1.275 	2.15223e-18 	-2.76991e-20 	-0.0341565 	-0.000446697 	-1.97435e-22
1.825 	2.15223e-18 	-1.39322e-20 	-0.00890764 	-0.00276746 	1.76988e-21
2.375 	2.15223e-18 	-2.66896e-23 	0.116895 	-0.00325467 	-7.38848e-22
