/*--------------------------------*- C++ -*----------------------------------*\
  =========                 |
  \\      /  F ield         | OpenFOAM: The Open Source CFD Toolbox
   \\    /   O peration     | Website:  https://openfoam.org
    \\  /    A nd           | Version:  6.0
     \\/     M anipulation  |
\*---------------------------------------------------------------------------*/
FoamFile
{
    version     2.0;
    format      ascii;
    class       volVectorField;
    location    "4.7";
    object      U;
}
// * * * * * * * * * * * * * * * * * * * * * * * * * * * * * * * * * * * * * //

dimensions      [0 1 -1 0 0 0 0];

internalField   nonuniform List<vector> 
24000
(
(0.999994 4.24004e-06 -7.95947e-17)
(0.999948 -1.21481e-05 1.08403e-16)
(0.999861 -5.68859e-05 -1.90669e-16)
(0.999751 -0.000144647 2.10456e-16)
(0.999648 -0.000270858 -1.03855e-15)
(0.999578 -0.000418699 -6.15765e-16)
(0.999566 -0.000557624 6.3046e-16)
(0.999609 -0.000663395 -1.39693e-15)
(0.999701 -0.00070246 4.38587e-16)
(0.999812 -0.000689415 -3.22595e-16)
(0.999939 -0.00051784 -3.12479e-16)
(1.00043 0.000240875 -4.66987e-16)
(0.999988 1.65955e-05 1.16682e-16)
(0.999904 -2.11927e-05 -1.60407e-16)
(0.999744 -0.000114003 3.56284e-16)
(0.999543 -0.00028714 -8.89951e-17)
(0.99936 -0.000529854 4.62247e-16)
(0.99924 -0.000807712 6.22766e-16)
(0.999228 -0.00106301 -3.50743e-16)
(0.999317 -0.00125313 1.48419e-15)
(0.999495 -0.00131531 -3.11445e-16)
(0.999711 -0.00128707 1.59785e-17)
(0.999909 -0.00098049 8.16477e-17)
(1.00096 0.000147888 1.55383e-16)
(0.999987 2.85126e-05 -8.88734e-17)
(0.999915 -2.26553e-05 2.16135e-16)
(0.999773 -0.000126096 -1.23488e-16)
(0.999595 -0.000304747 4.51701e-16)
(0.999432 -0.000549324 2.51752e-16)
(0.999324 -0.00082502 2.31605e-16)
(0.999317 -0.00107688 5.18801e-16)
(0.999406 -0.00126663 -6.59823e-16)
(0.999578 -0.00133334 -3.6828e-16)
(0.999798 -0.00132393 -1.30062e-16)
(0.99993 -0.0010754 -2.91293e-17)
(1.00105 -0.000345804 4.91589e-16)
(0.999986 3.86203e-05 -3.79484e-17)
(0.99993 -2.7418e-05 -2.04493e-16)
(0.999815 -0.000138895 -3.15877e-16)
(0.999673 -0.00031381 -2.23934e-16)
(0.999542 -0.000545782 -1.31188e-16)
(0.999455 -0.000801821 -9.0653e-16)
(0.999454 -0.00103552 -1.43634e-15)
(0.999535 -0.00121445 1.64126e-16)
(0.99969 -0.00128374 4.70217e-17)
(0.999907 -0.00128749 6.46434e-16)
(0.999971 -0.00109677 -4.13144e-16)
(1.001 -0.000582216 -5.74978e-16)
(0.999982 4.70669e-05 6.76052e-17)
(0.999931 -3.72776e-05 3.30129e-17)
(0.999826 -0.000164916 1.60079e-16)
(0.999701 -0.000349857 -7.56914e-17)
(0.999588 -0.000586453 2.08029e-16)
(0.999516 -0.00083937 1.87313e-16)
(0.999524 -0.00106742 1.45299e-15)
(0.999611 -0.00123957 -9.4954e-17)
(0.999765 -0.00130322 -2.80142e-16)
(0.999999 -0.00129616 7.61621e-17)
(1.00004 -0.00110908 2.85118e-16)
(1.00097 -0.000584027 -1.52244e-16)
(0.999977 5.40708e-05 3.91218e-18)
(0.999927 -4.97586e-05 -1.89947e-17)
(0.999824 -0.00019641 -2.13653e-17)
(0.999708 -0.000396839 -3.8695e-18)
(0.999607 -0.000644505 -8.6333e-16)
(0.999552 -0.00089933 1.05669e-15)
(0.999573 -0.00112321 2.93243e-17)
(0.999673 -0.00128566 1.46359e-16)
(0.999835 -0.00133544 6.92419e-16)
(1.00009 -0.00130868 -3.40955e-16)
(1.00013 -0.0011104 5.17387e-16)
(1.00096 -0.00057331 3.48688e-16)
(0.999972 5.96476e-05 -3.54044e-18)
(0.999924 -6.34425e-05 2.0484e-16)
(0.999824 -0.00022811 -2.07807e-16)
(0.999716 -0.000443256 -1.01354e-16)
(0.999628 -0.000701286 4.43668e-16)
(0.999588 -0.00095754 -2.18287e-16)
(0.999624 -0.00117643 -6.04646e-16)
(0.999736 -0.00132931 -3.13739e-16)
(0.999906 -0.00136693 1.22305e-16)
(1.00018 -0.00132776 6.03039e-16)
(1.00023 -0.00113133 -1.22135e-15)
(1.00097 -0.000639453 3.19707e-16)
(0.999965 6.37959e-05 -5.22932e-17)
(0.99992 -7.82247e-05 7.93008e-17)
(0.999825 -0.000259938 2.39457e-16)
(0.999725 -0.000489301 4.53442e-16)
(0.999648 -0.000758181 2.41452e-16)
(0.999621 -0.0010183 -2.67972e-16)
(0.999668 -0.00123599 -2.91411e-16)
(0.999791 -0.00138504 -1.39704e-16)
(0.999966 -0.00141792 4.82769e-17)
(1.00026 -0.00137408 -1.30609e-16)
(1.00033 -0.00118739 1.04571e-15)
(1.00101 -0.000750206 -5.52716e-16)
(0.999958 6.65903e-05 2.05894e-17)
(0.999915 -9.4077e-05 -1.94741e-16)
(0.999825 -0.000292303 1.46142e-17)
(0.999733 -0.000535822 -7.23654e-17)
(0.999665 -0.000816293 7.30374e-17)
(0.999648 -0.00108269 -6.11738e-17)
(0.999705 -0.00130247 5.1263e-17)
(0.999837 -0.00145164 5.59438e-16)
(1.00002 -0.00148365 -6.93401e-17)
(1.00033 -0.00143471 -7.91258e-16)
(1.00043 -0.00125272 -8.82188e-16)
(1.00107 -0.000844758 9.83216e-16)
(0.99995 6.81453e-05 7.31752e-17)
(0.99991 -0.00011078 4.86785e-18)
(0.999826 -0.000324788 1.84508e-16)
(0.999742 -0.000581441 -4.83865e-16)
(0.999683 -0.000872182 -1.15506e-16)
(0.999678 -0.0011439 5.22837e-16)
(0.999744 -0.00136468 -4.44171e-16)
(0.999886 -0.00151239 -6.69978e-16)
(1.00008 -0.00154158 2.05231e-16)
(1.0004 -0.00148241 2.05871e-16)
(1.00054 -0.00129731 6.5598e-16)
(1.00116 -0.000899222 -1.39025e-16)
(0.999941 6.85758e-05 -1.00366e-16)
(0.999904 -0.000128156 -2.31122e-17)
(0.999827 -0.000357138 -2.19897e-16)
(0.999753 -0.000625355 3.66009e-17)
(0.999707 -0.000923917 1.67347e-16)
(0.999713 -0.00119824 -3.60836e-16)
(0.99979 -0.00141675 2.71124e-16)
(0.999943 -0.00155915 7.54896e-16)
(1.00014 -0.00158184 -5.62976e-16)
(1.00048 -0.00150919 2.24652e-16)
(1.00066 -0.00131868 -8.49779e-16)
(1.00126 -0.000931392 -9.10913e-16)
(0.999931 6.7995e-05 6.51592e-18)
(0.999897 -0.000146173 1.91979e-16)
(0.999828 -0.000389681 -1.92594e-16)
(0.999766 -0.000668396 1.48985e-16)
(0.999733 -0.000973099 -4.57931e-16)
(0.999752 -0.00124835 -2.04074e-16)
(0.999841 -0.0014628 6.64589e-17)
(1.00001 -0.00159795 -3.03175e-16)
(1.00021 -0.00161274 -3.94729e-16)
(1.00056 -0.00152761 3.63568e-16)
(1.00077 -0.00133461 2.86457e-16)
(1.00136 -0.000968119 1.01336e-17)
(0.99992 6.652e-05 2.45166e-17)
(0.999889 -0.000164818 -1.91852e-17)
(0.999828 -0.000422855 5.30677e-16)
(0.999777 -0.0007118 1.53124e-16)
(0.999757 -0.00102225 2.6176e-16)
(0.999789 -0.00129856 -2.92639e-16)
(0.99989 -0.0015096 -1.48007e-16)
(1.00007 -0.00163845 1.20701e-16)
(1.00028 -0.00164681 4.66215e-16)
(1.00064 -0.0015527 -1.2215e-15)
(1.00087 -0.00136087 -4.87982e-16)
(1.00146 -0.00102063 5.46066e-16)
(0.999908 6.42669e-05 -7.57183e-17)
(0.999879 -0.000184038 -6.7404e-17)
(0.999825 -0.000456842 -4.19406e-16)
(0.999786 -0.000756168 -3.31487e-16)
(0.999779 -0.00107256 -2.3236e-16)
(0.999823 -0.00135081 3.65289e-16)
(0.999935 -0.00156022 2.51231e-16)
(1.00012 -0.00168505 -2.7681e-16)
(1.00034 -0.00168956 -3.71539e-16)
(1.00071 -0.0015897 -1.33156e-16)
(1.00097 -0.00140053 6.92989e-16)
(1.00155 -0.00108399 -4.85195e-16)
(0.999895 6.13432e-05 4.07574e-17)
(0.999867 -0.000203733 3.2223e-17)
(0.99982 -0.000491547 4.95419e-17)
(0.999792 -0.00080146 7.90646e-17)
(0.999797 -0.00112391 8.22235e-17)
(0.999853 -0.00140465 -1.48366e-16)
(0.999976 -0.00161377 7.77934e-18)
(1.00017 -0.00173641 -3.83409e-16)
(1.00041 -0.00173906 3.63093e-16)
(1.00078 -0.00163506 1.3847e-15)
(1.00107 -0.00144781 -2.06078e-16)
(1.00164 -0.00114874 6.75692e-16)
(0.999882 5.78416e-05 -3.9354e-17)
(0.999855 -0.000223798 1.4866e-18)
(0.999813 -0.000526784 1.47852e-16)
(0.999796 -0.000847451 2.09125e-16)
(0.999813 -0.00117587 2.31374e-16)
(0.999881 -0.00145901 -1.50357e-16)
(1.00002 -0.00166825 -2.42156e-16)
(1.00022 -0.00178939 5.92281e-16)
(1.00047 -0.00179095 1.43458e-16)
(1.00085 -0.00168315 -1.49248e-15)
(1.00116 -0.00149632 2.36214e-16)
(1.00174 -0.00120981 2.24008e-17)
(0.999868 5.38414e-05 9.00439e-17)
(0.999841 -0.000244124 3.3087e-17)
(0.999805 -0.000562339 -3.19576e-16)
(0.999797 -0.000893961 1.37951e-16)
(0.999827 -0.00122829 -5.61614e-17)
(0.999908 -0.00151354 3.67663e-16)
(1.00005 -0.00172269 6.26065e-16)
(1.00027 -0.00184225 1.05435e-16)
(1.00053 -0.0018427 5.11375e-16)
(1.00092 -0.00173096 1.24081e-15)
(1.00126 -0.00154345 1.43717e-15)
(1.00183 -0.00126701 -5.39069e-16)
(0.999853 4.94085e-05 3.46088e-17)
(0.999826 -0.000264613 -2.7442e-17)
(0.999795 -0.000598003 3.03965e-16)
(0.999797 -0.000940826 -2.77332e-16)
(0.999839 -0.00128123 3.92644e-16)
(0.999932 -0.00156851 4.03569e-18)
(1.00009 -0.00177741 -4.0701e-16)
(1.00032 -0.00189514 1.2836e-16)
(1.00059 -0.00189421 -4.42776e-16)
(1.00099 -0.0017785 -2.16829e-16)
(1.00135 -0.0015897 -5.76444e-16)
(1.00192 -0.00132215 -1.07012e-16)
(0.999838 4.46018e-05 -4.15047e-17)
(0.99981 -0.000285161 -2.31074e-16)
(0.999785 -0.000633533 -1.26512e-16)
(0.999795 -0.000987761 1.55314e-16)
(0.999849 -0.00133458 -2.82143e-17)
(0.999955 -0.00162422 -2.62232e-16)
(1.00013 -0.001833 -5.46994e-17)
(1.00037 -0.00194885 -3.38043e-17)
(1.00065 -0.00194636 -5.31514e-16)
(1.00106 -0.00182672 -3.90115e-16)
(1.00144 -0.0016361 -1.72838e-15)
(1.00202 -0.00137589 1.02975e-15)
(0.999822 3.94722e-05 -3.95461e-17)
(0.999794 -0.000305685 2.40564e-16)
(0.999774 -0.000668699 -1.71768e-16)
(0.999792 -0.00103436 7.66851e-17)
(0.999857 -0.00138795 -1.88304e-16)
(0.999976 -0.00168046 -4.26686e-16)
(1.00016 -0.00188951 5.41414e-17)
(1.00042 -0.00200361 -6.91433e-17)
(1.00071 -0.00199945 2.87731e-16)
(1.00113 -0.00187584 4.47456e-16)
(1.00153 -0.00168272 1.54676e-15)
(1.00211 -0.00142795 -9.95762e-16)
(0.999805 3.40711e-05 2.84448e-17)
(0.999778 -0.000326112 -1.12005e-17)
(0.999764 -0.000703303 2.72426e-17)
(0.999789 -0.00108017 -6.3602e-17)
(0.999864 -0.0014407 -2.36613e-16)
(0.999997 -0.00173653 -9.46594e-18)
(1.00019 -0.00194627 -1.25569e-16)
(1.00047 -0.00205883 -6.70945e-16)
(1.00077 -0.00205287 4.04407e-16)
(1.0012 -0.00192521 2.19143e-16)
(1.00162 -0.00172891 6.54488e-17)
(1.00221 -0.00147777 2.23869e-16)
(0.999788 2.84501e-05 3.25359e-17)
(0.999761 -0.000346407 -2.63921e-16)
(0.999753 -0.000737256 5.16922e-16)
(0.999786 -0.00112488 4.92033e-17)
(0.999872 -0.00149228 1.43526e-16)
(1.00002 -0.0017917 8.70323e-16)
(1.00023 -0.00200247 7.15942e-16)
(1.00051 -0.00211364 3.62451e-16)
(1.00083 -0.00210582 -9.60771e-16)
(1.00127 -0.00197413 -2.80359e-16)
(1.00171 -0.00177431 9.28518e-17)
(1.0023 -0.00152588 -3.3426e-17)
(0.99977 2.26719e-05 -6.09728e-17)
(0.999744 -0.000366552 1.05136e-16)
(0.999743 -0.000770565 -6.97023e-17)
(0.999784 -0.00116843 -8.85417e-17)
(0.99988 -0.00154247 -2.55335e-16)
(1.00004 -0.00184558 -5.05359e-16)
(1.00026 -0.00205762 -2.74752e-16)
(1.00056 -0.00216763 -2.17967e-17)
(1.00089 -0.00215801 2.78451e-16)
(1.00135 -0.00202258 -2.65705e-16)
(1.0018 -0.00181934 -1.56949e-15)
(1.0024 -0.00157328 7.98273e-16)
(0.999751 1.68073e-05 4.45183e-17)
(0.999726 -0.00038655 6.34447e-18)
(0.999732 -0.000803331 -1.89671e-16)
(0.999781 -0.00121097 -1.45107e-16)
(0.999889 -0.00159142 -8.0542e-17)
(1.00006 -0.00189829 -1.19093e-16)
(1.0003 -0.00211187 -2.17312e-16)
(1.00061 -0.00222103 -2.3191e-16)
(1.00096 -0.00220989 -6.763e-17)
(1.00142 -0.00207121 -2.46529e-16)
(1.00189 -0.00186493 9.31643e-17)
(1.00249 -0.00162115 -1.58837e-16)
(0.999732 1.0942e-05 1.52596e-17)
(0.999708 -0.000406398 1.49385e-16)
(0.99972 -0.000835682 4.0903e-17)
(0.999779 -0.00125279 -1.57113e-17)
(0.999898 -0.00163954 9.89179e-17)
(1.00008 -0.0019503 2.78056e-16)
(1.00033 -0.00216574 1.07061e-16)
(1.00066 -0.00227448 2.67864e-16)
(1.00102 -0.0022622 3.14142e-16)
(1.0015 -0.00212085 -3.06767e-16)
(1.00198 -0.00191179 1.00806e-15)
(1.00259 -0.00166992 -6.26755e-16)
(0.999712 5.16827e-06 -2.06923e-17)
(0.999688 -0.000426087 -1.95452e-17)
(0.999708 -0.000867738 -1.47782e-16)
(0.999776 -0.00129418 -9.72922e-17)
(0.999906 -0.0016873 -3.48826e-17)
(1.0001 -0.00200217 -1.79086e-16)
(1.00037 -0.00221983 1.04254e-17)
(1.00071 -0.00232861 -3.11803e-16)
(1.00108 -0.00231557 -2.71004e-17)
(1.00157 -0.00217195 1.05423e-15)
(1.00207 -0.00196004 4.97866e-16)
(1.00269 -0.00171937 5.34686e-17)
(0.999691 -4.13414e-07 -9.84468e-18)
(0.999668 -0.000445587 -1.14665e-16)
(0.999694 -0.000899562 -5.05425e-17)
(0.999771 -0.0013354 -7.55361e-17)
(0.999913 -0.00173508 5.57868e-16)
(1.00012 -0.00205435 -1.29289e-16)
(1.0004 -0.00227458 1.53957e-16)
(1.00076 -0.00238377 -1.60017e-16)
(1.00115 -0.00237019 -2.55773e-16)
(1.00164 -0.00222443 -2.65841e-16)
(1.00216 -0.00200932 -1.97026e-17)
(1.00278 -0.00176889 -2.02646e-16)
(0.999669 -5.70623e-06 3.40883e-17)
(0.999646 -0.00046486 -4.08535e-17)
(0.999679 -0.000931174 1.71668e-16)
(0.999765 -0.00137655 3.46679e-16)
(0.999918 -0.0017831 -5.27496e-16)
(1.00014 -0.00210707 4.99431e-16)
(1.00043 -0.00233016 -2.76268e-16)
(1.0008 -0.00243999 -1.44303e-16)
(1.00121 -0.00242591 -1.94494e-16)
(1.00172 -0.00227793 -3.55945e-16)
(1.00225 -0.00205908 -1.51258e-16)
(1.00288 -0.00181802 -1.21591e-16)
(0.999646 -1.06167e-05 -5.82261e-18)
(0.999623 -0.000483854 -1.56677e-17)
(0.999662 -0.000962547 -1.5786e-17)
(0.999758 -0.00141768 -3.35583e-16)
(0.999923 -0.00183142 -1.44115e-16)
(1.00016 -0.00216039 -1.30652e-17)
(1.00047 -0.00238656 -3.90172e-16)
(1.00085 -0.00249714 7.1939e-16)
(1.00127 -0.00248245 -5.87296e-18)
(1.0018 -0.00233203 2.5146e-16)
(1.00234 -0.00210896 1.784e-16)
(1.00298 -0.00186672 -5.4718e-18)
(0.999622 -1.5065e-05 -1.88907e-17)
(0.9996 -0.000502524 1.07885e-16)
(0.999645 -0.000993649 3.21386e-17)
(0.999749 -0.00145874 4.61237e-16)
(0.999926 -0.00187999 2.51789e-16)
(1.00017 -0.00221426 -4.2255e-16)
(1.0005 -0.00244367 1.91932e-16)
(1.0009 -0.00255504 -3.79016e-16)
(1.00134 -0.00253957 1.31293e-15)
(1.00187 -0.00238654 -1.02142e-16)
(1.00243 -0.00215891 2.25015e-17)
(1.00308 -0.00191519 -1.41754e-16)
(0.999596 -1.89812e-05 -1.97115e-17)
(0.999575 -0.000520824 7.53688e-17)
(0.999626 -0.00102445 -9.05668e-17)
(0.999739 -0.0014997 -4.47645e-16)
(0.999928 -0.00192873 4.63664e-16)
(1.00019 -0.00226856 2.71325e-16)
(1.00053 -0.00250139 3.43283e-16)
(1.00095 -0.0026136 1.5367e-16)
(1.0014 -0.00259724 -1.09063e-16)
(1.00195 -0.00244149 5.48051e-16)
(1.00252 -0.00220915 -9.95447e-16)
(1.00318 -0.0019639 1.1285e-15)
(0.99957 -2.23118e-05 2.74666e-17)
(0.999549 -0.000538725 -1.4425e-16)
(0.999606 -0.00105494 -8.42452e-17)
(0.999729 -0.00154054 -2.68438e-17)
(0.99993 -0.0019776 -1.77341e-16)
(1.00021 -0.00232324 -5.03987e-18)
(1.00056 -0.00255968 -2.82177e-16)
(1.00099 -0.00267284 -2.13659e-16)
(1.00146 -0.00265553 -1.20599e-15)
(1.00203 -0.00249711 -3.98368e-16)
(1.00262 -0.00226005 -2.56491e-16)
(1.00327 -0.00201323 -3.02537e-17)
(0.999542 -2.50124e-05 1.05334e-17)
(0.999521 -0.000556201 -1.18588e-17)
(0.999585 -0.00108514 -4.26249e-17)
(0.999717 -0.00158127 3.2566e-16)
(0.999931 -0.00202658 -5.53076e-16)
(1.00022 -0.00237829 -4.10581e-16)
(1.00059 -0.00261856 3.5288e-16)
(1.00104 -0.00273284 -2.33618e-17)
(1.00153 -0.00271467 7.30753e-17)
(1.0021 -0.0025537 4.22213e-16)
(1.00271 -0.00231201 -1.69004e-16)
(1.00337 -0.00206349 3.05972e-16)
(0.999512 -2.70529e-05 -1.51734e-17)
(0.999493 -0.000573243 1.70088e-16)
(0.999563 -0.00111509 2.88603e-16)
(0.999705 -0.00162197 -9.61821e-17)
(0.999931 -0.00207577 4.3586e-17)
(1.00024 -0.00243379 1.82423e-16)
(1.00062 -0.00267814 -4.21291e-16)
(1.00109 -0.00279379 4.4378e-16)
(1.00159 -0.00277492 3.45232e-16)
(1.00218 -0.00261158 -2.84679e-16)
(1.0028 -0.00236537 3.23684e-18)
(1.00347 -0.00211484 -1.91694e-17)
(0.999481 -2.84085e-05 -4.29438e-18)
(0.999464 -0.00058984 -2.47093e-16)
(0.99954 -0.00114486 -4.85128e-17)
(0.999691 -0.00166275 5.79655e-17)
(0.99993 -0.00212531 6.52473e-16)
(1.00025 -0.00248992 5.21143e-17)
(1.00065 -0.00273863 3.9117e-16)
(1.00113 -0.00285593 -7.24838e-16)
(1.00165 -0.00283653 3.6422e-16)
(1.00226 -0.00267102 -4.37878e-16)
(1.00289 -0.00242034 9.40784e-16)
(1.00357 -0.00216733 -4.69367e-16)
(0.999449 -2.90648e-05 2.14657e-17)
(0.999433 -0.000605989 1.0955e-16)
(0.999515 -0.00117448 -1.16375e-16)
(0.999676 -0.00170374 4.79191e-17)
(0.999928 -0.00217539 -3.92492e-16)
(1.00026 -0.00254689 -1.38235e-16)
(1.00068 -0.00280025 2.27011e-17)
(1.00118 -0.00291947 5.19402e-16)
(1.00172 -0.00289973 3.13671e-16)
(1.00234 -0.00273217 -2.16737e-17)
(1.00298 -0.00247695 1.2396e-15)
(1.00367 -0.00222078 -6.14051e-16)
(0.999416 -2.90118e-05 1.44296e-18)
(0.999401 -0.000621682 1.19568e-16)
(0.999489 -0.00120399 1.19486e-16)
(0.99966 -0.00174501 -1.44073e-17)
(0.999925 -0.00222617 2.87038e-16)
(1.00027 -0.0026049 3.71299e-16)
(1.00071 -0.0028632 -1.13343e-16)
(1.00123 -0.00298459 5.21763e-16)
(1.00178 -0.00296462 -1.19795e-15)
(1.00242 -0.002795 -1.33001e-16)
(1.00308 -0.00253504 -1.78451e-15)
(1.00377 -0.00227475 1.41691e-16)
(0.99938 -2.825e-05 -6.22575e-17)
(0.999368 -0.000636912 7.43934e-17)
(0.999462 -0.00123338 -2.12653e-17)
(0.999642 -0.0017866 1.55159e-16)
(0.99992 -0.00227773 -2.13717e-16)
(1.00029 -0.00266408 -5.21046e-16)
(1.00074 -0.00292758 -4.00946e-17)
(1.00127 -0.00305134 -3.71905e-16)
(1.00184 -0.00303116 1.27608e-15)
(1.00249 -0.00285934 -4.30265e-17)
(1.00317 -0.00259435 3.82972e-16)
(1.00387 -0.00232887 7.08188e-16)
(0.999344 -2.67856e-05 1.54824e-17)
(0.999334 -0.000651673 -3.18948e-16)
(0.999433 -0.00126262 1.09956e-16)
(0.999623 -0.0018285 -5.10109e-16)
(0.999914 -0.00233008 2.55294e-16)
(1.00029 -0.00272442 8.45567e-16)
(1.00076 -0.00299339 -2.19322e-16)
(1.00131 -0.00311962 -5.19563e-16)
(1.0019 -0.00309915 -4.061e-16)
(1.00257 -0.00292491 -8.03646e-17)
(1.00326 -0.0026545 3.96967e-16)
(1.00397 -0.00238276 -6.47621e-16)
(0.999306 -2.46375e-05 3.55066e-17)
(0.999299 -0.000665964 9.26647e-17)
(0.999404 -0.00129168 -3.33919e-16)
(0.999602 -0.00187063 4.62605e-16)
(0.999906 -0.00238312 -6.95741e-16)
(1.0003 -0.00278584 -6.95236e-16)
(1.00079 -0.00306048 2.65138e-16)
(1.00136 -0.00318924 9.32837e-16)
(1.00197 -0.00316835 -5.25769e-16)
(1.00265 -0.00299138 2.11741e-16)
(1.00335 -0.00271516 -1.71308e-16)
(1.00407 -0.00243629 6.06645e-17)
(0.999267 -2.18317e-05 -6.04808e-18)
(0.999263 -0.00067979 1.99987e-16)
(0.999373 -0.00132051 2.66414e-16)
(0.999581 -0.00191288 -3.17198e-16)
(0.999898 -0.0024367 1.54366e-16)
(1.00031 -0.00284813 4.2827e-16)
(1.00081 -0.00312863 1.44072e-16)
(1.0014 -0.00325994 -9.66888e-17)
(1.00203 -0.00323845 7.37009e-16)
(1.00273 -0.00305846 3.75343e-16)
(1.00345 -0.00277611 7.06905e-17)
(1.00418 -0.00248927 6.40126e-17)
(0.999227 -1.84079e-05 1.35964e-17)
(0.999226 -0.000693173 -2.23097e-16)
(0.999341 -0.00134908 -5.8955e-17)
(0.999558 -0.00195516 1.24226e-16)
(0.999888 -0.00249066 7.512e-16)
(1.00032 -0.0029111 -3.8544e-16)
(1.00084 -0.0031976 -3.28501e-16)
(1.00145 -0.00333147 -7.46887e-17)
(1.00209 -0.00330923 -7.28961e-16)
(1.00281 -0.00312598 4.24194e-16)
(1.00354 -0.00283726 -5.91066e-17)
(1.00428 -0.0025419 3.80772e-16)
(0.999185 -1.44119e-05 -1.07886e-17)
(0.999188 -0.000706144 1.3969e-16)
(0.999309 -0.0013774 -9.6409e-17)
(0.999535 -0.00199741 3.61857e-16)
(0.999879 -0.00254487 -7.05699e-16)
(1.00032 -0.00297455 4.96003e-16)
(1.00086 -0.0032672 -4.82694e-17)
(1.00149 -0.00340366 -5.04538e-17)
(1.00216 -0.00338056 7.54289e-16)
(1.00289 -0.00319386 -2.91039e-16)
(1.00363 -0.00289865 -2.38529e-16)
(1.00438 -0.00259423 -9.61802e-17)
(0.999142 -9.89994e-06 1.5185e-18)
(0.999149 -0.000718751 -2.60364e-17)
(0.999276 -0.00140551 1.17475e-16)
(0.999512 -0.00203962 -4.01367e-16)
(0.999868 -0.00259928 3.48416e-16)
(1.00033 -0.00303841 1.16611e-16)
(1.00089 -0.00333735 1.68022e-16)
(1.00153 -0.00347645 -8.77624e-16)
(1.00222 -0.00345243 -3.68421e-16)
(1.00297 -0.00326219 -1.32616e-15)
(1.00373 -0.00296038 -6.9423e-16)
(1.00448 -0.00264665 -7.15613e-16)
(0.999098 -4.93155e-06 -1.97139e-17)
(0.999109 -0.00073105 1.80479e-17)
(0.999242 -0.00143346 -2.20132e-16)
(0.999487 -0.00208186 1.44768e-17)
(0.999857 -0.00265389 -8.85137e-17)
(1.00033 -0.00310267 5.25897e-18)
(1.00091 -0.00340804 3.1039e-16)
(1.00158 -0.00354986 1.1865e-15)
(1.00228 -0.00352492 1.03205e-16)
(1.00305 -0.00333108 8.27691e-16)
(1.00382 -0.00302261 -1.21621e-16)
(1.00459 -0.00269924 1.29882e-15)
(0.999053 4.2824e-07 1.89675e-17)
(0.999068 -0.000743106 1.0957e-17)
(0.999208 -0.00146136 2.97491e-16)
(0.999462 -0.00212421 -1.74031e-16)
(0.999846 -0.00270881 -2.03833e-16)
(1.00034 -0.00316743 -2.35508e-16)
(1.00094 -0.00347937 -1.42899e-16)
(1.00162 -0.00362401 -4.7573e-16)
(1.00234 -0.00359818 8.56673e-17)
(1.00313 -0.0034007 8.22361e-16)
(1.00392 -0.0030855 7.99393e-16)
(1.00469 -0.00275237 -1.15344e-15)
(0.999006 6.1152e-06 -1.93645e-17)
(0.999025 -0.000754983 -2.39575e-16)
(0.999172 -0.00148928 -1.27572e-16)
(0.999437 -0.00216681 2.92328e-17)
(0.999834 -0.00276418 5.10979e-16)
(1.00035 -0.00323283 -4.05314e-16)
(1.00096 -0.00355149 -3.61848e-16)
(1.00166 -0.00369906 -4.47503e-16)
(1.00241 -0.00367236 -5.36788e-16)
(1.00321 -0.0034712 -1.77684e-15)
(1.00401 -0.00314898 -5.95009e-16)
(1.0048 -0.00280594 5.8482e-16)
(0.998959 1.20635e-05 9.69138e-18)
(0.998982 -0.000766751 2.00087e-16)
(0.999135 -0.00151735 6.03591e-17)
(0.99941 -0.0022098 3.72479e-16)
(0.999822 -0.00282017 -5.8977e-16)
(1.00035 -0.00329904 5.75083e-16)
(1.00098 -0.00362458 -6.85582e-18)
(1.00171 -0.00377516 1.05454e-15)
(1.00247 -0.00374762 3.80939e-16)
(1.00329 -0.0035427 2.3172e-15)
(1.00411 -0.00321306 3.30877e-16)
(1.0049 -0.00286011 5.4502e-16)
(0.99891 1.82104e-05 -1.97861e-17)
(0.998937 -0.00077847 4.29808e-17)
(0.999097 -0.00154564 9.36276e-17)
(0.999382 -0.00225328 -1.45669e-16)
(0.999808 -0.00287691 5.03915e-16)
(1.00035 -0.00336621 -6.06738e-16)
(1.00101 -0.00369877 5.54144e-16)
(1.00175 -0.00385245 -1.42312e-16)
(1.00253 -0.00382401 2.32402e-16)
(1.00337 -0.00361523 -1.68986e-15)
(1.0042 -0.00327773 1.00544e-15)
(1.00501 -0.00291496 -1.21638e-15)
(0.99886 2.44928e-05 2.12822e-17)
(0.998891 -0.0007902 -1.18982e-16)
(0.999057 -0.00157422 -1.7302e-16)
(0.999352 -0.00229736 -1.7109e-16)
(0.999793 -0.00293452 5.21932e-17)
(1.00036 -0.00343447 -1.59728e-16)
(1.00103 -0.00377417 -3.01837e-16)
(1.00179 -0.00393098 -6.70085e-16)
(1.0026 -0.0039016 -2.40131e-16)
(1.00345 -0.00368882 3.94951e-16)
(1.0043 -0.00334309 -9.87673e-16)
(1.00511 -0.00297075 7.03249e-16)
(0.998809 3.08516e-05 5.12797e-17)
(0.998843 -0.000801995 1.44686e-17)
(0.999016 -0.00160316 -4.60398e-17)
(0.999322 -0.0023421 1.24333e-16)
(0.999777 -0.00299307 -6.88101e-16)
(1.00036 -0.00350387 1.16516e-16)
(1.00105 -0.00385082 5.05048e-16)
(1.00184 -0.00401079 -2.82071e-16)
(1.00266 -0.00398039 9.48093e-17)
(1.00353 -0.00376344 -1.24328e-16)
(1.00439 -0.00340909 2.25448e-16)
(1.00522 -0.00302741 -5.29996e-16)
(0.998757 3.72276e-05 -3.34749e-17)
(0.998795 -0.000813909 7.35355e-17)
(0.998974 -0.0016325 -1.34584e-16)
(0.99929 -0.00238757 -8.06445e-17)
(0.99976 -0.00305261 5.11895e-16)
(1.00036 -0.00357445 2.11783e-16)
(1.00107 -0.00392874 -2.23618e-16)
(1.00188 -0.00409188 4.58869e-16)
(1.00272 -0.00406036 1.51132e-16)
(1.00361 -0.00383912 2.98421e-16)
(1.00449 -0.00347582 -3.07856e-16)
(1.00532 -0.003085 -1.11313e-17)
(0.998704 4.35648e-05 -5.12647e-17)
(0.998745 -0.000825988 -2.66887e-17)
(0.99893 -0.00166229 1.38743e-16)
(0.999257 -0.00243378 1.22665e-16)
(0.999742 -0.00311315 1.59579e-16)
(1.00036 -0.00364621 4.31784e-16)
(1.00109 -0.00400794 -1.93833e-16)
(1.00192 -0.00417425 -8.64796e-17)
(1.00278 -0.00414153 -1.83362e-16)
(1.00369 -0.00391583 -6.70948e-18)
(1.00458 -0.00354333 6.66285e-18)
(1.00543 -0.00314372 3.88013e-16)
(0.99865 4.98073e-05 8.62454e-17)
(0.998693 -0.000838283 -1.39876e-17)
(0.998885 -0.00169258 1.60371e-16)
(0.999223 -0.00248078 -7.32807e-17)
(0.999722 -0.00317472 -1.40501e-16)
(1.00036 -0.00371917 -5.68468e-16)
(1.00111 -0.00408841 -3.44365e-16)
(1.00196 -0.00425791 2.24312e-16)
(1.00285 -0.00422393 3.53439e-17)
(1.00377 -0.00399365 5.37738e-17)
(1.00468 -0.00361184 8.33184e-17)
(1.00553 -0.00320361 3.46817e-17)
(0.998595 5.59033e-05 -8.60214e-17)
(0.99864 -0.000850838 1.31655e-16)
(0.998839 -0.00172339 -2.36104e-16)
(0.999187 -0.00252859 1.62508e-16)
(0.999702 -0.00323735 -3.77428e-18)
(1.00035 -0.00379334 3.85916e-16)
(1.00113 -0.00417018 3.36085e-16)
(1.002 -0.00434289 -2.24532e-16)
(1.00291 -0.00430761 3.69541e-16)
(1.00385 -0.0040726 -2.39654e-16)
(1.00478 -0.00368149 7.16586e-16)
(1.00563 -0.00326476 7.26501e-16)
(0.998539 6.18025e-05 6.59223e-17)
(0.998586 -0.000863698 -9.53027e-17)
(0.998791 -0.00175479 -4.00543e-17)
(0.99915 -0.00257727 1.20968e-16)
(0.99968 -0.00330108 -1.51879e-16)
(1.00035 -0.00386878 -2.36301e-16)
(1.00115 -0.0042533 3.61013e-16)
(1.00204 -0.00442924 -2.1152e-16)
(1.00297 -0.00439262 -4.49982e-16)
(1.00393 -0.00415277 2.42203e-16)
(1.00487 -0.00375243 -4.11312e-16)
(1.00574 -0.00332699 -5.69182e-16)
(0.998482 6.74592e-05 2.74058e-17)
(0.998531 -0.000876905 -1.01353e-16)
(0.998743 -0.00178679 4.14297e-16)
(0.999112 -0.00262686 -2.02528e-16)
(0.999658 -0.00336594 8.2789e-17)
(1.00035 -0.00394552 -1.92106e-16)
(1.00117 -0.00433781 -4.74444e-16)
(1.00208 -0.00451702 4.12239e-16)
(1.00303 -0.00447901 4.75248e-16)
(1.00401 -0.00423415 -6.0023e-16)
(1.00497 -0.00382468 -2.34492e-16)
(1.00584 -0.00338992 -1.78467e-16)
(0.998425 7.28318e-05 -7.85536e-17)
(0.998474 -0.000890497 3.06117e-17)
(0.998692 -0.00181946 -1.87523e-16)
(0.999073 -0.00267738 2.56644e-17)
(0.999634 -0.00343199 1.1426e-16)
(1.00034 -0.00402361 4.66725e-16)
(1.00118 -0.00442376 5.04966e-18)
(1.00212 -0.00460626 -2.43908e-17)
(1.00309 -0.00456679 -6.53479e-16)
(1.00409 -0.00431676 9.59825e-17)
(1.00507 -0.00389821 -1.35303e-16)
(1.00595 -0.00345334 7.27587e-17)
(0.998366 7.78851e-05 -1.26837e-17)
(0.998416 -0.000904509 -2.33516e-17)
(0.998641 -0.0018528 -2.73656e-16)
(0.999032 -0.00272887 -5.00182e-17)
(0.999609 -0.00349924 -1.79835e-16)
(1.00034 -0.00410307 -1.30175e-16)
(1.0012 -0.00451116 -1.32794e-16)
(1.00216 -0.00469697 1.63229e-16)
(1.00315 -0.00465595 1.83796e-16)
(1.00417 -0.00440053 3.14652e-16)
(1.00516 -0.00397288 4.43981e-16)
(1.00606 -0.00351697 -2.3014e-16)
(0.998307 8.25898e-05 3.06732e-17)
(0.998357 -0.000918976 1.59447e-17)
(0.998588 -0.00188685 2.61273e-16)
(0.99899 -0.00278133 -5.25045e-17)
(0.999583 -0.0035677 -9.68964e-17)
(1.00033 -0.0041839 -1.49363e-16)
(1.00121 -0.0046 4.43105e-16)
(1.0022 -0.0047891 -2.97276e-16)
(1.00321 -0.00474643 1.0507e-16)
(1.00425 -0.00448541 4.09824e-16)
(1.00526 -0.00404858 -2.60974e-16)
(1.00616 -0.00358078 -4.09483e-17)
(0.998247 8.69237e-05 -4.19389e-17)
(0.998297 -0.000933927 4.33981e-17)
(0.998534 -0.00192161 8.90469e-17)
(0.998947 -0.00283474 1.89768e-16)
(0.999556 -0.00363733 3.42061e-16)
(1.00032 -0.00426606 -2.547e-16)
(1.00123 -0.00469023 -1.68989e-16)
(1.00223 -0.00488259 1.7825e-17)
(1.00327 -0.00483813 -3.11863e-16)
(1.00433 -0.00457126 -4.49156e-16)
(1.00536 -0.00412516 5.99068e-16)
(1.00627 -0.00364443 2.51643e-16)
(0.998187 9.08708e-05 6.75001e-17)
(0.998235 -0.000949395 8.248e-17)
(0.998479 -0.00195709 -8.45863e-17)
(0.998903 -0.0028891 -1.72085e-16)
(0.999528 -0.0037081 4.47642e-17)
(1.00032 -0.00434949 4.17027e-16)
(1.00124 -0.00478177 -2.978e-16)
(1.00227 -0.00497733 -1.07637e-17)
(1.00333 -0.00493097 3.97993e-16)
(1.00441 -0.004658 -3.9036e-16)
(1.00545 -0.00420247 -5.08703e-16)
(1.00638 -0.00370805 -1.30617e-16)
(0.998125 9.44223e-05 8.35081e-18)
(0.998173 -0.000965407 8.44407e-18)
(0.998422 -0.0019933 -2.78311e-16)
(0.998858 -0.00294437 -2.27067e-16)
(0.999499 -0.00377996 -3.82168e-16)
(1.00031 -0.00443411 5.2067e-17)
(1.00126 -0.00487453 8.54129e-17)
(1.00231 -0.00507323 -5.94573e-17)
(1.00339 -0.00502486 -3.26951e-16)
(1.00449 -0.00474558 7.33169e-16)
(1.00555 -0.00428046 3.80141e-16)
(1.00648 -0.00377137 -1.17529e-16)
(0.998062 9.75753e-05 -3.96494e-17)
(0.998109 -0.000981994 -7.72929e-17)
(0.998365 -0.00203025 3.71012e-16)
(0.998812 -0.00300054 3.38013e-16)
(0.999469 -0.00385286 -7.43254e-18)
(1.0003 -0.00451987 7.23655e-17)
(1.00127 -0.00496845 -1.12396e-16)
(1.00234 -0.00517024 8.26257e-17)
(1.00345 -0.00511978 3.48053e-16)
(1.00457 -0.004834 -1.8103e-16)
(1.00565 -0.00435916 1.29109e-16)
(1.00659 -0.00383493 2.18297e-16)
(0.997999 0.000100332 -2.48087e-18)
(0.998043 -0.000999183 5.34778e-17)
(0.998306 -0.00206796 -1.62432e-16)
(0.998765 -0.00305761 -3.1946e-16)
(0.999439 -0.00392678 1.93526e-16)
(1.00029 -0.00460672 -4.43998e-16)
(1.00128 -0.00506349 1.31252e-16)
(1.00238 -0.00526832 -1.95012e-16)
(1.00351 -0.00521568 3.08482e-17)
(1.00465 -0.00492329 1.85677e-16)
(1.00574 -0.00443832 -1.60165e-16)
(1.0067 -0.00389854 -4.8652e-16)
(0.997934 0.000102699 2.29195e-17)
(0.997977 -0.001017 -1.48482e-16)
(0.998246 -0.00210645 1.66664e-16)
(0.998716 -0.00311559 2.80015e-16)
(0.999407 -0.00400172 -3.60241e-16)
(1.00027 -0.00469468 -3.04942e-17)
(1.00129 -0.00515964 2.19452e-16)
(1.00242 -0.0053675 -2.64979e-16)
(1.00357 -0.00531264 -3.21233e-16)
(1.00473 -0.00501354 9.09286e-17)
(1.00584 -0.00451797 -2.79058e-16)
(1.00681 -0.00396266 4.28479e-16)
(0.997869 0.000104688 1.50613e-17)
(0.997909 -0.00103547 7.82587e-17)
(0.998185 -0.00214575 -7.73309e-17)
(0.998667 -0.00317449 2.3596e-16)
(0.999374 -0.0040777 1.7507e-16)
(1.00026 -0.00478375 1.47486e-16)
(1.0013 -0.00525694 -2.48142e-16)
(1.00245 -0.00546783 3.78342e-16)
(1.00363 -0.00541071 -3.3666e-18)
(1.00481 -0.00510484 -7.20883e-16)
(1.00594 -0.00459827 1.38053e-16)
(1.00692 -0.00402762 -2.69673e-17)
(0.997802 0.000106312 -2.401e-17)
(0.99784 -0.00105461 8.084e-17)
(0.998123 -0.00218588 -2.69393e-16)
(0.998616 -0.00323437 -1.97686e-16)
(0.999341 -0.00415476 4.02545e-17)
(1.00025 -0.00487401 1.55077e-16)
(1.00132 -0.00535547 2.59188e-16)
(1.00249 -0.00556942 3.53901e-17)
(1.00369 -0.00551003 2.80552e-17)
(1.00489 -0.00519735 4.80026e-16)
(1.00604 -0.00467949 1.46248e-16)
(1.00703 -0.00409399 -2.33956e-16)
(0.997733 0.000107589 -1.89781e-17)
(0.99777 -0.00107443 -2.24319e-17)
(0.998059 -0.00222687 2.85535e-16)
(0.998565 -0.00329526 4.5619e-18)
(0.999306 -0.00423297 2.46154e-16)
(1.00024 -0.00496551 -2.32147e-16)
(1.00133 -0.0054553 -1.52018e-16)
(1.00252 -0.00567235 -4.51814e-17)
(1.00375 -0.00561066 5.44985e-18)
(1.00497 -0.00529113 2.916e-16)
(1.00614 -0.00476159 -4.55132e-16)
(1.00714 -0.00416151 -2.69047e-16)
(0.997664 0.000108539 5.17522e-18)
(0.997698 -0.00109493 -7.87982e-17)
(0.997994 -0.00226876 -2.762e-16)
(0.998512 -0.00335719 4.9253e-17)
(0.999271 -0.00431237 2.30122e-17)
(1.00022 -0.00505833 2.9294e-18)
(1.00133 -0.00555654 -8.03212e-17)
(1.00255 -0.00577673 3.4939e-16)
(1.00381 -0.00571273 3.83302e-16)
(1.00505 -0.0053863 -2.55143e-16)
(1.00624 -0.00484474 6.89427e-16)
(1.00725 -0.00423034 6.34862e-16)