1.45 	0 	0 	-0.290511
2.35 	0 	0 	-0.126346
