1.45 	0 	0 	-0.00812254 	-0.00258587 	1.6539e-20
2.35 	0 	0 	0.0622392 	-0.00661941 	9.89288e-21
