1.275 	2.15223e-18 	-2.76991e-20 	-0.0340311 	-0.000442135 	-1.98569e-22
1.825 	2.15223e-18 	-1.39322e-20 	-0.00867856 	-0.00277286 	1.78332e-21
2.375 	2.15223e-18 	-2.66896e-23 	0.11754 	-0.00328033 	-7.44399e-22
