/*--------------------------------*- C++ -*----------------------------------*\
  =========                 |
  \\      /  F ield         | OpenFOAM: The Open Source CFD Toolbox
   \\    /   O peration     | Website:  https://openfoam.org
    \\  /    A nd           | Version:  6.0
     \\/     M anipulation  |
\*---------------------------------------------------------------------------*/
FoamFile
{
    version     2.0;
    format      ascii;
    class       volScalarField;
    location    "23";
    object      p;
}
// * * * * * * * * * * * * * * * * * * * * * * * * * * * * * * * * * * * * * //

dimensions      [0 2 -2 0 0 0 0];

internalField   nonuniform List<scalar> 
2000
(
-0.348844
-0.354747
-0.356454
-0.35579
-0.353934
-0.351262
-0.348054
-0.344596
-0.341159
-0.337469
-0.351559
-0.357046
-0.358413
-0.357446
-0.355302
-0.352356
-0.348884
-0.345166
-0.341478
-0.337663
-0.35701
-0.361645
-0.362318
-0.360743
-0.358017
-0.354514
-0.350506
-0.346252
-0.342042
-0.337972
-0.365238
-0.368543
-0.368151
-0.365649
-0.362042
-0.357692
-0.352859
-0.347762
-0.342714
-0.338237
-0.376305
-0.377738
-0.375882
-0.372127
-0.367335
-0.361842
-0.355873
-0.34958
-0.343295
-0.338198
-0.390276
-0.389219
-0.385471
-0.380137
-0.373866
-0.366939
-0.359518
-0.351622
-0.343576
-0.337526
-0.407187
-0.402944
-0.396859
-0.389638
-0.381629
-0.373026
-0.363887
-0.354007
-0.343557
-0.335962
-0.426983
-0.418814
-0.409956
-0.40057
-0.390609
-0.380147
-0.369097
-0.356869
-0.343003
-0.33233
-0.449453
-0.436656
-0.424644
-0.412891
-0.400848
-0.388394
-0.375132
-0.359597
-0.339615
-0.321852
-0.474162
-0.456205
-0.440826
-0.426749
-0.412967
-0.399261
-0.384882
-0.367251
-0.342263
-0.317636
-0.500423
-0.477034
-0.458231
-0.442059
-0.427338
-0.414429
-0.40369
-0.395758
-0.395774
-0.414929
-0.527409
-0.498563
-0.47624
-0.457706
-0.441381
-0.427711
-0.417193
-0.410862
-0.413734
-0.431063
-0.554395
-0.520334
-0.494579
-0.473571
-0.45522
-0.439874
-0.427916
-0.420043
-0.419283
-0.427219
-0.580734
-0.541873
-0.512938
-0.489485
-0.468863
-0.451235
-0.436775
-0.425722
-0.419499
-0.418267
-0.605676
-0.562515
-0.530693
-0.504805
-0.481606
-0.461055
-0.443124
-0.42768
-0.41512
-0.405567
-0.628233
-0.581325
-0.5469
-0.518525
-0.492395
-0.468334
-0.446228
-0.425767
-0.406784
-0.390032
-0.647119
-0.597092
-0.560328
-0.529359
-0.49994
-0.471898
-0.445203
-0.41956
-0.394572
-0.371915
-0.660774
-0.60836
-0.569512
-0.535824
-0.502811
-0.470489
-0.439081
-0.408454
-0.378199
-0.350978
-0.667431
-0.613487
-0.57283
-0.536323
-0.499529
-0.462849
-0.426898
-0.391786
-0.3572
-0.326723
-0.665222
-0.610732
-0.568584
-0.529243
-0.488661
-0.447806
-0.407767
-0.368914
-0.33106
-0.298555
-0.652288
-0.598349
-0.555101
-0.513053
-0.468913
-0.424352
-0.380955
-0.339312
-0.299327
-0.265934
-0.626891
-0.574695
-0.530843
-0.486412
-0.439223
-0.391726
-0.345955
-0.30264
-0.261709
-0.228486
-0.587557
-0.538359
-0.494529
-0.448279
-0.398853
-0.349477
-0.30254
-0.258802
-0.21814
-0.186072
-0.533186
-0.48828
-0.445247
-0.398003
-0.347447
-0.297506
-0.250787
-0.207979
-0.168823
-0.138836
-0.463176
-0.42386
-0.382548
-0.335386
-0.28506
-0.236064
-0.191075
-0.150621
-0.114233
-0.08721
-0.377527
-0.345064
-0.306525
-0.260719
-0.212153
-0.165713
-0.124007
-0.087348
-0.0550115
-0.0318295
-0.27693
-0.252498
-0.21786
-0.174803
-0.129587
-0.087297
-0.050357
-0.0188666
0.00811421
0.02647
-0.162828
-0.147455
-0.117843
-0.0789292
-0.0385969
-0.0019576
0.0288166
0.0537099
0.0736213
0.0856482
-0.037437
-0.0319098
-0.00832503
0.0252282
0.0594326
0.0892552
0.112667
0.129211
0.139066
0.141991
0.0962817
0.0914879
0.108275
0.135635
0.163175
0.186164
0.202635
0.210984
0.20995
0.203514
0.234746
0.219467
0.22885
0.249391
0.270164
0.287278
0.299509
0.305133
0.304016
0.316525
0.374056
0.348376
0.349779
0.362631
0.375679
0.385662
0.391764
0.393154
0.391963
0.403788
0.510265
0.474539
0.467651
0.472233
0.476914
0.479004
0.477989
0.473482
0.467663
0.471916
0.639529
0.594347
0.579175
0.575298
0.571425
0.565447
0.557151
0.546404
0.535033
0.531528
0.758188
0.70436
0.681256
0.669167
0.657024
0.643283
0.628001
0.611227
0.594471
0.584028
0.86286
0.801412
0.771077
0.751448
0.73176
0.710987
0.689419
0.66725
0.645681
0.629191
0.950533
0.882696
0.846154
0.82003
0.793886
0.767136
0.740266
0.713581
0.687989
0.666443
1.01866
0.945847
0.904394
0.873127
0.841898
0.81047
0.779474
0.749301
0.720596
0.695115
1.06523
0.989012
0.944161
0.909336
0.874603
0.839965
0.806151
0.773606
0.742781
0.714602
1.08887
1.01092
0.964332
0.927688
0.89117
0.854899
0.819657
0.785912
0.754014
0.724462
1.08887
1.01092
0.964332
0.927688
0.89117
0.854899
0.819657
0.785912
0.754014
0.724462
1.06523
0.989012
0.944161
0.909335
0.874603
0.839965
0.806151
0.773606
0.742781
0.714602
1.01866
0.945847
0.904394
0.873126
0.841898
0.81047
0.779474
0.749301
0.720596
0.695114
0.950533
0.882696
0.846154
0.820029
0.793885
0.767136
0.740266
0.713581
0.687989
0.666442
0.86286
0.801411
0.771077
0.751448
0.73176
0.710987
0.689418
0.667249
0.645681
0.62919
0.758187
0.704359
0.681255
0.669166
0.657024
0.643283
0.628001
0.611227
0.59447
0.584028
0.639529
0.594346
0.579174
0.575298
0.571425
0.565447
0.557151
0.546404
0.535033
0.531527
0.510265
0.474539
0.467651
0.472233
0.476913
0.479004
0.477989
0.473482
0.467663
0.471915
0.374056
0.348375
0.349779
0.362631
0.375678
0.385661
0.391764
0.393154
0.391963
0.403788
0.234746
0.219466
0.228849
0.24939
0.270164
0.287278
0.299509
0.305133
0.304015
0.316525
0.0962813
0.0914874
0.108275
0.135635
0.163174
0.186163
0.202635
0.210984
0.20995
0.203513
-0.0374375
-0.0319103
-0.00832552
0.0252277
0.0594321
0.0892547
0.112666
0.12921
0.139066
0.141991
-0.162828
-0.147455
-0.117843
-0.0789297
-0.0385975
-0.0019581
0.0288161
0.0537094
0.0736208
0.0856477
-0.27693
-0.252499
-0.217861
-0.174804
-0.129588
-0.0872976
-0.0503575
-0.0188671
0.00811373
0.0264695
-0.377528
-0.345065
-0.306525
-0.26072
-0.212154
-0.165713
-0.124007
-0.0873485
-0.055012
-0.0318299
-0.463177
-0.423861
-0.382549
-0.335386
-0.28506
-0.236064
-0.191076
-0.150621
-0.114233
-0.0872105
-0.533187
-0.488281
-0.445248
-0.398004
-0.347447
-0.297506
-0.250788
-0.20798
-0.168823
-0.138836
-0.587557
-0.53836
-0.49453
-0.44828
-0.398854
-0.349478
-0.30254
-0.258803
-0.218141
-0.186073
-0.626892
-0.574696
-0.530844
-0.486413
-0.439224
-0.391727
-0.345956
-0.30264
-0.26171
-0.228487
-0.652289
-0.59835
-0.555102
-0.513054
-0.468914
-0.424353
-0.380956
-0.339312
-0.299327
-0.265935
-0.665223
-0.610733
-0.568584
-0.529243
-0.488662
-0.447807
-0.407767
-0.368915
-0.33106
-0.298555
-0.667432
-0.613488
-0.572831
-0.536324
-0.49953
-0.46285
-0.426899
-0.391786
-0.357201
-0.326723
-0.660774
-0.60836
-0.569513
-0.535824
-0.502811
-0.470489
-0.439082
-0.408455
-0.3782
-0.350979
-0.64712
-0.597093
-0.560328
-0.52936
-0.499941
-0.471898
-0.445203
-0.41956
-0.394573
-0.371915
-0.628234
-0.581326
-0.546901
-0.518525
-0.492396
-0.468334
-0.446228
-0.425768
-0.406785
-0.390032
-0.605677
-0.562515
-0.530694
-0.504806
-0.481607
-0.461056
-0.443124
-0.427681
-0.41512
-0.405567
-0.580735
-0.541874
-0.512939
-0.489486
-0.468863
-0.451235
-0.436775
-0.425723
-0.4195
-0.418267
-0.554396
-0.520334
-0.49458
-0.473572
-0.45522
-0.439874
-0.427916
-0.420044
-0.419283
-0.427219
-0.527409
-0.498564
-0.47624
-0.457706
-0.441381
-0.427712
-0.417193
-0.410863
-0.413734
-0.431064
-0.500424
-0.477035
-0.458232
-0.442059
-0.427339
-0.41443
-0.40369
-0.395758
-0.395774
-0.414929
-0.474162
-0.456205
-0.440826
-0.42675
-0.412967
-0.399261
-0.384882
-0.367251
-0.342263
-0.317636
-0.449453
-0.436656
-0.424645
-0.412891
-0.400848
-0.388394
-0.375133
-0.359597
-0.339615
-0.321852
-0.426983
-0.418814
-0.409956
-0.40057
-0.39061
-0.380148
-0.369097
-0.356869
-0.343003
-0.33233
-0.407187
-0.402944
-0.39686
-0.389638
-0.381629
-0.373026
-0.363888
-0.354007
-0.343557
-0.335962
-0.390277
-0.38922
-0.385471
-0.380137
-0.373866
-0.366939
-0.359518
-0.351622
-0.343576
-0.337526
-0.376305
-0.377739
-0.375882
-0.372127
-0.367335
-0.361842
-0.355873
-0.34958
-0.343295
-0.338198
-0.365238
-0.368543
-0.368151
-0.365649
-0.362042
-0.357693
-0.352859
-0.347762
-0.342714
-0.338237
-0.35701
-0.361645
-0.362318
-0.360743
-0.358017
-0.354514
-0.350506
-0.346252
-0.342042
-0.337972
-0.351559
-0.357046
-0.358413
-0.357446
-0.355302
-0.352356
-0.348884
-0.345166
-0.341478
-0.337663
-0.348844
-0.354747
-0.356454
-0.35579
-0.353934
-0.351262
-0.348054
-0.344596
-0.341159
-0.337469
-0.291557
-0.126859
-0.0819872
-0.0305918
-0.0197961
-0.00799749
-0.00471417
-0.00109126
-0.000575403
0.00227978
-0.292789
-0.127409
-0.0822602
-0.0307912
-0.0198651
-0.00805818
-0.00474455
-0.00111351
-0.000585448
0.00226275
-0.295182
-0.128493
-0.0828006
-0.0311913
-0.0200028
-0.00817932
-0.00480516
-0.0011579
-0.000605438
0.00222891
-0.298594
-0.130088
-0.0835966
-0.0317942
-0.0202085
-0.00836046
-0.00489571
-0.00122424
-0.000635162
0.00217861
-0.302783
-0.132149
-0.0846225
-0.0325985
-0.0204802
-0.00860028
-0.00501557
-0.00131221
-0.000674251
0.00211237
-0.307404
-0.134606
-0.085831
-0.0335917
-0.020812
-0.00889529
-0.00516333
-0.00142109
-0.000722208
0.00203091
-0.312316
-0.137521
-0.0872239
-0.0347685
-0.0212035
-0.00924232
-0.00533811
-0.0015496
-0.000779003
0.00193583
-0.317912
-0.141486
-0.0890354
-0.0362181
-0.0216938
-0.00965305
-0.00554546
-0.00169781
-0.000846066
0.00182986
-0.322431
-0.146856
-0.0914302
-0.0380944
-0.0223324
-0.0101551
-0.00579517
-0.00187192
-0.000922596
0.00171095
-0.315378
-0.149525
-0.0926776
-0.0398407
-0.0228572
-0.0106676
-0.0060462
-0.00207548
-0.000990184
0.00155857
-0.247593
-0.141142
-0.089027
-0.0432162
-0.0232984
-0.0120561
-0.006739
-0.00286284
-0.00116138
0.000864614
-0.189711
-0.132594
-0.08303
-0.0446915
-0.0249749
-0.01448
-0.00857032
-0.00436491
-0.00193334
-1.74053e-05
-0.148844
-0.114952
-0.0734668
-0.0431917
-0.0263328
-0.0166869
-0.0104861
-0.00593068
-0.0028621
-0.000715392
-0.109318
-0.0940262
-0.0639032
-0.0411703
-0.0273239
-0.0184727
-0.0121414
-0.00732449
-0.00373364
-0.00119177
-0.079996
-0.0766689
-0.0570454
-0.0399132
-0.0281149
-0.0198075
-0.0134383
-0.00844343
-0.00446121
-0.00149335
-0.0597704
-0.0637427
-0.0520796
-0.0389318
-0.0285074
-0.0206421
-0.0143518
-0.00927507
-0.00502663
-0.00169134
-0.046637
-0.0544187
-0.0482281
-0.0379812
-0.0285846
-0.0211115
-0.0149641
-0.00987142
-0.00544972
-0.0018331
-0.0383135
-0.0479118
-0.0452761
-0.0371436
-0.0285346
-0.0213719
-0.0153634
-0.0102834
-0.00575153
-0.00193633
-0.0334428
-0.0437791
-0.0432768
-0.0365523
-0.0284771
-0.0215121
-0.0156026
-0.0105409
-0.00594551
-0.00200374
-0.0311831
-0.0417571
-0.0422699
-0.0362617
-0.0284543
-0.0215733
-0.0157135
-0.0106622
-0.00604144
-0.00203499
-0.219649
-0.247691
-0.273674
-0.297877
-0.320674
-0.342558
-0.364129
-0.386013
-0.408686
-0.432665
-0.0676489
-0.0777339
-0.0868169
-0.095141
-0.103016
-0.11083
-0.119052
-0.128235
-0.138982
-0.153043
-0.0456999
-0.0548659
-0.0636439
-0.0720065
-0.0799149
-0.0873218
-0.0941804
-0.10046
-0.106153
-0.111364
-0.018928
-0.0246298
-0.0301243
-0.0354301
-0.0405691
-0.0455644
-0.0504391
-0.0552154
-0.0598894
-0.0643265
-0.0134827
-0.017836
-0.0220636
-0.0261618
-0.0301268
-0.0339543
-0.0376407
-0.0411829
-0.0445577
-0.0477215
-0.00840811
-0.0116249
-0.0147828
-0.0178809
-0.0209185
-0.023895
-0.0268101
-0.0296625
-0.0324379
-0.0351294
-0.00736535
-0.00990617
-0.0124108
-0.0148754
-0.0172961
-0.0196701
-0.0219947
-0.0242676
-0.0264812
-0.0286416
-0.0065789
-0.00864117
-0.0106873
-0.0127133
-0.0147153
-0.0166901
-0.0186345
-0.0205456
-0.0224192
-0.0242573
-0.00651534
-0.00829502
-0.0100671
-0.011827
-0.0135706
-0.0152939
-0.0169935
-0.0186663
-0.0203095
-0.0219208
-0.00646389
-0.00809462
-0.00972302
-0.0113453
-0.012958
-0.0145577
-0.0161414
-0.0177061
-0.0192502
-0.0207687
0.166306
0.125281
0.0803612
0.03745
-0.00425513
-0.0450836
-0.0844196
-0.121714
-0.156719
-0.189359
0.11739
0.0915328
0.0650259
0.0422703
0.0221253
0.00342857
-0.0138849
-0.0296159
-0.0437411
-0.0563708
0.0727891
0.0570848
0.042223
0.0293318
0.0174606
0.00597743
-0.00517846
-0.0159246
-0.0262425
-0.0361597
0.0527297
0.0436986
0.0351408
0.0274628
0.0202095
0.0131298
0.00622938
-0.000435075
-0.00684371
-0.0130037
0.0371478
0.0312087
0.0254957
0.0202112
0.0151169
0.0100922
0.00514554
0.000307466
-0.00441013
-0.00900678
0.0269019
0.0230218
0.019195
0.0155637
0.012022
0.00850756
0.00502261
0.00158318
-0.00180288
-0.00513363
0.0191736
0.0164473
0.0137003
0.0110243
0.00837516
0.00572345
0.00307158
0.000430308
-0.00219274
-0.00479272
0.0139825
0.0119891
0.00994871
0.00791536
0.00587512
0.00381674
0.00174288
-0.000339234
-0.00242344
-0.00450484
0.0106383
0.00904436
0.00740276
0.00573731
0.00404548
0.00232584
0.000582445
-0.0011788
-0.00295227
-0.00473278
0.0090373
0.00761809
0.00615583
0.00466081
0.00313457
0.00157961
3.41987e-07
-0.00159827
-0.00321147
-0.00483479
0.334657
0.333971
0.332337
0.329352
0.324251
0.315792
0.302204
0.281114
0.249894
0.205336
0.244898
0.243878
0.241225
0.23663
0.229781
0.220236
0.207419
0.190679
0.169274
0.142688
0.174161
0.173124
0.170428
0.165879
0.159393
0.150845
0.140033
0.126739
0.110546
0.0915565
0.122585
0.12177
0.11964
0.116054
0.111015
0.104536
0.0965996
0.0872159
0.0763075
0.0642231
0.0862684
0.0856761
0.0841169
0.0814861
0.0778058
0.0731186
0.0674509
0.0608398
0.0532648
0.0449396
0.0610943
0.0606684
0.0595449
0.0576493
0.0550057
0.0516584
0.0476437
0.043005
0.03776
0.0320588
0.0439402
0.0436289
0.0428074
0.0414215
0.0394909
0.0370507
0.0341307
0.030763
0.0269669
0.0228284
0.0326492
0.0324129
0.0317894
0.0307377
0.0292732
0.0274236
0.0252126
0.0226649
0.0198011
0.0166742
0.025809
0.025617
0.0251107
0.0242568
0.0230675
0.021565
0.0197679
0.0176948
0.0153635
0.0128061
0.0225835
0.0224119
0.02196
0.0211982
0.0201371
0.0187959
0.0171912
0.0153389
0.0132558
0.0109655
0.485253
0.486935
0.49332
0.504482
0.520336
0.541201
0.567538
0.599869
0.638724
0.684335
0.48301
0.484667
0.490972
0.501978
0.517585
0.538073
0.563846
0.595341
0.632946
0.676774
0.478575
0.480189
0.486341
0.497046
0.512168
0.531917
0.556582
0.586427
0.621558
0.66186
0.472049
0.473611
0.479553
0.489827
0.504251
0.522928
0.545975
0.5734
0.604882
0.639996
0.463569
0.465085
0.47078
0.48052
0.494063
0.511375
0.532348
0.556651
0.583383
0.611766
0.453303
0.454798
0.460227
0.469353
0.481862
0.497557
0.516064
0.536631
0.557637
0.577901
0.441445
0.442987
0.448173
0.456641
0.468005
0.481881
0.497586
0.513874
0.528315
0.539256
0.428199
0.429972
0.435044
0.442925
0.453169
0.465173
0.477877
0.489397
0.496403
0.496592
0.413642
0.415894
0.421047
0.428471
0.43771
0.44794
0.457651
0.464132
0.462901
0.449453
0.397451
0.399908
0.404684
0.411047
0.418555
0.426258
0.432359
0.433619
0.425185
0.397786
0.39745
0.399908
0.404684
0.411046
0.418555
0.426258
0.432359
0.433618
0.425184
0.397786
0.413642
0.415894
0.421047
0.428471
0.43771
0.447939
0.45765
0.464131
0.4629
0.449452
0.428199
0.429972
0.435044
0.442924
0.453168
0.465173
0.477877
0.489397
0.496402
0.496592
0.441445
0.442987
0.448173
0.45664
0.468005
0.481881
0.497586
0.513873
0.528315
0.539255
0.453303
0.454797
0.460227
0.469353
0.481862
0.497557
0.516064
0.536631
0.557636
0.577901
0.463569
0.465085
0.470779
0.48052
0.494063
0.511375
0.532348
0.556651
0.583383
0.611766
0.472049
0.473611
0.479553
0.489827
0.504251
0.522928
0.545974
0.5734
0.604882
0.639996
0.478575
0.480189
0.486341
0.497046
0.512168
0.531917
0.556582
0.586426
0.621558
0.66186
0.48301
0.484667
0.490972
0.501978
0.517584
0.538073
0.563846
0.595341
0.632946
0.676774
0.485253
0.486935
0.49332
0.504482
0.520336
0.541201
0.567538
0.599869
0.638724
0.684335
0.0225832
0.0224116
0.0219598
0.021198
0.0201368
0.0187957
0.017191
0.0153387
0.0132556
0.0109653
0.0258088
0.0256169
0.0251105
0.0242566
0.0230674
0.0215648
0.0197677
0.0176946
0.0153633
0.0128059
0.032649
0.0324127
0.0317891
0.0307375
0.029273
0.0274234
0.0252124
0.0226647
0.0198009
0.016674
0.0439399
0.0436286
0.0428071
0.0414213
0.0394907
0.0370505
0.0341305
0.0307628
0.0269667
0.0228282
0.061094
0.0606681
0.0595447
0.0576491
0.0550055
0.0516582
0.0476435
0.0430047
0.0377598
0.0320586
0.0862682
0.0856758
0.0841167
0.0814859
0.0778055
0.0731183
0.0674507
0.0608396
0.0532645
0.0449393
0.122584
0.12177
0.11964
0.116054
0.111015
0.104536
0.0965994
0.0872157
0.0763073
0.0642229
0.174161
0.173124
0.170428
0.165878
0.159393
0.150845
0.140033
0.126739
0.110546
0.0915562
0.244897
0.243877
0.241225
0.23663
0.229781
0.220236
0.207418
0.190679
0.169273
0.142687
0.334657
0.333971
0.332336
0.329352
0.324251
0.315791
0.302204
0.281113
0.249894
0.205335
0.00903712
0.00761792
0.00615567
0.00466067
0.00313444
0.00157948
2.25645e-07
-0.00159837
-0.00321157
-0.00483488
0.0106381
0.00904421
0.00740262
0.00573718
0.00404536
0.00232573
0.000582332
-0.00117891
-0.00295238
-0.00473289
0.0139823
0.0119889
0.00994856
0.00791522
0.00587499
0.00381661
0.00174277
-0.000339343
-0.00242354
-0.00450494
0.0191734
0.0164471
0.0137001
0.0110242
0.00837501
0.00572331
0.00307145
0.000430181
-0.00219286
-0.00479284
0.0269017
0.0230217
0.0191948
0.0155636
0.0120219
0.00850741
0.00502247
0.00158304
-0.001803
-0.00513375
0.0371476
0.0312084
0.0254955
0.020211
0.0151167
0.010092
0.00514538
0.000307317
-0.00441027
-0.00900691
0.0527295
0.0436983
0.0351406
0.0274626
0.0202093
0.0131296
0.00622919
-0.000435255
-0.00684388
-0.0130038
0.0727889
0.0570845
0.0422228
0.0293316
0.0174603
0.0059772
-0.00517868
-0.0159248
-0.0262427
-0.0361599
0.11739
0.0915325
0.0650256
0.04227
0.022125
0.00342827
-0.0138852
-0.0296162
-0.0437414
-0.056371
0.166306
0.125281
0.0803609
0.0374496
-0.00425549
-0.0450839
-0.08442
-0.121715
-0.15672
-0.189359
-0.00646399
-0.00809473
-0.00972313
-0.0113454
-0.0129581
-0.0145578
-0.0161415
-0.0177062
-0.0192503
-0.0207688
-0.00651544
-0.00829512
-0.0100672
-0.0118271
-0.0135707
-0.015294
-0.0169936
-0.0186664
-0.0203096
-0.0219209
-0.006579
-0.00864126
-0.0106874
-0.0127134
-0.0147154
-0.0166902
-0.0186346
-0.0205457
-0.0224193
-0.0242574
-0.00736546
-0.00990628
-0.012411
-0.0148755
-0.0172963
-0.0196702
-0.0219948
-0.0242677
-0.0264813
-0.0286417
-0.00840822
-0.0116251
-0.0147829
-0.017881
-0.0209186
-0.0238951
-0.0268102
-0.0296626
-0.032438
-0.0351295
-0.0134828
-0.0178361
-0.0220637
-0.0261619
-0.0301269
-0.0339544
-0.0376408
-0.041183
-0.0445578
-0.0477216
-0.0189281
-0.0246299
-0.0301244
-0.0354303
-0.0405692
-0.0455645
-0.0504393
-0.0552155
-0.0598895
-0.0643266
-0.0457001
-0.0548661
-0.0636441
-0.0720067
-0.0799151
-0.0873219
-0.0941806
-0.10046
-0.106153
-0.111365
-0.0676492
-0.0777341
-0.0868171
-0.0951412
-0.103017
-0.110831
-0.119052
-0.128236
-0.138982
-0.153044
-0.219649
-0.247691
-0.273674
-0.297877
-0.320675
-0.342558
-0.364129
-0.386013
-0.408686
-0.432665
-0.0311832
-0.0417572
-0.0422699
-0.0362617
-0.0284544
-0.0215733
-0.0157135
-0.0106621
-0.00604142
-0.002035
-0.0334429
-0.0437792
-0.0432769
-0.0365524
-0.0284772
-0.0215121
-0.0156025
-0.0105408
-0.0059455
-0.00200376
-0.0383136
-0.0479118
-0.0452762
-0.0371437
-0.0285346
-0.0213718
-0.0153634
-0.0102833
-0.00575152
-0.00193635
-0.0466371
-0.0544188
-0.0482282
-0.0379813
-0.0285847
-0.0211115
-0.014964
-0.00987137
-0.00544971
-0.00183313
-0.0597705
-0.0637428
-0.0520797
-0.038932
-0.0285074
-0.020642
-0.0143516
-0.00927501
-0.00502665
-0.00169139
-0.0799961
-0.0766689
-0.0570455
-0.0399133
-0.0281149
-0.0198073
-0.0134381
-0.00844335
-0.00446127
-0.00149344
-0.109318
-0.0940263
-0.0639034
-0.0411705
-0.0273238
-0.0184725
-0.0121411
-0.00732438
-0.00373377
-0.00119191
-0.148844
-0.114952
-0.073467
-0.0431921
-0.0263327
-0.0166865
-0.0104857
-0.00593052
-0.00286233
-0.000715606
-0.189711
-0.132594
-0.0830304
-0.044692
-0.0249749
-0.0144795
-0.00856979
-0.00436466
-0.00193364
-1.76834e-05
-0.247593
-0.141142
-0.0890274
-0.0432168
-0.0232984
-0.0120556
-0.00673841
-0.00286254
-0.00116167
0.000864332
-0.315378
-0.149525
-0.092678
-0.0398413
-0.0228572
-0.0106673
-0.00604572
-0.00207522
-0.000990411
0.00155836
-0.322431
-0.146856
-0.0914305
-0.0380949
-0.0223324
-0.0101548
-0.00579472
-0.00187167
-0.000922803
0.00171077
-0.317912
-0.141485
-0.0890357
-0.0362186
-0.0216938
-0.00965276
-0.00554504
-0.00169758
-0.000846253
0.00182969
-0.312316
-0.137521
-0.0872242
-0.0347689
-0.0212035
-0.00924205
-0.00533774
-0.00154939
-0.000779169
0.00193569
-0.307404
-0.134606
-0.0858313
-0.0335921
-0.020812
-0.00889505
-0.005163
-0.00142091
-0.00072235
0.00203079
-0.302783
-0.132149
-0.0846228
-0.0325988
-0.0204803
-0.00860007
-0.0050153
-0.00131205
-0.000674367
0.00211227
-0.298594
-0.130088
-0.0835968
-0.0317944
-0.0202086
-0.00836029
-0.0048955
-0.00122412
-0.000635251
0.00217853
-0.295182
-0.128493
-0.0828008
-0.0311915
-0.0200028
-0.0081792
-0.00480501
-0.00115781
-0.0006055
0.00222886
-0.292789
-0.127409
-0.0822604
-0.0307914
-0.0198651
-0.0080581
-0.00474446
-0.00111346
-0.000585482
0.00226273
-0.291557
-0.126859
-0.0819873
-0.0305919
-0.0197961
-0.00799747
-0.00471414
-0.00109124
-0.000575412
0.00227978
)
;

boundaryField
{
    inlet
    {
        type            zeroGradient;
    }
    outlet
    {
        type            fixedValue;
        value           uniform 0;
    }
    cylinder
    {
        type            zeroGradient;
    }
    top
    {
        type            symmetryPlane;
    }
    bottom
    {
        type            symmetryPlane;
    }
    defaultFaces
    {
        type            empty;
    }
}


// ************************************************************************* //
