1.275 	2.15223e-18 	-2.76991e-20 	0.76995 	-0.00889809 	-5.07561e-23
1.825 	2.15223e-18 	-1.39322e-20 	0.86089 	-0.00323028 	-2.17807e-22
2.375 	2.15223e-18 	-2.66896e-23 	0.936132 	-0.00157188 	-1.4959e-22
