1.45 	0 	0 	-0.306945
2.35 	0 	0 	-0.13085
