/*--------------------------------*- C++ -*----------------------------------*\
  =========                 |
  \\      /  F ield         | OpenFOAM: The Open Source CFD Toolbox
   \\    /   O peration     | Website:  https://openfoam.org
    \\  /    A nd           | Version:  6.0
     \\/     M anipulation  |
\*---------------------------------------------------------------------------*/
FoamFile
{
    version     2.0;
    format      ascii;
    class       surfaceScalarField;
    location    "42";
    object      phi;
}
// * * * * * * * * * * * * * * * * * * * * * * * * * * * * * * * * * * * * * //

dimensions      [0 3 -1 0 0 0 0];

internalField   nonuniform List<scalar> 
68636
(
3.02192e-05
0.00310561
8.15541e-09
6.08379e-05
0.00307069
9.10949e-05
0.00300235
0.000120488
0.00290116
0.000148629
0.0027682
0.000175173
0.00260489
0.000199815
0.00241295
0.000222266
0.00219448
0.00024227
0.00195191
0.000259597
0.00168791
0.000274052
0.00140538
0.000285474
0.00110727
0.000293758
0.000796962
0.000298719
0.000476957
0.000144672
0.000298134
2.9937e-05
0.00307565
2.08896e-08
6.02825e-05
0.00304034
9.02658e-05
0.00297237
0.000119389
0.00287204
0.00014727
0.00274033
0.00017357
0.0025786
0.000197987
0.00238854
0.000220234
0.00217224
0.000240057
0.0019321
0.000257227
0.00167075
0.000271552
0.00139107
0.000282866
0.00109597
0.000291114
0.000788734
0.000295784
0.000472313
0.000145033
0.000295474
2.96578e-05
0.00304596
3.21917e-08
5.97304e-05
0.00301027
8.94404e-05
0.00294266
0.000118295
0.00284318
0.000145921
0.00271271
0.000171983
0.00255254
0.00019618
0.00236435
0.000218226
0.00215019
0.000237869
0.00191245
0.000254883
0.00165374
0.000269079
0.00137687
0.000280284
0.00108476
0.000288456
0.000780554
0.000293207
0.000467547
0.000144733
0.000293468
2.93811e-05
0.00301653
4.22625e-08
5.91815e-05
0.00298047
8.86196e-05
0.00291322
0.00011721
0.00281459
0.000144584
0.00268534
0.000170411
0.00252671
0.00019439
0.00234038
0.000216237
0.00212835
0.000235702
0.001893
0.000252561
0.00163688
0.000266627
0.00136281
0.000277725
0.00107367
0.000285803
0.000772485
0.000290586
0.000462777
0.000144165
0.000291178
2.91066e-05
0.00298737
5.13635e-08
5.86359e-05
0.00295094
8.78042e-05
0.00288405
0.000116133
0.00278625
0.000143259
0.00265821
0.000168853
0.00250112
0.000192615
0.00231661
0.000214265
0.0021067
0.000233553
0.0018737
0.000250259
0.00162017
0.000264197
0.00134887
0.000275191
0.00106267
0.00028317
0.000764496
0.000287923
0.000458008
0.000143333
0.000288716
2.88342e-05
0.00295848
5.99358e-08
5.80937e-05
0.00292168
8.69946e-05
0.00285514
0.000115066
0.00275818
0.000141947
0.00263133
0.00016731
0.00247575
0.000190858
0.00229307
0.00021231
0.00208525
0.000231423
0.00185459
0.000247977
0.00160362
0.000261788
0.00133506
0.000272681
0.00105178
0.000280565
0.000756617
0.000285272
0.000453309
0.000142415
0.000286205
2.85636e-05
0.00292985
6.77894e-08
5.75553e-05
0.00289269
8.61917e-05
0.00282651
0.000114008
0.00273036
0.000140646
0.00260469
0.000165781
0.00245061
0.000189116
0.00226973
0.000210374
0.00206398
0.000229313
0.00183565
0.000245716
0.00158721
0.000259401
0.00132137
0.000270195
0.00104098
0.000277991
0.000748812
0.000282649
0.000448636
0.000141349
0.000283679
2.82951e-05
0.00290147
7.50711e-08
5.70211e-05
0.00286396
8.53958e-05
0.00279813
0.00011296
0.00270279
0.000139359
0.00257829
0.000164267
0.00242571
0.000187391
0.00224661
0.000208456
0.00204292
0.000227222
0.00181689
0.000243475
0.00157096
0.000257036
0.00130781
0.000267732
0.00103028
0.000275446
0.000741101
0.000280058
0.000444029
0.000140259
0.00028116
2.80286e-05
0.00287336
8.22004e-08
5.64916e-05
0.00283549
8.46077e-05
0.00277001
0.000111923
0.00267548
0.000138084
0.00255213
0.000162767
0.00240102
0.000185681
0.00222369
0.000206555
0.00202204
0.00022515
0.00179829
0.000241255
0.00155485
0.000254691
0.00129437
0.000265291
0.00101967
0.000272928
0.000733458
0.000277496
0.000439448
0.000139067
0.000278655
2.77644e-05
0.00284551
8.94333e-08
5.59671e-05
0.00280729
8.38273e-05
0.00274215
0.000110895
0.00264841
0.000136821
0.0025262
0.000161281
0.00237656
0.000183987
0.00220099
0.000204671
0.00200136
0.000223097
0.00177986
0.000239055
0.00153889
0.000252368
0.00128106
0.000262872
0.00100917
0.000270435
0.000725897
0.000274962
0.000434925
0.000137871
0.000276169
2.75024e-05
0.00281791
9.69181e-08
5.54476e-05
0.00277934
8.3055e-05
0.00271454
0.000109879
0.00262158
0.00013557
0.00250051
0.000159809
0.00235232
0.000182309
0.00217848
0.000202804
0.00198086
0.000221063
0.0017616
0.000236875
0.00152308
0.000250065
0.00126786
0.000260475
0.000998757
0.000267966
0.000718399
0.000272454
0.000430426
0.000136595
0.000273701
2.7243e-05
0.00279056
1.04634e-07
5.49334e-05
0.00275165
8.22907e-05
0.00268718
0.000108872
0.002595
0.000134331
0.00247505
0.00015835
0.0023283
0.000180645
0.00215619
0.000200954
0.00196055
0.000219047
0.00174351
0.000234714
0.00150741
0.000247784
0.00125479
0.000258098
0.000988445
0.00026552
0.000710979
0.000269971
0.000425978
0.000135328
0.000271248
2.6986e-05
0.00276346
1.12632e-07
5.44246e-05
0.00272421
8.15342e-05
0.00266007
0.000107875
0.00256865
0.000133104
0.00244982
0.000156905
0.00230449
0.000178997
0.0021341
0.000199121
0.00194042
0.000217049
0.00172558
0.000232574
0.00149188
0.000245523
0.00124184
0.000255744
0.000978219
0.000263098
0.000703619
0.000267511
0.000421556
0.000134001
0.000268811
2.67317e-05
0.0027366
1.20814e-07
5.39209e-05
0.00269702
8.07853e-05
0.0026332
0.000106888
0.00254255
0.000131887
0.00242482
0.000155472
0.00228091
0.000177363
0.0021122
0.000197304
0.00192048
0.000215069
0.00170781
0.000230452
0.0014765
0.000243283
0.00122901
0.00025341
0.000968094
0.000260697
0.000696334
0.000265073
0.000417183
0.000132693
0.000266392
2.648e-05
0.00270999
1.28946e-07
5.34225e-05
0.00267008
8.00438e-05
0.00260658
0.00010591
0.00251668
0.000130682
0.00240004
0.000154053
0.00225753
0.000175744
0.00209051
0.000195504
0.00190072
0.000213106
0.00169021
0.00022835
0.00146125
0.000241063
0.00121629
0.000251097
0.000958054
0.000258319
0.000689107
0.000262658
0.000412835
0.000131334
0.000263992
2.62309e-05
0.00268362
1.36769e-07
5.29289e-05
0.00264338
7.93093e-05
0.0025802
0.000104941
0.00249105
0.000129488
0.0023755
0.000152646
0.00223438
0.00017414
0.00206902
0.000193719
0.00188114
0.000211162
0.00167276
0.000226267
0.00144615
0.000238863
0.0012037
0.000248806
0.000948114
0.000255962
0.000681953
0.000260265
0.000408536
0.000129997
0.000261612
2.59844e-05
0.00265749
1.44023e-07
5.24403e-05
0.00261692
7.85817e-05
0.00255406
0.000103981
0.00246565
0.000128305
0.00235117
0.000151252
0.00221143
0.00017255
0.00204772
0.000191951
0.00186173
0.000209235
0.00165548
0.000224202
0.00143118
0.000236683
0.00119122
0.000246535
0.000938257
0.000253627
0.000674857
0.000257893
0.000404262
0.000128618
0.000259249
2.57406e-05
0.0026316
1.5052e-07
5.19563e-05
0.0025907
7.78608e-05
0.00252815
0.000103029
0.00244048
0.000127132
0.00232707
0.00014987
0.00218869
0.000170974
0.00202661
0.000190199
0.00184251
0.000207326
0.00163835
0.000222157
0.00141635
0.000234524
0.00117885
0.000244286
0.000928498
0.000251314
0.000667831
0.000255543
0.000400035
0.000127269
0.000256901
2.54992e-05
0.00260594
1.56165e-07
5.1477e-05
0.00256472
7.71464e-05
0.00250248
0.000102086
0.00241554
0.00012597
0.00230318
0.0001485
0.00216616
0.000169413
0.0020057
0.000188463
0.00182345
0.000205434
0.00162138
0.00022013
0.00140165
0.000232384
0.00116659
0.000242057
0.000918819
0.000249022
0.000660861
0.000253213
0.000395836
0.000125893
0.000254567
2.52604e-05
0.00258052
1.61001e-07
5.10022e-05
0.00253898
7.64383e-05
0.00247704
0.000101151
0.00239082
0.000124817
0.00227951
0.000147143
0.00214383
0.000167866
0.00198498
0.000186743
0.00180458
0.000203559
0.00160456
0.000218122
0.00138708
0.000230264
0.00115445
0.000239849
0.000909237
0.000246752
0.00065396
0.000250905
0.000391684
0.000124556
0.000252251
2.5024e-05
0.00255533
1.65203e-07
5.05317e-05
0.00251347
7.57367e-05
0.00245184
0.000100224
0.00236633
0.000123675
0.00225606
0.000145798
0.00212171
0.000166332
0.00196444
0.000185038
0.00178587
0.000201701
0.0015879
0.000216131
0.00137265
0.000228163
0.00114241
0.000237661
0.000899734
0.000244502
0.000647114
0.000248618
0.00038756
0.000123199
0.000249954
2.479e-05
0.00253037
1.69035e-07
5.00657e-05
0.00248819
7.50414e-05
0.00242686
9.93062e-05
0.00234207
0.000122544
0.00223282
0.000144465
0.00209978
0.000164812
0.00194409
0.000183348
0.00176733
0.00019986
0.00157139
0.000214159
0.00135835
0.000226081
0.00113049
0.000235493
0.000890324
0.000242273
0.000640335
0.000246353
0.000383481
0.000121879
0.000247681
2.45582e-05
0.00250564
1.72794e-07
4.96039e-05
0.00246315
7.43522e-05
0.00240211
9.83963e-05
0.00231802
0.000121422
0.00220979
0.000143144
0.00207806
0.000163306
0.00192393
0.000181673
0.00174896
0.000198035
0.00155502
0.000212204
0.00134418
0.000224018
0.00111867
0.000233344
0.000880993
0.000240064
0.000633611
0.000244108
0.000379429
0.000120538
0.00024543
2.43288e-05
0.00248113
1.76722e-07
4.91463e-05
0.00243833
7.36693e-05
0.00237758
9.74946e-05
0.0022942
0.000120311
0.00218698
0.000141835
0.00205653
0.000161814
0.00190395
0.000180014
0.00173076
0.000196227
0.00153881
0.000210267
0.00133014
0.000221973
0.00110697
0.000231215
0.000871753
0.000237875
0.000626951
0.000241884
0.000375421
0.000119229
0.0002432
2.41015e-05
0.00245685
1.80951e-07
4.86928e-05
0.00241374
7.29925e-05
0.00235328
9.6601e-05
0.00227059
0.00011921
0.00216437
0.000140538
0.0020352
0.000160335
0.00188415
0.00017837
0.00171272
0.000194435
0.00152274
0.000208347
0.00131623
0.000219948
0.00109536
0.000229106
0.00086259
0.000235706
0.000620346
0.00023968
0.00037144
0.000117904
0.000240987
2.38764e-05
0.00243278
1.85453e-07
4.82435e-05
0.00238937
7.23217e-05
0.0023292
9.57156e-05
0.00224719
0.000118119
0.00214196
0.000139253
0.00201407
0.00015887
0.00186453
0.00017674
0.00169485
0.000192659
0.00150682
0.000206445
0.00130244
0.00021794
0.00108387
0.000227015
0.000853516
0.000233557
0.000613804
0.000237496
0.000367502
0.000116615
0.000238791
2.36535e-05
0.00240894
1.90061e-07
4.77983e-05
0.00236522
7.1657e-05
0.00230534
9.48381e-05
0.00222401
0.000117038
0.00211976
0.00013798
0.00199312
0.000157418
0.00184509
0.000175126
0.00167714
0.0001909
0.00149104
0.000204561
0.00128878
0.000215951
0.00107247
0.000224945
0.000844519
0.000231429
0.000607316
0.000235332
0.000363593
0.000115321
0.000236611
2.34328e-05
0.00238531
1.94497e-07
4.73573e-05
0.00234129
7.09985e-05
0.0022817
9.39686e-05
0.00220104
0.000115966
0.00209776
0.000136718
0.00197237
0.00015598
0.00182583
0.000173526
0.0016596
0.000189157
0.00147541
0.000202693
0.00127524
0.000213981
0.00106119
0.000222893
0.000835608
0.00022932
0.000600889
0.000233188
0.000359724
0.000114065
0.000234449
2.32142e-05
0.0023619
1.98472e-07
4.69205e-05
0.00231759
7.03461e-05
0.00225828
9.31071e-05
0.00217827
0.000114905
0.00207596
0.000135468
0.00195181
0.000154554
0.00180674
0.000171941
0.00164221
0.000187429
0.00145992
0.000200843
0.00126182
0.000212028
0.00105
0.00022086
0.000826773
0.00022723
0.000594516
0.000231064
0.000355885
0.000112808
0.000232307
2.29977e-05
0.0023387
2.01753e-07
4.64878e-05
0.0022941
6.96998e-05
0.00223506
9.22535e-05
0.00215572
0.000113853
0.00205436
0.000134229
0.00193143
0.000153142
0.00178783
0.00017037
0.00162498
0.000185718
0.00144457
0.000199009
0.00124853
0.000210093
0.00103891
0.000218845
0.000818021
0.000225159
0.000588201
0.00022896
0.000352084
0.000111584
0.000230189
2.27834e-05
0.00231571
2.04253e-07
4.60593e-05
0.00227082
6.90596e-05
0.00221206
9.14078e-05
0.00213337
0.00011281
0.00203296
0.000133001
0.00191124
0.000151742
0.00176908
0.000168814
0.0016079
0.000184021
0.00142937
0.000197192
0.00123536
0.000208175
0.00102793
0.000216848
0.000809346
0.000223106
0.000581941
0.000226876
0.00034831
0.000110352
0.000228096
2.25711e-05
0.00229293
2.06057e-07
4.56349e-05
0.00224776
6.84254e-05
0.00218927
9.057e-05
0.00211122
0.000111777
0.00201175
0.000131784
0.00189123
0.000150354
0.00175051
0.000167271
0.00159099
0.00018234
0.00141429
0.000195391
0.00122231
0.000206275
0.00101704
0.000214869
0.000800752
0.000221072
0.000575737
0.000224811
0.000344571
0.000109143
0.000226027
2.23608e-05
0.00227036
2.07417e-07
4.52144e-05
0.0022249
6.77972e-05
0.00216669
8.97398e-05
0.00208928
0.000110754
0.00199074
0.000130579
0.0018714
0.000148979
0.00173211
0.000165742
0.00157422
0.000180674
0.00139936
0.000193607
0.00120937
0.000204392
0.00100626
0.000212908
0.000792234
0.000219057
0.000569587
0.000222766
0.000340858
0.000107916
0.000223982
2.21525e-05
0.002248
2.08684e-07
4.47979e-05
0.00220226
6.71747e-05
0.00214431
8.89174e-05
0.00206754
0.00010974
0.00196991
0.000129384
0.00185176
0.000147617
0.00171388
0.000164227
0.00155761
0.000179023
0.00138456
0.000191839
0.00119656
0.000202526
0.000995571
0.000210966
0.000783794
0.000217059
0.000563494
0.00022074
0.000337178
0.000106704
0.000221959
2.19462e-05
0.00222584
2.10223e-07
4.43852e-05
0.00217982
6.6558e-05
0.00212214
8.81024e-05
0.00204599
0.000108735
0.00194928
0.0001282
0.00183229
0.000146267
0.00169581
0.000162726
0.00154115
0.000177388
0.0013699
0.000190087
0.00118386
0.000200677
0.00098498
0.000209041
0.00077543
0.00021508
0.000557454
0.000218732
0.000333523
0.000105471
0.000219955
2.17416e-05
0.00220389
2.1231e-07
4.39762e-05
0.00215758
6.59468e-05
0.00210017
8.72949e-05
0.00202465
0.00010774
0.00192883
0.000127027
0.001813
0.000144929
0.00167791
0.000161238
0.00152484
0.000175767
0.00135537
0.000188351
0.00117127
0.000198846
0.000974485
0.000207134
0.000767144
0.000213119
0.00055147
0.000216742
0.000329901
0.000104253
0.000217968
2.1539e-05
0.00218214
2.15054e-07
4.35709e-05
0.00213555
6.53412e-05
0.0020784
8.64947e-05
0.00200349
0.000106753
0.00190858
0.000125865
0.00179389
0.000143604
0.00166017
0.000159765
0.00150868
0.000174162
0.00134098
0.000186631
0.00115881
0.000197031
0.000964085
0.000205245
0.00075893
0.000211176
0.000545537
0.00021477
0.000326305
0.000103018
0.000215996
2.13382e-05
0.00216058
2.18365e-07
4.31692e-05
0.00211372
6.4741e-05
0.00205682
8.57018e-05
0.00198253
0.000105775
0.0018885
0.000124713
0.00177496
0.000142291
0.00164259
0.000158305
0.00149267
0.000172571
0.00132671
0.000184928
0.00114645
0.000195234
0.000953781
0.000203373
0.000750793
0.000209252
0.00053966
0.000212815
0.000322743
0.000101805
0.000214037
2.11392e-05
0.00213922
2.2197e-07
4.27712e-05
0.00209209
6.41463e-05
0.00203545
8.4916e-05
0.00196176
0.000104807
0.00186861
0.000123572
0.00175619
0.00014099
0.00162517
0.000156858
0.0014768
0.000170995
0.00131257
0.00018324
0.00113421
0.000193453
0.000943568
0.000201519
0.000742726
0.000207346
0.000533833
0.000210878
0.000319208
0.000100582
0.000212092
2.09421e-05
0.00211805
2.25483e-07
4.23768e-05
0.00207065
6.3557e-05
0.00201427
8.41375e-05
0.00194118
0.000103847
0.0018489
0.000122441
0.0017376
0.000139701
0.00160792
0.000155425
0.00146108
0.000169434
0.00129857
0.000181568
0.00112207
0.000191689
0.000933449
0.000199683
0.000734735
0.000205457
0.000528061
0.000208958
0.00031571
9.9387e-05
0.00021016
2.07469e-05
0.00209707
2.28497e-07
4.1986e-05
0.00204941
6.29731e-05
0.00199328
8.3366e-05
0.00192079
0.000102896
0.00182938
0.000121321
0.00171917
0.000138424
0.00159081
0.000154006
0.0014455
0.000167887
0.00128468
0.000179911
0.00111005
0.000189941
0.000923419
0.000197863
0.000726813
0.000203586
0.000522337
0.000207055
0.000312237
9.81902e-05
0.000208243
2.05536e-05
0.00207629
2.30699e-07
4.15989e-05
0.00202837
6.23945e-05
0.00197249
8.26017e-05
0.00190058
0.000101954
0.00181002
0.000120212
0.00170092
0.000137159
0.00157387
0.000152599
0.00143006
0.000166355
0.00127093
0.00017827
0.00109814
0.000188209
0.000913482
0.00019606
0.000718965
0.000201732
0.000516666
0.00020517
0.000308802
9.70246e-05
0.000206342
2.03622e-05
0.0020557
2.31934e-07
4.12154e-05
0.00200752
6.18214e-05
0.00195188
8.18444e-05
0.00188056
0.00010102
0.00179085
0.000119112
0.00168283
0.000135905
0.00155708
0.000151205
0.00141476
0.000164836
0.0012573
0.000176644
0.00108633
0.000186493
0.000903632
0.000194274
0.000711183
0.000199896
0.000511043
0.000203301
0.000305393
9.586e-05
0.000204457
2.01727e-05
0.00203529
2.3226e-07
4.08355e-05
0.00198685
6.12535e-05
0.00193146
8.10941e-05
0.00186072
0.000100096
0.00177185
0.000118022
0.0016649
0.000134663
0.00154044
0.000149824
0.0013996
0.000163332
0.00124379
0.000175033
0.00107463
0.000184793
0.000893873
0.000192503
0.000703475
0.000198076
0.000505472
0.00020145
0.00030202
9.47255e-05
0.000202589
1.9985e-05
0.00201507
2.31919e-07
4.04592e-05
0.00196638
6.0691e-05
0.00191123
8.03508e-05
0.00184106
9.91791e-05
0.00175302
0.000116943
0.00164714
0.000133432
0.00152395
0.000148456
0.00138457
0.000161841
0.00123041
0.000173436
0.00106303
0.000183108
0.0008842
0.000190749
0.000695832
0.000196272
0.000499947
0.000199615
0.000298672
9.35929e-05
0.000200739
1.97992e-05
0.00199504
2.31292e-07
4.00865e-05
0.00194609
6.01338e-05
0.00189118
7.96143e-05
0.00182158
9.82712e-05
0.00173436
0.000115873
0.00162954
0.000132213
0.00150761
0.0001471
0.00136969
0.000160364
0.00121714
0.000171854
0.00105155
0.000181438
0.000874616
0.000189011
0.000688261
0.000194484
0.000494474
0.000197797
0.000295359
9.24856e-05
0.000198908
1.96153e-05
0.0019752
2.30798e-07
3.97173e-05
0.00192599
5.95817e-05
0.00187132
7.88847e-05
0.00180228
9.73716e-05
0.00171588
0.000114814
0.00161209
0.000131005
0.00149142
0.000145757
0.00135494
0.0001589
0.001204
0.000170286
0.00104016
0.000179784
0.000865116
0.000187288
0.000680756
0.000192713
0.000489047
0.000195996
0.000292072
9.13791e-05
0.000197095
1.94331e-05
0.00195553
2.30808e-07
3.93516e-05
0.00190607
5.90348e-05
0.00185164
7.81618e-05
0.00178315
9.64803e-05
0.00169756
0.000113764
0.00159481
0.000129807
0.00147537
0.000144426
0.00134032
0.00015745
0.00119097
0.000168732
0.00102888
0.000178144
0.000855704
0.000185581
0.00067332
0.000190957
0.000483671
0.000194212
0.000288817
9.0293e-05
0.0001953
1.92526e-05
0.00193605
2.31557e-07
3.89893e-05
0.00188633
5.84929e-05
0.00183213
7.74455e-05
0.0017642
9.55972e-05
0.0016794
0.000112723
0.00157768
0.000128621
0.00145947
0.000143106
0.00132583
0.000156012
0.00117807
0.000167192
0.00101769
0.000176519
0.000846376
0.000183889
0.000665949
0.000189217
0.00047834
0.000192443
0.000285587
8.92069e-05
0.000193523
1.90738e-05
0.00191674
2.33105e-07
3.86304e-05
0.00186677
5.7956e-05
0.0018128
7.67359e-05
0.00174541
9.47222e-05
0.00166142
0.000111692
0.00156071
0.000127446
0.00144372
0.000141799
0.00131148
0.000154588
0.00116528
0.000165667
0.00100662
0.000174909
0.000837133
0.000182212
0.000658646
0.000187493
0.000473058
0.000190691
0.000282387
8.81367e-05
0.000191763
1.88967e-05
0.00189761
2.35329e-07
3.82748e-05
0.00184739
5.74241e-05
0.00179365
7.60327e-05
0.00172681
9.38551e-05
0.00164359
0.000110671
0.00154389
0.000126281
0.00142811
0.000140504
0.00129725
0.000153177
0.0011526
0.000164155
0.000995636
0.000173314
0.000827972
0.000180551
0.000651408
0.000185785
0.000467823
0.000188955
0.000279214
8.70661e-05
0.00019002
1.87212e-05
0.00187865
2.37957e-07
3.79225e-05
0.00182819
5.6897e-05
0.00177468
7.5336e-05
0.00170836
9.2996e-05
0.00162593
0.000109659
0.00152723
0.000125127
0.00141264
0.000139221
0.00128316
0.000151778
0.00114004
0.000162657
0.000984756
0.000171733
0.000818895
0.000178904
0.000644236
0.000184092
0.000462634
0.000187235
0.000276069
8.60086e-05
0.000188294
1.85473e-05
0.00185986
2.4063e-07
3.75734e-05
0.00180917
5.63748e-05
0.00175588
7.46456e-05
0.00169009
9.21447e-05
0.00160843
0.000108656
0.00151072
0.000123983
0.00139731
0.000137949
0.00126919
0.000150392
0.0011276
0.000161172
0.000973976
0.000170166
0.000809901
0.000177273
0.000637128
0.000182414
0.000457492
0.000185531
0.000272949
8.49515e-05
0.000186584
1.8375e-05
0.00184124
2.42978e-07
3.72275e-05
0.00179031
5.58573e-05
0.00173725
7.39615e-05
0.00167199
9.13012e-05
0.00159109
0.000107662
0.00149436
0.00012285
0.00138212
0.000136689
0.00125535
0.000149019
0.00111527
0.000159701
0.000963293
0.000168614
0.000800987
0.000175657
0.000630084
0.000180752
0.000452396
0.000183843
0.000269858
8.39055e-05
0.00018489
1.82043e-05
0.00182279
2.44694e-07
3.68847e-05
0.00177163
5.53445e-05
0.00171879
7.32836e-05
0.00165405
9.04653e-05
0.00157391
0.000106677
0.00147814
0.000121727
0.00136707
0.00013544
0.00124163
0.000147659
0.00110305
0.000158244
0.000952707
0.000167076
0.000792155
0.000174056
0.000623104
0.000179106
0.000447345
0.00018217
0.000266792
8.2861e-05
0.000183211
1.80352e-05
0.00180451
2.45583e-07
3.6545e-05
0.00175312
5.48364e-05
0.00170049
7.26119e-05
0.00163627
8.96371e-05
0.00155688
0.000105701
0.00146208
0.000120614
0.00135215
0.000134203
0.00122804
0.00014631
0.00109094
0.0001568
0.000942217
0.000165552
0.000783402
0.000172469
0.000616187
0.000177475
0.000442339
0.000180512
0.000263753
8.18266e-05
0.000181548
1.78676e-05
0.0017864
2.45593e-07
3.62084e-05
0.00173478
5.43329e-05
0.00168237
7.19464e-05
0.00161866
8.88164e-05
0.00154001
0.000104734
0.00144616
0.000119511
0.00133738
0.000132976
0.00121458
0.000144974
0.00107894
0.000155369
0.000931822
0.000164042
0.000774728
0.000170897
0.000609332
0.000175859
0.000437377
0.000178871
0.000260739
8.0795e-05
0.0001799
1.77016e-05
0.00176845
2.44815e-07
3.58749e-05
0.00171661
5.3834e-05
0.00166441
7.12868e-05
0.0016012
8.80032e-05
0.00152329
0.000103776
0.00143039
0.000118419
0.00132273
0.000131762
0.00120124
0.000143651
0.00106705
0.000153951
0.000921521
0.000162546
0.000766133
0.00016934
0.000602538
0.000174258
0.00043246
0.000177244
0.000257752
7.97729e-05
0.000178267
1.75372e-05
0.00175067
2.43454e-07
3.55444e-05
0.0016986
5.33396e-05
0.00164661
7.06333e-05
0.00158391
8.71974e-05
0.00150673
0.000102827
0.00141476
0.000117336
0.00130822
0.000130558
0.00118801
0.000142339
0.00105527
0.000152547
0.000911314
0.000161064
0.000757615
0.000167798
0.000595805
0.000172672
0.000427586
0.000175633
0.000254789
7.87544e-05
0.000176649
1.73743e-05
0.00173305
2.41787e-07
3.52169e-05
0.00168075
5.28498e-05
0.00162898
6.99858e-05
0.00156677
8.63989e-05
0.00149032
0.000101886
0.00139927
0.000116264
0.00129384
0.000129365
0.00117491
0.00014104
0.00104359
0.000151155
0.000901199
0.000159596
0.000749174
0.00016627
0.000589132
0.000171101
0.000422755
0.000174036
0.000251853
7.77448e-05
0.000175047
1.7213e-05
0.0017156
2.40119e-07
3.48925e-05
0.00166308
5.23644e-05
0.00161151
6.93441e-05
0.00154979
8.56078e-05
0.00147405
0.000100954
0.00138392
0.000115201
0.0012796
0.000128184
0.00116193
0.000139753
0.00103203
0.000149777
0.000891175
0.000158142
0.000740809
0.000164756
0.000582519
0.000169545
0.000417966
0.000172455
0.000248941
7.674e-05
0.000173459
1.70532e-05
0.00169831
2.38731e-07
3.4571e-05
0.00164556
5.18835e-05
0.00159419
6.87084e-05
0.00153297
8.48239e-05
0.00145794
0.00010003
0.00136872
0.000114148
0.00126548
0.000127013
0.00114906
0.000138477
0.00102056
0.000148411
0.000881242
0.000156702
0.000732518
0.000163257
0.000575964
0.000168003
0.00041322
0.000170889
0.000246054
7.57432e-05
0.000171886
1.68949e-05
0.00168117
2.37847e-07
3.42525e-05
0.0016282
5.14069e-05
0.00157704
6.80785e-05
0.0015163
8.40472e-05
0.00144197
9.91154e-05
0.00135365
0.000113105
0.00125149
0.000125853
0.00113632
0.000137214
0.0010092
0.000147058
0.000871398
0.000155275
0.000724302
0.000161771
0.000569468
0.000166476
0.000408515
0.000169338
0.000243191
7.47522e-05
0.000170329
1.6738e-05
0.0016642
2.37609e-07
3.3937e-05
0.001611
5.09348e-05
0.00156004
6.74543e-05
0.00149978
8.32776e-05
0.00142614
9.82088e-05
0.00133872
0.000112071
0.00123763
0.000124704
0.00112368
0.000135963
0.000997942
0.000145718
0.000861642
0.000153861
0.00071616
0.0001603
0.00056303
0.000164964
0.000403851
0.000167802
0.000240354
7.37683e-05
0.000168786
1.65826e-05
0.00164738
2.38074e-07
3.36243e-05
0.00159396
5.0467e-05
0.0015432
6.68359e-05
0.00148341
8.25152e-05
0.00141047
9.73107e-05
0.00132392
0.000111047
0.00122389
0.000123566
0.00111117
0.000134723
0.000986786
0.000144391
0.000851975
0.000152461
0.00070809
0.000158844
0.000556648
0.000163467
0.000399228
0.00016628
0.00023754
7.27912e-05
0.000167257
1.64286e-05
0.00163071
2.39216e-07
3.33146e-05
0.00157707
5.00035e-05
0.00152651
6.62233e-05
0.00146719
8.17598e-05
0.00139493
9.64209e-05
0.00130926
0.000110033
0.00121028
0.000122439
0.00109876
0.000133495
0.000975729
0.000143077
0.000842393
0.000151075
0.000700092
0.000157401
0.000550323
0.000161983
0.000394646
0.000164773
0.00023475
7.18203e-05
0.000165743
1.62761e-05
0.00161419
2.40946e-07
3.30077e-05
0.00156034
4.95444e-05
0.00150997
6.56163e-05
0.00145112
8.10115e-05
0.00137953
9.55395e-05
0.00129473
0.000109029
0.00119679
0.000121322
0.00108647
0.000132279
0.000964773
0.000141775
0.000832898
0.000149702
0.000692166
0.000155971
0.000544054
0.000160514
0.000390103
0.00016328
0.000231983
7.08572e-05
0.000164244
1.61248e-05
0.00159782
2.43133e-07
3.27037e-05
0.00154376
4.90895e-05
0.00149359
6.5015e-05
0.00143519
8.02702e-05
0.00136428
9.46664e-05
0.00128034
0.000108033
0.00118342
0.000120216
0.00107428
0.000131074
0.000953915
0.000140485
0.000823488
0.000148342
0.000684309
0.000154556
0.00053784
0.000159059
0.0003856
0.000161801
0.00022924
6.98996e-05
0.000162758
1.5975e-05
0.0015816
2.45625e-07
3.24025e-05
0.00152733
4.86388e-05
0.00147735
6.44193e-05
0.00141941
7.95358e-05
0.00134916
9.38015e-05
0.00126607
0.000107048
0.00117018
0.00011912
0.00106221
0.000129881
0.000943154
0.000139208
0.000814162
0.000146995
0.000676523
0.000153154
0.000531681
0.000157618
0.000381137
0.000160337
0.000226521
6.89508e-05
0.000161287
1.58265e-05
0.00156553
2.48274e-07
3.21042e-05
0.00151106
4.81924e-05
0.00146126
6.38292e-05
0.00140377
7.88084e-05
0.00133418
9.29448e-05
0.00125194
0.000106071
0.00115705
0.000118035
0.00105025
0.0001287
0.00093249
0.000137943
0.000804918
0.000145661
0.000668805
0.000151766
0.000525576
0.000156191
0.000376712
0.000158886
0.000223825
6.80068e-05
0.000159829
1.56794e-05
0.0015496
2.50945e-07
3.18086e-05
0.00149493
4.77501e-05
0.00144532
6.32446e-05
0.00138828
7.80879e-05
0.00131934
9.20963e-05
0.00123793
0.000105104
0.00114404
0.000116961
0.00103839
0.00012753
0.000921921
0.00013669
0.000795758
0.00014434
0.000661157
0.000150391
0.000519525
0.000154777
0.000372327
0.00015745
0.000221152
6.70728e-05
0.000158385
1.55336e-05
0.00153381
2.53535e-07
3.15158e-05
0.00147894
4.7312e-05
0.00142953
6.26656e-05
0.00137293
7.73742e-05
0.00130463
9.12559e-05
0.00122405
0.000104147
0.00113115
0.000115897
0.00102664
0.000126371
0.000911447
0.00013545
0.000786679
0.000143031
0.000653576
0.000149029
0.000513527
0.000153377
0.000367979
0.000156027
0.000218501
6.61429e-05
0.000156955
1.53891e-05
0.00151817
2.55966e-07
3.12257e-05
0.00146311
4.68781e-05
0.00141387
6.20921e-05
0.00135771
7.66674e-05
0.00129006
9.04236e-05
0.00121029
0.000103198
0.00111838
0.000114843
0.001015
0.000125223
0.000901067
0.000134221
0.000777681
0.000141735
0.000646063
0.000147681
0.000507583
0.000151991
0.000363669
0.000154617
0.000215874
6.52242e-05
0.000155538
1.5246e-05
0.00150266
2.58196e-07
3.09384e-05
0.00144741
4.64483e-05
0.00139836
6.15241e-05
0.00134264
7.59673e-05
0.00127561
8.95992e-05
0.00119666
0.000102259
0.00110572
0.000113799
0.00100346
0.000124086
0.000890779
0.000133005
0.000768763
0.000140452
0.000638615
0.000146345
0.00050169
0.000150617
0.000359397
0.000153221
0.000213269
6.43091e-05
0.000154134
1.51042e-05
0.0014873
2.60206e-07
3.06538e-05
0.00143187
4.60226e-05
0.00138299
6.09615e-05
0.0013277
7.52739e-05
0.0012613
8.87828e-05
0.00118315
0.000101328
0.00109317
0.000112765
0.000992021
0.000122961
0.000880584
0.0001318
0.000759925
0.000139181
0.000631235
0.000145022
0.000495851
0.000149256
0.000355164
0.000151838
0.000210688
6.34061e-05
0.000152743
1.49636e-05
0.00147207
2.61999e-07
3.03719e-05
0.00141646
4.5601e-05
0.00136776
6.04044e-05
0.00131289
7.45873e-05
0.00124712
8.79743e-05
0.00116976
0.000100407
0.00108074
0.000111741
0.000980687
0.000121846
0.000870479
0.000130606
0.000751164
0.000137922
0.000623919
0.000143711
0.000490061
0.000147909
0.000350966
0.000150467
0.000208128
6.25064e-05
0.000151365
1.48244e-05
0.00145698
2.63593e-07
3.00926e-05
0.00140119
4.51834e-05
0.00135267
5.98525e-05
0.00129823
7.39072e-05
0.00123306
8.71735e-05
0.0011565
9.94946e-05
0.00106842
0.000110727
0.000969455
0.000120742
0.000860465
0.000129424
0.000742483
0.000136675
0.000616669
0.000142413
0.000484324
0.000146574
0.000346807
0.00014911
0.000205592
6.16199e-05
0.00015
1.46865e-05
0.00144203
2.65014e-07
2.9816e-05
0.00138606
4.47698e-05
0.00133772
5.9306e-05
0.00128369
7.32337e-05
0.00121913
8.63805e-05
0.00114335
9.85909e-05
0.00105621
0.000109723
0.000958322
0.000119648
0.000850539
0.000128253
0.000733878
0.00013544
0.000609482
0.000141127
0.000478637
0.000145251
0.000342683
0.000147765
0.000203077
6.07362e-05
0.000148647
1.45498e-05
0.00142722
2.6629e-07
2.9542e-05
0.00137107
4.43601e-05
0.0013229
5.87647e-05
0.00126928
7.25666e-05
0.00120533
8.55951e-05
0.00113032
9.76959e-05
0.00104411
0.000108728
0.000947291
0.000118565
0.000840703
0.000127094
0.00072535
0.000134217
0.00060236
0.000139854
0.000473001
0.000143941
0.000338597
0.000146432
0.000200585
5.98666e-05
0.000147306
1.44145e-05
0.00141253
2.67452e-07
2.92707e-05
0.00135621
4.39544e-05
0.00130822
5.82287e-05
0.00125501
7.1906e-05
0.00119165
8.48172e-05
0.00111741
9.68095e-05
0.00103211
0.000107743
0.000936356
0.000117492
0.000830954
0.000125945
0.000716897
0.000133005
0.0005953
0.000138592
0.000467414
0.000142643
0.000334546
0.000145112
0.000198115
5.89993e-05
0.000145977
1.42804e-05
0.00139798
2.68523e-07
2.90019e-05
0.00134149
4.35526e-05
0.00129367
5.76978e-05
0.00124086
7.12517e-05
0.0011781
8.40468e-05
0.00110461
9.59316e-05
0.00102023
0.000106768
0.000925521
0.00011643
0.000821292
0.000124807
0.000708521
0.000131804
0.000588304
0.000137341
0.000461878
0.000141356
0.000330532
0.000143804
0.000195668
5.81471e-05
0.00014466
1.41475e-05
0.00138357
2.69528e-07
2.87357e-05
0.0013269
4.31546e-05
0.00127925
5.71719e-05
0.00122685
7.06037e-05
0.00116467
8.32838e-05
0.00109193
9.5062e-05
0.00100845
0.000105801
0.000914782
0.000115377
0.000811716
0.00012368
0.000700218