1.45 	0 	0 	-0.0054967 	-0.00274937 	3.93521e-21
2.35 	0 	0 	0.0691635 	-0.0068584 	2.44705e-21
