1.45 	0 	0 	-0.190972
2.35 	0 	0 	0.0137831
