1.45 	0 	0 	-0.292
2.35 	0 	0 	-0.127321
