1.45 	0 	0 	-0.308356
2.35 	0 	0 	-0.11871
