1.45 	0 	0 	-0.00680728 	-0.0026556 	3.89476e-21
2.35 	0 	0 	0.0651246 	-0.00674829 	2.42358e-21
