/*--------------------------------*- C++ -*----------------------------------*\
  =========                 |
  \\      /  F ield         | OpenFOAM: The Open Source CFD Toolbox
   \\    /   O peration     | Website:  https://openfoam.org
    \\  /    A nd           | Version:  6.0
     \\/     M anipulation  |
\*---------------------------------------------------------------------------*/
FoamFile
{
    version     2.0;
    format      ascii;
    class       volVectorField;
    location    "0.4";
    object      U;
}
// * * * * * * * * * * * * * * * * * * * * * * * * * * * * * * * * * * * * * //

dimensions      [0 1 -1 0 0 0 0];

internalField   nonuniform List<vector> 
200
(
(0.000396075 -0.000479865 0)
(0.000299144 1.58527e-05 0)
(-0.0011472 0.000372515 0)
(-0.00314861 0.000487837 0)
(-0.00532512 0.000551917 0)
(-0.00774859 0.000665365 0)
(-0.010693 0.00088631 0)
(-0.0146334 0.00130906 0)
(-0.0203964 0.00213526 0)
(-0.0293828 0.00377194 0)
(-0.0437329 0.00686525 0)
(-0.0659431 0.0118492 0)
(-0.0969046 0.0176461 0)
(-0.131694 0.0206345 0)
(-0.157164 0.016514 0)
(-0.158949 0.00460567 0)
(-0.132056 -0.0107398 0)
(-0.0830431 -0.0216924 0)
(-0.0286141 -0.0180446 0)
(-0.000169087 -0.000276565 0)
(-0.000522501 -0.000129587 0)
(-0.00358095 0.00242927 0)
(-0.00956074 0.0039943 0)
(-0.0166554 0.00463835 0)
(-0.0242335 0.00513741 0)
(-0.0326005 0.0059784 0)
(-0.0425099 0.00754848 0)
(-0.0552139 0.0103996 0)
(-0.0725935 0.0153953 0)
(-0.097069 0.023634 0)
(-0.130894 0.0355965 0)
(-0.174042 0.0488994 0)
(-0.220837 0.0564373 0)
(-0.259101 0.0492808 0)
(-0.275566 0.0235419 0)
(-0.263279 -0.0164524 0)
(-0.222387 -0.0603024 0)
(-0.157121 -0.0908233 0)
(-0.0774227 -0.0802958 0)
(-0.0122252 -0.014364 0)
(-0.00188549 0.00311518 0)
(-0.00872125 0.00972918 0)
(-0.0196533 0.0131145 0)
(-0.0316177 0.0145483 0)
(-0.0438685 0.0158187 0)
(-0.0569596 0.0180759 0)
(-0.0718962 0.0222882 0)
(-0.0901587 0.0296064 0)
(-0.113577 0.04122 0)
(-0.143768 0.0574768 0)
(-0.181116 0.0760608 0)
(-0.223151 0.0901213 0)
(-0.26302 0.089238 0)
(-0.291162 0.064955 0)
(-0.300876 0.0164618 0)
(-0.290599 -0.0498064 0)
(-0.259295 -0.122786 0)
(-0.204388 -0.181161 0)
(-0.125089 -0.180609 0)
(-0.0298661 -0.0602234 0)
(-0.00327862 0.00944736 0)
(-0.0137595 0.0216701 0)
(-0.0290448 0.0267787 0)
(-0.0446542 0.0285906 0)
(-0.0597401 0.0302958 0)
(-0.0749643 0.0337485 0)
(-0.0911881 0.0404005 0)
(-0.109484 0.0516905 0)
(-0.130909 0.0685112 0)
(-0.156046 0.089815 0)
(-0.184507 0.110787 0)
(-0.214128 0.122183 0)
(-0.240204 0.113186 0)
(-0.25752 0.0773834 0)
(-0.264388 0.015997 0)
(-0.261562 -0.0657481 0)
(-0.246498 -0.16141 0)
(-0.212153 -0.253629 0)
(-0.148564 -0.289574 0)
(-0.0436912 -0.150602 0)
(-0.00471632 0.0187256 0)
(-0.0185338 0.0375532 0)
(-0.0372081 0.0436498 0)
(-0.0548498 0.0448058 0)
(-0.0705902 0.0459019 0)
(-0.0850609 0.0493129 0)
(-0.0986385 0.0566921 0)
(-0.11162 0.0694807 0)
(-0.124196 0.0881676 0)
(-0.136447 0.110771 0)
(-0.14844 0.131359 0)
(-0.159794 0.140308 0)
(-0.168817 0.127873 0)
(-0.173837 0.0894583 0)
(-0.176137 0.0268173 0)
(-0.178395 -0.0574658 0)
(-0.179161 -0.163958 0)
(-0.169679 -0.286257 0)
(-0.132338 -0.376093 0)
(-0.0364525 -0.273748 0)
(-0.00650864 0.0311479 0)
(-0.023722 0.0569352 0)
(-0.0449377 0.0624671 0)
(-0.0629703 0.0613404 0)
(-0.0773071 0.0602807 0)
(-0.088654 0.0617495 0)
(-0.0968189 0.0672533 0)
(-0.101304 0.0781132 0)
(-0.101603 0.0947065 0)
(-0.0976629 0.115022 0)
(-0.0904751 0.133423 0)
(-0.0819193 0.141128 0)
(-0.0735375 0.129625 0)
(-0.0665017 0.0951264 0)
(-0.0635385 0.0390396 0)
(-0.068373 -0.0380968 0)
(-0.0817415 -0.142581 0)
(-0.095205 -0.281115 0)
(-0.08747 -0.420361 0)
(-0.00647546 -0.384509 0)
(-0.00932543 0.0475707 0)
(-0.0309538 0.079222 0)
(-0.0539293 0.0813491 0)
(-0.0702579 0.0763314 0)
(-0.0808012 0.0715936 0)
(-0.0869844 0.0692263 0)
(-0.0883652 0.0703583 0)
(-0.0840088 0.0761153 0)
(-0.0729638 0.0870074 0)
(-0.0549539 0.101688 0)
(-0.0313205 0.11594 0)
(-0.00534818 0.122826 0)
(0.0186888 0.115219 0)
(0.0367994 0.0890683 0)
(0.0449586 0.0442886 0)
(0.0398048 -0.0205815 0)
(0.0188523 -0.114716 0)
(-0.00988453 -0.25395 0)
(-0.0284455 -0.423187 0)
(0.036347 -0.45459 0)
(-0.0136508 0.0692592 0)
(-0.0401765 0.107699 0)
(-0.0675163 0.101504 0)
(-0.0748436 0.086366 0)
(-0.0741835 0.0755895 0)
(-0.0695293 0.068247 0)
(-0.0607741 0.0639619 0)
(-0.047147 0.0633167 0)
(-0.0276367 0.0668282 0)
(-0.00143105 0.0738925 0)
(0.0307778 0.0821866 0)
(0.0665313 0.0872117 0)
(0.100907 0.0840711 0)
(0.12908 0.0686782 0)
(0.144624 0.0395628 0)
(0.145308 -0.00690347 0)
(0.124099 -0.0803692 0)
(0.0907004 -0.200028 0)
(0.0504845 -0.369518 0)
(0.0952028 -0.453899 0)
(-0.0881218 0.138978 0)
(-0.0869694 0.123394 0)
(-0.0537665 0.0880134 0)
(-0.0215153 0.0707638 0)
(0.00916643 0.0596316 0)
(0.0372626 0.0510905 0)
(0.0638774 0.0445699 0)
(0.0904347 0.0402388 0)
(0.117842 0.0384204 0)
(0.148136 0.038877 0)
(0.181004 0.0410396 0)
(0.217614 0.0428289 0)
(0.252758 0.0423423 0)
(0.286342 0.0366507 0)
(0.306498 0.0245921 0)
(0.316258 0.00237652 0)
(0.295606 -0.0369474 0)
(0.261728 -0.110279 0)
(0.191564 -0.239594 0)
(0.192553 -0.342244 0)
(0.189373 0.110855 0)
(0.232444 0.0978971 0)
(0.308537 0.0736653 0)
(0.374429 0.0570488 0)
(0.425228 0.0456774 0)
(0.465614 0.0371996 0)
(0.498847 0.0306592 0)
(0.528177 0.0255281 0)
(0.553978 0.0217473 0)
(0.579813 0.0189248 0)
(0.603713 0.0171665 0)
(0.630563 0.0156877 0)
(0.653001 0.0146076 0)
(0.677911 0.0125767 0)
(0.688289 0.0100767 0)
(0.696145 0.00473994 0)
(0.667502 -0.00359908 0)
(0.626641 -0.0224185 0)
(0.502568 -0.0546882 0)
(0.390894 -0.107863 0)
)
;

boundaryField
{
    movingWall
    {
        type            fixedValue;
        value           uniform (1 0 0);
    }
    fixedWalls
    {
        type            noSlip;
    }
    frontAndBack
    {
        type            empty;
    }
}


// ************************************************************************* //
