1.45 	0 	0 	-0.00090048 	-0.00321684 	3.97329e-21
2.35 	0 	0 	0.0895323 	-0.00761891 	2.25273e-21
