1.275 	2.15223e-18 	-2.76991e-20 	-0.0341332 	-0.000445563 	-1.97681e-22
1.825 	2.15223e-18 	-1.39322e-20 	-0.00886481 	-0.00276749 	1.77285e-21
2.375 	2.15223e-18 	-2.66896e-23 	0.117016 	-0.00325843 	-7.40085e-22
