1.45 	0 	0 	0.0722226 	-0.00908884 	3.42446e-21
2.35 	0 	0 	0.320778 	-0.0127939 	5.28981e-23
