1.275 	2.15223e-18 	-2.76991e-20 	-0.0344742 	-0.000436755 	-1.90706e-22
1.825 	2.15223e-18 	-1.39322e-20 	-0.00948522 	-0.00275244 	1.68354e-21
2.375 	2.15223e-18 	-2.66896e-23 	0.115248 	-0.0032316 	-7.02227e-22
