1.275 	2.15223e-18 	-2.76991e-20 	-0.0339961 	-0.000441685 	-1.98817e-22
1.825 	2.15223e-18 	-1.39322e-20 	-0.00861529 	-0.00277627 	1.78615e-21
2.375 	2.15223e-18 	-2.66896e-23 	0.117716 	-0.00328888 	-7.45554e-22
