1.45 	0 	0 	-0.00572394 	-0.00273291 	3.93013e-21
2.35 	0 	0 	0.0684591 	-0.00683673 	2.44623e-21
