1.45 	0 	0 	-0.00651077 	-0.00267709 	3.90699e-21
2.35 	0 	0 	0.0660609 	-0.00677167 	2.43336e-21
