1.275 	2.15223e-18 	-2.76991e-20 	-0.0344852 	-0.000440384 	-1.90045e-22
1.825 	2.15223e-18 	-1.39322e-20 	-0.00950624 	-0.00275788 	1.6748e-21
2.375 	2.15223e-18 	-2.66896e-23 	0.115177 	-0.00323248 	-6.98487e-22
