1.275 	2.15223e-18 	-2.76991e-20 	-0.0191661 	-0.00240767 	-2.00292e-22
1.825 	2.15223e-18 	-1.39322e-20 	0.0937381 	-0.0068315 	1.18142e-21
2.375 	2.15223e-18 	-2.66896e-23 	0.353646 	-0.00777114 	-3.95416e-22
