/*--------------------------------*- C++ -*----------------------------------*\
  =========                 |
  \\      /  F ield         | OpenFOAM: The Open Source CFD Toolbox
   \\    /   O peration     | Website:  https://openfoam.org
    \\  /    A nd           | Version:  6.0
     \\/     M anipulation  |
\*---------------------------------------------------------------------------*/
FoamFile
{
    version     2.0;
    format      ascii;
    class       volScalarField;
    location    "0.2";
    object      p;
}
// * * * * * * * * * * * * * * * * * * * * * * * * * * * * * * * * * * * * * //

dimensions      [0 2 -2 0 0 0 0];

internalField   nonuniform List<scalar> 
800
(
8.10775e-09
-0.000282951
-0.000755814
-0.00128425
-0.00178676
-0.00223367
-0.00262014
-0.0029514
-0.003234
-0.00347104
-0.00366061
-0.00379596
-0.00386605
-0.00385586
-0.00374617
-0.00351302
-0.00312682
-0.00255117
-0.00174166
-0.000644607
0.000803777
0.00267762
0.00506021
0.00804044
0.0117058
0.0161305
0.0213579
0.0273774
0.0340973
0.0413197
0.0487247
0.0558773
0.0622677
0.0673914
0.0708617
0.0725261
0.0725454
0.071399
0.0698122
0.0686237
0.000254301
-4.12321e-05
-0.000433268
-0.000853289
-0.00126315
-0.00164273
-0.00198535
-0.00229039
-0.00255758
-0.00278424
-0.00296415
-0.00308762
-0.00314164
-0.00310981
-0.00297195
-0.00270367
-0.00227573
-0.00165318
-0.000794589
0.000348747
0.00183322
0.00372281
0.00608792
0.00900244
0.0125381
0.0167548
0.0216872
0.0273244
0.0335881
0.0403079
0.0472057
0.053898
0.0599286
0.0648419
0.0682859
0.0701214
0.0704927
0.0698106
0.0686133
0.0674579
0.000715479
0.000301576
-0.000101429
-0.000479756
-0.000840704
-0.00117823
-0.00149046
-0.00177725
-0.00203608
-0.00226104
-0.002443
-0.00257002
-0.00262757
-0.00259841
-0.0024622
-0.00219515
-0.00176956
-0.00115321
-0.000308706
0.000807085
0.00224353
0.00405642
0.00630765
0.00906369
0.0123921
0.0163546
0.0209958
0.0263253
0.032294
0.0387671
0.0454998
0.0521303
0.0582045
0.0632452
0.06686
0.0688625
0.0693583
0.0687248
0.0674032
0.0658324
0.00125727
0.00066777
0.000199634
-0.000179943
-0.000524101
-0.000842216
-0.00113996
-0.00142069
-0.00168208
-0.00191673
-0.0021137
-0.00225953
-0.00233882
-0.00233419
-0.00222609
-0.00199253
-0.00160885
-0.00104716
-0.000275811
0.000741344
0.00204577
0.00368534
0.0057155
0.00820001
0.0112102
0.0148211
0.0191024
0.0241008
0.0298138
0.0361549
0.0429183
0.0497573
0.0561959
0.0616923
0.0657538
0.0680828
0.0687013
0.0679549
0.0662578
0.0640712
0.00174994
0.000965755
0.00041264
1.34665e-05
-0.000330906
-0.000645181
-0.000942425
-0.00122967
-0.00150517
-0.0017606
-0.00198373
-0.00216013
-0.00227411
-0.00230901
-0.00224712
-0.00206966
-0.00175666
-0.00128657
-0.000635686
0.000222756
0.00132013
0.00269472
0.00439491
0.00648269
0.00903642
0.0121505
0.015929
0.020469
0.0258315
0.0319988
0.0388255
0.0459979
0.0530247
0.0592834
0.064136
0.0671029
0.0680508
0.0672546
0.0651234
0.0622285
0.00207667
0.00109541
0.000450484
2.18151e-05
-0.000334619
-0.000657787
-0.000967051
-0.00127228
-0.00157191
-0.00185674
-0.00211354
-0.00232743
-0.00248317
-0.00256576
-0.00256058
-0.00245357
-0.00223126
-0.00188059
-0.0013883
-0.000739687
8.37666e-05
0.00110816
0.00237262
0.00393603
0.00588359
0.00833086
0.0114211
0.0153112
0.0201415
0.0259874
0.0327964
0.0403246
0.0480962
0.0554166
0.0614699
0.0655165
0.0671639
0.0665293
0.0639861
0.0602739
0.00213054
0.00095578
0.000218576
-0.000243745
-0.00061902
-0.000959234
-0.00128862
-0.00161869
-0.00194736
-0.00226426
-0.00255539
-0.00280597
-0.00300199
-0.00313112
-0.00318307
-0.00315
-0.00302677
-0.0028109
-0.00250196
-0.00210002
-0.0016024
-0.000998453
-0.000261798
0.000659599
0.00185417
0.00345567
0.00564583
0.00864521
0.0126856
0.0179594
0.0245457
0.0323231
0.0408882
0.0495164
0.0572107
0.0629012
0.0658027
0.065721
0.0628831
0.0582215
0.00180935
0.000444833
-0.00038124
-0.000875105
-0.00126873
-0.0016264
-0.00197592
-0.0023292
-0.00268288
-0.00302517
-0.00334147
-0.00361759
-0.00384158
-0.00400468
-0.00410207
-0.00413344
-0.00410353
-0.0040222
-0.00390388
-0.00376572
-0.00362362
-0.00348574
-0.00334262
-0.00315429
-0.00283546
-0.00224119
-0.00115758
0.000696394
0.00364808
0.00802365
0.0140693
0.0218433
0.0310925
0.0411424
0.0508649
0.0588297
0.0637212
0.0648093
0.0619471
0.0562196
0.00101199
-0.000542833
-0.00145118
-0.00196622
-0.00236713
-0.00273096
-0.00308839
-0.00345086
-0.00381317
-0.00416193
-0.00448218
-0.00476084
-0.00498862
-0.00516113
-0.00527983
-0.00535292
-0.00539599
-0.00543242
-0.00549276
-0.00561264
-0.00582839
-0.00616937
-0.00664655
-0.00723703
-0.00786549
-0.00838457
-0.00855837
-0.0080553
-0.00645909
-0.00330776
0.00183012
0.00923689
0.0188868
0.0302648
0.0422247
0.0530307
0.0607492
0.0638527
0.0614577
0.0546289
-0.000367149
-0.00212057
-0.00309941
-0.0036118
-0.00399242
-0.00433379
-0.00466978
-0.00501102
-0.00535013
-0.00567221
-0.00596212
-0.00620822
-0.00640429
-0.00655079
-0.00665587
-0.00673655
-0.00681966
-0.00694226
-0.00715115
-0.00750059
-0.00804743
-0.00884275
-0.00991919
-0.0112735
-0.012845
-0.0144912
-0.0159648
-0.0168974
-0.0168002
-0.0150911
-0.0111614
-0.0044936
0.00516281
0.0175564
0.0316824
0.0456588
0.0569726
0.0630841
0.0619099
0.0541169
-0.00244819
-0.00441888
-0.00544462
-0.00590655
-0.00621287
-0.00647775
-0.00673978
-0.00700888
-0.00727533
-0.00752255
-0.00773523
-0.00790318
-0.00802327
-0.00810064
-0.00815002
-0.00819693
-0.00827884
-0.00844572
-0.00875946
-0.00929137
-0.0101169
-0.0113068
-0.0129133
-0.0149515
-0.0173756
-0.0200508
-0.0227257
-0.0250083
-0.0263577
-0.0260999
-0.0234825
-0.0177804
-0.00846969
0.00451862
0.0204715
0.0375955
0.0530011
0.0630854
0.0641191
0.0557858
-0.00538488
-0.00760218
-0.00862377
-0.00894375
-0.00907919
-0.00917671
-0.00928177
-0.00940345
-0.00952884
-0.00963884
-0.0097173
-0.00975482
-0.00975059
-0.0097137
-0.00966445
-0.00963574
-0.00967425
-0.009841
-0.0102105
-0.010868
-0.0119036
-0.0134031
-0.015433
-0.0180213
-0.0211322
-0.0246362
-0.0282786
-0.0316521
-0.0341812
-0.0351304
-0.0336476
-0.0288556
-0.020009
-0.00673408
0.0106248
0.0305866
0.0502118
0.0650179
0.0693789
0.0613439
-0.00940323
-0.0118984
-0.0128025
-0.0128098
-0.0126103
-0.0123977
-0.0122243
-0.012096
-0.0119937
-0.0118933
-0.0117755
-0.0116299
-0.0114562
-0.0112658
-0.0110828
-0.0109453
-0.010907
-0.0110371
-0.0114191
-0.0121478
-0.0133226
-0.0150376
-0.017366
-0.0203404
-0.0239265
-0.0279924
-0.0322759
-0.0363547
-0.0396284
-0.0413215
-0.0405195
-0.0362495
-0.0276175
-0.0140186
0.00454761
0.0270323
0.0507753
0.0707991
0.0796635
0.0733163
-0.0148843
-0.0176508
-0.0181852
-0.0175678
-0.0167666
-0.0160319
-0.015414
-0.0149063
-0.0144764
-0.0140888
-0.0137166
-0.0133443
-0.0129692
-0.0126019
-0.0122676
-0.012007
-0.0118775
-0.0119528
-0.0123213
-0.013082
-0.0143374
-0.0161821
-0.0186878
-0.0218818
-0.0257216
-0.030063
-0.0346282
-0.038975
-0.0424779
-0.044329
-0.0435702
-0.039167
-0.0301333
-0.0157159
0.00433931
0.0294012
0.0573021
0.0830341
0.0977813
0.09526
-0.0225493
-0.0254055
-0.0250072
-0.02321
-0.021395
-0.0198436
-0.0185715
-0.0175378
-0.0166801
-0.0159399
-0.0152736
-0.0146545
-0.014072
-0.013532
-0.013057
-0.0126871
-0.0124797
-0.0125091
-0.0128639
-0.0136418
-0.0149419
-0.0168524
-0.0194349
-0.0227029
-0.0265958
-0.0309483
-0.0354579
-0.0396547
-0.0428822
-0.0442962
-0.042894
-0.0375837
-0.0273031
-0.0111922
0.0111743
0.0394889
0.072136
0.104514
0.127181
0.131779
-0.0338717
-0.0360485
-0.0334696
-0.0295481
-0.0261292
-0.0233885
-0.021229
-0.0195319
-0.0181749
-0.0170554
-0.0160988
-0.0152567
-0.014504
-0.0138364
-0.01327
-0.0128402
-0.0126013
-0.0126245
-0.0129941
-0.0138018
-0.0151379
-0.017078
-0.019667
-0.0228975
-0.0266839
-0.0308325
-0.0350093
-0.0387103
-0.0412406
-0.0417113
-0.0390632
-0.0321282
-0.0197406
-0.000905198
0.0249785
0.0578673
0.0966544
0.137476
0.171289
0.188121
-0.0520772
-0.051006
-0.0436299
-0.0361069
-0.0303068
-0.0259546
-0.0226996
-0.0202659
-0.0184185
-0.0169757
-0.0158104
-0.0148392
-0.014014
-0.0133156
-0.0127504
-0.0123469
-0.0121539
-0.0122369
-0.0126734
-0.0135459
-0.014932
-0.0168912
-0.0194476
-0.0225689
-0.026141
-0.0299386
-0.0335938
-0.0365661
-0.0381204
-0.0373188
-0.0330347
-0.0239987
-0.00888697
0.0135332
0.0441914
0.083455
0.130783
0.183312
0.233676
0.271065
-0.0854729
-0.0722487
-0.0549133
-0.0417461
-0.0326605
-0.0263461
-0.0219682
-0.0189342
-0.0167968
-0.0152458
-0.014079
-0.0131691
-0.0124417
-0.0118624
-0.0114286
-0.0111632
-0.0111102
-0.01133
-0.0118931
-0.0128725
-0.0143333
-0.0163182
-0.0188313
-0.0218162
-0.0251322
-0.0285254
-0.0315984
-0.0337811
-0.0343059
-0.0321951
-0.0262625
-0.0151333
0.0027121
0.0288659
0.0648811
0.112083
0.171248
0.241606
0.320258
0.396707
-0.158909
-0.0996252
-0.0606782
-0.0403749
-0.0285217
-0.0210709
-0.0165003
-0.013753
-0.012073
-0.0110099
-0.010311
-0.00983139
-0.00949195
-0.00925964
-0.00913553
-0.00914651
-0.0093391
-0.009774
-0.0105198
-0.0116448
-0.0132063
-0.0152369
-0.0177275
-0.020607
-0.0237185
-0.0267929
-0.0294193
-0.0310164
-0.0308074
-0.0278035
-0.0207953
-0.00834958
0.0111994
0.039785
0.0797277
0.133986
0.2066
0.303067
0.433807
0.597509
-0.319762
-0.122478
-0.0430535
-0.0206689
-0.0113494
-0.00617974
-0.00387459
-0.00324853
-0.00335936
-0.00373999
-0.00419697
-0.00464711
-0.00505994
-0.00544024
-0.00581814
-0.00624217
-0.00677442
-0.00748638
-0.00845373
-0.0097491
-0.0114322
-0.0135366
-0.0160537
-0.0189132
-0.0219611
-0.0249337
-0.0274302
-0.028884
-0.0285374
-0.0254241
-0.0183571
-0.00591548
0.0135885
0.042205
0.0826365
0.139043
0.219443
0.341131
0.540559
0.857118
)
;

boundaryField
{
    movingWall
    {
        type            zeroGradient;
    }
    fixedWalls
    {
        type            zeroGradient;
    }
    frontAndBack
    {
        type            empty;
    }
}


// ************************************************************************* //
