/*--------------------------------*- C++ -*----------------------------------*\
  =========                 |
  \\      /  F ield         | OpenFOAM: The Open Source CFD Toolbox
   \\    /   O peration     | Website:  https://openfoam.org
    \\  /    A nd           | Version:  6.0
     \\/     M anipulation  |
\*---------------------------------------------------------------------------*/
FoamFile
{
    version     2.0;
    format      ascii;
    class       volScalarField;
    location    "0.2";
    object      p;
}
// * * * * * * * * * * * * * * * * * * * * * * * * * * * * * * * * * * * * * //

dimensions      [0 2 -2 0 0 0 0];

internalField   nonuniform List<scalar> 
200
(
5.80766e-09
-0.00090589
-0.00175544
-0.00237558
-0.00280707
-0.00304291
-0.00301678
-0.0026154
-0.00167218
5.321e-05
0.00290034
0.00732208
0.0138569
0.0229962
0.0348419
0.0484985
0.061504
0.0702009
0.0719381
0.068549
0.00092971
-5.19092e-05
-0.000747276
-0.00124228
-0.00163889
-0.00188577
-0.00188254
-0.0015056
-0.000600574
0.00103162
0.0036522
0.007605
0.0133353
0.0213564
0.0320062
0.0448149
0.0577102
0.0670417
0.0694442
0.0655171
0.00169995
0.000398141
-0.000314526
-0.000795572
-0.00124896
-0.00160125
-0.00173592
-0.00153857
-0.00089303
0.000327212
0.00227884
0.00519668
0.00948961
0.0158412
0.0250947
0.0375704
0.0518208
0.0637843
0.0680756
0.0632637
0.00152985
-0.000124937
-0.00091371
-0.00144696
-0.0020114
-0.00250862
-0.00281863
-0.00285878
-0.00258499
-0.00198976
-0.00107665
0.000225201
0.00225124
0.00587183
0.0125999
0.0240155
0.0400647
0.0567589
0.0659886
0.0628174
-0.000300915
-0.00221229
-0.00297843
-0.00349311
-0.00409916
-0.00465462
-0.00504137
-0.00522732
-0.00526997
-0.00532168
-0.00559934
-0.00626457
-0.00714435
-0.00728078
-0.00452109
0.00423857
0.0211877
0.0437979
0.0621208
0.0662647
-0.00459867
-0.00649943
-0.00686882
-0.00706864
-0.00747135
-0.00784865
-0.00807729
-0.0081812
-0.00832756
-0.00883452
-0.010134
-0.0126224
-0.0163121
-0.0202418
-0.0218137
-0.0166563
-0.00021711
0.0278378
0.058489
0.0769544
-0.0125598
-0.0136175
-0.0125914
-0.0118484
-0.0116204
-0.0114737
-0.0112464
-0.011
-0.0109838
-0.0116331
-0.0135154
-0.0171493
-0.0226047
-0.0288371
-0.0329197
-0.0297096
-0.0130869
0.0202218
0.0647299
0.103303
-0.0268872
-0.0240815
-0.0194685
-0.0167571
-0.0153234
-0.0143154
-0.0134449
-0.0127453
-0.0124742
-0.0130825
-0.0151311
-0.0190665
-0.0247817
-0.0309112
-0.0340552
-0.0283619
-0.00662772
0.0367271
0.100537
0.168069
-0.055962
-0.0369783
-0.0240356
-0.0180857
-0.0153303
-0.0136706
-0.0125185
-0.0117914
-0.0116476
-0.0124472
-0.0146302
-0.0184299
-0.0234081
-0.0277185
-0.027337
-0.0153578
0.0173853
0.0804268
0.178858
0.299959
-0.130763
-0.0446973
-0.0137445
-0.00803729
-0.00692804
-0.00635579
-0.00623826
-0.00656892
-0.00738981
-0.00897145
-0.0116641
-0.015545
-0.0199548
-0.02275
-0.0195981
-0.00276415
0.0391447
0.123474
0.267174
0.471654
)
;

boundaryField
{
    movingWall
    {
        type            zeroGradient;
    }
    fixedWalls
    {
        type            zeroGradient;
    }
    frontAndBack
    {
        type            empty;
    }
}


// ************************************************************************* //
