1.275 	2.15223e-18 	-2.76991e-20 	-0.034454 	-0.000434326 	-1.9127e-22
1.825 	2.15223e-18 	-1.39322e-20 	-0.00944726 	-0.00275576 	1.69085e-21
2.375 	2.15223e-18 	-2.66896e-23 	0.115358 	-0.00324389 	-7.05329e-22
