1.45 	0 	0 	-0.00817539 	-0.00256782 	3.78023e-21
2.35 	0 	0 	0.0613227 	-0.00662715 	2.28049e-21
