1.45 	0 	0 	-0.00813397 	-0.0025849 	1.65348e-20
2.35 	0 	0 	0.0621448 	-0.00662502 	9.88777e-21
