/*--------------------------------*- C++ -*----------------------------------*\
  =========                 |
  \\      /  F ield         | OpenFOAM: The Open Source CFD Toolbox
   \\    /   O peration     | Website:  https://openfoam.org
    \\  /    A nd           | Version:  6.0
     \\/     M anipulation  |
\*---------------------------------------------------------------------------*/
FoamFile
{
    version     2.0;
    format      ascii;
    class       volScalarField;
    location    "58";
    object      p;
}
// * * * * * * * * * * * * * * * * * * * * * * * * * * * * * * * * * * * * * //

dimensions      [0 2 -2 0 0 0 0];

internalField   nonuniform List<scalar> 
2000
(
-0.348042
-0.353949
-0.355637
-0.354968
-0.353108
-0.350432
-0.347216
-0.343755
-0.340335
-0.336639
-0.35076
-0.356247
-0.357595
-0.356625
-0.354477
-0.351526
-0.348047
-0.344325
-0.340651
-0.336835
-0.356216
-0.360843
-0.361501
-0.359921
-0.357192
-0.353685
-0.349672
-0.345413
-0.341209
-0.337149
-0.36445
-0.367738
-0.367333
-0.364827
-0.361217
-0.356864
-0.352027
-0.346924
-0.341873
-0.337423
-0.375522
-0.376928
-0.375062
-0.371304
-0.366509
-0.361014
-0.355044
-0.348743
-0.342444
-0.337401
-0.389497
-0.388399
-0.384647
-0.37931
-0.373036
-0.36611
-0.358692
-0.350787
-0.342712
-0.336752
-0.406408
-0.402108
-0.396029
-0.388806
-0.380794
-0.372195
-0.363065
-0.353174
-0.342675
-0.335218
-0.426199
-0.417958
-0.409116
-0.399729
-0.389766
-0.379311
-0.368276
-0.356034
-0.342091
-0.331648
-0.448659
-0.435774
-0.423793
-0.41204
-0.399994
-0.387551
-0.37431
-0.35875
-0.338665
-0.321354
-0.473352
-0.455292
-0.43996
-0.425886
-0.4121
-0.398403
-0.38404
-0.366375
-0.341335
-0.317358
-0.499592
-0.476087
-0.457348
-0.441178
-0.42645
-0.413538
-0.402783
-0.394826
-0.394964
-0.414497
-0.526555
-0.497581
-0.47534
-0.45681
-0.440473
-0.42679
-0.416238
-0.409874
-0.412829
-0.430101
-0.553518
-0.519317
-0.493663
-0.472661
-0.454297
-0.438935
-0.426942
-0.419037
-0.418329
-0.426146
-0.579833
-0.540821
-0.512004
-0.48856
-0.467924
-0.450281
-0.435789
-0.424704
-0.418502
-0.417164
-0.60475
-0.561427
-0.52974
-0.503863
-0.48065
-0.460085
-0.442127
-0.426652
-0.414081
-0.404455
-0.627281
-0.580202
-0.545925
-0.517562
-0.491419
-0.467346
-0.44522
-0.42473
-0.405709
-0.388921
-0.64614
-0.595935
-0.559329
-0.528375
-0.498944
-0.470893
-0.444185
-0.418514
-0.393462
-0.370809
-0.65977
-0.60717
-0.568491
-0.534818
-0.501795
-0.469468
-0.438055
-0.4074
-0.377055
-0.34988
-0.666406
-0.612271
-0.571788
-0.535299
-0.498496
-0.461816
-0.425866
-0.390725
-0.356024
-0.325637
-0.664184
-0.609496
-0.567526
-0.528205
-0.487617
-0.446766
-0.406733
-0.367848
-0.329856
-0.29749
-0.651248
-0.597105
-0.554036
-0.512009
-0.467866
-0.423314
-0.379926
-0.338246
-0.298102
-0.264905
-0.625861
-0.573456
-0.529779
-0.485372
-0.438184
-0.390698
-0.344941
-0.301581
-0.260474
-0.227513
-0.586552
-0.537142
-0.49348
-0.447256
-0.397833
-0.348472
-0.301549
-0.257759
-0.216909
-0.185177
-0.532224
-0.487103
-0.444225
-0.397009
-0.34646
-0.296535
-0.249831
-0.206961
-0.16761
-0.138038
-0.462272
-0.422742
-0.381569
-0.334436
-0.284119
-0.235139
-0.190163
-0.149636
-0.113054
-0.086523
-0.376695
-0.344023
-0.305602
-0.259826
-0.21127
-0.164845
-0.123147
-0.0864032
-0.0538768
-0.0312565
-0.276182
-0.251552
-0.217007
-0.173979
-0.128773
-0.0864946
-0.0495533
-0.0179614
0.00920203
0.0269349
-0.162171
-0.146616
-0.11707
-0.0781841
-0.0378629
-0.00122952
0.0295607
0.0545711
0.0746405
0.0860214
-0.0368734
-0.0311874
-0.0076386
0.0258859
0.0600765
0.089898
0.113337
0.129981
0.139915
0.142286
0.0967566
0.0920908
0.108872
0.136201
0.163722
0.186712
0.203199
0.211567
0.210532
0.203803
0.235143
0.219954
0.229359
0.249867
0.270617
0.28773
0.299935
0.305417
0.30437
0.318288
0.37439
0.348756
0.350211
0.36303
0.37605
0.386024
0.392077
0.393319
0.392242
0.405165
0.510555
0.474825
0.468018
0.47257
0.477223
0.479302
0.478238
0.473617
0.467925
0.473028
0.63979
0.594554
0.579488
0.575587
0.571688
0.565699
0.557363
0.54653
0.535271
0.532429
0.758434
0.704501
0.681528
0.66942
0.657254
0.643506
0.628194
0.611358
0.594688
0.584741
0.863102
0.801502
0.771319
0.751675
0.731967
0.71119
0.689604
0.667391
0.645876
0.62972
0.950777
0.882746
0.846374
0.820239
0.794076
0.767326
0.740447
0.713736
0.688161
0.666803
1.01891
0.945869
0.904599
0.873323
0.842077
0.810651
0.779655
0.749468
0.720747
0.695332
1.06548
0.989016
0.944357
0.909525
0.874776
0.840141
0.806332
0.773782
0.742916
0.714716
1.08912
1.01091
0.964523
0.927873
0.891339
0.855072
0.819837
0.786092
0.75414
0.724521
1.08912
1.01091
0.964523
0.927873
0.891339
0.855072
0.819837
0.786092
0.75414
0.724521
1.06548
0.989016
0.944357
0.909525
0.874776
0.84014
0.806332
0.773782
0.742916
0.714716
1.01891
0.945869
0.904599
0.873323
0.842077
0.810651
0.779655
0.749468
0.720747
0.695332
0.950777
0.882746
0.846374
0.820239
0.794076
0.767326
0.740447
0.713736
0.688161
0.666803
0.863102
0.801501
0.771319
0.751675
0.731967
0.71119
0.689603
0.667391
0.645876
0.62972
0.758434
0.704501
0.681528
0.66942
0.657254
0.643506
0.628194
0.611358
0.594688
0.584741
0.63979
0.594553
0.579488
0.575586
0.571688
0.565699
0.557363
0.54653
0.535271
0.532429
0.510555
0.474825
0.468017
0.472569
0.477223
0.479301
0.478238
0.473617
0.467924
0.473028
0.37439
0.348756
0.350211
0.36303
0.37605
0.386024
0.392077
0.393319
0.392241
0.405165
0.235143
0.219953
0.229359
0.249867
0.270617
0.28773
0.299935
0.305416
0.30437
0.318288
0.0967563
0.0920905
0.108872
0.136201
0.163722
0.186712
0.203199
0.211566
0.210532
0.203803
-0.0368737
-0.0311878
-0.00763893
0.0258856
0.0600762
0.0898977
0.113336
0.129981
0.139915
0.142286
-0.162172
-0.146616
-0.11707
-0.0781845
-0.0378632
-0.00122986
0.0295604
0.0545708
0.0746401
0.0860211
-0.276183
-0.251552
-0.217008
-0.173979
-0.128774
-0.086495
-0.0495537
-0.0179618
0.00920168
0.0269346
-0.376696
-0.344023
-0.305603
-0.259827
-0.211271
-0.164845
-0.123147
-0.0864036
-0.0538772
-0.0312569
-0.462273
-0.422742
-0.381569
-0.334436
-0.284119
-0.235139
-0.190164
-0.149637
-0.113055
-0.0865234
-0.532224
-0.487103
-0.444226
-0.39701
-0.34646
-0.296535
-0.249831
-0.206962
-0.167611
-0.138038
-0.586553
-0.537143
-0.49348
-0.447256
-0.397834
-0.348472
-0.30155
-0.25776
-0.216909
-0.185177
-0.625862
-0.573457
-0.52978
-0.485372
-0.438184
-0.390699
-0.344941
-0.301582
-0.260474
-0.227513
-0.651248
-0.597106
-0.554036
-0.512009
-0.467867
-0.423314
-0.379927
-0.338247
-0.298102
-0.264906
-0.664185
-0.609497
-0.567527
-0.528205
-0.487618
-0.446767
-0.406733
-0.367849
-0.329856
-0.29749
-0.666407
-0.612271
-0.571789
-0.535299
-0.498497
-0.461817
-0.425866
-0.390725
-0.356025
-0.325637
-0.65977
-0.607171
-0.568491
-0.534819
-0.501795
-0.469468
-0.438055
-0.407401
-0.377055
-0.349881
-0.646141
-0.595935
-0.55933
-0.528375
-0.498944
-0.470893
-0.444185
-0.418514
-0.393463
-0.37081
-0.627281
-0.580203
-0.545925
-0.517563
-0.49142
-0.467347
-0.44522
-0.42473
-0.405709
-0.388922
-0.604751
-0.561428
-0.52974
-0.503863
-0.480651
-0.460085
-0.442127
-0.426652
-0.414082
-0.404455
-0.579834
-0.540821
-0.512005
-0.488561
-0.467925
-0.450281
-0.43579
-0.424704
-0.418502
-0.417165
-0.553519
-0.519317
-0.493664
-0.472662
-0.454298
-0.438936
-0.426943
-0.419038
-0.418329
-0.426147
-0.526556
-0.497582
-0.475341
-0.45681
-0.440473
-0.426791
-0.416238
-0.409874
-0.41283
-0.430102
-0.499593
-0.476088
-0.457349
-0.441179
-0.42645
-0.413539
-0.402784
-0.394827
-0.394965
-0.414498
-0.473352
-0.455293
-0.439961
-0.425886
-0.4121
-0.398404
-0.38404
-0.366375
-0.341336
-0.317359
-0.448659
-0.435774
-0.423794
-0.41204
-0.399995
-0.387551
-0.374311
-0.35875
-0.338665
-0.321354
-0.4262
-0.417958
-0.409117
-0.39973
-0.389767
-0.379311
-0.368277
-0.356035
-0.342092
-0.331649
-0.406408
-0.402108
-0.39603
-0.388806
-0.380794
-0.372195
-0.363065
-0.353174
-0.342676
-0.335219
-0.389498
-0.388399
-0.384647
-0.379311
-0.373037
-0.366111
-0.358693
-0.350788
-0.342712
-0.336753
-0.375523
-0.376928
-0.375062
-0.371304
-0.366509
-0.361014
-0.355045
-0.348744
-0.342444
-0.337401
-0.36445
-0.367738
-0.367333
-0.364827
-0.361217
-0.356864
-0.352027
-0.346924
-0.341874
-0.337424
-0.356216
-0.360844
-0.361501
-0.359921
-0.357192
-0.353685
-0.349672
-0.345413
-0.34121
-0.33715
-0.35076
-0.356247
-0.357595
-0.356625
-0.354477
-0.351526
-0.348047
-0.344325
-0.340651
-0.336835
-0.348043
-0.353949
-0.355637
-0.354968
-0.353109
-0.350432
-0.347216
-0.343755
-0.340335
-0.336639
-0.290429
-0.126294
-0.0812223
-0.0303213
-0.0192164
-0.00778272
-0.00434293
-0.00087268
-0.00045568
0.0021719
-0.29166
-0.126842
-0.0814928
-0.0305199
-0.0192843
-0.00784236
-0.00437245
-0.000893337
-0.00046476
0.00215601
-0.294051
-0.127923
-0.0820283
-0.0309183
-0.0194199
-0.00796147
-0.00443149
-0.00093464
-0.000482886
0.00212441
-0.297462
-0.129514
-0.0828175
-0.0315185
-0.0196228
-0.0081396
-0.00451989
-0.000996542
-0.000509899
0.00207747
-0.301647
-0.13157
-0.0838341
-0.0323188
-0.0198912
-0.00837537
-0.00463716
-0.00107885
-0.00054552
0.00201563
-0.306251
-0.134016
-0.0850288
-0.0333053
-0.020219
-0.00866519
-0.00478207
-0.00118102
-0.000589393
0.00193953
-0.311143
-0.136921
-0.086407
-0.0344735
-0.0206071
-0.00900631
-0.00495409
-0.0013021
-0.000641721
0.00185074
-0.316846
-0.140937
-0.0882314
-0.0359239
-0.0210986
-0.00941218
-0.00515926
-0.00144242
-0.000704042
0.00175204
-0.321623
-0.146442
-0.0906803
-0.0378219
-0.0217442
-0.00990986
-0.00540674
-0.00160736
-0.000774769
0.00164088
-0.313818
-0.148817
-0.0917913
-0.0395233
-0.0222465
-0.0104018
-0.0056514
-0.00179823
-0.000834387
0.00149429
-0.247287
-0.140719
-0.0881711
-0.0427782
-0.022745
-0.0117335
-0.00636783
-0.00253789
-0.00100003
0.000841117
-0.189192
-0.131709
-0.082169
-0.0442368
-0.0244782
-0.0141259
-0.00821692
-0.00402171
-0.00176182
-9.56747e-07
-0.147777
-0.113851
-0.0727402
-0.0428063
-0.025904
-0.0163321
-0.0101524
-0.00561365
-0.00269667
-0.000680981
-0.108184
-0.0929492
-0.0633203
-0.0408373
-0.0269537
-0.0181276
-0.0118275
-0.00704907
-0.0035878
-0.00115207
-0.0789467
-0.0756766
-0.0565199
-0.0395822
-0.027778
-0.0194731
-0.0131401
-0.00820335
-0.0043354
-0.00145066
-0.0588552
-0.0628294
-0.0515598
-0.0385827
-0.0281894
-0.0203203
-0.0140671
-0.00905787
-0.00491383
-0.00164428
-0.04583
-0.0535683
-0.047698
-0.0376125
-0.0282775
-0.0208018
-0.014691
-0.00966618
-0.00534249
-0.00178095
-0.0375857
-0.047109
-0.0447359
-0.0367595
-0.0282327
-0.0210716
-0.0150993
-0.0100832
-0.00564525
-0.00187976
-0.0327639
-0.0430082
-0.0427284
-0.0361565
-0.0281765
-0.0212181
-0.0153442
-0.0103426
-0.00583823
-0.00194436
-0.0305335
-0.0410067
-0.0417173
-0.0358595
-0.0281527
-0.0212829
-0.0154574
-0.0104646
-0.0059326
-0.00197463
-0.218585
-0.246482
-0.272262
-0.296205
-0.318699
-0.340249
-0.361473
-0.383017
-0.405383
-0.429226
-0.0679405
-0.0780831
-0.0872478
-0.0956777
-0.10368
-0.111636
-0.120002
-0.129318
-0.140164
-0.154331
-0.0451696
-0.0543514
-0.0631476
-0.0715315
-0.0794656
-0.086905
-0.0938062
-0.100143
-0.105911
-0.111232
-0.0187465
-0.0244665
-0.0299802
-0.0353065
-0.0404673
-0.0454859
-0.0503855
-0.055188
-0.0598936
-0.0643816
-0.0130373
-0.0173933
-0.0216246
-0.0257279
-0.0296993
-0.0335348
-0.0372309
-0.0407847
-0.0441765
-0.0473749
-0.00798305
-0.0112004
-0.0143583
-0.0174559
-0.0204926
-0.0234678
-0.026381
-0.0292309
-0.0320057
-0.034709
-0.00685951
-0.00939643
-0.011897
-0.0143573
-0.0167737
-0.0191431
-0.021463
-0.0237307
-0.0259405
-0.0281055
-0.00605857
-0.00811651
-0.0101579
-0.0121787
-0.0141752
-0.0161439
-0.0180818
-0.0199858
-0.0218526
-0.0236896
-0.005971
-0.00774571
-0.00951249
-0.0112668
-0.0130046
-0.0147217
-0.0164149
-0.0180807
-0.0197172
-0.0213256
-0.00591503
-0.00754102
-0.00916442
-0.0107815
-0.0123886
-0.0139825
-0.0155601
-0.0171185
-0.0186562
-0.0201715
0.168014
0.127027
0.081679
0.0386098
-0.00312863
-0.0440077
-0.083411
-0.120756
-0.155774
-0.188381
0.117545
0.0916296
0.0648378
0.0419989
0.0218788
0.003205
-0.0141054
-0.0298414
-0.0439765
-0.056626
0.0734243
0.0577263
0.0427733
0.0298611
0.0180098
0.00654315
-0.00460981
-0.0153611
-0.0256876
-0.035616
0.0531684
0.0440954
0.0354664
0.0277559
0.0204896
0.013397
0.00648041
-0.000201534
-0.00662751
-0.0128047
0.0376317
0.0316803
0.0259401
0.0206495
0.0155592
0.0105381
0.00559305
0.00075539
-0.00396237
-0.0085598
0.0273701
0.0234812
0.0196359
0.0159981
0.0124556
0.00894023
0.00545348
0.00201207
-0.00137565
-0.00470768
0.0196675
0.0169391
0.0141839
0.0115072
0.0088612
0.00621283
0.00356392
0.000925637
-0.00169415
-0.00429061
0.0144871
0.0124921
0.0104467
0.00841365
0.00637617
0.00432067
0.00224955
0.000170319
-0.00191066
-0.00398847
0.0111565
0.00956159
0.00791764
0.00625391
0.00456561
0.00284962
0.00110982
-0.000647645
-0.00241702
-0.00419314
0.00956042
0.00813979
0.00667583
0.00518277
0.00366
0.00210858
0.000532821
-0.0010621
-0.00267134
-0.00429041
0.335429
0.334729
0.33318
0.330305
0.325321
0.31699
0.303541
0.28258
0.251472
0.206855
0.245531
0.244415
0.241779
0.237195
0.230324
0.220739
0.207868
0.191052
0.169545
0.14279
0.1747
0.173571
0.170905
0.16638
0.15989
0.151326
0.1405
0.127196
0.111008
0.0920212
0.123091
0.122205
0.120103
0.11654
0.111501
0.105009
0.0970596
0.0876613
0.0767365
0.0646202
0.0867569
0.0861124
0.0845735
0.0819604
0.0782804
0.073586
0.0679113
0.0612944
0.0537157
0.0453839
0.0615778
0.0611144
0.0600059
0.0581237
0.0554812
0.0521295
0.0481104
0.0434677
0.0382191
0.0325109
0.0444265
0.044088
0.0432778
0.0419026
0.0399738
0.0375318
0.0346103
0.0312421
0.0274466
0.0233077
0.033141
0.0328842
0.0322697
0.0312266
0.0297643
0.0279143
0.0257032
0.0231563
0.020294
0.0171681
0.0263052
0.0260967
0.025598
0.0247516
0.0235649
0.022063
0.020267
0.0181959
0.0158676
0.0133132
0.0230848
0.0228983
0.0224531
0.021698
0.0206392
0.0192988
0.0176954
0.0158452
0.0137652
0.0114781
0.485403
0.487156
0.493489
0.504635
0.520487
0.541347
0.567681
0.600013
0.63888
0.684528
0.483162
0.484889
0.491142
0.502132
0.517735
0.538217
0.563987
0.595482
0.633101
0.676936
0.478731
0.480413
0.486513
0.497201
0.512317
0.532059
0.556718
0.586559
0.62171
0.661959
0.472212
0.473839
0.479728
0.489984
0.5044
0.523066
0.546104
0.573521
0.605028
0.640006
0.463741
0.465318
0.470959
0.480678
0.49421
0.511506
0.532466
0.556755
0.583522
0.611661
0.453488
0.455037
0.460411
0.469512
0.482003
0.497676
0.516164
0.536709
0.557761
0.577661
0.441649
0.443238
0.448365
0.456804
0.468144
0.48199
0.497668
0.513925
0.528423
0.538874
0.428431
0.430246
0.435261
0.443111
0.453326
0.465294
0.477964
0.489444
0.496508
0.496092
0.413901
0.416193
0.421287
0.428673
0.437868
0.448041
0.457692
0.464102
0.462891
0.448812
0.397699
0.400135
0.404802
0.411059
0.418438
0.425989
0.431937
0.43306
0.424595
0.396892
0.397699
0.400135
0.404802
0.411058
0.418438
0.425989
0.431937
0.43306
0.424594
0.396891
0.413901
0.416193
0.421287
0.428673
0.437868
0.448041
0.457692
0.464102
0.462891
0.448812
0.42843
0.430246
0.435261
0.44311
0.453326
0.465294
0.477964
0.489444
0.496508
0.496092
0.441649
0.443238
0.448365
0.456804
0.468144
0.48199
0.497668
0.513925
0.528423
0.538874
0.453488
0.455037
0.460411
0.469512
0.482003
0.497676
0.516164
0.536709
0.557761
0.577661
0.463741
0.465318
0.470959
0.480678
0.494209
0.511506
0.532465
0.556755
0.583522
0.611661
0.472212
0.473839
0.479728
0.489984
0.5044
0.523066
0.546104
0.573521
0.605028
0.640005
0.478731
0.480413
0.486513
0.497201
0.512317
0.532059
0.556718
0.586559
0.62171
0.661959
0.483162
0.484889
0.491142
0.502132
0.517735
0.538217
0.563987
0.595482
0.633101
0.676936
0.485403
0.487156
0.493489
0.504635
0.520487
0.541347
0.567681
0.600013
0.63888
0.684528
0.0230846
0.0228981
0.0224529
0.0216978
0.020639
0.0192986
0.0176952
0.015845
0.013765
0.0114779
0.026305
0.0260965
0.0255978
0.0247514
0.0235647
0.0220627
0.0202668
0.0181957
0.0158674
0.013313
0.0331408
0.032884
0.0322694
0.0312264
0.0297641
0.027914
0.025703
0.0231561
0.0202938
0.0171678
0.0444263
0.0440878
0.0432776
0.0419023
0.0399736
0.0375316
0.0346101
0.0312419
0.0274463
0.0233075
0.0615776
0.0611142
0.0600056
0.0581235
0.055481
0.0521293
0.0481102
0.0434675
0.0382189
0.0325107
0.0867567
0.0861122
0.0845732
0.0819602
0.0782802
0.0735858
0.0679111
0.0612942
0.0537155
0.0453837
0.12309
0.122205
0.120102
0.11654
0.1115
0.105009
0.0970593
0.0876611
0.0767362
0.06462
0.1747
0.173571
0.170904
0.16638
0.15989
0.151326
0.1405
0.127196
0.111008
0.0920209
0.245531
0.244415
0.241779
0.237194
0.230324
0.220739
0.207867
0.191052
0.169544
0.14279
0.335429
0.334729
0.33318
0.330305
0.325321
0.31699
0.303541
0.282579
0.251472
0.206855
0.00956021
0.00813958
0.00667562
0.00518256
0.0036598
0.00210837
0.000532619
-0.0010623
-0.00267153
-0.00429061
0.0111563
0.00956138
0.00791743
0.0062537
0.0045654
0.00284942
0.00110962
-0.000647847
-0.00241722
-0.00419334
0.0144869
0.0124918
0.0104465
0.00841344
0.00637596
0.00432047
0.00224934
0.000170114
-0.00191086
-0.00398867
0.0196673
0.0169389
0.0141837
0.011507
0.00886099
0.00621262
0.00356371
0.000925426
-0.00169436
-0.00429082
0.0273699
0.023481
0.0196357
0.0159979
0.0124554
0.00894001
0.00545326
0.00201185
-0.00137587
-0.0047079
0.0376314
0.0316801
0.0259399
0.0206492
0.0155589
0.0105379
0.00559282
0.000755162
-0.0039626
-0.00856003
0.0531682
0.0440952
0.0354662
0.0277557
0.0204894
0.0133968
0.00648017
-0.000201776
-0.00662775
-0.0128049
0.0734241
0.0577261
0.042773
0.0298609
0.0180095
0.00654289
-0.00461007
-0.0153614
-0.0256879
-0.0356162
0.117544
0.0916294
0.0648375
0.0419987
0.0218785
0.00320471
-0.0141057
-0.0298417
-0.0439768
-0.0566263
0.168014
0.127027
0.0816786
0.0386095
-0.00312897
-0.044008
-0.0834113
-0.120756
-0.155775
-0.188382
-0.00591522
-0.00754122
-0.00916461
-0.0107817
-0.0123888
-0.0139827
-0.0155603
-0.0171187
-0.0186564
-0.0201716
-0.0059712
-0.0077459
-0.00951268
-0.011267
-0.0130047
-0.0147219
-0.0164151
-0.0180809
-0.0197174
-0.0213258
-0.00605877
-0.0081167
-0.0101581
-0.0121789
-0.0141754
-0.0161441
-0.018082
-0.019986
-0.0218528
-0.0236897
-0.00685972
-0.00939664
-0.0118972
-0.0143575
-0.0167739
-0.0191433
-0.0214631
-0.0237309
-0.0259407
-0.0281057
-0.00798326
-0.0112006
-0.0143585
-0.0174561
-0.0204928
-0.023468
-0.0263812
-0.0292311
-0.0320059
-0.0347092
-0.0130376
-0.0173935
-0.0216248
-0.0257281
-0.0296995
-0.033535
-0.0372311
-0.0407849
-0.0441767
-0.0473751
-0.0187467
-0.0244668
-0.0299805
-0.0353068
-0.0404675
-0.0454861
-0.0503857
-0.0551883
-0.0598938
-0.0643818
-0.0451698
-0.0543517
-0.0631479
-0.0715318
-0.0794658
-0.0869052
-0.0938065
-0.100143
-0.105911
-0.111232
-0.0679408
-0.0780834
-0.0872481
-0.0956781
-0.103681
-0.111636
-0.120002
-0.129319
-0.140165
-0.154332
-0.218586
-0.246483
-0.272262
-0.296206
-0.3187
-0.34025
-0.361474
-0.383018
-0.405384
-0.429226
-0.0305336
-0.0410068
-0.0417175
-0.0358596
-0.0281529
-0.0212833
-0.0154578
-0.010465
-0.00593289
-0.00197475
-0.0327641
-0.0430083
-0.0427285
-0.0361566
-0.0281767
-0.0212184
-0.0153447
-0.010343
-0.00583853
-0.00194448
-0.0375858
-0.0471091
-0.044736
-0.0367596
-0.0282329
-0.0210719
-0.0150998
-0.0100837
-0.00564558
-0.00187988
-0.0458301
-0.0535684
-0.0476981
-0.0376125
-0.0282777
-0.0208022
-0.0146915
-0.0096667
-0.00534286
-0.00178106
-0.0588553
-0.0628295
-0.0515598
-0.0385826
-0.0281895
-0.0203208
-0.0140677
-0.00905851
-0.00491427
-0.00164437
-0.0789468
-0.0756767
-0.0565199
-0.0395821
-0.0277781
-0.0194736
-0.0131408
-0.00820416
-0.00433591
-0.0014507
-0.108184
-0.0929492
-0.0633201
-0.040837
-0.0269538
-0.0181282
-0.0118284
-0.00705014
-0.00358839
-0.00115201
-0.147777
-0.113851
-0.0727398
-0.0428057
-0.025904
-0.0163329
-0.0101535
-0.00561508
-0.00269733
-0.000680761
-0.189193
-0.131709
-0.0821684
-0.0442358
-0.0244781
-0.0141267
-0.00821832
-0.00402359
-0.00176256
-5.3329e-07
-0.247287
-0.140719
-0.0881703
-0.0427769
-0.0227447
-0.0117342
-0.0063694
-0.00254013
-0.00100079
0.000841729
-0.313819
-0.148817
-0.0917905
-0.0395221
-0.0222462
-0.0104024
-0.00565281
-0.00180037
-0.000835
0.00149495
-0.321623
-0.146442
-0.0906796
-0.0378207
-0.0217439
-0.00991043
-0.00540807
-0.00160937
-0.000775322
0.0016415
-0.316846
-0.140937
-0.0882307
-0.0359229
-0.0210984
-0.0094127
-0.00516046
-0.0014442
-0.000704524
0.00175259
-0.311144
-0.136921
-0.0864063
-0.0344725
-0.0206069
-0.00900678
-0.00495515
-0.00130364
-0.000642135
0.00185121
-0.306251
-0.134016
-0.0850282
-0.0333045
-0.0202189
-0.00866559
-0.00478298
-0.00118233
-0.00058974
0.00193993
-0.301648
-0.13157
-0.0838336
-0.0323181
-0.0198911
-0.00837571
-0.00463792
-0.00107992
-0.000545802
0.00201596
-0.297462
-0.129514
-0.0828171
-0.031518
-0.0196227
-0.00813988
-0.00452049
-0.000997371
-0.000510118
0.00207773
-0.294051
-0.127923
-0.082028
-0.0309179
-0.0194198
-0.00796167
-0.00443191
-0.000935213
-0.000483043
0.00212459
-0.29166
-0.126842
-0.0814927
-0.0305197
-0.0192842
-0.00784248
-0.0043727
-0.000893645
-0.000464857
0.0021561
-0.290429
-0.126294
-0.0812223
-0.0303212
-0.0192164
-0.00778275
-0.00434301
-0.000872768
-0.000455715
0.00217192
)
;

boundaryField
{
    inlet
    {
        type            zeroGradient;
    }
    outlet
    {
        type            fixedValue;
        value           uniform 0;
    }
    cylinder
    {
        type            zeroGradient;
    }
    top
    {
        type            symmetryPlane;
    }
    bottom
    {
        type            symmetryPlane;
    }
    defaultFaces
    {
        type            empty;
    }
}


// ************************************************************************* //
