/*--------------------------------*- C++ -*----------------------------------*\
  =========                 |
  \\      /  F ield         | OpenFOAM: The Open Source CFD Toolbox
   \\    /   O peration     | Website:  https://openfoam.org
    \\  /    A nd           | Version:  6.0
     \\/     M anipulation  |
\*---------------------------------------------------------------------------*/
FoamFile
{
    version     2.0;
    format      ascii;
    class       volVectorField;
    location    "58";
    object      U;
}
// * * * * * * * * * * * * * * * * * * * * * * * * * * * * * * * * * * * * * //

dimensions      [0 1 -1 0 0 0 0];

internalField   nonuniform List<vector> 
2000
(
(-0.00199122 0.0017383 5.72897e-20)
(-0.00762155 0.00330244 6.80426e-20)
(-0.0153301 0.00366169 -6.48678e-20)
(-0.0223323 0.00333735 -1.32364e-19)
(-0.0276804 0.00263972 -9.24634e-20)
(-0.0312213 0.00177189 1.23181e-19)
(-0.0330527 0.000879268 7.17492e-20)
(-0.0334436 6.85524e-05 -2.90248e-20)
(-0.0328262 -0.000581134 -7.24567e-20)
(-0.0314952 -0.00100591 5.28306e-20)
(-0.00248969 0.00512125 -1.42006e-19)
(-0.00837065 0.00968533 1.96036e-19)
(-0.0157251 0.0106973 1.95484e-20)
(-0.022025 0.0096971 -1.13551e-19)
(-0.0264593 0.00759787 5.43355e-19)
(-0.0289517 0.0049964 -2.39137e-19)
(-0.0296475 0.00232102 -2.58715e-19)
(-0.0288424 -0.00010997 3.12043e-19)
(-0.0269847 -0.00205486 -3.07748e-19)
(-0.0244468 -0.00332118 1.55254e-19)
(-0.00343574 0.00822481 2.35846e-20)
(-0.00972805 0.0154094 8.38819e-21)
(-0.0163014 0.0168859 5.87514e-19)
(-0.0211436 0.0151399 2.06095e-19)
(-0.0237175 0.011633 4.08752e-20)
(-0.0240981 0.00731658 3.3802e-19)
(-0.0225237 0.00287664 -6.42024e-19)
(-0.0193385 -0.00116406 1.39244e-20)
(-0.0150202 -0.00438875 -3.79648e-19)
(-0.0101031 -0.00647384 4.18227e-19)
(-0.00472402 0.0108679 -4.4365e-20)
(-0.0114033 0.0200601 2.55239e-19)
(-0.0166177 0.0217187 -7.43651e-19)
(-0.0191361 0.0191489 -9.61238e-20)
(-0.018832 0.0142672 -5.47352e-19)
(-0.0160035 0.00831136 5.66872e-19)
(-0.0110228 0.00217604 -6.01274e-19)
(-0.00429656 -0.00342966 4.22266e-19)
(0.00366269 -0.00789601 1.77522e-19)
(0.012063 -0.0107639 -2.00596e-19)
(-0.00618704 0.0128747 -4.93785e-19)
(-0.0129399 0.0232571 4.4559e-21)
(-0.0159822 0.0247662 9.1607e-19)
(-0.0151343 0.0213425 2.74634e-19)
(-0.0108146 0.0152249 -8.73239e-19)
(-0.00361589 0.00783525 5.42999e-19)
(0.00591808 0.000196291 6.15479e-19)
(0.0173136 -0.0068385 -5.48747e-19)
(0.0300352 -0.0124518 3.91252e-19)
(0.042923 -0.016046 9.60768e-20)
(-0.00758374 0.0140742 6.74971e-20)
(-0.0136957 0.0246647 1.25187e-20)
(-0.0134291 0.0257004 -1.17119e-18)
(-0.00792071 0.0215113 -6.55218e-19)
(0.00173555 0.014492 7.8162e-19)
(0.0145785 0.00611545 -9.1531e-19)
(0.0298492 -0.0025896 1.04885e-18)
(0.0470084 -0.010714 -9.0598e-20)
(0.065539 -0.0172482 -2.95075e-19)
(0.0837985 -0.0214695 -8.57616e-19)
(-0.0085878 0.014304 -1.46871e-19)
(-0.0128317 0.0240055 -2.68247e-19)
(-0.00771333 0.0243086 -3.29555e-19)
(0.00407928 0.0196268 7.03031e-19)
(0.0206595 0.0123268 1.30412e-18)
(0.0406175 0.00378473 -2.69543e-19)
(0.0629138 -0.005132 -6.5602e-19)
(0.0869287 -0.0136318 2.00087e-19)
(0.112249 -0.020614 -1.26006e-18)
(0.136672 -0.025282 1.38407e-18)
(-0.00878373 0.0134241 8.9827e-19)
(-0.00932803 0.0210859 -4.90319e-19)
(0.00264608 0.0205022 9.57249e-19)
(0.0227355 0.0158174 -1.56395e-18)
(0.0481732 0.00920561 -7.4728e-19)
(0.0770138 0.0018263 -1.03508e-18)
(0.107829 -0.0057939 3.00719e-19)
(0.139842 -0.0132482 -8.37261e-19)
(0.172876 -0.0195725 1.82327e-18)
(0.204272 -0.024079 5.1039e-19)
(-0.00768223 0.0113475 6.61293e-20)
(-0.00204466 0.015839 7.98689e-19)
(0.0192553 0.0143225 1.58718e-18)
(0.0500645 0.0103001 4.85007e-19)
(0.0867017 0.00565932 1.43555e-18)
(0.126594 0.00136012 7.86849e-20)
(0.167732 -0.00240706 -7.09211e-22)
(0.208919 -0.00569219 5.78752e-19)
(0.250232 -0.00783838 4.68105e-19)
(0.289113 -0.00926197 -1.51927e-18)
(-0.00477046 0.00808577 -5.32099e-19)
(0.0101469 0.00838451 -8.91188e-19)
(0.0436435 0.00593786 -1.29538e-18)
(0.0879959 0.00320911 3.0611e-20)
(0.138749 0.00175691 -6.60369e-19)
(0.192804 0.00254295 1.04082e-18)
(0.247586 0.00588951 -2.86548e-18)
(0.301159 0.0120154 1.28647e-18)
(0.352881 0.0215154 4.83549e-19)
(0.400028 0.0302482 1.51713e-18)
(0.000388681 0.00380852 2.66173e-19)
(0.0281179 -0.000874421 -1.01894e-18)
(0.0768093 -0.00427284 9.09816e-19)
(0.137563 -0.0054614 -3.52977e-19)
(0.205553 -0.00344238 3.83943e-19)
(0.277819 0.0027079 8.35868e-19)
(0.352527 0.0137259 -1.12225e-18)
(0.429273 0.0305533 1.45809e-19)
(0.509035 0.0524535 -5.37766e-19)
(0.594169 0.0694539 1.0911e-18)
(0.00806019 -0.00110794 3.81364e-19)
(0.0522601 -0.0110931 -9.23804e-19)
(0.118756 -0.0153294 1.25868e-18)
(0.197748 -0.0150187 -7.83865e-19)
(0.284048 -0.0102793 -2.87556e-19)
(0.374602 -0.000971786 1.70247e-19)
(0.467604 0.0128154 8.80211e-20)
(0.562487 0.0307703 1.19394e-18)
(0.658901 0.0501773 3.4371e-19)
(0.754557 0.0623404 1.46941e-18)
(0.018352 -0.00610193 -3.40399e-19)
(0.0826125 -0.0209185 1.19443e-18)
(0.169007 -0.0252636 -9.96638e-19)
(0.267054 -0.022831 -1.16885e-18)
(0.371087 -0.0151006 1.63535e-18)
(0.477614 -0.0028656 -1.24343e-18)
(0.584238 0.0129433 3.28446e-19)
(0.689404 0.0312141 -1.94708e-18)
(0.791332 0.0492643 1.4585e-18)
(0.886039 0.0617496 7.28722e-20)
(0.0312702 -0.0105458 -4.43622e-19)
(0.118976 -0.0287937 -4.28431e-19)
(0.226869 -0.0317842 -9.1231e-19)
(0.344062 -0.0258912 1.10583e-18)
(0.464446 -0.0140392 -5.58542e-20)
(0.584059 0.00207635 7.14919e-19)
(0.699967 0.0208543 1.30421e-18)
(0.809928 0.0407968 -4.00789e-19)
(0.911575 0.0598094 -1.4176e-18)
(1.0009 0.0748785 2.81449e-18)
(0.0467452 -0.0138316 -2.29305e-19)
(0.16091 -0.0332167 -2.73515e-19)
(0.291339 -0.03278 4.92212e-19)
(0.427113 -0.0216645 -9.1489e-19)
(0.561883 -0.00426152 1.56304e-19)
(0.691439 0.0168805 1.39095e-19)
(0.812662 0.039613 6.1e-20)
(0.923199 0.0622304 -9.85865e-21)
(1.02086 0.0832295 -1.49426e-19)
(1.10226 0.100992 -2.37938e-18)
(0.0646184 -0.0153976 9.30815e-19)
(0.207682 -0.0328631 -6.49605e-19)
(0.360982 -0.0265371 8.30768e-21)
(0.514052 -0.00833832 -9.89342e-19)
(0.660652 0.0159069 -3.53958e-19)
(0.7967 0.0428758 3.30956e-19)
(0.919359 0.0699943 2.57015e-19)
(1.02673 0.0954718 -9.15863e-19)
(1.11735 0.118343 7.48588e-19)
(1.18885 0.137793 -9.81504e-19)
(0.0846109 -0.0147325 4.01744e-19)
(0.258228 -0.0266431 -3.57044e-19)
(0.433899 -0.0118354 1.48301e-18)
(0.602223 0.015101 1.51203e-19)
(0.757549 0.0470193 3.47494e-19)
(0.89641 0.0799696 1.54879e-18)
(1.01678 0.111131 -2.36812e-19)
(1.11772 0.138798 2.1577e-19)
(1.19888 0.162564 8.93471e-20)
(1.25919 0.182097 -1.09969e-19)
(0.106293 -0.0113861 2.80676e-19)
(0.31114 -0.0137427 6.7481e-19)
(0.507779 0.0120121 -7.22883e-19)
(0.688607 0.0488896 -2.44722e-19)
(0.849157 0.0886661 -3.02307e-19)
(0.987142 0.127018 4.68411e-19)
(1.10185 0.161148 -2.43644e-19)
(1.19374 0.189675 6.55496e-19)
(1.26384 0.212847 2.20581e-19)
(1.31249 0.230667 -3.59616e-19)
(0.129071 -0.00499455 -3.02463e-19)
(0.364701 0.00632851 2.68841e-19)
(0.580014 0.0451371 -5.73656e-19)
(0.770037 0.092543 2.47447e-19)
(0.932157 0.139656 -2.56758e-19)
(1.06583 0.182158 -3.20444e-19)
(1.17213 0.217628 -2.57328e-19)
(1.25319 0.245301 2.8758e-19)
(1.3115 0.266204 -5.422e-19)
(1.34885 0.280637 3.27669e-19)
(0.152191 0.00468204 -1.07814e-19)
(0.416945 0.0336823 -2.10896e-19)
(0.647852 0.0871018 1.00428e-19)
(0.843431 0.144924 6.1918e-21)
(1.0036 0.198186 8.3329e-20)
(1.13007 0.243068 1.1432e-19)
(1.22601 0.277938 1.05949e-19)
(1.29535 0.302935 -1.40493e-19)
(1.34201 0.31998 1.19606e-19)
(1.36911 0.329676 -1.87177e-19)
(0.174775 0.017719 -6.2409e-20)
(0.465772 0.0680015 -2.34115e-20)
(0.708577 0.1369 9.31611e-20)
(0.906006 0.204326 -4.28881e-20)
(1.0611 0.262007 1.14309e-19)
(1.17821 0.307192 -1.47593e-19)
(1.26274 0.339451 3.42079e-20)
(1.32037 0.360077 3.67045e-20)
(1.35627 0.371952 -1.53844e-20)
(1.37464 0.375987 5.82064e-20)
(0.195856 0.0339917 -6.73276e-20)
(0.509069 0.10851 -3.04676e-19)
(0.759689 0.192986 -2.11022e-20)
(0.955467 0.268575 6.27142e-21)
(1.10299 0.328579 -3.96269e-19)
(1.20943 0.371907 5.23873e-20)
(1.28239 0.399693 -4.46e-20)
(1.3291 0.414557 -1.07575e-19)
(1.35567 0.42033 2.24275e-19)
(1.36714 0.418232 -4.0892e-19)
(0.214444 0.0531504 -3.25169e-20)
(0.54485 0.15397 6.17056e-19)
(0.799063 0.253335 9.94242e-20)
(0.990133 0.335148 -5.43236e-19)
(1.12837 0.395217 -4.40512e-20)
(1.22372 0.434653 -5.20568e-19)
(1.28574 0.456425 3.81586e-19)
(1.32289 0.464539 -1.38445e-19)
(1.34191 0.463703 2.45594e-19)
(1.34841 0.45542 -1.79439e-19)
(0.229586 0.0746121 -2.05051e-19)
(0.571392 0.202718 1.95837e-19)
(0.825092 0.315541 -1.41352e-19)
(1.00902 0.401307 1.06544e-18)
(1.13708 0.459223 5.25825e-19)
(1.22172 0.493027 -1.21913e-19)
(1.27409 0.507671 4.10713e-19)
(1.30345 0.508499 -2.70251e-19)
(1.31688 0.500956 -7.52865e-20)
(1.32028 0.486799 4.93966e-19)
(0.240435 0.0975683 -3.54915e-19)
(0.587355 0.252731 4.51647e-19)
(0.836772 0.376931 -8.88608e-19)
(1.01185 0.464233 1.24791e-19)
(1.12966 0.51799 2.78861e-19)
(1.20468 0.544843 -4.27648e-19)
(1.24914 0.551725 -4.97907e-19)
(1.27272 0.545172 2.18553e-19)
(1.28252 0.531184 -2.63162e-19)
(1.28453 0.511755 3.15938e-19)
(0.246311 0.121012 -8.96744e-20)
(0.591872 0.301725 -4.59565e-19)
(0.833754 0.434707 2.54251e-19)
(0.999029 0.521159 4.26361e-19)
(1.10725 0.569097 -2.564e-19)
(1.17428 0.588156 -1.91024e-19)
(1.21287 0.587119 -1.04299e-19)
(1.23273 0.573484 -5.15616e-20)
(1.24077 0.553598 1.07858e-20)
(1.24291 0.52972 1.07508e-19)
(0.246759 0.143785 6.58181e-20)
(0.584617 0.347278 -3.85617e-19)
(0.816339 0.486098 6.43163e-19)
(0.971581 0.569494 -3.81066e-19)
(1.07145 0.610386 1.06475e-19)
(1.13247 0.621291 -1.51051e-19)
(1.16741 0.612602 1.62613e-19)
(1.18559 0.592496 3.11455e-20)
(1.19356 0.567431 -7.80185e-20)
(1.19711 0.540022 1.51531e-19)
(0.241593 0.164635 -1.73025e-19)
(0.565832 0.386974 3.38032e-19)
(0.785448 0.528508 -1.52033e-20)
(0.931025 0.60695 -7.3222e-20)
(1.02419 0.640034 -2.01308e-19)
(1.08145 0.642882 2.48048e-20)
(1.11501 0.627183 6.15367e-20)
(1.1335 0.601458 -1.51525e-19)
(1.14302 0.571983 1.76973e-19)
(1.1492 0.541879 1.5033e-19)
(0.230935 0.18231 3.8426e-20)
(0.536325 0.418562 -8.0927e-20)
(0.742531 0.559669 2.42481e-20)
(0.879239 0.631621 1.24401e-20)
(0.967553 0.656554 7.79796e-20)
(1.02334 0.651785 -1.4407e-19)
(1.05788 0.629967 -3.01355e-19)
(1.07891 0.599657 -1.22932e-19)
(1.09213 0.566623 -1.57126e-19)
(1.10255 0.534701 1.3313e-19)
(0.21523 0.195653 1.10789e-19)
(0.49743 0.44013 -1.71725e-19)
(0.689467 0.577805 1.6575e-19)
(0.818263 0.64211 -3.14837e-19)
(0.903421 0.658818 7.63861e-20)
(0.959695 0.646834 5.16206e-19)
(0.997277 0.619363 -1.58295e-19)
(1.02316 0.584703 1.88173e-19)
(1.04271 0.548005 2.75481e-19)
(1.05903 0.515028 1.002e-18)
(0.195249 0.203726 6.80465e-19)
(0.450967 0.450295 -4.63022e-19)
(0.628513 0.581864 1.12683e-18)
(0.750268 0.637905 -1.92984e-19)
(0.833389 0.646759 9.66777e-19)
(0.891057 0.628052 6.06548e-19)
(0.93231 0.594737 -1.42499e-18)
(0.96357 0.55388 2.16352e-18)
(0.989456 0.507899 -4.57215e-19)
(1.00632 0.461007 8.9968e-19)
(0.17205 0.205874 -3.75361e-19)
(0.399204 0.448254 -2.67607e-19)
(0.562391 0.571529 2.58804e-19)
(0.677928 0.619481 -6.41014e-19)
(0.759661 0.622009 -2.00217e-18)
(0.818699 0.598991 -8.05201e-19)
(0.862692 0.563188 -7.25751e-19)
(0.897113 0.521741 3.51223e-19)
(0.925116 0.478159 2.92727e-18)
(0.942605 0.437392 -6.08909e-19)
(0.146894 0.201721 1.97538e-19)
(0.344727 0.433649 -7.99431e-19)
(0.494241 0.546774 1.75834e-19)
(0.604666 0.587133 -1.28048e-18)
(0.686058 0.585016 2.80349e-18)
(0.747292 0.559929 -3.24925e-19)
(0.794583 0.52408 1.52765e-18)
(0.832423 0.484257 -2.18835e-18)
(0.863341 0.443962 6.86539e-19)
(0.884648 0.407477 1.06207e-19)
(0.121118 0.191156 1.4562e-19)
(0.290163 0.40655 8.81729e-19)
(0.427119 0.507894 -2.58996e-18)
(0.533587 0.541229 1.26029e-18)
(0.615632 0.535982 -4.1609e-21)
(0.679887 0.510616 -4.25288e-19)
(0.731204 0.476429 5.35228e-19)
(0.773235 0.439624 -5.31934e-19)
(0.808165 0.403351 -1.82851e-18)
(0.834247 0.370865 -5.01007e-19)
(0.0960486 0.174334 4.7648e-19)
(0.238033 0.367474 5.34623e-19)
(0.363854 0.455615 2.20822e-18)
(0.467419 0.482513 -1.22844e-18)
(0.550831 0.4755 2.53214e-18)
(0.618565 0.451352 -5.45426e-19)
(0.674213 0.420139 -5.76535e-19)
(0.720699 0.387299 6.81307e-19)
(0.759931 0.355514 4.4421e-19)
(0.790869 0.327125 1.6106e-18)
(0.0729448 0.15167 -4.8356e-19)
(0.190664 0.317377 1.57842e-19)
(0.306988 0.391111 4.26869e-20)
(0.408535 0.412151 1.25235e-18)
(0.493702 0.404588 -3.12607e-18)
(0.56499 0.382953 5.31053e-19)
(0.624864 0.35582 1.17263e-18)
(0.675617 0.327751 -1.41765e-18)
(0.718933 0.300911 4.9943e-19)
(0.754394 0.276898 -2.31789e-18)
(0.0529468 0.123826 1.0305e-19)
(0.150114 0.257626 5.55921e-19)
(0.258722 0.315974 2.16216e-19)
(0.358945 0.331692 2.93022e-19)
(0.445941 0.324635 5.61474e-19)
(0.520504 0.306609 1.67169e-18)
(0.584154 0.284488 -2.04677e-18)
(0.638655 0.261882 -1.1528e-18)
(0.685522 0.240441 1.9104e-19)
(0.724903 0.221195 1.50298e-18)
(0.0370318 0.0916908 -6.23151e-19)
(0.118111 0.189953 -7.41314e-20)
(0.220874 0.23216 -6.2098e-19)
(0.320288 0.243022 8.84369e-20)
(0.408909 0.237333 -5.31594e-19)
(0.486184 0.2238 -6.0691e-19)
(0.55289 0.207442 -9.0445e-19)
(0.610384 0.190868 2.43725e-18)
(0.660066 0.175233 4.20486e-19)
(0.702561 0.161149 -6.40957e-19)
(0.0259729 0.0563424 3.35846e-19)
(0.0960029 0.116392 4.43912e-19)
(0.194847 0.141927 1.74894e-19)
(0.293812 0.148292 -9.43903e-19)
(0.38364 0.144613 -4.39429e-19)
(0.462844 0.136226 -9.4624e-20)
(0.531693 0.126185 1.84898e-19)
(0.591264 0.116066 1.48465e-19)
(0.642892 0.106552 -1.14804e-18)
(0.687548 0.0979586 6.58767e-19)
(0.0203063 0.0190052 -1.74895e-19)
(0.084714 0.0392056 -1.98972e-19)
(0.181592 0.047752 1.58584e-19)
(0.280362 0.0498477 1.40795e-19)
(0.370831 0.0485767 1.44295e-19)
(0.451036 0.045736 2.20675e-19)
(0.520987 0.0423508 -1.16023e-20)
(0.581621 0.0389483 -2.89467e-19)
(0.634242 0.0357542 2.74962e-19)
(0.680003 0.0328652 -4.13692e-19)
(0.0203063 -0.0190052 -1.76045e-19)
(0.084714 -0.0392056 -1.89616e-19)
(0.181592 -0.0477521 1.74745e-19)
(0.280362 -0.0498477 3.42134e-19)
(0.370831 -0.0485768 2.27968e-19)
(0.451036 -0.0457361 -3.00378e-19)
(0.520987 -0.0423508 -1.63223e-19)
(0.581621 -0.0389484 7.11806e-20)
(0.634242 -0.0357543 1.60033e-19)
(0.680003 -0.0328653 -9.52972e-20)
(0.0259729 -0.0563424 4.20122e-19)
(0.0960029 -0.116392 -5.3393e-19)
(0.194847 -0.141927 -4.44096e-20)
(0.293812 -0.148292 2.95834e-19)
(0.38364 -0.144614 -1.33752e-18)
(0.462844 -0.136226 5.71508e-19)
(0.531693 -0.126185 5.89959e-19)
(0.591264 -0.116066 -6.96474e-19)
(0.642892 -0.106552 6.65299e-19)
(0.687548 -0.0979587 -2.92006e-19)
(0.0370318 -0.0916908 -7.26359e-20)
(0.118111 -0.189953 -9.26705e-21)
(0.220874 -0.23216 -1.44218e-18)
(0.320288 -0.243022 -4.58787e-19)
(0.408909 -0.237333 -4.83721e-20)
(0.486184 -0.2238 -7.54747e-19)
(0.55289 -0.207442 1.40629e-18)
(0.610384 -0.190868 -4.94209e-20)
(0.660066 -0.175233 8.03023e-19)
(0.702561 -0.161149 -7.06084e-19)
(0.0529468 -0.123826 1.22673e-19)
(0.150114 -0.257626 -5.67947e-19)
(0.258722 -0.315974 1.74758e-18)
(0.358945 -0.331692 2.47299e-19)
(0.445941 -0.324635 1.21578e-18)
(0.520504 -0.306609 -1.18859e-18)
(0.584154 -0.284488 1.24778e-18)
(0.638655 -0.261882 -8.99614e-19)
(0.685522 -0.240441 -3.95066e-19)
(0.724903 -0.221195 3.35615e-19)
(0.0729448 -0.15167 1.09541e-18)
(0.190664 -0.317377 2.80495e-21)
(0.306988 -0.391111 -1.84178e-18)
(0.408535 -0.412151 -5.34359e-19)
(0.493702 -0.404589 1.77429e-18)
(0.56499 -0.382954 -1.03984e-18)
(0.624864 -0.355821 -1.2038e-18)
(0.675617 -0.327751 1.08311e-18)
(0.718933 -0.300911 -7.37382e-19)
(0.754394 -0.276898 -1.58974e-19)
(0.0960486 -0.174334 -1.63517e-19)
(0.238033 -0.367474 -7.7559e-21)
(0.363854 -0.455615 1.99878e-18)
(0.467419 -0.482513 1.14608e-18)
(0.550831 -0.4755 -1.3515e-18)
(0.618565 -0.451352 1.63638e-18)
(0.674213 -0.420139 -1.77566e-18)
(0.720699 -0.387299 1.76701e-19)
(0.759931 -0.355515 5.2888e-19)
(0.790869 -0.327125 1.22377e-18)
(0.121118 -0.191156 1.87439e-19)
(0.290163 -0.40655 3.01847e-19)
(0.427119 -0.507894 3.2834e-19)
(0.533587 -0.541229 -1.05558e-18)
(0.615632 -0.535982 -1.8803e-18)
(0.679887 -0.510616 3.95966e-19)
(0.731204 -0.47643 1.14585e-18)
(0.773236 -0.439624 -3.27996e-19)
(0.808165 -0.403351 1.9747e-18)
(0.834247 -0.370865 -1.92479e-18)
(0.146894 -0.201721 -1.06107e-18)
(0.344727 -0.433649 4.07728e-19)
(0.494241 -0.546774 -1.10093e-18)
(0.604666 -0.587133 1.77982e-18)
(0.686058 -0.585016 8.89983e-19)
(0.747292 -0.559929 1.25656e-18)
(0.794583 -0.52408 -2.90795e-19)
(0.832423 -0.484257 1.14574e-18)
(0.863341 -0.443962 -2.42575e-18)
(0.884648 -0.407477 -6.32411e-19)
(0.17205 -0.205874 6.24627e-20)
(0.399204 -0.448254 -7.12842e-19)
(0.562391 -0.571529 -1.14141e-18)
(0.677928 -0.619481 -4.83606e-19)
(0.759661 -0.622009 -1.36659e-18)
(0.818699 -0.598991 -1.38992e-19)
(0.862692 -0.563188 1.18832e-19)
(0.897113 -0.521741 -5.3402e-19)
(0.925116 -0.478159 -5.968e-19)
(0.942605 -0.437392 1.57391e-18)
(0.195249 -0.203726 3.35419e-19)
(0.450967 -0.450295 4.68417e-19)
(0.628513 -0.581864 8.39156e-19)
(0.750268 -0.637905 3.72162e-20)
(0.833389 -0.646759 5.59893e-19)
(0.891057 -0.628052 -7.66692e-19)
(0.93231 -0.594737 2.34079e-18)
(0.96357 -0.553881 -1.0335e-18)
(0.989456 -0.507899 -5.07572e-19)
(1.00632 -0.461007 -1.53054e-18)
(0.21523 -0.195653 -1.32115e-19)
(0.49743 -0.44013 2.33404e-19)
(0.689467 -0.577805 -2.39181e-19)
(0.818263 -0.64211 1.28947e-19)
(0.903421 -0.658818 -1.52379e-19)
(0.959695 -0.646834 -3.90805e-19)
(0.997277 -0.619363 5.14083e-19)
(1.02316 -0.584703 -1.68155e-19)
(1.04271 -0.548005 2.60873e-19)
(1.05903 -0.515028 -5.6926e-19)
(0.230935 -0.18231 -7.39266e-21)
(0.536325 -0.418562 -1.0646e-19)
(0.742531 -0.559669 2.117e-20)
(0.879239 -0.631621 1.44575e-19)
(0.967553 -0.656554 -6.53309e-20)
(1.02334 -0.651785 1.75394e-20)
(1.05788 -0.629967 -1.71897e-20)
(1.07891 -0.599657 -3.83369e-19)
(1.09213 -0.566623 -1.77961e-19)
(1.10255 -0.534701 -5.59993e-19)
(0.241593 -0.164635 -9.61282e-20)
(0.565832 -0.386974 3.39233e-19)
(0.785448 -0.528508 -2.10753e-19)
(0.931025 -0.60695 -7.5952e-20)
(1.02419 -0.640034 3.39095e-20)
(1.08145 -0.642882 7.15242e-20)
(1.11501 -0.627183 -7.02365e-21)
(1.1335 -0.601458 2.92466e-19)
(1.14302 -0.571983 -2.52727e-19)
(1.1492 -0.541879 -3.58077e-21)
(0.246759 -0.143785 -2.36704e-19)
(0.584617 -0.347278 -1.48237e-19)
(0.816339 -0.486098 -3.68095e-19)
(0.971581 -0.569494 4.1872e-19)
(1.07145 -0.610386 -3.07021e-20)
(1.13247 -0.621291 1.361e-19)
(1.16741 -0.612602 1.53588e-19)
(1.18559 -0.592496 -5.58714e-20)
(1.19356 -0.567431 5.05024e-20)
(1.19711 -0.540022 -1.59897e-19)
(0.246311 -0.121013 -1.61017e-19)
(0.591872 -0.301725 -2.06832e-19)
(0.833754 -0.434707 3.11655e-19)
(0.999029 -0.521159 -4.68254e-19)
(1.10725 -0.569097 8.22572e-20)
(1.17428 -0.588156 4.15733e-20)
(1.21287 -0.587119 9.19866e-20)
(1.23273 -0.573484 -6.04728e-20)
(1.24077 -0.553598 -7.24204e-20)
(1.24291 -0.52972 -2.35867e-19)
(0.240435 -0.0975684 6.71296e-19)
(0.587355 -0.252731 -5.25369e-19)
(0.836772 -0.376931 2.45462e-20)
(1.01185 -0.464233 -6.73195e-19)
(1.12966 -0.51799 -1.95426e-19)
(1.20468 -0.544843 1.56343e-19)
(1.24914 -0.551725 1.14543e-19)
(1.27272 -0.545172 -3.82061e-19)
(1.28252 -0.531184 1.67683e-19)
(1.28453 -0.511755 -3.02426e-19)
(0.229586 -0.0746121 3.33147e-19)
(0.571392 -0.202718 -3.29718e-19)
(0.825092 -0.315541 1.18316e-18)
(1.00902 -0.401307 9.43459e-20)
(1.13708 -0.459223 2.68322e-19)
(1.22172 -0.493027 9.57149e-19)
(1.27409 -0.507671 -1.98961e-19)
(1.30345 -0.508499 4.83139e-20)
(1.31688 -0.500956 -2.84389e-20)
(1.32028 -0.486799 -4.95284e-20)
(0.214444 -0.0531504 2.56805e-19)
(0.54485 -0.15397 5.83527e-19)
(0.799063 -0.253335 -5.94775e-19)
(0.990133 -0.335148 -1.80661e-19)
(1.12837 -0.395217 -1.91267e-19)
(1.22372 -0.434653 3.76543e-19)
(1.28574 -0.456425 -1.77682e-19)
(1.32289 -0.464538 4.18932e-19)
(1.34191 -0.463703 1.00804e-19)
(1.34841 -0.45542 -1.77284e-19)
(0.195856 -0.0339917 -2.77402e-19)
(0.509069 -0.10851 2.57423e-19)
(0.759689 -0.192986 -5.28491e-19)
(0.955467 -0.268575 2.21265e-19)
(1.10299 -0.328579 -2.21762e-19)
(1.20943 -0.371907 -2.63696e-19)
(1.28239 -0.399693 -2.04602e-19)
(1.3291 -0.414557 2.25738e-19)
(1.35567 -0.42033 -3.92357e-19)
(1.36714 -0.418232 2.48386e-19)
(0.174775 -0.017719 -1.03925e-19)
(0.465772 -0.0680015 -2.03935e-19)
(0.708578 -0.1369 9.59354e-20)
(0.906006 -0.204326 7.08307e-21)
(1.0611 -0.262007 7.6353e-20)
(1.17821 -0.307192 1.09396e-19)
(1.26274 -0.33945 9.3149e-20)
(1.32037 -0.360077 -1.2603e-19)
(1.35627 -0.371952 1.02736e-19)
(1.37464 -0.375986 -1.62285e-19)
(0.152191 -0.00468204 -6.54858e-20)
(0.416945 -0.0336823 -2.63952e-20)
(0.647852 -0.0871017 9.83493e-20)
(0.843431 -0.144924 -4.43696e-20)
(1.0036 -0.198186 1.2417e-19)
(1.13007 -0.243068 -1.56951e-19)
(1.22601 -0.277938 4.03216e-20)
(1.29535 -0.302934 3.46032e-20)
(1.34201 -0.31998 -1.23615e-20)
(1.36911 -0.329676 5.67347e-20)
(0.129071 0.00499455 -7.85609e-20)
(0.364701 -0.0063285 -3.33061e-19)
(0.580014 -0.0451371 -2.68242e-20)
(0.770037 -0.092543 1.07068e-20)
(0.932158 -0.139656 -4.61989e-19)
(1.06583 -0.182158 4.87856e-20)
(1.17213 -0.217628 -5.16875e-20)
(1.25319 -0.245301 -1.40585e-19)
(1.3115 -0.266204 3.11069e-19)
(1.34885 -0.280637 -5.65931e-19)
(0.106293 0.0113861 -4.45384e-20)
(0.31114 0.0137428 7.14364e-19)
(0.507779 -0.0120121 9.52791e-20)
(0.688607 -0.0488895 -6.4531e-19)
(0.849158 -0.0886661 -7.72719e-20)
(0.987142 -0.127018 -7.27703e-19)
(1.10185 -0.161148 5.65836e-19)
(1.19374 -0.189675 -2.29657e-19)
(1.26384 -0.212846 4.35299e-19)
(1.31249 -0.230667 -3.84019e-19)
(0.0846109 0.0147325 -2.51896e-19)
(0.258228 0.0266431 2.93297e-19)
(0.433899 0.0118354 -2.04869e-19)
(0.602223 -0.0151009 1.41611e-18)
(0.757549 -0.0470193 7.49594e-19)
(0.896411 -0.0799695 -1.96286e-19)
(1.01678 -0.111131 7.63241e-19)
(1.11772 -0.138798 -4.99034e-19)
(1.19888 -0.162564 -1.60482e-19)
(1.25919 -0.182097 1.15951e-18)
(0.0646184 0.0153976 -4.65667e-19)
(0.207682 0.0328631 6.95266e-19)
(0.360982 0.0265371 -1.31852e-18)
(0.514052 0.00833835 2.28232e-19)
(0.660652 -0.0159068 5.69048e-19)
(0.7967 -0.0428757 -7.15099e-19)
(0.919359 -0.0699943 -1.26652e-18)
(1.02673 -0.0954717 6.78962e-19)
(1.11735 -0.118343 -8.83002e-19)
(1.18885 -0.137793 1.41309e-18)
(0.0467452 0.0138316 -1.15116e-19)
(0.16091 0.0332167 -6.99806e-19)
(0.291339 0.03278 3.45453e-19)
(0.427113 0.0216645 8.64153e-19)
(0.561883 0.00426156 -4.64181e-19)
(0.69144 -0.0168805 -4.58077e-19)
(0.812662 -0.039613 -7.76649e-19)
(0.923199 -0.0622303 -3.55878e-19)
(1.02086 -0.0832294 -8.54665e-20)
(1.10226 -0.100992 1.41221e-18)
(0.0312702 0.0105458 1.93283e-19)
(0.118976 0.0287937 -9.50653e-19)
(0.226869 0.0317842 1.62604e-18)
(0.344062 0.0258913 -9.0544e-19)
(0.464446 0.0140393 5.86633e-19)
(0.584059 -0.00207629 -7.29948e-19)
(0.699967 -0.0208543 8.12986e-19)
(0.809928 -0.0407967 7.10028e-19)
(0.911576 -0.0598092 1.55132e-18)
(1.0009 -0.0748784 -2.56469e-18)
(0.018352 0.00610194 -6.0058e-19)
(0.0826126 0.0209185 1.20597e-18)
(0.169007 0.0252637 1.60936e-20)
(0.267054 0.022831 -4.34378e-19)
(0.371087 0.0151006 -2.30674e-19)
(0.477614 0.00286565 1.84367e-19)
(0.584238 -0.0129433 -1.30891e-18)
(0.689404 -0.031214 1.01127e-18)
(0.791332 -0.0492642 -1.30333e-18)
(0.88604 -0.0617495 -5.94914e-19)
(0.0080602 0.00110794 1.03348e-18)
(0.0522601 0.0110931 -3.22397e-19)
(0.118756 0.0153294 -6.04769e-19)
(0.197748 0.0150187 1.64253e-18)
(0.284048 0.0102793 -1.61348e-18)
(0.374603 0.000971826 9.01468e-19)
(0.467605 -0.0128153 9.60103e-19)
(0.562487 -0.0307703 2.62726e-19)
(0.658901 -0.0501772 2.7325e-19)
(0.754557 -0.0623403 -3.87625e-19)
(0.000388682 -0.00380852 -9.88387e-19)
(0.028118 0.000874414 9.39448e-19)
(0.0768094 0.00427283 -8.31376e-19)
(0.137563 0.0054614 1.04308e-18)
(0.205553 0.00344238 -3.11633e-19)
(0.277819 -0.00270788 -1.0823e-18)
(0.352527 -0.0137259 3.10375e-19)
(0.429273 -0.0305532 -5.1209e-19)
(0.509035 -0.0524534 -6.06527e-19)
(0.594169 -0.0694538 -1.8922e-18)
(-0.00477046 -0.00808578 -1.23468e-18)
(0.0101469 -0.00838453 9.81592e-19)
(0.0436435 -0.00593789 -1.92324e-18)
(0.087996 -0.00320914 3.43907e-19)
(0.138749 -0.00175693 -1.33239e-18)
(0.192804 -0.00254296 -7.991e-19)
(0.247586 -0.0058895 1.91234e-18)
(0.30116 -0.0120154 -2.61444e-18)
(0.352881 -0.0215153 5.03225e-19)
(0.400028 -0.0302481 -8.28664e-19)
(-0.00768224 -0.0113475 6.08185e-19)
(-0.00204466 -0.015839 2.5733e-19)
(0.0192553 -0.0143225 -7.65391e-20)
(0.0500645 -0.0103002 7.30848e-19)
(0.0867018 -0.00565937 2.14608e-18)
(0.126594 -0.00136015 7.40703e-19)
(0.167733 0.00240704 7.65349e-19)
(0.208919 0.00569219 -2.64639e-19)
(0.250232 0.00783842 -2.46852e-18)
(0.289114 0.00926203 6.26042e-19)
(-0.00878374 -0.0134242 -1.71697e-19)
(-0.00932804 -0.0210859 5.46475e-19)
(0.00264609 -0.0205023 -1.43158e-19)
(0.0227356 -0.0158175 1.0108e-18)
(0.0481733 -0.00920569 -2.33706e-18)
(0.0770139 -0.00182637 1.98369e-19)
(0.107829 0.00579386 -1.11226e-18)
(0.139842 0.0132482 1.63666e-18)
(0.172876 0.0195725 -4.78385e-19)
(0.204272 0.0240791 -6.83587e-20)
(-0.00858782 -0.014304 -1.16885e-19)
(-0.0128318 -0.0240056 -6.572e-19)
(-0.00771333 -0.0243087 1.65281e-18)
(0.00407931 -0.0196269 -8.7145e-19)
(0.0206596 -0.0123269 6.12485e-20)
(0.0406176 -0.00378482 2.79663e-19)
(0.062914 0.00513192 -2.55579e-19)
(0.0869289 0.0136317 3.3216e-19)
(0.112249 0.020614 1.15098e-18)
(0.136673 0.025282 3.01187e-19)
(-0.00758376 -0.0140743 -2.62164e-19)
(-0.0136957 -0.0246649 -2.916e-19)
(-0.0134291 -0.0257006 -1.29432e-18)
(-0.0079207 -0.0215115 6.89179e-19)
(0.0017356 -0.0144921 -1.4215e-18)
(0.0145786 -0.00611557 3.22935e-19)
(0.0298493 0.00258951 3.63118e-19)
(0.0470085 0.0107139 -3.83741e-19)
(0.0655392 0.0172482 -2.48273e-19)
(0.0837988 0.0214695 -1.1158e-18)
(-0.00618706 -0.0128748 2.04799e-19)
(-0.0129399 -0.0232573 -4.81728e-20)
(-0.0159822 -0.0247664 9.78719e-22)
(-0.0151343 -0.0213426 -6.21998e-19)
(-0.0108146 -0.0152251 1.57456e-18)
(-0.00361582 -0.00783539 -2.45593e-19)
(0.00591818 -0.000196405 -6.12887e-19)
(0.0173137 0.00683842 7.50146e-19)
(0.0300353 0.0124518 -2.63615e-19)
(0.0429232 0.016046 1.45709e-18)
(-0.00472404 -0.010868 -3.84395e-20)
(-0.0114034 -0.0200603 -2.25369e-19)
(-0.0166177 -0.0217189 -8.89467e-20)
(-0.0191361 -0.0191491 -1.13633e-19)
(-0.018832 -0.0142674 -2.44308e-19)
(-0.0160035 -0.00831152 -7.67217e-19)
(-0.0110227 -0.00217617 9.59694e-19)
(-0.00429646 0.00342957 5.60608e-19)
(0.00366282 0.00789595 -1.00427e-19)
(0.0120632 0.0107638 -8.93746e-19)
(-0.00343575 -0.0082249 2.18286e-19)
(-0.00972808 -0.0154095 3.81456e-20)
(-0.0163015 -0.0168861 2.58201e-19)
(-0.0211436 -0.0151402 -2.95521e-20)
(-0.0237175 -0.0116332 2.3511e-19)
(-0.0240981 -0.00731676 2.65259e-19)
(-0.0225237 -0.00287679 3.97676e-19)
(-0.0193384 0.00116395 -1.12655e-18)
(-0.0150201 0.00438869 -2.07926e-19)
(-0.0101029 0.00647382 3.72646e-19)
(-0.00248969 -0.00512134 -1.10222e-19)
(-0.00837066 -0.00968551 -1.5666e-19)
(-0.0157252 -0.0106975 -7.53633e-20)
(-0.022025 -0.00969733 3.68611e-19)
(-0.0264593 -0.00759809 1.78925e-19)
(-0.0289517 -0.00499659 3.66935e-20)
(-0.0296475 -0.00232118 -7.95544e-20)
(-0.0288423 0.000109852 -6.17122e-20)
(-0.0269846 0.00205478 5.29713e-19)
(-0.0244467 0.00332115 -3.60774e-19)
(-0.00199122 -0.0017384 5.61899e-20)
(-0.00762156 -0.00330263 6.99163e-20)
(-0.0153301 -0.00366191 -5.9617e-20)
(-0.0223323 -0.00333759 -5.45289e-20)
(-0.0276804 -0.00263994 -5.65383e-20)
(-0.0312213 -0.00177209 -9.02156e-20)
(-0.0330527 -0.00087943 2.89768e-21)
(-0.0334436 -6.86755e-05 1.25173e-19)
(-0.0328262 0.000581052 -1.25683e-19)
(-0.0314952 0.00100587 2.28671e-19)
(-0.00813518 -0.00258537 1.65342e-20)
(0.0621216 -0.00662639 9.88734e-21)
(0.277545 -0.00671005 1.33754e-21)
(0.376954 -0.00438974 -9.02392e-22)
(0.479666 -0.00368391 -6.35419e-23)
(0.553546 -0.00263953 1.48039e-22)
(0.606041 -0.00218462 1.66306e-22)
(0.660335 -0.00157756 -3.39903e-23)
(0.683569 -0.00145881 -2.49059e-24)
(0.733793 -0.00100842 2.4389e-22)
(0.0086643 -0.00806017 2.62204e-20)
(0.0773757 -0.0197184 1.25331e-21)
(0.289036 -0.0199762 -1.74799e-20)
(0.385711 -0.013065 1.40442e-20)
(0.486374 -0.0109705 8.87132e-22)
(0.558781 -0.00786388 -5.94026e-22)
(0.610312 -0.0065129 6.88628e-22)
(0.663694 -0.00471036 6.96538e-23)
(0.686501 -0.00436202 1.4001e-22)
(0.736016 -0.0030142 -2.23502e-22)
(0.0419687 -0.0144153 2.68568e-20)
(0.10741 -0.0323295 -3.61024e-20)
(0.31159 -0.0327834 1.7869e-20)
(0.402912 -0.0214396 -1.16343e-20)
(0.499557 -0.0180298 8.28205e-22)
(0.569084 -0.0129367 -6.45405e-22)
(0.618729 -0.0107261 -2.56767e-22)
(0.670326 -0.00776348 7.97745e-25)
(0.692299 -0.00719941 -1.07225e-22)
(0.740422 -0.00498043 -3.26294e-22)
(0.0911764 -0.0221289 -4.16266e-20)
(0.151302 -0.0441604 -5.01134e-20)
(0.344376 -0.0448465 -2.31229e-20)
(0.427952 -0.0293298 1.21276e-20)
(0.518763 -0.024722 -1.45358e-20)
(0.58413 -0.0177646 3.8441e-21)
(0.631047 -0.0147528 -2.08819e-22)
(0.680059 -0.0106872 1.20687e-22)
(0.700828 -0.00992941 -1.28839e-22)
(0.746927 -0.00688178 1.21102e-22)
(0.155356 -0.031474 1.15127e-19)
(0.207726 -0.0549234 7.22383e-20)
(0.386208 -0.0559019 2.59798e-20)
(0.459961 -0.0365736 -2.35674e-20)
(0.543346 -0.0309232 1.19317e-20)
(0.603456 -0.0222648 3.16002e-21)
(0.646918 -0.0185287 2.20881e-21)
(0.692649 -0.0134364 2.39006e-22)
(0.711899 -0.0125138 2.86198e-22)
(0.755415 -0.0086945 -6.4257e-22)
(0.233227 -0.0423777 -5.08262e-20)
(0.275005 -0.0643035 3.90005e-20)
(0.435604 -0.0656962 4.82044e-21)
(0.49786 -0.0430276 2.62833e-20)
(0.572504 -0.0365265 -5.94618e-21)
(0.626479 -0.0263669 -3.68264e-21)
(0.665901 -0.0219985 -2.28162e-21)
(0.707783 -0.0159724 -1.47229e-22)
(0.725266 -0.0149186 -1.55396e-22)
(0.76573 -0.010397 6.89401e-22)
(0.32316 -0.0545601 -3.86775e-20)
(0.351169 -0.0720362 -1.00778e-19)
(0.490868 -0.0740267 -1.70465e-20)
(0.540412 -0.048576 -1.46383e-20)
(0.605322 -0.0414493 6.97171e-21)
(0.652535 -0.0300153 -1.94174e-21)
(0.68749 -0.0251181 2.45471e-21)
(0.725099 -0.0182635 4.49165e-22)
(0.740644 -0.0171158 -4.65288e-23)
(0.77769 -0.0119696 2.65451e-22)