1.45 	0 	0 	0.759031 	-0.0190651 	1.00306e-21
2.35 	0 	0 	0.8802 	-0.00485054 	-1.00661e-21
