1.45 	0 	0 	-0.00809893 	-0.00257085 	3.78577e-21
2.35 	0 	0 	0.0613802 	-0.00663279 	2.29012e-21
