1.45 	0 	0 	-0.0081668 	-0.00256808 	3.78075e-21
2.35 	0 	0 	0.061325 	-0.00662769 	2.2815e-21
