1.45 	0 	0 	-0.294442
2.35 	0 	0 	-0.129431
