/*--------------------------------*- C++ -*----------------------------------*\
  =========                 |
  \\      /  F ield         | OpenFOAM: The Open Source CFD Toolbox
   \\    /   O peration     | Website:  https://openfoam.org
    \\  /    A nd           | Version:  6.0
     \\/     M anipulation  |
\*---------------------------------------------------------------------------*/
FoamFile
{
    version     2.0;
    format      ascii;
    class       volVectorField;
    location    "0.1";
    object      U;
}
// * * * * * * * * * * * * * * * * * * * * * * * * * * * * * * * * * * * * * //

dimensions      [0 1 -1 0 0 0 0];

internalField   nonuniform List<vector> 
800
(
(9.73102e-05 -0.000140201 0)
(-8.25583e-05 0.000119961 0)
(-0.00102619 0.000381024 0)
(-0.00242154 0.000510244 0)
(-0.0040241 0.000556494 0)
(-0.00567788 0.000563351 0)
(-0.00731788 0.000555921 0)
(-0.00892045 0.000545524 0)
(-0.0104793 0.000535694 0)
(-0.0119931 0.000526618 0)
(-0.0134613 0.0005176 0)
(-0.0148824 0.000508021 0)
(-0.0162548 0.000497583 0)
(-0.017577 0.00048627 0)
(-0.0188476 0.000474211 0)
(-0.0200657 0.000461575 0)
(-0.0212306 0.000448501 0)
(-0.0223418 0.000435041 0)
(-0.0233983 0.000421081 0)
(-0.0243982 0.000406236 0)
(-0.0253378 0.000389753 0)
(-0.0262107 0.000370395 0)
(-0.0270067 0.00034632 0)
(-0.0277096 0.000314936 0)
(-0.0282958 0.000272756 0)
(-0.0287322 0.000215303 0)
(-0.0289737 0.00013714 0)
(-0.0289623 3.21609e-05 0)
(-0.0286265 -0.000105708 0)
(-0.0278831 -0.000281206 0)
(-0.0266437 -0.000495704 0)
(-0.0248256 -0.000744416 0)
(-0.0223701 -0.00101313 0)
(-0.019268 -0.00127506 0)
(-0.0155917 -0.00148896 0)
(-0.0115268 -0.00160012 0)
(-0.00739342 -0.00154546 0)
(-0.00365729 -0.00126 0)
(-0.000962392 -0.00069839 0)
(1.59246e-05 9.2318e-07 0)
(-0.000199329 9.31542e-05 0)
(-0.00144363 0.00131734 0)
(-0.00416725 0.00237002 0)
(-0.00778308 0.00294456 0)
(-0.0118074 0.0031764 0)
(-0.0159577 0.00321862 0)
(-0.0200809 0.00317345 0)
(-0.0241013 0.00309445 0)
(-0.0279848 0.00300376 0)
(-0.0317158 0.00290817 0)
(-0.035286 0.00280892 0)
(-0.0386899 0.00270606 0)
(-0.041924 0.00259986 0)
(-0.0449863 0.00249098 0)
(-0.0478758 0.00238021 0)
(-0.0505925 0.00226818 0)
(-0.0531368 0.00215517 0)
(-0.055509 0.00204084 0)
(-0.0577076 0.00192388 0)
(-0.0597288 0.00180172 0)
(-0.0615642 0.0016701 0)
(-0.063199 0.00152267 0)
(-0.0646096 0.00135043 0)
(-0.0657604 0.00114133 0)
(-0.0666011 0.000879803 0)
(-0.0670628 0.000546741 0)
(-0.0670555 0.000120008 0)
(-0.0664667 -0.000423917 0)
(-0.0651614 -0.00110667 0)
(-0.0629882 -0.00194249 0)
(-0.0597913 -0.00293006 0)
(-0.0554319 -0.00404162 0)
(-0.0498228 -0.00521055 0)
(-0.0429741 -0.00631971 0)
(-0.0350497 -0.00719543 0)
(-0.0264213 -0.00761382 0)
(-0.017696 -0.00732607 0)
(-0.00971013 -0.00610238 0)
(-0.00358583 -0.00382745 0)
(-0.000575919 -0.000890902 0)
(-0.000483867 0.00114797 0)
(-0.00271426 0.00415804 0)
(-0.00697421 0.00644629 0)
(-0.012322 0.007731 0)
(-0.0181332 0.00826673 0)
(-0.0240713 0.0083576 0)
(-0.0299396 0.00822145 0)
(-0.0356312 0.00798159 0)
(-0.0410927 0.00769596 0)
(-0.0462976 0.00738808 0)
(-0.0512323 0.00706702 0)
(-0.0558897 0.00673702 0)
(-0.0602672 0.00640109 0)
(-0.0643649 0.0060619 0)
(-0.0681852 0.00572165 0)
(-0.0717315 0.00538173 0)
(-0.0750078 0.00504224 0)
(-0.0780169 0.00470156 0)
(-0.0807597 0.0043557 0)
(-0.083233 0.00399766 0)
(-0.0854277 0.00361665 0)
(-0.0873262 0.00319728 0)
(-0.0889001 0.00271855 0)
(-0.090106 0.0021531 0)
(-0.090883 0.00146655 0)
(-0.0911479 0.000617664 0)
(-0.0907927 -0.000440153 0)
(-0.0896819 -0.00175513 0)
(-0.0876537 -0.00336999 0)
(-0.0845249 -0.00531018 0)
(-0.0801054 -0.00756657 0)
(-0.0742229 -0.0100726 0)
(-0.0667643 -0.0126778 0)
(-0.0577328 -0.0151239 0)
(-0.0473208 -0.0170323 0)
(-0.035981 -0.0179203 0)
(-0.02446 -0.0172618 0)
(-0.0137853 -0.0145998 0)
(-0.00537541 -0.00974213 0)
(-0.000973643 -0.00320287 0)
(-0.000688151 0.0028512 0)
(-0.00365501 0.00821455 0)
(-0.00908028 0.0119836 0)
(-0.0157077 0.0140628 0)
(-0.0227865 0.0149074 0)
(-0.0299463 0.0150065 0)
(-0.0369707 0.014711 0)
(-0.0437393 0.0142242 0)
(-0.0501912 0.013647 0)
(-0.0562964 0.0130248 0)
(-0.0620405 0.0123782 0)
(-0.0674181 0.0117185 0)
(-0.0724298 0.011053 0)
(-0.0770802 0.0103875 0)
(-0.0813764 0.00972599 0)
(-0.085327 0.00907069 0)
(-0.0889406 0.00842121 0)
(-0.092225 0.00777405 0)
(-0.0951849 0.00712179 0)
(-0.0978209 0.00645206 0)
(-0.100127 0.00574644 0)
(-0.102089 0.0049792 0)
(-0.10368 0.0041159 0)
(-0.10486 0.00311212 0)
(-0.105567 0.00191253 0)
(-0.105718 0.000451101 0)
(-0.105204 -0.0013468 0)
(-0.10388 -0.00355874 0)
(-0.101571 -0.00625437 0)
(-0.0980702 -0.00947708 0)
(-0.0931499 -0.0132163 0)
(-0.086588 -0.0173699 0)
(-0.0782118 -0.021699 0)
(-0.0679674 -0.0257848 0)
(-0.0560147 -0.0290042 0)
(-0.04283 -0.0305544 0)
(-0.0292671 -0.0295566 0)
(-0.0165572 -0.0252574 0)
(-0.00645306 -0.0173267 0)
(-0.00115803 -0.00628161 0)
(-0.00082024 0.00496477 0)
(-0.00430353 0.0131125 0)
(-0.0105771 0.018522 0)
(-0.0181285 0.021415 0)
(-0.0260945 0.0225272 0)
(-0.0340758 0.0225694 0)
(-0.0418461 0.0220399 0)
(-0.0492823 0.0212272 0)
(-0.0563243 0.0202777 0)
(-0.0629441 0.019261 0)
(-0.0691309 0.0182113 0)
(-0.0748837 0.017148 0)
(-0.0802081 0.0160839 0)
(-0.0851146 0.0150282 0)
(-0.089616 0.0139872 0)
(-0.0937269 0.0129638 0)
(-0.0974618 0.0119568 0)
(-0.100834 0.010961 0)
(-0.103854 0.0099653 0)
(-0.10653 0.00895199 0)
(-0.108861 0.00789524 0)
(-0.110841 0.00675935 0)
(-0.112451 0.00549683 0)
(-0.11366 0.00404644 0)
(-0.114417 0.00233169 0)
(-0.114649 0.000260306 0)
(-0.114252 -0.00227374 0)
(-0.113084 -0.00538392 0)
(-0.110961 -0.00917762 0)
(-0.10765 -0.0137319 0)
(-0.102872 -0.0190545 0)
(-0.0963245 -0.0250281 0)
(-0.0877272 -0.0313384 0)
(-0.0769027 -0.0373993 0)
(-0.0639074 -0.0423016 0)
(-0.04919 -0.0448365 0)
(-0.0337158 -0.0436529 0)
(-0.0190071 -0.0375829 0)
(-0.00728433 -0.0260959 0)
(-0.00125253 -0.00976343 0)
(-0.000910968 0.00736409 0)
(-0.00477476 0.0186257 0)
(-0.0116924 0.025803 0)
(-0.0199417 0.0295133 0)
(-0.0285582 0.0308399 0)
(-0.037115 0.030752 0)
(-0.0453806 0.0299115 0)
(-0.0532349 0.028698 0)
(-0.0606236 0.0273056 0)
(-0.0675253 0.0258287 0)
(-0.0739358 0.0243155 0)
(-0.0798605 0.022794 0)
(-0.0853119 0.0212826 0)
(-0.0903067 0.0197944 0)
(-0.0948644 0.0183377 0)
(-0.099006 0.016916 0)
(-0.102753 0.015528 0)
(-0.106124 0.0141664 0)
(-0.109139 0.0128171 0)
(-0.111812 0.0114579 0)
(-0.114154 0.0100566 0)
(-0.116169 0.00856892 0)
(-0.117851 0.00693582 0)
(-0.119185 0.00508074 0)
(-0.120137 0.00290666 0)
(-0.120654 0.000294153 0)
(-0.120646 -0.00289827 0)
(-0.119986 -0.00682901 0)
(-0.118485 -0.0116594 0)
(-0.115883 -0.0175255 0)
(-0.111843 -0.0244879 0)
(-0.10595 -0.0324532 0)
(-0.0977557 -0.0410656 0)
(-0.0868749 -0.0495784 0)
(-0.0731557 -0.0567474 0)
(-0.0569286 -0.0608277 0)
(-0.0392519 -0.0597892 0)
(-0.0220541 -0.0518355 0)
(-0.00827451 -0.0361577 0)
(-0.00134482 -0.0136028 0)
(-0.000988 0.00998342 0)
(-0.00518022 0.0246326 0)
(-0.0126553 0.0336833 0)
(-0.0214987 0.0382031 0)
(-0.0306493 0.0396819 0)
(-0.0396545 0.0393841 0)
(-0.0482812 0.0381528 0)
(-0.0564166 0.0364654 0)
(-0.0640165 0.0345649 0)
(-0.0710694 0.0325707 0)
(-0.0775801 0.0305446 0)
(-0.0835626 0.0285227 0)
(-0.0890369 0.026529 0)
(-0.094027 0.02458 0)
(-0.0985595 0.0226859 0)
(-0.102662 0.0208513 0)
(-0.106364 0.0190744 0)
(-0.109691 0.0173469 0)
(-0.112671 0.0156526 0)
(-0.115329 0.0139658 0)
(-0.117687 0.01225 0)
(-0.119761 0.0104547 0)
(-0.121567 0.00851216 0)
(-0.123107 0.00633321 0)
(-0.124374 0.00380268 0)
(-0.125342 0.000774602 0)
(-0.125953 -0.00293093 0)
(-0.126104 -0.00752662 0)
(-0.125619 -0.0132473 0)
(-0.124228 -0.0203216 0)
(-0.121529 -0.0289133 0)
(-0.116978 -0.0390188 0)
(-0.109903 -0.0503083 0)
(-0.0995982 -0.0619165 0)
(-0.0855442 -0.07223 0)
(-0.0677781 -0.0787986 0)
(-0.047343 -0.0785836 0)
(-0.0266675 -0.0687596 0)
(-0.00982074 -0.0480522 0)
(-0.00150078 -0.0179506 0)
(-0.00107313 0.0128134 0)
(-0.00561147 0.0311087 0)
(-0.0136566 0.0421224 0)
(-0.0230876 0.0474272 0)
(-0.0327433 0.0489801 0)
(-0.0421483 0.0483805 0)
(-0.0510736 0.046671 0)
(-0.0594196 0.0444332 0)
(-0.0671565 0.04196 0)
(-0.074286 0.0393945 0)
(-0.0808245 0.0368111 0)
(-0.0867959 0.0342534 0)
(-0.092229 0.0317498 0)
(-0.097156 0.0293198 0)
(-0.101611 0.0269754 0)
(-0.105629 0.024722 0)
(-0.109246 0.0225581 0)
(-0.112497 0.0204748 0)
(-0.115419 0.018455 0)
(-0.118046 0.0164718 0)
(-0.120414 0.0144866 0)
(-0.122555 0.0124459 0)
(-0.124505 0.0102774 0)
(-0.126293 0.00788428 0)
(-0.127944 0.00513813 0)
(-0.12947 0.00187052 0)
(-0.130861 -0.00213596 0)
(-0.132061 -0.00715426 0)
(-0.132936 -0.0135112 0)
(-0.133234 -0.0215661 0)
(-0.132519 -0.0316523 0)
(-0.130118 -0.0439533 0)
(-0.125092 -0.0582867 0)
(-0.116293 -0.0737795 0)
(-0.102613 -0.0884756 0)
(-0.0834975 -0.0990464 0)
(-0.0596915 -0.100964 0)
(-0.0340915 -0.0896469 0)
(-0.0124589 -0.062847 0)
(-0.00180548 -0.0231636 0)
(-0.00118476 0.0158906 0)
(-0.00614548 0.0381124 0)
(-0.0148539 0.0511663 0)
(-0.0249381 0.0572047 0)
(-0.0351256 0.0587268 0)
(-0.0449252 0.0577121 0)
(-0.0541219 0.0554228 0)
(-0.0626372 0.0525495 0)
(-0.070462 0.0494344 0)
(-0.0776151 0.0462425 0)
(-0.0841267 0.0430583 0)
(-0.0900327 0.0399312 0)
(-0.0953719 0.0368931 0)
(-0.100185 0.0339655 0)
(-0.104514 0.0311619 0)
(-0.108402 0.0284883 0)
(-0.111892 0.0259438 0)
(-0.115028 0.0235198 0)
(-0.117855 0.0211997 0)
(-0.120419 0.0189571 0)
(-0.122766 0.0167545 0)
(-0.124949 0.0145396 0)
(-0.127021 0.0122409 0)
(-0.129043 0.00976111 0)
(-0.131078 0.00696718 0)
(-0.133188 0.00367755 0)
(-0.135425 -0.000354628 0)
(-0.137809 -0.00546003 0)
(-0.140291 -0.0120679 0)
(-0.142686 -0.0207042 0)
(-0.144585 -0.0319466 0)
(-0.145232 -0.0462968 0)
(-0.143417 -0.0639091 0)
(-0.137452 -0.084122 0)
(-0.125393 -0.104794 0)
(-0.105668 -0.121626 0)
(-0.0781952 -0.128007 0)
(-0.045993 -0.116396 0)
(-0.017038 -0.0823491 0)
(-0.0024182 -0.0299163 0)
(-0.00134294 0.0192929 0)
(-0.00685968 0.0457741 0)
(-0.0163951 0.0609284 0)
(-0.0272504 0.0676055 0)
(-0.0380255 0.0689487 0)
(-0.0482278 0.0673734 0)
(-0.0576731 0.0643812 0)
(-0.0663163 0.0607743 0)
(-0.0741767 0.0569407 0)
(-0.0812948 0.053063 0)
(-0.087718 0.0492327 0)
(-0.0934956 0.0455023 0)
(-0.0986775 0.0419056 0)
(-0.103314 0.0384651 0)
(-0.107455 0.0351948 0)
(-0.111152 0.0321013 0)
(-0.114455 0.0291843 0)
(-0.117417 0.0264361 0)
(-0.120089 0.0238415 0)
(-0.122527 0.0213771 0)
(-0.124791 0.0190091 0)
(-0.126946 0.016691 0)
(-0.129068 0.0143587 0)
(-0.131244 0.0119234 0)
(-0.133576 0.00925994 0)
(-0.136183 0.00618922 0)
(-0.139193 0.00245275 0)
(-0.142729 -0.00232184 0)
(-0.146867 -0.00866067 0)
(-0.151561 -0.0172764 0)
(-0.156516 -0.0290626 0)
(-0.160998 -0.0449894 0)
(-0.163606 -0.0658034 0)
(-0.162101 -0.0914062 0)
(-0.153514 -0.11983 0)
(-0.134802 -0.145936 0)
(-0.104298 -0.160499 0)
(-0.0642774 -0.151343 0)
(-0.0248856 -0.109335 0)
(-0.0036597 -0.0394236 0)
(-0.00157646 0.0231458 0)
(-0.00785251 0.0542968 0)
(-0.0184491 0.0715779 0)
(-0.0302285 0.0787278 0)
(-0.0416484 0.0796794 0)
(-0.0522438 0.0773529 0)
(-0.061888 0.073507 0)
(-0.070587 0.0690521 0)
(-0.078398 0.064414 0)
(-0.0853895 0.059786 0)
(-0.0916288 0.0552614 0)
(-0.0971805 0.0508927 0)
(-0.102107 0.046713 0)
(-0.106469 0.0427443 0)
(-0.110326 0.0390003 0)
(-0.113737 0.0354877 0)
(-0.116759 0.0322062 0)
(-0.11945 0.0291495 0)
(-0.121871 0.0263045 0)
(-0.124084 0.0236516 0)
(-0.126157 0.0211637 0)
(-0.128165 0.0188038 0)
(-0.130199 0.0165215 0)
(-0.132368 0.0142466 0)
(-0.134807 0.0118762 0)
(-0.137683 0.00925455 0)
(-0.141202 0.00613911 0)
(-0.145596 0.00214796 0)
(-0.151098 -0.00331264 0)
(-0.157863 -0.0111333 0)
(-0.165817 -0.022566 0)
(-0.174404 -0.0391892 0)
(-0.182221 -0.0626272 0)
(-0.186649 -0.0938054 0)
(-0.183731 -0.131517 0)
(-0.168674 -0.17028 0)
(-0.137447 -0.198129 0)
(-0.0901872 -0.196536 0)
(-0.0378345 -0.147572 0)
(-0.00615314 -0.0538086 0)
(-0.00193421 0.0276449 0)
(-0.00927163 0.0639725 0)
(-0.02124 0.0833329 0)
(-0.0341087 0.0906732 0)
(-0.0461916 0.0909265 0)
(-0.0571067 0.0875986 0)
(-0.0668274 0.0827143 0)
(-0.0754336 0.0772786 0)
(-0.083033 0.07174 0)
(-0.0897277 0.0662915 0)
(-0.0956094 0.0610217 0)
(-0.100761 0.0559785 0)
(-0.105259 0.0511915 0)
(-0.109177 0.0466805 0)
(-0.112583 0.0424574 0)
(-0.115545 0.0385276 0)
(-0.118127 0.0348905 0)
(-0.120394 0.0315401 0)
(-0.122409 0.0284654 0)
(-0.124239 0.0256511 0)
(-0.125954 0.0230771 0)
(-0.127634 0.0207185 0)
(-0.129373 0.018543 0)
(-0.131287 0.0165064 0)
(-0.133527 0.0145413 0)
(-0.136288 0.0125368 0)
(-0.139822 0.0102983 0)
(-0.144452 0.00747935 0)
(-0.150554 0.00347298 0)
(-0.158503 -0.00273905 0)
(-0.168529 -0.0127521 0)
(-0.180429 -0.0288273 0)
(-0.193105 -0.0537028 0)
(-0.203978 -0.0897979 0)
(-0.208535 -0.137404 0)
(-0.200442 -0.191614 0)
(-0.172889 -0.238404 0)
(-0.122381 -0.252099 0)
(-0.0576666 -0.201072 0)
(-0.0109703 -0.0765418 0)
(-0.0025064 0.0331026 0)
(-0.011359 0.0752133 0)
(-0.0250899 0.096447 0)
(-0.039174 0.103503 0)
(-0.0518205 0.102615 0)
(-0.0628328 0.0979587 0)
(-0.072348 0.0918111 0)
(-0.0805488 0.0852404 0)
(-0.0876074 0.0786935 0)
(-0.0936687 0.0723485 0)
(-0.098855 0.0662806 0)
(-0.103273 0.0605279 0)
(-0.107017 0.0551134 0)
(-0.110177 0.0500517 0)
(-0.112833 0.045351 0)
(-0.115061 0.0410134 0)
(-0.116934 0.0370361 0)
(-0.118518 0.0334117 0)
(-0.11988 0.0301296 0)
(-0.121083 0.0271769 0)
(-0.122196 0.0245397 0)
(-0.123291 0.0222039 0)
(-0.124453 0.0201555 0)
(-0.125787 0.0183781 0)
(-0.127427 0.0168465 0)
(-0.129556 0.0155075 0)
(-0.132426 0.0142407 0)
(-0.136376 0.0127801 0)
(-0.141851 0.0105755 0)
(-0.149385 0.00657523 0)
(-0.159507 -0.00105807 0)
(-0.172496 -0.015206 0)
(-0.187913 -0.0397817 0)
(-0.203872 -0.079001 0)
(-0.216217 -0.135344 0)
(-0.217991 -0.205699 0)
(-0.200021 -0.275729 0)
(-0.154404 -0.313919 0)
(-0.0840664 -0.271632 0)
(-0.0194389 -0.112462 0)
(-0.00346803 0.0400422 0)
(-0.0145304 0.0885974 0)
(-0.030469 0.111163 0)
(-0.0457289 0.117138 0)
(-0.058552 0.114474 0)
(-0.0691115 0.108062 0)
(-0.0777984 0.100377 0)
(-0.0849344 0.0924901 0)
(-0.0907767 0.0848141 0)
(-0.0955287 0.0774931 0)
(-0.0993564 0.0705789 0)
(-0.1024 0.0640935 0)
(-0.104783 0.0580482 0)
(-0.106613 0.0524486 0)
(-0.107987 0.0472949 0)
(-0.108991 0.0425827 0)
(-0.109701 0.0383032 0)
(-0.110187 0.0344445 0)
(-0.11051 0.0309927 0)
(-0.110728 0.0279339 0)
(-0.110896 0.025256 0)
(-0.11107 0.0229514 0)
(-0.11131 0.0210184 0)
(-0.111688 0.0194632 0)
(-0.112294 0.0182959 0)
(-0.113254 0.0175185 0)
(-0.114746 0.0170901 0)
(-0.117033 0.0168498 0)
(-0.120499 0.0163656 0)
(-0.125682 0.0146725 0)
(-0.133274 0.00988711 0)
(-0.144015 -0.00123137 0)
(-0.158361 -0.0235157 0)
(-0.175802 -0.0628901 0)
(-0.193761 -0.124382 0)
(-0.206282 -0.207939 0)
(-0.203388 -0.301631 0)
(-0.173413 -0.372109 0)
(-0.110916 -0.354777 0)
(-0.0318027 -0.166619 0)
(-0.00517062 0.0493868 0)
(-0.0195213 0.104914 0)
(-0.0380411 0.127565 0)
(-0.0539459 0.131132 0)
(-0.065886 0.125785 0)
(-0.0747306 0.117068 0)
(-0.0812487 0.107508 0)
(-0.0859539 0.0980975 0)
(-0.0892263 0.0891682 0)
(-0.0913595 0.0808091 0)
(-0.092587 0.0730346 0)
(-0.0930994 0.0658399 0)
(-0.0930555 0.0592157 0)
(-0.0925875 0.0531503 0)
(-0.0918064 0.0476294 0)
(-0.0908041 0.0426353 0)
(-0.0896563 0.0381479 0)
(-0.0884251 0.0341454 0)
(-0.0871609 0.0306058 0)
(-0.0859044 0.0275088 0)
(-0.0846892 0.0248385 0)
(-0.0835429 0.0225861 0)
(-0.08249 0.020753 0)
(-0.0815541 0.019354 0)
(-0.0807619 0.0184176 0)
(-0.0801504 0.0179785 0)
(-0.0797791 0.018052 0)
(-0.0797553 0.0185684 0)
(-0.0802776 0.0192339 0)
(-0.0817079 0.0192686 0)
(-0.0846657 0.0169834 0)
(-0.0901119 0.00921905 0)
(-0.0993052 -0.00914352 0)
(-0.113404 -0.0450754 0)
(-0.132408 -0.105864 0)
(-0.153267 -0.195346 0)
(-0.167817 -0.307089 0)
(-0.162963 -0.412241 0)
(-0.124532 -0.437205 0)
(-0.0443027 -0.241667 0)
(-0.00833564 0.0628898 0)
(-0.0276429 0.125154 0)
(-0.0485902 0.145195 0)
(-0.0632562 0.144181 0)
(-0.0716884 0.134886 0)
(-0.0760314 0.12317 0)
(-0.0776081 0.111353 0)
(-0.0772106 0.100226 0)
(-0.075407 0.0899855 0)
(-0.0726219 0.0806293 0)
(-0.0691759 0.0721073 0)
(-0.0653133 0.0643657 0)
(-0.0612212 0.0573568 0)
(-0.0570422 0.0510372 0)
(-0.0528836 0.0453663 0)
(-0.0488238 0.0403047 0)
(-0.0449181 0.0358135 0)
(-0.0412032 0.0318553 0)
(-0.0377002 0.028395 0)
(-0.0344181 0.0254015 0)
(-0.0313554 0.0228495 0)
(-0.0285015 0.0207225 0)
(-0.0258372 0.0190155 0)
(-0.0233344 0.0177381 0)
(-0.0209554 0.0169157 0)
(-0.0186517 0.0165847 0)
(-0.0163669 0.0167746 0)
(-0.0140484 0.017459 0)
(-0.0116827 0.018446 0)
(-0.00937234 0.0191625 0)
(-0.00748412 0.0182794 0)
(-0.00687454 0.0131547 0)
(-0.00914203 -0.000791299 0)
(-0.016672 -0.0303901 0)
(-0.0320672 -0.0839855 0)
(-0.0563442 -0.168946 0)
(-0.0860437 -0.286458 0)
(-0.110538 -0.419448 0)
(-0.109257 -0.498421 0)
(-0.0472364 -0.332677 0)
(-0.0144503 0.0843058 0)
(-0.0410857 0.150218 0)
(-0.062065 0.162026 0)
(-0.0698232 0.152912 0)
(-0.0685416 0.137969 0)
(-0.0626043 0.122524 0)
(-0.0540541 0.108237 0)
(-0.0440104 0.0954898 0)
(-0.0332323 0.0842276 0)
(-0.0222378 0.0742796 0)
(-0.0113729 0.0654769 0)
(-0.000866826 0.0576806 0)
(0.0091321 0.0507791 0)
(0.0185336 0.0446808 0)
(0.0272899 0.0393076 0)
(0.0353852 0.0345909 0)
(0.0428265 0.0304693 0)
(0.0496382 0.0268875 0)
(0.0558568 0.023796 0)
(0.0615284 0.0211521 0)
(0.0667065 0.0189207 0)
(0.0714512 0.0170758 0)
(0.0758297 0.0156026 0)
(0.0799182 0.0144988 0)
(0.0838045 0.0137743 0)
(0.087593 0.0134468 0)
(0.0914076 0.0135284 0)
(0.0953892 0.0139903 0)
(0.0996721 0.0146864 0)
(0.104321 0.0152009 0)
(0.109183 0.0145801 0)
(0.11363 0.0108991 0)
(0.116145 0.000706536 0)
(0.113962 -0.0215016 0)
(0.102953 -0.06327 0)
(0.0786993 -0.133396 0)
(0.0385266 -0.239913 0)
(-0.0138477 -0.382835 0)
(-0.0568579 -0.513896 0)
(-0.0287217 -0.418251 0)
(-0.0264013 0.122203 0)
(-0.0618366 0.177975 0)
(-0.070048 0.168596 0)
(-0.0547799 0.146582 0)
(-0.0309724 0.125409 0)
(-0.00512876 0.10699 0)
(0.0207503 0.0914307 0)
(0.045745 0.0784275 0)
(0.0693222 0.0675247 0)
(0.0912178 0.0582983 0)
(0.111337 0.050424 0)
(0.129678 0.0436655 0)
(0.146295 0.0378467 0)
(0.161276 0.0328311 0)
(0.17473 0.0285097 0)
(0.186777 0.0247926 0)
(0.197544 0.0216044 0)
(0.207156 0.0188806 0)
(0.21574 0.0165661 0)
(0.223418 0.014614 0)
(0.230307 0.0129862 0)
(0.236523 0.0116537 0)
(0.24218 0.0105965 0)
(0.247393 0.00980439 0)
(0.252283 0.00927445 0)
(0.256978 0.00900726 0)
(0.261618 0.00899636 0)
(0.266351 0.00920324 0)
(0.271305 0.00950844 0)
(0.276547 0.00961472 0)
(0.281933 0.00889052 0)
(0.286907 0.00609897 0)
(0.290037 -0.000944393 0)
(0.288621 -0.015842 0)
(0.277972 -0.0438594 0)
(0.252038 -0.0923501 0)
(0.203075 -0.171637 0)
(0.125797 -0.297714 0)
(0.0349776 -0.45786 0)
(0.0211733 -0.454516 0)
(-0.0459897 0.194869 0)
(-0.0621658 0.18943 0)
(-0.0031581 0.138502 0)
(0.0626608 0.107578 0)
(0.121125 0.0864771 0)
(0.171959 0.0700897 0)
(0.21644 0.0571785 0)
(0.255373 0.0470801 0)
(0.289373 0.0391178 0)
(0.31904 0.0327311 0)
(0.344925 0.0275269 0)
(0.36751 0.0232396 0)
(0.387205 0.0196824 0)
(0.404375 0.0167178 0)
(0.419341 0.0142413 0)
(0.432391 0.0121713 0)
(0.44378 0.010443 0)
(0.453738 0.00900369 0)
(0.462468 0.00780994 0)
(0.470152 0.00682611 0)
(0.476953 0.00602349 0)
(0.483017 0.00538029 0)
(0.488483 0.00488166 0)
(0.493479 0.00451883 0)
(0.498131 0.00428731 0)
(0.502563 0.00418286 0)
(0.506895 0.00419546 0)
(0.511239 0.00429505 0)
(0.51566 0.00440805 0)
(0.520143 0.00436354 0)
(0.524427 0.00382394 0)
(0.527899 0.00213978 0)
(0.529042 -0.0017667 0)
(0.525346 -0.00969043 0)
(0.51181 -0.0241852 0)
(0.482005 -0.0494323 0)
(0.424395 -0.0918313 0)
(0.327466 -0.171457 0)
(0.187222 -0.312231 0)
(0.124519 -0.379873 0)
(0.24463 0.127507 0)
(0.296692 0.112685 0)
(0.404146 0.0779584 0)
(0.495323 0.0553812 0)
(0.560489 0.0409307 0)
(0.608706 0.0307594 0)
(0.646395 0.023332 0)
(0.676601 0.0178883 0)
(0.701062 0.013875 0)
(0.721038 0.0108771 0)
(0.737489 0.00860447 0)
(0.75113 0.00685985 0)
(0.762503 0.00550709 0)
(0.772025 0.00444998 0)
(0.780033 0.00361918 0)
(0.786797 0.00296398 0)
(0.792541 0.00244666 0)
(0.797447 0.00203863 0)
(0.801669 0.00171779 0)
(0.805335 0.00146681 0)
(0.808551 0.00127225 0)
(0.811411 0.00112433 0)
(0.813998 0.00101673 0)
(0.816389 0.000945878 0)
(0.818655 0.00090964 0)
(0.820865 0.000905287 0)
(0.823076 0.000928259 0)
(0.825339 0.000968338 0)
(0.827652 0.00100527 0)
(0.829945 0.000989951 0)
(0.831907 0.000828479 0)
(0.833017 0.00033649 0)
(0.831955 -0.000772993 0)
(0.827038 -0.00295403 0)
(0.814079 -0.00687273 0)
(0.789301 -0.0134325 0)
(0.740177 -0.0249119 0)
(0.660708 -0.0445987 0)
(0.503249 -0.0930408 0)
(0.372232 -0.143765 0)
)
;

boundaryField
{
    movingWall
    {
        type            fixedValue;
        value           uniform (1 0 0);
    }
    fixedWalls
    {
        type            noSlip;
    }
    frontAndBack
    {
        type            empty;
    }
}


// ************************************************************************* //
