1.45 	0 	0 	-0.00813482 	-0.0025862 	1.65344e-20
2.35 	0 	0 	0.0621267 	-0.00662894 	9.88745e-21
