/*--------------------------------*- C++ -*----------------------------------*\
  =========                 |
  \\      /  F ield         | OpenFOAM: The Open Source CFD Toolbox
   \\    /   O peration     | Website:  https://openfoam.org
    \\  /    A nd           | Version:  6.0
     \\/     M anipulation  |
\*---------------------------------------------------------------------------*/
FoamFile
{
    version     2.0;
    format      ascii;
    class       volVectorField;
    location    "154";
    object      U;
}
// * * * * * * * * * * * * * * * * * * * * * * * * * * * * * * * * * * * * * //

dimensions      [0 1 -1 0 0 0 0];

internalField   nonuniform List<vector> 
34500
(
(0.999996 7.4166e-06 -4.63411e-17)
(0.999968 -4.57452e-06 -8.13739e-18)
(0.999916 -2.94033e-05 1.42258e-16)
(0.999842 -7.43797e-05 -1.07696e-16)
(0.999757 -0.000145335 3.35715e-17)
(0.99967 -0.00024431 -1.01533e-16)
(0.99959 -0.000370355 -1.01052e-16)
(0.999526 -0.000521751 8.66638e-17)
(0.999484 -0.000694806 1.07338e-16)
(0.999467 -0.000893413 -6.83778e-16)
(0.999477 -0.00111259 -1.04176e-15)
(0.999503 -0.00141904 1.2714e-16)
(0.999556 -0.00172904 4.35467e-16)
(1.0001 -0.00258741 -2.08678e-16)
(0.991316 -0.00773291 8.03695e-17)
(0.999992 2.51091e-05 3.24538e-17)
(0.999941 -1.71125e-06 9.76574e-17)
(0.999845 -5.22071e-05 7.17726e-17)
(0.999714 -0.000140171 -3.02295e-16)
(0.999563 -0.000274715 -5.06084e-16)
(0.99941 -0.000458039 -5.50688e-17)
(0.999272 -0.000687629 2.55685e-16)
(0.999165 -0.000960044 -6.77812e-16)
(0.999099 -0.00126629 -1.78803e-16)
(0.999079 -0.00161218 6.82231e-16)
(0.999107 -0.00198089 1.26393e-15)
(0.999178 -0.00248863 -6.30457e-16)
(0.99918 -0.00296967 -9.87345e-16)
(1.00058 -0.00413716 -3.97675e-16)
(0.991225 -0.00939262 5.44243e-16)
(0.999989 4.45655e-05 1.04699e-17)
(0.999943 6.85694e-06 -1.22942e-16)
(0.999862 -5.18479e-05 -1.25195e-16)
(0.999751 -0.00014341 4.55795e-16)
(0.999626 -0.000274371 -2.86152e-17)
(0.999501 -0.00044473 -1.6408e-16)
(0.999393 -0.000651381 9.786e-17)
(0.999312 -0.00089149 3.8486e-16)
(0.999268 -0.00115465 2.59098e-19)
(0.999266 -0.00144625 -3.93372e-16)
(0.999301 -0.00174378 -7.28948e-16)
(0.999395 -0.00215244 4.14487e-16)
(0.999238 -0.00254018 2.25546e-16)
(1.00085 -0.00337669 1.65568e-16)
(0.994612 -0.00605269 -2.53415e-16)
(0.999986 6.46928e-05 -1.73585e-17)
(0.999946 1.46658e-05 -9.02543e-18)
(0.999882 -5.30419e-05 4.83313e-17)
(0.999795 -0.000147701 -3.05463e-16)
(0.999699 -0.000273563 3.72342e-16)
(0.999604 -0.000429099 3.3006e-16)
(0.999525 -0.000611621 -3.99656e-16)
(0.999468 -0.000819883 -4.20139e-16)
(0.999441 -0.00104442 4.35261e-16)
(0.999449 -0.0012927 -4.70894e-16)
(0.999478 -0.00154209 -2.44676e-16)
(0.999584 -0.00189064 -3.86002e-16)
(0.999282 -0.00226755 5.44026e-16)
(1.00069 -0.00292143 -4.83574e-17)
(0.996286 -0.00508187 2.22095e-17)
(0.99998 8.56172e-05 -1.70471e-17)
(0.999941 2.13899e-05 1.53348e-16)
(0.99988 -6.03166e-05 6.95694e-17)
(0.999798 -0.000167813 1.69798e-16)
(0.99971 -0.000304616 4.67593e-17)
(0.999623 -0.000468515 -1.58301e-16)
(0.999552 -0.000657129 1.02569e-16)
(0.999502 -0.000869974 2.66449e-16)
(0.999481 -0.00109811 -4.17953e-16)
(0.999493 -0.0013516 -2.31174e-16)
(0.999518 -0.00160744 1.00765e-15)
(0.999639 -0.0019633 6.35353e-16)
(0.999263 -0.00238834 -2.90657e-16)
(1.00032 -0.0029858 5.96463e-16)
(0.996985 -0.00495326 -6.04389e-16)
(0.999973 0.000107463 1.8356e-17)
(0.999932 2.85157e-05 -9.48305e-17)
(0.99987 -6.85396e-05 -1.86381e-16)
(0.999789 -0.00019135 -5.29505e-17)
(0.999702 -0.000343108 1.09465e-16)
(0.999618 -0.000521029 -1.08881e-16)
(0.999551 -0.000722495 1.48242e-16)
(0.999507 -0.000946679 1.31264e-16)
(0.999492 -0.00118421 2.91217e-16)
(0.999511 -0.00144643 -1.00341e-16)
(0.999536 -0.00170917 2.88221e-18)
(0.999678 -0.00206358 -3.89992e-16)
(0.999284 -0.00250942 1.83804e-17)
(0.999993 -0.00303355 -4.72345e-16)
(0.997387 -0.00453251 7.60672e-17)
(0.999965 0.000130103 3.25615e-18)
(0.999922 3.64802e-05 -3.55952e-17)
(0.999862 -7.52469e-05 -2.90259e-17)
(0.999785 -0.000211604 1.7579e-16)
(0.999703 -0.000375391 -2.2053e-16)
(0.999626 -0.000563327 2.75571e-16)
(0.999567 -0.00077243 -6.19553e-16)
(0.999532 -0.00100122 -3.70075e-16)
(0.999526 -0.00123972 -1.51712e-16)
(0.999555 -0.00149977 6.7201e-16)
(0.99958 -0.00175732 -7.69318e-16)
(0.999738 -0.00209133 2.98677e-16)
(0.999357 -0.00253514 4.57998e-16)
(0.99977 -0.00297336 -9.66161e-17)
(0.997626 -0.00409511 -1.23632e-16)
(0.999955 0.000153379 1.51194e-17)
(0.999912 4.50323e-05 3.22931e-17)
(0.999855 -8.10264e-05 2.50343e-17)
(0.999783 -0.000229971 -1.50909e-16)
(0.999709 -0.000404283 3.28981e-16)
(0.99964 -0.000600471 -1.39651e-16)
(0.99959 -0.000815372 2.0165e-16)
(0.999565 -0.001047 -1.46366e-16)
(0.999567 -0.00128493 3.97897e-16)
(0.999605 -0.00154132 1.77945e-16)
(0.99963 -0.00179365 2.45118e-16)
(0.999797 -0.00210737 -5.66367e-17)
(0.999447 -0.00254729 -5.06704e-16)
(0.999634 -0.00291772 1.14745e-15)
(0.997804 -0.00379139 1.906e-16)
(0.999944 0.000177202 -1.12181e-17)
(0.999901 5.40212e-05 9.89735e-17)
(0.999846 -8.65109e-05 1.5083e-16)
(0.999779 -0.000248215 1.11949e-16)
(0.999711 -0.00043337 -4.88841e-16)
(0.99965 -0.000638466 1.4103e-16)
(0.999608 -0.000860289 3.20892e-16)
(0.999593 -0.00109648 7.73033e-16)
(0.999602 -0.0013361 -3.85747e-16)
(0.999648 -0.00159137 9.01522e-17)
(0.999674 -0.00184167 4.49795e-16)
(0.999843 -0.00213903 -3.24505e-16)
(0.999536 -0.00257197 -1.54711e-16)
(0.999565 -0.00288864 -3.83926e-16)
(0.99799 -0.00354672 8.57346e-17)
(0.999932 0.000201515 4.0693e-17)
(0.999887 6.34829e-05 -8.97529e-17)
(0.999834 -9.16174e-05 8.85432e-18)
(0.999772 -0.00026625 -1.1021e-16)
(0.999711 -0.000462463 4.10784e-16)
(0.999658 -0.00067672 7.96481e-17)
(0.999624 -0.000905747 2.704e-16)
(0.999617 -0.00114686 -5.7351e-16)
(0.999635 -0.00138854 4.16281e-17)
(0.999689 -0.00164266 -7.87827e-17)
(0.999716 -0.0018906 -1.39906e-16)
(0.999885 -0.00217109 4.42408e-17)
(0.999625 -0.00258963 5.94943e-16)
(0.999548 -0.00285781 -8.10943e-16)
(0.998187 -0.00332382 -2.74467e-16)
(0.999918 0.000226261 -2.62266e-17)
(0.999872 7.34529e-05 3.5256e-17)
(0.999821 -9.61591e-05 -1.47559e-16)
(0.999764 -0.000283648 2.50024e-16)
(0.99971 -0.000490726 -3.6171e-16)
(0.999665 -0.000713698 -3.03231e-16)
(0.999641 -0.000949183 -3.39073e-16)
(0.999643 -0.00119428 3.91482e-17)
(0.999669 -0.00143696 -8.14949e-17)
(0.999732 -0.00168849 -4.25068e-16)
(0.999761 -0.00193256 -7.22437e-16)
(0.999926 -0.00219513 2.86574e-16)
(0.999711 -0.00259445 -3.29886e-16)
(0.999566 -0.00282023 9.14521e-16)
(0.99838 -0.00313156 5.46686e-17)
(0.999903 0.000251384 -2.45578e-17)
(0.999855 8.39139e-05 -1.04251e-16)
(0.999807 -0.000100139 1.5077e-16)
(0.999754 -0.000300454 -2.34234e-16)
(0.999708 -0.000518321 7.69034e-17)
(0.999672 -0.000749726 4.54437e-16)
(0.999658 -0.000991133 5.54322e-17)
(0.99967 -0.00123957 -6.74055e-17)
(0.999704 -0.00148268 1.81745e-16)
(0.999776 -0.00173104 -1.57131e-16)
(0.999809 -0.00197095 -9.52588e-17)
(0.999967 -0.00221663 -6.69629e-17)
(0.99979 -0.00259528 -2.8849e-16)
(0.999604 -0.00278603 -6.26489e-16)
(0.998563 -0.00297314 1.26192e-17)
(0.999886 0.000276836 -2.1769e-18)
(0.999838 9.48278e-05 1.40521e-16)
(0.999791 -0.00010364 -2.2157e-16)
(0.999743 -0.000316905 8.34357e-17)
(0.999704 -0.000545784 -9.36045e-17)
(0.999678 -0.00078579 -1.54849e-16)
(0.999672 -0.00103314 -3.89233e-17)
(0.999695 -0.0012849 3.65387e-16)
(0.999738 -0.0015286 -6.30982e-16)
(0.999818 -0.00177406 4.20903e-16)
(0.999855 -0.00201032 2.20959e-16)
(1.00001 -0.00224097 1.84601e-16)
(0.999862 -0.00259826 7.5308e-16)
(0.999653 -0.00275914 7.36005e-16)
(0.998735 -0.00284144 5.57193e-16)
(0.999868 0.000302579 8.30423e-18)
(0.999818 0.000106165 5.28858e-17)
(0.999774 -0.000106713 1.76106e-16)
(0.999729 -0.000333115 5.57895e-17)
(0.999697 -0.000573378 1.7072e-16)
(0.99968 -0.000822393 1.68157e-16)
(0.999685 -0.00107601 -1.18565e-17)
(0.999717 -0.00133133 4.93427e-17)
(0.999769 -0.00157596 9.38844e-16)
(0.999858 -0.00181886 -1.14087e-16)
(0.999901 -0.00205182 5.43313e-16)
(1.00004 -0.00226886 -7.41211e-16)
(0.999926 -0.00260373 1.37647e-16)
(0.999707 -0.00273736 -1.35562e-15)
(0.998895 -0.00272931 -6.25564e-16)
(0.999849 0.000328577 9.94089e-18)
(0.999798 0.000117896 -1.17702e-16)
(0.999755 -0.000109378 1.54829e-16)
(0.999714 -0.000349086 -2.24183e-16)
(0.999689 -0.000601104 1.56911e-16)
(0.99968 -0.000859581 2.07315e-17)
(0.999694 -0.00111985 1.95167e-16)
(0.999737 -0.00137904 -2.60258e-16)
(0.999797 -0.00162486 -8.4006e-16)
(0.999895 -0.00186538 2.4966e-16)
(0.999945 -0.002095 -5.61394e-16)
(1.00008 -0.00229925 1.13157e-16)
(0.999986 -0.00261057 -4.92615e-16)
(0.999764 -0.00271834 2.67804e-16)
(0.999046 -0.00263208 -1.10024e-16)
(0.999829 0.000354799 3.3242e-17)
(0.999776 0.000129992 7.18989e-17)
(0.999734 -0.000111647 -3.59044e-16)
(0.999697 -0.000364774 2.88485e-16)
(0.999678 -0.000628845 -2.80088e-16)
(0.999677 -0.000897193 -3.73197e-16)
(0.999701 -0.00116453 -3.83227e-16)
(0.999754 -0.00142788 3.37923e-16)
(0.999824 -0.00167513 7.19743e-16)
(0.99993 -0.00191332 1.63278e-16)
(0.999988 -0.00213928 9.49096e-17)
(1.00012 -0.00233117 7.02952e-17)
(1.00004 -0.00261795 -7.36469e-16)
(0.999823 -0.00270061 6.48991e-17)
(0.999189 -0.00254618 6.4104e-16)
(0.999808 0.000381215 -8.9669e-17)
(0.999753 0.000142419 -9.24122e-17)
(0.999712 -0.000113538 3.42935e-17)
(0.999679 -0.000380122 -2.64432e-16)
(0.999665 -0.00065642 -1.79746e-17)
(0.999673 -0.000934923 4.81939e-16)
(0.999706 -0.00120964 5.51129e-17)
(0.999769 -0.0014774 3.04371e-16)
(0.999848 -0.00172623 -6.03587e-16)
(0.999964 -0.00196204 -3.10149e-16)
(1.00003 -0.00218383 4.45544e-16)
(1.00015 -0.00236348 -1.49512e-16)
(1.0001 -0.00262493 4.85996e-16)
(0.999884 -0.00268292 7.55262e-16)
(0.999325 -0.00246885 -6.05875e-17)
(0.999785 0.000407801 2.80912e-17)
(0.999728 0.000155146 1.14774e-17)
(0.999689 -0.000115068 1.15647e-16)
(0.999659 -0.000395062 2.25976e-18)
(0.999652 -0.000683606 9.89071e-17)
(0.999667 -0.000972358 -2.89803e-16)
(0.99971 -0.0012546 5.98679e-16)
(0.999782 -0.00152685 -1.53627e-16)
(0.999871 -0.00177726 6.5325e-16)
(0.999996 -0.0020105 -3.41856e-16)
(1.00007 -0.00222749 -5.44615e-16)
(1.0002 -0.00239487 5.26061e-16)
(1.00015 -0.0026305 -8.88428e-16)
(0.999947 -0.00266434 -1.3121e-15)
(0.999455 -0.0023986 -3.33431e-16)
(0.999762 0.000434538 3.12768e-18)
(0.999702 0.00016814 1.95016e-17)
(0.999665 -0.000116268 -3.12223e-17)
(0.999638 -0.000409559 1.5872e-16)
(0.999637 -0.000710226 1.08871e-16)
(0.999661 -0.00100912 -4.26961e-17)
(0.999712 -0.00129883 -3.60864e-16)
(0.999795 -0.00157548 -3.47927e-16)
(0.999894 -0.00182733 -2.35228e-16)
(1.00003 -0.00205773 4.33609e-16)
(1.00012 -0.0022693 3.36156e-16)
(1.00024 -0.00242443 -4.94634e-16)
(1.00021 -0.00263431 1.10051e-15)
(1.00001 -0.00264498 1.38234e-15)
(0.999578 -0.0023352 4.68835e-17)
(0.999737 0.000461413 3.57639e-17)
(0.999675 0.00018137 -4.76053e-17)
(0.999639 -0.000117182 2.29488e-16)
(0.999617 -0.000423633 -4.57101e-17)
(0.999622 -0.000736218 -1.74474e-16)
(0.999654 -0.00104504 7.39763e-17)
(0.999715 -0.00134202 -1.298e-16)
(0.999808 -0.00162288 2.93757e-16)
(0.999917 -0.00187598 7.72366e-17)
(1.00006 -0.00210335 5.40101e-17)
(1.00016 -0.00230904 -2.57806e-16)
(1.00028 -0.00245216 3.42482e-16)
(1.00026 -0.00263693 1.7483e-16)
(1.00008 -0.00262579 1.5657e-16)
(0.999697 -0.00227894 3.97975e-16)
(0.999711 0.000488425 -1.83857e-17)
(0.999647 0.000194811 2.72515e-17)
(0.999613 -0.000117866 -3.71999e-16)
(0.999594 -0.000437359 -2.3802e-16)
(0.999606 -0.000761659 3.29455e-16)
(0.999646 -0.00108016 -8.92007e-17)
(0.999717 -0.0013842 5.21127e-16)
(0.999821 -0.00166911 -1.41512e-16)
(0.99994 -0.00192334 -7.51949e-18)
(1.00009 -0.0021476 -1.50188e-16)
(1.0002 -0.00234721 3.85832e-16)
(1.00033 -0.0024788 -2.43375e-16)
(1.00032 -0.00263949 -8.01199e-16)
(1.00015 -0.00260803 -1.91124e-16)
(0.99981 -0.00223003 -4.54383e-16)
(0.999684 0.000515584 2.47497e-17)
(0.999617 0.000208447 1.12589e-16)
(0.999585 -0.000118375 3.35286e-16)
(0.99957 -0.000450843 2.6024e-16)
(0.999589 -0.000786713 -3.20823e-17)
(0.999638 -0.0011147 -1.30338e-16)
(0.999719 -0.00142567 -5.76909e-16)
(0.999833 -0.00171454 -6.70856e-17)
(0.999963 -0.0019699 -3.42793e-16)
(1.00013 -0.00219117 1.11057e-16)
(1.00025 -0.0023847 -7.07196e-16)
(1.00038 -0.00250536 3.41392e-16)
(1.00038 -0.00264311 1.15415e-15)
(1.00022 -0.00259268 -8.91642e-16)
(0.999921 -0.0021882 5.29442e-16)
(0.999656 0.000542911 -1.99567e-17)
(0.999586 0.000222274 -1.58416e-16)
(0.999556 -0.00011875 -1.91892e-16)
(0.999545 -0.000464187 -9.57153e-17)
(0.999571 -0.000811568 -6.13053e-17)
(0.999629 -0.00114896 8.41725e-17)
(0.999719 -0.00146682 -3.22362e-17)
(0.999844 -0.00175968 -4.4285e-16)
(0.999985 -0.00201628 -1.30371e-16)
(1.00016 -0.00223476 -3.28366e-17)
(1.00029 -0.00242234 6.43684e-16)
(1.00042 -0.00253267 1.07734e-16)
(1.00044 -0.00264858 -9.59513e-16)
(1.00029 -0.00258021 5.10152e-16)
(1.00003 -0.00215282 -1.02445e-16)
(0.999627 0.00057044 1.80273e-17)
(0.999554 0.000236303 9.31438e-17)
(0.999525 -0.000119008 9.23578e-17)
(0.999519 -0.000477464 1.7963e-16)
(0.999552 -0.000836377 -9.78775e-17)
(0.999618 -0.00118317 -2.75332e-17)
(0.999719 -0.00150798 1.98958e-16)
(0.999854 -0.00180494 2.97346e-16)
(1.00001 -0.00206295 -2.14301e-17)
(1.00019 -0.00227893 -3.59156e-16)
(1.00033 -0.0024607 -2.76204e-16)
(1.00047 -0.00256119 -4.85847e-16)
(1.0005 -0.00265623 2.04073e-17)
(1.00037 -0.00257067 2.64106e-16)
(1.00014 -0.00212308 -1.60078e-16)
(0.999597 0.000598211 -9.63913e-18)
(0.99952 0.000250553 -5.51201e-17)
(0.999493 -0.000119144 1.40262e-16)
(0.999491 -0.000490706 1.47113e-17)
(0.99953 -0.000861235 -1.24595e-16)
(0.999605 -0.00121751 1.00484e-16)
(0.999716 -0.00154937 -4.80062e-17)
(0.999863 -0.0018506 2.74157e-16)
(1.00003 -0.00211021 5.06655e-16)
(1.00022 -0.00232396 7.87044e-17)
(1.00037 -0.00250005 2.38351e-16)
(1.00052 -0.00259109 2.42761e-16)
(1.00056 -0.00266605 5.99926e-17)
(1.00044 -0.00256388 -5.43425e-16)
(1.00024 -0.00209817 1.31918e-16)
(0.999566 0.000626273 1.29115e-17)
(0.999485 0.000265055 1.16092e-17)
(0.999459 -0.000119132 -2.86551e-16)
(0.999461 -0.000503908 -1.25195e-16)
(0.999507 -0.00088618 1.76027e-16)
(0.999591 -0.00125205 -2.748e-17)
(0.999712 -0.00159113 1.8381e-16)
(0.99987 -0.00189678 -2.44173e-16)
(1.00004 -0.00215818 1.39215e-16)
(1.00025 -0.00236992 1.15818e-16)
(1.00041 -0.00254042 1.22303e-16)
(1.00057 -0.00262228 1.55722e-16)
(1.00062 -0.00267789 2.16693e-16)
(1.00052 -0.00255955 3.05478e-17)
(1.00035 -0.00207735 7.75651e-17)
(0.999534 0.000654674 -3.97255e-17)
(0.999449 0.000279845 1.05128e-16)
(0.999424 -0.000118936 1.64532e-16)
(0.999429 -0.000517039 -1.05327e-16)
(0.999482 -0.000911205 -6.84794e-17)
(0.999575 -0.00128683 3.89801e-17)
(0.999706 -0.00163329 -2.00246e-16)
(0.999875 -0.00194354 -1.31044e-16)
(1.00006 -0.00220688 -1.7216e-16)
(1.00027 -0.00241681 2.73694e-16)
(1.00045 -0.00258178 -3.79847e-16)
(1.00062 -0.00265464 2.96856e-16)
(1.00069 -0.00269155 1.45532e-16)
(1.0006 -0.00255742 5.45415e-16)
(1.00045 -0.00206001 -4.99509e-16)
(0.9995 0.000683466 1.67625e-17)
(0.999411 0.000294959 -7.91274e-17)
(0.999387 -0.000118511 5.79368e-17)
(0.999396 -0.000530052 1.28151e-16)
(0.999456 -0.000936278 -8.88512e-17)
(0.999557 -0.00132183 -1.50175e-16)
(0.999698 -0.00167587 -7.11098e-17)
(0.999878 -0.00199088 9.80089e-17)
(1.00008 -0.00225629 -4.48395e-16)
(1.0003 -0.00246457 6.61756e-17)
(1.00049 -0.00262403 2.52381e-16)
(1.00066 -0.00268803 -7.05754e-16)
(1.00075 -0.00270683 1.42629e-16)
(1.00068 -0.00255725 2.18703e-17)
(1.00055 -0.00204564 3.68211e-16)
(0.999465 0.000712696 -6.37253e-18)
(0.999371 0.000310435 9.69782e-17)
(0.999348 -0.000117814 -9.36976e-17)
(0.999361 -0.000542898 -5.81597e-17)
(0.999427 -0.000961354 -9.27635e-17)
(0.999537 -0.00135702 -4.90596e-17)
(0.999689 -0.00171884 -1.05793e-16)
(0.99988 -0.00203878 7.55418e-17)
(1.00009 -0.00230639 2.90586e-17)
(1.00032 -0.00251314 -3.1057e-16)
(1.00053 -0.0026671 -3.70631e-16)
(1.00071 -0.00272233 4.11362e-16)
(1.00081 -0.00272355 -3.59373e-16)
(1.00076 -0.00255881 -1.14564e-16)
(1.00066 -0.00203383 -1.12786e-17)
(0.999429 0.000742408 -1.92827e-17)
(0.999331 0.000326308 -4.47994e-17)
(0.999308 -0.000116804 3.1642e-17)
(0.999325 -0.000555524 2.25491e-16)
(0.999397 -0.000986375 3.76593e-16)
(0.999516 -0.00139237 3.07466e-16)
(0.999678 -0.00176217 3.3596e-16)
(0.999881 -0.00208722 -2.14357e-16)
(1.0001 -0.00235714 6.94969e-20)
(1.00035 -0.00256245 2.32583e-16)
(1.00057 -0.00271089 4.58159e-17)
(1.00076 -0.0027574 2.52758e-16)
(1.00087 -0.00274155 2.03271e-16)
(1.00084 -0.00256189 -5.33158e-16)
(1.00076 -0.00202416 -3.49995e-16)
(0.999391 0.000772642 9.92112e-18)
(0.999289 0.000342607 -8.09704e-17)
(0.999267 -0.000115449 -1.61969e-16)
(0.999287 -0.000567887 -1.58999e-16)
(0.999366 -0.00101129 1.46133e-17)
(0.999493 -0.0014278 -1.73584e-16)
(0.999666 -0.00180579 -3.77979e-16)
(0.99988 -0.00213614 2.88532e-16)
(1.00011 -0.00240845 2.34704e-16)
(1.00037 -0.00261242 -5.17634e-16)
(1.00061 -0.00275531 4.24762e-16)
(1.00081 -0.00279313 -3.09797e-16)
(1.00094 -0.00276065 -1.42907e-16)
(1.00093 -0.0025663 -1.25078e-16)
(1.00087 -0.00201636 1.49079e-16)
(0.999352 0.000803431 3.77656e-17)
(0.999245 0.000359361 1.73739e-17)
(0.999224 -0.000113725 8.76024e-17)
(0.999248 -0.000579951 4.06955e-17)
(0.999333 -0.00103603 4.78809e-17)
(0.999468 -0.00146324 3.00209e-16)
(0.999652 -0.00184963 -1.35657e-16)
(0.999878 -0.00218543 1.48253e-16)
(1.00013 -0.00246024 8.5135e-17)
(1.0004 -0.00266292 5.93451e-17)
(1.00064 -0.00280025 1.97768e-16)
(1.00086 -0.00282937 -4.21844e-17)
(1.001 -0.00278069 9.38207e-18)
(1.00101 -0.00257187 8.72331e-16)
(1.00097 -0.00201027 2.77377e-18)
(0.999311 0.000834806 -3.66567e-17)
(0.999201 0.000376589 -1.26617e-17)
(0.99918 -0.000111619 5.72736e-17)
(0.999207 -0.000591698 -1.74635e-16)
(0.999298 -0.00106057 -2.79733e-16)
(0.999443 -0.00149862 -2.68045e-16)
(0.999637 -0.00189358 2.27133e-16)
(0.999875 -0.00223499 -8.30816e-17)
(1.00014 -0.00251238 9.68915e-18)
(1.00042 -0.00271383 -5.01957e-18)
(1.00068 -0.00284558 -2.73173e-16)
(1.00091 -0.00286602 -2.46992e-16)
(1.00106 -0.0028016 -1.59379e-16)
(1.00109 -0.00257858 2.42017e-17)
(1.00107 -0.00200588 -5.45821e-17)
(0.999268 0.000866794 -1.83001e-17)
(0.999154 0.000394308 4.84397e-17)
(0.999135 -0.000109127 4.76593e-17)
(0.999165 -0.000603122 7.75635e-17)
(0.999262 -0.00108488 1.06095e-16)
(0.999416 -0.00153388 1.67678e-18)
(0.99962 -0.00193756 2.27029e-16)
(0.999871 -0.00228471 -5.06287e-16)
(1.00014 -0.00256474 2.58213e-16)
(1.00044 -0.00276502 2.634e-16)
(1.00071 -0.00289122 -3.76943e-16)
(1.00096 -0.00290304 7.0427e-16)
(1.00113 -0.00282335 3.70967e-16)
(1.00117 -0.00258644 -6.91811e-16)
(1.00117 -0.00200326 -2.05761e-16)
(0.999224 0.000899416 3.78431e-17)
(0.999107 0.000412529 2.93887e-17)
(0.999088 -0.000106257 4.58887e-18)
(0.999121 -0.000614242 -3.47702e-17)
(0.999225 -0.00110897 2.01703e-17)
(0.999387 -0.00156901 2.84616e-16)
(0.999603 -0.00198151 -4.58815e-17)
(0.999867 -0.00233451 3.24898e-16)
(1.00015 -0.00261726 -4.80853e-17)
(1.00046 -0.00281646 -2.91345e-16)
(1.00075 -0.00293716 6.03028e-16)
(1.00101 -0.00294047 -3.62044e-16)
(1.00119 -0.00284602 -4.90421e-16)
(1.00126 -0.00259561 2.07462e-16)
(1.00128 -0.00200256 3.46727e-16)
(0.999178 0.000932693 -3.14696e-17)
(0.999057 0.000431261 -1.32684e-17)
(0.999039 -0.000103022 -1.73026e-16)
(0.999076 -0.000625093 -8.45654e-17)
(0.999187 -0.00113288 5.20817e-17)
(0.999358 -0.00160404 -2.87327e-16)
(0.999585 -0.00202546 -8.44713e-17)
(0.999861 -0.00238439 2.83161e-16)
(1.00016 -0.00266994 -2.39512e-16)
(1.00048 -0.00286816 7.0254e-17)
(1.00079 -0.0029835 -3.35784e-16)
(1.00105 -0.00297847 1.05671e-17)
(1.00126 -0.00286981 2.65431e-16)
(1.00134 -0.00260629 1.39757e-16)
(1.00137 -0.00200393 -5.44373e-17)
(0.999131 0.000966639 3.00209e-17)
(0.999006 0.000450509 -9.74172e-17)
(0.998989 -9.94452e-05 8.17779e-17)
(0.99903 -0.000635734 5.35279e-17)
(0.999147 -0.00115669 -4.03619e-17)
(0.999328 -0.00163907 -1.7259e-16)
(0.999566 -0.00206949 5.23342e-17)
(0.999854 -0.00243448 -1.29821e-16)
(1.00017 -0.00272291 -2.18915e-16)
(1.0005 -0.0029203 -2.73634e-17)
(1.00082 -0.00303044 -4.85246e-16)
(1.0011 -0.00301729 4.96787e-16)
(1.00132 -0.00289498 3.86337e-17)
(1.00142 -0.00261875 -7.97795e-17)
(1.00147 -0.00200747 -7.75758e-18)
(0.999082 0.00100127 -3.68215e-17)
(0.998954 0.000470277 1.00284e-16)
(0.998937 -9.55483e-05 -2.30377e-17)
(0.998982 -0.000646226 -2.09876e-16)
(0.999106 -0.00118051 -1.00005e-16)
(0.999296 -0.00167424 1.16183e-16)
(0.999545 -0.0021138 -1.70492e-16)
(0.999847 -0.00248495 -1.90995e-16)
(1.00018 -0.0027764 3.25086e-16)
(1.00052 -0.00297312 1.13141e-16)
(1.00086 -0.00307826 5.09151e-16)
(1.00115 -0.00305721 -3.83098e-16)
(1.00139 -0.00292177 1.37732e-16)
(1.0015 -0.00263316 -1.5517e-16)
(1.00157 -0.00201316 5.17076e-18)
(0.999031 0.0010366 2.27904e-17)
(0.9989 0.000490568 -5.80326e-17)
(0.998883 -9.13525e-05 7.20884e-17)
(0.998932 -0.000656635 3.12713e-16)
(0.999063 -0.00120447 1.3271e-16)
(0.999262 -0.00170972 8.23396e-17)
(0.999524 -0.00215858 3.38632e-16)
(0.999838 -0.00253606 1.60943e-16)
(1.00018 -0.00283066 -2.65121e-16)
(1.00054 -0.00302689 4.5182e-16)
(1.00089 -0.00312724 2.51331e-16)
(1.0012 -0.00309851 -2.12793e-16)
(1.00145 -0.00295037 -4.07225e-16)
(1.00159 -0.00264959 -1.58334e-16)
(1.00167 -0.00202086 6.10899e-17)
(0.998979 0.00107264 4.67945e-18)
(0.998844 0.000511386 -1.23638e-16)
(0.998828 -8.68702e-05 -9.17573e-17)
(0.99888 -0.000667008 -2.15318e-16)
(0.999019 -0.00122865 3.45878e-17)
(0.999227 -0.00174568 -3.34378e-16)
(0.9995 -0.00220404 -3.59507e-16)
(0.999828 -0.00258804 -1.44625e-16)
(1.00019 -0.00288595 3.08148e-16)
(1.00056 -0.00308186 -3.2738e-16)
(1.00093 -0.00317761 1.1579e-16)
(1.00125 -0.00314133 2.15333e-16)
(1.00151 -0.00298083 3.27058e-16)
(1.00167 -0.002668 1.99692e-16)
(1.00176 -0.00203035 1.6943e-17)
(0.998925 0.00110939 3.2892e-17)
(0.998787 0.000532731 2.02075e-16)
(0.998771 -8.21074e-05 9.40523e-17)
(0.998827 -0.000677374 1.80759e-16)
(0.998972 -0.00125313 1.08308e-16)
(0.99919 -0.00178222 4.56641e-17)
(0.999475 -0.00225034 5.26784e-17)
(0.999816 -0.00264107 -1.21041e-16)
(1.00019 -0.00294246 -1.22759e-16)
(1.00058 -0.00313821 1.43884e-17)
(1.00096 -0.00322948 -7.9121e-16)
(1.0013 -0.00318576 -3.09117e-16)
(1.00158 -0.00301313 3.2519e-16)
(1.00175 -0.00268826 -7.25598e-17)
(1.00186 -0.00204134 -2.00806e-16)
(0.99887 0.00114685 -4.42084e-17)
(0.998728 0.000554608 -1.29494e-16)
(0.998712 -7.70591e-05 -1.8598e-16)
(0.998771 -0.000687736 6.11017e-17)
(0.998923 -0.00127793 -2.05482e-16)
(0.999151 -0.00181938 3.82804e-17)
(0.999448 -0.00229754 -4.73844e-17)
(0.999802 -0.00269522 -8.64958e-18)
(1.00019 -0.00300025 -1.46688e-16)
(1.0006 -0.00319595 -7.69272e-17)
(1.00099 -0.00328285 2.72502e-17)
(1.00135 -0.00323171 2.68443e-16)
(1.00164 -0.0030471 -1.35362e-16)
(1.00183 -0.00271013 2.67342e-16)
(1.00195 -0.00205357 9.44108e-17)
(0.998812 0.00118503 2.36277e-17)
(0.998667 0.000577014 1.24054e-16)
(0.998651 -7.17176e-05 2.36282e-16)
(0.998714 -0.000698074 -6.82775e-17)
(0.998872 -0.00130301 -1.65658e-17)
(0.99911 -0.00185714 2.50841e-16)
(0.999419 -0.00234561 2.1331e-16)
(0.999787 -0.00275047 -1.4617e-16)
(1.00019 -0.00305928 3.91653e-16)
(1.00061 -0.00325504 3.55377e-16)
(1.00102 -0.00333761 3.77983e-16)
(1.00139 -0.00327903 -1.74602e-17)
(1.00171 -0.00308255 -3.00063e-16)
(1.00191 -0.00273341 -3.1528e-16)
(1.00205 -0.00206679 -3.03555e-17)
(0.998754 0.00122393 -2.02461e-17)
(0.998605 0.000599946 -6.55098e-17)
(0.998589 -6.60724e-05 -1.9584e-16)
(0.998655 -0.000708358 1.26044e-16)
(0.99882 -0.00132832 1.20948e-16)
(0.999067 -0.00189543 -1.67954e-16)
(0.999388 -0.00239446 -8.47969e-17)
(0.999771 -0.00280672 8.38562e-18)
(1.00019 -0.00311944 -1.74059e-16)
(1.00063 -0.00331532 -3.04488e-16)
(1.00106 -0.0033936 -5.61945e-16)
(1.00144 -0.00332755 6.0707e-17)
(1.00177 -0.00311926 3.66331e-16)
(1.002 -0.00275787 3.31823e-16)
(1.00214 -0.00208087 -6.97333e-17)
(0.998693 0.00126352 -1.61111e-17)
(0.998541 0.000623391 -1.31772e-17)
(0.998525 -6.0121e-05 1.71378e-16)
(0.998594 -0.000718559 -1.61713e-16)
(0.998766 -0.00135381 -3.19572e-16)
(0.999022 -0.00193414 1.551e-16)
(0.999356 -0.00244398 8.80193e-17)
(0.999753 -0.00286382 4.07618e-16)
(1.00019 -0.00318058 5.82867e-17)
(1.00064 -0.00337665 2.83507e-16)
(1.00109 -0.00345067 8.42055e-16)
(1.00149 -0.00337711 -2.3108e-16)
(1.00183 -0.00315711 -9.8114e-17)
(1.00208 -0.00278342 -1.15866e-17)
(1.00224 -0.00209573 -2.77674e-17)
(0.998631 0.00130381 4.50576e-17)
(0.998475 0.000647338 4.92312e-17)
(0.998459 -5.38664e-05 -1.47394e-16)
(0.998531 -0.000728656 1.36931e-16)
(0.99871 -0.00137941 -9.21679e-17)
(0.998976 -0.0019732 -2.96757e-16)
(0.999322 -0.00249405 1.30419e-17)
(0.999734 -0.00292165 -3.50612e-17)
(1.00018 -0.00324255 -2.16171e-16)
(1.00066 -0.00343888 1.82246e-16)
(1.00112 -0.00350867 -7.85983e-16)
(1.00154 -0.0034276 -1.43084e-17)
(1.0019 -0.00319597 -1.75242e-16)
(1.00216 -0.00280995 3.27384e-17)
(1.00234 -0.00211137 -8.22453e-17)
(0.998567 0.00134478 -1.14978e-17)
(0.998408 0.000671764 -1.17304e-17)
(0.998391 -4.7326e-05 2.03955e-17)
(0.998467 -0.000738652 -1.52273e-16)
(0.998652 -0.00140511 -2.73383e-17)
(0.998929 -0.00201254 3.62353e-16)
(0.999288 -0.00254459 -2.641e-16)
(0.999714 -0.00298011 -3.27144e-16)
(1.00018 -0.00330527 3.50331e-16)
(1.00067 -0.00350193 -3.17019e-16)
(1.00115 -0.00356754 4.0131e-16)
(1.00158 -0.00347896 3.79764e-16)
(1.00196 -0.00323583 2.73604e-16)
(1.00224 -0.00283749 -1.82097e-16)
(1.00243 -0.00212787 -6.19821e-17)
(0.998501 0.00138643 -1.23998e-17)
(0.998338 0.000696648 -7.19771e-17)
(0.998322 -4.0525e-05 -9.69224e-17)
(0.998401 -0.00074857 7.11399e-17)
(0.998594 -0.00143091 1.80309e-16)
(0.99888 -0.00205217 6.3247e-17)
(0.999252 -0.00259559 2.45442e-16)
(0.999693 -0.00303917 5.36525e-17)
(1.00018 -0.0033687 -4.60605e-16)
(1.00068 -0.00356577 1.61203e-16)
(1.00118 -0.00362728 -2.27917e-16)
(1.00163 -0.00353123 -1.89355e-16)
(1.00203 -0.00327672 -2.55122e-16)
(1.00232 -0.00286607 4.03225e-17)
(1.00253 -0.00214533 1.49684e-16)
(0.998434 0.00142872 -1.90325e-17)
(0.998268 0.000721964 3.4283e-17)
(0.998251 -3.34989e-05 4.13913e-17)
(0.998334 -0.000758452 -1.42588e-16)
(0.998533 -0.00145686 6.95881e-17)
(0.99883 -0.00209212 -2.11151e-16)
(0.999214 -0.00264707 -2.58685e-17)
(0.999671 -0.00309888 3.17629e-16)
(1.00017 -0.0034329 -2.02621e-16)
(1.0007 -0.00363046 -2.67888e-16)
(1.00121 -0.00368797 2.30143e-16)
(1.00168 -0.00358449 -6.83344e-17)
(1.00209 -0.00331875 -7.22868e-16)
(1.00241 -0.00289583 7.37687e-17)
(1.00262 -0.0021639 1.07664e-16)
(0.998365 0.00147166 -9.79629e-18)
(0.998195 0.000747688 3.34398e-17)
(0.998179 -2.6284e-05 1.25988e-17)
(0.998265 -0.00076835 1.90078e-17)
(0.998471 -0.00148302 1.20084e-16)
(0.998778 -0.00213246 6.6733e-17)
(0.999176 -0.00269912 -2.19808e-16)
(0.999648 -0.00315931 -2.00747e-17)
(1.00017 -0.00349794 6.06885e-16)
(1.00071 -0.00369611 -1.94684e-16)
(1.00124 -0.0037497 -5.72615e-18)
(1.00173 -0.00363886 2.8807e-17)
(1.00216 -0.00336202 2.783e-17)
(1.00249 -0.00292688 -5.10744e-17)
(1.00272 -0.00218371 1.69929e-17)
(0.998293 0.00151523 2.58154e-17)
(0.99812 0.000773798 -6.82108e-17)
(0.998104 -1.89189e-05 -7.7914e-17)
(0.998194 -0.000778325 1.49936e-19)
(0.998408 -0.00150947 -1.81323e-16)
(0.998725 -0.00217331 -2.89581e-17)
(0.999136 -0.00275185 4.2681e-17)
(0.999623 -0.00322058 -4.83354e-17)
(1.00016 -0.00356396 -4.10877e-16)
(1.00072 -0.00376284 5.4717e-16)
(1.00127 -0.00381263 -3.12343e-17)
(1.00178 -0.00369451 -5.72099e-17)
(1.00222 -0.00340671 3.37317e-16)
(1.00257 -0.00295938 -3.78359e-16)
(1.00281 -0.00220487 7.97912e-18)
(0.99822 0.00155942 2.73909e-18)
(0.998044 0.000800273 8.18293e-17)
(0.998028 -1.14358e-05 2.19919e-16)
(0.998121 -0.000788429 -5.54628e-17)
(0.998342 -0.0015363 1.17839e-16)
(0.99867 -0.00221474 -1.83125e-16)
(0.999095 -0.00280537 -2.19328e-16)
(0.999598 -0.00328282 5.26748e-18)
(1.00015 -0.00363109 2.39226e-16)
(1.00073 -0.00383081 -4.77566e-16)
(1.0013 -0.00387692 1.18986e-16)
(1.00182 -0.00375158 -2.06868e-17)
(1.00229 -0.00345295 2.60571e-16)
(1.00265 -0.00299344 8.05347e-17)
(1.00291 -0.00222747 -1.25246e-16)
(0.998145 0.00160421 1.05257e-18)
(0.997966 0.000827097 -8.8812e-17)
(0.997949 -3.86405e-06 -1.25514e-16)
(0.998047 -0.000798712 2.07751e-17)
(0.998275 -0.00156357 -2.18925e-17)
(0.998614 -0.00225687 1.66226e-16)
(0.999053 -0.0028598 3.60105e-16)
(0.999572 -0.00334618 -3.19463e-16)
(1.00014 -0.0036995 3.63448e-16)
(1.00074 -0.00390018 3.21351e-17)
(1.00133 -0.00394274 7.13318e-17)
(1.00187 -0.00381026 -1.37806e-16)
(1.00235 -0.00350089 2.66134e-16)
(1.00274 -0.00302919 1.50849e-16)
(1.003 -0.00225152 1.96737e-16)
(0.998068 0.0016496 -8.6085e-18)
(0.997885 0.000854257 8.47173e-17)
(0.997869 3.77609e-06 1.54597e-16)
(0.99797 -0.000809211 5.34173e-17)
(0.998206 -0.00159134 1.56246e-16)
(0.998556 -0.00229977 1.20009e-16)
(0.999008 -0.00291525 -3.23379e-16)
(0.999544 -0.00341076 6.47977e-16)
(1.00013 -0.0037693 -2.03865e-16)
(1.00075 -0.0039711 -6.78319e-17)
(1.00136 -0.00401021 -2.45582e-16)
(1.00192 -0.00387067 -1.0788e-16)
(1.00242 -0.00355063 -2.96164e-16)
(1.00282 -0.00306667 -1.09133e-16)
(1.00309 -0.00227697 4.73101e-17)
(0.99799 0.00169557 -3.0571e-17)
(0.997803 0.00088174 -9.05981e-17)
(0.997787 1.14667e-05 -1.08422e-17)
(0.997891 -0.000819955 1.06264e-16)
(0.998135 -0.00161965 -1.42195e-16)
(0.998496 -0.0023435 -1.04424e-16)
(0.998962 -0.0029718 4.04665e-16)
(0.999514 -0.00347667 -1.20882e-16)
(1.00012 -0.00384063 -5.16524e-16)
(1.00076 -0.00404368 7.1104e-17)
(1.00139 -0.00407947 -1.24688e-16)
(1.00197 -0.00393291 2.30756e-16)
(1.00249 -0.0036022 3.69714e-16)
(1.0029 -0.00310586 3.29378e-16)
(1.00319 -0.00230371 -2.75685e-16)
(0.997909 0.00174212 1.83353e-18)
(0.997719 0.000909537 -1.74755e-17)
(0.997702 1.91963e-05 -7.23405e-17)
(0.99781 -0.000830964 4.5095e-17)
(0.998061 -0.00164855 -7.88442e-17)
(0.998433 -0.00238812 1.34485e-16)
(0.998915 -0.00302951 -1.1628e-16)
(0.999484 -0.003544 3.99086e-17)
(1.00011 -0.00391357 -1.08261e-16)
(1.00077 -0.00411801 2.75498e-16)
(1.00141 -0.00415058 3.37171e-16)