1.45 	0 	0 	-0.303941
2.35 	0 	0 	-0.134572
