1.45 	0 	0 	-0.00815041 	-0.00256864 	3.78182e-21
2.35 	0 	0 	0.0613318 	-0.00662882 	2.28349e-21
