1.275 	2.15223e-18 	-2.76991e-20 	-0.0336865 	-0.000451415 	-2.0028e-22
1.825 	2.15223e-18 	-1.39322e-20 	-0.00808756 	-0.00281951 	1.80134e-21
2.375 	2.15223e-18 	-2.66896e-23 	0.119164 	-0.0033578 	-7.51588e-22
