/*--------------------------------*- C++ -*----------------------------------*\
  =========                 |
  \\      /  F ield         | OpenFOAM: The Open Source CFD Toolbox
   \\    /   O peration     | Website:  https://openfoam.org
    \\  /    A nd           | Version:  6.0
     \\/     M anipulation  |
\*---------------------------------------------------------------------------*/
FoamFile
{
    version     2.0;
    format      ascii;
    class       volScalarField;
    location    "0.1";
    object      p;
}
// * * * * * * * * * * * * * * * * * * * * * * * * * * * * * * * * * * * * * //

dimensions      [0 2 -2 0 0 0 0];

internalField   nonuniform List<scalar> 
3200
(
-0.00019972
1.92883
-3.55876
-9.94334
-16.5411
-25.6413
-38.0552
-54.0641
-73.7198
-96.954
-123.637
-151.923
-179.96
-205.516
-226.598
-242.38
-253.38
-261.525
-269.319
-278.554
-289.854
-303.245
-318.588
-335.336
-352.53
-369.349
-385.378
-400.497
-414.836
-428.757
-442.817
-457.673
-473.788
-491.172
-509.626
-529.228
-550.366
-573.198
-597.189
-621.188
-643.956
-664.74
-683.565
-701.008
-717.533
-732.935
-746.477
-757.58
-766.358
-773.51
-779.903
-786.458
-794.437
-805.616
-821.962
-844.936
-874.934
-911.183
-952.05
-995.561
-1040
-1084.39
-1128.42
-1171.95
-1214.6
-1255.74
-1294.64
-1330.34
-1361.99
-1389.69
-1414.29
-1435.96
-1453.86
-1467.36
-1477.05
-1484.46
-1491.03
-1498.63
-1511.43
-1537.64
-24.5912
-29.4465
-37.687
-46.1329
-54.9656
-65.1509
-78.0908
-93.9327
-112.706
-134.223
-158.389
-184.73
-210.388
-233.055
-251.796
-266.452
-277.516
-286.263
-294.395
-303.081
-312.695
-323.368
-335.118
-347.317
-358.891
-369.368
-379.171
-388.877
-398.782
-409.125
-420.344
-433.011
-447.497
-463.775
-481.657
-501.174
-522.578
-545.889
-570.443
-594.92
-617.926
-638.747
-657.632
-675.296
-692.07
-707.54
-721.037
-732.402
-742.189
-751.216
-760.139
-769.601
-780.672
-794.946
-814.059
-839.034
-869.882
-905.651
-944.804
-985.753
-1027.35
-1069.06
-1110.66
-1151.78
-1191.83
-1230.17
-1266.06
-1298.72
-1327.9
-1354.17
-1378.12
-1399.58
-1417.97
-1433.34
-1447.07
-1461.3
-1478.16
-1499.46
-1527.12
-1566.96
-45.4336
-53.7843
-62.3062
-71.647
-81.609
-92.5567
-105.599
-121.927
-141.004
-162.348
-185.516
-210.492
-235.154
-256.698
-273.992
-287.55
-298.225
-306.862
-314.567
-322.223
-330.018
-337.993
-346.321
-354.647
-361.958
-367.656
-372.301
-377.059
-382.852
-390.142
-399.224
-410.395
-423.776
-439.208
-456.529
-475.87
-497.472
-521.144
-545.919
-570.322
-593.125
-613.962
-633.254
-651.489
-668.597
-684.018
-697.37
-708.955
-719.576
-729.987
-740.693
-752.285
-765.803
-782.61
-803.904
-830.282
-861.552
-896.775
-934.599
-973.78
-1013.55
-1053.54
-1093.39
-1132.61
-1170.66
-1206.86
-1240.28
-1270.37
-1297.46
-1322.23
-1344.71
-1364.45
-1381.43
-1396.73
-1412.39
-1430.86
-1454.91
-1486.49
-1526.08
-1577.7
-59.8705
-71.4266
-81.0339
-91.5638
-102.658
-114.411
-127.607
-143.727
-163.013
-184.123
-206.61
-229.896
-253.404
-274.672
-291.845
-305.015
-315.131
-323.311
-330.461
-337.119
-343.362
-349.05
-354.224
-358.889
-362.613
-364.942
-366.151
-367.271
-369.497
-373.761
-380.691
-390.584
-403.208
-417.978
-434.623
-453.501
-474.999
-498.675
-523.16
-546.929
-569.172
-589.997
-609.859
-628.832
-646.42
-662.03
-675.583
-687.631
-698.951
-710.152
-721.758
-734.554
-749.656
-768.185
-790.922
-818.167
-849.673
-884.608
-921.783
-960.119
-998.895
-1037.54
-1075.5
-1112.41
-1148.09
-1182.16
-1213.87
-1242.68
-1268.66
-1291.94
-1312.09
-1328.53
-1341.89
-1354.35
-1368.42
-1386.93
-1413.21
-1450.15
-1498.33
-1557.72
-68.91
-84.5376
-95.8357
-107.116
-119.444
-131.832
-145.287
-160.919
-179.42
-199.89
-221.511
-243.493
-265.362
-285.776
-303.141
-316.612
-326.619
-334.497
-341.217
-347.007
-351.904
-355.945
-359.044
-361.094
-362.086
-362.101
-361.367
-360.443
-360.325
-362.233
-367.207
-375.67
-387.244
-401.186
-417.208
-435.706
-456.959
-480.26
-504.076
-527.059
-548.804
-569.653
-589.918
-609.336
-627.236
-643.142
-657.179
-669.914
-681.934
-693.707
-705.839
-719.282
-735.159
-754.404
-777.591
-804.939
-836.233
-870.74
-907.411
-945.239
-983.348
-1020.85
-1057
-1091.58
-1124.78
-1156.65
-1186.96
-1215.26
-1240.83
-1262.71
-1280.01
-1292.54
-1301.49
-1309.19
-1318.26
-1332.08
-1355.22
-1392.2
-1444.12
-1507.01
-76.5132
-95.489
-108.566
-120.514
-132.763
-145.412
-159.128
-174.229
-191.255
-210.568
-230.961
-252.048
-272.687
-291.871
-308.56
-321.837
-331.928
-339.855
-346.316
-351.379
-355.096
-357.77
-359.557
-360.35
-360.129
-359.11
-357.535
-355.744
-354.543
-355.199
-358.869
-365.983
-376.181
-388.935
-404.221
-422.414
-443.444
-466.265
-489.364
-511.735
-533.27
-554.279
-574.78
-594.292
-612.229
-628.391
-643.039
-656.582
-669.334
-681.652
-694.237
-708.121
-724.333
-743.637
-766.541
-793.294
-823.74
-857.271
-893.034
-930.096
-967.375
-1003.69
-1038.23
-1070.93
-1102.13
-1132.2
-1161.29
-1188.93
-1213.68
-1233.54
-1247.33
-1255.62
-1259.98
-1262.29
-1264.74
-1270.98
-1287.09
-1319.77
-1370.96
-1433.52
-84.4612
-105.869
-119.922
-132.492
-144.625
-156.889
-170.418
-185.202
-201.173
-218.827
-238.043
-258.214
-277.823
-295.781
-311.29
-323.762
-333.446
-341.1
-347.159
-351.581
-354.421
-356.094
-356.997
-357.258
-356.946
-356.117
-354.683
-352.755
-351.177
-351.313
-354.216
-360.116
-368.738
-380.006
-394.325
-412.048
-432.716
-455.007
-477.535
-499.616
-521.234
-542.442
-562.933
-582.203
-599.999
-616.485
-631.961
-646.524
-660.143
-673.079
-686.128
-700.355
-716.661
-735.672
-757.865
-783.528
-812.576
-844.594
-878.986
-914.895
-951.055
-986.122
-1019.31
-1050.59
-1080.32
-1109.02
-1136.89
-1163.21
-1186.11
-1203.25
-1213.36
-1217.2
-1216.35
-1212.75
-1208.73
-1207.56
-1215.73
-1241.85
-1289.32
-1347.95
-93.3735
-115.743
-130.453
-143.443
-155.772
-167.505
-180.349
-194.66
-210.467
-227.068
-244.972
-263.717
-282.281
-299.191
-313.39
-324.845
-333.855
-340.707
-345.811
-349.505
-351.831
-352.857
-353.062
-353.11
-353.285
-353.203
-352.257
-350.513
-349.003
-349.002
-351.207
-355.706
-362.545
-372.192
-385.357
-402.304
-422.347
-444.155
-466.545
-488.936
-511.09
-532.645
-553.08
-572.101
-589.915
-606.981
-623.479
-639.113
-653.552
-667.025
-680.411
-694.752
-710.823
-729.165
-750.252
-774.398
-801.61
-831.696
-864.312
-898.682
-933.493
-967.431
-999.727
-1030.15
-1058.89
-1086.44
-1112.83
-1137.03
-1157.16
-1171.17
-1177.95
-1177.64
-1171.33
-1161.6
-1152.01
-1145.49
-1147.43
-1166.88
-1208.81
-1260.88
-102.39
-124.769
-139.51
-153.05
-165.973
-177.549
-189.775
-203.621
-218.941
-234.992
-251.879
-269.355
-286.609
-302.326
-315.569
-326.201
-334.352
-340.282
-344.469
-347.288
-348.782
-349.122
-349.023
-349.258
-349.87
-350.14
-349.458
-348.083
-346.919
-346.753
-347.95
-350.774
-355.781
-363.835
-375.735
-391.665
-410.988
-432.603
-455.498
-478.923
-502.161
-524.404
-545.065
-564.189
-582.394
-600.249
-617.67
-634.013
-648.812
-662.388
-675.699
-689.724
-705.146
-722.472
-742.163
-764.51
-789.601
-817.453
-847.905
-880.292
-913.501
-946.46
-978.334
-1008.45
-1036.62
-1063.08
-1087.71
-1109.37
-1126.33
-1136.98
-1140.32
-1136.11
-1125.41
-1111.05
-1097.18
-1087
-1084.89
-1099.01
-1134.55
-1179.27
-110.045
-132.008
-146.916
-160.423
-174.073
-186.598
-198.591
-211.69
-226.066
-241.657
-257.648
-273.987
-290.133
-304.905
-317.416
-327.373
-334.93
-340.349
-343.791
-345.465
-345.84
-345.648
-345.605
-346.019
-346.607
-346.793
-346.301
-345.359
-344.375
-343.669
-343.609
-344.825
-348.221
-354.798
-365.371
-380.237
-399.026
-420.889
-444.805
-469.666
-494.247
-517.414
-538.624
-558.216
-577.024
-595.541
-613.409
-629.807
-644.344
-657.518
-670.346
-683.742
-698.334
-714.613
-732.948
-753.522
-776.481
-802.024
-830.14
-860.346
-891.902
-924.022
-955.66
-985.612
-1013.19
-1038.35
-1060.97
-1080.14
-1094.22
-1101.61
-1101.14
-1093.12
-1079.56
-1063.06
-1046.64
-1033.62
-1028.5
-1038.62
-1067.88
-1105.2
-116.343
-136.958
-152.024
-165.961
-179.977
-193.138
-205.727
-218.466
-231.855
-246.284
-261.363
-276.742
-291.875
-305.912
-318.038
-327.732
-334.955
-339.856
-342.527
-343.322
-343.031
-342.54
-342.38
-342.65
-343.136
-343.468
-343.327
-342.562
-341.225
-339.639
-338.428
-338.4
-340.45
-345.576
-354.773
-368.666
-387.176
-409.534
-434.537
-460.737
-486.591
-510.823
-532.922
-553.292
-572.723
-591.533
-609.236
-625.094
-638.962
-651.531
-663.815
-676.644
-690.605
-706.122
-723.372
-742.363
-763.277
-786.509
-812.262
-840.36
-870.432
-901.768
-932.966
-962.371
-988.945
-1012.48
-1033.05
-1049.98
-1061.68
-1066.3
-1062.6
-1051.62
-1036.34
-1018.83
-1000.91
-985.828
-978.275
-985.224
-1009.28
-1039.21
-121.234
-140.209
-154.998
-169.329
-183.775
-197.428
-210.598
-223.076
-235.874
-249.142
-263.092
-277.366
-291.508
-304.952
-316.805
-326.266
-333.081
-337.431
-339.62
-340.098
-339.555
-338.781
-338.416
-338.762
-339.658
-340.522
-340.633
-339.583
-337.541
-335.138
-333.115
-332.121
-332.899
-336.587
-344.558
-357.77
-376.23
-399.037
-424.805
-451.975
-478.977
-504.515
-527.973
-549.526
-569.667
-588.514
-605.641
-620.634
-633.707
-645.69
-657.523
-669.944
-683.509
-698.525
-714.916
-732.501
-751.471
-772.376
-795.687
-821.636
-850.145
-880.354
-910.469
-938.606
-963.689
-985.605
-1004.47
-1019.53
-1029.12
-1031.39
-1025.84
-1013.79
-997.52
-978.587
-959.284
-942.998
-933.974
-938.52
-958.534
-982.186
-125.221
-141.342
-155.294
-170.417
-185.617
-199.652
-212.951
-225.542
-237.952
-250.373
-263.181
-276.37
-289.551
-302.08
-313.142
-322.092
-328.651
-332.847
-334.9
-335.205
-334.453
-333.631
-333.656
-334.825
-336.599
-337.955
-338.003
-336.504
-333.941
-331.071
-328.461
-326.546
-326.145
-328.754
-336.08
-349.12
-367.673
-390.661
-416.72
-444.48
-472.537
-499.576
-524.729
-547.753
-568.726
-587.578
-604.052
-618.154
-630.46
-641.866
-653.186
-665.104
-678.196
-692.666
-708.214
-724.516
-741.755
-760.514
-781.431
-805.069
-831.533
-859.801
-887.908
-914.047
-937.397
-958.004
-975.687
-989.282
-996.955
-997.435
-991.15
-979.225
-962.378
-942.056
-921.716
-904.769
-895.055
-897.964
-914.292
-933.51
-127.655
-140.545
-153.032
-168.796
-185.225
-200.03
-213.476
-226.35
-238.49
-250.339
-262.234
-274.317
-286.189
-297.282
-307.212
-315.668
-322.229
-326.512
-328.49
-328.637
-327.953
-327.714
-328.83
-331.224
-333.865
-335.526
-335.527
-333.952
-331.372
-328.348
-325.233
-322.522
-321.387
-323.67
-331.086
-344.31
-362.819
-385.523
-411.373
-439.38
-468.318
-496.77
-523.543
-547.978
-569.779
-588.721
-604.714
-618.122
-629.772
-640.532
-651.093
-662.161
-674.417
-688.036
-702.585
-717.679
-733.464
-750.421
-769.15
-790.315
-814.101
-839.553
-864.912
-888.693
-910.373
-929.898
-946.55
-958.912
-965.292
-964.977
-958.585
-946.642
-929.319
-908.645
-888.172
-870.891
-860.666
-862.481
-875.786
-891.279
-127.88
-138.522
-149.593
-165.363
-182.977
-198.827
-212.936
-226.074
-238.266
-249.693
-260.557
-271.054
-281.124
-290.705
-299.751
-307.9
-314.435
-318.739
-320.773
-321.219
-321.298
-322.242
-324.625
-328.017
-331.28
-333.332
-333.727
-332.63
-330.427
-327.448
-324.061
-321.068
-319.983
-322.697
-330.599
-343.917
-361.951
-383.861
-409.088
-437.027
-466.545
-496.06
-524.106
-549.714
-572.31
-591.533
-607.382
-620.427
-631.568
-641.55
-650.968
-660.646
-671.484
-683.767
-697.082
-711.006
-725.509
-740.793
-757.297
-775.689
-796.268
-818.407
-840.791
-862.253
-882.34
-900.662
-916.086
-927.223
-933.008
-932.872
-926.631
-914.321
-896.995
-877.067
-856.972
-839.698
-829.187
-830.184
-841.862
-853.757
-126.693
-136.157
-146.436
-161.883
-180.01
-196.714
-211.765
-225.329
-237.68
-248.459
-257.753
-266.086
-274.157
-282.449
-290.858
-298.717
-305.177
-309.705
-312.367
-313.878
-315.355
-317.718
-321.184
-325.244
-329.026
-331.727
-332.939
-332.653
-331.063
-328.484
-325.49
-323.123
-322.929
-326.527
-334.875
-347.929
-365.095
-385.943
-410.355
-437.954
-467.6
-497.604
-526.38
-552.81
-576.121
-595.804
-611.857
-624.896
-635.722
-644.855
-652.794
-660.544
-669.319
-679.704
-691.507
-704.275
-717.55
-731.017
-744.933
-760.122
-777.225
-796.079
-815.737
-835.121
-853.523
-870.144
-883.981
-894.014
-899.577
-899.708
-893.394
-881.078
-864.783
-845.977
-826.108
-809.079
-798.766
-799.047
-809.245
-818.281
-125.562
-134.462
-144.336
-159.372
-177.434
-194.839
-210.625
-224.544
-236.482
-245.907
-253.03
-258.98
-265.146
-272.203
-279.885
-287.453
-294.179
-299.592
-303.622
-306.743
-309.806
-313.5
-317.921
-322.641
-327.061
-330.601
-332.829
-333.605
-333.115
-331.8
-330.321
-329.623
-330.959
-335.579
-344.178
-356.728
-372.932
-392.757
-416.323
-443.271
-472.402
-502.051
-530.726
-557.32
-580.942
-600.953
-617.309
-630.572
-641.311
-649.731
-656.212
-661.917
-668.372
-676.556
-686.645
-698.177
-710.126
-721.519
-732.469
-744.197
-757.929
-773.91
-791.221
-808.524
-824.769
-839.15
-851.188
-860.352
-865.69
-865.582
-859.073
-847.587
-832.85
-814.813
-795.25
-778.615
-768.614
-768.451
-776.428
-782.899
-125.842
-134.075
-143.396
-158.082
-176.028
-193.85
-209.905
-223.605
-234.15
-241.28
-245.805
-249.483
-253.9
-259.64
-266.526
-274.08
-281.654
-288.517
-294.234
-299.013
-303.554
-308.497
-313.978
-319.626
-324.922
-329.429
-332.871
-335.239
-336.816
-338.004
-339.196
-340.93
-344.109
-349.791
-358.66
-370.836
-386.287
-405.211
-427.79
-453.589
-481.401
-509.744
-537.378
-563.311
-586.604
-606.552
-623.09
-636.664
-647.531
-655.551
-660.975
-665.052
-669.487
-675.544
-683.74
-693.63
-703.739
-712.642
-720.471
-728.908
-739.684
-753.157
-768.147
-783.017
-796.585
-808.486
-818.781
-827.104
-831.957
-831.474
-825.368
-815.202
-801.419
-783.895
-765.384
-749.295
-739.118
-738.466
-744.714
-748.68
-127.934
-135.125
-143.539
-157.755
-175.635
-193.433
-209.263
-221.877
-230.183
-234.441
-236.348
-238.02
-240.85
-245.386
-251.756
-259.708
-268.406
-276.684
-283.846
-290.092
-296.11
-302.458
-309.222
-316.028
-322.382
-328.028
-333.036
-337.69
-342.278
-346.865
-351.333
-355.808
-361.028
-368.066
-377.667
-390.008
-405.108
-423.184
-444.379
-468.259
-493.813
-519.951
-545.788
-570.455
-592.957
-612.56
-629.197
-643.157
-654.356
-662.353
-667.294
-670.405
-673.343
-677.451
-683.452
-690.954
-698.356
-704.258
-709.063
-714.754
-723.153
-734.324
-746.718
-758.709
-769.52
-779.29
-788.188
-795.509
-799.572
-799.066
-794.064
-784.916
-771.382
-754.887
-737.826
-722.021
-711.104
-709.168
-714.066
-716.207
-131.086
-136.868
-144.276
-157.938
-175.475
-192.784
-207.783
-218.499
-224.124
-225.659
-225.412
-225.447
-226.99
-230.77
-237.116
-245.659
-255.246
-264.53
-272.89
-280.663
-288.459
-296.535
-304.714
-312.608
-319.923
-326.751
-333.562
-340.842
-348.701
-356.748
-364.44
-371.736
-379.392
-388.477
-399.604
-412.765
-427.835
-444.947
-464.232
-485.412
-507.903
-531.181
-554.774
-577.883
-599.406
-618.555
-635.255
-649.645
-661.355
-669.738
-674.837
-677.655
-679.529
-681.715
-685.118
-689.529
-693.561
-696.257
-698.428
-702.056
-708.543
-717.43
-727.008
-736.058
-744.559
-752.864
-760.698
-766.87
-770.088
-769.906
-765.978
-757.294
-744.274
-729.275
-712.772
-696.458
-684.64
-681.257
-684.241
-684.387
-134.415
-138.584
-144.779
-157.835
-174.812
-191.205
-204.568
-212.887
-215.942
-215.443
-213.716
-212.564
-213.294
-216.847
-223.475
-232.489
-242.602
-252.742
-262.581
-272.391
-282.409
-292.415
-301.903
-310.528
-318.388
-326.092
-334.47
-344.047
-354.661
-365.583
-376.127
-386.31
-396.906
-408.754
-422.059
-436.441
-451.579
-467.561
-484.599
-502.717
-521.884
-542.186
-563.498
-585.024
-605.523
-624.156
-640.84
-655.592
-667.865
-676.926
-682.68
-685.674
-686.685
-686.817
-687.292
-688.322
-688.982
-688.82
-688.87
-690.837
-695.532
-702.088
-709.005
-715.653
-722.463
-729.602
-736.286
-741.309
-744.05
-744.288
-740.844
-732.53
-720.543
-706.098
-688.848
-671.64
-658.896
-654.492
-655.739
-653.263
-137.789
-140.495
-145.205
-157.114
-173.232
-188.34
-199.515
-205.398
-206.435
-204.604
-201.924
-200.061
-200.464
-204.061
-210.897
-220.174
-230.822
-242.217
-254.195
-266.615
-279.079
-290.909
-301.433
-310.457
-318.522
-326.71
-336.095
-347.152
-359.54
-372.465
-385.377
-398.437
-412.273
-427.239
-442.955
-458.651
-473.878
-488.739
-503.583
-518.79
-534.901
-552.531
-571.782
-591.801
-611.26
-629.323
-645.876
-660.799
-673.456
-683.171
-689.739
-693.137
-693.452
-691.612
-689.23
-687.128
-684.986
-682.687
-681.076
-681.37
-684.055
-688.332
-693.145
-698.224
-703.741
-709.49
-714.76
-718.945
-721.711
-722.12
-718.59
-710.785
-699.276
-683.626
-665.423
-647.837
-634.086
-628.218
-627.919
-623.138
-142.082
-143.246
-146.342
-156.438
-170.924
-184.232
-193.175
-196.938
-196.482
-193.617
-190.209
-188.009
-188.379
-191.998
-198.842
-208.398
-220.028
-233.314
-247.89
-263.043
-277.808
-291.256
-302.748
-312.279
-320.668
-329.237
-339.133
-350.794
-363.916
-377.934
-392.615
-408.236
-425.126
-443.021
-460.952
-477.847
-493.205
-507.169
-520.214
-533.039
-546.664
-562.074
-579.455
-597.897
-616.127
-633.436
-649.688
-664.594
-677.485
-687.827
-695.321
-699.373
-699.444
-696.279
-691.746
-687.19
-682.911
-679.006
-675.902
-674.337
-674.803
-676.981
-680.256
-684.279
-688.549
-692.672
-696.572
-700.286
-703.047
-703.038
-699.127
-691.492
-679.137
-661.862
-643.356
-625.648
-610.877
-603.219
-600.967
-594.169
-148.376
-147.68
-148.744
-156.425
-168.41
-179.4
-186.338
-188.495
-186.864
-182.999
-178.916
-176.466
-176.738
-180.189
-186.968
-197.037
-210.108
-225.618
-242.718
-260.26
-277.039
-292.108
-304.928
-315.568
-324.847
-334.01
-344.12
-355.648
-368.555
-382.737
-398.368
-415.789
-434.957
-455.032
-474.605
-492.446
-508.049
-521.557
-533.481
-544.716
-556.57
-570.204
-585.803
-602.508
-619.309
-635.784
-651.813
-666.919
-680.365
-691.645
-700.22
-704.994
-705.112
-701.332
-695.601
-689.468
-683.63
-678.284
-673.542
-669.985
-668.328
-668.701
-670.711
-673.647
-676.555
-679.209
-682.085
-685.244
-687.289
-686.355
-682.04
-673.86
-660.095
-642.282
-623.396
-604.764
-588.777
-579.68
-575.628
-567.318
-156.973
-154.117
-152.728
-157.4
-166.35
-174.855
-180.072
-181.102
-178.492
-173.696
-168.916
-165.948
-165.714
-168.765
-175.542
-186.327
-200.93
-218.462
-237.608
-257.058
-275.713
-292.736
-307.584
-320.176
-331.025
-341.048
-351.145
-361.933
-373.816
-387.256
-402.846
-420.969
-441.27
-462.486
-482.962
-501.427
-517.374
-530.872
-542.354
-552.751
-563.462
-575.687
-589.665
-604.796
-620.519
-636.714
-653.163
-669.095
-683.587
-695.972
-705.378
-710.463
-710.55
-706.668
-700.663
-693.867
-686.968
-680.138
-673.501
-667.975
-664.582
-663.507
-664.249
-665.801
-667.352
-669
-671.109
-673.173
-673.819
-672.039
-667.38
-658.204
-643.521
-625.416
-605.033
-584.826
-567.652
-557.243
-551.85
-542.814
-167.444
-161.811
-157.836
-159.391
-165.239
-171.45
-175.213
-175.284
-171.723
-166
-160.273
-156.267
-155.109
-157.707
-164.707
-176.314
-192.147
-211.095
-231.699
-252.749
-273.389
-292.878
-310.514
-325.816
-338.744
-349.734
-359.538
-369.029
-379.168
-391.042
-405.657
-423.436
-443.766
-465.116
-485.747
-504.453
-520.733
-534.518
-546.073
-556.231
-566.357
-577.665
-590.583
-604.953
-620.663
-637.646
-655.296
-672.416
-687.887
-700.91
-710.477
-715.413
-715.52
-712.008
-706.34
-699.389
-691.636
-683.26
-674.764
-667.619
-662.966
-660.675
-659.993
-659.993
-660.444
-661.53
-662.86
-663.414
-662.696
-660.554
-655.411
-645.113
-629.749
-610.019
-587.522
-565.936
-547.828
-536.051
-529.49
-519.168
-178.794
-170.053
-163.375
-162.208
-165.385
-169.643
-172.151
-171.179
-166.549
-159.648
-152.433
-146.893
-144.701
-147.017
-154.401
-166.725
-183.293
-202.983
-224.565
-247.121
-269.994
-292.422
-313.395
-331.856
-347.058
-358.907
-368.07
-375.804
-383.722
-393.54
-406.608
-423.319
-442.827
-463.46
-483.571
-502.139
-518.701
-533.007
-545.073
-555.565
-565.782
-576.996
-589.909
-604.786
-621.701
-640.233
-659.149
-676.925
-692.536
-705.364
-714.585
-719.385
-719.843
-716.912
-711.5
-704.223
-695.58
-685.934
-676.21
-668.072
-662.397
-658.811
-656.628
-655.374
-655.243
-656.023
-656.529
-655.818
-654.392
-652.076
-646.093
-634.587
-617.862
-595.731
-571.546
-548.411
-528.576
-515.222
-507.203
-494.345
-189.83
-178.455
-169.361
-165.928
-167.048
-169.631
-170.858
-168.613
-162.57
-153.933
-144.753
-137.62
-134.644
-136.829
-144.395
-156.951
-173.677
-193.637
-216.008
-240.177
-265.559
-291.225
-315.745
-337.404
-354.751
-367.262
-375.661
-381.682
-387.576
-395.551
-407.099
-422.439
-440.524
-459.732
-478.749
-496.895
-513.762
-528.847
-541.834
-553.191
-564.187
-576.196
-590.129
-606.405
-624.892
-644.585
-663.807
-681.172
-696.14
-708.441
-717.435
-722.452
-723.402
-720.694
-714.929
-706.981
-697.669
-687.463
-677.296
-668.483
-661.604
-656.616
-653.339
-651.635
-651.436
-651.923
-651.778
-650.574
-648.961
-646.048
-639.001
-626.288
-607.462
-583.432
-557.391
-531.822
-509.222
-494.045
-483.926
-468.452
-199.464
-185.986
-175.292
-170.005
-169.379
-170.348
-170.084
-166.28
-158.289
-147.332
-136.177
-127.97
-124.659
-126.683
-133.905
-146.007
-162.399
-182.462
-205.723
-231.752
-259.874
-288.855
-316.778
-341.306
-360.447
-373.487
-381.384
-386.352
-391.095
-398.004
-408.445
-422.384
-438.719
-456.164
-473.971
-491.848
-509.321
-525.48
-539.633
-552.142
-564.362
-577.739
-593.127
-610.715
-629.952
-649.482
-667.768
-684.051
-698.313
-710.318
-719.258
-724.331
-725.208
-722.051
-715.627
-707.239
-697.82
-687.615
-677.238
-667.674
-659.664
-653.861
-650.427
-649.014
-648.889
-649.014
-648.637
-647.636
-645.854
-641.957
-634.059
-620.214
-599.045
-572.965
-544.26
-516.135
-491.021
-473.464
-461.058
-443.652
-206.392
-191.269
-179.562
-172.786
-170.416
-169.711
-167.847
-162.344
-152.174
-138.96
-126.447
-117.865
-114.432
-116.009
-122.362
-133.508
-149.33
-169.555
-193.907
-221.982
-252.911
-285.075
-316.029
-342.917
-363.479
-377.105
-385.088
-389.955
-394.521
-401.058
-410.691
-423.275
-437.946
-453.996
-471.241
-489.521
-507.981
-525.207
-540.34
-553.953
-567.6
-582.575
-599.256
-617.316
-635.939
-653.989
-670.622
-685.759
-699.443
-710.986
-719.273
-723.561
-723.66
-719.91
-713.306
-705.093
-695.848
-685.604
-674.984
-665.094
-656.998
-651.537
-648.624
-647.56
-647.386
-647.398
-647.333
-646.773
-644.72
-640.102
-631.411
-615.831
-592.354
-563.61
-532.787
-502.628
-475.104
-454.745
-440.526
-420.463
-209.428
-193.396
-180.858
-172.811
-168.726
-166.346
-162.868
-155.645
-143.686
-129.193
-116.292
-107.726
-103.961
-104.645
-109.799
-119.87
-135.193
-155.763
-181.373
-211.545
-245.185
-280.267
-313.841
-342.7
-364.598
-379.213
-388.079
-393.712
-398.71
-405.116
-413.98
-425.356
-438.863
-454.346
-471.861
-490.948
-510.184
-527.89
-543.526
-558.17
-573.407
-589.896
-607.203
-624.59
-641.466
-657.415
-672.384
-686.53
-699.402
-709.754
-716.552
-719.551
-718.902
-715.044
-708.803
-700.913
-691.644
-681.368
-671.159
-662.217
-655.322
-650.737
-648.179
-647.283
-647.372
-647.83
-648.292
-647.943
-645.502
-640.209
-630.074
-612.094
-586.665
-555.666
-523.152
-490.817
-460.735
-438.071
-422.183
-399.119
-208.014
-191.562
-178.397
-169.116
-163.441
-159.464
-154.402
-145.659
-132.812
-118.421
-106.058
-97.6282
-93.2173
-92.7
-96.5697
-105.701
-120.761
-141.92
-168.961
-201.266
-237.487
-275.214
-311.116
-341.853
-365.368
-381.582
-391.988
-398.776
-404.224
-410.314
-418.329
-428.726
-441.557
-456.92
-474.753
-494.158
-513.383
-530.987
-547.086
-563.074
-579.984
-597.443
-614.398
-630.313
-645.315
-659.683
-673.615
-686.908
-698.53
-707.202
-712.5
-714.653
-713.729
-709.928
-703.89
-696.135
-687.063
-677.566
-668.883
-661.782
-656.372
-652.458
-650.126
-649.692
-650.563
-651.526
-651.842
-650.995
-647.798
-641.115
-628.993
-608.991
-581.203
-548.083
-513.505
-480.097
-448.547
-423.11
-404.771
-380.146
-201.848
-185.046
-171.493
-161
-153.845
-148.467
-142.195
-132.742
-120.281
-107.222
-96.1151
-88.094
-83.1738
-81.5946
-84.3721
-92.8237
-107.885
-129.831
-158.399
-192.803
-231.429
-271.552
-309.629
-342.358
-367.845
-385.995
-397.978
-405.592
-410.993
-416.399
-423.467
-432.946
-445.025
-459.809
-477.128
-495.963
-514.678
-532.302
-549.371
-567.008
-585.261
-602.926
-619.025
-633.79
-647.988
-661.956
-675.485
-687.897
-698.131
-705.501
-710.169
-712.21
-711.172
-707.199
-701.232
-693.996
-686.051
-678.328
-671.658
-666.259
-662.022
-658.947
-657.393
-657.447
-658.326
-658.777
-657.885
-655.521
-650.914
-642.145
-627.39
-604.955
-574.182
-539.381
-503.814
-470.048
-437.741
-410.29
-389.436
-362.193
-190.843
-173.975
-160.163
-148.773
-140.414
-134.045
-127.407
-118.598
-107.823
-96.8888
-87.5372
-80.4898
-75.7431
-73.7525
-75.9835
-84.2191
-99.6506
-122.602
-152.726
-189.072
-229.817
-272.051
-312.181
-346.955
-374.449
-394.292
-407.279
-415.037
-419.901
-424.415
-430.433
-438.696
-449.371
-462.694
-478.716
-496.603
-514.895
-532.813
-550.887
-569.76
-588.753
-606.362
-622.02
-636.558
-650.899
-665.046
-678.377
-690.089
-699.422
-706.216
-710.816
-712.929
-711.831
-707.948
-702.643
-696.798
-690.846
-685.314
-680.619
-676.903
-674.097
-672.148
-671.196
-670.735
-669.908
-668.403
-665.638
-660.817
-653.277
-641.382
-623.236
-597.63
-564.804
-528.317
-492.732
-459.669
-427.41
-398.458
-375.367
-345.733
-175.467
-158.947
-145.014
-133.314
-124.306
-117.538
-111.422
-104.33
-96.0371
-87.674
-80.614
-75.3802
-71.7866
-70.3142
-72.7953
-81.4616
-97.7434
-121.983
-153.74
-191.923
-234.576
-278.717
-320.756
-357.404
-386.531
-407.45
-420.784
-428.286
-432.548
-436.207
-441.004
-447.623
-456.443
-468.07
-482.788
-499.76
-517.481
-535.258
-553.662
-573.075
-592.404
-610.017
-625.626
-640.352
-655.061
-669.462
-682.688
-693.923
-702.635
-708.954
-713.287
-715.251
-714.233
-710.937
-706.826
-702.771
-699.158
-696.096
-693.54
-691.731
-690.681
-689.557
-687.762
-685.398
-682.324
-677.999
-671.97
-663.547
-651.995
-636.33
-614.441
-585.004
-550.599
-513.785
-479.117
-447.377
-415.903
-386.675
-361.702
-330.979
-156.524
-140.342
-126.407
-114.737
-105.619
-98.9847
-93.7848
-88.6044
-82.9083
-77.5429
-73.7054
-71.5037
-70.2911
-70.4779
-74.2116
-84.0808
-101.707
-127.495
-160.989
-200.995
-245.41
-291.168
-334.678
-372.634
-402.772
-424.253
-437.704
-445.032
-448.893
-451.788
-455.372
-460.54
-468.026
-478.556
-492.235
-508.106
-524.891
-542.239
-560.674
-580.112
-599.145
-616.406
-632.078
-647.305
-662.452
-676.77
-689.413
-699.916
-707.975
-713.571
-716.876
-717.708
-716.137
-713.317
-710.447
-707.873
-705.907
-704.983
-704.926
-705.059
-704.812
-703.588
-700.569
-695.849
-690.174
-682.72
-672.603
-660.091
-644.467
-624.325
-598.473
-566.552
-530.575
-494.61
-461.669
-431.89
-401.851
-373.261
-348.596
-318.711
-135.128
-119.018
-104.869
-93.0049
-83.8249
-77.385
-72.8921
-69.1695
-65.8896
-64.0548
-64.5506
-66.7106
-69.2591
-72.5039
-78.797
-90.9201
-110.634
-138.487
-174.068
-216.016
-261.93
-308.59
-352.541
-390.777
-421.231
-443.043
-456.702
-463.989
-467.481
-469.734
-472.658
-477.41
-484.644
-494.7
-507.502
-522.459
-538.817
-556.212
-574.572
-593.391
-611.611
-628.576
-644.65
-660.405
-675.574
-689.332
-701.137
-710.654
-717.364
-721.025
-722.032
-720.852
-717.96
-714.363
-711.17
-708.981
-707.943
-707.991
-709.106
-710.527
-710.454
-708.161
-703.991
-697.626
-689.243
-678.872
-665.495
-648.922
-629.087
-604.849
-575.436
-541.955
-505.758
-471.09
-440.128
-412.499
-384.969
-358.054
-335.483
-310.132
-113.436
-97.2914
-82.3205
-69.6316
-59.7543
-52.8436
-48.2417
-45.1827
-43.9757
-45.857
-51.1991
-58.535
-66.0783
-73.9715
-84.4999
-100.417
-123.583
-154.688
-193.255
-237.54
-284.712
-331.498
-374.927
-412.676
-443.029
-464.931
-478.436
-485.11
-487.741
-489.349
-492.159
-497.18
-504.578
-514.431
-526.953
-541.991
-558.748
-576.338
-594.35
-612.561
-630.46
-647.579
-664.027
-680.055
-695.228
-708.555
-719.306
-727.159
-731.829
-733.161
-731.386
-727.154
-721.722
-716.529
-712.064
-708.456
-706.598
-706.728
-707.739
-708.611
-708.103
-704.987
-699.604
-692.209
-682.366
-669.986
-654.289
-634.531
-610.793
-583.213
-551.61
-516.421
-480.573
-446.818
-417.88
-392.512
-367.381
-342.665
-323.285
-306.109
-95.4443
-77.7655
-60.3182
-45.3699
-33.2247
-24.053
-17.4826
-13.4516
-13.0568
-17.7127
-27.4044
-40.2459
-54.1643
-68.9067
-86.2343
-108.556
-137.671
-174.213
-217.381
-264.934
-313.779
-360.92
-404.048
-441.37
-471.2
-492.181
-504.197
-509.055
-510.04
-510.527
-512.704
-517.283
-524.303
-534.067
-547.011
-562.795
-580.164
-598.016
-616.099
-634.393
-652.453
-669.892
-686.889
-703.457
-718.678
-731.414
-741.263
-747.979
-750.789
-749.424
-744.895
-738.292
-730.316
-722.345
-715.684
-710.369
-706.636
-705.212
-705.265
-704.996
-703.292
-699.495
-693.641
-685.943
-675.916
-662.946
-646.035
-624.235
-597.729
-567.388
-533.493
-495.962
-458.313
-423.974
-394.971
-370.504
-347.772
-326.709
-311.751
-304.007
-86.3562
-61.632
-38.0909
-17.8511
-0.165537
14.9257
27.2348
35.6398
37.8657
31.9066
17.7959
-2.18706
-25.292
-50.3354
-78.1796
-110.683
-149.35
-194.452
-244.678
-297.422
-349.621
-398.626
-442.425
-479.259
-507.396
-525.677
-534.498
-536.211
-534.388
-532.41
-532.369
-535.021
-540.692
-549.969
-563.257
-579.871
-598.181
-616.86
-635.608
-654.547
-673.45
-691.876
-709.62
-726.525
-741.956
-754.851
-764.313
-769.879
-771.253
-768.342
-761.768
-752.791
-742.641
-732.356
-722.93
-715.153
-709.525
-706.209
-704.632
-703.289
-700.755
-696.742
-691.398
-684.521
-675.489
-663.12
-645.864
-622.671
-593.97
-559.858
-520.035
-476.769
-433.444
-395.034
-363.985
-339.387
-318.26
-301.482
-292.296
-291.357
)
;

boundaryField
{
    movingWall
    {
        type            zeroGradient;
    }
    fixedWalls
    {
        type            zeroGradient;
    }
    frontAndBack
    {
        type            empty;
    }
}


// ************************************************************************* //
