/*--------------------------------*- C++ -*----------------------------------*\
  =========                 |
  \\      /  F ield         | OpenFOAM: The Open Source CFD Toolbox
   \\    /   O peration     | Website:  https://openfoam.org
    \\  /    A nd           | Version:  6.0
     \\/     M anipulation  |
\*---------------------------------------------------------------------------*/
FoamFile
{
    version     2.0;
    format      ascii;
    class       surfaceScalarField;
    location    "0.1";
    object      phi;
}
// * * * * * * * * * * * * * * * * * * * * * * * * * * * * * * * * * * * * * //

dimensions      [0 3 -1 0 0 0 0];

internalField   nonuniform List<scalar> 
6280
(
5.14398e-06
-5.14388e-06
1.8464e-05
-1.33201e-05
3.50999e-05
-1.66358e-05
5.49874e-05
-1.98876e-05
7.69319e-05
-2.19444e-05
9.97859e-05
-2.28541e-05
0.000122422
-2.26361e-05
0.000144044
-2.1622e-05
0.000163924
-1.98802e-05
0.000181713
-1.77886e-05
0.000197009
-1.52968e-05
0.000209875
-1.28652e-05
0.000220511
-1.06367e-05
0.000229342
-8.83086e-06
0.000236952
-7.61053e-06
0.000244223
-7.2703e-06
0.000252017
-7.79451e-06
0.000260804
-8.78621e-06
0.000270536
-9.73212e-06
0.000280714
-1.01783e-05
0.000290529
-9.81562e-06
0.000299101
-8.5717e-06
0.000305712
-6.61072e-06
0.00030993
-4.21826e-06
0.00031161
-1.68008e-06
0.000310826
7.83723e-07
0.000307812
3.01424e-06
0.000302918
4.89395e-06
0.000296517
6.40143e-06
0.000288909
7.60795e-06
0.000280323
8.58528e-06
0.00027096
9.36309e-06
0.000261014
9.94693e-06
0.000250685
1.03285e-05
0.00024018
1.05052e-05
0.000229659
1.05203e-05
0.000219208
1.04517e-05
0.000208867
1.03408e-05
0.000198713
1.0154e-05
0.000188887
9.82644e-06
0.000179554
9.3328e-06
0.000170833
8.7213e-06
0.000162728
8.10422e-06
0.000155118
7.60997e-06
0.000147811
7.30738e-06
0.000140659
7.15176e-06
0.000133652
7.00738e-06
0.000126919
6.73261e-06
0.000120675
6.24385e-06
0.000115167
5.50798e-06
0.000110665
4.50225e-06
0.000107446
3.21892e-06
0.000105718
1.72813e-06
0.000105503
2.15425e-07
0.000106552
-1.04902e-06
0.000108353
-1.80102e-06
0.000110221
-1.86868e-06
0.000111439
-1.21828e-06
0.000111409
3.08418e-08
0.000109777
1.63196e-06
0.000106484
3.29306e-06
0.000101686
4.79779e-06
9.56127e-05
6.07298e-06
8.84674e-05
7.14522e-06
8.04037e-05
8.06374e-06
7.15165e-05
8.88712e-06
6.18269e-05
9.68948e-06
5.13378e-05
1.04891e-05
4.01374e-05
1.12004e-05
2.83857e-05
1.17517e-05
1.62449e-05
1.21408e-05
3.99874e-06
1.22462e-05
-7.81243e-06
1.18112e-05
-1.84512e-05
1.06388e-05
-2.70293e-05
8.578e-06
-3.2375e-05
5.34571e-06
-3.2678e-05
3.02882e-07
-2.52593e-05
-7.41865e-06
-9.66475e-06
-1.55946e-05
-9.66473e-06
6.57387e-06
-1.17177e-05
2.23412e-05
-2.90875e-05
4.43932e-05
-3.86877e-05
7.1032e-05
-4.65264e-05
0.00010115
-5.20623e-05
0.000133679
-5.53833e-05
0.000167188
-5.61447e-05
0.000200431
-5.48646e-05
0.000232342
-5.1791e-05
0.000262059
-4.75063e-05
0.000289191
-4.24285e-05
0.000313362
-3.70363e-05
0.000334563
-3.18372e-05
0.000352982
-2.72506e-05
0.000369321
-2.39491e-05
0.000384442
-2.23913e-05
0.000399282
-2.26346e-05
0.00041475
-2.42546e-05
0.000431362
-2.63434e-05
0.000448986
-2.7803e-05
0.000466879
-2.7708e-05
0.000483884
-2.55766e-05
0.000498676
-2.14032e-05
0.000510035
-1.55777e-05
0.000517144
-8.78893e-06
0.000519781
-1.85335e-06
0.000518255
4.54053e-06
0.000513124
1.00256e-05
0.000504931
1.45937e-05
0.000494128
1.84109e-05
0.000481126
2.15876e-05
0.000466346
2.41432e-05
0.000450199
2.60937e-05
0.00043305
2.74773e-05
0.000415222
2.83336e-05
0.000397017
2.87249e-05
0.000378731
2.8738e-05
0.000360658
2.84136e-05
0.000343103
2.77087e-05
0.00032636
2.65699e-05
0.000310653
2.50398e-05
0.000296088
2.32859e-05
0.000282639
2.15532e-05
0.000270164
2.00849e-05
0.000258446
1.90257e-05
0.000247254
1.83444e-05
0.000236425
1.78359e-05
0.000225932
1.72257e-05
0.000215882
1.62936e-05
0.000206474
1.49166e-05
0.000197935
1.30409e-05
0.000190466
1.06881e-05
0.000184162
8.03124e-06
0.000178932
5.4459e-06
0.000174438
3.44455e-06
0.00017012
2.51687e-06
0.000165288
2.96372e-06
0.000159284
4.78561e-06
0.00015166
7.65473e-06
0.000142292
1.09995e-05
0.000131374
1.4211e-05
0.000119277
1.68952e-05
0.000106352
1.89974e-05
9.27962e-05
2.07013e-05
7.8629e-05
2.22309e-05
6.37687e-05
2.37474e-05
4.81222e-05
2.53358e-05
3.16595e-05
2.69518e-05
1.4467e-05
2.83928e-05
-3.21481e-06
2.94336e-05
-2.09489e-05
2.9875e-05
-3.80792e-05
2.93765e-05
-5.37847e-05
2.75168e-05
-6.70446e-05
2.38988e-05
-7.65282e-05
1.80617e-05
-8.03862e-05
9.20385e-06
-7.5562e-05
-4.52117e-06
-5.77368e-05
-2.52438e-05
-2.55153e-05
-4.78161e-05
-3.518e-05
2.46739e-06
-1.4185e-05
9.74571e-06
-3.63658e-05
2.2647e-05
-5.15889e-05
3.95362e-05
-6.34156e-05
5.98778e-05
-7.24038e-05
8.29224e-05
-7.8428e-05
0.000108056
-8.12787e-05
0.00013436
-8.1168e-05
0.000161177
-7.86083e-05
0.000187671
-7.40002e-05
0.000213525
-6.82822e-05
0.000238101
-6.16121e-05
0.000261103
-5.48394e-05
0.000282271
-4.84189e-05
0.000301531
-4.32084e-05
0.000319089
-3.99495e-05
0.000335456
-3.90018e-05
0.000351382
-4.01804e-05
0.000367653
-4.26142e-05
0.000384833
-4.4983e-05
0.000403021
-4.58963e-05
0.000421727
-4.42827e-05
0.000439942
-3.96176e-05
0.000456375
-3.20108e-05
0.000469796
-2.22098e-05
0.000479333
-1.13909e-05
0.000484627
-7.53169e-07
0.000485812
8.84091e-06
0.000483364
1.70414e-05
0.000477856
2.39187e-05
0.000469764
2.96802e-05
0.000459437
3.447e-05
0.000447174
3.83566e-05
0.000433275
4.13763e-05
0.000418049
4.35592e-05
0.000401812
4.4962e-05
0.000384887
4.56626e-05
0.000367622
4.56793e-05
0.000350405
4.49259e-05
0.000333665
4.33099e-05
0.000317811
4.08936e-05
0.000303133
3.79637e-05
0.000289729
3.49569e-05
0.000277508
3.23058e-05
0.00026625
3.02842e-05
0.000255673
2.89213e-05
0.000245487
2.80218e-05
0.000235435
2.72781e-05
0.000225335
2.6394e-05
0.000215106
2.51449e-05
0.000204757
2.33907e-05
0.000194323
2.11213e-05
0.000183811
1.85439e-05
0.00017314
1.61167e-05
0.000162135
1.44496e-05
0.000150542
1.41092e-05
0.000138092
1.54143e-05
0.000124589
1.82882e-05
0.000110014
2.22297e-05
9.45596e-05
2.64541e-05
7.85807e-05
3.01898e-05
6.24819e-05
3.29941e-05
4.66086e-05
3.48707e-05
3.11699e-05
3.61399e-05
1.61679e-05
3.72329e-05
1.39737e-06
3.85179e-05
-1.34011e-05
4.01344e-05
-2.83483e-05
4.1899e-05
-4.33641e-05
4.34085e-05
-5.81796e-05
4.4249e-05
-7.23129e-05
4.40084e-05
-8.50877e-05
4.21514e-05
-9.57421e-05
3.81713e-05
-0.000103491
3.16472e-05
-0.000107366
2.19369e-05
-0.000105777
7.61531e-06
-9.57137e-05
-1.45848e-05
-7.23093e-05
-4.86482e-05
-3.26311e-05
-8.74943e-05
-6.7811e-05
-2.04487e-06
-1.21402e-05
-1.52452e-06
-3.68861e-05
4.65176e-06
-5.77653e-05
1.4543e-05
-7.3307e-05
2.71869e-05
-8.50477e-05
4.20402e-05
-9.32812e-05
5.89298e-05
-9.81684e-05
7.72886e-05
-9.9527e-05
9.6716e-05
-9.80357e-05
0.000117042
-9.43263e-05
0.000137739
-8.89795e-05
0.000158767
-8.26399e-05
0.000179663
-7.57351e-05
0.000200195
-6.89516e-05
0.000219934
-6.29466e-05
0.000238477
-5.84926e-05
0.00025573
-5.6255e-05
0.000271933
-5.63834e-05
0.000287623
-5.83041e-05
0.000303498
-6.08584e-05
0.000320171
-6.25692e-05
0.000337846
-6.19572e-05
0.000356151
-5.79231e-05
0.00037423
-5.00895e-05
0.000390963
-3.89426e-05
0.000405243
-2.56717e-05
0.00041625
-1.176e-05
0.000423611
1.48043e-06
0.000427399
1.32532e-05
0.000427982
2.33356e-05
0.000425806
3.18566e-05
0.000421241
3.90343e-05
0.000414554
4.50437e-05
0.000405945
4.99857e-05
0.000395595
5.39087e-05
0.000383699
5.68585e-05
0.000370484
5.88778e-05
0.000356242
5.99208e-05
0.00034136
5.9808e-05
0.000326316
5.8354e-05
0.000311623
5.55867e-05
0.000297726
5.18606e-05
0.00028491
4.7773e-05
0.000273262
4.39537e-05
0.000262689
4.08574e-05
0.000252949
3.86614e-05
0.000243681
3.72896e-05
0.000234447
3.6512e-05
0.000224806
3.60347e-05
0.000214404
3.55466e-05
0.000203031
3.47642e-05
0.000190618
3.35342e-05
0.000177205
3.19571e-05
0.000162894
3.04271e-05
0.000147817
2.95266e-05
0.000132101
2.98247e-05
0.000115865
3.16506e-05
9.92351e-05
3.49179e-05
8.23708e-05
3.9094e-05
6.54438e-05
4.33811e-05
4.85922e-05
4.70413e-05
3.1907e-05
4.96793e-05
1.54718e-05
5.13058e-05
-6.0598e-07
5.22176e-05
-1.62231e-05
5.285e-05
-3.13112e-05
5.36058e-05
-4.58207e-05
5.46439e-05
-5.96886e-05
5.57669e-05
-7.279e-05
5.65099e-05
-8.48611e-05
5.63201e-05
-9.5491e-05
5.46384e-05
-0.000104189
5.08498e-05
-0.000110445
4.44271e-05
-0.000113804
3.50063e-05
-0.000113637
2.17692e-05
-0.000108827
2.80527e-06
-9.69875e-05
-2.64238e-05
-7.30595e-05
-7.25763e-05
-3.32253e-05
-0.000127328
-0.000101036
-5.4341e-06
-6.70623e-06
-9.86648e-06
-3.24537e-05
-8.43817e-06
-5.91935e-05
-2.97313e-06
-7.87722e-05
4.88764e-06
-9.29085e-05
1.44872e-05
-0.000102881
2.53497e-05
-0.000109031
3.74909e-05
-0.000111668
5.05995e-05
-0.000111144
6.4792e-05
-0.000108519
8.00025e-05
-0.00010419
9.63405e-05
-9.89779e-05
0.000113587
-9.29813e-05
0.000131557
-8.69216e-05
0.000149915
-8.13046e-05
0.000168125
-7.67026e-05
0.000185632
-7.37623e-05
0.000202112
-7.28631e-05
0.000217647
-7.38396e-05
0.000232676
-7.58867e-05
0.000247824
-7.7718e-05
0.000263685
-7.78182e-05
0.000280517
-7.47546e-05
0.000298052
-6.76246e-05
0.000315565
-5.6455e-05
0.000332083
-4.21904e-05
0.000346646
-2.63228e-05
0.000358543
-1.04163e-05
0.000367467
4.32922e-06
0.000373484
1.73179e-05
0.000376852
2.84889e-05
0.000377838
3.80481e-05
0.000376659
4.62234e-05
0.000373479
5.31654e-05
0.000368412
5.89754e-05
0.000361522
6.37485e-05
0.000352875
6.75246e-05
0.000342627
7.01688e-05
0.000331079
7.13564e-05
0.000318668
7.07649e-05
0.000305909
6.83458e-05
0.000293313
6.44569e-05
0.000281319
5.97663e-05
0.000270245
5.50278e-05
0.000260227
5.08756e-05
0.00025117
4.77185e-05
0.000242731
4.57289e-05
0.000234375
4.48674e-05
0.000225504
4.49058e-05
0.000215593
4.54579e-05
0.000204288
4.60687e-05
0.000191449
4.63731e-05
0.00017715
4.62562e-05
0.00016166
4.59174e-05
0.000145381
4.58049e-05
0.000128759
4.64474e-05
0.000112184
4.82254e-05
9.59419e-05
5.11597e-05
8.0174e-05
5.48619e-05
6.48383e-05
5.87167e-05
4.97082e-05
6.21714e-05
3.44678e-05
6.49198e-05
1.88738e-05
6.68999e-05
2.88138e-06
6.82101e-05
-1.33057e-05
6.90372e-05
-2.92672e-05
6.95673e-05
-4.45054e-05
6.9882e-05
-5.85917e-05
6.98532e-05
-7.11858e-05
6.9104e-05
-8.19758e-05
6.71101e-05
-9.06725e-05
6.33351e-05
-9.7042e-05
5.72193e-05
-0.000100944
4.83292e-05
-0.000102288
3.63502e-05
-0.000100767
2.02481e-05
-9.56557e-05
-2.30599e-06
-8.51086e-05
-3.69709e-05
-6.44088e-05
-9.32759e-05
-2.92654e-05
-0.000162472
-0.000130302
-8.00041e-06
1.29419e-06
-1.64928e-05
-2.39614e-05
-1.86984e-05
-5.69878e-05
-1.65296e-05
-8.0941e-05
-1.21543e-05
-9.72838e-05
-6.44855e-06
-0.000108587
1.03158e-07
-0.000115583
7.23933e-06
-0.000118804
1.52485e-05
-0.000119154
2.4098e-05
-0.000117368
3.42108e-05
-0.000114303
4.56398e-05
-0.000110407
5.87259e-05
-0.000106067
7.33363e-05
-0.000101532
8.91158e-05
-9.70839e-05
0.000105627
-9.32136e-05
0.000122293
-9.04288e-05
0.00013848
-8.90497e-05
0.000153776
-8.91358e-05
0.000168225
-9.03357e-05
0.000182247
-9.17403e-05
0.000196427
-9.19975e-05
0.000211329
-8.96573e-05
0.000227268
-8.35634e-05
0.000244071
-7.32578e-05
0.000261075
-5.91949e-05
0.000277394
-4.26415e-05
0.000292233
-2.52556e-05
0.000305067
-8.50484e-06
0.000315652
6.73295e-06
0.000323954
2.01865e-05
0.00033006
3.19427e-05
0.000334095
4.21879e-05
0.000336167
5.10932e-05
0.000336318
5.88249e-05
0.000334521
6.55459e-05
0.00033074
7.13055e-05
0.000325013
7.58955e-05
0.000317501
7.88688e-05
0.000308488
7.97772e-05
0.000298376
7.84584e-05
0.000287668
7.51649e-05
0.00027694
7.04942e-05
0.000266746
6.52217e-05
0.000257479
6.01429e-05
0.000249236
5.59615e-05
0.000241767
5.31978e-05
0.000234538
5.20965e-05
0.000226886
5.25579e-05
0.000218194
5.41497e-05
0.000208023
5.62397e-05
0.000196187
5.82093e-05
0.000182786
5.96563e-05
0.000168196
6.05078e-05
0.000152976
6.10252e-05
0.000137732
6.16909e-05
0.000122975
6.29825e-05
0.000109006
6.51288e-05
9.58432e-05
6.80244e-05
8.31929e-05
7.13669e-05
7.05109e-05
7.48535e-05
5.71883e-05
7.82423e-05
4.27839e-05
8.13043e-05
2.71959e-05
8.37983e-05
1.07466e-05
8.54866e-05
-5.87808e-06
8.6192e-05
-2.18624e-05
8.58662e-05
-3.64919e-05
8.44827e-05
-4.92521e-05
8.18642e-05
-5.98242e-05
7.76822e-05
-6.80249e-05
7.15359e-05
-7.38302e-05
6.30245e-05
-7.73491e-05
5.1848e-05
-7.87098e-05
3.77108e-05
-7.78859e-05
1.94242e-05
-7.44176e-05
-5.77435e-06
-6.6814e-05
-4.45745e-05
-5.114e-05
-0.00010895
-2.29944e-05
-0.000190617
-0.000153296
-9.42131e-06
1.07154e-05
-2.08553e-05
-1.25274e-05
-2.62294e-05
-5.16136e-05
-2.71682e-05
-8.00024e-05
-2.56208e-05
-9.88311e-05
-2.30889e-05
-0.000111119
-2.0085e-05
-0.000118586
-1.68191e-05
-0.00012207
-1.31696e-05
-0.000122803
-8.93461e-06
-0.000121603
-3.48777e-06
-0.00011975
3.48872e-06
-0.000117383
1.22998e-05
-0.000114878
2.30184e-05
-0.000112251
3.55643e-05
-0.00010963
4.95786e-05
-0.000107228
6.44369e-05
-0.000105287
7.94823e-05
-0.000104095
9.41547e-05
-0.000103808
0.000108102
-0.000104283
0.000121339
-0.000104977
0.000134293
-0.000104951
0.000147615
-0.000102979
0.000161883
-9.78317e-05
0.000177332
-8.87062e-05
0.00019375
-7.56129e-05
0.000210576
-5.94681e-05
0.000227103
-4.17818e-05
0.000242667
-2.40692e-05
0.00025678
-7.38069e-06
0.000269163
7.80421e-06
0.000279702
2.14034e-05
0.000288382
3.35075e-05
0.000295209
4.42666e-05
0.000300157
5.38774e-05
0.000303158
6.25444e-05
0.000304134
7.03295e-05
0.000303031
7.69986e-05
0.000299847
8.20526e-05
0.000294664
8.49602e-05
0.000287707
8.54161e-05
0.000279407
8.34646e-05
0.000270409
7.94925e-05
0.000261456
7.41744e-05
0.000253188
6.84106e-05
0.000245932
6.3218e-05
0.000239596
5.95334e-05
0.000233724
5.79684e-05
0.000227658
5.86244e-05
0.000220734
6.10733e-05
0.000212452
6.4522e-05
0.000202581
6.80803e-05
0.000191219
7.10184e-05
0.000178768
7.2959e-05
0.000165823
7.39701e-05
0.000153011
7.45021e-05
0.000140836
7.51575e-05
0.000129541
7.64239e-05
0.000119017
7.85484e-05
0.000108798
8.15859e-05
9.81887e-05
8.54629e-05
8.64919e-05
8.9939e-05
7.32378e-05
9.45584e-05
5.83542e-05
9.86819e-05
4.22437e-05
0.000101597
2.5682e-05
0.000102754
9.58123e-06
0.000101967
-5.2384e-06
9.93024e-05
-1.82171e-05
9.48429e-05
-2.90798e-05
8.85449e-05
-3.77514e-05
8.02073e-05
-4.43726e-05
6.96458e-05
-4.90644e-05
5.65399e-05
-5.19334e-05
4.05797e-05
-5.30527e-05
2.05436e-05
-5.2057e-05
-6.77006e-06
-4.7715e-05
-4.89166e-05
-3.69354e-05
-0.00011973
-1.62984e-05
-0.000211254
-0.000169595
-9.8181e-06
2.05335e-05
-2.31188e-05
7.73148e-07
-3.09807e-05
-4.37515e-05
-3.45935e-05
-7.63898e-05
-3.58759e-05
-9.75486e-05
-3.6055e-05
-0.00011094
-3.61828e-05
-0.000118459
-3.63649e-05
-0.000121888
-3.65547e-05
-0.000122613
-3.61106e-05
-0.000122047
-3.48451e-05
-0.000121015
-3.21194e-05
-0.000120109
-2.74836e-05
-0.000119514
-2.06776e-05
-0.000119057
-1.17233e-05
-0.000118584
-8.52915e-07
-0.000118098
1.15303e-05
-0.00011767
2.48142e-05
-0.000117379
3.83057e-05
-0.0001173
5.1477e-05
-0.000117455
6.41194e-05
-0.00011762
7.63732e-05
-0.000117205
8.86702e-05
-0.000115276
0.000101611
-0.000110772
0.000115717
-0.000102812
0.000131187
-9.10833e-05
0.000147812
-7.60928e-05
0.000165068
-5.90376e-05
0.000182302
-4.1304e-05
0.000198906
-2.39848e-05
0.00021441
-7.69898e-06
0.000228503
7.31009e-06
0.00024101
2.10002e-05
0.000251835
3.34417e-05
0.000260908
4.48042e-05
0.000268159
5.52938e-05
0.000273501
6.49875e-05
0.000276816
7.36832e-05
0.000277951
8.0918e-05
0.000276768
8.61438e-05
0.000273274
8.89098e-05
0.000267766
8.89722e-05
0.000260882
8.6377e-05
0.000253488
8.15684e-05
0.000246435
7.54638e-05
0.000240287
6.9366e-05
0.000235163
6.46575e-05
0.000230748
6.23834e-05
0.000226444
6.29278e-05
0.000221576
6.59414e-05
0.000215578
7.05197e-05
0.000208144
7.55141e-05
0.000199304
7.98584e-05
0.000189404
8.28595e-05
0.000178985
8.43885e-05
0.000168624
8.48635e-05
0.000158768
8.50135e-05
0.000149603
8.55889e-05
0.000140965
8.71866e-05
0.000132367
9.01837e-05
0.000123159
9.46705e-05
0.000112731
0.000100367
0.000100686
0.000106603
8.69914e-05
0.000112376
7.20243e-05
0.000116564
5.6447e-05
0.000118331
4.10471e-05
0.000117367
2.65604e-05
0.000113789
1.34906e-05
0.000107913
2.09213e-06
9.99434e-05
-7.64349e-06
8.99429e-05
-1.5866e-05
7.78684e-05
-2.26406e-05
6.33144e-05
-2.78426e-05
4.57817e-05
-3.13829e-05
2.40839e-05
-3.27919e-05
-5.36107e-06
-3.11528e-05
-5.05556e-05
-2.42691e-05
-0.000126613
-1.04436e-05
-0.00022508
-0.000180038
-9.36485e-06
2.98983e-05
-2.34153e-05
1.48235e-05
-3.32746e-05
-3.38923e-05
-3.91508e-05
-7.05136e-05
-4.28512e-05
-9.38482e-05
-4.57855e-05
-0.000108005
-4.87387e-05
-0.000115505
-5.19309e-05
-0.000118696
-5.54034e-05
-0.000119141
-5.86221e-05
-0.000118829
-6.10571e-05
-0.00011858
-6.20765e-05
-0.00011909
-6.13142e-05
-0.000120277
-5.84188e-05
-0.000121952
-5.31587e-05
-0.000123844
-4.56271e-05
-0.00012563
-3.61739e-05
-0.000127123
-2.52808e-05
-0.000128272
-1.35012e-05
-0.000129079
-1.40446e-06
-0.000129551
1.05679e-05
-0.000129592
2.22681e-05
-0.000128905
3.39093e-05
-0.000126918
4.59907e-05
-0.000122854
5.90896e-05
-0.000115911
7.36231e-05
-0.000105617
8.96795e-05
-9.21492e-05
0.000106984
-7.63422e-05
0.000125003
-5.93227e-05
0.000143107
-4.20886e-05
0.000160709
-2.53013e-05
0.000177346
-9.32733e-06
0.000192708
5.63858e-06
0.000206619
1.95301e-05
0.000218997
3.24264e-05
0.000229794
4.44972e-05
0.000238939
5.58421e-05
0.000246277
6.63455e-05
0.000251533
7.56617e-05
0.00025438
8.32971e-05
0.000254599
8.86906e-05
0.000252281
9.12901e-05
0.000247937
9.07219e-05
0.00024243
8.70746e-05
0.000236748
8.11463e-05
0.00023169
7.4424e-05
0.000227647
6.87006e-05
0.000224537
6.54936e-05
0.000221898
6.55662e-05
0.000219074
6.87659e-05
0.00021542
7.41737e-05
0.0002105
8.04336e-05
0.000204207
8.61521e-05
0.00019676
9.03066e-05
0.000188603
9.25448e-05
0.000180248
9.32187e-05
0.000172109
9.31523e-05
0.000164364
9.3334e-05
0.000156879
9.46715e-05
0.000149266
9.77971e-05
0.000141032
0.000102905
0.000131725
0.000109674
0.000121051
0.000117277
0.000108988
0.00012444
9.57907e-05
0.000129761
8.18926e-05
0.000132229
6.78304e-05
0.000131429
5.4112e-05
0.000127507
4.11094e-05
0.000120915
2.90352e-05
0.000112018
1.79177e-05
0.00010106
7.76148e-06
8.80247e-05
-1.30837e-06
7.23842e-05
-8.91309e-06
5.33864e-05
-1.46545e-05
2.98253e-05
-1.79097e-05
-2.10593e-06
-1.81071e-05
-5.03582e-05
-1.42328e-05
-0.000130488
-5.802e-06
-0.00023351
-0.00018584
-8.66457e-06
3.85629e-05
-2.23605e-05
2.85194e-05
-3.32779e-05
-2.29751e-05
-4.1139e-05
-6.26525e-05
-4.7107e-05
-8.78802e-05
-5.24058e-05
-0.000102706
-5.78358e-05
-0.000110076
-6.39974e-05
-0.000112534
-7.04149e-05
-0.000112723
-7.68006e-05
-0.000112443
-8.24739e-05
-0.000112907
-8.69619e-05
-0.000114602
-8.97022e-05
-0.000117536
-9.02939e-05
-0.00012136
-8.85605e-05
-0.000125578
-8.44844e-05
-0.000129706
-7.81957e-05
-0.000133412
-6.99961e-05
-0.000136472
-6.03548e-05
-0.000138721
-4.98374e-05
-0.000140069
-3.89455e-05
-0.000140484
-2.79631e-05
-0.000139887
-1.68769e-05
-0.000138004
-5.39924e-06
-0.000134331
6.93441e-06
-0.000128245
2.06024e-05
-0.000119285
3.58897e-05
-0.000107436
5.2747e-05
-9.31996e-05
7.08029e-05
-7.73786e-05
8.94827e-05
-6.07683e-05
0.000108156
-4.39752e-05
0.00012627
-2.74413e-05
0.00014343
-1.15205e-05
0.000159416
3.54362e-06
0.000174154
1.76884e-05
0.000187641
3.10106e-05
0.000199852
4.36312e-05
0.000210641
5.55564e-05
0.000219684
6.66181e-05
0.000226527
7.64547e-05
0.000230739
8.4478e-05
0.000232136
8.98932e-05
0.000230946
9.19125e-05
0.000227839
9.01813e-05
0.000223782
8.52033e-05
0.000219761
7.84449e-05
0.0002165
7.19621e-05
0.000214275
6.77177e-05
0.000212889
6.69526e-05
0.000211776
6.9879e-05
0.000210226
7.57238e-05
0.000207635
8.30238e-05
0.000203697
9.00909e-05
0.000198449
9.55543e-05
0.000192213
9.87802e-05
0.000185452
9.99799e-05
0.000178589
0.000100015
0.000171848
0.000100075
0.000165189
0.000101331
0.000158371
0.000104615
0.000151073
0.000110203
0.000142981
0.000117766
0.000133878
0.00012638
0.000123714
0.000134604
0.000112573
0.000140902
0.000100647
0.000144155
8.82008e-05
0.000143875
7.54891e-05
0.000140219
6.27468e-05
0.000133657
5.00538e-05
0.00012471
3.7557e-05
0.000113557
2.55209e-05
0.000100061
1.43504e-05
8.35549e-05
4.669e-06
6.30677e-05
-2.69316e-06
3.71875e-05
-7.14883e-06
2.34974e-06
-8.42052e-06
-4.90865e-05
-6.75105e-06
-0.000132157
-2.3055e-06
-0.000237956
-0.000188146
-7.56141e-06
4.61242e-05
-2.032e-05
4.1278e-05
-3.18304e-05
-1.14647e-05
-4.09635e-05
-5.35195e-05
-4.87655e-05
-8.00782e-05
-5.63358e-05
-9.51359e-05
-6.42226e-05
-0.000102189
-7.2746e-05
-0.000104011
-8.17393e-05
-0.00010373
-9.08948e-05
-0.000103288
-9.94809e-05
-0.000104321
-0.000106909
-0.000107174
-0.000112683
-0.000111762
-0.000116439
-0.000117604
-0.000117942
-0.000124074
-0.000117062
-0.000130586
-0.000113844
-0.000136631
-0.000108521
-0.000141795
-0.000101448
-0.000145794
-9.30421e-05
-0.000148474
-8.37251e-05
-0.000149801
-7.38466e-05
-0.000149766
-6.3578e-05
-0.000148272
-5.2844e-05
-0.000145065
-4.13271e-05
-0.000139762
-2.85845e-05
-0.000132027
-1.42584e-05
-0.000121763
1.74051e-06
-0.000109199
1.91785e-05
-9.48166e-05
3.75702e-05
-7.916e-05
5.63156e-05
-6.27206e-05
7.48485e-05
-4.59743e-05
9.2745e-05
-2.9417e-05
0.000109767
-1.34786e-05
0.000125848
1.60746e-06
0.000141027
1.58318e-05
0.000155347
2.93108e-05
0.000168741
4.21628e-05
0.000180944
5.44156e-05
0.000191494
6.59045e-05
0.000199835
7.61372e-05
0.000205493
8.42349e-05
0.000208281
8.9124e-05
0.000208445
9.00171e-05
0.000206681
8.69682e-05
0.000203984
8.1141e-05
0.000201379
7.45675e-05
0.000199598
6.94986e-05
0.000198867
6.7683e-05
0.000198876
6.98706e-05
0.00019895
7.56493e-05
0.000198352
8.36226e-05
0.000196541
9.1901e-05
0.000193328
9.8768e-05
0.00018887
0.000103238
0.000183567
0.000105283
0.00017786
0.000105723
0.000172047
0.000105887
0.000166217
0.000107161
0.00016029
0.000110542
0.000154082
0.000116411
0.000147373
0.000124476
0.000139991
0.000133762
0.000131831
0.000142763
0.000122819
0.000149915
0.000112931
0.000154043
0.000102167
0.000154639
9.05686e-05
0.000151818
7.82337e-05
0.000145992
6.5243e-05
0.000137701
5.18025e-05
0.000126998
3.83574e-05
0.000113506
2.55322e-05
9.63801e-05
1.42427e-05
7.43572e-05
5.64986e-06
4.57802e-05
3.27619e-07
7.67194e-06
-1.69014e-06
-4.70687e-05
-1.42115e-06
-0.000132426
8.98683e-09
-0.000239386
-0.000188137
-6.38884e-06
5.2513e-05
-1.7777e-05
5.26662e-05
-2.90608e-05
-1.80858e-07
-3.92292e-05
-4.33511e-05
-4.86373e-05
-7.06701e-05
-5.79307e-05
-8.58425e-05
-6.78906e-05
-9.22288e-05
-7.84942e-05
-9.34073e-05
-8.97856e-05
-9.24385e-05
-0.000101177
-9.1896e-05
-0.000112201
-9.3297e-05
-0.000122187
-9.71884e-05
-0.000130611
-0.000103337
-0.000137081
-0.000111134
-0.000141347
-0.000119808
-0.000143311
-0.000128622
-0.00014302
-0.000136922
-0.000140619
-0.000144195
-0.00013631
-0.000150103
-0.000130355
-0.000154429
-0.000123091
-0.000157064
-0.000114875
-0.000157982
-0.000105962
-0.000157186
-9.64e-05
-0.000154627
-8.60048e-05
-0.000150157
-7.44416e-05
-0.000143591
-6.13899e-05
-0.000134814
-4.67087e-05
-0.00012388
-3.05253e-05
-0.000111
-1.32162e-05
-9.64691e-05
4.69887e-06
-8.06356e-05
2.26919e-05
-6.39674e-05
4.0341e-05
-4.70661e-05
5.73955e-05
-3.05332e-05
7.37875e-05
-1.47846e-05
8.95887e-05
3.06205e-08
0.000104919
1.398e-05
0.000119834
2.7248e-05
0.00013422
4.00294e-05
0.000147746
5.2379e-05
0.000159875
6.40082e-05
0.00016996
7.415e-05
0.000177409
8.16743e-05
0.000181909
8.55177e-05
0.000183617
8.52597e-05
0.000183235
8.15238e-05
0.000181845
7.59569e-05
0.000180563
7.07811e-05
0.00018013
6.81164e-05
0.000180681
6.93194e-05
0.000181787
7.45428e-05
0.000182717
8.26931e-05
0.000182758
9.18602e-05
0.000181475
0.000100051
0.000178825
0.000105887
0.0001751
0.000109009
0.000170716
0.000110106
0.000166025
0.000110579
0.000161223
0.000111962
0.000156365
0.0001154
0.000151381
0.000121395
0.000146136
0.00012972
0.000140502
0.000139396
0.000134325
0.00014894
0.000127408
0.000156832
0.000119542
0.000161908
0.000110491
0.00016369
0.000100152
0.000162157
8.84896e-05
0.000157655
7.56389e-05
0.000150552
6.1861e-05
0.000140776
4.77072e-05
0.000127659
3.38803e-05
0.000110207
2.15052e-05
8.67322e-05
1.18543e-05
5.54311e-05
5.6865e-06
1.38397e-05
2.8623e-06
-4.42445e-05
2.09932e-06
-0.000131663
1.35072e-06
-0.000238637
-0.000186786
-5.17366e-06
5.76866e-05
-1.5177e-05
6.26695e-05
-2.59341e-05
1.05763e-05
-3.65181e-05
-3.27672e-05
-4.69755e-05
-6.02127e-05
-5.77637e-05
-7.50543e-05
-6.93074e-05
-8.06852e-05
-8.16406e-05
-8.10742e-05
-9.47233e-05
-7.93557e-05
-0.000108067
-7.8552e-05
-0.000121155
-8.02094e-05
-0.000133303
-8.50401e-05
-0.000143941
-9.26999e-05
-0.000152689
-0.000102386
-0.000159349
-0.000113148
-0.000163862
-0.000124109
-0.000166248
-0.000134536
-0.00016657
-0.000143873
-0.000164953
-0.000151721
-0.000161595
-0.000157787
-0.00015676
-0.000161899
-0.000150728
-0.000164014
-0.000143727
-0.000164187
-0.00013586
-0.000162493
-0.000127061
-0.000158956
-0.000117127
-0.000153524
-0.000105817
-0.000146125
-9.29806e-05
-0.000136716
-7.86694e-05
-0.000125311
-6.31552e-05
-0.000111983
-4.68596e-05
-9.69313e-05
-3.02433e-05
-8.05838e-05
-1.37008e-05
-6.36086e-05
2.5153e-06
-4.67493e-05
1.83277e-05
-3.0597e-05
3.38173e-05
-1.54591e-05
4.91576e-05
-1.36029e-06
6.4518e-05
1.18875e-05
7.99647e-05
2.45827e-05
9.53756e-05
3.69681e-05
0.000110382
4.90022e-05
0.000124354
6.01773e-05
0.000136483
6.95458e-05
0.000145974
7.60261e-05
0.000152354
7.88801e-05
0.000155736
7.81419e-05
0.000156889
7.48039e-05
0.000156994
7.0676e-05
0.000157186
6.79238e-05
0.000158134
6.83722e-05
0.000159861
7.28156e-05
0.000161866
8.0688e-05
0.000163421
9.03054e-05
0.000163919
9.9553e-05
0.000163116
0.00010669
0.000161142
0.000110982
0.000158328
0.00011292
0.000155016
0.000113891
0.000151474
0.000115505
0.000147853
0.000119021
0.000144181
0.000125067
0.000140416
0.000133485
0.000136476
0.000143336
0.000132183
0.000153233
0.00012728
0.000161735
0.000121423
0.000167766
0.000114237
0.000170875
0.000105421
0.000170973
9.48406e-05
0.000168236
8.26523e-05
0.00016274
6.9156e-05
0.000154272
5.4861e-05
0.000141954
4.06031e-05
0.000124465
2.75899e-05
9.97455e-05
1.69877e-05
6.60332e-05
9.86717e-06
2.09602e-05
6.15558e-06
-4.05329e-05
4.29581e-06
-0.000129803
2.25068e-06
-0.000236592
-0.000184535
-4.22546e-06
6.19121e-05
-1.29472e-05
7.13913e-05
-2.29571e-05
2.05861e-05
-3.36057e-05
-2.21186e-05
-4.46393e-05
-4.91791e-05
-5.63875e-05
-6.33062e-05
-6.89397e-05
-6.81331e-05
-8.26179e-05
-6.7396e-05
-9.71233e-05
-6.48503e-05
-0.000112147
-6.3528e-05
-0.000126972
-6.53846e-05
-0.000140927
-7.10856e-05
-0.000153433
-8.01931e-05
-0.000164141
-9.16791e-05
-0.000172882
-0.000104407
-0.000179603
-0.000117388
-0.000184299
-0.00012984
-0.000187016
-0.000141156
-0.000187878
-0.000150859
-0.000187062
-0.000158603
-0.000184768
-0.000164194
-0.000181192
-0.000167589
-0.000176513
-0.000168866
-0.000170851
-0.000168156
-0.000164209
-0.000165598
-0.000156473
-0.000161261
-0.00014746
-0.000155137
-0.000137027
-0.000147149
-0.000125171
-0.000137167
-0.000112071
-0.000125083
-9.80431e-05
-0.00011096
-8.34618e-05
-9.51651e-05
-6.86737e-05
-7.83968e-05
-5.3922e-05
-6.1501e-05
-3.93007e-05
-4.52185e-05
-2.47481e-05
-3.00117e-05
-1.00837e-05
-1.60247e-05
4.92509e-06
-3.12136e-06
2.04812e-05
9.02658e-06
3.66665e-05
2.07828e-05
5.3342e-05
3.23267e-05
7.00576e-05
4.34616e-05
8.60268e-05
5.35765e-05
0.00010024
6.18128e-05
0.000111744
6.73764e-05
0.000120008
6.98781e-05
0.000125193
6.96186e-05
0.000128137
6.77319e-05
0.000130022
6.60388e-05
0.0001319
6.64947e-05
0.000134316
7.03992e-05
0.000137195
7.78086e-05
0.000140006
8.74946e-05
0.000142118
9.74417e-05
0.000143132
0.000105676
0.000142994
0.00011112
0.000141892
0.000114022
0.000140119
0.000115664
0.000137972
0.000117652
0.000135674
0.00012132
0.00013334
0.000127401
0.000131022
0.000135802
0.000128693
0.000145665
0.000126213
0.000155713
0.000123307
0.000164641
0.000119493
0.00017158
0.000114311
0.000176057
0.000107328
0.000177956
9.83417e-05
0.000177221
8.73944e-05
0.000173687
7.47362e-05
0.00016693
6.08395e-05
0.000155851
4.66375e-05
0.000138667
3.32521e-05
0.000113131
2.18238e-05
7.74615e-05
1.36029e-05
2.91812e-05
8.85082e-06
-3.57807e-05
5.88186e-06
-0.000126834
2.88058e-06
-0.000233591
-0.000181654
-3.70169e-06
6.56137e-05
-1.15028e-05
7.91926e-05
-2.07365e-05
2.98198e-05
-3.10234e-05
-1.18316e-05
-4.22192e-05
-3.79835e-05
-5.4341e-05
-5.11844e-05
-6.75555e-05
-5.49186e-05
-8.21128e-05
-5.28388e-05
-9.77887e-05
-4.91744e-05
-0.000114156
-4.71606e-05
-0.000130427
-4.91139e-05
-0.00014589
-5.56225e-05
-0.000159976
-6.61073e-05
-0.000172342
-7.93133e-05
-0.000182819
-9.39291e-05
-0.00019135
-0.000108857
-0.000197947
-0.000123243
-0.000202686
-0.000136418
-0.000205703
-0.000147841
-0.000207169
-0.000157137
-0.000207263
-0.0001641
-0.000206163
-0.000168689
-0.000204028
-0.000171001
-0.000200967
-0.000171217
-0.000196991
-0.000169573
-0.000192
-0.000166251
-0.00018583
-0.000161307
-0.000178335
-0.000154645
-0.00016946
-0.000146041
-0.000159286
-0.000135258
-0.000148013
-0.000122233
-0.000135916
-0.000107261
-0.000123283
-9.10303e-05
-0.000110341
-7.44427e-05
-9.72122e-05
-5.83475e-05
-8.38841e-05
-4.33398e-05
-7.02204e-05
-2.96884e-05
-5.59939e-05
-1.73478e-05
-4.09434e-05
-6.02387e-06
-2.48517e-05
4.69118e-06
-7.65193e-06
1.5127e-05
1.0448e-05
2.53617e-05
2.88685e-05
3.51559e-05
4.66678e-05
4.40136e-05
6.27188e-05
5.13255e-05
7.60385e-05
5.65584e-05
8.61459e-05
5.95112e-05
9.32613e-05
6.06165e-05
9.82177e-05
6.10824e-05
0.000102109
6.26036e-05
0.000105842
6.6666e-05
0.00010981
7.38406e-05
0.000113847
8.34581e-05
0.000117476
9.38123e-05
0.000120252
0.0001029
0.00012195
0.000109422
0.000122586
0.000113385
0.000122371
0.000115879
0.000121612
0.000118411
0.000120599
0.000122334
0.000119553
0.000128447
0.000118627
0.000136729
0.00011785
0.000146441
0.000117123
0.00015644
0.000116155
0.00016561
0.000114442
0.000173293
0.000111422
0.000179077
0.000106566
0.000182812
9.95535e-05
0.000184234
9.03193e-05
0.000182921
7.90223e-05
0.000178227
6.61302e-05
0.000168743
5.24986e-05
0.000152298
3.90302e-05
0.000126599
2.70193e-05
8.94725e-05
1.76454e-05
3.85552e-05
1.1479e-05
-2.96143e-05
7.36653e-06
-0.000122721
3.15412e-06
-0.000229379
-0.0001785
-3.58243e-06
6.91962e-05
-1.08122e-05
8.64224e-05
-1.94322e-05
3.84396e-05