/*--------------------------------*- C++ -*----------------------------------*\
  =========                 |
  \\      /  F ield         | OpenFOAM: The Open Source CFD Toolbox
   \\    /   O peration     | Website:  https://openfoam.org
    \\  /    A nd           | Version:  6.0
     \\/     M anipulation  |
\*---------------------------------------------------------------------------*/
FoamFile
{
    version     2.0;
    format      ascii;
    class       volVectorField;
    location    "0.1";
    object      U;
}
// * * * * * * * * * * * * * * * * * * * * * * * * * * * * * * * * * * * * * //

dimensions      [0 1 -1 0 0 0 0];

internalField   nonuniform List<vector> 
3200
(
(0.0956189 -0.381468 0)
(0.838856 -0.745335 0)
(2.03388 -0.861805 0)
(3.57366 -0.999816 0)
(5.25307 -1.08523 0)
(7.06628 -1.10905 0)
(8.90315 -1.09897 0)
(10.6851 -1.04076 0)
(12.3611 -0.963947 0)
(13.8651 -0.861023 0)
(15.186 -0.745449 0)
(16.3126 -0.641694 0)
(17.2395 -0.545343 0)
(18.0175 -0.459135 0)
(18.667 -0.397074 0)
(19.2519 -0.384667 0)
(19.8478 -0.418564 0)
(20.506 -0.470943 0)
(21.2447 -0.512806 0)
(22.0486 -0.523636 0)
(22.8658 -0.495892 0)
(23.6172 -0.432435 0)
(24.2322 -0.343784 0)
(24.6699 -0.239759 0)
(24.9088 -0.125404 0)
(24.9437 -0.00624937 0)
(24.7871 0.107461 0)
(24.4645 0.205138 0)
(24.0069 0.283944 0)
(23.4426 0.348135 0)
(22.7909 0.401523 0)
(22.0666 0.444779 0)
(21.2872 0.478008 0)
(20.4725 0.501253 0)
(19.6382 0.51398 0)
(18.7954 0.517704 0)
(17.952 0.517496 0)
(17.1144 0.517712 0)
(16.2899 0.517519 0)
(15.4888 0.513218 0)
(14.7238 0.503904 0)
(14.0052 0.492586 0)
(13.3352 0.482659 0)
(12.7071 0.475503 0)
(12.1093 0.471165 0)
(11.5312 0.468882 0)
(10.9671 0.465656 0)
(10.4187 0.455316 0)
(9.89717 0.430551 0)
(9.42177 0.386396 0)
(9.01654 0.322085 0)
(8.70559 0.240472 0)
(8.50788 0.147045 0)
(8.43137 0.0502416 0)
(8.46706 -0.0381463 0)
(8.58587 -0.104319 0)
(8.74068 -0.136017 0)
(8.87421 -0.126405 0)
(8.93146 -0.0763312 0)
(8.87253 0.00528714 0)
(8.67936 0.103493 0)
(8.35427 0.202538 0)
(7.91377 0.29252 0)
(7.37946 0.372028 0)
(6.76807 0.443592 0)
(6.0877 0.508138 0)
(5.34306 0.566419 0)
(4.53887 0.620852 0)
(3.67644 0.669236 0)
(2.75583 0.703809 0)
(1.78809 0.722635 0)
(0.800682 0.727528 0)
(-0.168627 0.709916 0)
(-1.07383 0.659594 0)
(-1.85962 0.569578 0)
(-2.44727 0.41863 0)
(-2.70967 0.187186 0)
(-2.46693 -0.147534 0)
(-1.47298 -0.529076 0)
(-0.510835 -0.389129 0)
(0.0859861 -0.742656 0)
(0.957391 -1.88401 0)
(2.56731 -2.37042 0)
(4.53856 -2.79647 0)
(6.84179 -3.08508 0)
(9.36421 -3.22533 0)
(12.0269 -3.21359 0)
(14.7238 -3.09733 0)
(17.3422 -2.86609 0)
(19.831 -2.58911 0)
(22.0911 -2.25117 0)
(24.1353 -1.9328 0)
(25.9672 -1.62194 0)
(27.5482 -1.35595 0)
(28.9263 -1.17955 0)
(30.1725 -1.1229 0)
(31.3578 -1.18065 0)
(32.5536 -1.3055 0)
(33.8245 -1.43111 0)
(35.1989 -1.49242 0)
(36.6408 -1.44322 0)
(38.0601 -1.27361 0)
(39.3517 -1.0012 0)
(40.4199 -0.655473 0)
(41.1787 -0.272884 0)
(41.5713 0.10518 0)
(41.6029 0.442303 0)
(41.3225 0.719987 0)
(40.7808 0.942482 0)
(40.0149 1.12386 0)
(39.0544 1.27293 0)
(37.9314 1.39194 0)
(36.6834 1.48032 0)
(35.3455 1.53569 0)
(33.9431 1.55832 0)
(32.4963 1.55643 0)
(31.0266 1.54109 0)
(29.5598 1.51522 0)
(28.1248 1.47308 0)
(26.7501 1.41043 0)
(25.4564 1.33093 0)
(24.2519 1.24358 0)
(23.1333 1.1594 0)
(22.094 1.09023 0)
(21.1258 1.04449 0)
(20.2152 1.01946 0)
(19.343 0.998888 0)
(18.4938 0.961521 0)
(17.6682 0.892812 0)
(16.8833 0.788319 0)
(16.1625 0.64869 0)
(15.5238 0.476846 0)
(14.9755 0.282921 0)
(14.5158 0.0901835 0)
(14.1289 -0.0673115 0)
(13.7811 -0.155226 0)
(13.423 -0.150872 0)
(12.9989 -0.0509941 0)
(12.4617 0.1262 0)
(11.7859 0.344944 0)
(10.9724 0.56375 0)
(10.0438 0.753331 0)
(9.03468 0.907896 0)
(7.97292 1.038 0)
(6.86509 1.15479 0)
(5.70439 1.26656 0)
(4.48679 1.38219 0)
(3.20914 1.50029 0)
(1.86475 1.6017 0)
(0.459006 1.67212 0)
(-0.975791 1.71127 0)
(-2.38496 1.70265 0)
(-3.70671 1.61541 0)
(-4.87784 1.42482 0)
(-5.8161 1.10238 0)
(-6.39571 0.611108 0)
(-6.43808 -0.140726 0)
(-5.62218 -1.26459 0)
(-3.5258 -2.42021 0)
(-1.23997 -1.69156 0)
(-0.0661901 -1.16591 0)
(0.360378 -2.76548 0)
(1.20843 -3.76416 0)
(2.41225 -4.56937 0)
(3.91937 -5.14902 0)
(5.67831 -5.5343 0)
(7.60797 -5.66019 0)
(9.6728 -5.59246 0)
(11.8174 -5.35167 0)
(13.9641 -4.96801 0)
(16.0631 -4.5121 0)
(18.0679 -3.98195 0)
(19.9849 -3.48497 0)
(21.7742 -3.03111 0)
(23.3972 -2.67238 0)
(24.8607 -2.46928 0)
(26.2063 -2.44627 0)
(27.4838 -2.57519 0)
(28.7509 -2.77416 0)
(30.0763 -2.93833 0)
(31.4975 -2.96592 0)
(32.9886 -2.78829 0)
(34.4824 -2.39145 0)
(35.8927 -1.81227 0)
(37.1182 -1.11925 0)
(38.0581 -0.38995 0)
(38.6535 0.306174 0)
(38.901 0.919175 0)
(38.8358 1.43105 0)
(38.5068 1.8526 0)
(37.9547 2.20057 0)
(37.2093 2.48302 0)
(36.2981 2.70397 0)
(35.2473 2.8688 0)
(34.0787 2.98115 0)
(32.8128 3.0425 0)
(31.4741 3.05626 0)
(30.0929 3.02661 0)
(28.7037 2.95349 0)
(27.3419 2.83379 0)
(26.0388 2.66981 0)
(24.8174 2.47643 0)
(23.6914 2.2806 0)
(22.6641 2.11196 0)
(21.7285 1.98921 0)
(20.8656 1.91081 0)
(20.0468 1.85702 0)
(19.2437 1.80124 0)
(18.4377 1.72152 0)
(17.6237 1.60411 0)
(16.8026 1.44156 0)
(15.9747 1.23459 0)
(15.1383 0.999968 0)
(14.29 0.775029 0)
(13.4215 0.609792 0)
(12.5168 0.549955 0)
(11.5552 0.620678 0)
(10.5183 0.817168 0)
(9.39652 1.10352 0)
(8.19369 1.42189 0)
(6.92976 1.71381 0)
(5.63752 1.94499 0)
(4.35208 2.11444 0)
(3.09723 2.24261 0)
(1.87968 2.35562 0)
(0.693413 2.47687 0)
(-0.478385 2.61858 0)
(-1.66047 2.77194 0)
(-2.86502 2.91085 0)
(-4.07264 3.00836 0)
(-5.24308 3.03884 0)
(-6.32709 2.96669 0)
(-7.27006 2.75151 0)
(-8.01773 2.35022 0)
(-8.50248 1.71694 0)
(-8.63362 0.765642 0)
(-8.26021 -0.706869 0)
(-7.04696 -2.92211 0)
(-4.46117 -5.3848 0)
(-1.58747 -4.08728 0)
(-0.258477 -1.09144 0)
(-0.241603 -3.01976 0)
(0.0418503 -4.45964 0)
(0.697019 -5.55806 0)
(1.63153 -6.41478 0)
(2.73042 -6.99667 0)
(4.01916 -7.32611 0)
(5.41338 -7.36969 0)
(6.93192 -7.21493 0)
(8.53588 -6.86656 0)
(10.1818 -6.41548 0)
(11.8476 -5.86741 0)
(13.5169 -5.28618 0)
(15.2006 -4.73498 0)
(16.8322 -4.27561 0)
(18.3718 -3.9572 0)
(19.8016 -3.81873 0)
(21.1291 -3.87063 0)
(22.3884 -4.05717 0)
(23.6324 -4.27057 0)
(24.9251 -4.39005 0)
(26.3029 -4.30594 0)
(27.7525 -3.9438 0)
(29.2251 -3.29294 0)
(30.6449 -2.415 0)
(31.9136 -1.41892 0)
(32.9415 -0.416697 0)
(33.6772 0.509906 0)
(34.1148 1.32069 0)
(34.2786 2.00952 0)
(34.203 2.58654 0)
(33.9223 3.06467 0)
(33.4673 3.45563 0)
(32.8572 3.76843 0)
(32.0995 4.00796 0)
(31.2017 4.1769 0)
(30.1832 4.27788 0)
(29.0729 4.30989 0)
(27.9022 4.26448 0)
(26.7029 4.13202 0)
(25.5093 3.91591 0)
(24.3573 3.64145 0)
(23.2798 3.35092 0)
(22.2979 3.08822 0)
(21.4148 2.88274 0)
(20.6142 2.74112 0)
(19.8662 2.65007 0)
(19.1348 2.58651 0)
(18.3862 2.52683 0)
(17.591 2.45021 0)
(16.7259 2.33992 0)
(15.7764 2.18945 0)
(14.74 2.01247 0)
(13.6249 1.84593 0)
(12.4427 1.74039 0)
(11.2039 1.74222 0)
(9.91912 1.87615 0)
(8.60059 2.13323 0)
(7.26017 2.46921 0)
(5.90776 2.81765 0)
(4.5543 3.11588 0)
(3.21172 3.3305 0)
(1.88771 3.46452 0)
(0.585375 3.54566 0)
(-0.688052 3.61147 0)
(-1.91892 3.69431 0)
(-3.09895 3.80456 0)
(-4.23132 3.92527 0)
(-5.31687 4.02362 0)
(-6.33616 4.06188 0)
(-7.25034 3.99863 0)
(-8.01855 3.78866 0)
(-8.61791 3.38909 0)
(-9.01474 2.7602 0)
(-9.15006 1.84142 0)
(-8.97994 0.493577 0)
(-8.38795 -1.59322 0)
(-7.12134 -4.83423 0)
(-4.5696 -8.6101 0)
(-1.65813 -6.76263 0)
(-0.420816 -0.801708 0)
(-0.709077 -2.8453 0)
(-0.802891 -4.75417 0)
(-0.530387 -6.13684 0)
(0.0392508 -7.18079 0)
(0.758335 -7.91938 0)
(1.57695 -8.37357 0)
(2.48965 -8.54384 0)
(3.49483 -8.45535 0)
(4.58857 -8.21191 0)
(5.76591 -7.81021 0)
(7.0272 -7.3436 0)
(8.36641 -6.80612 0)
(9.78274 -6.26895 0)
(11.2533 -5.78587 0)
(12.7397 -5.40993 0)
(14.1809 -5.19421 0)
(15.5352 -5.15964 0)
(16.8061 -5.27959 0)
(18.018 -5.4747 0)
(19.2106 -5.6297 0)
(20.44 -5.62156 0)
(21.7482 -5.34306 0)
(23.1346 -4.73571 0)
(24.5553 -3.81991 0)
(25.9388 -2.68918 0)
(27.2034 -1.47153 0)
(28.2754 -0.28624 0)
(29.1102 0.787231 0)
(29.7004 1.71837 0)
(30.0636 2.51195 0)
(30.2268 3.18585 0)
(30.2157 3.75575 0)
(30.0452 4.2307 0)
(29.7176 4.61642 0)
(29.2327 4.91941 0)
(28.5998 5.14402 0)
(27.8365 5.28317 0)
(26.9631 5.31581 0)
(26.0032 5.22065 0)
(24.9889 4.99743 0)
(23.9612 4.67713 0)
(22.9646 4.31366 0)
(22.036 3.96439 0)
(21.1958 3.67284 0)
(20.4424 3.46077 0)
(19.7536 3.32985 0)
(19.0925 3.2674 0)
(18.4149 3.25119 0)
(17.6752 3.25261 0)
(16.8345 3.24239 0)
(15.8692 3.20145 0)
(14.7773 3.13171 0)
(13.5757 3.05887 0)
(12.2931 3.02442 0)
(10.9643 3.07131 0)
(9.62546 3.22664 0)
(8.30744 3.48599 0)
(7.0275 3.80966 0)
(5.78662 4.13798 0)
(4.57361 4.41773 0)
(3.36818 4.6216 0)
(2.14329 4.74976 0)
(0.879368 4.82125 0)
(-0.417195 4.86594 0)
(-1.71514 4.91116 0)
(-2.97441 4.96478 0)
(-4.15733 5.00999 0)
(-5.23224 5.01339 0)
(-6.1712 4.93391 0)
(-6.94777 4.72575 0)
(-7.54158 4.33382 0)
(-7.9487 3.71572 0)
(-8.16212 2.85716 0)
(-8.15125 1.68604 0)
(-7.90092 0.027531 0)
(-7.33378 -2.53875 0)
(-6.26717 -6.66702 0)
(-4.1008 -11.6459 0)
(-1.53293 -9.30411 0)
(-0.538783 -0.249082 0)
(-1.06779 -2.32255 0)
(-1.49718 -4.70605 0)
(-1.47208 -6.45555 0)
(-1.17127 -7.65361 0)
(-0.763266 -8.5149 0)
(-0.263503 -9.0518 0)
(0.28834 -9.29955 0)
(0.875545 -9.28704 0)
(1.54532 -9.11025 0)
(2.30457 -8.81286 0)
(3.15153 -8.45212 0)
(4.13517 -8.03336 0)
(5.24481 -7.59502 0)
(6.47478 -7.1738 0)
(7.7872 -6.81531 0)
(9.1289 -6.5712 0)
(10.4488 -6.47222 0)
(11.7089 -6.51332 0)
(12.896 -6.64666 0)
(14.0247 -6.78251 0)
(15.1373 -6.80532 0)
(16.2894 -6.59891 0)
(17.5232 -6.07523 0)
(18.8432 -5.21003 0)
(20.2121 -4.05926 0)
(21.5654 -2.74 0)
(22.8302 -1.3871 0)
(23.9467 -0.109819 0)
(24.8818 1.03151 0)
(25.629 2.0234 0)
(26.1981 2.87987 0)
(26.6033 3.62013 0)
(26.8516 4.25695 0)
(26.941 4.79897 0)
(26.8688 5.25593 0)
(26.6384 5.63306 0)
(26.2566 5.91787 0)
(25.7299 6.07823 0)
(25.0684 6.08098 0)
(24.2943 5.91716 0)
(23.4459 5.61372 0)
(22.5734 5.22552 0)
(21.7279 4.81691 0)
(20.9484 4.44554 0)
(20.2523 4.15413 0)
(19.6318 3.96808 0)
(19.0558 3.89404 0)
(18.4759 3.91797 0)
(17.8368 4.00643 0)
(17.0904 4.11565 0)
(16.2093 4.20699 0)
(15.1925 4.2612 0)
(14.0613 4.28461 0)
(12.8539 4.30584 0)
(11.6196 4.36492 0)
(10.4079 4.49541 0)
(9.25462 4.70576 0)
(8.17168 4.97357 0)
(7.14638 5.26007 0)
(6.14612 5.53119 0)
(5.12305 5.7667 0)
(4.02578 5.95606 0)
(2.82507 6.09458 0)
(1.53191 6.18267 0)
(0.190173 6.2229 0)
(-1.13756 6.2171 0)
(-2.38276 6.15912 0)
(-3.48671 6.02649 0)
(-4.41195 5.78541 0)
(-5.15117 5.3971 0)
(-5.70806 4.81296 0)
(-6.07583 4.0014 0)
(-6.26592 2.94537 0)
(-6.27116 1.56747 0)
(-6.09612 -0.334682 0)
(-5.70677 -3.26898 0)
(-4.95433 -8.11766 0)
(-3.33936 -14.1871 0)
(-1.29323 -11.4113 0)
(-0.606984 0.464025 0)
(-1.27975 -1.51014 0)
(-1.96586 -4.4033 0)
(-2.21435 -6.48881 0)
(-2.12392 -7.90025 0)
(-1.95819 -8.83979 0)
(-1.73612 -9.42299 0)
(-1.47838 -9.69629 0)
(-1.20504 -9.75739 0)
(-0.904278 -9.63153 0)
(-0.534537 -9.44146 0)
(-0.0469415 -9.18636 0)
(0.588246 -8.9141 0)
(1.36732 -8.62407 0)
(2.30645 -8.32784 0)
(3.38766 -8.06095 0)
(4.55669 -7.85605 0)
(5.75992 -7.73766 0)
(6.9565 -7.71669 0)
(8.10903 -7.77797 0)
(9.19371 -7.86586 0)
(10.2267 -7.88436 0)
(11.2622 -7.72004 0)
(12.3575 -7.27504 0)
(13.545 -6.49979 0)
(14.827 -5.41086 0)
(16.1749 -4.09136 0)
(17.5304 -2.66885 0)
(18.827 -1.27009 0)
(20.0158 0.021167 0)
(21.0725 1.17468 0)
(21.9891 2.19426 0)
(22.762 3.09317 0)
(23.3855 3.88373 0)
(23.8535 4.57948 0)
(24.1645 5.19568 0)
(24.3205 5.7382 0)
(24.3196 6.18927 0)
(24.1547 6.50893 0)
(23.8205 6.65577 0)
(23.3264 6.61106 0)
(22.7018 6.38929 0)
(21.9954 6.03335 0)
(21.266 5.60344 0)
(20.5695 5.16743 0)
(19.9453 4.79272 0)
(19.4053 4.53624 0)
(18.9296 4.43162 0)
(18.4704 4.47869 0)
(17.9672 4.64255 0)
(17.3669 4.86561 0)
(16.6396 5.0875 0)
(15.7832 5.26346 0)
(14.8193 5.37594 0)
(13.7879 5.43798 0)
(12.7422 5.48653 0)
(11.7329 5.56441 0)
(10.7915 5.69935 0)
(9.92173 5.89579 0)
(9.10139 6.14414 0)
(8.2854 6.43168 0)
(7.41249 6.74104 0)
(6.42539 7.04468 0)
(5.2984 7.30677 0)
(4.04614 7.48818 0)
(2.71634 7.55772 0)
(1.38194 7.50734 0)
(0.122195 7.34192 0)
(-0.996907 7.05662 0)
(-1.93707 6.63358 0)
(-2.70383 6.04677 0)
(-3.31188 5.27664 0)
(-3.75744 4.30623 0)
(-4.05675 3.10473 0)
(-4.20198 1.56827 0)
(-4.18574 -0.532538 0)
(-4.00962 -3.76552 0)
(-3.57285 -9.18324 0)
(-2.49549 -16.1625 0)
(-1.01365 -12.9846 0)
(-0.600687 1.23992 0)
(-1.36619 -0.499284 0)
(-2.24051 -3.86481 0)
(-2.69964 -6.31635 0)
(-2.83454 -7.91629 0)
(-2.87955 -8.93467 0)
(-2.88365 -9.53739 0)
(-2.90495 -9.81893 0)
(-2.92454 -9.89404 0)
(-2.91632 -9.82931 0)
(-2.86858 -9.71617 0)
(-2.72258 -9.58254 0)
(-2.4393 -9.45802 0)
(-1.97445 -9.33261 0)
(-1.33452 -9.202 0)
(-0.53654 -9.07824 0)
(0.404508 -8.97137 0)
(1.44668 -8.89275 0)
(2.52874 -8.85865 0)
(3.60079 -8.87426 0)
(4.63654 -8.90796 0)
(5.63002 -8.89126 0)
(6.60007 -8.73702 0)
(7.59171 -8.35717 0)
(8.66028 -7.68209 0)
(9.84525 -6.6908 0)
(11.1459 -5.43596 0)
(12.52 -4.03077 0)
(13.9104 -2.59816 0)
(15.2686 -1.2256 0)
(16.5577 0.0446146 0)
(17.7486 1.19967 0)
(18.8191 2.23983 0)
(19.7536 3.17326 0)
(20.5441 4.01643 0)
(21.1907 4.78803 0)
(21.6942 5.49368 0)
(22.0477 6.1134 0)
(22.2339 6.60561 0)
(22.2344 6.92589 0)
(22.0426 7.0451 0)
(21.673 6.95768 0)
(21.1649 6.68316 0)
(20.5792 6.26772 0)
(19.9858 5.78488 0)
(19.4464 5.32804 0)
(18.9949 4.99043 0)
(18.626 4.83823 0)
(18.2973 4.88981 0)
(17.9475 5.11236 0)
(17.5209 5.43671 0)
(16.9838 5.78105 0)
(16.3279 6.07385 0)
(15.5683 6.27231 0)
(14.7411 6.37364 0)
(13.8964 6.41239 0)
(13.0801 6.44178 0)
(12.3172 6.51128 0)
(11.6071 6.65497 0)
(10.9269 6.89168 0)
(10.2314 7.22403 0)
(9.46196 7.6313 0)
(8.5711 8.06697 0)
(7.54167 8.46448 0)
(6.38456 8.7485 0)
(5.14004 8.86142 0)
(3.8758 8.78536 0)
(2.66239 8.53013 0)
(1.55577 8.11056 0)
(0.585665 7.52852 0)
(-0.248434 6.77429 0)
(-0.957585 5.85403 0)
(-1.54102 4.74746 0)
(-2.02622 3.42183 0)
(-2.38327 1.75859 0)
(-2.55408 -0.516113 0)
(-2.55194 -4.01914 0)
(-2.35639 -9.90946 0)
(-1.71871 -17.559 0)
(-0.756231 -14.0643 0)
(-0.575802 2.0273 0)
(-1.31828 0.60844 0)
(-2.32809 -3.1381 0)
(-2.98651 -5.91977 0)
(-3.28905 -7.70921 0)
(-3.53652 -8.82196 0)
(-3.77424 -9.41752 0)
(-4.0262 -9.68932 0)
(-4.29424 -9.7321 0)
(-4.56854 -9.71256 0)
(-4.81505 -9.66335 0)
(-4.96684 -9.65253 0)
(-4.9857 -9.6747 0)
(-4.83906 -9.72075 0)
(-4.51008 -9.7777 0)
(-3.99328 -9.82452 0)
(-3.30302 -9.85592 0)
(-2.47739 -9.87969 0)
(-1.56178 -9.899 0)
(-0.597815 -9.9101 0)
(0.375717 -9.9024 0)
(1.32621 -9.84973 0)
(2.24875 -9.69604 0)
(3.17756 -9.36152 0)
(4.17006 -8.76938 0)
(5.27508 -7.88464 0)
(6.50875 -6.73873 0)
(7.85396 -5.41699 0)
(9.27561 -4.01903 0)
(10.7304 -2.62581 0)
(12.1707 -1.28926 0)
(13.5513 -0.0376114 0)
(14.8375 1.11691 0)
(16.008 2.17544 0)
(17.054 3.1511 0)
(17.9758 4.06084 0)
(18.7742 4.91054 0)
(19.4404 5.68442 0)
(19.9522 6.34781 0)
(20.2818 6.85873 0)
(20.4064 7.17759 0)
(20.3203 7.27336 0)
(20.0453 7.13327 0)
(19.634 6.77949 0)
(19.1635 6.28303 0)
(18.7148 5.75901 0)
(18.3457 5.33743 0)
(18.0707 5.12129 0)
(17.8602 5.1543 0)
(17.6585 5.41283 0)
(17.4087 5.82115 0)
(17.0692 6.2777 0)
(16.619 6.68363 0)
(16.0613 6.97017 0)
(15.4247 7.11858 0)
(14.753 7.16065 0)
(14.0867 7.15944 0)
(13.4482 7.18547 0)
(12.8397 7.30073 0)
(12.2436 7.54728 0)
(11.6222 7.93592 0)
(10.9297 8.43996 0)
(10.1357 8.99766 0)
(9.22934 9.51736 0)
(8.21281 9.89688 0)
(7.11156 10.0621 0)
(5.97406 9.98477 0)
(4.85174 9.67488 0)
(3.78156 9.16487 0)
(2.7806 8.47703 0)
(1.86173 7.62698 0)
(1.02119 6.61247 0)
(0.264618 5.39783 0)
(-0.409386 3.9338 0)
(-0.967109 2.13225 0)
(-1.30932 -0.317843 0)
(-1.42972 -4.06383 0)
(-1.38712 -10.3422 0)
(-1.08111 -18.4328 0)
(-0.544896 -14.716 0)
(-0.533575 2.75657 0)
(-1.2342 1.75565 0)
(-2.25568 -2.29473 0)
(-3.04451 -5.35609 0)
(-3.55737 -7.30773 0)
(-3.97087 -8.48215 0)
(-4.38889 -9.07981 0)
(-4.86228 -9.30806 0)
(-5.37804 -9.32997 0)
(-5.90111 -9.31211 0)
(-6.38805 -9.3238 0)
(-6.81612 -9.41519 0)
(-7.11604 -9.58448 0)
(-7.25007 -9.8071 0)
(-7.20154 -10.0512 0)
(-6.96569 -10.286 0)
(-6.54768 -10.4935 0)
(-5.96114 -10.66 0)
(-5.23505 -10.7729 0)
(-4.41457 -10.8291 0)
(-3.54817 -10.832 0)
(-2.67201 -10.7735 0)
(-1.79719 -10.6175 0)
(-0.907306 -10.3066 0)
(0.0347653 -9.78202 0)
(1.07063 -9.00941 0)
(2.22939 -7.99688 0)
(3.51928 -6.79442 0)
(4.92519 -5.47487 0)
(6.40894 -4.11005 0)
(7.91802 -2.75511 0)
(9.40091 -1.44628 0)
(10.8178 -0.205622 0)
(12.1436 0.95719 0)
(13.3677 2.04511 0)
(14.4913 3.06876 0)
(15.5181 4.03527 0)
(16.4423 4.93891 0)
(17.243 5.75914 0)
(17.8874 6.46218 0)
(18.3392 7.0012 0)
(18.5705 7.31989 0)
(18.5763 7.36929 0)
(18.3877 7.13866 0)
(18.074 6.68363 0)
(17.7256 6.12834 0)
(17.4235 5.63211 0)
(17.2105 5.33602 0)
(17.0815 5.31807 0)
(16.9967 5.57617 0)
(16.9018 6.03842 0)
(16.7442 6.58929 0)
(16.4852 7.10414 0)
(16.112 7.48722 0)
(15.6426 7.70053 0)
(15.1136 7.76878 0)
(14.5616 7.76093 0)
(14.0122 7.76503 0)
(13.4759 7.86599 0)
(12.9427 8.12369 0)
(12.3843 8.55564 0)
(11.771 9.13351 0)
(11.0871 9.78631 0)
(10.3227 10.4046 0)
(9.47087 10.8703 0)
(8.53903 11.0986 0)
(7.55029 11.0508 0)
(6.53657 10.7364 0)
(5.51707 10.1947 0)
(4.50439 9.46486 0)
(3.50947 8.57679 0)
(2.53052 7.51747 0)
(1.59303 6.22323 0)
(0.750208 4.62648 0)
(0.0485226 2.64792 0)
(-0.409437 -0.0116481 0)
(-0.620394 -3.99305 0)
(-0.666879 -10.5436 0)
(-0.586028 -18.9213 0)
(-0.371368 -15.0118 0)
(-0.475097 3.41303 0)
(-1.07604 2.81681 0)
(-2.10652 -1.37862 0)
(-2.96739 -4.67353 0)
(-3.60127 -6.75177 0)
(-4.19705 -7.94675 0)
(-4.8056 -8.54106 0)
(-5.46243 -8.71079 0)
(-6.17085 -8.71259 0)
(-6.91374 -8.67481 0)
(-7.6348 -8.74019 0)
(-8.2905 -8.92483 0)
(-8.82814 -9.22626 0)
(-9.21389 -9.61665 0)
(-9.42439 -10.051 0)
(-9.44685 -10.4825 0)
(-9.28075 -10.8731 0)
(-8.93287 -11.1966 0)
(-8.42516 -11.4388 0)
(-7.79434 -11.5937 0)
(-7.07877 -11.6579 0)
(-6.30896 -11.6242 0)
(-5.5048 -11.4775 0)
(-4.6708 -11.1924 0)
(-3.78973 -10.7341 0)
(-2.82741 -10.0707 0)
(-1.74836 -9.19149 0)
(-0.532135 -8.11923 0)
(0.815656 -6.9046 0)
(2.26256 -5.60555 0)
(3.76108 -4.27005 0)
(5.26315 -2.93483 0)
(6.72801 -1.63112 0)
(8.12662 -0.383892 0)
(9.4459 0.794429 0)
(10.6886 1.90545 0)
(11.8638 2.95783 0)
(12.9731 3.95769 0)
(14.003 4.90134 0)
(14.9241 5.76806 0)
(15.6951 6.51194 0)
(16.2704 7.06122 0)
(16.6145 7.33697 0)
(16.7225 7.29205 0)
(16.6336 6.9517 0)
(16.4277 6.42745 0)
(16.1984 5.88962 0)
(16.0201 5.51088 0)
(15.9264 5.41076 0)
(15.9083 5.62434 0)
(15.9248 6.09965 0)
(15.9165 6.71825 0)
(15.8265 7.3347 0)
(15.623 7.82539 0)
(15.3095 8.1275 0)
(14.9123 8.25097 0)
(14.4643 8.26465 0)
(13.9962 8.26979 0)
(13.5284 8.36886 0)
(13.0604 8.63488 0)
(12.5748 9.09318 0)
(12.0565 9.71932 0)
(11.4975 10.438 0)
(10.8849 11.1302 0)
(10.2049 11.6711 0)
(9.44717 11.968 0)
(8.61159 11.9774 0)
(7.71062 11.7088 0)
(6.75194 11.1972 0)
(5.74644 10.4943 0)
(4.70838 9.60963 0)
(3.62615 8.52553 0)
(2.54328 7.17287 0)
(1.57049 5.46786 0)
(0.758826 3.29089 0)
(0.218115 0.377636 0)
(-0.0573628 -3.86479 0)
(-0.173233 -10.6064 0)
(-0.229147 -19.1549 0)
(-0.231593 -15.0805 0)
(-0.4033 3.9731 0)
(-0.918658 3.78133 0)
(-1.86762 -0.463954 0)
(-2.77313 -3.89114 0)
(-3.51771 -6.05836 0)
(-4.25964 -7.27221 0)
(-5.01268 -7.81325 0)
(-5.83417 -7.93071 0)
(-6.72284 -7.88704 0)
(-7.63959 -7.84897 0)
(-8.55417 -7.94573 0)
(-9.40508 -8.21517 0)
(-10.1537 -8.64775 0)
(-10.7578 -9.19919 0)
(-11.1874 -9.80972 0)
(-11.432 -10.4248 0)
(-11.4951 -10.9979 0)
(-11.3835 -11.4942 0)
(-11.1087 -11.8909 0)
(-10.6902 -12.1713 0)
(-10.1543 -12.3251 0)
(-9.53033 -12.3497 0)
(-8.84492 -12.2469 0)
(-8.11126 -12.0107 0)
(-7.32159 -11.6212 0)
(-6.45014 -11.0537 0)
(-5.46674 -10.2938 0)
(-4.35295 -9.35119 0)
(-3.11062 -8.25644 0)
(-1.762 -7.04603 0)
(-0.342691 -5.75304 0)
(1.10592 -4.41244 0)
(2.54236 -3.06667 0)
(3.9335 -1.75835 0)
(5.26466 -0.516244 0)
(6.54142 0.651917 0)
(7.77881 1.7549 0)
(8.98681 2.80794 0)
(10.1626 3.82242 0)
(11.2885 4.79375 0)
(12.3308 5.6876 0)
(13.2395 6.43325 0)
(13.9565 6.93766 0)
(14.4364 7.1237 0)
(14.6708 6.97681 0)
(14.7014 6.57224 0)
(14.6098 6.06347 0)
(14.489 5.63581 0)
(14.4141 5.44788 0)
(14.4213 5.58413 0)
(14.4992 6.03105 0)
(14.5956 6.68424 0)
(14.644 7.38752 0)
(14.5962 7.99083 0)
(14.4369 8.4006 0)
(14.1779 8.60348 0)
(13.8462 8.66177 0)
(13.4754 8.68592 0)
(13.0919 8.79252 0)
(12.7025 9.06572 0)
(12.3026 9.54011 0)
(11.8905 10.1971 0)
(11.462 10.96 0)
(11.0017 11.7078 0)
(10.4885 12.3149 0)
(9.89856 12.6834 0)
(9.21688 12.7722 0)
(8.43582 12.5897 0)
(7.56019 12.1681 0)
(6.5904 11.5464 0)
(5.53203 10.7145 0)
(4.40127 9.62926 0)
(3.25616 8.23678 0)
(2.20049 6.42492 0)
(1.29315 4.03322 0)
(0.669579 0.844223 0)
(0.338253 -3.6747 0)
(0.148617 -10.5903 0)
(0.00294883 -19.1681 0)
(-0.136187 -15.0291 0)
(-0.320151 4.42081 0)
(-0.740657 4.64823 0)
(-1.63548 0.437044 0)
(-2.53091 -3.05165 0)
(-3.33142 -5.25328 0)
(-4.17823 -6.45937 0)
(-5.06369 -6.93286 0)
(-6.01745 -7.00716 0)
(-7.04228 -6.89704 0)
(-8.10748 -6.84883 0)
(-9.18336 -6.97263 0)
(-10.2076 -7.32656 0)
(-11.1309 -7.88346 0)
(-11.9121 -8.58245 0)
(-12.528 -9.35697 0)
(-12.9722 -10.1478 0)
(-13.2454 -10.9011 0)
(-13.3509 -11.5709 0)
(-13.2943 -12.1238 0)
(-13.0875 -12.5374 0)
(-12.7525 -12.8016 0)
(-12.315 -12.9176 0)
(-11.7968 -12.8915 0)
(-11.2077 -12.7236 0)
(-10.5456 -12.4051 0)
(-9.79779 -11.9244 0)
(-8.94611 -11.2748 0)
(-7.97704 -10.4596 0)
(-6.88812 -9.48866 0)
(-5.69028 -8.37473 0)
(-4.40794 -7.13655 0)
(-3.07703 -5.80899 0)
(-1.73876 -4.44509 0)
(-0.426964 -3.10211 0)
(0.844818 -1.82211 0)
(2.08448 -0.62221 0)
(3.30953 0.502299 0)
(4.53464 1.56911 0)
(5.7671 2.59928 0)
(7.00557 3.60444 0)
(8.23409 4.56998 0)
(9.41328 5.44257 0)
(10.4794 6.13567 0)
(11.3589 6.55917 0)
(11.9958 6.66278 0)
(12.3769 6.47142 0)
(12.5411 6.0934 0)
(12.5702 5.69637 0)
(12.5628 5.45916 0)
(12.5998 5.51421 0)
(12.7123 5.90016 0)
(12.8745 6.54713 0)
(13.0274 7.3062 0)
(13.1154 8.0094 0)
(13.1066 8.53077 0)
(12.9946 8.82654 0)
(12.7969 8.94474 0)
(12.5452 8.99873 0)
(12.266 9.11595 0)
(11.9713 9.39288 0)
(11.6693 9.87533 0)
(11.3692 10.5494 0)
(11.0694 11.3376 0)
(10.7541 12.1226 0)
(10.3959 12.7829 0)
(9.96619 13.2254 0)
(9.44351 13.4158 0)
(8.8062 13.3506 0)
(8.04154 13.0582 0)
(7.13959 12.5503 0)
(6.10218 11.8105 0)
(4.97407 10.7763 0)
(3.8263 9.37161 0)
(2.72398 7.44306 0)
(1.74364 4.83516 0)
(1.03425 1.36622 0)
(0.628147 -3.41767 0)
(0.368605 -10.4925 0)
(0.154581 -19.026 0)
(-0.0773071 -14.8803 0)
(-0.247638 4.80095 0)
(-0.594055 5.38961 0)
(-1.41995 1.27641 0)
(-2.29344 -2.1772 0)
(-3.11918 -4.37493 0)
(-4.01931 -5.54533 0)
(-4.99068 -5.96514 0)
(-6.04242 -5.95606 0)
(-7.16952 -5.78794 0)
(-8.36497 -5.70962 0)
(-9.57648 -5.8564 0)
(-10.7452 -6.28231 0)
(-11.8117 -6.95309 0)
(-12.7435 -7.79708 0)
(-13.5239 -8.73554 0)
(-14.1439 -9.69584 0)
(-14.5985 -10.6153 0)
(-14.8897 -11.4441 0)
(-15.0256 -12.1456 0)
(-15.0195 -12.6957 0)
(-14.8908 -13.0831 0)
(-14.6579 -13.3058 0)
(-14.3339 -13.3678 0)
(-13.924 -13.2743 0)
(-13.4309 -13.0303 0)
(-12.8529 -12.6378 0)
(-12.1812 -12.0968 0)
(-11.4035 -11.4039 0)
(-10.5121 -10.5518 0)
(-9.50994 -9.53505 0)
(-8.41392 -8.36259 0)
(-7.25493 -7.06854 0)
(-6.07054 -5.71127 0)
(-4.89078 -4.35673 0)
(-3.72637 -3.05766 0)
(-2.56987 -1.84244 0)
(-1.40668 -0.715623 0)
(-0.22284 0.336531 0)
(0.995595 1.3389 0)
(2.26247 2.31582 0)
(3.58206 3.27367 0)
(4.93398 4.18505 0)
(6.26473 4.98668 0)
(7.49484 5.59735 0)
(8.54002 5.95002 0)
(9.33758 6.02492 0)
(9.86938 5.87138 0)
(10.1744 5.60997 0)
(10.3411 5.4074 0)
(10.4732 5.42311 0)
(10.6418 5.74597 0)
(10.8595 6.3556 0)
(11.0946 7.13191 0)
(11.2998 7.90552 0)
(11.433 8.52483 0)
(11.4702 8.91523 0)
(11.416 9.10539 0)
(11.2958 9.20345 0)
(11.1334 9.34085 0)
(10.945 9.62447 0)
(10.748 10.1109 0)
(10.5591 10.7895 0)
(10.3813 11.5855 0)
(10.2015 12.3902 0)
(9.99188 13.0904 0)
(9.72615 13.6076 0)
(9.37085 13.9093 0)
(8.89258 13.9865 0)
(8.2687 13.8419 0)
(7.47561 13.4704 0)
(6.51579 12.8497 0)
(5.44483 11.9099 0)
(4.32101 10.5218 0)
(3.19625 8.4962 0)
(2.17088 5.7041 0)
(1.38118 1.96157 0)
(0.872549 -3.09275 0)
(0.5345 -10.3054 0)
(0.261626 -18.8467 0)
(-0.0267904 -14.6669 0)
(-0.20455 5.11489 0)
(-0.512879 6.04656 0)
(-1.261 2.03971 0)
(-2.10066 -1.3346 0)
(-2.91911 -3.47618 0)
(-3.83596 -4.57334 0)
(-4.84691 -4.92951 0)
(-5.9618 -4.81791 0)
(-7.17334 -4.58209 0)
(-8.46976 -4.45463 0)
(-9.79215 -4.61133 0)
(-11.0768 -5.09898 0)
(-12.2664 -5.88089 0)
(-13.3305 -6.87021 0)
(-14.2499 -7.96822 0)
(-15.0123 -9.08756 0)
(-15.6133 -10.1606 0)
(-16.0589 -11.1381 0)
(-16.3604 -11.9823 0)
(-16.5333 -12.6664 0)
(-16.5947 -13.1746 0)
(-16.5584 -13.5008 0)
(-16.4342 -13.6486 0)
(-16.2278 -13.63 0)
(-15.9435 -13.4625 0)
(-15.5818 -13.1584 0)
(-15.1355 -12.72 0)
(-14.5912 -12.1383 0)
(-13.9372 -11.3957 0)
(-13.1709 -10.4766 0)
(-12.3027 -9.38263 0)
(-11.3561 -8.14355 0)
(-10.3614 -6.81706 0)
(-9.34254 -5.47308 0)
(-8.30859 -4.17369 0)
(-7.2562 -2.95989 0)
(-6.17818 -1.84814 0)
(-5.06563 -0.831989 0)
(-3.9027 0.112763 0)
(-2.66582 1.01746 0)
(-1.33509 1.90434 0)
(0.0878569 2.77108 0)
(1.56862 3.58489 0)
(3.04134 4.29032 0)
(4.41985 4.82709 0)
(5.61512 5.15229 0)
(6.55991 5.26445 0)
(7.23746 5.2244 0)
(7.69604 5.15676 0)
(8.02812 5.2149 0)
(8.3222 5.51753 0)
(8.62665 6.09342 0)
(8.9476 6.86594 0)
(9.26156 7.68264 0)
(9.52807 8.38019 0)
(9.7116 8.86046 0)
(9.80325 9.13278 0)
(9.81713 9.29339 0)
(9.77244 9.46898 0)
(9.69014 9.77029 0)
(9.5959 10.2609 0)
(9.51221 10.9345 0)
(9.44987 11.7239 0)
(9.39912 12.5302 0)
(9.33462 13.2557 0)
(9.23265 13.843 0)
(9.05658 14.2549 0)
(8.75435 14.4834 0)
(8.28734 14.5053 0)
(7.63849 14.2977 0)
(6.81336 13.8298 0)
(5.84663 13.0079 0)
(4.77173 11.6551 0)
(3.66604 9.58389 0)
(2.62555 6.65867 0)
(1.759 2.67478 0)
(1.13778 -2.66079 0)
(0.685401 -10.0195 0)
(0.330422 -18.5785 0)
(0.0230013 -14.4307 0)
(-0.193599 5.40164 0)
(-0.48451 6.63996 0)
(-1.17779 2.7433 0)
(-1.96945 -0.542935 0)
(-2.75464 -2.58415 0)
(-3.66288 -3.59843 0)
(-4.69001 -3.84729 0)
(-5.84407 -3.62957 0)
(-7.12224 -3.28967 0)
(-8.48866 -3.10231 0)
(-9.89123 -3.25896 0)
(-11.2631 -3.80721 0)
(-12.5524 -4.69854 0)
(-13.7219 -5.82487 0)
(-14.748 -7.07055 0)
(-15.6193 -8.33983 0)
(-16.3357 -9.56256 0)
(-16.9055 -10.6859 0)
(-17.3412 -11.6669 0)
(-17.6606 -12.4736 0)
(-17.8819 -13.0863 0)
(-18.0204 -13.4994 0)
(-18.0886 -13.7206 0)
(-18.0959 -13.7689 0)
(-18.0454 -13.6701 0)
(-17.9322 -13.4437 0)
(-17.7453 -13.0945 0)
(-17.4685 -12.6115 0)
(-17.0863 -11.9736 0)
(-16.59 -11.1594 0)
(-15.9812 -10.1624 0)
(-15.2731 -9.00401 0)
(-14.4864 -7.7367 0)
(-13.64 -6.4315 0)
(-12.7437 -5.158 0)
(-11.8012 -3.96872 0)
(-10.8149 -2.89162 0)
(-9.7834 -1.92856 0)
(-8.69332 -1.05902 0)
(-7.51807 -0.249881 0)
(-6.22996 0.529996 0)
(-4.81727 1.29673 0)
(-3.2945 2.04558 0)
(-1.70371 2.75269 0)
(-0.112856 3.38083 0)
(1.38893 3.88801 0)
(2.70874 4.24439 0)
(3.78354 4.45925 0)
(4.60981 4.60193 0)
(5.24066 4.79046 0)
(5.7514 5.14332 0)
(6.20708 5.72188 0)
(6.64799 6.49414 0)
(7.08049 7.33813 0)
(7.47701 8.09579 0)
(7.8011 8.65777 0)
(8.03492 9.0172 0)
(8.17971 9.25394 0)
(8.248 9.4832 0)
(8.26585 9.8122 0)
(8.26673 10.3055 0)
(8.27921 10.963 0)
(8.32131 11.7296 0)
(8.38956 12.5194 0)
(8.47008 13.2551 0)
(8.53554 13.8964 0)
(8.53977 14.4121 0)
(8.42378 14.7831 0)
(8.13594 14.983 0)
(7.66537 14.9714 0)
(7.00894 14.6897 0)
(6.16666 14.0014 0)
(5.17715 12.7152 0)
(4.14196 10.6634 0)
(3.11269 7.65198 0)
(2.17511 3.48763 0)
(1.44629 -2.08967 0)
(0.855335 -9.62547 0)
(0.395853 -18.1454 0)
(0.0646821 -14.1535 0)
(-0.193657 5.68653 0)
(-0.48074 7.19755 0)
(-1.14281 3.40865 0)
(-1.89009 0.205147 0)
(-2.64773 -1.72798 0)
(-3.53713 -2.63967 0)
(-4.56531 -2.75031 0)
(-5.74463 -2.40388 0)
(-7.06428 -1.93458 0)
(-8.47274 -1.67896 0)
(-9.91888 -1.831 0)
(-11.3436 -2.43871 0)
(-12.6963 -3.43194 0)
(-13.9349 -4.68336 0)
(-15.0354 -6.06797 0)
(-15.9879 -7.48497 0)
(-16.7924 -8.85765 0)
(-17.4547 -10.1235 0)
(-17.9885 -11.231 0)
(-18.4161 -12.143 0)
(-18.7628 -12.8375 0)
(-19.051 -13.3123 0)
(-19.2981 -13.5829 0)
(-19.5161 -13.6769 0)
(-19.7059 -13.6265 0)
(-19.8556 -13.4586 0)
(-19.9473 -13.1835 0)
(-19.9605 -12.7927 0)
(-19.8745 -12.2639 0)
(-19.6715 -11.5701 0)
(-19.3406 -10.6941 0)
(-18.8831 -9.64589 0)
(-18.3112 -8.4707 0)
(-17.6403 -7.23832 0)
(-16.883 -6.02259 0)
(-16.0511 -4.8837 0)
(-15.1568 -3.85876 0)
(-14.2065 -2.95864 0)
(-13.1919 -2.16975 0)
(-12.0897 -1.46213 0)
(-10.8729 -0.801896 0)
(-9.52386 -0.161698 0)
(-8.04086 0.474949 0)
(-6.44039 1.113 0)
(-4.76309 1.74383 0)
(-3.08021 2.34273 0)
(-1.4855 2.87561 0)
(-0.065337 3.32172 0)
(1.13399 3.70129 0)
(2.11542 4.08251 0)
(2.91693 4.55621 0)
(3.59529 5.19063 0)
(4.20832 5.98651 0)
(4.78657 6.85744 0)
(5.3201 7.66664 0)
(5.78192 8.30814 0)
(6.15318 8.76247 0)
(6.42492 9.08794 0)
(6.6021 9.38238 0)
(6.7128 9.74543 0)
(6.79798 10.2408 0)
(6.89677 10.8767 0)
(7.03611 11.6106 0)
(7.21857 12.3695 0)
(7.43563 13.1009 0)
(7.6605 13.773 0)
(7.83973 14.3741 0)
(7.91432 14.8797 0)
(7.83031 15.2617 0)
(7.56535 15.4609 0)
(7.08987 15.3761 0)
(6.3869 14.8418 0)
(5.52781 13.6805 0)
(4.58925 11.7 0)
(3.58617 8.64529 0)
(2.60463 4.3626 0)
(1.77268 -1.39407 0)
(1.04159 -9.11952 0)
(0.493731 -17.6668 0)
(0.103173 -13.8381 0)
(-0.185504 5.96855 0)
(-0.4742 7.7417 0)
(-1.13339 4.0524 0)
(-1.85831 0.929988 0)
(-2.59807 -0.909709 0)
(-3.47306 -1.68453 0)
(-4.5004 -1.64889 0)
(-5.69175 -1.14518 0)
(-7.01822 -0.549513 0)
(-8.43359 -0.223766 0)
(-9.88595 -0.371064 0)
(-11.3252 -1.03055 0)
(-12.7006 -2.11206 0)
(-13.9725 -3.47818 0)
(-15.1191 -4.99747 0)
(-16.1275 -6.56123 0)
(-16.9914 -8.08045 0)
(-17.7132 -9.48006 0)
(-18.3107 -10.7002 0)
(-18.8142 -11.6986 0)
(-19.2576 -12.4514 0)
(-19.6726 -12.9592 0)
(-20.0818 -13.2468 0)
(-20.4971 -13.3544 0)
(-20.9174 -13.3243 0)
(-21.3266 -13.1922 0)
(-21.7001 -12.9768 0)
(-22.0098 -12.6744 0)
(-22.2265 -12.2612 0)
(-22.3207 -11.702 0)
(-22.2688 -10.968 0)
(-22.0619 -10.0581 0)
(-21.7055 -9.00924 0)
(-21.212 -7.88673 0)
(-20.5956 -6.76356 0)
(-19.8746 -5.7027 0)
(-19.0708 -4.74732 0)
(-18.1997 -3.91677 0)
(-17.26 -3.20681 0)
(-16.235 -2.5954 0)
(-15.1031 -2.0522 0)
(-13.8468 -1.54599 0)
(-12.4545 -1.0468 0)
(-10.9222 -0.527447 0)
(-9.26418 0.0301656 0)
(-7.52597 0.625864 0)