1.45 	0 	0 	-0.291944
2.35 	0 	0 	-0.127268
