1.275 	2.15223e-18 	-2.76991e-20 	-0.0337537 	-0.000447754 	-2.00042e-22
1.825 	2.15223e-18 	-1.39322e-20 	-0.0081955 	-0.00280958 	1.79911e-21
2.375 	2.15223e-18 	-2.66896e-23 	0.118864 	-0.00334503 	-7.50729e-22
