/*--------------------------------*- C++ -*----------------------------------*\
  =========                 |
  \\      /  F ield         | OpenFOAM: The Open Source CFD Toolbox
   \\    /   O peration     | Website:  https://openfoam.org
    \\  /    A nd           | Version:  6.0
     \\/     M anipulation  |
\*---------------------------------------------------------------------------*/
FoamFile
{
    version     2.0;
    format      ascii;
    class       volScalarField;
    location    "80";
    object      p;
}
// * * * * * * * * * * * * * * * * * * * * * * * * * * * * * * * * * * * * * //

dimensions      [0 2 -2 0 0 0 0];

internalField   nonuniform List<scalar> 
34500
(
1.00583
1.00587
1.00572
1.00542
1.00499
1.00445
1.00385
1.00323
1.00263
1.00208
1.00159
1.0012
1.00082
1.00066
1.00072
1.00583
1.0059
1.0058
1.00558
1.00522
1.00476
1.00422
1.00363
1.00303
1.00245
1.00191
1.00146
1.00101
1.00088
1.00087
1.00583
1.00589
1.00576
1.00551
1.00511
1.00461
1.00404
1.00342
1.0028
1.00221
1.00166
1.00122
1.00081
1.00074
1.0007
1.00583
1.00588
1.00573
1.00545
1.00502
1.0045
1.00391
1.00329
1.00267
1.00209
1.00156
1.00114
1.00075
1.00073
1.00075
1.00584
1.00589
1.00574
1.00546
1.00503
1.00452
1.00394
1.00333
1.00272
1.00215
1.00162
1.00121
1.00082
1.0008
1.00084
1.00585
1.0059
1.00576
1.00548
1.00506
1.00456
1.00398
1.00338
1.00277
1.0022
1.00167
1.00125
1.00085
1.00082
1.00085
1.00585
1.00591
1.00577
1.0055
1.00508
1.00457
1.00399
1.00339
1.00277
1.0022
1.00166
1.00123
1.00084
1.00081
1.00085
1.00586
1.00592
1.00579
1.00551
1.0051
1.00459
1.00401
1.0034
1.00278
1.0022
1.00166
1.00123
1.00084
1.00081
1.00086
1.00587
1.00593
1.0058
1.00553
1.00512
1.00462
1.00404
1.00343
1.00281
1.00223
1.00168
1.00125
1.00086
1.00081
1.00086
1.00589
1.00595
1.00582
1.00555
1.00515
1.00465
1.00407
1.00346
1.00284
1.00226
1.00171
1.00127
1.00087
1.0008
1.00084
1.0059
1.00596
1.00584
1.00558
1.00517
1.00467
1.00409
1.00349
1.00286
1.00228
1.00172
1.00127
1.00087
1.00079
1.00082
1.00591
1.00598
1.00586
1.0056
1.0052
1.0047
1.00412
1.0035
1.00288
1.00229
1.00172
1.00127
1.00086
1.00076
1.00079
1.00593
1.006
1.00588
1.00562
1.00522
1.00472
1.00414
1.00352
1.00289
1.00229
1.00173
1.00126
1.00085
1.00074
1.00076
1.00595
1.00602
1.0059
1.00564
1.00525
1.00475
1.00417
1.00355
1.00291
1.00231
1.00173
1.00126
1.00085
1.00072
1.00072
1.00596
1.00604
1.00591
1.00566
1.00527
1.00477
1.00419
1.00357
1.00293
1.00232
1.00174
1.00126
1.00084
1.00069
1.00069
1.00598
1.00606
1.00593
1.00568
1.00529
1.0048
1.00421
1.00359
1.00295
1.00233
1.00174
1.00126
1.00083
1.00066
1.00065
1.006
1.00608
1.00596
1.0057
1.00531
1.00481
1.00423
1.00361
1.00296
1.00234
1.00174
1.00125
1.00082
1.00063
1.0006
1.00603
1.0061
1.00598
1.00572
1.00533
1.00483
1.00425
1.00362
1.00297
1.00234
1.00174
1.00124
1.00081
1.00061
1.00056
1.00605
1.00613
1.006
1.00575
1.00535
1.00485
1.00427
1.00364
1.00298
1.00235
1.00175
1.00124
1.0008
1.00058
1.00052
1.00607
1.00615
1.00603
1.00578
1.00537
1.00487
1.00428
1.00365
1.003
1.00236
1.00175
1.00124
1.00079
1.00055
1.00047
1.0061
1.00618
1.00606
1.00581
1.0054
1.0049
1.00431
1.00367
1.00301
1.00237
1.00176
1.00123
1.00078
1.00052
1.00043
1.00612
1.00621
1.0061
1.00584
1.00544
1.00493
1.00434
1.0037
1.00303
1.00239
1.00176
1.00123
1.00077
1.00049
1.00038
1.00615
1.00624
1.00613
1.00588
1.00548
1.00497
1.00438
1.00373
1.00306
1.0024
1.00177
1.00123
1.00076
1.00046
1.00033
1.00618
1.00628
1.00617
1.00592
1.00553
1.00502
1.00442
1.00377
1.00309
1.00242
1.00178
1.00123
1.00074
1.00043
1.00028
1.00621
1.00631
1.0062
1.00596
1.00557
1.00506
1.00446
1.0038
1.00312
1.00244
1.00179
1.00123
1.00073
1.00039
1.00023
1.00624
1.00634
1.00624
1.006
1.00561
1.0051
1.0045
1.00384
1.00314
1.00246
1.0018
1.00122
1.00071
1.00036
1.00017
1.00627
1.00638
1.00627
1.00604
1.00565
1.00514
1.00453
1.00387
1.00317
1.00247
1.0018
1.00121
1.00069
1.00032
1.00012
1.00631
1.00642
1.00631
1.00607
1.00568
1.00517
1.00456
1.00389
1.00318
1.00248
1.0018
1.00119
1.00066
1.00028
1.00006
1.00634
1.00645
1.00634
1.00611
1.00571
1.0052
1.00459
1.00391
1.0032
1.00248
1.00179
1.00118
1.00064
1.00024
1.00001
1.00638
1.00649
1.00638
1.00614
1.00574
1.00523
1.00461
1.00393
1.00321
1.00249
1.00179
1.00116
1.00061
1.0002
0.999954
1.00642
1.00654
1.00642
1.00617
1.00577
1.00525
1.00463
1.00394
1.00322
1.00249
1.00178
1.00115
1.00059
1.00016
0.999901
1.00646
1.00658
1.00646
1.00621
1.0058
1.00528
1.00465
1.00396
1.00323
1.00249
1.00178
1.00113
1.00057
1.00012
0.999848
1.0065
1.00663
1.00651
1.00626
1.00584
1.00531
1.00468
1.00399
1.00325
1.0025
1.00178
1.00112
1.00054
1.00009
0.999795
1.00655
1.00667
1.00656
1.00631
1.00589
1.00536
1.00472
1.00401
1.00327
1.00252
1.00178
1.00112
1.00053
1.00005
0.999743
1.00659
1.00672
1.00661
1.00636
1.00594
1.0054
1.00476
1.00405
1.0033
1.00254
1.00179
1.00111
1.00051
1.00001
0.999689
1.00664
1.00678
1.00667
1.00642
1.006
1.00546
1.00481
1.00409
1.00333
1.00256
1.0018
1.0011
1.00049
0.999976
0.999634
1.00668
1.00683
1.00672
1.00648
1.00606
1.00552
1.00486
1.00413
1.00336
1.00258
1.00181
1.0011
1.00046
0.999936
0.999577
1.00673
1.00688
1.00678
1.00654
1.00612
1.00558
1.00492
1.00418
1.00339
1.0026
1.00181
1.00109
1.00044
0.999896
0.99952
1.00678
1.00694
1.00684
1.00661
1.00619
1.00564
1.00497
1.00422
1.00343
1.00262
1.00182
1.00108
1.00041
0.999852
0.99946
1.00683
1.00699
1.0069
1.00667
1.00625
1.0057
1.00503
1.00427
1.00346
1.00264
1.00182
1.00106
1.00038
0.999808
0.9994
1.00688
1.00705
1.00696
1.00673
1.00631
1.00576
1.00508
1.00431
1.00349
1.00265
1.00182
1.00105
1.00035
0.999761
0.999338
1.00694
1.00711
1.00702
1.00679
1.00637
1.00582
1.00513
1.00435
1.00352
1.00266
1.00182
1.00103
1.00032
0.999713
0.999275
1.00699
1.00716
1.00707
1.00685
1.00643
1.00587
1.00517
1.00439
1.00354
1.00267
1.00181
1.00101
1.00028
0.999662
0.999211
1.00705
1.00722
1.00713
1.0069
1.00648
1.00591
1.00521
1.00442
1.00356
1.00268
1.0018
1.00098
1.00025
0.999611
0.999148
1.00711
1.00728
1.00719
1.00695
1.00653
1.00595
1.00525
1.00444
1.00357
1.00268
1.00179
1.00096
1.00021
0.999559
0.999084
1.00717
1.00734
1.00724
1.007
1.00657
1.00599
1.00528
1.00446
1.00358
1.00267
1.00178
1.00093
1.00017
0.999509
0.999022
1.00723
1.00741
1.0073
1.00706
1.00662
1.00603
1.00531
1.00448
1.00359
1.00267
1.00176
1.00091
1.00013
0.99946
0.99896
1.0073
1.00748
1.00737
1.00712
1.00667
1.00607
1.00534
1.0045
1.0036
1.00268
1.00176
1.00089
1.0001
0.999414
0.9989
1.00737
1.00755
1.00744
1.00718
1.00672
1.00612
1.00538
1.00453
1.00362
1.00268
1.00175
1.00087
1.00007
0.999368
0.998839
1.00744
1.00762
1.00751
1.00725
1.00679
1.00618
1.00543
1.00457
1.00365
1.0027
1.00176
1.00086
1.00004
0.999324
0.998778
1.00751
1.0077
1.00759
1.00733
1.00687
1.00625
1.00549
1.00462
1.00369
1.00272
1.00176
1.00085
1.00001
0.999279
0.998716
1.00759
1.00778
1.00768
1.00742
1.00695
1.00633
1.00556
1.00468
1.00373
1.00275
1.00178
1.00084
0.999988
0.999233
0.998652
1.00766
1.00787
1.00777
1.00751
1.00704
1.00641
1.00563
1.00474
1.00378
1.00278
1.00179
1.00083
0.999957
0.999184
0.998586
1.00774
1.00796
1.00786
1.0076
1.00713
1.00649
1.00571
1.0048
1.00383
1.00281
1.00179
1.00082
0.999925
0.999133
0.998519
1.00782
1.00804
1.00795
1.00769
1.00722
1.00658
1.00578
1.00486
1.00387
1.00283
1.0018
1.0008
0.99989
0.99908
0.99845
1.00791
1.00813
1.00804
1.00779
1.00731
1.00666
1.00585
1.00492
1.00391
1.00285
1.0018
1.00078
0.999854
0.999028
0.998381
1.00799
1.00822
1.00813
1.00788
1.00739
1.00673
1.00591
1.00497
1.00394
1.00287
1.0018
1.00076
0.999816
0.998974
0.998311
1.00807
1.00831
1.00823
1.00797
1.00748
1.00681
1.00598
1.00502
1.00398
1.00289
1.0018
1.00075
0.99978
0.99892
0.998241
1.00816
1.00841
1.00832
1.00806
1.00757
1.00689
1.00605
1.00507
1.00401
1.00291
1.0018
1.00073
0.999743
0.998866
0.998168
1.00825
1.0085
1.00841
1.00816
1.00766
1.00697
1.00612
1.00513
1.00406
1.00293
1.0018
1.00071
0.999707
0.998811
0.998095
1.00834
1.00859
1.00851
1.00825
1.00775
1.00706
1.0062
1.00519
1.0041
1.00296
1.00181
1.00069
0.999669
0.998753
0.998018
1.00843
1.00869
1.00861
1.00835
1.00785
1.00716
1.00628
1.00526
1.00415
1.00298
1.00181
1.00068
0.999628
0.998693
0.997939
1.00852
1.00878
1.00871
1.00846
1.00795
1.00725
1.00636
1.00533
1.0042
1.00301
1.00181
1.00065
0.999582
0.998627
0.997856
1.00861
1.00888
1.00881
1.00856
1.00805
1.00734
1.00644
1.00539
1.00424
1.00303
1.00181
1.00062
0.999531
0.998558
0.997771
1.0087
1.00897
1.0089
1.00865
1.00815
1.00743
1.00652
1.00545
1.00427
1.00304
1.00179
1.00059
0.999475
0.998485
0.997684
1.0088
1.00907
1.009
1.00875
1.00823
1.00751
1.00658
1.0055
1.0043
1.00304
1.00177
1.00055
0.999416
0.998411
0.997596
1.0089
1.00917
1.00909
1.00884
1.00832
1.00758
1.00664
1.00553
1.00432
1.00304
1.00175
1.0005
0.999354
0.998335
0.997509
1.009
1.00927
1.00919
1.00892
1.00839
1.00764
1.00669
1.00556
1.00433
1.00303
1.00172
1.00046
0.999293
0.998262
0.997423
1.00911
1.00938
1.00929
1.00901
1.00846
1.0077
1.00673
1.00559
1.00433
1.00301
1.00169
1.00041
0.999235
0.99819
0.997338
1.00922
1.00949
1.00939
1.0091
1.00854
1.00776
1.00677
1.00561
1.00434
1.00301
1.00167
1.00037
0.999182
0.998123
0.997257
1.00933
1.0096
1.00949
1.00919
1.00862
1.00782
1.00682
1.00564
1.00436
1.00301
1.00165
1.00034
0.999134
0.998058
0.997176
1.00945
1.00972
1.00961
1.0093
1.00871
1.0079
1.00687
1.00569
1.00438
1.00302
1.00165
1.00032
0.999093
0.997998
0.997096
1.00957
1.00985
1.00973
1.00941
1.00881
1.00799
1.00695
1.00574
1.00443
1.00304
1.00165
1.0003
0.999056
0.997939
0.997016
1.00969
1.00998
1.00987
1.00954
1.00893
1.00809
1.00704
1.00582
1.00448
1.00308
1.00167
1.0003
0.999023
0.997882
0.996935
1.00982
1.01011
1.01001
1.00968
1.00906
1.00822
1.00715
1.00591
1.00455
1.00313
1.00169
1.00029
0.99899
0.997822
0.996851
1.00995
1.01025
1.01015
1.00983
1.00921
1.00836
1.00727
1.00602
1.00464
1.00318
1.00172
1.00029
0.998956
0.997761
0.996764
1.01008
1.0104
1.0103
1.00999
1.00937
1.0085
1.00741
1.00613
1.00472
1.00324
1.00174
1.00028
0.998918
0.997695
0.996672
1.01021
1.01054
1.01046
1.01015
1.00953
1.00866
1.00755
1.00625
1.00481
1.0033
1.00177
1.00027
0.998876
0.997625
0.996577
1.01034
1.01069
1.01062
1.01032
1.00969
1.00881
1.00769
1.00636
1.0049
1.00335
1.00178
1.00025
0.998826
0.997548
0.996476
1.01048
1.01083
1.01077
1.01048
1.00985
1.00897
1.00782
1.00647
1.00498
1.0034
1.00179
1.00023
0.998771
0.997468
0.996373
1.01062
1.01098
1.01092
1.01064
1.01001
1.00911
1.00795
1.00657
1.00505
1.00343
1.00179
1.0002
0.998708
0.997381
0.996265
1.01075
1.01113
1.01108
1.01079
1.01016
1.00925
1.00807
1.00667
1.00511
1.00346
1.00178
1.00016
0.998641
0.997292
0.996156
1.0109
1.01127
1.01122
1.01094
1.0103
1.00938
1.00817
1.00675
1.00516
1.00347
1.00177
1.00011
0.998569
0.997199
0.996044
1.01104
1.01142
1.01137
1.01108
1.01044
1.0095
1.00827
1.00682
1.0052
1.00348
1.00175
1.00006
0.998495
0.997105
0.995931
1.01119
1.01157
1.01152
1.01122
1.01057
1.00961
1.00836
1.00688
1.00523
1.00349
1.00172
1.00001
0.998419
0.997009
0.995817
1.01134
1.01172
1.01167
1.01136
1.01069
1.00972
1.00845
1.00694
1.00526
1.00349
1.0017
0.999957
0.998344
0.996914
0.995703
1.01149
1.01188
1.01182
1.01151
1.01082
1.00983
1.00853
1.007
1.00529
1.00349
1.00167
0.999906
0.998268
0.996817
0.995587
1.01165
1.01204
1.01198
1.01165
1.01095
1.00994
1.00862
1.00706
1.00533
1.0035
1.00165
0.999858
0.998195
0.996723
0.995472
1.01181
1.0122
1.01213
1.0118
1.01109
1.01006
1.00871
1.00713
1.00537
1.00351
1.00163
0.999811
0.998123
0.996627
0.995355
1.01197
1.01237
1.0123
1.01196
1.01123
1.01018
1.00881
1.0072
1.00541
1.00352
1.00161
0.999768
0.998053
0.996533
0.995238
1.01214
1.01255
1.01247
1.01212
1.01138
1.01031
1.00892
1.00728
1.00546
1.00354
1.0016
0.999726
0.997982
0.996437
0.995118
1.01231
1.01272
1.01265
1.01229
1.01154
1.01045
1.00904
1.00737
1.00552
1.00357
1.0016
0.999687
0.997913
0.996341
0.994998
1.01249
1.01291
1.01283
1.01247
1.0117
1.0106
1.00916
1.00747
1.00558
1.0036
1.00159
0.999649
0.997842
0.996243
0.994874
1.01267
1.0131
1.01302
1.01266
1.01188
1.01076
1.0093
1.00757
1.00565
1.00363
1.00159
0.999611
0.997772
0.996144
0.994749
1.01285
1.01329
1.01322
1.01285
1.01206
1.01092
1.00943
1.00768
1.00573
1.00367
1.00159
0.999571
0.997698
0.996041
0.99462
1.01303
1.01348
1.01342
1.01305
1.01225
1.01109
1.00958
1.00779
1.0058
1.0037
1.00158
0.999531
0.997623
0.995937
0.99449
1.01322
1.01368
1.01362
1.01325
1.01244
1.01126
1.00973
1.00791
1.00588
1.00374
1.00158
0.999488
0.997545
0.995828
0.994355
1.01342
1.01389
1.01383
1.01346
1.01263
1.01144
1.00988
1.00802
1.00596
1.00378
1.00157
0.999444
0.997464
0.995718
0.994218
1.01361
1.01409
1.01404
1.01366
1.01283
1.01162
1.01003
1.00814
1.00603
1.00381
1.00156
0.999395
0.997379
0.995602
0.994076
1.01381
1.0143
1.01425
1.01388
1.01303
1.0118
1.01018
1.00826
1.00611
1.00384
1.00155
0.999344
0.997293
0.995486
0.993933
1.01402
1.01452
1.01447
1.01409
1.01324
1.01198
1.01033
1.00837
1.00618
1.00387
1.00154
0.99929
0.997201
0.995364
0.993786
1.01423
1.01474
1.01469
1.01431
1.01344
1.01217
1.01049
1.00849
1.00626
1.0039
1.00152
0.999234
0.997109
0.995241
0.993636
1.01444
1.01496
1.01491
1.01453
1.01365
1.01235
1.01064
1.0086
1.00633
1.00393
1.00151
0.999174
0.997012
0.995114
0.993482
1.01465
1.01518
1.01514
1.01475
1.01386
1.01254
1.01079
1.00872
1.0064
1.00396
1.00149
0.999112
0.996913
0.994985
0.993327
1.01487
1.01541
1.01537
1.01498
1.01407
1.01273
1.01095
1.00883
1.00647
1.00398
1.00146
0.999048
0.996811
0.994852
0.993166
1.0151
1.01565
1.01561
1.01521
1.01428
1.01292
1.01111
1.00895
1.00654
1.004
1.00144
0.998982
0.996707
0.994717
0.993005
1.01533
1.01589
1.01585
1.01544
1.0145
1.01311
1.01127
1.00907
1.00661
1.00403
1.00142
0.998913
0.996599
0.994577
0.992838
1.01556
1.01613
1.01609
1.01568
1.01473
1.01331
1.01143
1.00919
1.00668
1.00405
1.00139
0.998843
0.99649
0.994436
0.992669
1.0158
1.01638
1.01634
1.01593
1.01495
1.01351
1.01159
1.00931
1.00676
1.00407
1.00136
0.99877
0.996377
0.994291
0.992496
1.01604
1.01663
1.0166
1.01617
1.01519
1.01372
1.01176
1.00943
1.00683
1.00409
1.00134
0.998696
0.996263
0.994143
0.992321
1.01629
1.01689
1.01686
1.01643
1.01542
1.01392
1.01193
1.00956
1.0069
1.00411
1.00131
0.998619
0.996144
0.993991
0.99214
1.01654
1.01715
1.01712
1.01669
1.01566
1.01414
1.01211
1.00969
1.00698
1.00414
1.00127
0.99854
0.996024
0.993837
0.991957
1.01679
1.01742
1.01739
1.01695
1.01591
1.01436
1.01229
1.00982
1.00706
1.00416
1.00124
0.998458
0.995899
0.993677
0.991769
1.01706
1.0177
1.01767
1.01722
1.01616
1.01458
1.01247
1.00995
1.00714
1.00418
1.00121
0.998375
0.995772
0.993516
0.991578
1.01732
1.01797
1.01795
1.0175
1.01642
1.01481
1.01266
1.01009
1.00721
1.0042
1.00117
0.998287
0.99564
0.993348
0.991382
1.01759
1.01826
1.01824
1.01778
1.01669
1.01504
1.01285
1.01022
1.00729
1.00422
1.00114
0.998198
0.995506
0.993178
0.991182
1.01787
1.01855
1.01853
1.01807
1.01695
1.01528
1.01304
1.01036
1.00737
1.00424
1.00109
0.998105
0.995367
0.993003
0.990977
1.01815
1.01885
1.01883
1.01836
1.01723
1.01552
1.01324
1.01051
1.00746
1.00426
1.00105
0.998009
0.995225
0.992824
0.990769
1.01844
1.01915
1.01914
1.01866
1.01751
1.01577
1.01344
1.01065
1.00754
1.00427
1.00101
0.997909
0.995078
0.99264
0.990554
1.01874
1.01946
1.01945
1.01897
1.01779
1.01602
1.01364
1.01079
1.00762
1.00429
1.00096
0.997806
0.994927
0.992452
0.990337
1.01904
1.01977
1.01977
1.01928
1.01808
1.01627
1.01385
1.01094
1.0077
1.0043
1.00091
0.997698
0.994771
0.992258
0.990112
1.01934
1.02009
1.02009
1.0196
1.01838
1.01653
1.01406
1.01109
1.00778
1.00431
1.00086
0.997588
0.994612
0.99206
0.989884
1.01965
1.02042
1.02042
1.01992
1.01868
1.0168
1.01427
1.01124
1.00786
1.00432
1.0008
0.997472
0.994446
0.991856
0.98965
1.01997
1.02076
1.02076
1.02025
1.01899
1.01707
1.01449
1.01139
1.00794
1.00433
1.00074
0.997354
0.994277
0.991648
0.989411
1.02029
1.0211
1.02111
1.02059
1.01931
1.01734
1.01471
1.01155
1.00802
1.00434
1.00068
0.997229
0.994102
0.991432
0.989165
1.02062
1.02144
1.02146
1.02093
1.01963
1.01762
1.01493
1.0117
1.0081
1.00435
1.00062
0.997102
0.993922
0.991213
0.988916
1.02096
1.0218
1.02182
1.02128
1.01995
1.01791
1.01516
1.01186
1.00818
1.00435
1.00055
0.996968
0.993736
0.990987
0.988658
1.02131
1.02216
1.02218
1.02164
1.02029
1.0182
1.01539
1.01202
1.00826
1.00435
1.00047
0.996831
0.993546
0.990756
0.988397
1.02166
1.02253
1.02256
1.02201
1.02063
1.01849
1.01562
1.01218
1.00834
1.00435
1.0004
0.996687
0.993348
0.990517
0.988128
1.02201
1.0229
1.02294
1.02238
1.02097
1.01879
1.01586
1.01234
1.00842
1.00434
1.00031
0.99654
0.993146
0.990274
0.987854
1.02238
1.02329
1.02333
1.02276
1.02133
1.0191
1.0161
1.0125
1.0085
1.00434
1.00023
0.996385
0.992936
0.990022
0.987572
1.02275
1.02368
1.02372
1.02315
1.02169
1.01941
1.01635
1.01267
1.00858
1.00433
1.00014
0.996226
0.992721
0.989766
0.987284
1.02313
1.02408
1.02413
1.02355
1.02205
1.01973
1.0166
1.01283
1.00865
1.00431
1.00004
0.99606
0.992498
0.989501
0.986989
1.02352
1.02449
1.02454
1.02395
1.02243
1.02005
1.01685
1.013
1.00873
1.0043
0.999943
0.995889
0.99227
0.98923
0.986688
1.02391
1.02491
1.02496
1.02436
1.02281
1.02038
1.01711
1.01317
1.0088
1.00428
0.999838
0.995711
0.992033
0.988951
0.986378
1.02431
1.02533
1.0254
1.02479
1.0232
1.02072
1.01737
1.01334
1.00888
1.00425
0.999728
0.995527
0.991791
0.988666
0.986063
1.02472
1.02577
1.02584
1.02522
1.0236
1.02106
1.01763
1.01351
1.00895
1.00423
0.999611
0.995335
0.991539
0.988371
0.985738
1.02514
1.02621
1.02629
1.02566
1.02401
1.02141
1.0179
1.01368
1.00902
1.0042
0.999489
0.995137
0.991281
0.98807
0.985408
1.02557
1.02666
1.02674
1.02611
1.02442
1.02176
1.01817
1.01385
1.00908
1.00416
0.99936
0.99493
0.991014
0.987759
0.985067
1.02601
1.02712
1.02721
1.02656
1.02484
1.02213
1.01845
1.01403
1.00915
1.00412
0.999226
0.994717
0.99074
0.987442
0.984721
1.02645
1.02759
1.02769
1.02703
1.02527
1.02249
1.01873
1.0142
1.00921
1.00407
0.999083
0.994495
0.990456
0.987114
0.984364
1.02691
1.02808
1.02818
1.02751
1.02572
1.02287
1.01901
1.01438
1.00927
1.00402
0.998935
0.994265
0.990164
0.986779
0.984001
1.02737
1.02857
1.02868
1.028
1.02616
1.02325
1.0193
1.01455
1.00933
1.00397
0.998778
0.994026
0.989862
0.986433
0.983627
1.02784
1.02907
1.02919
1.0285
1.02662
1.02364
1.01959
1.01473
1.00938
1.0039
0.998615
0.993779
0.989552
0.986079
0.983245
1.02833
1.02958
1.02971
1.02901
1.02709
1.02403
1.01988
1.0149
1.00943
1.00384
0.998442
0.993522
0.989231
0.985714
0.982853
1.02882
1.03011
1.03024
1.02953
1.02757
1.02443
1.02018
1.01508
1.00948
1.00376
0.998262
0.993256
0.988901
0.985341
0.982454
1.02932
1.03064
1.03079
1.03006
1.02805
1.02484
1.02048
1.01525
1.00952
1.00368
0.998072
0.992979
0.988559
0.984956
0.982043
1.02984
1.03119
1.03134
1.0306
1.02855
1.02526
1.02078
1.01542
1.00956
1.00359
0.997873
0.992693
0.988208
0.984562
0.981623
1.03036
1.03175
1.03191
1.03116
1.02906
1.02568
1.02109
1.0156
1.00959
1.00349
0.997664
0.992395
0.987845
0.984156
0.981192
1.0309
1.03232
1.03249
1.03173
1.02958
1.02611
1.0214
1.01577
1.00962
1.00339
0.997446
0.992087
0.987472
0.98374
0.980753
1.03145
1.0329
1.03309
1.03231
1.0301
1.02655
1.02172
1.01594
1.00964
1.00327
0.997217
0.991767
0.987086
0.983311
0.980301
1.03201
1.0335
1.03369
1.0329
1.03064
1.02699
1.02203
1.01611
1.00966
1.00315
0.996977
0.991435
0.986689
0.982872
0.97984
1.03258
1.03411
1.03431
1.0335
1.03119
1.02745
1.02235
1.01627
1.00967
1.00302
0.996725
0.99109
0.986278
0.98242
0.979366
1.03316
1.03473
1.03495
1.03412
1.03175
1.02791
1.02267
1.01644
1.00967
1.00288
0.996462
0.990734
0.985856
0.981957
0.978883
1.03376
1.03536
1.0356
1.03476
1.03233
1.02837
1.023
1.0166
1.00967
1.00272
0.996186
0.990363
0.985419
0.98148
0.978386
1.03437
1.03602
1.03626
1.0354
1.03291
1.02885
1.02333
1.01675
1.00966
1.00256
0.995897
0.98998
0.98497
0.98099
0.977879
1.03499
1.03668
1.03694
1.03607
1.03351
1.02933
1.02365
1.01691
1.00964
1.00239
0.995594
0.989582
0.984506
0.980487
0.977358
1.03563
1.03736
1.03764
1.03674
1.03412
1.02982
1.02399
1.01706
1.00961
1.0022
0.995278
0.989169
0.984028
0.979971
0.976826
1.03628
1.03806
1.03835
1.03744
1.03474
1.03032
1.02432
1.0172
1.00957
1.002
0.994947
0.988741
0.983535
0.979439
0.97628
1.03695
1.03877
1.03908
1.03814
1.03537
1.03083
1.02465
1.01734
1.00952
1.00178
0.994601
0.988299
0.983028
0.978895
0.975722
1.03763
1.0395
1.03982
1.03887
1.03602
1.03134
1.02498
1.01747
1.00946
1.00155
0.994238
0.987839
0.982504
0.978334
0.975149
1.03832
1.04025
1.04058
1.03961
1.03668
1.03186
1.02532
1.0176
1.00939
1.00131
0.99386
0.987363
0.981964
0.97776
0.974564
1.03903
1.04101
1.04136
1.04037
1.03736
1.03239
1.02565
1.01772
1.0093
1.00105
0.993464
0.986869
0.981408
0.977169
0.973963
1.03976
1.04179
1.04216
1.04114
1.03805
1.03292
1.02598
1.01783
1.00921
1.00078
0.99305
0.986359
0.980835
0.976563
0.97335
1.04051
1.04259
1.04298
1.04194
1.03875
1.03347
1.02632
1.01794
1.00909
1.00048
0.992618
0.985829
0.980244
0.975941
0.97272
1.04127
1.04341
1.04382
1.04275
1.03946
1.03401
1.02665
1.01803
1.00897
1.00017
0.992167
0.985281
0.979636
0.975302
0.972078
1.04205
1.04425
1.04468
1.04358
1.04019
1.03457
1.02698
1.01812
1.00882
0.999839
0.991695
0.984712
0.979009
0.974647
0.971419
1.04285
1.04511
1.04556
1.04443
1.04094
1.03513
1.0273
1.01819
1.00866
0.999489
0.991203
0.984125
0.978363
0.973975
0.970747
1.04366
1.04598
1.04646
1.0453
1.0417
1.0357
1.02762
1.01825
1.00849
0.999117
0.990689
0.983515
0.977698
0.973284
0.970058
1.0445
1.04689
1.04738
1.0462
1.04247
1.03628
1.02794
1.01829
1.00829
0.998723
0.990153
0.982885
0.977014
0.972577
0.969356
1.04536
1.04781
1.04833
1.04711
1.04326
1.03686
1.02825
1.01833
1.00807
0.998307
0.989593
0.982232
0.976309
0.971852
0.968636
1.04623
1.04876
1.0493
1.04805
1.04407
1.03744
1.02856
1.01834
1.00783
0.997866
0.989009
0.981557
0.975584
0.971109
0.967902
1.04713
1.04973
1.0503
1.049
1.04489
1.03803
1.02885
1.01834
1.00757
0.9974
0.9884
0.980858
0.974837
0.970346
0.967151
1.04805
1.05072
1.05132
1.04999
1.04573
1.03862
1.02914
1.01832
1.00728
0.996908
0.987766
0.980135
0.974069
0.969566
0.966386
1.04899
1.05174
1.05237
1.05099
1.04658
1.03922
1.02942
1.01828
1.00697
0.996388
0.987104
0.979388
0.973279
0.968766
0.965603
1.04996
1.05279
1.05345
1.05202
1.04745
1.03982
1.02969
1.01822
1.00663
0.995839
0.986415
0.978615
0.972467
0.967948
0.964805
1.05095
1.05386
1.05455
1.05308
1.04833
1.04042
1.02994
1.01814
1.00626
0.99526
0.985696
0.977815
0.971632
0.96711
0.96399
1.05196
1.05496
1.05569
1.05416
1.04923
1.04102
1.03019
1.01803
1.00586
0.99465
0.984948
0.97699
0.970774
0.966253
0.963159
1.053
1.05609
1.05685
1.05526
1.05015
1.04162
1.03041
1.0179
1.00543
0.994007
0.984169
0.976136
0.969892
0.965375
0.962311
1.05407
1.05725
1.05804
1.0564
1.05108
1.04222
1.03062
1.01773
1.00497
0.99333
0.983359
0.975255
0.968986
0.964478
0.961448
1.05516
1.05844
1.05927
1.05756
1.05202
1.04282
1.03081
1.01754
1.00447
0.992617
0.982515
0.974345
0.968056
0.963561
0.960566
1.05629
1.05966
1.06053
1.05875
1.05298
1.04341
1.03097
1.01731
1.00393
0.991868
0.981638
0.973405
0.967102
0.962623
0.959669
1.05744
1.06092
1.06183
1.05997
1.05396
1.04399
1.03112
1.01705
1.00336
0.991079
0.980726
0.972436
0.966122
0.961664
0.958754
1.05862
1.06221
1.06316
1.06122
1.05495
1.04457
1.03123
1.01675
1.00274
0.990251
0.979778
0.971437
0.965118
0.960686
0.957823
1.05984
1.06354
1.06454
1.06251
1.05595
1.04514
1.03132
1.0164
1.00208
0.989381
0.978794
0.970406
0.964088
0.959686
0.956874
1.06108
1.06491
1.06595
1.06382
1.05696
1.0457
1.03137
1.01602
1.00137
0.988468
0.977772
0.969344
0.963032
0.958665
0.955909
1.06236
1.06631
1.0674
1.06516
1.05799
1.04624
1.03139
1.01559
1.00061
0.98751
0.976711
0.968249
0.96195
0.957623
0.954925
1.06368
1.06775
1.06889
1.06654
1.05902
1.04676
1.03137
1.0151
0.999805
0.986507
0.975611
0.967123
0.960841
0.95656
0.953925
1.06503
1.06924
1.07043
1.06795
1.06006
1.04726
1.0313
1.01457
0.998945
0.985455
0.97447
0.965963
0.959706
0.955476
0.952907
1.06642
1.07077
1.07201
1.06939
1.06111
1.04774
1.03119
1.01398
0.99803
0.984355
0.973288
0.964769
0.958545
0.95437
0.951873
1.06785
1.07235
1.07364
1.07087
1.06217
1.0482
1.03103
1.01333
0.997057
0.983203
0.972064
0.963542
0.957356
0.953242
0.95082
1.06932
1.07397
1.07532
1.07238
1.06323
1.04862
1.03082
1.01262
0.996025
0.982
0.970797
0.96228
0.95614
0.952094
0.949751
1.07084
1.07565
1.07705
1.07393
1.06428
1.049
1.03055
1.01184
0.99493
0.980743
0.969487
0.960984
0.954897
0.950923
0.948664
1.07239
1.07737
1.07883
1.07551
1.06534
1.04935
1.03021
1.01099
0.99377
0.979431
0.968132
0.959653
0.953627
0.949731
0.94756
1.074
1.07915
1.08067
1.07712
1.06639
1.04964
1.0298
1.01007
0.992542
0.978063
0.966732
0.958287
0.952329
0.948517
0.946439
1.07565
1.08099
1.08256
1.07877
1.06742
1.04989
1.02932
1.00907
0.991245
0.976637
0.965286
0.956885
0.951004
0.947282
0.945301
1.07735
1.08289
1.08452
1.08045
1.06845
1.05008
1.02875
1.00799
0.989875
0.975152
0.963795
0.955448
0.949652
0.946025
0.944146
1.0791
1.08485
1.08653
1.08216
1.06945
1.0502
1.0281
1.00682
0.988431
0.973607
0.962256
0.953975
0.948272
0.944747
0.942974
1.0809
1.08687
1.08861
1.0839
1.07043
1.05025
1.02736
1.00556
0.98691
0.972001
0.960671
0.952466
0.946864
0.943447
0.941785
1.08277
1.08897
1.09076
1.08566
1.07138
1.05022
1.02652
1.0042
0.98531
0.970333
0.959038
0.950922
0.945429
0.942127
0.94058
1.08469
1.09114
1.09297
1.08746
1.07229
1.0501
1.02557
1.00275
0.983628
0.968602
0.957358
0.949341
0.943968
0.940785
0.939358
1.08667
1.09338
1.09526
1.08927
1.07315
1.04989
1.02451
1.00119
0.981864
0.966807
0.95563
0.947725
0.942479
0.939423
0.938121
1.08872
1.0957
1.09761
1.09111
1.07395
1.04957
1.02333
0.999532
0.980014
0.964948
0.953854
0.946074
0.940963
0.938041
0.936867
1.09083
1.09811
1.10004
1.09295
1.0747
1.04913
1.02202
0.997758
0.978078
0.963024
0.952031
0.944387
0.939422
0.936638
0.935598
1.09301
1.10061
1.10255
1.09481
1.07536
1.04856
1.02057
0.995869
0.976053
0.961034
0.950159
0.942666
0.937854
0.935215
0.934313
1.09527
1.10321
1.10513
1.09666
1.07594
1.04785
1.01899
0.993862
0.973939
0.95898
0.948241
0.94091
0.936261
0.933773
0.933013
1.09761
1.1059
1.10779
1.09852
1.07642
1.04699
1.01725
0.991734
0.971735
0.95686
0.946275
0.93912
0.934642
0.932312
0.931698
1.10002
1.1087
1.11053
1.10035
1.07678
1.04597
1.01535
0.989481
0.969439
0.954674
0.944264
0.937297
0.932999
0.930832
0.930368
1.10253
1.11161
1.11334
1.10216
1.07701
1.04477
1.01329
0.9871
0.967051
0.952424
0.942206
0.935441
0.931332
0.929334
0.929025
1.10512
1.11464
1.11624
1.10393
1.07709
1.04337
1.01106
0.98459
0.964572
0.95011
0.940104
0.933553
0.929641
0.927818
0.927668
1.10781
1.1178
1.11921
1.10565
1.07701
1.04177
1.00865
0.981948
0.962001
0.947732
0.937958
0.931634
0.927928
0.926285
0.926297
1.1106
1.12108
1.12225
1.1073
1.07673
1.03995
1.00605
0.979173
0.959339
0.945292
0.93577
0.929685
0.926193
0.924736
0.924914
1.11351
1.12451
1.12535
1.10887
1.07625
1.03789
1.00326
0.976264
0.956587
0.942791
0.933539
0.927706
0.924437
0.923171
0.923518
1.11652
1.12808
1.12852
1.11033
1.07554
1.03559
1.00028
0.973221
0.953746
0.940231
0.931269
0.9257
0.922661
0.92159
0.922111
1.11966
1.13181
1.13175
1.11166
1.07457
1.03302
0.997098
0.970046
0.950818
0.937613
0.928961
0.923667
0.920865
0.919995
0.920692
1.12293
1.1357
1.13501
1.11283
1.07332
1.03017
0.993712
0.966738
0.947805
0.93494
0.926616
0.921609
0.919051
0.918386
0.919263
1.12634
1.13976
1.1383
1.11381
1.07175
1.02703
0.99012
0.9633
0.94471
0.932213
0.924236
0.919527
0.917219
0.916763
0.917823
1.1299
1.144
1.14161
1.11457
1.06985
1.02359
0.986322
0.959736
0.941535
0.929436
0.921823
0.917422
0.915372
0.915129
0.916374
1.13363
1.14842
1.14491
1.11508
1.06758
1.01983
0.982318
0.956049
0.938286
0.926612
0.91938
0.915296
0.913509
0.913483
0.914916
1.13753
1.15303
1.14818
1.11529
1.06492
1.01575
0.978112
0.952244
0.934964
0.923743
0.916908
0.913151
0.911632
0.911827
0.91345
1.14163
1.15784
1.15139
1.11516
1.06182
1.01134
0.973707
0.948327
0.931576
0.920832
0.91441
0.910988
0.909743
0.91016
0.911975
1.14593
1.16284
1.15451
1.11465
1.05827
1.00658
0.969109
0.944303
0.928125
0.917884
0.911889
0.90881
0.907842
0.908485
0.910493
1.15045
1.16804
1.15749
1.11369
1.05423
1.00149
0.964326
0.940181
0.924617
0.914902
0.909348
0.906617
0.905931
0.906802
0.909005
1.15523
1.17344
1.1603
1.11224
1.04968
0.996057
0.959369
0.935968
0.921057
0.91189
0.906788
0.904413
0.904012
0.905113
0.90751
1.16027
1.17902
1.16287
1.11024
1.04459
0.99029
0.954249
0.931674
0.917451
0.908851
0.904213
0.902198
0.902084
0.903417
0.90601
1.1656
1.18478
1.16514
1.10763
1.03894
0.984197
0.948981
0.927307
0.913805
0.905792
0.901626
0.899975
0.900152
0.901716
0.904505
1.17126
1.19069
1.16704
1.10435
1.03272
0.977793
0.94358
0.922878
0.910125
0.902715
0.89903
0.897746
0.898214
0.900012
0.902996
1.17726
1.19674
1.1685
1.10033
1.0259
0.971094
0.938066
0.918398
0.906419
0.899626
0.896427
0.895514
0.896274
0.898305
0.901482
1.18365
1.20288
1.16943
1.0955
1.01848
0.964125
0.932456
0.913876
0.902692
0.896529
0.893822
0.893279
0.894332
0.896596
0.899965
1.19046
1.20908
1.16972
1.08981
1.01047
0.956915
0.926771
0.909323
0.898951
0.893428
0.891216
0.891046
0.892391
0.894887
0.898446
1.19773
1.21527
1.16927
1.0832
1.00188
0.949498
0.921034
0.90475
0.895203
0.890329
0.888614
0.888816
0.890451
0.893178
0.896924
1.2055
1.22139
1.16797
1.07561
0.992732
0.941912
0.915265
0.900168
0.891456
0.887237
0.886019
0.886591
0.888516
0.891471
0.895401
1.2138
1.22734
1.16568
1.06699
0.983056
0.934202
0.909487
0.895587
0.887715
0.884157
0.883434
0.884374
0.886586
0.889766
0.893877
1.22269
1.23301
1.16227
1.05731
0.972902
0.926415
0.903721
0.891016
0.883989
0.881093
0.880862
0.882169
0.884664
0.888066
0.892352
1.2322
1.23828
1.1576
1.04654
0.962332
0.918601
0.897986
0.886466
0.880283
0.87805
0.878308
0.879977
0.882752
0.88637
0.890829
1.24237
1.24299
1.15152
1.03468
0.951423
0.910811
0.892301
0.881944
0.876607
0.875034
0.875775
0.877801
0.880851
0.884681
0.889307
1.25323
1.24695
1.14389
1.02175
0.940266
0.903097
0.886681
0.877461
0.872966
0.872051
0.873267
0.875645
0.878963
0.882998
0.887788
1.2648
1.24995
1.13455
1.00779
0.928964
0.895506
0.88114
0.873025
0.869369
0.869106
0.870789
0.873513
0.877091
0.881325
0.886274
1.27709
1.25173
1.12337
0.992872
0.917635
0.888082