1.45 	0 	0 	-0.00786316 	-0.00258219 	3.80994e-21
2.35 	0 	0 	0.0618903 	-0.00664909 	2.32396e-21
