1.275 	2.15223e-18 	-2.76991e-20 	-0.0344223 	-0.000437499 	-1.92297e-22
1.825 	2.15223e-18 	-1.39322e-20 	-0.00939021 	-0.00276673 	1.70429e-21
2.375 	2.15223e-18 	-2.66896e-23 	0.115517 	-0.00325789 	-7.1107e-22
