/*--------------------------------*- C++ -*----------------------------------*\
  =========                 |
  \\      /  F ield         | OpenFOAM: The Open Source CFD Toolbox
   \\    /   O peration     | Website:  https://openfoam.org
    \\  /    A nd           | Version:  6.0
     \\/     M anipulation  |
\*---------------------------------------------------------------------------*/
FoamFile
{
    version     2.0;
    format      ascii;
    class       surfaceScalarField;
    location    "19";
    object      phi;
}
// * * * * * * * * * * * * * * * * * * * * * * * * * * * * * * * * * * * * * //

dimensions      [0 3 -1 0 0 0 0];

internalField   nonuniform List<scalar> 
3880
(
-1.79746e-05
1.797e-05
4.61347e-09
-5.34759e-05
3.54879e-05
1.34562e-08
-9.53301e-05
4.18325e-05
2.17116e-08
-0.000136468
4.11089e-05
2.93821e-08
-0.000172528
3.60233e-05
3.64266e-08
-0.000201097
2.85263e-05
4.28606e-08
-0.000221243
2.00973e-05
4.87327e-08
-0.000233206
1.1908e-05
5.41389e-08
-0.000238194
4.92886e-06
5.92073e-08
-6.44334e-08
6.39228e-08
-0.000238193
-1.72952e-05
3.52652e-05
-5.08248e-05
6.90174e-05
-8.95534e-05
8.05612e-05
-0.000126525
7.80805e-05
-0.000157418
6.69163e-05
-0.000179787
5.08948e-05
-0.000192611
3.29217e-05
-0.000196031
1.53278e-05
-0.000191201
9.85195e-08
-1.1126e-05
-0.000180139
-1.59011e-05
5.11663e-05
-4.54054e-05
9.85217e-05
-7.77954e-05
0.000112951
-0.000106384
0.000106669
-0.000126976
8.75082e-05
-0.000137094
6.10126e-05
-0.00013556
3.13881e-05
-0.000122308
2.0749e-06
-9.83524e-05
-2.38566e-05
-4.37122e-05
-6.57663e-05
-1.3705e-05
6.48713e-05
-3.69361e-05
0.000121753
-5.95481e-05
0.000135563
-7.53619e-05
0.000122483
-8.04821e-05
9.26283e-05
-7.24866e-05
5.30171e-05
-5.00243e-05
8.9258e-06
-1.27108e-05
-3.52386e-05
3.87057e-05
-7.52731e-05
-0.000107138
0.000102131
-1.05438e-05
7.54151e-05
-2.49e-05
0.000136109
-3.38433e-05
0.000144506
-3.20424e-05
0.000120682
-1.62093e-05
7.67952e-05
1.57835e-05
2.10243e-05
6.53463e-05
-4.0637e-05
0.000133241
-0.000103133
0.000219186
-0.000161218
-0.000209134
0.000321182
-6.16659e-06
8.15817e-05
-8.50961e-06
0.000138452
8.53988e-07
0.000135143
2.59918e-05
9.55444e-05
6.91322e-05
3.36548e-05
0.00013164
-4.14832e-05
0.000214598
-0.000123596
0.000319015
-0.00020755
0.00044531
-0.000287513
-0.000355573
0.00059175
-2.61926e-07
8.18436e-05
1.32094e-05
0.000124981
4.65336e-05
0.000101819
0.000102127
3.99512e-05
0.000180638
-4.48559e-05
0.000281952
-0.000142798
0.000405984
-0.000247628
0.000553288
-0.000354854
0.000724941
-0.000459167
-0.000550673
0.00092004
7.45347e-06
7.43902e-05
4.11383e-05
9.1296e-05
0.000105118
3.78391e-05
0.000199987
-5.4918e-05
0.000324454
-0.000169323
0.000476144
-0.000294488
0.00065244
-0.000423924
0.000851632
-0.000554046
0.00107418
-0.000681716
-0.000799938
0.00132345
1.70872e-05
5.7303e-05
7.55894e-05
3.27938e-05
0.000177495
-6.40662e-05
0.000321889
-0.000199312
0.000505824
-0.000353257
0.000724531
-0.000513196
0.000971736
-0.000671128
0.00124062
-0.000822928
0.00152741
-0.000968506
-0.00111854
0.00184601
2.83734e-05
2.89296e-05
0.000115647
-5.44799e-05
0.000262022
-0.000210442
0.000466095
-0.000403385
0.000725072
-0.000612234
0.00103448
-0.000822608
0.00138753
-0.00102418
0.00177341
-0.00120881
0.00217642
-0.00137151
-0.00151624
0.00257413
4.04984e-05
-1.15689e-05
0.000158461
-0.000172442
0.00035227
-0.000404251
0.000620655
-0.00067177
0.00096299
-0.000954569
0.00137996
-0.00123958
0.0018748
-0.00151902
0.0024566
-0.00179061
0.00314826
-0.00206318
-0.00237503
0.00400705
5.23834e-05
-6.39522e-05
0.00020004
-0.000320099
0.00043818
-0.000642391
0.000763281
-0.000996871
0.00117265
-0.00136394
0.00166441
-0.00173133
0.00223746
-0.00209208
0.00289096
-0.0024441
0.00361937
-0.00279159
-0.00314355
0.00438788
6.35098e-05
-0.000127462
0.000238336
-0.000494925
0.00051503
-0.000919085
0.000885569
-0.00136741
0.00134218
-0.00182054
0.0018767
-0.00226586
0.00247993
-0.00269531
0.00314007
-0.00310424
0.00383853
-0.00349005
-0.00384662
0.0045416
7.38972e-05
-0.000201359
0.000273072
-0.0006941
0.000582279
-0.00122829
0.000987719
-0.00177285
0.0014755
-0.00230833
0.00203101
-0.00282136
0.00263844
-0.00330274
0.00328007
-0.00374587
0.00393465
-0.00414464
-0.00448782
0.00457586
8.36887e-05
-0.000285048
0.000304394
-0.000914805
0.000640192
-0.00156409
0.00107089
-0.00220355
0.00157645
-0.00281388
0.00213667
-0.00338159
0.00273136
-0.00389742
0.00334039
-0.0043549
0.00394366
-0.0047479
-0.00506551
0.00452135
9.28732e-05
-0.000377921
0.00033204
-0.00115397
0.000688195
-0.00192025
0.00113453
-0.00264988
0.00164529
-0.00332464
0.00219593
-0.00393223
0.00276372
-0.00446522
0.00332839
-0.00491958
0.0038725
-0.00529201
-0.00557525
0.00438225
0.000101207
-0.000479128
0.000355128
-0.00140789
0.000724579
-0.0022897
0.00117624
-0.00310154
0.00167942
-0.00382783
0.00220661
-0.00445941
0.00273429
-0.0049929
0.00324365
-0.00542893
0.00372086
-0.00576923
-0.00601221
0.00415782
0.00010826
-0.000587389
0.000372315
-0.00167195
0.000746922
-0.0026643
0.00119274
-0.00354736
0.00167527
-0.00431036
0.00216555
-0.0049497
0.00264095
-0.0054683
0.0030854
-0.00587338
0.00348934
-0.00617317
-0.00637278
0.00384992
0.00011351
-0.000700898
0.000382088
-0.00194053
0.000752714
-0.00303493
0.00118096
-0.0039756
0.00162995
-0.00475935
0.00207098
-0.00539072
0.00248371
-0.00588103
0.00285584
-0.00624551
0.0031823
-0.00649964
-0.00665536
0.00346488
0.000116424
-0.000817323
0.000383033
-0.00220713
0.000739873
-0.00339177
0.00113881
-0.00437454
0.00154233
-0.00516286
0.00192353
-0.00577193
0.00226565
-0.00622315
0.00256068
-0.00654054
0.00280792
-0.00674688
-0.00686039
0.00301295
0.000116539
-0.000933862
0.000374047
-0.00246464
0.000707084
-0.0037248
0.00106561
-0.00473307
0.00141326
-0.00551051
0.00172645
-0.00608512
0.00199272
-0.00648942
0.00220855
-0.00675637
0.00237711
-0.00691543
-0.00699008
0.00250679
0.000113453
-0.00104732
0.000354366
-0.00270556
0.000653839
-0.00402428
0.000962016
-0.00504125
0.00124544
-0.00579394
0.00148495
-0.00632463
0.00167284
-0.0066773
0.00180974
-0.00689327
0.001902
-0.00700769
-0.00704792
0.00195984
0.000106908
-0.00115422
0.000323706
-0.00292235
0.000580557
-0.00428113
0.000829992
-0.00529069
0.00104304
-0.00600699
0.00120572
-0.0064873
0.001315
-0.00678659
0.00137514
-0.00695341
0.00139477
-0.00702733
-0.00703822
0.00138507
9.67557e-05
-0.00125098
0.00028219
-0.00310779
0.000488392
-0.00448733
0.000672443
-0.00547474
0.00081113
-0.00614568
0.000895969
-0.00657214
0.00092828
-0.0068189
0.000915131
-0.00694026
0.000866583
-0.00697878
-0.00696567
0.000794027
8.29793e-05
-0.00133396
0.000230335
-0.00325514
0.000379106
-0.0046361
0.000492894
-0.00558852
0.000555128
-0.00620791
0.000562841
-0.00657985
0.00052109
-0.00677715
0.000438891
-0.00685806
0.000326896
-0.00686678
-0.00683499
0.000196221
6.56962e-05
-0.00139965
0.000169027
-0.00335847
0.000254957
-0.00472203
0.000295231
-0.0056288
0.000280428
-0.00619311
0.000212837
-0.00651226
0.000100587
-0.0066649
-4.61968e-05
-0.00671128
-0.00021702
-0.00669596
-0.00665077
-0.000401247
4.51769e-05
-0.00144483
9.95254e-05
-0.00341282
0.00011865
-0.00474116
8.36042e-05
-0.00559375
-7.7662e-06
-0.00610174
-0.000148343
-0.00637169
-0.000327543
-0.0064857
-0.000534794
-0.00650403
-0.00076037
-0.00647038
-0.00641678
-0.000994357
2.18713e-05
-0.0014667
2.35016e-05
-0.00341445
-2.66278e-05
-0.00469103
-0.000137523
-0.00548286
-0.000304342
-0.00593492
-0.000515685
-0.00616034
-0.000758977
-0.0062424
-0.00102358
-0.00623942
-0.00130106
-0.0061929
-0.0061335
-0.00158434
-3.55053e-06
-0.00146315
-5.68879e-05
-0.00336111
-0.000177088
-0.00457083
-0.00036322
-0.00529673
-0.000604197
-0.00569394
-0.000885123
-0.00587942
-0.00119177
-0.00593576
-0.00151329
-0.0059179
-0.00184267
-0.00586353
-0.00579396
-0.00218221
-3.01339e-05
-0.00143302
-0.000138823
-0.00325243
-0.000327886
-0.00438176
-0.000587117
-0.0050375
-0.000900686
-0.00538037
-0.00125199
-0.00552812
-0.00162648
-0.00556126
-0.00201377
-0.00553061
-0.00240988
-0.00546742
-0.00540656
-0.00279728
-5.66454e-05
-0.00137637
-0.000218784
-0.00309029
-0.000472612
-0.00412793
-0.000799297
-0.00471081
-0.0011797
-0.00499996
-0.00159792
-0.0051099
-0.00204264
-0.00511654
-0.0025066
-0.00506665
-0.00298889
-0.00498512
-0.00487
-0.00352546
-8.20096e-05
-0.00129436
-0.000293728
-0.00287857
-0.000605517
-0.00381615
-0.000989643
-0.00432669
-0.00142256
-0.00456705
-0.00188622
-0.00464625
-0.00236761
-0.00463515
-0.00285777
-0.0045765
-0.00335051
-0.00449238
-0.00439088
-0.00382963
-0.000105589
-0.00118877
-0.000362276
-0.00262188
-0.00072524
-0.00345318
-0.00115847
-0.00389345
-0.00163445
-0.00409107
-0.00213345
-0.00414724
-0.00264204
-0.00412656
-0.00315122
-0.00406732
-0.0036538
-0.0039898
-0.00390448
-0.0041402
-0.000127039
-0.00106174
-0.000423838
-0.00232508
-0.000831676
-0.00304534
-0.00130736
-0.00341777
-0.00182034
-0.00357809
-0.00235017
-0.00361742
-0.00288376
-0.00359296
-0.00341296
-0.00353812
-0.0039322
-0.00347056
-0.00339978
-0.0044369
-0.000146098
-0.000915637
-0.000477982
-0.0019932
-0.000924642
-0.00259868
-0.00143689
-0.00290553
-0.00198197
-0.00303301
-0.00253926
-0.00306012
-0.00309648
-0.00303575
-0.00364662
-0.00298797
-0.00418571
-0.00293147
-0.00287404
-0.00471146
-0.00016252
-0.000753117
-0.000524251
-0.00163147
-0.00100371
-0.00211923
-0.00154682
-0.00236241
-0.00211928
-0.00246055
-0.00270059
-0.00247881
-0.00327931
-0.00245703
-0.0038495
-0.00241778
-0.00440837
-0.00237261
-0.00232762
-0.00495478
-0.000176052
-0.000577065
-0.000562135
-0.00124538
-0.00106822
-0.00161314
-0.00163643
-0.0017942
-0.00223135
-0.00186563
-0.00283272
-0.00187744
-0.00342984
-0.00185991
-0.00401764
-0.00182997
-0.00459409
-0.00179616
-0.00176296
-0.00515875
-0.000186455
-0.00039061
-0.000591114
-0.000840726
-0.00111745
-0.00108681
-0.00170476
-0.00120689
-0.0023169
-0.00125349
-0.00293383
-0.00126051
-0.00354545
-0.00124829
-0.0041473
-0.00122813
-0.00473783
-0.00120563
-0.00118374
-0.00531705
-0.00019352
-0.00019709
-0.000610724
-0.000423522
-0.0011507
-0.000546836
-0.0017509
-0.000606684
-0.00237471
-0.000629687
-0.00300227
-0.000632946
-0.00362388
-0.000626685
-0.00423546
-0.000616546
-0.00483577
-0.000605312
-0.000594442
-0.00542507
-0.000197093
2.91571e-09
-0.000620621
6.90907e-09
-0.00116747
9.09221e-09
-0.00177416
1.00176e-08
-0.00240386
1.01247e-08
-0.00303681
9.73756e-09
-0.00366351
9.08146e-09
-0.00428006
8.30103e-09
-0.00488538
7.51632e-09
6.74839e-09
-0.00547983
-0.000197093
0.000197096
-0.000620621
0.000423535
-0.00116747
0.000546854
-0.00177416
0.000606704
-0.00240386
0.000629707
-0.00303681
0.000632965
-0.00366351
0.000626703
-0.00428006
0.000616562
-0.00488538
0.000605327
0.000594455
-0.00547983
-0.00019352
0.000390616
-0.000610724
0.00084074
-0.0011507
0.00108683
-0.0017509
0.00120691
-0.00237471
0.00125351
-0.00300227
0.00126053
-0.00362388
0.00124831
-0.00423546
0.00122814
-0.00483577
0.00120564
0.00118375
-0.00542507
-0.000186455
0.000577071
-0.000591113
0.0012454
-0.00111744
0.00161316
-0.00170476
0.00179422
-0.0023169
0.00186565
-0.00293383
0.00187746
-0.00354545
0.00185993
-0.0041473
0.00182999
-0.00473783
0.00179618
0.00176297
-0.00531705
-0.000176052
0.000753123
-0.000562134
0.00163148
-0.00106822
0.00211925
-0.00163643
0.00236243
-0.00223135
0.00246057
-0.00283272
0.00247883
-0.00342984
0.00245705
-0.00401764
0.00241779
-0.00459409
0.00237262
0.00232764
-0.00515875
-0.000162519
0.000915642
-0.00052425
0.00199321
-0.00100371
0.0025987
-0.00154682
0.00290554
-0.00211928
0.00303303
-0.00270059
0.00306014
-0.0032793
0.00303576
-0.0038495
0.00298799
-0.00440837
0.00293148
0.00287405
-0.00495478
-0.000146098
0.00106174
-0.000477981
0.00232509
-0.000924641
0.00304536
-0.00143688
0.00341779
-0.00198197
0.00357811
-0.00253926
0.00361744
-0.00309648
0.00359298
-0.00364662
0.00353813
-0.00418571
0.00347058
0.00339979
-0.00471146
-0.000127038
0.00118878
-0.000423837
0.00262189
-0.000831674
0.0034532
-0.00130736
0.00389347
-0.00182034
0.00409109
-0.00235016
0.00414726
-0.00288376
0.00412658
-0.00341296
0.00406733
-0.0039322
0.00398981
0.0039045
-0.0044369
-0.000105588
0.00129437
-0.000362275
0.00287858
-0.000725239
0.00381616
-0.00115847
0.0043267
-0.00163444
0.00456706
-0.00213345
0.00464627
-0.00264203
0.00463516
-0.00315121
0.00457651
-0.0036538
0.0044924
0.0043909
-0.0041402
-8.20092e-05
0.00137638
-0.000293727
0.0030903
-0.000605515
0.00412795
-0.00098964
0.00471083
-0.00142256
0.00499998
-0.00188621
0.00510992
-0.00236761
0.00511656
-0.00285777
0.00506667
-0.0033505
0.00498513
0.00487002
-0.00382962
-5.6645e-05
0.00143302
-0.000218783
0.00325244
-0.00047261
0.00438178
-0.000799294
0.00503751
-0.0011797
0.00538039
-0.00159792
0.00552813
-0.00204264
0.00556128
-0.00250659
0.00553063
-0.00298889
0.00546743
0.00540658
-0.00352545
-3.01334e-05
0.00146315
-0.000138821
0.00336112
-0.000327884
0.00457084
-0.000587113
0.00529674
-0.000900682
0.00569396
-0.00125198
0.00587943
-0.00162647
0.00593577
-0.00201376
0.00591791
-0.00240988
0.00586355
0.00579397
-0.00279727
-3.55003e-06
0.0014667
-5.68864e-05
0.00341446
-0.000177086
0.00469104
-0.000363217
0.00548287
-0.000604193
0.00593493
-0.000885119
0.00616036
-0.00119176
0.00624242
-0.00151329
0.00623944
-0.00184266
0.00619292
0.00613351
-0.0021822
2.18718e-05
0.00144483
2.35031e-05
0.00341283
-2.6625e-05
0.00474117
-0.000137519
0.00559377
-0.000304337
0.00610175
-0.000515679
0.0063717
-0.000758971
0.00648571
-0.00102358
0.00650404
-0.00130106
0.0064704
0.00641679
-0.00158434
4.51775e-05
0.00139966
9.95271e-05
0.00335848
0.000118653
0.00472204
8.36085e-05
0.00562881
-7.76075e-06
0.00619312
-0.000148336
0.00651228
-0.000327536
0.00666491
-0.000534786
0.00671129
-0.000760362
0.00669597
0.00665078
-0.000994349
6.56968e-05
0.00133396
0.000169028
0.00325515
0.00025496
0.00463611
0.000295235
0.00558854
0.000280434
0.00620792
0.000212844
0.00657987
0.000100595
0.00677716
-4.61879e-05
0.00685808
-0.00021701
0.0068668
0.00683501
-0.000401237
8.29799e-05
0.00125098
0.000230337
0.00310779
0.000379109
0.00448734
0.000492899
0.00547475
0.000555135
0.00614569
0.000562849
0.00657215
0.000521099
0.00681891
0.000438902
0.00694027
0.000326907
0.00697879
0.00696568
0.000196233
9.67562e-05
0.00115422
0.000282192
0.00292235
0.000488395
0.00428113
0.000672449
0.00529069
0.000811137
0.006007
0.000895978
0.00648731
0.00092829
0.0067866
0.000915142
0.00695342
0.000866595
0.00702734
0.00703823
0.00079404
0.000106908
0.00104731
0.000323707
0.00270556
0.000580561
0.00402428
0.000829998
0.00504126
0.00104305
0.00579395
0.00120573
0.00632464
0.00131501
0.00667731
0.00137515
0.00689328
0.00139479
0.0070077
0.00704793
0.00138509
0.000113454
0.00093386
0.000354368
0.00246464
0.000653842
0.0037248
0.000962022
0.00473308
0.00124545
0.00551052
0.00148496
0.00608512
0.00167285
0.00648943
0.00180976
0.00675638
0.00190202
0.00691544
0.00699009
0.00195986
0.00011654
0.000817321
0.000374049
0.00220713
0.000707087
0.00339177
0.00106562
0.00437454
0.00141327
0.00516287
0.00172646
0.00577194
0.00199274
0.00622315
0.00220857
0.00654055
0.00237713
0.00674688
0.0068604
0.00250681
0.000116425
0.000700896
0.000383035
0.00194052
0.000739876
0.00303493
0.00113882
0.0039756
0.00154233
0.00475935
0.00192355
0.00539072
0.00226566
0.00588103
0.00256069
0.00624552
0.00280794
0.00649964
0.00665537
0.00301297
0.00011351
0.000587386
0.000382089
0.00167194
0.000752717
0.0026643
0.00118096
0.00354735
0.00162996
0.00431035
0.00207099
0.0049497
0.00248372
0.0054683
0.00285586
0.00587338
0.00318232
0.00617318
0.00637278
0.0034649
0.000108261
0.000479125
0.000372317
0.00140789
0.000746925
0.00228969
0.00119274
0.00310153
0.00167527
0.00382782
0.00216556
0.00445941
0.00264096
0.0049929
0.00308542
0.00542893
0.00348936
0.00576923
0.0060122
0.00384995
0.000101207
0.000377918
0.000355129
0.00115397
0.000724581
0.00192024
0.00117624
0.00264987
0.00167943
0.00332464
0.00220662
0.00393222
0.00273431
0.00446521
0.00324366
0.00491957
0.00372089
0.00529201
0.00557524
0.00415785
9.28733e-05
0.000285045
0.00033204
0.000914798
0.000688197
0.00156408
0.00113453
0.00220354
0.0016453
0.00281387
0.00219594
0.00338158
0.00276374
0.00389741
0.00332841
0.00435489
0.00387253
0.00474789
0.0050655
0.00438227
8.36886e-05
0.000201356
0.000304394
0.000694093
0.000640194
0.00122828
0.00107089
0.00177284
0.00157645
0.00230831
0.00213668
0.00282135
0.00273137
0.00330272
0.00334041
0.00374585
0.00394368
0.00414462
0.00448781
0.00452138
7.3897e-05
0.000127459
0.000273072
0.000494917
0.00058228
0.000919074
0.000987721
0.0013674
0.00147551
0.00182053
0.00203102
0.00226584
0.00263845
0.00269529
0.00328009
0.00310421
0.00393468
0.00349003
0.0038466
0.00457588
6.35095e-05
6.39498e-05
0.000238336
0.000320091
0.000515031
0.000642379
0.000885571
0.000996856
0.00134218
0.00136392
0.00187671
0.00173131
0.00247994
0.00209205
0.00314008
0.00244407
0.00383856
0.00279156
0.00314352
0.00454163
5.23831e-05
1.15667e-05
0.000200039
0.000172435
0.00043818
0.000404239
0.000763282
0.000671754
0.00117265
0.000954548
0.00166441
0.00123955
0.00223747
0.00151899
0.00289097
0.00179058
0.00361939
0.00206314
0.002375
0.00438791
4.04982e-05
-2.89315e-05
0.000158461
5.44724e-05
0.000352271
0.000210429
0.000620657
0.000403367
0.000962994
0.000612211
0.00137997
0.00082258
0.00187481
0.00102414
0.00245662
0.00120877
0.00314829
0.00137147
0.0015162
0.00400708
2.83733e-05
-5.73049e-05
0.000115648
-3.28019e-05
0.000262024
6.40518e-05
0.000466099
0.000199292
0.000725079
0.000353231
0.00103449
0.000513164
0.00138755
0.000671091
0.00177344
0.000822886
0.00217645
0.00096846
0.00111849
0.00257416
1.70874e-05
-7.43923e-05
7.55907e-05
-9.13052e-05
0.000177498
-3.78557e-05
0.000321896
5.48942e-05
0.000505835
0.000169292
0.000724548
0.000294451
0.000971758
0.000423881
0.00124065
0.000553997
0.00152745
0.000681661
0.000799876
0.00184606
7.454e-06
-8.18463e-05
4.11406e-05
-0.000124992
0.000105123
-0.000101838
0.000199997
-3.99793e-05
0.000324469
4.482e-05
0.000476166
0.000142754
0.000652469
0.000247577
0.00085167
0.000354796
0.00107423
0.000459102
0.000550601
0.0013235
-2.61061e-07
-8.15852e-05
1.32127e-05
-0.000138466
4.65408e-05
-0.000135166
0.000102139
-9.55777e-05
0.000180656
-3.36973e-05
0.000281979
4.14321e-05
0.00040602
0.000123536
0.000553333
0.000207483
0.000724996
0.000287439
0.000355491
0.000920106
-6.16547e-06
-7.54198e-05
-8.50563e-06
-0.000136125
8.62383e-07
-0.000144534
2.6006e-05
-0.000120721
6.91535e-05
-7.68448e-05
0.000131669
-2.10836e-05
0.000214637
4.05686e-05
0.000319064
0.000103056
0.00044537
0.000161133
0.00020904
0.00059182
-1.05426e-05
-6.48772e-05
-2.48958e-05
-0.000121772
-3.38345e-05
-0.000135596
-3.20276e-05
-0.000122528
-1.61874e-05
-9.2685e-05
1.58135e-05
-5.30845e-05
6.53854e-05
-9.00318e-06
0.00013329
3.51518e-05
0.000219245
7.51774e-05
0.000107034
0.000321252
-1.37038e-05
-5.11735e-05
-3.6932e-05
-9.8544e-05
-5.95398e-05
-0.000112988
-7.53481e-05
-0.00010672
-8.04619e-05
-8.75712e-05
-7.2459e-05
-6.10873e-05
-4.99886e-05
-3.14736e-05
-1.26665e-05
-2.17031e-06
3.87592e-05
2.37518e-05
4.35985e-05
0.000102194
-1.59e-05
-3.52734e-05
-4.54019e-05
-6.90421e-05
-7.77885e-05
-8.06014e-05
-0.000106373
-7.81353e-05
-0.00012696
-6.69845e-05
-0.000137072
-5.09754e-05
-0.000135532
-3.30135e-05
-0.000122272
-1.54301e-05
-9.83096e-05
-2.10667e-07
1.10047e-05
-6.57158e-05
-1.72945e-05
-1.79789e-05
-5.08224e-05
-3.55142e-05
-8.95488e-05
-4.18751e-05
-0.000126517
-4.11666e-05
-0.000157407
-3.6095e-05
-0.000179772
-2.86106e-05
-0.000192592
-2.01932e-05
-0.000196008
-1.20147e-05
-0.000191172
-5.04574e-06
-6.18052e-08
-0.000180106
-1.79743e-05
-5.3475e-05
-9.53284e-05
-0.000136466
-0.000172524
-0.000201092
-0.000221237
-0.000233197
-0.000238184
-0.000238182
0.000188456
-0.000428651
2.00126e-06
0.00132954
-0.00113994
-1.15176e-06
0.00250113
-0.0011673
-4.27867e-06
0.00325184
-0.000746983
-3.73057e-06
0.00388653
-0.000636081
1.38843e-06
0.00432208
-0.000441378
5.83322e-06
0.00468701
-0.000370211
5.28213e-06
0.00493515
-0.000252649
4.50927e-06
0.00517268
-0.00023394
-3.59919e-06
-0.000161299
-5.35926e-06
0.000300209
-0.000908998
0.00141203
-0.00225176
0.00255728
-0.00231255
0.00329148
-0.00148119
0.00391454
-0.00125914
0.00434341
-0.000870244
0.00470411
-0.000730915
0.00495043
-0.000498965
0.00518718
-0.000470693
-0.000328944
0.000516561
-0.00149132
0.00157133
-0.00330653
0.00266532
-0.00340655
0.00336768
-0.00218354
0.00396833
-0.00185979
0.00438448
-0.00128639
0.00473718
-0.00108361
0.00498016
-0.000741945
0.00521548
-0.000706013
-0.000498589
0.000823617
-0.00221281
0.0017965
-0.00427941
0.00281717
-0.00442722
0.00347474
-0.00284111
0.004044
-0.00242905
0.00444262
-0.00168502
0.00478445
-0.00142544
0.00502324
-0.000980732
0.00525705
-0.000939827
-0.000671622
0.00120174
-0.00309337
0.00207219
-0.00514986
0.00300148
-0.00535651
0.0036046
-0.00344423
0.00413585
-0.00296031
0.00451381
-0.00206298
0.00484309
-0.00175472
0.00507766
-0.0012153
0.00531048
-0.00117265
-0.000849754
0.00162679
-0.00412841
0.00237974
-0.0059028
0.00320453
-0.0061813
0.0037475
-0.00398721
0.00423707
-0.00344988
0.00459322
-0.00241912
0.00490974
-0.00207124
0.0051411
-0.00144665
0.00537424
-0.00140579
-0.00103517
0.00207067
-0.00527904
0.0026979
-0.00653003
0.00341107
-0.00689447
0.00389266
-0.0044688
0.00434004
-0.00389726
0.0046754
-0.00275448
0.00498056
-0.0023764
0.00521083
-0.00167693
0.00544647
-0.00164144
-0.00123055
0.00250299
-0.00645858
0.00300357
-0.00703061
0.00360509
-0.00749599
0.00402884
-0.00489255
0.00443687
-0.00430529
0.0047547
-0.00307231
0.00505148
-0.00267318
0.00528394
-0.00190939
0.00552513
-0.00188262
-0.00143909
0.00290615
-0.00751872
0.00327778
-0.00740224
0.00377252
-0.00799073
0.00414554
-0.00526557
0.00452003
-0.00467977
0.00482552
-0.0033778
0.00511842
-0.00296608
0.00535741
-0.00214837
0.00560801
-0.00213323
-0.00166446
0.00328497
-0.00822957
0.00351889
-0.00763616
0.00390255
-0.00837438
0.00423551
-0.00559854
0.00458277
-0.00502703
0.00488303
-0.00367806
0.00517731
-0.00326036
0.0054286
-0.00239967
0.00569257
-0.00239719
-0.00191146
0.0433145
-0.000968523
-0.0505756
0.0391175
-0.0034391
0.0370712
-0.00632817
0.0369158
-0.0054431
0.0368191
-0.00493032
0.0370453
-0.00390425
0.0373103
-0.00352536
0.0376731
-0.00276246
0.0379799
-0.00270407
-0.00238591
0.0523475
0.0032565
-0.0565725
0.0501612
-0.0012529
0.0475858
-0.0037527
0.0460643
-0.00392162
0.0448788
-0.00374479
0.0440958
-0.0031213
0.0434921
-0.00292164
0.0431489
-0.00241924
0.0428012
-0.0023564
-0.00229244
0.0538973
0.00447296
-0.0551138
0.0526138
3.06413e-05
0.0509981
-0.00213701
0.0496928
-0.00261634
0.0485893
-0.00264129
0.0477409
-0.00227286
0.0469977
-0.00217845
0.0464612
-0.00188279
0.045908
-0.00180318
-0.00192548
0.052048
0.00433202
-0.0519071
0.0516329
0.000445827
0.0507883
-0.00129243
0.0499422
-0.00177028
0.0491765
-0.00187558
0.0485605
-0.00165688
0.0479884
-0.0016063
0.0475352
-0.00142961
0.0470563
-0.00132427
-0.00152346
0.0499933
0.00365809
-0.0493194
0.0498588
0.000580408
0.0494189
-0.000852556
0.0489043
-0.00125575
0.0484025
-0.00137378
0.0479898
-0.00124413
0.0475994
-0.00121591
0.0472698
-0.00109996
0.0469271
-0.000981601
-0.00118012
0.0482945
0.00286618
-0.0475026
0.0483124
0.000562467
0.0480425
-0.000582658
0.0476977
-0.000910934
0.047341
-0.00101703
0.0470395
-0.000942675
0.0467554
-0.00093184
0.0465047
-0.000849247
0.04626
-0.000736923
-0.000899798
0.0470867
0.0020841
-0.0463046
0.0471728
0.000476397
0.0469799
-0.000389822
0.0467143
-0.000645341
0.0464273
-0.000729936
0.0461743
-0.000689761
0.045934
-0.000691526
0.0457169
-0.000632161
0.0455202
-0.00054017
-0.000658772
0.0462732
0.00135158
-0.0455406
0.0464088
0.000340744
0.046258
-0.000238996
0.046028
-0.000415311
0.0457718
-0.000473749
0.0455368
-0.000454779
0.0453073
-0.000462069
0.0450985
-0.000423343
0.0449174
-0.000359063
-0.000435435
0.0457772
0.000663708
-0.0450894
0.0459442
0.000173815
0.04582
-0.000114806
0.0456065
-0.000201817
0.0453636
-0.000230898
0.0451348
-0.000225997
0.0449044
-0.000231636
0.0446948
-0.000213718
0.044515
-0.000179305
-0.000217814
0.0455431
-0.0448794
0.0457169
0.0456021
0.0454003
0.0451694
0.0449434
0.0447118
0.0444981
0.0443188
0.05678
0.00229984
-0.0560668
0.0573351
0.00290973
0.0576838
0.00350122
0.0577763
0.00406529
0.0575659
0.00459271
0.0570125
0.00507468
0.0560849
0.00550349
0.0547535
0.00587301
0.052963
0.00617838
0.00639448
0.0513987
0.00169116
-0.05079
0.0520524
0.00225599
0.0527371
0.00281647
0.0534349
0.0033675
0.0541243
0.00390337
0.0547811
0.00441788
0.05538
0.00490458
0.0558959
0.00535711
0.0563045
0.00576974
0.00612653
0.0480908
0.00121643
-0.0476161
0.0486465
0.00170029
0.04928
0.00218298
0.0499858
0.00266163
0.0507561
0.00313308
0.0515802
0.00359387
0.0524446
0.00404016
0.0533339
0.00446781
0.0542314
0.00487227
0.00524411
0.0454927
0.000890035
-0.0451663
0.0458992
0.00129376
0.0463865
0.00169574
0.0469543
0.00209374
0.0476019
0.00248548
0.0483272
0.00286865
0.0491265
0.00324084
0.0499948
0.00359953
0.0509251
0.00394195
0.00426209
0.0439036
0.000650423
-0.043664
0.0442173
0.000980063
0.0446052
0.00130782
0.0450671
0.00163183
0.0456024
0.00195023
0.0462099
0.00226115
0.046888
0.00256273
0.0476344
0.00285308
0.0484463
0.00313011
0.00338894
0.0428076
0.000468471
-0.0426256
0.0430595
0.000728144
0.0433813
0.000986046
0.0437725
0.00124066
0.0442322
0.00149048
0.0447594
0.00173401
0.0453523
0.00196978
0.0460091
0.00219633
0.0467271
0.00241203
0.00261352
0.0421136
0.000323923
-0.041969
0.042325
0.000516712
0.042603
0.000708085
0.0429467
0.000896888
0.0433552
0.00108198
0.043827
0.00126223
0.0443603
0.00143651
0.0449529
0.00160374
0.0456022
0.0017627
0.00191111
0.0416615
0.000203538
-0.0415411
0.041847
0.000331214
0.0420972
0.00045793
0.0424111
0.000582915
0.0427877
0.000705399
0.0432253
0.000824624
0.043722
0.000939842
0.0442754
0.00105031
0.0448828
0.00115525
0.00125331
0.0413967
9.79305e-05
-0.0412911
0.0415664
0.000161561
0.0417996
0.00022473
0.0420955
0.000287049
0.0424527
0.000348131
0.0428698
0.000407593
0.0433445
0.000465058
0.0438747
0.000520154
0.0444575
0.00057249
0.000621427
0.0412712
-0.0411733
0.0414328
0.0416575
0.0419446
0.0422927
0.0427003
0.0431653
0.0436855
0.044258
0.0481115
-0.00335443
-0.0475544
0.048825
-0.00289569
0.0496478
-0.00240711
0.0505401
-0.00188664
0.051474
-0.00133523
0.0524311
-0.000760798
0.0533929
-0.000167844
0.0543381
0.000439945
0.0552401
0.00105783
0.00168003
0.0479861
-0.00340753
-0.047933
0.0480824
-0.00299199
0.0482215
-0.00254614
0.0484091
-0.00207426
0.0486514
-0.00157752
0.0489526
-0.00106197
0.0493161
-0.000531368
0.0497441
1.19668e-05
0.0502364
0.000565547
0.00112641
0.0468972
-0.00314815
-0.0471566
0.0466933
-0.00278803
0.0465499
-0.00240278
0.0464724
-0.0019968
0.0464671
-0.00157215
0.0465374
-0.00113226
0.0466856
-0.000679636
0.0469139
-0.000216287
0.0472237
0.000255702
0.000734072
0.0455814
-0.00277196
-0.0459576
0.0452631
-0.00246971
0.0450061
-0.00214581
0.044814
-0.0018047
0.0446901
-0.00144827
0.0446368
-0.00107893
0.0446559
-0.000698773
0.0447494
-0.000309752
0.044919
8.61277e-05
0.000486773
0.0446592
-0.00235011
-0.0450811
0.0442912
-0.00210167
0.0439814
-0.00183609
0.0437332
-0.00155645
0.0435493
-0.00126434
0.043432
-0.00096163
0.0433832
-0.000650043
0.0434048
-0.000331279
0.043498
-7.07811e-06
0.000320766
0.0439888
-0.00190074
-0.0444381
0.0435913
-0.00170426
0.0432497
-0.00149447
0.0429669
-0.00127363
0.0427455
-0.00104298
0.0425878
-0.000803903
0.0424956
-0.000557805
0.0424704
-0.000306072
0.0425134
-5.01334e-05
0.000208547
0.043558
-0.00143626
-0.0440224
0.0431439
-0.00129016
0.0427838
-0.00113436
0.0424805
-0.000970343
0.0422365
-0.000799018
0.042054
-0.000621406
0.0419348
-0.000438544
0.0418802
-0.000251485
0.0418913
-6.13099e-05
0.000130871
0.0432791
-0.000961688
-0.0437536
0.0428539
-0.00086501
0.0424815
-0.000761945
0.0421646
-0.000653424
0.0419056
-0.000540052
0.0417067
-0.00042249
0.0415696
-0.000301423
0.0414956
-0.000177553
0.0414859
-5.16055e-05
7.56782e-05
0.0431181
-0.000481654
-0.0435981
0.0426867
-0.00043364
0.0423072
-0.000382455
0.0419823
-0.000328541
0.0417145
-0.000272195
0.0415057
-0.000213741
0.0413578
-0.000153517
0.0412721
-9.18721e-05
0.0412497
-2.91669e-05
3.42273e-05
0.0430442
-0.0435259
0.0426106
0.0422281
0.0418996
0.0416274
0.0414136
0.0412601
0.0411682
0.0411391
0.0429475
0.000174591
-0.000193144
0.0429914
0.000521156
-0.000565123
0.043066
0.000872467
-0.000946989
0.0431886
0.0012367
-0.00135934
0.0433894
0.00161922
-0.00182002
0.043712
0.00202426
-0.0023468
0.0442151
0.00245392
-0.00295704
0.0449706
0.00291065
-0.00366622
0.0460728
0.00337044
-0.00447255
0.00392266
-0.0054043
0.0429657
0.000137833
0.043073
0.000413889
0.0432541
0.000691301
0.0435196
0.000971249
0.0438843
0.00125455
0.0443671
0.00154143
0.0449901
0.00183094
0.0457775
0.00212319
0.0467453
0.00240261
0.00273497
0.0429665
0.000100223
0.0430779
0.000302564
0.0432627
0.000506446
0.0435251
0.000708856
0.0438708
0.000908895
0.0443069
0.00110527
0.044842
0.00129588
0.0454861
0.00147903
0.046244
0.00164475
0.00182239
0.0429586
7.05116e-05
0.0430476
0.000213604
0.043196
0.000358058
0.0434046
0.000500282
0.0436744
0.000639068
0.0440065
0.000773121
0.0444015
0.000900868
0.0448595
0.0010211
0.0453754
0.00112883
0.00124018
0.0429506
4.88532e-05
0.043016
0.000148147
0.0431257
0.00024837
0.0432794
0.000346626
0.0434766
0.000441856
0.0437167
0.000533008
0.0439986
0.000618941
0.044321
0.000698723
0.0446803
0.000769565
0.000839407
0.0429445
3.32719e-05
0.0429917
0.000100908
0.043071
0.000169147
0.0431817
0.000235933
0.043323
0.000300491
0.043494
0.000362082
0.0436929
0.000419963
0.0439181
0.000473539
0.0441663
0.000521338
0.000567622
0.0429403
2.18894e-05
0.0429748
6.63774e-05
0.0430327
0.000111242
0.0431136
0.000155123
0.0432166
0.000197498
0.0433408
0.000237877
0.0434849
0.000275783
0.0436477
0.000310825
0.0438268
0.000342176
0.000371996
0.0429376
1.32578e-05
0.0429637
4.01903e-05
0.0430077
6.73377e-05
0.0430689
9.38905e-05
0.0431468
0.000119534
0.0432407
0.000143977
0.0433496
0.000166943
0.0434722
0.000188206
0.0436071
0.000207332
0.000225422
0.0429359
6.2516e-06
0.0429572
1.89521e-05
0.0429928
3.17433e-05
0.0430424
4.42551e-05
0.0431056
5.63408e-05