/*--------------------------------*- C++ -*----------------------------------*\
  =========                 |
  \\      /  F ield         | OpenFOAM: The Open Source CFD Toolbox
   \\    /   O peration     | Website:  https://openfoam.org
    \\  /    A nd           | Version:  6.0
     \\/     M anipulation  |
\*---------------------------------------------------------------------------*/
FoamFile
{
    version     2.0;
    format      ascii;
    class       volVectorField;
    location    "19";
    object      U;
}
// * * * * * * * * * * * * * * * * * * * * * * * * * * * * * * * * * * * * * //

dimensions      [0 1 -1 0 0 0 0];

internalField   nonuniform List<vector> 
2000
(
(-0.00199151 0.00173729 5.77509e-20)
(-0.00762026 0.00329829 6.858e-20)
(-0.0153233 0.00365395 -6.53781e-20)
(-0.0223164 0.00332589 -1.33405e-19)
(-0.0276517 0.00262454 -9.31933e-20)
(-0.0311768 0.00175314 1.24157e-19)
(-0.0329896 0.000857181 7.23243e-20)
(-0.0333601 4.34341e-05 -2.92552e-20)
(-0.0327218 -0.000608935 -7.30415e-20)
(-0.0313683 -0.00103587 5.32572e-20)
(-0.00248978 0.00511993 -1.43139e-19)
(-0.0083683 0.00967801 1.97578e-19)
(-0.0157162 0.0106825 1.97033e-20)
(-0.0220054 0.00967426 -1.14447e-19)
(-0.0264255 0.00756678 5.47627e-19)
(-0.0289005 0.00495724 -2.41025e-19)
(-0.0295762 0.00227426 -2.60776e-19)
(-0.028749 -0.000163609 3.14541e-19)
(-0.0268687 -0.00211446 -3.10239e-19)
(-0.0243067 -0.00338536 1.56494e-19)
(-0.00343545 0.00822297 2.37741e-20)
(-0.00972364 0.0153985 8.44526e-21)
(-0.016288 0.0168638 5.92067e-19)
(-0.0211167 0.0151055 2.0769e-19)
(-0.0236735 0.0115859 4.11865e-20)
(-0.0240336 0.00725706 3.40684e-19)
(-0.0224359 0.00280534 -6.47116e-19)
(-0.0192253 -0.00124603 1.40344e-20)
(-0.0148812 -0.00447994 -3.82699e-19)
(-0.009937 -0.00657204 4.21623e-19)
(-0.00472307 0.0108652 -4.47133e-20)
(-0.0113957 0.0200452 2.57179e-19)
(-0.0165974 0.0216887 -7.49366e-19)
(-0.0190984 0.0191026 -9.68831e-20)
(-0.0187727 0.014204 -5.5161e-19)
(-0.0159191 0.00823158 5.71303e-19)
(-0.0109105 0.00208051 -6.06008e-19)
(-0.00415433 -0.00353952 4.25606e-19)
(0.00383536 -0.00801827 1.78929e-19)
(0.0122668 -0.0108956 -2.02231e-19)
(-0.00618503 0.0128707 -4.97497e-19)
(-0.0129276 0.0232375 4.47188e-21)
(-0.0159526 0.0247278 9.2295e-19)
(-0.0150819 0.0212839 2.76749e-19)
(-0.010735 0.0151456 -8.79931e-19)
(-0.00350544 0.00773555 5.47163e-19)
(0.00606226 7.71937e-05 6.20334e-19)
(0.0174935 -0.00697529 -5.53093e-19)
(0.030251 -0.012604 3.94395e-19)
(0.0431747 -0.01621 9.6842e-20)
(-0.00758014 0.0140685 6.80142e-20)
(-0.0136773 0.0246396 1.26082e-20)
(-0.0133876 0.025653 -1.17976e-18)
(-0.00784997 0.0214402 -6.60104e-19)
(0.00184022 0.0143968 7.87521e-19)
(0.0147209 0.00599654 -9.22291e-19)
(0.030032 -0.00273102 1.05702e-18)
(0.0472333 -0.0108759 -9.12536e-20)
(0.0658058 -0.0174281 -2.97394e-19)
(0.0841059 -0.0216634 -8.64583e-19)
(-0.00858198 0.014296 -1.47875e-19)
(-0.0128055 0.0239743 -2.70082e-19)
(-0.0076572 0.0242518 -3.31865e-19)
(0.00417185 0.0195432 7.08118e-19)
(0.0207935 0.0122162 1.31379e-18)
(0.0407967 0.00364773 -2.71518e-19)
(0.0631407 -0.00529391 -6.61137e-19)
(0.0872043 -0.0138163 2.01639e-19)
(0.112572 -0.0208182 -1.27035e-18)
(0.13704 -0.0255019 1.39527e-18)
(-0.00877499 0.0134137 9.04348e-19)
(-0.0092922 0.0210484 -4.93541e-19)
(0.00271918 0.0204361 9.63957e-19)
(0.0228529 0.0157218 -1.57507e-18)
(0.0483399 0.00908054 -7.52754e-19)
(0.0772333 0.00167271 -1.04281e-18)
(0.108103 -0.00597411 3.02935e-19)
(0.140171 -0.0134522 -8.43983e-19)
(0.173258 -0.0197968 1.83798e-18)
(0.204702 -0.0243195 5.14655e-19)
(-0.00766989 0.0113346 6.64091e-20)
(-0.00199774 0.0157955 8.03952e-19)
(0.0193474 0.0142477 1.59782e-18)
(0.0502086 0.0101936 4.88478e-19)
(0.0869028 0.00552123 1.44581e-18)
(0.126855 0.0011916 7.92765e-20)
(0.168054 -0.00260372 -8.7881e-22)
(0.209301 -0.00591347 5.83127e-19)
(0.25067 -0.00807985 4.72211e-19)
(0.2896 -0.0095193 -1.53199e-18)
(-0.00475392 0.00807065 -5.35393e-19)
(0.0102062 0.00833576 -8.96884e-19)
(0.0437558 0.00585587 -1.30408e-18)
(0.0881676 0.00309367 3.06904e-20)
(0.138984 0.00160809 -6.6507e-19)
(0.193104 0.00236155 1.04834e-18)
(0.247951 0.00567734 -2.88682e-18)
(0.301587 0.0117756 1.29627e-18)
(0.353366 0.0212524 4.877e-19)
(0.400559 0.0299674 1.53036e-18)
(0.000409918 0.00379158 2.6785e-19)
(0.0281905 -0.000926978 -1.02519e-18)
(0.0769423 -0.00435959 9.15551e-19)
(0.137761 -0.00558227 -3.5531e-19)
(0.205819 -0.00359755 3.86496e-19)
(0.278151 0.00251843 8.41692e-19)
(0.352922 0.0135026 -1.13007e-18)
(0.429722 0.0302976 1.46965e-19)
(0.509527 0.0521697 -5.4165e-19)
(0.594681 0.0691517 1.09806e-18)
(0.00808657 -0.00112607 3.83522e-19)
(0.0523465 -0.0111475 -9.29193e-19)
(0.11891 -0.0154175 1.2664e-18)
(0.197972 -0.0151399 -7.88901e-19)
(0.28434 -0.0104337 -2.89393e-19)
(0.37496 -0.0011595 1.71348e-19)
(0.468018 0.0125945 8.86095e-20)
(0.562944 0.0305175 1.20221e-18)
(0.659387 0.0498972 3.46158e-19)
(0.755048 0.0620437 1.47892e-18)
(0.0183839 -0.00612058 -3.42219e-19)
(0.0827134 -0.0209727 1.20113e-18)
(0.169181 -0.0253495 -1.00261e-18)
(0.267302 -0.0229473 -1.17626e-18)
(0.371404 -0.0152472 1.64578e-18)
(0.477991 -0.00304241 -1.25167e-18)
(0.584664 0.0127365 3.30603e-19)
(0.689864 0.0309786 -1.96021e-18)
(0.791808 0.0490043 1.46831e-18)
(0.88651 0.0614742 7.33677e-20)
(0.0313081 -0.0105642 -4.4586e-19)
(0.119092 -0.0288455 -4.30812e-19)
(0.227063 -0.0318646 -9.17627e-19)
(0.344331 -0.0259984 1.1123e-18)
(0.464781 -0.0141729 -5.6221e-20)
(0.58445 0.00191617 7.19493e-19)
(0.700398 0.0206678 1.31283e-18)
(0.810384 0.0405847 -4.0343e-19)
(0.912037 0.0595749 -1.42706e-18)
(1.00135 0.0746287 2.83331e-18)
(0.0467892 -0.0138491 -2.30396e-19)
(0.16104 -0.0332643 -2.74863e-19)
(0.291551 -0.0328521 4.94967e-19)
(0.4274 -0.0217595 -9.20224e-19)
(0.562232 -0.00437924 1.57166e-19)
(0.691837 0.0167397 1.39955e-19)
(0.813091 0.0394486 6.1393e-20)
(0.923642 0.0620426 -9.85168e-21)
(1.0213 0.0830206 -1.50394e-19)
(1.10267 0.100767 -2.39582e-18)
(0.0646685 -0.0154134 9.35293e-19)
(0.207825 -0.0329046 -6.52784e-19)
(0.361209 -0.0265988 8.3385e-21)
(0.514352 -0.00841908 -9.94878e-19)
(0.661009 0.0158065 -3.56146e-19)
(0.797097 0.0427546 3.32927e-19)
(0.919777 0.0698513 2.58721e-19)
(1.02715 0.0953064 -9.21933e-19)
(1.11776 0.118156 7.53772e-19)
(1.18923 0.137589 -9.88542e-19)
(0.0846668 -0.0147458 4.03588e-19)
(0.258381 -0.0266769 -3.58787e-19)
(0.434137 -0.011885 1.49083e-18)
(0.60253 0.0150355 1.52126e-19)
(0.757905 0.0469364 3.49465e-19)
(0.896798 0.0798671 1.55835e-18)
(1.01718 0.111007 -2.38166e-19)
(1.11811 0.138652 2.17381e-19)
(1.19925 0.162396 9.00908e-20)
(1.25953 0.18191 -1.10627e-19)
(0.106354 -0.0113961 2.81916e-19)
(0.311302 -0.0137674 6.78088e-19)
(0.508024 0.0119756 -7.26731e-19)
(0.688915 0.0488397 -2.4619e-19)
(0.849507 0.0885999 -3.04176e-19)
(0.987513 0.126933 4.7126e-19)
(1.10222 0.161041 -2.45277e-19)
(1.1941 0.189544 6.59995e-19)
(1.26418 0.212694 2.22278e-19)
(1.3128 0.230493 -3.62311e-19)
(0.129135 -0.00500063 -3.03822e-19)
(0.364868 0.00631397 2.7014e-19)
(0.580261 0.0451143 -5.76581e-19)
(0.770341 0.0925084 2.48792e-19)
(0.932494 0.139605 -2.58215e-19)
(1.06618 0.182087 -3.22404e-19)
(1.17248 0.217535 -2.59089e-19)
(1.25351 0.245184 2.89637e-19)
(1.3118 0.266064 -5.46509e-19)
(1.34912 0.280476 3.30278e-19)
(0.152259 0.00468043 -1.08288e-19)
(0.417114 0.0336784 -2.11918e-19)
(0.648096 0.0870925 1.00919e-19)
(0.843723 0.144904 6.20396e-21)
(1.00391 0.198149 8.3791e-20)
(1.13039 0.24301 1.15053e-19)
(1.22632 0.277856 1.06725e-19)
(1.29564 0.302829 -1.41509e-19)
(1.34228 0.319852 1.20625e-19)
(1.36935 0.329526 -1.88841e-19)
(0.174843 0.0177221 -6.26972e-20)
(0.46594 0.0680081 -2.35262e-20)
(0.708814 0.136903 9.36857e-20)
(0.906283 0.204319 -4.31074e-20)
(1.06139 0.261982 1.15053e-19)
(1.1785 0.307145 -1.48587e-19)
(1.26302 0.339379 3.44213e-20)
(1.32063 0.359982 3.69402e-20)
(1.35651 0.371834 -1.55403e-20)
(1.37485 0.375849 5.87259e-20)
(0.195924 0.0339995 -6.76517e-20)
(0.509232 0.108526 -3.06256e-19)
(0.759913 0.193001 -2.12622e-20)
(0.955726 0.268579 6.33186e-21)
(1.10326 0.328564 -3.98934e-19)
(1.2097 0.37187 5.26774e-20)
(1.28265 0.399631 -4.4897e-20)
(1.32933 0.414471 -1.08542e-19)
(1.35588 0.420222 2.26743e-19)
(1.36733 0.418106 -4.13652e-19)
(0.21451 0.0531627 -3.27042e-20)
(0.545004 0.153995 6.20466e-19)
(0.799272 0.25336 9.99727e-20)
(0.99037 0.335161 -5.46557e-19)
(1.12861 0.395211 -4.43657e-20)
(1.22396 0.434623 -5.24842e-19)
(1.28597 0.456371 3.85091e-19)
(1.32309 0.464462 -1.4006e-19)
(1.3421 0.463607 2.486e-19)
(1.34858 0.455307 -1.82539e-19)
(0.229649 0.0746283 -2.06166e-19)
(0.571536 0.202751 1.973e-19)
(0.825284 0.315574 -1.4242e-19)
(1.00923 0.401327 1.07292e-18)
(1.1373 0.459223 5.30071e-19)
(1.22194 0.493005 -1.23103e-19)
(1.27429 0.507625 4.15371e-19)
(1.30363 0.508431 -2.73528e-19)
(1.31704 0.50087 -7.66433e-20)
(1.32042 0.486697 5.02826e-19)
(0.240493 0.0975878 -3.57052e-19)
(0.587486 0.25277 4.55016e-19)
(0.836945 0.37697 -8.95419e-19)
(1.01204 0.464259 1.26004e-19)
(1.12986 0.517996 2.8217e-19)
(1.20487 0.544827 -4.31749e-19)
(1.24931 0.551686 -5.05717e-19)
(1.27287 0.545113 2.22781e-19)
(1.28266 0.531108 -2.6911e-19)
(1.28466 0.511665 3.26297e-19)
(0.246364 0.121034 -9.0189e-20)
(0.591989 0.301767 -4.6304e-19)
(0.833907 0.43475 2.55956e-19)
(0.999198 0.521188 4.31124e-19)
(1.10742 0.569107 -2.58943e-19)
(1.17444 0.588144 -1.93702e-19)
(1.21302 0.587087 -1.09108e-19)
(1.23287 0.573434 -5.38995e-20)
(1.2409 0.553533 1.01346e-20)
(1.24302 0.529642 1.17748e-19)
(0.246805 0.143808 6.67727e-20)
(0.58472 0.347323 -3.9051e-19)
(0.816473 0.486143 6.51995e-19)
(0.971727 0.569526 -3.85982e-19)
(1.07159 0.610399 1.09949e-19)
(1.13261 0.621283 -1.55411e-19)
(1.16754 0.612576 1.67553e-19)
(1.18571 0.592453 3.55796e-20)
(1.19367 0.567375 -6.81657e-20)
(1.19721 0.539955 1.33367e-19)
(0.241633 0.164659 -1.75969e-19)
(0.565921 0.387019 3.44384e-19)
(0.785563 0.528553 -1.50431e-20)
(0.931151 0.606982 -7.55911e-20)
(1.02432 0.640048 -2.02489e-19)
(1.08157 0.642879 2.59495e-20)
(1.11512 0.627163 5.34056e-20)
(1.1336 0.601422 -1.45138e-19)
(1.14312 0.571936 1.68723e-19)
(1.14929 0.541822 1.46182e-19)
(0.23097 0.182334 4.37377e-20)
(0.5364 0.418606 -8.26043e-20)
(0.742629 0.559712 2.07763e-20)
(0.879345 0.631653 2.20053e-20)
(0.96766 0.65657 6.83145e-20)
(1.02345 0.651784 -1.38471e-19)
(1.05798 0.629951 -2.95179e-19)
(1.079 0.599629 -1.21185e-19)
(1.09222 0.566584 -1.5534e-19)
(1.10262 0.534653 1.30436e-19)
(0.215259 0.195676 1.05536e-19)
(0.497491 0.440172 -1.66452e-19)
(0.689548 0.577846 1.60957e-19)
(0.818352 0.642141 -3.08539e-19)
(0.903512 0.658834 7.45103e-20)
(0.959783 0.646836 5.09219e-19)
(0.997361 0.619352 -1.5632e-19)
(1.02324 0.58468 1.84867e-19)
(1.04278 0.547973 2.71564e-19)
(1.0591 0.514988 9.8858e-19)
(0.195272 0.203747 6.73476e-19)
(0.451017 0.450334 -4.57309e-19)
(0.62858 0.581902 1.11521e-18)
(0.750342 0.637934 -1.90842e-19)
(0.833465 0.646775 9.58242e-19)
(0.891131 0.628055 6.01178e-19)
(0.932381 0.594729 -1.41183e-18)
(0.963637 0.553863 2.14501e-18)
(0.989518 0.507874 -4.53608e-19)
(1.00638 0.460974 8.93333e-19)
(0.172068 0.205893 -3.71858e-19)
(0.399244 0.448289 -2.65941e-19)
(0.562445 0.571564 2.58192e-19)
(0.677989 0.619508 -6.36432e-19)
(0.759724 0.622024 -1.98816e-18)
(0.818761 0.598995 -8.00153e-19)
(0.862752 0.563183 -7.20341e-19)
(0.89717 0.521728 3.49394e-19)
(0.92517 0.478139 2.90807e-18)
(0.942655 0.437367 -6.04729e-19)
(0.146908 0.201737 1.96458e-19)
(0.344758 0.43368 -7.95935e-19)
(0.494284 0.546805 1.74887e-19)
(0.604715 0.587157 -1.2738e-18)
(0.686109 0.585031 2.78793e-18)
(0.747344 0.559934 -3.23474e-19)
(0.794634 0.524077 1.5198e-18)
(0.832471 0.484247 -2.17623e-18)
(0.863387 0.443947 6.83091e-19)
(0.88469 0.407457 1.05753e-19)
(0.121128 0.19117 1.44904e-19)
(0.290187 0.406576 8.77532e-19)
(0.427153 0.50792 -2.57897e-18)
(0.533627 0.541249 1.25453e-18)
(0.615674 0.535995 -3.81923e-21)
(0.67993 0.510621 -4.23398e-19)
(0.731246 0.476428 5.33284e-19)
(0.773276 0.439617 -5.29534e-19)
(0.808203 0.40334 -1.8197e-18)
(0.834283 0.37085 -4.98878e-19)
(0.0960561 0.174346 4.74763e-19)
(0.238051 0.367495 5.32667e-19)
(0.36388 0.455637 2.19953e-18)
(0.46745 0.48253 -1.22372e-18)
(0.550865 0.475511 2.52224e-18)
(0.6186 0.451357 -5.43196e-19)
(0.674248 0.420138 -5.73963e-19)
(0.720733 0.387294 6.78395e-19)
(0.759964 0.355506 4.42257e-19)
(0.7909 0.327113 1.60319e-18)
(0.07295 0.151679 -4.82141e-19)
(0.190677 0.317394 1.57495e-19)
(0.307008 0.391129 4.26632e-20)
(0.40856 0.412164 1.24798e-18)
(0.49373 0.404598 -3.11499e-18)
(0.565019 0.382958 5.29311e-19)
(0.624893 0.35582 1.16814e-18)
(0.675646 0.327748 -1.41212e-18)
(0.718961 0.300904 4.97416e-19)
(0.754421 0.276889 -2.30842e-18)
(0.0529503 0.123833 1.02776e-19)
(0.150123 0.257638 5.54327e-19)
(0.258737 0.315987 2.15582e-19)
(0.358965 0.331702 2.92207e-19)
(0.445964 0.324642 5.59734e-19)
(0.520529 0.306612 1.66612e-18)
(0.584179 0.284488 -2.03973e-18)
(0.63868 0.261879 -1.14858e-18)
(0.685546 0.240437 1.90315e-19)
(0.724926 0.221189 1.49722e-18)
(0.037034 0.0916955 -6.21582e-19)
(0.118118 0.189961 -7.38717e-20)
(0.220887 0.232169 -6.19161e-19)
(0.320305 0.243029 8.82027e-20)
(0.408928 0.237337 -5.29926e-19)
(0.486205 0.223802 -6.04993e-19)
(0.552912 0.207442 -9.01499e-19)
(0.610405 0.190866 2.42883e-18)
(0.660087 0.175229 4.18895e-19)
(0.702582 0.161144 -6.38572e-19)
(0.0259744 0.0563449 3.35043e-19)
(0.0960082 0.116397 4.42778e-19)
(0.194857 0.141931 1.74356e-19)
(0.293826 0.148295 -9.41253e-19)
(0.383657 0.144615 -4.38139e-19)
(0.462863 0.136227 -9.4356e-20)
(0.531713 0.126184 1.84316e-19)
(0.591284 0.116064 1.48002e-19)
(0.642912 0.106549 -1.14401e-18)
(0.687567 0.0979555 6.56477e-19)
(0.0203074 0.0190057 -1.74483e-19)
(0.0847186 0.0392062 -1.98467e-19)
(0.181602 0.0477523 1.58155e-19)
(0.280375 0.0498474 1.40402e-19)
(0.370846 0.048576 1.43886e-19)
(0.451053 0.0457349 2.20012e-19)
(0.521005 0.0423493 -1.15869e-20)
(0.58164 0.0389466 -2.88532e-19)
(0.63426 0.0357524 2.74004e-19)
(0.680021 0.0328633 -4.12227e-19)
(0.0203074 -0.0190068 -1.75626e-19)
(0.0847187 -0.0392089 -1.89126e-19)
(0.181602 -0.0477559 1.74278e-19)
(0.280375 -0.0498514 3.41178e-19)
(0.370847 -0.0485801 2.27293e-19)
(0.451053 -0.0457388 -2.99473e-19)
(0.521005 -0.042353 -1.62685e-19)
(0.58164 -0.03895 7.09666e-20)
(0.63426 -0.0357554 1.59483e-19)
(0.680021 -0.032866 -9.49604e-20)
(0.0259745 -0.0563461 4.19092e-19)
(0.0960085 -0.1164 -5.32524e-19)
(0.194858 -0.141935 -4.4264e-20)
(0.293827 -0.148299 2.95011e-19)
(0.383657 -0.144619 -1.33358e-18)
(0.462863 -0.136231 5.6976e-19)
(0.531713 -0.126188 5.88039e-19)
(0.591284 -0.116068 -6.9414e-19)
(0.642912 -0.106552 6.62954e-19)
(0.687567 -0.0979582 -2.91037e-19)
(0.0370342 -0.0916966 -7.24642e-20)
(0.118118 -0.189964 -9.21648e-21)
(0.220887 -0.232172 -1.43802e-18)
(0.320305 -0.243033 -4.5732e-19)
(0.408929 -0.237341 -4.80813e-20)
(0.486205 -0.223806 -7.52276e-19)
(0.552913 -0.207446 1.40156e-18)
(0.610406 -0.190869 -4.93197e-20)
(0.660088 -0.175232 8.00167e-19)
(0.702582 -0.161147 -7.03377e-19)
(0.0529506 -0.123834 1.22358e-19)
(0.150124 -0.257641 -5.66178e-19)
(0.258738 -0.31599 1.74236e-18)
(0.358966 -0.331706 2.46601e-19)
(0.445964 -0.324646 1.21185e-18)
(0.520529 -0.306616 -1.18449e-18)
(0.58418 -0.284492 1.24339e-18)
(0.63868 -0.261883 -8.96506e-19)
(0.685546 -0.240439 -3.93755e-19)
(0.724926 -0.221191 3.34305e-19)
(0.0729503 -0.15168 1.09205e-18)
(0.190678 -0.317396 2.81449e-21)
(0.307009 -0.391132 -1.8355e-18)
(0.408561 -0.412168 -5.32409e-19)
(0.493731 -0.404601 1.76814e-18)
(0.56502 -0.382961 -1.036e-18)
(0.624894 -0.355824 -1.19929e-18)
(0.675647 -0.327751 1.07907e-18)
(0.718962 -0.300907 -7.34445e-19)
(0.754421 -0.276892 -1.58375e-19)
(0.0960565 -0.174347 -1.63048e-19)
(0.238052 -0.367498 -7.67245e-21)
(0.363882 -0.45564 1.99097e-18)
(0.467452 -0.482534 1.1416e-18)
(0.550866 -0.475515 -1.34608e-18)
(0.618602 -0.451361 1.62995e-18)
(0.674249 -0.420142 -1.76808e-18)
(0.720734 -0.387297 1.76104e-19)
(0.759965 -0.355509 5.26726e-19)
(0.790901 -0.327116 1.21819e-18)
(0.121129 -0.191171 1.86529e-19)
(0.290188 -0.406578 3.00175e-19)
(0.427154 -0.507923 3.26224e-19)
(0.533628 -0.541253 -1.05094e-18)
(0.615675 -0.535999 -1.87142e-18)
(0.679931 -0.510624 3.94155e-19)
(0.731247 -0.476431 1.14111e-18)
(0.773277 -0.43962 -3.26557e-19)
(0.808204 -0.403343 1.96507e-18)
(0.834284 -0.370853 -1.91573e-18)
(0.146908 -0.201738 -1.05556e-18)
(0.34476 -0.433681 4.04796e-19)
(0.494285 -0.546807 -1.0948e-18)
(0.604717 -0.58716 1.76963e-18)
(0.686111 -0.585034 8.84948e-19)
(0.747345 -0.559937 1.24943e-18)
(0.794635 -0.52408 -2.88754e-19)
(0.832472 -0.48425 1.13948e-18)
(0.863388 -0.443949 -2.41205e-18)
(0.884691 -0.40746 -6.28907e-19)
(0.172068 -0.205894 6.27132e-20)
(0.399245 -0.448291 -7.08053e-19)
(0.562446 -0.571566 -1.13166e-18)
(0.67799 -0.619511 -4.80419e-19)
(0.759726 -0.622027 -1.35716e-18)
(0.818763 -0.598998 -1.38449e-19)
(0.862753 -0.563186 1.18663e-19)
(0.897171 -0.521731 -5.29972e-19)
(0.925171 -0.478142 -5.92953e-19)
(0.942656 -0.43737 1.56339e-18)
(0.195272 -0.203747 3.32432e-19)
(0.451018 -0.450336 4.63208e-19)
(0.628582 -0.581905 8.31168e-19)
(0.750344 -0.637937 3.72864e-20)
(0.833467 -0.646778 5.55572e-19)
(0.891133 -0.628058 -7.59757e-19)
(0.932383 -0.594732 2.32105e-18)
(0.963638 -0.553866 -1.02443e-18)
(0.989519 -0.507876 -5.03685e-19)
(1.00638 -0.460977 -1.51934e-18)
(0.215259 -0.195676 -1.30586e-19)
(0.497493 -0.440174 2.27667e-19)
(0.68955 -0.577848 -2.33908e-19)
(0.818354 -0.642143 1.26801e-19)
(0.903514 -0.658837 -1.50029e-19)
(0.959785 -0.646838 -3.85421e-19)
(0.997363 -0.619354 5.06846e-19)
(1.02324 -0.584682 -1.67068e-19)
(1.04278 -0.547975 2.57254e-19)
(1.0591 -0.51499 -5.61689e-19)
(0.23097 -0.182334 -5.41574e-21)
(0.536401 -0.418607 -1.11442e-19)
(0.74263 -0.559714 2.83019e-20)
(0.879347 -0.631655 1.39933e-19)
(0.967662 -0.656573 -6.70372e-20)
(1.02345 -0.651787 1.85596e-20)
(1.05798 -0.629954 -1.66583e-20)
(1.079 -0.599631 -3.75677e-19)
(1.09222 -0.566586 -1.75672e-19)
(1.10263 -0.534656 -5.49766e-19)
(0.241634 -0.16466 -9.78089e-20)
(0.565922 -0.38702 3.45458e-19)
(0.785564 -0.528555 -2.163e-19)
(0.931153 -0.606984 -8.28195e-20)
(1.02432 -0.640051 4.35672e-20)
(1.08157 -0.642881 6.38776e-20)
(1.11512 -0.627165 -5.02313e-21)
(1.1336 -0.601425 2.80163e-19)
(1.14312 -0.571939 -2.43515e-19)
(1.14929 -0.541824 -3.04174e-21)
(0.246805 -0.143808 -2.3879e-19)
(0.58472 -0.347323 -1.50454e-19)
(0.816475 -0.486144 -3.7306e-19)
(0.971729 -0.569528 4.2476e-19)
(1.0716 -0.610401 -3.10485e-20)
(1.13262 -0.621286 1.40361e-19)
(1.16754 -0.612579 1.6165e-19)
(1.18571 -0.592456 -5.8343e-20)
(1.19367 -0.567378 4.152e-20)
(1.19721 -0.539957 -1.40017e-19)
(0.246364 -0.121034 -1.62045e-19)
(0.59199 -0.301768 -2.08114e-19)
(0.833908 -0.434751 3.1426e-19)
(0.999199 -0.52119 -4.73264e-19)
(1.10742 -0.569109 8.30632e-20)
(1.17444 -0.588147 4.23746e-20)
(1.21302 -0.587089 9.2385e-20)
(1.23287 -0.573436 -6.04524e-20)
(1.2409 -0.553535 -7.33135e-20)
(1.24302 -0.529644 -2.53129e-19)
(0.240494 -0.0975878 6.75529e-19)
(0.587486 -0.25277 -5.28406e-19)
(0.836946 -0.376971 2.45812e-20)
(1.01204 -0.464261 -6.78452e-19)
(1.12986 -0.517997 -1.97497e-19)
(1.20487 -0.544829 1.58189e-19)
(1.24931 -0.551689 1.16171e-19)
(1.27288 -0.545115 -3.87835e-19)
(1.28266 -0.531111 1.72641e-19)
(1.28466 -0.511668 -3.09747e-19)
(0.229649 -0.0746283 3.3491e-19)
(0.571536 -0.202751 -3.31413e-19)
(0.825284 -0.315575 1.19066e-18)
(1.00923 -0.401329 9.52231e-20)
(1.1373 -0.459225 2.70215e-19)
(1.22194 -0.493007 9.66263e-19)
(1.27429 -0.507627 -2.0026e-19)
(1.30363 -0.508433 4.98605e-20)
(1.31705 -0.500873 -2.77182e-20)
(1.32042 -0.486699 -5.01846e-20)
(0.21451 -0.0531627 2.58009e-19)
(0.545005 -0.153995 5.86692e-19)
(0.799273 -0.253361 -5.9848e-19)
(0.990371 -0.335162 -1.82069e-19)
(1.12862 -0.395213 -1.93045e-19)
(1.22396 -0.434625 3.79307e-19)
(1.28597 -0.456373 -1.79268e-19)
(1.3231 -0.464464 4.23283e-19)
(1.3421 -0.463609 1.02451e-19)
(1.34858 -0.455309 -1.8002e-19)
(0.195924 -0.0339995 -2.78723e-19)
(0.509232 -0.108527 2.587e-19)
(0.759913 -0.193001 -5.3135e-19)
(0.955726 -0.26858 2.22578e-19)
(1.10326 -0.328566 -2.2318e-19)
(1.2097 -0.371871 -2.65602e-19)
(1.28265 -0.399633 -2.06323e-19)
(1.32933 -0.414473 2.27751e-19)
(1.35588 -0.420225 -3.96586e-19)
(1.36733 -0.418108 2.51019e-19)
(0.174843 -0.0177222 -1.04391e-19)
(0.465939 -0.0680083 -2.04943e-19)
(0.708814 -0.136904 9.64181e-20)
(0.906284 -0.20432 7.09584e-21)
(1.06139 -0.261983 7.68059e-20)
(1.1785 -0.307147 1.10122e-19)
(1.26302 -0.339381 9.39133e-20)
(1.32063 -0.359984 -1.27033e-19)
(1.35651 -0.371836 1.03744e-19)
(1.37486 -0.375851 -1.63948e-19)
(0.152258 -0.00468048 -6.57766e-20)
(0.417114 -0.0336786 -2.6513e-20)
(0.648096 -0.087093 9.88771e-20)
(0.843723 -0.144905 -4.45895e-20)
(1.00391 -0.19815 1.24919e-19)
(1.13039 -0.243012 -1.57948e-19)
(1.22632 -0.277858 4.05387e-20)
(1.29564 -0.302831 3.4837e-20)
(1.34228 -0.319854 -1.25151e-20)
(1.36935 -0.329529 5.7247e-20)
(0.129135 0.00500055 -7.88968e-20)
(0.364867 -0.00631422 -3.34667e-19)
(0.580261 -0.0451148 -2.69886e-20)
(0.77034 -0.0925092 1.07709e-20)
(0.932494 -0.139606 -4.64697e-19)
(1.06618 -0.182088 4.90728e-20)
(1.17248 -0.217537 -5.19894e-20)
(1.25351 -0.245186 -1.41566e-19)
(1.3118 -0.266067 3.13563e-19)
(1.34912 -0.280479 -5.70578e-19)
(0.106354 0.011396 -4.47375e-20)
(0.311301 0.0137671 7.17858e-19)
(0.508024 -0.0119762 9.58237e-20)
(0.688914 -0.0488406 -6.48715e-19)
(0.849507 -0.0886012 -7.76155e-20)
(0.987512 -0.126934 -7.32108e-19)
(1.10222 -0.161043 5.69444e-19)
(1.1941 -0.189547 -2.31307e-19)
(1.26418 -0.212696 4.3838e-19)
(1.3128 -0.230496 -3.87036e-19)
(0.0846662 0.0147457 -2.53053e-19)
(0.25838 0.0266765 2.94834e-19)
(0.434136 0.0118843 -2.05986e-19)
(0.602529 -0.0150365 1.42387e-18)
(0.757904 -0.0469377 7.53991e-19)
(0.896797 -0.0798688 -1.97519e-19)
(1.01718 -0.111009 7.68088e-19)
(1.11811 -0.138654 -5.02413e-19)
(1.19925 -0.162399 -1.61846e-19)
(1.25953 -0.181913 1.16804e-18)
(0.064668 0.0154132 -4.67896e-19)
(0.207824 0.0329041 6.98809e-19)
(0.361207 0.026598 -1.32563e-18)
(0.51435 0.00841796 2.29511e-19)
(0.661007 -0.015808 5.72528e-19)
(0.797095 -0.0427565 -7.19383e-19)
(0.919776 -0.0698536 -1.27471e-18)
(1.02715 -0.0953092 6.83395e-19)
(1.11776 -0.11816 -8.89152e-19)
(1.18923 -0.137592 1.42299e-18)
(0.0467886 0.0138489 -1.15653e-19)
(0.161039 0.0332637 -7.03447e-19)
(0.291549 0.0328512 3.4723e-19)
(0.427398 0.0217582 8.69179e-19)
(0.56223 0.00437753 -4.66856e-19)
(0.691835 -0.0167418 -4.60903e-19)
(0.813089 -0.0394513 -7.81745e-19)
(0.92364 -0.0620457 -3.58311e-19)
(1.02129 -0.0830242 -8.6113e-20)
(1.10267 -0.100771 1.42189e-18)
(0.0313076 0.010564 1.94306e-19)
(0.11909 0.0288449 -9.55853e-19)
(0.227061 0.0318635 1.63541e-18)
(0.344329 0.0259969 -9.10649e-19)
(0.464779 0.0141709 5.90335e-19)
(0.584448 -0.00191869 -7.34583e-19)
(0.700396 -0.0206708 8.1823e-19)
(0.810381 -0.0405883 7.14726e-19)
(0.912035 -0.0595791 1.56162e-18)
(1.00135 -0.0746332 -2.58176e-18)
(0.0183835 0.00612032 -6.03743e-19)
(0.0827121 0.020972 1.21275e-18)
(0.169179 0.0253483 1.62677e-20)
(0.2673 0.0229455 -4.36909e-19)
(0.371401 0.0152449 -2.31916e-19)
(0.477988 0.00303944 1.85581e-19)
(0.584661 -0.0127402 -1.31758e-18)
(0.689861 -0.0309828 1.01801e-18)
(0.791805 -0.0490092 -1.31204e-18)
(0.886509 -0.0614795 -5.98766e-19)
(0.00808618 0.00112582 1.03923e-18)
(0.0523453 0.0111467 -3.2419e-19)
(0.118908 0.0154161 -6.08497e-19)
(0.19797 0.0151378 1.65278e-18)
(0.284338 0.0104309 -1.62384e-18)
(0.374957 0.00115596 9.07463e-19)
(0.468015 -0.0125988 9.6669e-19)
(0.562941 -0.0305226 2.64566e-19)
(0.659384 -0.049903 2.75126e-19)
(0.755045 -0.0620501 -3.90105e-19)
(0.000409588 -0.00379183 -9.94082e-19)
(0.0281893 0.000926027 9.45141e-19)
(0.0769405 0.00435786 -8.3654e-19)
(0.137759 0.00557971 1.04986e-18)
(0.205816 0.00359413 -3.13652e-19)
(0.278148 -0.00252273 -1.0898e-18)
(0.352918 -0.0135078 3.12504e-19)
(0.429719 -0.0303036 -5.15589e-19)
(0.509523 -0.0521766 -6.10633e-19)
(0.594678 -0.0691594 -1.90451e-18)
(-0.00475419 -0.0080709 -1.24231e-18)
(0.0102051 -0.00833689 9.87788e-19)
(0.0437541 -0.005858 -1.93582e-18)
(0.0881654 -0.00309686 3.4622e-19)
(0.138982 -0.00161235 -1.34161e-18)
(0.193101 -0.00236689 -8.04875e-19)
(0.247948 -0.00568375 1.92645e-18)
(0.301584 -0.0117831 -2.63425e-18)
(0.353363 -0.021261 5.07076e-19)
(0.400556 -0.0299775 -8.36111e-19)
(-0.00767013 -0.0113349 6.12006e-19)
(-0.00199869 -0.0157969 2.59134e-19)
(0.0193458 -0.0142504 -7.72139e-20)
(0.0502067 -0.0101976 7.35816e-19)
(0.0869006 -0.0055266 2.16122e-18)
(0.126852 -0.00119831 7.46143e-19)
(0.168052 0.00259569 7.71146e-19)
(0.209299 0.00590408 -2.66608e-19)
(0.250668 0.00806901 -2.48894e-18)
(0.289598 0.00950681 6.31084e-19)
(-0.00877521 -0.0134142 -1.72875e-19)
(-0.00929309 -0.0210502 5.50306e-19)
(0.0027178 -0.0204395 -1.44184e-19)
(0.0228512 -0.0157269 1.01804e-18)
(0.048338 -0.00908724 -2.35389e-18)
(0.0772314 -0.00168103 1.99927e-19)
(0.108102 0.00596419 -1.1207e-18)
(0.14017 0.0134407 1.6496e-18)
(0.173256 0.0197835 -4.82076e-19)
(0.2047 0.0243045 -6.89004e-20)
(-0.00858221 -0.0142966 -1.17672e-19)
(-0.0128063 -0.0239766 -6.61784e-19)
(-0.00765842 -0.0242561 1.66477e-18)
(0.00417044 -0.0195494 -8.77714e-19)
(0.0207921 -0.0122244 6.16233e-20)
(0.0407953 -0.00365778 2.81712e-19)
(0.0631395 0.00528202 -2.57652e-19)
(0.0872033 0.0138026 3.34734e-19)
(0.112571 0.0208027 1.16035e-18)
(0.13704 0.0254845 3.03738e-19)
(-0.0075804 -0.0140692 -2.64054e-19)
(-0.0136781 -0.0246425 -2.93738e-19)
(-0.0133886 -0.0256582 -1.30378e-18)
(-0.0078511 -0.0214476 6.94312e-19)
(0.00183918 -0.0144064 -1.43222e-18)
(0.01472 -0.00600831 3.2535e-19)
(0.0300314 0.00271722 3.65886e-19)
(0.047233 0.0108602 -3.86839e-19)
(0.0658059 0.0174104 -2.50335e-19)
(0.0841063 0.0216438 -1.12491e-18)
(-0.00618529 -0.0128717 2.06358e-19)
(-0.0129284 -0.023241 -4.85585e-20)
(-0.0159535 -0.0247339 9.53713e-22)
(-0.0150827 -0.0212925 -6.2674e-19)
(-0.0107357 -0.0151567 1.58657e-18)
(-0.00350586 -0.00774893 -2.4748e-19)
(0.00606218 -9.27451e-05 -6.17699e-19)
(0.0174938 0.00695767 7.56067e-19)
(0.0302517 0.0125844 -2.65749e-19)
(0.0431758 0.0161885 1.46885e-18)
(-0.00472332 -0.0108665 -3.87397e-20)
(-0.0113963 -0.0200494 -2.27111e-19)
(-0.0165981 -0.0216958 -8.96369e-20)
(-0.019099 -0.0191123 -1.14521e-19)
(-0.0187731 -0.0142164 -2.46197e-19)
(-0.0159193 -0.00824638 -7.7322e-19)
(-0.0109102 -0.00209756 9.67253e-19)
(-0.0041537 0.00352034 5.65102e-19)
(0.00383642 0.00799706 -1.01209e-19)
(0.0122683 0.0108724 -9.00956e-19)
(-0.00343566 -0.00822451 2.20012e-19)
(-0.00972413 -0.0154033 3.84288e-20)
(-0.0162885 -0.0168716 2.60188e-19)
(-0.0211171 -0.0151162 -2.98016e-20)
(-0.0236737 -0.0115993 2.36921e-19)
(-0.0240335 -0.00727299 2.6733e-19)
(-0.0224355 -0.00282359 4.00839e-19)
(-0.0192246 0.00122563 -1.13554e-18)
(-0.0148802 0.0044575 -2.09611e-19)
(-0.00993558 0.00654769 3.75648e-19)
(-0.00248992 -0.00512167 -1.11106e-19)
(-0.0083686 -0.00968315 -1.57902e-19)
(-0.0157165 -0.0106909 -7.59464e-20)
(-0.0220056 -0.00968564 3.71496e-19)
(-0.0264256 -0.00758095 1.80325e-19)
(-0.0289003 -0.00497396 3.69836e-20)
(-0.0295759 -0.00229332 -8.01808e-20)
(-0.0287484 0.000142378 -6.22069e-20)
(-0.0268679 0.00209118 5.33991e-19)
(-0.0243057 0.00336018 -3.63674e-19)
(-0.00199155 -0.00173913 5.66432e-20)
(-0.00762035 -0.00330367 7.04702e-20)
(-0.0153234 -0.00366263 -6.00851e-20)
(-0.0223164 -0.00333763 -5.49563e-20)
(-0.0276516 -0.0026391 -5.69821e-20)
(-0.0311767 -0.00177028 -9.09309e-20)
(-0.0329895 -0.000876672 2.91688e-21)
(-0.0333599 -6.50923e-05 1.26174e-19)
(-0.0327214 0.000585237 -1.267e-19)
(-0.0313679 0.00101028 2.30519e-19)
(-0.00771216 -0.00262959 1.6693e-20)
(0.0629288 -0.00663204 1.01257e-20)
(0.278793 -0.00670766 1.39258e-21)
(0.379824 -0.00436909 -9.37517e-22)
(0.481942 -0.00378177 -6.57804e-23)
(0.560512 -0.00274648 1.65107e-22)
(0.610339 -0.00236106 2.27263e-22)
(0.673231 -0.00172671 -5.52749e-23)
(0.692483 -0.00158391 -4.31493e-26)
(0.754943 -0.00119549 2.54158e-22)
(0.00911424 -0.00814781 2.63762e-20)
(0.0781942 -0.019759 1.12562e-21)
(0.290317 -0.0200629 -1.80159e-20)
(0.388589 -0.0130887 1.48324e-20)
(0.488707 -0.0112369 9.69948e-22)
(0.565747 -0.00805783 -7.29007e-22)
(0.614657 -0.00692596 9.31085e-22)
(0.676575 -0.00505184 1.26911e-22)
(0.695435 -0.00480879 4.36006e-22)
(0.757134 -0.00369093 -2.34682e-22)
(0.0424693 -0.0145466 2.71508e-20)
(0.108257 -0.0324051 -3.66474e-20)
(0.312934 -0.0329578 1.83572e-20)
(0.405797 -0.0215075 -1.23623e-20)
(0.50198 -0.0184624 9.19255e-22)
(0.576026 -0.0132161 -7.32192e-22)
(0.623144 -0.0113736 -3.64634e-22)
(0.683149 -0.00829475 1.55584e-23)
(0.70125 -0.00796553 -3.43543e-22)
(0.761421 -0.00614182 -3.43748e-22)
(0.0917466 -0.0223043 -4.184e-20)
(0.152191 -0.0442706 -5.06463e-20)
(0.345808 -0.0451062 -2.36837e-20)
(0.430843 -0.0294419 1.2718e-20)
(0.521307 -0.025317 -1.59971e-20)
(0.591036 -0.0181274 4.47937e-21)
(0.635567 -0.0156311 -2.94747e-22)
(0.692809 -0.0114041 2.39653e-22)
(0.70982 -0.0110106 -3.67189e-22)
(0.767783 -0.00851934 1.26401e-22)
(0.156007 -0.0316932 1.16174e-19)
(0.208664 -0.0550678 7.37333e-20)
(0.38774 -0.0562432 2.66394e-20)
(0.462851 -0.0367292 -2.48666e-20)
(0.546027 -0.0316753 1.31448e-20)
(0.610301 -0.0227083 3.66065e-21)
(0.651555 -0.019633 2.98938e-21)
(0.70529 -0.014334 4.38403e-22)
(0.720931 -0.0139047 9.28294e-22)
(0.776065 -0.010797 -6.72036e-22)
(0.23396 -0.0426398 -5.1531e-20)
(0.275989 -0.0644812 3.90143e-20)
(0.437238 -0.0661146 4.86588e-21)
(0.500736 -0.0432257 2.79561e-20)
(0.575324 -0.0374291 -6.44338e-21)
(0.633237 -0.0268879 -4.36543e-21)
(0.67066 -0.0233229 -3.07141e-21)
(0.720279 -0.0170445 -3.61066e-22)
(0.734334 -0.0166123 -4.25587e-22)
(0.786117 -0.0129503 6.94965e-22)
(0.323966 -0.0548623 -3.88469e-20)
(0.35219 -0.0722456 -1.02306e-19)
(0.492591 -0.0745164 -1.74905e-20)
(0.543256 -0.0488151 -1.53591e-20)
(0.608269 -0.0424944 7.68232e-21)
(0.659174 -0.0306104 -2.24371e-21)
(0.692359 -0.0266554 3.09634e-21)
(0.737408 -0.0195033 7.24191e-22)
(0.749729 -0.0191038 -1.2204e-22)
(0.797748 -0.0149573 2.68357e-22)