1.45 	0 	0 	0.162584 	-0.0133557 	2.87247e-21
2.35 	0 	0 	0.477043 	-0.013504 	-7.19848e-22
