1.45 	0 	0 	-0.29169
2.35 	0 	0 	-0.127011
