1.275 	2.15223e-18 	-2.76991e-20 	-0.0344621 	-0.000434584 	-1.90998e-22
1.825 	2.15223e-18 	-1.39322e-20 	-0.00946184 	-0.00275362 	1.68727e-21
2.375 	2.15223e-18 	-2.66896e-23 	0.115317 	-0.00323914 	-7.03803e-22
