1.45 	0 	0 	-0.307214
2.35 	0 	0 	-0.130044
