1.275 	2.15223e-18 	-2.76991e-20 	0.797657 	-0.00712146 	-8.16912e-23
1.825 	2.15223e-18 	-1.39322e-20 	0.889227 	-0.0028328 	1.40382e-22
2.375 	2.15223e-18 	-2.66896e-23 	0.942397 	-0.00124573 	-2.06918e-22
