1.45 	0 	0 	-0.209868
2.35 	0 	0 	0.00726377
