/*--------------------------------*- C++ -*----------------------------------*\
  =========                 |
  \\      /  F ield         | OpenFOAM: The Open Source CFD Toolbox
   \\    /   O peration     | Website:  https://openfoam.org
    \\  /    A nd           | Version:  6.0
     \\/     M anipulation  |
\*---------------------------------------------------------------------------*/
FoamFile
{
    version     2.0;
    format      ascii;
    class       volScalarField;
    location    "23";
    object      p;
}
// * * * * * * * * * * * * * * * * * * * * * * * * * * * * * * * * * * * * * //

dimensions      [0 2 -2 0 0 0 0];

internalField   nonuniform List<scalar> 
8000
(
-0.316922
-0.321187
-0.323683
-0.32515
-0.326026
-0.326387
-0.32631
-0.325878
-0.325157
-0.3242
-0.323054
-0.321759
-0.320348
-0.318851
-0.317292
-0.315696
-0.31408
-0.31243
-0.310747
-0.309355
-0.317584
-0.321801
-0.324257
-0.325685
-0.326523
-0.326846
-0.326732
-0.326264
-0.325508
-0.324517
-0.323338
-0.32201
-0.320567
-0.319039
-0.31745
-0.315827
-0.314185
-0.31251
-0.310802
-0.309399
-0.318909
-0.323032
-0.325406
-0.326757
-0.327517
-0.327764
-0.327577
-0.327036
-0.326209
-0.325149
-0.323903
-0.322509
-0.321002
-0.319412
-0.317764
-0.316084
-0.31439
-0.312664
-0.310904
-0.309483
-0.320902
-0.324881
-0.327131
-0.328364
-0.329008
-0.329141
-0.328841
-0.328192
-0.327258
-0.326094
-0.324746
-0.323253
-0.321649
-0.319964
-0.318226
-0.31646
-0.314686
-0.312881
-0.311044
-0.309595
-0.323568
-0.327352
-0.329434
-0.330509
-0.330996
-0.330974
-0.330525
-0.32973
-0.328653
-0.327349
-0.325864
-0.324236
-0.322501
-0.320689
-0.318827
-0.316944
-0.315059
-0.313147
-0.311203
-0.309721
-0.326918
-0.33045
-0.332318
-0.333192
-0.33348
-0.333264
-0.332626
-0.331646
-0.33039
-0.32891
-0.327251
-0.325454
-0.323551
-0.321575
-0.319554
-0.31752
-0.315492
-0.31344
-0.311359
-0.309837
-0.330962
-0.334182
-0.335785
-0.336413
-0.336458
-0.336007
-0.335141
-0.333939
-0.332466
-0.330773
-0.328905
-0.326899
-0.324791
-0.322613
-0.320396
-0.318172
-0.315965
-0.313734
-0.311481
-0.309916
-0.335713
-0.338554
-0.339839
-0.340173
-0.339931
-0.339201
-0.338067
-0.336606
-0.334879
-0.332936
-0.33082
-0.328568
-0.326216
-0.323795
-0.321338
-0.318882
-0.316452
-0.314001
-0.311535
-0.309922
-0.341186
-0.343572
-0.34448
-0.344471
-0.343894
-0.342845
-0.341403
-0.339644
-0.337627
-0.335397
-0.332996
-0.330459
-0.327821
-0.325112
-0.322368
-0.319632
-0.31693
-0.314205
-0.311476
-0.309808
-0.347395
-0.349241
-0.34971
-0.349303
-0.348346
-0.346932
-0.345144
-0.343051
-0.340708
-0.338157
-0.335435
-0.332574
-0.329606
-0.326562
-0.32348
-0.320406
-0.317372
-0.314307
-0.311252
-0.309516
-0.354353
-0.355565
-0.355525
-0.354666
-0.353278
-0.351459
-0.349286
-0.346825
-0.344124
-0.341219
-0.338142
-0.334919
-0.331578
-0.328149
-0.324669
-0.321192
-0.317752
-0.314265
-0.310799
-0.308968
-0.362069
-0.362542
-0.361919
-0.360551
-0.358683
-0.356416
-0.353823
-0.350963
-0.347876
-0.34459
-0.341127
-0.337508
-0.333752
-0.329885
-0.325944
-0.321985
-0.318048
-0.314032
-0.310038
-0.308064
-0.370543
-0.370163
-0.368879
-0.366944
-0.364548
-0.361793
-0.358748
-0.355463
-0.351966
-0.348277
-0.344407
-0.340363
-0.336155
-0.3318
-0.327326
-0.322795
-0.318247
-0.313561
-0.308874
-0.306669
-0.379766
-0.378412
-0.376388
-0.373826
-0.370855
-0.367575
-0.36405
-0.360319
-0.356398
-0.352294
-0.348003
-0.343518
-0.338831
-0.333941
-0.328865
-0.323659
-0.318361
-0.312814
-0.307196
-0.304601
-0.389713
-0.387261
-0.384417
-0.381173
-0.37758
-0.373742
-0.369715
-0.365524
-0.361175
-0.356656
-0.351947
-0.34702
-0.341843
-0.336389
-0.330649
-0.324658
-0.318439
-0.311775
-0.304864
-0.301597
-0.400344
-0.396673
-0.392932
-0.38895
-0.384697
-0.380272
-0.375726
-0.37107
-0.366297
-0.361379
-0.356276
-0.350934
-0.34529
-0.339274
-0.332832
-0.325957
-0.318623
-0.310501
-0.301758
-0.297352
-0.411597
-0.406595
-0.401886
-0.39712
-0.392169
-0.387135
-0.382059
-0.376943
-0.371765
-0.366483
-0.361038
-0.355347
-0.349308
-0.3428
-0.335695
-0.32791
-0.319326
-0.309403
-0.298109
-0.291759
-0.423393
-0.416964
-0.411227
-0.405636
-0.399959
-0.394296
-0.388688
-0.383123
-0.377572
-0.371984
-0.36628
-0.360356
-0.35407
-0.347236
-0.339632
-0.331056
-0.321247
-0.309237
-0.294148
-0.283739
-0.435635
-0.427706
-0.420894
-0.414446
-0.40802
-0.401719
-0.395579
-0.389586
-0.383706
-0.377887
-0.372045
-0.366062
-0.359765
-0.352899
-0.345107
-0.335984
-0.324902
-0.309753
-0.287194
-0.267027
-0.448214
-0.438738
-0.430822
-0.423496
-0.416306
-0.40936
-0.402694
-0.396295
-0.390138
-0.384181
-0.378365
-0.372595
-0.366727
-0.360518
-0.35358
-0.345359
-0.334683
-0.317732
-0.288037
-0.257683
-0.461015
-0.449975
-0.440943
-0.432728
-0.424768
-0.417173
-0.409985
-0.403197
-0.396797
-0.390779
-0.385133
-0.379859
-0.37497
-0.370504
-0.366582
-0.363492
-0.361534
-0.360905
-0.365475
-0.390291
-0.473923
-0.46133
-0.451186
-0.442087
-0.433355
-0.425111
-0.417399
-0.410215
-0.403566
-0.397469
-0.391957
-0.387092
-0.382975
-0.379774
-0.37778
-0.377428
-0.379157
-0.383829
-0.39614
-0.423445
-0.486826
-0.47272
-0.461487
-0.451515
-0.442022
-0.433131
-0.424889
-0.417295
-0.410363
-0.404124
-0.398636
-0.393983
-0.390298
-0.387772
-0.386692
-0.387417
-0.390237
-0.395788
-0.407345
-0.427615
-0.499625
-0.484063
-0.471778
-0.460961
-0.450724
-0.441194
-0.43242
-0.424396
-0.41714
-0.410687
-0.405097
-0.400461
-0.396904
-0.394597
-0.393771
-0.39467
-0.397433
-0.402462
-0.412033
-0.426532
-0.512229
-0.495283
-0.481997
-0.47037
-0.459416
-0.449263
-0.439957
-0.431487
-0.423863
-0.417118
-0.411304
-0.406496
-0.402794
-0.400324
-0.399239
-0.399669
-0.401618
-0.405329
-0.412523
-0.422432
-0.524556
-0.506306
-0.492076
-0.479684
-0.468047
-0.457291
-0.447457
-0.438524
-0.430492
-0.423381
-0.417226
-0.412077
-0.408
-0.40507
-0.403366
-0.402925
-0.403661
-0.405728
-0.410519
-0.416591
-0.536525
-0.517054
-0.501944
-0.488837
-0.476555
-0.465221
-0.454865
-0.445454
-0.436973
-0.429424
-0.422821
-0.417188
-0.412551
-0.408939
-0.406374
-0.404827
-0.40416
-0.404493
-0.40699
-0.409794
-0.548055
-0.527445
-0.511521
-0.497752
-0.484867
-0.472979
-0.462108
-0.452203
-0.443232
-0.435178
-0.428033
-0.421791
-0.416448
-0.411993
-0.408406
-0.405617
-0.40347
-0.402072
-0.402407
-0.402388
-0.559054
-0.537386
-0.520716
-0.506341
-0.492893
-0.480477
-0.469095
-0.458678
-0.449177
-0.440555
-0.432783
-0.42583
-0.419666
-0.414253
-0.409543
-0.405444
-0.401801
-0.398721
-0.397031
-0.394557
-0.569421
-0.546774
-0.529426
-0.514499
-0.50053
-0.487606
-0.475716
-0.464769
-0.454698
-0.445451
-0.436978
-0.429231
-0.422159
-0.415709
-0.409817
-0.404385
-0.399272
-0.394585
-0.39101
-0.386403
-0.579036
-0.555492
-0.537533
-0.522108
-0.507656
-0.494246
-0.481846
-0.470349
-0.459672
-0.449746
-0.440509
-0.431901
-0.42386
-0.416324
-0.409226
-0.40247
-0.395937
-0.389734
-0.38442
-0.377968
-0.587764
-0.563406
-0.544907
-0.529038
-0.514139
-0.500259
-0.487348
-0.475281
-0.463961
-0.45331
-0.443259
-0.433739
-0.424688
-0.416042
-0.407737
-0.39969
-0.391804
-0.384188
-0.377282
-0.36925
-0.595453
-0.570372
-0.551402
-0.535142
-0.519832
-0.505497
-0.49207
-0.479413
-0.467419
-0.456005
-0.445099
-0.434633
-0.424549
-0.414789
-0.405298
-0.39601
-0.386853
-0.377931
-0.369583
-0.360213
-0.601937
-0.576229
-0.556864
-0.540265
-0.524577
-0.509801
-0.495855
-0.482589
-0.469894
-0.457686
-0.445896
-0.434464
-0.423341
-0.41248
-0.401841
-0.391376
-0.381038
-0.370923
-0.361281
-0.350795
-0.607036
-0.580809
-0.561126
-0.544241
-0.528208
-0.513004
-0.498536
-0.484647
-0.471228
-0.458204
-0.445513
-0.43311
-0.420956
-0.409023
-0.397287
-0.385718
-0.374296
-0.363103
-0.352314
-0.340915
-0.61056
-0.583933
-0.564015
-0.546899
-0.530553
-0.514936
-0.499943
-0.48542
-0.471263
-0.457409
-0.443813
-0.430445
-0.417285
-0.404322
-0.39155
-0.378962
-0.366556
-0.354401
-0.342606
-0.330478
-0.612316
-0.585418
-0.565352
-0.54806
-0.531436
-0.515421
-0.499905
-0.484742
-0.469841
-0.455155
-0.44066
-0.426347
-0.412217
-0.398278
-0.384543
-0.371025
-0.357739
-0.344738
-0.332075
-0.319385
-0.612107
-0.58508
-0.564957
-0.547547
-0.530681
-0.514284
-0.498253
-0.48245
-0.466807
-0.451298
-0.435923
-0.420698
-0.405646
-0.390796
-0.376179
-0.361826
-0.347768
-0.334036
-0.320636
-0.307534
-0.609739
-0.582733
-0.56265
-0.545182
-0.528111
-0.511355
-0.494819
-0.478386
-0.462012
-0.4457
-0.429477
-0.413385
-0.397472
-0.381787
-0.366377
-0.351289
-0.336566
-0.322217
-0.308208
-0.294831
-0.605024
-0.5782
-0.558256
-0.540791
-0.523556
-0.506468
-0.489446
-0.472399
-0.455317
-0.438233
-0.421207
-0.404307
-0.387605
-0.371168
-0.355061
-0.339342
-0.324065
-0.309212
-0.294714
-0.281186
-0.597784
-0.571309
-0.551607
-0.53421
-0.516856
-0.499466
-0.481983
-0.464351
-0.446594
-0.428784
-0.411012
-0.393373
-0.375964
-0.35887
-0.342167
-0.325927
-0.310206
-0.294959
-0.280089
-0.266523
-0.587848
-0.561895
-0.542541
-0.525279
-0.507855
-0.490201
-0.472292
-0.454113
-0.43573
-0.417251
-0.398802
-0.380508
-0.362485
-0.344835
-0.327644
-0.310992
-0.294939
-0.27941
-0.264277
-0.250776
-0.575068
-0.549815
-0.530916
-0.513859
-0.496417
-0.478544
-0.460255
-0.441578
-0.422627
-0.40355
-0.384507
-0.365651
-0.347116
-0.329019
-0.311453
-0.294505
-0.278231
-0.262527
-0.247239
-0.233896
-0.559313
-0.53494
-0.516605
-0.499823
-0.482422
-0.464384
-0.445767
-0.426656
-0.407209
-0.387618
-0.368076
-0.348762
-0.329827
-0.311398
-0.293574
-0.276443
-0.260062
-0.244291
-0.228949
-0.215849
-0.540478
-0.517162
-0.499499
-0.483067
-0.465771
-0.447628
-0.42875
-0.409277
-0.38942
-0.369412
-0.349478
-0.329819
-0.310603
-0.291962
-0.274
-0.256805
-0.240427
-0.224694
-0.209395
-0.196614
-0.518478
-0.496397
-0.479514
-0.463508
-0.446385
-0.428207
-0.409145
-0.389398
-0.369228
-0.348911
-0.328702
-0.308821
-0.28945
-0.270724
-0.252746
-0.235603
-0.21934
-0.203748
-0.188584
-0.17619
-0.49326
-0.472585
-0.456589
-0.441087
-0.424213
-0.40608
-0.38692
-0.366997
-0.346625
-0.326119
-0.305762
-0.285791
-0.266394
-0.247712
-0.229843
-0.21287
-0.19683
-0.181481
-0.16654
-0.154591
-0.464798
-0.445697
-0.430691
-0.415774
-0.39923
-0.381229
-0.36207
-0.342082
-0.321629
-0.301064
-0.280693
-0.260769
-0.241484
-0.222978
-0.205342
-0.188656
-0.172947
-0.157938
-0.143304
-0.131849
-0.4331
-0.415731
-0.401818
-0.387568
-0.37144
-0.353668
-0.334619
-0.314686
-0.294284
-0.273798
-0.253557
-0.233822
-0.214789
-0.196591
-0.179315
-0.163031
-0.147758
-0.133186
-0.118935
-0.108013
-0.398203
-0.382719
-0.369996
-0.356498
-0.340878
-0.323438
-0.304617
-0.28487
-0.264658
-0.244398
-0.224435
-0.205036
-0.186396
-0.168642
-0.151851
-0.136084
-0.121352
-0.10731
-0.0935156
-0.0831539
-0.360181
-0.346723
-0.335284
-0.322623
-0.307609
-0.290613
-0.272144
-0.25272
-0.232847
-0.212965
-0.193432
-0.174519
-0.156417
-0.139242
-0.123061
-0.107926
-0.0938376
-0.0804168
-0.06715
-0.0573656
-0.31914
-0.307839
-0.297775
-0.286037
-0.271727
-0.255291
-0.237307
-0.218352
-0.198968
-0.17962
-0.160673
-0.142398
-0.124978
-0.10852
-0.0930758
-0.0786869
-0.0653459
-0.0526403
-0.0399701
-0.0307693
-0.275222
-0.266197
-0.257592
-0.246862
-0.23336
-0.217605
-0.200242
-0.181902
-0.163163
-0.144506
-0.126302
-0.108817
-0.0922246
-0.0766202
-0.0620418
-0.0485174
-0.0360314
-0.0241395
-0.0121392
-0.00352032
-0.228602
-0.22196
-0.214893
-0.205254
-0.192664
-0.177712
-0.161106
-0.143531
-0.125592
-0.107782
-0.0904751
-0.0739306
-0.058312
-0.0437009
-0.0301204
-0.0175851
-0.00607094
0.00489617
0.0161395
0.0241829
-0.17949
-0.175322
-0.169865
-0.1614
-0.149823
-0.135795
-0.120085
-0.103419
-0.0864304
-0.0696203
-0.0533603
-0.0379033
-0.023402
-0.00992504
0.00251902
0.0139292
0.0243367
0.0342414
0.0446093
0.052078
-0.128127
-0.126512
-0.122728
-0.115513
-0.105049
-0.0920644
-0.0773803
-0.0617652
-0.0458697
-0.0302018
-0.0151298
-0.000899053
0.0123472
0.0245504
0.0357136
0.0458468
0.0549842
0.0636424
0.0729544
0.0798169
-0.0747861
-0.0757849
-0.0737296
-0.067837
-0.0585802
-0.0467512
-0.0332178
-0.0187827
-0.00411152
0.0102856
0.0240442
0.0369255
0.0487927
0.0595922
0.0693318
0.078027
0.0857072
0.0928827
0.100852
0.106972
-0.0197706
-0.0234273
-0.0231457
-0.01864
-0.0106782
-0.000108704
0.0121604
0.0252989
0.0386317
0.0516491
0.0639915
0.0754245
0.0858127
0.0950987
0.103283
0.110376
0.116393
0.121761
0.127808
0.132709
0.0365908
0.0302505
0.0287242
0.031786
0.0383739
0.0475899
0.0584939
0.0702357
0.0821362
0.0936904
0.104545
0.114467
0.123317
0.131017
0.137535
0.142851
0.146906
0.14978
0.152356
0.15453
0.0939444
0.0849146
0.0815579
0.083128
0.0882726
0.0960525
0.105504
0.115766
0.126163
0.1362
0.145536
0.153946
0.161286
0.167461
0.172393
0.17602
0.178115
0.177901
0.175011
0.172605
0.151914
0.14021
0.135013
0.135054
0.138696
0.144969
0.152894
0.161608
0.170447
0.178935
0.186753
0.193701
0.199663
0.20457
0.208405
0.211237
0.212966
0.212284
0.208263
0.21374
0.210131
0.19578
0.188743
0.187225
0.189315
0.194019
0.200353
0.207459
0.21469
0.221595
0.227883
0.233381
0.238006
0.241733
0.244603
0.246774
0.248273
0.248204
0.246598
0.25439
0.268196
0.251248
0.242381
0.239286
0.239785
0.24287
0.247559
0.253004
0.258581
0.263866
0.268591
0.272611
0.275866
0.278356
0.280144
0.281395
0.282139
0.281666
0.280236
0.287087
0.325712
0.306231
0.29556
0.290879
0.289761
0.291188
0.29419
0.297933
0.301817
0.305445
0.308574
0.311079
0.312919
0.314106
0.314713
0.314894
0.314668
0.313406
0.311386
0.316624
0.38228
0.360349
0.347909
0.341646
0.338898
0.338644
0.339929
0.341941
0.344104
0.346048
0.347553
0.348512
0.348894
0.348721
0.348065
0.347065
0.345727
0.343488
0.340644
0.344246
0.437512
0.413224
0.399062
0.391235
0.386855
0.384912
0.384468
0.384735
0.385165
0.385413
0.385281
0.384675
0.383576
0.382007
0.380039
0.377794
0.375268
0.371963
0.368195
0.370183
0.491025
0.464487
0.448661
0.439297
0.433302
0.429677
0.42751
0.426036
0.424739
0.423297
0.421532
0.419364
0.416781
0.41381
0.410516
0.407008
0.403276
0.398883
0.394165
0.394566
0.542447
0.513778
0.496354
0.485496
0.477918
0.472636
0.468769
0.46558
0.46258
0.459474
0.456101
0.452396
0.448351
0.443995
0.43939
0.434634
0.429713
0.424253
0.418592
0.417453
0.591424
0.560749
0.541808
0.529509
0.520394
0.5135
0.507977
0.503116
0.498459
0.493734
0.4888
0.483601
0.478136
0.472436
0.466561
0.460595
0.454527
0.448041
0.441466
0.438846
0.637616
0.605071
0.584699
0.571027
0.560438
0.551995
0.544878
0.538409
0.53216
0.525882
0.519451
0.512822
0.505999
0.499015
0.491926
0.484808
0.477652
0.470196
0.462748
0.458719
0.680702
0.646431
0.624725
0.609761
0.597776
0.587862
0.579232
0.571239
0.563481
0.555734
0.547888
0.539909
0.531806
0.523614
0.515384
0.507185
0.499012
0.490652
0.482384
0.47703
0.720385
0.684537
0.661604
0.645438
0.632152
0.620863
0.610818
0.601401
0.592236
0.583119
0.573958
0.564724
0.555433
0.54612
0.536835
0.527638
0.518529
0.509338
0.50031
0.493727
0.756389
0.719122
0.695074
0.67781
0.663329
0.650777
0.639433
0.628707
0.618251
0.607881
0.597515
0.587136
0.576762
0.566428
0.556182
0.546078
0.53612
0.52618
0.516459
0.508753
0.788462
0.749939
0.724899
0.70665
0.691094
0.677404
0.66489
0.652988
0.641372
0.629876
0.618431
0.607026
0.595682
0.584436
0.573333
0.562421
0.551709
0.541102
0.530763
0.522051
0.816383
0.776772
0.750868
0.731755
0.715256
0.700568
0.687025
0.674091
0.661458
0.648976
0.636587
0.624285
0.612095
0.600054
0.588204
0.576589
0.565221
0.554037
0.543157
0.533566
0.839955
0.79943
0.772796
0.752952
0.735651
0.720112
0.705696
0.691884
0.678388
0.665069
0.65188
0.638819
0.625913
0.613199
0.600719
0.588511
0.57659
0.56492
0.553584
0.543246
0.859015
0.817753
0.790529
0.77009
0.752137
0.735907
0.72078
0.706255
0.692058
0.678061
0.664222
0.650546
0.63706
0.623803
0.610812
0.598125
0.585758
0.573697
0.561991
0.551046
0.873428
0.83161
0.80394
0.78305
0.764602
0.747847
0.73218
0.717114
0.702384
0.687873
0.673542
0.6594
0.645476
0.631807
0.618431
0.605381
0.592678
0.58032
0.568335
0.556931
0.883093
0.840903
0.812933
0.791741
0.77296
0.755851
0.739822
0.724392
0.709304
0.694447
0.679786
0.665331
0.651113
0.637168
0.623533
0.61024
0.597311
0.584756
0.572583
0.56087
0.887942
0.845566
0.817446
0.796102
0.777153
0.759867
0.743655
0.728042
0.712775
0.697744
0.682917
0.668305
0.653939
0.639856
0.626091
0.612676
0.599635
0.58698
0.574712
0.562844
0.887942
0.845566
0.817446
0.796101
0.777153
0.759867
0.743655
0.728042
0.712775
0.697744
0.682917
0.668305
0.653939
0.639856
0.626091
0.612676
0.599635
0.58698
0.574712
0.562844
0.883093
0.840903
0.812933
0.791741
0.77296
0.755851
0.739822
0.724392
0.709304
0.694447
0.679786
0.665331
0.651113
0.637168
0.623533
0.61024
0.597311
0.584756
0.572583
0.56087
0.873427
0.83161
0.803939
0.78305
0.764602
0.747846
0.73218
0.717114
0.702384
0.687873
0.673542
0.6594
0.645476
0.631807
0.618431
0.605381
0.592678
0.58032
0.568335
0.556931
0.859014
0.817752
0.790528
0.77009
0.752137
0.735907
0.72078
0.706255
0.692057
0.67806
0.664222
0.650545
0.63706
0.623803
0.610812
0.598125
0.585758
0.573697
0.561991
0.551046
0.839955
0.79943
0.772796
0.752951
0.73565
0.720111
0.705695
0.691884
0.678387
0.665069
0.651879
0.638818
0.625913
0.613199
0.600719
0.588511
0.57659
0.56492
0.553584
0.543246
0.816382
0.776771
0.750867
0.731755
0.715256
0.700567
0.687025
0.674091
0.661458
0.648976
0.636586
0.624285
0.612095
0.600054
0.588204
0.576589
0.565221
0.554037
0.543157
0.533566
0.788461
0.749938
0.724898
0.706649
0.691093
0.677403
0.664889
0.652987
0.641372
0.629876
0.61843
0.607025
0.595682
0.584436
0.573333
0.562421
0.551709
0.541102
0.530763
0.522051
0.756387
0.71912
0.695073
0.677809
0.663328
0.650776
0.639432
0.628707
0.618251
0.607881
0.597515
0.587136
0.576761
0.566428
0.556182
0.546078
0.53612
0.52618
0.516459
0.508753
0.720384
0.684536
0.661603
0.645437
0.632151
0.620862
0.610817
0.6014
0.592235
0.583119
0.573957
0.564724
0.555433
0.54612
0.536835
0.527638
0.518528
0.509338
0.50031
0.493727
0.680701
0.646429
0.624724
0.609759
0.597775
0.587861
0.579231
0.571238
0.56348
0.555733
0.547888
0.539909
0.531806
0.523613
0.515384
0.507185
0.499012
0.490652
0.482384
0.47703
0.637614
0.605069
0.584697
0.571026
0.560437
0.551994
0.544877
0.538408
0.532159
0.525882
0.519451
0.512821
0.505999
0.499015
0.491926
0.484808
0.477652
0.470196
0.462748
0.458719
0.591422
0.560747
0.541806
0.529508
0.520392
0.513499
0.507976
0.503115
0.498458
0.493734
0.4888
0.483601
0.478136
0.472436
0.466561
0.460595
0.454527
0.448041
0.441466
0.438846
0.542446
0.513776
0.496353
0.485495
0.477916
0.472635
0.468768
0.465579
0.462579
0.459473
0.456101
0.452395
0.44835
0.443994
0.43939
0.434634
0.429713
0.424253
0.418592
0.417453
0.491023
0.464485
0.448659
0.439295
0.433301
0.429676
0.427509
0.426035
0.424738
0.423296
0.421531
0.419364
0.416781
0.413809
0.410516
0.407008
0.403276
0.398883
0.394164
0.394566
0.43751
0.413222
0.39906
0.391233
0.386854
0.38491
0.384467
0.384734
0.385164
0.385412
0.38528
0.384674
0.383575
0.382006
0.380039
0.377794
0.375268
0.371962
0.368195
0.370183
0.382278
0.360347
0.347907
0.341645
0.338896
0.338642
0.339928
0.341939
0.344103
0.346047
0.347553
0.348511
0.348894
0.348721
0.348065
0.347065
0.345727
0.343488
0.340644
0.344246
0.32571
0.306229
0.295558
0.290877
0.289759
0.291187
0.294189
0.297932
0.301816
0.305444
0.308573
0.311079
0.312918
0.314105
0.314713
0.314894
0.314668
0.313406
0.311386
0.316623
0.268194
0.251246
0.242379
0.239284
0.239784
0.242868
0.247558
0.253003
0.25858
0.263865
0.26859
0.272611
0.275866
0.278355
0.280144
0.281395
0.282139
0.281665
0.280236
0.287087
0.210129
0.195778
0.188741
0.187223
0.189313
0.194017
0.200352
0.207457
0.214688
0.221594
0.227882
0.23338
0.238006
0.241732
0.244603
0.246774
0.248272
0.248204
0.246598
0.25439
0.151912
0.140208
0.135011
0.135052
0.138694
0.144967
0.152893
0.161607
0.170446
0.178934
0.186752
0.193701
0.199662
0.20457
0.208404
0.211237
0.212966
0.212284
0.208263
0.21374
0.0939423
0.0849125
0.0815559
0.0831261
0.0882708
0.0960508
0.105503
0.115765
0.126162
0.136199
0.145535
0.153945
0.161286
0.16746
0.172393
0.17602
0.178115
0.1779
0.17501
0.172605
0.0365887
0.0302484
0.0287222
0.0317841
0.0383721
0.0475883
0.0584924
0.0702343
0.082135
0.0936893
0.104544
0.114466
0.123316
0.131017
0.137535
0.142851
0.146906
0.14978
0.152355
0.15453
-0.0197727
-0.0234294
-0.0231478
-0.018642
-0.01068
-0.000110387
0.0121589
0.0252975
0.0386304
0.0516479
0.0639905
0.0754236
0.0858119
0.0950981
0.103282
0.110376
0.116392
0.12176
0.127808
0.132709
-0.0747882
-0.075787
-0.0737317
-0.0678389
-0.0585821
-0.0467529
-0.0332193
-0.0187842
-0.00411285
0.0102844
0.0240432
0.0369246
0.0487919
0.0595915
0.0693313
0.0780266
0.0857068
0.0928824
0.100851
0.106972
-0.128129
-0.126514
-0.12273
-0.115515
-0.105051
-0.0920662
-0.0773819
-0.0617667
-0.0458711
-0.030203
-0.0151309
-0.000900025
0.0123463
0.0245497
0.0357129
0.0458463
0.0549837
0.063642
0.0729541
0.0798166
-0.179492
-0.175324
-0.169867
-0.161402
-0.149824
-0.135797
-0.120086
-0.103421
-0.0864318
-0.0696216
-0.0533615
-0.0379044
-0.0234029
-0.00992583
0.00251833
0.0139286
0.0243362
0.034241
0.0446089
0.0520777
-0.228604
-0.221962
-0.214895
-0.205257
-0.192666
-0.177714
-0.161108
-0.143533
-0.125593
-0.107784
-0.0904764
-0.0739317
-0.0583129
-0.0437018
-0.0301212
-0.0175858
-0.00607152
0.00489567
0.0161391
0.0241825
-0.275224
-0.266199
-0.257595
-0.246864
-0.233362
-0.217607
-0.200243
-0.181904
-0.163165
-0.144508
-0.126303
-0.108818
-0.0922256
-0.0766212
-0.0620426
-0.0485182
-0.036032
-0.0241401
-0.0121397
-0.00352076
-0.319142
-0.307841
-0.297777
-0.286039
-0.271729
-0.255293
-0.237309
-0.218354
-0.19897
-0.179621
-0.160675
-0.1424
-0.124979
-0.108521
-0.0930767
-0.0786877
-0.0653466
-0.0526409
-0.0399706
-0.0307698
-0.360183
-0.346725
-0.335287
-0.322626
-0.307611
-0.290615
-0.272146
-0.252722
-0.232848
-0.212966
-0.193433
-0.174521
-0.156418
-0.139243
-0.123062
-0.107927
-0.0938384
-0.0804175
-0.0671507
-0.0573661
-0.398205
-0.382721
-0.369998
-0.3565
-0.34088
-0.323441
-0.304619
-0.284871
-0.26466
-0.2444
-0.224436
-0.205037
-0.186397
-0.168643
-0.151852
-0.136085
-0.121353
-0.10731
-0.0935163
-0.0831545
-0.433102
-0.415734
-0.40182
-0.387571
-0.371442
-0.35367
-0.334621
-0.314688
-0.294285
-0.2738
-0.253558
-0.233823
-0.21479
-0.196592
-0.179316
-0.163032
-0.147759
-0.133187
-0.118936
-0.108013
-0.464801
-0.445699
-0.430694
-0.415777
-0.399232
-0.381231
-0.362073
-0.342084
-0.321631
-0.301066
-0.280695
-0.26077
-0.241486
-0.222979
-0.205344
-0.188657
-0.172948
-0.157939
-0.143304
-0.13185
-0.493262
-0.472587
-0.456591
-0.441089
-0.424215
-0.406082
-0.386922
-0.366999
-0.346627
-0.326121
-0.305763
-0.285792
-0.266396
-0.247714
-0.229844
-0.212871
-0.196831
-0.181482
-0.166541
-0.154592
-0.518481
-0.496399
-0.479516
-0.46351
-0.446387
-0.42821
-0.409147
-0.3894
-0.36923
-0.348913
-0.328704
-0.308823
-0.289451
-0.270725
-0.252747
-0.235605
-0.219341
-0.203749
-0.188585
-0.176191
-0.54048
-0.517164
-0.499502
-0.48307
-0.465773
-0.44763
-0.428752
-0.40928
-0.389422
-0.369414
-0.34948
-0.329821
-0.310604
-0.291964
-0.274002
-0.256806
-0.240428
-0.224695
-0.209396
-0.196615
-0.559316
-0.534942
-0.516608
-0.499826
-0.482425
-0.464386
-0.44577
-0.426658
-0.407211
-0.38762
-0.368078
-0.348764
-0.329829
-0.311399
-0.293575
-0.276445
-0.260063
-0.244292
-0.22895
-0.21585
-0.57507
-0.549818
-0.530919
-0.513861
-0.496419
-0.478547
-0.460257
-0.441581
-0.422629
-0.403552
-0.384509
-0.365653
-0.347118
-0.329021
-0.311455
-0.294506
-0.278233
-0.262529
-0.24724
-0.233898
-0.587851
-0.561898
-0.542544
-0.525282
-0.507857
-0.490203
-0.472295
-0.454116
-0.435732
-0.417253
-0.398804
-0.38051
-0.362487
-0.344836
-0.327646
-0.310994
-0.294941
-0.279411
-0.264278
-0.250777
-0.597787
-0.571311
-0.551609
-0.534212
-0.516859
-0.499468
-0.481985
-0.464353
-0.446597
-0.428786
-0.411014
-0.393375
-0.375966
-0.358872
-0.342169
-0.325928
-0.310207
-0.294961
-0.28009
-0.266524
-0.605026
-0.578202
-0.558258
-0.540793
-0.523559
-0.50647
-0.489448
-0.472402
-0.455319
-0.438236
-0.421209
-0.404309
-0.387607
-0.37117
-0.355063
-0.339344
-0.324067
-0.309213
-0.294715
-0.281188
-0.609742
-0.582736
-0.562653
-0.545184
-0.528114
-0.511358
-0.494822
-0.478389
-0.462014
-0.445702
-0.429479
-0.413387
-0.397474
-0.381789
-0.366379
-0.35129
-0.336568
-0.322219
-0.308209
-0.294832
-0.61211
-0.585083
-0.56496
-0.54755
-0.530684
-0.514287
-0.498256
-0.482453
-0.466809
-0.4513
-0.435925
-0.4207
-0.405648
-0.390798
-0.376181
-0.361828
-0.347769
-0.334037
-0.320638
-0.307536
-0.612319
-0.585421
-0.565355
-0.548063
-0.531439
-0.515423
-0.499908
-0.484745
-0.469844
-0.455158
-0.440663
-0.426349
-0.412219
-0.39828
-0.384545
-0.371026
-0.357741
-0.34474
-0.332077
-0.319386
-0.610563
-0.583936
-0.564018
-0.546902
-0.530556
-0.514938
-0.499946
-0.485422
-0.471266
-0.457412
-0.443816
-0.430447
-0.417287
-0.404324
-0.391552
-0.378964
-0.366558
-0.354403
-0.342608
-0.33048
-0.607038
-0.580811
-0.561129
-0.544244
-0.528211
-0.513007
-0.498538
-0.484649
-0.471231
-0.458206
-0.445515
-0.433112
-0.420958
-0.409026
-0.397289
-0.38572
-0.374298
-0.363105
-0.352316
-0.340917
-0.60194
-0.576232
-0.556867
-0.540268
-0.524579
-0.509804
-0.495857
-0.482592
-0.469897
-0.457688
-0.445898
-0.434467
-0.423343
-0.412482
-0.401843
-0.391378
-0.38104
-0.370925
-0.361283
-0.350797
-0.595456
-0.570374
-0.551405
-0.535145
-0.519835
-0.5055
-0.492073
-0.479416
-0.467422
-0.456008
-0.445101
-0.434636
-0.424551
-0.414791
-0.4053
-0.396012
-0.386855
-0.377933
-0.369585
-0.360215
-0.587767
-0.563409
-0.54491
-0.529041
-0.514142
-0.500262
-0.48735
-0.475283
-0.463964
-0.453313
-0.443261
-0.433742
-0.42469
-0.416044
-0.407739
-0.399692
-0.391806
-0.38419
-0.377284
-0.369251
-0.579039
-0.555495
-0.537536
-0.522111
-0.507659
-0.494249
-0.481849
-0.470352
-0.459675
-0.449749
-0.440512
-0.431904
-0.423863
-0.416327
-0.409228
-0.402472
-0.395939
-0.389736
-0.384422
-0.37797
-0.569424
-0.546777
-0.529429
-0.514502
-0.500532
-0.487609
-0.475718
-0.464771
-0.454701
-0.445454
-0.43698
-0.429233
-0.422162
-0.415711
-0.409819
-0.404387
-0.399274
-0.394587
-0.391012
-0.386405
-0.559057
-0.537389
-0.520719
-0.506344
-0.492896
-0.480479
-0.469097
-0.458681
-0.449179
-0.440558
-0.432785
-0.425833
-0.419669
-0.414256
-0.409545
-0.405446
-0.401803
-0.398723
-0.397033
-0.394559
-0.548058
-0.527448
-0.511524
-0.497755
-0.48487
-0.472982
-0.462111
-0.452206
-0.443234
-0.43518
-0.428035
-0.421794
-0.41645
-0.411996
-0.408409
-0.405619
-0.403472
-0.402074
-0.402408
-0.40239
-0.536529
-0.517057
-0.501947
-0.48884
-0.476558
-0.465224
-0.454868
-0.445457
-0.436975
-0.429426
-0.422824
-0.41719
-0.412554
-0.408942
-0.406377
-0.404829
-0.404162
-0.404495
-0.406992
-0.409796
-0.524559
-0.506309
-0.492079
-0.479687
-0.46805
-0.457294
-0.44746
-0.438527
-0.430495
-0.423383
-0.417228
-0.41208
-0.408003
-0.405072
-0.403368
-0.402927
-0.403663
-0.40573
-0.410521
-0.416593
-0.512233
-0.495286
-0.482
-0.470373
-0.459419
-0.449266
-0.439959
-0.431489
-0.423866
-0.417121
-0.411307
-0.406499
-0.402796
-0.400326
-0.399241
-0.399671
-0.40162
-0.405331
-0.412525
-0.422433
-0.499628
-0.484066
-0.471781
-0.460964
-0.450727
-0.441197
-0.432422
-0.424399
-0.417143
-0.410689
-0.4051
-0.400464
-0.396906
-0.3946
-0.393773
-0.394672
-0.397435
-0.402464
-0.412035
-0.426534
-0.486829
-0.472723
-0.46149
-0.451518
-0.442025
-0.433133
-0.424891
-0.417297
-0.410365
-0.404127
-0.398638
-0.393986
-0.3903
-0.387774
-0.386694
-0.387419
-0.390239
-0.39579
-0.407347
-0.427617
-0.473926
-0.461334
-0.451189
-0.442089
-0.433358
-0.425113
-0.417401
-0.410218
-0.403569
-0.397472
-0.39196
-0.387095
-0.382977
-0.379777
-0.377782
-0.37743
-0.379159
-0.383831
-0.396142
-0.423447
-0.461019
-0.449978
-0.440945
-0.432731
-0.424771
-0.417176
-0.409988
-0.403199
-0.3968
-0.390781
-0.385135
-0.379862
-0.374972
-0.370506
-0.366585
-0.363494
-0.361536
-0.360907
-0.365478
-0.390293
-0.448217
-0.438741
-0.430825
-0.423499
-0.416309
-0.409362
-0.402697
-0.396298
-0.39014
-0.384184
-0.378367
-0.372598
-0.36673
-0.36052
-0.353583
-0.345361
-0.334685
-0.317735
-0.28804
-0.257686
-0.435638
-0.427709
-0.420897
-0.414449
-0.408023
-0.401722
-0.395582
-0.389588
-0.383709
-0.377889
-0.372047
-0.366065
-0.359768
-0.352901
-0.34511
-0.335986
-0.324905
-0.309755
-0.287197
-0.267029
-0.423396
-0.416967
-0.41123
-0.405638
-0.399961
-0.394299
-0.38869
-0.383126
-0.377575
-0.371986
-0.366283
-0.360358
-0.354072
-0.347238
-0.339634
-0.331059
-0.321249
-0.309239
-0.294151
-0.283742
-0.4116
-0.406598
-0.401889
-0.397123
-0.392172
-0.387137
-0.382062
-0.376945
-0.371767
-0.366486
-0.36104
-0.355349
-0.349311
-0.342802
-0.335697
-0.327912
-0.319328
-0.309405
-0.298112
-0.291761
-0.400347
-0.396676
-0.392934
-0.388953
-0.384699
-0.380275
-0.375728
-0.371073
-0.366299
-0.361382
-0.356279
-0.350936
-0.345292
-0.339276
-0.332834
-0.325959
-0.318626
-0.310503
-0.301761
-0.297354
-0.389716
-0.387264
-0.38442
-0.381175
-0.377583
-0.373745
-0.369718
-0.365527
-0.361177
-0.356658
-0.351949
-0.347022
-0.341846
-0.336392
-0.330651
-0.32466
-0.318441
-0.311777
-0.304866
-0.301599
-0.379769
-0.378414
-0.376391
-0.373829
-0.370857
-0.367577
-0.364053
-0.360321
-0.356401
-0.352297
-0.348006
-0.34352
-0.338833
-0.333943
-0.328867
-0.323661
-0.318363
-0.312817
-0.307198
-0.304603
-0.370546
-0.370165
-0.368882
-0.366946
-0.36455
-0.361795
-0.35875
-0.355465
-0.351969
-0.34828
-0.344409
-0.340365
-0.336157
-0.331802
-0.327328
-0.322797
-0.318249
-0.313563
-0.308876
-0.306672
-0.362071
-0.362544
-0.361921
-0.360553
-0.358685
-0.356418
-0.353825
-0.350965
-0.347878
-0.344592
-0.341129
-0.33751
-0.333754
-0.329887
-0.325946
-0.321986
-0.31805
-0.314034
-0.31004
-0.308066
-0.354355
-0.355567
-0.355527
-0.354669
-0.35328
-0.351461
-0.349288
-0.346827
-0.344126
-0.341221
-0.338144
-0.334921
-0.33158
-0.328151
-0.324671
-0.321193
-0.317753
-0.314267
-0.310801
-0.30897
-0.347397
-0.349243
-0.349712
-0.349305
-0.348348
-0.346934
-0.345146
-0.343053
-0.34071
-0.338159
-0.335437
-0.332576
-0.329607
-0.326564
-0.323482
-0.320408
-0.317373
-0.314309
-0.311254
-0.309518
-0.341188
-0.343574
-0.344482
-0.344473
-0.343896
-0.342846
-0.341405
-0.339646
-0.337628
-0.335399
-0.332998
-0.330461
-0.327822
-0.325114
-0.32237
-0.319633
-0.316932
-0.314206
-0.311478
-0.30981