/*--------------------------------*- C++ -*----------------------------------*\
  =========                 |
  \\      /  F ield         | OpenFOAM: The Open Source CFD Toolbox
   \\    /   O peration     | Website:  https://openfoam.org
    \\  /    A nd           | Version:  6.0
     \\/     M anipulation  |
\*---------------------------------------------------------------------------*/
FoamFile
{
    version     2.0;
    format      ascii;
    class       volScalarField;
    location    "0.5";
    object      p;
}
// * * * * * * * * * * * * * * * * * * * * * * * * * * * * * * * * * * * * * //

dimensions      [0 2 -2 0 0 0 0];

internalField   nonuniform List<scalar> 
800
(
2.41555e-08
-1.41516e-05
-0.000106316
-0.000267483
-0.000482101
-0.000743805
-0.00105235
-0.0014109
-0.00182407
-0.00229666
-0.0028331
-0.00343728
-0.00411282
-0.00486334
-0.00569283
-0.0066057
-0.0076058
-0.00869371
-0.00986126
-0.0110824
-0.0123008
-0.0134143
-0.0142612
-0.0146128
-0.0141803
-0.0126422
-0.00969482
-0.00512114
0.00113081
0.0088685
0.0175914
0.0264787
0.0344781
0.0405365
0.043945
0.0446592
0.0433827
0.0412942
0.0395653
0.0388828
1.02927e-05
-7.5564e-06
-9.64012e-05
-0.000247183
-0.000449486
-0.000699991
-0.000998923
-0.00134829
-0.00175078
-0.00220891
-0.0027246
-0.00329902
-0.00393273
-0.0046259
-0.00537878
-0.00619196
-0.00706611
-0.00800058
-0.00899
-0.0100183
-0.0110493
-0.0120146
-0.0127982
-0.0132221
-0.0130384
-0.0119389
-0.00959466
-0.00572634
-0.000197936
0.0068861
0.0151032
0.0236886
0.031614
0.0378114
0.0415245
0.0426502
0.0418382
0.0402033
0.0388007
0.0381945
0.000105791
7.12856e-05
-2.35909e-05
-0.000171396
-0.000366407
-0.000607793
-0.000896829
-0.00123551
-0.00162564
-0.00206828
-0.00256341
-0.00310998
-0.00370603
-0.00434936
-0.00503849
-0.00577415
-0.00656096
-0.00740875
-0.00833248
-0.00934866
-0.0104652
-0.0116612
-0.0128571
-0.013883
-0.0144616
-0.0142235
-0.0127609
-0.0097118
-0.00485934
0.00177125
0.00983256
0.0186166
0.027102
0.0341392
0.0387891
0.0407161
0.0403965
0.0389159
0.0374093
0.0365325
0.000283924
0.000216054
0.00010583
-4.41827e-05
-0.000235048
-0.000468622
-0.000747697
-0.00107493
-0.00145192
-0.00187879
-0.00235417
-0.00287547
-0.00343951
-0.00404395
-0.00468982
-0.00538546
-0.00615174
-0.00702734
-0.00807122
-0.0093565
-0.0109489
-0.0128668
-0.0150302
-0.0172201
-0.0190724
-0.0201181
-0.019859
-0.0178605
-0.0138392
-0.00774198
0.000187546
0.00935823
0.0188277
0.0274014
0.0338935
0.0375362
0.0383613
0.0372432
0.0354563
0.0340391
0.000523528
0.000409414
0.00027779
0.000123364
-6.43246e-05
-0.000290373
-0.000559297
-0.000874585
-0.00123774
-0.00164823
-0.00210381
-0.00260132
-0.00313829
-0.00371593
-0.00434431
-0.00505007
-0.00588602
-0.00693963
-0.00833344
-0.0102079
-0.0126786
-0.015772
-0.0193617
-0.0231366
-0.0266234
-0.0292562
-0.0304683
-0.0297784
-0.026856
-0.0215694
-0.0140288
-0.00463746
0.00585519
0.0163388
0.0254495
0.0318891
0.0349378
0.0348773
0.0329283
0.0307708
0.000799778
0.000631082
0.000474959
0.000315582
0.000130917
-8.7727e-05
-0.000346476
-0.000649454
-0.000997976
-0.00139096
-0.00182585
-0.00230031
-0.00281531
-0.00338061
-0.00402346
-0.00480077
-0.00581241
-0.00720929
-0.0091853
-0.0119407
-0.0156142
-0.0202
-0.0254868
-0.0310513
-0.036314
-0.0406343
-0.0434076
-0.0441388
-0.0424824
-0.0382565
-0.0314525
-0.0222636
-0.0111568
0.0010175
0.0129403
0.0229161
0.0293248
0.0313837
0.0297378
0.0266831
0.001083
0.000854324
0.000672701
0.000509062
0.000327921
0.000116905
-0.000131315
-0.000421013
-0.000752983
-0.00112561
-0.00153663
-0.00198608
-0.00248144
-0.00304627
-0.00373291
-0.00463855
-0.00591981
-0.00779579
-0.0105251
-0.0143464
-0.0193877
-0.0255775
-0.0325984
-0.0399129
-0.0468498
-0.052717
-0.0568995
-0.0589222
-0.0584685
-0.0553633
-0.0495422
-0.0410387
-0.0300315
-0.0169867
-0.00289369
0.0105307
0.0209663
0.0262667
0.0257612
0.0217686
0.00133746
0.0010449
0.00083818
0.000672055
0.000495851
0.00029364
5.75715e-05
-0.00021607
-0.000527041
-0.00087307
-0.00125265
-0.00166957
-0.00214059
-0.00270734
-0.00345282
-0.00451968
-0.00612302
-0.00854394
-0.0120888
-0.0170079
-0.0233913
-0.031083
-0.0396571
-0.0484727
-0.0567849
-0.0638689
-0.0691203
-0.0721097
-0.0725861
-0.0704351
-0.0656138
-0.0580923
-0.0478481
-0.0349735
-0.0199521
-0.00409024
0.0101251
0.0193268
0.0209161
0.0162331
0.00152062
0.0011606
0.000930233
0.000764798
0.000596589
0.00040644
0.000186851
-6.44567e-05
-0.000345555
-0.000653241
-0.000987032
-0.00135548
-0.00178643
-0.00234201
-0.00313781
-0.00436134
-0.00628006
-0.00922323
-0.0135242
-0.0194232
-0.0269578
-0.0358874
-0.0456905
-0.0556436
-0.0649475
-0.0728605
-0.0787989
-0.0823874
-0.083452
-0.0819637
-0.0779519
-0.0714124
-0.0622494
-0.0503099
-0.0355967
-0.01876
-0.00187132
0.0110557
0.0153926
0.0107425
0.00158191
0.00115015
0.000898962
0.00073991
0.000585939
0.000414999
0.000220944
3.89388e-06
-0.000231823
-0.000481719
-0.000746428
-0.0010398
-0.00140151
-0.00191446
-0.0027251
-0.00406018
-0.00622812
-0.00958963
-0.0144868
-0.0211375
-0.0295272
-0.0393455
-0.0500007
-0.0607127
-0.0706492
-0.0790615
-0.0853862
-0.0892916
-0.0906666
-0.0895594
-0.086082
-0.080303
-0.0721543
-0.0613966
-0.0477202
-0.0311467
-0.0129968
0.0027733
0.0100474
0.00658298
0.00146043
0.000951149
0.000684655
0.000542596
0.000414859
0.000276702
0.0001244
-3.8521e-05
-0.000204637
-0.000367871
-0.000530052
-0.000710611
-0.000960971
-0.00138333
-0.00215064
-0.00352004
-0.00582747
-0.00944909
-0.0147229
-0.0218411
-0.0307483
-0.0410885
-0.0522302
-0.0633653
-0.0736473
-0.0823267
-0.0888515
-0.092913
-0.0944347
-0.0935126
-0.0903214
-0.0850046
-0.0775664
-0.0677922
-0.0552508
-0.039539
-0.0212121
-0.00363148
0.00651334
0.00545426
0.00108004
0.000485765
0.000215539
0.000110416
3.05677e-05
-5.16506e-05
-0.000136308
-0.000215379
-0.000277689
-0.000315443
-0.00033198
-0.000352707
-0.000440485
-0.000714517
-0.00136859
-0.00268041
-0.00500008
-0.00870577
-0.014123
-0.0214209
-0.0305186
-0.0410406
-0.0523457
-0.0636246
-0.0740333
-0.0828255
-0.08945
-0.0935986
-0.0951981
-0.0943565
-0.0912757
-0.0861466
-0.0790388
-0.069803
-0.0580148
-0.0430784
-0.0249711
-0.00621399
0.00676426
0.00904199
0.000339533
-0.000347278
-0.000595992
-0.000626908
-0.000621891
-0.000611913
-0.000591444
-0.000546439
-0.000461188
-0.000326184
-0.00014696
4.42378e-05
0.000173016
0.000105197
-0.000368443
-0.00153696
-0.00375287
-0.00738533
-0.0127417
-0.0199715
-0.0289824
-0.0394016
-0.0506039
-0.0618014
-0.0721679
-0.0809642
-0.0876326
-0.0918465
-0.0935078
-0.0927013
-0.0896161
-0.0844483
-0.077296
-0.0680591
-0.0563649
-0.0415878
-0.0233683
-0.00341087
0.0125911
0.0188589
-0.000907542
-0.00168713
-0.00185823
-0.00174572
-0.00159542
-0.00144043
-0.00126533
-0.00104722
-0.000764427
-0.000405497
2.10553e-05
0.000474848
0.000869134
0.0010557
0.000813759
-0.000149948
-0.00218108
-0.00563094
-0.0107837
-0.0177708
-0.0264972
-0.0366077
-0.0475109
-0.0584582
-0.0686544
-0.0773729
-0.0840463
-0.0883159
-0.0900359
-0.0892362
-0.086053
-0.0806406
-0.0730745
-0.0632569
-0.0508483
-0.0352634
-0.0160159
0.0058099
0.0254076
0.0364196
-0.00289568
-0.00373693
-0.00370318
-0.00331883
-0.00292794
-0.00255556
-0.00216608
-0.00172211
-0.001193
-0.000564153
0.000152798
0.000908412
0.00160261
0.00207308
0.00208929
0.00135781
-0.000454375
-0.00367467
-0.00855956
-0.0152207
-0.0235626
-0.0332535
-0.0437451
-0.0543378
-0.0642774
-0.072856
-0.0794962
-0.0837996
-0.0855558
-0.0847125
-0.0813155
-0.0754282
-0.0670442
-0.0560018
-0.041939
-0.0243138
-0.0026815
0.0221932
0.0463891
0.0634292
-0.00604445
-0.00681068
-0.00627366
-0.00538134
-0.00460577
-0.00392268
-0.00325322
-0.00253521
-0.00172383
-0.000798638
0.000227142
0.00129588
0.00229476
0.00304813
0.00331669
0.00280839
0.00120472
-0.00179565
-0.00641915
-0.0127551
-0.0207046
-0.0299572
-0.0400065
-0.0502039
-0.0598394
-0.068228
-0.0747844
-0.0790685
-0.080796
-0.0798129
-0.0760414
-0.0694019
-0.0597339
-0.0467186
-0.0298736
-0.00863874
0.0172675
0.0469993
0.0773524
0.102426
-0.0112182
-0.0114076
-0.00965623
-0.00785182
-0.00649378
-0.0053886
-0.00437263
-0.00334468
-0.00223985
-0.00102787
0.000280317
0.00162295
0.00287883
0.00386313
0.00433149
0.00399542
0.00255141
-0.000276807
-0.00468677
-0.010745
-0.0183463
-0.0271953
-0.0368207
-0.0466193
-0.0559224
-0.0640688
-0.0704689
-0.074644
-0.0762359
-0.0749794
-0.0706503
-0.0629785
-0.0515682
-0.0358114
-0.0149251
0.0118863
0.0448442
0.0827524
0.122695
0.159564
-0.0205996
-0.0182712
-0.0137796
-0.0104496
-0.00821841
-0.00653959
-0.00510732
-0.00375784
-0.00239299
-0.000962071
0.000534867
0.00203971
0.00343085
0.00452282
0.00507413
0.00480593
0.00343246
0.000701666
-0.00355833
-0.00939462
-0.0166961
-0.0251797
-0.0344033
-0.0438019
-0.0527439
-0.0605915
-0.0667551
-0.0707243
-0.0720755
-0.0704368
-0.0654353
-0.0565906
-0.0432248
-0.0243218
0.00144877
0.0356128
0.0791084
0.131207
0.189546
0.248591
-0.0406995
-0.0277928
-0.0171904
-0.011172
-0.00785961
-0.00566509
-0.00397688
-0.00252877
-0.00114928
0.00025611
0.00170453
0.00314283
0.00445199
0.00545111
0.00590763
0.0055572
0.00413367
0.00140715
-0.00277421
-0.00844516
-0.0154948
-0.0236553
-0.0325123
-0.0415364
-0.0501299
-0.0576783
-0.0635965
-0.0673525
-0.0684725
-0.0664981
-0.0609352
-0.0511268
-0.0361607
-0.0146413
0.0153802
0.0566836
0.112455
0.185804
0.278071
0.383485
-0.099361
-0.0335348
-0.00900315
-0.00327049
-0.00120061
0.000252054
0.0012614
0.00201301
0.00275289
0.00360887
0.00458905
0.00562239
0.00657734
0.00726778
0.0074624
0.00690349
0.005335
0.00253758
-0.00163345
-0.00721268
-0.0140986
-0.0220426
-0.0306576
-0.0394441
-0.0478325
-0.0552271
-0.061049
-0.0647548
-0.0658415
-0.0637995
-0.0580672
-0.0478892
-0.0322476
-0.0095471
0.0224423
0.0675405
0.131359
0.224664
0.358864
0.535749
)
;

boundaryField
{
    movingWall
    {
        type            zeroGradient;
    }
    fixedWalls
    {
        type            zeroGradient;
    }
    frontAndBack
    {
        type            empty;
    }
}


// ************************************************************************* //
