/*--------------------------------*- C++ -*----------------------------------*\
  =========                 |
  \\      /  F ield         | OpenFOAM: The Open Source CFD Toolbox
   \\    /   O peration     | Website:  https://openfoam.org
    \\  /    A nd           | Version:  6.0
     \\/     M anipulation  |
\*---------------------------------------------------------------------------*/
FoamFile
{
    version     2.0;
    format      ascii;
    class       volVectorField;
    location    "0.5";
    object      U;
}
// * * * * * * * * * * * * * * * * * * * * * * * * * * * * * * * * * * * * * //

dimensions      [0 1 -1 0 0 0 0];

internalField   nonuniform List<vector> 
800
(
(0.000121063 -0.000122595 0)
(0.000440767 -0.000199743 0)
(0.000797848 -0.000176856 0)
(0.0010504 -0.000130714 0)
(0.00118054 -9.42746e-05 0)
(0.0012273 -7.48138e-05 0)
(0.00122859 -6.85148e-05 0)
(0.00120603 -6.83295e-05 0)
(0.00116258 -6.76045e-05 0)
(0.00108429 -6.10746e-05 0)
(0.000942472 -4.45926e-05 0)
(0.000695054 -1.45722e-05 0)
(0.000286523 3.26008e-05 0)
(-0.00035361 0.00010126 0)
(-0.0013138 0.000197399 0)
(-0.00270516 0.00032997 0)
(-0.0046678 0.000512421 0)
(-0.00737762 0.000763989 0)
(-0.0110502 0.00110981 0)
(-0.0159361 0.00157853 0)
(-0.0222993 0.00219601 0)
(-0.0303726 0.002974 0)
(-0.0402857 0.00389394 0)
(-0.0519726 0.00488801 0)
(-0.0650737 0.00582383 0)
(-0.0788618 0.00650347 0)
(-0.0922204 0.00668822 0)
(-0.103705 0.00615236 0)
(-0.111694 0.00475324 0)
(-0.114627 0.00249574 0)
(-0.111298 -0.000425473 0)
(-0.101182 -0.00361128 0)
(-0.0847438 -0.00648017 0)
(-0.0636431 -0.00835393 0)
(-0.0407264 -0.00864235 0)
(-0.0196409 -0.00712726 0)
(-0.00396383 -0.00422071 0)
(0.00408143 -0.000937731 0)
(0.00490971 0.00148568 0)
(0.00188644 0.00176802 0)
(0.000206189 -0.000452375 0)
(0.000654482 -0.000657399 0)
(0.00102184 -0.000513713 0)
(0.00112366 -0.000287979 0)
(0.000954155 -9.83474e-05 0)
(0.000581731 2.56798e-05 0)
(7.09382e-05 9.85999e-05 0)
(-0.000544976 0.000151329 0)
(-0.0012725 0.000216928 0)
(-0.0021587 0.000325688 0)
(-0.00329029 0.000505403 0)
(-0.00479391 0.000783462 0)
(-0.00683906 0.00118935 0)
(-0.00964335 0.00175726 0)
(-0.0134793 0.00252897 0)
(-0.0186818 0.00355672 0)
(-0.0256525 0.00490479 0)
(-0.0348553 0.00664656 0)
(-0.0467919 0.00885242 0)
(-0.0619401 0.0115632 0)
(-0.0806434 0.0147466 0)
(-0.102948 0.0182413 0)
(-0.128419 0.0217056 0)
(-0.155986 0.0246023 0)
(-0.183928 0.0262517 0)
(-0.210024 0.0259629 0)
(-0.231859 0.0232001 0)
(-0.24715 0.0177183 0)
(-0.254006 0.00963287 0)
(-0.251088 -0.000561099 0)
(-0.237723 -0.0119768 0)
(-0.214045 -0.0233165 0)
(-0.181188 -0.0328822 0)
(-0.141511 -0.038718 0)
(-0.0987526 -0.0390308 0)
(-0.0579546 -0.0329877 0)
(-0.0248078 -0.0216842 0)
(-0.00396695 -0.00849464 0)
(0.00360737 0.00195552 0)
(0.0021396 0.00493713 0)
(0.000171749 -0.000814953 0)
(0.00040823 -0.00100208 0)
(0.000320772 -0.000563846 0)
(-0.00019828 2.22288e-06 0)
(-0.00110036 0.000480137 0)
(-0.00229058 0.000818783 0)
(-0.003694 0.00105484 0)
(-0.00528286 0.00126196 0)
(-0.00708642 0.00152241 0)
(-0.00919346 0.00191691 0)
(-0.0117538 0.0025249 0)
(-0.0149818 0.00342886 0)
(-0.0191627 0.00471929 0)
(-0.0246595 0.00649908 0)
(-0.0319189 0.00888616 0)
(-0.0414717 0.0120123 0)
(-0.0539166 0.0160127 0)
(-0.0698775 0.020997 0)
(-0.0899115 0.026992 0)
(-0.114356 0.0338512 0)
(-0.143119 0.04115 0)
(-0.175471 0.0481133 0)
(-0.209933 0.0536472 0)
(-0.244371 0.0565166 0)
(-0.276315 0.0556248 0)
(-0.303366 0.0502652 0)
(-0.32352 0.0402348 0)
(-0.335298 0.0258062 0)
(-0.337707 0.00764821 0)
(-0.330147 -0.0132108 0)
(-0.312338 -0.0353336 0)
(-0.28434 -0.0567474 0)
(-0.246733 -0.0748175 0)
(-0.200944 -0.086287 0)
(-0.149729 -0.0877639 0)
(-0.0976691 -0.0769819 0)
(-0.0512868 -0.0548501 0)
(-0.0177508 -0.0271441 0)
(-0.00109608 -0.00338935 0)
(0.00142801 0.00658351 0)
(6.87855e-05 -0.000973289 0)
(-0.000125652 -0.000837025 0)
(-0.000992319 0.000108122 0)
(-0.0024707 0.00115151 0)
(-0.00441923 0.00200789 0)
(-0.00670993 0.00263073 0)
(-0.00926198 0.00310033 0)
(-0.0120616 0.0035515 0)
(-0.0151692 0.00413368 0)
(-0.0187212 0.00499751 0)
(-0.0229325 0.00629633 0)
(-0.0281024 0.00819289 0)
(-0.0346214 0.0108655 0)
(-0.042975 0.0145105 0)
(-0.0537392 0.0193369 0)
(-0.0675589 0.0255479 0)
(-0.0850919 0.0332968 0)
(-0.106905 0.0426046 0)
(-0.133309 0.0532355 0)
(-0.164147 0.0645555 0)
(-0.198597 0.0754451 0)
(-0.235107 0.0843648 0)
(-0.271545 0.0896207 0)
(-0.305573 0.0897536 0)
(-0.335085 0.0838657 0)
(-0.358495 0.0717324 0)
(-0.374799 0.0536978 0)
(-0.383438 0.0304841 0)
(-0.384093 0.00304922 0)
(-0.37648 -0.0274297 0)
(-0.360215 -0.0594237 0)
(-0.334786 -0.0907815 0)
(-0.299689 -0.118391 0)
(-0.254816 -0.137953 0)
(-0.20116 -0.14425 0)
(-0.141862 -0.132515 0)
(-0.0833592 -0.101523 0)
(-0.0354042 -0.0577623 0)
(-0.0071191 -0.0163334 0)
(0.000591511 0.00562295 0)
(-7.38941e-05 -0.00078969 0)
(-0.000844337 9.66318e-05 0)
(-0.00271762 0.00179274 0)
(-0.00538963 0.00343747 0)
(-0.00859327 0.0047307 0)
(-0.0121602 0.00567267 0)
(-0.0160044 0.00641664 0)
(-0.0201296 0.00717864 0)
(-0.0246301 0.00819094 0)
(-0.0296887 0.00968909 0)
(-0.0355784 0.0119161 0)
(-0.0426673 0.0151303 0)
(-0.0514199 0.0196092 0)
(-0.0623913 0.025642 0)
(-0.076202 0.0335046 0)
(-0.0934824 0.0434062 0)
(-0.114772 0.0553939 0)
(-0.140368 0.0692121 0)
(-0.170135 0.0841404 0)
(-0.203337 0.098887 0)
(-0.238577 0.111645 0)
(-0.273944 0.120378 0)
(-0.307356 0.123272 0)
(-0.33698 0.119151 0)
(-0.361526 0.107648 0)
(-0.380298 0.0890914 0)
(-0.393072 0.0642386 0)
(-0.399873 0.0340166 0)
(-0.400762 -0.000618933 0)
(-0.395634 -0.0386698 0)
(-0.384028 -0.0789012 0)
(-0.365003 -0.119452 0)
(-0.337129 -0.157268 0)
(-0.298746 -0.187507 0)
(-0.248681 -0.20329 0)
(-0.187636 -0.196636 0)
(-0.120297 -0.161908 0)
(-0.0575221 -0.102821 0)
(-0.0148091 -0.0389984 0)
(-0.000391987 0.00151622 0)
(-0.000244568 -0.000183999 0)
(-0.00169317 0.00196088 0)
(-0.00472922 0.004673 0)
(-0.00874572 0.0070299 0)
(-0.0133242 0.00878963 0)
(-0.0182501 0.0100522 0)
(-0.0234312 0.0110779 0)
(-0.0288875 0.0121841 0)
(-0.0347429 0.0136986 0)
(-0.0412165 0.015951 0)
(-0.0486198 0.0192801 0)
(-0.0573563 0.0240408 0)
(-0.067913 0.0305992 0)
(-0.0808381 0.0393066 0)
(-0.0966916 0.0504437 0)
(-0.115961 0.0641239 0)
(-0.138933 0.08015 0)
(-0.165543 0.097846 0)
(-0.195227 0.115925 0)
(-0.226863 0.132502 0)
(-0.258863 0.145328 0)
(-0.28944 0.152255 0)
(-0.316975 0.151717 0)
(-0.340313 0.143037 0)
(-0.358869 0.126396 0)
(-0.372551 0.102563 0)
(-0.381601 0.0725582 0)
(-0.386427 0.0373859 0)
(-0.387438 -0.00211245 0)
(-0.38485 -0.0452619 0)
(-0.378438 -0.0913682 0)
(-0.367267 -0.139277 0)
(-0.349457 -0.186631 0)
(-0.322178 -0.228862 0)
(-0.282142 -0.258215 0)
(-0.226973 -0.263647 0)
(-0.157876 -0.23346 0)
(-0.0838248 -0.163853 0)
(-0.0250771 -0.0739521 0)
(-0.00180425 -0.00648033 0)
(-0.000439034 0.000903805 0)
(-0.00264418 0.00487049 0)
(-0.00695065 0.00886754 0)
(-0.0123993 0.0120232 0)
(-0.0184006 0.0142431 0)
(-0.0246898 0.0157877 0)
(-0.0311662 0.0170594 0)
(-0.0378609 0.0184946 0)
(-0.0449162 0.0205233 0)
(-0.0525676 0.0235692 0)
(-0.0611344 0.0280604 0)
(-0.0710101 0.0344318 0)
(-0.0826421 0.043106 0)
(-0.0964929 0.0544436 0)
(-0.112975 0.0686535 0)
(-0.132353 0.0856596 0)
(-0.154631 0.104936 0)
(-0.179433 0.125354 0)
(-0.20594 0.145134 0)
(-0.232935 0.161996 0)
(-0.258967 0.17354 0)
(-0.282637 0.177768 0)
(-0.302873 0.173519 0)
(-0.31908 0.160608 0)
(-0.331141 0.139667 0)
(-0.339309 0.111798 0)
(-0.344108 0.0782354 0)
(-0.34623 0.0400698 0)
(-0.346424 -0.00193601 0)
(-0.34531 -0.0474225 0)
(-0.343111 -0.0963267 0)
(-0.339282 -0.148487 0)
(-0.332074 -0.202825 0)
(-0.318195 -0.256017 0)
(-0.292873 -0.300747 0)
(-0.250844 -0.324177 0)
(-0.188983 -0.308546 0)
(-0.111541 -0.238617 0)
(-0.0385804 -0.123568 0)
(-0.00402314 -0.0195877 0)
(-0.000657122 0.00252626 0)
(-0.00368713 0.00891284 0)
(-0.00934323 0.0144506 0)
(-0.0162676 0.0184546 0)
(-0.0236843 0.0210829 0)
(-0.031277 0.0228221 0)
(-0.038934 0.0242504 0)
(-0.0466889 0.0259346 0)
(-0.0546855 0.0284055 0)
(-0.0631501 0.0321705 0)
(-0.0723731 0.0377278 0)
(-0.0826909 0.0455619 0)
(-0.0944561 0.0561085 0)
(-0.107989 0.0696811 0)
(-0.123512 0.0863557 0)
(-0.141065 0.105819 0)
(-0.160421 0.127212 0)
(-0.181037 0.149023 0)
(-0.202053 0.169139 0)
(-0.222391 0.185097 0)
(-0.24094 0.194553 0)
(-0.256766 0.195782 0)
(-0.269288 0.188017 0)
(-0.278325 0.171477 0)
(-0.28405 0.14713 0)
(-0.286914 0.116343 0)
(-0.287588 0.0805565 0)
(-0.286917 0.0409946 0)
(-0.285836 -0.00156984 0)
(-0.285244 -0.0469777 0)
(-0.28578 -0.0956982 0)
(-0.287459 -0.14857 0)
(-0.289137 -0.206072 0)
(-0.28788 -0.266871 0)
(-0.278486 -0.325504 0)
(-0.253772 -0.369401 0)
(-0.206666 -0.376718 0)
(-0.135526 -0.31996 0)
(-0.0549496 -0.188515 0)
(-0.00747343 -0.0394325 0)
(-0.000902589 0.0047362 0)
(-0.00482885 0.014164 0)
(-0.0119042 0.0214694 0)
(-0.0203215 0.0263202 0)
(-0.0291059 0.0292486 0)
(-0.0378918 0.031037 0)
(-0.0465551 0.032468 0)
(-0.0551225 0.0342426 0)
(-0.0637209 0.0369818 0)
(-0.0725401 0.0412573 0)
(-0.0818079 0.0476095 0)
(-0.0917669 0.0565374 0)
(-0.10264 0.068448 0)
(-0.114587 0.0835675 0)
(-0.127645 0.101813 0)
(-0.141679 0.122643 0)
(-0.156343 0.144925 0)
(-0.171075 0.166893 0)
(-0.185151 0.186266 0)
(-0.19779 0.200578 0)
(-0.208299 0.207647 0)
(-0.216213 0.206037 0)
(-0.221367 0.195302 0)
(-0.223895 0.175946 0)
(-0.224163 0.149169 0)
(-0.222723 0.116532 0)
(-0.220274 0.0796443 0)
(-0.217637 0.0398689 0)
(-0.215715 -0.00194751 0)
(-0.215437 -0.0456996 0)
(-0.217639 -0.0921578 0)
(-0.222803 -0.1429 0)
(-0.230571 -0.199815 0)
(-0.238966 -0.263799 0)
(-0.243436 -0.332228 0)
(-0.236253 -0.394896 0)
(-0.207664 -0.429083 0)
(-0.150748 -0.397738 0)
(-0.07221 -0.265603 0)
(-0.0125296 -0.0677384 0)
(-0.0011852 0.00759693 0)
(-0.00609837 0.0207072 0)
(-0.0146724 0.0299624 0)
(-0.024589 0.0355905 0)
(-0.0346643 0.0386415 0)
(-0.0444931 0.0402662 0)
(-0.0539428 0.0414738 0)
(-0.0630258 0.043094 0)
(-0.0718363 0.0458196 0)
(-0.080505 0.0502606 0)
(-0.0891737 0.0569708 0)
(-0.0979711 0.0664321 0)
(-0.106983 0.0789954 0)
(-0.11622 0.0947845 0)
(-0.125579 0.113568 0)
(-0.134828 0.134629 0)
(-0.143608 0.156661 0)
(-0.151462 0.17778 0)
(-0.157913 0.195692 0)
(-0.162549 0.208038 0)
(-0.165114 0.212847 0)
(-0.165575 0.208934 0)
(-0.164128 0.196079 0)
(-0.161153 0.174958 0)
(-0.157156 0.146893 0)
(-0.152722 0.113549 0)
(-0.148485 0.0766233 0)
(-0.145115 0.0375666 0)
(-0.143316 -0.0026948 0)
(-0.143833 -0.0440076 0)
(-0.147436 -0.087209 0)
(-0.154813 -0.13424 0)
(-0.166234 -0.187954 0)
(-0.180851 -0.25118 0)
(-0.195485 -0.3244 0)
(-0.203196 -0.401231 0)
(-0.193199 -0.461325 0)
(-0.154831 -0.462837 0)
(-0.0871957 -0.347357 0)
(-0.0192284 -0.10588 0)
(-0.00152517 0.0111977 0)
(-0.0075575 0.0286546 0)
(-0.0177401 0.0399758 0)
(-0.0291614 0.0462211 0)
(-0.040426 0.0491329 0)
(-0.0511124 0.0503061 0)
(-0.0610925 0.0509906 0)
(-0.0703649 0.0521292 0)
(-0.0789815 0.0544602 0)
(-0.0870014 0.0586049 0)
(-0.0944693 0.0651049 0)
(-0.101398 0.074405 0)
(-0.107751 0.0867912 0)
(-0.113422 0.102295 0)
(-0.118229 0.120576 0)
(-0.121916 0.140812 0)
(-0.124193 0.161637 0)
(-0.124786 0.181174 0)
(-0.123509 0.197228 0)
(-0.120327 0.207623 0)
(-0.115396 0.210605 0)
(-0.109064 0.205185 0)
(-0.101831 0.191276 0)
(-0.094284 0.169618 0)
(-0.0870284 0.141553 0)
(-0.0806458 0.108738 0)
(-0.0756684 0.0728654 0)
(-0.0725751 0.0353914 0)
(-0.0718116 -0.00271873 0)
(-0.073837 -0.0412353 0)
(-0.0791781 -0.0809158 0)
(-0.0884406 -0.123744 0)
(-0.102176 -0.173011 0)
(-0.120419 -0.232847 0)
(-0.141561 -0.306441 0)
(-0.160412 -0.391781 0)
(-0.166808 -0.473395 0)
(-0.148116 -0.509773 0)
(-0.0970308 -0.424976 0)
(-0.0268822 -0.154386 0)
(-0.00196149 0.0156789 0)
(-0.00931961 0.0381751 0)
(-0.0212713 0.0515775 0)
(-0.034202 0.0581544 0)
(-0.0465182 0.0605622 0)
(-0.0578304 0.0609185 0)
(-0.0680464 0.0607144 0)
(-0.0771625 0.0609782 0)
(-0.0851899 0.0624617 0)
(-0.0921149 0.0657705 0)
(-0.0978871 0.0714149 0)
(-0.102415 0.0797955 0)
(-0.105563 0.0911418 0)
(-0.107152 0.105421 0)
(-0.106969 0.122239 0)
(-0.104796 0.140748 0)
(-0.10046 0.159615 0)
(-0.0938954 0.177074 0)
(-0.0852039 0.191113 0)
(-0.0746911 0.199777 0)
(-0.0628655 0.201522 0)
(-0.0503948 0.195496 0)
(-0.0380323 0.181665 0)
(-0.0265337 0.160741 0)
(-0.0165867 0.133987 0)
(-0.00876715 0.10296 0)
(-0.0035183 0.0692546 0)
(-0.00115498 0.034252 0)
(-0.00189371 -0.00110626 0)
(-0.00591098 -0.0365452 0)
(-0.0134238 -0.0727057 0)
(-0.0247715 -0.111435 0)
(-0.0404444 -0.156042 0)
(-0.0609088 -0.21124 0)
(-0.0858491 -0.282075 0)
(-0.112232 -0.37056 0)
(-0.131886 -0.46754 0)
(-0.131996 -0.536484 0)
(-0.100117 -0.491519 0)
(-0.0339896 -0.212199 0)
(-0.00256876 0.0212749 0)
(-0.0115841 0.049531 0)
(-0.0255322 0.0648605 0)
(-0.039951 0.0713016 0)
(-0.0531012 0.072714 0)
(-0.0647192 0.071812 0)
(-0.0748049 0.0703074 0)
(-0.0833805 0.0692699 0)
(-0.0904327 0.0694264 0)
(-0.0958874 0.071339 0)
(-0.0996133 0.0754733 0)
(-0.101433 0.0821877 0)
(-0.101136 0.0916749 0)
(-0.0984998 0.103878 0)
(-0.0933172 0.118404 0)
(-0.0854375 0.134454 0)
(-0.0748219 0.150805 0)
(-0.0616025 0.165872 0)
(-0.0461295 0.177877 0)
(-0.028986 0.185106 0)
(-0.010958 0.186207 0)
(0.00703674 0.180427 0)
(0.0240432 0.167719 0)
(0.0391648 0.148696 0)
(0.0516376 0.124465 0)
(0.0608753 0.0964084 0)
(0.066486 0.0659492 0)
(0.0682651 0.0343284 0)
(0.0661624 0.00239788 0)
(0.0602268 -0.029583 0)
(0.0505228 -0.0621761 0)
(0.0370222 -0.0970485 0)
(0.0194819 -0.137291 0)
(-0.00260367 -0.187612 0)
(-0.029698 -0.253919 0)
(-0.0607668 -0.341196 0)
(-0.0904722 -0.446831 0)
(-0.10754 -0.543013 0)
(-0.0958499 -0.542411 0)
(-0.0386861 -0.276083 0)
(-0.00349261 0.0283952 0)
(-0.014702 0.063127 0)
(-0.0309381 0.0799221 0)
(-0.0467177 0.0854821 0)
(-0.0602944 0.0852487 0)
(-0.0717001 0.0825794 0)
(-0.0811163 0.0793463 0)
(-0.088639 0.076596 0)
(-0.094265 0.0749829 0)
(-0.0978918 0.0749963 0)
(-0.0993362 0.0770436 0)
(-0.0983593 0.0814438 0)
(-0.0946966 0.0883736 0)
(-0.0880946 0.0977911 0)
(-0.0783552 0.109358 0)
(-0.0653884 0.122383 0)
(-0.0492688 0.135813 0)
(-0.0302869 0.14829 0)
(-0.00898197 0.158293 0)
(0.0138611 0.164357 0)
(0.037259 0.165305 0)
(0.0601153 0.160455 0)
(0.0813268 0.149708 0)
(0.0998855 0.133531 0)
(0.114958 0.112825 0)
(0.125933 0.0887403 0)
(0.132437 0.0624772 0)
(0.134327 0.035083 0)
(0.131658 0.00726539 0)
(0.124627 -0.0207909 0)
(0.113489 -0.0496252 0)
(0.0984482 -0.0807517 0)
(0.0794961 -0.116961 0)
(0.056257 -0.162612 0)
(0.0279397 -0.22362 0)
(-0.00587893 -0.306547 0)
(-0.0428786 -0.414388 0)
(-0.074853 -0.530531 0)
(-0.0838353 -0.574771 0)
(-0.0392138 -0.341125 0)
(-0.00502567 0.0377859 0)
(-0.0193053 0.0795696 0)
(-0.0381249 0.0967719 0)
(-0.0548173 0.100267 0)
(-0.0679623 0.0975389 0)
(-0.0781795 0.0925385 0)
(-0.0859572 0.0871709 0)
(-0.0915332 0.0823691 0)
(-0.0949766 0.0786612 0)
(-0.0962162 0.0764313 0)
(-0.0950701 0.0760079 0)
(-0.0912784 0.0776636 0)
(-0.0845437 0.0815671 0)
(-0.0745808 0.0877151 0)
(-0.0611765 0.0958624 0)
(-0.0442531 0.10547 0)
(-0.0239313 0.115696 0)
(-0.00057879 0.125437 0)
(0.0251661 0.133449 0)
(0.0524096 0.138508 0)
(0.0800594 0.139608 0)
(0.106918 0.136117 0)
(0.131792 0.127871 0)
(0.153601 0.115166 0)
(0.171461 0.0986645 0)
(0.184733 0.0792544 0)
(0.193042 0.0578754 0)
(0.196269 0.0353456 0)
(0.194507 0.0121958 0)
(0.188007 -0.0114953 0)
(0.177081 -0.0362722 0)
(0.161999 -0.06352 0)
(0.142812 -0.0957181 0)
(0.119202 -0.136744 0)
(0.0902465 -0.19202 0)
(0.0547074 -0.268415 0)
(0.0123422 -0.372736 0)
(-0.0328005 -0.500498 0)
(-0.0631323 -0.586758 0)
(-0.033724 -0.402276 0)
(-0.00777612 0.0508994 0)
(-0.0265573 0.0997145 0)
(-0.048006 0.11507 0)
(-0.064253 0.114641 0)
(-0.0750117 0.108327 0)
(-0.0819826 0.100388 0)
(-0.0861178 0.0925344 0)
(-0.087894 0.0854751 0)
(-0.0875484 0.0795578 0)
(-0.0851305 0.075023 0)
(-0.0805363 0.0720881 0)
(-0.0735437 0.0709513 0)
(-0.0638567 0.0717551 0)
(-0.0511613 0.0745286 0)
(-0.0351936 0.0791265 0)
(-0.0158151 0.0851796 0)
(0.00691489 0.0920761 0)
(0.0326821 0.0989891 0)
(0.0608906 0.104956 0)
(0.0906761 0.109003 0)
(0.120963 0.110291 0)
(0.150556 0.108246 0)
(0.178254 0.102638 0)
(0.202958 0.0935905 0)
(0.223759 0.0815257 0)
(0.239991 0.0670541 0)
(0.251252 0.0508424 0)
(0.257391 0.0334693 0)
(0.258455 0.0152878 0)
(0.254626 -0.00371882 0)
(0.246105 -0.0240759 0)
(0.233027 -0.0470121 0)
(0.215247 -0.074663 0)
(0.192277 -0.110387 0)
(0.162949 -0.158944 0)
(0.125658 -0.226805 0)
(0.0784571 -0.322588 0)
(0.0210166 -0.453112 0)
(-0.0318308 -0.575794 0)
(-0.019645 -0.45448 0)
(-0.0130797 0.0708582 0)
(-0.0386024 0.124566 0)
(-0.0613946 0.133491 0)
(-0.0730389 0.126194 0)
(-0.0765967 0.114819 0)
(-0.0757041 0.103273 0)
(-0.0719511 0.0927074 0)
(-0.0661511 0.0834533 0)
(-0.0587856 0.0755951 0)
(-0.0500771 0.0691662 0)
(-0.0400365 0.0642179 0)
(-0.028509 0.0608256 0)
(-0.0152215 0.0590604 0)
(0.000164208 0.0589435 0)
(0.0179856 0.0603966 0)
(0.0385037 0.0631966 0)
(0.0618248 0.0669509 0)
(0.0878318 0.0711027 0)
(0.116141 0.0749759 0)
(0.146098 0.0778556 0)
(0.176818 0.0790894 0)
(0.207259 0.0781842 0)
(0.236329 0.0748754 0)
(0.262988 0.0691471 0)
(0.286338 0.0612052 0)
(0.305684 0.0514057 0)
(0.320549 0.0401638 0)
(0.330678 0.0278412 0)
(0.335962 0.014647 0)
(0.336402 0.000512667 0)
(0.331934 -0.0150018 0)
(0.322406 -0.0328922 0)
(0.307239 -0.0548437 0)
(0.285552 -0.0835959 0)
(0.255551 -0.123141 0)
(0.215267 -0.17941 0)
(0.161637 -0.261384 0)
(0.0909204 -0.384879 0)
(0.0133856 -0.534551 0)
(0.00697684 -0.487793 0)
(-0.0242416 0.104863 0)
(-0.0588769 0.153504 0)
(-0.0740406 0.145218 0)
(-0.067084 0.126097 0)
(-0.0516535 0.108646 0)
(-0.0336056 0.0938343 0)
(-0.0146142 0.0813931 0)
(0.0045346 0.0710437 0)
(0.0233991 0.062488 0)
(0.0418206 0.0554777 0)
(0.0598553 0.0498577 0)
(0.0777135 0.0455521 0)
(0.0957185 0.0425277 0)
(0.114269 0.0407556 0)
(0.133795 0.0401735 0)
(0.154699 0.0406512 0)
(0.177288 0.041966 0)
(0.201709 0.0437951 0)
(0.22789 0.0457313 0)
(0.255519 0.0473235 0)
(0.284043 0.048134 0)
(0.312721 0.047801 0)
(0.340696 0.0460886 0)
(0.367085 0.0429106 0)
(0.391054 0.0383259 0)
(0.411898 0.0324983 0)
(0.429047 0.0256472 0)
(0.442108 0.0179663 0)
(0.450757 0.00956953 0)
(0.454786 0.000383369 0)
(0.453801 -0.00988684 0)
(0.447398 -0.0219354 0)
(0.434459 -0.0368698 0)
(0.413733 -0.056628 0)
(0.382339 -0.0840427 0)
(0.337618 -0.1242 0)
(0.274558 -0.185328 0)
(0.187668 -0.28862 0)
(0.0813204 -0.446929 0)
(0.05449 -0.476507 0)
(-0.0581345 0.179276 0)
(-0.0730754 0.169072 0)
(-0.0223528 0.122127 0)
(0.0321242 0.0957764 0)
(0.0810225 0.0781674 0)
(0.124121 0.0644263 0)
(0.162429 0.0534789 0)
(0.196577 0.0448461 0)
(0.227046 0.0380278 0)
(0.254347 0.0326038 0)
(0.27901 0.0282933 0)
(0.301563 0.0249272 0)
(0.322537 0.0224023 0)
(0.342469 0.0206471 0)
(0.361892 0.0195954 0)
(0.381314 0.0191649 0)
(0.40117 0.0192416 0)
(0.421785 0.0196709 0)
(0.443319 0.0202601 0)
(0.465742 0.0207915 0)
(0.488813 0.0210466 0)
(0.512105 0.0208332 0)
(0.535039 0.0200132 0)
(0.556955 0.0185164 0)
(0.57716 0.016346 0)
(0.595027 0.0135595 0)
(0.609969 0.0102525 0)
(0.621555 0.00650759 0)
(0.629321 0.00238168 0)
(0.632995 -0.00217997 0)
(0.631943 -0.00731623 0)
(0.625774 -0.0134188 0)
(0.612953 -0.0210088 0)
(0.592424 -0.0311643 0)
(0.560142 -0.0452253 0)
(0.513388 -0.0664058 0)
(0.442446 -0.100011 0)
(0.342197 -0.16427 0)
(0.203578 -0.294252 0)
(0.148255 -0.373047 0)
(0.231013 0.123847 0)
(0.278679 0.109047 0)
(0.376306 0.0769401 0)
(0.459615 0.055933 0)
(0.520308 0.0423042 0)
(0.56603 0.0325632 0)
(0.602355 0.0253046 0)
(0.631993 0.0198613 0)
(0.656484 0.0157625 0)
(0.67696 0.0126521 0)
(0.694324 0.0102784 0)
(0.709302 0.00847023 0)
(0.722497 0.00711113 0)
(0.734433 0.00611876 0)
(0.745575 0.00543085 0)
(0.756325 0.00499445 0)
(0.767018 0.0047582 0)
(0.777898 0.00466728 0)
(0.789097 0.00466179 0)
(0.800622 0.00467807 0)
(0.812347 0.00465344 0)
(0.82403 0.00453186 0)
(0.835325 0.00427118 0)
(0.845839 0.00384641 0)
(0.85515 0.00325341 0)
(0.862887 0.00250265 0)
(0.868687 0.00161849 0)
(0.872323 0.000620911 0)
(0.873485 -0.000472794 0)
(0.872081 -0.00167848 0)
(0.867592 -0.00303357 0)
(0.85995 -0.00463875 0)
(0.847729 -0.00665387 0)
(0.830855 -0.0093036 0)
(0.805166 -0.0130785 0)
(0.770928 -0.0184152 0)
(0.714475 -0.0277879 0)
(0.638277 -0.0435945 0)
(0.490692 -0.0847002 0)
(0.374427 -0.134844 0)
)
;

boundaryField
{
    movingWall
    {
        type            fixedValue;
        value           uniform (1 0 0);
    }
    fixedWalls
    {
        type            noSlip;
    }
    frontAndBack
    {
        type            empty;
    }
}


// ************************************************************************* //
