/*--------------------------------*- C++ -*----------------------------------*\
  =========                 |
  \\      /  F ield         | OpenFOAM: The Open Source CFD Toolbox
   \\    /   O peration     | Website:  https://openfoam.org
    \\  /    A nd           | Version:  6.0
     \\/     M anipulation  |
\*---------------------------------------------------------------------------*/
FoamFile
{
    version     2.0;
    format      ascii;
    class       volVectorField;
    location    "0.5";
    object      U;
}
// * * * * * * * * * * * * * * * * * * * * * * * * * * * * * * * * * * * * * //

dimensions      [0 1 -1 0 0 0 0];

internalField   nonuniform List<vector> 
200
(
(0.000514255 -0.00059048 0)
(0.000915127 -0.000300853 0)
(0.00030787 -2.33927e-05 0)
(-0.000776036 4.91005e-05 0)
(-0.00203329 5.9122e-05 0)
(-0.0035668 0.000111922 0)
(-0.00576942 0.000297675 0)
(-0.00939389 0.000793336 0)
(-0.0158263 0.00201755 0)
(-0.0273926 0.00477154 0)
(-0.0471252 0.00994923 0)
(-0.0773537 0.0172967 0)
(-0.116502 0.0238022 0)
(-0.155055 0.0245011 0)
(-0.177995 0.0168643 0)
(-0.174332 0.00282519 0)
(-0.142053 -0.0132317 0)
(-0.0882679 -0.0241146 0)
(-0.029796 -0.0192412 0)
(0.000434285 0.000252871 0)
(-0.000125114 -0.000830358 0)
(-0.00199254 0.000967535 0)
(-0.00630581 0.0023101 0)
(-0.0117731 0.00294258 0)
(-0.0180452 0.00353513 0)
(-0.0257476 0.00468305 0)
(-0.0362267 0.00703307 0)
(-0.0516541 0.0115933 0)
(-0.0750905 0.0198818 0)
(-0.109832 0.0331704 0)
(-0.156763 0.0498584 0)
(-0.210498 0.0630138 0)
(-0.2596 0.0634575 0)
(-0.292231 0.0467375 0)
(-0.300753 0.0148634 0)
(-0.281973 -0.0271496 0)
(-0.235933 -0.0711496 0)
(-0.166437 -0.100505 0)
(-0.0827258 -0.0864746 0)
(-0.0130606 -0.0140688 0)
(-0.00140409 0.00136518 0)
(-0.00691183 0.00657928 0)
(-0.0161754 0.00974813 0)
(-0.0268024 0.0115488 0)
(-0.0385149 0.0137202 0)
(-0.0524577 0.017786 0)
(-0.0704793 0.0252963 0)
(-0.0948961 0.0378861 0)
(-0.127798 0.0563595 0)
(-0.169576 0.0785195 0)
(-0.216905 0.0973568 0)
(-0.262108 0.102919 0)
(-0.296519 0.088038 0)
(-0.315398 0.052202 0)
(-0.317859 -0.00101991 0)
(-0.302967 -0.0675112 0)
(-0.268491 -0.139409 0)
(-0.211659 -0.196255 0)
(-0.130664 -0.192664 0)
(-0.0319266 -0.0634879 0)
(-0.00292295 0.00672403 0)
(-0.0124597 0.0171252 0)
(-0.0266954 0.0222626 0)
(-0.041778 0.0251687 0)
(-0.0573304 0.0290998 0)
(-0.0745414 0.0364643 0)
(-0.0947882 0.049208 0)
(-0.119251 0.068453 0)
(-0.14833 0.0930426 0)
(-0.180897 0.117777 0)
(-0.213411 0.13349 0)
(-0.240355 0.130863 0)
(-0.257757 0.105741 0)
(-0.266125 0.0600385 0)
(-0.26773 -0.00305328 0)
(-0.262394 -0.0823992 0)
(-0.246579 -0.175349 0)
(-0.212789 -0.266426 0)
(-0.149988 -0.302379 0)
(-0.044935 -0.15924 0)
(-0.00460915 0.0154805 0)
(-0.0181446 0.0323628 0)
(-0.036597 0.0388132 0)
(-0.054404 0.0417756 0)
(-0.0709125 0.0462403 0)
(-0.0869074 0.0551148 0)
(-0.102799 0.0702126 0)
(-0.118672 0.0918593 0)
(-0.134302 0.117517 0)
(-0.149032 0.140777 0)
(-0.161183 0.152563 0)
(-0.168275 0.145252 0)
(-0.169658 0.116819 0)
(-0.168229 0.0701334 0)
(-0.167778 0.00770079 0)
(-0.169905 -0.0721063 0)
(-0.172239 -0.173811 0)
(-0.16513 -0.29377 0)
(-0.130085 -0.384426 0)
(-0.0356966 -0.282393 0)
(-0.00667986 0.0279616 0)
(-0.0243259 0.0518952 0)
(-0.0460632 0.0579335 0)
(-0.0645463 0.0588603 0)
(-0.0790818 0.0614418 0)
(-0.0900938 0.0686182 0)
(-0.097139 0.0819234 0)
(-0.0997162 0.101329 0)
(-0.0978289 0.124013 0)
(-0.0922184 0.14373 0)
(-0.083772 0.152352 0)
(-0.0730055 0.143658 0)
(-0.0613635 0.116541 0)
(-0.052334 0.0738894 0)
(-0.0499853 0.0179444 0)
(-0.0570886 -0.0541457 0)
(-0.0734602 -0.152402 0)
(-0.089761 -0.286688 0)
(-0.084435 -0.425107 0)
(-0.00516386 -0.389475 0)
(-0.00975478 0.0450086 0)
(-0.0324857 0.0751014 0)
(-0.0566864 0.0776311 0)
(-0.0735897 0.0741716 0)
(-0.0836261 0.0722098 0)
(-0.0876245 0.0743719 0)
(-0.0847194 0.0819601 0)
(-0.0741312 0.0950761 0)
(-0.0560431 0.111572 0)
(-0.0321848 0.126462 0)
(-0.00555295 0.133158 0)
(0.0205723 0.126384 0)
(0.0428001 0.104814 0)
(0.0574272 0.0702316 0)
(0.0607619 0.0242335 0)
(0.0508011 -0.0366383 0)
(0.0258364 -0.12464 0)
(-0.00560585 -0.258776 0)
(-0.0260855 -0.426067 0)
(0.0372007 -0.457093 0)
(-0.0143837 0.0680098 0)
(-0.0427685 0.105168 0)
(-0.0717796 0.0986814 0)
(-0.0798921 0.0840526 0)
(-0.0789345 0.0745586 0)
(-0.072165 0.0697102 0)
(-0.0588953 0.0695336 0)
(-0.0382077 0.074197 0)
(-0.00986547 0.0825639 0)
(0.0249939 0.091418 0)
(0.0632483 0.0963057 0)
(0.100869 0.0930335 0)
(0.132923 0.0800789 0)
(0.155703 0.0575706 0)
(0.164078 0.0260796 0)
(0.157862 -0.018574 0)
(0.131151 -0.0878982 0)
(0.0942092 -0.203375 0)
(0.0519845 -0.37072 0)
(0.0955763 -0.454455 0)
(-0.0889019 0.1387 0)
(-0.0888138 0.122043 0)
(-0.0567058 0.0863074 0)
(-0.0256509 0.0689336 0)
(0.00424142 0.0577908 0)
(0.0324083 0.0496946 0)
(0.0604808 0.0444417 0)
(0.0904249 0.0422896 0)
(0.123325 0.0431023 0)
(0.160589 0.0455258 0)
(0.200277 0.047718 0)
(0.241726 0.0470571 0)
(0.278274 0.0425607 0)
(0.309806 0.0331738 0)
(0.325169 0.0190923 0)
(0.329004 -0.00318871 0)
(0.302775 -0.0410878 0)
(0.264378 -0.112338 0)
(0.19183 -0.240268 0)
(0.192286 -0.342175 0)
(0.189241 0.11113 0)
(0.232419 0.0979669 0)
(0.308201 0.0736108 0)
(0.373384 0.0568479 0)
(0.423371 0.0453123 0)
(0.463098 0.0367076 0)
(0.496122 0.030153 0)
(0.526079 0.0251763 0)
(0.553613 0.0217124 0)
(0.582292 0.0192506 0)
(0.609555 0.0176968 0)
(0.639353 0.0160924 0)
(0.663276 0.0145507 0)
(0.687594 0.0119479 0)
(0.695631 0.00900485 0)
(0.70011 0.00350095 0)
(0.668379 -0.0047576 0)
(0.625304 -0.0232637 0)
(0.500593 -0.055251 0)
(0.389971 -0.107984 0)
)
;

boundaryField
{
    movingWall
    {
        type            fixedValue;
        value           uniform (1 0 0);
    }
    fixedWalls
    {
        type            noSlip;
    }
    frontAndBack
    {
        type            empty;
    }
}


// ************************************************************************* //
