/*--------------------------------*- C++ -*----------------------------------*\
  =========                 |
  \\      /  F ield         | OpenFOAM: The Open Source CFD Toolbox
   \\    /   O peration     | Website:  https://openfoam.org
    \\  /    A nd           | Version:  6.0
     \\/     M anipulation  |
\*---------------------------------------------------------------------------*/
FoamFile
{
    version     2.0;
    format      ascii;
    class       volScalarField;
    location    "158";
    object      p;
}
// * * * * * * * * * * * * * * * * * * * * * * * * * * * * * * * * * * * * * //

dimensions      [0 2 -2 0 0 0 0];

internalField   nonuniform List<scalar> 
34500
(
1.00588
1.00602
1.00596
1.00575
1.00539
1.00494
1.00443
1.00389
1.00334
1.00282
1.00231
1.00189
1.00141
1.00124
1.00128
1.00588
1.00606
1.00606
1.00592
1.00565
1.00529
1.00486
1.00438
1.00386
1.00335
1.00282
1.00238
1.00183
1.00173
1.00168
1.00588
1.00605
1.00602
1.00585
1.00553
1.00513
1.00465
1.00413
1.00359
1.00306
1.00253
1.0021
1.0016
1.00162
1.00155
1.00588
1.00604
1.00599
1.0058
1.00545
1.00502
1.00451
1.00397
1.00341
1.00289
1.00237
1.00197
1.00152
1.00163
1.00169
1.00589
1.00605
1.00601
1.00582
1.00549
1.00506
1.00456
1.00404
1.00349
1.00297
1.00246
1.00207
1.00164
1.00178
1.00189
1.0059
1.00606
1.00603
1.00586
1.00554
1.00513
1.00465
1.00413
1.00359
1.00307
1.00256
1.00217
1.00174
1.00188
1.002
1.00591
1.00607
1.00605
1.00588
1.00557
1.00517
1.00469
1.00417
1.00363
1.00311
1.0026
1.0022
1.00178
1.00193
1.00208
1.00591
1.00608
1.00606
1.0059
1.00559
1.00518
1.0047
1.00419
1.00365
1.00313
1.00262
1.00222
1.00181
1.00197
1.00215
1.00592
1.00609
1.00607
1.00591
1.0056
1.0052
1.00472
1.00421
1.00367
1.00315
1.00264
1.00224
1.00185
1.002
1.0022
1.00594
1.0061
1.00608
1.00593
1.00563
1.00522
1.00475
1.00423
1.00369
1.00317
1.00266
1.00227
1.00188
1.00203
1.00224
1.00595
1.00612
1.0061
1.00595
1.00565
1.00525
1.00477
1.00425
1.00371
1.00319
1.00268
1.00229
1.00191
1.00205
1.00227
1.00596
1.00613
1.00611
1.00596
1.00567
1.00527
1.00479
1.00428
1.00373
1.00321
1.0027
1.00231
1.00194
1.00206
1.00229
1.00598
1.00615
1.00613
1.00598
1.00569
1.0053
1.00482
1.0043
1.00376
1.00323
1.00272
1.00234
1.00197
1.00208
1.0023
1.00599
1.00616
1.00615
1.00601
1.00571
1.00532
1.00485
1.00433
1.00379
1.00326
1.00275
1.00236
1.002
1.00209
1.00231
1.00601
1.00618
1.00617
1.00603
1.00574
1.00535
1.00488
1.00436
1.00381
1.00329
1.00277
1.00238
1.00202
1.0021
1.00231
1.00603
1.0062
1.00619
1.00605
1.00576
1.00538
1.0049
1.00439
1.00384
1.00331
1.00279
1.0024
1.00204
1.0021
1.0023
1.00605
1.00622
1.00621
1.00607
1.00579
1.0054
1.00493
1.00441
1.00386
1.00333
1.00281
1.00242
1.00206
1.0021
1.00229
1.00607
1.00625
1.00624
1.0061
1.00581
1.00543
1.00496
1.00444
1.00388
1.00335
1.00283
1.00243
1.00208
1.0021
1.00227
1.00609
1.00627
1.00626
1.00613
1.00584
1.00545
1.00498
1.00446
1.00391
1.00337
1.00285
1.00245
1.00209
1.00209
1.00225
1.00611
1.0063
1.00629
1.00615
1.00587
1.00548
1.00501
1.00448
1.00393
1.00339
1.00287
1.00246
1.00211
1.00209
1.00223
1.00614
1.00632
1.00632
1.00619
1.0059
1.00551
1.00504
1.00451
1.00395
1.00341
1.00289
1.00248
1.00212
1.00208
1.00221
1.00617
1.00635
1.00635
1.00622
1.00594
1.00555
1.00507
1.00454
1.00398
1.00344
1.00291
1.00249
1.00214
1.00208
1.00219
1.00619
1.00638
1.00638
1.00625
1.00597
1.00558
1.0051
1.00457
1.00401
1.00346
1.00293
1.00251
1.00215
1.00207
1.00216
1.00622
1.00641
1.00642
1.00629
1.00601
1.00562
1.00514
1.00461
1.00404
1.00349
1.00295
1.00252
1.00216
1.00206
1.00213
1.00625
1.00645
1.00645
1.00633
1.00605
1.00566
1.00518
1.00464
1.00407
1.00351
1.00297
1.00253
1.00216
1.00205
1.0021
1.00628
1.00648
1.00649
1.00637
1.00609
1.0057
1.00522
1.00468
1.0041
1.00353
1.00299
1.00254
1.00217
1.00204
1.00207
1.00632
1.00652
1.00652
1.0064
1.00613
1.00574
1.00525
1.00471
1.00413
1.00356
1.003
1.00255
1.00217
1.00202
1.00204
1.00635
1.00655
1.00656
1.00644
1.00617
1.00578
1.00529
1.00474
1.00416
1.00358
1.00302
1.00256
1.00217
1.002
1.00201
1.00639
1.00659
1.0066
1.00648
1.00621
1.00582
1.00532
1.00477
1.00418
1.0036
1.00303
1.00256
1.00217
1.00199
1.00197
1.00642
1.00663
1.00664
1.00652
1.00625
1.00585
1.00536
1.0048
1.00421
1.00362
1.00304
1.00257
1.00217
1.00197
1.00194
1.00646
1.00667
1.00668
1.00657
1.00629
1.00589
1.0054
1.00483
1.00423
1.00363
1.00306
1.00257
1.00216
1.00195
1.0019
1.0065
1.00671
1.00672
1.00661
1.00633
1.00593
1.00543
1.00487
1.00426
1.00365
1.00307
1.00257
1.00216
1.00193
1.00186
1.00654
1.00675
1.00677
1.00665
1.00637
1.00597
1.00547
1.0049
1.00428
1.00367
1.00308
1.00258
1.00215
1.00191
1.00183
1.00658
1.0068
1.00682
1.0067
1.00642
1.00602
1.00551
1.00493
1.00431
1.00369
1.00309
1.00258
1.00215
1.00189
1.00179
1.00662
1.00685
1.00686
1.00675
1.00647
1.00606
1.00555
1.00496
1.00434
1.00371
1.0031
1.00258
1.00214
1.00186
1.00175
1.00667
1.00689
1.00691
1.0068
1.00651
1.0061
1.00559
1.005
1.00436
1.00373
1.00311
1.00258
1.00213
1.00184
1.00171
1.00671
1.00694
1.00696
1.00685
1.00656
1.00615
1.00563
1.00503
1.00439
1.00375
1.00312
1.00258
1.00212
1.00182
1.00167
1.00676
1.00699
1.00701
1.0069
1.00661
1.0062
1.00567
1.00507
1.00442
1.00377
1.00313
1.00258
1.00211
1.00179
1.00163
1.00681
1.00704
1.00707
1.00696
1.00667
1.00625
1.00572
1.00511
1.00445
1.00379
1.00314
1.00258
1.0021
1.00177
1.00159
1.00686
1.0071
1.00712
1.00701
1.00672
1.0063
1.00576
1.00515
1.00448
1.00381
1.00315
1.00258
1.00209
1.00174
1.00155
1.00691
1.00715
1.00718
1.00707
1.00678
1.00635
1.00581
1.00518
1.00451
1.00383
1.00316
1.00257
1.00207
1.00171
1.00151
1.00696
1.00721
1.00723
1.00713
1.00683
1.0064
1.00585
1.00522
1.00454
1.00384
1.00317
1.00257
1.00206
1.00168
1.00146
1.00701
1.00727
1.00729
1.00718
1.00689
1.00645
1.0059
1.00526
1.00456
1.00386
1.00318
1.00256
1.00204
1.00165
1.00142
1.00707
1.00733
1.00735
1.00724
1.00694
1.00651
1.00594
1.0053
1.00459
1.00388
1.00318
1.00256
1.00202
1.00162
1.00137
1.00713
1.00739
1.00741
1.0073
1.007
1.00656
1.00599
1.00533
1.00462
1.0039
1.00319
1.00255
1.002
1.00159
1.00133
1.00719
1.00745
1.00748
1.00737
1.00706
1.00661
1.00604
1.00537
1.00465
1.00391
1.00319
1.00254
1.00198
1.00155
1.00128
1.00725
1.00751
1.00754
1.00743
1.00712
1.00667
1.00608
1.00541
1.00468
1.00393
1.0032
1.00253
1.00196
1.00152
1.00124
1.00731
1.00758
1.00761
1.0075
1.00718
1.00673
1.00613
1.00545
1.00471
1.00395
1.0032
1.00253
1.00194
1.00149
1.00119
1.00737
1.00765
1.00768
1.00757
1.00725
1.00678
1.00619
1.00549
1.00474
1.00396
1.00321
1.00252
1.00192
1.00145
1.00114
1.00744
1.00772
1.00775
1.00764
1.00732
1.00685
1.00624
1.00553
1.00477
1.00398
1.00321
1.00251
1.00189
1.00141
1.00109
1.00751
1.00779
1.00782
1.00771
1.00738
1.00691
1.00629
1.00558
1.0048
1.004
1.00321
1.0025
1.00187
1.00138
1.00104
1.00758
1.00786
1.00789
1.00778
1.00745
1.00697
1.00635
1.00562
1.00483
1.00402
1.00322
1.00249
1.00184
1.00134
1.00099
1.00765
1.00794
1.00797
1.00786
1.00753
1.00704
1.0064
1.00567
1.00486
1.00404
1.00322
1.00248
1.00182
1.0013
1.00094
1.00772
1.00802
1.00805
1.00794
1.0076
1.00711
1.00646
1.00571
1.0049
1.00405
1.00323
1.00246
1.00179
1.00126
1.00088
1.00779
1.0081
1.00813
1.00801
1.00767
1.00717
1.00652
1.00576
1.00493
1.00407
1.00323
1.00245
1.00176
1.00121
1.00083
1.00787
1.00818
1.00821
1.00809
1.00775
1.00724
1.00658
1.00581
1.00496
1.00409
1.00323
1.00243
1.00173
1.00117
1.00077
1.00795
1.00826
1.00829
1.00818
1.00783
1.00731
1.00664
1.00585
1.00499
1.00411
1.00323
1.00242
1.0017
1.00112
1.00071
1.00803
1.00834
1.00838
1.00826
1.00791
1.00738
1.0067
1.0059
1.00503
1.00412
1.00323
1.0024
1.00167
1.00108
1.00065
1.00811
1.00843
1.00846
1.00834
1.00799
1.00745
1.00676
1.00595
1.00506
1.00414
1.00323
1.00238
1.00163
1.00103
1.00059
1.00819
1.00852
1.00855
1.00843
1.00807
1.00753
1.00682
1.006
1.00509
1.00415
1.00323
1.00237
1.0016
1.00098
1.00053
1.00828
1.00861
1.00864
1.00852
1.00815
1.0076
1.00689
1.00605
1.00513
1.00417
1.00323
1.00235
1.00156
1.00093
1.00047
1.00837
1.0087
1.00873
1.00861
1.00824
1.00768
1.00695
1.0061
1.00516
1.00419
1.00322
1.00233
1.00153
1.00088
1.00041
1.00845
1.00879
1.00883
1.0087
1.00832
1.00776
1.00702
1.00615
1.00519
1.0042
1.00322
1.00231
1.00149
1.00083
1.00034
1.00855
1.00889
1.00892
1.0088
1.00841
1.00784
1.00708
1.0062
1.00523
1.00422
1.00322
1.00229
1.00145
1.00077
1.00027
1.00864
1.00899
1.00902
1.0089
1.0085
1.00792
1.00715
1.00625
1.00526
1.00424
1.00322
1.00226
1.00141
1.00072
1.0002
1.00874
1.00909
1.00912
1.009
1.00859
1.008
1.00722
1.00631
1.0053
1.00425
1.00321
1.00224
1.00137
1.00066
1.00013
1.00884
1.00919
1.00923
1.0091
1.00869
1.00809
1.0073
1.00636
1.00534
1.00427
1.00321
1.00222
1.00133
1.0006
1.00006
1.00894
1.0093
1.00933
1.0092
1.00879
1.00817
1.00737
1.00642
1.00538
1.00429
1.00321
1.00219
1.00128
1.00054
0.999989
1.00904
1.00941
1.00944
1.00931
1.00889
1.00826
1.00744
1.00648
1.00541
1.0043
1.0032
1.00217
1.00124
1.00048
0.999914
1.00914
1.00952
1.00955
1.00941
1.00899
1.00835
1.00752
1.00654
1.00545
1.00432
1.0032
1.00214
1.00119
1.00042
0.999837
1.00925
1.00963
1.00966
1.00953
1.00909
1.00845
1.0076
1.0066
1.00549
1.00434
1.00319
1.00211
1.00114
1.00035
0.999757
1.00936
1.00974
1.00978
1.00964
1.0092
1.00854
1.00768
1.00666
1.00553
1.00436
1.00318
1.00208
1.0011
1.00028
0.999676
1.00947
1.00986
1.00989
1.00975
1.0093
1.00864
1.00776
1.00672
1.00557
1.00437
1.00318
1.00205
1.00104
1.00022
0.999593
1.00959
1.00998
1.01001
1.00987
1.00941
1.00873
1.00784
1.00678
1.00561
1.00439
1.00317
1.00202
1.00099
1.00015
0.999508
1.0097
1.0101
1.01013
1.00999
1.00953
1.00883
1.00792
1.00684
1.00565
1.0044
1.00316
1.00199
1.00094
1.00007
0.99942
1.00982
1.01022
1.01026
1.01011
1.00964
1.00894
1.00801
1.00691
1.00569
1.00442
1.00315
1.00196
1.00088
0.999998
0.999331
1.00994
1.01035
1.01039
1.01024
1.00975
1.00904
1.00809
1.00697
1.00573
1.00443
1.00314
1.00192
1.00082
0.999922
0.99924
1.01007
1.01048
1.01051
1.01036
1.00987
1.00914
1.00818
1.00704
1.00577
1.00445
1.00313
1.00188
1.00076
0.999844
0.999147
1.0102
1.01061
1.01065
1.01049
1.00999
1.00925
1.00827
1.0071
1.00581
1.00446
1.00312
1.00185
1.0007
0.999763
0.999051
1.01032
1.01075
1.01078
1.01062
1.01012
1.00936
1.00836
1.00717
1.00586
1.00448
1.0031
1.00181
1.00064
0.999682
0.998953
1.01046
1.01089
1.01092
1.01076
1.01024
1.00947
1.00845
1.00724
1.0059
1.00449
1.00309
1.00177
1.00058
0.999597
0.998852
1.01059
1.01103
1.01106
1.0109
1.01037
1.00958
1.00854
1.00731
1.00594
1.00451
1.00308
1.00173
1.00051
0.999511
0.998749
1.01073
1.01117
1.0112
1.01104
1.0105
1.0097
1.00864
1.00738
1.00599
1.00453
1.00307
1.00169
1.00044
0.999422
0.998643
1.01087
1.01132
1.01135
1.01118
1.01063
1.00982
1.00874
1.00746
1.00604
1.00454
1.00305
1.00164
1.00037
0.999331
0.998535
1.01101
1.01147
1.0115
1.01133
1.01077
1.00994
1.00884
1.00753
1.00608
1.00456
1.00304
1.0016
1.0003
0.999237
0.998423
1.01116
1.01162
1.01165
1.01148
1.01091
1.01006
1.00894
1.00761
1.00613
1.00457
1.00302
1.00155
1.00023
0.99914
0.99831
1.01131
1.01178
1.01181
1.01163
1.01105
1.01019
1.00905
1.00769
1.00617
1.00459
1.003
1.0015
1.00015
0.999041
0.998193
1.01146
1.01193
1.01197
1.01178
1.0112
1.01032
1.00915
1.00776
1.00622
1.0046
1.00298
1.00145
1.00007
0.99894
0.998073
1.01161
1.0121
1.01213
1.01194
1.01134
1.01045
1.00926
1.00784
1.00627
1.00461
1.00296
1.0014
0.999994
0.998836
0.99795
1.01177
1.01226
1.01229
1.0121
1.01149
1.01058
1.00937
1.00792
1.00632
1.00463
1.00294
1.00135
0.999912
0.998729
0.997825
1.01193
1.01243
1.01246
1.01227
1.01165
1.01072
1.00948
1.008
1.00636
1.00464
1.00292
1.00129
0.999827
0.99862
0.997696
1.0121
1.0126
1.01263
1.01244
1.0118
1.01085
1.00959
1.00809
1.00641
1.00465
1.0029
1.00124
0.99974
0.998508
0.997565
1.01227
1.01278
1.01281
1.01261
1.01196
1.01099
1.00971
1.00817
1.00646
1.00467
1.00287
1.00118
0.999651
0.998393
0.99743
1.01244
1.01296
1.01299
1.01278
1.01212
1.01114
1.00982
1.00826
1.00651
1.00468
1.00285
1.00112
0.999559
0.998275
0.997292
1.01261
1.01314
1.01317
1.01296
1.01229
1.01128
1.00994
1.00834
1.00656
1.00469
1.00282
1.00106
0.999465
0.998154
0.99715
1.01279
1.01333
1.01336
1.01314
1.01246
1.01143
1.01006
1.00843
1.00661
1.0047
1.0028
1.00099
0.999368
0.998031
0.997005
1.01297
1.01352
1.01355
1.01333
1.01263
1.01158
1.01019
1.00852
1.00667
1.00472
1.00277
1.00093
0.999269
0.997903
0.996855
1.01316
1.01371
1.01374
1.01352
1.01281
1.01174
1.01031
1.00862
1.00672
1.00473
1.00274
1.00086
0.999167
0.997773
0.996703
1.01335
1.01391
1.01394
1.01371
1.01299
1.0119
1.01044
1.00871
1.00677
1.00474
1.00271
1.00079
0.999061
0.997638
0.996546
1.01354
1.01411
1.01414
1.01391
1.01317
1.01206
1.01057
1.0088
1.00683
1.00475
1.00267
1.00072
0.998953
0.997501
0.996386
1.01373
1.01432
1.01435
1.01411
1.01336
1.01222
1.01071
1.0089
1.00688
1.00476
1.00264
1.00064
0.998841
0.997359
0.996222
1.01394
1.01452
1.01456
1.01431
1.01355
1.01239
1.01084
1.009
1.00693
1.00477
1.0026
1.00056
0.998727
0.997215
0.996054
1.01414
1.01474
1.01477
1.01452
1.01374
1.01256
1.01098
1.0091
1.00699
1.00478
1.00257
1.00048
0.998609
0.997066
0.995881
1.01435
1.01496
1.01499
1.01474
1.01394
1.01273
1.01112
1.0092
1.00704
1.00478
1.00253
1.0004
0.998488
0.996914
0.995705
1.01456
1.01518
1.01521
1.01495
1.01414
1.01291
1.01126
1.0093
1.0071
1.00479
1.00249
1.00032
0.998364
0.996758
0.995524
1.01478
1.01541
1.01544
1.01518
1.01434
1.01309
1.01141
1.0094
1.00715
1.0048
1.00244
1.00023
0.998237
0.996599
0.99534
1.015
1.01564
1.01567
1.0154
1.01455
1.01327
1.01156
1.0095
1.00721
1.0048
1.0024
1.00014
0.998106
0.996435
0.99515
1.01523
1.01588
1.01591
1.01563
1.01477
1.01346
1.01171
1.00961
1.00727
1.00481
1.00235
1.00005
0.997973
0.996267
0.994956
1.01546
1.01612
1.01615
1.01587
1.01499
1.01365
1.01186
1.00972
1.00732
1.00481
1.00231
0.999952
0.997835
0.996095
0.994757
1.01569
1.01636
1.0164
1.01611
1.01521
1.01384
1.01202
1.00983
1.00738
1.00482
1.00226
0.999854
0.997694
0.995919
0.994554
1.01593
1.01661
1.01665
1.01635
1.01544
1.01404
1.01218
1.00994
1.00744
1.00482
1.00221
0.999753
0.997549
0.995738
0.994345
1.01617
1.01687
1.01691
1.0166
1.01567
1.01425
1.01234
1.01005
1.0075
1.00482
1.00215
0.999649
0.9974
0.995552
0.994132
1.01642
1.01713
1.01717
1.01686
1.0159
1.01445
1.0125
1.01017
1.00756
1.00482
1.0021
0.99954
0.997246
0.995362
0.993913
1.01668
1.0174
1.01743
1.01712
1.01615
1.01466
1.01267
1.01029
1.00762
1.00482
1.00204
0.999429
0.997088
0.995167
0.993689
1.01694
1.01767
1.01771
1.01739
1.01639
1.01488
1.01284
1.0104
1.00768
1.00482
1.00198
0.999313
0.996926
0.994966
0.993459
1.0172
1.01795
1.01799
1.01766
1.01664
1.0151
1.01302
1.01052
1.00774
1.00482
1.00191
0.999194
0.996759
0.994761
0.993225
1.01747
1.01823
1.01827
1.01793
1.0169
1.01532
1.01319
1.01064
1.00779
1.00481
1.00185
0.999071
0.996587
0.99455
0.992984
1.01775
1.01852
1.01856
1.01822
1.01716
1.01554
1.01337
1.01077
1.00785
1.0048
1.00178
0.998944
0.996412
0.994335
0.992739
1.01803
1.01881
1.01885
1.0185
1.01743
1.01578
1.01355
1.01089
1.00791
1.0048
1.00171
0.998813
0.996231
0.994114
0.992487
1.01832
1.01911
1.01916
1.0188
1.0177
1.01601
1.01374
1.01101
1.00797
1.00479
1.00163
0.998679
0.996046
0.993888
0.99223
1.01861
1.01942
1.01946
1.0191
1.01797
1.01625
1.01393
1.01114
1.00803
1.00477
1.00155
0.99854
0.995855
0.993655
0.991966
1.01891
1.01973
1.01978
1.0194
1.01826
1.01649
1.01412
1.01127
1.00809
1.00476
1.00147
0.998398
0.99566
0.993418
0.991696
1.01921
1.02005
1.0201
1.01971
1.01854
1.01674
1.01432
1.0114
1.00815
1.00475
1.00139
0.998251
0.995459
0.993174
0.99142
1.01953
1.02037
1.02042
1.02003
1.01884
1.017
1.01452
1.01153
1.00821
1.00473
1.0013
0.998099
0.995253
0.992925
0.991138
1.01984
1.02071
1.02076
1.02036
1.01914
1.01726
1.01472
1.01167
1.00827
1.00471
1.00121
0.997942
0.995041
0.992668
0.990848
1.02017
1.02105
1.0211
1.02069
1.01945
1.01752
1.01492
1.0118
1.00832
1.00469
1.00111
0.997781
0.994823
0.992406
0.990553
1.0205
1.02139
1.02145
1.02103
1.01976
1.01779
1.01513
1.01194
1.00838
1.00467
1.00101
0.997614
0.994599
0.992137
0.99025
1.02083
1.02174
1.0218
1.02138
1.02008
1.01806
1.01535
1.01208
1.00844
1.00465
1.00091
0.997442
0.994369
0.991862
0.989941
1.02118
1.0221
1.02217
1.02173
1.0204
1.01834
1.01556
1.01222
1.0085
1.00462
1.0008
0.997264
0.994133
0.991579
0.989624
1.02153
1.02247
1.02254
1.02209
1.02074
1.01863
1.01578
1.01236
1.00855
1.00459
1.00069
0.997081
0.993891
0.99129
0.9893
1.02189
1.02285
1.02291
1.02246
1.02107
1.01892
1.01601
1.0125
1.00861
1.00455
1.00058
0.996892
0.993641
0.990994
0.988968
1.02225
1.02323
1.0233
1.02283
1.02142
1.01922
1.01624
1.01265
1.00866
1.00452
1.00045
0.996697
0.993386
0.99069
0.98863
1.02263
1.02362
1.02369
1.02322
1.02177
1.01952
1.01647
1.01279
1.00871
1.00448
1.00033
0.996496
0.993122
0.990379
0.988283
1.02301
1.02402
1.0241
1.02361
1.02213
1.01983
1.0167
1.01294
1.00876
1.00443
1.0002
0.996289
0.992852
0.99006
0.987928
1.0234
1.02443
1.02451
1.02401
1.0225
1.02014
1.01694
1.01309
1.00881
1.00439
1.00006
0.996074
0.992574
0.989733
0.987565
1.02379
1.02484
1.02493
1.02442
1.02288
1.02046
1.01718
1.01324
1.00886
1.00434
0.999919
0.995853
0.992289
0.989398
0.987195
1.0242
1.02527
1.02536
1.02484
1.02326
1.02078
1.01743
1.01339
1.00891
1.00428
0.999771
0.995624
0.991995
0.989054
0.986815
1.02461
1.0257
1.02579
1.02526
1.02365
1.02112
1.01768
1.01354
1.00895
1.00422
0.999616
0.995388
0.991693
0.988703
0.986427
1.02503
1.02614
1.02624
1.0257
1.02405
1.02145
1.01793
1.01369
1.009
1.00416
0.999455
0.995144
0.991382
0.988341
0.98603
1.02546
1.02659
1.0267
1.02614
1.02446
1.0218
1.01819
1.01384
1.00904
1.00409
0.999287
0.994892
0.991064
0.987972
0.985624
1.0259
1.02705
1.02716
1.0266
1.02488
1.02215
1.01845
1.014
1.00908
1.00401
0.999112
0.994632
0.990735
0.987593
0.985209
1.02635
1.02753
1.02764
1.02706
1.0253
1.02251
1.01871
1.01415
1.00911
1.00393
0.99893
0.994363
0.990399
0.987206
0.984786
1.0268
1.02801
1.02813
1.02753
1.02574
1.02287
1.01898
1.0143
1.00914
1.00385
0.99874
0.994086
0.990052
0.986808
0.984353
1.02727
1.0285
1.02863
1.02802
1.02618
1.02324
1.01925
1.01445
1.00917
1.00376
0.998542
0.9938
0.989697
0.986402
0.983911
1.02775
1.029
1.02914
1.02851
1.02663
1.02362
1.01953
1.01461
1.0092
1.00366
0.998337
0.993504
0.989332
0.985985
0.983459
1.02823
1.02951
1.02966
1.02902
1.02709
1.024
1.0198
1.01476
1.00922
1.00356
0.998123
0.9932
0.988958
0.985559
0.982998
1.02873
1.03004
1.03019
1.02954
1.02756
1.02439
1.02009
1.01491
1.00924
1.00345
0.997901
0.992886
0.988572
0.985123
0.982526
1.02924
1.03057
1.03073
1.03007
1.02805
1.02479
1.02037
1.01507
1.00925
1.00333
0.99767
0.992562
0.988177
0.984676
0.982044
1.02976
1.03112
1.03129
1.03061
1.02854
1.0252
1.02066
1.01522
1.00926
1.00321
0.997429
0.992226
0.98777
0.984218
0.981551
1.03029
1.03168
1.03186
1.03116
1.02904
1.02562
1.02096
1.01537
1.00927
1.00308
0.997179
0.991881
0.987353
0.983749
0.981048
1.03083
1.03225
1.03244
1.03173
1.02955
1.02604
1.02125
1.01552
1.00927
1.00293
0.996918
0.991523
0.986923
0.983268
0.980534
1.03138
1.03283
1.03303
1.03231
1.03008
1.02647
1.02155
1.01567
1.00926
1.00279
0.996647
0.991154
0.986481
0.982776
0.980009
1.03194
1.03343
1.03364
1.0329
1.03061
1.0269
1.02185
1.01582
1.00925
1.00263
0.996363
0.990773
0.986027
0.982271
0.979472
1.03252
1.03404
1.03426
1.0335
1.03116
1.02735
1.02216
1.01596
1.00923
1.00246
0.996068
0.990378
0.98556
0.981755
0.978925
1.0331
1.03467
1.0349
1.03412
1.03172
1.0278
1.02247
1.0161
1.0092
1.00228
0.995761
0.98997
0.985079
0.981225
0.978365
1.03371
1.03531
1.03555
1.03475
1.03229
1.02826
1.02278
1.01624
1.00917
1.00209
0.99544
0.989549
0.984586
0.980684
0.977794
1.03432
1.03596
1.03621
1.0354
1.03287
1.02873
1.02309
1.01638
1.00913
1.00189
0.995106
0.989114
0.984078
0.980129
0.977211
1.03495
1.03663
1.03689
1.03606
1.03346
1.0292
1.0234
1.01651
1.00908
1.00167
0.994758
0.988664
0.983557
0.979561
0.976616
1.03559
1.03731
1.03759
1.03674
1.03407
1.02969
1.02372
1.01664
1.00902
1.00145
0.994395
0.9882
0.983021
0.978979
0.976009
1.03625
1.03801
1.03831
1.03743
1.03469
1.03018
1.02404
1.01676
1.00895
1.00121
0.994018
0.98772
0.982471
0.978385
0.97539
1.03692
1.03873
1.03904
1.03814
1.03533
1.03068
1.02436
1.01687
1.00886
1.00095
0.993625
0.987224
0.981906
0.977775
0.974757
1.0376
1.03946
1.03978
1.03887
1.03597
1.03118
1.02467
1.01698
1.00877
1.00068
0.993217
0.986713
0.981325
0.977153
0.974113
1.0383
1.04021
1.04055
1.03961
1.03663
1.0317
1.02499
1.01709
1.00867
1.0004
0.992791
0.986185
0.980728
0.976515
0.973455
1.03902
1.04098
1.04134
1.04037
1.03731
1.03222
1.02531
1.01718
1.00855
1.0001
0.992349
0.98564
0.980115
0.975863
0.972785
1.03975
1.04176
1.04214
1.04115
1.038
1.03275
1.02563
1.01727
1.00842
0.999783
0.991888
0.985076
0.979485
0.975195
0.9721
1.0405
1.04257
1.04297
1.04195
1.0387
1.03329
1.02595
1.01735
1.00828
0.99945
0.991409
0.984495
0.978839
0.974512
0.971403
1.04127
1.04339
1.04381
1.04277
1.03942
1.03383
1.02627
1.01742
1.00812
0.999097
0.99091
0.983894
0.978174
0.973813
0.970691
1.04206
1.04424
1.04468
1.04361
1.04015
1.03438
1.02658
1.01748
1.00794
0.998725
0.990392
0.983274
0.977492
0.973099
0.969966
1.04286
1.0451
1.04556
1.04447
1.0409
1.03494
1.0269
1.01753
1.00775
0.998333
0.989851
0.982634
0.976791
0.972367
0.969225
1.04369
1.04599
1.04647
1.04535
1.04167
1.03551
1.0272
1.01757
1.00754
0.997919
0.989289
0.981973
0.976072
0.97162
0.968471
1.04453
1.0469
1.04741
1.04625
1.04245
1.03608
1.02751
1.01759
1.0073
0.997483
0.988704
0.98129
0.975333
0.970855
0.967701
1.0454
1.04783
1.04836
1.04717
1.04324
1.03666
1.02781
1.0176
1.00705
0.997024
0.988096
0.980586
0.974574
0.970073
0.966917
1.04628
1.04879
1.04935
1.04812
1.04406
1.03724
1.0281
1.01759
1.00678
0.996539
0.987463
0.979858
0.973795
0.969273
0.966117
1.04719
1.04977
1.05035
1.04909
1.04488
1.03783
1.02838
1.01756
1.00648
0.996029
0.986805
0.979108
0.972996
0.968456
0.965303
1.04812
1.05077
1.05139
1.05008
1.04573
1.03842
1.02866
1.01752
1.00616
0.995492
0.986121
0.978333
0.972175
0.96762
0.964472
1.04907
1.0518
1.05245
1.0511
1.04659
1.03901
1.02892
1.01745
1.00581
0.994928
0.985409
0.977534
0.971333
0.966767
0.963626
1.05004
1.05286
1.05354
1.05214
1.04747
1.03961
1.02918
1.01737
1.00543
0.994333
0.98467
0.97671
0.97047
0.965894
0.962763
1.05105
1.05395
1.05466
1.05321
1.04836
1.04021
1.02942
1.01725
1.00502
0.993709
0.983902
0.97586
0.969584
0.965003
0.961885
1.05207
1.05506
1.05581
1.05431
1.04928
1.04081
1.02964
1.01712
1.00458
0.993052
0.983104
0.974984
0.968676
0.964092
0.96099
1.05312
1.05621
1.05699
1.05544
1.0502
1.04142
1.02985
1.01695
1.00411
0.992363
0.982276
0.974082
0.967745
0.963162
0.960078
1.0542
1.05738
1.05821
1.05659
1.05115
1.04202
1.03005
1.01676
1.00361
0.991639
0.981416
0.973151
0.96679
0.962212
0.95915
1.05531
1.05859
1.05946
1.05778
1.05211
1.04261
1.03022
1.01653
1.00307
0.990879
0.980523
0.972193
0.965812
0.961242
0.958205
1.05645
1.05983
1.06074
1.05899
1.05308
1.0432
1.03037
1.01627
1.00249
0.990081
0.979597
0.971205
0.964809
0.960252
0.957242
1.05762
1.06111
1.06206
1.06024
1.05408
1.04379
1.03049
1.01598
1.00187
0.989246
0.978636
0.970188
0.963782
0.959241
0.956262
1.05881
1.06242
1.06342
1.06152
1.05508
1.04437
1.03059
1.01564
1.00121
0.988369
0.97764
0.969141
0.96273
0.958209
0.955265
1.06004
1.06377
1.06482
1.06283
1.0561
1.04494
1.03066
1.01527
1.0005
0.987452
0.976608
0.968064
0.961652
0.957157
0.95425
1.06131
1.06516
1.06626
1.06417
1.05713
1.04549
1.03069
1.01485
0.999752
0.986491
0.975538
0.966955
0.960549
0.956083
0.953217
1.06261
1.06659
1.06774
1.06555
1.05818
1.04603
1.03069
1.01438
0.99895
0.985485
0.97443
0.965815
0.95942
0.954988
0.952167
1.06394
1.06806
1.06927
1.06696
1.05924
1.04656
1.03064
1.01386
0.998098
0.984433
0.973282
0.964642
0.958264
0.953871
0.951098
1.06532
1.06958
1.07084
1.06841
1.0603
1.04706
1.03056
1.01329
0.997192
0.983334
0.972095
0.963437
0.957082
0.952733
0.950012
1.06673
1.07114
1.07246
1.06989
1.06137
1.04754
1.03042
1.01266
0.99623
0.982185
0.970866
0.962198
0.955873
0.951572
0.948907
1.06818
1.07275
1.07413
1.07141
1.06245
1.04798
1.03023
1.01197
0.99521
0.980985
0.969595
0.960925
0.954637
0.95039
0.947785
1.06967
1.0744
1.07586
1.07296
1.06353
1.0484
1.02999
1.01121
0.99413
0.979733
0.968281
0.959618
0.953373
0.949185
0.946643
1.07121
1.07612
1.07764
1.07456
1.06461
1.04878
1.02968
1.01039
0.992986
0.978428
0.966924
0.958277
0.952082
0.947958
0.945484
1.07279
1.07788
1.07947
1.07618
1.06569
1.04911
1.02931
1.0095
0.991777
0.977067
0.965523
0.9569
0.950763
0.946709
0.944306
1.07442
1.0797
1.08137
1.07785
1.06676
1.0494
1.02887
1.00853
0.990499
0.97565
0.964076
0.955488
0.949417
0.945438
0.943111
1.0761
1.08159
1.08332
1.07955
1.06782
1.04963
1.02835
1.00748
0.989151
0.974174
0.962583
0.95404
0.948042
0.944144
0.941896
1.07783
1.08353
1.08534
1.08128
1.06886
1.0498
1.02775
1.00635
0.98773
0.97264
0.961045
0.952557
0.94664
0.942828
0.940664
1.07962
1.08555
1.08742
1.08305
1.06989
1.04991
1.02705
1.00513
0.986234
0.971045
0.959459
0.951037
0.945209
0.94149
0.939413
1.08145
1.08763
1.08957
1.08484
1.07088
1.04993
1.02626
1.00381
0.98466
0.969388
0.957826
0.949481
0.943751
0.94013
0.938145
1.08335
1.08979
1.0918
1.08667
1.07185
1.04988
1.02537
1.0024
0.983006
0.967669
0.956145
0.947889
0.942264
0.938748
0.936858
1.08531
1.09202
1.09409
1.08853
1.07277
1.04973
1.02437
1.00089
0.98127
0.965886
0.954416
0.946261
0.940751
0.937344
0.935554
1.08733
1.09433
1.09646
1.0904
1.07364
1.04948
1.02325
0.999278
0.979449
0.964039
0.952638
0.944596
0.939209
0.935918
0.934231
1.08942
1.09674
1.09891
1.0923
1.07445
1.04912
1.02201
0.997554
0.977543
0.962126
0.950813
0.942897
0.937641
0.934471
0.932891
1.09158
1.09923
1.10144
1.09421
1.0752
1.04863
1.02064
0.995718
0.975548
0.960148
0.948939
0.941161
0.936045
0.933003
0.931534
1.09381
1.10182
1.10405
1.09613
1.07586
1.04801
1.01913
0.993765
0.973465
0.958104
0.947017
0.93939
0.934423
0.931513
0.930159
1.09612
1.10451
1.10674
1.09805
1.07643
1.04724
1.01747
0.991692
0.97129
0.955993
0.945047
0.937584
0.932774
0.930003
0.928767
1.09851
1.10731
1.10951
1.09996
1.07688
1.04632
1.01566
0.989495
0.969024
0.953817
0.94303
0.935744
0.9311
0.928473
0.927359
1.10099
1.11022
1.11237
1.10185
1.07722
1.04522
1.01368
0.987171
0.966666
0.951574
0.940966
0.93387
0.929401
0.926923
0.925934
1.10356
1.11326
1.11531
1.10371
1.07741
1.04393
1.01154
0.984719
0.964214
0.949265
0.938856
0.931963
0.927677
0.925354
0.924492
1.10622
1.11642
1.11834
1.10553
1.07745
1.04245
1.00921
0.982134
0.96167
0.946892
0.936701
0.930024
0.925929
0.923765
0.923035
1.10898
1.11972
1.12144
1.10729
1.0773
1.04075
1.00671
0.979417
0.959032
0.944454
0.934502
0.928055
0.924158
0.922158
0.921563
1.11186
1.12316
1.12462
1.10897
1.07696
1.03882
1.00402
0.976565
0.956303
0.941953
0.932259
0.926054
0.922364
0.920533
0.920075
1.11484
1.12676
1.12786
1.11056
1.07638
1.03664
1.00113
0.973578
0.953482
0.939391
0.929976
0.924025
0.920549
0.918891
0.918572
1.11795
1.13051
1.13118
1.11202
1.07557
1.0342
0.998044
0.970456
0.950571
0.936769
0.927652
0.921968
0.918713
0.917231
0.917054
1.12119
1.13444
1.13454
1.11334
1.07447
1.03149
0.994755
0.9672
0.947572
0.934088
0.92529
0.919885
0.916857
0.915555
0.915523
1.12458
1.13854
1.13794
1.11448
1.07308
1.0285
0.99126
0.963812
0.944487
0.931352
0.922892
0.917777
0.914982
0.913864
0.913977
1.12811
1.14283
1.14137
1.11542
1.07135
1.0252
0.987558
0.960293
0.94132
0.928563
0.92046
0.915645
0.913089
0.912158
0.912418
1.13181
1.14731
1.14481
1.11611
1.06926
1.02159
0.98365
0.956648
0.938072
0.925723
0.917996
0.913492
0.91118
0.910437
0.910847
1.13569
1.15199
1.14823
1.11651
1.06679
1.01766
0.979536
0.95288
0.934748
0.922836
0.915502
0.911318
0.909255
0.908703
0.909262
1.13975
1.15687
1.1516
1.11659
1.06389
1.01339
0.975221
0.948994
0.931352
0.919905
0.912981
0.909127
0.907316
0.906957
0.907666
1.14403
1.16197
1.15489
1.11629
1.06054
1.00879
0.970709
0.944996
0.927889
0.916933
0.910437
0.906919
0.905363
0.905198
0.906057
1.14853
1.16727
1.15807
1.11556
1.05671
1.00385
0.966008
0.940893
0.924362
0.913925
0.907871
0.904696
0.903399
0.903429
0.904438
1.15329
1.17278
1.16108
1.11436
1.05238
0.998571
0.961127
0.936693
0.920778
0.910885
0.905287
0.902461
0.901424
0.901649
0.902808
1.15831
1.1785
1.16387
1.11261
1.04751
0.992953
0.956077
0.932402
0.917143
0.907817
0.902689
0.900216
0.89944
0.89986
0.901168
1.16363
1.1844
1.16638
1.11027
1.04208
0.987007
0.95087
0.928031
0.913462
0.904726
0.900079
0.897963
0.897448
0.898062
0.899518
1.16928
1.19049
1.16855
1.10726
1.03608
0.980743
0.945523
0.923589
0.909742
0.901618
0.89746
0.895704
0.895449
0.896256
0.897859
1.17529
1.19672
1.17029
1.10353
1.02948
0.97418
0.940051
0.919085
0.90599
0.898496
0.894837
0.893441
0.893446
0.894443
0.896191
1.18169
1.20308
1.17151
1.099
1.0223
0.967339
0.934472
0.914529
0.902213
0.895367
0.892213
0.891177
0.891438
0.892625
0.894515
1.18852
1.2095
1.17212
1.09362
1.01451
0.960248
0.928807
0.909933
0.898419
0.892237
0.889591
0.888913
0.889428
0.890801
0.892831
1.19582
1.21595
1.17201
1.08733
1.00615
0.952938
0.923075
0.905307
0.894616
0.889111
0.886976
0.886652
0.887418
0.888973
0.89114
1.20364
1.22235
1.17107
1.08006
0.997213
0.945447
0.917298
0.900662
0.890811
0.885995
0.88437
0.884396
0.885407
0.887142
0.889441
1.21202
1.22861
1.16916
1.07177
0.987746
0.937816
0.911496
0.896008
0.887012
0.882895
0.881778
0.882147
0.883398
0.885308
0.887737
1.221
1.23463
1.16615
1.06242
0.977792
0.930092
0.905689
0.891357
0.883231
0.879818
0.879202
0.879907
0.881392
0.883471
0.886026
1.23063
1.24027
1.16191
1.05199
0.967407
0.92232
0.899897
0.886719
0.879473
0.876768
0.876646
0.877677
0.87939
0.881634
0.88431
1.24095
1.24538
1.15627
1.04046
0.956667
0.914552
0.894139
0.882106
0.875751
0.873753
0.874114
0.875461
0.877394
0.879796
0.882588
1.25201
1.24979
1.1491
1.02786
0.945658
0.906836
0.888429
0.877529
0.872072
0.870777
0.871607
0.873259
0.875404
0.877959
0.880862
1.26383
1.25327
1.14025
1.01422
0.93448
0.899218
0.882785
0.873
0.868448
0.867848
0.86913
0.871074
0.873422
0.876122
0.879131
1.27642
1.25558
1.12956
0.999606
0.923244
0.891741
0.877218
0.868531
0.864888
0.864969
0.866686
0.868907
0.871448
0.874288
0.877396
1.28979
1.25642
1.11691
0.984137
0.912069
0.884441
0.871741
0.864137
0.861402
0.862148
0.864276