1.45 	0 	0 	-0.300748
2.35 	0 	0 	-0.133737
