1.45 	0 	0 	-0.00777079 	-0.00258685 	3.82036e-21
2.35 	0 	0 	0.0621121 	-0.00665594 	2.3384e-21
