/*--------------------------------*- C++ -*----------------------------------*\
  =========                 |
  \\      /  F ield         | OpenFOAM: The Open Source CFD Toolbox
   \\    /   O peration     | Website:  https://openfoam.org
    \\  /    A nd           | Version:  6.0
     \\/     M anipulation  |
\*---------------------------------------------------------------------------*/
FoamFile
{
    version     2.0;
    format      ascii;
    class       volScalarField;
    location    "7";
    object      p;
}
// * * * * * * * * * * * * * * * * * * * * * * * * * * * * * * * * * * * * * //

dimensions      [0 2 -2 0 0 0 0];

internalField   nonuniform List<scalar> 
8000
(
-0.341839
-0.346177
-0.348691
-0.350141
-0.35098
-0.351284
-0.351136
-0.35062
-0.349805
-0.348746
-0.347492
-0.346082
-0.344553
-0.342934
-0.341251
-0.339531
-0.33779
-0.336015
-0.334205
-0.332704
-0.342532
-0.346818
-0.349288
-0.350698
-0.351495
-0.35176
-0.351574
-0.351021
-0.350169
-0.349075
-0.347786
-0.346343
-0.344781
-0.34313
-0.341417
-0.339668
-0.337901
-0.336098
-0.334262
-0.332751
-0.343919
-0.348101
-0.350483
-0.351811
-0.352528
-0.352713
-0.35245
-0.351823
-0.350898
-0.349733
-0.348375
-0.346864
-0.345236
-0.343521
-0.341746
-0.339939
-0.338117
-0.336261
-0.33437
-0.33284
-0.346003
-0.350028
-0.352277
-0.353481
-0.354075
-0.354142
-0.353763
-0.353023
-0.351989
-0.350717
-0.349253
-0.34764
-0.345912
-0.3441
-0.342232
-0.340335
-0.33843
-0.336492
-0.334519
-0.332962
-0.34879
-0.352601
-0.354671
-0.355708
-0.356137
-0.356044
-0.35551
-0.354619
-0.353438
-0.352022
-0.350418
-0.348666
-0.346803
-0.344859
-0.342864
-0.340846
-0.338826
-0.336776
-0.334692
-0.333101
-0.352286
-0.355824
-0.357665
-0.35849
-0.358712
-0.358416
-0.357687
-0.356607
-0.355241
-0.353645
-0.351863
-0.349937
-0.347902
-0.345789
-0.34363
-0.341456
-0.339288
-0.337092
-0.334864
-0.333235
-0.356499
-0.3597
-0.361261
-0.361828
-0.361797
-0.361257
-0.360293
-0.358984
-0.357396
-0.355581
-0.353584
-0.351445
-0.349199
-0.34688
-0.344518
-0.342148
-0.339795
-0.337415
-0.335009
-0.333337
-0.361439
-0.364235
-0.36546
-0.365719
-0.36539
-0.364563
-0.363323
-0.361747
-0.359898
-0.357827
-0.355577
-0.353186
-0.35069
-0.348121
-0.345514
-0.342906
-0.340324
-0.337716
-0.335089
-0.333371
-0.367118
-0.369431
-0.37026
-0.370162
-0.369486
-0.368329
-0.366772
-0.364892
-0.362746
-0.360382
-0.357841
-0.355159
-0.35237
-0.349507
-0.346606
-0.343711
-0.34085
-0.337959
-0.335062
-0.333292
-0.373547
-0.375291
-0.375661
-0.375151
-0.374081
-0.37255
-0.370637
-0.368415
-0.365937
-0.363245
-0.360376
-0.357364
-0.354239
-0.351035
-0.347788
-0.344547
-0.341346
-0.338108
-0.334875
-0.333041
-0.380736
-0.381816
-0.381657
-0.38068
-0.379167
-0.377219
-0.374913
-0.372314
-0.369471
-0.366419
-0.363189
-0.359808
-0.356304
-0.352707
-0.349056
-0.345404
-0.341788
-0.338119
-0.334465
-0.33254
-0.388689
-0.389002
-0.38824
-0.386739
-0.384734
-0.382327
-0.379592
-0.376586
-0.37335
-0.36991
-0.366288
-0.362505
-0.35858
-0.354539
-0.350418
-0.346276
-0.342155
-0.337945
-0.333753
-0.331689
-0.397406
-0.396838
-0.395397
-0.393313
-0.390767
-0.387862
-0.384666
-0.381227
-0.377575
-0.373726
-0.36969
-0.365477
-0.361094
-0.356557
-0.351897
-0.347174
-0.342433
-0.337541
-0.332644
-0.330351
-0.406873
-0.405305
-0.403106
-0.400382
-0.397249
-0.393808
-0.390124
-0.386232
-0.382149
-0.377879
-0.373418
-0.368757
-0.363888
-0.358811
-0.353541
-0.348135
-0.342633
-0.336868
-0.331024
-0.32834
-0.417065
-0.414376
-0.41134
-0.40792
-0.404155
-0.400147
-0.395952
-0.391593
-0.387074
-0.382384
-0.3775
-0.372392
-0.367029
-0.361381
-0.355438
-0.349239
-0.342805
-0.335908
-0.328754
-0.325393
-0.427937
-0.424009
-0.420061
-0.415893
-0.411456
-0.406852
-0.40213
-0.3973
-0.392352
-0.387258
-0.381974
-0.376447
-0.37061
-0.364394
-0.357744
-0.350651
-0.343091
-0.33472
-0.325713
-0.321202
-0.439429
-0.434153
-0.429224
-0.424261
-0.419118
-0.413896
-0.408638
-0.403341
-0.397982
-0.392519
-0.386889
-0.381007
-0.374771
-0.368057
-0.360736
-0.352724
-0.343902
-0.333715
-0.322133
-0.315659
-0.45146
-0.444743
-0.438776
-0.432978
-0.427101
-0.421244
-0.415447
-0.409696
-0.403959
-0.398184
-0.39229
-0.38617
-0.379681
-0.372635
-0.364807
-0.355996
-0.345936
-0.333643
-0.318238
-0.307675
-0.463934
-0.455705
-0.448655
-0.441993
-0.43536
-0.428859
-0.422524
-0.41634
-0.41027
-0.404258
-0.398221
-0.392038
-0.385533
-0.378448
-0.370426
-0.361057
-0.349711
-0.334258
-0.31135
-0.290991
-0.476741
-0.466956
-0.458795
-0.45125
-0.443849
-0.436697
-0.429833
-0.423239
-0.416886
-0.410733
-0.404716
-0.398741
-0.39266
-0.386229
-0.379059
-0.370595
-0.359664
-0.342428
-0.312397
-0.281828
-0.489767
-0.478412
-0.46913
-0.460693
-0.452517
-0.444714
-0.437324
-0.430337
-0.423739
-0.417519
-0.411668
-0.406184
-0.401075
-0.39638
-0.392219
-0.388877
-0.386658
-0.385726
-0.389916
-0.414575
-0.502896
-0.489984
-0.479588
-0.470263
-0.461315
-0.452861
-0.444944
-0.43756
-0.43071
-0.424408
-0.418688
-0.413607
-0.409266
-0.405832
-0.403596
-0.402996
-0.404474
-0.408881
-0.420895
-0.448097
-0.516017
-0.501588
-0.490102
-0.479905
-0.470195
-0.461093
-0.452647
-0.444851
-0.437716
-0.431271
-0.425571
-0.420699
-0.416787
-0.414026
-0.412705
-0.413186
-0.415765
-0.421075
-0.432385
-0.452548
-0.52903
-0.513143
-0.500605
-0.489564
-0.479111
-0.469372
-0.460394
-0.452168
-0.444708
-0.438046
-0.432242
-0.427383
-0.423595
-0.421049
-0.419977
-0.420628
-0.423145
-0.427931
-0.437253
-0.451601
-0.541842
-0.52457
-0.511031
-0.499183
-0.488015
-0.477655
-0.468146
-0.459474
-0.451645
-0.444689
-0.438656
-0.433619
-0.429679
-0.426961
-0.42562
-0.425789
-0.427477
-0.430924
-0.437845
-0.447544
-0.554367
-0.535791
-0.521311
-0.508701
-0.496853
-0.485893
-0.475857
-0.466722
-0.458482
-0.451155
-0.444774
-0.439389
-0.435062
-0.43187
-0.429894
-0.429172
-0.429621
-0.431395
-0.435877
-0.441681
-0.566523
-0.546725
-0.531369
-0.518048
-0.50556
-0.494023
-0.483467
-0.473851
-0.465157
-0.457386
-0.450548
-0.444665
-0.439764
-0.435872
-0.433013
-0.431158
-0.430175
-0.430179
-0.432327
-0.43481
-0.578222
-0.557288
-0.541122
-0.527145
-0.514056
-0.501968
-0.490896
-0.480782
-0.471592
-0.463306
-0.455912
-0.449405
-0.443778
-0.439021
-0.435114
-0.431989
-0.429493
-0.427731
-0.427678
-0.427291
-0.58937
-0.567381
-0.550475
-0.535896
-0.522249
-0.509633
-0.498047
-0.487417
-0.477687
-0.468821
-0.460784
-0.453546
-0.447076
-0.441335
-0.436277
-0.431812
-0.427789
-0.424312
-0.422199
-0.419319
-0.59986
-0.576898
-0.55932
-0.544195
-0.53003
-0.516907
-0.504808
-0.493639
-0.483329
-0.473821
-0.465064
-0.457009
-0.449607
-0.442802
-0.436535
-0.430708
-0.425184
-0.420071
-0.416044
-0.411002
-0.609567
-0.585716
-0.567536
-0.551919
-0.537274
-0.523662
-0.511048
-0.499319
-0.488387
-0.478182
-0.46864
-0.459701
-0.451303
-0.443386
-0.435884
-0.428706
-0.421735
-0.415081
-0.409292
-0.402384
-0.618354
-0.5937
-0.574988
-0.558933
-0.543843
-0.529759
-0.516625
-0.504313
-0.492722
-0.481772
-0.471392
-0.461516
-0.452082
-0.443028
-0.434294
-0.425801
-0.417455
-0.409366
-0.401969
-0.393468
-0.626063
-0.600699
-0.581528
-0.565087
-0.549587
-0.535044
-0.521386
-0.508469
-0.496185
-0.48445
-0.473191
-0.462344
-0.451851
-0.441658
-0.431715
-0.421959
-0.412324
-0.402914
-0.394064
-0.384217
-0.632526
-0.606552
-0.586997
-0.570223
-0.554345
-0.539355
-0.525167
-0.511626
-0.498621
-0.486069
-0.473902
-0.462064
-0.450507
-0.439191
-0.428079
-0.417129
-0.406298
-0.395684
-0.385535
-0.374569
-0.637559
-0.611086
-0.591226
-0.574173
-0.557949
-0.542525
-0.527801
-0.51362
-0.499871
-0.48648
-0.473388
-0.460555
-0.447946
-0.435538
-0.423311
-0.411244
-0.399318
-0.38762
-0.376321
-0.364444
-0.640972
-0.614122
-0.59404
-0.576761
-0.560224
-0.544379
-0.529118
-0.514284
-0.499777
-0.485533
-0.471514
-0.457693
-0.444058
-0.430603
-0.417327
-0.40423
-0.391314
-0.378652
-0.366349
-0.353748
-0.64257
-0.615474
-0.595259
-0.57781
-0.560993
-0.544741
-0.528943
-0.513452
-0.498179
-0.483083
-0.468144
-0.453359
-0.438736
-0.424292
-0.410043
-0.396009
-0.382211
-0.368703
-0.355539
-0.342382
-0.642157
-0.614957
-0.5947
-0.577139
-0.560077
-0.543436
-0.527108
-0.51096
-0.494925
-0.478986
-0.463148
-0.447435
-0.431877
-0.416511
-0.401374
-0.386503
-0.371933
-0.357699
-0.343806
-0.330247
-0.639536
-0.612387
-0.592185
-0.57457
-0.557302
-0.540292
-0.523446
-0.506651
-0.489867
-0.473107
-0.456405
-0.439812
-0.423383
-0.407175
-0.391243
-0.375637
-0.360407
-0.345563
-0.331071
-0.317249
-0.634523
-0.607584
-0.587536
-0.569931
-0.552496
-0.535145
-0.5178
-0.500376
-0.482868
-0.465321
-0.447803
-0.430391
-0.413167
-0.396206
-0.379576
-0.363345
-0.347568
-0.332229
-0.31726
-0.303302
-0.626941
-0.600381
-0.58059
-0.563057
-0.5455
-0.527839
-0.510021
-0.491998
-0.473802
-0.455516
-0.437242
-0.419087
-0.401153
-0.383535
-0.366315
-0.349569
-0.333359
-0.317639
-0.302311
-0.28833
-0.616619
-0.590611
-0.571184
-0.55379
-0.536161
-0.518228
-0.499974
-0.481392
-0.462558
-0.443595
-0.424639
-0.405825
-0.387279
-0.369109
-0.351409
-0.334263
-0.317733
-0.301744
-0.28617
-0.27227
-0.603412
-0.578135
-0.559178
-0.541993
-0.524344
-0.506186
-0.487542
-0.468453
-0.449044
-0.429478
-0.409926
-0.390551
-0.371498
-0.352889
-0.334825
-0.317394
-0.300659
-0.284512
-0.268799
-0.255076
-0.587195
-0.562826
-0.544447
-0.527542
-0.509932
-0.491603
-0.472626
-0.453095
-0.433186
-0.413104
-0.393055
-0.373226
-0.353782
-0.334852
-0.316543
-0.298947
-0.282121
-0.265924
-0.250174
-0.236714
-0.567862
-0.544578
-0.526886
-0.510335
-0.492828
-0.474391
-0.455148
-0.435253
-0.414932
-0.394435
-0.373998
-0.353835
-0.33412
-0.314994
-0.296563
-0.278919
-0.262115
-0.245976
-0.230287
-0.217166
-0.545334
-0.523312
-0.506412
-0.490292
-0.472959
-0.454486
-0.435056
-0.414886
-0.394255
-0.373454
-0.352751
-0.332378
-0.312522
-0.293327
-0.274899
-0.257328
-0.240658
-0.22468
-0.209146
-0.196432
-0.519562
-0.498972
-0.482971
-0.467359
-0.450276
-0.431847
-0.412321
-0.391978
-0.37115
-0.350169
-0.32933
-0.308881
-0.289018
-0.269886
-0.251587
-0.234206
-0.217781
-0.202066
-0.186775
-0.174528
-0.490524
-0.471531
-0.456532
-0.44151
-0.424759
-0.406465
-0.386942
-0.366539
-0.34564
-0.324611
-0.303774
-0.28339
-0.263658
-0.244723
-0.226679
-0.209607
-0.193536
-0.178182
-0.163217
-0.151486
-0.458231
-0.440993
-0.427096
-0.412747
-0.396417
-0.378354
-0.358947
-0.338609
-0.317772
-0.296838
-0.276148
-0.255973
-0.236514
-0.21791
-0.200249
-0.183603
-0.16799
-0.153095
-0.138533
-0.127356
-0.422726
-0.407392
-0.394696
-0.381104
-0.365287
-0.347563
-0.328392
-0.308251
-0.287619
-0.266929
-0.246537
-0.22672
-0.207678
-0.189541
-0.172389
-0.156283
-0.141234
-0.12689
-0.112806
-0.102211
-0.384087
-0.370797
-0.359394
-0.346645
-0.331439
-0.314167
-0.29536
-0.275556
-0.25528
-0.234988
-0.215049
-0.195741
-0.17726
-0.159728
-0.14321
-0.12776
-0.113378
-0.099678
-0.0861404
-0.076144
-0.342424
-0.331306
-0.321287
-0.309467
-0.294974
-0.278272
-0.259963
-0.240644
-0.220877
-0.20114
-0.181811
-0.163166
-0.145393
-0.128602
-0.112846
-0.098166
-0.0845542
-0.0715907
-0.058669
-0.0492769
-0.297883
-0.289055
-0.280503
-0.269698
-0.256021
-0.240012
-0.222338
-0.203654
-0.184553
-0.165531
-0.146969
-0.129139
-0.11222
-0.0963087
-0.081443
-0.0676515
-0.0549173
-0.0427886
-0.0305557
-0.0217652
-0.250644
-0.24421
-0.237203
-0.227496
-0.214741
-0.199548
-0.18265
-0.16475
-0.146472
-0.128322
-0.110683
-0.0938202
-0.0779008
-0.0630079
-0.0491646
-0.0363855
-0.0246453
-0.0134618
-0.00200402
0.00619241
-0.200919
-0.196969
-0.191579
-0.183053
-0.171322
-0.157069
-0.141084
-0.124116
-0.106812
-0.0896875
-0.0731219
-0.0573734
-0.0425974
-0.0288637
-0.0161808
-0.00454952
0.00606251
0.0161639
0.0267289
0.0343335
-0.148955
-0.147565
-0.143853
-0.136586
-0.12598
-0.112786
-0.0978474
-0.0819521
-0.0657669
-0.049811
-0.0344601
-0.0199644
-0.00646941
0.00596577
0.0173443
0.0276766
0.0369979
0.0458339
0.055327
0.0623099
-0.0950266
-0.0962561
-0.0942786
-0.088342
-0.0789561
-0.0669346
-0.0531671
-0.0384755
-0.0235402
-0.00888169
0.0051289
0.0182487
0.0303391
0.0413462
0.0512784
0.0601514
0.0679957
0.0753309
0.083466
0.0896936
-0.0394403
-0.0433316
-0.0431327
-0.0385916
-0.030514
-0.0197697
-0.00728778
0.00608309
0.0196541
0.0329062
0.0454738
0.0571191
0.0677054
0.0771752
0.0855295
0.09278
0.0989415
0.104452
0.110653
0.11565
0.0174726
0.0108954
0.009282
0.0123704
0.0190604
0.0284331
0.0395281
0.051478
0.063591
0.0753535
0.0864065
0.0965154
0.105539
0.113399
0.120066
0.125519
0.129701
0.132702
0.135418
0.13768
0.0753561
0.0660884
0.0626408
0.0642287
0.0694614
0.0773796
0.0870007
0.0974466
0.10803
0.11825
0.127759
0.13633
0.14382
0.150131
0.15519
0.158933
0.161137
0.16103
0.158257
0.15593
0.133832
0.12189
0.116599
0.116649
0.120366
0.126758
0.134831
0.143705
0.152706
0.161352
0.169318
0.176404
0.182491
0.187513
0.191451
0.194378
0.19619
0.195574
0.191586
0.197132
0.192531
0.177944
0.170809
0.169291
0.171442
0.176247
0.182708
0.189951
0.19732
0.204359
0.210771
0.216384
0.221114
0.224936
0.227891
0.23014
0.23171
0.231698
0.230125
0.237998
0.251052
0.233869
0.224903
0.221799
0.222345
0.225514
0.230309
0.235869
0.241561
0.246956
0.251784
0.255898
0.259238
0.261803
0.263661
0.264974
0.265775
0.265347
0.263947
0.270875
0.308995
0.289284
0.278511
0.273813
0.272729
0.274223
0.27731
0.281147
0.285124
0.28884
0.292051
0.294631
0.296537
0.297783
0.298444
0.298673
0.298491
0.297265
0.295266
0.300571
0.365965
0.343807
0.331262
0.324976
0.322247
0.322044
0.323396
0.32548
0.327716
0.329729
0.331296
0.332311
0.332742
0.332612
0.331995
0.33103
0.329724
0.327511
0.324681
0.32834
0.42157
0.39706
0.382792
0.374932
0.370561
0.368652
0.368257
0.368577
0.36906
0.369358
0.369269
0.368702
0.367636
0.366096
0.364153
0.361931
0.359426
0.356135
0.352375
0.354408
0.475428
0.448673
0.432739
0.423336
0.417338
0.413732
0.411596
0.410158
0.408895
0.407485
0.405747
0.403602
0.401037
0.398081
0.3948
0.391303
0.387581
0.383193
0.378475
0.378911
0.527168
0.498286
0.480754
0.469849
0.462256
0.45698
0.453129
0.449958
0.446976
0.443885
0.440524
0.436826
0.432786
0.428432
0.423829
0.419073
0.414152
0.408689
0.403021
0.401906
0.576434
0.545552
0.526501
0.51415
0.50501
0.498109
0.492586
0.487729
0.483074
0.478349
0.473412
0.468207
0.462734
0.457025
0.45114
0.445165
0.439088
0.432591
0.426002
0.423396
0.622888
0.590141
0.569659
0.55593
0.545306
0.536843
0.529713
0.523234
0.516972
0.510681
0.504233
0.497586
0.490744
0.48374
0.476632
0.469495
0.462322
0.454848
0.447381
0.443357
0.666211
0.631742
0.609926
0.594898
0.582871
0.572926
0.564271
0.556254
0.548471
0.540697
0.532824
0.524815
0.516683
0.508461
0.500203
0.491978
0.483781
0.475396
0.467103
0.461746
0.706104
0.670064
0.647019
0.630785
0.617448
0.606119
0.596038
0.586585
0.577383
0.568229
0.559029
0.549756
0.540427
0.531076
0.521755
0.512525
0.503384
0.494163
0.485105
0.478511
0.742292
0.704837
0.680678
0.663341
0.648803
0.636201
0.624811
0.61404
0.603538
0.59312
0.582706
0.572279
0.561858
0.551479
0.54119
0.531047
0.521052
0.511076
0.501321
0.493598
0.774525
0.735818
0.710667
0.692341
0.676722
0.662975
0.650406
0.63845
0.626778
0.615226
0.603725
0.592265
0.580867
0.56957
0.558418
0.547461
0.536706
0.52606
0.515683
0.506948
0.802581
0.76279
0.736775
0.717583
0.701016
0.686263
0.672659
0.659662
0.646966
0.634421
0.621969
0.609605
0.597356
0.585258
0.573354
0.561689
0.550274
0.539047
0.528127
0.518506
0.826266
0.785563
0.758818
0.738892
0.721518
0.70591
0.691426
0.677546
0.66398
0.650593
0.637334
0.624206
0.611236
0.598461
0.585923
0.57366
0.56169
0.549973
0.538594
0.528222
0.845414
0.803978
0.776642
0.75612
0.73809
0.721787
0.706587
0.691989
0.677717
0.663646
0.649734
0.635987
0.622433
0.609111
0.596059
0.583314
0.570895
0.558784
0.547033
0.536052
0.859893
0.817903
0.790121
0.769146
0.750619
0.733788
0.718045
0.702901
0.688094
0.673504
0.659097
0.644881
0.630885
0.617149
0.603709
0.590599
0.577841
0.565433
0.553401
0.541957
0.869602
0.827241
0.79916
0.777881
0.75902
0.741833
0.725724
0.710214
0.695047
0.680109
0.66537
0.650838
0.636547
0.622532
0.608832
0.595478
0.582493
0.569886
0.557665
0.545911
0.874473
0.831927
0.803695
0.782264
0.763234
0.745869
0.729577
0.713882
0.698534
0.683422
0.668515
0.653826
0.639385
0.625231
0.611401
0.597924
0.584825
0.572119
0.559802
0.547892
0.874473
0.831926
0.803695
0.782264
0.763234
0.745868
0.729576
0.713882
0.698534
0.683421
0.668515
0.653826
0.639385
0.625231
0.6114
0.597924
0.584825
0.572118
0.559802
0.547892
0.869601
0.82724
0.799159
0.777881
0.759019
0.741832
0.725724
0.710214
0.695046
0.680109
0.665369
0.650838
0.636546
0.622532
0.608832
0.595477
0.582493
0.569886
0.557664
0.54591
0.859891
0.817901
0.790119
0.769145
0.750618
0.733787
0.718044
0.7029
0.688093
0.673504
0.659096
0.64488
0.630885
0.617148
0.603708
0.590598
0.577841
0.565433
0.5534
0.541957
0.845412
0.803975
0.77664
0.756118
0.738089
0.721786
0.706586
0.691988
0.677716
0.663645
0.649733
0.635986
0.622432
0.609109
0.596057
0.583313
0.570894
0.558783
0.547032
0.536051
0.826263
0.785561
0.758816
0.73889
0.721516
0.705908
0.691424
0.677544
0.663979
0.650591
0.637333
0.624205
0.611234
0.59846
0.585921
0.573659
0.561688
0.549972
0.538593
0.528221
0.802578
0.762787
0.736772
0.71758
0.701013
0.686261
0.672657
0.65966
0.646964
0.634419
0.621967
0.609603
0.597354
0.585256
0.573352
0.561687
0.550273
0.539045
0.528125
0.518504
0.774522
0.735815
0.710663
0.692338
0.676719
0.662972
0.650404
0.638447
0.626776
0.615224
0.603723
0.592262
0.580865
0.569568
0.558416
0.547459
0.536704
0.526058
0.515681
0.506946
0.742288
0.704833
0.680674
0.663338
0.648799
0.636198
0.624808
0.614037
0.603535
0.593117
0.582703
0.572277
0.561856
0.551477
0.541188
0.531044
0.521049
0.511073
0.501319
0.493595
0.706099
0.670059
0.647015
0.630781
0.617444
0.606115
0.596034
0.586582
0.57738
0.568226
0.559026
0.549754
0.540424
0.531073
0.521752
0.512522
0.503381
0.494161
0.485103
0.478509
0.666206
0.631737
0.609921
0.594893
0.582866
0.572922
0.564267
0.55625
0.548467
0.540694
0.53282
0.524812
0.51668
0.508458
0.5002
0.491975
0.483778
0.475393
0.4671
0.461743
0.622883
0.590136
0.569654
0.555924
0.545301
0.536838
0.529708
0.523229
0.516968
0.510677
0.50423
0.497582
0.49074
0.483737
0.476628
0.469492
0.462319
0.454844
0.447377
0.443353
0.576428
0.545546
0.526495
0.514144
0.505004
0.498104
0.492581
0.487724
0.483069
0.478345
0.473408
0.468203
0.46273
0.457021
0.451136
0.445161
0.439084
0.432587
0.425999
0.423393
0.527162
0.498279
0.480748
0.469843
0.46225
0.456975
0.453124
0.449953
0.446971
0.44388
0.440519
0.436822
0.432781
0.428428
0.423825
0.419069
0.414148
0.408685
0.403017
0.401902
0.475421
0.448666
0.432732
0.423329
0.417331
0.413725
0.41159
0.410152
0.40889
0.40748
0.405742
0.403597
0.401032
0.398076
0.394795
0.391298
0.387577
0.383189
0.378471
0.378907
0.421563
0.397053
0.382784
0.374925
0.370554
0.368645
0.368251
0.368571
0.369054
0.369352
0.369264
0.368697
0.367631
0.366091
0.364149
0.361926
0.359422
0.356131
0.35237
0.354404
0.365958
0.343799
0.331255
0.324968
0.32224
0.322037
0.323389
0.325474
0.32771
0.329723
0.33129
0.332305
0.332737
0.332607
0.33199
0.331025
0.32972
0.327506
0.324676
0.328335
0.308987
0.289276
0.278502
0.273805
0.272721
0.274215
0.277303
0.281139
0.285117
0.288834
0.292045
0.294625
0.296531
0.297778
0.298439
0.298668
0.298486
0.297259
0.295261
0.300566
0.251043
0.233861
0.224894
0.22179
0.222337
0.225506
0.230301
0.235861
0.241554
0.246949
0.251777
0.255891
0.259232
0.261797
0.263655
0.264968
0.26577
0.265342
0.263941
0.27087
0.192522
0.177935
0.1708
0.169282
0.171433
0.176239
0.1827
0.189943
0.197312
0.204351
0.210764
0.216378
0.221108
0.224929
0.227885
0.230135
0.231704
0.231692
0.230119
0.237993
0.133823
0.12188
0.116589
0.116639
0.120356
0.126749
0.134822
0.143697
0.152698
0.161344
0.169311
0.176397
0.182484
0.187507
0.191445
0.194371
0.196184
0.195568
0.191581
0.197126
0.0753458
0.066078
0.0626304
0.0642184
0.0694514
0.07737
0.0869914
0.0974377
0.108022
0.118242
0.127751
0.136322
0.143813
0.150124
0.155183
0.158927
0.16113
0.161024
0.158251
0.155924
0.0174617
0.0108844
0.00927104
0.0123596
0.0190499
0.0284229
0.0395183
0.0514684
0.0635818
0.0753447
0.0863981
0.0965074
0.105531
0.113392
0.120059
0.125512
0.129694
0.132696
0.135412
0.137674
-0.0394518
-0.0433432
-0.0431442
-0.038603
-0.0305251
-0.0197805
-0.00729823
0.00607302
0.0196444
0.032897
0.045465
0.0571106
0.0676973
0.0771675
0.0855221
0.092773
0.0989348
0.104446
0.110647
0.115644
-0.0950386
-0.0962682
-0.0942908
-0.0883539
-0.0789679
-0.066946
-0.0531781
-0.0384861
-0.0235504
-0.00889149
0.00511953
0.0182398
0.0303306
0.0413381
0.0512707
0.060144
0.0679886
0.0753242
0.0834597
0.0896875
-0.148967
-0.147577
-0.143866
-0.136599
-0.125993
-0.112798
-0.097859
-0.0819633
-0.0657777
-0.0498213
-0.03447
-0.0199739
-0.0064784
0.00595721
0.0173362
0.0276689
0.0369906
0.0458269
0.0553203
0.0623035
-0.200932
-0.196983
-0.191592
-0.183066
-0.171335
-0.157082
-0.141096
-0.124128
-0.106823
-0.0896984
-0.0731323
-0.0573833
-0.0426068
-0.0288727
-0.0161893
-0.00455766
0.00605476
0.0161565
0.0267219
0.0343267
-0.250658
-0.244224
-0.237217
-0.22751
-0.214754
-0.199562
-0.182663
-0.164762
-0.146484
-0.128333
-0.110694
-0.0938306
-0.0779107
-0.0630173
-0.0491735
-0.036394
-0.0246535
-0.0134696
-0.00201139
0.00618529
-0.297898
-0.28907
-0.280518
-0.269712
-0.256035
-0.240026
-0.222352
-0.203667
-0.184565
-0.165543
-0.14698
-0.12915
-0.112231
-0.0963186
-0.0814524
-0.0676605
-0.0549259
-0.0427968
-0.0305635
-0.0217727
-0.342439
-0.331322
-0.321302
-0.309482
-0.294988
-0.278287
-0.259977
-0.240657
-0.22089
-0.201153
-0.181823
-0.163177
-0.145404
-0.128612
-0.112856
-0.0981754
-0.0845631
-0.0715992
-0.0586771
-0.0492847
-0.384102
-0.370812
-0.35941
-0.346661
-0.331454
-0.314182
-0.295374
-0.27557
-0.255293
-0.235001
-0.215061
-0.195753
-0.177272
-0.159739
-0.143221
-0.12777
-0.113388
-0.0996869
-0.0861489
-0.0761522
-0.422742
-0.407409
-0.394712
-0.38112
-0.365303
-0.347579
-0.328407
-0.308265
-0.287633
-0.266942
-0.24655
-0.226732
-0.207689
-0.189552
-0.172399
-0.156293
-0.141244
-0.1269
-0.112815
-0.10222
-0.458248
-0.44101
-0.427113
-0.412764
-0.396433
-0.37837
-0.358963
-0.338624
-0.317786
-0.296852
-0.276161
-0.255986
-0.236526
-0.217922
-0.20026
-0.183613
-0.168
-0.153105
-0.138542
-0.127365
-0.490541
-0.471548
-0.456549
-0.441527
-0.424776
-0.406481
-0.386958
-0.366555
-0.345655
-0.324626
-0.303788
-0.283403
-0.263671
-0.244735
-0.226691
-0.209618
-0.193546
-0.178193
-0.163227
-0.151495
-0.51958
-0.49899
-0.482989
-0.467377
-0.450294
-0.431864
-0.412337
-0.391993
-0.371165
-0.350184
-0.329344
-0.308894
-0.289031
-0.269898
-0.251599
-0.234218
-0.217792
-0.202077
-0.186785
-0.174538
-0.545353
-0.523331
-0.506431
-0.49031
-0.472977
-0.454503
-0.435073
-0.414902
-0.39427
-0.373469
-0.352766
-0.332392
-0.312536
-0.29334
-0.274912
-0.257339
-0.240669
-0.224691
-0.209156
-0.196442
-0.567881
-0.544598
-0.526905
-0.510354
-0.492847
-0.474409
-0.455165
-0.43527
-0.414948
-0.39445
-0.374013
-0.353849
-0.334134
-0.315007
-0.296576
-0.278931
-0.262127
-0.245987
-0.230298
-0.217176
-0.587214
-0.562845
-0.544466
-0.527561
-0.509951
-0.491622
-0.472643
-0.453112
-0.433202
-0.41312
-0.39307
-0.373241
-0.353796
-0.334866
-0.316556
-0.298959
-0.282133
-0.265936
-0.250185
-0.236724
-0.603433
-0.578155
-0.559198
-0.542013
-0.524363
-0.506205
-0.48756
-0.468471
-0.449061
-0.429494
-0.409941
-0.390566
-0.371512
-0.352903
-0.334838
-0.317407
-0.300672
-0.284524
-0.26881
-0.255087
-0.616639
-0.590632
-0.571204
-0.55381
-0.53618
-0.518247
-0.499993
-0.48141
-0.462575
-0.443612
-0.424655
-0.405841
-0.387294
-0.369124
-0.351423
-0.334276
-0.317746
-0.301757
-0.286182
-0.272282
-0.626961
-0.600401
-0.58061
-0.563077
-0.54552
-0.527858
-0.51004
-0.492016
-0.47382
-0.455534
-0.437259
-0.419103
-0.401168
-0.38355
-0.366329
-0.349583
-0.333372
-0.317651
-0.302323
-0.288342
-0.634544
-0.607605
-0.587557
-0.569951
-0.552516
-0.535165
-0.517819
-0.500394
-0.482886
-0.465338
-0.447819
-0.430408
-0.413183
-0.396221
-0.379591
-0.363359
-0.347582
-0.332242
-0.317273
-0.303314
-0.639558
-0.612408
-0.592206
-0.574591
-0.557322
-0.540312
-0.523466
-0.50667
-0.489886
-0.473124
-0.456422
-0.439828
-0.423399
-0.407191
-0.391257
-0.375651
-0.360421
-0.345577
-0.331084
-0.317262
-0.642178
-0.614979
-0.594721
-0.57716
-0.560098
-0.543456
-0.527128
-0.510979
-0.494944
-0.479004
-0.463165
-0.447451
-0.431893
-0.416527
-0.40139
-0.386517
-0.371947
-0.357713
-0.343819
-0.33026
-0.642592
-0.615496
-0.59528
-0.577831
-0.561014
-0.544761
-0.528964
-0.513472
-0.498198
-0.483101
-0.468161
-0.453376
-0.438753
-0.424308
-0.410059
-0.396024
-0.382226
-0.368718
-0.355553
-0.342396
-0.640994
-0.614143
-0.594061
-0.576782
-0.560245
-0.544399
-0.529138
-0.514304
-0.499796
-0.485552
-0.471532
-0.457711
-0.444075
-0.43062
-0.417343
-0.404245
-0.391329
-0.378666
-0.366364
-0.353762
-0.637581
-0.611108
-0.591248
-0.574194
-0.55797
-0.542546
-0.527822
-0.51364
-0.499891
-0.486499
-0.473407
-0.460573
-0.447963
-0.435555
-0.423328
-0.41126
-0.399334
-0.387635
-0.376336
-0.364459
-0.632547
-0.606574
-0.587018
-0.570245
-0.554366
-0.539376
-0.525187
-0.511646
-0.498641
-0.486088
-0.47392
-0.462082
-0.450525
-0.439209
-0.428096
-0.417145
-0.406314
-0.3957
-0.38555
-0.374584
-0.626085
-0.600721
-0.581549
-0.565109
-0.549608
-0.535065
-0.521406
-0.508489
-0.496205
-0.484469
-0.47321
-0.462362
-0.451868
-0.441675
-0.431732
-0.421976
-0.412341
-0.40293
-0.39408
-0.384233
-0.618376
-0.593722
-0.575009
-0.558954
-0.543864
-0.52978
-0.516646
-0.504334
-0.492743
-0.481792
-0.471411
-0.461535
-0.4521
-0.443046
-0.434312
-0.425818
-0.417472
-0.409383
-0.401986
-0.393484
-0.609589
-0.585738
-0.567557
-0.551941
-0.537295
-0.523683
-0.511069
-0.49934
-0.488408
-0.478202
-0.46866
-0.459719
-0.451321
-0.443404
-0.435902
-0.428724
-0.421753
-0.415098
-0.409309
-0.402401
-0.599882
-0.57692
-0.559341
-0.544216
-0.530051
-0.516928
-0.504829
-0.49366
-0.483349
-0.47384
-0.465083
-0.457028
-0.449625
-0.442821
-0.436553
-0.430726
-0.425202
-0.420088
-0.416062
-0.411019
-0.589392
-0.567403
-0.550496
-0.535917
-0.52227
-0.509654
-0.498068
-0.487437
-0.477708
-0.468841
-0.460803
-0.453565
-0.447094
-0.441354
-0.436295
-0.43183
-0.427807
-0.42433
-0.422217
-0.419337
-0.578244
-0.557309
-0.541143
-0.527166
-0.514077
-0.501989
-0.490917
-0.480803
-0.471612
-0.463326
-0.455932
-0.449424
-0.443797
-0.43904
-0.435133
-0.432007
-0.429511
-0.42775
-0.427696
-0.42731
-0.566545
-0.546747
-0.53139
-0.518069
-0.505581
-0.494044
-0.483488
-0.473871
-0.465177
-0.457406
-0.450568
-0.444685
-0.439783
-0.435891
-0.433032
-0.431177
-0.430194
-0.430199
-0.432346
-0.434828
-0.554389
-0.535812
-0.521332
-0.508722
-0.496874
-0.485914
-0.475878
-0.466742
-0.458502
-0.451175
-0.444794
-0.439408
-0.435082
-0.43189
-0.429913
-0.429191
-0.42964
-0.431414
-0.435896
-0.4417
-0.541864
-0.524591
-0.511053
-0.499204
-0.488036
-0.477676
-0.468167
-0.459494
-0.451665
-0.444709
-0.438675
-0.433639
-0.429698
-0.426981
-0.42564
-0.425809
-0.427496
-0.430944
-0.437865
-0.447564
-0.529052
-0.513165
-0.500626
-0.489585
-0.479132
-0.469393
-0.460414
-0.452188
-0.444727
-0.438066
-0.432261
-0.427402
-0.423614
-0.421069
-0.419997
-0.420647
-0.423165
-0.427951
-0.437273
-0.451621
-0.51604
-0.50161
-0.490123
-0.479926
-0.470216
-0.461114
-0.452667
-0.444871
-0.437735
-0.431291
-0.42559
-0.420719
-0.416806
-0.414046
-0.412725
-0.413206
-0.415786
-0.421096
-0.432406
-0.452568
-0.502918
-0.490006
-0.479609
-0.470284
-0.461335
-0.452881
-0.444964
-0.43758
-0.430729
-0.424428
-0.418707
-0.413626
-0.409285
-0.405852
-0.403616
-0.403016
-0.404495
-0.408902
-0.420916
-0.448118
-0.48979
-0.478434
-0.469151
-0.460714
-0.452537
-0.444734
-0.437344
-0.430356
-0.423758
-0.417538
-0.411688
-0.406203
-0.401095
-0.3964
-0.392239
-0.388898
-0.386679
-0.385748
-0.389938
-0.414597
-0.476764
-0.466978
-0.458817
-0.451271
-0.443869
-0.436717
-0.429853
-0.423258
-0.416905
-0.410752
-0.404735
-0.398761
-0.39268
-0.386249
-0.379079
-0.370616
-0.359686
-0.34245
-0.31242
-0.281852
-0.463956
-0.455726
-0.448676
-0.442013
-0.43538
-0.428879
-0.422544
-0.416359
-0.410289
-0.404278
-0.39824
-0.392057
-0.385552
-0.378468
-0.370446
-0.361078
-0.349732
-0.33428
-0.311373
-0.291014
-0.451483
-0.444764
-0.438797
-0.432998
-0.427121
-0.421264
-0.415466
-0.409715
-0.403978
-0.398203
-0.392309
-0.386189
-0.379701
-0.372655
-0.364828
-0.356017
-0.345957
-0.333665
-0.31826
-0.307698
-0.439451
-0.434174
-0.429245
-0.424281
-0.419138
-0.413915
-0.408656
-0.403359
-0.398001
-0.392538
-0.386907
-0.381026
-0.37479
-0.368076
-0.360756
-0.352745
-0.343923
-0.333737
-0.322155
-0.315682
-0.427959
-0.42403
-0.420081
-0.415912
-0.411475
-0.406871
-0.402149
-0.397318
-0.39237
-0.387276
-0.381993
-0.376465
-0.370629
-0.364414
-0.357763
-0.350672
-0.343112
-0.334741
-0.325735
-0.321224
-0.417086
-0.414396
-0.411359
-0.407939
-0.404174
-0.400165
-0.395969
-0.39161
-0.387092
-0.382402
-0.377518
-0.37241
-0.367047
-0.3614
-0.355458
-0.349259
-0.342825
-0.335929
-0.328776
-0.325416
-0.406894
-0.405325
-0.403125
-0.400401
-0.397267
-0.393826
-0.390141
-0.386249
-0.382166
-0.377896
-0.373435
-0.368774
-0.363906
-0.358829
-0.35356
-0.348154
-0.342652
-0.336888
-0.331045
-0.328362
-0.397427
-0.396857
-0.395415
-0.393331
-0.390785
-0.387879
-0.384682
-0.381244
-0.377591
-0.373742
-0.369707
-0.365493
-0.361111
-0.356574
-0.351915
-0.347193
-0.342452
-0.33756
-0.332664
-0.330372
-0.388709
-0.38902
-0.388258
-0.386756
-0.38475
-0.382343
-0.379608
-0.376602
-0.373365
-0.369925
-0.366304
-0.362521
-0.358596
-0.354555
-0.350435
-0.346294
-0.342173
-0.337964
-0.333773
-0.331709
-0.380754
-0.381834
-0.381674
-0.380696
-0.379183
-0.377234
-0.374928
-0.372329
-0.369485
-0.366434
-0.363204
-0.359823
-0.356319
-0.352723
-0.349072
-0.34542
-0.341805
-0.338136
-0.334483
-0.332559
-0.373565
-0.375307
-0.375676
-0.375166
-0.374096
-0.372564
-0.370651
-0.368429
-0.36595
-0.363259
-0.36039
-0.357378
-0.354253
-0.351049
-0.347803
-0.344563
-0.341362
-0.338124
-0.334892
-0.333058
-0.367134
-0.369446
-0.370274
-0.370175
-0.3695
-0.368342
-0.366785
-0.364904
-0.362758
-0.360395
-0.357854
-0.355172
-0.352383
-0.349521
-0.34662
-0.343725
-0.340864