1.45 	0 	0 	0.044241 	-0.00734 	3.62367e-21
2.35 	0 	0 	0.253228 	-0.0118678 	5.52856e-22
