1.45 	0 	0 	-0.288662
2.35 	0 	0 	-0.0609527
