/*--------------------------------*- C++ -*----------------------------------*\
  =========                 |
  \\      /  F ield         | OpenFOAM: The Open Source CFD Toolbox
   \\    /   O peration     | Website:  https://openfoam.org
    \\  /    A nd           | Version:  6.0
     \\/     M anipulation  |
\*---------------------------------------------------------------------------*/
FoamFile
{
    version     2.0;
    format      ascii;
    class       volVectorField;
    location    "145";
    object      U;
}
// * * * * * * * * * * * * * * * * * * * * * * * * * * * * * * * * * * * * * //

dimensions      [0 1 -1 0 0 0 0];

internalField   nonuniform List<vector> 
34500
(
(0.999996 1.24093e-05 -4.63383e-17)
(0.999968 1.68772e-07 -8.1377e-18)
(0.999913 -2.56588e-05 1.42278e-16)
(0.999835 -7.38101e-05 -1.07719e-16)
(0.999744 -0.000150252 3.35836e-17)
(0.999648 -0.000256845 -1.01568e-16)
(0.99956 -0.000393724 -1.01087e-16)
(0.999484 -0.000561545 8.67228e-17)
(0.999429 -0.000760494 1.07384e-16)
(0.999394 -0.00100168 -6.8419e-16)
(0.999388 -0.0012823 -1.04266e-15)
(0.999395 -0.0016973 1.2734e-16)
(0.999436 -0.00213508 4.36376e-16)
(1.00017 -0.00332214 -2.09524e-16)
(0.987868 -0.0105308 8.25008e-17)
(0.999991 3.93204e-05 3.24518e-17)
(0.999938 1.09093e-05 9.76616e-17)
(0.999839 -4.29512e-05 7.17827e-17)
(0.9997 -0.000137077 -3.02363e-16)
(0.999539 -0.000281334 -5.06231e-16)
(0.999373 -0.000476361 -5.50899e-17)
(0.999221 -0.000721802 2.55786e-16)
(0.999095 -0.00101901 -6.78117e-16)
(0.999005 -0.00136637 -1.78903e-16)
(0.998954 -0.00178325 6.8272e-16)
(0.998951 -0.00225401 1.26512e-15)
(0.998991 -0.00294576 -6.31346e-16)
(0.998933 -0.00363892 -9.89452e-16)
(1.0008 -0.00528818 -3.9941e-16)
(0.98799 -0.0126483 5.56576e-16)
(0.999988 6.63035e-05 1.04693e-17)
(0.99994 2.58797e-05 -1.22948e-16)
(0.999853 -3.80556e-05 -1.25213e-16)
(0.999734 -0.000136973 4.55899e-16)
(0.999599 -0.000278781 -2.86271e-17)
(0.999462 -0.000460254 -1.64141e-16)
(0.999341 -0.000679658 9.79031e-17)
(0.999245 -0.000938518 3.85039e-16)
(0.99918 -0.00123372 2.58411e-19)
(0.999152 -0.00158452 -3.93657e-16)
(0.999156 -0.00196791 -7.29643e-16)
(0.999228 -0.00253698 4.15079e-16)
(0.998955 -0.00312126 2.2605e-16)
(1.00108 -0.00435522 1.66253e-16)
(0.992538 -0.00831103 -2.58177e-16)
(0.999984 9.26057e-05 -1.73575e-17)
(0.999942 3.90923e-05 -9.02589e-18)
(0.99987 -3.54834e-05 4.83384e-17)
(0.999772 -0.000138754 -3.05536e-16)
(0.999664 -0.000277455 3.72455e-16)
(0.999555 -0.000446079 3.30176e-16)
(0.999461 -0.000642643 -3.99822e-16)
(0.999389 -0.000869907 -4.20349e-16)
(0.999342 -0.00112501 4.35517e-16)
(0.999327 -0.00142919 -4.71248e-16)
(0.999325 -0.00175881 -2.44924e-16)
(0.999417 -0.00225569 -3.86564e-16)
(0.998957 -0.00283344 5.45292e-16)
(1.0008 -0.0038287 -4.85824e-17)
(0.99471 -0.00708283 2.26096e-17)
(0.999978 0.000118556 -1.70461e-17)
(0.999935 5.05495e-05 1.53355e-16)
(0.999865 -3.92104e-05 6.95798e-17)
(0.99977 -0.00015628 1.69839e-16)
(0.999664 -0.000308065 4.67746e-17)
(0.999559 -0.000488503 -1.58365e-16)
(0.999468 -0.000695936 1.02615e-16)
(0.999399 -0.000934357 2.66583e-16)
(0.999354 -0.00120075 -4.18215e-16)
(0.99934 -0.00151935 -2.31377e-16)
(0.999332 -0.00186529 1.00869e-15)
(0.999446 -0.00237826 6.36297e-16)
(0.998889 -0.00302342 -2.91356e-16)
(1.00027 -0.00393959 5.99052e-16)
(0.995622 -0.0068778 -6.1338e-16)
(0.999971 0.000144455 1.83549e-17)
(0.999924 6.19464e-05 -9.48348e-17)
(0.999853 -4.36267e-05 -1.86408e-16)
(0.999757 -0.000175844 -5.29636e-17)
(0.999652 -0.000342945 1.09501e-16)
(0.999547 -0.000538608 -1.08926e-16)
(0.999456 -0.000761215 1.48313e-16)
(0.999388 -0.00101516 1.31337e-16)
(0.999346 -0.00129614 2.91409e-16)
(0.999338 -0.00162978 -1.00435e-16)
(0.999326 -0.00198858 2.89807e-18)
(0.999466 -0.00250301 -3.90583e-16)
(0.998884 -0.00317501 1.84264e-17)
(0.999796 -0.00398725 -4.74434e-16)
(0.996161 -0.00626812 7.70897e-17)
(0.999963 0.000170339 3.25596e-18)
(0.999914 7.3785e-05 -3.55968e-17)
(0.999845 -4.63409e-05 -2.903e-17)
(0.999753 -0.000190955 1.75833e-16)
(0.999653 -0.000368654 -2.20602e-16)
(0.999555 -0.000572789 2.75682e-16)
(0.999471 -0.000801668 -6.19844e-16)
(0.999412 -0.00105975 -3.70281e-16)
(0.999377 -0.00134124 -1.51813e-16)
(0.999378 -0.00167209 6.72573e-16)
(0.999365 -0.00202371 -7.70149e-16)
(0.999524 -0.00251048 2.99134e-16)
(0.998958 -0.00317643 4.59162e-16)
(0.999469 -0.00386933 -9.7053e-17)
(0.99648 -0.00563596 -1.25201e-16)
(0.999953 0.000196227 1.51185e-17)
(0.999904 8.58595e-05 3.22946e-17)
(0.999837 -4.82157e-05 2.5038e-17)
(0.999751 -0.000203962 -1.50946e-16)
(0.99966 -0.000390169 3.29086e-16)
(0.999571 -0.000600028 -1.39705e-16)
(0.999497 -0.000831999 2.01746e-16)
(0.999447 -0.00109075 -1.46444e-16)
(0.999421 -0.00136939 3.9816e-16)
(0.999431 -0.00169396 1.78093e-16)
(0.999415 -0.00203692 2.45384e-16)
(0.999583 -0.0024951 -5.67228e-17)
(0.999056 -0.00315438 -5.07992e-16)
(0.999259 -0.00375697 1.15258e-15)
(0.9967 -0.00519371 1.92834e-16)
(0.999943 0.000222221 -1.12174e-17)
(0.999892 9.81175e-05 9.89778e-17)
(0.999828 -4.99802e-05 1.50852e-16)
(0.999747 -0.000217165 1.11976e-16)
(0.999663 -0.00041245 -4.88997e-16)
(0.999583 -0.000629043 1.41085e-16)
(0.999518 -0.000865711 3.2104e-16)
(0.999476 -0.00112747 7.73457e-16)
(0.999457 -0.00140658 -3.86003e-16)
(0.999474 -0.00172895 9.02284e-17)
(0.999455 -0.00206904 4.5029e-16)
(0.999624 -0.0025061 -3.25005e-16)
(0.999151 -0.0031589 -1.55109e-16)
(0.999137 -0.003695 -3.85616e-16)
(0.996916 -0.00485212 8.66817e-17)
(0.999931 0.000248457 4.06903e-17)
(0.999878 0.000110723 -8.97567e-17)
(0.999815 -5.14736e-05 8.8555e-18)
(0.999739 -0.000230482 -1.10237e-16)
(0.999662 -0.000435505 4.10915e-16)
(0.99959 -0.000659758 7.96791e-17)
(0.999533 -0.000902262 2.70526e-16)
(0.999499 -0.00116836 -5.73826e-16)
(0.999487 -0.00144957 4.16559e-17)
(0.999512 -0.00177128 -7.88467e-17)
(0.999491 -0.00211038 -1.40054e-16)
(0.999655 -0.00252846 4.4307e-17)
(0.999241 -0.0031678 5.96474e-16)
(0.999083 -0.00364616 -8.14539e-16)
(0.997142 -0.00455269 -2.77356e-16)
(0.999919 0.000275056 -2.62249e-17)
(0.999862 0.000123833 3.52574e-17)
(0.999802 -5.23988e-05 -1.4758e-16)
(0.999729 -0.000243352 2.50085e-16)
(0.999659 -0.000458338 -3.61826e-16)
(0.999594 -0.000690459 -3.03351e-16)
(0.999546 -0.000938833 -3.3923e-16)
(0.999521 -0.00120904 3.91676e-17)
(0.999516 -0.001492 -8.1551e-17)
(0.999549 -0.00181231 -4.25435e-16)
(0.999528 -0.00214974 -7.23254e-16)
(0.999684 -0.00254868 2.87028e-16)
(0.999325 -0.00316828 -3.30728e-16)
(0.999074 -0.00359561 9.18552e-16)
(0.997367 -0.00429533 5.52046e-17)
(0.999905 0.000302133 -2.45561e-17)
(0.999846 0.000137542 -1.04256e-16)
(0.999786 -5.26612e-05 1.50792e-16)
(0.999717 -0.0002557 -2.3429e-16)
(0.999653 -0.000480965 7.69277e-17)
(0.999597 -0.000721326 4.54619e-16)
(0.999557 -0.00097583 5.54594e-17)
(0.999542 -0.00125018 -6.7448e-17)
(0.999544 -0.00153484 1.81872e-16)
(0.999585 -0.0018534 -1.57276e-16)
(0.999565 -0.00218896 -9.53764e-17)
(0.99971 -0.00256978 -6.70667e-17)
(0.999399 -0.00316627 -2.89239e-16)
(0.999091 -0.00354971 -6.29222e-16)
(0.997582 -0.00407894 1.27326e-17)
(0.999891 0.000329789 -2.17674e-18)
(0.999827 0.000151913 1.40527e-16)
(0.999769 -5.22402e-05 -2.21601e-16)
(0.999703 -0.000267602 8.34564e-17)
(0.999645 -0.000503669 -9.3637e-17)
(0.999596 -0.000752991 -1.54912e-16)
(0.999565 -0.00101439 -3.89418e-17)
(0.999559 -0.00129352 3.65602e-16)
(0.999568 -0.00158049 -6.3144e-16)
(0.999618 -0.00189763 4.21281e-16)
(0.999601 -0.00223151 2.21216e-16)
(0.999733 -0.00259558 1.84908e-16)
(0.999464 -0.00316615 7.55037e-16)
(0.999123 -0.00351011 7.392e-16)
(0.997787 -0.00389307 5.62272e-16)
(0.999874 0.000358115 8.30363e-18)
(0.999808 0.000167012 5.2888e-17)
(0.99975 -5.10678e-05 1.76131e-16)
(0.999687 -0.000278951 5.58039e-17)
(0.999634 -0.000526289 1.70778e-16)
(0.999593 -0.000785241 1.68229e-16)
(0.99957 -0.00105425 -1.18622e-17)
(0.999572 -0.00133876 4.93748e-17)
(0.99959 -0.00162856 9.39539e-16)
(0.999648 -0.00194441 -1.14194e-16)
(0.999636 -0.00227628 5.43976e-16)
(0.999755 -0.00262421 -7.42446e-16)
(0.999522 -0.00316587 1.38021e-16)
(0.999164 -0.00347223 -1.36144e-15)
(0.99798 -0.00372846 -6.31044e-16)
(0.999857 0.000387184 9.94014e-18)
(0.999787 0.000182885 -1.17707e-16)
(0.99973 -4.90719e-05 1.54852e-16)
(0.99967 -0.000289555 -2.2424e-16)
(0.999622 -0.000548413 1.56966e-16)
(0.999587 -0.000817348 2.07419e-17)
(0.999573 -0.00109432 1.9527e-16)
(0.999584 -0.00138438 -2.60421e-16)
(0.99961 -0.00167705 -8.40699e-16)
(0.999677 -0.00199128 2.49899e-16)
(0.999672 -0.00232025 -5.62087e-16)
(0.999779 -0.00265217 1.1334e-16)
(0.999574 -0.00316261 -4.93886e-16)
(0.99921 -0.00343297 2.68929e-16)
(0.998159 -0.00358114 -1.10958e-16)
(0.999838 0.000417047 3.32394e-17)
(0.999765 0.000199549 7.19019e-17)
(0.999708 -4.62293e-05 -3.59096e-16)
(0.999651 -0.000299306 2.88558e-16)
(0.999608 -0.000569753 -2.80186e-16)
(0.999581 -0.00084877 -3.73361e-16)
(0.999575 -0.00113374 -3.8343e-16)
(0.999596 -0.00142922 3.3814e-16)
(0.99963 -0.00172451 7.20301e-16)
(0.999706 -0.00203661 1.6344e-16)
(0.999709 -0.00236172 9.50272e-17)
(0.999806 -0.00267783 7.04098e-17)
(0.999625 -0.00315598 -7.3839e-16)
(0.99926 -0.00339245 6.51644e-17)
(0.998324 -0.00344948 6.46259e-16)
(0.999818 0.000447735 -8.96617e-17)
(0.999741 0.000216998 -9.24161e-17)
(0.999686 -4.25799e-05 3.42983e-17)
(0.999632 -0.000308233 -2.645e-16)
(0.999594 -0.000590277 -1.79811e-17)
(0.999574 -0.000879371 4.82153e-16)
(0.999577 -0.00117228 5.51417e-17)
(0.999607 -0.00147299 3.04572e-16)
(0.999651 -0.00177062 -6.04064e-16)
(0.999735 -0.00208016 -3.10452e-16)
(0.999747 -0.00240066 4.46115e-16)
(0.999836 -0.00270146 -1.49775e-16)
(0.999674 -0.00314725 4.87252e-16)
(0.999312 -0.00335222 7.58395e-16)
(0.998477 -0.00333258 -6.10613e-17)
(0.999797 0.000479265 2.80889e-17)
(0.999717 0.000235213 1.14779e-17)
(0.999662 -3.81938e-05 1.15664e-16)
(0.999611 -0.00031644 2.2603e-18)
(0.999579 -0.000610103 9.89418e-17)
(0.999567 -0.000909278 -2.89931e-16)
(0.999578 -0.00121009 5.99006e-16)
(0.999619 -0.00151591 -1.53725e-16)
(0.999671 -0.00181573 6.53773e-16)
(0.999764 -0.00212249 -3.42199e-16)
(0.999785 -0.00243784 -5.45318e-16)
(0.999868 -0.00272401 5.26974e-16)
(0.999723 -0.00313792 -8.90748e-16)
(0.999366 -0.00331346 -1.3175e-15)
(0.998619 -0.00322901 -3.35984e-16)
(0.999774 0.000511638 3.12744e-18)
(0.99969 0.000254164 1.95025e-17)
(0.999637 -3.31534e-05 -3.12269e-17)
(0.99959 -0.00032406 1.58761e-16)
(0.999563 -0.000629403 1.08909e-16)
(0.999559 -0.000938697 -4.2715e-17)
(0.999579 -0.00124744 -3.6106e-16)
(0.999629 -0.00155835 -3.48157e-16)
(0.999691 -0.00186032 -2.35417e-16)
(0.999792 -0.00216424 4.34047e-16)
(0.999824 -0.00247411 3.36596e-16)
(0.999902 -0.00274632 -4.95505e-16)
(0.999772 -0.00312908 1.10335e-15)
(0.999424 -0.00327694 1.38795e-15)
(0.998752 -0.00313746 4.72302e-17)
(0.999749 0.000544848 3.57607e-17)
(0.999663 0.000273824 -4.76073e-17)
(0.99961 -2.75311e-05 2.29522e-16)
(0.999566 -0.000331209 -4.57218e-17)
(0.999546 -0.000648323 -1.74536e-16)
(0.999549 -0.000967796 7.40102e-17)
(0.999578 -0.00128455 -1.29872e-16)
(0.999639 -0.00160058 2.93958e-16)
(0.99971 -0.00190474 7.73026e-17)
(0.99982 -0.00220587 5.40683e-17)
(0.999863 -0.00250999 -2.58148e-16)
(0.999939 -0.00276883 3.43085e-16)
(0.999821 -0.00312131 1.75289e-16)
(0.999484 -0.00324287 1.57209e-16)
(0.998879 -0.0030564 4.00868e-16)
(0.999724 0.000578876 -1.8384e-17)
(0.999634 0.000294164 2.72526e-17)
(0.999582 -2.13918e-05 -3.72054e-16)
(0.999542 -0.000337989 -2.38083e-16)
(0.999528 -0.000666985 3.29575e-16)
(0.999539 -0.000996695 -8.92416e-17)
(0.999577 -0.00132151 5.21427e-16)
(0.999647 -0.00164272 -1.41606e-16)
(0.999728 -0.00194914 -7.5231e-18)
(0.999847 -0.00224757 -1.50343e-16)
(0.999901 -0.00254575 3.86354e-16)
(0.999976 -0.00279176 -2.43814e-16)
(0.999872 -0.00311488 -8.03281e-16)
(0.999547 -0.00321141 -1.91875e-16)
(0.999002 -0.00298478 -4.57598e-16)
(0.999696 0.000613701 2.47475e-17)
(0.999604 0.000315157 1.12594e-16)
(0.999553 -1.47839e-05 3.35337e-16)
(0.999516 -0.000344475 2.60309e-16)
(0.999508 -0.000685476 -3.20928e-17)
(0.999527 -0.00102547 -1.304e-16)
(0.999574 -0.0013584 -5.77242e-16)
(0.999655 -0.00168483 -6.71311e-17)
(0.999745 -0.00199357 -3.43089e-16)
(0.999873 -0.00228942 1.11177e-16)
(0.999938 -0.00258151 -7.08167e-16)
(1.00002 -0.00281517 3.42008e-16)
(0.999924 -0.00310994 1.15715e-15)
(0.999613 -0.0031826 -8.95152e-16)
(0.999121 -0.00292154 5.33112e-16)
(0.999667 0.000649294 -1.9955e-17)
(0.999572 0.000336777 -1.58424e-16)
(0.999521 -7.74856e-06 -1.91922e-16)
(0.999488 -0.000350729 -9.57412e-17)
(0.999486 -0.000703881 -6.13276e-17)
(0.999514 -0.00105423 8.4212e-17)
(0.99957 -0.0013953 -3.22563e-17)
(0.999661 -0.00172697 -4.43172e-16)
(0.999762 -0.00203808 -1.30489e-16)
(0.999898 -0.0023315 -3.287e-17)
(0.999975 -0.00261741 6.44576e-16)
(1.00006 -0.00283916 1.07933e-16)
(0.999978 -0.0031067 -9.61999e-16)
(0.999681 -0.00315663 5.12133e-16)
(0.999237 -0.00286597 -1.03135e-16)
(0.999637 0.000685629 1.80257e-17)
(0.999538 0.000359002 9.31481e-17)
(0.999488 -3.12137e-07 9.23722e-17)
(0.999459 -0.000356797 1.7968e-16)
(0.999463 -0.000722274 -9.79148e-17)
(0.999499 -0.00108305 -2.75476e-17)
(0.999565 -0.0014323 1.99079e-16)
(0.999666 -0.00176924 2.97563e-16)
(0.999777 -0.00208279 -2.14545e-17)
(0.999923 -0.00237392 -3.59556e-16)
(1.00001 -0.00265362 -2.76592e-16)
(1.0001 -0.00286391 -4.86746e-16)
(1.00003 -0.00310532 2.04539e-17)
(0.999752 -0.00313355 2.65127e-16)
(0.999351 -0.00281717 -1.61139e-16)
(0.999605 0.000722675 -9.63829e-18)
(0.999503 0.000381807 -5.51227e-17)
(0.999454 7.50513e-06 1.40285e-16)
(0.999427 -0.000362713 1.47164e-17)
(0.999438 -0.000740725 -1.24644e-16)
(0.999482 -0.00111206 1.00534e-16)
(0.999558 -0.00146957 -4.80351e-17)
(0.999669 -0.00181183 2.74366e-16)
(0.999791 -0.00212788 5.07118e-16)
(0.999946 -0.0024169 7.87898e-17)
(1.00005 -0.00269038 2.38693e-16)
(1.00014 -0.00288961 2.43209e-16)
(1.00009 -0.00310598 6.01427e-17)
(0.999825 -0.00311345 -5.45496e-16)
(0.999465 -0.00277451 1.32777e-16)
(0.999572 0.000760403 1.29103e-17)
(0.999467 0.000405175 1.16098e-17)
(0.999418 1.56965e-05 -2.86598e-16)
(0.999394 -0.000368485 -1.2523e-16)
(0.999411 -0.000759275 1.76097e-16)
(0.999463 -0.00114136 -2.7494e-17)
(0.999549 -0.00150725 1.83928e-16)
(0.999671 -0.00185493 -2.44359e-16)
(0.999804 -0.00217355 1.39349e-16)
(0.999969 -0.00246062 1.15949e-16)
(1.00008 -0.0027279 1.22485e-16)
(1.00018 -0.00291638 1.56014e-16)
(1.00014 -0.00310871 2.17252e-16)
(0.999901 -0.00309615 3.066e-17)
(0.999577 -0.00273703 7.80638e-17)
(0.999538 0.000798785 -3.9722e-17)
(0.999429 0.000429086 1.05133e-16)
(0.99938 2.42604e-05 1.64559e-16)
(0.99936 -0.000374106 -1.05358e-16)
(0.999382 -0.000777935 -6.85072e-17)
(0.999443 -0.001171 3.90008e-17)
(0.999538 -0.00154547 -2.00374e-16)
(0.999671 -0.00189868 -1.31148e-16)
(0.999815 -0.00221997 -1.72321e-16)
(0.99999 -0.00250523 2.74015e-16)
(1.00012 -0.00276629 -3.80402e-16)
(1.00022 -0.00294426 2.97422e-16)
(1.0002 -0.00311343 1.4591e-16)
(0.999977 -0.00308145 5.47452e-16)
(0.999689 -0.00270403 -5.02637e-16)
(0.999502 0.000837795 1.6761e-17)
(0.99939 0.000453523 -7.91314e-17)
(0.999341 3.32045e-05 5.79467e-17)
(0.999323 -0.000379543 1.28189e-16)
(0.999352 -0.000796666 -8.88888e-17)
(0.99942 -0.00120098 -1.50256e-16)
(0.999526 -0.00158425 -7.11567e-17)
(0.99967 -0.00194317 9.80865e-17)
(0.999825 -0.00226721 -4.48832e-16)
(1.00001 -0.00255077 6.62587e-17)
(1.00015 -0.00280556 2.52756e-16)
(1.00026 -0.00297313 -7.07101e-16)
(1.00026 -0.0031199 1.43003e-16)
(1.00006 -0.00306895 2.19564e-17)
(0.999801 -0.00267469 3.70484e-16)
(0.999465 0.000877409 -6.372e-18)
(0.999349 0.000478466 9.69832e-17)
(0.9993 4.25353e-05 -9.37134e-17)
(0.999285 -0.00038475 -5.81773e-17)
(0.999319 -0.000815391 -9.28042e-17)
(0.999396 -0.00123121 -4.90879e-17)
(0.999511 -0.00162352 -1.05866e-16)
(0.999666 -0.00198834 7.56038e-17)
(0.999834 -0.00231521 2.90829e-17)
(1.00003 -0.00259716 -3.10943e-16)
(1.00018 -0.00284558 -3.71187e-16)
(1.0003 -0.0030028 4.12149e-16)
(1.00032 -0.00312785 -3.60299e-16)
(1.00013 -0.00305832 -1.14979e-16)
(0.999912 -0.0026485 -1.13454e-17)
(0.999426 0.000917608 -1.9281e-17)
(0.999307 0.000503899 -4.48017e-17)
(0.999258 5.22607e-05 3.16477e-17)
(0.999245 -0.000389672 2.25561e-16)
(0.999285 -0.000834001 3.76756e-16)
(0.99937 -0.00126153 3.07637e-16)
(0.999495 -0.00166312 3.36191e-16)
(0.999662 -0.002034 -2.14537e-16)
(0.999841 -0.00236378 6.53306e-20)
(1.00005 -0.00264416 2.3287e-16)
(1.00021 -0.00288612 4.5883e-17)
(1.00035 -0.00303297 2.53251e-16)
(1.00037 -0.00313692 2.03797e-16)
(1.00022 -0.0030492 -5.35094e-16)
(1.00002 -0.002625 -3.52088e-16)
(0.999386 0.000958371 9.92027e-18)
(0.999264 0.000529798 -8.09747e-17)
(0.999214 6.23764e-05 -1.61998e-16)
(0.999205 -0.000394269 -1.59048e-16)
(0.99925 -0.000852385 1.46207e-17)
(0.999343 -0.00129176 -1.73681e-16)
(0.999478 -0.00170281 -3.78244e-16)
(0.999656 -0.00207991 2.88777e-16)
(0.999848 -0.00241264 2.34942e-16)
(1.00007 -0.00269149 -5.18278e-16)
(1.00025 -0.0029269 4.25415e-16)
(1.00039 -0.0030634 -3.10397e-16)
(1.00043 -0.0031469 -1.43275e-16)
(1.0003 -0.00304144 -1.25532e-16)
(1.00013 -0.00260411 1.49954e-16)
(0.999345 0.000999685 3.77623e-17)
(0.999219 0.000556143 1.73749e-17)
(0.999169 7.28701e-05 8.76179e-17)
(0.999162 -0.000398517 4.07086e-17)
(0.999213 -0.000870462 4.79034e-17)
(0.999314 -0.00132177 3.00383e-16)
(0.99946 -0.00174237 -1.35756e-16)
(0.999649 -0.00212578 1.48383e-16)
(0.999854 -0.00246151 8.52235e-17)
(1.00008 -0.00273887 5.94156e-17)
(1.00028 -0.0029677 1.98081e-16)
(1.00043 -0.00309391 -4.22672e-17)
(1.00049 -0.00315768 9.40601e-18)
(1.00038 -0.00303502 8.75444e-16)
(1.00024 -0.00258576 2.78964e-18)
(0.999302 0.00104154 -3.66535e-17)
(0.999172 0.000582907 -1.26623e-17)
(0.999123 8.37094e-05 5.72841e-17)
(0.999119 -0.000402438 -1.74691e-16)
(0.999176 -0.000888215 -2.7986e-16)
(0.999285 -0.00135146 -2.68201e-16)
(0.999441 -0.00178167 2.27296e-16)
(0.999642 -0.00217148 -8.31517e-17)
(0.999859 -0.00251023 9.70013e-18)
(1.0001 -0.00278619 -5.02985e-18)
(1.00031 -0.00300847 -2.73595e-16)
(1.00048 -0.00312456 -2.4748e-16)
(1.00055 -0.00316938 -1.5979e-16)
(1.00046 -0.00303016 2.42939e-17)
(1.00035 -0.00257021 -5.48951e-17)
(0.999257 0.00108392 -1.82985e-17)
(0.999124 0.00061007 4.84423e-17)
(0.999075 9.4855e-05 4.76681e-17)
(0.999074 -0.000406085 7.75886e-17)
(0.999137 -0.000905694 1.06144e-16)
(0.999255 -0.00138088 1.67784e-18)
(0.999421 -0.00182073 2.27197e-16)
(0.999634 -0.00221698 -5.06739e-16)
(0.999865 -0.00255881 2.58492e-16)
(1.00012 -0.00283347 2.63739e-16)
(1.00034 -0.00304933 -3.7754e-16)
(1.00052 -0.00315553 7.05667e-16)
(1.00061 -0.00318224 3.71922e-16)
(1.00054 -0.00302711 -6.94236e-16)
(1.00046 -0.00255749 -2.0693e-16)
(0.999211 0.00112682 3.78399e-17)
(0.999075 0.000637608 2.93903e-17)
(0.999026 0.000106254 4.58975e-18)
(0.999028 -0.00040955 -3.47818e-17)
(0.999097 -0.000923027 2.018e-17)
(0.999224 -0.00141017 2.84788e-16)
(0.9994 -0.00185969 -4.59147e-17)
(0.999625 -0.00226245 3.2519e-16)
(0.999869 -0.00260743 -4.81336e-17)
(1.00014 -0.00288095 -2.91728e-16)
(1.00037 -0.00309059 6.03994e-16)
(1.00057 -0.00318718 -3.6276e-16)
(1.00068 -0.0031966 -4.91681e-16)
(1.00062 -0.00302618 2.08182e-16)
(1.00056 -0.00254779 3.48662e-16)
(0.999163 0.00117024 -3.14668e-17)
(0.999024 0.000665507 -1.32691e-17)
(0.998975 0.000117861 -1.73059e-16)
(0.998981 -0.000412932 -8.4594e-17)
(0.999056 -0.000940372 5.21069e-17)
(0.999191 -0.00143954 -2.87501e-16)
(0.999378 -0.0018988 -8.45344e-17)
(0.999616 -0.00230816 2.83423e-16)
(0.999873 -0.00265638 -2.39775e-16)
(1.00015 -0.00292895 7.03432e-17)
(1.0004 -0.00313256 -3.36321e-16)
(1.00061 -0.00321985 1.05899e-17)
(1.00074 -0.00321273 2.6611e-16)
(1.00071 -0.00302755 1.40242e-16)
(1.00067 -0.00254096 -5.47389e-17)
(0.999114 0.00121419 3.00184e-17)
(0.998971 0.000693752 -9.7423e-17)
(0.998922 0.000129632 8.17934e-17)
(0.998931 -0.00041633 5.35457e-17)
(0.999013 -0.000957899 -4.03804e-17)
(0.999157 -0.00146923 -1.72697e-16)
(0.999355 -0.00193835 5.23752e-17)
(0.999605 -0.00235444 -1.29939e-16)
(0.999876 -0.00270603 -2.19161e-16)
(1.00017 -0.00297781 -2.74042e-17)
(1.00043 -0.00317564 -4.86039e-16)
(1.00066 -0.00325387 4.97793e-16)
(1.0008 -0.00323089 3.87328e-17)
(1.00079 -0.00303136 -8.00506e-17)
(1.00077 -0.00253697 -7.80016e-18)
(0.999063 0.00125865 -3.68183e-17)
(0.998916 0.000722342 1.0029e-16)
(0.998868 0.000141546 -2.30421e-17)
(0.99888 -0.000419811 -2.09949e-16)
(0.998968 -0.000975741 -1.00053e-16)
(0.999121 -0.00149944 1.16255e-16)
(0.99933 -0.0019786 -1.70625e-16)
(0.999593 -0.00240158 -1.91176e-16)
(0.999878 -0.00275666 3.25455e-16)
(1.00018 -0.00302784 1.13291e-16)
(1.00046 -0.00322005 5.09988e-16)
(1.0007 -0.00328943 -3.83868e-16)
(1.00086 -0.00325114 1.38087e-16)
(1.00087 -0.00303757 -1.55699e-16)
(1.00087 -0.00253551 5.1987e-18)
(0.999011 0.00130364 2.27884e-17)
(0.99886 0.000751273 -5.80362e-17)
(0.998811 0.000153589 7.21028e-17)
(0.998826 -0.000423416 3.12822e-16)
(0.998921 -0.000993984 1.32776e-16)
(0.999083 -0.0015303 8.23923e-17)
(0.999304 -0.00201972 3.38902e-16)
(0.999579 -0.00244978 1.61099e-16)
(0.999878 -0.00280849 -2.65427e-16)
(1.0002 -0.00307921 4.52446e-16)
(1.00049 -0.00326598 2.51754e-16)
(1.00074 -0.00332664 -2.13225e-16)
(1.00092 -0.00327351 -4.08271e-16)
(1.00095 -0.00304611 -1.58871e-16)
(1.00097 -0.00253637 6.14177e-17)
(0.998957 0.00134914 4.67902e-18)
(0.998802 0.000780551 -1.23646e-16)
(0.998753 0.000165769 -9.1776e-17)
(0.998771 -0.000427147 -2.15396e-16)
(0.998872 -0.00101265 3.46062e-17)
(0.999043 -0.00156188 -3.34598e-16)
(0.999275 -0.0020618 -3.59798e-16)
(0.999563 -0.00249913 -1.44766e-16)
(0.999877 -0.00286161 3.0851e-16)
(1.00021 -0.00313199 -3.27836e-16)
(1.00052 -0.00331342 1.15993e-16)
(1.00079 -0.00336547 2.15777e-16)
(1.00098 -0.00329787 3.27897e-16)
(1.00103 -0.00305678 2.00362e-16)
(1.00107 -0.00253917 1.70341e-17)
(0.998901 0.00139517 3.28892e-17)
(0.998743 0.000810172 2.02089e-16)
(0.998693 0.000178095 9.40718e-17)
(0.998714 -0.000430986 1.80824e-16)
(0.998821 -0.00103172 1.08365e-16)
(0.999001 -0.00159414 4.56916e-17)
(0.999245 -0.00210482 5.27207e-17)
(0.999546 -0.00254964 -1.21163e-16)
(0.999875 -0.002916 -1.22904e-16)
(1.00023 -0.00318617 1.44086e-17)
(1.00055 -0.00336236 -7.9255e-16)
(1.00083 -0.00340587 -3.09754e-16)
(1.00104 -0.00332411 3.26029e-16)
(1.00111 -0.00306943 -7.28027e-17)
(1.00117 -0.00254372 -2.01864e-16)
(0.998843 0.0014417 -4.42046e-17)
(0.998682 0.00084014 -1.29503e-16)
(0.998631 0.000190579 -1.8602e-16)
(0.998655 -0.000434899 6.11248e-17)
(0.998768 -0.00105113 -2.05588e-16)
(0.998957 -0.00162704 3.83038e-17)
(0.999213 -0.00214871 -4.74253e-17)
(0.999528 -0.00260122 -8.66006e-18)
(0.999872 -0.0029716 -1.46865e-16)
(1.00024 -0.00324164 -7.70385e-17)
(1.00058 -0.00341269 2.72924e-17)
(1.00088 -0.00344769 2.69e-16)
(1.0011 -0.00335204 -1.35704e-16)
(1.00119 -0.00308382 2.68232e-16)
(1.00127 -0.00254966 9.49052e-17)
(0.998784 0.00148874 2.36257e-17)
(0.998619 0.000870443 1.24063e-16)
(0.998567 0.000203226 2.36333e-16)
(0.998594 -0.000438863 -6.83031e-17)
(0.998713 -0.00107085 -1.65743e-17)
(0.998912 -0.00166049 2.51013e-16)
(0.999179 -0.00219341 2.13492e-16)
(0.999508 -0.00265379 -1.46324e-16)
(0.999867 -0.00302832 3.92135e-16)
(1.00025 -0.00329832 3.55895e-16)
(1.00061 -0.00346428 3.78636e-16)
(1.00092 -0.00349081 -1.74941e-17)
(1.00116 -0.00338149 -3.00832e-16)
(1.00128 -0.00309976 -3.1632e-16)
(1.00137 -0.00255686 -3.05133e-17)
(0.998723 0.00153628 -2.02443e-17)
(0.998554 0.000901074 -6.55144e-17)
(0.998502 0.000216034 -1.95883e-16)
(0.998531 -0.00044286 1.26092e-16)
(0.998657 -0.00109082 1.21014e-16)
(0.998865 -0.00169443 -1.68072e-16)
(0.999144 -0.0022388 -8.48698e-17)
(0.999487 -0.00270725 8.39073e-18)
(0.999862 -0.00308603 -1.74272e-16)
(1.00026 -0.00335607 -3.04934e-16)
(1.00063 -0.00351701 -5.62929e-16)
(1.00096 -0.00353505 6.08374e-17)
(1.00123 -0.00341227 3.67276e-16)
(1.00136 -0.00311702 3.32914e-16)
(1.00147 -0.00256503 -7.0095e-17)
(0.998661 0.00158429 -1.61097e-17)
(0.998488 0.000932012 -1.31781e-17)
(0.998435 0.000228982 1.71417e-16)
(0.998467 -0.000446899 -1.61775e-16)
(0.998599 -0.00111104 -3.19748e-16)
(0.998816 -0.00172883 1.5521e-16)
(0.999108 -0.00228485 8.80973e-17)
(0.999464 -0.00276153 4.0805e-16)
(0.999855 -0.00314466 5.83627e-17)
(1.00027 -0.0034148 2.83931e-16)
(1.00066 -0.00357076 8.43539e-16)
(1.00101 -0.00358034 -2.31566e-16)
(1.00129 -0.00344425 -9.83614e-17)
(1.00144 -0.00313551 -1.16216e-17)
(1.00156 -0.00257425 -2.79112e-17)
(0.998597 0.00163277 4.50538e-17)
(0.99842 0.000963239 4.92348e-17)
(0.998367 0.00024205 -1.47427e-16)
(0.998401 -0.000450997 1.36985e-16)
(0.998539 -0.00113152 -9.22209e-17)
(0.998766 -0.00176367 -2.96973e-16)
(0.99907 -0.00233151 1.30548e-17)
(0.999441 -0.00281656 -3.50975e-17)
(0.999848 -0.00320414 -2.16446e-16)
(1.00028 -0.00347443 1.82526e-16)
(1.00069 -0.00362545 -7.87381e-16)
(1.00105 -0.00362654 -1.43393e-17)
(1.00135 -0.00347733 -1.75691e-16)
(1.00152 -0.00315512 3.28481e-17)
(1.00166 -0.00258442 -8.26673e-17)
(0.998531 0.0016817 -1.14968e-17)
(0.998351 0.000994729 -1.17312e-17)
(0.998297 0.000255203 2.04e-17)
(0.998334 -0.000455193 -1.52334e-16)
(0.998478 -0.00115227 -2.73559e-17)
(0.998715 -0.00179897 3.62617e-16)
(0.999031 -0.00237879 -2.6434e-16)
(0.999417 -0.00287235 -3.27502e-16)
(0.999841 -0.00326444 3.50787e-16)
(1.00029 -0.00353492 -3.17498e-16)
(1.00072 -0.00368104 4.02027e-16)
(1.0011 -0.00367365 3.80576e-16)
(1.00141 -0.00351149 2.74312e-16)
(1.0016 -0.00317589 -1.82684e-16)
(1.00176 -0.00259574 -6.22986e-17)
(0.998463 0.00173106 -1.23988e-17)
(0.998279 0.00102646 -7.19826e-17)
(0.998225 0.000268408 -9.69453e-17)
(0.998265 -0.000459527 7.11689e-17)
(0.998416 -0.00117334 1.80411e-16)
(0.998662 -0.00183476 6.32951e-17)
(0.998991 -0.0024267 2.45668e-16)
(0.999391 -0.00292887 5.3709e-17)
(0.999832 -0.00332554 -4.61208e-16)
(1.0003 -0.00359625 1.61455e-16)
(1.00074 -0.00373751 -2.28332e-16)
(1.00114 -0.00372167 -1.89757e-16)
(1.00148 -0.00354677 -2.55777e-16)
(1.00168 -0.00319788 4.04536e-17)
(1.00186 -0.00260827 1.50434e-16)
(0.998393 0.00178084 -1.90309e-17)
(0.998206 0.00105841 3.42856e-17)
(0.998151 0.000281627 4.14007e-17)
(0.998194 -0.000464049 -1.42647e-16)
(0.998352 -0.00119479 6.96282e-17)
(0.998608 -0.00187109 -2.1131e-16)
(0.99895 -0.00247529 -2.58918e-17)
(0.999365 -0.00298619 3.17986e-16)
(0.999823 -0.00338749 -2.02894e-16)
(1.0003 -0.00365848 -2.68303e-16)
(1.00077 -0.00379495 2.30562e-16)
(1.00119 -0.00377073 -6.84798e-17)
(1.00154 -0.00358331 -7.24739e-16)
(1.00177 -0.00322129 7.40074e-17)
(1.00196 -0.0026223 1.08199e-16)
(0.998322 0.00183102 -9.79548e-18)
(0.998131 0.00109056 3.34425e-17)
(0.998076 0.000294829 1.26015e-17)
(0.998122 -0.000468801 1.90152e-17)
(0.998286 -0.00121667 1.20156e-16)
(0.998552 -0.00190802 6.6784e-17)
(0.998907 -0.00252461 -2.20018e-16)
(0.999338 -0.00304435 -2.00957e-17)
(0.999813 -0.00345037 6.07702e-16)
(1.00031 -0.00372169 -1.94993e-16)
(1.0008 -0.00385348 -5.736e-18)
(1.00123 -0.00382097 2.88711e-17)
(1.0016 -0.00362128 2.78907e-17)
(1.00185 -0.00324627 -5.12358e-17)
(1.00205 -0.00263789 1.70769e-17)
(0.998249 0.00188159 2.58133e-17)
(0.998054 0.00112289 -6.82164e-17)
(0.997998 0.00030798 -7.79336e-17)
(0.998048 -0.000473832 1.49535e-19)
(0.998219 -0.00123904 -1.81433e-16)
(0.998495 -0.00194563 -2.8981e-17)
(0.998863 -0.00257476 4.27206e-17)
(0.99931 -0.00310346 -4.83901e-17)
(0.999802 -0.00351429 -4.11436e-16)
(1.00032 -0.00378605 5.48045e-16)
(1.00082 -0.00391327 -3.12915e-17)
(1.00128 -0.0038726 -5.73328e-17)
(1.00166 -0.00366089 3.38182e-16)
(1.00193 -0.00327302 -3.79567e-16)
(1.00215 -0.00265523 8.01799e-18)
(0.998174 0.00193254 2.73887e-18)
(0.997975 0.00115538 8.18362e-17)
(0.997919 0.000321056 2.19974e-16)
(0.997971 -0.000479178 -5.54877e-17)
(0.99815 -0.00126194 1.17912e-16)
(0.998436 -0.00198397 -1.83271e-16)
(0.998818 -0.00262581 -2.19546e-16)
(0.99928 -0.00316362 5.27474e-18)
(0.999791 -0.00357938 2.39556e-16)
(1.00033 -0.00385169 -4.78334e-16)
(1.00085 -0.0039745 1.1921e-16)
(1.00132 -0.00392579 -2.07312e-17)
(1.00173 -0.00370226 2.61245e-16)
(1.00201 -0.0033016 8.07871e-17)
(1.00224 -0.0026742 -1.25866e-16)
(0.998097 0.00198386 1.05247e-18)
(0.997895 0.00118801 -8.88196e-17)
(0.997838 0.000334027 -1.25546e-16)
(0.997893 -0.000484883 2.07835e-17)
(0.998079 -0.00128545 -2.1906e-17)
(0.998376 -0.00202313 1.66358e-16)
(0.998771 -0.00267787 3.60461e-16)
(0.99925 -0.00322497 -3.19844e-16)
(0.999778 -0.0036458 3.63961e-16)
(1.00033 -0.0039188 3.21858e-17)
(1.00087 -0.00403737 7.14697e-17)
(1.00137 -0.00398074 -1.3811e-16)
(1.00179 -0.00374557 2.66827e-16)
(1.00209 -0.00333215 1.51325e-16)
(1.00234 -0.0026949 1.97698e-16)
(0.998019 0.00203553 -8.60779e-18)
(0.997812 0.00122077 8.47248e-17)
(0.997755 0.000346874 1.54637e-16)
(0.997813 -0.000490975 5.34409e-17)
(0.998006 -0.00130961 1.56346e-16)
(0.998314 -0.00206318 1.20107e-16)
(0.998723 -0.00273104 -3.23706e-16)
(0.999218 -0.00328761 6.4876e-16)
(0.999764 -0.00371369 -2.04147e-16)
(1.00034 -0.00398753 -6.79459e-17)
(1.0009 -0.00410199 -2.46049e-16)
(1.00141 -0.00403755 -1.08122e-16)
(1.00185 -0.00379084 -2.96934e-16)
(1.00217 -0.00336461 -1.09481e-16)
(1.00243 -0.00271709 4.75424e-17)
(0.997939 0.00208754 -3.05684e-17)
(0.997728 0.00125365 -9.06062e-17)
(0.997669 0.000359574 -1.08448e-17)
(0.997731 -0.000497492 1.06313e-16)
(0.997931 -0.00133446 -1.42286e-16)
(0.99825 -0.0021042 -1.04511e-16)
(0.998673 -0.0027854 4.05078e-16)
(0.999185 -0.00335166 -1.21024e-16)
(0.99975 -0.00378317 -5.17265e-16)
(1.00034 -0.00405799 7.12207e-17)
(1.00092 -0.00416848 -1.2493e-16)
(1.00146 -0.00409628 2.31268e-16)
(1.00192 -0.00383809 3.70681e-16)
(1.00226 -0.00339893 3.30416e-16)
(1.00253 -0.0027407 -2.77023e-16)
(0.997856 0.00213989 1.83342e-18)
(0.997641 0.00128663 -1.74771e-17)
(0.997582 0.000372113 -7.23598e-17)
(0.997647 -0.000504456 4.51163e-17)
(0.997854 -0.00136006 -7.88957e-17)
(0.998184 -0.00214623 1.34599e-16)
(0.998622 -0.00284103 -1.164e-16)
(0.99915 -0.00341721 3.99628e-17)
(0.999734 -0.00385432 -1.08424e-16)
(1.00035 -0.00413025 2.75964e-16)