# Probe 0 (1 0 0)
# Probe 1 (7 0 0)
#       Probe             0             1
#        Time
          0.1     -0.953545    -0.0379273
          0.2     -0.542263     0.0188162
          0.3    -0.0551241     0.0128687
          0.4    -0.0526272    -0.0022841
          0.5    -0.0891374  -8.79508e-05
          0.6     -0.112425    -0.0010707
          0.7     -0.145631   0.000396514
          0.8      -0.18004   0.000296874
          0.9     -0.208462   0.000710789
            1     -0.234994   0.000655043
          1.1     -0.256961   0.000528137
          1.2     -0.275217   0.000389703
          1.3     -0.291964   0.000271036
          1.4     -0.305581   0.000462928
          1.5     -0.317448   0.000567875
          1.6     -0.326478   0.000670251
          1.7     -0.334512   0.000785986
          1.8     -0.341225   0.000897828
          1.9      -0.34686    0.00101935
            2     -0.351551    0.00114684
          2.1     -0.354672    0.00127719
          2.2      -0.35772    0.00142966
          2.3     -0.360184    0.00157573
          2.4     -0.362177    0.00173107
          2.5     -0.363848    0.00189338
          2.6      -0.36502    0.00205364
          2.7     -0.365969     0.0022294
          2.8     -0.366662    0.00240406
          2.9     -0.367135    0.00258512
            3      -0.36747    0.00277088
          3.1     -0.367682    0.00296041
          3.2     -0.367836    0.00315307
          3.3     -0.367881    0.00334706
          3.4      -0.36786    0.00354461
          3.5     -0.367779    0.00374468
          3.6     -0.367347    0.00394816
          3.7     -0.367128    0.00415345
          3.8     -0.366922    0.00435884
          3.9     -0.366717    0.00456306
            4     -0.366493    0.00476757
          4.1      -0.36625    0.00497161
          4.2     -0.365991    0.00517466
          4.3     -0.365715    0.00537687
          4.4     -0.365426     0.0055766
          4.5     -0.365164     0.0057743
          4.6     -0.364859    0.00596761
          4.7     -0.364539    0.00615716
          4.8     -0.364207    0.00634128
          4.9     -0.363869    0.00651982
            5     -0.363527    0.00669194
          5.1     -0.363184    0.00685625
          5.2     -0.362839    0.00701244
          5.3     -0.362494    0.00715974
          5.4     -0.362148    0.00729706
          5.5     -0.361804    0.00742363
          5.6     -0.361463    0.00753955
          5.7     -0.361127    0.00764284
          5.8     -0.360794    0.00773419
          5.9      -0.36047    0.00781239
            6     -0.360148     0.0078764
          6.1     -0.359838     0.0079274
          6.2     -0.359526    0.00796255
          6.3     -0.359227    0.00798512
          6.4     -0.358925    0.00799023
          6.5     -0.358639    0.00798333
          6.6     -0.358349    0.00795784
          6.7     -0.358075    0.00792105
          6.8     -0.357831    0.00786698
          6.9     -0.357575    0.00779996
            7     -0.357314    0.00771612
          7.1     -0.357056    0.00761624
          7.2     -0.356806    0.00750679
          7.3     -0.356556    0.00737919
          7.4     -0.356317    0.00724314
          7.5     -0.356077    0.00709026
          7.6     -0.355846    0.00692783
          7.7     -0.355617     0.0067541
          7.8     -0.355394    0.00656971
          7.9     -0.355175    0.00637545
            8     -0.354959    0.00617202
          8.1     -0.354748    0.00596008
          8.2      -0.35454    0.00574034
          8.3     -0.354335    0.00551362
          8.4     -0.354133    0.00528068
          8.5     -0.354052    0.00496667
          8.6     -0.353798    0.00473481
          8.7     -0.353605    0.00448244
          8.8     -0.353406    0.00423369
          8.9     -0.353219    0.00397805
            9     -0.353031    0.00372234
          9.1     -0.352844    0.00346452
          9.2     -0.352664    0.00320442
          9.3     -0.352478    0.00294609
          9.4       -0.3523    0.00268499
          9.5      -0.35212    0.00242538
          9.6     -0.351942    0.00216588
          9.7     -0.351765    0.00190753
          9.8     -0.351589    0.00165034
          9.9     -0.351413    0.00139473
           10     -0.351238    0.00114091
         10.1     -0.351064   0.000889127
         10.2      -0.35089   0.000639532
         10.3     -0.350717   0.000392317
         10.4     -0.350545   0.000147657
         10.5     -0.350372  -9.43302e-05
         10.6     -0.350201  -0.000333559
         10.7      -0.35003  -0.000569807
         10.8     -0.349859  -0.000803114
         10.9     -0.349689   -0.00103335
           11     -0.349519   -0.00126046
         11.1      -0.34935   -0.00148436
         11.2     -0.349181   -0.00170509
         11.3     -0.349013   -0.00192232
         11.4     -0.348858   -0.00213927
         11.5     -0.348692   -0.00234939
         11.6     -0.348526   -0.00255613
         11.7     -0.348359   -0.00275949
         11.8     -0.348193   -0.00295908
         11.9     -0.348028   -0.00315493
           12     -0.347864   -0.00334688
         12.1     -0.347713   -0.00353728
         12.2     -0.347552   -0.00372103
         12.3     -0.347391   -0.00390076
         12.4     -0.347229   -0.00407624
         12.5     -0.347069   -0.00424719
         12.6     -0.346909   -0.00441354
         12.7      -0.34675   -0.00457526
         12.8     -0.346592   -0.00473203
         12.9     -0.346434   -0.00488407
           13     -0.346278   -0.00503101
         13.1     -0.346122   -0.00517273
         13.2     -0.345968   -0.00530927
         13.3     -0.345815   -0.00544056
         13.4     -0.345662   -0.00556614
         13.5     -0.345511   -0.00568628
         13.6      -0.34536   -0.00580058
         13.7     -0.345211   -0.00590922
         13.8     -0.345063   -0.00601194
         13.9     -0.344916   -0.00610886
           14     -0.344769   -0.00619985
         14.1     -0.344624   -0.00628481
         14.2     -0.344662   -0.00653134
         14.3     -0.344507   -0.00659143
         14.4     -0.344367   -0.00665732
         14.5     -0.344223   -0.00671574
         14.6      -0.34408   -0.00676866
         14.7     -0.343938   -0.00681549
         14.8     -0.343798   -0.00685666
         14.9     -0.343658   -0.00689213
           15      -0.34352    -0.0069221
         15.1     -0.343384   -0.00694704
         15.2     -0.343246   -0.00696642
         15.3      -0.34311   -0.00698043
         15.4     -0.342976   -0.00698987
         15.5     -0.342844    -0.0069945
         15.6     -0.342714   -0.00699458
         15.7     -0.342585    -0.0069903
         15.8     -0.342457    -0.0069819
         15.9      -0.34233   -0.00696956
           16     -0.342205   -0.00695354
         16.1     -0.342081   -0.00693403
         16.2     -0.341958   -0.00691127
         16.3     -0.341837    -0.0068855
         16.4     -0.341717   -0.00685694
         16.5     -0.341599   -0.00682582
         16.6     -0.341482   -0.00679237
         16.7     -0.341366   -0.00675683
         16.8     -0.341252    -0.0067194
         16.9      -0.34114   -0.00668031
           17     -0.341029   -0.00663979
         17.1      -0.34092   -0.00659804
         17.2     -0.340812   -0.00655524
         17.3     -0.340706   -0.00651162
         17.4     -0.340602   -0.00646734
         17.5     -0.340499   -0.00642257
         17.6     -0.340399    -0.0063775
         17.7       -0.3403   -0.00633224
         17.8     -0.340202   -0.00628698
         17.9     -0.340107   -0.00624182
           18     -0.340013   -0.00619692
         18.1     -0.339921   -0.00615235
         18.2     -0.339831   -0.00610825
         18.3     -0.339744     -0.006065
         18.4     -0.339659   -0.00602203
         18.5     -0.339574   -0.00597979
         18.6     -0.339492   -0.00593831
         18.7     -0.339412   -0.00589762
         18.8     -0.339334   -0.00585789
         18.9     -0.339258   -0.00581902
           19     -0.339373   -0.00596076
         19.1     -0.339292   -0.00591451
         19.2     -0.339219   -0.00587794
         19.3     -0.339147   -0.00584011
         19.4     -0.339077   -0.00580285
         19.5     -0.339008   -0.00576638
         19.6     -0.338944   -0.00573114
         19.7      -0.33888   -0.00569644
         19.8     -0.338816   -0.00566212
         19.9     -0.338754   -0.00562889
           20     -0.338693    -0.0055965
         20.1     -0.338635   -0.00556499
         20.2     -0.338578   -0.00553431
         20.3     -0.338523   -0.00550442
         20.4      -0.33847    -0.0054753
         20.5     -0.338418   -0.00544692
         20.6     -0.338368   -0.00541922
         20.7     -0.338319    -0.0053922
         20.8     -0.338272    -0.0053658
         20.9     -0.338226   -0.00534001
           21     -0.338181   -0.00531478
         21.1     -0.338138    -0.0052901
         21.2     -0.338096   -0.00526593
         21.3     -0.338056   -0.00524226
         21.4     -0.338016   -0.00521904
         21.5     -0.337978   -0.00519629
         21.6     -0.337941   -0.00517395
         21.7     -0.337905   -0.00515203
         21.8      -0.33787   -0.00513051
         21.9     -0.337837   -0.00510937
           22     -0.337804   -0.00508861
         22.1     -0.337772   -0.00506822
         22.2     -0.337741   -0.00504818
         22.3     -0.337711    -0.0050285
         22.4     -0.337682   -0.00500917
         22.5     -0.337653   -0.00499018
         22.6     -0.337626   -0.00497155
         22.7     -0.337599   -0.00495325
         22.8     -0.337573   -0.00493531
         22.9     -0.337548   -0.00491772
           23     -0.337523    -0.0049005
         23.1     -0.337499   -0.00488361
         23.2     -0.337476   -0.00486708
         23.3     -0.337454   -0.00485092
         23.4     -0.337432   -0.00483512
         23.5      -0.33741   -0.00481969
         23.6     -0.337389   -0.00480464
         23.7     -0.337369   -0.00478996
         23.8     -0.337349   -0.00477565
         23.9      -0.33733   -0.00476173
           24     -0.337311   -0.00474818
         24.1     -0.337293   -0.00473502
         24.2     -0.337275   -0.00472224
         24.3     -0.337258   -0.00470984
         24.4     -0.337241   -0.00469782
         24.5     -0.337225   -0.00468618
         24.6     -0.337209   -0.00467492
         24.7     -0.337194   -0.00466401
         24.8     -0.337179   -0.00465348
         24.9     -0.337164    -0.0046433
           25     -0.337149   -0.00463346
         25.1     -0.337135   -0.00462402
         25.2     -0.337122   -0.00461482
         25.3     -0.337109   -0.00460608
         25.4     -0.337096   -0.00459756
         25.5     -0.337083   -0.00458941
         25.6     -0.337071   -0.00458155
         25.7     -0.337059   -0.00457399
         25.8     -0.337047   -0.00456671
         25.9     -0.337036    -0.0045597
           26     -0.337025   -0.00455296
         26.1     -0.337014   -0.00454648
         26.2     -0.337004   -0.00454023
         26.3     -0.336994   -0.00453424
         26.4     -0.336984   -0.00452845
         26.5     -0.336975   -0.00452291
         26.6     -0.336965   -0.00451752
         26.7     -0.336956   -0.00451233
         26.8     -0.336948   -0.00450733
         26.9     -0.336939    -0.0045025
           27     -0.336931   -0.00449789
         27.1     -0.336923   -0.00449336
         27.2     -0.336915   -0.00448899
         27.3     -0.336907   -0.00448484
         27.4       -0.3369   -0.00448072
         27.5     -0.336893   -0.00447674
         27.6     -0.336886   -0.00447293
         27.7     -0.336879   -0.00446919
         27.8     -0.336872   -0.00446554
         27.9     -0.336866   -0.00446201
           28      -0.33686   -0.00445857
         28.1     -0.336853   -0.00445523
         28.2     -0.336848   -0.00445197
         28.3     -0.336842    -0.0044488
         28.4     -0.336836   -0.00444572
         28.5     -0.336831   -0.00444271
         28.6     -0.336884   -0.00448914
         28.7     -0.336881   -0.00448695
         28.8     -0.336876   -0.00448411
         28.9     -0.336872   -0.00448109
           29     -0.336867     -0.004478
         29.1     -0.336862   -0.00447491
         29.2     -0.336858   -0.00447176
         29.3     -0.336853   -0.00446875
         29.4     -0.336849   -0.00446571
         29.5     -0.336845   -0.00446277
         29.6      -0.33684   -0.00445972
         29.7     -0.336836     -0.004457
         29.8     -0.336832   -0.00445409
         29.9     -0.336828    -0.0044514
           30     -0.336824   -0.00444874
         30.1      -0.33682    -0.0044461
         30.2     -0.336816   -0.00444357
         30.3     -0.336813   -0.00444107
         30.4     -0.336809   -0.00443864
         30.5     -0.336806   -0.00443627
         30.6     -0.336802   -0.00443398
         30.7     -0.336799   -0.00443175
         30.8     -0.336796   -0.00442957
         30.9     -0.336793   -0.00442748
           31      -0.33679   -0.00442544
         31.1     -0.336787   -0.00442341
         31.2     -0.336784   -0.00442158
         31.3     -0.336781   -0.00441963
         31.4     -0.336778   -0.00441787
         31.5     -0.336775   -0.00441612
         31.6     -0.336773   -0.00441439
         31.7      -0.33677   -0.00441283
         31.8     -0.336767   -0.00441117
         31.9     -0.336765   -0.00440968
           32     -0.336762   -0.00440819
         32.1      -0.33676   -0.00440675
         32.2     -0.336758   -0.00440536
         32.3     -0.336755   -0.00440402
         32.4     -0.336753   -0.00440271
         32.5     -0.336751   -0.00440144
         32.6     -0.336749   -0.00440021
         32.7     -0.336747   -0.00439902
         32.8     -0.336745   -0.00439787
         32.9     -0.336743   -0.00439675
           33     -0.336741   -0.00439566
         33.1     -0.336739    -0.0043946
         33.2     -0.336737   -0.00439357
         33.3     -0.336735   -0.00439258
         33.4     -0.336733    -0.0043916
         33.5     -0.336731   -0.00439066
         33.6      -0.33673   -0.00438974
         33.7     -0.336728   -0.00438887
         33.8     -0.336726   -0.00438796
         33.9     -0.336725   -0.00438713
           34     -0.336723   -0.00438631
         34.1     -0.336722   -0.00438616
         34.2     -0.336721   -0.00438542
         34.3     -0.336719   -0.00438469
         34.4     -0.336718   -0.00438396
         34.5     -0.336716   -0.00438323
         34.6     -0.336715   -0.00438251
         34.7     -0.336713    -0.0043818
         34.8     -0.336712   -0.00438111
         34.9     -0.336711   -0.00438043
           35     -0.336709   -0.00437976
         35.1     -0.336708   -0.00437911
         35.2     -0.336707   -0.00437847
         35.3     -0.336706   -0.00437784
         35.4     -0.336704   -0.00437723
         35.5     -0.336703   -0.00437663
         35.6     -0.336702   -0.00437604
         35.7     -0.336701   -0.00437547
         35.8       -0.3367    -0.0043749
         35.9     -0.336699   -0.00437434
           36     -0.336698   -0.00437382
         36.1     -0.336696   -0.00437327
         36.2     -0.336695   -0.00437278
         36.3     -0.336694   -0.00437224
         36.4     -0.336693   -0.00437176
         36.5     -0.336692   -0.00437127
         36.6     -0.336691   -0.00437078
         36.7      -0.33669   -0.00437032
         36.8      -0.33669   -0.00436986
         36.9     -0.336689   -0.00436941
           37     -0.336688   -0.00436898
         37.1     -0.336687   -0.00436853
         37.2     -0.336686   -0.00436812
         37.3     -0.336685   -0.00436769
         37.4     -0.336684   -0.00436729
         37.5     -0.336684   -0.00436687
         37.6     -0.336683   -0.00436647
         37.7     -0.336682   -0.00436608
         37.8     -0.336681   -0.00436576
         37.9      -0.33668   -0.00436531
           38      -0.33668   -0.00436507
         38.1     -0.336679   -0.00436464
         38.2     -0.336678   -0.00436428
         38.3     -0.336677   -0.00436399
         38.4     -0.336677   -0.00436364
         38.5     -0.336676   -0.00436334
         38.6     -0.336675   -0.00436286
         38.7     -0.336675   -0.00436264
         38.8     -0.336674   -0.00436223
         38.9     -0.336673   -0.00436206
           39     -0.336673   -0.00436159
         39.1     -0.336672    -0.0043615
         39.2     -0.336672   -0.00436119
         39.3     -0.336671   -0.00436065
         39.4      -0.33667   -0.00436053
         39.5      -0.33667   -0.00436026
         39.6     -0.336669      -0.00436
         39.7     -0.336669   -0.00435976
         39.8     -0.336668   -0.00435925
         39.9     -0.336667   -0.00435912
           40     -0.336667   -0.00435878
         40.1     -0.336666    -0.0043586
         40.2     -0.336666   -0.00435824
         40.3     -0.336665   -0.00435807
         40.4     -0.336665   -0.00435773
         40.5     -0.336664   -0.00435756
         40.6     -0.336664    -0.0043573
         40.7     -0.336663   -0.00435698
         40.8     -0.336663   -0.00435681
         40.9     -0.336662   -0.00435658
           41     -0.336662   -0.00435631
         41.1     -0.336661   -0.00435606
         41.2     -0.336661   -0.00435583
         41.3     -0.336661    -0.0043556
         41.4      -0.33666   -0.00435537
         41.5      -0.33666   -0.00435514
         41.6     -0.336659   -0.00435492
         41.7     -0.336659   -0.00435477
         41.8     -0.336658   -0.00435443
         41.9     -0.336658   -0.00435439
           42     -0.336658   -0.00435414
         42.1     -0.336657   -0.00435409
         42.2     -0.336658   -0.00435363
         42.3     -0.336658   -0.00435369
         42.4     -0.336655    -0.0043526
         42.5     -0.336657   -0.00435299
         42.6     -0.336656   -0.00435305
         42.7     -0.336656   -0.00435352
         42.8     -0.336656   -0.00435253
         42.9     -0.336652   -0.00435136
           43     -0.336656   -0.00435261
         43.1     -0.336652   -0.00435123
         43.2     -0.336654   -0.00435198
         43.3     -0.336655   -0.00435148
         43.4     -0.336654   -0.00435145
         43.5     -0.336654   -0.00435187
         43.6      -0.33665   -0.00434988
         43.7     -0.336654   -0.00435137
         43.8      -0.33665    -0.0043499
         43.9     -0.336653   -0.00435097
           44     -0.336649   -0.00434968
         44.1     -0.336651   -0.00434989
         44.2     -0.336651   -0.00435034
         44.3     -0.336651   -0.00435033
         44.4     -0.336651   -0.00435039
         44.5     -0.336651   -0.00435032
         44.6     -0.336651   -0.00435022
         44.7     -0.336646   -0.00434777
         44.8     -0.336651   -0.00434947
         44.9     -0.336647   -0.00434832
           45     -0.336651   -0.00434914
         45.1      -0.33665    -0.0043495
         45.2     -0.336645    -0.0043474
         45.3     -0.336649   -0.00434881
         45.4     -0.336649   -0.00434899
         45.5     -0.336645   -0.00434717
         45.6     -0.336649   -0.00434834
         45.7     -0.336649   -0.00434862
         45.8     -0.336645   -0.00434699
         45.9     -0.336647   -0.00434702
           46      -0.33665   -0.00434877
         46.1     -0.336644   -0.00434645
         46.2     -0.336648   -0.00434764
         46.3     -0.336648   -0.00434799
         46.4     -0.336643    -0.0043462
         46.5     -0.336645   -0.00434633
         46.6     -0.336649   -0.00434819
         46.7     -0.336643   -0.00434608
         46.8     -0.336645   -0.00434611
         46.9     -0.336648   -0.00434746
           47     -0.336643   -0.00434609
         47.1     -0.336645   -0.00434601
         47.2     -0.336645   -0.00434649
         47.3     -0.336645   -0.00434674
         47.4     -0.336645   -0.00434662
         47.5     -0.336645   -0.00434649
         47.6     -0.336645   -0.00434639
         47.7     -0.336645   -0.00434633
         47.8     -0.336645   -0.00434629
         47.9     -0.336645   -0.00434626
           48     -0.336645   -0.00434623
         48.1     -0.336645   -0.00434614
         48.2     -0.336639   -0.00434391
         48.3     -0.336645    -0.0043463
         48.4     -0.336644   -0.00434546
         48.5     -0.336644   -0.00434601
         48.6     -0.336643   -0.00434483
         48.7     -0.336643   -0.00434513
         48.8     -0.336643    -0.0043456
         48.9     -0.336643   -0.00434554
           49     -0.336643    -0.0043454
         49.1     -0.336643   -0.00434525
         49.2     -0.336643   -0.00434514
         49.3     -0.336643   -0.00434507
         49.4     -0.336643   -0.00434505
         49.5     -0.336643   -0.00434503
         49.6     -0.336643   -0.00434502
         49.7     -0.336643   -0.00434502
         49.8     -0.336643   -0.00434502
         49.9     -0.336643   -0.00434501
           50     -0.336643     -0.004345
         50.1     -0.336642   -0.00434498
         50.2     -0.336642   -0.00434494
         50.3     -0.336642   -0.00434489
         50.4     -0.336642   -0.00434484
         50.5     -0.336636   -0.00434247
         50.6     -0.336642   -0.00434434
         50.7     -0.336642   -0.00434515
         50.8     -0.336642   -0.00434433
         50.9     -0.336642   -0.00434441
           51     -0.336642   -0.00434448
         51.1     -0.336642    -0.0043445
         51.2     -0.336642   -0.00434449
         51.3     -0.336641   -0.00434446
         51.4     -0.336641   -0.00434443
         51.5     -0.336641    -0.0043444
         51.6     -0.336641   -0.00434435
         51.7     -0.336641   -0.00434429
         51.8     -0.336636   -0.00434231
         51.9     -0.336642   -0.00434437
           52     -0.336641   -0.00434418
         52.1     -0.336641   -0.00434416
         52.2     -0.336641   -0.00434414
         52.3      -0.33664   -0.00434363
         52.4      -0.33664   -0.00434392
         52.5      -0.33664    -0.0043438
         52.6      -0.33664   -0.00434374
         52.7      -0.33664   -0.00434369
         52.8      -0.33664   -0.00434366
         52.9      -0.33664   -0.00434364
           53      -0.33664   -0.00434364
         53.1      -0.33664   -0.00434364
         53.2      -0.33664   -0.00434363
         53.3      -0.33664   -0.00434363
         53.4      -0.33664   -0.00434363
         53.5      -0.33664   -0.00434363
         53.6      -0.33664   -0.00434362
         53.7      -0.33664   -0.00434362
         53.8      -0.33664   -0.00434361
         53.9      -0.33664   -0.00434359
           54      -0.33664   -0.00434356
         54.1      -0.33664   -0.00434355
         54.2      -0.33664   -0.00434355
         54.3      -0.33664   -0.00434354
         54.4      -0.33664   -0.00434353
         54.5      -0.33664   -0.00434352
         54.6      -0.33664    -0.0043435
         54.7      -0.33664   -0.00434349
         54.8      -0.33664   -0.00434347
         54.9      -0.33664   -0.00434346
           55      -0.33664   -0.00434343
         55.1      -0.33664    -0.0043434
         55.2      -0.33664   -0.00434338
         55.3     -0.336639   -0.00434334
         55.4     -0.336639    -0.0043433
         55.5     -0.336639   -0.00434326
         55.6     -0.336639   -0.00434322
         55.7     -0.336639   -0.00434318
         55.8     -0.336639   -0.00434315
         55.9     -0.336639   -0.00434312
           56     -0.336639    -0.0043431
         56.1     -0.336639   -0.00434308
         56.2     -0.336639   -0.00434305
         56.3     -0.336639   -0.00434304
         56.4     -0.336639   -0.00434303
         56.5     -0.336639   -0.00434301
         56.6     -0.336639     -0.004343
         56.7     -0.336639   -0.00434299
         56.8     -0.336639   -0.00434298
         56.9     -0.336639   -0.00434297
           57     -0.336639   -0.00434296
         57.1     -0.336639   -0.00434295
         57.2     -0.336639   -0.00434294
         57.3     -0.336639   -0.00434294
         57.4     -0.336639   -0.00434294
         57.5     -0.336639   -0.00434293
         57.6     -0.336639   -0.00434293
         57.7     -0.336639   -0.00434293
         57.8     -0.336639   -0.00434293
         57.9     -0.336639   -0.00434293
           58     -0.336639   -0.00434293
         58.1     -0.336639   -0.00434293
         58.2     -0.336639   -0.00434293
         58.3     -0.336639   -0.00434293
         58.4     -0.336639   -0.00434293
         58.5     -0.336638   -0.00434293
         58.6     -0.336638   -0.00434294
         58.7     -0.336638   -0.00434293
         58.8     -0.336638   -0.00434293
         58.9     -0.336638   -0.00434293
           59     -0.336638   -0.00434292
         59.1     -0.336638   -0.00434292
         59.2     -0.336638   -0.00434294
         59.3     -0.336638   -0.00434294
         59.4     -0.336638   -0.00434293
         59.5     -0.336638   -0.00434293
         59.6     -0.336638   -0.00434292
         59.7     -0.336638   -0.00434292
         59.8     -0.336638   -0.00434291
         59.9     -0.336638   -0.00434291
           60     -0.336638   -0.00434291
         60.1     -0.336638   -0.00434291
         60.2     -0.336638   -0.00434291
         60.3     -0.336638   -0.00434291
         60.4     -0.336638    -0.0043429
         60.5     -0.336638    -0.0043429
         60.6     -0.336638   -0.00434289
         60.7     -0.336638   -0.00434289
         60.8     -0.336638   -0.00434289
         60.9     -0.336638   -0.00434288
           61     -0.336638   -0.00434288
         61.1     -0.336638   -0.00434288
         61.2     -0.336638   -0.00434287
         61.3     -0.336638   -0.00434287
         61.4     -0.336638   -0.00434286
         61.5     -0.336638   -0.00434285
         61.6     -0.336638   -0.00434285
         61.7     -0.336638   -0.00434284
         61.8     -0.336638   -0.00434284
         61.9     -0.336638   -0.00434283
           62     -0.336638   -0.00434283
         62.1     -0.336638   -0.00434282
         62.2     -0.336638   -0.00434282
         62.3     -0.336638   -0.00434281
         62.4     -0.336638    -0.0043428
         62.5     -0.336638    -0.0043428
         62.6     -0.336638   -0.00434279
         62.7     -0.336638   -0.00434279
         62.8     -0.336638   -0.00434279
         62.9     -0.336638   -0.00434279
           63     -0.336638   -0.00434279
         63.1     -0.336638   -0.00434278
         63.2     -0.336638   -0.00434278
         63.3     -0.336638   -0.00434277
         63.4     -0.336638   -0.00434277
         63.5     -0.336638   -0.00434276
         63.6     -0.336638   -0.00434276
         63.7     -0.336638   -0.00434275
         63.8     -0.336638   -0.00434275
         63.9     -0.336638   -0.00434275
           64     -0.336638   -0.00434275
         64.1     -0.336638   -0.00434274
         64.2     -0.336638   -0.00434274
         64.3     -0.336638   -0.00434273
         64.4     -0.336638   -0.00434273
         64.5     -0.336638   -0.00434273
         64.6     -0.336638   -0.00434273
         64.7     -0.336638   -0.00434273
         64.8     -0.336638   -0.00434272
         64.9     -0.336638   -0.00434271
           65     -0.336638   -0.00434271
         65.1     -0.336638   -0.00434271
         65.2     -0.336638   -0.00434271
         65.3     -0.336638    -0.0043427
         65.4     -0.336638    -0.0043427
         65.5     -0.336638   -0.00434269
         65.6     -0.336638   -0.00434269
         65.7     -0.336638   -0.00434269
         65.8     -0.336638   -0.00434269
         65.9     -0.336638   -0.00434268
           66     -0.336638   -0.00434268
         66.1     -0.336638   -0.00434268
         66.2     -0.336638   -0.00434267
         66.3     -0.336638   -0.00434267
         66.4     -0.336638   -0.00434267
         66.5     -0.336638   -0.00434267
         66.6     -0.336638   -0.00434266
         66.7     -0.336638   -0.00434266
         66.8     -0.336638   -0.00434266
         66.9     -0.336638   -0.00434265
           67     -0.336638   -0.00434265
         67.1     -0.336638   -0.00434265
         67.2     -0.336638   -0.00434265
         67.3     -0.336638   -0.00434264
         67.4     -0.336638   -0.00434264
         67.5     -0.336638   -0.00434264
         67.6     -0.336638   -0.00434264
         67.7     -0.336638   -0.00434264
         67.8     -0.336638   -0.00434263
         67.9     -0.336638   -0.00434263
           68     -0.336638   -0.00434262
         68.1     -0.336638   -0.00434262
         68.2     -0.336638   -0.00434262
         68.3     -0.336638   -0.00434262
         68.4     -0.336638   -0.00434262
         68.5     -0.336638   -0.00434262
         68.6     -0.336638   -0.00434261
         68.7     -0.336638   -0.00434261
         68.8     -0.336638   -0.00434261
         68.9     -0.336638   -0.00434261
           69     -0.336638   -0.00434261
         69.1     -0.336638   -0.00434261
         69.2     -0.336638   -0.00434261
         69.3     -0.336638   -0.00434261
         69.4     -0.336638   -0.00434261
         69.5     -0.336638    -0.0043426
         69.6     -0.336638    -0.0043426
         69.7     -0.336638    -0.0043426
         69.8     -0.336638    -0.0043426
         69.9     -0.336638    -0.0043426
           70     -0.336638    -0.0043426
         70.1     -0.336638   -0.00434259
         70.2     -0.336638   -0.00434259
         70.3     -0.336638   -0.00434259
         70.4     -0.336637   -0.00434259
         70.5     -0.336637   -0.00434259
         70.6     -0.336637   -0.00434259
         70.7     -0.336637   -0.00434259
         70.8     -0.336637   -0.00434259
         70.9     -0.336637   -0.00434259
           71     -0.336637   -0.00434259
         71.1     -0.336637   -0.00434258
         71.2     -0.336637   -0.00434258