1.45 	0 	0 	-0.297294
2.35 	0 	0 	-0.13169
