1.45 	0 	0 	0.00610054 	-0.00407244 	3.93704e-21
2.35 	0 	0 	0.124873 	-0.00883516 	1.8196e-21
