1.45 	0 	0 	-0.00813394 	-0.00258486 	1.65349e-20
2.35 	0 	0 	0.0621452 	-0.00662511 	9.88774e-21
