1.45 	0 	0 	-0.291515
2.35 	0 	0 	-0.126807
