/*--------------------------------*- C++ -*----------------------------------*\
  =========                 |
  \\      /  F ield         | OpenFOAM: The Open Source CFD Toolbox
   \\    /   O peration     | Website:  https://openfoam.org
    \\  /    A nd           | Version:  6.0
     \\/     M anipulation  |
\*---------------------------------------------------------------------------*/
FoamFile
{
    version     2.0;
    format      ascii;
    class       volScalarField;
    location    "17";
    object      p;
}
// * * * * * * * * * * * * * * * * * * * * * * * * * * * * * * * * * * * * * //

dimensions      [0 2 -2 0 0 0 0];

internalField   nonuniform List<scalar> 
47000
(
0.0100827
0.0103291
0.0106968
0.0111003
0.0114255
0.0115557
0.0114191
0.011007
0.0103654
0.00957707
0.00873477
0.00790539
0.00714572
0.0064636
0.00587855
0.0053677
0.00493868
0.00456855
0.00426093
0.00399517
0.00377049
0.00357133
0.00339411
0.00322785
0.00307166
0.00291855
0.0027877
0.00262568
0.0026889
0.00373579
0.0100728
0.0103349
0.0107408
0.0112067
0.0116185
0.0118552
0.0118351
0.0115374
0.0109958
0.0102855
0.00949607
0.00869563
0.0079452
0.00725557
0.00665171
0.00611102
0.00564629
0.00523379
0.00488224
0.00456902
0.00429681
0.0040472
0.00381733
0.00359187
0.00336892
0.00313641
0.00291749
0.00268572
0.00269224
0.00306979
0.010052
0.0103071
0.0107117
0.0111869
0.0116233
0.0119013
0.0119349
0.011695
0.0112051
0.0105327
0.00976307
0.00896439
0.00820025
0.00748441
0.00684522
0.00626148
0.00574862
0.00528411
0.00488028
0.00451666
0.00420012
0.00391459
0.0036604
0.00342364
0.00320436
0.00299338
0.00281705
0.00267141
0.00273578
0.00319473
0.0100217
0.0102642
0.010662
0.0111418
0.0116013
0.0119249
0.0120242
0.0118631
0.0114554
0.01086
0.010157
0.00941359
0.00869469
0.00801635
0.00740851
0.00684989
0.00635589
0.00590273
0.0055036
0.00513782
0.00481485
0.00451971
0.00425535
0.00400841
0.0037796
0.00355961
0.00337095
0.00320537
0.00318597
0.0034933
0.0099848
0.010209
0.0105951
0.0110742
0.011551
0.0119156
0.0120779
0.0119961
0.0116739
0.0111621
0.010535
0.00985854
0.00919885
0.0085743
0.0080165
0.00750372
0.00704995
0.0066284
0.00625007
0.00589186
0.00556265
0.00524694
0.00494815
0.00465306
0.00436228
0.00406648
0.00378447
0.00350803
0.00331939
0.00335263
0.00993763
0.0101323
0.010491
0.0109471
0.0114138
0.011788
0.011979
0.0119405
0.0116671
0.0112013
0.0106116
0.00996293
0.0093235
0.0087159
0.00817498
0.00768102
0.00724758
0.00684582
0.00648397
0.00613567
0.00580793
0.00548356
0.0051658
0.00484139
0.00451186
0.00417
0.00383414
0.00350083
0.00321986
0.00312057
0.00987938
0.0100371
0.0103561
0.010773
0.0112102
0.0115728
0.0117705
0.0117535
0.0115073
0.011066
0.0104912
0.0098462
0.00920115
0.00858373
0.00803407
0.00753675
0.00710741
0.00671701
0.00637209
0.00604362
0.00573615
0.00543021
0.00512755
0.00481402
0.00449052
0.00415053
0.00380969
0.00346201
0.00312874
0.00293003
0.00980773
0.00992744
0.0102061
0.0105847
0.0109954
0.0113523
0.0115662
0.0115839
0.0113817
0.0109834
0.0104418
0.00981602
0.00917599
0.00855384
0.00799472
0.00748925
0.00705643
0.00666939
0.0063342
0.00602032
0.00572995
0.00544102
0.00515281
0.00484879
0.00452741
0.00418034
0.00381867
0.00343012
0.0030139
0.00267708
0.00972518
0.00981062
0.0100546
0.0104044
0.0108017
0.0111699
0.0114213
0.0115002
0.011373
0.0110526
0.0105799
0.010007
0.00940044
0.00879385
0.00823622
0.00772356
0.00727923
0.00687956
0.00653187
0.0062055
0.00590146
0.00559588
0.005286
0.00495344
0.00459462
0.00420016
0.0037789
0.00331657
0.00279734
0.00232588
0.00963033
0.00968288
0.00989337
0.0102162
0.0106027
0.0109856
0.0112802
0.0114297
0.0113919
0.0111682
0.0107869
0.0102901
0.00973767
0.00916218
0.00861374
0.00809287
0.00762667
0.00719586
0.00681001
0.00644032
0.00608824
0.00573017
0.00536316
0.00496907
0.00454474
0.00408237
0.00359207
0.0030621
0.00246365
0.00190385
0.00952577
0.00954326
0.00971211
0.00999633
0.0103559
0.0107342
0.0110512
0.0112521
0.0112883
0.011152
0.0108588
0.0104401
0.00994727
0.00940878
0.00887388
0.00834553
0.00785409
0.00738438
0.00694934
0.0065233
0.00611002
0.0056881
0.00525652
0.00479952
0.00431639
0.00380247
0.00327015
0.00271024
0.00207951
0.00149009
0.00940895
0.00938473
0.00949611
0.00971858
0.0100207
0.0103573
0.0106563
0.0108672
0.0109397
0.0108591
0.0106306
0.0102752
0.00983502
0.00933312
0.00881553
0.00828633
0.00777746
0.00727772
0.00680315
0.0063321
0.00587141
0.0054031
0.00492907
0.00443674
0.0039281
0.00340108
0.00286859
0.00232121
0.00170059
0.00112304
0.00928369
0.00921014
0.00924671
0.00938234
0.00959369
0.00984816
0.0100832
0.010257
0.0103201
0.0102554
0.0100602
0.0097471
0.00934889
0.00888254
0.00838969
0.00787352
0.00736642
0.00685971
0.0063721
0.00588542
0.00540958
0.00492987
0.00445089
0.00396263
0.00346865
0.00296752
0.00247028
0.00196458
0.00137944
0.000837915
0.0091485
0.0090185
0.00896661
0.00899557
0.00908974
0.00922925
0.00936291
0.00945932
0.0094739
0.00938958
0.00919922
0.00890872
0.00854285
0.00811242
0.00765357
0.00716763
0.00668559
0.00620024
0.00573141
0.00526362
0.00480869
0.00435436
0.00390679
0.00345715
0.00300894
0.0025596
0.00211664
0.00166392
0.00112269
0.000622556
0.00900826
0.00881878
0.00867259
0.0085861
0.00855032
0.00855769
0.00856837
0.00856293
0.00850319
0.00837535
0.00816992
0.00788851
0.00754911
0.00715665
0.00674164
0.00630226
0.00586715
0.00542877
0.00500696
0.00458736
0.00418257
0.00378139
0.00339027
0.00300029
0.00261363
0.00222562
0.00184002
0.00143755
0.000937268
0.000477255
0.0088618
0.00861323
0.00837491
0.0081752
0.0080107
0.00788462
0.00776793
0.00765273
0.00750853
0.00732597
0.00709541
0.00681576
0.00649963
0.00614691
0.00578226
0.00540054
0.00502674
0.00465225
0.00429531
0.00394174
0.00360351
0.00326949
0.00294531
0.00262114
0.00229725
0.00196684
0.00163067
0.00126788
0.000800151
0.000372049
0.00871462
0.00841173
0.0080908
0.00779019
0.00751046
0.00726367
0.00702962
0.00681126
0.00658527
0.00634784
0.00609012
0.00580998
0.00551585
0.00520333
0.00489181
0.00457237
0.0042662
0.00396249
0.00367734
0.00339558
0.00312788
0.00286233
0.00260325
0.00233958
0.00206981
0.00178557
0.00148584
0.00114979
0.000705085
0.000302965
0.00856542
0.00821482
0.00782513
0.00744167
0.00706743
0.00672094
0.00638886
0.00608297
0.00578665
0.00550121
0.00521954
0.00493925
0.00466574
0.00439136
0.00413057
0.00387129
0.00363043
0.00339506
0.00317838
0.00296402
0.00276074
0.00255566
0.00235158
0.00213639
0.00190719
0.00165488
0.00137787
0.00105666
0.000626798
0.000242952
0.00841905
0.00802959
0.00758738
0.00714212
0.00669769
0.00627676
0.00587031
0.00549726
0.00514613
0.00482328
0.00452326
0.00424437
0.00398981
0.00374949
0.00353387
0.00332786
0.00314468
0.00296902
0.00281134
0.00265378
0.00250326
0.00234589
0.00218311
0.00200218
0.00179936
0.0015656
0.00129969
0.000984202
0.000563248
0.000194565
0.00827292
0.00785318
0.00737412
0.00688723
0.00639594
0.00592503
0.00546776
0.00504796
0.00465829
0.00430902
0.00399663
0.00372032
0.00348186
0.00326965
0.00309072
0.00292793
0.00279095
0.00266271
0.00255089
0.00243655
0.00232474
0.00220091
0.0020654
0.00190524
0.00171634
0.00149033
0.00122693
0.000911123
0.000495433
0.000137463
0.00813094
0.00768973
0.00718797
0.00667739
0.00615993
0.00566079
0.00517346
0.00472527
0.00431138
0.00394564
0.00362594
0.00335287
0.00312731
0.00293673
0.00278568
0.00265536
0.00255274
0.00245913
0.00238004
0.00229556
0.0022093
0.00210626
0.00198602
0.00183577
0.00165147
0.00142575
0.00115952
0.000840169
0.000427949
8.03969e-05
0.0079897
0.00753397
0.00702055
0.00650011
0.00597227
0.0054616
0.00496053
0.00449818
0.00407151
0.0036968
0.00337343
0.00310328
0.00288676
0.00271116
0.00257899
0.0024707
0.00239086
0.00231996
0.00226147
0.00219509
0.00212314
0.00203055
0.00191638
0.00176821
0.00158225
0.00135229
0.00108048
0.000756394
0.000347138
7.5435e-06
0.00785257
0.00738852
0.00687171
0.00635149
0.00582471
0.00531455
0.00481133
0.00434516
0.00391361
0.00353524
0.00321033
0.00294235
0.00273146
0.00256515
0.00244454
0.00234971
0.00228352
0.00222584
0.00217871
0.00212158
0.00205585
0.00196656
0.00185244
0.00170164
0.00151067
0.00127454
0.00099648
0.000667909
0.000261868
-6.88523e-05
0.00771566
0.00724734
0.0067321
0.00621801
0.00569879
0.00519614
0.00469777
0.00423388
0.00380238
0.00342321
0.00309765
0.00283051
0.00262194
0.00246003
0.00234479
0.00225654
0.00219665
0.002145
0.00210226
0.0020481
0.00198307
0.00189257
0.001775
0.0016192
0.00142192
0.0011793
0.000895467
0.000563382
0.000161135
-0.000162624
0.00758223
0.00711289
0.00660192
0.00609692
0.00558848
0.00509675
0.0046066
0.00414811
0.00371883
0.00334018
0.00301393
0.00274641
0.00253779
0.0023769
0.00226303
0.00217687
0.0021188
0.00206875
0.00202643
0.00197176
0.00190469
0.00181095
0.00168873
0.00152751
0.00132422
0.00107605
0.000787754
0.000453511
5.56902e-05
-0.000260074
0.00744853
0.00697942
0.0064731
0.00597736
0.00547956
0.00499883
0.00451732
0.0040646
0.00363793
0.00325961
0.00293203
0.00266277
0.00245209
0.00228972
0.00217429
0.00208727
0.00202801
0.00197692
0.00193271
0.00187583
0.00180553
0.00170806
0.00158126
0.00141525
0.00120702
0.00095466
0.000663345
0.000328242
-6.46605e-05
-0.000374512
0.00731797
0.00684993
0.00634744
0.0058596
0.0053708
0.00489943
0.00442511
0.00397709
0.00355199
0.00317321
0.00284337
0.00257142
0.00235762
0.0021926
0.00207448
0.00198547
0.00192415
0.00187135
0.00182497
0.00176592
0.00169288
0.00159251
0.00146231
0.00129298
0.00108146
0.000826628
0.000533882
0.000199128
-0.000188564
-0.000491746
0.00718695
0.00671938
0.00621869
0.00573604
0.00525288
0.0047876
0.0043177
0.00387204
0.0034468
0.00306609
0.00273291
0.00245733
0.00223956
0.0020712
0.00194975
0.00185837
0.00179475
0.00174034
0.00169213
0.00163164
0.00155682
0.00145482
0.00132269
0.00115163
0.000938421
0.000682644
0.000389731
5.61928e-05
-0.000326257
-0.000625171
0.00705901
0.00659134
0.00609018
0.00560962
0.00512866
0.00466592
0.00419721
0.00375129
0.00332372
0.00293963
0.00260207
0.00232237
0.00210053
0.00192903
0.00180477
0.00171172
0.00164683
0.00159199
0.00154338
0.00148301
0.00140814
0.00130632
0.00117406
0.00100307
0.000789866
0.000534648
0.000242731
-8.89163e-05
-0.000466305
-0.000760462
0.00693077
0.00646147
0.00595713
0.00547519
0.00499229
0.00452803
0.00405694
0.00360774
0.00317565
0.00278649
0.00244357
0.00215918
0.00193311
0.00175867
0.00163204
0.0015381
0.00147284
0.00141877
0.00137104
0.00131226
0.00123886
0.0011388
0.001008
0.000838572
0.000626694
0.000373122
8.29378e-05
-0.000246508
-0.000619234
-0.000911264
0.00680583
0.00633375
0.00582382
0.00533729
0.00484901
0.00437964
0.00390288
0.00344774
0.00300893
0.00261332
0.00226419
0.00197494
0.00174498
0.00156833
0.00144045
0.00134694
0.00128292
0.00123129
0.00118625
0.00113088
0.00106078
0.000964228
0.000836484
0.000670092
0.000460799
0.000209877
-7.79437e-05
-0.000405012
-0.00077361
-0.00106316
0.00668094
0.00620433
0.0056864
0.00519211
0.00469477
0.00421669
0.00373107
0.00326729
0.0028198
0.00241626
0.0020601
0.00176563
0.00153182
0.00135342
0.00122495
0.00113285
0.00107113
0.00102321
0.000982145
0.000931546
0.000866048
0.000774288
0.000650806
0.000488482
0.000282608
3.49095e-05
-0.000250305
-0.000575122
-0.000940269
-0.00123006
0.00655968
0.00607737
0.0055495
0.00504483
0.00453574
0.00404607
0.00354896
0.00307437
0.0026164
0.00220381
0.00183996
0.00154022
0.00130296
0.00112357
0.000995618
0.000906199
0.000848261
0.000805567
0.000770058
0.000725752
0.000666328
0.000580709
0.000462636
0.000305402
0.00010373
-0.000140194
-0.000422593
-0.00074533
-0.00110777
-0.00139745
0.00643893
0.00594936
0.00540976
0.00489224
0.0043685
0.00386448
0.00335336
0.00286584
0.00239584
0.00197298
0.00160075
0.00129539
0.00105468
0.000874601
0.000747662
0.000661666
0.000608307
0.000571787
0.000542754
0.000505712
0.000453252
0.00037461
0.000262713
0.00011115
-8.5914e-05
-0.000325896
-0.000605585
-0.000926644
-0.00128719
-0.00157946
0.00632219
0.00582445
0.00527177
0.00473948
0.00419926
0.00367881
0.00315177
0.00264972
0.0021663
0.0017323
0.00135113
0.00104008
0.000796193
0.000616011
0.000490924
0.000409329
0.000361704
0.000332513
0.00031115
0.000282497
0.000238058
0.000167341
6.23591e-05
-8.28896e-05
-0.000274923
-0.00051073
-0.000787776
-0.00110753
-0.001467
-0.00176145
0.00620649
0.00569937
0.00513242
0.00458354
0.00402466
0.00348575
0.00294089
0.00242268
0.00192461
0.00147845
0.00108769
0.000770524
0.000523289
0.000343072
0.000220044
0.000143263
0.00010181
8.05209e-05
6.73679e-05
4.76842e-05
1.1777e-05
-5.05545e-05
-0.0001482
-0.000286889
-0.000473782
-0.000705514
-0.000980231
-0.00129922
-0.00165848
-0.00195772
0.00609521
0.00557814
0.00499606
0.00442923
0.00385053
0.00329171
0.00272769
0.00219214
0.00167833
0.00121927
0.000818394
0.00049497
0.000244501
6.46103e-05
-5.57933e-05
-0.000127079
-0.000161529
-0.000174087
-0.000178172
-0.000188085
-0.000214723
-0.000268019
-0.000357882
-0.00048962
-0.000671187
-0.000898806
-0.00117142
-0.00149012
-0.00185
-0.00215351
0.00598559
0.00545771
0.00485973
0.00427363
0.00367341
0.00309316
0.00250848
0.00195427
0.0014237
0.000950814
0.000539147
0.000208938
-4.51047e-05
-0.000224824
-0.000342648
-0.000408307
-0.000435602
-0.000439152
-0.000433918
-0.000433768
-0.000450896
-0.000494957
-0.000576842
-0.000701603
-0.000877919
-0.00110169
-0.00137262
-0.00169166
-0.00205299
-0.00236329
0.00588086
0.00534189
0.00472745
0.00412111
0.00349864
0.00289592
0.00228957
0.00171579
0.00116752
0.000680152
0.000257154
-8.00565e-05
-0.000337695
-0.000517055
-0.00063194
-0.000691505
-0.000711045
-0.00070498
-0.000689798
-0.000678995
-0.000686084
-0.000720444
-0.00079409
-0.000911635
-0.00108266
-0.00130264
-0.00157221
-0.00189208
-0.00225568
-0.00257215
0.00577849
0.00522786
0.00459647
0.00396887
0.00332269
0.00269627
0.00206698
0.00147246
0.000905558
0.000402795
-3.22435e-05
-0.000377081
-0.000638788
-0.000818105
-0.000930273
-0.000983804
-0.000995625
-0.000979864
-0.000954668
-0.000933102
-0.000930078
-0.000954702
-0.00102005
-0.00113049
-0.00129639
-0.00151295
-0.00178163
-0.00210298
-0.00246965
-0.00279468
0.00568153
0.00511916
0.00447043
0.00382081
0.00315045
0.00249948
0.00184643
0.00123038
0.000643975
0.000125184
-0.000322462
-0.000675203
-0.000941092
-0.00112028
-0.0012295
-0.00127666
-0.0012803
-0.00125436
-0.00121865
-0.00118585
-0.00117231
-0.00118683
-0.00124374
-0.00134691
-0.00150774
-0.00172098
-0.00198914
-0.00231246
-0.00268298
-0.00301587
0.00558771
0.00501326
0.00434681
0.00367432
0.00297842
0.0023018
0.00162379
0.000985102
0.000378277
-0.000157482
-0.000618505
-0.00097985
-0.00125049
-0.00142997
-0.00153657
-0.00157753
-0.00157313
-0.00153704
-0.00149087
-0.00144684
-0.00142279
-0.00142729
-0.00147577
-0.00157187
-0.00172787
-0.00193821
-0.00220632
-0.00253226
-0.00290738
-0.00325045
0.00549988
0.00491337
0.00422888
0.00353289
0.00281108
0.00210805
0.00140435
0.000742232
0.000114133
-0.000439236
-0.000914231
-0.00128449
-0.00156004
-0.00173979
-0.0018436
-0.00187807
-0.00186524
-0.00181859
-0.00176151
-0.00170583
-0.00167095
-0.00166511
-0.00170508
-0.00179401
-0.00194525
-0.00215283
-0.00242127
-0.00275031
-0.00313077
-0.00348324
0.00541609
0.0048173
0.00411444
0.00339417
0.00264507
0.00191456
0.00118397
0.000497331
-0.000153007
-0.000724974
-0.00121477
-0.00159472
-0.0018758
-0.0020563
-0.00215772
-0.00218594
-0.00216487
-0.00210774
-0.00203987
-0.00197261
-0.00192697
-0.00191092
-0.00194246
-0.00202445
-0.00217122
-0.00237646
-0.00264572
-0.0029785
-0.00336499
-0.0037291
0.00533886
0.0047279
0.00400638
0.00326123
0.00248451
0.00172578
0.000967568
0.000255608
-0.000417848
-0.00100908
-0.0015143
-0.00190427
-0.00219109
-0.00237233
-0.00247119
-0.0024929
-0.00246321
-0.00239521
-0.00231613
-0.0022369
-0.0021802
-0.00215367
-0.00217674
-0.00225172
-0.00239412
-0.00259717
-0.00286762
-0.00320457
-0.0035978
-0.00397275
0.00526668
0.0046434
0.00390284
0.00313206
0.00232627
0.00153824
0.000751182
1.27566e-05
-0.000684842
-0.00129639
-0.00181793
-0.00221874
-0.00251197
-0.00269447
-0.00279121
-0.00280666
-0.0027686
-0.00268985
-0.0025997
-0.0025086
-0.00244096
-0.00240413
-0.00241883
-0.00248708
-0.00262541
-0.00282672
-0.00309882
-0.00344056
-0.00384116
-0.00422912
0.00520169
0.00456619
0.00380627
0.00300927
0.00217412
0.00135603
0.000539398
-0.000226339
-0.000949005
-0.00158158
-0.00212008
-0.0025321
-0.00283194
-0.00301569
-0.00311015
-0.00311908
-0.00307227
-0.00298235
-0.00288072
-0.00277737
-0.00269852
-0.00265113
-0.00265747
-0.00271891
-0.0028533
-0.00305298
-0.00332709
-0.00367401
-0.00408266
-0.0044828
0.00514285
0.00449507
0.00371527
0.00289127
0.00202522
0.001176
0.000328504
-0.000465739
-0.00121457
-0.0018693
-0.00242572
-0.00284981
-0.00315699
-0.00334255
-0.00343518
-0.00343786
-0.00338255
-0.00328161
-0.00316866
-0.0030532
-0.00296327
-0.00290556
-0.00290366
-0.00295862
-0.00308937
-0.00328788
-0.00356443
-0.00391711
-0.00433438
-0.00474882
0.00509186
0.00443183
0.0036318
0.00278019
0.00188298
0.00100187
0.000122768
-0.000700877
-0.00147686
-0.00215448
-0.00272951
-0.00316605
-0.00348079
-0.00366813
-0.00375875
-0.0037549
-0.00369069
-0.00357832
-0.00345364
-0.00332567
-0.00322442
-0.00315614
-0.00314604
-0.00319445
-0.0033217
-0.00351913
-0.00379845
-0.00415722
-0.00458374
-0.00501163
0.00504832
0.00437603
0.00355502
0.00267497
0.00174499
0.000830867
-8.11721e-05
-0.000935483
-0.00173981
-0.00244153
-0.00303619
-0.00348612
-0.00380917
-0.00399889
-0.00408797
-0.00407786
-0.00400503
-0.00388137
-0.00374514
-0.00360484
-0.00349244
-0.00341387
-0.00339572
-0.00343795
-0.003562
-0.00375881
-0.0040413
-0.00440668
-0.00484294
-0.00528634
0.00501339
0.00432874
0.00348638
0.00257724
0.00161428
0.000666375
-0.000279388
-0.00116532
-0.00199903
-0.00272565
-0.00334066
-0.00380436
-0.00413597
-0.00432803
-0.00441537
-0.0043987
-0.00431683
-0.00418145
-0.00403323
-0.0038802
-0.00375643
-0.00366735
-0.00364124
-0.00367722
-0.00379821
-0.00399444
-0.00428037
-0.00465261
-0.00509917
-0.00555719
0.0049874
0.00429054
0.0034257
0.00248657
0.00148895
0.000506093
-0.000474804
-0.00139371
-0.0022581
-0.00301091
-0.00364738
-0.00412586
-0.00446683
-0.00466184
-0.00474792
-0.00472499
-0.00463437
-0.00448743
-0.00432742
-0.00416186
-0.00402693
-0.00392766
-0.00389378
-0.00392391
-0.00404217
-0.00423827
-0.00452798
-0.00490753
-0.00536478
-0.00583939
0.00497095
0.00426167
0.00337399
0.00240417
0.00137169
0.00035305
-0.00066385
-0.00161678
-0.00251296
-0.00329283
-0.00395151
-0.00444516
-0.00479574
-0.00499366
-0.00507826
-0.00504872
-0.00494892
-0.00478996
-0.00461772
-0.00443924
-0.00429297
-0.00418333
-0.00414181
-0.00416604
-0.00428169
-0.00447766
-0.00477136
-0.00515836
-0.0056267
-0.00611693
0.00496527
0.00424378
0.00333188
0.00233038
0.00126124
0.000205512
-0.000848936
-0.00183738
-0.00276676
-0.00357507
-0.00425716
-0.00476706
-0.0051281
-0.00532959
-0.00541322
-0.00537739
-0.00526871
-0.00509792
-0.00491367
-0.0047225
-0.00456513
-0.00444552
-0.00439659
-0.00441536
-0.00452874
-0.00472501
-0.00502298
-0.00541776
-0.00589745
-0.0064051
0.00497038
0.00423624
0.00329996
0.00226608
0.00115998
6.6161e-05
-0.00102688
-0.002052
-0.00301581
-0.00385349
-0.00455977
-0.00508635
-0.00545809
-0.00566309
-0.00574553
-0.00570304
-0.00558503
-0.00540192
-0.0052052
-0.00500098
-0.00483237
-0.00470265
-0.0046465
-0.00465979
-0.00477103
-0.00496752
-0.00526987
-0.00567241
-0.00616362
-0.0066875
0.00498833
0.00424171
0.00327973
0.00221239
0.00106735
-6.61203e-05
-0.00119951
-0.00226298
-0.00326277
-0.00413131
-0.00486309
-0.00540747
-0.00579084
-0.00600003
-0.00608181
-0.00603301
-0.00590598
-0.00571076
-0.00550184
-0.00528484
-0.00510531
-0.00496595
-0.00490287
-0.00491119
-0.00502063
-0.00521776
-0.0055247
-0.00593518
-0.00643798
-0.00697964
0.00501839
0.00425921
0.00327156
0.00216995
0.000985388
-0.000189023
-0.00136407
-0.00246725
-0.00350435
-0.00440473
-0.00516282
-0.00572546
-0.00612069
-0.00633402
-0.0064149
-0.00635941
-0.00622291
-0.00601508
-0.00579351
-0.00556338
-0.00537288
-0.00522379
-0.00515407
-0.0051574
-0.00526516
-0.0054628
-0.00577429
-0.00619249
-0.00670672
-0.00726462
0.00506337
0.00429255
0.00327774
0.00214057
0.000914215
-0.00030306
-0.0015218
-0.00266658
-0.00374267
-0.00467651
-0.00546229
-0.00604439
-0.00645245
-0.00667065
-0.00675121
-0.0066894
-0.00654378
-0.00632361
-0.00608967
-0.00584678
-0.00564568
-0.00548745
-0.00541143
-0.00541036
-0.00551683
-0.00571535
-0.00603153
-0.00645747
-0.00698292
-0.00755832
0.00512194
0.00433998
0.00329832
0.00212455
0.000855427
-0.000406384
-0.00167044
-0.00285835
-0.00397488
-0.00494319
-0.00575752
-0.00635953
-0.00678067
-0.00700368
-0.00708368
-0.00701517
-0.00685997
-0.00662695
-0.00638024
-0.00612428
-0.00591263
-0.00574526
-0.00566333
-0.00565788
-0.00576317
-0.00596236
-0.00628304
-0.00671626
-0.00725238
-0.00784314
0.00519766
0.00440555
0.0033359
0.0021241
0.000809649
-0.000498986
-0.00181066
-0.00304378
-0.00420255
-0.00520704
-0.00605136
-0.00667455
-0.0071098
-0.00733838
-0.00741845
-0.00734365
-0.00717929
-0.00693374
-0.00667462
-0.00640605
-0.00618433
-0.00600854
-0.00592112
-0.00591196
-0.00601648
-0.00621669
-0.00654193
-0.00698227
-0.00752855
-0.00813572
0.0052881
0.00448692
0.00338984
0.00213892
0.000777807
-0.000579623
-0.0019408
-0.00322078
-0.00442327
-0.00546495
-0.00634014
-0.00698497
-0.00743457
-0.00766869
-0.00774858
-0.00766712
-0.00749315
-0.00723463
-0.00696275
-0.00668133
-0.00644972
-0.00626559
-0.00617319
-0.0061604
-0.00626426
-0.00646521
-0.00679467
-0.00724143
-0.00779694
-0.00841774
0.00539729
0.00458853
0.00346284
0.00217128
0.000760816
-0.000647899
-0.002061
-0.00339002
-0.00463807
-0.00571869
-0.00662623
-0.007294
-0.00775902
-0.0079995
-0.00807991
-0.00799227
-0.0078092
-0.0075381
-0.00725393
-0.00696028
-0.00671938
-0.00652778
-0.00643093
-0.00641525
-0.00651891
-0.00672092
-0.0070546
-0.00750748
-0.00807149
-0.00870628
0.00552174
0.00470683
0.00355329
0.00221991
0.000758693
-0.000703332
-0.00217028
-0.00354996
-0.00484499
-0.00596552
-0.00690625
-0.00759743
-0.00807813
-0.00832491
-0.00840562
-0.00831147
-0.00811889
-0.00783485
-0.00753816
-0.00723216
-0.0069823
-0.00678343
-0.00668275
-0.00666433
-0.0067679
-0.00697061
-0.00730802
-0.00776609
-0.00833737
-0.008983
0.00566583
0.00484612
0.00366348
0.00228694
0.000772459
-0.000745239
-0.00226832
-0.00370073
-0.00504453
-0.00620665
-0.00718205
-0.00789799
-0.00839548
-0.00864945
-0.00873122
-0.00863112
-0.00842967
-0.00813324
-0.00782465
-0.00750706
-0.00724902
-0.00704389
-0.00694003
-0.00691972
-0.00702371
-0.00722744
-0.00756857
-0.00803144
-0.00860915
-0.00926572
0.00582478
0.00500134
0.00379039
0.00236988
0.000801072
-0.000773994
-0.00235488
-0.00384141
-0.00523517
-0.00643973
-0.00745059
-0.00819171
-0.00870626
-0.0089674
-0.00905004
-0.00894371
-0.00873307
-0.00842401
-0.00810349
-0.00777437
-0.0075086
-0.00729756
-0.00719127
-0.00716928
-0.00727383
-0.00747814
-0.00782234
-0.00828895
-0.00887182
-0.00953621
0.00600343
0.00517702
0.00393616
0.00247073
0.000845636
-0.000788649
-0.00242919
-0.00397158
-0.00541686
-0.00666543
-0.00771319
-0.00848084
-0.0090136
-0.00928286
-0.00936723
-0.00925536
-0.00903632
-0.00871541
-0.00838374
-0.00804407
-0.00777157
-0.00755579
-0.00744783
-0.00742512
-0.00753081
-0.00773603
-0.00808332
-0.00855328
-0.00914055
-0.00981321
0.00619578
0.00536649
0.00409661
0.00258586
0.000904103
-0.000790409
-0.00249171
-0.00409088
-0.00558857
-0.00688178
-0.0079671
-0.00876169
-0.00931292
-0.0095903
-0.00967627
-0.00955867
-0.00933108
-0.00899825
-0.00865568
-0.0083057
-0.00802708
-0.00780703
-0.0076983
-0.00767517
-0.00778216
-0.00798781
-0.00833736
-0.00880955
-0.00939997
-0.0100781
0.0064072
0.00557472
0.004274
0.00271745
0.000977825
-0.000777956
-0.00254116
-0.00419837
-0.00574968
-0.00708889
-0.00821312
-0.00903597
-0.00960687
-0.00989341
-0.00998194
-0.00985948
-0.00962435
-0.00928064
-0.00892817
-0.00856912
-0.0082856
-0.00806264
-0.00795402
-0.00793155
-0.0080405
-0.00824692
-0.00859882
-0.00907289
-0.00966583
-0.0103502
0.0066303
0.00579389
0.00446314
0.00286096
0.00106396
-0.000753175
-0.00257861
-0.00429417
-0.00589956
-0.00728513
-0.0084488
-0.00930027
-0.00989111
-0.0101869
-0.0102779
-0.0101505
-0.00990791
-0.00955352
-0.00919175
-0.00882408
-0.00853641
-0.00831112
-0.00820368
-0.00818225
-0.00829337
-0.00850005
-0.00885329
-0.00932805
-0.00992237
-0.0106104
0.00687146
0.00603021
0.00466711
0.00301922
0.00116443
-0.000714194
-0.0026022
-0.00437677
-0.00603705
-0.00747011
-0.00867443
-0.0095558
-0.0101678
-0.0104739
-0.0105686
-0.0104374
-0.0101886
-0.00982488
-0.00945504
-0.00908024
-0.00878992
-0.00856388
-0.0084586
-0.00843943
-0.00855349
-0.0087608
-0.00911555
-0.00959071
-0.0101859
-0.0108785
0.00712223
0.00627477
0.00488031
0.00318721
0.00127592
-0.000663366
-0.00261348
-0.00444673
-0.0061619
-0.00764251
-0.00888784
-0.00979941
-0.0104329
-0.0107495
-0.010848
-0.010713
-0.0104583
-0.0100858
-0.00970887
-0.00932765
-0.00903552
-0.0088094
-0.00870754
-0.00869113
-0.0088084
-0.00901582
-0.00937088
-0.00984521
-0.0104402
-0.0111348
0.00739048
0.00653521
0.00510692
0.00336885
0.00140125
-0.000598044
-0.00260987
-0.00450188
-0.00627238
-0.0078014
-0.00908883
-0.0100318
-0.0106881
-0.0110165
-0.0111199
-0.0109826
-0.0107236
-0.0103441
-0.00996163
-0.00957575
-0.0092836
-0.00905918
-0.00896181
-0.00894954
-0.00907089
-0.00927888
-0.00963446
-0.0101077
-0.0107022
-0.0113998
0.0076663
0.00680197
0.00534102
0.00355886
0.0015369
-0.000520861
-0.00259325
-0.00454315
-0.00636856
-0.0079458
-0.00927551
-0.0102502
-0.0109296
-0.01127
-0.0113787
-0.0112393
-0.0109767
-0.010591
-0.0102045
-0.00981492
-0.00952359
-0.00930164
-0.00921025
-0.00920276
-0.0093286
-0.00953662
-0.00989143
-0.0103624
-0.0109553
-0.0116534
0.00795979
0.00708471
0.00558846
0.00376266
0.0016868
-0.000428259
-0.00256028
-0.00456771
-0.00644818
-0.00807428
-0.00944722
-0.0104548
-0.0111586
-0.0115125
-0.0116281
-0.0114882
-0.0112239
-0.0108344
-0.0104456
-0.0100543
-0.00976589
-0.00954837
-0.00946411
-0.00946297
-0.0095943
-0.00980301
-0.0101573
-0.0106258
-0.0112169
-0.0119166
0.00825975
0.00737312
0.0058433
0.00397483
0.00184735
-0.000323066
-0.00251314
-0.00457684
-0.00651161
-0.00818618
-0.00960238
-0.010643
-0.0113717
-0.0117395
-0.0118625
-0.0117229
-0.0114578
-0.0110655
-0.0106765
-0.0102848
-0.01
-0.00978771
-0.00971235
-0.00971836
-0.00985584
-0.0100649
-0.0104175
-0.0108824
-0.0114707
-0.0121695
0.00857892
0.00767876
0.00611292
0.00420229
0.00202364
-0.000200775
-0.00244771
-0.00456703
-0.00655608
-0.00827959
-0.00973992
-0.0108147
-0.0115697
-0.0119531
-0.0120853
-0.0119478
-0.0116845
-0.0112922
-0.010905
-0.0105151
-0.0102363
-0.0100313
-0.00996609
-0.00998108
-0.0101259
-0.0103362
-0.0106877
-0.0111491
-0.0117346
-0.0124335
0.00890414
0.00799067
0.00639101
0.00443937
0.00221192
-6.44444e-05
-0.00236644
-0.00453993
-0.0065823
-0.00835423
-0.0098586
-0.0109677
-0.0117495
-0.0121491
-0.0122914
-0.0121571
-0.0118966
-0.0115059
-0.0111232
-0.0107365
-0.0104643
-0.0102675
-0.0102145
-0.0102395
-0.0103928
-0.0106045
-0.0109542
-0.0114111
-0.0119927
-0.0126895
0.00925143
0.00832248
0.00668652
0.00469434
0.00241832
9.12938e-05
-0.00226454
-0.00449144
-0.00658706
-0.00840778
-0.00995699
-0.0111016
-0.0119116
-0.0123295
-0.012484
-0.0123552
-0.0121002
-0.0117143
-0.0113384
-0.0109577
-0.0106945
-0.010508
-0.0104686
-0.0105056
-0.010669
-0.0108836
-0.0112325
-0.0116853
-0.0122634
-0.0129592
0.00960538
0.00866215
0.00699283
0.00496112
0.00263876
0.000263007
-0.00214485
-0.00442365
-0.00657143
-0.00844039
-0.0100343
-0.0112144
-0.0120533
-0.0124902
-0.0126585
-0.0125364
-0.0122884
-0.011909
-0.0115432
-0.0111702
-0.0109169
-0.0107416
-0.010718
-0.0107683
-0.0109436
-0.0111621
-0.0115102
-0.0119586
-0.0125324
-0.0132251
0.00998513
0.00902501
0.00731996
0.00524901
0.00288018
0.000456766
-0.00200199
-0.00433193
-0.00653187
-0.00844943
-0.0100888
-0.0113055
-0.0121749
-0.0126332
-0.0128176
-0.0127049
-0.0124669
-0.0120974
-0.0117445
-0.0113825
-0.0111415
-0.0109798
-0.0109734
-0.0110392
-0.0112286
-0.0114531
-0.0118024
-0.0122473
-0.0128173
-0.0135083
0.0103722
0.00939781
0.00766037
0.00555121
0.00313794
0.00066859
-0.00183934
-0.00421894
-0.00646992
-0.00843552
-0.0101202
-0.0113736
-0.0122738
-0.0127546
-0.0129573
-0.0128558
-0.012629
-0.0122715
-0.0119354
-0.0115866
-0.0113594
-0.0112121
-0.0112252
-0.0113078
-0.0115133
-0.011746
-0.0120973
-0.012539
-0.0131046
-0.0137923
0.0107872
0.00979708
0.00802505
0.00587777
0.00341957
0.000905074
-0.00165105
-0.00407963
-0.00638175
-0.0083958
-0.0101266
-0.0114176
-0.0123505
-0.0128563
-0.0130802
-0.0129929
-0.0127805
-0.0124386
-0.0121223
-0.0117906
-0.0115802
-0.0114497
-0.0114838
-0.0115851
-0.0118089
-0.0120532
-0.0124087
-0.012849
-0.013411
-0.0140972
0.0112109
0.0102086
0.00840577
0.00622104
0.00371967
0.0011615
-0.00144122
-0.00391736
-0.00626953
-0.00833152
-0.0101084
-0.0114369
-0.0124027
-0.0129347
-0.0131825
-0.0131116
-0.0129152
-0.0125908
-0.0122987
-0.0119873
-0.0117958
-0.0116837
-0.0117401
-0.0118609
-0.0121043
-0.0123624
-0.0127232
-0.0131632
-0.0137211
-0.0144046
0.0116662
0.0106497
0.00881386
0.00659149
0.00404615
0.00144482
-0.00120362
-0.0037267
-0.00612919
-0.0082396
-0.0100634
-0.0114305
-0.0124306
-0.0129915
-0.0132667
-0.013216
-0.0130387
-0.0127354
-0.012471
-0.0121844
-0.0120153
-0.0119239
-0.012004
-0.0121453
-0.0124091
-0.0126831
-0.0130511
-0.0134924
-0.0140476
-0.0147298
0.0121321
0.0111056
0.00924003
0.00698049
0.00439264
0.0017494
-0.000943216
-0.00351188
-0.00596363
-0.00812203
-0.00999273
-0.011398
-0.0124323
-0.0130233
-0.0133291
-0.0133013
-0.0131452
-0.0128649
-0.0126322
-0.0123748
-0.0122311
-0.0121625
-0.0122663
-0.0124278
-0.0127102
-0.0130004
-0.0133757
-0.0138195
-0.0143717
-0.0150523
0.0126307
0.0115938
0.00969581
0.00739864
0.00476728
0.00208247
-0.00065349
-0.00326712
-0.00576861
-0.00797553
-0.00989417
-0.0113386
-0.0124085
-0.0130321
-0.0133725
-0.013372
-0.0132406
-0.0129865
-0.0127891
-0.0125662
-0.0124511
-0.0124078
-0.0125357
-0.0127169
-0.0130167
-0.0133229
-0.0137061
-0.0141543
-0.0147052
-0.0153869
0.013141
0.012098
0.0101711
0.00783635
0.00516265
0.00243737
-0.000340366
-0.00299763
-0.00554782