/*--------------------------------*- C++ -*----------------------------------*\
  =========                 |
  \\      /  F ield         | OpenFOAM: The Open Source CFD Toolbox
   \\    /   O peration     | Website:  https://openfoam.org
    \\  /    A nd           | Version:  6.0
     \\/     M anipulation  |
\*---------------------------------------------------------------------------*/
FoamFile
{
    version     2.0;
    format      ascii;
    class       surfaceScalarField;
    location    "17";
    object      phi;
}
// * * * * * * * * * * * * * * * * * * * * * * * * * * * * * * * * * * * * * //

dimensions      [0 3 -1 0 0 0 0];

internalField   nonuniform List<scalar> 
123526
(
8.74124e-06
0.000514812
-1.81122e-08
1.75542e-05
0.000514359
2.64696e-05
0.00051353
3.54702e-05
0.000512358
4.45201e-05
0.000510861
5.35977e-05
0.000509026
6.26843e-05
0.000506853
7.17638e-05
0.00050434
8.08231e-05
0.000501486
8.98509e-05
0.000498291
9.88375e-05
0.000494754
0.000107775
0.000490877
0.000116655
0.000486659
0.000125475
0.000482101
0.000134222
0.000477214
0.000142889
0.000471994
0.000151474
0.000466443
0.000159963
0.000460575
0.000168352
0.000454386
0.000176633
0.000447885
0.000184796
0.000441079
0.00019284
0.000433968
0.000200751
0.000426566
0.000208528
0.000418871
0.000216161
0.000410896
0.000223647
0.000402641
0.000230978
0.000394117
0.00023815
0.000385327
0.000245156
0.000376278
0.000251992
0.000366976
0.000258653
0.000357429
0.000265135
0.000347641
0.000271431
0.000337621
0.000277539
0.000327371
0.000283452
0.000316904
0.000289168
0.000306219
0.000294682
0.000295329
0.000299989
0.000284236
0.000305087
0.000272948
0.000309972
0.000261472
0.000314639
0.000249814
0.000319087
0.000237982
0.000323312
0.00022598
0.00032731
0.000213817
0.00033108
0.000201501
0.000334618
0.000189037
0.000337922
0.000176436
0.00034099
0.000163702
0.000343818
0.000150846
0.000346405
0.000137875
0.000348748
0.000124797
0.000350843
0.000111621
0.000352689
9.83553e-05
0.000354281
8.50072e-05
0.000355613
7.15853e-05
0.000356679
5.80934e-05
0.000357454
4.45436e-05
0.000357916
3.09213e-05
0.000357626
1.74417e-05
4.74061e-06
0.000354944
8.57758e-06
0.000506254
-2.41259e-08
1.7218e-05
0.000505715
2.59591e-05
0.000504786
3.47843e-05
0.000503529
4.36593e-05
0.000501983
5.25639e-05
0.000500119
6.14802e-05
0.000497936
7.0393e-05
0.000495427
7.92896e-05
0.000492591
8.81592e-05
0.000489424
9.69918e-05
0.000485926
0.000105779
0.000482097
0.000114512
0.000477935
0.000123188
0.000473437
0.000131792
0.000468623
0.000140318
0.000463485
0.000148762
0.000458019
0.000157111
0.000452248
0.000165358
0.000446163
0.000173499
0.000439771
0.000181521
0.000433086
0.000189423
0.000426096
0.000197195
0.000418827
0.000204832
0.000411267
0.000212327
0.000403435
0.000219676
0.000395327
0.000226871
0.000386956
0.00023391
0.000378322
0.000240785
0.000369436
0.000247493
0.000360301
0.000254028
0.000350926
0.000260386
0.000341313
0.000266561
0.000331474
0.00027255
0.000321408
0.000278348
0.00031113
0.000283951
0.000300638
0.000289355
0.000289945
0.000294557
0.000279052
0.000299553
0.000267968
0.00030434
0.0002567
0.000308915
0.000245252
0.000313275
0.000233633
0.000317417
0.000221847
0.000321338
0.000209904
0.000325037
0.000197808
0.000328511
0.000185569
0.000331758
0.000173194
0.000334776
0.000160688
0.000337562
0.000148063
0.000340115
0.000135324
0.000342434
0.000122481
0.000344517
0.000109541
0.000346361
9.65119e-05
0.000347966
8.34034e-05
0.000349329
7.02235e-05
0.000350443
5.69807e-05
0.0003513
4.36866e-05
0.000351839
3.03838e-05
0.000352213
1.70675e-05
3.43129e-06
0.000353524
8.40317e-06
0.000497863
-1.52569e-08
1.68773e-05
0.000497238
2.54519e-05
0.000496208
3.41118e-05
0.000494867
4.28239e-05
0.000493268
5.15686e-05
0.000491372
6.03285e-05
0.000489174
6.90886e-05
0.000486666
7.78359e-05
0.000483843
8.65589e-05
0.000480702
9.52472e-05
0.000477239
0.000103891
0.000473456
0.000112483
0.000469347
0.000121016
0.000464909
0.000129478
0.000460168
0.00013786
0.000455111
0.00014616
0.000449729
0.000154363
0.000444056
0.000162465
0.000438073
0.000170459
0.00043179
0.000178337
0.000425223
0.000186095
0.000418353
0.000193723
0.000411215
0.000201219
0.000403787
0.000208574
0.000396096
0.000215785
0.000388132
0.000222846
0.000379912
0.000229752
0.000371432
0.000236497
0.000362707
0.000243077
0.000353736
0.000249486
0.000344531
0.000255721
0.000335091
0.000261776
0.000325431
0.000267649
0.000315547
0.000273333
0.000305457
0.000278827
0.000295154
0.000284125
0.000284655
0.000289225
0.000273959
0.000294124
0.000263076
0.000298819
0.000252011
0.000303306
0.000240769
0.000307584
0.00022936
0.00031165
0.000217784
0.000315502
0.000206056
0.000319136
0.000194176
0.000322552
0.000182155
0.000325747
0.000170001
0.000328718
0.000157718
0.000331465
0.000145318
0.000333984
0.000132806
0.000336273
0.000120192
0.000338331
0.000107483
0.000340154
9.46892e-05
0.000341738
8.18192e-05
0.000343079
6.88835e-05
0.000344165
5.5894e-05
0.000344987
4.28649e-05
0.000345547
2.98233e-05
0.000345736
1.68795e-05
4.10937e-06
0.000345058
8.23866e-06
0.000489624
-3.07846e-09
1.65602e-05
0.000488913
2.49823e-05
0.000487783
3.34901e-05
0.000486355
4.20514e-05
0.000484703
5.06467e-05
0.000482774
5.92586e-05
0.000480559
6.78718e-05
0.00047805
7.6473e-05
0.000475239
8.50502e-05
0.000472122
9.35926e-05
0.000468695
0.00010209
0.000464957
0.000110534
0.000460902
0.000118919
0.000456525
0.000127232
0.000451857
0.000135465
0.000446881
0.000143614
0.000441582
0.000151668
0.000436006
0.000159621
0.000430125
0.000167467
0.00042395
0.000175197
0.000417499
0.00018281
0.000410747
0.000190295
0.000403738
0.00019765
0.000396441
0.000204867
0.000388888
0.000211942
0.000381066
0.000218868
0.000372994
0.000225642
0.000364667
0.000232257
0.000356101
0.00023871
0.000347291
0.000244995
0.000338254
0.000251109
0.000328985
0.000257045
0.000319502
0.000262803
0.000309797
0.000268375
0.000299891
0.000273761
0.000289774
0.000278956
0.000279466
0.000283957
0.000268963
0.000288762
0.000258276
0.000293368
0.00024741
0.000297772
0.000236368
0.000301972
0.000225163
0.000305966
0.000213793
0.000309751
0.000202273
0.000313325
0.000190604
0.000316686
0.000178796
0.000319832
0.000166857
0.00032276
0.000154791
0.000325468
0.00014261
0.000327955
0.00013032
0.000330218
0.000117929
0.000332253
0.000105448
0.00033406
9.2883e-05
0.000335633
8.02457e-05
0.000336971
6.75464e-05
0.000338067
5.4798e-05
0.000338918
4.20137e-05
0.000339521
2.92205e-05
0.000339889
1.65104e-05
3.83516e-06
0.000340164
8.08672e-06
0.000481528
5.77598e-09
1.6265e-05
0.000480732
2.45429e-05
0.000479502
3.29059e-05
0.00047799
4.13218e-05
0.000476285
4.97713e-05
0.000474321
5.8237e-05
0.00047209
6.67034e-05
0.000469581
7.5157e-05
0.000466784
8.35857e-05
0.000463692
9.19786e-05
0.000460301
0.000100326
0.000456609
0.000108619
0.000452609
0.000116852
0.000448292
0.000125013
0.000443696
0.000133095
0.0004388
0.000141093
0.000433585
0.000148997
0.000428104
0.000156802
0.000422322
0.000164502
0.000416252
0.000172088
0.000409916
0.000179558
0.00040328
0.000186903
0.000396396
0.00019412
0.000389227
0.000201201
0.000381811
0.000208142
0.000374128
0.000214937
0.000366203
0.000221582
0.000358026
0.000228071
0.000349616
0.0002344
0.000340966
0.000240563
0.000332094
0.000246559
0.000322993
0.00025238
0.000313683
0.000258027
0.000304153
0.000263492
0.000294427
0.000268776
0.000284492
0.000273873
0.00027437
0.000278781
0.000264055
0.000283499
0.000253559
0.000288023
0.000242886
0.000292351
0.00023204
0.00029648
0.000221034
0.000300409
0.000209864
0.000304136
0.000198547
0.000307657
0.000187083
0.000310971
0.000175482
0.000314075
0.000163752
0.000316968
0.000151897
0.000319647
0.000139931
0.00032211
0.000127857
0.000324354
0.000115685
0.000326377
0.000103424
0.000328177
9.10828e-05
0.00032975
7.8672e-05
0.000331095
6.62018e-05
0.000332206
5.36858e-05
0.000333083
4.11363e-05
0.00033373
2.85727e-05
0.00033416
1.60809e-05
3.62965e-06
0.000334365
7.94288e-06
0.000473571
1.02616e-08
1.59815e-05
0.00047269
2.41183e-05
0.000471362
3.23384e-05
0.000469766
4.06101e-05
0.000468009
4.89143e-05
0.000466014
5.72333e-05
0.000463768
6.5552e-05
0.000461259
7.38568e-05
0.000458476
8.21358e-05
0.00045541
9.03783e-05
0.000452056
9.85746e-05
0.00044841
0.000106717
0.000444464
0.0001148
0.000440207
0.00012281
0.000435684
0.000130743
0.000430867
0.000138594
0.000425733
0.000146351
0.000420346
0.000154012
0.000414662
0.000161569
0.000408696
0.000169014
0.000402471
0.000176346
0.000395949
0.000183554
0.00038919
0.000190637
0.000382147
0.000197585
0.000374865
0.000204396
0.00036732
0.000211063
0.000359538
0.000217582
0.000351509
0.000223947
0.000343252
0.000230156
0.000334759
0.000236202
0.00032605
0.000242084
0.000317113
0.000247796
0.000307973
0.000253336
0.000298614
0.000258701
0.000289065
0.000263888
0.000279306
0.000268893
0.000269366
0.000273716
0.000259234
0.000278352
0.000248924
0.000282801
0.000238439
0.000287059
0.000227783
0.000291124
0.000216969
0.000294994
0.000205993
0.000298667
0.000194874
0.00030214
0.00018361
0.000305411
0.000172211
0.000308478
0.000160685
0.000311337
0.000149037
0.000313987
0.00013728
0.000316425
0.000125418
0.000318649
0.000113461
0.000320655
0.000101418
0.000322441
8.92964e-05
0.000324004
7.71088e-05
0.000325341
6.48647e-05
0.000326449
5.25773e-05
0.000327326
4.02584e-05
0.000327979
2.79192e-05
0.000328418
1.56407e-05
3.43928e-06
0.000328609
7.80281e-06
0.00046575
1.55612e-08
1.57036e-05
0.000464787
2.37003e-05
0.000463363
3.17781e-05
0.000461686
3.99061e-05
0.000459879
4.80649e-05
0.000457852
5.62375e-05
0.000455593
6.44086e-05
0.000453085
7.2565e-05
0.000450317
8.06952e-05
0.000447278
8.87886e-05
0.000443961
9.68358e-05
0.000440362
0.000104829
0.000436469
0.000112764
0.000432272
0.000120628
0.00042782
0.000128414
0.00042308
0.000136121
0.000418027
0.000143736
0.000412732
0.000151255
0.000407143
0.000158672
0.000401279
0.00016598
0.000395165
0.000173176
0.000388754
0.00018025
0.000382117
0.0001872
0.000375198
0.000194018
0.000368048
0.000200701
0.000360638
0.000207242
0.000352998
0.000213638
0.000345114
0.000219883
0.000337008
0.000225975
0.000328668
0.000231908
0.000320117
0.00023768
0.000311341
0.000243287
0.000302367
0.000248726
0.000293175
0.000253995
0.000283796
0.000259091
0.00027421
0.00026401
0.000264446
0.000268752
0.000254491
0.000273313
0.000244362
0.000277691
0.00023406
0.000281884
0.000223589
0.000285889
0.000212964
0.000289704
0.000202177
0.000293326
0.000191251
0.000296753
0.000180182
0.000299983
0.00016898
0.000303012
0.000157656
0.000305837
0.000146211
0.000308457
0.00013466
0.000310868
0.000123006
0.000313068
0.00011126
0.000315053
9.9432e-05
0.000316821
8.75277e-05
0.000318369
7.55602e-05
0.000319695
6.35387e-05
0.000320796
5.14753e-05
0.000321673
3.93805e-05
0.000322331
2.72609e-05
0.00032279
1.51808e-05
3.16344e-06
0.000323065
7.66556e-06
0.000458061
1.97181e-08
1.54293e-05
0.00045702
2.32866e-05
0.000455502
3.1223e-05
0.000453746
3.92078e-05
0.000451891
4.72222e-05
0.000449835
5.52492e-05
0.000447563
6.3274e-05
0.000445058
7.12835e-05
0.000442304
7.92666e-05
0.000439292
8.72129e-05
0.000436012
9.51135e-05
0.000432459
0.000102961
0.00042862
0.00011075
0.00042448
0.00011847
0.000420098
0.000126113
0.000415435
0.000133678
0.000410461
0.000141152
0.000405256
0.000148532
0.000399763
0.000155813
0.000393998
0.000162984
0.000387992
0.000170046
0.000381692
0.000176987
0.000375175
0.000183807
0.000368378
0.000190497
0.000361359
0.000197053
0.000354081
0.000203471
0.000346581
0.000209747
0.000338839
0.000215875
0.00033088
0.000221854
0.00032269
0.000227678
0.000314294
0.000233345
0.000305674
0.000238851
0.000296861
0.000244196
0.000287831
0.000249374
0.000278619
0.000254384
0.0002692
0.000259223
0.000259607
0.000263889
0.000249825
0.00026838
0.000239871
0.000272693
0.000229748
0.000276825
0.000219457
0.000280773
0.000209015
0.000284537
0.000198414
0.000288111
0.000187676
0.000291494
0.000176798
0.000294684
0.000165791
0.000297676
0.000154663
0.000300468
0.000143418
0.000303058
0.00013207
0.000305441
0.000120622
0.000307616
0.000109085
0.000309579
9.74683e-05
0.000311328
8.57784e-05
0.000312859
7.40282e-05
0.000314171
6.22261e-05
0.000315263
5.03832e-05
0.000316134
3.85087e-05
0.000316787
2.6607e-05
0.00031724
1.47265e-05
2.87958e-06
0.000317524
7.53037e-06
0.000450508
2.00323e-08
1.51579e-05
0.000449391
2.28767e-05
0.000447781
3.06727e-05
0.000445948
3.85155e-05
0.000444046
4.63867e-05
0.000441961
5.42697e-05
0.000439678
6.21498e-05
0.000437176
7.00144e-05
0.000434438
7.78525e-05
0.000431452
8.56542e-05
0.000428209
9.34106e-05
0.000424701
0.000101115
0.000420915
0.000108761
0.000416833
0.000116339
0.00041252
0.000123841
0.000407932
0.000131266
0.000403036
0.000138602
0.00039792
0.000145845
0.00039252
0.00015299
0.000386854
0.000160027
0.000380955
0.000166957
0.000374763
0.000173768
0.000368364
0.000180459
0.000361688
0.000187023
0.000354795
0.000193457
0.000347648
0.000199755
0.000340283
0.000205914
0.00033268
0.000211931
0.000324864
0.000217801
0.00031682
0.000223521
0.000308574
0.000229089
0.000300106
0.000234501
0.000291449
0.000239756
0.000282575
0.000244849
0.000273525
0.000249779
0.000264269
0.000254544
0.000254842
0.00025914
0.000245228
0.000263565
0.000235445
0.000267816
0.000225495
0.000271891
0.000215381
0.000275786
0.000205118
0.0002795
0.000194699
0.000283029
0.000184146
0.00028637
0.000173456
0.000289519
0.00016264
0.000292474
0.000151707
0.000295232
0.000140659
0.00029779
0.000129511
0.000300144
0.000118267
0.000302291
0.000106937
0.000304228
9.55301e-05
0.000305953
8.40529e-05
0.000307462
7.25182e-05
0.000308754
6.09338e-05
0.000309827
4.93099e-05
0.00031068
3.76544e-05
0.000311316
2.59705e-05
0.00031174
1.43015e-05
2.64069e-06
0.000311979
7.39697e-06
0.00044309
1.83201e-08
1.4889e-05
0.000441896
2.24705e-05
0.000440197
3.01272e-05
0.000438288
3.78295e-05
0.00043634
4.55592e-05
0.000434229
5.32999e-05
0.000431934
6.10375e-05
0.000429435
6.87594e-05
0.000426713
7.64549e-05
0.000423754
8.41143e-05
0.000420547
9.17289e-05
0.000417084
9.92917e-05
0.00041335
0.000106798
0.000409325
0.000114236
0.00040508
0.0001216
0.000400567
0.000128888
0.000395747
0.000136087
0.000390719
0.000143196
0.00038541
0.000150207
0.000379842
0.000157113
0.000374048
0.000163913
0.000367963
0.000170597
0.00036168
0.000177163
0.000355121
0.000183606
0.000348353
0.000189921
0.000341332
0.000196104
0.0003341
0.000202153
0.000326631
0.000208062
0.000318955
0.000213829
0.000311052
0.000219451
0.000302951
0.000224926
0.000294631
0.000230249
0.000286125
0.00023542
0.000277404
0.000240434
0.000268511
0.000245289
0.000259412
0.000249983
0.000250148
0.000254513
0.000240698
0.000258876
0.000231082
0.000263068
0.000221302
0.000267088
0.00021136
0.000270932
0.000201274
0.000274597
0.000191033
0.000278079
0.000180663
0.000281376
0.000170159
0.000284484
0.000159531
0.0002874
0.000148791
0.00029012
0.000137937
0.000292642
0.000126989
0.000294962
0.000115947
0.000297076
0.000104822
0.000298981
9.36236e-05
0.000300676
8.23577e-05
0.000302156
7.1037e-05
0.000303421
5.96688e-05
0.000304467
4.82627e-05
0.000305295
3.68254e-05
0.000305906
2.53597e-05
0.000306297
1.39085e-05
2.45402e-06
0.000306484
7.26448e-06
0.000435805
1.72285e-08
1.46226e-05
0.000434536
2.2068e-05
0.00043275
2.95872e-05
0.000430767
3.71507e-05
0.000428775
4.47408e-05
0.000426637
5.23414e-05
0.000424332
5.99385e-05
0.000421836
6.752e-05
0.00041913
7.50753e-05
0.000416198
8.25949e-05
0.000413026
9.00702e-05
0.000409608
9.74944e-05
0.000405925
0.000104863
0.000401956
0.000112164
0.000397778
0.000119392
0.000393338
0.000126545
0.000388594
0.000133611
0.000383653
0.000140587
0.000378434
0.000147468
0.000372961
0.000154247
0.000367271
0.000160921
0.000361289
0.000167481
0.00035512
0.000173928
0.000348675
0.000180253
0.000342028
0.000186455
0.000335131
0.000192528
0.000328026
0.000198471
0.000320688
0.000204279
0.000313147
0.000209949
0.000305381
0.000215479
0.000297422
0.000220865
0.000289244
0.000226105
0.000280885
0.000231196
0.000272313
0.000236134
0.000263572
0.000240918
0.000254627
0.000245544
0.000245521
0.00025001
0.000236231
0.000254312
0.000226779
0.000258446
0.000217166
0.000262411
0.000207394
0.000266202
0.000197482
0.000269817
0.000187418
0.000273251
0.000177228
0.000276501
0.000166907
0.000279564
0.000156467
0.000282436
0.000145917
0.000285115
0.000135258
0.000287595
0.000124507
0.000289875
0.000113666
0.000291952
0.000102745
0.000293821
9.17536e-05
0.00029548
8.06976e-05
0.000296927
6.95892e-05
0.00029816
5.84354e-05
0.000299177
4.72452e-05
0.000299977
3.60246e-05
0.000300559
2.47762e-05
0.000300921
1.35463e-05
2.30729e-06
0.000301067
7.13333e-06
0.000428652
1.76513e-08
1.43589e-05
0.000427307
2.16702e-05
0.000425436
2.90535e-05
0.000423381
3.64802e-05
0.000421346
4.39327e-05
0.000419181
5.13954e-05
0.000416866
5.88543e-05
0.000414375
6.62978e-05
0.000411684
7.37153e-05
0.000408778
8.10975e-05
0.000405642
8.84359e-05
0.000402267
9.5724e-05
0.000398635
0.000102957
0.000394722
0.000110124
0.00039061
0.000117219
0.000386242
0.00012424
0.000381572
0.000131176
0.000376716
0.000138023
0.000371585
0.000144778
0.000366205
0.000151432
0.000360616
0.000157984
0.000354736
0.000164427
0.000348677
0.000170757
0.000342343
0.000176971
0.000335814
0.000183064
0.000329037
0.000189033
0.000322057
0.000194875
0.000314846
0.000200587
0.000307435
0.000206165
0.000299803
0.000211606
0.00029198
0.000216908
0.000283941
0.000222068
0.000275725
0.000227082
0.000267298
0.000231947
0.000258706
0.000236662
0.000249912
0.000241222
0.000240961
0.000245623
0.000231829
0.000249864
0.000222538
0.00025394
0.00021309
0.000257848
0.000203485
0.000261584
0.000193745
0.000265145
0.000183855
0.000268528
0.000173845
0.000271728
0.000163706
0.000274742
0.000153452
0.000277567
0.000143091
0.000280199
0.000132625
0.000282635
0.00012207
0.000284872
0.000111428
0.000286906
0.00010071
0.000288736
8.99237e-05
0.000290357
7.90755e-05
0.000291768
6.81772e-05
0.000292967
5.72354e-05
0.000293953
4.62587e-05
0.000294724
3.52529e-05
0.000295279
2.42204e-05
0.000295615
1.32094e-05
2.18997e-06
0.000295732
7.00355e-06
0.000421628
1.75368e-08
1.40985e-05
0.000420211
2.12774e-05
0.000418255
2.85269e-05
0.00041613
3.58189e-05
0.000414052
4.3136e-05
0.000411863
5.04629e-05
0.000409538
5.7786e-05
0.00040705
6.50937e-05
0.000404376
7.23757e-05
0.000401495
7.96229e-05
0.000398394
8.68271e-05
0.000395062
9.39815e-05
0.00039148
0.000101082
0.000387621
0.000108117
0.000383574
0.000115082
0.000379277
0.000121974
0.00037468
0.000128783
0.000369906
0.000135506
0.000364863
0.000142138
0.000359573
0.000148672
0.000354082
0.000155107
0.000348301
0.000161435
0.000342349
0.000167655
0.000336123
0.000173761
0.000329708
0.000179751
0.000323047
0.00018562
0.000316188
0.000191367
0.0003091
0.000196986
0.000301816
0.000202475
0.000294313
0.000207832
0.000286623
0.000213053
0.00027872
0.000218134
0.000270644
0.000223074
0.000262357
0.000227867
0.000253912
0.000232513
0.000245266
0.000237006
0.000236467
0.000241343
0.00022749
0.000245521
0.000218359
0.000249536
0.000209073
0.000253385
0.000199635
0.000257064
0.000190065
0.000260569
0.000180349
0.000263897
0.000170516
0.000267044
0.000160558
0.000270006
0.000150488
0.000272781
0.000140316
0.000275364
0.000130041
0.000277752
0.000119681
0.000279943
0.000109237
0.000281933
9.87184e-05
0.00028372
8.81356e-05
0.000285302
7.74929e-05
0.000286676
6.68022e-05
0.000287841
5.60698e-05
0.000288795
4.53039e-05
0.000289538
3.45101e-05
0.000290066
2.36906e-05
0.000290379
1.28962e-05
2.09398e-06
0.000290475
6.87579e-06
0.000414732
1.77718e-08
1.3842e-05
0.000413242
2.08905e-05
0.000411204
2.80083e-05
0.00040901
3.51675e-05
0.00040689
4.23514e-05
0.000404676
4.95448e-05
0.000402342
5.67343e-05
0.000399858
6.39085e-05
0.000397199
7.10574e-05
0.000394344
7.81721e-05
0.000391277
8.52443e-05
0.000387988
9.22678e-05
0.000384455
9.9238e-05
0.00038065
0.000106145
0.000376666
0.000112983
0.000372438
0.000119749
0.000367912
0.000126435
0.00036322
0.000133037
0.00035826
0.00013955
0.000353059
0.000145968
0.000347663
0.000152291
0.000341978
0.000158509
0.00033613
0.000164623
0.000330009
0.000170626
0.000323705
0.000176516
0.000317156
0.000182289
0.000310414
0.000187943
0.000303445
0.000193473
0.000296285
0.000198877
0.000288908
0.000204151
0.000281349
0.000209293
0.000273578
0.000214298
0.000265638
0.000219163
0.000257491
0.000223885
0.000249189
0.000228461
0.000240689
0.000232886
0.000232041
0.000237158
0.000223218
0.000241272
0.000214244
0.000245225
0.00020512
0.000249013
0.000195846
0.000252631
0.000186445
0.000256078
0.000176901
0.000259349
0.000167245
0.000262439
0.000157466
0.000265347
0.00014758
0.000268068
0.000137594
0.0002706
0.000127508
0.000272939
0.000117341
0.000275082
0.000107092
0.000277027
9.67724e-05
0.000278771
8.63904e-05
0.000280313
7.59504e-05
0.00028165
6.54644e-05
0.000282781
5.49382e-05
0.000283704
4.43799e-05
0.000284418
3.37951e-05
0.000284923
2.31856e-05
0.000285215
1.26026e-05
2.01495e-06
0.000285294
6.74973e-06
0.000407961
1.89556e-08
1.35894e-05
0.000406401
2.05098e-05
0.000404282
2.74979e-05
0.00040202
3.45267e-05
0.00039986
4.15796e-05
0.000397622
4.86416e-05
0.000395279
5.56998e-05
0.000392799
6.27429e-05
0.000390155
6.97611e-05
0.000387325
7.67457e-05
0.000384292
8.36887e-05
0.000381045
9.0584e-05
0.000377559
9.74271e-05
0.000373806
0.000104208
0.000369884
0.000110922
0.000365724
0.000117567
0.000361268
0.000124133
0.000356654
0.000130618
0.000351776
0.000137017
0.000346661
0.000143323
0.000341357
0.000149536
0.000335765
0.000155649
0.000330018
0.00016166
0.000323998
0.000167564
0.000317801
0.000173358
0.000311362
0.000179039
0.000304734
0.000184603
0.000297881
0.000190047
0.000290842
0.000195367
0.000283587
0.00020056
0.000276156
0.000205623
0.000268514
0.000210552
0.000260709
0.000215343
0.000252698
0.000219993
0.000244538
0.000224499
0.000236183
0.000228855
0.000227684
0.000233059
0.000219012
0.000237107
0.000210195
0.000240996
0.00020123
0.00024472
0.000192121
0.000248277
0.000182887
0.000251663
0.000173514
0.000254873
0.000164033
0.000257906
0.000154433
0.000260758
0.000144727
0.000263424
0.000134926
0.000265903
0.000125028
0.000268191
0.000115052
0.000270286
0.000104996
0.000272186
9.48722e-05
0.000273887
8.46881e-05
0.000275389
7.44479e-05
0.000276689
6.41634e-05
0.000277786
5.38402e-05
0.000278679
4.34861e-05
0.000279367
3.31066e-05
0.000279849
2.27031e-05
0.000280124
1.23277e-05
1.94963e-06
0.000280188
6.62611e-06
0.000401312
2.07659e-08
1.33413e-05
0.000399683
2.01355e-05
0.000397485
2.69962e-05
0.000395157
3.38967e-05
0.000392957
4.08208e-05
0.000390696
4.77538e-05
0.000388344
5.4683e-05
0.000385868
6.15974e-05
0.000383238
6.84875e-05
0.000380433
7.53446e-05
0.000377433
8.21612e-05
0.000374227
8.89312e-05
0.000370787
9.56504e-05
0.000367086
0.000102309
0.000363224
0.000108903
0.000359129
0.000115429
0.00035474
0.000121879
0.000350203
0.00012825
0.000345404
0.000134538
0.000340372
0.000140737
0.000335158
0.000146845
0.000329657
0.000152855
0.000324007
0.000158767
0.000318086
0.000164575
0.000311993
0.000170276
0.00030566
0.000175866
0.000299143
0.000181343
0.000292404
0.000186702
0.000285483
0.000191939
0.000278349
0.000197052
0.000271042
0.000202037
0.000263529
0.000206889
0.000255856
0.000211606
0.000247981
0.000216183
0.000239961
0.000220617
0.000231748
0.000224903
0.000223396
0.000229039
0.000214876
0.000233019
0.000206213
0.000236841
0.000197408
0.0002405
0.000188461
0.000243993
0.000179394
0.000247316
0.00017019
0.000250466
0.000160882
0.000253439
0.000151458
0.000256233
0.000141933
0.000258844
0.000132315
0.000261269
0.000122602
0.000263507
0.000112814
0.000265553
0.000102949
0.000267407
9.30175e-05
0.000269066
8.30283e-05
0.000270528
7.29846e-05
0.000271793
6.28982e-05
0.000272858
5.27743e-05
0.000273723
4.26207e-05
0.000274386
3.24426e-05
0.000274847
2.22412e-05
0.000275106
1.20678e-05
1.89552e-06
0.00027516
6.50474e-06
0.000394784
2.14232e-08
1.30976e-05
0.000393089
1.97679e-05
0.000390814
2.65034e-05
0.00038842
3.32779e-05
0.000386182
4.00755e-05
0.000383897
4.68819e-05
0.000381536
5.36846e-05
0.000379064
6.04729e-05
0.000376449
6.72375e-05
0.000373667
7.397e-05
0.0003707
8.06631e-05
0.000367533
8.73109e-05
0.000364139
9.39093e-05
0.000360487
0.000100449
0.000356684
0.000106926
0.000352653
0.000113337
0.000348329
0.000119675
0.000343865
0.000125936
0.000339143
0.000132117
0.000334192
0.00013821
0.000329065
0.000144216
0.000323651
0.000150128
0.000318096
0.000155943
0.000312271
0.000161657
0.000306279
0.000167267
0.00030005
0.000172769
0.000293641
0.000178159
0.000287014
0.000183434
0.000280208
0.00018859
0.000273193
0.000193622
0.000266009
0.000198529
0.000258622
0.000203304
0.00025108
0.000207946
0.000243338
0.000212448
0.000235457
0.000216809
0.000227386
0.000221024
0.000219181
0.000225089
0.00021081
0.000229
0.000202301
0.000232753
0.000193653
0.000236346
0.000184867
0.000239773
0.000175965
0.000243033
0.000166929
0.000246121
0.000157793
0.000249034
0.000148544
0.00025177
0.000139196
0.000254325
0.000129759
0.000256697
0.000120229
0.000258883
0.000110627
0.000260882
0.000100949
0.000262691
9.12078e-05
0.000264308
8.14101e-05
0.000265733
7.15595e-05
0.000266963
6.16675e-05
0.000267997
5.17392e-05
0.000268835
4.17821e-05
0.000269476
3.18013e-05
0.000269919
2.17976e-05
0.000270164
1.18224e-05
1.8507e-06
0.000270208
6.38619e-06
0.000388374
2.12318e-08
1.28587e-05
0.000386614
1.94072e-05
0.000384263
2.60197e-05
0.000381806
3.26705e-05
0.000379528
3.93441e-05
0.000377221
4.60264e-05
0.000374852
5.27052e-05
0.000372383
5.93702e-05
0.000369783
6.60121e-05
0.000367024
7.2623e-05
0.000364087
7.91956e-05
0.000360959
8.57243e-05
0.000357609
9.22053e-05
0.000354005
9.86297e-05
0.000350258
0.000104993
0.000346289
0.000111293
0.000342028
0.000117521
0.000337636
0.000123675
0.000332988
0.000129752
0.000328116
0.000135744
0.000323073
0.000141651
0.000317743
0.000147465
0.00031228
0.000153187
0.000306549
0.000158809
0.000300657
0.000164329
0.000294529
0.000169743
0.000288227
0.000175048
0.000281709
0.000180239
0.000275017
0.000185313
0.000268119
0.000190265
0.000261057
0.000195092
0.000253794
0.000199789
0.000246382
0.000204354
0.000238773
0.000208782
0.000231029
0.000213069
0.000223098
0.00021721
0.000215038
0.000221203
0.000206816
0.000225044
0.00019846
0.000228728
0.000189968
0.000232253
0.000181342
0.000235614
0.000172603
0.000238809
0.000163733
0.000241835
0.000154767
0.000244688
0.00014569
0.000247365
0.000136518
0.000249865
0.000127258
0.000252184
0.000117909
0.00025432
0.000108489
0.000256272
9.89968e-05
0.000258037
8.94416e-05
0.000259615
7.9832e-05
0.000261002
7.01708e-05
0.0002622
6.04694e-05
0.000263205
5.07328e-05
0.000264019
4.09681e-05
0.000264639
3.11805e-05
0.000265065
2.13703e-05
0.000265299
1.1588e-05
1.81285e-06
0.000265336
6.26989e-06
0.000382082
2.04221e-08
1.26244e-05
0.000380259
1.90534e-05
0.000377833
2.55453e-05
0.000375313
3.20749e-05
0.000372998
3.86269e-05
0.000370668
4.51878e-05
0.00036829
5.17456e-05
0.000365825
5.829e-05
0.000363238
6.48122e-05
0.000360501
7.13044e-05
0.000357595
7.77597e-05
0.000354504
8.41726e-05
0.000351196
9.05393e-05
0.000347638
9.68514e-05
0.000343947
0.000103104
0.000340037
0.000109296
0.000335837
0.000115418
0.000331514
0.000121468
0.000326938
0.000127443
0.000322141
0.000133336
0.000317181
0.000139146
0.000311934
0.000144866
0.000306561
0.000150494
0.000300921
0.000156026
0.000295126
0.000161457
0.000289098
0.000166785
0.0002829
0.000172004
0.000276489
0.000177111
0.00026991
0.000182102
0.000263127
0.000186973
0.000256186
0.000191721
0.000249046
0.00019634
0.000241763
0.000200827
0.000234285
0.000205178
0.000226678
0.00020939
0.000218886
0.000213457
0.00021097
0.000217377
0.000202895
0.000221147
0.00019469
0.000224761
0.000186353
0.000228217
0.000177884
0.000231512
0.000169307
0.000234643
0.000160602
0.000237606
0.000151803
0.000240399
0.000142896
0.000243019
0.000133897
0.000245463
0.000124813
0.00024773
0.000115641
0.000249818
0.000106401
0.000251724
9.70898e-05
0.000253447
8.77176e-05
0.000254986
7.82925e-05
0.000256339
6.88171e-05
0.000257505
5.93025e-05
0.000258484
4.97535e-05
0.000259275
4.01772e-05
0.000259876
3.05785e-05
0.000260288
2.09574e-05
0.000260512
1.13643e-05
1.78076e-06
0.000260543
6.15631e-06
0.000375904
1.93707e-08
1.23948e-05
0.000374018
1.87066e-05
0.000371519
2.50803e-05
0.000368937
3.14912e-05
0.000366585
3.79244e-05
0.000364233
4.43666e-05
0.000361846
5.0806e-05
0.000359384
5.72328e-05
0.000356809
6.36384e-05
0.000354094
7.0015e-05
0.000351217
7.6356e-05
0.000348161
8.26561e-05
0.000344895
8.89118e-05
0.000341381
9.51144e-05
0.000337743
0.00010126
0.000333891
0.000107346
0.00032975
0.000113365
0.000325494
0.000119314
0.000320989
0.000125189
0.000316266
0.000130984
0.000311385
0.000136699
0.000306219
0.000142326
0.000300934
0.000147863
0.000295383
0.000153304
0.000289684
0.000158648
0.000283754
0.000163888
0.000277659
0.000169022
0.000271355
0.000174045
0.000264886
0.000178953
0.000258218
0.000183743
0.000251396
0.000188409
0.000244379
0.000192949
0.000237223
0.000197358
0.000229875
0.000201631
0.000222403
0.000205767
0.00021475
0.00020976
0.000206977
0.000213607
0.000199047
0.000217304
0.000190992
0.000220848
0.000182808
0.000224236
0.000174495
0.000227465
0.000166078
0.000230531
0.000157534
0.000233432
0.000148901
0.000236166
0.000140162
0.000238729
0.000131332
0.00024112
0.000122421
0.000243337
0.000113423
0.000245377
0.00010436
0.000247239
9.52267e-05
0.000248922
8.6034e-05
0.000250424
7.67898e-05
0.000251744
6.74962e-05
0.000252881
5.81645e-05
0.000253835
4.87992e-05
0.000254604
3.94071e-05
0.000255189
2.99932e-05
0.000255588
2.05572e-05
0.000255804
1.11482e-05
1.7522e-06
0.000255831
6.04487e-06
0.00036984
1.74756e-08
1.21699e-05
0.000367892
1.83669e-05
0.000365321
2.46249e-05
0.000362678
3.09197e-05
0.000360289
3.72368e-05
0.000357915
4.3563e-05
0.000355519
4.9887e-05
0.000353059
5.61991e-05
0.000350496
6.24909e-05
0.000347802
6.87549e-05
0.000344952
7.49847e-05
0.000341931
8.1175e-05
0.000338705
8.73223e-05
0.000335234
9.34185e-05
0.000331647
9.94589e-05
0.00032785
0.000105442
0.000323767
0.00011136
0.000319577
0.00011721
0.00031514
0.000122987
0.000310488
0.000128687