/*--------------------------------*- C++ -*----------------------------------*\
  =========                 |
  \\      /  F ield         | OpenFOAM: The Open Source CFD Toolbox
   \\    /   O peration     | Website:  https://openfoam.org
    \\  /    A nd           | Version:  6.0
     \\/     M anipulation  |
\*---------------------------------------------------------------------------*/
FoamFile
{
    version     2.0;
    format      ascii;
    class       surfaceScalarField;
    location    "17";
    object      phi;
}
// * * * * * * * * * * * * * * * * * * * * * * * * * * * * * * * * * * * * * //

dimensions      [0 3 -1 0 0 0 0];

internalField   nonuniform List<scalar> 
68636
(
3.01793e-05
0.00310563
2.57404e-08
6.08364e-05
0.00307054
9.11311e-05
0.00300195
0.000120521
0.00290075
0.00014864
0.00276799
0.000175181
0.00260474
0.000199829
0.00241287
0.000222278
0.00219478
0.000242273
0.00195275
0.000259592
0.00168912
0.000274041
0.00140659
0.000285464
0.00110812
0.000293746
0.000797327
0.000298744
0.000476609
0.000140403
0.000297463
2.99253e-05
0.00307566
4.36813e-08
6.03272e-05
0.00304014
9.03353e-05
0.00297193
0.000119433
0.00287166
0.000147282
0.00274015
0.000173581
0.00257846
0.000198005
0.00238848
0.000220246
0.00217257
0.000240054
0.00193298
0.000257212
0.001672
0.000271532
0.00139232
0.000282847
0.00109685
0.000291098
0.000789134
0.000295821
0.000471974
0.000141325
0.000295065
2.96777e-05
0.00304593
4.60758e-08
5.98074e-05
0.00301002
8.95224e-05
0.0029422
0.000118338
0.00284283
0.000145934
0.00271256
0.000171997
0.00255239
0.000196198
0.00236428
0.000218231
0.00215053
0.000237856
0.00191335
0.000254858
0.00165498
0.000269054
0.00137811
0.000280258
0.00108563
0.000288445
0.00078092
0.000293286
0.000467087
0.000141186
0.000293295
2.94267e-05
0.00301646
4.30667e-08
5.9274e-05
0.00298017
8.86999e-05
0.00291276
0.000117248
0.00281428
0.000144599
0.00268521
0.00017043
0.00252656
0.000194406
0.00234031
0.000216232
0.00212871
0.000235675
0.00189392
0.000252524
0.00163814
0.000266597
0.00136405
0.000277695
0.00107455
0.000285792
0.000772848
0.000290656
0.000462265
0.000140862
0.000291056
2.91695e-05
0.00298726
2.9055e-08
5.87305e-05
0.00295061
8.7875e-05
0.00288361
0.000116167
0.00278598
0.00014328
0.00265809
0.000168878
0.00250095
0.000192629
0.00231655
0.000214249
0.00210707
0.000233512
0.00187464
0.00025021
0.00162143
0.00026416
0.00135008
0.000275157
0.00106352
0.000283154
0.000764821
0.000287961
0.000457406
0.000140066
0.000288622
2.8907e-05
0.00295834
9.12646e-09
5.81824e-05
0.00292133
8.70535e-05
0.00285472
0.000115097
0.00275793
0.000141976
0.0026312
0.000167342
0.00247558
0.000190869
0.00229302
0.000212284
0.00208566
0.00023137
0.00185556
0.000247918
0.00160488
0.000261747
0.00133626
0.000272649
0.00105263
0.000280547
0.000756932
0.000285284
0.000452688
0.000139224
0.000286158
2.86415e-05
0.00292971
-9.59843e-09
5.76349e-05
0.00289234
8.624e-05
0.00282611
0.000114039
0.00273012
0.000140686
0.00260455
0.00016582
0.00245044
0.000189125
0.00226971
0.000210339
0.00206443
0.000229251
0.00183663
0.00024565
0.00158846
0.000259359
0.00132253
0.000270169
0.00104179
0.000277977
0.000749094
0.000282647
0.000447967
0.000138097
0.000283645
2.83755e-05
0.00290136
-2.67836e-08
5.70926e-05
0.00286362
8.54376e-05
0.00279775
0.000112995
0.00270255
0.000139407
0.00257813
0.00016431
0.00242553
0.000187396
0.00224662
0.000208412
0.00204341
0.000227152
0.00181789
0.000243407
0.00157221
0.000256995
0.00130894
0.000267715
0.00103107
0.000275442
0.000741369
0.000280046
0.00044337
0.000137063
0.000281088
2.81109e-05
0.00287328
-3.47664e-08
5.65581e-05
0.00283517
8.46478e-05
0.00276966
0.000111963
0.00267523
0.000138139
0.00255195
0.000162811
0.00240085
0.000185679
0.00222375
0.000206501
0.00202257
0.000225073
0.00179931
0.000241185
0.00155608
0.000254654
0.00129546
0.000265285
0.00102042
0.000272939
0.000733689
0.000277481
0.000438782
0.000135904
0.000278526
2.78492e-05
0.00284546
-3.24822e-08
5.60328e-05
0.00280699
8.38707e-05
0.00274181
0.000110943
0.00264815
0.000136879
0.00252601
0.00016132
0.0023764
0.000183974
0.00220109
0.000204606
0.00200193
0.000223013
0.0017809
0.000238984
0.0015401
0.000252335
0.0012821
0.000262877
0.00100987
0.000270463
0.000726099
0.000274955
0.000434289
0.000134851
0.000276005
2.75909e-05
0.00281789
-2.17706e-08
5.55165e-05
0.00277906
8.31054e-05
0.00271422
0.000109933
0.00262132
0.000135629
0.00250031
0.000159839
0.00235219
0.000182282
0.00217864
0.000202728
0.00198148
0.000220972
0.00176265
0.000236804
0.00152426
0.000250037
0.00126886
0.00026049
0.000999399
0.000268011
0.000718555
0.000272465
0.000429795
0.000133673
0.00027354
2.73362e-05
0.00279056
-4.50079e-09
5.50085e-05
0.00275138
8.23501e-05
0.00268687
0.000108933
0.00259473
0.000134387
0.00247485
0.000158368
0.0023282
0.000180604
0.0021564
0.000200866
0.00196121
0.000218951
0.00174455
0.000234645
0.00150856
0.000247762
0.00125573
0.000258125
0.00098903
0.000265581
0.000711092
0.000270006
0.000425364
0.000132538
0.00027113
2.70849e-05
0.00276346
1.37054e-08
5.45076e-05
0.00272396
8.16032e-05
0.00265977
0.00010794
0.00256839
0.000133153
0.00244964
0.000156909
0.00230444
0.00017894
0.00213436
0.000199023
0.00194112
0.000216951
0.00172662
0.000232509
0.00149299
0.000245511
0.00124272
0.000255782
0.000978743
0.000263174
0.000703681
0.000267574
0.00042093
0.000131264
0.00026876
2.68368e-05
0.00273659
2.93144e-08
5.40123e-05
0.00269678
8.0863e-05
0.00263291
0.000106955
0.00254229
0.000131929
0.00242465
0.000155462
0.0022809
0.000177294
0.00211252
0.0001972
0.0019212
0.000214973
0.00170884
0.000230396
0.00147756
0.000243282
0.00122983
0.000253463
0.000968555
0.00026079
0.000696346
0.000265166
0.000416545
0.000130002
0.000266414
2.65913e-05
0.00270996
3.94347e-08
5.35215e-05
0.00266985
8.01282e-05
0.00260631
0.000105977
0.00251644
0.000130715
0.00239992
0.000154029
0.00225758
0.000175665
0.00209089
0.000195398
0.00190146
0.000213017
0.00169122
0.000228306
0.00146226
0.000241078
0.00121705
0.000251168
0.000958453
0.000258429
0.00068907
0.000262779
0.000412166
0.000128622
0.000264082
2.63483e-05
0.00268357
4.25367e-08
5.30344e-05
0.00264316
7.93981e-05
0.00257993
0.000105005
0.00249082
0.000129511
0.0023754
0.000152611
0.00223447
0.000174055
0.00206944
0.000193616
0.00188189
0.000211083
0.00167374
0.000226239
0.0014471
0.000238898
0.00120438
0.000248897
0.000948446
0.000256092
0.000681866
0.000260413
0.000407835
0.000127261
0.000261758
2.61073e-05
0.00265742
3.93418e-08
5.25504e-05
0.00261672
7.86722e-05
0.00255382
0.00010404
0.00246546
0.000128318
0.00235113
0.000151207
0.00221158
0.000172463
0.00204818
0.000191855
0.0018625
0.000209171
0.00165643
0.000224195
0.00143207
0.000236741
0.00119183
0.000246649
0.00093853
0.000253779
0.000674724
0.000258066
0.000403523
0.000125824
0.000259438
2.58682e-05
0.00263152
3.10799e-08
5.20693e-05
0.00259051
7.79507e-05
0.00252793
0.000103083
0.00244032
0.000127136
0.00232706
0.00014982
0.00218889
0.000170889
0.0020271
0.000190115
0.00184327
0.000207281
0.00163925
0.000222174
0.00141717
0.000234606
0.00117939
0.000244424
0.000928704
0.000251488
0.000667651
0.00025574
0.00039926
0.000124424
0.000257125
2.56308e-05
0.00260587
2.01139e-08
5.15912e-05
0.00256455
7.7234e-05
0.00250229
0.000102133
0.00241542
0.000125967
0.00230323
0.000148449
0.00216641
0.000169335
0.00200622
0.000188395
0.0018242
0.000205412
0.00162223
0.000220173
0.00140241
0.000232494
0.00116707
0.000242222
0.00091897
0.000249221
0.000660643
0.000253434
0.000395026
0.000122982
0.000254819
2.53952e-05
0.00258046
8.83499e-09
5.11163e-05
0.00253883
7.65227e-05
0.00247688
0.000101193
0.00239074
0.000124811
0.00227961
0.000147094
0.00214412
0.000167799
0.00198551
0.000186695
0.0018053
0.000203564
0.00160536
0.000218194
0.00138777
0.000230403
0.00115485
0.000240041
0.000909324
0.000246975
0.0006537
0.000251148
0.00039084
0.000121589
0.000252525
2.51613e-05
0.0025553
-7.0103e-10
5.0645e-05
0.00251334
7.58175e-05
0.00245171
0.000100262
0.0023663
0.000123668
0.00225621
0.000145755
0.00212204
0.000166282
0.00196498
0.000185014
0.00178657
0.000201735
0.00158864
0.000216234
0.00137327
0.000228332
0.00114276
0.00023788
0.000899771
0.00024475
0.000646825
0.000248882
0.000386692
0.000120179
0.000250245
2.49294e-05
0.00253038
-6.93805e-09
5.01778e-05
0.00248809
7.51191e-05
0.00242676
9.93415e-05
0.00234207
0.000122538
0.002233
0.000144433
0.00210013
0.000164782
0.00194463
0.000183352
0.00176799
0.000199925
0.00157206
0.000214294
0.00135889
0.00022628
0.00113076
0.00023574
0.000890304
0.000242546
0.00064001
0.000246636
0.000382589
0.000118818
0.00024798
2.46994e-05
0.00250569
-9.21465e-09
4.97151e-05
0.00246308
7.44282e-05
0.00240205
9.84318e-05
0.00231807
0.000121423
0.00221002
0.000143127
0.00207843
0.000163299
0.00192446
0.000181707
0.00174958
0.000198133
0.00155564
0.000212371
0.00134466
0.000224247
0.00111889
0.000233619
0.00088093
0.000240361
0.000633264
0.000244409
0.000378527
0.000117454
0.000245733
2.44717e-05
0.00248122
-7.55151e-09
4.92574e-05
0.00243829
7.37451e-05
0.00237756
9.75331e-05
0.00229428
0.000120321
0.00218722
0.000141836
0.00205691
0.000161834
0.00190446
0.000180079
0.00173133
0.000196358
0.00153935
0.000210467
0.00133054
0.000222233
0.00110711
0.000231516
0.00087164
0.000238194
0.000626577
0.000242201
0.000374506
0.000116134
0.000243504
2.42462e-05
0.00245698
-2.57423e-09
4.88049e-05
0.00241373
7.30704e-05
0.0023533
9.66457e-05
0.00227071
0.000119234
0.00216464
0.000140561
0.00203559
0.000160384
0.00188464
0.000178468
0.00171325
0.0001946
0.00152322
0.00020858
0.00131656
0.000220236
0.00109546
0.000229431
0.000862444
0.000236046
0.00061996
0.000240012
0.000370529
0.000114822
0.000241294
2.40231e-05
0.00243295
4.71926e-09
4.83578e-05
0.00238939
7.2404e-05
0.00232925
9.57695e-05
0.00224733
0.000118159
0.00214225
0.0001393
0.00201444
0.000158949
0.00186498
0.000176872
0.00169532
0.000192858
0.00150723
0.000206708
0.0013027
0.000218255
0.00108391
0.000227363
0.000853329
0.000233916
0.000613399
0.000237841
0.00036659
0.000113542
0.000239102
2.38026e-05
0.00240914
1.32511e-08
4.79163e-05
0.00236528
7.17461e-05
0.00230542
9.49042e-05
0.00222418
0.000117097
0.00212006
0.000138053
0.00199349
0.000157528
0.00184551
0.000175291
0.00167756
0.000191131
0.00149139
0.000204853
0.00128899
0.000216291
0.00107247
0.000225313
0.000844308
0.000231803
0.000606908
0.000235688
0.000362696
0.000112274
0.00023693
2.35846e-05
0.00238553
2.19798e-08
4.74803e-05
0.00234138
7.10965e-05
0.0022818
9.40495e-05
0.00220122
0.000116047
0.00209805
0.000136819
0.00197271
0.000156122
0.0018262
0.000173724
0.00165995
0.000189419
0.00147569
0.000203013
0.00127538
0.000214344
0.00106113
0.000223279
0.000835365
0.000229707
0.000600471
0.000233553
0.000358834
0.000111031
0.000234777
2.33693e-05
0.00236213
3.01109e-08
4.70498e-05
0.00231771
7.04549e-05
0.0022584
9.32049e-05
0.00217848
0.000115009
0.00207625
0.000135597
0.00195213
0.000154728
0.00180708
0.000172171
0.00164251
0.000187721
0.00146015
0.000201188
0.00126192
0.000212412
0.00104991
0.000221261
0.000826518
0.000227628
0.000594106
0.000231436
0.000355021
0.000109804
0.000232642
2.31565e-05
0.00233894
3.70919e-08
4.66246e-05
0.00229423
6.98211e-05
0.0022352
9.23699e-05
0.00215592
0.000113982
0.00205464
0.000134387
0.00193172
0.000153346
0.00178811
0.000170631
0.00162522
0.000186036
0.00144474
0.000199378
0.00124857
0.000210495
0.00103879
0.00021926
0.000817744
0.000225566
0.000587791
0.000229335
0.000351236
0.000108594
0.000230526
2.29463e-05
0.00231595
4.26603e-08
4.62046e-05
0.00227098
6.91947e-05
0.00221221
9.15439e-05
0.00213358
0.000112964
0.00203322
0.000133188
0.0019115
0.000151976
0.00176933
0.000169103
0.0016081
0.000184365
0.00142948
0.000197581
0.00123536
0.000208593
0.00102778
0.000217275
0.000809066
0.00022352
0.000581548
0.000227252
0.000347499
0.000107403
0.000228427
2.27386e-05
0.00229316
4.67657e-08
4.57894e-05
0.00224792
6.85751e-05
0.00218942
9.07264e-05
0.00211142
0.000111957
0.00201199
0.000132
0.00189145
0.000150617
0.00175071
0.000167587
0.00159112
0.000182707
0.00141435
0.000195799
0.00122226
0.000206707
0.00101687
0.000215305
0.000800458
0.000221491
0.000575353
0.000225186
0.000343787
0.000106222
0.000226346
2.25332e-05
0.00227058
4.95292e-08
4.53788e-05
0.00222508
6.7962e-05
0.00216684
8.99168e-05
0.00208947
0.000110958
0.00199095
0.000130821
0.00187159
0.000149269
0.00173226
0.000166082
0.00157431
0.000181062
0.00139938
0.000194031
0.0012093
0.000204835
0.00100607
0.000213352
0.000791946
0.000219478
0.000569231
0.000223137
0.000340126
0.000105066
0.000224283
2.23301e-05
0.0022482
5.11563e-08
4.49724e-05
0.00220243
6.7355e-05
0.00214446
8.91146e-05
0.0020677
0.000109968
0.00197009
0.000129652
0.0018519
0.000147932
0.00171398
0.000164589
0.00155765
0.000179429
0.00138453
0.000192276
0.00119645
0.000202978
0.00099536
0.000211414
0.000783501
0.000217482
0.000563153
0.000221105
0.000336486
0.000103912
0.000222238
2.21291e-05
0.00222602
5.18976e-08
4.45702e-05
0.00218
6.67536e-05
0.00212228
8.83193e-05
0.00204614
0.000108985
0.00194943
0.000128491
0.0018324
0.000146604
0.00169587
0.000163107
0.00154115
0.000177809
0.00136983
0.000190535
0.00118372
0.000201136
0.000984765
0.000209491
0.00077515
0.000215502
0.000557147
0.00021909
0.000332897
0.000102786
0.00022021
2.19301e-05
0.00220404
5.19871e-08
4.41716e-05
0.00215775
6.61575e-05
0.00210029
8.75306e-05
0.00202476
0.000108011
0.00192894
0.000127339
0.00181307
0.000145286
0.00167792
0.000161637
0.00152479
0.000176201
0.00135526
0.000188807
0.00117111
0.000199308
0.000974256
0.000207585
0.000766864
0.000213539
0.000551183
0.000217092
0.000329325
0.000101656
0.0002182
2.1733e-05
0.00218225
5.16372e-08
4.37767e-05
0.00213571
6.55664e-05
0.0020785
8.67481e-05
0.00200359
0.000107043
0.00190865
0.000126196
0.00179392
0.000143978
0.00166014
0.000160177
0.0015086
0.000174605
0.00134084
0.000187093
0.00115863
0.000197496
0.00096386
0.000205694
0.000758672
0.000211592
0.000545292
0.000215111
0.000325807
0.000100559
0.000216207
2.15377e-05
0.00216066
5.1009e-08
4.3385e-05
0.00211386
6.498e-05
0.0020569
8.59715e-05
0.00198259
0.000106083
0.00188854
0.000125061
0.00177493
0.000142679
0.00164252
0.000158728
0.00149254
0.000173022
0.00132654
0.000185392
0.00114625
0.000195697
0.000953547
0.000203818
0.000750541
0.000209661
0.000539439
0.000213147
0.000322302
9.94505e-05
0.000214232
2.13441e-05
0.00213927
5.02304e-08
4.29965e-05
0.00209221
6.43981e-05
0.00203551
8.52006e-05
0.00196179
0.00010513
0.00186861
0.000123934
0.00175613
0.00014139
0.00162507
0.00015729
0.00147665
0.00017145
0.00131239
0.000183705
0.001134
0.000193914
0.000943346
0.000201959
0.000742503
0.000207746
0.000533659
0.0002112
0.000318851
9.83794e-05
0.000212273
2.1152e-05
0.00211807
4.93845e-08
4.2611e-05
0.00207075
6.38206e-05
0.00201429
8.44353e-05
0.00194117
0.000104183
0.00184886
0.000122816
0.0017375
0.00014011
0.00160776
0.000155863
0.00146089
0.000169891
0.00129835
0.000182032
0.00112185
0.000192145
0.000933225
0.000200115
0.000734523
0.000205848
0.000527914
0.00020927
0.00031541
9.729e-05
0.000210333
2.09615e-05
0.00209706
4.85322e-08
4.22283e-05
0.00204948
6.32472e-05
0.00199328
8.36755e-05
0.00192075
0.000103244
0.0018293
0.000121705
0.00171904
0.00013884
0.00159064
0.000154447
0.00144529
0.000168345
0.00128446
0.000180372
0.00110983
0.000190391
0.000923214
0.000198286
0.000726635
0.000203967
0.000522243
0.000207356
0.000312026
9.6244e-05
0.000208409
2.07724e-05
0.00207624
4.77074e-08
4.18485e-05
0.0020284
6.26779e-05
0.00197244
8.2921e-05
0.0019005
0.000102311
0.0018099
0.000120603
0.00170074
0.00013758
0.00157365
0.000153042
0.00142982
0.00016681
0.00127069
0.000178726
0.00109791
0.000188652
0.000913281
0.000196474
0.000718803
0.000202101
0.000516604
0.000205459
0.000308647
9.51727e-05
0.000206504
2.05847e-05
0.00205561
4.69354e-08
4.14714e-05
0.00200752
6.21126e-05
0.00195181
8.21719e-05
0.00188044
0.000101384
0.00179069
0.000119508
0.00168262
0.000136329
0.00155684
0.000151647
0.00141451
0.000165288
0.00125705
0.000177093
0.00108611
0.000186927
0.000903455
0.000194676
0.000711062
0.000200252
0.000511038
0.00020358
0.000305326
9.41484e-05
0.000204614
2.03985e-05
0.00203516
4.62267e-08
4.1097e-05
0.00198682
6.15513e-05
0.00193135
8.14281e-05
0.00186056
0.000100465
0.00177165
0.000118422
0.00166466
0.000135087
0.00154017
0.000150264
0.00139932
0.000163779
0.00124353
0.000175475
0.00107441
0.000185217
0.000893705
0.000192895
0.000703374
0.00019842
0.000505502
0.000201717
0.000302008
9.30935e-05
0.000202743
2.02136e-05
0.00201491
4.55893e-08
4.07252e-05
0.00196631
6.09941e-05
0.00191108
8.06898e-05
0.00184087
9.95521e-05
0.00175279
0.000117344
0.00164687
0.000133856
0.00152366
0.000148893
0.00138429
0.000162282
0.00123015
0.00017387
0.00106283
0.000183522
0.000884061
0.000191129
0.000695776
0.000196603
0.000500039
0.00019987
0.00029875
9.20912e-05
0.000200888
2.00301e-05
0.00199483
4.50244e-08
4.03562e-05
0.00194598
6.04408e-05
0.00189099
7.99568e-05
0.00182135
9.86462e-05
0.0017341
0.000116275
0.00162924
0.000132634
0.0015073
0.000147532
0.00136939
0.000160798
0.00121688
0.000172279
0.00105134
0.000181842
0.000874489
0.000189379
0.000688228
0.000194803
0.000494603
0.000198041
0.000295491
9.1052e-05
0.00019905
1.98479e-05
0.00197494
4.45332e-08
3.99898e-05
0.00192584
5.98916e-05
0.0018711
7.92293e-05
0.00180202
9.77473e-05
0.00171559
0.000115214
0.00161178
0.000131422
0.00149109
0.000146183
0.00135463
0.000159326
0.00120374
0.000170701
0.00103997
0.000180177
0.000865023
0.000187645
0.00068077
0.000193019
0.00048924
0.000196228
0.000292292
9.00691e-05
0.000197228
1.96671e-05
0.00195523
4.41121e-08
3.96261e-05
0.00190588
5.93465e-05
0.00185137
7.85073e-05
0.00178285
9.68554e-05
0.00169723
0.000114161
0.00159447
0.000130221
0.00147503
0.000144845
0.00134
0.000157868
0.00119071
0.000169138
0.0010287
0.000178526
0.000855626
0.000185926
0.000673359
0.000191252
0.000483902
0.000194431
0.00028909
8.90442e-05
0.000195424
1.94876e-05
0.0019357
4.37582e-08
3.92651e-05
0.00188611
5.88056e-05
0.00183184
7.77909e-05
0.00176387
9.59705e-05
0.00167906
0.000113117
0.00157732
0.000129029
0.00145912
0.000143519
0.00132552
0.000156421
0.00117782
0.000167588
0.00101754
0.00017689
0.000846334
0.000184222
0.000666038
0.0001895
0.000478638
0.000192651
0.00028595
8.80811e-05
0.000193636
1.93095e-05
0.00191634
4.34659e-08
3.89069e-05
0.00186651
5.82687e-05
0.00181247
7.70801e-05
0.00174505
9.50928e-05
0.00166104
0.000112082
0.00156033
0.000127847
0.00144335
0.000142204
0.00131115
0.000154988
0.00116503
0.000166052
0.00100647
0.000175269
0.000837107
0.000182534
0.000658762
0.000187764
0.000473396
0.000190887
0.000282804
8.70703e-05
0.000191865
1.91328e-05
0.00189717
4.32305e-08
3.85514e-05
0.00184709
5.77361e-05
0.00179329
7.6375e-05
0.00172642
9.42223e-05
0.0016432
0.000111055
0.0015435
0.000126675
0.00142774
0.0001409
0.00129694
0.000153567
0.00115237
0.00016453
0.000995514
0.000173663
0.000827985
0.000180862
0.000651574
0.000186044
0.000468227
0.00018914
0.000279721
8.61248e-05
0.00019011
1.89575e-05
0.00187817
4.30452e-08
3.81987e-05
0.00182785
5.72078e-05
0.00177428
7.56757e-05
0.00170795
9.33591e-05
0.00162551
0.000110038
0.00152682
0.000125514
0.00141226
0.000139608
0.00128284
0.000152159
0.00113981
0.000163021
0.000984644
0.000172071
0.000818926
0.000179204
0.000644429
0.00018434
0.000463078
0.000187409
0.000276629
8.51273e-05
0.000188371
1.87837e-05
0.00185935
4.29043e-08
3.78489e-05
0.00180879
5.66838e-05
0.00175545
7.49822e-05
0.00168965
9.25031e-05
0.001608
0.000109028
0.0015103
0.000124363
0.00139693
0.000138328
0.00126888
0.000150763
0.00112738
0.000161526
0.000973891
0.000170494
0.00080997
0.000177562
0.000637372
0.000182652
0.000458003
0.000185693
0.000273602
8.42004e-05
0.000186649
1.86112e-05
0.00184069
4.28009e-08
3.75019e-05
0.00178989
5.61641e-05
0.00173678
7.42945e-05
0.00167152
9.16545e-05
0.00159063
0.000108028
0.00149392
0.000123222
0.00138173
0.000137059
0.00125503
0.00014938
0.00111506
0.000160045
0.000963218
0.000168931
0.000801075
0.000175935
0.000630356
0.00018098
0.000452946
0.000183994
0.000270564
8.32161e-05
0.000184942
1.84402e-05
0.00182221
4.27297e-08
3.71578e-05
0.00177118
5.56487e-05
0.0017183
7.36127e-05
0.00165356
9.08132e-05
0.00157344
0.000107036
0.0014777
0.000122091
0.00136668
0.000135801
0.00124133
0.00014801
0.00110286
0.000158577
0.000952661
0.000167382
0.000792282
0.000174323
0.000623427
0.000179322
0.000447963
0.00018231
0.000267591
8.23058e-05
0.000183251
1.82706e-05
0.0018039
4.26843e-08
3.68166e-05
0.00175263
5.51378e-05
0.00169997
7.29368e-05
0.00163576
8.99793e-05
0.00155639
0.000106054
0.00146162
0.00012097
0.00135176
0.000134555
0.00122774
0.000146652
0.00109075
0.000157123
0.000942182
0.000165848
0.000783548
0.000172726
0.000616537
0.000177681
0.000442995
0.000180642
0.000264604
8.13341e-05
0.000181577
1.81025e-05
0.00178576
4.26599e-08
3.64783e-05
0.00173426
5.46312e-05
0.00168182
7.22667e-05
0.00161813
8.91528e-05
0.00153951
0.00010508
0.0014457
0.000119859
0.00133699
0.00013332
0.00121429
0.000145307
0.00107877
0.000155682
0.000931817
0.000164328
0.000774914
0.000171144
0.000609734
0.000176054
0.000438102
0.00017899
0.000261685
8.04414e-05
0.000179917
1.79358e-05
0.00176777
4.2651e-08
3.61429e-05
0.00171605
5.41291e-05
0.00166383
7.16026e-05
0.00160065
8.83336e-05
0.00152277
0.000104114
0.00142992
0.000118759
0.00132234
0.000132096
0.00120094
0.000143974
0.00106689
0.000154255
0.000921527
0.000162822
0.000766338
0.000169577
0.000602967
0.000174443
0.000433223
0.000177353
0.00025875
7.94824e-05
0.000178274
1.77706e-05
0.00174997
4.26539e-08
3.58104e-05
0.00169801
5.36314e-05
0.00164602
7.09444e-05
0.00158334
8.75218e-05
0.0015062
0.000103158
0.00141429
0.000117668
0.00130783
0.000130884
0.00118774
0.000142653
0.00105513
0.00015284
0.00091135
0.00016133
0.00075786
0.000168024
0.000596287
0.000172847
0.000428418
0.000175732
0.000255883
7.86057e-05
0.000176645
1.76068e-05
0.00173231
4.26642e-08
3.54809e-05
0.00168013
5.31381e-05
0.00162835
7.02921e-05
0.00156618
8.67173e-05
0.00148977
0.00010221
0.00139879
0.000116588
0.00129345
0.000129682
0.00117463
0.000141344
0.00104346
0.000151439
0.000901247
0.000159852
0.000749438
0.000166486
0.000589641
0.000171265
0.000423624
0.000174125
0.000252997
7.7659e-05
0.000175032
1.74446e-05
0.00171483
4.26789e-08
3.51543e-05
0.00166243
5.26493e-05
0.00161086
6.96457e-05
0.00154919
8.59202e-05
0.0014735
0.000101271
0.00138345
0.000115517
0.00127921
0.000128492
0.00116167
0.000140048
0.00103192
0.000150051
0.000891255
0.000158388
0.000741115
0.000164962
0.000583081
0.000169699
0.000418905
0.000172534
0.000250182
7.67993e-05
0.000173433
1.72837e-05
0.0016975
4.26948e-08
3.48307e-05
0.00164488
5.21649e-05
0.00159353
6.90052e-05
0.00153234
8.51304e-05
0.00145737
0.000100341
0.00136823
0.000114456
0.00126509
0.000127313
0.0011488
0.000138764
0.00102046
0.000148676
0.000881334
0.000156938
0.000732844
0.000163452
0.000576554
0.000168147
0.000414196
0.000170957
0.000247346
7.5865e-05
0.00017185
1.71244e-05
0.00168034
4.27102e-08
3.451e-05
0.0016275
5.16848e-05
0.00157636
6.83705e-05
0.00151566
8.43478e-05
0.0014414
9.94189e-05
0.00135317
0.000113405
0.00125111
0.000126145
0.00113607
0.000137491
0.00100912
0.000147314
0.000871523
0.000155501
0.000724671
0.000161957
0.000570113
0.00016661
0.000409562
0.000169396
0.00024458
7.50209e-05
0.000170282
1.69665e-05
0.00166333
4.27226e-08
3.41922e-05
0.00161027
5.12092e-05
0.00155934
6.77416e-05
0.00149913
8.35724e-05
0.00142557
9.85056e-05
0.00133823
0.000112364
0.00123725
0.000124988
0.00112344
0.000136231
0.000997871
0.000145964
0.000861781
0.000154077
0.000716549
0.000160475
0.000563702
0.000165087
0.000404936
0.000167849
0.000241792
7.40986e-05
0.000168728
1.68101e-05
0.00164648
4.27314e-08
3.38773e-05
0.00159321
5.07379e-05
0.00154248
6.71186e-05
0.00148275
8.28042e-05
0.00140989
9.76007e-05
0.00132344
0.000111333
0.00122352
0.000123841
0.00111094
0.000134982
0.000986741
0.000144627
0.000852148
0.000152667
0.000708523
0.000159008
0.000557377
0.000163579
0.000400385
0.000166316
0.000239076
7.32709e-05
0.000167189
1.66551e-05
0.00162978
4.27345e-08
3.35653e-05
0.00157629
5.0271e-05
0.00152577
6.65013e-05
0.00146652
8.20432e-05
0.00139434
9.67043e-05
0.00130877
0.000110311
0.00120991
0.000122706
0.00109854
0.000133745
0.000975694
0.000143303
0.000842582
0.00015127
0.000700547
0.000157554
0.00055108
0.000162084
0.00039584
0.000164798
0.000236335
7.2361e-05
0.000165664
1.65015e-05
0.00161324
4.27324e-08
3.32562e-05
0.00155954
4.98083e-05
0.00150922
6.58897e-05
0.00145044
8.12892e-05
0.00137895
9.58163e-05
0.00129425
0.000109299
0.00119643
0.000121581
0.00108627
0.00013252
0.000964765
0.000141991
0.000833122
0.000149886
0.000692666
0.000156114
0.000544869
0.000160604
0.00039137
0.000163294
0.000233667
7.15484e-05
0.000164154
1.63494e-05
0.00159684
4.27233e-08
3.29499e-05
0.00154294
4.935e-05
0.00149282
6.52838e-05
0.0014345
8.05423e-05
0.00136368
9.49365e-05
0.00127985
0.000108296
0.00118307
0.000120466
0.00107409
0.000131306
0.000953918
0.000140692
0.000823728
0.000148516
0.000684832
0.000154687
0.000538684
0.000159138
0.000386905
0.000161805
0.000230972
7.06503e-05
0.000162658
1.61987e-05
0.00158061
4.27084e-08
3.26465e-05
0.00152649
4.88959e-05
0.00147658
6.46836e-05
0.00141872
7.98023e-05
0.00134857
9.4065e-05
0.0012656
0.000107303
0.00116984
0.000119362
0.00106204
0.000130104
0.000943187
0.000139404
0.00081444
0.000147158
0.000677093
0.000153274
0.000532584
0.000157685
0.000382516
0.000160329
0.000228352
6.98538e-05
0.000161175
1.60494e-05
0.00156451
4.26861e-08
3.23459e-05
0.00151019
4.84461e-05
0.00146047
6.4089e-05
0.00140307
7.90693e-05
0.00133359
9.32017e-05
0.00125146
0.000106319
0.00115671
0.000118268
0.00105009
0.000128913
0.000932535
0.000138129
0.000805215
0.000145813
0.0006694
0.000151874
0.00052651
0.000156246
0.000378128
0.000158867
0.000225703
6.8968e-05
0.000159707
1.59015e-05
0.00154857
4.26587e-08
3.20482e-05
0.00149405
4.80005e-05
0.00144452
6.34999e-05
0.00138758
7.83431e-05
0.00131875
9.23464e-05
0.00123746
0.000105344
0.00114372
0.000117185
0.00103825
0.000127733
0.000921998
0.000136866
0.000796094
0.00014448
0.0006618
0.000150488
0.000520519
0.000154821
0.000373817
0.000157419
0.00022313
6.81862e-05
0.000158252
1.5755e-05
0.00153277
4.26243e-08
3.17532e-05
0.00147805
4.7559e-05
0.00142871
6.29163e-05
0.00137222
7.76237e-05
0.00130404
9.14992e-05
0.00122358
0.000104378
0.00113084
0.000116112
0.00102651
0.000126564
0.000911539
0.000135614
0.000787035
0.00014316
0.000654245
0.000149114
0.000514552
0.000153409
0.000369507
0.000155985
0.000220525
6.73121e-05
0.000156812
1.56098e-05
0.00151713
4.25859e-08
3.14609e-05
0.0014622
4.71217e-05
0.00141306
6.23382e-05
0.00135701
7.69111e-05
0.00128947
9.06599e-05
0.00120984
0.000103422
0.00111809
0.000115049
0.0010149
0.000125406
0.000901193
0.000134375
0.000778079
0.000141853
0.000646782
0.000147753
0.000508669
0.00015201
0.000365273
0.000154564
0.000217998
6.65459e-05
0.000155384
1.5466e-05
0.00150161
4.25413e-08
3.11714e-05
0.00144649
4.66884e-05
0.00139754
6.17656e-05
0.00134193
7.62052e-05
0.00127503
8.98285e-05
0.00119621
0.000102474
0.00110543
0.000113995
0.00100337
0.000124259
0.000890922
0.000133147
0.000769182
0.000140558
0.000639361
0.000146406
0.000502808
0.000150625
0.000361038
0.000153156
0.000215437
6.56838e-05
0.00015397
1.53236e-05
0.00148625
4.24941e-08
3.08847e-05
0.00143094
4.62593e-05
0.00138217
6.11983e-05
0.00132699
7.55059e-05
0.00126073
8.9005e-05
0.00118272
0.000101536
0.00109291
0.000112952
0.000991961
0.000123123
0.000880762
0.000131931
0.000760387
0.000139275
0.000632033
0.00014507
0.00049703
0.000149252
0.000356879
0.000151762
0.000212955
6.4932e-05
0.00015257
1.51825e-05
0.00147102
4.24419e-08
3.06006e-05
0.00141551
4.58341e-05
0.00136693
6.06363e-05
0.00131219
7.48132e-05
0.00124654
8.81892e-05
0.00116934
0.000100606
0.00108049
0.000111919
0.000980641
0.000121998
0.000870676
0.000130726
0.00075165
0.000138004
0.000624744
0.000143748
0.000491273
0.000147893
0.000352718
0.000150381
0.000210437
6.40816e-05
0.000151182
1.50428e-05
0.00145594
4.23886e-08
3.03192e-05
0.00140024
4.5413e-05
0.00135184
6.00797e-05
0.00129753
7.4127e-05
0.0012325
8.7381e-05
0.00115609
9.9685e-05
0.00106819
0.000110895
0.00096944
0.000120883
0.0008607
0.000129533
0.000743014
0.000136746
0.000617547
0.000142438
0.000485599
0.000146546
0.000348634
0.000149013
0.000207999
6.3345e-05
0.000149808
1.49043e-05
0.00144099
4.23314e-08
3.00404e-05
0.0013851
4.49958e-05
0.00133688
5.95282e-05
0.00128299
7.34473e-05
0.00121858
8.65805e-05
0.00114295
9.87727e-05
0.00105599
0.000109881
0.000958325
0.000119779
0.000850795
0.00012835
0.000734434
0.000135499
0.000610389
0.00014114
0.000479944
0.000145213
0.000344545
0.000147658
0.000205525
6.25065e-05
0.000148447
1.47672e-05
0.00142619
4.2275e-08
2.97642e-05
0.00137011
4.45825e-05
0.00132207
5.8982e-05
0.0012686
7.27739e-05
0.0012048
8.57876e-05
0.00112995
9.78689e-05
0.00104392
0.000108877
0.000947326
0.000118685
0.000840999
0.000127179
0.000725952
0.000134264
0.000603321
0.000139855
0.000474371
0.000143891
0.000340534
0.000146316
0.00020313
6.17839e-05
0.000147098
1.46313e-05
0.00141151
4.22161e-08
2.94907e-05
0.00135525
4.41731e-05
0.00130738
5.84409e-05
0.00125432
7.21069e-05
0.00119112
8.50021e-05
0.00111705
9.69737e-05
0.00103194
0.000107882
0.000936411
0.000117602
0.000831272
0.000126019
0.000717526
0.00013304
0.00059629
0.000138582
0.000468816
0.000142582
0.000336517
0.000144986
0.000200696
6.0957e-05
0.000145762
1.44968e-05
0.00139698
4.21595e-08
2.92197e-05
0.00134053
4.37676e-05
0.00129284
5.79048e-05
0.00124019
7.14462e-05
0.00117759
8.4224e-05
0.00110428
9.6087e-05
0.00102009
0.000106897
0.000925611
0.000116528
0.000821652
0.00012487
0.000709197
0.000131828
0.000589349
0.000137321
0.000463342
0.000141286
0.000332577
0.000143669
0.000198344
6.02489e-05
0.000144439
1.43635e-05
0.00138257
4.21015e-08
2.89513e-05
0.00132594
4.33659e-05
0.00127842
5.73739e-05
0.00122618
7.07917e-05
0.00116417
8.34532e-05
0.00109161
9.52086e-05
0.00100833
0.00010592
0.000914893
0.000115465
0.0008121
0.000123732