/*--------------------------------*- C++ -*----------------------------------*\
  =========                 |
  \\      /  F ield         | OpenFOAM: The Open Source CFD Toolbox
   \\    /   O peration     | Website:  https://openfoam.org
    \\  /    A nd           | Version:  6.0
     \\/     M anipulation  |
\*---------------------------------------------------------------------------*/
FoamFile
{
    version     2.0;
    format      ascii;
    class       volVectorField;
    location    "17";
    object      U;
}
// * * * * * * * * * * * * * * * * * * * * * * * * * * * * * * * * * * * * * //

dimensions      [0 1 -1 0 0 0 0];

internalField   nonuniform List<vector> 
47000
(
(1 2.08473e-05 3.0736e-20)
(0.999989 6.21837e-05 5.97843e-20)
(0.999958 9.27402e-05 -4.50383e-19)
(0.999911 9.87785e-05 -8.51179e-19)
(0.999849 7.04661e-05 6.61112e-19)
(0.999776 5.44689e-06 -4.42521e-19)
(0.9997 -8.89185e-05 1.83077e-18)
(0.999627 -0.000199743 5.75347e-20)
(0.999563 -0.00031235 3.14661e-19)
(0.999509 -0.000415116 -2.49331e-18)
(0.999466 -0.00050345 1.62325e-18)
(0.999432 -0.000577681 5.51134e-19)
(0.999405 -0.000643656 8.24226e-19)
(0.999382 -0.000706226 1.01046e-18)
(0.999363 -0.00077201 -9.60837e-19)
(0.999348 -0.00084323 -4.83492e-19)
(0.999335 -0.000924356 -5.4837e-20)
(0.999324 -0.00101664 -6.12423e-19)
(0.999312 -0.00112587 -1.04024e-19)
(0.999302 -0.00125464 -1.72052e-19)
(0.999291 -0.00141063 -1.32014e-18)
(0.999283 -0.00159934 -5.43661e-19)
(0.999276 -0.00183143 -6.08493e-19)
(0.999274 -0.00211738 -8.50538e-20)
(0.999278 -0.00247778 4.61745e-19)
(0.999282 -0.00293688 -1.79867e-19)
(0.999328 -0.00357518 5.04907e-19)
(0.999194 -0.00444178 -3.56876e-19)
(0.999695 -0.00585029 8.53795e-20)
(0.994312 -0.00987439 -9.38737e-20)
(1.00001 0.000118022 -6.65651e-20)
(0.999974 0.000145156 -2.06871e-19)
(0.999895 0.000130763 -7.90867e-21)
(0.999785 5.25424e-05 1.09517e-18)
(0.999655 -9.38337e-05 -5.61122e-19)
(0.99952 -0.000291493 1.53465e-18)
(0.999395 -0.000509393 -1.21513e-18)
(0.999288 -0.000714825 3.66008e-19)
(0.999203 -0.00088463 -1.98005e-18)
(0.999138 -0.00100994 -1.58376e-19)
(0.999089 -0.00109778 -3.08823e-19)
(0.999052 -0.00116111 5.8034e-19)
(0.999024 -0.00121634 -1.25696e-18)
(0.999005 -0.00127281 9.75327e-20)
(0.998993 -0.00133818 3.557e-19)
(0.998989 -0.00141258 -1.54158e-19)
(0.99899 -0.00149893 7.69664e-19)
(0.998993 -0.00159774 -4.85593e-19)
(0.998997 -0.00171634 -1.11424e-18)
(0.999001 -0.00185878 1.42732e-18)
(0.999006 -0.00203422 5.5322e-19)
(0.999015 -0.00224744 1.54674e-19)
(0.999031 -0.00250678 4.33582e-19)
(0.999058 -0.00281517 4.25194e-19)
(0.999104 -0.00318112 -2.37504e-19)
(0.999149 -0.00360568 -2.13629e-20)
(0.999273 -0.00411942 -2.09316e-19)
(0.999253 -0.0047039 -3.8119e-19)
(0.998929 -0.00542718 3.80515e-19)
(0.999402 -0.00671579 1.50992e-19)
(1.00001 0.000177481 7.75114e-20)
(0.999964 0.000131906 1.86035e-20)
(0.999869 3.12267e-05 -2.74565e-20)
(0.999743 -0.000142079 -1.89129e-18)
(0.999601 -0.000378748 1.80251e-19)
(0.999462 -0.000645919 -1.33991e-18)
(0.999339 -0.00090145 1.21782e-18)
(0.99924 -0.00110934 -9.76149e-19)
(0.999165 -0.0012529 1.96831e-18)
(0.99911 -0.0013345 1.19188e-18)
(0.99907 -0.00137353 -4.66009e-19)
(0.999041 -0.00139132 -3.47273e-19)
(0.999025 -0.00140743 1.99529e-18)
(0.99902 -0.00143001 -5.76982e-19)
(0.999026 -0.00146256 3.67662e-19)
(0.999043 -0.00150156 2.1674e-19)
(0.999066 -0.00154609 -7.96186e-19)
(0.999093 -0.00159622 1.10548e-18)
(0.999118 -0.00165895 6.58999e-19)
(0.999143 -0.0017408 -9.18906e-21)
(0.999165 -0.00185197 1.22379e-18)
(0.999188 -0.00199975 1.16989e-18)
(0.999214 -0.00219327 8.67075e-19)
(0.999248 -0.0024372 2.54018e-19)
(0.999296 -0.00273891 -3.61238e-19)
(0.999334 -0.00310748 8.37799e-20)
(0.999421 -0.00356306 -5.45424e-19)
(0.999418 -0.00410362 4.95281e-19)
(0.999165 -0.00473537 -1.17265e-19)
(0.997813 -0.00617353 -2.05177e-19)
(0.999991 0.000191296 -1.08164e-19)
(0.999937 5.90013e-05 4.70277e-20)
(0.999834 -0.000125964 4.51397e-19)
(0.9997 -0.000374425 1.41551e-18)
(0.999551 -0.000666612 1.34414e-19)
(0.999406 -0.000963084 1.80347e-19)
(0.999277 -0.00122205 -1.36197e-18)
(0.999169 -0.00141318 -5.32847e-20)
(0.999083 -0.00153026 -1.03362e-18)
(0.999013 -0.00158571 -3.79789e-19)
(0.998959 -0.00160677 5.52383e-19)
(0.998916 -0.00161833 -3.09309e-19)
(0.998885 -0.00163974 -8.5848e-19)
(0.998869 -0.00167678 5.257e-19)
(0.998866 -0.00172935 2.15679e-20)
(0.998875 -0.00179129 1.22341e-18)
(0.998894 -0.00185909 -3.48646e-19)
(0.998918 -0.00193248 -5.9222e-19)
(0.998944 -0.00201827 -7.89849e-19)
(0.998972 -0.00212486 -2.05508e-18)
(0.998999 -0.00226388 -3.21113e-19)
(0.999029 -0.00244573 -1.05999e-18)
(0.999063 -0.00268237 -9.80085e-19)
(0.999104 -0.00298315 -7.66133e-19)
(0.999158 -0.00335815 1.06076e-18)
(0.999204 -0.00382529 -6.31538e-19)
(0.999277 -0.00440304 3.00577e-19)
(0.999294 -0.00507254 4.15015e-19)
(0.999124 -0.00574831 -3.83599e-19)
(0.998445 -0.00743683 1.1658e-19)
(0.999946 0.000178294 2.05136e-20)
(0.99989 -2.65803e-05 -5.6543e-20)
(0.999782 -0.000272758 -4.59617e-20)
(0.99964 -0.000567676 -2.85578e-20)
(0.999483 -0.00088611 -7.84222e-19)
(0.999328 -0.00118872 2.01191e-19)
(0.999186 -0.00143927 -4.41271e-19)
(0.999063 -0.001615 -6.89356e-19)
(0.99896 -0.00171821 1.37078e-18)
(0.998873 -0.00176711 -3.50556e-19)
(0.9988 -0.00179215 1.38497e-18)
(0.998739 -0.0018186 1.35589e-18)
(0.99869 -0.0018646 -1.13136e-18)
(0.998654 -0.00193443 -1.07789e-18)
(0.998632 -0.00202631 -1.59665e-18)
(0.998624 -0.00213316 -1.23057e-18)
(0.998626 -0.00224996 2.33796e-19)
(0.998639 -0.00237573 -4.69155e-19)
(0.998659 -0.00251562 2.16944e-18)
(0.998688 -0.0026772 3.99345e-19)
(0.998725 -0.0028702 -1.57987e-18)
(0.998771 -0.00310387 -5.24697e-19)
(0.99883 -0.0033879 2.78491e-19)
(0.998903 -0.0037296 3.99138e-19)
(0.998995 -0.00413342 -7.63488e-19)
(0.999089 -0.00461014 5.7128e-19)
(0.999205 -0.00516244 1.63163e-19)
(0.9993 -0.00572972 -8.08264e-19)
(0.999206 -0.0061679 1.82396e-19)
(0.999188 -0.00738359 3.21267e-20)
(0.999884 0.000154827 -2.19576e-20)
(0.999832 -9.94864e-05 8.63887e-20)
(0.999723 -0.000379785 -7.27099e-19)
(0.999583 -0.000694587 -3.07364e-19)
(0.999428 -0.00101686 5.02339e-19)
(0.999274 -0.00131056 1.46884e-18)
(0.999133 -0.00154596 1.54939e-18)
(0.99901 -0.00170621 1.04608e-19)
(0.998908 -0.00179808 1.71616e-19)
(0.998824 -0.00184108 1.28827e-18)
(0.998756 -0.00186492 -1.07808e-18)
(0.998699 -0.00189328 -1.61591e-18)
(0.998653 -0.00194313 4.57248e-19)
(0.998617 -0.00201884 1.77829e-18)
(0.998591 -0.00211947 3.44992e-18)
(0.998575 -0.00223938 -7.77801e-21)
(0.99857 -0.00237406 5.12233e-19)
(0.998575 -0.00252254 1.81471e-18)
(0.998591 -0.00268847 -1.83832e-18)
(0.99862 -0.00287756 1.2106e-18)
(0.998664 -0.00309648 1.51786e-18)
(0.998725 -0.00335156 8.74068e-19)
(0.998805 -0.00364882 6.55894e-19)
(0.998905 -0.00399236 -5.82025e-20)
(0.999028 -0.00438188 -2.16112e-19)
(0.99916 -0.00482326 7.02298e-19)
(0.999312 -0.00531602 3.0219e-19)
(0.999458 -0.00578815 4.16085e-19)
(0.999445 -0.00607039 1.74914e-19)
(0.999612 -0.00724475 -1.38121e-19)
(0.999815 0.00013091 3.22306e-20)
(0.999767 -0.000152214 1.50464e-19)
(0.999664 -0.000445168 3.78171e-19)
(0.999532 -0.000761811 3.65845e-19)
(0.999386 -0.00107579 1.20738e-18)
(0.999241 -0.00135573 -8.71356e-19)
(0.99911 -0.00157766 -1.15757e-18)
(0.998999 -0.00172817 7.27585e-19)
(0.998912 -0.00181467 -1.36869e-18)
(0.998847 -0.00185426 -4.85069e-19)
(0.998799 -0.00187315 -2.48824e-18)
(0.998764 -0.00189215 1.60248e-18)
(0.998739 -0.00192737 7.60397e-19)
(0.998718 -0.00198476 8.99274e-20)
(0.998702 -0.00206641 -1.96672e-18)
(0.99869 -0.00217055 3.12607e-19)
(0.998683 -0.00229542 -5.91979e-19)
(0.998683 -0.00244193 -2.18788e-18)
(0.998693 -0.00261368 -2.62225e-20)
(0.998718 -0.00281559 -1.8639e-18)
(0.998759 -0.00305224 -1.73942e-18)
(0.99882 -0.00332799 -7.30834e-19)
(0.998904 -0.00364653 -5.58091e-19)
(0.999012 -0.00401064 -5.83604e-19)
(0.999144 -0.00441864 -3.05887e-19)
(0.99929 -0.00487553 -1.64523e-18)
(0.999454 -0.00538544 5.45976e-20)
(0.999617 -0.00587496 4.93514e-19)
(0.999674 -0.00614735 4.40039e-20)
(1.00002 -0.00734843 1.32092e-19)
(0.999744 0.000111687 1.21319e-19)
(0.999699 -0.00018474 -2.97454e-19)
(0.999599 -0.00047665 -4.40365e-19)
(0.999472 -0.000786252 -2.88592e-19)
(0.999331 -0.00108982 -3.58768e-19)
(0.999189 -0.00136125 -4.5373e-19)
(0.99906 -0.00158135 8.40963e-19)
(0.998954 -0.00173805 -1.86958e-18)
(0.998874 -0.0018367 -7.55742e-19)
(0.998821 -0.00188952 1.44949e-18)
(0.99879 -0.00191736 2.07174e-18)
(0.998774 -0.00193728 -8.67137e-19)
(0.998767 -0.00196444 -2.23491e-18)
(0.998763 -0.00200689 -8.65707e-19)
(0.998759 -0.00207074 4.65878e-20)
(0.998755 -0.00215914 7.91749e-20)
(0.99875 -0.00227438 2.70084e-19)
(0.998749 -0.00242029 -3.68021e-19)
(0.998755 -0.00260145 1.57919e-18)
(0.998776 -0.00282272 1.24641e-18)
(0.998814 -0.00308715 1.11019e-18)
(0.998876 -0.00339732 2.97495e-19)
(0.998963 -0.00375455 -6.28901e-19)
(0.999078 -0.00415944 -3.12661e-19)
(0.99922 -0.00460756 6.66474e-19)
(0.999382 -0.00509914 1.07087e-18)
(0.99957 -0.00563693 -9.5897e-19)
(0.99976 -0.00613997 -7.68934e-19)
(0.999874 -0.00637874 8.23709e-20)
(1.00055 -0.00741792 -6.17768e-20)
(0.999676 0.000100214 2.75712e-21)
(0.999627 -0.000198565 1.14213e-19)
(0.999526 -0.000481779 5.22639e-19)
(0.999396 -0.000781333 -1.00685e-20)
(0.999247 -0.00107759 -5.35757e-19)
(0.999094 -0.00134988 -6.44698e-20)
(0.998952 -0.00158288 -6.56721e-19)
(0.998832 -0.00176447 9.9834e-19)
(0.998741 -0.00189639 1.27292e-19)
(0.998681 -0.0019847 -1.50694e-18)
(0.998649 -0.00204404 -2.31977e-18)
(0.998637 -0.00208699 -1.17313e-18)
(0.998638 -0.00212727 1.91278e-18)
(0.998644 -0.00217448 1.50048e-18)
(0.99865 -0.00223831 -1.02697e-18)
(0.998654 -0.00232636 -2.186e-18)
(0.998658 -0.00244463 3.01081e-19)
(0.998665 -0.00259958 1.64019e-18)
(0.998681 -0.00279661 -1.62606e-18)
(0.998713 -0.00304014 9.84777e-19)
(0.998765 -0.00333134 -8.91861e-19)
(0.998844 -0.00367015 -1.62157e-19)
(0.998954 -0.00405432 4.88848e-19)
(0.999096 -0.00448043 7.26082e-19)
(0.99927 -0.00493897 -1.25163e-19)
(0.999471 -0.00542236 -6.74773e-19)
(0.999707 -0.00592816 -1.07085e-19)
(0.999952 -0.00637213 3.3345e-20)
(1.0001 -0.00651131 -5.41266e-20)
(1.00115 -0.00731261 -2.23796e-20)
(0.999614 9.76836e-05 -2.65928e-20)
(0.999555 -0.000196205 6.75833e-20)
(0.999449 -0.000466889 -1.73145e-19)
(0.99931 -0.000755611 -7.947e-20)
(0.999146 -0.0010476 -5.70409e-19)
(0.998973 -0.0013273 -1.63136e-19)
(0.998805 -0.00158243 9.09452e-20)
(0.998659 -0.00180016 -7.17948e-19)
(0.998543 -0.00197812 -3.90223e-19)
(0.998462 -0.00211612 2.53793e-19)
(0.998415 -0.00222256 5.44643e-19)
(0.998394 -0.00230536 1.18092e-18)
(0.998393 -0.00237618 8.4149e-20)
(0.998402 -0.00244518 -3.00856e-18)
(0.998417 -0.00252433 -6.21075e-19)
(0.998435 -0.00262425 2.81744e-19)
(0.998457 -0.00275347 1.31251e-18)
(0.998486 -0.00291994 -4.72983e-19)
(0.998528 -0.00312917 9.42107e-19)
(0.99859 -0.00338452 1.15748e-18)
(0.998679 -0.00368488 6.31897e-19)
(0.998798 -0.00402724 -3.45841e-19)
(0.998951 -0.00440567 -7.06068e-19)
(0.999142 -0.00481283 5.63869e-19)
(0.999368 -0.00523522 -4.6781e-19)
(0.999623 -0.00566001 1.17874e-18)
(0.999918 -0.00608345 -7.7808e-20)
(1.00023 -0.00642931 9.79799e-20)
(1.0004 -0.00646736 -2.53572e-19)
(1.00171 -0.0071048 2.78913e-20)
(0.999556 0.000103696 -1.16577e-19)
(0.999486 -0.000181096 -4.90097e-20)
(0.999376 -0.000437852 -2.1107e-20)
(0.999229 -0.000715103 3.61849e-19)
(0.999052 -0.00100306 9.12563e-19)
(0.998861 -0.00129058 1.13495e-18)
(0.998671 -0.00156775 1.02559e-18)
(0.998499 -0.00182089 2.52963e-20)
(0.998357 -0.00204401 1.33676e-18)
(0.998252 -0.00223151 -3.51017e-19)
(0.998185 -0.00238635 -1.85369e-20)
(0.998152 -0.00251222 1.82663e-18)
(0.998145 -0.00261852 2.02348e-18)
(0.998156 -0.00271502 4.49044e-19)
(0.998182 -0.00281466 1.22449e-18)
(0.998218 -0.00292955 2.06913e-19)
(0.998265 -0.00306932 -7.07371e-19)
(0.998326 -0.0032424 1.13066e-18)
(0.998407 -0.00345371 3.72154e-19)
(0.998514 -0.00370544 -2.44418e-18)
(0.998651 -0.00399447 3.79589e-19)
(0.998823 -0.00431569 5.26641e-19)
(0.999031 -0.00466091 9.88103e-20)
(0.999278 -0.00502108 -8.52926e-19)
(0.999558 -0.0053821 3.65454e-19)
(0.999865 -0.0057311 -9.58439e-19)
(1.00021 -0.00606848 5.08884e-19)
(1.00057 -0.00633221 -1.65831e-19)
(1.00075 -0.00631807 -5.66205e-20)
(1.00218 -0.0069128 4.24881e-21)
(0.999502 0.000116238 8.24169e-20)
(0.999424 -0.000157737 -1.13072e-19)
(0.999315 -0.000400953 2.71018e-19)
(0.999169 -0.000665855 -2.35332e-19)
(0.99899 -0.000947269 -8.60116e-19)
(0.998793 -0.00123759 -4.49165e-19)
(0.998592 -0.00152883 -2.01011e-18)
(0.998406 -0.00180675 1.09959e-18)
(0.998249 -0.00206285 -1.87664e-19)
(0.998128 -0.00228763 1.3294e-19)
(0.998047 -0.00248007 3.35253e-19)
(0.998004 -0.00264061 -2.43544e-18)
(0.997993 -0.00277659 -1.71498e-18)
(0.998008 -0.00289694 1.89848e-18)
(0.998045 -0.00301456 2.68554e-19)
(0.998102 -0.00314181 7.09315e-19)
(0.998177 -0.00328841 -1.32215e-18)
(0.998274 -0.00346246 -9.53583e-19)
(0.998397 -0.00366814 6.14289e-19)
(0.99855 -0.00390664 7.86095e-19)
(0.998737 -0.00417377 -9.20865e-19)
(0.99896 -0.00446361 -4.59e-19)
(0.999219 -0.00476772 6.65543e-19)
(0.999514 -0.00507782 3.0198e-19)
(0.999838 -0.00538219 3.69767e-19)
(1.00018 -0.00567145 1.76948e-19)
(1.00056 -0.00595241 1.45065e-19)
(1.00095 -0.00617589 4.12583e-19)
(1.00112 -0.00616389 -6.97718e-20)
(1.00255 -0.00681321 -2.35845e-20)
(0.99945 0.000132586 -2.48936e-20)
(0.999369 -0.000130734 3.61208e-19)
(0.999269 -0.000362157 2.36944e-19)
(0.999136 -0.000614021 -2.42943e-20)
(0.998969 -0.000885137 -4.50516e-20)
(0.998783 -0.00117066 5.95856e-19)
(0.99859 -0.00146421 8.2069e-19)
(0.998408 -0.00175165 -7.16637e-19)
(0.998251 -0.00202333 -8.48342e-19)
(0.998127 -0.00226763 -2.88372e-19)
(0.998042 -0.00248132 -1.19625e-19)
(0.997995 -0.00266283 1.48997e-18)
(0.997985 -0.00281806 -2.53366e-18)
(0.998005 -0.00295495 -4.12086e-19)
(0.998054 -0.00308582 -3.37283e-19)
(0.998129 -0.00322248 5.32757e-19)
(0.998229 -0.00337405 1.24594e-18)
(0.998358 -0.00354788 1.8443e-18)
(0.998517 -0.00374736 -2.28098e-18)
(0.99871 -0.00397309 1.45627e-19)
(0.998938 -0.00422061 1.03288e-18)
(0.999202 -0.00448438 6.893e-19)
(0.999498 -0.00475705 4.04413e-21)
(0.999826 -0.00503255 2.14107e-19)
(1.00018 -0.00530268 5.35427e-19)
(1.00054 -0.00556231 3.70999e-19)
(1.00093 -0.00582363 5.68112e-19)
(1.00133 -0.00604533 -5.33644e-20)
(1.0015 -0.00607001 1.33609e-19)
(1.00286 -0.00682578 1.93314e-20)
(0.999397 0.000149869 -4.03623e-20)
(0.999321 -0.000104483 -2.04181e-19)
(0.999239 -0.000326762 -3.49566e-19)
(0.999128 -0.000565644 3.4315e-20)
(0.998988 -0.000823167 5.53981e-19)
(0.998828 -0.0010966 1.78717e-19)
(0.998659 -0.0013811 -3.50454e-20)
(0.998497 -0.00166332 3.7476e-19)
(0.998354 -0.00193389 6.32326e-19)
(0.99824 -0.00218078 3.73372e-19)
(0.998161 -0.00240019 3.80662e-19)
(0.998118 -0.00258982 -8.86124e-20)
(0.998112 -0.00275477 8.57376e-19)
(0.998138 -0.00290217 3.36443e-19)
(0.998197 -0.0030434 7.61022e-19)
(0.998286 -0.00318931 -4.4642e-19)
(0.998406 -0.00334794 -4.65366e-20)
(0.998559 -0.00352562 -8.95779e-19)
(0.998745 -0.00372498 -3.36388e-19)
(0.998966 -0.00394624 -1.78298e-20)
(0.999222 -0.00418513 2.19295e-19)
(0.999512 -0.00443697 -5.52996e-19)
(0.999831 -0.00469601 -1.84726e-19)
(1.00018 -0.00495849 -2.21854e-19)
(1.00054 -0.00521932 -4.96608e-19)
(1.0009 -0.00547653 -1.89803e-19)
(1.00129 -0.00574545 -7.87488e-19)
(1.0017 -0.00598795 -2.54978e-19)
(1.00186 -0.00606101 -1.69054e-20)
(1.00312 -0.00693703 1.54967e-20)
(0.999343 0.000165783 -3.10149e-20)
(0.999278 -8.21938e-05 -1.70264e-19)
(0.999219 -0.000298449 -2.52276e-20)
(0.999138 -0.000525408 -4.04059e-19)
(0.999033 -0.00076757 3.17531e-20)
(0.998909 -0.00102392 -1.27546e-19)
(0.998776 -0.00129118 1.62803e-19)
(0.998645 -0.00155744 3.10414e-19)
(0.998528 -0.00181473 -5.27154e-19)
(0.998433 -0.00205204 2.50755e-19)
(0.998367 -0.00226633 4.64962e-19)
(0.998333 -0.00245553 -4.34927e-19)
(0.998333 -0.00262459 1.2514e-18)
(0.998366 -0.00277991 -1.30639e-19)
(0.998432 -0.00293187 -1.39877e-18)
(0.998532 -0.00308999 -7.94114e-19)
(0.998665 -0.00326094 -3.76424e-19)
(0.998833 -0.00344982 -4.23395e-19)
(0.999036 -0.00365838 9.65941e-19)
(0.999275 -0.0038865 -4.62073e-20)
(0.999548 -0.00413009 -9.12538e-19)
(0.999852 -0.00438528 7.02961e-19)
(1.00018 -0.00464765 6.00027e-19)
(1.00053 -0.00491513 2.35602e-19)
(1.00089 -0.00518461 -2.32334e-19)
(1.00126 -0.00545577 -3.03085e-20)
(1.00164 -0.00574517 5.59644e-19)
(1.00204 -0.00601502 2.96407e-19)
(1.00219 -0.00613153 -1.27985e-20)
(1.00336 -0.00711687 -1.29895e-20)
(0.999285 0.000178495 4.02818e-20)
(0.999237 -6.60463e-05 2.9459e-19)
(0.999203 -0.000279427 -1.73554e-19)
(0.999156 -0.000496498 3.31427e-19)
(0.999088 -0.000723475 -1.20317e-19)
(0.999006 -0.000960831 -9.93809e-19)
(0.998913 -0.00120693 1.5979e-19)
(0.998818 -0.0014518 -8.61067e-19)
(0.998732 -0.00168966 -2.41812e-19)
(0.998661 -0.00191147 -4.89241e-19)
(0.998612 -0.00211576 -1.10784e-18)
(0.99859 -0.0023014 -2.91929e-19)
(0.998598 -0.00247347 1.49885e-19)
(0.998637 -0.00263776 -2.68118e-19)
(0.998709 -0.0028035 1.95101e-18)
(0.998816 -0.00297867 2.475e-19)
(0.998957 -0.00316837 1.81826e-19)
(0.999135 -0.00337623 3.6167e-19)
(0.999348 -0.00360298 -1.46831e-19)
(0.999597 -0.00384797 6.16545e-19)
(0.999879 -0.00410708 2.97951e-19)
(1.00019 -0.00437688 1.99473e-19)
(1.00052 -0.0046537 -5.81485e-19)
(1.00087 -0.00493641 8.63739e-20)
(1.00123 -0.00522274 8.25473e-20)
(1.00159 -0.00551288 -2.94313e-19)
(1.00196 -0.00582363 -1.33979e-19)
(1.00235 -0.00611641 -6.90336e-20)
(1.00251 -0.00626299 3.10782e-20)
(1.00358 -0.00733538 -6.90687e-23)
(0.999225 0.000187007 -5.43921e-20)
(0.999197 -5.68515e-05 -1.01441e-19)
(0.999187 -0.00027023 4.31346e-19)
(0.999171 -0.00048015 -4.65436e-19)
(0.99914 -0.000693891 -1.67614e-19)
(0.999097 -0.000913329 4.49316e-19)
(0.999042 -0.00113853 -4.96611e-19)
(0.998984 -0.00136171 7.3294e-19)
(0.998929 -0.00157967 8.9813e-19)
(0.998883 -0.00178578 9.92133e-20)
(0.998853 -0.00198057 6.83356e-19)
(0.998845 -0.00216407 -4.81098e-19)
(0.998862 -0.00234162 -7.0036e-19)
(0.998908 -0.00251836 -2.36448e-19)
(0.998986 -0.00270224 -2.47886e-19)
(0.999098 -0.00289953 8.07215e-19)
(0.999246 -0.00311359 -3.13774e-19)
(0.99943 -0.00334645 -7.2471e-19)
(0.999651 -0.00359762 1.21835e-19)
(0.999907 -0.00386572 -9.10719e-19)
(1.00019 -0.0041463 2.07179e-20)
(1.00051 -0.004436 -7.62157e-19)
(1.00084 -0.00473139 5.51756e-19)
(1.00119 -0.0050316 -2.86083e-19)
(1.00155 -0.00533455 -7.16006e-20)
(1.0019 -0.00564039 1.36438e-19)
(1.00226 -0.00596594 -4.46935e-20)
(1.00265 -0.0062718 -1.45086e-19)
(1.0028 -0.0064326 6.31712e-21)
(1.0038 -0.00756657 1.42444e-21)
(0.999163 0.000190956 4.21364e-20)
(0.999155 -5.47065e-05 -1.26983e-19)
(0.999166 -0.000270432 -7.07481e-21)
(0.999176 -0.00047634 7.395e-19)
(0.999177 -0.000680143 4.48769e-19)
(0.999167 -0.000885047 -5.96686e-20)
(0.999147 -0.00109286 1.10371e-18)
(0.999121 -0.00129803 -3.52162e-19)
(0.999094 -0.00149996 -6.65432e-19)
(0.999071 -0.00169451 -2.08703e-19)
(0.99906 -0.00188415 -3.34136e-19)
(0.999065 -0.00207004 -3.23377e-19)
(0.999093 -0.00225764 4.2108e-19)
(0.999148 -0.00245133 7.20243e-19)
(0.999233 -0.00265763 -1.27683e-19)
(0.999352 -0.00288103 6.49098e-20)
(0.999507 -0.00312305 -1.72227e-19)
(0.999699 -0.003384 3.80112e-19)
(0.999926 -0.00366213 -3.28543e-19)
(1.00019 -0.00395515 4.31562e-19)
(1.00048 -0.00425813 -1.05435e-19)
(1.0008 -0.00456747 -1.09913e-20)
(1.00113 -0.00487966 -1.83611e-19)
(1.00148 -0.00519381 1.98283e-19)
(1.00184 -0.00550776 1.44441e-19)
(1.00219 -0.00582157 1.11765e-19)
(1.00254 -0.0061523 -4.32203e-20)
(1.00292 -0.00646011 7.98548e-20)
(1.00307 -0.00662063 1.14504e-20)
(1.00401 -0.00779307 1.30945e-21)
(0.9991 0.000190664 -3.67204e-20)
(0.99911 -5.88533e-05 -9.09588e-20)
(0.999138 -0.000278787 -1.2994e-19)
(0.999168 -0.000483927 -3.91158e-19)
(0.999192 -0.000681905 -3.18159e-20)
(0.999209 -0.000877203 3.73998e-19)
(0.999216 -0.00107329 -7.53964e-19)
(0.999216 -0.00126672 1.91902e-19)
(0.999213 -0.00145921 4.29047e-19)
(0.999211 -0.00164884 3.50731e-19)
(0.999217 -0.00183977 3.09735e-19)
(0.999237 -0.00203397 5.97687e-20)
(0.999277 -0.00223682 4.02878e-20)
(0.999342 -0.0024517 -6.03165e-19)
(0.999437 -0.00268367 6.07844e-19)
(0.999566 -0.00293534 -2.50443e-19)
(0.999731 -0.00320642 -2.25712e-20)
(0.999932 -0.00349555 -2.04604e-19)
(1.00017 -0.00379968 2.40984e-19)
(1.00044 -0.00411565 -2.53796e-19)
(1.00074 -0.00443795 -2.27154e-19)
(1.00106 -0.00476266 1.86956e-19)
(1.0014 -0.00508615 -4.56364e-19)
(1.00175 -0.00540742 -2.73033e-19)
(1.00211 -0.0057243 1.08458e-19)
(1.00245 -0.00603697 -1.89584e-19)
(1.00281 -0.00636312 -5.02428e-20)
(1.00317 -0.0066629 1.48441e-20)
(1.00332 -0.00681154 -5.46756e-21)
(1.00422 -0.00800325 -5.74067e-21)
(0.999036 0.000186721 1.24621e-20)
(0.99906 -6.83606e-05 1.89735e-19)
(0.9991 -0.000293955 -3.3673e-19)
(0.999144 -0.000501499 3.34776e-19)
(0.999184 -0.000698127 -1.00316e-19)
(0.99922 -0.000889451 -7.61257e-19)
(0.999246 -0.00108051 2.2542e-19)
(0.999266 -0.00126963 -1.32233e-19)
(0.999282 -0.00146045 -1.51005e-19)
(0.999298 -0.00165281 -1.46151e-19)
(0.999321 -0.00185206 1.30061e-19)
(0.999356 -0.00206062 5.61222e-19)
(0.99941 -0.00228343 -3.08512e-19)
(0.999489 -0.00252276 3.38135e-19)
(0.999597 -0.00278209 -5.63366e-19)
(0.99974 -0.00306226 -1.91471e-19)
(0.999918 -0.00336122 2.8261e-19)
(1.00013 -0.00367607 2.31278e-19)
(1.00038 -0.00400264 -1.5017e-19)
(1.00066 -0.00433694 6.34702e-19)
(1.00097 -0.00467303 6.04861e-19)
(1.0013 -0.0050067 -2.62575e-19)
(1.00165 -0.00533427 3.57875e-19)
(1.002 -0.00565483 1.42636e-19)
(1.00236 -0.00596638 -2.25891e-19)
(1.00271 -0.0062695 1.40227e-19)
(1.00306 -0.00658284 2.27384e-19)
(1.00341 -0.00686685 3.32757e-20)
(1.00355 -0.00699537 -1.37347e-20)
(1.00441 -0.00819213 3.12795e-21)
(0.998974 0.00017993 9.81967e-20)
(0.999007 -8.19973e-05 2.5364e-20)
(0.999054 -0.000314528 2.45952e-19)
(0.999105 -0.000527469 -3.09178e-19)
(0.999155 -0.000727222 1.69755e-19)
(0.999202 -0.000920353 -9.16513e-20)
(0.999242 -0.00111325 3.44947e-19)
(0.999276 -0.00130566 -1.06154e-19)
(0.999307 -0.00150259 -1.27436e-19)
(0.999339 -0.00170508 -1.58228e-19)
(0.999377 -0.00191918 -4.66439e-19)
(0.999428 -0.00214728 1.41805e-19)
(0.999498 -0.00239363 6.78953e-20)
(0.999593 -0.00265924 1.31708e-19)
(0.999719 -0.00294605 -4.53233e-20)
(0.999878 -0.00325318 1.96576e-19)
(1.00007 -0.00357707 -4.03267e-19)
(1.0003 -0.00391349 -4.26711e-19)
(1.00057 -0.00425732 4.70879e-21)
(1.00086 -0.004604 -3.95356e-19)
(1.00119 -0.00494726 -7.32499e-21)
(1.00153 -0.00528285 2.59095e-19)
(1.00188 -0.00560721 -1.69542e-19)
(1.00224 -0.00591969 2.13646e-20)
(1.0026 -0.00621872 1.02002e-19)
(1.00295 -0.00650557 -4.90783e-20)
(1.00329 -0.00679999 -2.22609e-19)
(1.00364 -0.00706288 -7.98344e-20)
(1.00377 -0.00716597 9.2981e-21)
(1.0046 -0.00835745 1.09634e-21)
(0.998912 0.000171085 -6.94251e-20)
(0.998949 -9.88072e-05 6.96642e-20)
(0.998999 -0.000339494 -9.02127e-20)
(0.999053 -0.000560622 1.92889e-19)
(0.999108 -0.000767754 -2.24952e-19)
(0.999161 -0.000968129 -1.19476e-19)
(0.999208 -0.00116927 -4.71258e-19)
(0.999253 -0.00137195 4.75102e-19)
(0.999296 -0.00158196 6.02643e-19)
(0.999342 -0.00180102 1.33429e-19)
(0.999395 -0.00203531 1.01117e-19)
(0.999463 -0.00228685 -5.92026e-20)
(0.999552 -0.00255893 4.97832e-20)
(0.999666 -0.00285125 -2.73401e-20)
(0.999811 -0.00316424 2.98133e-19)
(0.99999 -0.00349555 1.17433e-19)
(1.00021 -0.0038403 1.4297e-19)
(1.00046 -0.00419321 3.00172e-20)
(1.00074 -0.0045485 3.07496e-19)
(1.00105 -0.00490125 1.91103e-19)
(1.00138 -0.00524516 -2.8017e-19)
(1.00174 -0.00557608 -1.82583e-19)
(1.0021 -0.0058908 1.2636e-19)
(1.00247 -0.00618916 3.25963e-20)
(1.00283 -0.00647021 2.3383e-20)
(1.00317 -0.00673604 -1.49628e-20)
(1.00351 -0.0070076 1.2164e-19)
(1.00385 -0.00724618 3.8792e-20)
(1.00397 -0.00732092 -4.23161e-20)
(1.00478 -0.00850056 -7.97641e-22)
(0.998852 0.000160925 3.10243e-20)
(0.998888 -0.000117844 2.39614e-20)
(0.998938 -0.000368056 1.99653e-19)
(0.998992 -0.000599956 -9.25188e-20)
(0.999047 -0.000818354 -3.30765e-19)
(0.999101 -0.00103087 3.65766e-20)
(0.999154 -0.00124586 -4.63607e-19)
(0.999206 -0.00146475 9.78471e-20)
(0.999259 -0.0016936 -4.34419e-19)
(0.999318 -0.00193425 -1.22638e-19)
(0.999387 -0.00219263 -7.28432e-20)
(0.999473 -0.00247 1.07687e-19)
(0.999581 -0.0027686 -8.59697e-20)
(0.999716 -0.00308678 8.96947e-21)
(0.999884 -0.00342362 -8.03458e-20)
(1.00009 -0.00377548 -2.67567e-19)
(1.00032 -0.00413649 -2.54349e-20)
(1.00059 -0.00450058 1.86312e-19)
(1.00089 -0.00486161 -2.16991e-19)
(1.00122 -0.00521456 1.45577e-19)
(1.00157 -0.00555329 -3.52902e-19)
(1.00194 -0.00587401 2.04242e-19)
(1.00231 -0.00617401 -2.59775e-19)
(1.00268 -0.00645379 8.61971e-20)
(1.00304 -0.00671313 -5.76912e-20)
(1.00339 -0.00695502 3.11372e-21)
(1.00372 -0.00720156 -6.08939e-20)
(1.00404 -0.00741429 -3.8627e-20)
(1.00416 -0.00745942 2.01573e-20)
(1.00495 -0.0086229 -1.69755e-21)
(0.998792 0.000150009 -7.94605e-20)
(0.998823 -0.000138564 -2.7251e-19)
(0.998872 -0.000399846 -2.06435e-19)
(0.998922 -0.000644934 8.33684e-20)
(0.998975 -0.000878067 9.44476e-20)
(0.99903 -0.00110688 4.72162e-19)
(0.999085 -0.00134035 7.08338e-19)
(0.999143 -0.00158014 -7.38668e-19)
(0.999206 -0.00183216 1.00403e-19)
(0.999277 -0.00209795 -6.56757e-20)
(0.999362 -0.00238281 5.35206e-19)
(0.999467 -0.00268706 -1.87366e-19)
(0.999596 -0.00301177 -5.46166e-20)
(0.999754 -0.003354 2.69058e-20)
(0.999945 -0.00371167 -3.46454e-19)
(1.00017 -0.00408011 1.07886e-19)
(1.00043 -0.00445271 7.04805e-20)
(1.00072 -0.00482295 4.24492e-20)
(1.00104 -0.00518455 7.07975e-20)
(1.00139 -0.00553265 -8.95085e-20)
(1.00175 -0.00586148 1.06023e-19)
(1.00213 -0.00616775 -1.52923e-19)
(1.00251 -0.0064494 2.19225e-19)
(1.00288 -0.0067077 1.77287e-19)
(1.00325 -0.0069432 2.12926e-19)
(1.00359 -0.00715979 -6.86679e-21)
(1.00392 -0.00738054 2.61161e-20)
(1.00423 -0.00756709 1.14703e-20)
(1.00434 -0.00758256 -1.99363e-21)
(1.0051 -0.00872775 1.88351e-21)
(0.998732 0.000138717 6.74248e-20)
(0.998755 -0.000160493 1.67536e-19)
(0.998801 -0.000434644 -2.02142e-20)
(0.998847 -0.000695163 4.96198e-20)
(0.998897 -0.00094604 -1.62418e-20)
(0.998951 -0.00119461 -3.00324e-19)
(0.999008 -0.00145015 -1.64675e-20)
(0.999071 -0.00171431 2.82481e-19)
(0.999144 -0.00199245 3.3253e-19)
(0.999228 -0.0022855 5.51683e-19)
(0.99933 -0.00259787 1.58371e-19)
(0.999454 -0.00292882 1.55158e-19)
(0.999605 -0.00327825 -1.34329e-19)
(0.999786 -0.00364206 -2.05285e-19)
(1 -0.00401719 5.01888e-19)
(1.00025 -0.0043982 2.38493e-19)
(1.00053 -0.00477802 -4.26458e-19)
(1.00085 -0.0051499 -2.33905e-19)
(1.00119 -0.00550771 -4.07216e-19)
(1.00155 -0.00584692 -1.7465e-19)
(1.00192 -0.00616229 1.94377e-19)
(1.00231 -0.00645116 3.03917e-19)
(1.00269 -0.00671217 -3.92429e-19)
(1.00307 -0.0069474 -7.69652e-20)
(1.00344 -0.00715817 -1.68281e-19)
(1.00378 -0.00734917 4.44545e-20)
(1.0041 -0.00754433 -5.41743e-20)
(1.0044 -0.00770515 -2.20549e-20)
(1.0045 -0.00769155 2.53373e-21)
(1.00524 -0.00881726 3.09301e-21)
(0.99867 0.000127292 1.04217e-20)
(0.998684 -0.000183523 1.14993e-19)
(0.998727 -0.000472486 1.37508e-19)
(0.998769 -0.000750527 -2.1685e-19)
(0.998815 -0.00102171 1.21493e-19)
(0.998868 -0.00129274 1.6351e-19)
(0.998928 -0.00157297 -2.26363e-19)
(0.998997 -0.00186378 2.03851e-19)
(0.999079 -0.00216976 2.20163e-20)
(0.999177 -0.00249094 -5.91361e-19)
(0.999296 -0.00283075 -2.20972e-19)
(0.99944 -0.00318731 -2.30958e-19)
(0.999613 -0.00355942 3.36388e-20)
(0.999817 -0.00394196 1.54497e-19)
(1.00006 -0.00433111 -2.74157e-19)
(1.00033 -0.00472091 -1.18804e-19)
(1.00063 -0.00510405 3.73354e-19)
(1.00097 -0.00547381 3.64905e-19)
(1.00132 -0.00582436 6.7526e-20)
(1.0017 -0.00615168 2.70369e-19)
(1.00209 -0.00645114 -1.39401e-19)
(1.00248 -0.00672078 1.21043e-20)
(1.00287 -0.00695999 5.40146e-19)
(1.00325 -0.00717163 -1.69842e-19)
(1.00362 -0.00735772 -2.49884e-20)
(1.00395 -0.00752367 -4.86849e-20)
(1.00427 -0.00769406 7.51736e-21)
(1.00455 -0.0078301 7.03405e-20)
(1.00464 -0.00778852 -3.8881e-21)
(1.00537 -0.00889474 -6.57144e-21)
(0.998605 0.000115836 -1.84964e-20)
(0.99861 -0.00020754 -1.70139e-19)
(0.998649 -0.000513375 -1.06513e-23)
(0.998687 -0.000810839 -7.66192e-20)
(0.998731 -0.00110444 -7.84068e-20)
(0.998784 -0.00139998 -2.0576e-19)
(0.998847 -0.00170665 -2.9019e-20)
(0.998923 -0.00202539 -2.93197e-19)
(0.999015 -0.00235986 -4.72792e-19)
(0.999127 -0.00270905 3.22022e-19)
(0.999263 -0.00307532 -5.70854e-19)
(0.999427 -0.00345571 7.02416e-20)
(0.999622 -0.00384803 5.22756e-20)
(0.999849 -0.00424631 1.13609e-19)
(1.00011 -0.00464617 -8.80462e-20)
(1.0004 -0.00504134 -3.45388e-20)
(1.00073 -0.0054245 3.64123e-20)
(1.00108 -0.00578912 -3.619e-19)
(1.00145 -0.00612982 2.38105e-19)
(1.00184 -0.00644316 -4.34461e-20)
(1.00224 -0.00672522 9.90185e-20)
(1.00264 -0.00697474 2.08468e-19)
(1.00304 -0.00719184 -3.26726e-19)
(1.00342 -0.0073801 2.40389e-20)
(1.00378 -0.0075422 5.17286e-20)
(1.00411 -0.00768409 -3.12151e-20)
(1.00442 -0.00783089 1.116e-19)
(1.00469 -0.00794335 -8.95044e-21)
(1.00478 -0.007875 5.17575e-21)
(1.00549 -0.00896192 4.49183e-21)
(0.998535 0.000104409 -4.30658e-20)
(0.998532 -0.000232663 1.7434e-21)
(0.998568 -0.000557387 8.22952e-20)
(0.998603 -0.000875986 -4.20113e-20)
(0.998646 -0.00119369 -1.33606e-20)
(0.9987 -0.00151515 -1.28149e-19)
(0.998767 -0.00184924 1.57567e-19)
(0.998851 -0.00219634 1.62018e-19)
(0.998954 -0.00255909 -1.62752e-19)
(0.99908 -0.00293538 1.06303e-19)
(0.999234 -0.00332654 7.57565e-19)
(0.999417 -0.00372859 1.57376e-19)
(0.999633 -0.00413847 -3.23305e-19)
(0.999882 -0.00454956 -9.66472e-20)
(1.00016 -0.0049571 1.76227e-19)
(1.00048 -0.00535469 5.60654e-20)
(1.00082 -0.00573518 1.6154e-19)
(1.00119 -0.00609237 2.22442e-19)
(1.00158 -0.00642141 1.64276e-19)
(1.00198 -0.00671952 -1.86854e-19)
(1.00239 -0.00698348 -1.93657e-19)
(1.00279 -0.00721271 -2.96943e-19)
(1.00319 -0.00740803 3.06539e-20)
(1.00357 -0.00757368 1.14547e-19)
(1.00393 -0.00771287 1.00373e-19)
(1.00425 -0.00783202 1.38281e-20)