/*--------------------------------*- C++ -*----------------------------------*\
  =========                 |
  \\      /  F ield         | OpenFOAM: The Open Source CFD Toolbox
   \\    /   O peration     | Website:  https://openfoam.org
    \\  /    A nd           | Version:  6.0
     \\/     M anipulation  |
\*---------------------------------------------------------------------------*/
FoamFile
{
    version     2.0;
    format      ascii;
    class       volVectorField;
    location    "17";
    object      U;
}
// * * * * * * * * * * * * * * * * * * * * * * * * * * * * * * * * * * * * * //

dimensions      [0 1 -1 0 0 0 0];

internalField   nonuniform List<vector> 
34500
(
(0.999995 9.04147e-06 2.61671e-17)
(0.999947 -2.6257e-05 5.62255e-17)
(0.999871 -0.000112996 1.90523e-16)
(0.999795 -0.000200677 1.72757e-16)
(0.999727 -0.000264768 -9.81086e-17)
(0.999659 -0.000327312 2.74392e-16)
(0.999596 -0.000428797 -2.06781e-16)
(0.99957 -0.000540319 -7.42991e-16)
(0.999558 -0.000661414 1.8784e-16)
(0.999575 -0.000780088 -5.26532e-17)
(0.999595 -0.000926645 -2.71931e-16)
(0.999629 -0.00113418 -6.4258e-16)
(0.999666 -0.00137201 -2.93071e-16)
(0.999995 -0.00194253 -2.46638e-16)
(0.995393 -0.00515149 5.28141e-17)
(0.999987 -1.67074e-05 -3.42862e-17)
(0.999903 -0.000172804 3.84369e-17)
(0.99979 -0.000339428 -1.32797e-17)
(0.999689 -0.000423354 -8.75934e-17)
(0.999586 -0.000465133 -1.41475e-16)
(0.999465 -0.000553233 1.9979e-16)
(0.999366 -0.000745061 -2.34339e-16)
(0.999352 -0.000932556 8.6865e-16)
(0.99936 -0.00109101 -4.6548e-16)
(0.999407 -0.00123145 -3.71825e-16)
(0.999447 -0.00141492 -5.15493e-16)
(0.999518 -0.00171744 4.28771e-16)
(0.999467 -0.00205212 4.23606e-16)
(1.00008 -0.00289941 -1.39141e-16)
(0.997161 -0.0057145 -1.63602e-16)
(0.999967 -6.5141e-05 2.42845e-17)
(0.999889 -0.000324926 -6.11322e-17)
(0.999804 -0.000501986 -2.46424e-16)
(0.999743 -0.000510602 -1.94439e-16)
(0.999674 -0.000479698 4.19666e-16)
(0.999569 -0.000547676 -6.89188e-17)
(0.999498 -0.000752688 4.92602e-16)
(0.999519 -0.000933163 -3.67616e-16)
(0.999568 -0.00102079 7.65252e-16)
(0.999652 -0.00105603 5.24429e-16)
(0.999706 -0.00111407 5.69539e-16)
(0.999802 -0.00129574 9.46213e-17)
(0.999612 -0.00153677 -3.97744e-16)
(1.0001 -0.00225141 -7.19978e-17)
(0.998605 -0.00400918 3.61525e-16)
(0.999933 -0.000116409 -1.34449e-17)
(0.999861 -0.000446129 5.67395e-17)
(0.999796 -0.000609125 8.71151e-17)
(0.999764 -0.000554656 -5.43972e-17)
(0.999723 -0.00048406 -3.57005e-16)
(0.999628 -0.000564705 -3.17662e-16)
(0.999564 -0.000812431 -3.44129e-16)
(0.999581 -0.00103519 -9.65166e-18)
(0.999637 -0.00112608 -2.46893e-16)
(0.999732 -0.00114212 -1.08712e-15)
(0.999797 -0.00116423 7.10974e-18)
(0.999922 -0.00130388 7.69894e-17)
(0.999677 -0.00155115 3.07895e-16)
(0.999933 -0.00223674 -2.56566e-16)
(0.998711 -0.00418544 7.29629e-17)
(0.999889 -0.000155973 -3.26401e-17)
(0.999816 -0.00052073 5.74611e-18)
(0.999757 -0.000664521 -7.17905e-17)
(0.999741 -0.000577854 9.60128e-17)
(0.999724 -0.000504124 -2.77479e-16)
(0.999639 -0.000616356 3.29324e-16)
(0.999567 -0.000918386 2.50644e-16)
(0.999554 -0.00121171 -2.26792e-16)
(0.999582 -0.00136839 -2.62434e-16)
(0.999662 -0.00145057 6.75888e-16)
(0.999727 -0.00153025 -6.79433e-16)
(0.999884 -0.00170809 -1.94386e-16)
(0.999679 -0.00200088 2.90949e-16)
(0.999763 -0.00266828 1.24046e-16)
(0.998845 -0.0046501 -7.72079e-16)
(0.999842 -0.000178829 4.12321e-17)
(0.999767 -0.00055186 -3.25852e-17)
(0.999715 -0.000679146 2.03503e-16)
(0.999725 -0.000584075 5.89739e-17)
(0.999757 -0.000517709 3.05602e-16)
(0.999718 -0.000636938 -5.98432e-16)
(0.999669 -0.000943987 -1.95572e-16)
(0.999641 -0.00125834 -2.42966e-16)
(0.999635 -0.00145439 4.99276e-16)
(0.999683 -0.00159748 -3.02029e-16)
(0.999732 -0.00174332 2.83083e-17)
(0.999897 -0.00196591 2.72529e-16)
(0.999757 -0.00228502 -2.88636e-16)
(0.999732 -0.00289634 3.02269e-16)
(0.999147 -0.00474803 4.20672e-16)
(0.999795 -0.000186304 -2.47404e-17)
(0.999718 -0.000553403 -1.87318e-17)
(0.999671 -0.000676132 6.17256e-17)
(0.999711 -0.000597797 -2.16518e-16)
(0.99981 -0.000547756 2.95599e-16)
(0.999851 -0.000648298 5.60466e-16)
(0.999863 -0.000905074 1.07782e-16)
(0.99985 -0.00117547 4.46525e-16)
(0.999823 -0.00135658 -6.34853e-16)
(0.999834 -0.00152412 1.92813e-16)
(0.999849 -0.00172016 4.66445e-16)
(0.999993 -0.00199002 -1.05236e-16)
(0.999894 -0.00235128 -1.40123e-16)
(0.999808 -0.00294672 -4.78415e-17)
(0.999365 -0.00482815 1.31842e-16)
(0.999751 -0.000181548 -3.96236e-17)
(0.999663 -0.000539475 -3.81107e-17)
(0.999602 -0.000677767 -1.88162e-16)
(0.999651 -0.000649341 1.29818e-16)
(0.999801 -0.000641996 -2.26221e-16)
(0.999919 -0.000731299 1.12006e-16)
(1 -0.000924563 4.08499e-18)
(1.00002 -0.00112677 -1.40009e-17)
(0.999994 -0.00126915 2.78483e-16)
(0.999978 -0.00144513 3.09955e-16)
(0.999962 -0.00168986 -1.79186e-16)
(1.00007 -0.00202387 7.62997e-17)
(1 -0.00245914 5.0956e-16)
(0.999907 -0.00309447 -3.28044e-17)
(0.999528 -0.00508637 -3.43281e-17)
(0.99971 -0.000167707 -7.96895e-18)
(0.999598 -0.000519244 -3.58309e-17)
(0.999499 -0.000694221 -4.42885e-17)
(0.999518 -0.000748797 -1.37661e-16)
(0.999676 -0.000820509 -2.1948e-16)
(0.999838 -0.000932631 -3.51827e-16)
(0.999979 -0.00108907 4.74011e-18)
(1.00004 -0.001241 5.09173e-16)
(1.00002 -0.00135469 -1.68662e-16)
(0.999999 -0.00154302 -3.75383e-16)
(0.999976 -0.00183864 3.14312e-16)
(1.00008 -0.00224045 1.76922e-16)
(1.00005 -0.00274596 -9.49028e-16)
(0.999999 -0.00341498 3.89904e-16)
(0.999755 -0.00541807 2.69039e-17)
(0.999674 -0.000147711 8.87873e-17)
(0.999529 -0.000497111 1.25518e-16)
(0.999373 -0.000722712 -9.77767e-19)
(0.99933 -0.000880969 2.92949e-17)
(0.999452 -0.00105933 1.29102e-16)
(0.999616 -0.00123069 8.45053e-17)
(0.999787 -0.00139021 -5.67382e-18)
(0.999877 -0.00152609 -7.82868e-16)
(0.999888 -0.00163331 6.34483e-16)
(0.999891 -0.00183982 2.12683e-16)
(0.999896 -0.00217679 -1.11836e-16)
(1.00002 -0.00262362 -6.16052e-16)
(1.00005 -0.00315571 7.68328e-16)
(1.00009 -0.00380009 -2.51777e-16)
(1.00012 -0.00567775 -1.11308e-16)
(0.99964 -0.00012454 -5.22446e-17)
(0.999465 -0.000475125 -1.58674e-16)
(0.999252 -0.000754524 5.58111e-17)
(0.999136 -0.00101799 3.18449e-16)
(0.999198 -0.00130986 -1.8316e-16)
(0.999332 -0.00156 -3.44906e-16)
(0.999507 -0.00175266 -6.08359e-17)
(0.999622 -0.00190082 5.08812e-16)
(0.999671 -0.0020187 -2.67094e-16)
(0.99972 -0.00224175 2.87329e-17)
(0.999782 -0.0025988 -7.79289e-17)
(0.999963 -0.00305298 8.44915e-17)
(1.00007 -0.00355698 -4.35265e-16)
(1.0002 -0.00411699 -3.05238e-16)
(1.00058 -0.00578868 -2.70736e-16)
(0.99961 -0.000101064 7.24395e-19)
(0.999415 -0.00045461 -8.75462e-19)
(0.999161 -0.000781176 1.15748e-16)
(0.998985 -0.00113406 -6.44516e-17)
(0.998984 -0.00152472 2.65511e-16)
(0.999074 -0.00185171 4.16794e-17)
(0.999238 -0.00208928 5.52074e-16)
(0.99937 -0.00226402 -8.98917e-17)
(0.999461 -0.00239985 -2.55457e-16)
(0.999568 -0.00263209 -2.39249e-16)
(0.999703 -0.00298623 8.64552e-17)
(0.999955 -0.003414 1.46525e-16)
(1.00014 -0.00385111 4.14406e-16)
(1.00035 -0.00429765 1.85513e-17)
(1.0011 -0.00575872 2.47251e-16)
(0.999581 -7.99045e-05 -2.11408e-17)
(0.999384 -0.000437003 2.21246e-16)
(0.999116 -0.000798212 -2.9568e-17)
(0.998905 -0.001214 -1.29314e-16)
(0.998856 -0.00167461 6.73511e-18)
(0.998905 -0.00205999 6.72144e-17)
(0.999052 -0.00233848 -3.16809e-16)
(0.999197 -0.00254173 -2.10675e-16)
(0.999327 -0.0026957 1.12232e-16)
(0.999494 -0.0029294 -8.41441e-17)
(0.999703 -0.00326465 -2.15096e-16)
(1.00002 -0.00364726 -2.05922e-16)
(1.00028 -0.004004 -6.54557e-16)
(1.00054 -0.00434219 -7.11794e-18)
(1.0016 -0.00563705 3.46622e-16)
(0.999551 -6.31277e-05 3.54172e-17)
(0.999371 -0.000423744 -1.2255e-16)
(0.999116 -0.000805241 4.59513e-17)
(0.998901 -0.00125463 -1.49138e-16)
(0.998827 -0.00175148 1.22641e-16)
(0.998848 -0.00216964 -1.55587e-16)
(0.99898 -0.00247654 -1.41057e-16)
(0.999134 -0.00270362 -2.43077e-16)
(0.999299 -0.00287344 4.76134e-16)
(0.999517 -0.00310466 3.05337e-16)
(0.999792 -0.00341548 4.25125e-16)
(1.00017 -0.00375058 6.40893e-16)
(1.00048 -0.00403435 3.2594e-16)
(1.00077 -0.00429005 1.0428e-15)
(1.00206 -0.00548434 -2.00235e-16)
(0.999521 -5.20102e-05 -1.9197e-17)
(0.999369 -0.000415978 8.80928e-17)
(0.999151 -0.000804967 -7.4149e-17)
(0.99896 -0.00126193 1.3841e-16)
(0.998886 -0.00176463 -8.8358e-17)
(0.998895 -0.00219077 1.90177e-16)
(0.999018 -0.00251205 1.79075e-16)
(0.999179 -0.00275684 6.93644e-16)
(0.999372 -0.00294097 -8.68065e-16)
(0.999633 -0.00317049 -1.12672e-16)
(0.999959 -0.0034602 -5.36151e-17)
(1.00038 -0.00375691 -6.74772e-16)
(1.00073 -0.00398628 3.33021e-16)
(1.00101 -0.00419193 -3.0342e-16)
(1.00245 -0.0053492 -1.23407e-16)
(0.999486 -4.70054e-05 1.63836e-17)
(0.999374 -0.0004142 -6.39582e-17)
(0.999207 -0.000801237 2.91053e-17)
(0.999058 -0.00124668 4.38966e-17)
(0.999005 -0.00173271 3.45212e-17)
(0.999016 -0.00214835 -2.34253e-16)
(0.999138 -0.00247315 6.65928e-17)
(0.999308 -0.0027314 -5.42571e-16)
(0.999523 -0.00293034 3.15244e-16)
(0.999815 -0.00316257 -2.28788e-16)
(1.00018 -0.00343958 -4.42813e-16)
(1.00063 -0.00371195 3.21618e-16)
(1.001 -0.00390752 -2.6427e-16)
(1.00128 -0.00409113 -1.8713e-17)
(1.00279 -0.00526135 -8.51898e-17)
(0.999448 -4.78127e-05 -1.81566e-17)
(0.999377 -0.000418311 8.46137e-17)
(0.999266 -0.000798014 -1.79011e-17)
(0.999171 -0.00122088 -1.66483e-17)
(0.999151 -0.00167755 -1.08243e-16)
(0.999178 -0.00207237 1.28067e-16)
(0.999306 -0.00239511 -1.87816e-16)
(0.999487 -0.00266551 5.09359e-17)
(0.999722 -0.0028816 -2.24829e-16)
(1.00004 -0.00312247 1.84825e-16)
(1.00043 -0.00339636 4.24923e-16)
(1.00091 -0.00365801 -1.56344e-16)
(1.00128 -0.00383672 2.48853e-16)
(1.00155 -0.00401792 -3.65718e-16)
(1.00308 -0.00523276 2.99145e-16)
(0.999406 -5.3661e-05 7.78801e-19)
(0.999374 -0.000427717 -1.38209e-16)
(0.999318 -0.000798398 3.67419e-17)
(0.999278 -0.00119516 6.7193e-17)
(0.999296 -0.00161881 3.81211e-17)
(0.999347 -0.00199063 1.45351e-16)
(0.999489 -0.002311 2.60053e-16)
(0.999686 -0.00259502 3.58602e-16)
(0.99994 -0.00283152 2.68469e-16)
(1.00028 -0.00308663 -6.55586e-17)
(1.00069 -0.00336538 1.07086e-17)
(1.00118 -0.00362637 3.78882e-16)
(1.00157 -0.00379898 -1.39952e-16)
(1.00182 -0.00398766 1.68317e-16)
(1.00334 -0.00526337 -2.4905e-16)
(0.99936 -6.33709e-05 1.75916e-17)
(0.999362 -0.000441605 8.64121e-17)
(0.999352 -0.000804629 -1.24533e-17)
(0.999365 -0.00117772 1.37629e-17)
(0.999423 -0.00157204 -8.97442e-17)
(0.999502 -0.00192498 -1.06433e-16)
(0.999665 -0.00224678 -4.58853e-16)
(0.999881 -0.00254767 -4.19403e-17)
(1.00016 -0.00280771 -3.05312e-18)
(1.00052 -0.00308099 6.51671e-17)
(1.00095 -0.00336951 1.44891e-16)
(1.00145 -0.00363518 -2.52767e-16)
(1.00184 -0.0038063 -3.7253e-16)
(1.00209 -0.00400467 -2.10072e-16)
(1.00357 -0.00534461 2.04552e-16)
(0.99931 -7.5685e-05 -1.5582e-17)
(0.999338 -0.000459077 -3.61952e-17)
(0.999366 -0.000817953 -5.08011e-18)
(0.999422 -0.00117397 1.17153e-16)
(0.999518 -0.00154745 8.15343e-17)
(0.999629 -0.00188988 -1.96526e-17)
(0.999816 -0.00221935 3.79627e-16)
(1.00006 -0.00254104 -4.13363e-16)
(1.00036 -0.00282685 -2.54202e-16)
(1.00074 -0.00312 -2.76366e-16)
(1.0012 -0.00341979 -7.72398e-16)
(1.00172 -0.00369108 3.70453e-16)
(1.00211 -0.00386017 3.39626e-16)
(1.00236 -0.00406452 8.33587e-17)
(1.00379 -0.00546399 -1.17589e-16)
(0.999257 -8.93232e-05 4.06369e-18)
(0.999303 -0.000479426 -4.96351e-17)
(0.999359 -0.00083907 8.28671e-17)
(0.99945 -0.00118697 -2.07265e-16)
(0.999579 -0.00155082 -5.48987e-17)
(0.999722 -0.00189308 2.70796e-16)
(0.999939 -0.0022374 -2.84219e-16)
(1.00021 -0.00258351 1.0819e-16)
(1.00054 -0.00289594 -1.2169e-16)
(1.00095 -0.00320839 -2.89104e-17)
(1.00143 -0.003518 2.48357e-16)
(1.00196 -0.00379239 -3.98472e-16)
(1.00237 -0.00395565 -2.30003e-16)
(1.00262 -0.00415944 4.51196e-16)
(1.00401 -0.00560771 -1.4149e-16)
(0.999202 -0.000103312 1.42053e-17)
(0.999257 -0.000502169 4.70803e-17)
(0.999331 -0.000868194 -1.88423e-16)
(0.999449 -0.00121787 -1.45233e-16)
(0.999607 -0.00158401 1.92005e-16)
(0.999782 -0.00193677 -1.84357e-17)
(1.00003 -0.00230278 7.71301e-17)
(1.00034 -0.00267603 1.73035e-16)
(1.0007 -0.00301453 1.09136e-16)
(1.00114 -0.00334385 1.12444e-16)
(1.00165 -0.00365972 8.43665e-17)
(1.0022 -0.00393256 -3.54319e-16)
(1.00261 -0.00408443 1.13018e-16)
(1.00287 -0.00427968 -5.98033e-16)
(1.00423 -0.005765 1.96204e-16)
(0.999145 -0.000116868 -4.12703e-18)
(0.999202 -0.000527142 5.02227e-18)
(0.999288 -0.000905421 -1.34841e-18)
(0.999425 -0.00126664 3.39379e-16)
(0.999608 -0.00164647 -3.62692e-16)
(0.999815 -0.00201945 1.36805e-16)
(1.0001 -0.00241287 1.60752e-16)
(1.00044 -0.00281473 -9.48767e-17)
(1.00085 -0.00317745 -6.91925e-17)
(1.00132 -0.0035199 2.32238e-16)
(1.00185 -0.00383718 -6.25971e-17)
(1.00243 -0.00410283 5.59424e-16)
(1.00285 -0.0042373 1.89769e-16)
(1.00312 -0.00441644 1.03636e-16)
(1.00444 -0.0059263 1.30453e-17)
(0.999086 -0.000129586 -2.57702e-17)
(0.999141 -0.000554368 9.35144e-17)
(0.999231 -0.000950669 1.51261e-16)
(0.999383 -0.00133239 -2.68061e-16)
(0.999588 -0.00173583 1.42173e-16)
(0.999826 -0.00213712 -2.11243e-16)
(1.00015 -0.00256205 -9.79045e-17)
(1.00053 -0.00299272 1.51047e-16)
(1.00098 -0.00337677 6.37755e-17)
(1.00148 -0.00372785 -4.41457e-16)
(1.00205 -0.0040412 4.87806e-16)
(1.00265 -0.0042939 9.48443e-17)
(1.00308 -0.00440526 -1.27745e-16)
(1.00336 -0.00456126 -2.14884e-16)
(1.00465 -0.00608479 7.92193e-17)
(0.999025 -0.000141252 2.62622e-18)
(0.999073 -0.000584081 -1.14436e-18)
(0.999166 -0.00100389 -1.31268e-16)
(0.999329 -0.00141383 7.04689e-17)
(0.999554 -0.00184903 1.64045e-16)
(0.999823 -0.00228469 -2.84545e-16)
(1.00018 -0.00274359 1.46915e-16)
(1.00061 -0.00320206 -4.63726e-16)
(1.0011 -0.00360388 1.29454e-16)
(1.00164 -0.00395878 -3.11523e-17)
(1.00224 -0.00426297 -2.69058e-16)
(1.00286 -0.00449739 -1.58982e-16)
(1.0033 -0.00458086 1.13551e-16)
(1.00359 -0.00470828 2.4073e-16)
(1.00486 -0.00623496 -3.57416e-16)
(0.998961 -0.000151992 3.56774e-19)
(0.999001 -0.000616557 -2.38611e-16)
(0.999094 -0.00106489 1.47196e-17)
(0.999267 -0.00150944 -3.35456e-17)
(0.999511 -0.0019825 -2.51705e-16)
(0.999812 -0.00245661 3.84873e-16)
(1.00021 -0.00295033 -1.25443e-16)
(1.00068 -0.00343465 5.22174e-16)
(1.00121 -0.00385036 -4.06884e-17)
(1.00179 -0.00420443 4.48687e-16)
(1.00242 -0.00449472 -1.21538e-16)
(1.00307 -0.00470639 -1.17668e-16)
(1.00352 -0.00475824 -4.06264e-16)
(1.00382 -0.00485279 -1.59072e-16)
(1.00507 -0.00637498 4.80041e-17)
(0.998894 -0.000162011 1.95666e-17)
(0.998926 -0.000652123 4.85521e-17)
(0.999019 -0.00113349 5.04211e-17)
(0.9992 -0.00161762 -1.06411e-16)
(0.999465 -0.00213284 -9.67541e-18)
(0.999797 -0.00264764 -3.23355e-16)
(1.00023 -0.00317577 -1.50634e-16)
(1.00075 -0.00368331 -2.48097e-16)
(1.00132 -0.00410894 9.66756e-17)
(1.00194 -0.00445791 3.4859e-16)
(1.0026 -0.00473032 2.1887e-17)
(1.00327 -0.00491572 5.10314e-17)
(1.00373 -0.00493336 4.49827e-16)
(1.00403 -0.0049923 8.54073e-17)
(1.00527 -0.00650343 3.36181e-16)
(0.998822 -0.0001717 -1.65314e-17)
(0.998847 -0.000690981 2.88415e-17)
(0.998941 -0.0012093 -1.31674e-16)
(0.999132 -0.00173673 1.21323e-16)
(0.999417 -0.00229666 2.49518e-16)
(0.99978 -0.00285286 2.16017e-16)
(1.00026 -0.00341388 -1.20699e-16)
(1.00081 -0.00394162 3.92453e-16)
(1.00143 -0.00437338 6.70495e-17)
(1.00208 -0.00471352 -5.88742e-16)
(1.00278 -0.00496486 -4.07107e-16)
(1.00346 -0.00512143 -7.38042e-17)
(1.00393 -0.00510318 2.6887e-16)
(1.00424 -0.00512448 -4.5117e-17)
(1.00547 -0.00662021 3.41121e-17)
(0.998745 -0.000181387 4.3517e-17)
(0.998766 -0.000733281 5.97294e-17)
(0.998862 -0.00129186 1.21549e-16)
(0.999064 -0.00186511 -7.34637e-17)
(0.999369 -0.002471 -1.4905e-16)
(0.999765 -0.00306807 -1.83611e-16)
(1.00028 -0.00365979 2.38848e-16)
(1.00088 -0.00420453 -5.06387e-16)
(1.00153 -0.00463892 -3.13279e-16)
(1.00222 -0.00496714 1.15833e-16)
(1.00294 -0.00519502 5.47692e-16)
(1.00365 -0.00532105 -4.07156e-17)
(1.00412 -0.00526611 -5.16124e-16)
(1.00444 -0.0052489 4.57689e-16)
(1.00565 -0.00672496 -9.59393e-17)
(0.998663 -0.000191475 -5.47463e-17)
(0.998682 -0.000778977 -2.90106e-17)
(0.998781 -0.00138049 -1.74477e-17)
(0.998996 -0.00200112 2.207e-17)
(0.999323 -0.00265299 -1.1807e-16)
(0.99975 -0.00328954 2.63952e-16)
(1.0003 -0.0039093 -7.08048e-17)
(1.00094 -0.00446787 5.06775e-16)
(1.00163 -0.00490186 6.65309e-16)
(1.00236 -0.00521572 5.43026e-17)
(1.00311 -0.00541854 -6.87299e-17)
(1.00383 -0.00551308 1.88026e-16)
(1.0043 -0.00542127 3.34591e-16)
(1.00463 -0.00536516 -4.66436e-17)
(1.00583 -0.00681944 -4.03547e-16)
(0.998575 -0.000202214 5.05218e-17)
(0.998594 -0.000827948 2.84124e-17)
(0.998699 -0.00147444 1.30468e-16)
(0.998927 -0.00214314 6.3965e-17)
(0.999277 -0.00284028 5.40618e-17)
(0.999737 -0.0035143 -4.57325e-16)
(1.00033 -0.00415928 2.06613e-16)
(1.001 -0.00472873 -5.40631e-16)
(1.00173 -0.00515973 -5.82964e-16)
(1.00249 -0.00545743 -2.77508e-16)
(1.00326 -0.00563422 9.13519e-17)
(1.004 -0.005697 -2.3808e-16)
(1.00448 -0.00556866 -3.38255e-16)
(1.0048 -0.00547401 -8.4037e-17)
(1.006 -0.00690458 2.37099e-16)
(0.99848 -0.00021385 -2.0276e-17)
(0.998503 -0.000879869 -4.36119e-17)
(0.998614 -0.00157278 -1.39919e-16)
(0.998858 -0.00228959 9.75584e-19)
(0.999232 -0.00303058 -5.97158e-17)
(0.999723 -0.00373972 3.49288e-16)
(1.00035 -0.00440704 1.94891e-16)
(1.00106 -0.00498471 -1.83053e-16)
(1.00183 -0.00541064 1.38967e-17)
(1.00261 -0.00569096 2.67848e-17)
(1.00341 -0.0058413 -1.41148e-16)
(1.00416 -0.00587248 1.50083e-17)
(1.00464 -0.00570824 -4.31706e-16)
(1.00497 -0.00557537 -1.30311e-16)
(1.00616 -0.00698168 -1.43092e-17)
(0.998378 -0.000226446 -3.51143e-17)
(0.998407 -0.000934381 -2.94253e-17)
(0.998527 -0.00167457 -3.45491e-17)
(0.998787 -0.00243894 -1.87999e-17)
(0.999185 -0.00322204 2.77422e-16)
(0.999707 -0.00396378 -2.36733e-16)
(1.00037 -0.00465078 -1.97418e-16)
(1.00112 -0.00523436 4.30108e-16)
(1.00191 -0.00565361 2.96717e-17)
(1.00273 -0.00591582 3.83958e-16)
(1.00354 -0.00603973 2.1069e-17)
(1.00432 -0.00603984 -4.16423e-17)
(1.0048 -0.00584057 3.82368e-16)
(1.00513 -0.00567032 3.86864e-17)
(1.00631 -0.00705114 2.66754e-16)
(0.99827 -0.00024006 1.48633e-17)
(0.998307 -0.000990969 1.53656e-17)
(0.998436 -0.00177877 1.43903e-16)
(0.998713 -0.00258975 -7.33989e-18)
(0.999136 -0.00341289 -5.82636e-17)
(0.999689 -0.00418475 5.01841e-16)
(1.00038 -0.00488893 -1.50297e-16)
(1.00117 -0.0054765 2.92665e-16)
(1.00199 -0.00588796 1.11711e-16)
(1.00283 -0.00613178 1.11305e-16)
(1.00367 -0.00622966 2.16673e-16)
(1.00446 -0.00619948 1.05311e-16)
(1.00494 -0.0059662 1.99168e-16)
(1.00528 -0.00575931 -2.56016e-16)
(1.00646 -0.00711487 -1.80079e-16)
(0.998155 -0.000254586 1.67481e-17)
(0.998202 -0.00104915 8.30016e-18)
(0.998341 -0.0018844 -1.75375e-16)
(0.998636 -0.00274071 -4.78236e-17)
(0.999083 -0.00360182 -3.65186e-17)
(0.999667 -0.0044014 -4.4546e-16)
(1.00039 -0.00512063 -1.15906e-16)
(1.00121 -0.0057107 -4.75311e-16)
(1.00207 -0.00611366 2.54478e-16)
(1.00293 -0.00633917 -1.70992e-16)
(1.00379 -0.00641171 -1.63789e-16)
(1.00459 -0.00635222 -2.4167e-17)
(1.00508 -0.00608606 5.8926e-17)
(1.00542 -0.00584359 2.74751e-16)
(1.00659 -0.00717377 1.74454e-16)
(0.998034 -0.000269935 3.65149e-17)
(0.998091 -0.00110833 2.79943e-17)
(0.998241 -0.00199048 -5.68829e-18)
(0.998554 -0.00289063 2.13078e-16)
(0.999026 -0.00378754 -5.78836e-18)
(0.999639 -0.00461265 1.21985e-16)
(1.0004 -0.0053451 -1.39099e-16)
(1.00125 -0.00593654 1.91631e-16)
(1.00213 -0.00633067 -3.12488e-16)
(1.00302 -0.00653825 -3.20417e-16)
(1.0039 -0.00658629 1.01727e-16)
(1.00471 -0.00649854 -1.71642e-16)
(1.0052 -0.00620057 -8.60306e-17)
(1.00555 -0.00592323 -2.36119e-16)
(1.00673 -0.00722878 -3.49035e-16)
(0.997907 -0.0002859 -6.48129e-17)
(0.997975 -0.00116802 -3.15942e-17)
(0.998136 -0.00209615 -3.48999e-17)
(0.998467 -0.00303851 -2.65345e-16)
(0.998964 -0.00396919 -6.25304e-17)
(0.999605 -0.00481788 1.0798e-16)
(1.00039 -0.0055621 2.43078e-16)
(1.00127 -0.00615416 -2.73825e-16)
(1.00218 -0.00653941 -2.86965e-16)
(1.0031 -0.00672965 4.06908e-16)
(1.004 -0.00675419 -4.99363e-17)
(1.00482 -0.00663928 1.55237e-16)
(1.00532 -0.00631059 1.2903e-17)
(1.00567 -0.00599935 -1.71972e-16)
(1.00685 -0.00728017 5.73412e-17)
(0.997773 -0.000302322 4.50631e-17)
(0.997852 -0.00122768 1.02046e-16)
(0.998025 -0.00220063 2.09986e-16)
(0.998375 -0.00318349 5.45337e-17)
(0.998894 -0.00414598 -8.16869e-17)
(0.999564 -0.00501655 -9.25075e-17)
(1.00038 -0.00577138 -7.08192e-17)
(1.00129 -0.00636362 3.5031e-16)
(1.00223 -0.00674027 2.23171e-16)
(1.00317 -0.00691394 9.26249e-18)
(1.00408 -0.00691605 -3.21235e-17)
(1.00493 -0.00677508 -1.48331e-16)
(1.00543 -0.00641669 -8.5661e-17)
(1.00578 -0.00607227 3.31504e-16)
(1.00697 -0.00732937 8.8341e-17)
(0.997635 -0.000318969 -3.1555e-17)
(0.997724 -0.00128689 2.82315e-17)
(0.997908 -0.00230329 -1.61534e-17)
(0.998276 -0.00332493 1.22961e-16)
(0.998819 -0.0043175 3.26704e-16)
(0.999515 -0.00520855 -2.77075e-17)
(1.00036 -0.0059732 1.02932e-16)
(1.0013 -0.00656549 -2.23591e-16)
(1.00226 -0.00693398 2.45187e-16)
(1.00323 -0.00709199 -1.27923e-17)
(1.00416 -0.00707281 -6.93684e-17)
(1.00502 -0.00690689 2.35878e-17)
(1.00553 -0.0065198 -1.01982e-16)
(1.00589 -0.00614317 4.15626e-17)
(1.00708 -0.00737661 -8.23793e-17)
(0.99749 -0.000335687 1.85031e-17)
(0.99759 -0.00134523 -1.01469e-16)
(0.997785 -0.00240358 -2.3865e-16)
(0.99817 -0.00346233 -5.13342e-17)
(0.998736 -0.00448337 -1.67837e-16)
(0.999458 -0.00539375 -7.16686e-17)
(1.00033 -0.00616766 2.0726e-18)
(1.0013 -0.0067601 2.01678e-16)
(1.00229 -0.00712108 -6.44741e-17)
(1.00328 -0.00726441 -5.51827e-17)
(1.00423 -0.00722502 1.70888e-16)
(1.00511 -0.00703518 3.07045e-16)
(1.00562 -0.0066202 8.37884e-17)
(1.006 -0.00621183 2.37156e-16)
(1.00719 -0.00742277 1.10727e-16)
(0.997341 -0.000352277 3.48149e-17)
(0.99745 -0.00140243 9.90952e-18)
(0.997655 -0.00250114 3.03683e-16)
(0.998058 -0.00359541 -3.81259e-17)
(0.998645 -0.00464356 3.75851e-17)
(0.999394 -0.0055724 -6.00149e-17)
(1.00029 -0.00635533 8.49609e-17)
(1.00129 -0.00694822 -1.38693e-16)
(1.00231 -0.0073024 7.15198e-19)
(1.00332 -0.00743208 -2.48099e-16)
(1.0043 -0.00737355 -2.27585e-17)
(1.00519 -0.00716076 1.01364e-16)
(1.00571 -0.00671866 -3.04992e-16)
(1.0061 -0.00627932 -6.8004e-17)
(1.0073 -0.00746781 3.35152e-18)
(0.997187 -0.00036863 -1.69802e-17)
(0.997304 -0.0014582 9.92253e-17)
(0.997519 -0.0025957 -1.51664e-16)
(0.997939 -0.003724 4.35381e-17)
(0.998548 -0.00479806 -2.16472e-16)
(0.999321 -0.0057447 3.7014e-17)
(1.00025 -0.00653656 -1.22437e-16)
(1.00127 -0.00713038 -9.3708e-17)
(1.00232 -0.00747862 2.14176e-16)
(1.00335 -0.00759569 2.69472e-16)
(1.00435 -0.00751905 -1.90721e-17)
(1.00526 -0.00728418 2.15249e-16)
(1.0058 -0.00681558 1.30351e-16)
(1.0062 -0.00634578 -1.39607e-16)
(1.00741 -0.00751088 -7.65552e-18)
(0.997027 -0.000384609 -2.14078e-17)
(0.997152 -0.00151244 -2.00877e-18)
(0.997377 -0.00268715 1.21595e-16)
(0.997813 -0.00384812 -8.17318e-17)
(0.998443 -0.00494714 9.21124e-17)
(0.99924 -0.00591118 2.1387e-16)
(1.00019 -0.00671215 1.28217e-17)
(1.00124 -0.0073075 -1.08623e-16)
(1.00232 -0.00765068 -2.18474e-16)
(1.00338 -0.00775617 -7.14487e-17)
(1.0044 -0.00766241 -5.57404e-17)
(1.00533 -0.00740628 -4.61751e-16)
(1.00588 -0.0069118 -3.9868e-17)
(1.00629 -0.00641216 -2.09463e-16)
(1.00752 -0.00755541 -4.76645e-17)
(0.996864 -0.000400171 -5.95061e-18)
(0.996994 -0.001565 -1.18233e-16)
(0.997229 -0.00277544 -2.05322e-16)
(0.997681 -0.00396788 5.64609e-17)
(0.998331 -0.00509106 1.82061e-16)
(0.999152 -0.00607226 -6.79911e-17)
(1.00013 -0.00688261 -9.7793e-17)
(1.00121 -0.00748017 2.62798e-16)
(1.00231 -0.00781923 -7.08116e-17)
(1.0034 -0.00791412 -5.92282e-17)
(1.00444 -0.00780411 -3.34665e-16)
(1.00539 -0.00752736 3.73685e-18)
(1.00596 -0.00700741 6.56071e-16)
(1.00639 -0.00647827 -1.53701e-16)
(1.00763 -0.00760056 -1.28843e-17)
(0.996695 -0.000415243 -2.19382e-17)
(0.996831 -0.00161591 5.26551e-17)
(0.997075 -0.00286067 3.12544e-17)
(0.997542 -0.00408351 1.45836e-16)
(0.998212 -0.0052303 -1.19744e-16)
(0.999057 -0.00622861 -7.72787e-17)
(1.00006 -0.0070488 -5.16238e-17)
(1.00116 -0.00764934 -1.5431e-16)
(1.0023 -0.00798519 1.44254e-16)
(1.00341 -0.00807041 3.97019e-17)
(1.00448 -0.00794497 4.24732e-16)
(1.00545 -0.00764815 2.52449e-16)
(1.00603 -0.00710312 -8.70047e-16)
(1.00648 -0.00654489 6.16706e-16)
(1.00774 -0.00764537 -1.05183e-17)
(0.996523 -0.000429842 1.27099e-17)
(0.996663 -0.00166515 -3.34001e-17)
(0.996916 -0.00294296 1.10878e-16)
(0.997397 -0.00419533 -1.38477e-16)
(0.998086 -0.00536528 1.12827e-16)
(0.998955 -0.00638079 2.23799e-16)
(0.999986 -0.00721132 1.45986e-16)
(1.00112 -0.00781564 -6.18789e-17)
(1.00228 -0.00814922 9.67071e-17)
(1.00342 -0.00822564 5.59522e-18)
(1.00452 -0.00808547 -4.38544e-16)
(1.00551 -0.00776901 -1.59685e-17)
(1.00611 -0.0071992 4.06449e-16)
(1.00658 -0.00661202 -3.8907e-16)
(1.00786 -0.00769238 1.49993e-16)
(0.996346 -0.000443953 -2.04546e-17)
(0.996489 -0.00171286 -6.60794e-17)
(0.99675 -0.00302255 -7.34688e-17)
(0.997246 -0.00430373 -1.05674e-16)
(0.997954 -0.00549662 -7.28615e-17)
(0.998846 -0.00652958 -1.54869e-16)
(0.999903 -0.00737111 1.14575e-16)
(1.00106 -0.00798005 1.22994e-16)
(1.00225 -0.00831223 -9.48203e-17)
(1.00342 -0.00838067 7.51483e-17)
(1.00455 -0.00822642 1.24516e-16)
(1.00557 -0.00789071 -2.21457e-16)
(1.00618 -0.00729634 3.8642e-16)
(1.00667 -0.00668053 1.7482e-16)
(1.00796 -0.00774115 -4.29225e-17)
(0.996165 -0.000457638 1.31487e-17)
(0.99631 -0.0017591 5.92577e-17)
(0.99658 -0.0030997 9.82071e-18)
(0.99709 -0.00440912 8.31985e-17)
(0.997816 -0.00562483 1.35892e-16)
(0.998731 -0.00667556 -1.63723e-16)
(0.999815 -0.00752874 -2.30808e-16)
(1.001 -0.00814314 2.44076e-16)
(1.00222 -0.00847477 -1.93809e-16)
(1.00342 -0.00853597 -2.9506e-16)
(1.00458 -0.00836814 1.14836e-16)
(1.00563 -0.00801339 1.16727e-16)
(1.00626 -0.00739446 2.8371e-17)
(1.00677 -0.00674995 -4.02028e-16)
(1.00808 -0.00779105 5.69913e-17)
(0.99598 -0.000470922 1.11601e-17)
(0.996127 -0.00180408 4.71992e-17)
(0.996404 -0.00317472 -2.94478e-17)
(0.996928 -0.00451198 8.10833e-18)
(0.997673 -0.00575056 2.66953e-17)
(0.998611 -0.00681953 2.72771e-16)
(0.999721 -0.0076851 2.81627e-16)
(1.00094 -0.00830583 8.97785e-18)
(1.00219 -0.0086377 1.00714e-16)
(1.00342 -0.00869231 1.42334e-16)
(1.00461 -0.00851132 2.28734e-16)
(1.00568 -0.0081377 -9.69972e-18)
(1.00633 -0.00749414 -9.40395e-17)
(1.00687 -0.00682094 -1.70367e-17)
(1.00819 -0.00784275 -9.39778e-17)
(0.995791 -0.000483897 -3.87979e-17)
(0.995939 -0.00184792 -7.10075e-17)
(0.996223 -0.00324793 -4.83189e-17)
(0.996761 -0.00461277 -8.52123e-17)
(0.997524 -0.00587436 -2.7045e-16)
(0.998485 -0.00696207 -1.67914e-17)
(0.999622 -0.00784077 6.0022e-18)
(1.00087 -0.00846864 -3.73403e-16)
(1.00215 -0.0088015 -9.03505e-17)
(1.00342 -0.00885012 1.12248e-16)
(1.00464 -0.00865629 -1.67533e-16)
(1.00574 -0.00826385 5.92906e-17)
(1.00641 -0.00759546 -8.44027e-16)
(1.00697 -0.00689333 5.37486e-16)
(1.00831 -0.00789574 1.94817e-17)
(0.995599 -0.000496613 4.01221e-17)
(0.995746 -0.00189087 5.12199e-18)
(0.996037 -0.00331969 1.08946e-16)
(0.996589 -0.00471198 1.5496e-16)
(0.99737 -0.00599689 6.14492e-17)
(0.998355 -0.00710395 8.86021e-17)
(0.999519 -0.0079966 -6.82458e-17)
(1.0008 -0.00863244 2.70405e-16)
(1.00211 -0.00896701 2.19074e-16)
(1.00341 -0.00901014 2.06637e-16)
(1.00467 -0.00880374 -6.45341e-17)
(1.00579 -0.00839249 -1.27385e-16)
(1.00649 -0.00769908 7.97546e-16)
(1.00708 -0.00696787 -5.46752e-16)
(1.00842 -0.0079509 -5.73091e-17)
(0.995403 -0.000509174 -8.04151e-18)
(0.995549 -0.00193306 1.28223e-16)
(0.995847 -0.00339032 -7.41298e-17)
(0.996412 -0.0048101 -1.17613e-16)
(0.997212 -0.00611866 2.54681e-17)
(0.99822 -0.00724571 -1.61862e-16)
(0.999412 -0.00815307 8.83367e-17)
(1.00072 -0.00879766 -1.09383e-16)
(1.00207 -0.00913458 -2.6412e-16)
(1.00341 -0.00917265 -5.57762e-17)
(1.00469 -0.00895383 4.32462e-16)
(1.00585 -0.00852361 2.14255e-16)
(1.00658 -0.00780478 -4.97837e-16)
(1.00719 -0.00704397 5.47982e-16)
(1.00855 -0.00800721 -9.50054e-17)
(0.995203 -0.000521639 2.84833e-17)
(0.995347 -0.00197475 -2.49283e-17)
(0.995652 -0.00346019 2.19879e-17)
(0.99623 -0.00490759 9.26322e-17)
(0.997049 -0.0062403 3.03809e-17)
(0.998081 -0.00738804 1.65269e-17)
(0.999301 -0.00831096 -2.39046e-16)
(1.00064 -0.00896508 4.10768e-17)
(1.00203 -0.00930494 -1.29531e-16)
(1.0034 -0.00933828 -5.23062e-16)
(1.00472 -0.00910715 -2.77848e-18)
(1.00591 -0.00865776 -1.4258e-16)
(1.00666 -0.00791315 -2.328e-16)
(1.00731 -0.00712235 1.28159e-16)
(1.00867 -0.00806558 9.47416e-17)
(0.994999 -0.000534114 -1.34342e-20)
(0.995141 -0.00201608 -8.41321e-17)
(0.995453 -0.00352962 -1.25636e-17)
(0.996044 -0.0050049 -1.52782e-16)
(0.996881 -0.00636226 -3.27384e-17)
(0.997937 -0.00753143 -2.23017e-16)
(0.999187 -0.00847069 6.77029e-17)
(1.00056 -0.00913506 -2.57387e-17)
(1.00199 -0.00947842 3.85887e-16)
(1.00339 -0.00950732 4.56134e-16)
(1.00475 -0.00926387 -1.63943e-16)
(1.00598 -0.00879503 2.29574e-16)
(1.00675 -0.00802413 6.30544e-16)
(1.00743 -0.00720274 -2.50689e-16)
(1.00881 -0.00812543 3.40128e-17)
(0.994792 -0.000546656 -3.1236e-17)
(0.994931 -0.00205732 -1.54878e-17)
(0.995249 -0.00359896 1.55582e-16)
(0.995854 -0.00510247 1.19565e-16)
(0.996709 -0.00648514 8.45206e-17)
(0.99779 -0.00767652 1.00455e-16)
(0.999069 -0.00863297 -2.20384e-17)
(1.00048 -0.00930833 -5.59508e-18)
(1.00194 -0.00965568 1.26808e-16)
(1.00339 -0.00968038 -1.47064e-16)
(1.00478 -0.00942457 -3.16779e-16)
(1.00604 -0.00893599 -3.77025e-16)
(1.00685 -0.0081383 1.18697e-17)
(1.00755 -0.00728593 2.1013e-17)
(1.00894 -0.00818773 1.04632e-17)
(0.994581 -0.000559363 3.40288e-17)
(0.994717 -0.00209857 9.18841e-17)
(0.995041 -0.00366849 -4.44714e-17)
(0.995659 -0.00520069 -7.35266e-17)
(0.996534 -0.00660931 -1.94476e-16)
(0.99764 -0.0078237 -4.15202e-17)
(0.998949 -0.00879812 1.19161e-16)
(1.00039 -0.00948514 -7.8735e-17)
(1.0019 -0.00983694 -4.05735e-16)
(1.00338 -0.00985759 1.34622e-16)
(1.00482 -0.00958925 1.38784e-16)
(1.00611 -0.00908049 2.04017e-16)
(1.00695 -0.00825533 4.24057e-17)
(1.00768 -0.00737118 -1.41438e-16)