1.45 	0 	0 	-0.301901
2.35 	0 	0 	-0.13425
