1.275 	2.15223e-18 	-2.76991e-20 	-0.0342478 	-0.000450913 	-1.96258e-22
1.825 	2.15223e-18 	-1.39322e-20 	-0.00907492 	-0.00277192 	1.75533e-21
2.375 	2.15223e-18 	-2.66896e-23 	0.116417 	-0.00324812 	-7.32751e-22
