1.275 	2.15223e-18 	-2.76991e-20 	-0.0326996 	-0.000499845 	-2.02592e-22
1.825 	2.15223e-18 	-1.39322e-20 	-0.00722982 	-0.00290215 	1.81474e-21
2.375 	2.15223e-18 	-2.66896e-23 	0.124037 	-0.00349386 	-7.55101e-22
