1.45 	0 	0 	-0.00769259 	-0.00262891 	1.66898e-20
2.35 	0 	0 	0.0629731 	-0.00662783 	1.01178e-20
