1.45 	0 	0 	-0.291435
2.35 	0 	0 	-0.126701
