/*--------------------------------*- C++ -*----------------------------------*\
  =========                 |
  \\      /  F ield         | OpenFOAM: The Open Source CFD Toolbox
   \\    /   O peration     | Website:  https://openfoam.org
    \\  /    A nd           | Version:  6.0
     \\/     M anipulation  |
\*---------------------------------------------------------------------------*/
FoamFile
{
    version     2.0;
    format      ascii;
    class       volScalarField;
    location    "0.3";
    object      p;
}
// * * * * * * * * * * * * * * * * * * * * * * * * * * * * * * * * * * * * * //

dimensions      [0 2 -2 0 0 0 0];

internalField   nonuniform List<scalar> 
24000
(
1.00638
1.00614
1.00557
1.00476
1.00387
1.003
1.00221
1.0015
1.00091
1.00043
1.00007
0.999844
1.00639
1.0062
1.0057
1.00498
1.00415
1.0033
1.0025
1.00174
1.00107
1.0005
1.00002
0.999719
1.00639
1.00618
1.00565
1.0049
1.00402
1.00313
1.00229
1.00153
1.00087
1.00034
0.999899
0.999641
1.00639
1.00616
1.00562
1.00485
1.00395
1.00304
1.00221
1.00145
1.0008
1.0003
0.999864
0.999615
1.00639
1.00617
1.00564
1.00489
1.00402
1.00313
1.0023
1.00154
1.00089
1.00036
0.999888
0.999601
1.00639
1.00618
1.00566
1.00494
1.00409
1.00321
1.00239
1.00163
1.00095
1.0004
0.999888
0.999563
1.0064
1.00618
1.00566
1.00495
1.0041
1.00322
1.00239
1.00162
1.00094
1.00038
0.999845
0.999503
1.0064
1.00618
1.00565
1.00494
1.00409
1.0032
1.00236
1.00159
1.0009
1.00032
0.999788
0.99944
1.00641
1.00618
1.00565
1.00493
1.00408
1.00319
1.00235
1.00156
1.00086
1.00028
0.999741
0.999387
1.00642
1.00618
1.00565
1.00493
1.00409
1.0032
1.00235
1.00156
1.00085
1.00026
0.999707
0.999341
1.00642
1.00619
1.00566
1.00494
1.0041
1.00321
1.00236
1.00156
1.00085
1.00025
0.999678
0.999298
1.00643
1.0062
1.00566
1.00494
1.0041
1.00322
1.00237
1.00157
1.00084
1.00023
0.999647
0.999253
1.00644
1.00621
1.00567
1.00495
1.00411
1.00322
1.00237
1.00156
1.00083
1.00021
0.999614
0.999208
1.00645
1.00622
1.00569
1.00496
1.00411
1.00323
1.00237
1.00155
1.00081
1.00018
0.999581
0.999164
1.00646
1.00624
1.00571
1.00498
1.00413
1.00324
1.00237
1.00155
1.0008
1.00016
0.999549
0.999122
1.00648
1.00626
1.00573
1.005
1.00415
1.00325
1.00238
1.00155
1.00079
1.00014
0.999519
0.999081
1.00649
1.00627
1.00575
1.00502
1.00417
1.00327
1.0024
1.00156
1.00079
1.00012
0.999489
0.99904
1.0065
1.00629
1.00577
1.00504
1.00419
1.00329
1.00241
1.00156
1.00078
1.0001
0.999459
0.998999
1.00652
1.00631
1.00579
1.00507
1.00422
1.00331
1.00242
1.00156
1.00077
1.00008
0.999427
0.998958
1.00653
1.00633
1.00581
1.00509
1.00423
1.00332
1.00243
1.00156
1.00076
1.00005
0.999395
0.998917
1.00655
1.00635
1.00582
1.0051
1.00425
1.00334
1.00244
1.00156
1.00075
1.00003
0.999363
0.998877
1.00656
1.00636
1.00584
1.00512
1.00427
1.00335
1.00245
1.00156
1.00074
1.00001
0.999332
0.998838
1.00658
1.00638
1.00586
1.00514
1.00429
1.00337
1.00245
1.00156
1.00073
0.999987
0.999301
0.998798
1.0066
1.0064
1.00588
1.00516
1.00431
1.00338
1.00246
1.00156
1.00072
0.999965
0.99927
0.998759
1.00662
1.00642
1.0059
1.00518
1.00433
1.0034
1.00247
1.00156
1.0007
0.999941
0.999238
0.998718
1.00664
1.00644
1.00592
1.0052
1.00435
1.00341
1.00248
1.00156
1.00069
0.999917
0.999205
0.998677
1.00666
1.00646
1.00594
1.00522
1.00437
1.00343
1.00249
1.00155
1.00068
0.99989
0.99917
0.998635
1.00668
1.00648
1.00595
1.00524
1.00438
1.00344
1.00249
1.00155
1.00066
0.999863
0.999134
0.998593
1.0067
1.0065
1.00597
1.00526
1.0044
1.00345
1.0025
1.00154
1.00065
0.999834
0.999097
0.99855
1.00673
1.00652
1.00599
1.00528
1.00441
1.00346
1.0025
1.00154
1.00063
0.999804
0.99906
0.998508
1.00675
1.00654
1.00601
1.00529
1.00443
1.00347
1.0025
1.00153
1.00061
0.999773
0.999022
0.998464
1.00678
1.00657
1.00603
1.00531
1.00444
1.00348
1.0025
1.00152
1.00059
0.999743
0.998984
0.998421
1.00681
1.00659
1.00606
1.00533
1.00446
1.00349
1.0025
1.00151
1.00057
0.999713
0.998946
0.998378
1.00683
1.00662
1.00608
1.00535
1.00447
1.0035
1.0025
1.0015
1.00055
0.999683
0.998909
0.998334
1.00686
1.00665
1.00611
1.00538
1.00449
1.00351
1.00251
1.0015
1.00053
0.999653
0.99887
0.99829
1.0069
1.00668
1.00614
1.00541
1.00451
1.00353
1.00251
1.00149
1.00052
0.999624
0.998832
0.998246
1.00693
1.00671
1.00617
1.00543
1.00454
1.00354
1.00252
1.00148
1.0005
0.999594
0.998793
0.9982
1.00696
1.00675
1.0062
1.00546
1.00456
1.00356
1.00253
1.00148
1.00048
0.999564
0.998754
0.998155
1.00699
1.00678
1.00624
1.0055
1.00459
1.00358
1.00253
1.00148
1.00046
0.999533
0.998713
0.998108
1.00703
1.00681
1.00627
1.00553
1.00461
1.0036
1.00254
1.00147
1.00045
0.999501
0.998672
0.998061
1.00706
1.00685
1.00631
1.00556
1.00464
1.00361
1.00255
1.00146
1.00043
0.999469
0.99863
0.998013
1.0071
1.00689
1.00634
1.00559
1.00467
1.00363
1.00256
1.00146
1.00041
0.999436
0.998588
0.997965
1.00714
1.00692
1.00637
1.00562
1.00469
1.00365
1.00256
1.00145
1.00039
0.999403
0.998544
0.997915
1.00717
1.00696
1.00641
1.00565
1.00472
1.00366
1.00257
1.00144
1.00037
0.999369
0.9985
0.997866
1.00721
1.007
1.00644
1.00568
1.00474
1.00368
1.00257
1.00144
1.00035
0.999334
0.998455
0.997815
1.00725
1.00703
1.00648
1.00572
1.00477
1.0037
1.00258
1.00143
1.00032
0.999299
0.99841
0.997763
1.00729
1.00707
1.00651
1.00575
1.00479
1.00371
1.00258
1.00142
1.0003
0.999262
0.998363
0.99771
1.00733
1.00711
1.00655
1.00578
1.00482
1.00373
1.00259
1.00141
1.00028
0.999225
0.998315
0.997657
1.00738
1.00716
1.00659
1.00582
1.00485
1.00375
1.00259
1.0014
1.00025
0.999187
0.998266
0.997603
1.00742
1.0072
1.00663
1.00585
1.00487
1.00376
1.0026
1.00139
1.00023
0.999149
0.998217
0.997548
1.00746
1.00724
1.00667
1.00588
1.0049
1.00378
1.0026
1.00138
1.0002
0.999109
0.998167
0.997492
1.00751
1.00729
1.00671
1.00592
1.00493
1.0038
1.0026
1.00137
1.00018
0.99907
0.998117
0.997435
1.00756
1.00734
1.00675
1.00596
1.00495
1.00381
1.00261
1.00136
1.00015
0.999029
0.998066
0.997377
1.0076
1.00738
1.00679
1.00599
1.00498
1.00383
1.00261
1.00135
1.00013
0.998989
0.998014
0.997318
1.00765
1.00743
1.00684
1.00603
1.00501
1.00385
1.00261
1.00134
1.0001
0.998949
0.997962
0.997258
1.0077
1.00749
1.00689
1.00607
1.00504
1.00387
1.00262
1.00133
1.00007
0.998908
0.99791
0.997198
1.00775
1.00754
1.00694
1.00612
1.00508
1.00389
1.00263
1.00132
1.00005
0.998867
0.997857
0.997136
1.00781
1.00759
1.00699
1.00616
1.00511
1.00391
1.00263
1.00131
1.00002
0.998826
0.997804
0.997073
1.00786
1.00765
1.00704
1.00621
1.00515
1.00393
1.00264
1.0013
0.999997
0.998784
0.99775
0.997009
1.00792
1.00771
1.00709
1.00625
1.00518
1.00396
1.00265
1.00129
0.99997
0.998742
0.997695
0.996944
1.00798
1.00776
1.00714
1.0063
1.00522
1.00398
1.00266
1.00128
0.999943
0.998699
0.997639
0.996878
1.00803
1.00782
1.0072
1.00635
1.00526
1.004
1.00266
1.00127
0.999916
0.998655
0.997583
0.996811
1.00809
1.00789
1.00725
1.0064
1.0053
1.00403
1.00267
1.00126
0.999888
0.99861
0.997525
0.996743
1.00816
1.00795
1.00731
1.00645
1.00534
1.00405
1.00268
1.00125
0.99986
0.998565
0.997466
0.996674
1.00822
1.00801
1.00737
1.0065
1.00538
1.00408
1.00269
1.00124
0.999831
0.998519
0.997407
0.996604
1.00828
1.00807
1.00743
1.00655
1.00542
1.0041
1.0027
1.00123
0.999802
0.998473
0.997346
0.996534
1.00835
1.00814
1.00748
1.00661
1.00546
1.00413
1.0027
1.00122
0.999772
0.998426
0.997285
0.996461
1.00842
1.00821
1.00755
1.00666
1.0055
1.00416
1.00271
1.0012
0.999742
0.998378
0.997222
0.996389
1.00848
1.00828
1.00761
1.00671
1.00554
1.00418
1.00272
1.00119
0.999711
0.99833
0.997159
0.996314
1.00856
1.00835
1.00767
1.00677
1.00558
1.00421
1.00273
1.00118
0.99968
0.998281
0.997095
0.996238
1.00863
1.00842
1.00773
1.00683
1.00563
1.00424
1.00274
1.00117
0.999649
0.998232
0.99703
0.996161
1.0087
1.00849
1.0078
1.00688
1.00567
1.00427
1.00275
1.00116
0.999618
0.998182
0.996965
0.996083
1.00878
1.00857
1.00787
1.00694
1.00572
1.0043
1.00276
1.00115
0.999586
0.998131
0.996898
0.996002
1.00886
1.00864
1.00794
1.00701
1.00577
1.00433
1.00277
1.00114
0.999555
0.99808
0.996831
0.995921
1.00893
1.00872
1.00801
1.00707
1.00581
1.00436
1.00278
1.00113
0.999523
0.998029
0.996762
0.995837
1.00902
1.0088
1.00808
1.00713
1.00586
1.00439
1.00279
1.00112
0.999491
0.997977
0.996693
0.995753
1.0091
1.00888
1.00816
1.0072
1.00592
1.00443
1.0028
1.00111
0.99946
0.997924
0.996622
0.995666
1.00918
1.00897
1.00823
1.00727
1.00597
1.00446
1.00282
1.0011
0.999428
0.997871
0.996551
0.995577
1.00927
1.00905
1.00831
1.00734
1.00603
1.0045
1.00283
1.00109
0.999396
0.997817
0.996478
0.995487
1.00936
1.00914
1.00839
1.00741
1.00608
1.00454
1.00285
1.00108
0.999364
0.997763
0.996404
0.995395
1.00945
1.00923
1.00848
1.00749
1.00614
1.00458
1.00286
1.00108
0.999332
0.997707
0.996328
0.9953
1.00954
1.00932
1.00856
1.00756
1.0062
1.00462
1.00288
1.00107
0.999299
0.997651
0.996251
0.995204
1.00963
1.00942
1.00865
1.00764
1.00626
1.00466
1.0029
1.00106
0.999266
0.997593
0.996171
0.995106
1.00973
1.00951
1.00873
1.00772
1.00632
1.0047
1.00292
1.00106
0.999233
0.997535
0.996091
0.995005
1.00982
1.00961
1.00882
1.0078
1.00639
1.00475
1.00294
1.00105
0.999198
0.997475
0.996008
0.994903
1.00992
1.00971
1.00891
1.00788
1.00646
1.00479
1.00296
1.00104
0.999164
0.997414
0.995924
0.994798
1.01002
1.00981
1.00901
1.00797
1.00652
1.00484
1.00298
1.00104
0.999129
0.997351
0.995838
0.994691
1.01012
1.00991
1.0091
1.00805
1.00659
1.00489
1.003
1.00103
0.999093
0.997288
0.99575
0.994581
1.01023
1.01002
1.0092
1.00814
1.00666
1.00494
1.00302
1.00102
0.999056
0.997223
0.99566
0.99447
1.01034
1.01013
1.0093
1.00823
1.00673
1.00499
1.00304
1.00102
0.999019
0.997157
0.995568
0.994356
1.01044
1.01024
1.0094
1.00833
1.00681
1.00504
1.00307
1.00101
0.998981
0.99709
0.995474
0.994239
1.01055
1.01035
1.00951
1.00842
1.00689
1.0051
1.00309
1.00101
0.998943
0.997021
0.995378
0.99412
1.01067
1.01046
1.00961
1.00852
1.00696
1.00515
1.00312
1.001
0.998903
0.99695
0.995279
0.993998
1.01078
1.01058
1.00972
1.00862
1.00704
1.00521
1.00314
1.00099
0.998864
0.996879
0.995179
0.993874
1.0109
1.0107
1.00983
1.00872
1.00713
1.00527
1.00317
1.00099
0.998823
0.996806
0.995077
0.993747
1.01102
1.01082
1.00995
1.00883
1.00721
1.00533
1.0032
1.00098
0.998782
0.996731
0.994973
0.993618
1.01114
1.01095
1.01007
1.00894
1.0073
1.00539
1.00323
1.00098
0.998739
0.996655
0.994866
0.993486
1.01127
1.01108
1.01019
1.00905
1.00739
1.00545
1.00326
1.00097
0.998697
0.996577
0.994757
0.993351
1.0114
1.01121
1.01031
1.00916
1.00748
1.00552
1.00329
1.00097
0.998653
0.996498
0.994646
0.993213
1.01153
1.01134
1.01044
1.00928
1.00758
1.00559
1.00332
1.00096
0.998608
0.996417
0.994532
0.993073
1.01166
1.01148
1.01057
1.00939
1.00767
1.00565
1.00335
1.00095
0.998563
0.996334
0.994416
0.992929
1.0118
1.01162
1.0107
1.00952
1.00777
1.00572
1.00338
1.00095
0.998516
0.996249
0.994298
0.992783
1.01193
1.01176
1.01083
1.00964
1.00787
1.0058
1.00342
1.00094
0.998468
0.996162
0.994176
0.992634
1.01208
1.0119
1.01097
1.00977
1.00798
1.00587
1.00345
1.00094
0.99842
0.996074
0.994053
0.992481
1.01222
1.01205
1.01111
1.00989
1.00808
1.00594
1.00348
1.00093
0.99837
0.995983
0.993926
0.992326
1.01237
1.0122
1.01126
1.01003
1.00819
1.00602
1.00352
1.00092
0.998319
0.995891
0.993797
0.992167
1.01252
1.01236
1.0114
1.01016
1.0083
1.0061
1.00355
1.00091
0.998266
0.995796
0.993666
0.992005
1.01267
1.01251
1.01155
1.0103
1.00841
1.00617
1.00359
1.0009
0.998212
0.995699
0.993531
0.99184
1.01283
1.01267
1.01171
1.01044
1.00852
1.00625
1.00363
1.0009
0.998157
0.9956
0.993394
0.991671
1.01299
1.01284
1.01186
1.01058
1.00864
1.00633
1.00367
1.00089
0.9981
0.995499
0.993253
0.9915
1.01315
1.013
1.01202
1.01072
1.00876
1.00642
1.0037
1.00088
0.998042
0.995396
0.99311
0.991324
1.01332
1.01317
1.01219
1.01087
1.00888
1.0065
1.00374
1.00087
0.997983
0.99529
0.992964
0.991146
1.01349
1.01335
1.01235
1.01102
1.009
1.00659
1.00378
1.00086
0.997922
0.995182
0.992815
0.990964
1.01366
1.01353
1.01252
1.01118
1.00913
1.00667
1.00382
1.00085
0.99786
0.995072
0.992663
0.990778
1.01384
1.01371
1.01269
1.01134
1.00926
1.00676
1.00386
1.00084
0.997796
0.994959
0.992507
0.990589
1.01402
1.01389
1.01287
1.0115
1.00939
1.00686
1.0039
1.00082
0.997731
0.994844
0.992349
0.990396
1.0142
1.01408
1.01305
1.01166
1.00952
1.00695
1.00394
1.00081
0.997664
0.994726
0.992187
0.9902
1.01439
1.01427
1.01323
1.01183
1.00966
1.00704
1.00399
1.0008
0.997595
0.994606
0.992022
0.989999
1.01458
1.01447
1.01342
1.012
1.00979
1.00714
1.00403
1.00079
0.997525
0.994482
0.991853
0.989795
1.01477
1.01467
1.01361
1.01217
1.00994
1.00724
1.00407
1.00077
0.997453
0.994357
0.991681
0.989587
1.01497
1.01487
1.01381
1.01235
1.01008
1.00734
1.00412
1.00076
0.997379
0.994228
0.991505
0.989374
1.01518
1.01508
1.01401
1.01253
1.01023
1.00744
1.00416
1.00074
0.997303
0.994096
0.991326
0.989158
1.01538
1.01529
1.01421
1.01272
1.01038
1.00754
1.00421
1.00073
0.997225
0.993961
0.991143
0.988937
1.01559
1.01551
1.01442
1.01291
1.01053
1.00765
1.00425
1.00071
0.997145
0.993824
0.990956
0.988713
1.01581
1.01573
1.01463
1.0131
1.01069
1.00775
1.0043
1.00069
0.997062
0.993683
0.990765
0.988483
1.01603
1.01595
1.01485
1.0133
1.01085
1.00786
1.00434
1.00067
0.996978
0.993539
0.990571
0.988249
1.01625
1.01618
1.01507
1.0135
1.01101
1.00797
1.00439
1.00065
0.996891
0.993391
0.990371
0.988011
1.01648
1.01642
1.01529
1.0137
1.01117
1.00809
1.00444
1.00063
0.996803
0.99324
0.990168
0.987768
1.01671
1.01666
1.01552
1.01391
1.01134
1.0082
1.00449
1.00061
0.996711
0.993085
0.989961
0.987519
1.01695
1.0169
1.01575
1.01412
1.01151
1.00832
1.00453
1.00059
0.996617
0.992927
0.989749
0.987267
1.01719
1.01715
1.01599
1.01434
1.01169
1.00844
1.00458
1.00056
0.99652
0.992765
0.989532
0.987008
1.01743
1.0174
1.01624
1.01456
1.01187
1.00856
1.00463
1.00054
0.996421
0.992599
0.989311
0.986745
1.01768
1.01766
1.01649
1.01479
1.01205
1.00868
1.00468
1.00051
0.996319
0.992429
0.989085
0.986477
1.01794
1.01793
1.01674
1.01502
1.01223
1.00881
1.00473
1.00048
0.996214
0.992255
0.988854
0.986203
1.0182
1.0182
1.017
1.01526
1.01242
1.00893
1.00478
1.00045
0.996106
0.992077
0.988618
0.985923
1.01847
1.01848
1.01727
1.0155
1.01262
1.00906
1.00483
1.00042
0.995995
0.991894
0.988377
0.985638
1.01874
1.01876
1.01754
1.01574
1.01281
1.00919
1.00489
1.00039
0.99588
0.991707
0.98813
0.985347
1.01902
1.01905
1.01782
1.01599
1.01301
1.00933
1.00494
1.00035
0.995763
0.991516
0.987879
0.98505
1.0193
1.01934
1.0181
1.01625
1.01322
1.00946
1.00499
1.00032
0.995642
0.991319
0.987621
0.984747
1.01959
1.01964
1.01839
1.01651
1.01343
1.0096
1.00504
1.00028
0.995518
0.991118
0.987358
0.984438
1.01989
1.01995
1.01868
1.01678
1.01364
1.00974
1.00509
1.00024
0.995389
0.990911
0.987088
0.984121
1.02019
1.02026
1.01898
1.01705
1.01386
1.00989
1.00515
1.0002
0.995257
0.9907
0.986813
0.983799
1.0205
1.02058
1.01929
1.01733
1.01408
1.01003
1.0052
1.00015
0.99512
0.990482
0.98653
0.983469
1.02082
1.02091
1.01961
1.01762
1.01431
1.01018
1.00525
1.00011
0.99498
0.99026
0.986242
0.983133
1.02114
1.02124
1.01993
1.01791
1.01454
1.01033
1.0053
1.00006
0.994835
0.990031
0.985947
0.982789
1.02147
1.02159
1.02026
1.01821
1.01478
1.01048
1.00536
1.00001
0.994686
0.989796
0.985645
0.982438
1.02181
1.02193
1.0206
1.01851
1.01502
1.01064
1.00541
0.999953
0.994531
0.989555
0.985335
0.982079
1.02215
1.02229
1.02094
1.01882
1.01527
1.0108
1.00546
0.999897
0.994372
0.989307
0.985019
0.981713
1.0225
1.02266
1.02129
1.01914
1.01552
1.01096
1.00551
0.999836
0.994207
0.989053
0.984694
0.981339
1.02286
1.02303
1.02165
1.01946
1.01577
1.01112
1.00557
0.999773
0.994037
0.988792
0.984362
0.980956
1.02323
1.02341
1.02202
1.0198
1.01604
1.01129
1.00562
0.999706
0.993861
0.988523
0.984022
0.980565
1.02361
1.0238
1.0224
1.02014
1.0163
1.01145
1.00567
0.999636
0.99368
0.988248
0.983674
0.980165
1.02399
1.0242
1.02278
1.02048
1.01658
1.01163
1.00572
0.999561
0.993492
0.987964
0.983316
0.979756
1.02438
1.02461
1.02318
1.02084
1.01686
1.0118
1.00576
0.999483
0.993298
0.987673
0.982951
0.979339
1.02478
1.02502
1.02358
1.0212
1.01714
1.01197
1.00581
0.999401
0.993097
0.987373
0.982576
0.978911
1.02519
1.02545
1.024
1.02157
1.01743
1.01215
1.00586
0.999314
0.99289
0.987065
0.982192
0.978475
1.02561
1.02589
1.02442
1.02195
1.01773
1.01233
1.0059
0.999222
0.992674
0.986748
0.981797
0.978028
1.02604
1.02633
1.02485
1.02234
1.01803
1.01252
1.00595
0.999126
0.992453
0.986422
0.981394
0.977571
1.02648
1.02679
1.0253
1.02274
1.01834
1.0127
1.00599
0.999024
0.992222
0.986086
0.980979
0.977103
1.02693
1.02726
1.02575
1.02315
1.01866
1.01289
1.00603
0.998917
0.991984
0.985741
0.980555
0.976625
1.02739
1.02774
1.02622
1.02356
1.01898
1.01308
1.00607
0.998803
0.991736
0.985385
0.980119
0.976135
1.02786
1.02823
1.02669
1.02399
1.01931
1.01327
1.0061
0.998684
0.99148
0.985019
0.979672
0.975635
1.02834
1.02873
1.02718
1.02443
1.01964
1.01347
1.00614
0.998557
0.991214
0.984641
0.979213
0.975122
1.02884
1.02925
1.02768
1.02488
1.01999
1.01366
1.00617
0.998424
0.990939
0.984252
0.978742
0.974597
1.02934
1.02978
1.0282
1.02533
1.02034
1.01386
1.00619
0.998283
0.990653
0.983851
0.978258
0.97406
1.02986
1.03032
1.02872
1.0258
1.02069
1.01406
1.00622
0.998134
0.990356
0.983438
0.977762
0.97351
1.03039
1.03087
1.02926
1.02629
1.02106
1.01427
1.00623
0.997977
0.990048
0.983012
0.977253
0.972947
1.03093
1.03144
1.02982
1.02678
1.02143
1.01447
1.00625
0.997811
0.989729
0.982574
0.97673
0.972371
1.03148
1.03202
1.03038
1.02728
1.02181
1.01467
1.00626
0.997635
0.989396
0.98212
0.976192
0.97178
1.03205
1.03262
1.03097
1.0278
1.0222
1.01488
1.00627
0.99745
0.989052
0.981654
0.97564
0.971176
1.03263
1.03324
1.03157
1.02833
1.02259
1.01509
1.00627
0.997254
0.988693
0.981171
0.975073
0.970556
1.03323
1.03387
1.03218
1.02888
1.02299
1.0153
1.00626
0.997047
0.98832
0.980674
0.974491
0.969922
1.03384
1.03451
1.03281
1.02943
1.0234
1.0155
1.00625
0.996828
0.987932
0.980161
0.973892
0.969272
1.03447
1.03517
1.03346
1.03
1.02382
1.01571
1.00623
0.996597
0.98753
0.979631
0.973277
0.968606
1.03512
1.03586
1.03412
1.03059
1.02425
1.01592
1.0062
0.996352
0.98711
0.979084
0.972644
0.967923
1.03578
1.03656
1.03481
1.03119
1.02469
1.01613
1.00616
0.996094
0.986675
0.978519
0.971994
0.967224
1.03646
1.03727
1.03551
1.03181
1.02513
1.01633
1.00612
0.99582
0.98622
0.977935
0.971326
0.966507
1.03715
1.03801
1.03623
1.03244
1.02558
1.01654
1.00606
0.99553
0.985748
0.977332
0.970639
0.965773
1.03787
1.03877
1.03697
1.03309
1.02604
1.01674
1.00599
0.995224
0.985256
0.976709
0.969932
0.96502
1.0386
1.03955
1.03774
1.03375
1.02651
1.01694
1.00591
0.9949
0.984744
0.976065
0.969205
0.964248
1.03936
1.04035
1.03852
1.03444
1.02698
1.01714
1.00582
0.994557
0.98421
0.9754
0.968458
0.963456
1.04014
1.04118
1.03933
1.03514
1.02746
1.01733
1.00572
0.994194
0.983654
0.974712
0.967689
0.962645
1.04093
1.04203
1.04016
1.03586
1.02795
1.01752
1.00559
0.99381
0.983075
0.974001
0.966898
0.961813
1.04175
1.0429
1.04102
1.0366
1.02845
1.0177
1.00546
0.993403
0.982471
0.973266
0.966085
0.96096
1.0426
1.0438
1.0419
1.03735
1.02896
1.01787
1.0053
0.992973
0.981841
0.972505
0.965247
0.960086
1.04346
1.04473
1.04281
1.03813
1.02947
1.01804
1.00513
0.992518
0.981185
0.971719
0.964386
0.959189
1.04436
1.04569
1.04375
1.03893
1.02999
1.0182
1.00493
0.992035
0.9805
0.970906
0.963499
0.958269
1.04528
1.04667
1.04472
1.03975
1.03051
1.01834
1.00471
0.991525
0.979786
0.970065
0.962587
0.957326
1.04622
1.04769
1.04571
1.04059
1.03104
1.01848
1.00447
0.990984
0.979041
0.969194
0.961648
0.956358
1.0472
1.04873
1.04674
1.04145
1.03157
1.0186
1.0042
0.990411
0.978265
0.968294
0.960682
0.955366
1.0482
1.04981
1.0478
1.04233
1.03211
1.0187
1.00391
0.989805
0.977454
0.967362
0.959688
0.954348
1.04924
1.05093
1.0489
1.04324
1.03265
1.01879
1.00358
0.989164
0.976608
0.966398
0.958665
0.953305
1.0503
1.05208
1.05003
1.04417
1.03319
1.01886
1.00322
0.988484
0.975725
0.9654
0.957611
0.952234
1.0514
1.05327
1.05119
1.04512
1.03373
1.0189
1.00282
0.987765
0.974804
0.964368
0.956527
0.951136
1.05254
1.0545
1.0524
1.0461
1.03427
1.01892
1.00238
0.987003
0.973843
0.963299
0.955411
0.950009
1.05371
1.05578
1.05365
1.0471
1.03481
1.01891
1.00191
0.986196
0.97284
0.962194
0.954263
0.948854
1.05492
1.05709
1.05494
1.04813
1.03534
1.01887
1.00139
0.985343
0.971792
0.96105
0.953081
0.947669
1.05617
1.05846
1.05627
1.04918
1.03587
1.0188
1.00082
0.984439
0.9707
0.959867
0.951865
0.946455
1.05746
1.05987
1.05765
1.05025
1.03638
1.01869
1.00019
0.983483
0.96956
0.958642
0.950614
0.945208
1.0588
1.06133
1.05908
1.05135
1.03689
1.01854
0.999518
0.982471
0.96837
0.957375
0.949326
0.94393
1.06018
1.06285
1.06055
1.05247
1.03737
1.01833
0.99878
0.9814
0.967128
0.956064
0.948001
0.94262
1.06161
1.06443
1.06208
1.05361
1.03784
1.01808
0.997979
0.980268
0.965834
0.954708
0.946639
0.941276
1.06309
1.06606
1.06367
1.05477
1.03828
1.01777
0.997109
0.979071
0.964483
0.953306
0.945237
0.939899
1.06463
1.06777
1.06531
1.05595
1.03869
1.01739
0.996165
0.977805
0.963074
0.951857
0.943795
0.938486
1.06622
1.06953
1.06701
1.05715
1.03906
1.01695
0.995141
0.976467
0.961606
0.950358
0.942313
0.937039
1.06787
1.07137
1.06877
1.05837
1.0394
1.01642
0.994033
0.975054
0.960075
0.948809
0.940789
0.935555
1.06958
1.07329
1.07059
1.05959
1.03968
1.01581
0.992834
0.973562
0.95848
0.947208
0.939222
0.934034
1.07136
1.07529
1.07248
1.06083
1.03991
1.01511
0.991539
0.971987
0.956819
0.945555
0.937613
0.932476
1.07321
1.07737
1.07444
1.06207
1.04007
1.01431
0.990141
0.970325
0.955089
0.943847
0.935958
0.930879
1.07513
1.07954
1.07647
1.06331
1.04016
1.01339
0.988633
0.968574
0.953289
0.942084
0.93426
0.929244
1.07713
1.08181
1.07857
1.06454
1.04016
1.01235
0.987009
0.966728
0.951416
0.940265
0.932515
0.927569
1.07921
1.08419
1.08074
1.06575
1.04006
1.01118
0.985262
0.964785
0.949469
0.938389
0.930725
0.925854
1.08139
1.08668
1.08298
1.06694
1.03984
1.00986
0.983383
0.96274
0.947446
0.936454
0.928887
0.924097
1.08365
1.08928
1.08529
1.06809
1.0395
1.00838
0.981368
0.96059
0.945345
0.934461
0.927003
0.9223
1.08602
1.09201
1.08768
1.0692
1.039
1.00673
0.979206
0.958332
0.943165
0.932407
0.92507
0.92046
1.0885
1.09487
1.09014
1.07023
1.03834
1.00489
0.976893
0.955964
0.940904
0.930294
0.92309
0.918578
1.09109
1.09788
1.09267
1.07119
1.03749
1.00285
0.97442
0.95348
0.938561
0.92812
0.921061
0.916653
1.09381
1.10104
1.09525
1.07205
1.03644
1.0006
0.971781
0.950881
0.936136
0.925885
0.918984
0.914685
1.09666
1.10437
1.09789
1.07278
1.03514
0.998109
0.968969
0.948162
0.933628
0.923589
0.916858
0.912673
1.09966
1.10787
1.10058
1.07335
1.03358
0.995375
0.965978
0.945324
0.931037
0.921233
0.914683
0.910618
1.10282
1.11155
1.1033
1.07374
1.03172
0.992376
0.962803
0.942364
0.928363
0.918816
0.91246
0.90852
1.10615
1.11542
1.10604
1.07391
1.02954
0.989097
0.959439
0.939283
0.925607
0.91634
0.910189
0.906377
1.10967
1.1195
1.10876
1.07382
1.027
0.985523
0.955884
0.936081
0.922769
0.913805
0.90787
0.904191
1.1134
1.12379
1.11146
1.07341
1.02406
0.981639
0.952135
0.932758
0.919851
0.911212
0.905504
0.901961
1.11735
1.1283
1.1141
1.07264
1.02069
0.977432
0.948192
0.929318
0.916856
0.908564
0.903091
0.899686
1.12155
1.13304
1.11662
1.07145
1.01684
0.972892
0.944057
0.925763
0.913784
0.905861
0.900633
0.897367
1.12603
1.13801
1.11899
1.06977
1.01248
0.96801
0.939732
0.922096
0.910641
0.903106
0.898129
0.895004
1.13081
1.14321
1.12115
1.06753
1.00757
0.962781
0.935225
0.918325
0.907429
0.900302
0.895582
0.892597
1.13592
1.14864
1.12301
1.06464
1.00207
0.957204
0.930542
0.914453
0.904153
0.897451
0.892992
0.890145
1.14142
1.15427
1.12449
1.06102
0.995941
0.951284
0.925695
0.91049
0.900817
0.894556
0.89036
0.88765
1.14732
1.16008
1.1255
1.05658
0.989162
0.945031
0.920698
0.906443
0.897428
0.891621
0.887688
0.88511
1.1537
1.16604
1.1259
1.05122
0.981706
0.938461
0.915567
0.902321
0.893991
0.88865
0.884976
0.882526
1.16059
1.17209
1.12557
1.04483
0.97356
0.931599
0.910321
0.898136
0.890514
0.885646
0.882227
0.879899
1.16805
1.17816
1.12433
1.03732
0.964722
0.924478
0.904983
0.8939
0.887004
0.882613
0.879441
0.877228
1.17615
1.18415
1.122
1.02859
0.955206
0.91714
0.899575
0.889624
0.883469
0.879556
0.87662
0.874514
1.18495
1.18991
1.11837
1.01854
0.945045
0.909634
0.894126
0.885322
0.879917
0.876479
0.873764
0.871757
1.19452
1.19529
1.11322
1.00709
0.934295
0.902019
0.88866
0.881007
0.876358
0.873386
0.870875
0.868959
1.20494
1.20005
1.10628
0.994206
0.923038
0.894362
0.883207
0.876695
0.8728
0.870282
0.867953
0.86612
1.21625
1.20392
1.09729
0.979852
0.911383
0.886732
0.877793
0.8724
0.869253
0.867169
0.865001
0.863244
1.22852
1.20655
1.08596
0.964059
0.899472
0.879206
0.872446
0.868137
0.865726
0.864053
0.862019
0.860333
1.24177
1.20749
1.07201
0.946916
0.887472
0.871855
0.867189
0.86392
0.862227
0.860936
0.859016
0.857394
1.25598
1.2062
1.05516
0.928592
0.875578
0.864752
0.862046
0.859763
0.858761
0.857817
0.855984
0.85442
1.2711
1.20204
1.03518
0.90935
0.863997
0.857949
0.857031
0.855682
0.855353
0.854735
0.852981
0.851462
1.28693
1.19419
1.01191
0.889578
0.852964
0.851509
0.852145
0.851638
0.851919
0.851561
0.849865
0.848394
1.30318
1.18168
0.985338
0.869739
0.842632
0.845457
0.847495
0.847844
0.848766
0.848672
0.846986
0.845442
1.31931
1.16338
0.955794
0.850613
0.833297
0.839615
0.842574
0.843567
0.845016
0.845252
0.84368
0.842155
1.33435
1.13786
0.92372
0.832487
0.82546
0.835242
0.839183
0.840821
0.842614
0.842872
0.841104
0.839287
1.34716
1.10422
0.89215
0.815692
0.816274
0.828074
0.832906
0.835661
0.838505
0.839387
0.837809
0.835865
1.35411
1.0581
0.865258
0.808966
0.816167
0.82771
0.831394
0.833729
0.836578
0.837519
0.835916
0.833874
1.35669
0.985605
0.814444
0.784107
0.804954
0.822206
0.828466
0.832219
0.835831
0.837147
0.835769
0.833847
0.997222
0.997022
0.997389
0.998005
0.99844
0.998482
0.998228
0.997915
0.997718
0.997667
0.997695
0.997732
0.997445
0.997269
0.997558
0.998049
0.998396
0.998423
0.998198
0.997916
0.997731
0.997676
0.997699
0.997734
0.99777
0.997585
0.997734
0.998042
0.998283
0.998312
0.998147
0.997919
0.997753
0.997692
0.997705
0.997739
0.998063
0.997817
0.997814
0.997972
0.998146
0.998205
0.998112
0.997938
0.997786
0.997714
0.997714
0.997744
0.998231
0.997926
0.997828
0.997909
0.998061
0.998151
0.998108
0.997967
0.997821
0.997737
0.997724
0.997749
0.998292
0.997974
0.997845
0.997897
0.998033
0.998127
0.998102
0.997978
0.997836
0.997747
0.997726
0.997746
0.998315
0.998018
0.997888
0.997917
0.998023
0.998099
0.998078
0.997969
0.99784
0.997754
0.997729
0.997743
0.998345
0.998073
0.997941
0.997942
0.998012
0.998067
0.998049
0.997959
0.997846
0.997765
0.997735
0.997743
0.998384
0.998127
0.997985
0.997958
0.997999
0.998039
0.998025
0.99795
0.99785
0.997771
0.997736
0.997739
0.998415
0.998167
0.998017
0.99797
0.997989
0.998017
0.998004
0.997939
0.997848
0.997772
0.997735
0.997735
0.998433
0.998193
0.99804
0.997981
0.997984
0.998
0.997984
0.997924
0.997841
0.99777
0.997734
0.997734
0.998441
0.998212
0.99806
0.997992
0.99798
0.997983
0.997963
0.997907
0.997832
0.997767
0.997733
0.997731
0.998445
0.998227
0.998077
0.998
0.997974
0.997965
0.997941
0.99789
0.997822
0.997763
0.99773
0.997725
0.998446
0.998238
0.998089
0.998003
0.997965
0.997948
0.997921
0.997874
0.997812
0.997757
0.997723
0.997714
0.998445
0.998244
0.998094
0.998002
0.997956
0.997932
0.997903
0.997857
0.997799
0.997746
0.997711
0.997699
0.99844
0.998245
0.998095
0.997999
0.997947
0.997917
0.997885
0.997839
0.997783
0.997731
0.997695
0.99768
0.99843
0.998241
0.998093
0.997995
0.997937
0.997901
0.997866
0.997819
0.997763
0.997712
0.997675
0.997659
0.998417
0.998235
0.998089
0.997989
0.997926
0.997884
0.997845
0.997796
0.997741
0.997689
0.997653
0.997636
0.998403
0.998227
0.998083
0.99798
0.997912
0.997865
0.997821
0.997771
0.997715
0.997665
0.997629
0.997612
0.998389
0.998217
0.998075
0.997969
0.997896
0.997843
0.997796
0.997743
0.997688
0.997638
0.997604
0.997587
0.998372
0.998205
0.998062
0.997953
0.997876
0.997819
0.997768
0.997714
0.997659
0.997611
0.997578
0.997562
0.998353
0.998189
0.998046
0.997934
0.997853
0.997792
0.997739
0.997684
0.99763
0.997584
0.997552
0.997536
0.998331
0.998169
0.998026
0.997912
0.997828
0.997764
0.997709
0.997654
0.997601
0.997555
0.997525
0.997509
0.998306
0.998146
0.998003
0.997887
0.997801
0.997735
0.997679
0.997624
0.997571
0.997527
0.997496
0.997481
0.998278
0.99812
0.997977
0.99786
0.997772
0.997705
0.997648
0.997593
0.997541
0.997497
0.997467
0.997452
0.998246
0.998091
0.997949
0.997831
0.997743
0.997675
0.997617
0.997562
0.99751
0.997467
0.997436
0.997421
0.998213
0.99806
0.997919
0.997801
0.997712
0.997644
0.997585
0.99753
0.997478
0.997435
0.997404
0.997389
0.998178
0.998028
0.997888
0.997771
0.997681
0.997612
0.997553
0.997497
0.997445
0.997401
0.99737
0.997355
0.998142
0.997995
0.997856
0.997739
0.997648
0.997578
0.997519
0.997462
0.99741
0.997366
0.997335
0.997319
0.998106
0.997962
0.997824
0.997706
0.997614
0.997544
0.997483
0.997426
0.997373
0.99733
0.997299
0.997283
0.998069
0.997927
0.997791
0.997673
0.997579
0.997507
0.997446
0.997388
0.997335
0.997292
0.99726
0.997245
0.998032
0.997893
0.997757
0.997638
0.997542
0.997469
0.997406
0.997349
0.997296
0.997252
0.997221
0.997205
0.997995
0.997858
0.997721
0.997601
0.997504
0.997429
0.997366
0.997308
0.997254
0.997211
0.997179
0.997164
0.997957
0.997822
0.997685
0.997563
0.997464
0.997388
0.997323
0.997265
0.997212
0.997168
0.997136
0.997121
0.997919
0.997785
0.997647
0.997523
0.997422
0.997344
0.997279
0.997221
0.997167
0.997123
0.997092
0.997077
0.997881
0.997747
0.997609
0.997482
0.997379
0.997299
0.997233
0.997175
0.997121
0.997077
0.997045
0.997031
0.997841
0.997708
0.997569
0.99744
0.997334
0.997253
0.997186
0.997127
0.997073
0.997029
0.996997
0.996983
0.997801
0.997668
0.997527
0.997396
0.997288
0.997205
0.997137
0.997077
0.997023
0.996979
0.996948
0.996934
0.997761
0.997627
0.997485
0.997351
0.99724
0.997155
0.997086
0.997026
0.996971
0.996927
0.996897
0.996884
0.997719
0.997585
0.997441
0.997304
0.997191
0.997104
0.997034
0.996973
0.996918
0.996875
0.996845
0.996833
0.997677
0.997542
0.997395
0.997256
0.99714
0.997051
0.99698
0.996919
0.996864
0.996821
0.996792
0.996781
0.997633
0.997497
0.997349
0.997206
0.997088
0.996997
0.996926
0.996863
0.996809
0.996766
0.996738
0.996728
0.997588
0.997451
0.9973