/*--------------------------------*- C++ -*----------------------------------*\
  =========                 |
  \\      /  F ield         | OpenFOAM: The Open Source CFD Toolbox
   \\    /   O peration     | Website:  https://openfoam.org
    \\  /    A nd           | Version:  6.0
     \\/     M anipulation  |
\*---------------------------------------------------------------------------*/
FoamFile
{
    version     2.0;
    format      ascii;
    class       surfaceScalarField;
    location    "0.3";
    object      phi;
}
// * * * * * * * * * * * * * * * * * * * * * * * * * * * * * * * * * * * * * //

dimensions      [0 3 -1 0 0 0 0];

internalField   nonuniform List<scalar> 
47678
(
2.9812e-05
0.00388594
-1.81472e-10
5.98478e-05
0.00381846
8.91145e-05
0.0036859
0.000116963
0.0034903
0.000142854
0.00323505
0.000166312
0.00292459
0.000186914
0.00256423
0.000204295
0.00216019
0.000218145
0.00171946
0.000228219
0.00124962
0.000234338
0.000759306
0.000259175
0.000236802
2.96232e-05
0.00385632
-4.3066e-10
5.94692e-05
0.00378862
8.85503e-05
0.00365683
0.000116221
0.00346263
0.000141946
0.00320933
0.000165253
0.00290129
0.000185723
0.00254376
0.000202992
0.00214293
0.000216754
0.0017057
0.000226762
0.00123961
0.000232911
0.00075316
0.00025666
0.000235422
2.94356e-05
0.00382688
-8.07934e-10
5.90929e-05
0.00375896
8.79895e-05
0.00362793
0.000115484
0.00343514
0.000141044
0.00318377
0.000164202
0.00287813
0.000184542
0.00252342
0.000201701
0.00212577
0.000215376
0.00169202
0.000225318
0.00122967
0.000231444
0.000747033
0.000254192
0.000233908
2.92494e-05
0.00379764
-1.31734e-09
5.8719e-05
0.0037295
8.7432e-05
0.00359922
0.000114751
0.00340782
0.000140148
0.00315838
0.000163157
0.00285512
0.000183367
0.00250322
0.000200417
0.00210872
0.000214006
0.00167844
0.000223884
0.0012198
0.000229966
0.000740955
0.000251793
0.000232361
2.90646e-05
0.00376858
-1.92481e-09
5.83476e-05
0.00370021
8.68779e-05
0.00357069
0.000114022
0.00338067
0.000139256
0.00313315
0.000162119
0.00283226
0.0001822
0.00248314
0.000199141
0.00209178
0.000212644
0.00166493
0.000222461
0.00120998
0.000228494
0.000734922
0.000249453
0.000230829
2.8881e-05
0.0037397
-2.62409e-09
5.79783e-05
0.00367112
8.6327e-05
0.00354234
0.000113298
0.00335371
0.000138371
0.00310808
0.000161088
0.00280955
0.00018104
0.00246319
0.000197873
0.00207495
0.000211291
0.00165152
0.000221048
0.00120022
0.000227034
0.000728938
0.000247157
0.000229325
2.86985e-05
0.003711
-3.38728e-09
5.76111e-05
0.0036422
8.57792e-05
0.00351417
0.000112578
0.00332691
0.000137491
0.00308316
0.000160063
0.00278697
0.000179888
0.00244336
0.000196614
0.00205822
0.000209947
0.00163819
0.000219644
0.00119052
0.000225587
0.000722994
0.000244896
0.000227844
2.8517e-05
0.00368249
-4.19313e-09
5.72459e-05
0.00361348
8.52346e-05
0.00348618
0.000111862
0.00330028
0.000136616
0.00305841
0.000159045
0.00276455
0.000178744
0.00242366
0.000195364
0.00204161
0.000208612
0.00162494
0.00021825
0.00118089
0.000224153
0.000717094
0.00024267
0.000226376
2.83365e-05
0.00365416
-5.00528e-09
5.68827e-05
0.00358493
8.46931e-05
0.00345837
0.000111151
0.00327382
0.000135748
0.00303382
0.000158033
0.00274226
0.000177607
0.00240409
0.000194121
0.00202509
0.000207286
0.00161177
0.000216865
0.00117131
0.000222729
0.000711228
0.000240477
0.000224918
2.81569e-05
0.00362601
-5.73936e-09
5.65216e-05
0.00355657
8.41549e-05
0.00343074
0.000110444
0.00324753
0.000134884
0.00300938
0.000157028
0.00272012
0.000176477
0.00238464
0.000192887
0.00200868
0.000205968
0.0015987
0.000215489
0.00116179
0.000221314
0.000705405
0.000238318
0.000223472
2.79783e-05
0.00359804
-6.32241e-09
5.61624e-05
0.00352838
8.36198e-05
0.00340328
0.000109742
0.00322141
0.000134026
0.00298509
0.000156029
0.00269812
0.000175355
0.00236532
0.00019166
0.00199238
0.000204659
0.0015857
0.000214121
0.00115233
0.000219909
0.000699615
0.000236186
0.000222038
2.78006e-05
0.00357024
-6.65008e-09
5.58053e-05
0.00350038
8.3088e-05
0.003376
0.000109044
0.00319546
0.000133174
0.00296096
0.000155037
0.00267626
0.00017424
0.00234612
0.000190442
0.00197618
0.000203359
0.00157278
0.000212763
0.00114292
0.000218513
0.000693867
0.000234083
0.000220615
2.76238e-05
0.00354263
-6.61619e-09
5.54503e-05
0.00347255
8.25594e-05
0.00334889
0.00010835
0.00316967
0.000132327
0.00293699
0.000154051
0.00265453
0.000173132
0.00232703
0.000189232
0.00196008
0.000202067
0.00155994
0.000211413
0.00113358
0.000217126
0.000688152
0.000232003
0.000219204
2.7448e-05
0.00351518
-6.1444e-09
5.50974e-05
0.0034449
8.2034e-05
0.00332196
0.000107661
0.00314404
0.000131485
0.00291316
0.000153072
0.00263295
0.000172031
0.00230808
0.000188029
0.00194408
0.000200784
0.00154719
0.000210071
0.00112429
0.000215748
0.000682477
0.000229949
0.000217802
2.7273e-05
0.00348792
-5.17616e-09
5.47465e-05
0.00341743
8.15119e-05
0.00329519
0.000106976
0.00311858
0.000130649
0.00288949
0.000152098
0.0026115
0.000170938
0.00228924
0.000186834
0.00192818
0.000199508
0.00153452
0.000208739
0.00111506
0.000214379
0.000676834
0.000227915
0.000216411
2.7099e-05
0.00346082
-3.70317e-09
5.43978e-05
0.00339013
8.0993e-05
0.0032686
0.000106295
0.00309327
0.000129818
0.00286597
0.000151132
0.00259018
0.000169852
0.00227052
0.000185648
0.00191239
0.000198242
0.00152193
0.000207414
0.00110589
0.000213019
0.000671231
0.000225905
0.000215029
2.69259e-05
0.0034339
-1.77382e-09
5.40512e-05
0.00336301
8.04773e-05
0.00324217
0.000105619
0.00306813
0.000128993
0.00284259
0.000150171
0.00256901
0.000168772
0.00225192
0.000184468
0.00189669
0.000196983
0.00150941
0.000206099
0.00109677
0.000211668
0.000665661
0.000223911
0.000213658
2.67537e-05
0.00340714
5.35335e-10
5.37067e-05
0.00333605
7.9965e-05
0.00321591
0.000104947
0.00304315
0.000128173
0.00281937
0.000149216
0.00254796
0.0001677
0.00223343
0.000183296
0.0018811
0.000195732
0.00149698
0.000204791
0.00108771
0.000210325
0.000660129
0.00022194
0.000212296
2.65825e-05
0.00338056
3.11078e-09
5.33642e-05
0.00330927
7.94558e-05
0.00318982
0.000104279
0.00301833
0.000127358
0.00279629
0.000148268
0.00252705
0.000166634
0.00221507
0.000182132
0.0018656
0.00019449
0.00148462
0.000203492
0.00107871
0.000208991
0.000654628
0.000219981
0.000210943
2.64122e-05
0.00335414
5.84011e-09
5.30239e-05
0.00328266
7.89497e-05
0.0031639
0.000103616
0.00299366
0.000126548
0.00277336
0.000147325
0.00250628
0.000165575
0.00219682
0.000180976
0.0018502
0.000193255
0.00147234
0.000202201
0.00106977
0.000207665
0.000649167
0.000218046
0.0002096
2.62429e-05
0.00332789
8.62671e-09
5.26856e-05
0.00325622
7.84469e-05
0.00313813
0.000102957
0.00296915
0.000125743
0.00275057
0.000146389
0.00248563
0.000164524
0.00217868
0.000179826
0.00183489
0.000192028
0.00146014
0.000200919
0.00106087
0.000206348
0.000643735
0.000216122
0.000208265
2.60745e-05
0.0033018
1.13985e-08
5.23493e-05
0.00322994
7.79471e-05
0.00311254
0.000102301
0.0029448
0.000124943
0.00272793
0.000145458
0.00246511
0.000163478
0.00216066
0.000178685
0.00181969
0.00019081
0.00144801
0.000199644
0.00105204
0.000205039
0.000638343
0.000214221
0.000206939
2.59071e-05
0.00327588
1.41171e-08
5.20151e-05
0.00320383
7.74505e-05
0.0030871
0.00010165
0.0029206
0.000124149
0.00270543
0.000144534
0.00244473
0.00016244
0.00214275
0.00017755
0.00180458
0.000189599
0.00143596
0.000198378
0.00104326
0.000203739
0.00063298
0.000212328
0.000205622
2.57406e-05
0.00325012
1.67735e-08
5.16829e-05
0.00317789
7.69569e-05
0.00306183
0.000101003
0.00289655
0.000123359
0.00268308
0.000143615
0.00242447
0.000161408
0.00212496
0.000176423
0.00178956
0.000188395
0.00142399
0.00019712
0.00103454
0.000202446
0.000627655
0.000210459
0.000204314
2.55751e-05
0.00322453
1.9373e-08
5.13528e-05
0.00315211
7.64664e-05
0.00303671
0.00010036
0.00287266
0.000122575
0.00266086
0.000142703
0.00240434
0.000160383
0.00210728
0.000175303
0.00177464
0.0001872
0.00141209
0.000195869
0.00102586
0.000201162
0.00062236
0.000208597
0.000203015
2.54105e-05
0.0031991
2.19318e-08
5.10247e-05
0.0031265
7.5979e-05
0.00301176
9.97215e-05
0.00284891
0.000121795
0.00263879
0.000141796
0.00238434
0.000159364
0.00208971
0.00017419
0.00175982
0.000186012
0.00140027
0.000194627
0.00101725
0.000199886
0.000617103
0.000206758
0.000201725
2.5247e-05
0.00317383
2.44575e-08
5.06985e-05
0.00310105
7.54945e-05
0.00298696
9.90866e-05
0.00282532
0.00012102
0.00261685
0.000140895
0.00236447
0.000158352
0.00207226
0.000173084
0.00174508
0.000184832
0.00138852
0.000193393
0.00100869
0.000198618
0.000611875
0.000204924
0.000200443
2.50844e-05
0.00314872
2.69485e-08
5.03744e-05
0.00307576
7.50131e-05
0.00296233
9.84557e-05
0.00280188
0.000120251
0.00259506
0.000139999
0.00234472
0.000157346
0.00205491
0.000171985
0.00173045
0.000183659
0.00137685
0.000192166
0.00100018
0.000197359
0.000606684
0.000203114
0.000199169
2.49227e-05
0.00312376
2.93862e-08
5.00523e-05
0.00305063
7.45347e-05
0.00293784
9.78288e-05
0.00277858
0.000119486
0.0025734
0.00013911
0.0023251
0.000156347
0.00203767
0.000170894
0.0017159
0.000182494
0.00136525
0.000190947
0.000991728
0.000196107
0.000601521
0.000201308
0.000197904
2.47621e-05
0.00309897
3.17407e-08
4.97322e-05
0.00302566
7.40593e-05
0.00291352
9.72059e-05
0.00275544
0.000118726
0.00255188
0.000138226
0.0023056
0.000155354
0.00202054
0.000169809
0.00170145
0.000181336
0.00135372
0.000189736
0.00098333
0.000194863
0.000596396
0.000199525
0.000196648
2.46024e-05
0.00307433
3.39718e-08
4.94141e-05
0.00300085
7.3587e-05
0.00288934
9.65869e-05
0.00273244
0.000117971
0.0025305
0.000137347
0.00228622
0.000154368
0.00200352
0.000168731
0.00168708
0.000180185
0.00134227
0.000188533
0.000974981
0.000193627
0.000591299
0.000197747
0.000195399
2.44438e-05
0.00304985
3.60409e-08
4.90979e-05
0.00297619
7.31176e-05
0.00286533
9.59719e-05
0.00270958
0.000117221
0.00250925
0.000136475
0.00226697
0.000153388
0.00198661
0.000167661
0.00167281
0.000179042
0.00133089
0.000187337
0.000966689
0.000192399
0.000586238
0.000195991
0.000194158
2.42861e-05
0.00302553
3.79122e-08
4.87838e-05
0.00295169
7.26511e-05
0.00284146
9.53608e-05
0.00268687
0.000116475
0.00248813
0.000135607
0.00224783
0.000152414
0.0019698
0.000166597
0.00165862
0.000177906
0.00131958
0.000186149
0.000958444
0.000191179
0.000581204
0.000194239
0.000192925
2.41295e-05
0.00300136
3.95643e-08
4.84717e-05
0.00292735
7.21877e-05
0.00281774
9.47536e-05
0.00266431
0.000115734
0.00246716
0.000134746
0.00222882
0.000151446
0.0019531
0.000165539
0.00164453
0.000176778
0.00130834
0.000184968
0.000950257
0.000189967
0.000576208
0.000192509
0.0001917
2.3974e-05
0.00297735
4.09871e-08
4.81616e-05
0.00290316
7.17272e-05
0.00279418
9.41503e-05
0.00264188
0.000114999
0.00244631
0.00013389
0.00220993
0.000150484
0.00193651
0.000164489
0.00163053
0.000175656
0.00129717
0.000183795
0.000942116
0.000188762
0.000571238
0.000190782
0.000190483
2.38194e-05
0.00295348
4.21873e-08
4.78535e-05
0.00287913
7.12697e-05
0.00277076
9.35508e-05
0.0026196
0.000114267
0.00242559
0.000133039
0.00219116
0.000149529
0.00192002
0.000163445
0.00161661
0.000174542
0.00128608
0.000182629
0.000934031
0.000187565
0.000566305
0.000189077
0.000189273
2.36659e-05
0.00292978
4.31804e-08
4.75474e-05
0.00285525
7.08152e-05
0.00274749
9.29552e-05
0.00259746
0.000113541
0.002405
0.000132194
0.0021725
0.00014858
0.00190363
0.000162408
0.00160278
0.000173435
0.00127505
0.000181471
0.000925992
0.000186375
0.000561397
0.000187373
0.000188071
2.35135e-05
0.00290622
4.39913e-08
4.72433e-05
0.00283152
7.03636e-05
0.00272437
9.23635e-05
0.00257546
0.000112819
0.00238455
0.000131354
0.00215397
0.000147636
0.00188735
0.000161377
0.00158904
0.000172335
0.00126409
0.00018032
0.000918009
0.000185193
0.000556527
0.000185691
0.000186877
2.33621e-05
0.00288281
4.46436e-08
4.69413e-05
0.00280794
6.99149e-05
0.0027014
9.17755e-05
0.0025536
0.000112101
0.00236422
0.00013052
0.00213555
0.000146699
0.00187117
0.000160353
0.00157539
0.000171241
0.0012532
0.000179176
0.000910071
0.000184018
0.000551681
0.000184009
0.000185691
2.32117e-05
0.00285956
4.51601e-08
4.66412e-05
0.00278451
6.94691e-05
0.00267857
9.11913e-05
0.00253188
0.000111389
0.00234403
0.000129691
0.00211725
0.000145768
0.0018551
0.000159335
0.00156182
0.000170155
0.00124238
0.00017804
0.000902189
0.000182851
0.000546872
0.000182349
0.000184512
2.30624e-05
0.00283645
4.55547e-08
4.6343e-05
0.00276123
6.90262e-05
0.00265589
9.06109e-05
0.0025103
0.000110681
0.00232396
0.000128867
0.00209906
0.000144842
0.00183912
0.000158324
0.00154834
0.000169076
0.00123163
0.000176911
0.000894351
0.000181691
0.000542087
0.000180687
0.00018334
2.29141e-05
0.00281349
4.58365e-08
4.60469e-05
0.0027381
6.85862e-05
0.00263335
9.00343e-05
0.00248885
0.000109977
0.00230401
0.000128048
0.00208099
0.000143923
0.00182324
0.000157319
0.00153494
0.000168003
0.00122095
0.000175789
0.000886567
0.000180539
0.00053734
0.000179048
0.000182176
2.27669e-05
0.00279067
4.60069e-08
4.57527e-05
0.00271511
6.81491e-05
0.00261095
8.94613e-05
0.00246753
0.000109278
0.0022842
0.000127235
0.00206303
0.000143009
0.00180747
0.000156321
0.00152163
0.000166937
0.00121033
0.000174674
0.000878827
0.000179394
0.000532614
0.000177406
0.00018102
2.26207e-05
0.00276801
4.60688e-08
4.54604e-05
0.00269227
6.77148e-05
0.0025887
8.8892e-05
0.00244636
0.000108583
0.00226451
0.000126426
0.00204519
0.000142101
0.0017918
0.000155329
0.0015084
0.000165878
0.00119978
0.000173566
0.000871142
0.000178256
0.000527927
0.000175789
0.000179871
2.24755e-05
0.00274549
4.6027e-08
4.51701e-05
0.00266958
6.72834e-05
0.00256658
8.83264e-05
0.00242531
0.000107893
0.00224494
0.000125623
0.00202746
0.000141199
0.00177622
0.000154343
0.00149525
0.000164826
0.0011893
0.000172465
0.000863499
0.000177125
0.000523261
0.000174165
0.000178729
2.23314e-05
0.00272311
4.58976e-08
4.48817e-05
0.00264703
6.68547e-05
0.00254461
8.77645e-05
0.00240441
0.000107207
0.0022255
0.000124825
0.00200984
0.000140302
0.00176074
0.000153364
0.00148219
0.00016378
0.00117888
0.000171372
0.00085591
0.000176002
0.000518631
0.000172569
0.000177596
2.21882e-05
0.00270087
4.57069e-08
4.45952e-05
0.00262462
6.64289e-05
0.00252278
8.72061e-05
0.00238363
0.000106526
0.00220618
0.000124032
0.00199233
0.000139411
0.00174536
0.00015239
0.00146921
0.000162741
0.00116853
0.000170285
0.000848363
0.000174885
0.000514022
0.000170966
0.000176469
2.20461e-05
0.00267878
4.54965e-08
4.43106e-05
0.00260235
6.60057e-05
0.00250108
8.66513e-05
0.00236298
0.000105848
0.00218698
0.000123245
0.00197494
0.000138526
0.00173008
0.000151423
0.00145632
0.000161709
0.00115824
0.000169205
0.00084087
0.000173776
0.000509449
0.000169392
0.00017535
2.19049e-05
0.00265683
4.53155e-08
4.40279e-05
0.00258023
6.55854e-05
0.00247953
8.61001e-05
0.00234247
0.000105176
0.0021679
0.000122462
0.00195765
0.000137647
0.0017149
0.000150462
0.0014435
0.000160683
0.00114802
0.000168132
0.000833417
0.000172674
0.000504896
0.000167811
0.000174238
2.17647e-05
0.00263502
4.52199e-08
4.37471e-05
0.00255825
6.51677e-05
0.00245811
8.55524e-05
0.00232208
0.000104507
0.00214895
0.000121684
0.00194047
0.000136773
0.00169981
0.000149507
0.00143077
0.000159663
0.00113787
0.000167066
0.000826017
0.000171579
0.000500379
0.00016626
0.000173133
2.16255e-05
0.00261335
4.52601e-08
4.34681e-05
0.00253641
6.47527e-05
0.00243682
8.50081e-05
0.00230183
0.000103843
0.00213011
0.000120911
0.00192341
0.000135904
0.00168481
0.000148558
0.00141811
0.000158651
0.00112777
0.000166006
0.000818658
0.000170491
0.00049588
0.000164701
0.000172036
2.14872e-05
0.00259182
4.54788e-08
4.31909e-05
0.0025147
6.43404e-05
0.00241567
8.44674e-05
0.0022817
0.000103183
0.0021114
0.000120143
0.00190645
0.000135041
0.00166992
0.000147616
0.00140554
0.000157644
0.00111775
0.000164953
0.000811351
0.00016941
0.000491419
0.000163173
0.000170946
2.13499e-05
0.00257042
4.58998e-08
4.29155e-05
0.00249314
6.39307e-05
0.00239465
8.39301e-05
0.0022617
0.000102527
0.0020928
0.000119379
0.00188959
0.000134184
0.00165511
0.000146679
0.00139304
0.000156644
0.00110778
0.000163907
0.000804083
0.000168336
0.000486975
0.000161636
0.000169862
2.12134e-05
0.00254916
4.65305e-08
4.26419e-05
0.00247171
6.35237e-05
0.00237377
8.33962e-05
0.00224183
0.000101875
0.00207432
0.000118621
0.00187285
0.000133332
0.0016404
0.000145748
0.00138063
0.000155651
0.00109788
0.000162868
0.000796868
0.000167269
0.00048257
0.000160129
0.000168786
2.10779e-05
0.00252804
4.73566e-08
4.23701e-05
0.00245042
6.31193e-05
0.00235302
8.28657e-05
0.00222208
0.000101227
0.00205596
0.000117867
0.00185621
0.000132485
0.00162578
0.000144823
0.00136829
0.000154663
0.00108803
0.000161836
0.00078969
0.000166209
0.000478182
0.000158614
0.000167716
2.09433e-05
0.00250704
4.83518e-08
4.21e-05
0.00242926
6.27174e-05
0.00233241
8.23386e-05
0.00220246
0.000100584
0.00203772
0.000117118
0.00183967
0.000131644
0.00161125
0.000143904
0.00135603
0.000153682
0.00107826
0.00016081
0.000782565
0.000165156
0.000473832
0.000157125
0.000166654
2.08095e-05
0.00248618
4.94777e-08
4.18317e-05
0.00240824
6.23181e-05
0.00231192
8.18148e-05
0.00218296
9.99445e-05
0.00201958
0.000116374
0.00182324
0.000130808
0.00159682
0.000142991
0.00134384
0.000152708
0.00106854
0.00015979
0.000775477
0.000164109
0.000469499
0.000155626
0.000165598
2.06766e-05
0.00246546
5.0696e-08
4.15651e-05
0.00238735
6.19214e-05
0.00229156
8.12943e-05
0.00216359
9.93092e-05
0.00200157
0.000115635
0.00180692
0.000129978
0.00158248
0.000142084
0.00133174
0.000151739
0.00105888
0.000158777
0.000768441
0.000163069
0.000465205
0.000154152
0.000164548
2.05446e-05
0.00244486
5.1969e-08
4.13003e-05
0.00236659
6.15271e-05
0.00227134
8.07771e-05
0.00214434
9.86778e-05
0.00198367
0.0001149
0.00179069
0.000129152
0.00156822
0.000141182
0.0013197
0.000150777
0.00104928
0.000157771
0.000761441
0.000162036
0.000460927
0.000152668
0.000163506
2.04134e-05
0.00242439
5.32693e-08
4.10371e-05
0.00234597
6.11354e-05
0.00225124
8.02632e-05
0.00212521
9.80505e-05
0.00196588
0.00011417
0.00177457
0.000128332
0.00155406
0.000140286
0.00130775
0.000149821
0.00103975
0.000156771
0.000754492
0.00016101
0.000456687
0.000151209
0.00016247
2.0283e-05
0.00240405
5.45751e-08
4.07756e-05
0.00232548
6.07462e-05
0.00223127
7.97526e-05
0.0021062
9.74271e-05
0.00194821
0.000113445
0.00175855
0.000127518
0.00153999
0.000139396
0.00129587
0.000148871
0.00103027
0.000155778
0.000747579
0.00015999
0.000452462
0.000149738
0.000161441
2.01534e-05
0.00238385
5.58762e-08
4.05157e-05
0.00230511
6.03594e-05
0.00221142
7.92452e-05
0.00208732
9.68077e-05
0.00193064
0.000112724
0.00174264
0.000126708
0.001526
0.000138512
0.00128407
0.000147927
0.00102086
0.000154791
0.000740716
0.000158977
0.000448274
0.000148292
0.000160418
2.00247e-05
0.00236376
5.71646e-08
4.02575e-05
0.00228488
5.9975e-05
0.00219171
7.8741e-05
0.00206855
9.61922e-05
0.00191319
0.000112008
0.00172682
0.000125904
0.00151211
0.000137633
0.00127234
0.000146989
0.00101149
0.00015381
0.000733888
0.00015797
0.000444102
0.000146834
0.000159403
1.98967e-05
0.00234381
5.84382e-08
4.00009e-05
0.00226478
5.95931e-05
0.00217211
7.824e-05
0.00204991
9.55806e-05
0.00189585
0.000111296
0.00171111
0.000125104
0.0014983
0.00013676
0.00126068
0.000146058
0.0010022
0.000152836
0.000727111
0.00015697
0.000439965
0.000145403
0.000158394
1.97695e-05
0.00232398
5.9691e-08
3.97459e-05
0.0022448
5.92136e-05
0.00215265
7.77421e-05
0.00203138
9.49729e-05
0.00187862
0.000110589
0.00169549
0.00012431
0.00148458
0.000135893
0.0012491
0.000145132
0.000992953
0.000151868
0.000720368
0.000155976
0.000435842
0.000143959
0.000157391
1.96431e-05
0.00230427
6.09176e-08
3.94925e-05
0.00222495
5.88365e-05
0.0021333
7.72474e-05
0.00201297
9.4369e-05
0.0018615
0.000109887
0.00167997
0.000123521
0.00147094
0.000135031
0.00123759
0.000144212
0.000983772
0.000150906
0.000713674
0.000154989
0.000431754
0.000142547
0.000156396
1.95175e-05
0.00228469
6.21058e-08
3.92407e-05
0.00220523
5.84617e-05
0.00211408
7.67558e-05
0.00199467
9.3769e-05
0.00184448
0.000109189
0.00166455
0.000122737
0.00145739
0.000134175
0.00122615
0.000143299
0.000974643
0.000149951
0.000707014
0.000154008
0.000427681
0.000141123
0.000155407
1.93926e-05
0.00226524
6.32444e-08
3.89905e-05
0.00218563
5.80893e-05
0.00209498
7.62674e-05
0.00197649
9.31728e-05
0.00182758
0.000108495
0.00164923
0.000121958
0.00144393
0.000133324
0.00121478
0.000142391
0.000965576
0.000149001
0.000700403
0.000153034
0.000423642
0.00013973
0.000154424
1.92685e-05
0.0022459
6.43177e-08
3.87418e-05
0.00216616
5.77193e-05
0.002076
7.5782e-05
0.00195843
9.25804e-05
0.00181078
0.000107806
0.001634
0.000121184
0.00143055
0.000132479
0.00120348
0.000141489
0.00095656
0.000148058
0.000693825
0.000152066
0.000419616
0.000138325
0.000153448
1.91451e-05
0.00222669
6.53151e-08
3.84947e-05
0.00214681
5.73516e-05
0.00205715
7.52997e-05
0.00194048
9.19918e-05
0.00179409
0.000107121
0.00161887
0.000120415
0.00141726
0.000131639
0.00119226
0.000140593
0.000947606
0.000147121
0.000687296
0.000151104
0.000415625
0.000136952
0.000152479
1.90225e-05
0.0022076
6.62256e-08
3.82491e-05
0.00212758
5.69862e-05
0.00203841
7.48205e-05
0.00192265
9.14069e-05
0.0017775
0.000106441
0.00160383
0.000119651
0.00140404
0.000130804
0.0011811
0.000139702
0.000938701
0.00014619
0.000680799
0.000150148
0.000411648
0.000135569
0.000151516
1.89006e-05
0.00218863
6.70465e-08
3.8005e-05
0.00210848
5.6623e-05
0.00201979
7.43443e-05
0.00190493
9.08258e-05
0.00176102
0.000105765
0.00158889
0.000118892
0.00139092
0.000129975
0.00117002
0.000138818
0.000929858
0.000145265
0.00067435
0.000149199
0.000407706
0.000134216
0.000150559
1.87795e-05
0.00216979
6.77763e-08
3.77624e-05
0.00208949
5.62622e-05
0.00200129
7.38711e-05
0.00188731
9.02484e-05
0.00174464
0.000105093
0.00157405
0.000118138
0.00137787
0.000129152
0.001159
0.000137939
0.000921064
0.000144346
0.000667934
0.000148256
0.000403778
0.000132852
0.000149609
1.8659e-05
0.00215106
6.8421e-08
3.75214e-05
0.00207063
5.59037e-05
0.00198291
7.3401e-05
0.00186982
8.96746e-05
0.00172837
0.000104426
0.0015593
0.000117389
0.0013649
0.000128333
0.00114806
0.000137066
0.000912331
0.000143434
0.000661565
0.00014732
0.000399886
0.000131515
0.000148665
1.85393e-05
0.00213245
6.89854e-08
3.72818e-05
0.00205189
5.55474e-05
0.00196464
7.29338e-05
0.00185243
8.91046e-05
0.00171219
0.000103763
0.00154463
0.000116644
0.00135202
0.00012752
0.00113718
0.000136198
0.000903646
0.000142527
0.000655227
0.000146389
0.000396007
0.000130168
0.000147727
1.84204e-05
0.00211396
6.9478e-08
3.70437e-05
0.00203326
5.51933e-05
0.0019465
7.24696e-05
0.00183515
8.85382e-05
0.00169613
0.000103104
0.00153007
0.000115905
0.00133922
0.000126713
0.00112637
0.000135337
0.000895022
0.000141626
0.000648937
0.000145465
0.000392164
0.000128847
0.000146795
1.83021e-05
0.00209559
6.9903e-08
3.68071e-05
0.00201476
5.48415e-05
0.00192846
7.20084e-05
0.00181799
8.79754e-05
0.00168016
0.00010245
0.00151559
0.00011517
0.0013265
0.00012591
0.00111562
0.00013448
0.000886444
0.00014073
0.000642677
0.000144546
0.000388332
0.000127515
0.000145869
1.81846e-05
0.00207733
7.02656e-08
3.6572e-05
0.00199637
5.44919e-05
0.00191054
7.15501e-05
0.00180093
8.74163e-05
0.00166429
0.0001018
0.00150121
0.00011444
0.00131386
0.000125113
0.00110495
0.00013363
0.000877926
0.000139841
0.000636465
0.000143634
0.000384537
0.000126209
0.00014495
1.80677e-05
0.00205919
7.05663e-08
3.63383e-05
0.0019781
5.41446e-05
0.00189273
7.10947e-05
0.00178398
8.68607e-05
0.00164852
0.000101153
0.00148691
0.000113714
0.00130129
0.000124321
0.00109434
0.000132785
0.000869455
0.000138958
0.000630282
0.000142728
0.000380753
0.000124892
0.000144036
1.79516e-05
0.00204117
7.08079e-08
3.61062e-05
0.00195995
5.37994e-05
0.00187504
7.06423e-05
0.00176714
8.63087e-05
0.00163286
0.000100512
0.00147271
0.000112994
0.00128881
0.000123534
0.0010838
0.000131945
0.000861043
0.00013808
0.000624146
0.000141827
0.000377004
0.0001236
0.000143128
1.78363e-05
0.00202326
7.09918e-08
3.58754e-05
0.00194191
5.34564e-05
0.00185746
7.01928e-05
0.0017504
8.57603e-05
0.00161729
9.98738e-05
0.00145859
0.000112278
0.0012764
0.000122752
0.00107332
0.000131111
0.000852676
0.000137208
0.00061804
0.000140933
0.000373267
0.000122297
0.000142227
1.77216e-05
0.00200547
7.11258e-08
3.56461e-05
0.00192398
5.31157e-05
0.00183999
6.97461e-05
0.00173377
8.52155e-05
0.00160182
9.92402e-05
0.00144457
0.000111566
0.00126407
0.000121975
0.00106291
0.000130283
0.000844368
0.000136342
0.000611979
0.000140044
0.000369563
0.000121019
0.000141331
1.76076e-05
0.00198779
7.122e-08
3.54183e-05
0.00190617
5.2777e-05
0.00182263
6.93023e-05
0.00171724
8.46741e-05
0.00158645
9.86107e-05
0.00143063
0.00011086
0.00125182
0.000121204
0.00105256
0.000129459
0.000836105
0.000135481
0.000605948
0.000139161
0.000365872
0.000119731
0.000140441
1.74944e-05
0.00197022
7.12939e-08
3.51919e-05
0.00188847
5.24406e-05
0.00180538
6.88614e-05
0.00170082
8.41363e-05
0.00157117
9.79853e-05
0.00141678
0.000110158
0.00123965
0.000120437
0.00104228
0.000128642
0.000827899
0.000134626
0.000599961
0.000138284
0.000362213
0.000118467
0.000139557
1.73819e-05
0.00195277
7.13693e-08
3.49669e-05
0.00187089
5.21063e-05
0.00178824
6.84233e-05
0.0016845
8.36019e-05
0.00155599
9.7364e-05
0.00140302
0.00010946
0.00122755
0.000119676
0.00103206
0.000127829
0.000819738
0.000133777
0.000594004
0.000137413
0.000358566
0.000117193
0.000138679
1.72701e-05
0.00193543
7.14758e-08
3.47434e-05
0.00185341
5.17742e-05
0.00177121
6.79881e-05
0.00166829
8.3071e-05
0.00154091
9.67467e-05
0.00138934
0.000108767
0.00121553
0.000118919
0.0010219
0.000127022
0.000811634
0.000132933
0.000588092
0.000136548
0.000354952
0.000115944
0.000137806
1.7159e-05
0.00191819
7.16408e-08
3.45213e-05
0.00183605
5.14442e-05
0.00175429
6.75557e-05
0.00165218
8.25436e-05
0.00152592
9.61335e-05
0.00137575
0.000108079
0.00120358
0.000118168
0.00101181
0.00012622
0.000803574
0.000132095
0.000582208
0.000135688
0.000351349
0.000114683
0.00013694
1.70486e-05
0.00190107
7.18935e-08
3.43006e-05
0.0018188
5.11163e-05
0.00173747
6.71261e-05
0.00163617
8.20196e-05
0.00151102
9.55242e-05
0.00136224
0.000107395
0.00119171
0.000117421
0.00100178
0.000125424
0.00079557
0.000131262
0.000576367
0.000134834
0.000347777
0.000113448
0.000136079
1.69389e-05
0.00188406
7.22547e-08
3.40814e-05
0.00180166
5.07905e-05
0.00172076
6.66992e-05
0.00162026
8.1499e-05
0.00149622
9.4919e-05
0.00134882
0.000106715
0.00117991
0.000116679
0.000991813
0.000124632
0.000787609
0.000130435
0.000570556
0.000133985
0.000344218
0.000112202
0.000135224
1.68299e-05
0.00186716
7.27417e-08
3.38635e-05
0.00178462
5.04669e-05
0.00170416
6.62752e-05
0.00160445
8.09818e-05
0.00148151
9.43177e-05
0.00133548
0.000106041
0.00116818
0.000115942
0.000981911
0.000123846
0.000779704
0.000129614
0.000564787
0.000133142
0.00034069
0.00011098
0.000134374
1.67217e-05
0.00185036
7.33592e-08
3.36471e-05
0.0017677
5.01454e-05
0.00168766
6.58539e-05
0.00158874
8.0468e-05
0.0014669
9.37203e-05
0.00132223
0.00010537
0.00115653
0.00011521
0.000972065
0.000123065
0.000771841
0.000128797
0.000559046
0.000132305
0.000337173
0.000109747
0.00013353
1.66141e-05
0.00183367
7.41069e-08
3.34321e-05
0.00175088
4.98259e-05
0.00167127
6.54353e-05
0.00157313
7.99576e-05
0.00145238
9.31269e-05
0.00130906
0.000104704
0.00114495
0.000114483
0.000962285
0.00012229
0.000764033
0.000127986
0.000553348
0.000131473
0.000333687
0.000108539
0.000132692
1.65073e-05
0.00181709
7.49733e-08
3.32185e-05
0.00173417
4.95086e-05
0.00165498
6.50195e-05
0.00155762
7.94505e-05
0.00143794
9.25373e-05
0.00129597
0.000104042
0.00113344
0.00011376
0.000952561
0.000121519
0.000756268
0.000127181
0.000547678
0.000130647
0.000330212
0.000107319
0.000131859
1.64011e-05
0.00180061
7.59446e-08
3.30063e-05
0.00171756
4.91933e-05
0.00163879
6.46064e-05
0.0015422
7.89467e-05
0.0014236
9.19516e-05
0.00128296
0.000103385
0.00112201
0.000113043
0.000942903
0.000120753
0.000748556
0.000126381
0.000542049
0.000129826
0.000326767
0.000106124
0.000131032
1.62957e-05
0.00178424
7.70004e-08
3.27955e-05
0.00170106
4.88801e-05
0.00162271
6.4196e-05
0.00152688
7.84463e-05
0.00140935
9.13698e-05
0.00127004
0.000102732
0.00111064
0.00011233
0.000933299
0.000119993
0.000740886
0.000125586
0.000536448
0.000129011
0.000323334
0.000104918
0.000130211
1.6191e-05
0.00176797
7.81226e-08
3.25861e-05
0.00168467
4.85689e-05
0.00160672
6.37883e-05
0.00151167
7.79491e-05
0.00139519
9.07918e-05
0.00125719
0.000102083
0.00109935
0.000111621
0.00092376
0.000119237
0.000733269
0.000124796
0.000530888
0.000128201
0.000319931
0.000103735
0.000129394
1.60869e-05
0.0017518
7.92907e-08
3.23781e-05
0.00166838
4.82598e-05
0.00159084
6.33833e-05
0.00149654
7.74552e-05
0.00138111
9.02176e-05
0.00124443
0.000101438
0.00108813
0.000110918
0.000914276
0.000118487
0.000725693
0.000124012
0.000525355
0.000127396
0.000316539
0.000102541
0.000128584
1.59836e-05
0.00173574
8.04898e-08
3.21714e-05
0.00165219
4.79528e-05
0.00157506
6.2981e-05
0.00148151
7.69646e-05
0.00136713
8.96472e-05
0.00123175
0.000100798
0.00107698
0.000110219
0.000904855
0.000117741
0.00071817
0.000123233
0.000519863
0.000126597
0.000313175
0.000101371
0.000127778
1.58809e-05
0.00171977
8.17043e-08
3.19661e-05
0.0016361
4.76477e-05
0.00155938
6.25813e-05
0.00146658
7.64772e-05
0.00135323
8.90805e-05
0.00121914
0.000100162
0.00106589
0.000109525
0.000895487
0.000117001
0.000710687
0.000122459
0.000514398
0.000125803
0.000309824
0.00010019
0.000126978
1.57789e-05
0.00170391
8.29242e-08
3.17622e-05
0.00162012
4.73447e-05
0.0015438
6.21842e-05
0.00145174
7.5993e-05
0.00133942
8.85176e-05
0.00120662
9.95304e-05
0.00105488
0.000108835
0.000886183
0.000116265
0.000703256
0.00012169
0.000508972
0.000125015
0.000306501
9.90317e-05
0.000126183
1.56777e-05
0.00168815
8.41379e-08
3.15597e-05
0.00160424
4.70437e-05
0.00152831
6.17898e-05
0.00143699
7.5512e-05
0.0013257
8.79585e-05
0.00119417
9.89028e-05
0.00104393
0.00010815
0.000876931
0.000115534
0.000695865
0.000120926
0.000503573
0.000124231
0.000303189
9.78627e-05
0.000125394
1.55771e-05
0.00167249
8.53382e-08
3.13585e-05
0.00158846
4.67447e-05
0.00151292
6.1398e-05
0.00142234
7.50342e-05
0.00131206