1.275 	2.15223e-18 	-2.76991e-20 	-0.0117151 	-0.00295207 	-1.96581e-22
1.825 	2.15223e-18 	-1.39322e-20 	0.121589 	-0.00740157 	1.04762e-21
2.375 	2.15223e-18 	-2.66896e-23 	0.392163 	-0.00799149 	-3.37538e-22
