1.45 	0 	0 	-0.297213
2.35 	0 	0 	-0.131633
