/*--------------------------------*- C++ -*----------------------------------*\
  =========                 |
  \\      /  F ield         | OpenFOAM: The Open Source CFD Toolbox
   \\    /   O peration     | Website:  https://openfoam.org
    \\  /    A nd           | Version:  6.0
     \\/     M anipulation  |
\*---------------------------------------------------------------------------*/
FoamFile
{
    version     2.0;
    format      ascii;
    class       volScalarField;
    location    "2.7";
    object      p;
}
// * * * * * * * * * * * * * * * * * * * * * * * * * * * * * * * * * * * * * //

dimensions      [0 2 -2 0 0 0 0];

internalField   nonuniform List<scalar> 
24000
(
1.00707
1.00691
1.00634
1.00554
1.00454
1.00349
1.0025
1.00165
1.00095
1.00044
1.00002
0.999753
1.00708
1.00698
1.00651
1.00582
1.00492
1.00391
1.00292
1.002
1.00119
1.00057
1
0.99963
1.00708
1.00696
1.00647
1.00576
1.00484
1.00382
1.00283
1.00192
1.00112
1.00053
0.999957
0.999623
1.00708
1.00695
1.00643
1.0057
1.00477
1.00376
1.00277
1.00188
1.00111
1.00052
0.999951
0.999622
1.00709
1.00696
1.00644
1.00572
1.0048
1.0038
1.00283
1.00194
1.00116
1.00056
0.999948
0.99959
1.00709
1.00697
1.00647
1.00575
1.00483
1.00384
1.00287
1.00197
1.00118
1.00056
0.999918
0.999539
1.0071
1.00699
1.00648
1.00576
1.00484
1.00385
1.00286
1.00196
1.00116
1.00053
0.999877
0.999491
1.00711
1.007
1.0065
1.00578
1.00486
1.00386
1.00287
1.00196
1.00115
1.00052
0.999855
0.99946
1.00712
1.00701
1.00653
1.00582
1.00489
1.0039
1.00291
1.002
1.00118
1.00054
0.999854
0.999439
1.00713
1.00703
1.00656
1.00586
1.00494
1.00396
1.00297
1.00205
1.00122
1.00057
0.99986
0.999419
1.00714
1.00705
1.00658
1.0059
1.00499
1.00401
1.00302
1.0021
1.00126
1.00059
0.999859
0.999394
1.00715
1.00706
1.0066
1.00593
1.00503
1.00405
1.00305
1.00213
1.00128
1.0006
0.99985
0.999367
1.00717
1.00707
1.00662
1.00596
1.00507
1.00408
1.00308
1.00215
1.0013
1.0006
0.999838
0.99934
1.00718
1.00709
1.00664
1.00599
1.0051
1.00412
1.00312
1.00218
1.00131
1.0006
0.999828
0.999316
1.00719
1.0071
1.00666
1.00601
1.00513
1.00415
1.00315
1.0022
1.00132
1.0006
0.999819
0.999293
1.00721
1.00711
1.00667
1.00603
1.00516
1.00418
1.00318
1.00223
1.00134
1.00061
0.999811
0.999271
1.00723
1.00713
1.00669
1.00605
1.00518
1.00421
1.00321
1.00225
1.00135
1.00061
0.999803
0.99925
1.00724
1.00715
1.00671
1.00607
1.00521
1.00424
1.00323
1.00227
1.00137
1.00061
0.999796
0.999231
1.00726
1.00717
1.00673
1.00609
1.00523
1.00426
1.00326
1.00229
1.00138
1.00061
0.999789
0.999212
1.00728
1.00719
1.00675
1.00612
1.00526
1.00429
1.00328
1.00231
1.00139
1.00062
0.999783
0.999195
1.0073
1.00722
1.00678
1.00615
1.00529
1.00432
1.00331
1.00234
1.00141
1.00062
0.999779
0.999179
1.00733
1.00724
1.00682
1.00619
1.00533
1.00436
1.00334
1.00236
1.00143
1.00063
0.999775
0.999164
1.00735
1.00727
1.00685
1.00622
1.00536
1.00439
1.00338
1.00239
1.00145
1.00063
0.99977
0.999148
1.00737
1.0073
1.00689
1.00626
1.0054
1.00443
1.00341
1.00242
1.00146
1.00064
0.999766
0.999134
1.0074
1.00734
1.00692
1.0063
1.00545
1.00447
1.00345
1.00244
1.00148
1.00064
0.999761
0.999119
1.00743
1.00737
1.00696
1.00634
1.00549
1.00451
1.00349
1.00247
1.0015
1.00065
0.999757
0.999106
1.00745
1.0074
1.007
1.00638
1.00553
1.00455
1.00352
1.0025
1.00151
1.00065
0.999754
0.999092
1.00748
1.00744
1.00703
1.00642
1.00557
1.00459
1.00356
1.00253
1.00153
1.00066
0.999751
0.99908
1.00751
1.00747
1.00707
1.00647
1.00561
1.00464
1.00359
1.00256
1.00155
1.00067
0.999748
0.999067
1.00754
1.00751
1.00711
1.00651
1.00566
1.00468
1.00363
1.00259
1.00157
1.00067
0.999746
0.999055
1.00757
1.00754
1.00715
1.00655
1.0057
1.00472
1.00367
1.00262
1.00159
1.00068
0.999743
0.999042
1.0076
1.00758
1.0072
1.0066
1.00575
1.00477
1.00371
1.00265
1.00161
1.00069
0.999741
0.999029
1.00764
1.00762
1.00724
1.00665
1.0058
1.00481
1.00375
1.00268
1.00163
1.00069
0.999737
0.999016
1.00767
1.00766
1.00728
1.00669
1.00584
1.00486
1.00379
1.00271
1.00165
1.0007
0.999732
0.999002
1.00771
1.0077
1.00732
1.00674
1.00589
1.0049
1.00383
1.00274
1.00167
1.0007
0.999727
0.998988
1.00774
1.00774
1.00736
1.00678
1.00594
1.00495
1.00386
1.00276
1.00168
1.00071
0.999721
0.998973
1.00778
1.00778
1.0074
1.00682
1.00598
1.00499
1.0039
1.00279
1.0017
1.00071
0.999714
0.998959
1.00782
1.00782
1.00744
1.00687
1.00602
1.00503
1.00394
1.00282
1.00171
1.00071
0.999708
0.998944
1.00786
1.00786
1.00749
1.00691
1.00607
1.00507
1.00397
1.00284
1.00173
1.00072
0.999701
0.998929
1.0079
1.00791
1.00753
1.00696
1.00611
1.00511
1.00401
1.00287
1.00175
1.00072
0.999695
0.998915
1.00795
1.00795
1.00758
1.00701
1.00616
1.00516
1.00404
1.00289
1.00176
1.00072
0.999688
0.998899
1.00799
1.008
1.00763
1.00706
1.00621
1.0052
1.00408
1.00292
1.00178
1.00073
0.999682
0.998885
1.00804
1.00805
1.00768
1.00711
1.00626
1.00525
1.00412
1.00295
1.00179
1.00073
0.999675
0.998869
1.00809
1.0081
1.00774
1.00716
1.00631
1.00529
1.00416
1.00298
1.00181
1.00073
0.999668
0.998854
1.00814
1.00815
1.00779
1.00722
1.00636
1.00534
1.0042
1.00301
1.00183
1.00074
0.999661
0.998837
1.00819
1.00821
1.00785
1.00728
1.00642
1.00539
1.00424
1.00304
1.00185
1.00074
0.999654
0.998821
1.00824
1.00826
1.00791
1.00734
1.00648
1.00545
1.00428
1.00307
1.00186
1.00074
0.999646
0.998804
1.00829
1.00832
1.00796
1.0074
1.00653
1.0055
1.00433
1.00311
1.00188
1.00075
0.999638
0.998786
1.00834
1.00838
1.00802
1.00746
1.00659
1.00555
1.00437
1.00314
1.0019
1.00075
0.99963
0.998768
1.0084
1.00844
1.00808
1.00752
1.00665
1.0056
1.00442
1.00317
1.00192
1.00075
0.999621
0.998749
1.00845
1.0085
1.00814
1.00758
1.00671
1.00566
1.00446
1.0032
1.00194
1.00076
0.999612
0.998728
1.00851
1.00856
1.00821
1.00764
1.00677
1.00571
1.0045
1.00323
1.00195
1.00076
0.999602
0.998707
1.00856
1.00862
1.00827
1.00771
1.00683
1.00577
1.00455
1.00326
1.00197
1.00076
0.999591
0.998685
1.00862
1.00868
1.00833
1.00777
1.00689
1.00582
1.00459
1.0033
1.00199
1.00076
0.99958
0.998662
1.00868
1.00874
1.0084
1.00784
1.00695
1.00588
1.00464
1.00333
1.002
1.00076
0.999567
0.998638
1.00874
1.00881
1.00846
1.0079
1.00701
1.00593
1.00468
1.00336
1.00202
1.00076
0.999554
0.998613
1.0088
1.00887
1.00853
1.00797
1.00708
1.00599
1.00473
1.00339
1.00204
1.00076
0.999539
0.998587
1.00887
1.00894
1.00859
1.00803
1.00714
1.00604
1.00477
1.00342
1.00205
1.00076
0.999524
0.99856
1.00893
1.00901
1.00866
1.0081
1.0072
1.0061
1.00482
1.00345
1.00206
1.00076
0.999508
0.998533
1.00899
1.00908
1.00873
1.00817
1.00726
1.00615
1.00486
1.00348
1.00208
1.00076
0.999491
0.998505
1.00906
1.00915
1.0088
1.00824
1.00733
1.00621
1.00491
1.00351
1.00209
1.00075
0.999474
0.998476
1.00913
1.00922
1.00887
1.00831
1.00739
1.00627
1.00495
1.00354
1.00211
1.00075
0.999456
0.998446
1.0092
1.00929
1.00895
1.00838
1.00746
1.00633
1.005
1.00357
1.00212
1.00075
0.999438
0.998416
1.00927
1.00937
1.00902
1.00846
1.00753
1.00639
1.00505
1.00361
1.00214
1.00075
0.999419
0.998384
1.00934
1.00945
1.0091
1.00853
1.0076
1.00645
1.00509
1.00364
1.00215
1.00074
0.9994
0.998352
1.00941
1.00953
1.00918
1.00861
1.00767
1.00651
1.00514
1.00367
1.00217
1.00074
0.99938
0.998319
1.00949
1.00961
1.00926
1.00869
1.00775
1.00658
1.00519
1.00371
1.00218
1.00073
0.999359
0.998284
1.00956
1.00969
1.00934
1.00877
1.00782
1.00664
1.00525
1.00374
1.0022
1.00073
0.999338
0.998248
1.00964
1.00977
1.00942
1.00885
1.0079
1.00671
1.0053
1.00377
1.00221
1.00072
0.999315
0.99821
1.00972
1.00986
1.00951
1.00894
1.00797
1.00677
1.00535
1.00381
1.00222
1.00072
0.999292
0.998172
1.0098
1.00994
1.00959
1.00902
1.00805
1.00684
1.0054
1.00384
1.00223
1.00071
0.999267
0.998132
1.00988
1.01003
1.00968
1.0091
1.00813
1.00691
1.00545
1.00387
1.00225
1.0007
0.999241
0.99809
1.00996
1.01012
1.00977
1.00919
1.00821
1.00697
1.0055
1.0039
1.00226
1.00069
0.999214
0.998047
1.01004
1.01021
1.00986
1.00928
1.00829
1.00704
1.00555
1.00394
1.00227
1.00068
0.999186
0.998004
1.01013
1.0103
1.00995
1.00937
1.00837
1.00711
1.00561
1.00397
1.00228
1.00067
0.999156
0.997959
1.01022
1.01039
1.01004
1.00945
1.00845
1.00718
1.00566
1.004
1.00229
1.00066
0.999126
0.997913
1.01031
1.01049
1.01013
1.00954
1.00853
1.00725
1.00571
1.00403
1.0023
1.00064
0.999094
0.997865
1.0104
1.01058
1.01023
1.00964
1.00861
1.00732
1.00576
1.00406
1.0023
1.00063
0.999062
0.997818
1.01049
1.01068
1.01032
1.00973
1.00869
1.00739
1.00581
1.00409
1.00231
1.00061
0.999028
0.997768
1.01059
1.01078
1.01042
1.00982
1.00878
1.00746
1.00586
1.00412
1.00232
1.0006
0.998994
0.997719
1.01068
1.01088
1.01052
1.00992
1.00886
1.00753
1.00592
1.00415
1.00232
1.00058
0.998959
0.997667
1.01078
1.01098
1.01062
1.01002
1.00895
1.0076
1.00597
1.00418
1.00233
1.00057
0.998923
0.997616
1.01088
1.01109
1.01072
1.01011
1.00904
1.00768
1.00602
1.00421
1.00233
1.00055
0.998886
0.997563
1.01098
1.01119
1.01083
1.01021
1.00913
1.00775
1.00607
1.00424
1.00234
1.00053
0.998849
0.997509
1.01109
1.0113
1.01094
1.01032
1.00922
1.00782
1.00613
1.00427
1.00234
1.00051
0.99881
0.997454
1.01119
1.01141
1.01104
1.01042
1.00931
1.0079
1.00618
1.0043
1.00235
1.00049
0.998772
0.997399
1.0113
1.01153
1.01116
1.01053
1.0094
1.00798
1.00623
1.00433
1.00235
1.00047
0.998731
0.997342
1.01141
1.01164
1.01127
1.01063
1.0095
1.00806
1.00629
1.00436
1.00235
1.00045
0.998691
0.997284
1.01152
1.01176
1.01138
1.01074
1.00959
1.00813
1.00634
1.00439
1.00236
1.00043
0.998649
0.997225
1.01163
1.01188
1.0115
1.01086
1.00969
1.00821
1.0064
1.00442
1.00236
1.00041
0.998606
0.997165
1.01175
1.012
1.01162
1.01097
1.00979
1.00829
1.00646
1.00445
1.00236
1.00039
0.998562
0.997103
1.01186
1.01212
1.01174
1.01108
1.00989
1.00838
1.00651
1.00448
1.00236
1.00036
0.998517
0.997041
1.01198
1.01224
1.01186
1.0112
1.00999
1.00846
1.00657
1.00451
1.00236
1.00034
0.998471
0.996976
1.0121
1.01237
1.01198
1.01131
1.01009
1.00854
1.00662
1.00454
1.00237
1.00031
0.998424
0.996911
1.01223
1.0125
1.0121
1.01143
1.01019
1.00862
1.00668
1.00456
1.00237
1.00029
0.998375
0.996844
1.01235
1.01263
1.01223
1.01155
1.0103
1.00871
1.00674
1.00459
1.00236
1.00026
0.998326
0.996776
1.01248
1.01276
1.01236
1.01168
1.0104
1.0088
1.0068
1.00462
1.00236
1.00023
0.998274
0.996706
1.01261
1.01289
1.01249
1.0118
1.01051
1.00888
1.00686
1.00465
1.00236
1.0002
0.998222
0.996635
1.01274
1.01303
1.01263
1.01193
1.01062
1.00897
1.00691
1.00468
1.00236
1.00017
0.998168
0.996561
1.01287
1.01317
1.01276
1.01206
1.01073
1.00906
1.00697
1.00471
1.00236
1.00014
0.998113
0.996487
1.01301
1.01331
1.0129
1.01219
1.01084
1.00915
1.00703
1.00474
1.00235
1.00011
0.998056
0.99641
1.01315
1.01346
1.01304
1.01232
1.01096
1.00925
1.0071
1.00477
1.00235
1.00008
0.997999
0.996333
1.01329
1.01361
1.01319
1.01246
1.01108
1.00934
1.00716
1.0048
1.00234
1.00005
0.997939
0.996252
1.01344
1.01376
1.01334
1.0126
1.0112
1.00944
1.00722
1.00483
1.00234
1.00001
0.997878
0.996171
1.01358
1.01391
1.01349
1.01274
1.01132
1.00953
1.00729
1.00487
1.00233
0.999974
0.997815
0.996087
1.01373
1.01407
1.01364
1.01289
1.01144
1.00963
1.00735
1.0049
1.00233
0.999938
0.997751
0.996001
1.01388
1.01423
1.0138
1.01304
1.01157
1.00973
1.00742
1.00493
1.00232
0.999899
0.997684
0.995912
1.01404
1.01439
1.01396
1.01319
1.0117
1.00984
1.00748
1.00496
1.00232
0.99986
0.997616
0.995822
1.0142
1.01456
1.01412
1.01334
1.01183
1.00994
1.00755
1.00499
1.00231
0.999818
0.997546
0.995729
1.01436
1.01472
1.01429
1.0135
1.01197
1.01005
1.00762
1.00502
1.0023
0.999776
0.997474
0.995634
1.01452
1.0149
1.01445
1.01366
1.0121
1.01016
1.00769
1.00505
1.00229
0.999731
0.997399
0.995536
1.01469
1.01507
1.01463
1.01382
1.01224
1.01027
1.00776
1.00508
1.00228
0.999685
0.997323
0.995436
1.01486
1.01525
1.0148
1.01398
1.01238
1.01038
1.00783
1.00512
1.00227
0.999637
0.997243
0.995332
1.01504
1.01543
1.01498
1.01415
1.01253
1.01049
1.00791
1.00515
1.00226
0.999588
0.997162
0.995226
1.01522
1.01562
1.01517
1.01433
1.01268
1.01061
1.00798
1.00518
1.00224
0.999536
0.997078
0.995116
1.0154
1.01581
1.01535
1.0145
1.01283
1.01072
1.00805
1.00521
1.00223
0.999483
0.996992
0.995005
1.01558
1.016
1.01554
1.01468
1.01298
1.01084
1.00813
1.00524
1.00221
0.999427
0.996902
0.994889
1.01577
1.0162
1.01574
1.01486
1.01314
1.01096
1.0082
1.00527
1.0022
0.99937
0.99681
0.994771
1.01596
1.0164
1.01594
1.01505
1.01329
1.01109
1.00828
1.0053
1.00218
0.99931
0.996715
0.994648
1.01616
1.01661
1.01614
1.01524
1.01346
1.01121
1.00836
1.00533
1.00216
0.999249
0.996618
0.994523
1.01636
1.01682
1.01634
1.01543
1.01362
1.01134
1.00844
1.00536
1.00214
0.999184
0.996516
0.994393
1.01656
1.01703
1.01655
1.01563
1.01379
1.01147
1.00852
1.00539
1.00212
0.999118
0.996413
0.994261
1.01677
1.01725
1.01677
1.01583
1.01396
1.0116
1.0086
1.00542
1.0021
0.999048
0.996305
0.994124
1.01698
1.01747
1.01699
1.01603
1.01413
1.01173
1.00868
1.00545
1.00207
0.998978
0.996195
0.993984
1.0172
1.0177
1.01721
1.01624
1.01431
1.01187
1.00877
1.00548
1.00205
0.998903
0.99608
0.993839
1.01742
1.01793
1.01744
1.01645
1.01449
1.01201
1.00885
1.0055
1.00202
0.998826
0.995963
0.993691
1.01765
1.01817
1.01767
1.01667
1.01468
1.01215
1.00894
1.00553
1.00199
0.998746
0.99584
0.993537
1.01788
1.01841
1.01791
1.01689
1.01487
1.01229
1.00902
1.00556
1.00196
0.998664
0.995716
0.99338
1.01811
1.01865
1.01815
1.01712
1.01506
1.01244
1.00911
1.00559
1.00193
0.998577
0.995585
0.993217
1.01835
1.0189
1.01839
1.01735
1.01525
1.01259
1.0092
1.00561
1.00189
0.998488
0.995452
0.993051
1.01859
1.01916
1.01864
1.01758
1.01545
1.01274
1.00929
1.00564
1.00185
0.998395
0.995314
0.992878
1.01884
1.01942
1.0189
1.01782
1.01566
1.01289
1.00938
1.00566
1.00181
0.998299
0.995172
0.992702
1.01909
1.01969
1.01916
1.01807
1.01587
1.01304
1.00947
1.00569
1.00177
0.998198
0.995024
0.992519
1.01935
1.01996
1.01943
1.01831
1.01608
1.0132
1.00956
1.00571
1.00173
0.998095
0.994873
0.992332
1.01961
1.02024
1.0197
1.01857
1.01629
1.01336
1.00966
1.00573
1.00168
0.997987
0.994716
0.992139
1.01988
1.02052
1.01998
1.01883
1.01651
1.01352
1.00975
1.00575
1.00163
0.997876
0.994555
0.991941
1.02015
1.02081
1.02026
1.01909
1.01674
1.01369
1.00984
1.00577
1.00158
0.997759
0.994387
0.991736
1.02043
1.0211
1.02055
1.01936
1.01696
1.01386
1.00994
1.00579
1.00152
0.99764
0.994215
0.991527
1.02072
1.0214
1.02085
1.01964
1.0172
1.01403
1.01004
1.00581
1.00146
0.997514
0.994037
0.99131
1.02101
1.02171
1.02115
1.01992
1.01743
1.0142
1.01013
1.00582
1.0014
0.997386
0.993854
0.991088
1.02131
1.02202
1.02146
1.02021
1.01767
1.01438
1.01023
1.00584
1.00134
0.997251
0.993664
0.990858
1.02161
1.02234
1.02178
1.0205
1.01792
1.01456
1.01033
1.00585
1.00127
0.997112
0.993469
0.990623
1.02192
1.02267
1.0221
1.0208
1.01817
1.01474
1.01042
1.00586
1.00119
0.996967
0.993267
0.990379
1.02223
1.023
1.02243
1.02111
1.01843
1.01492
1.01052
1.00587
1.00112
0.996818
0.993059
0.990131
1.02256
1.02335
1.02277
1.02142
1.01869
1.01511
1.01062
1.00587
1.00104
0.996662
0.992844
0.989873
1.02289
1.02369
1.02311
1.02174
1.01896
1.0153
1.01072
1.00588
1.00095
0.996501
0.992623
0.989609
1.02322
1.02405
1.02346
1.02206
1.01923
1.0155
1.01082
1.00588
1.00086
0.996333
0.992393
0.989336
1.02357
1.02442
1.02382
1.0224
1.01951
1.01569
1.01092
1.00588
1.00077
0.996161
0.992158
0.989057
1.02392
1.02479
1.02419
1.02274
1.01979
1.01589
1.01102
1.00588
1.00067
0.99598
0.991913
0.988768
1.02428
1.02517
1.02456
1.02308
1.02008
1.0161
1.01112
1.00587
1.00057
0.995794
0.991663
0.988472
1.02465
1.02556
1.02495
1.02344
1.02037
1.0163
1.01122
1.00587
1.00046
0.9956
0.991402
0.988166
1.02502
1.02595
1.02534
1.0238
1.02067
1.01651
1.01132
1.00585
1.00035
0.9954
0.991135
0.987853
1.02541
1.02636
1.02574
1.02417
1.02098
1.01672
1.01142
1.00584
1.00023
0.995191
0.990858
0.987529
1.0258
1.02678
1.02615
1.02455
1.02129
1.01694
1.01152
1.00582
1.0001
0.994975
0.990573
0.987198
1.0262
1.0272
1.02657
1.02494
1.02161
1.01715
1.01162
1.0058
0.999969
0.99475
0.990278
0.986855
1.02661
1.02764
1.027
1.02534
1.02193
1.01738
1.01172
1.00577
0.99983
0.994519
0.989975
0.986503
1.02703
1.02808
1.02744
1.02574
1.02226
1.0176
1.01182
1.00574
0.999684
0.994277
0.989661
0.98614
1.02746
1.02854
1.02789
1.02616
1.0226
1.01783
1.01191
1.00571
0.999531
0.994027
0.989338
0.985768
1.0279
1.029
1.02835
1.02658
1.02294
1.01805
1.01201
1.00567
0.99937
0.993767
0.989003
0.985384
1.02835
1.02948
1.02882
1.02701
1.0233
1.01829
1.0121
1.00562
0.999202
0.993499
0.988659
0.98499
1.02881
1.02997
1.02931
1.02746
1.02365
1.01852
1.01219
1.00557
0.999025
0.993219
0.988302
0.984583
1.02928
1.03047
1.0298
1.02791
1.02402
1.01876
1.01228
1.00551
0.99884
0.99293
0.987936
0.984166
1.02976
1.03098
1.03031
1.02838
1.02439
1.019
1.01237
1.00545
0.998645
0.992628
0.987556
0.983736
1.03026
1.0315
1.03083
1.02885
1.02477
1.01924
1.01246
1.00538
0.998441
0.992317
0.987166
0.983294
1.03076
1.03204
1.03136
1.02934
1.02516
1.01949
1.01254
1.00531
0.998227
0.991993
0.986762
0.982839
1.03128
1.03259
1.03191
1.02984
1.02556
1.01974
1.01262
1.00522
0.998003
0.991659
0.986346
0.982371
1.03181
1.03316
1.03246
1.03035
1.02596
1.01999
1.0127
1.00513
0.997767
0.99131
0.985916
0.981889
1.03235
1.03374
1.03304
1.03087
1.02637
1.02024
1.01277
1.00503
0.997522
0.990949
0.985473
0.981394
1.03291
1.03433
1.03363
1.0314
1.02679
1.0205
1.01284
1.00492
0.997262
0.990574
0.985014
0.980884
1.03348
1.03494
1.03423
1.03195
1.02722
1.02075
1.01291
1.00481
0.996992
0.990186
0.984542
0.98036
1.03406
1.03556
1.03485
1.03251
1.02766
1.02101
1.01296
1.00468
0.996708
0.989782
0.984054
0.97982
1.03466
1.0362
1.03548
1.03309
1.0281
1.02127
1.01302
1.00454
0.99641
0.989364
0.983552
0.979266
1.03528
1.03686
1.03614
1.03368
1.02855
1.02153
1.01307
1.00439
0.996098
0.988929
0.983032
0.978694
1.03591
1.03753
1.03681
1.03428
1.02902
1.02179
1.01311
1.00423
0.995771
0.98848
0.982496
0.978107
1.03655
1.03823
1.03749
1.0349
1.02949
1.02205
1.01314
1.00405
0.995428
0.988011
0.981943
0.977503
1.03722
1.03894
1.0382
1.03554
1.02997
1.02231
1.01317
1.00386
0.995069
0.987527
0.981372
0.976882
1.0379
1.03967
1.03892
1.03619
1.03045
1.02257
1.01319
1.00366
0.994692
0.987023
0.980783
0.976242
1.03859
1.04042
1.03967
1.03685
1.03095
1.02283
1.0132
1.00344
0.994298
0.986501
0.980176
0.975585
1.03931
1.04119
1.04044
1.03754
1.03145
1.02309
1.01319
1.00321
0.993884
0.985958
0.979547
0.974908
1.04005
1.04198
1.04122
1.03824
1.03197
1.02335
1.01318
1.00296
0.993451
0.985397
0.978901
0.974214
1.0408
1.0428
1.04204
1.03896
1.03249
1.0236
1.01315
1.00269
0.992997
0.984812
0.978232
0.973498
1.04158
1.04364
1.04287
1.0397
1.03302
1.02385
1.01312
1.0024
0.992522
0.984207
0.977543
0.972763
1.04238
1.0445
1.04373
1.04045
1.03356
1.0241
1.01306
1.00209
0.992023
0.983578
0.976831
0.972006
1.0432
1.04539
1.04461
1.04123
1.03411
1.02434
1.01299
1.00176
0.991501
0.982926
0.976098
0.971229
1.04405
1.0463
1.04552
1.04202
1.03466
1.02458
1.01291
1.00141
0.990953
0.982249
0.97534
0.970429
1.04491
1.04724
1.04646
1.04284
1.03523
1.0248
1.01281
1.00103
0.99038
0.981547
0.97456
0.969607
1.04581
1.04821
1.04742
1.04368
1.0358
1.02502
1.01268
1.00063
0.989779
0.980817
0.973753
0.968761
1.04673
1.04921
1.04842
1.04454
1.03637
1.02523
1.01254
1.0002
0.989151
0.980062
0.972922
0.967893
1.04768
1.05024
1.04944
1.04542
1.03696
1.02543
1.01237
0.999741
0.988491
0.979276
0.972063
0.966999
1.04865
1.05131
1.0505
1.04633
1.03754
1.02562
1.01217
0.999251
0.987801
0.978462
0.971179
0.966081
1.04966
1.05241
1.05159
1.04725
1.03814
1.02579
1.01195
0.998728
0.987078
0.977617
0.970266
0.965137
1.0507
1.05354
1.05272
1.0482
1.03873
1.02594
1.0117
0.998171
0.986321
0.976741
0.969325
0.964167
1.05177
1.05471
1.05388
1.04918
1.03933
1.02608
1.01142
0.997577
0.985528
0.975831
0.968353
0.96317
1.05287
1.05592
1.05508
1.05018
1.03993
1.02619
1.0111
0.996945
0.984698
0.974889
0.967353
0.962146
1.05401
1.05717
1.05632
1.0512
1.04053
1.02628
1.01075
0.996271
0.983828
0.97391
0.96632
0.961093
1.05518
1.05846
1.0576
1.05225
1.04113
1.02635
1.01035
0.995555
0.982919
0.972896
0.965256
0.960013
1.0564
1.05979
1.05892
1.05333
1.04172
1.02638
1.00991
0.994792
0.981966
0.971844
0.964158
0.958902
1.05765
1.06118
1.06029
1.05443
1.04231
1.02638
1.00943
0.993981
0.980969
0.970754
0.963028
0.957762
1.05895
1.06261
1.06171
1.05555
1.04289
1.02635
1.00889
0.993119
0.979926
0.969622
0.961862
0.95659
1.06029
1.0641
1.06317
1.0567
1.04346
1.02627
1.00831
0.992204
0.978836
0.968451
0.960662
0.955387
1.06167
1.06564
1.06469
1.05787
1.04401
1.02615
1.00766
0.991231
0.977695
0.967236
0.959424
0.954152
1.06311
1.06724
1.06626
1.05907
1.04454
1.02597
1.00695
0.990199
0.976503
0.965978
0.95815
0.952885
1.06459
1.0689
1.06788
1.06029
1.04505
1.02574
1.00617
0.989103
0.975255
0.964675
0.956837
0.951583
1.06613
1.07062
1.06957
1.06153
1.04553
1.02545
1.00532
0.987942
0.973953
0.963326
0.955486
0.950248
1.06773
1.07241
1.07131
1.06279
1.04598
1.02509
1.0044
0.98671
0.972592
0.961928
0.954094
0.948878
1.06938
1.07428
1.07312
1.06406
1.04639
1.02466
1.00339
0.985406
0.971172
0.960482
0.952663
0.947473
1.0711
1.07622
1.07499
1.06535
1.04675
1.02414
1.0023
0.984025
0.969689
0.958985
0.951189
0.94603
1.07289
1.07825
1.07693
1.06665
1.04705
1.02353
1.00111
0.982564
0.968142
0.957438
0.949675
0.944552
1.07474
1.08036
1.07893
1.06795
1.04729
1.02282
0.999817
0.981019
0.966529
0.955838
0.948116
0.943036
1.07667
1.08257
1.08101
1.06926
1.04746
1.022
0.998422
0.979388
0.964848
0.954185
0.946514
0.941483
1.07868
1.08487
1.08316
1.07056
1.04754
1.02106
0.996912
0.977665
0.963097
0.952476
0.944867
0.93989
1.08077
1.08728
1.08539
1.07184
1.04753
1.01998
0.995283
0.975848
0.961274
0.950713
0.943177
0.938258
1.08295
1.0898
1.08769
1.0731
1.0474
1.01877
0.993527
0.973933
0.959378
0.948892
0.94144
0.936586
1.08523
1.09244
1.09006
1.07433
1.04715
1.0174
0.991637
0.971918
0.957407
0.947015
0.939658
0.934875
1.08761
1.09521
1.09251
1.07551
1.04674
1.01586
0.989606
0.969798
0.955359
0.945079
0.937828
0.933122
1.09009
1.09811
1.09503
1.07663
1.04618
1.01414
0.987428
0.967572
0.953234
0.943085
0.935953
0.93133
1.0927
1.10116
1.09762
1.07767
1.04543
1.01222
0.985094
0.965235
0.95103
0.941032
0.934029
0.929496
1.09543
1.10437
1.10028
1.07861
1.04447
1.01009
0.9826
0.962788
0.948748
0.93892
0.93206
0.927622
1.0983
1.10774
1.10299
1.07943
1.04328
1.00773
0.979939
0.960226
0.946384
0.936748
0.930041
0.925707
1.10131
1.11128
1.10575
1.0801
1.04183
1.00513
0.977105
0.95755
0.943942
0.934518
0.927976
0.923751
1.10448
1.11502
1.10855
1.08058
1.04009
1.00227
0.974094
0.954758
0.941419
0.932227
0.925863
0.921753
1.10783
1.11895
1.11137
1.08085
1.03803
0.999143
0.970902
0.951851
0.938817
0.929879
0.923704
0.919715
1.11137
1.12308
1.11418
1.08086
1.03561
0.995722
0.967526
0.948827
0.936136
0.927472
0.921497
0.917635
1.11511
1.12743
1.11697
1.08056
1.0328
0.992
0.963965
0.945691
0.933378
0.925009
0.919245
0.915515
1.11908
1.13201
1.11969
1.0799
1.02956
0.987964
0.960219
0.942442
0.930543
0.92249
0.916946
0.913352
1.12331
1.13682
1.12232
1.07882
1.02585
0.983604
0.956291
0.939085
0.927636
0.919916
0.914603
0.911151
1.12781
1.14186
1.12479
1.07726
1.02164
0.978912
0.952183
0.935623
0.924657
0.91729
0.912215
0.908908
1.13261
1.14714
1.12705
1.07514
1.01688
0.973886
0.947904
0.932062
0.921611
0.914613
0.909784
0.906626
1.13776
1.15265
1.12902
1.07238
1.01155
0.968525
0.943462
0.928406
0.918499
0.911888
0.907311
0.904304
1.14328
1.15837
1.13063
1.0689
1.0056
0.962836
0.938868
0.924664
0.915328
0.909117
0.904799
0.901944
1.14922
1.16427
1.13176
1.0646
0.999008
0.95683
0.934136
0.920841
0.9121
0.906303
0.902247
0.899545
1.15563
1.17034
1.13229
1.05939
0.991757
0.950526
0.929284
0.916948
0.908821
0.90345
0.899658
0.897111
1.16256
1.1765
1.13209
1.05316
0.983831
0.943949
0.924329
0.912991
0.905495
0.900561
0.897035
0.89464
1.17007
1.18268
1.13099
1.04582
0.975234
0.937136
0.919295
0.908982
0.90213
0.89764
0.894379
0.892136
1.17822
1.18879
1.12881
1.03727
0.96598
0.930129
0.914202
0.904929
0.898729
0.894691
0.891692
0.889598
1.18708
1.1947
1.12534
1.02742
0.95611
0.922979
0.909076
0.900843
0.895302
0.89172
0.888979
0.887031
1.19672
1.20022
1.12035
1.01619
0.945681
0.915747
0.903939
0.896732
0.891853
0.888732
0.886243
0.884435
1.20721
1.20514
1.11359
1.00355
0.934782
0.908498
0.898815
0.892606
0.888391
0.885732
0.883487
0.881814
1.21861
1.20917
1.10479
0.989465
0.923527
0.901302
0.893725
0.888473
0.884923
0.882729
0.880717
0.87917
1.23098
1.21196
1.09366
0.973982
0.912063
0.894231
0.888688
0.884344
0.881459
0.87973
0.877942
0.876507
1.24434
1.21309
1.07993
0.957197
0.900562
0.887352
0.883715
0.880222
0.878007
0.876745
0.875172
0.873826
1.25869
1.212
1.06332
0.939291
0.889223
0.880727
0.878818
0.876119
0.874576
0.873781
0.87241
0.871118
1.27396
1.20805
1.04362
0.920542
0.878253
0.874395
0.873996
0.872044
0.871195
0.870884
0.869705
0.868416
1.28998
1.20043
1.02068
0.901351
0.867882
0.868404
0.869246
0.867969
0.867806
0.867951
0.866939
0.865614
1.30642
1.18818
0.994496
0.882183
0.858236
0.862741
0.864647
0.864104
0.864727
0.865372
0.864454
0.862938
1.32278
1.17018
0.965432
0.863825
0.849612
0.857236
0.859715
0.859745
0.861091
0.862319
0.861545
0.859914
1.33808
1.14502
0.933906
0.846443
0.842404
0.853148
0.85636
0.857088
0.859063
0.860565
0.859497
0.857362
1.35117
1.1119
0.902956
0.830165
0.833436
0.845891
0.849951
0.852105
0.855627
0.858021
0.856912
0.854303
1.35844
1.06654
0.876962
0.823957
0.833231
0.84494
0.847785
0.849912
0.854053
0.856838
0.85553
0.852526
1.36131
0.995045
0.827438
0.800083
0.822549
0.83954
0.844748
0.848388
0.853529
0.856747
0.855522
0.852548
0.996075
0.99645
0.997263
0.997745
0.997766
0.997578
0.997478
0.997584
0.997823
0.998047
0.99816
0.998157
0.996595
0.996769
0.997359
0.997735
0.997756
0.997609
0.99753
0.997625
0.997837
0.998039
0.998144
0.998146
0.997091
0.997026
0.997365
0.997648
0.99771
0.997641
0.997598
0.997673
0.99784
0.99801
0.998106
0.998117
0.997389
0.997168
0.997348
0.997596
0.997719
0.997718
0.997692
0.997729
0.997842
0.997975
0.998063
0.998083
0.997552
0.997275
0.997383
0.997619
0.997773
0.997798
0.997761
0.997757
0.997824
0.99793
0.998015
0.998045
0.99768
0.997405
0.997477
0.997682
0.997823
0.997839
0.997789
0.99776
0.997801
0.997893
0.997976
0.998014
0.997822
0.997558
0.997587
0.997739
0.997845
0.99785
0.997797
0.997764
0.997795
0.997874
0.997951
0.997991
0.997966
0.9977
0.99768
0.997777
0.997851
0.997852
0.997808
0.997778
0.997798
0.997862
0.997929
0.997966
0.998086
0.997811
0.99775
0.997804
0.997857
0.997859
0.997822
0.997793
0.997803
0.997851
0.997908
0.997943
0.998172
0.997894
0.997806
0.997832
0.99787
0.997869
0.997836
0.997805
0.997806
0.997843
0.99789
0.997923
0.998233
0.99796
0.997857
0.997862
0.997885
0.997879
0.997846
0.997814
0.99781
0.997838
0.997877
0.997905
0.998281
0.998018
0.997906
0.997893
0.997901
0.997889
0.997856
0.997824
0.997815
0.997835
0.997866
0.997888
0.998323
0.99807
0.997949
0.99792
0.997916
0.997898
0.997865
0.997833
0.99782
0.997832
0.997855
0.997872
0.99836
0.998115
0.997988
0.997945
0.997931
0.997909
0.997875
0.997842
0.997825
0.997829
0.997845
0.997859
0.99839
0.998152
0.99802
0.997969
0.997946
0.997919
0.997884
0.997848
0.997828
0.997827
0.997837
0.997848
0.998415
0.998183
0.99805
0.997991
0.997961
0.99793
0.997891
0.997854
0.99783
0.997825
0.997832
0.99784
0.998435
0.998211
0.998076
0.998011
0.997974
0.997938
0.997897
0.997858
0.997833
0.997825
0.997828
0.997834
0.998453
0.998235
0.998099
0.998028
0.997985
0.997946
0.997903
0.997863
0.997836
0.997825
0.997825
0.997829
0.998468
0.998255
0.998117
0.998042
0.997994
0.997952
0.997908
0.997868
0.997839
0.997826
0.997823
0.997824
0.99848
0.998271
0.998133
0.998054
0.998003
0.997958
0.997913
0.997872
0.997843
0.997827
0.997821
0.997818
0.998489
0.998284
0.998145
0.998063
0.99801
0.997964
0.997918
0.997876
0.997845
0.997827
0.997817
0.997811
0.998495
0.998294
0.998155
0.998072
0.998017
0.997969
0.997922
0.997879
0.997846
0.997825
0.997811
0.997802
0.998499
0.998301
0.998163
0.998079
0.998022
0.997973
0.997925
0.99788
0.997845
0.997821
0.997805
0.997793
0.998501
0.998308
0.99817
0.998085
0.998027
0.997976
0.997926
0.99788
0.997842
0.997816
0.997797
0.997783
0.998503
0.998313
0.998176
0.99809
0.99803
0.997977
0.997925
0.997876
0.997837
0.997808
0.997788
0.997773
0.998504
0.998317
0.998182
0.998094
0.998031
0.997976
0.997922
0.997872
0.99783
0.9978
0.997778
0.997762
0.998504
0.99832
0.998185
0.998095
0.99803
0.997973
0.997917
0.997865
0.997822
0.997791
0.997768
0.997752
0.998504
0.998323
0.998186
0.998095
0.998027
0.997968
0.99791
0.997857
0.997813
0.997781
0.997758
0.997741
0.998502
0.998323
0.998186
0.998092
0.998022
0.997961
0.997902
0.997848
0.997803
0.997771
0.997747
0.997731
0.9985
0.998322
0.998184
0.998087
0.998015
0.997952
0.997893
0.997838
0.997793
0.997761
0.997737
0.99772
0.998495
0.998318
0.998179
0.998081
0.998007
0.997943
0.997883
0.997828
0.997783
0.99775
0.997726
0.997709
0.99849
0.998314
0.998173
0.998073
0.997997
0.997933
0.997873
0.997818
0.997773
0.99774
0.997715
0.997698
0.998482
0.998307
0.998166
0.998063
0.997987
0.997923
0.997863
0.997808
0.997762
0.997728
0.997703
0.997686
0.998474
0.998299
0.998157
0.998054
0.997977
0.997912
0.997852
0.997797
0.997751
0.997717
0.997691
0.997674
0.998465
0.99829
0.998147
0.998042
0.997965
0.997901
0.997841
0.997786
0.99774
0.997705
0.997679
0.997662
0.998455
0.998281
0.998137
0.998031
0.997953
0.99789
0.99783
0.997775
0.997728
0.997693
0.997666
0.997649
0.998445
0.99827
0.998125
0.998018
0.997941
0.997877
0.997819
0.997763
0.997716
0.99768
0.997653
0.997636
0.998434
0.998259
0.998112
0.998005
0.997928
0.997865
0.997806
0.997751
0.997704
0.997667
0.99764
0.997622
0.998422
0.998246
0.998098
0.99799
0.997913
0.997851
0.997793
0.997738
0.99769
0.997654
0.997626
0.997608
0.998409
0.998232
0.998083
0.997975
0.997898
0.997837
0.99778
0.997725
0.997677
0.99764
0.997612
0.997593
0.998396
0.998217
0.998067
0.997958
0.997882
0.997822
0.997765
0.99771
0.997662
0.997625
0.997597
0.997578
0.998381
0.998201
0.998049
0.99794
0.997865
0.997805
0.997749
0.997695
0.997647
0.99761
0.997581
0.997562
0.998366
0.998183
0.99803
0.997921
0.997846
0.997788
0.997732
0.997679
0.997631
0.997593
0.997565
0.997546
0.998349
0.998165
0.99801
0.997901
0.997827
0.997769
0.997715
0.997661
0.997614
0.997576
0.997548
0.997529
0.998331
0.998145
0.997989
0.997879