/*--------------------------------*- C++ -*----------------------------------*\
  =========                 |
  \\      /  F ield         | OpenFOAM: The Open Source CFD Toolbox
   \\    /   O peration     | Website:  https://openfoam.org
    \\  /    A nd           | Version:  6.0
     \\/     M anipulation  |
\*---------------------------------------------------------------------------*/
FoamFile
{
    version     2.0;
    format      ascii;
    class       volVectorField;
    location    "2.7";
    object      U;
}
// * * * * * * * * * * * * * * * * * * * * * * * * * * * * * * * * * * * * * //

dimensions      [0 1 -1 0 0 0 0];

internalField   nonuniform List<vector> 
24000
(
(0.999994 1.75156e-06 -7.96366e-17)
(0.999945 -2.119e-05 1.08438e-16)
(0.999861 -6.91184e-05 -1.9066e-16)
(0.999764 -0.000148676 2.1038e-16)
(0.999685 -0.000253066 -1.03789e-15)
(0.999646 -0.000362157 -6.15243e-16)
(0.999656 -0.000452545 6.29862e-16)
(0.99971 -0.000503803 -1.39551e-15)
(0.9998 -0.000489064 4.38061e-16)
(0.999902 -0.000407129 -3.22093e-16)
(0.999998 -0.000107814 -3.11605e-16)
(1.0011 0.00110567 -4.62203e-16)
(0.999987 1.02477e-06 1.16744e-16)
(0.999899 -5.06658e-05 -1.60461e-16)
(0.999749 -0.000145571 3.56272e-16)
(0.999578 -0.000297063 -8.89635e-17)
(0.999443 -0.000491288 4.61941e-16)
(0.999383 -0.00068661 6.22217e-16)
(0.999412 -0.000842315 -3.50402e-16)
(0.999522 -0.000922346 1.48251e-15)
(0.999693 -0.000879478 -3.11058e-16)
(0.999891 -0.000718279 1.5963e-17)
(1.00001 -0.000188926 8.13957e-17)
(1.00203 0.00164031 1.53872e-16)
(0.999986 -1.86239e-06 -8.89206e-17)
(0.999907 -7.00057e-05 2.1621e-16)
(0.999774 -0.000174605 -1.23482e-16)
(0.999622 -0.000330248 4.51545e-16)
(0.999506 -0.000522922 2.51592e-16)
(0.999462 -0.000708457 2.31419e-16)
(0.999502 -0.000848013 5.1829e-16)
(0.999617 -0.000912006 -6.5904e-16)
(0.999788 -0.000855496 -3.67787e-16)
(0.999993 -0.00069838 -1.29833e-16)
(1.00004 -0.000207832 -2.90413e-17)
(1.00213 0.00122933 4.86786e-16)
(0.999984 -6.18489e-06 -3.79687e-17)
(0.999918 -8.9489e-05 -2.04567e-16)
(0.999809 -0.000201002 -3.15881e-16)
(0.999685 -0.000355441 -2.23857e-16)
(0.999591 -0.000540507 -1.31111e-16)
(0.999558 -0.000714279 -9.05806e-16)
(0.9996 -0.000841681 -1.43496e-15)
(0.999711 -0.000900662 1.63949e-16)
(0.999871 -0.000849173 4.69434e-17)
(1.00008 -0.000711059 6.45301e-16)
(1.00007 -0.000289059 -4.11868e-16)
(1.00198 0.000845488 -5.69507e-16)
(0.999979 -1.11623e-05 6.76416e-17)
(0.999917 -0.000111068 3.30241e-17)
(0.999818 -0.000236317 1.60081e-16)
(0.999705 -0.000400895 -7.56701e-17)
(0.999621 -0.000593077 2.0792e-16)
(0.999592 -0.000771903 1.87152e-16)
(0.999637 -0.000903356 1.45167e-15)
(0.999751 -0.000967628 -9.48454e-17)
(0.999915 -0.00092151 -2.79797e-16)
(1.00015 -0.00078052 7.60384e-17)
(1.00013 -0.000376887 2.84237e-16)
(1.00183 0.000682167 -1.50811e-16)
(0.999974 -1.63718e-05 3.91436e-18)
(0.999913 -0.000132835 -1.90027e-17)
(0.99982 -0.000273676 -2.13666e-17)
(0.999716 -0.000450017 -3.86852e-18)
(0.999643 -0.000649243 -8.62885e-16)
(0.999623 -0.00083059 1.05592e-15)
(0.999676 -0.000960744 2.93013e-17)
(0.9998 -0.00102056 1.46205e-16)
(0.999973 -0.000966006 6.91536e-16)
(1.00023 -0.000804275 -3.40364e-16)
(1.00022 -0.000393634 5.15785e-16)
(1.00176 0.000648469 3.45506e-16)
(0.999967 -2.17612e-05 -3.54229e-18)
(0.999909 -0.000154105 2.04919e-16)
(0.999824 -0.000309711 -2.07818e-16)
(0.999735 -0.000494955 -1.01328e-16)
(0.999678 -0.000695762 4.43439e-16)
(0.999672 -0.000871922 -2.18131e-16)
(0.999738 -0.000991963 -6.04109e-16)
(0.999873 -0.00103814 -3.13403e-16)
(1.00005 -0.000967808 1.22142e-16)
(1.00033 -0.000786355 6.01958e-16)
(1.00034 -0.00037684 -1.21753e-15)
(1.00172 0.000611365 3.16813e-16)
(0.999961 -2.73777e-05 -5.2322e-17)
(0.999904 -0.000175359 7.93327e-17)
(0.999828 -0.000345975 2.39467e-16)
(0.999753 -0.000540154 4.5333e-16)
(0.999711 -0.00074254 2.41325e-16)
(0.99972 -0.000914052 -2.67773e-16)
(0.999798 -0.0010257 -2.91144e-16)
(0.999943 -0.0010613 -1.3955e-16)
(1.00013 -0.000980136 4.82087e-17)
(1.00042 -0.000789856 -1.30384e-16)
(1.00045 -0.000395641 1.04245e-15)
(1.0017 0.000507392 -5.47805e-16)
(0.999953 -3.32319e-05 2.06007e-17)
(0.999898 -0.000196904 -1.94818e-16)
(0.999828 -0.000383529 1.46144e-17)
(0.999762 -0.000588687 -7.23406e-17)
(0.999732 -0.000796074 7.30011e-17)
(0.999752 -0.000968091 -6.11245e-17)
(0.99984 -0.00107837 5.12134e-17)
(0.999994 -0.00111158 5.58823e-16)
(1.00019 -0.00102812 -6.92452e-17)
(1.00049 -0.000836772 -7.8982e-16)
(1.00056 -0.000461415 -8.79422e-16)
(1.00171 0.000363371 9.74587e-16)
(0.999945 -3.93258e-05 7.32159e-17)
(0.999891 -0.00021861 4.86958e-18)
(0.999825 -0.000421602 1.84526e-16)
(0.999767 -0.000638822 -4.83766e-16)
(0.999746 -0.000853102 -1.15451e-16)
(0.999776 -0.00102845 5.22482e-16)
(0.999872 -0.00114124 -4.43788e-16)
(1.00004 -0.00117644 -6.69252e-16)
(1.00024 -0.00109481 2.04966e-16)
(1.00056 -0.000902838 2.05498e-16)
(1.00067 -0.000540823 6.53936e-16)
(1.00173 0.000231394 -1.3783e-16)
(0.999936 -4.56777e-05 -1.00422e-16)
(0.999883 -0.000240294 -2.3122e-17)
(0.999822 -0.00045913 -2.1992e-16)
(0.999771 -0.000688011 3.65873e-17)
(0.99976 -0.000908746 1.67275e-16)
(0.999801 -0.00108677 -3.60572e-16)
(0.999906 -0.00120131 2.70874e-16)
(1.00008 -0.00123759 7.541e-16)
(1.00029 -0.00115679 -5.62233e-16)
(1.00063 -0.00096062 2.24251e-16)
(1.00077 -0.000605079 -8.47139e-16)
(1.00177 0.000133356 -9.03139e-16)
(0.999926 -5.23125e-05 6.51947e-18)
(0.999875 -0.00026189 1.92059e-16)
(0.99982 -0.000495678 -1.9262e-16)
(0.999777 -0.000735343 1.4896e-16)
(0.999776 -0.000961539 -4.57751e-16)
(0.999829 -0.00114071 -2.03935e-16)
(0.999945 -0.00125467 6.63951e-17)
(1.00013 -0.00128909 -3.02856e-16)
(1.00036 -0.00120622 -3.94224e-16)
(1.0007 -0.00100269 3.62923e-16)
(1.00088 -0.000649865 2.85572e-16)
(1.00183 5.94323e-05 1.00546e-17)
(0.999916 -5.92344e-05 2.45303e-17)
(0.999867 -0.000283398 -1.9193e-17)
(0.99982 -0.000531265 5.30748e-16)
(0.999784 -0.000781048 1.53107e-16)
(0.999793 -0.00101242 2.61656e-16)
(0.999858 -0.00119235 -2.92459e-16)
(0.999988 -0.00130453 -1.47895e-16)
(1.00018 -0.00133524 1.20581e-16)
(1.00042 -0.00124836 4.65611e-16)
(1.00078 -0.00103659 -1.21931e-15)
(1.00099 -0.000685706 -4.86462e-16)
(1.0019 -7.59431e-06 5.41504e-16)
(0.999905 -6.64193e-05 -7.5761e-17)
(0.999859 -0.000304794 -6.74323e-17)
(0.999819 -0.000565953 -4.19464e-16)
(0.99979 -0.000825357 -3.31454e-16)
(0.99981 -0.00106226 -2.32283e-16)
(0.999888 -0.00124384 3.65073e-16)
(1.00003 -0.00135474 2.51029e-16)
(1.00024 -0.00138173 -2.76531e-16)
(1.00049 -0.00129059 -3.71061e-16)
(1.00086 -0.00107134 -1.32912e-16)
(1.00109 -0.000722492 6.90848e-16)
(1.00197 -7.6127e-05 -4.81185e-16)
(0.999894 -7.38142e-05 4.07802e-17)
(0.999851 -0.000326039 3.22363e-17)
(0.999819 -0.000599756 4.95487e-17)
(0.999798 -0.000868205 7.90556e-17)
(0.999827 -0.00111101 8.21916e-17)
(0.999916 -0.00129545 -1.48279e-16)
(1.00007 -0.00140639 7.77158e-18)
(1.00029 -0.00143071 -3.83025e-16)
(1.00055 -0.00133601 3.62621e-16)
(1.00094 -0.00111035 1.38218e-15)
(1.0012 -0.000762965 -2.05429e-16)
(1.00204 -0.000145427 6.7013e-16)
(0.999881 -8.13413e-05 -3.93764e-17)
(0.999842 -0.000347088 1.48698e-18)
(0.999818 -0.000632717 1.47871e-16)
(0.999806 -0.000909476 2.09106e-16)
(0.999845 -0.00115816 2.31297e-16)
(0.999944 -0.00134623 -1.50272e-16)
(1.00011 -0.00145829 -2.41971e-16)
(1.00035 -0.00148095 5.91687e-16)
(1.00062 -0.00138342 1.43271e-16)
(1.00101 -0.00115199 -1.48974e-15)
(1.0013 -0.000804893 2.3548e-16)
(1.00212 -0.000211982 2.22169e-17)
(0.999868 -8.89012e-05 9.00949e-17)
(0.999832 -0.000367917 3.31005e-17)
(0.999817 -0.000664982 -3.19617e-16)
(0.999814 -0.000949348 1.37938e-16)
(0.999864 -0.00120355 -5.61431e-17)
(0.999974 -0.00139536 3.67456e-16)
(1.00015 -0.00150901 6.25582e-16)
(1.0004 -0.00153054 1.05329e-16)
(1.00069 -0.00143058 5.10701e-16)
(1.00109 -0.00119375 1.23852e-15)
(1.0014 -0.000846023 1.43263e-15)
(1.0022 -0.000274768 -5.34691e-16)
(0.999855 -9.63749e-05 3.46286e-17)
(0.999822 -0.000388505 -2.7453e-17)
(0.999814 -0.000696777 3.04004e-16)
(0.999822 -0.00098832 -2.77304e-16)
(0.999883 -0.00124769 3.92515e-16)
(1.00001 -0.00144302 4.03403e-18)
(1.0002 -0.0015583 -4.06696e-16)
(1.00046 -0.00157889 1.2823e-16)
(1.00076 -0.00147677 -4.42192e-16)
(1.00117 -0.00123506 -2.16426e-16)
(1.0015 -0.00088646 -5.74631e-16)
(1.00228 -0.000335623 -1.0615e-16)
(0.99984 -0.000103632 -4.15284e-17)
(0.99981 -0.000408825 -2.31168e-16)
(0.99981 -0.000728329 -1.26529e-16)
(0.999829 -0.00102705 1.55298e-16)
(0.999902 -0.00129156 -2.82045e-17)
(1.00004 -0.00149032 -2.62084e-16)
(1.00024 -0.00160724 -5.46576e-17)
(1.00051 -0.0016271 -3.37701e-17)
(1.00083 -0.00152313 -5.30805e-16)
(1.00125 -0.00127731 -3.8938e-16)
(1.00161 -0.000927932 -1.72287e-15)
(1.00237 -0.000396751 1.0215e-15)
(0.999825 -0.000110538 -3.9569e-17)
(0.999796 -0.000428824 2.40663e-16)
(0.999804 -0.000759777 -1.71792e-16)
(0.999834 -0.00106609 7.6678e-17)
(0.999919 -0.00133612 -1.88241e-16)
(1.00007 -0.00153853 -4.26446e-16)
(1.00028 -0.00165731 5.40988e-17)
(1.00057 -0.00167677 -6.90725e-17)
(1.0009 -0.00157132 2.87347e-16)
(1.00134 -0.00132205 4.46609e-16)
(1.0017 -0.000971704 1.54183e-15)
(1.00245 -0.0004585 -9.87882e-16)
(0.999808 -0.000116965 2.84613e-17)
(0.999781 -0.000448435 -1.1204e-17)
(0.999796 -0.000791141 2.72423e-17)
(0.999836 -0.00110568 -6.35941e-17)
(0.999934 -0.00138191 -2.36535e-16)
(1.00009 -0.00158846 -9.46495e-18)
(1.00032 -0.00170947 -1.25475e-16)
(1.00062 -0.00172888 -6.70265e-16)
(1.00097 -0.00162219 4.03864e-16)
(1.00142 -0.00136972 2.18725e-16)
(1.0018 -0.00101761 6.52372e-17)
(1.00254 -0.000519735 2.221e-16)
(0.999791 -0.000122799 3.2555e-17)
(0.999764 -0.000467581 -2.64035e-16)
(0.999786 -0.000822336 5.17003e-16)
(0.999836 -0.0011458 4.92017e-17)
(0.999946 -0.00142895 1.4348e-16)
(1.00012 -0.0016402 8.69844e-16)
(1.00036 -0.00176378 7.154e-16)
(1.00068 -0.00178333 3.62085e-16)
(1.00103 -0.00167534 -9.59484e-16)
(1.0015 -0.00141949 -2.79822e-16)
(1.0019 -0.00106442 9.25521e-17)
(1.00263 -0.000579019 -3.31639e-17)
(0.999772 -0.000127951 -6.10092e-17)
(0.999747 -0.000486198 1.05181e-16)
(0.999775 -0.000853247 -6.97094e-17)
(0.999835 -0.00118623 -8.85333e-17)
(0.999957 -0.00147692 -2.55262e-16)
(1.00014 -0.00169334 -5.05084e-16)
(1.0004 -0.00181972 -2.74542e-16)
(1.00073 -0.00183941 -2.17748e-17)
(1.0011 -0.00172982 2.78073e-16)
(1.00158 -0.00147019 -2.65193e-16)
(1.002 -0.00111109 -1.5644e-15)
(1.00272 -0.000636016 7.92024e-16)
(0.999752 -0.000132354 4.4545e-17)
(0.999728 -0.000504241 6.34637e-18)
(0.999762 -0.000883773 -1.89706e-16)
(0.999832 -0.00122671 -1.45101e-16)
(0.999966 -0.00152539 -8.05271e-17)
(1.00017 -0.00174732 -1.19034e-16)
(1.00044 -0.00187662 -2.17153e-16)
(1.00079 -0.00189635 -2.31683e-16)
(1.00117 -0.00178482 -6.75431e-17)
(1.00166 -0.00152113 -2.46055e-16)
(1.0021 -0.00115733 9.28638e-17)
(1.00282 -0.000691186 -1.57608e-16)
(0.999731 -0.000135967 1.5269e-17)
(0.999708 -0.000521695 1.49456e-16)
(0.999749 -0.000913883 4.09122e-17)
(0.999828 -0.0012671 -1.57133e-17)
(0.999975 -0.00157406 9.88857e-17)
(1.00019 -0.00180177 2.77917e-16)
(1.00048 -0.0019341 1.06984e-16)
(1.00084 -0.00195383 2.676e-16)
(1.00124 -0.00184017 3.1372e-16)
(1.00174 -0.00157239 -3.06174e-16)
(1.0022 -0.00120376 1.00477e-15)
(1.00291 -0.00074536 -6.21884e-16)
(0.999709 -0.000138766 -2.07051e-17)
(0.999688 -0.000538564 -1.95535e-17)
(0.999735 -0.0009436 -1.47817e-16)
(0.999824 -0.00130734 -9.72963e-17)
(0.999984 -0.00162281 -3.4881e-17)
(1.00021 -0.00185653 -1.79e-16)
(1.00052 -0.00199207 1.0419e-17)
(1.00089 -0.00201193 -3.11504e-16)
(1.00131 -0.00189616 -2.70658e-17)
(1.00183 -0.00162453 1.05219e-15)
(1.0023 -0.00125117 4.96235e-16)
(1.00301 -0.00079944 5.30566e-17)
(0.999685 -0.000140749 -9.85093e-18)
(0.999666 -0.000554872 -1.14722e-16)
(0.99972 -0.000972998 -5.0558e-17)
(0.999819 -0.00134753 -7.55439e-17)
(0.999992 -0.00167172 5.57754e-16)
(1.00024 -0.00191168 -1.29234e-16)
(1.00056 -0.00205069 1.53855e-16)
(1.00095 -0.00207094 -1.59869e-16)
(1.00138 -0.00195327 -2.55436e-16)
(1.00191 -0.00167816 -2.65322e-16)
(1.00239 -0.00130021 -1.96376e-17)
(1.0031 -0.000854058 -2.01075e-16)
(0.999661 -0.000141919 3.41101e-17)
(0.999644 -0.000570639 -4.08753e-17)
(0.999704 -0.00100216 1.71713e-16)
(0.999814 -0.00138778 3.46694e-16)
(0.999999 -0.00172094 -5.27399e-16)
(1.00026 -0.00196741 4.99217e-16)
(1.00059 -0.00211019 -2.76084e-16)
(1.001 -0.00213115 -1.44175e-16)
(1.00145 -0.00201186 -1.94242e-16)
(1.00199 -0.00173358 -3.55251e-16)
(1.00249 -0.00135101 -1.50757e-16)
(1.0032 -0.000909069 -1.20655e-16)
(0.999634 -0.000142294 -5.82625e-18)
(0.999621 -0.000585893 -1.56771e-17)
(0.999687 -0.00103114 -1.57905e-17)
(0.999807 -0.00142822 -3.35608e-16)
(1.00001 -0.0017707 -1.44099e-16)
(1.00028 -0.00202395 -1.30529e-17)
(1.00063 -0.00217078 -3.89927e-16)
(1.00106 -0.00219278 7.18716e-16)
(1.00152 -0.00207211 -5.87212e-18)
(1.00208 -0.00179084 2.50966e-16)
(1.00259 -0.00140345 1.77807e-16)
(1.00329 -0.000963988 -5.42966e-18)
(0.999607 -0.000141892 -1.89031e-17)
(0.999596 -0.000600648 1.07942e-16)
(0.999669 -0.00105998 3.21488e-17)
(0.999799 -0.00146895 4.61278e-16)
(1.00001 -0.00182114 2.51748e-16)
(1.0003 -0.00208149 -4.22385e-16)
(1.00067 -0.00223263 1.91804e-16)
(1.00111 -0.0022559 -3.7867e-16)
(1.00159 -0.00213397 1.31121e-15)
(1.00216 -0.0018497 -1.01942e-16)
(1.00269 -0.00145711 2.24279e-17)
(1.00339 -0.00101846 -1.40659e-16)
(0.999578 -0.000140747 -1.97248e-17)
(0.999571 -0.00061492 7.54106e-17)
(0.99965 -0.00108868 -9.0596e-17)
(0.99979 -0.00151 -4.47694e-16)
(1.00002 -0.00187235 4.63613e-16)
(1.00032 -0.00214014 2.71226e-16)
(1.0007 -0.00229581 3.43073e-16)
(1.00116 -0.0023205 1.53528e-16)
(1.00166 -0.00219728 -1.08913e-16)
(1.00224 -0.00190984 5.46975e-16)
(1.00278 -0.00151153 -9.92097e-16)
(1.00349 -0.00107219 1.1197e-15)
(0.999548 -0.000138891 2.74852e-17)
(0.999545 -0.000628717 -1.4433e-16)
(0.999629 -0.00111718 -8.42752e-17)
(0.99978 -0.00155128 -2.68532e-17)
(1.00002 -0.00192429 -1.77318e-16)
(1.00034 -0.00219987 -5.03479e-18)
(1.00074 -0.00236025 -2.82014e-16)
(1.00122 -0.00238639 -2.13473e-16)
(1.00173 -0.00226174 -1.20443e-15)
(1.00233 -0.00197083 -3.97585e-16)
(1.00288 -0.0015662 -2.55628e-16)
(1.00359 -0.00112491 -3.00179e-17)
(0.999517 -0.000136372 1.05407e-17)
(0.999517 -0.000642061 -1.18663e-17)
(0.999608 -0.00114543 -4.26424e-17)
(0.999768 -0.00159269 3.25706e-16)
(1.00002 -0.0019768 -5.53041e-16)
(1.00036 -0.00226051 -4.10452e-16)
(1.00077 -0.00242576 3.5268e-16)
(1.00127 -0.00245332 -2.33466e-17)
(1.0018 -0.00232702 7.29739e-17)
(1.00241 -0.00203225 4.21382e-16)
(1.00298 -0.00162077 -1.68431e-16)
(1.00369 -0.0011766 3.03564e-16)
(0.999484 -0.000133241 -1.51839e-17)
(0.999489 -0.000654976 1.70186e-16)
(0.999587 -0.0011734 2.88708e-16)
(0.999756 -0.00163408 -9.61982e-17)
(1.00002 -0.00202965 4.35754e-17)
(1.00037 -0.00232179 1.82365e-16)
(1.00081 -0.00249204 -4.21063e-16)
(1.00132 -0.00252097 4.43396e-16)
(1.00187 -0.00239275 3.44786e-16)
(1.0025 -0.00209376 -2.84116e-16)
(1.00308 -0.00167497 3.22567e-18)
(1.00379 -0.00122736 -1.90191e-17)
(0.99945 -0.000129562 -4.29745e-18)
(0.99946 -0.000667509 -2.47238e-16)
(0.999564 -0.00120108 -4.853e-17)
(0.999744 -0.00167535 5.79759e-17)
(1.00002 -0.00208262 6.52457e-16)
(1.00039 -0.00238344 5.20983e-17)
(1.00084 -0.00255879 3.90962e-16)
(1.00137 -0.00258902 -7.24225e-16)
(1.00194 -0.00245868 3.63752e-16)
(1.00258 -0.0021552 -4.3701e-16)
(1.00318 -0.00172881 9.3755e-16)
(1.00389 -0.00127736 -4.6564e-16)
(0.999416 -0.000125401 2.14813e-17)
(0.999431 -0.000679715 1.09614e-16)
(0.999541 -0.00122849 -1.1642e-16)
(0.999731 -0.00171644 4.79294e-17)
(1.00002 -0.00213556 -3.92488e-16)
(1.00041 -0.00244523 -1.38202e-16)
(1.00088 -0.00262577 2.26915e-17)
(1.00142 -0.00265729 5.18963e-16)
(1.00201 -0.00252469 3.13272e-16)
(1.00267 -0.00221657 -2.16311e-17)
(1.00327 -0.00178246 1.23533e-15)
(1.00399 -0.0013271 -6.09183e-16)
(0.99938 -0.000120834 1.44417e-18)
(0.9994 -0.00069167 1.1964e-16)
(0.999518 -0.00125572 1.19533e-16)
(0.999718 -0.00175741 -1.44097e-17)
(1.00002 -0.00218846 2.87041e-16)
(1.00042 -0.0025071 3.71211e-16)
(1.00091 -0.00269294 -1.13285e-16)
(1.00148 -0.00272576 5.21331e-16)
(1.00208 -0.00259087 -1.19642e-15)
(1.00275 -0.00227811 -1.32736e-16)
(1.00337 -0.00183626 -1.7783e-15)
(1.00409 -0.00137728 1.40556e-16)
(0.999342 -0.000115934 -6.23037e-17)
(0.999368 -0.000703451 7.44402e-17)
(0.999493 -0.00128291 -2.12734e-17)
(0.999704 -0.00179839 1.55195e-16)
(1.00002 -0.00224143 -2.13721e-16)
(1.00044 -0.00256915 -5.20931e-16)
(1.00095 -0.00276039 -4.00754e-17)
(1.00153 -0.0027946 -3.71597e-16)
(1.00215 -0.00265747 1.27445e-15)
(1.00284 -0.00234012 -4.29412e-17)
(1.00347 -0.00189056 3.81636e-16)
(1.00419 -0.00142824 7.02534e-16)
(0.999304 -0.000110778 1.54937e-17)
(0.999336 -0.000715143 -3.19146e-16)
(0.999468 -0.00131018 1.10002e-16)
(0.99969 -0.00183959 -5.10229e-16)
(1.00002 -0.0022947 2.55305e-16)
(1.00046 -0.0026316 8.45388e-16)
(1.00098 -0.00282837 -2.19219e-16)
(1.00158 -0.00286409 -5.19139e-16)
(1.00222 -0.00272479 -4.0558e-16)
(1.00292 -0.00240295 -8.02037e-17)
(1.00357 -0.00194573 3.95567e-16)
(1.00429 -0.00147994 -6.42405e-16)
(0.999264 -0.000105437 3.55336e-17)
(0.999301 -0.000726816 9.27221e-17)
(0.999441 -0.00133769 -3.3406e-16)
(0.999674 -0.00188121 4.62718e-16)
(1.00002 -0.00234853 -6.95777e-16)
(1.00047 -0.00269476 -6.95096e-16)
(1.00101 -0.00289717 2.65014e-16)
(1.00164 -0.00293452 9.32081e-16)
(1.00229 -0.00279314 -5.25101e-16)
(1.00301 -0.00246686 2.11313e-16)
(1.00367 -0.00200193 -1.70703e-16)
(1.0044 -0.00153255 6.01774e-17)
(0.999224 -9.99849e-05 -6.05273e-18)
(0.999266 -0.000738543 2.00116e-16)
(0.999413 -0.00136554 2.66528e-16)
(0.999657 -0.00192345 -3.1728e-16)
(1.00002 -0.0024032 1.54369e-16)
(1.00049 -0.00275891 4.28191e-16)
(1.00105 -0.0029671 1.44008e-16)
(1.00169 -0.00300617 -9.66064e-17)
(1.00237 -0.00286275 7.36068e-16)
(1.0031 -0.002532 3.74581e-16)
(1.00377 -0.00205922 7.04384e-17)
(1.0045 -0.00158607 6.34947e-17)
(0.999182 -9.44838e-05 1.36071e-17)
(0.999229 -0.000750375 -2.23243e-16)
(0.999384 -0.00139383 -5.89806e-17)
(0.999639 -0.00196646 1.24258e-16)
(1.00002 -0.00245889 7.51259e-16)
(1.0005 -0.00282427 -3.85374e-16)
(1.00108 -0.00303837 -3.28356e-16)
(1.00174 -0.00307921 -7.46252e-17)
(1.00244 -0.00293374 -7.28036e-16)
(1.00318 -0.00259842 4.23335e-16)
(1.00387 -0.00211755 -5.88951e-17)
(1.0046 -0.00164042 3.77706e-16)
(0.99914 -8.90024e-05 -1.07971e-17)
(0.999191 -0.000762365 1.39783e-16)
(0.999353 -0.00142261 -9.64541e-17)
(0.999619 -0.00201032 3.61965e-16)
(1.00001 -0.00251573 -7.05764e-16)
(1.00051 -0.00289099 4.95928e-16)
(1.00111 -0.00311109 -4.82523e-17)
(1.00179 -0.00315372 -5.04103e-17)
(1.00251 -0.00300612 7.53332e-16)
(1.00327 -0.00266607 -2.90442e-16)
(1.00397 -0.00217687 -2.37667e-16)
(1.00471 -0.00169527 -9.53991e-17)
(0.999096 -8.35981e-05 1.51979e-18)
(0.999151 -0.00077455 -2.60538e-17)
(0.99932 -0.00145189 1.17531e-16)
(0.999597 -0.00205505 -4.01489e-16)
(1 -0.00257374 3.48454e-16)
(1.00052 -0.00295908 1.16604e-16)
(1.00114 -0.00318526 1.67951e-16)
(1.00184 -0.00322966 -8.76949e-16)
(1.00257 -0.0030798 -3.67955e-16)
(1.00335 -0.00273483 -1.32346e-15)
(1.00406 -0.00223718 -6.91721e-16)
(1.00481 -0.00175057 -7.09837e-16)
(0.999052 -7.83363e-05 -1.97301e-17)
(0.99911 -0.000786971 1.80611e-17)
(0.999286 -0.0014817 -2.20244e-16)
(0.999574 -0.00210063 1.448e-17)
(0.999997 -0.00263289 -8.85248e-17)
(1.00053 -0.00302848 5.26952e-18)
(1.00117 -0.00326081 3.1027e-16)
(1.00189 -0.00330695 1.18559e-15)
(1.00264 -0.0031547 1.03075e-16)
(1.00344 -0.00280461 8.25989e-16)
(1.00416 -0.00229827 -1.21181e-16)
(1.00492 -0.00180614 1.28826e-15)
(0.999007 -7.32719e-05 1.89832e-17)
(0.999068 -0.000799661 1.09657e-17)
(0.999251 -0.00151203 2.97645e-16)
(0.99955 -0.00214704 -1.74096e-16)
(0.999989 -0.0026931 -2.03868e-16)
(1.00054 -0.0030991 -2.35478e-16)
(1.0012 -0.00333763 -1.42842e-16)
(1.00194 -0.00338546 -4.7537e-16)
(1.00271 -0.00323071 8.55619e-17)
(1.00352 -0.00287534 8.2068e-16)
(1.00426 -0.00236019 7.96469e-16)
(1.00502 -0.00186187 -1.1441e-15)
(0.998961 -6.84675e-05 -1.93809e-17)
(0.999025 -0.000812663 -2.39753e-16)
(0.999215 -0.0015429 -1.27639e-16)
(0.999525 -0.00219424 2.92384e-17)
(0.999979 -0.00275432 5.11076e-16)
(1.00055 -0.00317085 -4.05286e-16)
(1.00123 -0.00341563 -3.61722e-16)
(1.00199 -0.00346512 -4.47178e-16)
(1.00278 -0.00330777 -5.36122e-16)
(1.00361 -0.00294698 -1.77319e-15)
(1.00436 -0.00242322 -5.92818e-16)
(1.00513 -0.00191789 5.80047e-16)
(0.998914 -6.39747e-05 9.69951e-18)
(0.998981 -0.000826014 2.00236e-16)
(0.999177 -0.00157432 6.03932e-17)
(0.999499 -0.00224222 3.72629e-16)
(0.999968 -0.00281648 -5.89895e-16)
(1.00056 -0.00324366 5.75063e-16)
(1.00126 -0.00349472 -6.85922e-18)
(1.00204 -0.00354587 1.05379e-15)
(1.00285 -0.00338587 3.80468e-16)
(1.00369 -0.00301953 2.31245e-15)
(1.00446 -0.00248744 3.29654e-16)
(1.00523 -0.00197416 5.40591e-16)
(0.998867 -5.98512e-05 -1.98034e-17)
(0.998935 -0.000839757 4.30145e-17)
(0.999139 -0.00160633 9.36837e-17)
(0.999472 -0.00229098 -1.45729e-16)
(0.999957 -0.00287959 5.04033e-16)
(1.00057 -0.0033175 -6.06724e-16)
(1.00129 -0.00357488 5.53973e-16)
(1.00209 -0.00362769 -1.422e-16)
(1.00292 -0.003465 2.32119e-16)
(1.00378 -0.00309301 -1.68637e-15)
(1.00455 -0.00255255 1.00171e-15)
(1.00534 -0.00203031 -1.20639e-15)
(0.998819 -5.61406e-05 2.13006e-17)
(0.998889 -0.000853928 -1.19075e-16)
(0.999099 -0.00163895 -1.73122e-16)
(0.999444 -0.00234055 -1.71169e-16)
(0.999944 -0.00294365 5.2213e-17)
(1.00057 -0.00339237 -1.59736e-16)
(1.00131 -0.00365612 -3.01747e-16)
(1.00213 -0.00371058 -6.69623e-16)
(1.00298 -0.00354518 -2.39837e-16)
(1.00386 -0.00316741 3.94134e-16)
(1.00465 -0.0026185 -9.84001e-16)
(1.00545 -0.00208617 6.97486e-16)
(0.99877 -5.28893e-05 5.13249e-17)
(0.998841 -0.000868569 1.44793e-17)
(0.999059 -0.00167223 -4.60691e-17)
(0.999415 -0.00239096 1.24389e-16)
(0.999931 -0.00300867 -6.88299e-16)
(1.00058 -0.0034683 1.16512e-16)
(1.00134 -0.00373845 5.04918e-16)
(1.00218 -0.00379458 -2.81886e-16)
(1.00305 -0.00362641 9.46948e-17)
(1.00395 -0.0032427 -1.24073e-16)
(1.00475 -0.00268534 2.24602e-16)
(1.00555 -0.00214198 -5.25602e-16)
(0.998721 -5.01267e-05 -3.35042e-17)
(0.998793 -0.000883709 7.35954e-17)
(0.999018 -0.00170617 -1.34672e-16)
(0.999385 -0.00244221 -8.06857e-17)
(0.999917 -0.00307468 5.12049e-16)
(1.00058 -0.00354528 2.11791e-16)
(1.00137 -0.00382186 -2.23554e-16)
(1.00223 -0.00387964 4.58566e-16)
(1.00312 -0.00370865 1.50952e-16)
(1.00403 -0.00331881 2.97803e-16)
(1.00485 -0.00275292 -3.06706e-16)
(1.00566 -0.0021976 -1.10398e-17)
(0.998671 -4.78832e-05 -5.13106e-17)
(0.998744 -0.000899384 -2.67107e-17)
(0.998975 -0.00174082 1.3883e-16)
(0.999354 -0.00249431 1.22727e-16)
(0.999902 -0.00314166 1.59636e-16)
(1.00059 -0.0036233 4.31821e-16)
(1.00139 -0.00390633 -1.93785e-16)
(1.00227 -0.00396572 -8.64237e-17)
(1.00318 -0.00379181 -1.8314e-16)
(1.00412 -0.00339563 -6.69612e-18)
(1.00495 -0.00282093 6.63526e-18)
(1.00577 -0.00225275 3.84754e-16)
(0.99862 -4.61703e-05 8.63231e-17)
(0.998693 -0.000915617 -1.39995e-17)
(0.998932 -0.00177617 1.60477e-16)
(0.999322 -0.00254724 -7.33202e-17)
(0.999887 -0.00320957 -1.40547e-16)
(1.00059 -0.00370232 -5.68521e-16)
(1.00142 -0.00399179 -3.44295e-16)
(1.00232 -0.00405274 2.24174e-16)
(1.00325 -0.00387581 3.5303e-17)
(1.0042 -0.00347309 5.36623e-17)
(1.00504 -0.00288922 8.30025e-17)
(1.00588 -0.00230763 3.43903e-17)
(0.998569 -4.49992e-05 -8.60994e-17)
(0.998641 -0.000932441 1.31768e-16)
(0.998887 -0.00181224 -2.36265e-16)
(0.99929 -0.002601 1.62597e-16)
(0.99987 -0.00327838 -3.77346e-18)
(1.00059 -0.00378226 3.85962e-16)
(1.00144 -0.00407816 3.36019e-16)
(1.00236 -0.00414062 -2.24392e-16)
(1.00332 -0.00396056 3.69106e-16)
(1.00428 -0.00355111 -2.39156e-16)
(1.00514 -0.00295759 7.13866e-16)
(1.00599 -0.00236231 7.20303e-16)
(0.998517 -4.43628e-05 6.59824e-17)
(0.998589 -0.000949875 -9.53846e-17)
(0.998842 -0.00184903 -4.00843e-17)
(0.999256 -0.00265555 1.21039e-16)
(0.999853 -0.00334803 -1.51937e-16)
(1.0006 -0.00386305 -2.36332e-16)
(1.00146 -0.00416537 3.60956e-16)
(1.00241 -0.00422928 -2.11395e-16)
(1.00338 -0.00404601 -4.49449e-16)
(1.00437 -0.00362968 2.41698e-16)
(1.00524 -0.00302612 -4.09749e-16)
(1.0061 -0.00241721 -5.64311e-16)
(0.998464 -4.42558e-05 2.74314e-17)
(0.998535 -0.000967948 -1.01442e-16)
(0.998796 -0.00188656 4.14589e-16)
(0.999222 -0.0027109 -2.02644e-16)
(0.999835 -0.00341849 8.28227e-17)
(1.0006 -0.00394466 -1.92138e-16)
(1.00149 -0.00425336 -4.74365e-16)
(1.00245 -0.00431869 4.11995e-16)
(1.00345 -0.00413214 4.74691e-16)
(1.00445 -0.00370884 -5.98976e-16)
(1.00534 -0.00309491 -2.33594e-16)
(1.00621 -0.00247279 -1.76919e-16)
(0.99841 -4.46558e-05 -7.86261e-17)
(0.99848 -0.000986676 3.06381e-17)
(0.998749 -0.00192484 -1.87656e-16)
(0.999187 -0.00276703 2.56802e-17)
(0.999816 -0.00348976 1.1431e-16)
(1.0006 -0.00402706 4.66807e-16)
(1.00151 -0.00434215 5.0487e-18)
(1.0025 -0.00440887 -2.43739e-17)
(1.00351 -0.00421904 -6.52713e-16)
(1.00454 -0.00378871 9.57769e-17)
(1.00544 -0.00316417 -1.34785e-16)
(1.00631 -0.00252928 7.2127e-17)
(0.998356 -4.55442e-05 -1.26957e-17)
(0.998424 -0.00100608 -2.33735e-17)
(0.9987 -0.00196391 -2.73856e-16)
(0.99915 -0.002824 -5.00485e-17)
(0.999796 -0.00356187 -1.79913e-16)
(1.0006 -0.00411031 -1.30196e-16)
(1.00153 -0.00443178 -1.32779e-16)
(1.00254 -0.00449992 1.63139e-16)
(1.00358 -0.00430681 1.8358e-16)
(1.00462 -0.00386943 3.13987e-16)
(1.00554 -0.00323405 4.42261e-16)
(1.00642 -0.00258662 -2.28116e-16)
(0.9983 -4.68874e-05 3.07019e-17)
(0.998367 -0.00102616 1.59584e-17)
(0.998651 -0.00200378 2.61466e-16)
(0.999113 -0.00288182 -5.2538e-17)
(0.999776 -0.00363488 -9.69419e-17)
(1.0006 -0.00419447 -1.49393e-16)
(1.00155 -0.00452236 4.43058e-16)
(1.00259 -0.00459196 -2.97108e-16)
(1.00364 -0.0043956 1.04949e-16)
(1.0047 -0.00395118 4.08962e-16)
(1.00564 -0.00330477 -2.59963e-16)
(1.00653 -0.00264509 -4.05882e-17)
(0.998243 -4.86586e-05 -4.19788e-17)
(0.998309 -0.00104693 4.3438e-17)
(0.9986 -0.00204448 8.9115e-17)
(0.999075 -0.00294056 1.8989e-16)
(0.999754 -0.00370885 3.42224e-16)
(1.0006 -0.00427964 -2.54759e-16)
(1.00157 -0.00461401 -1.68969e-16)
(1.00263 -0.00468512 1.78159e-17)
(1.00371 -0.00448555 -3.11502e-16)
(1.00479 -0.00403409 -4.48207e-16)
(1.00574 -0.0033765 5.96723e-16)
(1.00665 -0.00270481 2.49406e-16)
(0.998184 -5.0817e-05 6.75644e-17)
(0.998249 -0.00106838 8.25582e-17)
(0.998547 -0.00208602 -8.46503e-17)
(0.999035 -0.00300025 -1.72198e-16)
(0.999732 -0.00378386 4.47908e-17)
(1.00059 -0.00436594 4.17127e-16)
(1.00159 -0.00470686 -2.97777e-16)
(1.00267 -0.00477956 -1.07572e-17)
(1.00377 -0.00457681 3.97535e-16)
(1.00487 -0.00411827 -3.8954e-16)
(1.00584 -0.00344946 -5.06708e-16)
(1.00676 -0.00276585 -1.29457e-16)
(0.998124 -5.33305e-05 8.3591e-18)
(0.998188 -0.00109048 8.45312e-18)
(0.998494 -0.0021284 -2.78531e-16)
(0.998994 -0.00306092 -2.27223e-16)
(0.999708 -0.00385998 -3.82361e-16)
(1.00059 -0.00445345 5.20842e-17)
(1.00161 -0.00480102 8.54048e-17)
(1.00271 -0.00487537 -5.94261e-17)
(1.00384 -0.00466945 -3.26575e-16)
(1.00496 -0.00420378 7.3161e-16)
(1.00594 -0.00352354 3.78636e-16)
(1.00687 -0.00282798 -1.16476e-16)
(0.998063 -5.61539e-05 -3.96878e-17)
(0.998126 -0.00111322 -7.73676e-17)
(0.998439 -0.00217161 3.71307e-16)
(0.998951 -0.00312258 3.38245e-16)
(0.999682 -0.00393723 -7.43867e-18)
(1.00058 -0.00454222 7.23909e-17)
(1.00163 -0.00489655 -1.12394e-16)
(1.00275 -0.00497263 8.25839e-17)
(1.0039 -0.00476353 3.47657e-16)
(1.00504 -0.00429065 -1.80646e-16)
(1.00604 -0.00359881 1.28599e-16)
(1.00698 -0.00289092 2.16346e-16)
(0.998 -5.92523e-05 -2.4834e-18)
(0.998062 -0.00113655 5.35309e-17)
(0.998382 -0.00221562 -1.62564e-16)
(0.998907 -0.00318521 -3.19688e-16)
(0.999655 -0.00401562 1.93632e-16)
(1.00058 -0.00463229 -4.44129e-16)
(1.00164 -0.00499348 1.31245e-16)
(1.0028 -0.00507134 -1.94916e-16)
(1.00397 -0.00485903 3.08172e-17)
(1.00512 -0.00437882 1.85282e-16)
(1.00614 -0.0036755 -1.59523e-16)
(1.0071 -0.00295465 -4.82131e-16)
(0.997935 -6.25786e-05 2.29423e-17)
(0.997996 -0.00116044 -1.48631e-16)
(0.998324 -0.0022604 1.66803e-16)
(0.998861 -0.00324878 2.80217e-16)
(0.999627 -0.00409512 -3.60448e-16)
(1.00057 -0.00472362 -3.05081e-17)
(1.00166 -0.00509179 2.19451e-16)
(1.00283 -0.00517149 -2.64858e-16)
(1.00403 -0.00495595 -3.20869e-16)
(1.00521 -0.00446828 9.07375e-17)
(1.00625 -0.00375365 -2.7794e-16)
(1.00721 -0.00301904 4.24628e-16)
(0.997868 -6.60972e-05 1.50766e-17)
(0.99793 -0.00118484 7.83373e-17)
(0.998264 -0.00230589 -7.7395e-17)
(0.998814 -0.00331324 2.36139e-16)
(0.999598 -0.00417571 1.75168e-16)
(1.00056 -0.0048162 1.47534e-16)
(1.00168 -0.00519146 -2.48144e-16)
(1.00287 -0.00527305 3.78161e-16)
(1.00409 -0.00505423 -3.36356e-18)
(1.00529 -0.00455895 -7.19347e-16)
(1.00635 -0.00383299 1.37496e-16)
(1.00733 -0.00308369 -2.67219e-17)
(0.9978 -6.97604e-05 -2.40342e-17)
(0.997861 -0.00120971 8.09236e-17)
(0.998203 -0.00235205 -2.69628e-16)
(0.998766 -0.00337854 -1.97834e-16)
(0.999567 -0.00425731 4.0277e-17)
(1.00055 -0.00490997 1.55134e-16)
(1.00169 -0.00529244 2.59196e-16)
(1.00291 -0.00537598 3.53737e-17)
(1.00415 -0.00515387 2.8023e-17)
(1.00538 -0.00465083 4.79001e-16)
(1.00645 -0.00391342 1.45659e-16)
(1.00744 -0.00314848 -2.31837e-16)
(0.997729 -7.35348e-05 -1.89977e-17)
(0.997792 -0.00123502 -2.24547e-17)
(0.998141 -0.00239883 2.85785e-16)
(0.998716 -0.00344465 4.56697e-18)
(0.999535 -0.00433991 2.4631e-16)
(1.00054 -0.0050049 -2.32236e-16)
(1.0017 -0.00539471 -1.52024e-16)
(1.00295 -0.00548023 -4.51623e-17)
(1.00422 -0.00525481 5.44343e-18)
(1.00546 -0.00474386 2.90977e-16)
(1.00655 -0.00399506 -4.53284e-16)
(1.00756 -0.0032138 -2.6658e-16)
(0.997657 -7.73752e-05 5.18049e-18)
(0.997721 -0.00126072 -7.88817e-17)
(0.998077 -0.00244621 -2.76449e-16)
(0.998665 -0.00351151 4.92946e-17)
(0.999502 -0.00442345 2.30314e-17)
(1.00053 -0.00510094 2.92774e-18)
(1.00172 -0.00549822 -8.03276e-17)
(1.00299 -0.00558582 3.49246e-16)
(1.00428 -0.00535707 3.82884e-16)
(1.00555 -0.00483807 -2.54598e-16)
(1.00666 -0.00407789 6.86632e-16)