1.45 	0 	0 	-0.00512663 	-0.00277707 	3.94243e-21
2.35 	0 	0 	0.070353 	-0.00689755 	2.44575e-21
