1.275 	2.15223e-18 	-2.76991e-20 	-0.0330011 	-0.000581616 	-2.06875e-22
1.825 	2.15223e-18 	-1.39322e-20 	0.000112391 	-0.00372565 	1.73494e-21
2.375 	2.15223e-18 	-2.66896e-23 	0.173334 	-0.0051449 	-6.88284e-22
