1.275 	2.15223e-18 	-2.76991e-20 	-0.0328555 	-0.0004979 	-2.02199e-22
1.825 	2.15223e-18 	-1.39322e-20 	-0.00724262 	-0.00289439 	1.81346e-21
2.375 	2.15223e-18 	-2.66896e-23 	0.122925 	-0.00345845 	-7.552e-22
