1.275 	2.15223e-18 	-2.76991e-20 	-0.0344214 	-0.000437631 	-1.92323e-22
1.825 	2.15223e-18 	-1.39322e-20 	-0.00938872 	-0.002767 	1.70463e-21
2.375 	2.15223e-18 	-2.66896e-23 	0.115521 	-0.00325812 	-7.11213e-22
