1.45 	0 	0 	-0.305333
2.35 	0 	0 	-0.132033
