1.45 	0 	0 	-0.00743574 	-0.00260828 	3.85476e-21
2.35 	0 	0 	0.0630537 	-0.0066891 	2.3831e-21
