1.45 	0 	0 	-0.00813488 	-0.00258567 	1.65343e-20
2.35 	0 	0 	0.0621254 	-0.00662876 	9.88735e-21
