1.275 	2.15223e-18 	-2.76991e-20 	-0.0338399 	-0.000444062 	-1.99685e-22
1.825 	2.15223e-18 	-1.39322e-20 	-0.0083399 	-0.00279678 	1.79555e-21
2.375 	2.15223e-18 	-2.66896e-23 	0.11847 	-0.00332662 	-7.49332e-22
