/*--------------------------------*- C++ -*----------------------------------*\
  =========                 |
  \\      /  F ield         | OpenFOAM: The Open Source CFD Toolbox
   \\    /   O peration     | Website:  https://openfoam.org
    \\  /    A nd           | Version:  6.0
     \\/     M anipulation  |
\*---------------------------------------------------------------------------*/
FoamFile
{
    version     2.0;
    format      ascii;
    class       volScalarField;
    location    "162";
    object      p;
}
// * * * * * * * * * * * * * * * * * * * * * * * * * * * * * * * * * * * * * //

dimensions      [0 2 -2 0 0 0 0];

internalField   nonuniform List<scalar> 
34500
(
1.00579
1.0059
1.00585
1.00565
1.00532
1.00488
1.00436
1.00381
1.00325
1.00272
1.00221
1.00179
1.00132
1.00113
1.00114
1.0058
1.00593
1.00594
1.00582
1.00557
1.00523
1.00479
1.0043
1.00377
1.00324
1.00271
1.00225
1.00171
1.00157
1.00148
1.0058
1.00592
1.0059
1.00575
1.00546
1.00507
1.00459
1.00407
1.00351
1.00297
1.00244
1.00199
1.0015
1.00146
1.00134
1.0058
1.00592
1.00588
1.00569
1.00538
1.00496
1.00446
1.00391
1.00335
1.00281
1.00228
1.00186
1.00141
1.00145
1.00144
1.00581
1.00592
1.00589
1.00571
1.0054
1.00499
1.00449
1.00396
1.0034
1.00287
1.00235
1.00193
1.00149
1.00155
1.00159
1.00582
1.00594
1.0059
1.00574
1.00544
1.00504
1.00455
1.00402
1.00347
1.00293
1.00241
1.00198
1.00154
1.00161
1.00166
1.00582
1.00595
1.00591
1.00575
1.00545
1.00505
1.00456
1.00403
1.00347
1.00293
1.00241
1.00198
1.00155
1.00163
1.00171
1.00583
1.00596
1.00592
1.00575
1.00545
1.00504
1.00455
1.00402
1.00346
1.00292
1.00239
1.00197
1.00155
1.00164
1.00175
1.00584
1.00597
1.00593
1.00576
1.00545
1.00505
1.00456
1.00402
1.00346
1.00292
1.00239
1.00198
1.00157
1.00166
1.00179
1.00586
1.00598
1.00595
1.00578
1.00547
1.00506
1.00457
1.00403
1.00347
1.00293
1.0024
1.00199
1.00159
1.00167
1.00181
1.00587
1.006
1.00596
1.00579
1.00549
1.00508
1.00459
1.00405
1.00349
1.00295
1.00242
1.00201
1.00162
1.00168
1.00183
1.00588
1.00601
1.00598
1.00581
1.00551
1.0051
1.00461
1.00407
1.00351
1.00297
1.00244
1.00202
1.00163
1.00168
1.00183
1.0059
1.00603
1.006
1.00583
1.00553
1.00512
1.00463
1.0041
1.00353
1.00298
1.00245
1.00203
1.00165
1.00168
1.00182
1.00592
1.00605
1.00602
1.00586
1.00555
1.00514
1.00465
1.00411
1.00355
1.003
1.00247
1.00204
1.00166
1.00167
1.00181
1.00594
1.00607
1.00604
1.00588
1.00557
1.00516
1.00467
1.00413
1.00356
1.00301
1.00247
1.00205
1.00167
1.00166
1.00179
1.00596
1.00609
1.00607
1.0059
1.00559
1.00519
1.00469
1.00415
1.00357
1.00302
1.00248
1.00205
1.00167
1.00165
1.00177
1.00598
1.00611
1.00609
1.00592
1.00562
1.00521
1.00471
1.00416
1.00359
1.00303
1.00249
1.00205
1.00167
1.00163
1.00174
1.006
1.00614
1.00611
1.00595
1.00564
1.00523
1.00473
1.00418
1.0036
1.00304
1.00249
1.00206
1.00168
1.00162
1.00171
1.00602
1.00616
1.00614
1.00597
1.00567
1.00525
1.00475
1.0042
1.00361
1.00305
1.0025
1.00206
1.00168
1.0016
1.00167
1.00604
1.00619
1.00616
1.006
1.00569
1.00528
1.00477
1.00422
1.00363
1.00306
1.0025
1.00206
1.00167
1.00158
1.00164
1.00607
1.00622
1.00619
1.00603
1.00572
1.0053
1.0048
1.00424
1.00364
1.00307
1.00251
1.00205
1.00167
1.00155
1.0016
1.0061
1.00624
1.00622
1.00606
1.00574
1.00533
1.00482
1.00426
1.00366
1.00307
1.00251
1.00205
1.00166
1.00153
1.00156
1.00612
1.00627
1.00625
1.00608
1.00577
1.00535
1.00484
1.00427
1.00367
1.00308
1.00251
1.00204
1.00165
1.0015
1.00151
1.00615
1.0063
1.00628
1.00611
1.0058
1.00538
1.00486
1.00429
1.00368
1.00309
1.00251
1.00204
1.00164
1.00147
1.00147
1.00618
1.00633
1.00631
1.00614
1.00582
1.0054
1.00488
1.0043
1.00369
1.00309
1.00251
1.00203
1.00162
1.00144
1.00142
1.00622
1.00637
1.00634
1.00617
1.00585
1.00542
1.0049
1.00432
1.0037
1.00309
1.00251
1.00202
1.00161
1.00141
1.00137
1.00625
1.0064
1.00637
1.0062
1.00588
1.00545
1.00492
1.00433
1.00371
1.00309
1.0025
1.002
1.00159
1.00138
1.00133
1.00628
1.00644
1.00641
1.00624
1.00591
1.00548
1.00494
1.00435
1.00372
1.0031
1.0025
1.00199
1.00157
1.00134
1.00128
1.00632
1.00648
1.00644
1.00627
1.00594
1.0055
1.00497
1.00437
1.00373
1.0031
1.0025
1.00198
1.00156
1.00131
1.00123
1.00636
1.00652
1.00648
1.00631
1.00598
1.00553
1.00499
1.00439
1.00374
1.00311
1.0025
1.00197
1.00154
1.00127
1.00118
1.0064
1.00656
1.00652
1.00635
1.00601
1.00557
1.00502
1.00441
1.00376
1.00311
1.00249
1.00196
1.00152
1.00124
1.00112
1.00644
1.0066
1.00656
1.00639
1.00605
1.0056
1.00505
1.00443
1.00377
1.00312
1.00249
1.00195
1.00149
1.0012
1.00107
1.00648
1.00664
1.00661
1.00643
1.00609
1.00564
1.00508
1.00445
1.00379
1.00313
1.00249
1.00193
1.00147
1.00116
1.00102
1.00652
1.00669
1.00665
1.00647
1.00613
1.00567
1.00511
1.00448
1.0038
1.00313
1.00248
1.00192
1.00145
1.00112
1.00096
1.00657
1.00673
1.0067
1.00652
1.00617
1.00571
1.00514
1.0045
1.00382
1.00314
1.00248
1.0019
1.00142
1.00108
1.00091
1.00661
1.00678
1.00674
1.00656
1.00621
1.00574
1.00517
1.00452
1.00383
1.00314
1.00247
1.00188
1.00139
1.00104
1.00085
1.00666
1.00683
1.00679
1.00661
1.00625
1.00578
1.0052
1.00454
1.00384
1.00314
1.00246
1.00187
1.00136
1.001
1.00079
1.00671
1.00688
1.00684
1.00665
1.0063
1.00582
1.00523
1.00456
1.00385
1.00314
1.00246
1.00184
1.00133
1.00095
1.00073
1.00676
1.00693
1.00689
1.0067
1.00634
1.00586
1.00526
1.00459
1.00387
1.00314
1.00245
1.00182
1.0013
1.00091
1.00067
1.00681
1.00698
1.00694
1.00675
1.00638
1.0059
1.00529
1.00461
1.00388
1.00315
1.00244
1.0018
1.00126
1.00086
1.00061
1.00686
1.00704
1.00699
1.0068
1.00643
1.00593
1.00532
1.00463
1.00389
1.00315
1.00242
1.00178
1.00123
1.00081
1.00055
1.00692
1.00709
1.00705
1.00685
1.00648
1.00598
1.00535
1.00465
1.0039
1.00315
1.00241
1.00175
1.0012
1.00076
1.00049
1.00697
1.00715
1.0071
1.00691
1.00653
1.00602
1.00539
1.00468
1.00392
1.00315
1.0024
1.00173
1.00116
1.00071
1.00043
1.00703
1.00721
1.00716
1.00696
1.00658
1.00606
1.00542
1.0047
1.00393
1.00315
1.00239
1.00171
1.00112
1.00066
1.00036
1.00709
1.00727
1.00722
1.00702
1.00663
1.00611
1.00546
1.00473
1.00394
1.00315
1.00238
1.00168
1.00108
1.00061
1.0003
1.00715
1.00734
1.00728
1.00708
1.00668
1.00615
1.0055
1.00476
1.00396
1.00315
1.00237
1.00166
1.00105
1.00056
1.00023
1.00721
1.0074
1.00735
1.00714
1.00674
1.0062
1.00554
1.00478
1.00397
1.00315
1.00236
1.00163
1.001
1.0005
1.00017
1.00727
1.00747
1.00741
1.0072
1.00679
1.00625
1.00558
1.00481
1.00399
1.00315
1.00234
1.0016
1.00096
1.00045
1.0001
1.00734
1.00753
1.00748
1.00727
1.00685
1.0063
1.00562
1.00484
1.004
1.00316
1.00233
1.00157
1.00092
1.00039
1.00003
1.0074
1.0076
1.00754
1.00733
1.00691
1.00635
1.00566
1.00487
1.00402
1.00315
1.00231
1.00154
1.00087
1.00033
0.999956
1.00747
1.00767
1.00761
1.0074
1.00697
1.0064
1.0057
1.0049
1.00403
1.00315
1.0023
1.00151
1.00083
1.00027
0.999884
1.00754
1.00775
1.00768
1.00746
1.00703
1.00646
1.00574
1.00492
1.00405
1.00315
1.00228
1.00148
1.00078
1.00021
0.99981
1.00761
1.00782
1.00775
1.00753
1.00709
1.00651
1.00578
1.00495
1.00406
1.00315
1.00226
1.00144
1.00073
1.00015
0.999736
1.00769
1.0079
1.00783
1.0076
1.00715
1.00656
1.00582
1.00498
1.00407
1.00315
1.00224
1.00141
1.00068
1.00009
0.99966
1.00776
1.00798
1.0079
1.00767
1.00722
1.00662
1.00587
1.00501
1.00409
1.00315
1.00222
1.00137
1.00063
1.00002
0.999583
1.00784
1.00806
1.00798
1.00774
1.00729
1.00667
1.00591
1.00504
1.0041
1.00314
1.00221
1.00134
1.00058
0.999955
0.999504
1.00792
1.00814
1.00806
1.00782
1.00735
1.00673
1.00596
1.00507
1.00412
1.00314
1.00219
1.0013
1.00053
0.999888
0.999424
1.008
1.00822
1.00814
1.0079
1.00742
1.00679
1.006
1.00511
1.00413
1.00314
1.00217
1.00126
1.00047
0.999819
0.999342
1.00808
1.00831
1.00822
1.00798
1.0075
1.00686
1.00605
1.00514
1.00415
1.00314
1.00215
1.00123
1.00042
0.999749
0.99926
1.00817
1.00839
1.00831
1.00806
1.00757
1.00692
1.0061
1.00517
1.00417
1.00314
1.00213
1.00119
1.00036
0.999677
0.999174
1.00826
1.00848
1.0084
1.00814
1.00765
1.00698
1.00616
1.00521
1.00419
1.00314
1.00211
1.00115
1.0003
0.999604
0.999088
1.00834
1.00858
1.00849
1.00823
1.00772
1.00705
1.00621
1.00525
1.0042
1.00313
1.00208
1.00111
1.00025
0.999529
0.999
1.00844
1.00867
1.00858
1.00832
1.0078
1.00712
1.00626
1.00528
1.00422
1.00313
1.00206
1.00106
1.00018
0.999453
0.99891
1.00853
1.00877
1.00867
1.00841
1.00788
1.00719
1.00632
1.00532
1.00424
1.00313
1.00204
1.00102
1.00012
0.999374
0.998818
1.00862
1.00886
1.00877
1.0085
1.00797
1.00726
1.00638
1.00536
1.00426
1.00313
1.00202
1.00098
1.00006
0.999294
0.998725
1.00872
1.00896
1.00886
1.00859
1.00805
1.00733
1.00643
1.0054
1.00428
1.00313
1.00199
1.00093
0.999993
0.999212
0.998629
1.00882
1.00906
1.00896
1.00868
1.00814
1.00741
1.00649
1.00544
1.0043
1.00312
1.00196
1.00088
0.999927
0.999128
0.998531
1.00892
1.00917
1.00907
1.00878
1.00822
1.00748
1.00655
1.00548
1.00432
1.00312
1.00194
1.00083
0.999858
0.999042
0.998432
1.00902
1.00928
1.00917
1.00888
1.00831
1.00756
1.00661
1.00552
1.00434
1.00311
1.00191
1.00078
0.999788
0.998955
0.998331
1.00913
1.00938
1.00928
1.00898
1.0084
1.00764
1.00667
1.00556
1.00435
1.00311
1.00188
1.00073
0.999716
0.998866
0.998227
1.00924
1.00949
1.00938
1.00908
1.0085
1.00772
1.00673
1.0056
1.00437
1.00311
1.00185
1.00068
0.999644
0.998775
0.998122
1.00935
1.00961
1.00949
1.00919
1.00859
1.0078
1.0068
1.00565
1.00439
1.0031
1.00183
1.00063
0.999569
0.998682
0.998014
1.00946
1.00972
1.00961
1.0093
1.00869
1.00788
1.00686
1.00569
1.00441
1.0031
1.0018
1.00058
0.999494
0.998588
0.997905
1.00957
1.00984
1.00972
1.00941
1.00879
1.00797
1.00693
1.00574
1.00444
1.00309
1.00177
1.00052
0.999416
0.998491
0.997793
1.00969
1.00996
1.00984
1.00952
1.00889
1.00805
1.007
1.00578
1.00446
1.00309
1.00174
1.00047
0.999338
0.998393
0.997679
1.00981
1.01009
1.00996
1.00963
1.009
1.00814
1.00707
1.00583
1.00448
1.00308
1.0017
1.00041
0.999257
0.998292
0.997562
1.00994
1.01021
1.01009
1.00975
1.0091
1.00824
1.00714
1.00588
1.0045
1.00308
1.00167
1.00035
0.999175
0.99819
0.997443
1.01006
1.01034
1.01021
1.00987
1.00921
1.00833
1.00722
1.00593
1.00453
1.00307
1.00164
1.00029
0.99909
0.998084
0.997321
1.01019
1.01047
1.01034
1.01
1.00932
1.00843
1.00729
1.00598
1.00455
1.00307
1.00161
1.00023
0.999004
0.997977
0.997197
1.01032
1.01061
1.01047
1.01012
1.00944
1.00852
1.00737
1.00603
1.00458
1.00306
1.00157
1.00017
0.998915
0.997866
0.99707
1.01045
1.01074
1.01061
1.01025
1.00956
1.00862
1.00745
1.00609
1.0046
1.00306
1.00154
1.0001
0.998825
0.997754
0.99694
1.01059
1.01088
1.01074
1.01038
1.00967
1.00873
1.00753
1.00614
1.00462
1.00305
1.0015
1.00004
0.998732
0.997639
0.996808
1.01073
1.01102
1.01088
1.01051
1.00979
1.00883
1.00761
1.0062
1.00465
1.00305
1.00146
0.999968
0.998637
0.997522
0.996673
1.01087
1.01117
1.01102
1.01065
1.00992
1.00894
1.00769
1.00625
1.00467
1.00304
1.00142
0.999898
0.99854
0.997402
0.996535
1.01101
1.01132
1.01117
1.01079
1.01004
1.00904
1.00778
1.00631
1.0047
1.00303
1.00138
0.999828
0.998442
0.99728
0.996394
1.01116
1.01147
1.01132
1.01093
1.01017
1.00915
1.00786
1.00637
1.00473
1.00303
1.00134
0.999755
0.998341
0.997155
0.99625
1.01131
1.01162
1.01147
1.01107
1.0103
1.00927
1.00795
1.00642
1.00475
1.00302
1.0013
0.999682
0.998238
0.997027
0.996104
1.01146
1.01178
1.01162
1.01122
1.01044
1.00938
1.00804
1.00648
1.00478
1.00301
1.00126
0.999606
0.998132
0.996897
0.995954
1.01162
1.01194
1.01178
1.01137
1.01058
1.0095
1.00813
1.00655
1.00481
1.003
1.00121
0.999529
0.998025
0.996764
0.995801
1.01178
1.0121
1.01194
1.01153
1.01072
1.00962
1.00823
1.00661
1.00484
1.00299
1.00117
0.99945
0.997915
0.996628
0.995645
1.01194
1.01227
1.01211
1.01168
1.01086
1.00974
1.00832
1.00667
1.00487
1.00299
1.00112
0.99937
0.997803
0.99649
0.995486
1.0121
1.01244
1.01228
1.01184
1.01101
1.00987
1.00842
1.00674
1.0049
1.00298
1.00108
0.999287
0.997688
0.996347
0.995322
1.01227
1.01261
1.01245
1.01201
1.01115
1.01
1.00852
1.00681
1.00493
1.00297
1.00103
0.999203
0.997571
0.996203
0.995156
1.01244
1.01279
1.01262
1.01218
1.01131
1.01013
1.00863
1.00688
1.00496
1.00296
1.00098
0.999116
0.99745
0.996054
0.994985
1.01262
1.01297
1.0128
1.01235
1.01146
1.01026
1.00873
1.00695
1.00499
1.00295
1.00093
0.999027
0.997328
0.995903
0.994812
1.0128
1.01316
1.01298
1.01252
1.01162
1.0104
1.00884
1.00702
1.00502
1.00294
1.00088
0.998936
0.997201
0.995747
0.994634
1.01298
1.01334
1.01317
1.0127
1.01178
1.01054
1.00895
1.00709
1.00505
1.00293
1.00083
0.998843
0.997073
0.99559
0.994454
1.01317
1.01354
1.01336
1.01288
1.01195
1.01068
1.00906
1.00716
1.00508
1.00292
1.00077
0.998747
0.996941
0.995428
0.994268
1.01336
1.01373
1.01355
1.01307
1.01212
1.01082
1.00917
1.00724
1.00511
1.0029
1.00071
0.99865
0.996807
0.995263
0.99408
1.01355
1.01393
1.01375
1.01326
1.01229
1.01097
1.00928
1.00731
1.00515
1.00289
1.00066
0.998549
0.996669
0.995094
0.993887
1.01375
1.01413
1.01395
1.01345
1.01247
1.01112
1.0094
1.00739
1.00518
1.00288
1.0006
0.998448
0.996529
0.994922
0.99369
1.01395
1.01434
1.01415
1.01365
1.01265
1.01127
1.00952
1.00747
1.00521
1.00286
1.00054
0.998343
0.996386
0.994746
0.993489
1.01415
1.01455
1.01436
1.01385
1.01283
1.01143
1.00964
1.00755
1.00525
1.00285
1.00047
0.998237
0.99624
0.994567
0.993284
1.01436
1.01477
1.01458
1.01405
1.01302
1.01159
1.00977
1.00763
1.00528
1.00283
1.00041
0.998127
0.996089
0.994383
0.993074
1.01458
1.01499
1.01479
1.01426
1.01321
1.01176
1.0099
1.00772
1.00532
1.00282
1.00035
0.998015
0.995936
0.994196
0.99286
1.01479
1.01522
1.01502
1.01448
1.0134
1.01192
1.01003
1.0078
1.00535
1.0028
1.00028
0.9979
0.995779
0.994003
0.992641
1.01501
1.01545
1.01524
1.01469
1.0136
1.0121
1.01016
1.00789
1.00539
1.00279
1.00021
0.997783
0.995619
0.993807
0.992418
1.01524
1.01568
1.01548
1.01492
1.01381
1.01227
1.0103
1.00798
1.00543
1.00277
1.00014
0.997662
0.995454
0.993606
0.992189
1.01547
1.01592
1.01571
1.01514
1.01401
1.01245
1.01043
1.00807
1.00546
1.00275
1.00006
0.997538
0.995286
0.993402
0.991956
1.01571
1.01616
1.01595
1.01538
1.01423
1.01263
1.01058
1.00816
1.0055
1.00273
0.999988
0.99741
0.995113
0.993192
0.991718
1.01595
1.01641
1.0162
1.01561
1.01444
1.01281
1.01072
1.00825
1.00554
1.00271
0.999911
0.99728
0.994937
0.992978
0.991475
1.01619
1.01666
1.01645
1.01585
1.01466
1.013
1.01086
1.00835
1.00557
1.00269
0.99983
0.997146
0.994756
0.992759
0.991226
1.01644
1.01692
1.01671
1.0161
1.01489
1.0132
1.01101
1.00844
1.00561
1.00266
0.999747
0.997009
0.994572
0.992536
0.990974
1.01669
1.01718
1.01697
1.01635
1.01512
1.01339
1.01116
1.00854
1.00565
1.00264
0.999662
0.996869
0.994383
0.992307
0.990715
1.01695
1.01745
1.01724
1.01661
1.01535
1.01359
1.01132
1.00864
1.00569
1.00261
0.999575
0.996726
0.994191
0.992075
0.990451
1.01722
1.01773
1.01751
1.01687
1.01559
1.0138
1.01148
1.00874
1.00572
1.00258
0.999486
0.996578
0.993993
0.991837
0.990181
1.01748
1.01801
1.01779
1.01714
1.01584
1.01401
1.01164
1.00884
1.00576
1.00256
0.999394
0.996428
0.993792
0.991594
0.989906
1.01776
1.01829
1.01807
1.01742
1.01609
1.01422
1.0118
1.00895
1.0058
1.00253
0.999299
0.996274
0.993586
0.991345
0.989625
1.01804
1.01858
1.01836
1.0177
1.01634
1.01444
1.01197
1.00905
1.00584
1.0025
0.999203
0.996116
0.993375
0.991091
0.989338
1.01833
1.01888
1.01866
1.01798
1.0166
1.01466
1.01214
1.00916
1.00588
1.00247
0.999102
0.995953
0.993158
0.990831
0.989045
1.01862
1.01918
1.01896
1.01827
1.01687
1.01489
1.01231
1.00927
1.00592
1.00243
0.998999
0.995787
0.992937
0.990566
0.988746
1.01891
1.01949
1.01927
1.01857
1.01714
1.01512
1.01249
1.00938
1.00596
1.0024
0.998892
0.995615
0.99271
0.990293
0.98844
1.01922
1.01981
1.01958
1.01888
1.01742
1.01536
1.01267
1.0095
1.006
1.00236
0.998782
0.995439
0.992478
0.990016
0.988129
1.01953
1.02013
1.0199
1.01919
1.0177
1.0156
1.01286
1.00961
1.00603
1.00232
0.998668
0.995258
0.99224
0.989732
0.98781
1.01984
1.02046
1.02023
1.0195
1.01799
1.01584
1.01304
1.00973
1.00607
1.00228
0.99855
0.995073
0.991997
0.989443
0.987485
1.02016
1.02079
1.02057
1.01983
1.01829
1.01609
1.01323
1.00984
1.00611
1.00223
0.998429
0.994882
0.991747
0.989146
0.987153
1.02049
1.02114
1.02091
1.02016
1.01859
1.01635
1.01343
1.00996
1.00615
1.00219
0.998304
0.994687
0.991493
0.988844
0.986815
1.02083
1.02148
1.02126
1.02049
1.0189
1.01661
1.01362
1.01008
1.00618
1.00214
0.998175
0.994486
0.991231
0.988534
0.986469
1.02117
1.02184
1.02161
1.02084
1.01921
1.01688
1.01382
1.0102
1.00622
1.00209
0.998042
0.994281
0.990964
0.988218
0.986117
1.02152
1.0222
1.02198
1.02119
1.01953
1.01715
1.01403
1.01033
1.00625
1.00203
0.997904
0.994069
0.99069
0.987895
0.985756
1.02188
1.02258
1.02235
1.02155
1.01986
1.01743
1.01424
1.01045
1.00629
1.00198
0.997763
0.993852
0.99041
0.987565
0.985389
1.02224
1.02295
1.02273
1.02192
1.0202
1.01771
1.01445
1.01058
1.00632
1.00192
0.997616
0.993629
0.990123
0.987227
0.985013
1.02261
1.02334
1.02312
1.0223
1.02054
1.018
1.01466
1.01071
1.00635
1.00186
0.997465
0.9934
0.989829
0.986882
0.984631
1.02299
1.02374
1.02351
1.02268
1.02089
1.01829
1.01488
1.01084
1.00639
1.00179
0.997309
0.993164
0.989527
0.986529
0.98424
1.02338
1.02414
1.02392
1.02307
1.02125
1.01859
1.01511
1.01097
1.00642
1.00172
0.997148
0.992923
0.989219
0.986169
0.983841
1.02377
1.02455
1.02433
1.02347
1.02161
1.0189
1.01533
1.0111
1.00645
1.00165
0.99698
0.992673
0.988903
0.9858
0.983434
1.02417
1.02497
1.02476
1.02388
1.02199
1.01921
1.01557
1.01123
1.00647
1.00157
0.996808
0.992418
0.988579
0.985424
0.983019
1.02458
1.0254
1.02519
1.0243
1.02237
1.01953
1.0158
1.01137
1.0065
1.00149
0.996629
0.992155
0.988247
0.985039
0.982595
1.025
1.02584
1.02563
1.02473
1.02276
1.01986
1.01604
1.0115
1.00652
1.00141
0.996445
0.991885
0.987908
0.984646
0.982164
1.02543
1.02629
1.02608
1.02517
1.02315
1.02019
1.01628
1.01164
1.00654
1.00132
0.996253
0.991607
0.98756
0.984244
0.981722
1.02587
1.02674
1.02654
1.02561
1.02356
1.02053
1.01653
1.01178
1.00657
1.00122
0.996056
0.991322
0.987204
0.983834
0.981273
1.02631
1.02721
1.02701
1.02607
1.02398
1.02088
1.01678
1.01191
1.00658
1.00112
0.995852
0.991029
0.986838
0.983414
0.980813
1.02677
1.02769
1.0275
1.02654
1.0244
1.02123
1.01703
1.01205
1.0066
1.00102
0.995641
0.990727
0.986464
0.982985
0.980345
1.02724
1.02818
1.02799
1.02702
1.02483
1.02159
1.01729
1.01219
1.00661
1.00091
0.995422
0.990416
0.98608
0.982546
0.979867
1.02771
1.02868
1.02849
1.0275
1.02528
1.02196
1.01755
1.01233
1.00662
1.0008
0.995195
0.990097
0.985687
0.982097
0.979379
1.0282
1.02919
1.02901
1.028
1.02573
1.02233
1.01782
1.01247
1.00663
1.00067
0.99496
0.989767
0.985283
0.981638
0.978881
1.02869
1.02971
1.02953
1.02851
1.02619
1.02271
1.01809
1.01261
1.00663
1.00055
0.994717
0.989428
0.984869
0.981169
0.978373
1.0292
1.03024
1.03007
1.02904
1.02666
1.0231
1.01836
1.01275
1.00663
1.00041
0.994464
0.989079
0.984444
0.980689
0.977855
1.02971
1.03078
1.03062
1.02957
1.02715
1.02349
1.01864
1.01288
1.00662
1.00027
0.994202
0.988719
0.984009
0.980198
0.977326
1.03024
1.03134
1.03119
1.03012
1.02764
1.0239
1.01892
1.01302
1.00661
1.00012
0.993929
0.988348
0.983563
0.979697
0.976787
1.03078
1.03191
1.03176
1.03067
1.02814
1.02431
1.0192
1.01316
1.00659
0.999958
0.993648
0.987967
0.983106
0.979185
0.976237
1.03133
1.03249
1.03235
1.03125
1.02866
1.02473
1.01949
1.01329
1.00657
0.999791
0.993355
0.987574
0.982636
0.97866
0.975676
1.0319
1.03308
1.03295
1.03183
1.02919
1.02515
1.01978
1.01342
1.00654
0.999615
0.993052
0.98717
0.982156
0.978126
0.975105
1.03247
1.03369
1.03357
1.03243
1.02972
1.02559
1.02007
1.01355
1.00651
0.999429
0.992738
0.986753
0.981663
0.977578
0.974521
1.03306
1.03431
1.0342
1.03304
1.03027
1.02603
1.02037
1.01368
1.00647
0.999234
0.992412
0.986325
0.981158
0.97702
0.973927
1.03366
1.03495
1.03485
1.03367
1.03083
1.02648
1.02067
1.01381
1.00642
0.999029
0.992074
0.985883
0.98064
0.976448
0.97332
1.03428
1.0356
1.03551
1.03431
1.03141
1.02694
1.02097
1.01393
1.00637
0.998813
0.991724
0.985429
0.980109
0.975865
0.972702
1.0349
1.03626
1.03619
1.03497
1.032
1.0274
1.02128
1.01405
1.0063
0.998586
0.991361
0.984961
0.979564
0.975267
0.972071
1.03555
1.03694
1.03688
1.03564
1.0326
1.02788
1.02158
1.01417
1.00623
0.998347
0.990984
0.984478
0.979006
0.974658
0.971429
1.0362
1.03764
1.03759
1.03633
1.03321
1.02836
1.02189
1.01428
1.00615
0.998095
0.990593
0.983981
0.978433
0.974034
0.970773
1.03687
1.03836
1.03832
1.03703
1.03384
1.02885
1.0222
1.01439
1.00606
0.99783
0.990187
0.983469
0.977846
0.973397
0.970105
1.03756
1.03909
1.03907
1.03775
1.03448
1.02935
1.02251
1.01449
1.00596
0.99755
0.989764
0.98294
0.977243
0.972745
0.969423
1.03826
1.03983
1.03983
1.03849
1.03513
1.02986
1.02282
1.01459
1.00585
0.997256
0.989326
0.982396
0.976625
0.972079
0.968729
1.03898
1.0406
1.04061
1.03925
1.0358
1.03037
1.02313
1.01467
1.00572
0.996946
0.988871
0.981834
0.975991
0.971398
0.96802
1.03972
1.04138
1.04141
1.04002
1.03648
1.0309
1.02345
1.01476
1.00558
0.99662
0.988399
0.981256
0.975341
0.970703
0.967298
1.04047
1.04219
1.04223
1.04081
1.03718
1.03143
1.02376
1.01483
1.00543
0.996277
0.987908
0.980659
0.974674
0.969992
0.966562
1.04124
1.04301
1.04307
1.04163
1.03789
1.03196
1.02407
1.01489
1.00526
0.995916
0.987398
0.980044
0.97399
0.969266
0.965813
1.04203
1.04385
1.04394
1.04246
1.03862
1.03251
1.02437
1.01494
1.00508
0.995535
0.986868
0.97941
0.973288
0.968523
0.965048
1.04283
1.04472
1.04482
1.04331
1.03936
1.03306
1.02468
1.01499
1.00488
0.995136
0.986319
0.978757
0.97257
0.967765
0.964269
1.04366
1.0456
1.04573
1.04419
1.04012
1.03362
1.02498
1.01502
1.00466
0.994715
0.985748
0.978084
0.971832
0.96699
0.963475
1.0445
1.04651
1.04666
1.04509
1.04089
1.03418
1.02528
1.01503
1.00442
0.994273
0.985156
0.977391
0.971076
0.966199
0.962667
1.04537
1.04744
1.04761
1.046
1.04168
1.03476
1.02557
1.01503
1.00416
0.993808
0.98454
0.976676
0.970301
0.96539
0.961843
1.04626
1.0484
1.04859
1.04695
1.04249
1.03533
1.02586
1.01502
1.00388
0.99332
0.983902
0.97594
0.969506
0.964564
0.961004
1.04716
1.04938
1.0496
1.04791
1.04332
1.03591
1.02614
1.01499
1.00358
0.992806
0.98324
0.975181
0.968691
0.96372
0.960148
1.0481
1.05038
1.05063
1.0489
1.04416
1.0365
1.02641
1.01494
1.00326
0.992268
0.982552
0.974399
0.967856
0.962858
0.959277
1.04905
1.05141
1.05169
1.04992
1.04501
1.03709
1.02667
1.01488
1.00291
0.991702
0.981838
0.973594
0.967
0.961978
0.95839
1.05003
1.05247
1.05278
1.05096
1.04589
1.03769
1.02692
1.01479
1.00253
0.991107
0.981098
0.972764
0.966122
0.961079
0.957486
1.05103
1.05355
1.0539
1.05202
1.04678
1.03828
1.02716
1.01467
1.00212
0.990484
0.980329
0.971909
0.965222
0.960161
0.956566
1.05206
1.05467
1.05505
1.05312
1.04768
1.03888
1.02738
1.01454
1.00169
0.989829
0.979532
0.971029
0.9643
0.959223
0.955629
1.05311
1.05581
1.05623
1.05424
1.04861
1.03948
1.02759
1.01437
1.00122
0.989142
0.978704
0.970121
0.963355
0.958266
0.954675
1.0542
1.05699
1.05744
1.05539
1.04955
1.04007
1.02778
1.01418
1.00072
0.988422
0.977846
0.969187
0.962387
0.957289
0.953704
1.05531
1.0582
1.05869
1.05657
1.05051
1.04067
1.02795
1.01395
1.00018
0.987666
0.976956
0.968225
0.961394
0.956291
0.952716
1.05645
1.05944
1.05997
1.05779
1.05148
1.04126
1.0281
1.0137
0.999606
0.986875
0.976034
0.967235
0.960378
0.955273
0.951711
1.05762
1.06072
1.06129
1.05903
1.05246
1.04184
1.02823
1.0134
0.998992
0.986045
0.975077
0.966215
0.959337
0.954234
0.950687
1.05882
1.06203
1.06264
1.0603
1.05347
1.04242
1.02832
1.01307
0.998337
0.985177
0.974085
0.965166
0.958271
0.953174
0.949647
1.06005
1.06338
1.06404
1.06161
1.05448
1.04298
1.02839
1.0127
0.997638
0.984267
0.973058
0.964086
0.957179
0.952093
0.948588
1.06132
1.06477
1.06548
1.06295
1.05551
1.04354
1.02843
1.01229
0.996894
0.983315
0.971994
0.962975
0.956061
0.950991
0.947512
1.06262
1.0662
1.06696
1.06432
1.05655
1.04408
1.02842
1.01182
0.996102
0.982319
0.970892
0.961832
0.954917
0.949866
0.946417
1.06396
1.06767
1.06848
1.06573
1.05761
1.0446
1.02838
1.01131
0.99526
0.981278
0.969751
0.960657
0.953747
0.94872
0.945304
1.06533
1.06918
1.07005
1.06717
1.05867
1.0451
1.0283
1.01075
0.994366
0.98019
0.96857
0.959449
0.952549
0.947552
0.944173
1.06675
1.07074
1.07167
1.06865
1.05974
1.04557
1.02817
1.01013
0.993416
0.979053
0.967348
0.958208
0.951325
0.946362
0.943025
1.0682
1.07235
1.07334
1.07016
1.06081
1.04602
1.02799
1.00945
0.992409
0.977865
0.966084
0.956932
0.950073
0.945149
0.941857
1.0697
1.07401
1.07506
1.07171
1.06189
1.04644
1.02775
1.0087
0.991342
0.976626
0.964777
0.955622
0.948793
0.943914
0.940672
1.07124
1.07572
1.07684
1.0733
1.06297
1.04682
1.02745
1.00789
0.990213
0.975334
0.963427
0.954277
0.947485
0.942657
0.939468
1.07283
1.07749
1.07867
1.07492
1.06404
1.04715
1.02709
1.00701
0.989019
0.973986
0.962032
0.952897
0.946149
0.941377
0.938245
1.07446
1.07931
1.08056
1.07658
1.06511
1.04744
1.02665
1.00606
0.987756
0.972582
0.960592
0.95148
0.944785
0.940074
0.937004
1.07614
1.0812
1.08251
1.07828
1.06617
1.04768
1.02614
1.00502
0.986424
0.97112
0.959106
0.950028
0.943393
0.938749
0.935745
1.07788
1.08314
1.08452
1.08
1.06721
1.04785
1.02554
1.0039
0.985019
0.969599
0.957574
0.948539
0.941971
0.937401
0.934467
1.07967
1.08515
1.0866
1.08177
1.06823
1.04796
1.02486
1.0027
0.983539
0.968018
0.955994
0.947015
0.940522
0.936031
0.933172
1.08151
1.08724
1.08875
1.08356
1.06923
1.04799
1.02408
1.0014
0.981982
0.966374
0.954366
0.945453
0.939044
0.934637
0.931857
1.08341
1.08939
1.09096
1.08538
1.07019
1.04794
1.0232
1
0.980344
0.964668
0.952691
0.943854
0.937538
0.933222
0.930525
1.08537
1.09162
1.09325
1.08723
1.07111
1.0478
1.02222
0.998511
0.978625
0.962898
0.950966
0.942219
0.936003
0.931784
0.929174
1.0874
1.09394
1.09562
1.0891
1.07198
1.04756
1.02111
0.996912
0.976821
0.961064
0.949194
0.940547
0.934441
0.930325
0.927806
1.08949
1.09633
1.09806
1.091
1.07279
1.0472
1.01988
0.995205
0.974931
0.959164
0.947372
0.938839
0.93285
0.928842
0.926419
1.09166
1.09882
1.10058
1.0929
1.07354
1.04672
1.01852
0.993385
0.972953
0.957198
0.945502
0.937095
0.931231
0.927339
0.925015
1.09389
1.10141
1.10318
1.09481
1.0742
1.04611
1.01702
0.991448
0.970886
0.955165
0.943582
0.935314
0.929585
0.925814
0.923593
1.09621
1.1041
1.10587
1.09673
1.07477
1.04535
1.01538
0.989392
0.968728
0.953067
0.941615
0.933498
0.927912
0.924267
0.922154
1.0986
1.10689
1.10863
1.09863
1.07523
1.04443
1.01358
0.987211
0.966478
0.950901
0.9396
0.931646
0.926213
0.9227
0.920697
1.10108
1.1098
1.11148
1.10052
1.07556
1.04334
1.01161
0.984904
0.964135
0.94867
0.937537
0.92976
0.924487
0.921111
0.919223
1.10365
1.11283
1.11442
1.10238
1.07576
1.04206
1.00948
0.982467
0.9617
0.946372
0.935428
0.92784
0.922735
0.919503
0.917732
1.10632
1.11599
1.11743
1.10419
1.0758
1.04058
1.00717
0.979899
0.959171
0.944009
0.933272
0.925888
0.920958
0.917874
0.916225
1.10909
1.11928
1.12053
1.10595
1.07565
1.03889
1.00468
0.977198
0.956549
0.941581
0.931072
0.923902
0.919157
0.916226
0.914701
1.11196
1.12272
1.1237
1.10763
1.07531
1.03697
1.002
0.974362
0.953834
0.93909
0.928828
0.921886
0.917332
0.914558
0.913162
1.11496
1.12631
1.12694
1.10921
1.07474
1.0348
0.999127
0.971391
0.951028
0.936538
0.926541
0.919839
0.915483
0.912872
0.911608
1.11807
1.13006
1.13024
1.11067
1.07392
1.03237
0.996052
0.968286
0.948133
0.933925
0.924213
0.917763
0.913612
0.911168
0.910038
1.12131
1.13397
1.13359
1.11198
1.07283
1.02967
0.992775
0.965046
0.945149
0.931253
0.921846
0.915658
0.911719
0.909446
0.908453
1.1247
1.13807
1.13699
1.11312
1.07143
1.02668
0.989292
0.961674
0.942079
0.928526
0.919442
0.913527
0.909806
0.907707
0.906855
1.12823
1.14234
1.1404
1.11405
1.0697
1.02339
0.985602
0.958172
0.938927
0.925744
0.917002
0.911371
0.907872
0.905952
0.905242
1.13193
1.14681
1.14383
1.11473
1.06762
1.01978
0.981706
0.954544
0.935694
0.922912
0.914529
0.909191
0.90592
0.904181
0.903616
1.13581
1.15148
1.14723
1.11513
1.06514
1.01586
0.977604
0.950793
0.932386
0.920032
0.912025
0.906988
0.90395
0.902394
0.901976
1.13988
1.15635
1.15059
1.1152
1.06224
1.0116
0.973302
0.946926
0.929006
0.917108
0.909492
0.904765
0.901963
0.900593
0.900325
1.14415
1.16143
1.15387
1.11489
1.05889
1.00701
0.968803
0.942947
0.925558
0.914143
0.906933
0.902523
0.89996
0.898778
0.89866
1.14866
1.16672
1.15703
1.11416
1.05506
1.00207
0.964115
0.938863
0.922049
0.91114
0.904351
0.900264
0.897942
0.89695
0.896985
1.15341
1.17222
1.16002
1.11294
1.05072
0.996798
0.959248
0.934683
0.918482
0.908105
0.901748
0.897989
0.895911
0.89511
0.895298
1.15843
1.17791
1.1628
1.11119
1.04585
0.991188
0.954213
0.930415
0.914864
0.90504
0.899128
0.8957
0.893867
0.893257
0.8936
1.16375
1.1838
1.16529
1.10884
1.04042
0.98525
0.949022
0.926067
0.911201
0.901952
0.896493
0.893399
0.891811
0.891394
0.891893
1.16939
1.18986
1.16744
1.10582
1.03441
0.978995
0.943693
0.921649
0.9075
0.898844
0.893847
0.891088
0.889746
0.889521
0.890175
1.17539
1.19607
1.16916
1.10208
1.02782
0.972442
0.93824
0.917171
0.903767
0.895721
0.891192
0.888769
0.887671
0.887638
0.888449
1.18178
1.2024
1.17036
1.09754
1.02063
0.965613
0.932684
0.912643
0.900009
0.892589
0.888532
0.886443
0.885588
0.885746
0.886714
1.1886
1.2088
1.17096
1.09215
1.01284
0.958535
0.927043
0.908076
0.896233
0.889452
0.88587
0.884112
0.883498
0.883846
0.884971
1.19589
1.21523
1.17083
1.08584
1.00448
0.951241
0.921338
0.903481
0.892448
0.886316
0.883208
0.881778
0.881402
0.88194
0.883221
1.2037
1.22159
1.16986
1.07856
0.995546
0.943768
0.91559
0.898868
0.88866
0.883185
0.880549
0.879442
0.879302
0.880027
0.881464
1.21206
1.22782
1.16793
1.07027
0.986083
0.936159
0.909821
0.894248
0.884877
0.880065
0.877897
0.877106
0.877198
0.878109
0.879702
1.22103
1.23381
1.1649
1.06091
0.976136
0.928458
0.90405
0.889632
0.881107
0.87696
0.875254
0.874771
0.875092
0.876186
0.877934
1.23064
1.23942
1.16063
1.05047
0.965762
0.920716
0.898298
0.885029
0.877359
0.873876
0.872621
0.87244
0.872984
0.87426
0.876161
1.24095
1.2445
1.15498
1.03893
0.955036
0.91298
0.892582
0.880451
0.87364
0.870817
0.870002
0.870113
0.870877
0.872331
0.874386
1.25199
1.24887
1.14778
1.02633
0.944045
0.905301
0.886919
0.875907
0.869958
0.867787
0.867399
0.867793
0.868771
0.870402
0.872608
1.26379
1.25232
1.1389
1.01268
0.932892
0.897726
0.881323
0.871407
0.866321
0.86479
0.864813
0.865479
0.866669
0.868473
0.870829
1.27636
1.25459
1.1282
0.99807
0.921688
0.890299
0.875807
0.866963
0.862735
0.86183
0.862247
0.863175