1.275 	2.15223e-18 	-2.76991e-20 	-0.0343871 	-0.000443549 	-1.9334e-22
1.825 	2.15223e-18 	-1.39322e-20 	-0.009327 	-0.00277542 	1.7179e-21
2.375 	2.15223e-18 	-2.66896e-23 	0.115694 	-0.0032619 	-7.16873e-22
