/*--------------------------------*- C++ -*----------------------------------*\
  =========                 |
  \\      /  F ield         | OpenFOAM: The Open Source CFD Toolbox
   \\    /   O peration     | Website:  https://openfoam.org
    \\  /    A nd           | Version:  6.0
     \\/     M anipulation  |
\*---------------------------------------------------------------------------*/
FoamFile
{
    version     2.0;
    format      ascii;
    class       surfaceScalarField;
    location    "0.2";
    object      phi;
}
// * * * * * * * * * * * * * * * * * * * * * * * * * * * * * * * * * * * * * //

dimensions      [0 3 -1 0 0 0 0];

internalField   nonuniform List<scalar> 
1540
(
8.57863e-09
-8.57852e-09
4.03609e-09
4.54247e-09
-1.88083e-08
2.28444e-08
-5.66871e-08
3.78788e-08
-1.04932e-07
4.82445e-08
-1.59426e-07
5.44946e-08
-2.17156e-07
5.77297e-08
-2.7622e-07
5.90643e-08
-3.35612e-07
5.93917e-08
-3.94951e-07
5.93399e-08
-4.54266e-07
5.93143e-08
-5.13823e-07
5.95574e-08
-5.74026e-07
6.02029e-08
-6.35337e-07
6.13113e-08
-6.98226e-07
6.28889e-08
-7.63118e-07
6.48915e-08
-8.30334e-07
6.72165e-08
-9.00023e-07
6.96893e-08
-9.72069e-07
7.20456e-08
-1.04598e-06
7.39137e-08
-1.12078e-06
7.47994e-08
-1.19486e-06
7.40767e-08
-1.26585e-06
7.09922e-08
-1.33054e-06
6.46901e-08
-1.38481e-06
5.42674e-08
-1.42368e-06
3.88732e-08
-1.44154e-06
1.78574e-08
-1.43251e-06
-9.0258e-09
-1.39114e-06
-4.13756e-08
-1.31324e-06
-7.78933e-08
-1.19706e-06
-1.16183e-07
-1.04437e-06
-1.52695e-07
-8.61466e-07
-1.829e-07
-6.59684e-07
-2.01781e-07
-4.55033e-07
-2.04652e-07
-2.66813e-07
-1.8822e-07
-1.15102e-07
-1.51711e-07
-1.73751e-08
-9.77267e-08
1.64558e-08
-3.3831e-08
1.64558e-08
-4.4034e-09
-4.17513e-09
-4.27645e-08
4.29035e-08
-1.19141e-07
9.92214e-08
-2.27774e-07
1.46511e-07
-3.60109e-07
1.8058e-07
-5.07896e-07
2.02281e-07
-6.64533e-07
2.14367e-07
-8.25421e-07
2.19952e-07
-9.87767e-07
2.21738e-07
-1.15019e-06
2.21761e-07
-1.3123e-06
2.21428e-07
-1.47438e-06
2.21636e-07
-1.63709e-06
2.22908e-07
-1.80127e-06
2.25492e-07
-1.96779e-06
2.29413e-07
-2.13738e-06
2.34484e-07
-2.31046e-06
2.40291e-07
-2.48692e-06
2.46154e-07
-2.66596e-06
2.51082e-07
-2.84578e-06
2.53737e-07
-3.02338e-06
2.52401e-07
-3.19429e-06
2.44983e-07
-3.35237e-06
2.29073e-07
-3.48973e-06
2.02053e-07
-3.59679e-06
1.61322e-07
-3.66254e-06
1.0462e-07
-3.67517e-06
3.04928e-08
-3.62306e-06
-6.11374e-08
-3.49611e-06
-1.68323e-07
-3.28754e-06
-2.8647e-07
-2.99582e-06
-4.07899e-07
-2.62672e-06
-5.21794e-07
-2.19485e-06
-6.14768e-07
-1.72436e-06
-6.72274e-07
-1.24811e-06
-6.80899e-07
-8.04899e-07
-6.31434e-07
-4.34341e-07
-5.2227e-07
-1.69742e-07
-3.62325e-07
-2.88234e-08
-1.7475e-07
-1.23675e-08
-2.55671e-08
2.1392e-08
-1.08507e-07
1.25844e-07
-2.44818e-07
2.35532e-07
-4.24476e-07
3.26169e-07
-6.35718e-07
3.91822e-07
-8.67603e-07
4.34167e-07
-1.1113e-06
4.58067e-07
-1.36047e-06
4.69118e-07
-1.61104e-06
4.72314e-07
-1.86083e-06
4.71545e-07
-2.10898e-06
4.69583e-07
-2.35561e-06
4.68258e-07
-2.60136e-06
4.68665e-07
-2.8472e-06
4.71327e-07
-3.09407e-06
4.76285e-07
-3.34271e-06
4.83126e-07
-3.59337e-06
4.90946e-07
-3.84552e-06
4.98305e-07
-4.09759e-06
5.03152e-07
-4.34663e-06
5.02783e-07
-4.58805e-06
4.93818e-07
-4.81532e-06
4.72257e-07
-5.01986e-06
4.33609e-07
-5.19098e-06
3.73168e-07
-5.31609e-06
2.86434e-07
-5.3812e-06
1.6973e-07
-5.3717e-06
2.1e-08
-5.27362e-06
-1.59222e-07
-5.07518e-06
-3.66764e-07
-4.76881e-06
-5.92838e-07
-4.35337e-06
-8.23342e-07
-3.83638e-06
-1.03878e-06
-3.23597e-06
-1.21518e-06
-2.58187e-06
-1.32637e-06
-1.91489e-06
-1.34788e-06
-1.28395e-06
-1.26238e-06
-7.4031e-07
-1.06591e-06
-3.29202e-07
-7.73432e-07
-8.01641e-08
-4.23788e-07
-9.25315e-08
-4.78432e-08
6.92351e-08
-1.78768e-07
2.56768e-07
-3.77703e-07
4.34467e-07
-6.28193e-07
5.76659e-07
-9.14518e-07
6.78147e-07
-1.2232e-06
7.42849e-07
-1.54371e-06
7.78577e-07
-1.86853e-06
7.93937e-07
-2.19279e-06
7.96575e-07
-2.51376e-06
7.92514e-07
-2.83028e-06
7.86107e-07
-3.1423e-06
7.80273e-07
-3.45042e-06
7.76784e-07
-3.75558e-06
7.76491e-07
-4.05874e-06
7.79445e-07
-4.36056e-06
7.84942e-07
-4.6611e-06
7.91485e-07
-4.95951e-06
7.96722e-07
-5.25373e-06
7.97374e-07
-5.54014e-06
7.89193e-07
-5.81331e-06
7.66982e-07
-6.06576e-06
7.24707e-07
-6.2879e-06
6.55747e-07
-6.46804e-06
5.53313e-07
-6.59269e-06
4.11085e-07
-6.64703e-06
2.24072e-07
-6.61574e-06
-1.02918e-08
-6.48411e-06
-2.90849e-07
-6.23956e-06
-6.11321e-07
-5.87343e-06
-9.58962e-07
-5.38326e-06
-1.31352e-06
-4.77515e-06
-1.6469e-06
-4.06621e-06
-1.92412e-06
-3.28652e-06
-2.10607e-06
-2.47958e-06
-2.15481e-06
-1.70051e-06
-2.04145e-06
-1.01065e-06
-1.75576e-06
-4.69032e-07
-1.31505e-06
-1.22436e-07
-7.70384e-07
-2.14968e-07
-6.95455e-08
1.38781e-07
-2.48486e-07
4.35709e-07
-5.09634e-07
6.95614e-07
-8.28714e-07
8.9574e-07
-1.18523e-06
1.03466e-06
-1.56291e-06
1.12053e-06
-1.94967e-06
1.16534e-06
-2.33714e-06
1.1814e-06
-2.71997e-06
1.17941e-06
-3.09518e-06
1.16772e-06
-3.46149e-06
1.15242e-06
-3.81882e-06
1.1376e-06
-4.16779e-06
1.12576e-06
-4.50939e-06
1.11809e-06
-4.84461e-06
1.11467e-06
-5.17414e-06
1.11447e-06
-5.49804e-06
1.11539e-06
-5.81544e-06
1.11412e-06
-6.12422e-06
1.10616e-06
-6.42078e-06
1.08574e-06
-6.69973e-06
1.04594e-06
-6.95382e-06
9.78797e-07
-7.17382e-06
8.75741e-07
-7.34858e-06
7.2808e-07
-7.4653e-06
5.27803e-07
-7.50984e-06
2.68614e-07
-7.46736e-06
-5.27733e-08
-7.3231e-06
-4.35105e-07
-7.06354e-06
-8.70882e-07
-6.6779e-06
-1.3446e-06
-6.16019e-06
-1.83122e-06
-5.51189e-06
-2.2952e-06
-4.74507e-06
-2.69093e-06
-3.88577e-06
-2.96537e-06
-2.97647e-06
-3.06411e-06
-2.07629e-06
-2.94163e-06
-1.25714e-06
-2.57491e-06
-5.95047e-07
-1.97714e-06
-1.58543e-07
-1.20689e-06
-3.73511e-07
-9.02343e-08
2.29015e-07
-3.15601e-07
6.61075e-07
-6.36484e-07
1.0165e-06
-1.01996e-06
1.27922e-06
-1.44013e-06
1.45482e-06
-1.87767e-06
1.55807e-06
-2.31897e-06
1.60665e-06
-2.75502e-06
1.61745e-06
-3.18029e-06
1.60467e-06
-3.59183e-06
1.57927e-06
-3.98851e-06
1.5491e-06
-4.3704e-06
1.51949e-06
-4.73833e-06
1.49368e-06
-5.09347e-06
1.47323e-06
-5.43702e-06
1.45822e-06
-5.7699e-06
1.44735e-06
-6.09245e-06
1.43793e-06
-6.40415e-06
1.42582e-06
-6.70339e-06
1.4054e-06
-6.98724e-06
1.36959e-06
-7.25125e-06
1.30995e-06
-7.48937e-06
1.21692e-06
-7.69387e-06
1.08024e-06
-7.85535e-06
8.89561e-07
-7.96283e-06
6.35287e-07
-8.0039e-06
3.09681e-07
-7.96492e-06
-9.17549e-08
-7.83142e-06
-5.68607e-07
-7.5887e-06
-1.1136e-06
-7.22291e-06
-1.7104e-06
-6.72278e-06
-2.33135e-06
-6.08244e-06
-2.93555e-06
-5.30534e-06
-3.46803e-06
-4.40936e-06
-3.86134e-06
-3.43202e-06
-4.04146e-06
-2.43389e-06
-3.93976e-06
-1.4975e-06
-3.5113e-06
-7.1906e-07
-2.75559e-06
-1.93713e-07
-1.73224e-06
-5.67224e-07
-1.09917e-07
3.38932e-07
-3.79519e-07
9.30677e-07
-7.56477e-07
1.39346e-06
-1.19862e-06
1.72136e-06
-1.67421e-06
1.93041e-06
-2.16077e-06
2.04463e-06
-2.64329e-06
2.08916e-06
-3.11237e-06
2.08653e-06
-3.56266e-06
2.05496e-06
-3.99158e-06
2.00819e-06
-4.39844e-06
1.95596e-06
-4.78377e-06
1.90482e-06
-5.1488e-06
1.85871e-06
-5.49513e-06
1.81956e-06
-5.82438e-06
1.78747e-06
-6.13795e-06
1.76092e-06
-6.43673e-06
1.73672e-06
-6.72095e-06
1.71004e-06
-6.98994e-06
1.6744e-06
-7.24202e-06
1.62167e-06
-7.47433e-06
1.54226e-06
-7.68276e-06
1.42535e-06
-7.8619e-06
1.25937e-06
-8.00488e-06
1.03255e-06
-8.10338e-06
7.33787e-07
-8.14742e-06
3.53713e-07
-8.1252e-06
-1.13972e-07
-8.02301e-06
-6.70797e-07
-7.8252e-06
-1.31141e-06
-7.51464e-06
-2.02095e-06
-7.07397e-06
-2.77202e-06
-6.4882e-06
-3.52132e-06
-5.74924e-06
-4.207e-06
-4.86258e-06
-4.748e-06
-3.85574e-06
-5.0483e-06
-2.78628e-06
-5.00921e-06
-1.74534e-06
-4.55224e-06
-8.5149e-07
-3.64944e-06
-2.32497e-07
-2.35123e-06
-7.99721e-07
-1.28915e-07
4.67846e-07
-4.40714e-07
1.24248e-06
-8.69615e-07
1.82236e-06
-1.36353e-06
2.21528e-06
-1.88466e-06
2.45153e-06
-2.40746e-06
2.56743e-06
-2.91588e-06
2.59759e-06
-3.40062e-06
2.57127e-06
-3.85696e-06
2.5113e-06
-4.28314e-06
2.43437e-06
-4.67932e-06
2.35214e-06
-5.04678e-06
2.27228e-06
-5.38749e-06
2.19942e-06
-5.70367e-06
2.13574e-06
-5.99758e-06
2.08139e-06
-6.27129e-06
2.03463e-06
-6.52651e-06
1.99193e-06
-6.76442e-06
1.94796e-06
-6.98563e-06
1.8956e-06
-7.19001e-06
1.82605e-06
-7.37667e-06
1.72891e-06
-7.54386e-06
1.59255e-06
-7.68888e-06
1.40439e-06
-7.80791e-06
1.15158e-06
-7.89575e-06
8.21631e-07
-7.94546e-06
4.03421e-07
-7.9478e-06
-1.11632e-07
-7.89063e-06
-7.27968e-07
-7.75828e-06
-1.44376e-06
-7.53123e-06
-2.248e-06
-7.18654e-06
-3.11671e-06
-6.69975e-06
-4.00811e-06
-6.04929e-06
-4.85746e-06
-5.22423e-06
-5.57305e-06
-4.23592e-06
-6.03661e-06
-3.13167e-06
-6.11346e-06
-2.00572e-06
-5.67819e-06
-9.98795e-07
-4.65637e-06
-2.78139e-07
-3.07188e-06
-1.07786e-06
-1.47923e-07
6.15769e-07
-5.0075e-07
1.5953e-06
-9.77566e-07
2.29917e-06
-1.51542e-06
2.75314e-06
-2.07034e-06
3.00646e-06
-2.61426e-06
3.11135e-06
-3.1308e-06
3.11413e-06
-3.61151e-06
3.05199e-06
-4.05301e-06
2.95279e-06
-4.45496e-06
2.83633e-06
-4.81884e-06
2.71603e-06
-5.14711e-06
2.60055e-06
-5.4427e-06
2.495e-06
-5.7087e-06
2.40174e-06
-5.94816e-06
2.32084e-06
-6.16393e-06
2.2504e-06
-6.35861e-06
2.18661e-06
-6.53446e-06
2.1238e-06
-6.69336e-06
2.05451e-06
-6.83686e-06
1.96954e-06
-6.96606e-06
1.85812e-06
-7.08164e-06
1.70813e-06
-7.18372e-06
1.50647e-06
-7.27163e-06
1.23949e-06
-7.34358e-06
8.93585e-07
-7.39612e-06
4.55959e-07
-7.42332e-06
-8.44301e-08
-7.41579e-06
-7.35504e-07
-7.35942e-06
-1.50012e-06
-7.23428e-06
-2.37315e-06
-7.01381e-06
-3.33717e-06
-6.66551e-06
-4.35641e-06
-6.1541e-06
-5.36888e-06
-5.44926e-06
-6.27789e-06
-4.53945e-06
-6.94642e-06
-3.4518e-06
-7.20111e-06
-2.27351e-06
-6.85648e-06
-1.16282e-06
-5.76706e-06
-3.32656e-07
-3.90205e-06
-1.41052e-06
-1.68239e-07
7.84007e-07
-5.62646e-07
1.98971e-06
-1.08389e-06
2.82042e-06
-1.65673e-06
3.32598e-06
-2.2313e-06
3.58103e-06
-2.77803e-06
3.65809e-06
-3.28154e-06
3.61763e-06
-3.73543e-06
3.50588e-06
-4.13866e-06
3.35602e-06
-4.49312e-06
3.19078e-06
-4.80217e-06
3.02507e-06
-5.06981e-06
2.8682e-06
-5.30022e-06
2.72542e-06
-5.4975e-06
2.59902e-06
-5.66554e-06
2.48887e-06
-5.80795e-06
2.39282e-06
-5.92816e-06
2.30682e-06
-6.02935e-06
2.22499e-06
-6.11458e-06
2.13973e-06
-6.1868e-06
2.04177e-06
-6.24895e-06
1.92026e-06
-6.30385e-06
1.76304e-06
-6.35422e-06
1.55684e-06
-6.40239e-06
1.28766e-06
-6.44998e-06
9.41179e-07
-6.49729e-06
5.03262e-07
-6.54236e-06
-3.93525e-08
-6.5798e-06
-6.98071e-07
-6.59904e-06
-1.48088e-06
-6.58241e-06
-2.38977e-06
-6.50311e-06
-3.41648e-06
-6.32387e-06
-4.53565e-06
-5.99795e-06
-5.6948e-06
-5.47489e-06
-6.80095e-06
-4.71462e-06
-7.70669e-06
-3.71248e-06
-8.20325e-06
-2.5333e-06
-8.03567e-06
-1.34117e-06
-6.95919e-06
-3.97372e-07
-4.84584e-06
-1.80789e-06
-1.92201e-07
9.76208e-07
-6.31558e-07
2.42907e-06
-1.19442e-06
3.38328e-06
-1.79136e-06
3.92292e-06
-2.36756e-06
4.15723e-06
-2.89403e-06
4.18456e-06
-3.35851e-06
4.08211e-06
-3.75848e-06
3.90585e-06
-4.0966e-06
3.69414e-06
-4.3779e-06
3.47209e-06
-4.60827e-06
3.25544e-06
-4.79362e-06
3.05355e-06
-4.93955e-06
2.87135e-06
-5.05116e-06
2.71063e-06
-5.1331e-06
2.57082e-06
-5.18962e-06
2.44934e-06
-5.22468e-06
2.34187e-06
-5.24211e-06
2.24242e-06
-5.24577e-06
2.14339e-06
-5.23965e-06
2.03565e-06
-5.228e-06
1.90861e-06
-5.21537e-06
1.7504e-06
-5.20657e-06
1.54804e-06
-5.20653e-06
1.28762e-06
-5.21999e-06
9.5464e-07
-5.25095e-06
5.34222e-07
-5.30183e-06
1.15204e-08
-5.37216e-06
-6.27738e-07
-5.45678e-06
-1.39626e-06
-5.54324e-06
-2.30331e-06
-5.60859e-06
-3.35112e-06
-5.6159e-06
-4.52834e-06
-5.51194e-06
-5.79877e-06
-5.22895e-06
-7.08394e-06
-4.69586e-06
-8.23978e-06
-3.86519e-06
-9.03392e-06
-2.75955e-06
-9.14131e-06
-1.52773e-06
-8.191e-06
-4.73679e-07
-5.89989e-06
-2.28157e-06
-2.2398e-07
1.20019e-06
-7.15811e-07
2.9209e-06
-1.31751e-06
3.98497e-06
-1.92354e-06
4.52895e-06
-2.47671e-06
4.71039e-06
-2.95234e-06
4.66019e-06
-3.34465e-06
4.47442e-06
-3.65754e-06
4.21874e-06
-3.89906e-06
3.93566e-06
-4.07845e-06
3.65148e-06
-4.20467e-06
3.38165e-06
-4.28576e-06
3.13464e-06
-4.32871e-06
2.9143e-06
-4.33951e-06
2.72142e-06
-4.32327e-06
2.55457e-06
-4.2845e-06
2.41057e-06
-4.22734e-06
2.28472e-06
-4.15582e-06
2.1709e-06
-4.07406e-06
2.06164e-06
-3.98655e-06
1.94814e-06
-3.89827e-06
1.82033e-06
-3.81484e-06
1.66697e-06
-3.74254e-06
1.47574e-06
-3.68827e-06
1.23335e-06
-3.65933e-06
9.25705e-07
-3.66306e-06
5.37948e-07
-3.70612e-06
5.45804e-08
-3.79344e-06
-5.4042e-07
-3.92644e-06
-1.26326e-06
-4.10037e-06
-2.12939e-06
-4.30025e-06
-3.15124e-06
-4.49557e-06
-4.33302e-06
-4.63419e-06
-5.66015e-06
-4.63835e-06
-7.07977e-06
-4.40892e-06
-8.46921e-06
-3.84856e-06
-9.59428e-06
-2.916e-06
-1.00739e-05
-1.71253e-06
-9.39447e-06
-5.63934e-07
-7.04849e-06
-2.8455e-06
-2.70999e-07
1.47119e-06
-8.28224e-07
3.47812e-06
-1.46342e-06
4.62017e-06
-2.05466e-06
5.12019e-06
-2.54835e-06
5.20408e-06
-2.93064e-06
5.04248e-06
-3.20722e-06
4.751e-06
-3.39167e-06
4.40319e-06
-3.49934e-06
4.04333e-06
-3.54456e-06
3.6967e-06
-3.53962e-06
3.37672e-06
-3.49459e-06
3.08961e-06
-3.41752e-06
2.83723e-06
-3.31478e-06
2.61868e-06
-3.19147e-06
2.43127e-06
-3.05184e-06
2.27093e-06
-2.89962e-06
2.1325e-06
-2.73845e-06
2.00973e-06
-2.57216e-06
1.89535e-06
-2.40508e-06
1.78105e-06
-2.24227e-06
1.65752e-06
-2.08972e-06
1.51443e-06
-1.95448e-06
1.34049e-06
-1.84465e-06
1.12352e-06
-1.76937e-06
8.50427e-07
-1.7386e-06
5.07174e-07
-1.76268e-06
7.86651e-08
-1.85163e-06
-4.51474e-07
-2.01373e-06
-1.10115e-06
-2.25324e-06
-1.88988e-06
-2.56632e-06
-2.83816e-06
-2.93471e-06
-3.96463e-06
-3.31649e-06
-5.27836e-06
-3.63552e-06
-6.76075e-06
-3.77494e-06
-8.32979e-06
-3.58866e-06
-9.78056e-06
-2.95306e-06
-1.07095e-05
-1.87983e-06
-1.04677e-05
-6.72254e-07
-8.25607e-06
-3.51775e-06
-3.46409e-07
1.8176e-06
-9.87089e-07
4.1188e-06
-1.6406e-06
5.27368e-06
-2.17448e-06
5.65407e-06
-2.55169e-06
5.58129e-06
-2.77978e-06
5.27058e-06
-2.88273e-06
4.85396e-06
-2.88745e-06
4.4079e-06
-2.81806e-06
3.97394e-06
-2.69423e-06
3.57287e-06
-2.53112e-06
3.2136e-06
-2.34001e-06
2.8985e-06
-2.12911e-06
2.62633e-06
-1.90431e-06
2.39388e-06
-1.66985e-06
2.19681e-06
-1.42892e-06
2.03e-06
-1.18418e-06
1.88776e-06
-9.38211e-07
1.76376e-06
-6.93911e-07
1.65105e-06
-4.5483e-07
1.54197e-06
-2.25471e-07
1.42816e-06
-1.15303e-08
1.30049e-06
1.79922e-07
1.14904e-06
3.40309e-07
9.63134e-07
4.5949e-07
7.31246e-07
5.25776e-07
4.40887e-07
5.26074e-07
7.83668e-08
4.46241e-07
-3.71641e-07
2.71856e-07
-9.26765e-07
-1.01875e-08
-1.60784e-06
-4.08503e-07
-2.43984e-06
-9.21192e-07
-3.45194e-06
-1.52531e-06
-4.67424e-06
-2.16078e-06
-6.12529e-06
-2.71137e-06
-7.7792e-06
-2.99593e-06
-9.496e-06
-2.80094e-06
-1.09045e-05
-2.00206e-06
-1.12666e-05
-8.04111e-07
-9.45402e-06
-4.32187e-06
-4.72669e-07
2.29026e-06
-1.21369e-06
4.85983e-06
-1.84208e-06
5.90207e-06
-2.23862e-06
6.05061e-06
-2.40816e-06
5.75083e-06
-2.39527e-06
5.25769e-06
-2.2498e-06
4.70849e-06
-2.01451e-06
4.17261e-06
-1.72212e-06
3.68155e-06
-1.39607e-06
3.24682e-06
-1.05246e-06
2.86999e-06
-7.01864e-07
2.54791e-06
-3.5091e-07
2.27538e-06
-3.52207e-09
2.04649e-06
3.38133e-07
1.85515e-06
6.72895e-07
1.69524e-06
1.00001e-06
1.56065e-06
1.31862e-06
1.44515e-06
1.62738e-06
1.34229e-06
1.92406e-06
1.24529e-06
2.20526e-06
1.14697e-06
2.46613e-06
1.03961e-06
2.70019e-06
9.14985e-07
2.89906e-06
7.64259e-07
3.0524e-06
5.77911e-07
3.1477e-06
3.45584e-07
3.17026e-06
5.5806e-08
3.10314e-06
-3.04518e-07
2.92733e-06
-7.50954e-07
2.6224e-06
-1.30291e-06
2.16821e-06
-1.98566e-06
1.54916e-06
-2.83289e-06
7.63361e-07
-3.88844e-06
-1.59386e-07
-5.20254e-06
-1.12811e-06
-6.81047e-06
-1.95621e-06
-8.6679e-06
-2.35416e-06
-1.05065e-05
-2.02375e-06
-1.1597e-05
-9.60807e-07
-1.0517e-05
-5.28267e-06
-6.8268e-07
2.97294e-06
-1.51358e-06
5.69072e-06
-2.00338e-06
6.39187e-06
-2.1132e-06
6.16043e-06
-1.93352e-06
5.57116e-06
-1.56367e-06
4.88784e-06
-1.08323e-06
4.22805e-06
-5.48406e-07
3.63778e-06
4.21043e-09
3.12893e-06
5.52274e-07
2.69876e-06
1.08311e-06
2.33915e-06
1.59039e-06
2.04063e-06
2.07175e-06
1.79401e-06
2.52729e-06
1.59095e-06
2.95842e-06
1.42402e-06
3.36709e-06
1.28657e-06
3.75524e-06
1.1725e-06
4.12431e-06
1.07607e-06
4.47494e-06
9.91661e-07
4.80659e-06
9.13648e-07
5.1173e-06
8.36256e-07
5.40344e-06
7.53462e-07
5.65951e-06
6.58922e-07
5.87787e-06
5.45901e-07
6.04859e-06
4.07182e-07
6.15925e-06
2.34929e-07
6.19463e-06
2.0426e-08
6.13649e-06
-2.46377e-07
5.96322e-06
-5.77682e-07
5.64957e-06
-9.89266e-07
5.16681e-06
-1.5029e-06
4.48413e-06
-2.15021e-06
3.57398e-06
-2.97829e-06
2.42644e-06
-4.055e-06
1.0815e-06
-5.46552e-06
-3.1395e-07
-7.27245e-06
-1.44157e-06
-9.37889e-06
-1.8241e-06
-1.12145e-05
-1.11805e-06
-1.1223e-05
-6.40073e-06
-1.00198e-06
3.97492e-06
-1.79721e-06
6.48596e-06
-1.88138e-06
6.47603e-06
-1.4471e-06
5.72614e-06
-7.25069e-07
4.84913e-06
1.26882e-07
4.03589e-06
1.01169e-06
3.34324e-06
1.87452e-06
2.77495e-06
2.68773e-06
2.31572e-06
3.43994e-06
1.94655e-06
4.12893e-06
1.65016e-06
4.75744e-06
1.41213e-06
5.33064e-06
1.22081e-06
5.85471e-06
1.06688e-06
6.33592e-06
9.42819e-07
6.78008e-06
8.4241e-07
7.19221e-06
7.6037e-07
7.57626e-06
6.9202e-07
7.93488e-06
6.33043e-07
8.26923e-06
5.79294e-07
8.57882e-06
5.26666e-07
8.8613e-06
4.70984e-07
9.11229e-06
4.07933e-07
9.3252e-06
3.32991e-07
9.49102e-06
2.41359e-07
9.59809e-06
1.27856e-07
9.63178e-06
-1.32657e-08
9.57407e-06
-1.88658e-07
9.40288e-06
-4.065e-07
9.09126e-06
-6.77638e-07
8.60604e-06
-1.01768e-06
7.90664e-06
-1.45082e-06
6.94496e-06
-2.0166e-06
5.67102e-06
-2.78106e-06
4.05587e-06
-3.85038e-06
2.15375e-06
-5.37033e-06
2.22336e-07
-7.44747e-06
-1.14814e-06
-9.84398e-06
-1.17144e-06
-1.11997e-05
-7.57217e-06
-1.35332e-06
5.32824e-06
-1.60441e-06
6.73705e-06
-7.38928e-07
5.61055e-06
5.90174e-07
4.39704e-06
2.02255e-06
3.41675e-06
3.40075e-06
2.65768e-06
4.65995e-06
2.08404e-06
5.78054e-06
1.65436e-06
6.76523e-06
1.33103e-06
7.62632e-06
1.08547e-06
8.37927e-06
8.97215e-07
9.03968e-06
7.51714e-07
9.62202e-06
6.38467e-07
1.01391e-05
5.49803e-07
1.06019e-05
4.79996e-07
1.10197e-05
4.24632e-07
1.13999e-05
3.80177e-07
1.17483e-05
3.43667e-07
1.20688e-05
3.12492e-07
1.23639e-05
2.84243e-07
1.26339e-05
2.56603e-07
1.28776e-05
2.27271e-07
1.30916e-05
1.93913e-07
1.32705e-05
1.54118e-07
1.34065e-05
1.05357e-07
1.34895e-05
4.49267e-08
1.35063e-05
-3.01493e-08
1.3441e-05
-1.23306e-07
1.32733e-05
-2.38789e-07
1.2978e-05
-3.8233e-07
1.25227e-05
-5.62442e-07
1.18649e-05
-7.92986e-07
1.09466e-05
-1.09835e-06
9.68967e-06
-1.52408e-06
7.99689e-06
-2.1576e-06
5.7878e-06
-3.16124e-06
3.12935e-06
-4.78903e-06
5.21982e-07
-7.23661e-06
-8.32866e-07
-9.84486e-06
-8.40503e-06
-9.40986e-07
6.26923e-06
8.3518e-07
4.96089e-06
3.35858e-06
3.08715e-06
5.69636e-06
2.05926e-06
7.67936e-06
1.43375e-06
9.32006e-06
1.01699e-06
1.06661e-05
7.38027e-07
1.17701e-05
5.50356e-07
1.26798e-05
4.21264e-07
1.34352e-05
3.30147e-07
1.4068e-05
2.64398e-07
1.46036e-05
2.16085e-07
1.5062e-05
1.80052e-07
1.5459e-05
1.5285e-07
1.58069e-05
1.32094e-07
1.61154e-05
1.16067e-07
1.63921e-05
1.03469e-07
1.66425e-05
9.32615e-08
1.68705e-05
8.456e-08
1.70782e-05
7.65719e-08
1.72662e-05
6.85503e-08
1.74337e-05
5.97659e-08
1.75781e-05
4.94879e-08
1.76953e-05
3.69716e-08
1.77792e-05
2.14462e-08
1.7822e-05
2.0997e-09
1.78138e-05
-2.195e-08
1.77422e-05
-5.17128e-08
1.75919e-05
-8.84377e-08
1.73434e-05
-1.33834e-07
1.69714e-05
-1.90507e-07
1.64413e-05
-2.62862e-07
1.5702e-05
-3.59072e-07
1.46737e-05
-4.95772e-07
1.32261e-05
-7.09982e-07
1.11556e-05
-1.09076e-06
8.22181e-06
-1.8552e-06
4.41359e-06
-3.42839e-06
7.35137e-07
-6.16641e-06
-7.6699e-06
6.26923e-06
1.12301e-05
1.43173e-05
1.63765e-05
1.78103e-05
1.88273e-05
1.95653e-05
2.01157e-05
2.05369e-05
2.08671e-05
2.11315e-05
2.13475e-05
2.15276e-05
2.16804e-05
2.18125e-05
2.19286e-05
2.20321e-05
2.21253e-05
2.22099e-05
2.22865e-05
2.2355e-05
2.24148e-05
2.24643e-05
2.25012e-05
2.25227e-05
2.25248e-05
2.25028e-05
2.24511e-05
2.23627e-05
2.22289e-05
2.20384e-05
2.17755e-05
2.14164e-05
2.09206e-05
2.02107e-05
1.91199e-05
1.72647e-05
1.38363e-05
7.6699e-06
)
;

boundaryField
{
    movingWall
    {
        type            calculated;
        value           uniform 0;
    }
    fixedWalls
    {
        type            calculated;
        value           uniform 0;
    }
    frontAndBack
    {
        type            empty;
        value           nonuniform 0();
    }
}


// ************************************************************************* //
