1.45 	0 	0 	-0.300109
2.35 	0 	0 	-0.133411
