/*--------------------------------*- C++ -*----------------------------------*\
  =========                 |
  \\      /  F ield         | OpenFOAM: The Open Source CFD Toolbox
   \\    /   O peration     | Website:  https://openfoam.org
    \\  /    A nd           | Version:  6.0
     \\/     M anipulation  |
\*---------------------------------------------------------------------------*/
FoamFile
{
    version     2.0;
    format      ascii;
    class       surfaceScalarField;
    location    "0.5";
    object      phi;
}
// * * * * * * * * * * * * * * * * * * * * * * * * * * * * * * * * * * * * * //

dimensions      [0 3 -1 0 0 0 0];

internalField   nonuniform List<scalar> 
370
(
-7.9179e-08
7.91588e-08
-5.96787e-07
5.17608e-07
-1.34894e-06
7.52153e-07
-2.13418e-06
7.8524e-07
-2.84465e-06
7.10474e-07
-3.43918e-06
5.94531e-07
-3.91369e-06
4.745e-07
-4.28015e-06
3.66462e-07
-4.55259e-06
2.72443e-07
-4.73821e-06
1.85624e-07
-4.83194e-06
9.37285e-08
-4.81347e-06
-1.8473e-08
-4.64744e-06
-1.66024e-07
-4.28906e-06
-3.58382e-07
-3.69858e-06
-5.90484e-07
-2.86784e-06
-8.30738e-07
-1.85817e-06
-1.00967e-06
-8.42809e-07
-1.01536e-06
-1.26529e-07
-7.16279e-07
-1.26529e-07
-5.64778e-07
6.43937e-07
-1.91968e-06
1.87251e-06
-3.64697e-06
2.47945e-06
-5.40483e-06
2.5431e-06
-6.99149e-06
2.29713e-06
-8.32092e-06
1.92396e-06
-9.37889e-06
1.53248e-06
-1.01847e-05
1.1723e-06
-1.07636e-05
8.51343e-07
-1.11287e-05
5.50701e-07
-1.12703e-05
2.35304e-07
-1.11512e-05
-1.37598e-07
-1.07086e-05
-6.08538e-07
-9.86638e-06
-1.20064e-06
-8.56067e-06
-1.8962e-06
-6.78541e-06
-2.606e-06
-4.65462e-06
-3.14045e-06
-2.46717e-06
-3.20282e-06
-7.23674e-07
-2.45977e-06
-8.50202e-07
-9.9148e-07
1.63542e-06
-3.02594e-06
3.90697e-06
-5.41976e-06
4.87326e-06
-7.74123e-06
4.86457e-06
-9.76864e-06
4.32455e-06
-1.14241e-05
3.57938e-06
-1.27109e-05
2.81929e-06
-1.36665e-05
2.12795e-06
-1.4331e-05
1.5158e-06
-1.47275e-05
9.47185e-07
-1.48515e-05
3.59348e-07
-1.46662e-05
-3.229e-07
-1.41035e-05
-1.17121e-06
-1.30743e-05
-2.22986e-06
-1.14919e-05
-3.47863e-06
-9.31686e-06
-4.78103e-06
-6.62965e-06
-5.82767e-06
-3.72733e-06
-6.10513e-06
-1.21221e-06
-4.97489e-06
-2.06241e-06
-1.34373e-06
2.97915e-06
-3.87634e-06
6.43958e-06
-6.63284e-06
7.62975e-06
-9.12907e-06
7.36081e-06
-1.11835e-05
6.37896e-06
-1.27756e-05
5.17145e-06
-1.39562e-05
3.99993e-06
-1.47954e-05
2.96713e-06
-1.53541e-05
2.0745e-06
-1.56703e-05
1.26345e-06
-1.57525e-05
4.41472e-07
-1.55753e-05
-5.00022e-07
-1.50788e-05
-1.66776e-06
-1.41691e-05
-3.13952e-06
-1.27295e-05
-4.91823e-06
-1.06513e-05
-6.8593e-06
-7.90694e-06
-8.57198e-06
-4.68997e-06
-9.32211e-06
-1.6283e-06
-8.03656e-06
-3.69071e-06
-1.68421e-06
4.66336e-06
-4.51154e-06
9.26692e-06
-7.25404e-06
1.03722e-05
-9.47269e-06
9.57946e-06
-1.11095e-05
8.01575e-06
-1.22495e-05
6.31148e-06
-1.30112e-05
4.76161e-06
-1.35003e-05
3.45623e-06
-1.37954e-05
2.36967e-06
-1.39465e-05
1.4145e-06
-1.39757e-05
4.70631e-07
-1.38769e-05
-5.98799e-07
-1.36108e-05
-1.93381e-06
-1.3095e-05
-3.65537e-06
-1.21925e-05
-5.82076e-06
-1.0714e-05
-8.33776e-06
-8.46845e-06
-1.08175e-05
-5.42363e-06
-1.23669e-05
-2.06828e-06
-1.13919e-05
-5.75899e-06
-2.08093e-06
6.74429e-06
-4.92189e-06
1.21079e-05
-7.12414e-06
1.25745e-05
-8.50038e-06
1.09557e-05
-9.23192e-06
8.74729e-06
-9.54513e-06
6.62469e-06
-9.62119e-06
4.83767e-06
-9.58239e-06
3.41743e-06
-9.50468e-06
2.29195e-06
-9.43435e-06
1.34417e-06
-9.4001e-06
4.36382e-07
-9.41716e-06
-5.81742e-07
-9.48125e-06
-1.86972e-06
-9.54908e-06
-3.58753e-06
-9.50328e-06
-5.86656e-06
-9.10969e-06
-8.73135e-06
-8.00415e-06
-1.19231e-05
-5.80311e-06
-1.4568e-05
-2.56664e-06
-1.46284e-05
-8.32563e-06
-2.55045e-06
9.29474e-06
-4.85954e-06
1.4417e-05
-5.72031e-06
1.34353e-05
-5.56143e-06
1.07968e-05
-4.90881e-06
8.09467e-06
-4.1077e-06
5.82358e-06
-3.34637e-06
4.07633e-06
-2.71121e-06
2.78227e-06
-2.23612e-06
1.81686e-06
-1.93753e-06
1.04558e-06
-1.83507e-06
3.33921e-07
-1.96055e-06
-4.5626e-07
-2.35484e-06
-1.47543e-06
-3.04735e-06
-2.89502e-06
-4.00738e-06
-4.90652e-06
-5.05648e-06
-7.68226e-06
-5.75153e-06
-1.1228e-05
-5.31722e-06
-1.50023e-05
-2.99876e-06
-1.69468e-05
-1.13244e-05
-2.82756e-06
1.21223e-05
-3.31985e-06
1.49093e-05
-1.64663e-06
1.1762e-05
7.26101e-07
8.42409e-06
3.02125e-06
5.79952e-06
4.94972e-06
3.89511e-06
6.44927e-06
2.57678e-06
7.5508e-06
1.68074e-06
8.30766e-06
1.06001e-06
8.75854e-06
5.947e-07
8.9089e-06
1.83553e-07
8.72189e-06
-2.69247e-07
8.11563e-06
-8.69176e-07
6.97126e-06
-1.75064e-06
5.16674e-06
-3.102e-06
2.66968e-06
-5.1852e-06
-2.58986e-07
-8.29936e-06
-2.7031e-06
-1.25582e-05
-2.83149e-06
-1.68184e-05
-1.41559e-05
-1.18914e-06
1.33114e-05
3.02852e-06
1.06916e-05
8.36886e-06
6.4217e-06
1.29024e-05
3.89054e-06
1.63256e-05
2.37637e-06
1.87766e-05
1.4441e-06
2.04762e-05
8.77162e-07
2.16235e-05
5.33435e-07
2.23651e-05
3.18373e-07
2.27895e-05
1.70349e-07
2.29271e-05
4.59444e-08
2.27493e-05
-9.15007e-08
2.21621e-05
-2.81905e-07
2.09931e-05
-5.81638e-07
1.89781e-05
-1.08701e-06
1.57722e-05
-1.97933e-06
1.10773e-05
-3.60443e-06
5.09614e-06
-6.57701e-06
-1.89126e-07
-1.15332e-05
-1.4345e-05
1.33114e-05
2.4003e-05
3.04247e-05
3.43153e-05
3.66917e-05
3.81358e-05
3.90129e-05
3.95464e-05
3.98647e-05
4.00351e-05
4.0081e-05
3.99895e-05
3.97076e-05
3.9126e-05
3.8039e-05
3.60596e-05
3.24552e-05
2.58782e-05
1.4345e-05
)
;

boundaryField
{
    movingWall
    {
        type            calculated;
        value           uniform 0;
    }
    fixedWalls
    {
        type            calculated;
        value           uniform 0;
    }
    frontAndBack
    {
        type            empty;
        value           nonuniform 0();
    }
}


// ************************************************************************* //
