1.45 	0 	0 	0.0119319 	-0.00470035 	3.88897e-21
2.35 	0 	0 	0.149881 	-0.00958508 	1.53529e-21
