/*--------------------------------*- C++ -*----------------------------------*\
  =========                 |
  \\      /  F ield         | OpenFOAM: The Open Source CFD Toolbox
   \\    /   O peration     | Website:  https://openfoam.org
    \\  /    A nd           | Version:  6.0
     \\/     M anipulation  |
\*---------------------------------------------------------------------------*/
FoamFile
{
    version     2.0;
    format      ascii;
    class       volVectorField;
    location    "23";
    object      U;
}
// * * * * * * * * * * * * * * * * * * * * * * * * * * * * * * * * * * * * * //

dimensions      [0 1 -1 0 0 0 0];

internalField   nonuniform List<vector> 
2000
(
(-0.00199193 0.0017391 3.3655e-20)
(-0.00762228 0.00330567 3.57537e-20)
(-0.0153364 0.00366586 -3.28023e-20)
(-0.0223501 0.00334163 -6.47164e-20)
(-0.0277068 0.00264375 -4.38912e-20)
(-0.0312545 0.00177548 5.6973e-20)
(-0.0330924 0.000882469 3.24365e-20)
(-0.0334888 7.1784e-05 -1.28586e-20)
(-0.032865 -0.000577108 -3.1532e-20)
(-0.0315178 -0.00100131 1.85421e-20)
(-0.0024905 0.00512382 -8.34194e-20)
(-0.0083734 0.00969512 1.03009e-19)
(-0.0157359 0.0107097 9.88798e-21)
(-0.0220488 0.00970973 -5.55187e-20)
(-0.0264933 0.00760956 2.57919e-19)
(-0.0289936 0.00500655 -1.10603e-19)
(-0.0296967 0.00232975 -1.16957e-19)
(-0.0288978 -0.000101444 1.38246e-19)
(-0.0270362 -0.00204446 -1.3393e-19)
(-0.0244831 -0.00330939 5.45347e-20)
(-0.00343692 0.0082301 1.38544e-20)
(-0.00973509 0.0154272 4.40562e-21)
(-0.0163212 0.0169079 2.97084e-19)
(-0.0211796 0.0151621 1.00763e-19)
(-0.0237668 0.0116531 1.94024e-20)
(-0.0241576 0.00733345 1.56339e-19)
(-0.022592 0.00289031 -2.90234e-19)
(-0.0194146 -0.00115181 6.16704e-21)
(-0.0150976 -0.00437529 -1.65223e-19)
(-0.0101669 -0.00645931 1.47188e-19)
(-0.00472612 0.0108774 -2.60597e-20)
(-0.0114173 0.0200882 1.34111e-19)
(-0.0166513 0.0217524 -3.76028e-19)
(-0.0191906 0.0191824 -4.69989e-20)
(-0.018904 0.0142972 -2.59814e-19)
(-0.0160895 0.00833556 2.62181e-19)
(-0.0111199 0.00219412 -2.71809e-19)
(-0.00440412 -0.00341586 1.87076e-19)
(0.00354604 -0.00788465 7.72576e-20)
(0.0119573 -0.0107538 -7.0773e-20)
(-0.00619095 0.0128902 -2.90016e-19)
(-0.0129638 0.0232981 2.33424e-21)
(-0.0160344 0.0248141 4.63194e-19)
(-0.0152132 0.0213901 1.34275e-19)
(-0.0109167 0.0152673 -4.14491e-19)
(-0.00373695 0.00786844 2.51129e-19)
(0.00578252 0.000219112 2.78239e-19)
(0.0171639 -0.00682503 -2.43118e-19)
(0.0298656 -0.0124488 1.70293e-19)
(0.0427615 -0.0160497 3.40054e-20)
(-0.00759061 0.0140974 3.96451e-20)
(-0.0137326 0.0247211 6.57832e-21)
(-0.0135042 0.0257649 -5.92164e-19)
(-0.00802906 0.0215763 -3.20325e-19)
(0.00159752 0.0145505 3.70999e-19)
(0.0144153 0.00616117 -4.23323e-19)
(0.029667 -0.00255951 4.7414e-19)
(0.0468069 -0.0107008 -4.01187e-20)
(0.065304 -0.0172597 -1.28445e-19)
(0.0835684 -0.0214979 -3.04801e-19)
(-0.00859884 0.0143362 -8.62453e-20)
(-0.0128843 0.0240788 -1.40929e-19)
(-0.0078143 0.0243918 -1.66619e-19)
(0.00393876 0.0197129 3.43681e-19)
(0.0204824 0.0124068 6.19003e-19)
(0.0404081 0.00384953 -1.24656e-19)
(0.0626798 -0.00508783 -2.96573e-19)
(0.0866691 -0.0136143 8.86458e-20)
(0.111938 -0.0206442 -5.48446e-19)
(0.136365 -0.0253502 4.94351e-19)
(-0.00879989 0.0134659 5.27479e-19)
(-0.00939757 0.0211763 -2.57564e-19)
(0.00251885 0.0206049 4.83973e-19)
(0.0225637 0.0159282 -7.64554e-19)
(0.0479587 0.00931403 -3.54707e-19)
(0.07676 0.00192093 -4.78728e-19)
(0.107544 -0.00572132 1.35937e-19)
(0.139523 -0.0132126 -3.71055e-19)
(0.172482 -0.0196216 7.93769e-19)
(0.203883 -0.0242003 1.83292e-19)
(-0.00770378 0.0113984 3.87833e-20)
(-0.00213032 0.0159446 4.19564e-19)
(0.0191051 0.0144434 8.02421e-19)
(0.0498675 0.0104378 2.37116e-19)
(0.0864587 0.00580385 6.814e-19)
(0.126306 0.00150005 3.6396e-20)
(0.167409 -0.00228134 -3.45539e-22)
(0.208552 -0.00560988 2.56427e-19)
(0.24976 -0.00788585 2.03523e-19)
(0.288645 -0.0093907 -5.49769e-19)
(-0.00479663 0.00814408 -3.12387e-19)
(0.0100487 0.00850105 -4.68152e-19)
(0.043478 0.00607282 -6.54899e-19)
(0.0877863 0.00337257 1.49439e-20)
(0.138496 0.00194228 -3.13468e-19)
(0.192508 0.00274289 4.8142e-19)
(0.247252 0.0060953 -1.29558e-18)
(0.30078 0.0121861 5.70112e-19)
(0.35241 0.02156 2.10461e-19)
(0.399578 0.0303028 5.53792e-19)
(0.00035981 0.00387158 1.56304e-19)
(0.0280137 -0.000753285 -5.35253e-19)
(0.0766406 -0.00413193 4.59969e-19)
(0.137359 -0.0052801 -1.7256e-19)
(0.205319 -0.00322229 1.8224e-19)
(0.277556 0.00296487 3.86664e-19)
(0.352238 0.0140125 -5.07442e-19)
(0.428956 0.0308379 6.45949e-20)
(0.508726 0.0527414 -2.3425e-19)
(0.594045 0.069961 4.14239e-19)
(0.00803113 -0.00104295 2.23891e-19)
(0.0521575 -0.0109746 -4.85303e-19)
(0.118597 -0.0151934 6.36324e-19)
(0.19757 -0.014834 -3.83204e-19)
(0.283858 -0.0100447 -1.36504e-19)
(0.374409 -0.00068665 7.87482e-20)
(0.467414 0.013148 3.97766e-20)
(0.562311 0.0311432 5.29252e-19)
(0.658802 0.0506532 1.49637e-19)
(0.754656 0.0630265 5.60814e-19)
(0.0183251 -0.00603721 -1.99837e-19)
(0.0825192 -0.0208086 6.27473e-19)
(0.168869 -0.0251417 -5.03835e-19)
(0.266914 -0.0226563 -5.71427e-19)
(0.370956 -0.0148717 7.76276e-19)
(0.477502 -0.00258332 -5.75248e-19)
(0.584157 0.0132758 1.48522e-19)
(0.689368 0.0315938 -8.63124e-19)
(0.791399 0.0497436 6.35131e-19)
(0.886313 0.0623695 2.79913e-20)
(0.0312478 -0.0104826 -2.60425e-19)
(0.1189 -0.0286955 -2.25087e-19)
(0.226763 -0.0316811 -4.61212e-19)
(0.343972 -0.0257333 5.4056e-19)
(0.464382 -0.0138257 -2.65246e-20)
(0.584033 0.0023429 3.30734e-19)
(0.699988 0.0211705 5.89874e-19)
(0.810007 0.0411592 -1.77662e-19)
(0.911749 0.06025 -6.17459e-19)
(1.00125 0.0754136 1.0786e-18)
(0.0467294 -0.0137703 -1.34602e-19)
(0.160858 -0.0331307 -1.43691e-19)
(0.291276 -0.0326957 2.48814e-19)
(0.427082 -0.0215234 -4.47248e-19)
(0.561894 -0.00406361 7.41742e-20)
(0.6915 0.0171311 6.43427e-20)
(0.812779 0.0399132 2.76051e-20)
(0.923376 0.0625759 -4.34337e-21)
(1.02111 0.0836305 -6.50479e-20)
(1.10263 0.10145 -9.12106e-19)
(0.0646116 -0.0153379 5.46441e-19)
(0.20766 -0.032787 -3.41202e-19)
(0.36097 -0.0264677 4.21474e-21)
(0.514089 -0.0082093 -4.83633e-19)
(0.660743 0.0160945 -1.68051e-19)
(0.796849 0.0431162 1.53087e-19)
(0.919567 0.0702853 1.16265e-19)
(1.02699 0.0958082 -4.06036e-19)
(1.11766 0.118712 3.26107e-19)
(1.18924 0.138186 -3.75871e-19)
(0.0846155 -0.0146734 2.35831e-19)
(0.258242 -0.0265729 -1.87557e-19)
(0.433946 -0.0117742 7.49706e-19)
(0.602332 0.0152253 7.39255e-20)
(0.757722 0.0472042 1.64953e-19)
(0.896645 0.0802076 7.16557e-19)
(1.01707 0.111421 -1.07064e-19)
(1.11805 0.139132 9.57192e-20)
(1.19925 0.162909 3.89565e-20)
(1.2596 0.182436 -4.19966e-20)
(0.106312 -0.0113261 1.64756e-19)
(0.311197 -0.013673 3.54508e-19)
(0.507891 0.0120729 -3.65438e-19)
(0.688792 0.0490174 -1.19655e-19)
(0.849412 0.0888558 -1.43532e-19)
(0.987457 0.12726 2.16716e-19)
(1.10222 0.161441 -1.10218e-19)
(1.19414 0.19001 2.90646e-19)
(1.26425 0.213168 9.61394e-20)
(1.31292 0.230959 -1.36983e-19)
(0.129105 -0.00493162 -1.77562e-19)
(0.364802 0.00640401 1.41222e-19)
(0.580192 0.0452059 -2.90015e-19)
(0.770296 0.0926818 1.20971e-19)
(0.932487 0.139856 -1.21888e-19)
(1.06622 0.182407 -1.48258e-19)
(1.17256 0.217925 -1.16408e-19)
(1.25364 0.245635 1.27525e-19)
(1.31195 0.266501 -2.36311e-19)
(1.3493 0.280887 1.2432e-19)
(0.152243 0.00475027 -6.32882e-20)
(0.417093 0.0337701 -1.10796e-19)
(0.648095 0.0871863 5.07725e-20)
(0.843758 0.14508 3.02362e-21)
(1.00399 0.198399 3.9556e-20)
(1.13052 0.243326 5.28979e-20)
(1.22649 0.278237 4.79367e-20)
(1.29584 0.303263 -6.22954e-20)
(1.34249 0.320246 5.21414e-20)
(1.36957 0.329885 -7.06692e-20)
(0.174843 0.017795 -3.66408e-20)
(0.465964 0.0681077 -1.23083e-20)
(0.708878 0.137006 4.71017e-20)
(0.906392 0.204502 -2.09656e-20)
(1.06155 0.262234 5.4283e-20)
(1.1787 0.307455 -6.83e-20)
(1.26325 0.339748 1.54667e-20)
(1.32089 0.360392 1.62661e-20)
(1.35678 0.372181 -6.70327e-21)
(1.37513 0.376158 2.18523e-20)
(0.195941 0.0340776 -3.95201e-20)
(0.509301 0.108639 -1.60079e-19)
(0.760039 0.193118 -1.06632e-20)
(0.9559 0.268771 3.06955e-21)
(1.10348 0.328818 -1.88187e-19)
(1.20996 0.372171 2.4232e-20)
(1.28293 0.399981 -2.01662e-20)
(1.32964 0.41485 -4.77325e-20)
(1.35621 0.420517 9.78268e-20)
(1.36766 0.41837 -1.52591e-19)
(0.214543 0.0532477 -1.90901e-20)
(0.545114 0.154126 3.24287e-19)
(0.799452 0.253496 5.02664e-20)
(0.990599 0.335363 -2.65635e-19)
(1.12888 0.395463 -2.09154e-20)
(1.22426 0.434912 -2.40986e-19)
(1.28629 0.456697 1.72708e-19)
(1.32344 0.464803 -6.15095e-20)
(1.34248 0.463845 1.07245e-19)
(1.34896 0.455531 -6.65154e-20)
(0.229696 0.0747213 -1.20408e-19)
(0.571679 0.202901 1.02958e-19)
(0.825506 0.315729 -7.15307e-20)
(1.0095 0.401536 5.21112e-19)
(1.13761 0.459469 2.49791e-19)
(1.22227 0.493275 -5.64631e-20)
(1.27464 0.507921 1.86014e-19)
(1.304 0.508728 -1.20051e-19)
(1.31747 0.501052 -3.28811e-20)
(1.32084 0.486889 1.81933e-19)
(0.240552 0.0976887 -2.0847e-19)
(0.587654 0.252939 2.37423e-19)
(0.837197 0.377142 -4.49574e-19)
(1.01234 0.464471 6.10798e-20)
(1.13019 0.51823 1.32609e-19)
(1.20523 0.545072 -1.98015e-19)
(1.24968 0.551947 -2.25784e-19)
(1.27326 0.545362 9.72697e-20)
(1.28312 0.531235 -1.15211e-19)
(1.28511 0.511831 1.15913e-19)
(0.246429 0.121142 -5.26616e-20)
(0.592171 0.301953 -2.41641e-19)
(0.834176 0.434935 1.28604e-19)
(0.999512 0.521396 2.08753e-19)
(1.10777 0.569323 -1.21836e-19)
(1.1748 0.588361 -8.85534e-20)
(1.21339 0.587308 -4.7723e-20)
(1.23327 0.573632 -2.32417e-20)
(1.24139 0.553608 4.6645e-21)
(1.2435 0.529786 3.97941e-20)
(0.246873 0.143919 3.87247e-20)
(0.584906 0.347519 -2.03014e-19)
(0.816746 0.486334 3.25881e-19)
(0.972046 0.569723 -1.86638e-19)
(1.07194 0.610591 5.09046e-20)
(1.13298 0.621466 -7.0303e-20)
(1.16791 0.612753 7.39821e-20)
(1.18611 0.592598 1.4395e-20)
(1.19417 0.567403 -3.25947e-20)
(1.19769 0.540077 5.24565e-20)
(0.2417 0.16477 -1.01822e-19)
(0.566101 0.387219 1.78256e-19)
(0.785828 0.528742 -7.65638e-21)
(0.931463 0.607162 -3.60241e-20)
(1.02466 0.64021 -9.55468e-20)
(1.08193 0.643021 1.16161e-20)
(1.11549 0.62729 2.6724e-20)
(1.13401 0.601511 -6.59249e-20)
(1.14362 0.57192 7.55424e-20)
(1.14974 0.541916 5.31221e-20)
(0.231031 0.182439 2.316e-20)
(0.536567 0.4188 -4.26986e-20)
(0.742875 0.559891 1.17979e-20)
(0.879642 0.631807 7.2567e-21)
(0.967988 0.656695 3.57692e-20)
(1.02379 0.651879 -6.58195e-20)
(1.05834 0.630018 -1.35142e-19)
(1.0794 0.599648 -5.4078e-20)
(1.09268 0.566507 -6.80692e-20)
(1.103 0.534661 4.66002e-20)
(0.215314 0.195771 6.43352e-20)
(0.497638 0.440352 -8.94245e-20)
(0.689767 0.578008 8.30736e-20)
(0.818623 0.642265 -1.52904e-19)
(0.903815 0.658919 3.59724e-20)
(0.96011 0.646878 2.37461e-19)
(0.997711 0.619352 -7.11984e-20)
(1.02361 0.584633 8.27187e-20)
(1.04313 0.547807 1.19185e-19)
(1.05935 0.51471 3.49198e-19)
(0.195318 0.203827 3.9821e-19)
(0.45114 0.450494 -2.42196e-19)
(0.628764 0.582042 5.67389e-19)
(0.750578 0.638029 -9.39324e-20)
(0.833732 0.646823 4.57077e-19)
(0.891424 0.628052 2.7938e-19)
(0.932695 0.594675 -6.41509e-19)
(0.963916 0.553791 9.54711e-19)
(0.989718 0.507753 -1.98577e-19)
(1.00692 0.460374 3.50268e-19)
(0.172107 0.205956 -2.19702e-19)
(0.399342 0.448424 -1.4017e-19)
(0.56259 0.571682 1.30577e-19)
(0.678183 0.619577 -3.12274e-19)
(0.759945 0.622046 -9.46962e-19)
(0.819002 0.598965 -3.71104e-19)
(0.863001 0.563102 -3.26877e-19)
(0.897375 0.521627 1.55086e-19)
(0.925354 0.478007 1.26825e-18)
(0.943235 0.4369 -2.37292e-19)
(0.146943 0.201783 1.15711e-19)
(0.344834 0.43379 -4.18947e-19)
(0.494391 0.546902 8.86472e-20)
(0.604868 0.587208 -6.24074e-19)
(0.686283 0.585037 1.32633e-18)
(0.747527 0.559895 -1.49824e-19)
(0.794811 0.523996 6.88258e-19)
(0.832598 0.484148 -9.6622e-19)
(0.863502 0.44382 2.97776e-19)
(0.885133 0.40708 4.15914e-20)
(0.121162 0.1912 8.53e-20)
(0.290244 0.406662 4.62028e-19)
(0.427226 0.508 -1.30587e-18)
(0.533742 0.541287 6.14276e-19)
(0.615806 0.535996 -1.93405e-21)
(0.680064 0.510585 -1.96051e-19)
(0.731368 0.47636 2.41221e-19)
(0.773351 0.439536 -2.34868e-19)
(0.808268 0.403242 -7.92395e-19)
(0.83461 0.370576 -1.95489e-19)
(0.0960913 0.174362 2.79171e-19)
(0.238096 0.367561 2.80202e-19)
(0.363925 0.455701 1.11341e-18)
(0.467534 0.48256 -5.98837e-19)
(0.550962 0.475511 1.19825e-18)
(0.618696 0.451329 -2.51447e-19)
(0.67433 0.420086 -2.59738e-19)
(0.720775 0.387233 3.00824e-19)
(0.759995 0.355437 1.92454e-19)
(0.791126 0.32693 6.28849e-19)
(0.0729894 0.151686 -2.83356e-19)
(0.190714 0.317441 8.27435e-20)
(0.30703 0.391179 2.15567e-20)
(0.408619 0.412187 6.10526e-19)
(0.493801 0.404598 -1.47935e-18)
(0.565086 0.382938 2.44843e-19)
(0.624948 0.355783 5.28357e-19)
(0.67567 0.327704 -6.25939e-19)
(0.718972 0.300861 2.16464e-19)
(0.754559 0.27678 -9.05933e-19)
(0.052995 0.123834 6.03851e-20)
(0.150156 0.257672 2.91391e-19)
(0.258742 0.316025 1.09006e-19)
(0.359007 0.33172 1.42857e-19)
(0.446015 0.324643 2.65717e-19)
(0.520576 0.3066 7.7072e-19)
(0.584217 0.284463 -9.22203e-19)
(0.638697 0.26185 -5.0899e-19)
(0.685547 0.240412 8.28728e-20)
(0.724989 0.221133 5.87682e-19)
(0.0370839 0.0916935 -3.65144e-19)
(0.118149 0.189983 -3.88561e-20)
(0.220879 0.232196 -3.13146e-19)
(0.320333 0.243042 4.31211e-20)
(0.408967 0.23734 -2.51567e-19)
(0.486239 0.223795 -2.79809e-19)
(0.55294 0.207427 -4.0751e-19)
(0.610421 0.190848 1.07607e-18)
(0.660084 0.175217 1.82343e-19)
(0.702585 0.161122 -2.50683e-19)
(0.0260284 0.0563428 1.96783e-19)
(0.0960386 0.116409 2.32683e-19)
(0.194842 0.141948 8.81803e-20)
(0.293847 0.148304 -4.60168e-19)
(0.383688 0.144618 -2.07957e-19)
(0.462889 0.136225 -4.36264e-20)
(0.531735 0.126177 8.3306e-20)
(0.591301 0.116055 6.55487e-20)
(0.642907 0.106544 -4.97872e-19)
(0.687527 0.0979499 2.57752e-19)
(0.0203637 0.0190052 -1.0248e-19)
(0.0847489 0.0392112 -1.04305e-19)
(0.181583 0.0477591 7.99729e-20)
(0.280392 0.0498517 6.86394e-20)
(0.370873 0.0485783 6.82867e-20)
(0.451076 0.0457356 1.0174e-19)
(0.521025 0.0423484 -5.22832e-21)
(0.581658 0.0389448 -1.27799e-19)
(0.634255 0.0357521 1.19247e-19)
(0.679959 0.0328635 -1.61879e-19)
(0.0203637 -0.0190051 -1.03157e-19)
(0.0847489 -0.0392111 -9.94016e-20)
(0.181583 -0.047759 8.81254e-20)
(0.280392 -0.0498516 1.66796e-19)
(0.370873 -0.0485782 1.07884e-19)
(0.451076 -0.0457355 -1.38486e-19)
(0.521025 -0.0423483 -7.35389e-20)
(0.581658 -0.0389448 3.14261e-20)
(0.634255 -0.0357521 6.94013e-20)
(0.679959 -0.0328635 -3.72908e-20)
(0.0260284 -0.0563428 2.46183e-19)
(0.0960386 -0.116409 -2.79869e-19)
(0.194842 -0.141948 -2.23798e-20)
(0.293847 -0.148304 1.44226e-19)
(0.383688 -0.144618 -6.32973e-19)
(0.462889 -0.136224 2.63487e-19)
(0.531735 -0.126177 2.65807e-19)
(0.591301 -0.116055 -3.07497e-19)
(0.642907 -0.106544 2.88523e-19)
(0.687527 -0.0979499 -1.1425e-19)
(0.0370839 -0.0916934 -4.2557e-20)
(0.118149 -0.189983 -4.85507e-21)
(0.220879 -0.232196 -7.27288e-19)
(0.320333 -0.243042 -2.23661e-19)
(0.408967 -0.237339 -2.28866e-20)
(0.486239 -0.223795 -3.47965e-19)
(0.55294 -0.207427 6.33614e-19)
(0.610421 -0.190848 -2.18191e-20)
(0.660084 -0.175217 3.48245e-19)
(0.702585 -0.161122 -2.76159e-19)
(0.052995 -0.123834 7.1878e-20)
(0.150156 -0.257671 -2.97682e-19)
(0.258742 -0.316025 8.81312e-19)
(0.359007 -0.33172 1.20568e-19)
(0.446015 -0.324643 5.75359e-19)
(0.520576 -0.3066 -5.47982e-19)
(0.584217 -0.284463 5.62204e-19)
(0.638697 -0.26185 -3.97204e-19)
(0.685547 -0.240412 -1.71368e-19)
(0.724989 -0.221133 1.31196e-19)
(0.0729893 -0.151686 6.41854e-19)
(0.190714 -0.317441 1.48119e-21)
(0.30703 -0.391179 -9.28753e-19)
(0.408619 -0.412187 -2.60505e-19)
(0.493801 -0.404598 8.39653e-19)
(0.565086 -0.382938 -4.79395e-19)
(0.624948 -0.355783 -5.42404e-19)
(0.67567 -0.327704 4.78225e-19)
(0.718972 -0.300861 -3.19809e-19)
(0.754559 -0.27678 -6.2078e-20)
(0.0960913 -0.174362 -9.58134e-20)
(0.238096 -0.367561 -4.04773e-21)
(0.363925 -0.455701 1.00783e-18)
(0.467534 -0.482559 5.58679e-19)
(0.550962 -0.47551 -6.39544e-19)
(0.618696 -0.451329 7.54418e-19)
(0.67433 -0.420086 -8.00051e-19)
(0.720775 -0.387233 7.80399e-20)
(0.759995 -0.355437 2.29532e-19)
(0.791126 -0.32693 4.77649e-19)
(0.121162 -0.1912 1.09804e-19)
(0.290244 -0.406662 1.58156e-19)
(0.427226 -0.508 1.65494e-19)
(0.533742 -0.541287 -5.14514e-19)
(0.615806 -0.535996 -8.89696e-19)
(0.680064 -0.510585 1.82528e-19)
(0.731368 -0.47636 5.16322e-19)
(0.773351 -0.439536 -1.44821e-19)
(0.808268 -0.403242 8.55781e-19)
(0.83461 -0.370576 -7.51019e-19)
(0.146943 -0.201783 -6.21537e-19)
(0.344834 -0.43379 2.13527e-19)
(0.494391 -0.546902 -5.54947e-19)
(0.604868 -0.587208 8.6734e-19)
(0.686283 -0.585037 4.21052e-19)
(0.747527 -0.559895 5.79182e-19)
(0.794811 -0.523996 -1.30957e-19)
(0.832598 -0.484148 5.05837e-19)
(0.863502 -0.44382 -1.05188e-18)
(0.885133 -0.40708 -2.46518e-19)
(0.172107 -0.205956 3.66411e-20)
(0.399342 -0.448424 -3.73393e-19)
(0.56259 -0.571682 -5.74965e-19)
(0.678183 -0.619577 -2.35644e-19)
(0.759945 -0.622046 -6.46372e-19)
(0.819002 -0.598965 -6.40881e-20)
(0.863001 -0.563102 5.36634e-20)
(0.897375 -0.521627 -2.35704e-19)
(0.925354 -0.478007 -2.57856e-19)
(0.943235 -0.4369 6.1248e-19)
(0.195318 -0.203827 1.96361e-19)
(0.45114 -0.450494 2.45092e-19)
(0.628764 -0.582042 4.22606e-19)
(0.750578 -0.638029 1.81809e-20)
(0.833732 -0.646823 2.64782e-19)
(0.891424 -0.628052 -3.5312e-19)
(0.932695 -0.594675 1.05396e-18)
(0.963916 -0.553791 -4.55997e-19)
(0.989718 -0.507753 -2.19631e-19)
(1.00692 -0.460374 -5.95153e-19)
(0.215314 -0.195771 -7.72781e-20)
(0.497638 -0.440352 1.21725e-19)
(0.689767 -0.578008 -1.20082e-19)
(0.818623 -0.642265 6.26762e-20)
(0.903815 -0.658919 -7.1927e-20)
(0.96011 -0.646878 -1.79757e-19)
(0.997711 -0.619352 2.31071e-19)
(1.02361 -0.584632 -7.42748e-20)
(1.04313 -0.547807 1.1272e-19)
(1.05935 -0.514709 -1.98371e-19)
(0.231031 -0.182439 -4.09934e-21)
(0.536567 -0.4188 -5.65368e-20)
(0.742875 -0.559891 1.16029e-20)
(0.879642 -0.631807 6.99969e-20)
(0.967988 -0.656695 -3.11786e-20)
(1.02379 -0.651879 8.22183e-21)
(1.05834 -0.630017 -7.74296e-21)
(1.0794 -0.599648 -1.68476e-19)
(1.09268 -0.566507 -7.69627e-20)
(1.103 -0.534661 -1.96601e-19)
(0.2417 -0.16477 -5.65863e-20)
(0.566101 -0.387219 1.7886e-19)
(0.785828 -0.528742 -1.07119e-19)
(0.931463 -0.607162 -3.79417e-20)
(1.02466 -0.64021 1.72555e-20)
(1.08193 -0.643021 3.2051e-20)
(1.11549 -0.62729 -2.91504e-21)
(1.13401 -0.601511 1.2737e-19)
(1.14362 -0.57192 -1.08298e-19)
(1.14974 -0.541916 -1.2101e-21)
(0.246873 -0.143919 -1.3909e-19)
(0.584906 -0.347519 -7.81085e-20)
(0.816746 -0.486333 -1.86503e-19)
(0.972046 -0.569723 2.05163e-19)
(1.07194 -0.610591 -1.46022e-20)
(1.13298 -0.621466 6.33882e-20)
(1.16791 -0.612753 7.04016e-20)
(1.18611 -0.592598 -2.50383e-20)
(1.19417 -0.567403 2.07903e-20)
(1.19769 -0.540077 -5.53296e-20)
(0.246429 -0.121142 -9.45627e-20)
(0.592171 -0.301953 -1.08724e-19)
(0.834176 -0.434935 1.57688e-19)
(0.999512 -0.521396 -2.29238e-19)
(1.10777 -0.569323 3.90783e-20)
(1.1748 -0.588361 1.92984e-20)
(1.21339 -0.587308 4.15956e-20)
(1.23327 -0.573632 -2.66451e-20)
(1.24139 -0.553608 -3.17167e-20)
(1.2435 -0.529785 -8.66437e-20)
(0.240552 -0.0976887 3.94291e-19)
(0.587654 -0.252939 -2.76064e-19)
(0.837197 -0.377142 1.24116e-20)
(1.01234 -0.464471 -3.29325e-19)
(1.13019 -0.51823 -9.2905e-20)
(1.20523 -0.545072 7.24326e-20)
(1.24968 -0.551947 5.1947e-20)
(1.27326 -0.545362 -1.69814e-19)
(1.28312 -0.531235 7.3557e-20)
(1.28511 -0.511831 -1.10785e-19)
(0.229696 -0.0747213 1.9562e-19)
(0.571679 -0.202901 -1.73241e-19)
(0.825506 -0.315729 5.98401e-19)
(1.0095 -0.401536 4.61733e-20)
(1.13761 -0.459469 1.27423e-19)
(1.22227 -0.493275 4.43241e-19)
(1.27464 -0.507921 -8.9943e-20)
(1.304 -0.508728 2.1679e-20)
(1.31747 -0.501052 -1.22936e-20)
(1.32084 -0.486889 -1.83326e-20)
(0.214543 -0.0532477 1.50765e-19)
(0.545114 -0.154126 3.06657e-19)
(0.799452 -0.253496 -3.008e-19)
(0.990599 -0.335362 -8.8389e-20)
(1.12888 -0.395463 -9.09053e-20)
(1.22426 -0.434912 1.74268e-19)
(1.28629 -0.456697 -8.04339e-20)
(1.32344 -0.464803 1.85964e-19)
(1.34248 -0.463845 4.41005e-20)
(1.34896 -0.455531 -6.57326e-20)
(0.195941 -0.0340776 -1.62874e-19)
(0.509301 -0.108639 1.35238e-19)
(0.76004 -0.193118 -2.6723e-19)
(0.9559 -0.268771 1.08195e-19)
(1.10348 -0.328818 -1.05302e-19)
(1.20996 -0.372171 -1.22043e-19)
(1.28293 -0.399981 -9.2597e-20)
(1.32964 -0.41485 1.00157e-19)
(1.35621 -0.420517 -1.71176e-19)
(1.36766 -0.41837 9.26815e-20)
(0.174843 -0.017795 -6.10092e-20)
(0.465964 -0.0681077 -1.07148e-19)
(0.708879 -0.137006 4.85066e-20)
(0.906392 -0.204502 3.45853e-21)
(1.06155 -0.262234 3.62507e-20)
(1.1787 -0.307455 5.06229e-20)
(1.26325 -0.339747 4.21579e-20)
(1.32089 -0.360392 -5.58952e-20)
(1.35678 -0.372181 4.48116e-20)
(1.37513 -0.376158 -6.09311e-20)
(0.152243 -0.00475027 -3.84439e-20)
(0.417093 -0.0337701 -1.38719e-20)
(0.648095 -0.0871862 4.97188e-20)
(0.843758 -0.14508 -2.16883e-20)
(1.00399 -0.198399 5.89561e-20)
(1.13052 -0.243326 -7.26231e-20)
(1.22649 -0.278237 1.82269e-20)
(1.29584 -0.303263 1.53383e-20)
(1.34249 -0.320246 -5.39435e-21)
(1.36957 -0.329885 2.14262e-20)
(0.129105 0.00493162 -4.61048e-20)
(0.364802 -0.00640399 -1.74957e-19)
(0.580192 -0.0452059 -1.355e-20)
(0.770296 -0.0926817 5.23371e-21)
(0.932487 -0.139856 -2.19336e-19)
(1.06622 -0.182407 2.2571e-20)
(1.17256 -0.217925 -2.33697e-20)
(1.25364 -0.245635 -6.23391e-20)
(1.31195 -0.266501 1.35572e-19)
(1.3493 -0.280886 -2.14743e-19)
(0.106312 0.0113261 -2.61378e-20)
(0.311197 0.013673 3.75295e-19)
(0.507891 -0.0120729 4.81751e-20)
(0.688792 -0.0490174 -3.15448e-19)
(0.849412 -0.0888558 -3.66547e-20)
(0.987457 -0.12726 -3.36671e-19)
(1.10222 -0.161441 2.55919e-19)
(1.19414 -0.19001 -1.01857e-19)
(1.26425 -0.213168 1.89648e-19)
(1.31292 -0.230959 -1.46312e-19)
(0.0846155 0.0146734 -1.47869e-19)
(0.258242 0.0265729 1.54062e-19)
(0.433947 0.0117743 -1.03585e-19)
(0.602333 -0.0152253 6.92262e-19)
(0.757722 -0.0472042 3.5586e-19)
(0.896645 -0.0802075 -9.08224e-20)
(1.01707 -0.11142 3.45199e-19)
(1.11805 -0.139132 -2.21274e-19)
(1.19925 -0.162908 -6.99903e-20)
(1.2596 -0.182436 4.43097e-19)
(0.0646116 0.0153379 -2.73393e-19)
(0.20766 0.032787 3.65188e-19)
(0.36097 0.0264677 -6.66545e-19)
(0.514089 0.00820936 1.11567e-19)
(0.660743 -0.0160944 2.70156e-19)
(0.796849 -0.0431161 -3.30809e-19)
(0.919567 -0.0702852 -5.72843e-19)
(1.02699 -0.0958081 3.00995e-19)
(1.11766 -0.118712 -3.84688e-19)
(1.18924 -0.138186 5.41109e-19)
(0.0467294 0.0137703 -6.75761e-20)
(0.160858 0.0331307 -3.67625e-19)
(0.291276 0.0326957 1.74631e-19)
(0.427082 0.0215235 4.22446e-19)
(0.561894 0.0040637 -2.20323e-19)
(0.6915 -0.0171309 -2.11913e-19)
(0.812779 -0.0399131 -3.51273e-19)
(0.923376 -0.0625758 -1.57804e-19)
(1.02111 -0.0836304 -3.72747e-20)
(1.10263 -0.10145 5.41405e-19)
(0.0312478 0.0104826 1.13474e-19)
(0.1189 0.0286956 -4.99398e-19)
(0.226764 0.0316812 8.22019e-19)
(0.343972 0.0257334 -4.42596e-19)
(0.464382 0.0138258 2.78488e-19)
(0.584033 -0.00234277 -3.37687e-19)
(0.699988 -0.0211703 3.67656e-19)
(0.810007 -0.041159 3.14755e-19)
(0.911749 -0.0602498 6.75687e-19)
(1.00125 -0.0754134 -9.82873e-19)
(0.0183252 0.00603723 -3.52561e-19)
(0.0825193 0.0208087 6.33549e-19)
(0.168869 0.0251418 8.14326e-21)
(0.266914 0.0226564 -2.12315e-19)
(0.370956 0.0148719 -1.09467e-19)
(0.477502 0.00258347 8.53112e-20)
(0.584158 -0.0132756 -5.9194e-19)
(0.689369 -0.0315936 4.48266e-19)
(0.791399 -0.0497434 -5.67575e-19)
(0.886313 -0.0623693 -2.27746e-19)
(0.00803116 0.00104297 6.06722e-19)
(0.0521575 0.0109746 -1.69374e-19)
(0.118597 0.0151935 -3.05751e-19)
(0.19757 0.0148341 8.02948e-19)
(0.283858 0.0100448 -7.65885e-19)
(0.374409 0.000686826 4.17021e-19)
(0.467415 -0.0131478 4.34216e-19)
(0.562311 -0.031143 1.16466e-19)
(0.658802 -0.0506529 1.18943e-19)
(0.754656 -0.0630263 -1.48161e-19)
(0.000359832 -0.00387156 -5.80294e-19)
(0.0280138 0.000753351 4.93491e-19)
(0.0766407 0.00413204 -4.2031e-19)
(0.137359 0.00528024 5.09916e-19)
(0.205319 0.00322247 -1.47915e-19)
(0.277557 -0.00296466 -5.00657e-19)
(0.352238 -0.0140123 1.40322e-19)
(0.428956 -0.0308377 -2.26949e-19)
(0.508726 -0.0527411 -2.63897e-19)
(0.594045 -0.0699607 -7.18085e-19)
(-0.00479661 -0.00814406 -7.24935e-19)
(0.0100488 -0.00850098 5.15644e-19)
(0.0434781 -0.00607269 -9.7232e-19)
(0.0877865 -0.0033724 1.68123e-19)
(0.138496 -0.00194208 -6.32436e-19)
(0.192508 -0.00274265 -3.69618e-19)
(0.247252 -0.00609504 8.64655e-19)
(0.300781 -0.0121858 -1.15864e-18)
(0.35241 -0.0215597 2.19276e-19)
(0.399578 -0.0303025 -3.02426e-19)
(-0.00770376 -0.0113984 3.57115e-19)
(-0.00213026 -0.0159445 1.35227e-19)
(0.0191052 -0.0144433 -3.87171e-20)
(0.0498676 -0.0104377 3.57265e-19)
(0.0864588 -0.00580361 1.01864e-18)
(0.126306 -0.00149978 3.42589e-19)
(0.167409 0.00228163 3.46019e-19)
(0.208552 0.00561019 -1.17227e-19)
(0.24976 0.00788616 -1.07463e-18)
(0.288645 0.009391 2.26783e-19)
(-0.00879987 -0.0134659 -1.00842e-19)
(-0.00939751 -0.0211761 2.8708e-19)
(0.00251893 -0.0206047 -7.23838e-20)
(0.0225638 -0.015928 4.94151e-19)
(0.0479588 -0.00931376 -1.10927e-18)
(0.0767601 -0.00192063 9.17531e-20)
(0.107545 0.00572165 -5.02818e-19)
(0.139523 0.013213 7.25263e-19)
(0.172482 0.0196219 -2.08185e-19)
(0.203883 0.0242006 -2.45709e-20)
(-0.00859882 -0.0143361 -6.86312e-20)
(-0.0128843 -0.0240786 -3.45271e-19)
(-0.00781423 -0.0243916 8.35676e-19)
(0.00393885 -0.0197127 -4.26013e-19)
(0.0204825 -0.0124065 2.9063e-20)
(0.0404082 -0.00384919 1.29337e-19)
(0.0626799 0.00508819 -1.15557e-19)
(0.0866691 0.0136147 1.47161e-19)
(0.111938 0.0206446 5.00954e-19)
(0.136365 0.0253506 1.075e-19)
(-0.00759059 -0.0140973 -1.53961e-19)
(-0.0137326 -0.0247209 -1.53207e-19)
(-0.0135042 -0.0257647 -6.54425e-19)
(-0.00802899 -0.0215761 3.36929e-19)
(0.0015976 -0.0145501 -6.74724e-19)
(0.0144154 -0.00616081 1.49349e-19)
(0.029667 0.0025599 1.64138e-19)
(0.046807 0.0107012 -1.70042e-19)
(0.065304 0.0172601 -1.08059e-19)
(0.0835685 0.0214983 -3.96552e-19)
(-0.00619093 -0.0128901 1.20292e-19)
(-0.0129638 -0.023298 -2.53081e-20)
(-0.0160343 -0.0248138 4.9057e-22)
(-0.0152132 -0.0213898 -3.04099e-19)
(-0.0109166 -0.0152669 7.47378e-19)
(-0.00373689 -0.00786804 -1.13584e-19)
(0.00578257 -0.000218693 -2.77065e-19)
(0.0171639 0.00682546 3.32345e-19)
(0.0298656 0.0124493 -1.14719e-19)
(0.0427615 0.0160501 5.15825e-19)
(-0.0047261 -0.0108774 -2.25795e-20)
(-0.0114173 -0.020088 -1.1842e-19)
(-0.0166512 -0.0217522 -4.49802e-20)
(-0.0191906 -0.0191821 -5.55576e-20)
(-0.018904 -0.0142969 -1.15964e-19)
(-0.0160895 -0.00833515 -3.54845e-19)
(-0.0111198 -0.00219368 4.33839e-19)
(-0.00440409 0.00341631 2.48382e-19)
(0.00354606 0.0078851 -4.37087e-20)
(0.0119573 0.0107542 -3.15343e-19)
(-0.00343691 -0.00823003 1.28225e-19)
(-0.00973506 -0.015427 2.00423e-20)
(-0.0163212 -0.0169077 1.30561e-19)
(-0.0211796 -0.0151617 -1.4453e-20)
(-0.0237667 -0.0116527 1.11596e-19)
(-0.0241576 -0.00733302 1.22681e-19)
(-0.0225919 -0.00288985 1.79778e-19)
(-0.0194146 0.00115228 -4.99104e-19)
(-0.0150976 0.00437576 -9.04904e-20)
(-0.0101669 0.00645975 1.31137e-19)
(-0.00249049 -0.00512374 -6.47491e-20)
(-0.00837338 -0.00969493 -8.23206e-20)
(-0.0157359 -0.0107094 -3.81108e-20)
(-0.0220488 -0.00970937 1.80221e-19)
(-0.0264933 -0.00760915 8.49302e-20)
(-0.0289936 -0.0050061 1.69709e-20)
(-0.0296966 -0.00232928 -3.59619e-20)
(-0.0288978 0.000101924 -2.73403e-20)
(-0.0270362 0.00204494 2.30527e-19)
(-0.0244831 0.00330984 -1.26736e-19)
(-0.00199193 -0.00173903 3.30092e-20)
(-0.00762228 -0.00330547 3.67383e-20)
(-0.0153364 -0.00366557 -3.01473e-20)
(-0.0223501 -0.00334127 -2.66603e-20)
(-0.0277068 -0.00264333 -2.6837e-20)
(-0.0312545 -0.00177503 -4.17262e-20)
(-0.0330923 -0.000881991 1.30864e-21)
(-0.0334888 -7.1299e-05 5.54561e-20)
(-0.032865 0.000577587 -5.46957e-20)
(-0.0315178 0.00100177 8.02617e-20)
(-0.00814003 -0.00256903 3.78254e-21)
(0.0613381 -0.00662959 2.28479e-21)
(0.277514 -0.0067472 3.15417e-22)
(0.377928 -0.00438197 -2.12712e-22)
(0.479233 -0.00370871 -1.42668e-23)
(0.555972 -0.00265259 3.62821e-23)
(0.606273 -0.00220064 4.34895e-23)
(0.66365 -0.00162219 -9.5176e-24)
(0.685765 -0.00150176 -5.71532e-25)
(0.739002 -0.00106607 6.43502e-23)
(0.00865815 -0.00801175 6.01146e-21)
(0.0766021 -0.0197256 2.85873e-22)
(0.28903 -0.0200847 -4.1115e-21)
(0.386679 -0.013045 3.33086e-21)
(0.485959 -0.0110518 2.16708e-22)
(0.561203 -0.00790784 -1.46689e-22)
(0.610556 -0.00656284 1.79915e-22)
(0.667006 -0.00483543 2.08048e-23)
(0.688699 -0.00447915 4.34445e-23)
(0.741219 -0.00318453 -5.90347e-23)
(0.0419602 -0.014337 6.21114e-21)
(0.106656 -0.0323412 -8.41023e-21)
(0.311632 -0.0329618 4.22426e-21)
(0.40387 -0.0214071 -2.77562e-21)
(0.499176 -0.0181671 2.01641e-22)
(0.571498 -0.013011 -1.60755e-22)
(0.618994 -0.0108099 -6.88088e-23)
(0.673632 -0.00796795 1.73263e-24)
(0.6945 -0.00739036 -3.29818e-23)
(0.745611 -0.00526273 -8.6288e-23)
(0.0911648 -0.0220235 -9.7076e-21)
(0.150575 -0.044177 -1.17676e-20)
(0.344484 -0.0450922 -5.49373e-21)
(0.428894 -0.0292843 2.92048e-21)
(0.518429 -0.0249145 -3.59285e-21)
(0.58653 -0.0178684 9.57321e-22)
(0.631343 -0.0148701 -5.61109e-23)
(0.683354 -0.0109693 3.65544e-23)
(0.703033 -0.0101936 -3.95128e-23)
(0.752095 -0.00727489 3.20225e-23)
(0.155342 -0.0313458 2.71987e-20)
(0.207033 -0.0549459 1.71977e-20)
(0.386392 -0.0562118 6.259e-21)
(0.460885 -0.0365148 -5.72714e-21)
(0.543068 -0.0311696 2.9911e-21)
(0.605835 -0.022397 7.94196e-22)
(0.647249 -0.0186791 5.87763e-22)
(0.695924 -0.0137939 7.08957e-23)
(0.714104 -0.0128505 8.95644e-23)
(0.760551 -0.00919681 -1.70307e-22)
(0.23321 -0.0422443 -1.21945e-20)
(0.274351 -0.0643384 9.41957e-21)
(0.435868 -0.0660694 1.1719e-21)
(0.498763 -0.0429563 6.49149e-21)
(0.572284 -0.0368254 -1.49172e-21)
(0.628831 -0.0265263 -9.33894e-22)
(0.666271 -0.0221816 -6.11427e-22)
(0.711031 -0.0164024 -5.01574e-23)
(0.727468 -0.0153268 -4.71149e-23)
(0.770822 -0.0110064 1.82365e-22)
(0.323138 -0.0544523 -9.52477e-21)
(0.350558 -0.0720935 -2.48646e-20)
(0.491209 -0.0744631 -4.27014e-21)
(0.541292 -0.0484941 -3.67708e-21)
(0.605159 -0.0417988 1.7871e-21)
(0.65485 -0.0302009 -5.08952e-22)
(0.687898 -0.025333 6.49884e-22)
(0.728309 -0.0187625 1.29783e-22)
(0.742836 -0.017594 -1.44717e-23)
(0.782723 -0.0126838 7.04143e-23)