/*--------------------------------*- C++ -*----------------------------------*\
  =========                 |
  \\      /  F ield         | OpenFOAM: The Open Source CFD Toolbox
   \\    /   O peration     | Website:  https://openfoam.org
    \\  /    A nd           | Version:  6.0
     \\/     M anipulation  |
\*---------------------------------------------------------------------------*/
FoamFile
{
    version     2.0;
    format      ascii;
    class       volScalarField;
    location    "18";
    object      p;
}
// * * * * * * * * * * * * * * * * * * * * * * * * * * * * * * * * * * * * * //

dimensions      [0 2 -2 0 0 0 0];

internalField   nonuniform List<scalar> 
2000
(
-0.351521
-0.35742
-0.3591
-0.358421
-0.35655
-0.353861
-0.350632
-0.347158
-0.343725
-0.340013
-0.354241
-0.35972
-0.36106
-0.360079
-0.35792
-0.354956
-0.351464
-0.347729
-0.344042
-0.34021
-0.359701
-0.364321
-0.36497
-0.363379
-0.360639
-0.357119
-0.353091
-0.348819
-0.344603
-0.340527
-0.367943
-0.371222
-0.370808
-0.368291
-0.364669
-0.360303
-0.355451
-0.350334
-0.34527
-0.340804
-0.379026
-0.380421
-0.378545
-0.374775
-0.369968
-0.364459
-0.358475
-0.352159
-0.345845
-0.340786
-0.393013
-0.391903
-0.38814
-0.382792
-0.376505
-0.369565
-0.362131
-0.35421
-0.346119
-0.340143
-0.409938
-0.405625
-0.399534
-0.392298
-0.384273
-0.37566
-0.366514
-0.356605
-0.346089
-0.338616
-0.429744
-0.421488
-0.412634
-0.403235
-0.393259
-0.382788
-0.371736
-0.359475
-0.345512
-0.335051
-0.452219
-0.439319
-0.427325
-0.41556
-0.4035
-0.391041
-0.377783
-0.362201
-0.342094
-0.324763
-0.476928
-0.458852
-0.443508
-0.429421
-0.415621
-0.401908
-0.387525
-0.369838
-0.344776
-0.320778
-0.503184
-0.479663
-0.460911
-0.444729
-0.429985
-0.417055
-0.406277
-0.39829
-0.398389
-0.417877
-0.530162
-0.501173
-0.478919
-0.460376
-0.444023
-0.430321
-0.419743
-0.413346
-0.41626
-0.433485
-0.55714
-0.522922
-0.497257
-0.476243
-0.457862
-0.442479
-0.430459
-0.42252
-0.421769
-0.42954
-0.583467
-0.544439
-0.515611
-0.492155
-0.471501
-0.453835
-0.439314
-0.428193
-0.421946
-0.420561
-0.608393
-0.565056
-0.533357
-0.507466
-0.484235
-0.463644
-0.445654
-0.43014
-0.417525
-0.407851
-0.630928
-0.583836
-0.549548
-0.521171
-0.495006
-0.470905
-0.448744
-0.428213
-0.409147
-0.392313
-0.649787
-0.59957
-0.562953
-0.531982
-0.502527
-0.474445
-0.4477
-0.421987
-0.396891
-0.374194
-0.66341
-0.610801
-0.57211
-0.538419
-0.505368
-0.473008
-0.441555
-0.410859
-0.380471
-0.353254
-0.670034
-0.615891
-0.575397
-0.538886
-0.502054
-0.465338
-0.429348
-0.394165
-0.359424
-0.328998
-0.667794
-0.613101
-0.571118
-0.531773
-0.491154
-0.450266
-0.410193
-0.371268
-0.333237
-0.300836
-0.654833
-0.600687
-0.557605
-0.515553
-0.471378
-0.426787
-0.383361
-0.341643
-0.301463
-0.268234
-0.629417
-0.577011
-0.533321
-0.488888
-0.441666
-0.394143
-0.348348
-0.304953
-0.263813
-0.230824
-0.590074
-0.540665
-0.496989
-0.450739
-0.401284
-0.351886
-0.304929
-0.261107
-0.220227
-0.18847
-0.535709
-0.490591
-0.4477
-0.400458
-0.349876
-0.299918
-0.253183
-0.210284
-0.170908
-0.141314
-0.465718
-0.426191
-0.385006
-0.337848
-0.287501
-0.238492
-0.193488
-0.152936
-0.116332
-0.089782
-0.380101
-0.347434
-0.309001
-0.263202
-0.21462
-0.168168
-0.126446
-0.0896804
-0.0571351
-0.0344996
-0.279548
-0.254924
-0.220369
-0.17732
-0.132091
-0.0897897
-0.0528279
-0.0212179
0.00596134
0.0237066
-0.165499
-0.14995
-0.120395
-0.0814917
-0.0411508
-0.00449864
0.0263083
0.0513336
0.0714158
0.0828064
-0.0401648
-0.0344864
-0.0109301
0.0226092
0.056816
0.0866525
0.110104
0.126761
0.136705
0.139083
0.0934981
0.0888246
0.105612
0.132952
0.160486
0.183488
0.199985
0.208361
0.207334
0.20061
0.231914
0.216717
0.226126
0.246643
0.267403
0.284524
0.296737
0.302224
0.301182
0.315106
0.371187
0.345545
0.347002
0.359828
0.372855
0.382834
0.388893
0.390139
0.389065
0.401994
0.507373
0.471636
0.464829
0.469385
0.474043
0.476125
0.475065
0.470447
0.464757
0.469864
0.636626
0.591382
0.576317
0.572417
0.56852
0.562534
0.554199
0.543367
0.53211
0.529271
0.755285
0.701345
0.67837
0.666262
0.654096
0.640349
0.625037
0.608201
0.591531
0.581586
0.859964
0.798356
0.768172
0.748526
0.728817
0.708039
0.686452
0.664239
0.642724
0.626568
0.947647
0.87961
0.843234
0.817097
0.790932
0.76418
0.7373
0.710587
0.685011
0.663653
1.01578
0.942738
0.901464
0.870186
0.838938
0.807509
0.77651
0.746321
0.717599
0.692183
1.06236
0.985888
0.941226
0.906391
0.871638
0.837
0.803189
0.770636
0.739769
0.711567
1.086
1.00779
0.961393
0.92474
0.888202
0.851932
0.816695
0.782947
0.750994
0.721373
1.086
1.00779
0.961392
0.92474
0.888202
0.851932
0.816694
0.782947
0.750993
0.721373
1.06236
0.985886
0.941224
0.906389
0.871637
0.836999
0.803187
0.770635
0.739768
0.711566
1.01578
0.942734
0.901461
0.870184
0.838935
0.807506
0.776508
0.746319
0.717597
0.692181
0.947642
0.879605
0.84323
0.817093
0.790928
0.764177
0.737297
0.710584
0.685008
0.66365
0.859957
0.79835
0.768166
0.748521
0.728813
0.708035
0.686448
0.664235
0.64272
0.626565
0.755277
0.701337
0.678364
0.666256
0.654091
0.640343
0.625032
0.608197
0.591527
0.581582
0.636617
0.591374
0.576309
0.57241
0.568514
0.562528
0.554194
0.543362
0.532106
0.529266
0.507363
0.471626
0.46482
0.469377
0.474035
0.476118
0.475059
0.470441
0.464752
0.469859
0.371176
0.345534
0.346992
0.359819
0.372846
0.382827
0.388886
0.390133
0.389059
0.401989
0.231902
0.216706
0.226116
0.246633
0.267393
0.284516
0.296729
0.302217
0.301175
0.3151
0.0934857
0.0888126
0.1056
0.132942
0.160476
0.183479
0.199977
0.208353
0.207326
0.200603
-0.0401779
-0.034499
-0.010942
0.0225981
0.0568057
0.0866429
0.110095
0.126752
0.136697
0.139075
-0.165512
-0.149963
-0.120407
-0.0815034
-0.0411616
-0.00450866
0.026299
0.0513248
0.0714075
0.0827985
-0.279562
-0.254937
-0.220382
-0.177332
-0.132102
-0.0898001
-0.0528376
-0.021227
0.00595276
0.0236984
-0.380115
-0.347448
-0.309014
-0.263215
-0.214631
-0.168178
-0.126456
-0.0896898
-0.0571439
-0.034508
-0.465732
-0.426205
-0.385019
-0.337861
-0.287513
-0.238503
-0.193498
-0.152945
-0.116341
-0.0897906
-0.535723
-0.490604
-0.447713
-0.40047
-0.349888
-0.299929
-0.253193
-0.210294
-0.170917
-0.141323
-0.590088
-0.540679
-0.497003
-0.450751
-0.401296
-0.351898
-0.304939
-0.261117
-0.220236
-0.188479
-0.629431
-0.577024
-0.533334
-0.4889
-0.441678
-0.394154
-0.348359
-0.304963
-0.263823
-0.230833
-0.654846
-0.6007
-0.557618
-0.515566
-0.471389
-0.426799
-0.383372
-0.341653
-0.301472
-0.268244
-0.667807
-0.613113
-0.57113
-0.531786
-0.491166
-0.450277
-0.410203
-0.371278
-0.333246
-0.300845
-0.670047
-0.615904
-0.575409
-0.538898
-0.502066
-0.465349
-0.429358
-0.394176
-0.359433
-0.329007
-0.663422
-0.610813
-0.572121
-0.53843
-0.505379
-0.473018
-0.441566
-0.410869
-0.38048
-0.353264
-0.649799
-0.599581
-0.562964
-0.531993
-0.502538
-0.474455
-0.44771
-0.421997
-0.396901
-0.374203
-0.630939
-0.583847
-0.549558
-0.521181
-0.495016
-0.470915
-0.448754
-0.428223
-0.409157
-0.392323
-0.608403
-0.565066
-0.533367
-0.507476
-0.484244
-0.463654
-0.445663
-0.43015
-0.417535
-0.40786
-0.583477
-0.544449
-0.515621
-0.492164
-0.47151
-0.453844
-0.439323
-0.428202
-0.421956
-0.420571
-0.55715
-0.522932
-0.497266
-0.476251
-0.457871
-0.442488
-0.430468
-0.422529
-0.421778
-0.42955
-0.530172
-0.501182
-0.478928
-0.460384
-0.444031
-0.430329
-0.419751
-0.413355
-0.416269
-0.433494
-0.503193
-0.479672
-0.460919
-0.444736
-0.429993
-0.417062
-0.406285
-0.398299
-0.398398
-0.417887
-0.476937
-0.458861
-0.443515
-0.429428
-0.415628
-0.401915
-0.387533
-0.369847
-0.344785
-0.320788
-0.452228
-0.439327
-0.427333
-0.415567
-0.403507
-0.391048
-0.37779
-0.362209
-0.342103
-0.324773
-0.429753
-0.421496
-0.412642
-0.403242
-0.393265
-0.382794
-0.371743
-0.359483
-0.345521
-0.33506
-0.409947
-0.405632
-0.399541
-0.392305
-0.384279
-0.375666
-0.36652
-0.356612
-0.346097
-0.338624
-0.393022
-0.39191
-0.388146
-0.382798
-0.376511
-0.36957
-0.362137
-0.354216
-0.346126
-0.340151
-0.379033
-0.380427
-0.378551
-0.374781
-0.369973
-0.364464
-0.35848
-0.352164
-0.345851
-0.340793
-0.36795
-0.371228
-0.370813
-0.368295
-0.364673
-0.360307
-0.355455
-0.350338
-0.345275
-0.340809
-0.359706
-0.364325
-0.364973
-0.363383
-0.360642
-0.357122
-0.353095
-0.348822
-0.344606
-0.340531
-0.354244
-0.359723
-0.361062
-0.360081
-0.357922
-0.354958
-0.351466
-0.347731
-0.344044
-0.340213
-0.351522
-0.357421
-0.359101
-0.358422
-0.356551
-0.353862
-0.350633
-0.347158
-0.343726
-0.340014
-0.293554
-0.129214
-0.0837984
-0.0327642
-0.0214628
-0.00960479
-0.00619692
-0.00193255
-0.00159516
0.00251348
-0.294787
-0.129764
-0.0840751
-0.0329692
-0.021538
-0.00966838
-0.00623122
-0.0019578
-0.00160951
0.00249042
-0.297184
-0.130851
-0.0846216
-0.0333781
-0.0216864
-0.00979566
-0.00630056
-0.00200945
-0.0016385
0.00244484
-0.300605
-0.132451
-0.0854261
-0.0339924
-0.0219073
-0.00998593
-0.00640437
-0.00208722
-0.00168165
0.00237713
-0.304804
-0.134519
-0.0864613
-0.0348097
-0.0221978
-0.0102374
-0.00654127
-0.00219034
-0.00173775
0.00228808
-0.309424
-0.136979
-0.087677
-0.0358152
-0.0225508
-0.0105458
-0.00670904
-0.00231765
-0.00180551
0.00217868
-0.314334
-0.139898
-0.0890773
-0.0370032
-0.022966
-0.0109076
-0.00690613
-0.00246699
-0.00188423
0.00205133
-0.320058
-0.143932
-0.0909251
-0.0384739
-0.0234863
-0.0113352
-0.00713835
-0.00263734
-0.00197535
0.00190986
-0.32486
-0.149459
-0.0934004
-0.0403934
-0.0241639
-0.0118575
-0.00741508
-0.00283582
-0.00207588
0.00175004
-0.317072
-0.151852
-0.0945341
-0.0421165
-0.0246977
-0.0123814
-0.00768496
-0.00307225
-0.00215558
0.00153985
-0.250551
-0.143772
-0.0909526
-0.0454257
-0.0252723
-0.0138366
-0.00844844
-0.0040061
-0.00233757
0.000620224
-0.19232
-0.134695
-0.0849119
-0.0468293
-0.0269745
-0.0162512
-0.010261
-0.0055587
-0.0030622
-0.00040542
-0.150754
-0.116733
-0.0754021
-0.045286
-0.0282684
-0.0183856
-0.012049
-0.00708538
-0.00384781
-0.00111626
-0.111051
-0.0957337
-0.0659066
-0.0432109
-0.0291684
-0.0200736
-0.0135411
-0.00840395
-0.00454366
-0.00154698
-0.0817409
-0.0783862
-0.059046
-0.0418767
-0.0298693
-0.0213172
-0.0146979
-0.00944751
-0.00512912
-0.00180058
-0.0615995
-0.0654839
-0.0540375
-0.0408226
-0.0301919
-0.0220859
-0.0155138
-0.0102195
-0.00560439
-0.00196645
-0.0485401
-0.0561832
-0.0501383
-0.0398166
-0.0302208
-0.0225133
-0.0160649
-0.0107723
-0.00597745
-0.00208976
-0.0402733
-0.0496968
-0.0471493
-0.0389408
-0.0301386
-0.0227484
-0.0164278
-0.0111532
-0.00625325
-0.00218277
-0.0354379
-0.045579
-0.0451244
-0.0383242
-0.0300608
-0.0228745
-0.0166466
-0.01139
-0.00643483
-0.00224425
-0.0332014
-0.043569
-0.0441051
-0.0380207
-0.0300277
-0.0229293
-0.0167488
-0.0114994
-0.00652691
-0.00227148
-0.221787
-0.24969
-0.275478
-0.299431
-0.321937
-0.3435
-0.364737
-0.386292
-0.408664
-0.432511
-0.071039
-0.0811811
-0.0903455
-0.0987754
-0.106778
-0.114733
-0.1231
-0.132417
-0.143264
-0.157432
-0.048195
-0.0573729
-0.0661653
-0.0745457
-0.0824767
-0.0899133
-0.0968122
-0.103147
-0.108913
-0.114233
-0.0217185
-0.0274336
-0.0329426
-0.0382643
-0.0434207
-0.0484352
-0.0533309
-0.05813
-0.0628325
-0.0673173
-0.015972
-0.0203229
-0.0245492
-0.0286474
-0.0326139
-0.0364447
-0.0401362
-0.0436856
-0.0470734
-0.0502673
-0.0108857
-0.0140978
-0.0172504
-0.0203428
-0.0233742
-0.0263442
-0.0292524
-0.0320974
-0.0348677
-0.0375656
-0.00973776
-0.0122693
-0.0147645
-0.0172193
-0.0196302
-0.021994
-0.0243083
-0.0265705
-0.028775
-0.0309337
-0.0089175
-0.01097
-0.0130058
-0.0150209
-0.0170115
-0.0189742
-0.020906
-0.0228039
-0.0246647
-0.0264945
-0.00881701
-0.0105861
-0.0123471
-0.0140956
-0.0158272
-0.017538
-0.0192246
-0.0208837
-0.0225134
-0.024114
-0.00875438
-0.0103748
-0.0119923
-0.0136033
-0.0152042
-0.0167916
-0.0183624
-0.0199137
-0.0214442
-0.0229512
0.164835
0.123842
0.0784945
0.0354254
-0.00631421
-0.0471947
-0.0865995
-0.123946
-0.158967
-0.191578
0.114423
0.0885084
0.0617215
0.0388871
0.0187699
9.85224e-05
-0.0172096
-0.0329436
-0.0470771
-0.0597254
0.0703539
0.0546581
0.0397111
0.0268046
0.0149579
0.0034956
-0.00765285
-0.0183996
-0.0287216
-0.0386456
0.0501458
0.0410763
0.0324533
0.0247485
0.0174873
0.0103996
0.00348807
-0.00318874
-0.00960959
-0.0157817
0.0346483
0.0287005
0.0229656
0.0176802
0.0125946
0.00757835
0.00263819
-0.00219448
-0.00690719
-0.0114996
0.02442
0.0205347
0.0166942
0.0130612
0.00952326
0.00601255
0.0025306
-0.000905871
-0.00428856
-0.00761547
0.0167437
0.0140187
0.0112678
0.00859551
0.00595379
0.00330988
0.000665597
-0.00196788
-0.00458272
-0.00717409
0.0115834
0.00959179
0.00755042
0.00552139
0.00348809
0.00143697
-0.000629586
-0.00270404
-0.00478006
-0.00685271
0.0082663
0.00667474
0.00503451
0.00337468
0.00169047
-2.12137e-05
-0.00175649
-0.00350921
-0.00527361
-0.00704454
0.00667706
0.00525984
0.00379954
0.00231033
0.000791619
-0.000755531
-0.00232679
-0.00391698
-0.00552127
-0.00713517
0.332306
0.331606
0.330055
0.327178
0.322192
0.313856
0.300402
0.279434
0.248318
0.20369
0.242435
0.241318
0.238682
0.234096
0.227224
0.217636
0.204762
0.187944
0.166433
0.139674
0.171636
0.170507
0.16784
0.163315
0.156824
0.14826
0.137433
0.124129
0.10794
0.0889528
0.120059
0.119174
0.117071
0.113509
0.10847
0.10198
0.0940311
0.0846342
0.073711
0.0615966
0.0837569
0.0831127
0.0815742
0.0789619
0.0752831
0.0705902
0.0649173
0.0583027
0.0507268
0.0423981
0.0586059
0.0581427
0.0570348
0.0551538
0.0525128
0.0491631
0.0451464
0.0405067
0.0352616
0.0295574
0.041478
0.0411398
0.0403304
0.0389564
0.0370293
0.0345896
0.031671
0.0283061
0.0245144
0.0203801
0.0302106
0.0299542
0.0293404
0.0282987
0.0268383
0.0249908
0.0227828
0.0202395
0.0173813
0.0142602
0.0233872
0.023179
0.0226811
0.0218362
0.0206515
0.0191521
0.0173593
0.015292
0.012968
0.0104187
0.020173
0.0199869
0.0195425
0.0187889
0.0177321
0.0163943
0.0147941
0.0129478
0.0108723
0.00859029
0.482259
0.484012
0.490345
0.50149
0.51734
0.538199
0.564532
0.596864
0.635731
0.681379
0.480018
0.481745
0.487998
0.498987
0.514589
0.53507
0.560839
0.592333
0.629952
0.673786
0.475588
0.47727
0.48337
0.494056
0.509172
0.528912
0.55357
0.583411
0.61856
0.65881
0.469069
0.470696
0.476585
0.48684
0.501255
0.519919
0.542956
0.570372
0.601878
0.636856
0.4606
0.462176
0.467816
0.477535
0.491065
0.508359
0.529318
0.553606
0.580372
0.608511
0.450348
0.451897
0.45727
0.46637
0.478859
0.49453
0.513016
0.53356
0.55461
0.57451
0.43851
0.440099
0.445225
0.453662
0.465
0.478844
0.49452
0.510775
0.525271
0.535721
0.425293
0.427108
0.432122
0.43997
0.450183
0.462149
0.474816
0.486294
0.493355
0.492937
0.410766
0.413057
0.41815
0.425534
0.434726
0.444896
0.454544
0.460951
0.459736
0.445653
0.394566
0.397001
0.401667
0.407922
0.415298
0.422845
0.428789
0.429908
0.421437
0.393727
0.394564
0.396999
0.401664
0.407919
0.415295
0.422842
0.428786
0.429904
0.421432
0.393722
0.410764
0.413055
0.418147
0.425531
0.434724
0.444894
0.454541
0.460947
0.459732
0.445649
0.425291
0.427106
0.43212
0.439968
0.450181
0.462147
0.474813
0.48629
0.493351
0.492933
0.438508
0.440097
0.445223
0.45366
0.464998
0.478842
0.494518
0.510772
0.525268
0.535718
0.450346
0.451895
0.457268
0.466368
0.478857
0.494528
0.513014
0.533558
0.554607
0.574507
0.460598
0.462175
0.467815
0.477533
0.491063
0.508358
0.529316
0.553604
0.580369
0.608508
0.469068
0.470695
0.476584
0.486839
0.501254
0.519918
0.542954
0.57037
0.601877
0.636854
0.475587
0.477269
0.483369
0.494055
0.509171
0.528911
0.553569
0.583409
0.618559
0.658809
0.480018
0.481745
0.487997
0.498987
0.514589
0.53507
0.560838
0.592332
0.629951
0.673786
0.482259
0.484012
0.490344
0.50149
0.51734
0.538199
0.564532
0.596863
0.63573
0.681378
0.020169
0.0199829
0.0195385
0.0187849
0.0177282
0.0163904
0.0147902
0.012944
0.0108685
0.00858651
0.0233832
0.023175
0.0226771
0.0218322
0.0206475
0.0191481
0.0173554
0.0152881
0.0129641
0.0104148
0.0302065
0.0299501
0.0293363
0.0282946
0.0268343
0.0249867
0.0227787
0.0202354
0.0173773
0.0142563
0.0414739
0.0411356
0.0403262
0.0389522
0.0370252
0.0345855
0.0316668
0.0283019
0.0245103
0.020376
0.0586016
0.0581385
0.0570306
0.0551495
0.0525085
0.0491588
0.0451421
0.0405024
0.0352573
0.0295531
0.0837527
0.0831084
0.0815699
0.0789576
0.0752788
0.0705858
0.064913
0.0582983
0.0507223
0.0423936
0.120055
0.11917
0.117067
0.113505
0.108466
0.101975
0.0940267
0.0846297
0.0737064
0.0615919
0.171632
0.170503
0.167836
0.163311
0.15682
0.148256
0.137429
0.124124
0.107936
0.0889479
0.242431
0.241314
0.238678
0.234092
0.22722
0.217632
0.204758
0.18794
0.166428
0.139669
0.332303
0.331602
0.330052
0.327175
0.322188
0.313852
0.300398
0.279429
0.248313
0.203684
0.00667332
0.00525613
0.00379584
0.00230664
0.000787944
-0.000759188
-0.00233043
-0.0039206
-0.00552486
-0.00713873
0.00826249
0.00667097
0.00503076
0.00337095
0.00168676
-2.48981e-05
-0.00176015
-0.00351284
-0.00527723
-0.00704813
0.0115795
0.00958788
0.00754656
0.00551757
0.00348431
0.00143322
-0.000633288
-0.00270771
-0.00478369
-0.00685631
0.0167396
0.0140147
0.0112638
0.00859152
0.00594987
0.00330601
0.000661778
-0.00197165
-0.00458644
-0.00717777
0.0244157
0.0205305
0.01669
0.013057
0.00951915
0.00600851
0.00252662
-0.000909795
-0.00429243
-0.00761929
0.0346438
0.028696
0.0229612
0.0176757
0.0125903
0.00757404
0.00263394
-0.00219868
-0.00691135
-0.0115037
0.0501411
0.0410716
0.0324486
0.0247439
0.0174826
0.010395
0.00348349
-0.0031933
-0.00961414
-0.0157862
0.0703489
0.0546529
0.0397059
0.0267993
0.0149526
0.00349037
-0.0076581
-0.0184049
-0.0287269
-0.0386509
0.114418
0.0885028
0.0617159
0.0388814
0.0187642
9.27984e-05
-0.0172154
-0.0329494
-0.047083
-0.0597313
0.164828
0.123835
0.0784875
0.0354183
-0.00632142
-0.0472021
-0.0866071
-0.123954
-0.158975
-0.191586
-0.0087579
-0.0103782
-0.0119957
-0.0136066
-0.0152073
-0.0167946
-0.0183652
-0.0199164
-0.0214469
-0.0229538
-0.00882056
-0.0105896
-0.0123505
-0.0140988
-0.0158303
-0.017541
-0.0192275
-0.0208865
-0.0225162
-0.0241167
-0.00892106
-0.0109735
-0.0130092
-0.0150242
-0.0170147
-0.0189774
-0.0209091
-0.0228069
-0.0246676
-0.0264974
-0.0097414
-0.012273
-0.0147681
-0.0172228
-0.0196336
-0.0219974
-0.0243116
-0.0265738
-0.0287783
-0.030937
-0.0108894
-0.0141015
-0.0172542
-0.0203465
-0.0233779
-0.0263479
-0.0292561
-0.0321011
-0.0348714
-0.0375693
-0.0159761
-0.020327
-0.0245532
-0.0286515
-0.032618
-0.0364488
-0.0401403
-0.0436897
-0.0470776
-0.0502715
-0.021723
-0.0274381
-0.032947
-0.0382688
-0.0434252
-0.0484397
-0.0533355
-0.0581345
-0.0628371
-0.0673219
-0.0482003
-0.0573782
-0.0661707
-0.0745512
-0.0824822
-0.0899189
-0.0968179
-0.103152
-0.108919
-0.114239
-0.071045
-0.0811872
-0.0903518
-0.0987818
-0.106784
-0.11474
-0.123107
-0.132424
-0.143272
-0.157439
-0.221795
-0.249699
-0.275487
-0.299441
-0.321948
-0.343511
-0.364749
-0.386304
-0.408677
-0.432525
-0.0332037
-0.0435704
-0.0441056
-0.0380201
-0.0300283
-0.0229316
-0.0167531
-0.0115037
-0.00652981
-0.00227311
-0.0354403
-0.0455804
-0.0451248
-0.0383232
-0.0300613
-0.0228768
-0.0166512
-0.0113945
-0.00643794
-0.00224596
-0.0402757
-0.0496982
-0.0471493
-0.0389392
-0.0301387
-0.0227509
-0.0164329
-0.0111583
-0.00625679
-0.00218464
-0.0485428
-0.0561847
-0.0501377
-0.0398139
-0.0302202
-0.0225162
-0.0160709
-0.0107783
-0.00598165
-0.00209182
-0.0616027
-0.0654855
-0.0540358
-0.0408181
-0.0301903
-0.0220894
-0.0155213
-0.010227
-0.00560952
-0.00196861
-0.0817448
-0.078388
-0.0590427
-0.0418696
-0.0298663
-0.0213221
-0.0147077
-0.00945739
-0.00513543
-0.00180254
-0.111057
-0.0957355
-0.0659003
-0.0431996
-0.0291635
-0.0200807
-0.0135544
-0.00841735
-0.00455145
-0.00154821
-0.150763
-0.116735
-0.0753905
-0.0452675
-0.0282603
-0.0183959
-0.012067
-0.00710372
-0.00385757
-0.00111623
-0.192334
-0.134702
-0.0848951
-0.0468012
-0.0269604
-0.0162632
-0.0102834
-0.00558241
-0.00307439
-0.000404144
-0.25057
-0.143787
-0.0909359
-0.045392
-0.0252522
-0.0138463
-0.00847071
-0.00403193
-0.00235097
0.000622195
-0.31709
-0.151869
-0.0945212
-0.0420883
-0.0246796
-0.0123884
-0.00770182
-0.00309389
-0.00216703
0.00154126
-0.324877
-0.149476
-0.0933881
-0.0403668
-0.0241466
-0.011864
-0.00743064
-0.00285609
-0.00208661
0.00175131
-0.320076
-0.143947
-0.0909131
-0.0384488
-0.0234704
-0.0113415
-0.00715278
-0.00265604
-0.00198522
0.00191097
-0.314351
-0.139913
-0.0890659
-0.0369801
-0.0229516
-0.0109134
-0.00691928
-0.00248395
-0.00189324
0.00205222
-0.309439
-0.136992
-0.0876668
-0.0357946
-0.022538
-0.010551
-0.00672056
-0.00233248
-0.00181332
0.00217952
-0.304817
-0.134531
-0.0864526
-0.0347921
-0.0221868
-0.0102417
-0.006551
-0.00220285
-0.00174431
0.00228881
-0.300616
-0.132461
-0.085419
-0.0339782
-0.0218985
-0.00998942
-0.00641215
-0.00209718
-0.00168684
0.00237777
-0.297193
-0.130858
-0.0846164
-0.0333677
-0.0216799
-0.00979821
-0.00630629
-0.00201674
-0.00164233
0.00244529
-0.294792
-0.129768
-0.0840719
-0.0329628
-0.0215339
-0.0096699
-0.00623467
-0.00196218
-0.00161176
0.00249078
-0.293556
-0.129215
-0.0837974
-0.032762
-0.0214614
-0.00960532
-0.00619813
-0.00193408
-0.00159602
0.00251351
)
;

boundaryField
{
    inlet
    {
        type            zeroGradient;
    }
    outlet
    {
        type            fixedValue;
        value           uniform 0;
    }
    cylinder
    {
        type            zeroGradient;
    }
    top
    {
        type            symmetryPlane;
    }
    bottom
    {
        type            symmetryPlane;
    }
    defaultFaces
    {
        type            empty;
    }
}


// ************************************************************************* //
