/*--------------------------------*- C++ -*----------------------------------*\
  =========                 |
  \\      /  F ield         | OpenFOAM: The Open Source CFD Toolbox
   \\    /   O peration     | Website:  https://openfoam.org
    \\  /    A nd           | Version:  6.0
     \\/     M anipulation  |
\*---------------------------------------------------------------------------*/
FoamFile
{
    version     2.0;
    format      ascii;
    class       volVectorField;
    location    "153";
    object      U;
}
// * * * * * * * * * * * * * * * * * * * * * * * * * * * * * * * * * * * * * //

dimensions      [0 1 -1 0 0 0 0];

internalField   nonuniform List<vector> 
34500
(
(0.999996 7.43985e-06 -4.63429e-17)
(0.999968 -3.9372e-06 -8.13779e-18)
(0.999915 -2.86326e-05 1.42268e-16)
(0.99984 -7.46586e-05 -1.07705e-16)
(0.999753 -0.000147214 3.35756e-17)
(0.999664 -0.000248139 -1.01543e-16)
(0.999582 -0.000376714 -1.01062e-16)
(0.999516 -0.000531512 8.66788e-17)
(0.999473 -0.000709082 1.07348e-16)
(0.999454 -0.000913764 -6.83864e-16)
(0.999463 -0.00114113 -1.04193e-15)
(0.999488 -0.00146053 1.27174e-16)
(0.99954 -0.00178581 4.35615e-16)
(1.00011 -0.00267953 -2.08803e-16)
(0.990879 -0.00806213 8.06333e-17)
(0.999992 2.76598e-05 3.24551e-17)
(0.99994 5.89391e-07 9.76621e-17)
(0.999842 -5.11463e-05 7.17778e-17)
(0.999708 -0.000142024 -3.02321e-16)
(0.999554 -0.000279824 -5.06133e-16)
(0.999397 -0.000466943 -5.50755e-17)
(0.999256 -0.000701644 2.55714e-16)
(0.999144 -0.000981146 -6.77891e-16)
(0.999075 -0.00129648 -1.78827e-16)
(0.999051 -0.00165453 6.82335e-16)
(0.999077 -0.00203927 1.26416e-15)
(0.999145 -0.00257199 -6.30612e-16)
(0.999143 -0.00308287 -9.87689e-16)
(1.00061 -0.00430747 -3.97927e-16)
(0.9908 -0.00981747 5.45797e-16)
(0.999989 4.95501e-05 1.04703e-17)
(0.999942 1.04146e-05 -1.22948e-16)
(0.999858 -5.08911e-05 -1.25204e-16)
(0.999743 -0.000146456 4.55836e-16)
(0.999614 -0.000281212 -2.86183e-17)
(0.999485 -0.000455871 -1.64098e-16)
(0.999372 -0.000668425 9.78715e-17)
(0.999287 -0.000916627 3.84908e-16)
(0.999239 -0.00118978 2.58886e-19)
(0.999234 -0.00149412 -3.93434e-16)
(0.999266 -0.00180785 -7.29089e-16)
(0.999359 -0.00224062 4.14594e-16)
(0.999192 -0.00265774 2.25631e-16)
(1.00087 -0.00354088 1.65673e-16)
(0.994338 -0.00636898 -2.54048e-16)
(0.999985 7.18834e-05 -1.73592e-17)
(0.999944 1.93111e-05 -9.02579e-18)
(0.999876 -5.20599e-05 4.83347e-17)
(0.999785 -0.000151375 -3.05491e-16)
(0.999685 -0.000281175 3.7238e-16)
(0.999586 -0.000441169 3.30096e-16)
(0.999502 -0.000629922 -3.99703e-16)
(0.99944 -0.000846847 -4.20191e-16)
(0.99941 -0.00108187 4.35322e-16)
(0.999415 -0.00134311 -4.70969e-16)
(0.999441 -0.00160844 -2.44723e-16)
(0.999546 -0.00197976 -3.861e-16)
(0.999232 -0.00238538 5.44231e-16)
(1.00069 -0.00307625 -4.83866e-17)
(0.99609 -0.00535847 2.22587e-17)
(0.999979 9.47923e-05 -1.70478e-17)
(0.999938 2.70963e-05 1.53355e-16)
(0.999874 -5.90003e-05 6.9574e-17)
(0.999788 -0.000171511 1.69813e-16)
(0.999695 -0.00031223 4.67638e-17)
(0.999604 -0.000480568 -1.58317e-16)
(0.999528 -0.000675446 1.02581e-16)
(0.999473 -0.000897213 2.66483e-16)
(0.999448 -0.00113617 -4.18011e-16)
(0.999457 -0.00140303 -2.31208e-16)
(0.999478 -0.00167506 1.00784e-15)
(0.9996 -0.00205362 6.35517e-16)
(0.999208 -0.0025079 -2.9077e-16)
(1.00031 -0.00313737 5.96844e-16)
(0.996827 -0.0052091 -6.05622e-16)
(0.999972 0.000118388 1.83567e-17)
(0.999929 3.5273e-05 -9.48349e-17)
(0.999864 -6.65937e-05 -1.86394e-16)
(0.999778 -0.000194551 -5.29549e-17)
(0.999687 -0.000350121 1.09475e-16)
(0.999598 -0.000532306 -1.08891e-16)
(0.999527 -0.0007397 1.48258e-16)
(0.999479 -0.000972445 1.3128e-16)
(0.999459 -0.00122044 2.91256e-16)
(0.999475 -0.00149576 -1.00352e-16)
(0.999496 -0.00177432 2.87737e-18)
(0.999638 -0.00215083 -3.9009e-16)
(0.999227 -0.00262595 1.83875e-17)
(0.999964 -0.00317831 -4.72643e-16)
(0.99725 -0.00476135 7.62089e-17)
(0.999963 0.000142552 3.25628e-18)
(0.999919 4.42857e-05 -3.55968e-17)
(0.999856 -7.24268e-05 -2.90275e-17)
(0.999774 -0.000213939 1.75805e-16)
(0.999687 -0.0003815 -2.20551e-16)
(0.999606 -0.000573603 2.75599e-16)
(0.999543 -0.000788237 -6.19617e-16)
(0.999505 -0.00102494 -3.70117e-16)
(0.999494 -0.00127314 -1.51731e-16)
(0.999519 -0.00154558 6.72112e-16)
(0.99954 -0.00181826 -7.69462e-16)
(0.999699 -0.00217342 2.9875e-16)
(0.999299 -0.0026466 4.58175e-16)
(0.999728 -0.00311048 -9.66769e-17)
(0.997498 -0.00430304 -1.23852e-16)
(0.999953 0.000167142 1.512e-17)
(0.999909 5.38738e-05 3.22946e-17)
(0.999848 -7.71665e-05 2.5036e-17)
(0.999771 -0.000231236 -1.50921e-16)
(0.999692 -0.000409469 3.2901e-16)
(0.999619 -0.00061003 -1.39664e-16)
(0.999566 -0.000830387 2.01671e-16)
(0.999537 -0.00106955 -1.46381e-16)
(0.999535 -0.00131663 3.97944e-16)
(0.999569 -0.00158497 1.7797e-16)
(0.99959 -0.00185212 2.45162e-16)
(0.999756 -0.00218656 -5.66513e-17)
(0.999389 -0.00265657 -5.06899e-16)
(0.999582 -0.00305147 1.14817e-15)
(0.99768 -0.00398715 1.90915e-16)
(0.999941 0.000192094 -1.12185e-17)
(0.999896 6.38844e-05 9.89777e-17)
(0.999839 -8.14935e-05 1.50839e-16)
(0.999766 -0.000248272 1.11957e-16)
(0.999694 -0.00043765 -4.88883e-16)
(0.999629 -0.000647626 1.41043e-16)
(0.999583 -0.000875231 3.20924e-16)
(0.999563 -0.00111899 7.73116e-16)
(0.999568 -0.00136767 -3.85794e-16)
(0.999611 -0.00163488 9.0164e-17)
(0.999631 -0.00190021 4.49873e-16)
(0.9998 -0.00221837 -3.24583e-16)
(0.999478 -0.00268216 -1.54771e-16)
(0.999506 -0.00302243 -3.84173e-16)
(0.99787 -0.0037335 8.58726e-17)
(0.999929 0.00021737 4.06945e-17)
(0.999883 7.43345e-05 -8.97566e-17)
(0.999827 -8.53781e-05 8.85457e-18)
(0.999759 -0.000264987 -1.10219e-16)
(0.999693 -0.000465764 4.10818e-16)
(0.999635 -0.00068553 7.96553e-17)
(0.999597 -0.000920888 2.70425e-16)
(0.999586 -0.00116988 -5.7357e-16)
(0.999599 -0.0014208 4.1633e-17)
(0.999649 -0.00168706 -7.87942e-17)
(0.999671 -0.00195037 -1.39932e-16)
(0.999839 -0.0022517 4.42517e-17)
(0.999565 -0.00270128 5.95169e-16)
(0.999484 -0.00299167 -8.11448e-16)
(0.998072 -0.00350137 -2.74878e-16)
(0.999914 0.00024294 -2.62276e-17)
(0.999867 8.52484e-05 3.52574e-17)
(0.999814 -8.86782e-05 -1.47567e-16)
(0.99975 -0.000280976 2.50041e-16)
(0.999691 -0.000492879 -3.61739e-16)
(0.999641 -0.000721919 -3.03257e-16)
(0.999612 -0.000964282 -3.39105e-16)
(0.99961 -0.00121763 3.9153e-17)
(0.999631 -0.00146975 -8.15042e-17)
(0.99969 -0.00173357 -4.25126e-16)
(0.999714 -0.00199315 -7.22562e-16)
(0.999878 -0.0022763 2.86642e-16)
(0.999649 -0.00270618 -3.30013e-16)
(0.999497 -0.00295236 9.15093e-16)
(0.998272 -0.0032993 5.47501e-17)
(0.999899 0.000268763 -2.45587e-17)
(0.99985 9.65848e-05 -1.04255e-16)
(0.999799 -9.14575e-05 1.50778e-16)
(0.999741 -0.000296352 -2.34249e-16)
(0.999689 -0.000519157 7.69098e-17)
(0.999648 -0.000756992 4.54475e-16)
(0.999628 -0.00100566 5.54369e-17)
(0.999635 -0.00126259 -6.74111e-17)
(0.999665 -0.00151527 1.81765e-16)
(0.999732 -0.00177593 -1.57151e-16)
(0.99976 -0.00203129 -9.52733e-17)
(0.999917 -0.00229703 -6.69791e-17)
(0.999727 -0.00270541 -2.88597e-16)
(0.999532 -0.00291483 -6.26871e-16)
(0.998459 -0.00313151 1.26377e-17)
(0.999882 0.000294812 -2.17697e-18)
(0.999832 0.000108298 1.40526e-16)
(0.999783 -9.38434e-05 -2.21581e-16)
(0.999729 -0.000311414 8.34407e-17)
(0.999685 -0.00054519 -9.36104e-17)
(0.999653 -0.000791736 -1.54861e-16)
(0.999642 -0.00104648 -3.89269e-17)
(0.999659 -0.00130683 3.65423e-16)
(0.999697 -0.00156009 -6.31049e-16)
(0.999774 -0.00181776 4.20959e-16)
(0.999805 -0.00206928 2.20997e-16)
(0.999954 -0.00231943 1.84642e-16)
(0.999798 -0.00270564 7.53361e-16)
(0.999578 -0.00288393 7.36453e-16)
(0.998634 -0.00299185 5.57953e-16)
(0.999864 0.000321059 8.30453e-18)
(0.999813 0.000120343 5.28876e-17)
(0.999765 -9.59298e-05 1.76114e-16)
(0.999716 -0.000326363 5.57925e-17)
(0.999679 -0.000571358 1.70732e-16)
(0.999655 -0.000826794 1.68169e-16)
(0.999655 -0.00108769 -1.18576e-17)
(0.999682 -0.00135152 4.93465e-17)
(0.999728 -0.00160561 9.38941e-16)
(0.999813 -0.0018606 -1.14101e-16)
(0.99985 -0.00210869 5.43399e-16)
(0.999989 -0.00234483 -7.41377e-16)
(0.999862 -0.00270809 1.37694e-16)
(0.99963 -0.00285853 -1.35642e-15)
(0.998796 -0.0028739 -6.26373e-16)
(0.999845 0.000347486 9.94122e-18)
(0.999792 0.000132699 -1.17706e-16)
(0.999746 -9.77536e-05 1.54836e-16)
(0.9997 -0.000341256 -2.24196e-16)
(0.99967 -0.000597787 1.56921e-16)
(0.999656 -0.000862412 2.07319e-17)
(0.999665 -0.00112968 1.95181e-16)
(0.999702 -0.00139716 -2.6028e-16)
(0.999757 -0.00165233 -8.40142e-16)
(0.99985 -0.00190489 2.4969e-16)
(0.999893 -0.00214965 -5.61483e-16)
(1.00003 -0.00237293 1.13184e-16)
(0.999921 -0.0027125 -4.92797e-16)
(0.999685 -0.00283707 2.67965e-16)
(0.998947 -0.00277316 -1.10165e-16)
(0.999825 0.000374071 3.32431e-17)
(0.999769 0.000145335 7.19014e-17)
(0.999725 -9.934e-05 -3.5906e-16)
(0.999683 -0.0003561 2.885e-16)
(0.99966 -0.000624486 -2.80104e-16)
(0.999654 -0.00089867 -3.73221e-16)
(0.999672 -0.00117266 -3.83254e-16)
(0.999719 -0.00144408 3.37949e-16)
(0.999783 -0.0017006 7.1981e-16)
(0.999885 -0.00195093 1.63295e-16)
(0.999936 -0.0021923 9.49245e-17)
(1.00006 -0.00240348 7.03116e-17)
(0.999976 -0.00271871 -7.36731e-16)
(0.999743 -0.00281854 6.4938e-17)
(0.999089 -0.00268576 6.41829e-16)
(0.999804 0.000400802 -8.9672e-17)
(0.999746 0.00015824 -9.24154e-17)
(0.999702 -0.000100684 3.42951e-17)
(0.999664 -0.000370835 -2.64446e-16)
(0.999647 -0.000651337 -1.79754e-17)
(0.999649 -0.000935428 4.81969e-16)
(0.999677 -0.00121652 5.5117e-17)
(0.999733 -0.0014922 3.04394e-16)
(0.999807 -0.00175036 -6.03642e-16)
(0.999917 -0.00199857 -3.10185e-16)
(0.999977 -0.00223627 4.45612e-16)
(1.0001 -0.00243571 -1.49544e-16)
(1.00003 -0.00272592 4.8617e-16)
(0.999802 -0.00280146 7.55701e-16)
(0.999224 -0.00260809 -6.06632e-17)
(0.999782 0.000427665 2.80921e-17)
(0.999721 0.000171395 1.14778e-17)
(0.999678 -0.000101777 1.15652e-16)
(0.999643 -0.000385364 2.25993e-18)
(0.999632 -0.000678116 9.89127e-17)
(0.999642 -0.000972334 -2.8982e-16)
(0.999679 -0.00126081 5.98719e-16)
(0.999746 -0.00154097 -1.53639e-16)
(0.999829 -0.00180092 6.53307e-16)
(0.999948 -0.00204698 -3.41893e-16)
(1.00002 -0.0022805 -5.44697e-16)
(1.00013 -0.00246825 5.26175e-16)
(1.00008 -0.00273286 -8.88738e-16)
(0.999863 -0.00278435 -1.31284e-15)
(0.999353 -0.00253781 -3.33824e-16)
(0.999758 0.000454664 3.12779e-18)
(0.999695 0.000184797 1.95023e-17)
(0.999653 -0.000102597 -3.12236e-17)
(0.999622 -0.000399573 1.58728e-16)
(0.999616 -0.000704554 1.08877e-16)
(0.999634 -0.00100894 -4.26987e-17)
(0.99968 -0.00130488 -3.60887e-16)
(0.999757 -0.00158958 -3.47953e-16)
(0.999849 -0.00185131 -2.35249e-16)
(0.999978 -0.00209503 4.33657e-16)
(1.00006 -0.00232373 3.36207e-16)
(1.00017 -0.00249971 -4.94742e-16)
(1.00014 -0.00273853 1.1009e-15)
(0.999926 -0.00276652 1.38312e-15)
(0.999477 -0.00247389 4.694e-17)
(0.999734 0.000481801 3.57649e-17)
(0.999667 0.000198431 -4.76068e-17)
(0.999627 -0.000103147 2.29498e-16)
(0.999599 -0.000413398 -4.57125e-17)
(0.999599 -0.000730468 -1.74484e-16)
(0.999625 -0.00104489 7.39808e-17)
(0.999681 -0.00134825 -1.29809e-16)
(0.999768 -0.0016374 2.93778e-16)
(0.99987 -0.00190077 7.72434e-17)
(1.00001 -0.00214191 5.4016e-17)
(1.0001 -0.00236524 -2.57845e-16)
(1.00022 -0.0025295 3.42556e-16)
(1.00019 -0.00274285 1.74889e-16)
(0.999992 -0.00274833 1.56654e-16)
(0.999597 -0.00241632 3.98426e-16)
(0.999708 0.000509099 -1.83862e-17)
(0.999638 0.000212296 2.72524e-17)
(0.9996 -0.000103432 -3.72014e-16)
(0.999575 -0.000426822 -2.38032e-16)
(0.999582 -0.000755789 3.29473e-16)
(0.999616 -0.00108006 -8.92061e-17)
(0.999681 -0.00139069 5.21162e-16)
(0.999778 -0.00168416 -1.41522e-16)
(0.999891 -0.00194903 -7.52024e-18)
(1.00004 -0.00218745 -1.50204e-16)
(1.00014 -0.00240502 3.8589e-16)
(1.00026 -0.00255781 -2.43427e-16)
(1.00025 -0.00274645 -8.01477e-16)
(1.00006 -0.00273072 -1.91232e-16)
(0.999713 -0.00236526 -4.54903e-16)
(0.999681 0.000536582 2.47503e-17)
(0.999608 0.000226387 1.12592e-16)
(0.999571 -0.000103481 3.353e-16)
(0.999551 -0.000439896 2.60253e-16)
(0.999564 -0.000780578 -3.20843e-17)
(0.999606 -0.00111451 -1.30345e-16)
(0.999681 -0.00143228 -5.76947e-16)
(0.999788 -0.00172998 -6.70907e-17)
(0.999911 -0.00199629 -3.42824e-16)
(1.00007 -0.00223197 1.11069e-16)
(1.00018 -0.00244361 -7.07301e-16)
(1.00031 -0.00258534 3.41464e-16)
(1.0003 -0.00275031 1.15454e-15)
(1.00013 -0.00271465 -8.92117e-16)
(0.999826 -0.00232074 5.30018e-16)
(0.999654 0.000564294 -1.99573e-17)
(0.999577 0.000240717 -1.58421e-16)
(0.999542 -0.000103313 -1.919e-16)
(0.999525 -0.00045268 -9.57199e-17)
(0.999544 -0.000804954 -6.13089e-17)
(0.999595 -0.00114841 8.41778e-17)
(0.999679 -0.00147327 -3.22382e-17)
(0.999798 -0.00177519 -4.42882e-16)
(0.999931 -0.00204297 -1.30382e-16)
(1.0001 -0.00227603 -3.28405e-17)
(1.00022 -0.00248172 6.43779e-16)
(1.00035 -0.00261288 1.07756e-16)
(1.00036 -0.00275524 -9.59838e-16)
(1.0002 -0.00270078 5.10426e-16)
(0.999936 -0.00228239 -1.0256e-16)
(0.999625 0.000592277 1.80277e-17)
(0.999545 0.000255297 9.31463e-17)
(0.999511 -0.000102946 9.23611e-17)
(0.999498 -0.000465248 1.79638e-16)
(0.999524 -0.000829061 -9.78827e-17)
(0.999583 -0.00118199 -2.75346e-17)
(0.999677 -0.00151395 1.98971e-16)
(0.999806 -0.00182015 2.97367e-16)
(0.999951 -0.00208953 -2.14309e-17)
(1.00013 -0.00232015 -3.59194e-16)
(1.00027 -0.00251997 -2.76244e-16)
(1.0004 -0.00264103 -4.85946e-16)
(1.00042 -0.00276182 2.04155e-17)
(1.00028 -0.00268948 2.64241e-16)
(1.00004 -0.0022498 -1.60247e-16)
(0.999595 0.00062059 -9.63938e-18)
(0.999511 0.000270161 -5.51215e-17)
(0.999478 -0.000102373 1.40266e-16)
(0.999469 -0.00047764 1.47116e-17)
(0.999502 -0.00085301 -1.24601e-16)
(0.99957 -0.00121542 1.00489e-16)
(0.999674 -0.00155456 -4.80095e-17)
(0.999813 -0.00186517 2.74176e-16)
(0.999969 -0.00213629 5.06697e-16)
(1.00016 -0.00236471 7.87133e-17)
(1.00031 -0.00255877 2.38385e-16)
(1.00045 -0.00267012 2.42812e-16)
(1.00048 -0.00277027 6.00136e-17)
(1.00035 -0.0026808 -5.43707e-16)
(1.00015 -0.00222229 1.32057e-16)
(0.999564 0.000649282 1.29118e-17)
(0.999475 0.000285338 1.16095e-17)
(0.999444 -0.000101583 -2.8656e-16)
(0.999439 -0.000489888 -1.252e-16)
(0.999478 -0.000876892 1.76035e-16)
(0.999555 -0.00124886 -2.74815e-17)
(0.999669 -0.00159529 1.8382e-16)
(0.999819 -0.00191044 -2.44189e-16)
(0.999986 -0.00218348 1.39225e-16)
(1.00018 -0.00240993 1.1583e-16)
(1.00035 -0.00259833 1.22318e-16)
(1.00049 -0.00270032 1.55753e-16)
(1.00054 -0.00278067 2.16762e-16)
(1.00043 -0.00267468 3.05643e-17)
(1.00026 -0.00219937 7.7642e-17)
(0.999531 0.000678413 -3.97263e-17)
(0.999439 0.000300872 1.0513e-16)
(0.999408 -0.000100541 1.64537e-16)
(0.999407 -0.000501987 -1.05331e-16)
(0.999453 -0.00090075 -6.84825e-17)
(0.999538 -0.00128239 3.89821e-17)
(0.999662 -0.00163626 -2.00258e-16)
(0.999824 -0.00195612 -1.31052e-16)
(1 -0.00223123 -1.72175e-16)
(1.00021 -0.00245591 2.7372e-16)
(1.00038 -0.00263875 -3.79899e-16)
(1.00054 -0.00273164 2.96913e-16)
(1.00061 -0.00279298 1.45578e-16)
(1.00051 -0.002671 5.45687e-16)
(1.00036 -0.00218043 -5.00025e-16)
(0.999497 0.000708028 1.67628e-17)
(0.999401 0.0003168 -7.91291e-17)
(0.999371 -9.92198e-05 5.79382e-17)
(0.999373 -0.00051393 1.28156e-16)
(0.999426 -0.000924618 -8.88547e-17)
(0.99952 -0.0013161 -1.50182e-16)
(0.999654 -0.00167758 -7.11134e-17)
(0.999827 -0.00200231 9.8015e-17)
(1.00002 -0.00227963 -4.48427e-16)
(1.00024 -0.00250274 6.61805e-17)
(1.00042 -0.00268011 2.52412e-16)
(1.00059 -0.00276412 -7.05888e-16)
(1.00067 -0.00280715 1.42672e-16)
(1.00059 -0.00266965 2.18788e-17)
(1.00047 -0.00216502 3.68575e-16)
(0.999462 0.000738179 -6.37264e-18)
(0.999361 0.000333168 9.69799e-17)
(0.999332 -9.7574e-05 -9.37002e-17)
(0.999338 -0.000525685 -5.81617e-17)
(0.999397 -0.000948493 -9.27666e-17)
(0.9995 -0.00135002 -4.90613e-17)
(0.999644 -0.00171932 -1.05798e-16)
(0.999829 -0.00204908 7.5546e-17)
(1.00003 -0.00232875 2.90618e-17)
(1.00026 -0.00255046 -3.10598e-16)
(1.00046 -0.00272241 -3.70677e-16)
(1.00064 -0.00279772 4.1144e-16)
(1.00073 -0.00282308 -3.59483e-16)
(1.00067 -0.00267042 -1.14621e-16)
(1.00057 -0.00215265 -1.12911e-17)
(0.999425 0.000768901 -1.9283e-17)
(0.99932 0.000350007 -4.48003e-17)
(0.999292 -9.55731e-05 3.16427e-17)
(0.999301 -0.000537228 2.25498e-16)
(0.999367 -0.00097237 3.76607e-16)
(0.999478 -0.00138418 3.07478e-16)
(0.999633 -0.00176151 3.35974e-16)
(0.999829 -0.00209649 -2.14368e-16)
(1.00004 -0.00237864 7.05527e-20)
(1.00028 -0.00259908 2.32602e-16)
(1.0005 -0.00276566 4.58221e-17)
(1.00068 -0.00283239 2.52803e-16)
(1.00079 -0.00284064 2.03331e-16)
(1.00075 -0.00267312 -5.33407e-16)
(1.00068 -0.00214285 -3.50332e-16)
(0.999387 0.000800233 9.92128e-18)
(0.999278 0.000367355 -8.09718e-17)
(0.99925 -9.3178e-05 -1.61973e-16)
(0.999263 -0.000548517 -1.59004e-16)
(0.999335 -0.000996213 1.46134e-17)
(0.999454 -0.00141855 -1.7359e-16)
(0.99962 -0.00180416 -3.77995e-16)
(0.999827 -0.00214456 2.88546e-16)
(1.00005 -0.00242931 2.34719e-16)
(1.00031 -0.00264859 -5.17677e-16)
(1.00053 -0.00280982 4.24812e-16)
(1.00073 -0.00286801 -3.09854e-16)
(1.00086 -0.00285963 -1.4295e-16)
(1.00083 -0.00267748 -1.25135e-16)
(1.00078 -0.00213514 1.49227e-16)
(0.999347 0.000832196 3.7766e-17)
(0.999234 0.00038523 1.73742e-17)
(0.999207 -9.03691e-05 8.76043e-17)
(0.999223 -0.000559523 4.06965e-17)
(0.999301 -0.00101998 4.78821e-17)
(0.999429 -0.00145309 3.0022e-16)
(0.999605 -0.00184723 -1.35662e-16)
(0.999824 -0.00219325 1.48259e-16)
(1.00006 -0.0024807 8.514e-17)
(1.00033 -0.00269891 5.93507e-17)
(1.00057 -0.00285478 1.97789e-16)
(1.00078 -0.00290446 -4.21917e-17)
(1.00092 -0.00287988 9.38481e-18)
(1.00092 -0.00268328 8.72726e-16)
(1.00088 -0.00212927 2.77664e-18)
(0.999306 0.00086482 -3.66571e-17)
(0.999189 0.000403656 -1.26618e-17)
(0.999162 -8.71224e-05 5.72746e-17)
(0.999181 -0.000570209 -1.7464e-16)
(0.999265 -0.00104362 -2.79742e-16)
(0.999402 -0.00148773 -2.68055e-16)
(0.999589 -0.00189063 2.27142e-16)
(0.99982 -0.00224244 -8.30858e-17)
(1.00007 -0.0025327 9.68955e-18)
(1.00035 -0.0027499 -5.01914e-18)
(1.0006 -0.00290039 -2.73205e-16)
(1.00083 -0.00294154 -2.47034e-16)
(1.00098 -0.00290117 -1.59425e-16)
(1.001 -0.00269029 2.42099e-17)
(1.00099 -0.00212499 -5.46345e-17)
(0.999263 0.000898116 -1.83002e-17)
(0.999142 0.000422638 4.84402e-17)
(0.999116 -8.34371e-05 4.766e-17)
(0.999138 -0.000580562 7.75655e-17)
(0.999228 -0.00106708 1.06098e-16)
(0.999374 -0.00152237 1.67683e-18)
(0.999571 -0.00193424 2.27037e-16)
(0.999815 -0.00229201 -5.06308e-16)
(1.00008 -0.00258515 2.58226e-16)
(1.00037 -0.00280139 2.6342e-16)
(1.00064 -0.00294649 -3.76984e-16)
(1.00087 -0.0029791 7.04388e-16)
(1.00104 -0.00292333 3.71069e-16)
(1.00108 -0.00269842 -6.92115e-16)
(1.00109 -0.0021223 -2.05951e-16)
(0.999218 0.000932102 3.78434e-17)
(0.999094 0.000442185 2.93888e-17)
(0.999068 -7.93112e-05 4.58871e-18)
(0.999094 -0.00059057 -3.4771e-17)
(0.99919 -0.00109031 2.01707e-17)
(0.999344 -0.00155693 2.84624e-16)
(0.999553 -0.00197791 -4.58833e-17)
(0.999808 -0.00234178 3.24912e-16)
(1.00009 -0.00263788 -4.80886e-17)
(1.00039 -0.00285321 -2.91365e-16)
(1.00067 -0.00299291 6.03091e-16)
(1.00092 -0.00301703 -3.62105e-16)
(1.00111 -0.00294631 -4.90557e-16)
(1.00116 -0.00270764 2.07555e-16)
(1.00119 -0.00212121 3.47057e-16)
(0.999172 0.000966785 -3.14698e-17)
(0.999045 0.000462287 -1.32686e-17)
(0.999019 -7.47684e-05 -1.73029e-16)
(0.999048 -0.000600259 -8.4567e-17)
(0.999151 -0.00111333 5.20828e-17)
(0.999314 -0.00159138 -2.87336e-16)
(0.999533 -0.00202159 -8.44741e-17)
(0.999801 -0.00239165 2.83171e-16)
(1.00009 -0.00269077 -2.39525e-16)
(1.00041 -0.00290526 7.02597e-17)
(1.00071 -0.00303964 -3.3582e-16)
(1.00097 -0.00305537 1.05684e-17)
(1.00117 -0.00297019 2.65502e-16)
(1.00125 -0.00271813 1.39816e-16)
(1.00129 -0.00212198 -5.44867e-17)
(0.999124 0.00100218 3.0021e-17)
(0.998994 0.000482946 -9.74177e-17)
(0.998968 -6.98288e-05 8.17789e-17)
(0.999001 -0.000609664 5.35291e-17)
(0.99911 -0.00113616 -4.03632e-17)
(0.999282 -0.00162572 -1.72594e-16)
(0.999512 -0.00206525 5.23356e-17)
(0.999793 -0.00244161 -1.29826e-16)
(1.0001 -0.00274381 -2.18925e-16)
(1.00043 -0.00295756 -2.73643e-17)
(1.00074 -0.00308673 -4.85294e-16)
(1.00102 -0.00309423 4.96864e-16)
(1.00123 -0.00299513 3.8644e-17)
(1.00133 -0.00273009 -7.98145e-17)
(1.00139 -0.0021247 -7.7647e-18)
(0.999075 0.00103827 -3.68216e-17)
(0.998941 0.000504143 1.00284e-16)
(0.998916 -6.45332e-05 -2.30379e-17)
(0.998952 -0.000618856 -2.09879e-16)
(0.999068 -0.00115889 -1.00007e-16)
(0.999249 -0.00166006 1.16186e-16)
(0.999491 -0.00210899 -1.70496e-16)
(0.999785 -0.00249174 -1.91002e-16)
(1.00011 -0.00279711 3.251e-16)
(1.00045 -0.00301027 1.13148e-16)
(1.00078 -0.00313441 5.092e-16)
(1.00107 -0.0031339 -3.83158e-16)
(1.0013 -0.00302142 1.37767e-16)
(1.00141 -0.00274378 -1.55234e-16)
(1.00149 -0.00212956 5.17546e-18)
(0.999024 0.00107509 2.27904e-17)
(0.998886 0.000525875 -5.80327e-17)
(0.998862 -5.89116e-05 7.20887e-17)
(0.998902 -0.000627902 3.12717e-16)
(0.999025 -0.00118163 1.32712e-16)
(0.999215 -0.00169453 8.23414e-17)
(0.999468 -0.00215299 3.3864e-16)
(0.999775 -0.00254224 1.60948e-16)
(1.00011 -0.0028509 -2.65132e-16)
(1.00047 -0.00306362 4.51846e-16)
(1.00081 -0.00318292 2.51352e-16)
(1.00112 -0.00317463 -2.12826e-16)
(1.00136 -0.00304929 -4.07329e-16)
(1.00149 -0.00275938 -1.58399e-16)
(1.00159 -0.00213651 6.11456e-17)
(0.998971 0.00111261 4.67944e-18)
(0.99883 0.000548126 -1.23638e-16)
(0.998806 -5.30039e-05 -9.17577e-17)
(0.99885 -0.000636885 -2.1532e-16)
(0.998979 -0.00120452 3.45878e-17)
(0.999179 -0.00172933 -3.34384e-16)
(0.999444 -0.00219745 -3.59515e-16)
(0.999764 -0.00259337 -1.44629e-16)
(1.00011 -0.00290546 3.08159e-16)
(1.00049 -0.00311792 -3.27398e-16)
(1.00084 -0.0032326 1.15797e-16)
(1.00116 -0.00321674 2.15363e-16)
(1.00143 -0.00307896 3.27138e-16)
(1.00158 -0.00277701 1.99772e-16)
(1.00168 -0.00214554 1.69573e-17)
(0.998917 0.00115086 3.28919e-17)
(0.998773 0.000570893 2.02075e-16)
(0.998749 -4.6828e-05 9.40523e-17)
(0.998796 -0.000645858 1.8076e-16)
(0.998932 -0.00122766 1.08308e-16)
(0.999142 -0.0017646 4.5666e-17)
(0.999418 -0.0022426 5.26797e-17)
(0.999752 -0.00264536 -1.21044e-16)
(1.00012 -0.00296103 -1.22764e-16)
(1.0005 -0.0031734 1.43892e-17)
(1.00088 -0.00328365 -7.91276e-16)
(1.00121 -0.00326039 -3.0916e-16)
(1.00149 -0.00311052 3.25268e-16)
(1.00166 -0.00279665 -7.25884e-17)
(1.00178 -0.00215636 -2.00987e-16)
(0.998861 0.00118981 -4.42082e-17)
(0.998713 0.000594165 -1.29494e-16)
(0.998689 -4.04041e-05 -1.8598e-16)
(0.99874 -0.000654865 6.11018e-17)
(0.998883 -0.00125113 -2.05484e-16)
(0.999102 -0.00180049 3.82817e-17)
(0.999391 -0.0022886 -4.73846e-17)
(0.999738 -0.0026984 -8.64909e-18)
(1.00012 -0.00301782 -1.46692e-16)
(1.00052 -0.00323026 -7.69304e-17)
(1.00091 -0.00333623 2.72536e-17)
(1.00126 -0.00330566 2.68478e-16)
(1.00155 -0.00314395 -1.35395e-16)
(1.00174 -0.0028182 2.67444e-16)
(1.00188 -0.00216883 9.44929e-17)
(0.998803 0.00122946 2.36275e-17)
(0.998652 0.000617941 1.24053e-16)
(0.998628 -3.37283e-05 2.36281e-16)
(0.998682 -0.000663909 -6.82777e-17)
(0.998832 -0.00127495 -1.6566e-17)
(0.999061 -0.00183702 2.50843e-16)
(0.999361 -0.00233551 2.13312e-16)
(0.999722 -0.00275258 -1.46171e-16)
(1.00012 -0.00307592 3.91662e-16)
(1.00053 -0.00328855 3.55391e-16)
(1.00094 -0.00339035 3.78011e-16)
(1.00131 -0.00335252 -1.74633e-17)
(1.00162 -0.00317913 -3.00134e-16)
(1.00182 -0.00284146 -3.15403e-16)
(1.00197 -0.00218259 -3.03822e-17)
(0.998744 0.00126982 -2.02459e-17)
(0.998589 0.000642209 -6.55092e-17)
(0.998565 -2.68033e-05 -1.95839e-16)
(0.998623 -0.000672985 1.26044e-16)
(0.998779 -0.00129912 1.20948e-16)
(0.999018 -0.00187421 -1.67954e-16)
(0.99933 -0.00238335 -8.47975e-17)
(0.999705 -0.00280792 8.38682e-18)
(1.00012 -0.00313531 -1.74064e-16)
(1.00055 -0.00334825 -3.04499e-16)
(1.00097 -0.00344594 -5.61982e-16)
(1.00135 -0.00340087 6.07134e-17)
(1.00168 -0.00321591 3.66412e-16)
(1.0019 -0.00286626 3.31945e-16)
(1.00207 -0.00219752 -6.97921e-17)
(0.998683 0.00131087 -1.61109e-17)
(0.998525 0.000666969 -1.31771e-17)
(0.998501 -1.96146e-05 1.71377e-16)
(0.998561 -0.000682059 -1.61712e-16)
(0.998724 -0.00132358 -3.19572e-16)
(0.998972 -0.00191199 1.55101e-16)
(0.999297 -0.00243203 8.80192e-17)
(0.999686 -0.00286431 4.07621e-16)
(1.00011 -0.00319591 5.8287e-17)
(1.00056 -0.00340924 2.83516e-16)
(1.001 -0.00350289 8.4211e-16)
(1.0014 -0.00345055 -2.31108e-16)
(1.00174 -0.0032541 -9.81376e-17)
(1.00198 -0.00289239 -1.15922e-17)
(1.00216 -0.00221334 -2.77908e-17)
(0.998621 0.00135259 4.50571e-17)
(0.998459 0.000692201 4.92305e-17)
(0.998434 -1.21652e-05 -1.47392e-16)
(0.998498 -0.000691108 1.3693e-16)
(0.998667 -0.00134828 -9.21671e-17)
(0.998925 -0.00195027 -2.96756e-16)
(0.999263 -0.00248147 1.30415e-17)
(0.999666 -0.00292166 -3.50616e-17)
(1.00011 -0.0032576 -2.16174e-16)
(1.00057 -0.0034714 1.8225e-16)
(1.00103 -0.00356104 -7.8603e-16)
(1.00145 -0.00350142 -1.43098e-17)
(1.00181 -0.00329355 -1.7528e-16)
(1.00206 -0.0029197 3.27489e-17)
(1.00226 -0.00223004 -8.23133e-17)
(0.998556 0.00139498 -1.14976e-17)
(0.998391 0.000717898 -1.17303e-17)
(0.998366 -4.45113e-06 2.03953e-17)
(0.998433 -0.000700105 -1.52272e-16)
(0.998609 -0.00137316 -2.73377e-17)
(0.998877 -0.00198898 3.62351e-16)
(0.999227 -0.00253156 -2.64099e-16)
(0.999645 -0.00297985 -3.27144e-16)
(1.0001 -0.00332025 3.50334e-16)
(1.00059 -0.00353459 -3.17029e-16)
(1.00106 -0.00362026 4.01334e-16)
(1.00149 -0.00355334 3.79805e-16)
(1.00187 -0.00333412 2.73661e-16)
(1.00215 -0.00294808 -1.82164e-16)
(1.00235 -0.00224746 -6.20342e-17)
(0.99849 0.00143801 -1.23996e-17)
(0.998321 0.000744033 -7.19758e-17)
(0.998296 3.5071e-06 -9.69209e-17)
(0.998366 -0.000709056 7.11394e-17)
(0.998549 -0.0013982 1.80308e-16)
(0.998827 -0.00202806 6.32464e-17)
(0.999189 -0.00258222 2.45441e-16)
(0.999622 -0.00303879 5.3653e-17)
(1.0001 -0.00338377 -4.60609e-16)
(1.0006 -0.00359873 1.61206e-16)
(1.00109 -0.0036805 -2.27929e-16)
(1.00154 -0.00360627 -1.89376e-16)
(1.00193 -0.00337579 -2.55175e-16)
(1.00223 -0.0029775 4.03361e-17)
(1.00245 -0.00226576 1.49811e-16)
(0.998423 0.00148169 -1.90321e-17)
(0.99825 0.000770592 3.42824e-17)
(0.998224 1.16942e-05 4.13909e-17)
(0.998298 -0.00071797 -1.42586e-16)
(0.998488 -0.00142341 6.95877e-17)
(0.998775 -0.00206751 -2.1115e-16)
(0.999151 -0.00263343 -2.58685e-17)
(0.999599 -0.00309845 3.17628e-16)
(1.00009 -0.00344813 -2.02621e-16)
(1.00061 -0.00366379 -2.67895e-16)
(1.00112 -0.0037417 2.30155e-16)
(1.00159 -0.00366016 -6.83421e-17)
(1.002 -0.00341851 -7.23015e-16)
(1.00231 -0.00300796 7.3794e-17)
(1.00255 -0.0022849 1.07758e-16)
(0.998353 0.00152598 -9.79604e-18)
(0.998177 0.000797543 3.34391e-17)
(0.998151 2.00731e-05 1.25987e-17)
(0.998228 -0.000726887 1.90078e-17)
(0.998424 -0.00144882 1.20083e-16)
(0.998722 -0.00210734 6.67325e-17)
(0.999111 -0.00268521 -2.19806e-16)
(0.999574 -0.00315883 -2.0075e-17)
(1.00008 -0.00351333 6.06886e-16)
(1.00062 -0.00372977 -1.94687e-16)
(1.00115 -0.00380389 -5.7266e-18)
(1.00163 -0.00371508 2.88092e-17)
(1.00206 -0.00346235 2.78394e-17)
(1.00239 -0.00303955 -5.10926e-17)
(1.00264 -0.00230509 1.70074e-17)
(0.998281 0.00157088 2.58148e-17)
(0.998102 0.000824872 -6.82092e-17)
(0.998076 2.86169e-05 -7.79123e-17)
(0.998156 -0.000735847 1.50152e-19)
(0.99836 -0.00147446 -1.81321e-16)
(0.998668 -0.00214761 -2.89577e-17)
(0.99907 -0.00273761 4.26809e-17)
(0.999549 -0.00321998 -4.83353e-17)
(1.00008 -0.00357942 -4.10877e-16)
(1.00063 -0.00379673 5.47178e-16)
(1.00118 -0.00386714 -3.12359e-17)
(1.00168 -0.00377109 -5.72159e-17)
(1.00213 -0.00350739 3.37386e-16)
(1.00247 -0.00307235 -3.78488e-16)
(1.00274 -0.0023264 7.98631e-18)
(0.998208 0.00161637 2.73903e-18)
(0.998025 0.000852548 8.18272e-17)
(0.997999 3.72831e-05 2.19914e-16)
(0.998082 -0.000744908 -5.54616e-17)
(0.998293 -0.00150043 1.17838e-16)
(0.998612 -0.00218841 -1.83122e-16)
(0.999028 -0.00279071 -2.19324e-16)
(0.999522 -0.00328201 5.26714e-18)
(1.00007 -0.00364651 2.39225e-16)
(1.00064 -0.00386478 -4.77571e-16)
(1.0012 -0.00393158 1.1899e-16)
(1.00173 -0.00382834 -2.06889e-17)
(1.00219 -0.00355379 2.6062e-16)
(1.00256 -0.00310654 8.05627e-17)
(1.00283 -0.00234906 -1.25348e-16)
(0.998132 0.00166245 1.05255e-18)
(0.997946 0.00088056 -8.88095e-17)
(0.99792 4.60463e-05 -1.25511e-16)
(0.998007 -0.000754116 2.07751e-17)
(0.998225 -0.00152678 -2.18922e-17)
(0.998555 -0.00222981 1.66224e-16)
(0.998984 -0.00284462 3.60099e-16)
(0.999494 -0.00334501 -3.19458e-16)
(1.00006 -0.00371471 3.63444e-16)
(1.00065 -0.00393405 3.21358e-17)
(1.00123 -0.00399733 7.13333e-17)
(1.00177 -0.00388698 -1.37818e-16)
(1.00226 -0.0036017 2.66182e-16)
(1.00264 -0.00314225 1.509e-16)
(1.00293 -0.00237307 1.96905e-16)
(0.998055 0.00170909 -8.60825e-18)
(0.997866 0.000908884 8.47148e-17)
(0.997839 5.48705e-05 1.54592e-16)
(0.997929 -0.000763524 5.34165e-17)
(0.998155 -0.00155359 1.56243e-16)
(0.998495 -0.0022719 1.20007e-16)
(0.998939 -0.00289943 -3.23371e-16)
(0.999465 -0.0034091 6.47964e-16)
(1.00005 -0.00378416 -2.03864e-16)
(1.00066 -0.00400469 -6.78313e-17)
(1.00126 -0.00406458 -2.45589e-16)
(1.00182 -0.00394718 -1.07887e-16)
(1.00232 -0.00365126 -2.96215e-16)
(1.00272 -0.00317962 -1.09166e-16)
(1.00302 -0.0023986 4.7348e-17)
(0.997976 0.00175629 -3.057e-17)
(0.997783 0.000937513 -9.05952e-17)
(0.997756 6.37389e-05 -1.08421e-17)
(0.99785 -0.000773166 1.06262e-16)
(0.998083 -0.00158091 -1.42192e-16)
(0.998434 -0.00231477 -1.04422e-16)
(0.998892 -0.00295524 4.04656e-16)
(0.999435 -0.00347441 -1.20881e-16)
(1.00004 -0.00385498 -5.16516e-16)
(1.00066 -0.00407684 7.11044e-17)
(1.00129 -0.00413345 -1.24691e-16)
(1.00187 -0.00400908 2.30774e-16)
(1.00239 -0.0037026 3.69777e-16)
(1.00281 -0.0032187 3.29483e-16)
(1.00312 -0.00242553 -2.75917e-16)
(0.997895 0.00180404 1.83355e-18)
(0.997698 0.000966427 -1.74748e-17)
(0.997671 7.26238e-05 -7.23383e-17)
(0.997769 -0.000783085 4.50936e-17)
(0.998009 -0.0016088 -7.88419e-17)
(0.998372 -0.00235848 1.34482e-16)
(0.998844 -0.00301217 -1.16277e-16)
(0.999404 -0.00354105 3.99059e-17)
(1.00002 -0.00392733 -1.08257e-16)
(1.00067 -0.00415066 2.75495e-16)
(1.00132 -0.00420412 3.37177e-16)