1.45 	0 	0 	-0.00633566 	-0.00270473 	1.70859e-20
2.35 	0 	0 	0.0668092 	-0.00682612 	1.0561e-20
