1.275 	2.15223e-18 	-2.76991e-20 	-0.0344825 	-0.000439915 	-1.90169e-22
1.825 	2.15223e-18 	-1.39322e-20 	-0.00950204 	-0.00275642 	1.67644e-21
2.375 	2.15223e-18 	-2.66896e-23 	0.115191 	-0.00323108 	-6.99191e-22
