1.275 	2.15223e-18 	-2.76991e-20 	-0.0344597 	-0.000434448 	-1.91078e-22
1.825 	2.15223e-18 	-1.39322e-20 	-0.00945759 	-0.00275416 	1.68832e-21
2.375 	2.15223e-18 	-2.66896e-23 	0.115329 	-0.00324052 	-7.04249e-22
