1.45 	0 	0 	0.145583 	-0.0126641 	2.97093e-21
2.35 	0 	0 	0.452635 	-0.0135227 	-6.3322e-22
