1.45 	0 	0 	-0.292006
2.35 	0 	0 	-0.127327
