1.45 	0 	0 	-0.00806175 	-0.00257266 	3.78916e-21
2.35 	0 	0 	0.0614409 	-0.00663566 	2.2952e-21
