1.45 	0 	0 	-0.00788912 	-0.00258096 	3.80714e-21
2.35 	0 	0 	0.0618292 	-0.00664734 	2.32009e-21
