/*--------------------------------*- C++ -*----------------------------------*\
  =========                 |
  \\      /  F ield         | OpenFOAM: The Open Source CFD Toolbox
   \\    /   O peration     | Website:  https://openfoam.org
    \\  /    A nd           | Version:  6.0
     \\/     M anipulation  |
\*---------------------------------------------------------------------------*/
FoamFile
{
    version     2.0;
    format      ascii;
    class       volVectorField;
    location    "8";
    object      U;
}
// * * * * * * * * * * * * * * * * * * * * * * * * * * * * * * * * * * * * * //

dimensions      [0 1 -1 0 0 0 0];

internalField   nonuniform List<vector> 
8000
(
(-0.000404482 0.000447156 -1.45157e-21)
(-0.00212256 0.00107375 8.45838e-21)
(-0.00519478 0.00147951 -1.05465e-20)
(-0.00884441 0.00171719 8.19788e-21)
(-0.0126698 0.00182501 4.06751e-21)
(-0.0164422 0.00183259 -1.2411e-20)
(-0.019998 0.00176404 -1.10831e-21)
(-0.0232291 0.00163903 -3.88195e-22)
(-0.026072 0.00147374 -6.65379e-21)
(-0.0284956 0.00128164 -3.62339e-21)
(-0.0304929 0.00107413 2.75541e-21)
(-0.0320744 0.000860928 1.04414e-20)
(-0.0332641 0.000650395 -8.27434e-22)
(-0.0340958 0.0004497 1.1009e-21)
(-0.0346101 0.000264958 -1.06578e-20)
(-0.034853 0.000101282 6.58844e-21)
(-0.0348737 -3.71987e-05 -9.42053e-21)
(-0.0347147 -0.000147143 1.43288e-20)
(-0.0344088 -0.000225694 -1.64161e-23)
(-0.0340649 -0.000271985 3.57468e-21)
(-0.000472576 0.00133861 4.81707e-21)
(-0.00227513 0.00321342 -2.68891e-20)
(-0.00538057 0.00442708 -1.90625e-20)
(-0.00902432 0.00513771 -1.32189e-20)
(-0.0128127 0.00545972 -1.73124e-20)
(-0.0165232 0.00548178 3.85909e-21)
(-0.0199969 0.00527601 -2.0541e-20)
(-0.0231296 0.00490116 -4.63427e-21)
(-0.0258607 0.00440555 1.54867e-21)
(-0.0281614 0.00382946 1.58362e-20)
(-0.0300262 0.00320696 -1.73641e-20)
(-0.0314672 0.00256714 2.43169e-20)
(-0.0325096 0.00193504 -1.82953e-20)
(-0.033188 0.00133222 -2.17474e-20)
(-0.0335439 0.000777094 -2.99579e-20)
(-0.0336245 0.000285099 1.94043e-20)
(-0.0334799 -0.000131243 -6.15465e-21)
(-0.0331533 -0.000461752 -2.26431e-20)
(-0.0326779 -0.000697649 2.15384e-20)
(-0.0321661 -0.00083642 -1.85514e-20)
(-0.00060736 0.00221248 4.71102e-20)
(-0.00257611 0.00530577 2.68238e-20)
(-0.00574531 0.00730432 3.08363e-20)
(-0.00937486 0.00847043 2.63383e-21)
(-0.0130873 0.00899379 1.77065e-20)
(-0.0166722 0.00902118 2.23198e-20)
(-0.0199803 0.00867181 -4.13783e-20)
(-0.0229151 0.00804267 -2.20513e-20)
(-0.0254219 0.00721344 -2.90031e-20)
(-0.0274764 0.00625059 3.12364e-20)
(-0.0290765 0.00521039 -2.40442e-20)
(-0.0302369 0.00414101 -3.1087e-20)
(-0.030985 0.00308404 -1.14202e-20)
(-0.0313573 0.00207544 1.08913e-20)
(-0.0313972 0.0011461 -2.88167e-21)
(-0.0311539 0.000322043 4.48296e-21)
(-0.0306796 -0.000375472 5.05651e-20)
(-0.0300188 -0.000928982 -7.3598e-21)
(-0.0292051 -0.00132321 -5.15731e-20)
(-0.0283591 -0.00155424 7.88182e-20)
(-0.000805892 0.00305711 1.65782e-20)
(-0.0030168 0.0073195 -2.53078e-20)
(-0.00627484 0.0100649 -6.58864e-21)
(-0.00987693 0.0116578 1.25709e-20)
(-0.0134702 0.0123617 3.61261e-20)
(-0.0168621 0.0123799 8.02025e-20)
(-0.0199185 0.011877 7.93862e-20)
(-0.0225542 0.0109869 6.664e-21)
(-0.0247232 0.0098194 4.96593e-20)
(-0.0264078 0.00846595 7.66377e-20)
(-0.0276109 0.00700424 -6.13965e-20)
(-0.0283513 0.005501 9.19536e-20)
(-0.0286592 0.00401411 -2.064e-20)
(-0.0285741 0.00259396 5.44884e-21)
(-0.0281421 0.00128417 2.17653e-20)
(-0.027415 0.00012185 2.88834e-20)
(-0.0264482 -0.000862457 -4.61769e-20)
(-0.0252886 -0.0016432 -3.84316e-20)
(-0.02397 -0.00219758 -6.78368e-20)
(-0.0226263 -0.00252078 1.14737e-19)
(-0.00106369 0.00386095 -8.5767e-21)
(-0.00358396 0.00922366 -9.69225e-20)
(-0.00694754 0.0126633 -2.94214e-20)
(-0.0105013 0.0146439 -7.3023e-20)
(-0.0139255 0.0155004 2.82088e-20)
(-0.017052 0.0154903 -4.48908e-20)
(-0.0197663 0.0148218 1.58007e-20)
(-0.0219985 0.0136632 -9.73206e-20)
(-0.0237143 0.0121524 5.20043e-20)
(-0.0249046 0.0104047 -6.23506e-20)
(-0.0255789 0.00851766 -5.57345e-20)
(-0.0257607 0.00657586 -6.27269e-20)
(-0.0254844 0.00465302 5.71416e-20)
(-0.0247927 0.00281396 -5.14925e-20)
(-0.023735 0.00111541 7.20529e-20)
(-0.022367 -0.000393821 2.07107e-20)
(-0.0207479 -0.00167298 5.13379e-20)
(-0.0189275 -0.00268721 2.23538e-20)
(-0.0169409 -0.00340475 -8.9661e-20)
(-0.0149403 -0.00382051 1.69013e-19)
(-0.00137466 0.0046125 3.85143e-20)
(-0.00425949 0.0109876 2.93953e-21)
(-0.00773382 0.0150551 1.77713e-20)
(-0.0112081 0.0173748 6.30409e-20)
(-0.0144043 0.0183499 -9.53803e-21)
(-0.0171854 0.0182898 1.0574e-19)
(-0.0194613 0.0174426 4.76369e-20)
(-0.0211816 0.0160086 4.14131e-21)
(-0.0223263 0.0141514 1.24418e-19)
(-0.0228968 0.0120075 4.08869e-20)
(-0.0229104 0.00969302 1.95972e-20)
(-0.0223966 0.00730902 6.25312e-20)
(-0.021394 0.00494444 5.74733e-20)
(-0.0199494 0.0026784 1.04977e-19)
(-0.0181159 0.000581162 -9.45519e-20)
(-0.0159533 -0.00128587 1.32999e-19)
(-0.013526 -0.00287052 1.05188e-21)
(-0.0108869 -0.00412692 -1.70731e-19)
(-0.00807322 -0.00501222 2.2142e-19)
(-0.00526247 -0.00552201 1.05787e-19)
(-0.00173092 0.00530026 -2.25697e-20)
(-0.00502005 0.0125812 -4.54992e-20)
(-0.00859551 0.0171969 -9.65792e-20)
(-0.0119456 0.0197988 -2.96077e-21)
(-0.0148435 0.0208546 1.72778e-20)
(-0.0171893 0.0207213 -1.29364e-19)
(-0.0189232 0.0196837 -9.70547e-20)
(-0.0200175 0.0179705 -1.41172e-20)
(-0.0204693 0.0157675 -1.25016e-19)
(-0.0202927 0.0132299 -8.70135e-20)
(-0.019514 0.0104899 -2.55449e-20)
(-0.0181688 0.00766328 -8.2706e-20)
(-0.0163009 0.00485319 -1.58726e-21)
(-0.0139608 0.00215274 -1.10609e-19)
(-0.0112056 -0.000353838 4.62158e-20)
(-0.00809979 -0.00259149 -5.32888e-20)
(-0.00471318 -0.00449498 4.03268e-20)
(-0.0011027 -0.00600505 -5.25442e-20)
(0.00269135 -0.00706495 -1.48404e-19)
(0.0064582 -0.0076721 -5.22434e-20)
(-0.00212265 0.0059126 -8.84073e-21)
(-0.00583655 0.0139743 -1.04591e-20)
(-0.00948517 0.0190469 8.13216e-20)
(-0.0126498 0.0218673 -1.35364e-19)
(-0.0151645 0.0229631 2.01231e-20)
(-0.0169732 0.0227346 -8.07919e-20)
(-0.0180514 0.0214988 3.82876e-20)
(-0.0183981 0.0195081 1.74179e-19)
(-0.0180306 0.0169671 -1.1702e-20)
(-0.016977 0.0140456 -1.31947e-19)
(-0.0152738 0.0108891 2.40539e-20)
(-0.0129634 0.00762558 4.93134e-21)
(-0.0100944 0.00437085 -2.69538e-20)
(-0.00672091 0.00123129 3.42813e-21)
(-0.00290374 -0.00169461 2.41489e-19)
(0.00128799 -0.00431691 -3.49156e-20)
(0.0057785 -0.00655526 -6.72454e-20)
(0.0105065 -0.00833386 -1.19981e-19)
(0.0154274 -0.00957822 1.2332e-19)
(0.0202874 -0.010289 6.15122e-20)
(-0.00253777 0.00643765 4.29322e-20)
(-0.00667358 0.0151371 -6.18062e-20)
(-0.0103452 0.0205642 8.93339e-20)
(-0.0132433 0.0235345 9.20308e-20)
(-0.0152723 0.0246291 8.60003e-20)
(-0.0164273 0.0242869 1.7608e-19)
(-0.0167239 0.0228515 1.14881e-19)
(-0.0161923 0.0205943 -2.49375e-19)
(-0.0148722 0.0177334 1.28546e-19)
(-0.012808 0.0144492 1.01275e-19)
(-0.0100471 0.0108963 -1.81607e-21)
(-0.00663909 0.00721189 1.14261e-19)
(-0.00263687 0.0035217 8.86755e-20)
(0.00190229 -5.58242e-05 -4.91296e-20)
(0.00691482 -0.00340805 1.64183e-19)
(0.0123274 -0.00642896 -2.0484e-19)
(0.0180584 -0.00902056 8.1729e-20)
(0.0240421 -0.0110863 1.0489e-19)
(0.030228 -0.0125291 -2.43313e-20)
(0.0363077 -0.0133538 2.44868e-19)
(-0.00296167 0.00686322 8.81741e-20)
(-0.00748873 0.0160398 5.31994e-21)
(-0.0111072 0.0217098 -3.49924e-20)
(-0.0136341 0.0247577 -3.74195e-20)
(-0.0150547 0.0258118 -1.77181e-19)
(-0.0154216 0.0253432 2.61408e-20)
(-0.0147962 0.0237164 7.25709e-20)
(-0.0132434 0.0212159 -3.57863e-20)
(-0.0108287 0.018068 2.96182e-20)
(-0.00761455 0.0144583 -7.94663e-21)
(-0.00366038 0.0105456 -3.88078e-20)
(0.000976816 0.00647167 3.73086e-20)
(0.00624029 0.00236876 -1.59634e-19)
(0.012071 -0.00163513 1.54749e-19)
(0.0184039 -0.00541408 -1.33175e-19)
(0.0251628 -0.00884512 4.16472e-20)
(0.0322609 -0.0118098 9.35245e-20)
(0.0396283 -0.0141856 -1.99919e-20)
(0.0472073 -0.0158456 -6.49058e-20)
(0.0546212 -0.0168005 -5.12314e-20)
(-0.00337685 0.00717671 -1.11524e-19)
(-0.00823209 0.0166529 -8.00509e-21)
(-0.0116914 0.0224458 2.61441e-20)
(-0.013716 0.0254977 6.79441e-20)
(-0.0143817 0.0264756 -9.73934e-20)
(-0.0138054 0.0258761 -8.57762e-20)
(-0.0120996 0.0240784 2.01467e-19)
(-0.00936807 0.021374 -1.1335e-19)
(-0.00570495 0.017991 -7.3301e-20)
(-0.0011933 0.0141144 -1.05237e-19)
(0.00409409 0.00990106 7.00013e-20)
(0.0100925 0.00549144 -2.53208e-21)
(0.0167418 0.00101924 -1.32023e-19)
(0.0239828 -0.00338215 -2.14301e-19)
(0.0317512 -0.00757587 1.64333e-19)
(0.0399703 -0.011422 -1.31973e-19)
(0.0485495 -0.0147789 1.87898e-19)
(0.0574163 -0.0174916 -5.32529e-20)
(0.0665049 -0.0193942 1.08735e-19)
(0.0753538 -0.0205029 -4.35749e-19)
(-0.00376264 0.00736531 -2.30896e-19)
(-0.00884579 0.0169475 1.64535e-19)
(-0.0120066 0.0227369 2.23995e-20)
(-0.0133679 0.0257188 4.59018e-21)
(-0.0131059 0.02659 -1.05243e-19)
(-0.011408 0.0258654 1.56886e-19)
(-0.00844237 0.0239321 1.65804e-20)
(-0.00435605 0.0210821 -3.24347e-20)
(0.000724617 0.0175394 -1.05363e-19)
(0.00669335 0.0134816 1.14509e-19)
(0.0134619 0.00905652 2.90022e-19)
(0.0209566 0.00439629 -6.47697e-20)
(0.0291146 -0.000371429 1.45582e-19)
(0.0378778 -0.00511435 -1.7125e-19)
(0.0471858 -0.00968947 -1.6358e-19)
(0.0569645 -0.013942 9.92879e-20)
(0.0671234 -0.0177053 1.61593e-19)
(0.0775903 -0.0207845 -5.25883e-19)
(0.0882909 -0.0229623 6.31243e-20)
(0.0986609 -0.0242581 9.8072e-20)
(-0.00409498 0.00741627 1.72406e-19)
(-0.00926404 0.0168961 6.43968e-20)
(-0.0119504 0.0225502 3.27442e-19)
(-0.0124556 0.0253895 1.71422e-20)
(-0.0110644 0.0261297 -3.68045e-20)
(-0.00803997 0.0252969 -1.78028e-19)
(-0.00361097 0.0232791 1.53959e-19)
(0.00202845 0.0203632 2.77763e-19)
(0.00871594 0.016763 1.84357e-19)
(0.0163185 0.012642 1.34345e-19)
(0.0247292 0.00813192 1.15882e-19)
(0.0338636 0.00334756 -2.0832e-19)
(0.0436549 -0.00159898 -6.42891e-20)
(0.0540474 -0.00658635 -4.78308e-20)
(0.0649877 -0.0114742 5.12715e-19)
(0.0764096 -0.0160988 -3.37948e-21)
(0.0882279 -0.0202693 -1.26838e-19)
(0.100376 -0.0237437 -3.75959e-20)
(0.112776 -0.0262367 3.64481e-19)
(0.124737 -0.0277645 5.62958e-20)
(-0.00434645 0.0073175 -6.81455e-21)
(-0.00941361 0.0164738 -1.7838e-19)
(-0.011411 0.0218572 -2.69837e-19)
(-0.0108334 0.0244833 -7.6195e-20)
(-0.0080812 0.0250746 4.3494e-20)
(-0.00349727 0.0241607 9.7874e-21)
(0.0026258 0.0221253 2.47351e-19)
(0.010043 0.0192445 -3.09505e-19)
(0.0185522 0.0157172 -1.18663e-19)
(0.0279892 0.0116876 -2.38523e-19)
(0.0382241 0.00726374 -2.02826e-19)
(0.0491577 0.00253426 -1.79708e-19)
(0.0607163 -0.00241609 4.53783e-20)
(0.0728463 -0.00749059 -5.85674e-20)
(0.0855033 -0.012566 2.48532e-19)
(0.098635 -0.0174822 -1.38104e-19)
(0.11217 -0.0220317 -4.25058e-19)
(0.126058 -0.0259203 -8.27234e-20)
(0.140225 -0.0287735 2.08732e-19)
(0.153832 -0.0305907 -2.11578e-19)
(-0.00448657 0.00705841 -2.68578e-20)
(-0.00921514 0.0156601 2.24352e-19)
(-0.0102694 0.0206354 -2.89127e-19)
(-0.00834865 0.0229795 6.73601e-20)
(-0.00397297 0.0234091 -1.39452e-19)
(0.00243274 0.0224502 3.16263e-19)
(0.0105098 0.0204765 -2.26743e-19)
(0.0199597 0.0177504 2.59775e-19)
(0.0305367 0.0144529 -2.49036e-19)
(0.0420411 0.0107054 1.05112e-19)
(0.0543142 0.0065879 -5.22732e-20)
(0.0672353 0.00215451 -1.29796e-19)
(0.0807182 -0.00254937 -1.59202e-19)
(0.0947067 -0.00746877 1.58571e-19)
(0.109166 -0.0125188 -1.32381e-19)
(0.124061 -0.0175665 -2.86283e-19)
(0.139346 -0.0224066 2.98319e-19)
(0.155005 -0.0266974 -3.77759e-19)
(0.170988 -0.02995 1.69247e-19)
(0.186282 -0.0321232 4.28523e-21)
(-0.00448251 0.00663107 -2.64931e-19)
(-0.00858522 0.0144411 -3.07779e-19)
(-0.00840302 0.0188705 3.53378e-20)
(-0.00484617 0.0208658 -3.02627e-19)
(0.00144453 0.0211242 -2.71413e-20)
(0.00996253 0.0201607 -2.25369e-19)
(0.0202829 0.0183352 -5.22486e-20)
(0.0320527 0.0158947 -1.53027e-19)
(0.0449803 0.0130026 5.3199e-22)
(0.0588261 0.00975833 -6.79043e-20)
(0.0733963 0.00621285 3.31976e-21)
(0.0885406 0.00238269 -1.94119e-19)
(0.10415 -0.00173522 2.1121e-19)
(0.120156 -0.00614472 -3.02135e-19)
(0.136525 -0.0108264 1.05137e-19)
(0.153241 -0.0157104 2.62433e-21)
(0.170292 -0.0206344 -1.6688e-19)
(0.187725 -0.0252357 4.09065e-19)
(0.205558 -0.0288946 -9.78939e-20)
(0.222578 -0.031493 -7.37706e-20)
(-0.00430022 0.00603143 3.01437e-19)
(-0.00743937 0.0128122 1.74907e-19)
(-0.00569073 0.0165595 1.63322e-19)
(-0.000175468 0.0181408 2.41238e-20)
(0.00834742 0.0182187 2.27052e-19)
(0.019293 0.0172898 3.27714e-19)
(0.0321727 0.0156974 2.70344e-19)
(0.0465808 0.0136733 2.2341e-20)
(0.0621802 0.0113666 1.97664e-19)
(0.0786895 0.00886007 3.07022e-19)
(0.0958752 0.00618245 -8.0203e-20)
(0.113549 0.00331775 1.34467e-19)
(0.131565 0.000215015 1.09726e-19)
(0.149828 -0.00319759 1.10673e-19)
(0.168288 -0.00699102 6.41043e-19)
(0.186936 -0.0112058 -2.40909e-19)
(0.205792 -0.0157947 -1.44375e-20)
(0.224997 -0.0204534 2.69868e-19)
(0.244723 -0.0244548 -1.52045e-19)
(0.263554 -0.0275518 8.9299e-20)
(-0.00390593 0.00526069 -2.48553e-19)
(-0.00569571 0.0107806 1.93501e-20)
(-0.00201804 0.0137145 -2.15233e-19)
(0.00580191 0.014818 -2.65787e-20)
(0.0168936 0.0147031 1.60671e-19)
(0.0305998 0.0138408 -4.78013e-19)
(0.0463743 0.0125541 3.07609e-21)
(0.0637639 0.0110611 2.23823e-19)
(0.0823902 0.00950182 2.1099e-19)
(0.101933 0.00795257 -9.34465e-20)
(0.12212 0.00643415 3.01066e-20)
(0.142719 0.0049158 7.17357e-20)
(0.163541 0.00331697 -3.43602e-20)
(0.184441 0.00151068 -3.74797e-19)
(0.205329 -0.000667974 9.59601e-20)
(0.226167 -0.00340888 2.55376e-19)
(0.246977 -0.00688103 -3.61931e-19)
(0.268003 -0.0109995 1.7699e-19)
(0.289712 -0.0150245 4.52755e-20)
(0.310584 -0.0185145 2.71567e-19)
(-0.0032679 0.00432645 -3.8509e-20)
(-0.00327894 0.00836813 -1.88934e-19)
(0.00271702 0.0103657 8.57417e-20)
(0.0132048 0.01093 -2.34758e-21)
(0.0272124 0.0106059 -3.87825e-19)
(0.0440197 0.00982928 6.13226e-20)
(0.0630312 0.00889844 -1.06075e-20)
(0.0837554 0.00801736 7.87721e-20)
(0.105782 0.00732226 -3.62469e-19)
(0.128764 0.00689431 -2.32038e-20)
(0.152397 0.00676588 -8.31706e-20)
(0.176418 0.00692151 7.79026e-20)
(0.20059 0.00729358 2.55121e-19)
(0.224714 0.00775465 -3.99919e-20)
(0.248623 0.00810564 1.42473e-20)
(0.272189 0.00804854 1.00476e-19)
(0.295333 0.00717666 -2.40717e-20)
(0.318295 0.00525777 1.8578e-19)
(0.341974 0.00295972 -1.18657e-19)
(0.365126 0.000572585 -2.00035e-19)
(-0.00235818 0.00324345 3.48388e-20)
(-0.000124189 0.0056127 7.91616e-21)
(0.00859878 0.00656513 7.79701e-20)
(0.0221256 0.00653456 1.9103e-19)
(0.0393962 0.00598086 1.06896e-19)
(0.059638 0.00529393 1.07356e-20)
(0.082217 0.00473958 -1.29466e-19)
(0.106615 0.00450351 3.40835e-20)
(0.132406 0.00471788 1.74484e-19)
(0.15923 0.00547404 -2.98045e-19)
(0.186783 0.00683028 2.2567e-19)
(0.214796 0.00881529 -1.69782e-19)
(0.243031 0.0114272 1.43911e-19)
(0.271276 0.0146284 -3.09446e-19)
(0.299334 0.0183296 3.37037e-19)
(0.327005 0.022341 -3.61792e-19)
(0.354072 0.0263336 -9.11224e-20)
(0.380597 0.0301467 2.76722e-19)
(0.407575 0.0344031 -1.00319e-19)
(0.434086 0.0373977 4.28547e-20)
(-0.00115415 0.00203376 -2.74852e-20)
(0.00381995 0.00256953 2.72219e-19)
(0.0156902 0.00238863 -3.37648e-21)
(0.0326266 0.00171839 -1.71114e-19)
(0.0534952 0.000915577 -1.14823e-19)
(0.0774818 0.000310674 2.12939e-19)
(0.103924 0.000125467 -8.52414e-20)
(0.132289 0.000516726 -1.10999e-20)
(0.162148 0.0016023 1.75425e-19)
(0.193153 0.00347356 -2.21819e-19)
(0.225026 0.00620494 2.35653e-20)
(0.257551 0.00986179 -2.8842e-19)
(0.290577 0.0145072 1.51601e-19)
(0.324029 0.0202083 -4.35912e-19)
(0.357948 0.0270352 6.9455e-19)
(0.392545 0.0350429 -1.26143e-19)
(0.428386 0.044291 1.32181e-19)
(0.466872 0.0549547 -3.4938e-19)
(0.510869 0.0664745 5.01171e-21)
(0.564887 0.0730564 4.90098e-19)
(0.000360617 0.000726145 -8.51804e-20)
(0.00858966 -0.000689685 7.7583e-20)
(0.0240314 -0.00206326 -2.83248e-19)
(0.0447382 -0.00339919 4.21768e-19)
(0.069517 -0.00446131 -3.062e-19)
(0.0975209 -0.00499322 1.52567e-20)
(0.128067 -0.00483155 -3.31032e-19)
(0.160612 -0.00386417 2.38098e-19)
(0.19473 -0.00200661 -3.55498e-20)
(0.230092 0.000807102 -2.11871e-19)
(0.266452 0.0046309 -1.22601e-19)
(0.30365 0.0095106 1.29765e-19)
(0.341618 0.0154841 8.6367e-20)
(0.380405 0.0225744 -3.87579e-19)
(0.420217 0.0307655 1.41528e-19)
(0.461483 0.0399551 -2.07784e-19)
(0.505005 0.0499219 2.27478e-20)
(0.552157 0.0602062 -1.82401e-19)
(0.604571 0.0689837 8.36309e-20)
(0.662915 0.0708701 -3.36809e-19)
(0.00219606 -0.000645027 2.39933e-19)
(0.0142056 -0.0040787 -1.52873e-19)
(0.0336398 -0.00666699 1.26719e-19)
(0.0584619 -0.00866667 -1.60217e-19)
(0.087433 -0.00997775 2.73189e-19)
(0.11968 -0.0104319 -5.89668e-21)
(0.154503 -0.00993827 -3.33704e-20)
(0.191347 -0.00844497 -2.483e-20)
(0.229787 -0.00591919 1.53322e-19)
(0.269499 -0.00234312 2.60217e-19)
(0.310252 0.00228749 -1.56622e-19)
(0.351904 0.00796139 1.50933e-19)
(0.394412 0.0146443 2.77229e-19)
(0.437839 0.0222615 -1.97331e-19)
(0.482375 0.0306638 -4.03067e-19)
(0.528363 0.0395767 7.41453e-19)
(0.576352 0.0485651 -1.34376e-19)
(0.627111 0.056903 -4.50889e-20)
(0.681117 0.0627722 4.87365e-19)
(0.737639 0.0625757 -1.24958e-19)
(0.00435612 -0.00204159 -3.9523e-19)
(0.0206739 -0.00750027 -2.80098e-19)
(0.0445127 -0.0112803 -1.07598e-19)
(0.0737742 -0.013905 2.08408e-19)
(0.107186 -0.0154233 -4.72286e-19)
(0.143855 -0.0157665 2.43982e-19)
(0.18306 -0.014928 3.08898e-20)
(0.224238 -0.0129276 2.99468e-20)
(0.266948 -0.00979641 -3.2486e-19)
(0.31086 -0.00557759 -1.15946e-19)
(0.35573 -0.000328838 -2.04083e-19)
(0.401401 0.00587186 1.9727e-19)
(0.447796 0.0129157 5.59969e-20)
(0.494921 0.020645 9.62925e-21)
(0.542855 0.0288236 2.62775e-19)
(0.591753 0.0371033 -2.67957e-19)
(0.641848 0.0450126 -1.1481e-20)
(0.693403 0.0518719 5.76197e-21)
(0.746276 0.0562303 3.63305e-20)
(0.799514 0.0557413 2.61792e-19)
(0.00683969 -0.00342342 1.27324e-19)
(0.027988 -0.0108503 3.4769e-19)
(0.0566297 -0.015748 2.793e-19)
(0.0906312 -0.0189157 -9.61799e-20)
(0.128698 -0.0205601 3.34329e-19)
(0.16992 -0.020721 -2.87969e-20)
(0.213559 -0.0194837 -4.03038e-20)
(0.259031 -0.0169469 2.40125e-20)
(0.305879 -0.0132114 3.30046e-19)
(0.353748 -0.0083848 1.93932e-19)
(0.402368 -0.0025867 5.65562e-20)
(0.451541 0.00404446 3.51187e-21)
(0.501134 0.0113417 -3.8242e-19)
(0.551066 0.0190954 3.3426e-19)
(0.601298 0.0270338 5.81533e-20)
(0.651815 0.0348075 -9.58875e-20)
(0.702624 0.042 -4.21075e-19)
(0.7537 0.0480709 -3.66553e-20)
(0.804655 0.05191 1.7023e-19)
(0.854639 0.0519493 -3.95377e-20)
(0.00964166 -0.00475018 -3.22369e-19)
(0.0361306 -0.0140222 1.43614e-19)
(0.0699553 -0.0199091 -7.0178e-19)
(0.108972 -0.0234904 2.87861e-19)
(0.151874 -0.0251365 -2.31352e-19)
(0.197738 -0.0250013 1.71671e-19)
(0.245811 -0.0232665 -2.66781e-19)
(0.295488 -0.0201128 2.53033e-20)
(0.346286 -0.0157114 -1.32882e-20)
(0.397824 -0.0102323 7.19366e-20)
(0.449792 -0.00385056 1.04612e-19)
(0.501949 0.00324682 -2.00258e-19)
(0.554099 0.0108539 1.0618e-19)
(0.606087 0.0187364 9.82582e-20)
(0.657774 0.0266211 4.27757e-19)
(0.709031 0.0341928 -1.87228e-19)
(0.759729 0.0411152 -1.25929e-19)
(0.809704 0.0469829 2.13552e-19)
(0.858496 0.0509325 1.1687e-19)
(0.905416 0.0519044 -2.71721e-19)
(0.012754 -0.00598256 2.83753e-19)
(0.0450753 -0.0169104 2.90276e-19)
(0.0844406 -0.0236027 8.42964e-20)
(0.128718 -0.0274202 3.55161e-19)
(0.176602 -0.0289006 1.73224e-19)
(0.227162 -0.0283146 -3.17374e-19)
(0.279628 -0.0259423 4.8169e-19)
(0.333377 -0.0220464 -2.39176e-19)
(0.387904 -0.0168669 2.38672e-19)
(0.442795 -0.0106314 3.09477e-19)
(0.497708 -0.00356281 -1.78205e-19)
(0.552358 0.00411501 3.41243e-20)
(0.606502 0.0121719 1.90636e-19)
(0.659925 0.0203662 1.34998e-19)
(0.712426 0.0284396 3.13054e-19)
(0.763806 0.0361202 -1.26154e-19)
(0.813871 0.0431468 -1.55708e-20)
(0.862396 0.0492181 2.02342e-19)
(0.908923 0.0536458 -4.3499e-20)
(0.952904 0.0557265 9.92438e-22)
(0.0161663 -0.00708308 -1.47688e-19)
(0.0547881 -0.0194134 -5.71868e-19)
(0.100024 -0.0266735 1.34915e-19)
(0.149777 -0.0305044 -1.03892e-19)
(0.202755 -0.031612 -2.38665e-19)
(0.258025 -0.0303851 -1.69853e-19)
(0.314808 -0.0272021 -1.04759e-19)
(0.372466 -0.0224065 2.59817e-19)
(0.430473 -0.0163037 -1.55286e-19)
(0.488391 -0.00917421 -1.5957e-19)
(0.545851 -0.00128171 -2.02404e-19)
(0.602537 0.00712147 -3.37004e-20)
(0.658172 0.0157904 -2.33901e-20)
(0.712508 0.0244845 -4.75127e-19)
(0.76531 0.0329648 2.31604e-19)
(0.816349 0.0410003 -3.07106e-19)
(0.865407 0.0483895 9.70509e-20)
(0.912242 0.0549062 -7.44747e-19)
(0.95643 0.0599927 2.25636e-19)
(0.997537 0.0632087 3.44319e-19)
(0.0198661 -0.00801646 -3.62248e-20)
(0.0652272 -0.0214354 2.78985e-19)
(0.116632 -0.0289758 1.84587e-20)
(0.172042 -0.0325565 4.31839e-20)
(0.230188 -0.0330508 -8.82e-20)
(0.290145 -0.0309655 -1.83763e-21)
(0.351134 -0.0267761 -1.57618e-21)
(0.412506 -0.0209046 -5.28814e-20)
(0.473723 -0.0137188 1.92786e-19)
(0.534331 -0.00554743 7.49912e-20)
(0.593946 0.0033105 3.40522e-19)
(0.652234 0.01258 -9.40262e-20)
(0.708905 0.0220065 6.556e-20)
(0.763696 0.0313537 -8.46129e-21)
(0.816364 0.0404014 1.83918e-19)
(0.86668 0.0489526 1.13232e-19)
(0.914426 0.0568507 2.74561e-19)
(0.959373 0.0639237 -4.4684e-19)
(1.00115 0.0697179 5.66241e-19)
(1.0394 0.0739927 -2.17198e-19)
(0.023839 -0.00874961 -3.37465e-19)
(0.0763436 -0.0228873 -1.10718e-19)
(0.134179 -0.030376 8.94212e-20)
(0.195386 -0.0334081 5.66002e-20)
(0.258736 -0.0330229 5.83116e-20)
(0.32332 -0.0298436 5.77855e-20)
(0.388367 -0.024441 -1.48453e-19)
(0.453228 -0.0173128 -6.03393e-20)
(0.517364 -0.00888594 1.99145e-20)
(0.580315 0.000466808 -1.83559e-19)
(0.641695 0.0104152 -8.30471e-20)
(0.701168 0.0206657 5.07663e-19)
(0.758447 0.0309571 -1.32194e-19)
(0.813275 0.0410582 -1.82881e-19)
(0.865424 0.0507657 -8.71569e-20)
(0.91468 0.0599099 6.10014e-20)
(0.96085 0.068368 7.45364e-20)
(1.00373 0.0760087 -3.59832e-19)
(1.04301 0.0824662 5.23715e-19)
(1.07842 0.0876523 -5.47703e-19)
(0.028068 -0.00925157 -3.72571e-20)
(0.0880801 -0.0236875 1.12008e-20)
(0.152564 -0.030754 -1.46564e-20)
(0.219667 -0.0329118 2.16833e-19)
(0.288213 -0.0313634 1.21404e-20)
(0.357324 -0.0268461 8.00581e-20)
(0.426245 -0.020023 -1.69707e-19)
(0.494342 -0.0114648 -5.89176e-21)
(0.561083 -0.00165332 2.3798e-19)
(0.626018 0.00899798 3.31036e-20)
(0.688771 0.0201317 -2.10005e-19)
(0.749023 0.0314389 -1.85619e-20)
(0.806503 0.0426544 -1.74473e-19)
(0.86098 0.0535526 1.75555e-19)
(0.912255 0.0639456 2.44975e-19)
(0.960149 0.0736864 -2.72141e-20)
(1.00451 0.082679 -3.31802e-20)
(1.04516 0.0908245 1.01958e-19)
(1.08187 0.0978359 -3.29134e-19)
(1.11443 0.103738 3.50175e-19)
(0.032533 -0.00949336 3.76248e-20)
(0.100371 -0.0237617 -2.59831e-19)
(0.171675 -0.0300041 7.11819e-20)
(0.244724 -0.0309425 -2.17158e-19)
(0.318414 -0.0279382 7.6241e-20)
(0.391909 -0.0218394 -2.80845e-19)
(0.464485 -0.013398 1.14369e-19)
(0.535534 -0.00325327 -3.71506e-20)
(0.604544 0.00806163 -1.52321e-21)
(0.671092 0.0200972 3.79542e-20)
(0.734826 0.0324728 -1.39387e-19)
(0.795457 0.044868 -2.00646e-19)
(0.852749 0.0570159 -4.1363e-20)
(0.906511 0.0686984 -1.87279e-20)
(0.956586 0.0797427 -4.79425e-20)
(1.00284 0.0900225 -1.57112e-20)
(1.04518 0.0994645 -4.73148e-20)
(1.08347 0.107998 -4.12419e-20)
(1.11755 0.115409 -1.23017e-19)
(1.14726 0.121805 2.30335e-19)
(0.0372104 -0.00944802 9.01066e-20)
(0.11314 -0.0230435 -1.05603e-19)
(0.191384 -0.0280357 2.27439e-19)
(0.27038 -0.0273978 -9.98904e-20)
(0.349114 -0.0226443 2.68348e-19)
(0.426806 -0.0147295 4.9404e-21)
(0.502782 -0.00448916 1.3632e-19)
(0.576469 0.00737347 -3.76338e-20)
(0.647396 0.0202793 1.55192e-19)
(0.715176 0.0337478 1.09618e-20)
(0.779498 0.04738 3.7621e-19)
(0.840119 0.0608484 -2.62167e-19)
(0.896852 0.0738882 3.56933e-20)
(0.949558 0.0862916 6.86926e-20)
(0.998136 0.097902 3.61748e-19)
(1.04251 0.108614 -1.31013e-19)
(1.08264 0.118376 -2.6054e-20)
(1.11846 0.127145 -1.38229e-19)
(1.14987 0.134774 -1.42972e-20)
(1.17677 0.141425 8.22279e-20)
(0.0420726 -0.0090907 -4.10192e-20)
(0.126302 -0.0214746 1.29152e-19)
(0.211549 -0.0247734 -1.33987e-19)
(0.296439 -0.0221985 5.25076e-20)
(0.380068 -0.0154093 -6.48948e-20)
(0.461732 -0.00546024 2.37605e-19)
(0.540815 0.00673526 -3.43725e-20)
(0.616804 0.0204167 8.22504e-20)
(0.689276 0.0349652 -4.98487e-20)
(0.757901 0.0498755 -1.77404e-21)
(0.822423 0.0647365 5.74588e-20)
(0.882658 0.0792191 -4.52928e-20)
(0.938482 0.0930658 1.18437e-19)
(0.989819 0.106083 -5.96653e-20)
(1.03664 0.118133 -2.64541e-19)
(1.07893 0.129133 2.64875e-19)
(1.1167 0.139054 -1.19776e-19)
(1.14997 0.147881 9.62328e-20)
(1.1787 0.155531 1.67046e-19)
(1.20284 0.1622 8.09584e-20)
(0.0470874 -0.00839904 1.02561e-19)
(0.139762 -0.0190056 -2.26323e-19)
(0.232013 -0.0201582 4.24828e-20)
(0.32269 -0.0152889 -3.18219e-20)
(0.411018 -0.00619153 -1.30922e-19)
(0.496385 0.00598746 -1.02899e-19)
(0.578255 0.0202651 -2.08486e-20)
(0.656184 0.0358317 -1.8791e-19)
(0.729821 0.0520365 -1.20521e-20)
(0.798903 0.0683573 -3.59106e-20)
(0.863246 0.0843783 -9.85465e-20)
(0.922738 0.0997757 -2.20856e-20)
(0.977329 0.114305 -7.71023e-20)
(1.02702 0.127793 -1.30099e-19)
(1.07185 0.140124 1.34348e-19)
(1.11188 0.151243 1.84541e-20)
(1.14719 0.161142 3.68636e-20)
(1.17787 0.169838 -1.57396e-19)
(1.20393 0.177308 -4.40672e-21)
(1.22539 0.183764 -2.85107e-19)
(0.0522181 -0.00735357 1.0923e-19)
(0.153412 -0.0155969 7.78441e-20)
(0.252609 -0.0141478 -1.27553e-19)
(0.34891 -0.00663692 2.0083e-19)
(0.441693 0.00502085 -2.26902e-20)
(0.530456 0.0195976 7.65597e-20)
(0.614763 0.0360512 2.70674e-20)
(0.694256 0.0535324 9.69504e-20)
(0.768671 0.0713685 -7.70317e-20)
(0.837828 0.0890296 2.62945e-20)
(0.901629 0.106104 -2.53578e-20)
(0.960045 0.122281 -1.12222e-20)
(1.01311 0.137337 2.18711e-20)
(1.06091 0.151124 -4.06759e-20)
(1.10356 0.163557 -1.262e-20)
(1.14121 0.174606 -3.88014e-20)
(1.17399 0.184293 -6.33395e-20)
(1.20207 0.192666 4.12709e-20)
(1.22552 0.199761 -5.60913e-20)
(1.24441 0.20579 2.84727e-19)
(0.0574235 -0.00593831 -5.31734e-20)
(0.167137 -0.0112195 -1.61667e-19)
(0.273155 -0.00671793 -2.07134e-20)
(0.374862 0.00376495 -6.82859e-21)
(0.471811 0.0182098 -7.4775e-20)
(0.563633 0.0353204 -1.24924e-19)
(0.650004 0.0540078 4.14887e-20)
(0.730675 0.0733953 -5.79475e-20)
(0.805481 0.0927998 -6.59991e-20)
(0.874343 0.111694 3.76261e-20)
(0.937259 0.129682 -2.8779e-20)
(0.994297 0.146474 -5.942e-20)
(1.04558 0.161876 -2.21523e-21)
(1.09129 0.175771 4.129e-20)
(1.13162 0.188109 -4.25754e-20)
(1.16679 0.198894 5.96276e-20)
(1.19703 0.208177 1.62922e-20)
(1.22253 0.21604 4.08618e-20)
(1.24346 0.222575 7.92215e-20)
(1.25991 0.227983 -7.90419e-20)
(0.0626583 -0.00414138 4.97176e-20)
(0.180812 -0.00585661 -3.85611e-21)
(0.293462 0.00213695 2.49183e-20)
(0.400302 0.0158995 -3.32486e-20)
(0.501089 0.0333279 3.49845e-21)
(0.5956 0.0530734 1.19645e-19)
(0.683648 0.0740151 -7.93584e-20)
(0.765105 0.0952633 3.48235e-20)
(0.839925 0.116138 3.15539e-20)
(0.90814 0.136126 -8.88984e-20)
(0.969858 0.154858 8.53069e-20)
(1.02525 0.172077 9.93043e-22)
(1.07454 0.187625 -6.21344e-20)
(1.118 0.201426 7.57474e-20)
(1.15591 0.213467 -3.03086e-20)
(1.18857 0.223792 2.3365e-20)
(1.21626 0.232485 -2.64497e-20)
(1.23926 0.239661 -1.07383e-20)
(1.25778 0.245469 -9.22726e-20)
(1.27195 0.250088 3.28103e-20)
(0.0678732 -0.00195557 -1.58316e-20)
(0.194307 0.000495836 4.71884e-20)
(0.313331 0.0124023 7.7126e-21)
(0.424984 0.0297241 3.14093e-20)
(0.52924 0.0502986 1.54826e-20)
(0.626049 0.0727429 7.39845e-21)
(0.715375 0.095922 4.24326e-20)
(0.797232 0.118949 -4.99172e-21)
(0.871702 0.141162 1.97535e-20)
(0.938943 0.162077 3.22404e-20)
(0.99918 0.181361 1.59758e-20)
(1.0527 0.198801 1.17093e-20)
(1.09983 0.214285 4.80294e-20)
(1.14092 0.227782 -4.68313e-20)
(1.17636 0.239327 1.01869e-20)
(1.20651 0.249003 -9.55925e-21)
(1.23171 0.256928 1.50116e-20)
(1.25231 0.263258 1.26397e-20)
(1.26856 0.268192 2.62438e-20)
(1.28063 0.27188 1.23951e-21)
(0.073016 0.000621025 9.62191e-21)
(0.207483 0.00782764 9.11561e-21)
(0.332562 0.0240428 -1.28008e-20)
(0.448656 0.0451706 8.12119e-21)
(0.555983 0.0690166 4.71996e-21)
(0.654682 0.0941858 -1.50067e-20)
(0.744886 0.119549 5.09256e-21)
(0.826763 0.14424 1.01497e-21)
(0.90054 0.16763 9.21595e-21)
(0.96651 0.189281 -2.54488e-20)
(1.02502 0.208908 -1.5411e-22)
(1.07648 0.226352 7.35982e-21)
(1.12132 0.241557 -5.91655e-21)
(1.15999 0.254545 6.12352e-21)
(1.19294 0.265399 1.61596e-20)
(1.22062 0.274246 -9.24511e-21)
(1.24343 0.281245 2.62601e-21)
(1.26176 0.286587 1.02041e-20)
(1.2759 0.290521 -1.68482e-20)
(1.28608 0.293165 9.44247e-21)
(0.0780326 0.0035846 2.48457e-20)
(0.220203 0.0161138 -1.46764e-20)
(0.350953 0.0370018 1.75429e-20)
(0.471075 0.0621452 -1.3283e-20)
(0.581046 0.0893492 -6.15466e-21)
(0.681216 0.117231 1.92978e-21)
(0.771899 0.144689 -6.38746e-21)
(0.853434 0.170898 2.35212e-20)
(0.926202 0.195282 -2.0227e-20)
(0.990639 0.217459 4.90833e-21)
(1.04723 0.237209 -3.65464e-21)
(1.09648 0.254437 -2.48677e-20)
(1.13895 0.269149 2.4509e-20)
(1.17516 0.281426 9.49238e-21)
(1.20566 0.291407 -9.54662e-21)
(1.23096 0.299264 2.25606e-20)
(1.2515 0.305195 -3.67992e-22)
(1.26772 0.30943 -2.20332e-20)
(1.27994 0.312263 1.63307e-20)
(1.28843 0.313777 5.82729e-21)
(0.0828672 0.00692533 -8.92742e-21)
(0.232324 0.0253142 2.6055e-20)
(0.368302 0.0512014 3.08423e-20)
(0.491999 0.0805292 -1.51331e-20)
(0.604171 0.111137 2.65203e-20)
(0.705387 0.141682 4.38238e-20)
(0.796163 0.171113 -2.66206e-21)
(0.877015 0.198668 -8.44122e-21)
(0.948488 0.223841 4.0998e-20)
(1.01117 0.246324 2.06485e-20)
(1.06567 0.265971 -4.01039e-21)
(1.11262 0.282763 3.23526e-20)
(1.15268 0.296776 -3.57039e-20)
(1.18647 0.308154 5.59256e-20)
(1.21459 0.317094 -9.47004e-21)
(1.23761 0.323818 2.72388e-20)
(1.25604 0.328561 4.86109e-21)
(1.27032 0.331592 1.95687e-20)
(1.28083 0.333248 -1.87535e-20)
(1.28783 0.333571 5.14794e-21)
(0.0874626 0.0106269 -1.31296e-20)
(0.243707 0.0353727 3.16132e-20)
(0.384415 0.0665418 2.3666e-20)
(0.511202 0.100179 -3.7531e-21)
(0.625113 0.134196 4.02065e-20)
(0.726955 0.167317 -3.27047e-20)
(0.817451 0.198571 -3.32629e-21)
(0.897307 0.227279 2.94114e-20)
(0.967236 0.253021 9.09934e-21)
(1.02797 0.275582 1.42399e-20)