/*--------------------------------*- C++ -*----------------------------------*\
  =========                 |
  \\      /  F ield         | OpenFOAM: The Open Source CFD Toolbox
   \\    /   O peration     | Website:  https://openfoam.org
    \\  /    A nd           | Version:  6.0
     \\/     M anipulation  |
\*---------------------------------------------------------------------------*/
FoamFile
{
    version     2.0;
    format      ascii;
    class       surfaceScalarField;
    location    "7";
    object      phi;
}
// * * * * * * * * * * * * * * * * * * * * * * * * * * * * * * * * * * * * * //

dimensions      [0 3 -1 0 0 0 0];

internalField   nonuniform List<scalar> 
93586
(
2.34742e-05
0.00154653
7.56007e-08
4.73349e-05
0.00154179
7.13185e-05
0.00153287
9.5231e-05
0.00151986
0.000118916
0.00150282
0.000142277
0.00148181
0.000165235
0.00145687
0.000187749
0.00142799
0.000209771
0.00139517
0.000231269
0.00135841
0.000252181
0.00131774
0.000272459
0.00127325
0.000292027
0.00122508
0.000310827
0.00117342
0.000328785
0.00111847
0.000345846
0.00106043
0.00036195
0.000999532
0.000377053
0.000935954
0.000391104
0.000869895
0.000404068
0.000801527
0.000415906
0.000731033
0.000426588
0.000658577
0.000436084
0.000584339
0.000444368
0.000508482
0.000451417
0.000431173
0.000457215
0.000352571
0.000461714
0.000272782
0.000465168
0.000191731
0.000466976
0.000109684
2.65776e-05
0.000461584
2.31943e-05
0.00152332
1.36633e-08
4.66827e-05
0.00151831
7.02586e-05
0.00150931
9.37352e-05
0.00149641
0.000116974
0.00147961
0.000139897
0.00145893
0.000162444
0.00143436
0.000184587
0.0014059
0.000206278
0.00137353
0.000227481
0.00133726
0.000248124
0.00129715
0.000268152
0.00125328
0.000287481
0.00120581
0.000306047
0.00115492
0.000323774
0.0011008
0.00034061
0.00104367
0.000356491
0.000983716
0.000371379
0.000921136
0.000385223
0.000856116
0.000397994
0.000788827
0.000409651
0.000719443
0.00042017
0.000648131
0.000429518
0.000575063
0.000437674
0.000500403
0.000444613
0.000424316
0.000450323
0.000346948
0.000454736
0.000268469
0.000457941
0.000188635
0.000459751
0.000108001
2.82114e-05
0.000458306
2.2809e-05
0.00150055
-3.21972e-08
4.58556e-05
0.00149527
6.89888e-05
0.00148618
9.20354e-05
0.00147337
0.00011487
0.00145678
0.000137424
0.00143639
0.000159642
0.00141215
0.000181489
0.00138407
0.000202911
0.00135211
0.000223861
0.00131633
0.00024426
0.00127676
0.000264047
0.00123351
0.000283134
0.00118673
0.000301458
0.0011366
0.000318944
0.00108332
0.000335541
0.00102708
0.000351189
0.000968065
0.000365853
0.000906473
0.000379484
0.000842478
0.000392054
0.000776251
0.000403526
0.000707961
0.000413874
0.000637771
0.00042307
0.000565852
0.000431091
0.000492365
0.000437911
0.000417472
0.000443515
0.000341317
0.000447855
0.000264096
0.000450844
0.000185603
0.000452613
0.00010618
2.81817e-05
0.000452508
2.24009e-05
0.00147821
-5.5063e-08
4.50163e-05
0.00147266
6.77308e-05
0.00146347
9.03826e-05
0.00145073
0.000112854
0.00143432
0.000135079
0.00141418
0.000156998
0.00139025
0.000178568
0.00136253
0.000199728
0.00133098
0.000220424
0.00129567
0.00024057
0.00125664
0.000260101
0.00121402
0.000278932
0.00116794
0.000297
0.00111858
0.000314232
0.00106612
0.000330581
0.00101077
0.00034599
0.000952696
0.000360423
0.000892084
0.000373837
0.000829107
0.000386203
0.000763931
0.000397487
0.000696723
0.000407663
0.000627645
0.000416703
0.000556863
0.000424584
0.000484539
0.000431281
0.000410834
0.000436771
0.000335891
0.000441023
0.000259917
0.000443915
0.000182789
0.000445526
0.000104657
2.8203e-05
0.00044563
2.20067e-05
0.00145627
-6.34953e-08
4.42217e-05
0.00145045
6.65495e-05
0.00144114
8.88364e-05
0.00142845
0.00011097
0.00141219
0.000132882
0.00139228
0.000154509
0.00136862
0.000175803
0.00134124
0.000196693
0.00131009
0.000217122
0.00127524
0.000236999
0.00123676
0.000256262
0.00119475
0.000274824
0.00114937
0.000292626
0.00110077
0.000309597
0.00104914
0.000325693
0.000994666
0.000340858
0.000937517
0.00035506
0.00087787
0.000368256
0.000815894
0.000380419
0.000751752
0.000391514
0.000685607
0.000401519
0.000617619
0.000410403
0.000547954
0.000418145
0.00047677
0.000424718
0.000404229
0.000430097
0.000330474
0.000434258
0.000255713
0.000437093
0.000179898
0.000438624
0.000103062
2.7913e-05
0.000438773
2.16304e-05
0.00143471
-6.58119e-08
4.34722e-05
0.00142861
6.5439e-05
0.00141919
8.73829e-05
0.00140652
0.000109194
0.00139039
0.000130802
0.00137069
0.00015214
0.0013473
0.000173151
0.00132025
0.000193764
0.00128949
0.000213914
0.00125512
0.000233514
0.00121718
0.000252498
0.0011758
0.000270783
0.00113111
0.000288313
0.00108327
0.000305019
0.00103246
0.00032086
0.000978858
0.000335781
0.000922625
0.000349753
0.000863934
0.000362732
0.000802948
0.000374694
0.000739828
0.000385604
0.000674734
0.000395439
0.000607825
0.00040417
0.000539264
0.000411775
0.000469211
0.000418229
0.000397825
0.000423503
0.000325253
0.000427578
0.000251701
0.000430365
0.000177174
0.000431859
0.000101641
2.78265e-05
0.000432046
2.12716e-05
0.00141351
-6.90572e-08
4.27629e-05
0.00140712
6.43893e-05
0.00139756
8.60066e-05
0.0013849
0.000107506
0.00136889
0.000128815
0.00134938
0.000149862
0.00132625
0.000170588
0.00129952
0.000190915
0.00126916
0.000210779
0.00123525
0.000230092
0.00119786
0.000248791
0.00115709
0.000266795
0.00111309
0.00028405
0.00106601
0.000300491
0.00101601
0.000316076
0.000963262
0.000330755
0.000907929
0.000344499
0.000850176
0.000357264
0.000790162
0.000369028
0.000728046
0.000379756
0.000663983
0.000389425
0.000598132
0.000398007
0.000530655
0.00040548
0.000461709
0.000411817
0.000391452
0.000416993
0.000320038
0.000420987
0.000247662
0.000423728
0.000174375
0.000425204
0.0001001
2.74764e-05
0.000425421
2.09289e-05
0.00139264
-5.76895e-08
4.2089e-05
0.00138597
6.33913e-05
0.00137626
8.4694e-05
0.00136361
0.000105889
0.0013477
0.000126901
0.00132838
0.000147656
0.00130551
0.000168091
0.00127911
0.000188127
0.00124914
0.000207699
0.0012157
0.000226721
0.00117886
0.000245131
0.00113871
0.000262851
0.00109539
0.000279831
0.00104906
0.000296006
0.000999858
0.000311339
0.000947957
0.000325779
0.000893515
0.000339297
0.000836689
0.000351853
0.000777635
0.000363422
0.000716509
0.000373972
0.000653466
0.00038348
0.000588661
0.000391916
0.000522255
0.00039926
0.000454406
0.000405487
0.000385271
0.000410568
0.000315004
0.000414487
0.0002438
0.000417184
0.000171735
0.000418646
9.87031e-05
2.73184e-05
0.000418892
2.06006e-05
0.00137208
-3.89091e-08
4.14447e-05
0.00136512
6.24352e-05
0.00135527
8.34322e-05
0.00134261
0.000104327
0.00132681
0.000125043
0.00130767
0.000145504
0.00128504
0.000165644
0.00125897
0.000185385
0.00122939
0.000204661
0.00119642
0.000223389
0.00116012
0.000241509
0.00112058
0.000258947
0.00107794
0.000275652
0.00103234
0.000291565
0.00098393
0.000306648
0.000932863
0.000320852
0.000879293
0.000334149
0.000823376
0.0003465
0.000765264
0.000357879
0.00070511
0.000368255
0.000643066
0.000377605
0.000579287
0.0003859
0.000513932
0.00039312
0.000447156
0.000399238
0.000379117
0.00040423
0.000309971
0.000408078
0.000239908
0.000410733
0.000169022
0.000412185
9.71873e-05
2.69273e-05
0.000412452
2.02843e-05
0.00135182
-2.05621e-08
4.08239e-05
0.00134459
6.15116e-05
0.00133459
8.22085e-05
0.00132192
0.000102807
0.00130622
0.000123227
0.00128726
0.000143392
0.00126489
0.000163235
0.00123914
0.000182679
0.00120996
0.000201657
0.00117746
0.000220091
0.0011417
0.000237921
0.00110277
0.000255078
0.0010608
0.000271512
0.00101593
0.000287166
0.000968297
0.000302003
0.000918051
0.000315976
0.000865343
0.000329056
0.000810323
0.000341206
0.00075314
0.0003524
0.000693946
0.000362606
0.00063289
0.000371802
0.000570124
0.000379961
0.000505808
0.000387059
0.000440095
0.000393074
0.000373144
0.000397981
0.000305109
0.000401762
0.000236178
0.000404376
0.000166459
0.000405818
9.58052e-05
2.67221e-05
0.000406104
1.99779e-05
0.00133185
-5.37986e-09
4.02212e-05
0.00132434
6.06123e-05
0.0013142
8.10132e-05
0.00130152
0.000101316
0.00128591
0.00012144
0.00126714
0.000141309
0.00124502
0.000160854
0.0012196
0.000179999
0.0011908
0.000198681
0.00115878
0.000216822
0.00112355
0.000234365
0.00108522
0.000251244
0.00104391
0.000267411
0.000999754
0.00028281
0.000952882
0.000297406
0.000903443
0.000311153
0.000851579
0.000324021
0.000797438
0.000335974
0.000741167
0.000346987
0.000682913
0.000357028
0.000622825
0.000366075
0.000561053
0.0003741
0.000497755
0.000381081
0.000433084
0.000386996
0.000367194
0.00039182
0.000300245
0.000395538
0.000232417
0.000398113
0.000163827
0.000399546
9.43123e-05
2.63086e-05
0.000399843
1.96792e-05
0.00131216
9.66283e-09
3.96321e-05
0.0013044
5.97308e-05
0.00129411
7.98382e-05
0.00128142
9.98471e-05
0.00126591
0.000119676
0.00124732
0.000139248
0.00122545
0.000158495
0.00120036
0.000177343
0.00117197
0.00019573
0.00114041
0.00021358
0.00110571
0.000230841
0.00106798
0.000247446
0.00102732
0.00026335
0.00098387
0.0002785
0.000937751
0.000292859
0.000889106
0.000306384
0.000838075
0.000319045
0.000784802
0.000330806
0.000729429
0.000341643
0.000672104
0.000351522
0.000612973
0.000360423
0.000552183
0.000368318
0.000489892
0.000375186
0.000426251
0.000381004
0.000361415
0.000385749
0.00029554
0.000389406
0.000228808
0.000391944
0.000161335
0.000393365
9.29474e-05
2.60752e-05
0.000393673
1.93865e-05
0.00129275
2.30092e-08
3.90531e-05
0.00128473
5.88624e-05
0.00127429
7.86783e-05
0.00126161
9.83941e-05
0.00124619
0.000117928
0.00122778
0.000137204
0.00120617
0.000156155
0.00118141
0.000174708
0.00115341
0.000192802
0.00112231
0.000210366
0.00108814
0.000227348
0.00105099
0.000243684
0.00101098
0.000259331
0.000968213
0.000274236
0.000922831
0.000288364
0.000874965
0.000301672
0.00082475
0.000314131
0.000772327
0.000325704
0.000717835
0.000336368
0.000661421
0.00034609
0.000603227
0.000354849
0.0005434
0.000362618
0.000482095
0.000369375
0.000419463
0.000375099
0.000355657
0.000379767
0.000290832
0.000383367
0.000225166
0.000385869
0.000158777
0.000387278
9.14806e-05
2.56518e-05
0.000387591
1.90987e-05
0.00127363
3.16747e-08
3.84817e-05
0.00126535
5.80037e-05
0.00125478
7.75295e-05
0.00124209
9.69536e-05
0.00122678
0.000116194
0.00120855
0.000135176
0.0011872
0.000153832
0.00116277
0.000172093
0.00113516
0.000189899
0.00110452
0.000207181
0.00107087
0.000223888
0.0010343
0.000239961
0.000994918
0.000255355
0.000952838
0.00027002
0.000908183
0.000283922
0.000861084
0.000297018
0.000811673
0.000309279
0.000760088
0.00032067
0.000706467
0.000331164
0.000650952
0.000340733
0.000593684
0.000349353
0.000534808
0.000356999
0.00047448
0.000363648
0.000412847
0.000369281
0.00035006
0.000373875
0.000286276
0.000377419
0.000221668
0.000379886
0.000156353
0.000381281
9.01376e-05
2.54022e-05
0.000381601
1.88148e-05
0.00125477
3.68749e-08
3.79163e-05
0.00124625
5.71527e-05
0.00123554
7.63901e-05
0.00122285
9.55237e-05
0.00120764
0.000114472
0.0011896
0.000133162
0.00116851
0.000151527
0.0011444
0.0001695
0.00111718
0.000187021
0.00108699
0.000204026
0.00105385
0.000220464
0.00101785
0.000236278
0.000979092
0.000251425
0.00093768
0.000265856
0.000893737
0.000279537
0.00084739
0.000292425
0.000798768
0.000304492
0.000748005
0.000315704
0.000695236
0.000326033
0.000640602
0.000335452
0.000584242
0.000343936
0.0005263
0.000351462
0.000466927
0.000358006
0.000406272
0.000363551
0.000344483
0.000368073
0.000281714
0.000371562
0.000218137
0.000373994
0.000153866
0.000375376
8.87003e-05
2.49763e-05
0.000375697
1.85342e-05
0.0012362
4.03503e-08
3.73559e-05
0.00122743
5.63083e-05
0.00121659
7.52587e-05
0.00120391
9.41039e-05
0.0011888
0.000112763
0.00117095
0.000131163
0.00115011
0.00014924
0.00112633
0.000166928
0.0010995
0.00018417
0.00106976
0.000200903
0.00103713
0.000217077
0.0010017
0.000232638
0.000963546
0.000247543
0.000922792
0.000261744
0.000879551
0.000275208
0.000833945
0.000287893
0.0007861
0.000299771
0.000736148
0.000310807
0.000684221
0.000320975
0.000630457
0.000330247
0.000574995
0.000338599
0.000517974
0.000346006
0.000459548
0.000352449
0.00039986
0.000357906
0.00033906
0.000362358
0.000277298
0.000365795
0.000214743
0.000368193
0.000151508
0.00036956
8.73828e-05
2.47173e-05
0.000369885
1.82564e-05
0.0012179
4.27373e-08
3.68e-05
0.00120888
5.547e-05
0.00119792
7.41355e-05
0.00118524
9.26942e-05
0.00117024
0.000111066
0.00115258
0.00012918
0.00113199
0.000146973
0.00110854
0.000164382
0.00108208
0.000181349
0.00105279
0.000197814
0.00102066
0.00021373
0.000985771
0.000229042
0.000948221
0.00024371
0.000908114
0.000257686
0.00086556
0.000270938
0.00082068
0.000283424
0.000773597
0.000295116
0.000724439
0.00030598
0.000673337
0.00031599
0.000620427
0.000325118
0.000565844
0.00033334
0.000509728
0.000340633
0.000452228
0.000346975
0.000393488
0.000352348
0.000333654
0.000356732
0.000272875
0.000360117
0.000211317
0.000362481
0.00014909
0.000363834
8.59772e-05
2.42928e-05
0.000364158
1.79813e-05
0.00119988
4.37002e-08
3.62484e-05
0.00119062
5.4638e-05
0.00117953
7.30205e-05
0.00116686
9.12954e-05
0.00115197
0.000109383
0.0011345
0.000127215
0.00111417
0.000144728
0.00109103
0.000161861
0.00106496
0.000178558
0.0010361
0.000194761
0.00100447
0.000210423
0.000970123
0.000225492
0.000933165
0.000239927
0.000893694
0.000253684
0.000851818
0.000266727
0.000807654
0.000279018
0.000761323
0.000290529
0.000712949
0.000301224
0.000662662
0.000311079
0.000610594
0.000320065
0.000556881
0.00032816
0.000501658
0.00033534
0.000445075
0.000341584
0.000387273
0.000346875
0.000328396
0.000351191
0.000268592
0.000354526
0.000208023
0.000356858
0.000146795
0.000358194
8.46878e-05
2.40287e-05
0.000358521
1.77088e-05
0.00118212
4.41131e-08
3.57013e-05
0.00117262
5.38126e-05
0.00116142
7.19147e-05
0.00114875
8.99085e-05
0.00113397
0.000107716
0.00111669
0.000125269
0.00109661
0.000142506
0.00107379
0.000159367
0.00104809
0.000175799
0.00101966
0.000191745
0.000988511
0.000207158
0.000954701
0.000221989
0.000918323
0.000236197
0.000879475
0.000249737
0.000838263
0.000262577
0.000794801
0.000274677
0.000749206
0.000286008
0.000701601
0.000296538
0.000652112
0.000306241
0.000600871
0.000315089
0.00054801
0.000323059
0.000493664
0.000330129
0.000437979
0.000336277
0.000381095
0.000341486
0.000323154
0.000345737
0.000264302
0.000349023
0.000204698
0.000351322
0.000144444
0.000352643
8.33155e-05
2.36081e-05
0.000352967
1.74389e-05
0.00116464
4.45858e-08
3.5159e-05
0.00115491
5.29943e-05
0.00114359
7.08186e-05
0.00113094
8.85346e-05
0.00111626
0.000106065
0.00109917
0.000123343
0.00107934
0.000140308
0.00105684
0.000156903
0.0010315
0.000173075
0.0010035
0.000188768
0.000972828
0.000203938
0.000939545
0.000218534
0.000903739
0.000232519
0.000865505
0.000245847
0.000824949
0.000258487
0.000782178
0.000270399
0.00073731
0.000281555
0.000690463
0.000291922
0.000641764
0.000301476
0.000591339
0.000310188
0.00053932
0.000318035
0.00048584
0.000324997
0.000431044
0.00033105
0.000375068
0.000336181
0.000318055
0.000340367
0.000260146
0.000343604
0.000201499
0.000345871
0.000142213
0.000347175
8.20556e-05
2.33413e-05
0.000347501
1.71717e-05
0.00114742
4.51436e-08
3.46217e-05
0.00113745
5.21838e-05
0.00112602
6.97333e-05
0.00111338
8.71747e-05
0.00109881
0.000104431
0.0010819
0.000121439
0.00106233
0.000138137
0.00104013
0.00015447
0.00101516
0.000170386
0.000987581
0.000185831
0.000957373
0.000200762
0.000924605
0.000215129
0.000889359
0.000228894
0.000851729
0.000242015
0.000811814
0.000254457
0.000769722
0.000266185
0.000725565
0.000277169
0.000679463
0.000287377
0.000631536
0.000296784
0.000581913
0.000305362
0.00053072
0.000313089
0.000478088
0.000319944
0.000424163
0.000325905
0.000369078
0.000330957
0.000312972
0.000335081
0.000255985
0.00033827
0.000198271
0.000340505
0.000139927
0.000341794
8.07174e-05
2.2926e-05
0.000342117
1.69073e-05
0.00113048
4.57019e-08
3.40898e-05
0.00112028
5.13816e-05
0.00110874
6.86596e-05
0.00109611
8.58298e-05
0.00108165
0.000102817
0.00106493
0.000119558
0.00104559
0.000135993
0.00102371
0.000152069
0.000999094
0.000167734
0.000971926
0.000182936
0.000942181
0.000197631
0.000909922
0.000211773
0.000875229
0.000225323
0.000838193
0.000238239
0.000798911
0.000250489
0.000757488
0.000262036
0.000714034
0.00027285
0.000668666
0.000282901
0.000621503
0.000292163
0.00057267
0.00030061
0.000522293
0.000308219
0.000470501
0.000314969
0.000417438
0.00032084
0.000363233
0.000325815
0.000308025
0.000329877
0.000251953
0.00033302
0.000195165
0.000335223
0.000137757
0.000336494
7.94878e-05
2.26583e-05
0.000336818
1.66458e-05
0.00111378
4.63587e-08
3.35638e-05
0.00110335
5.05883e-05
0.00109171
6.75981e-05
0.0010791
8.45009e-05
0.00106474
0.000101222
0.0010482
0.0001177
0.00102911
0.000133877
0.00100752
0.0001497
0.000983262
0.000165118
0.0009565
0.000180081
0.000927208
0.000194546
0.000895448
0.000208466
0.000861297
0.000221805
0.000824843
0.000234521
0.000786181
0.000246581
0.000745414
0.000257949
0.000702649
0.000268597
0.000658001
0.000278494
0.000611587
0.000287614
0.00056353
0.000295932
0.000513954
0.000303425
0.000462985
0.000310072
0.000410765
0.000315853
0.000357423
0.000320754
0.000303094
0.000324754
0.000247915
0.000327851
0.000192031
0.000330022
0.000135535
0.000331278
7.81839e-05
2.22493e-05
0.000331599
1.63875e-05
0.00109735
4.71128e-08
3.30439e-05
0.0010867
4.98045e-05
0.00107495
6.65496e-05
0.00106236
8.31886e-05
0.00104811
9.96482e-05
0.00103175
0.000115868
0.0010129
0.000131791
0.000991608
0.000147365
0.000967696
0.000162541
0.000941334
0.000177269
0.00091249
0.000191507
0.000881221
0.00020521
0.000847605
0.000218341
0.000811725
0.000230859
0.000773675
0.000242733
0.000733555
0.000253926
0.000691471
0.000264411
0.000647534
0.000274156
0.000601859
0.000283136
0.000554568
0.000291327
0.000505783
0.000298705
0.000455628
0.000305251
0.000404242
0.000310944
0.000351754
0.000315771
0.000298296
0.000319711
0.000244002
0.000322762
0.000189015
0.000324903
0.000133426
0.000326142
7.6985e-05
2.19821e-05
0.000326462
1.61324e-05
0.00108116
4.79083e-08
3.25305e-05
0.0010703
4.90305e-05
0.00105845
6.55146e-05
0.00104587
8.18936e-05
0.00103172
9.80955e-05
0.00101554
0.000114061
0.000996923
0.000129734
0.000975929
0.000145063
0.000952358
0.000160001
0.000926389
0.000174498
0.000897983
0.000188514
0.000867196
0.000202003
0.000834103
0.00021493
0.000798786
0.000227255
0.000761336
0.000238945
0.000721851
0.000249966
0.000680433
0.000260289
0.000637194
0.000269885
0.000592245
0.000278728
0.000545705
0.000286793
0.000497696
0.000294059
0.000448338
0.000300506
0.000397771
0.000306112
0.000346119
0.000310866
0.000293513
0.000314748
0.000240084
0.000317753
0.000185973
0.000319864
0.000131267
0.000321087
7.57154e-05
2.15799e-05
0.000321404
1.58806e-05
0.00106524
4.864e-08
3.20238e-05
0.00105416
4.82667e-05
0.00104221
6.44935e-05
0.00102965
8.06164e-05
0.00101561
9.65645e-05
0.000999598
0.00011228
0.000981215
0.000127706
0.00096051
0.000142796
0.000937277
0.000157499
0.000911695
0.00017177
0.000883721
0.000185566
0.000853411
0.000198846
0.000820834
0.000211572
0.000786073
0.000223706
0.000749215
0.000235215
0.000710355
0.000246067
0.000669596
0.000256231
0.000627045
0.00026568
0.000582812
0.000274388
0.000537015
0.000282331
0.000489772
0.000289486
0.000441203
0.000295834
0.000391445
0.000301356
0.00034062
0.000306038
0.000288858
0.000309861
0.000236286
0.000312823
0.000183044
0.000314903
0.000129216
0.000316109
7.45472e-05
2.13139e-05
0.000316426
1.56323e-05
0.00104955
4.93475e-08
3.15239e-05
0.00103826
4.75134e-05
0.00102621
6.34866e-05
0.00101367
7.93573e-05
0.000999731
9.50555e-05
0.000983894
0.000110524
0.000965739
0.000125709
0.000945318
0.000140562
0.000922415
0.000155036
0.000897213
0.000169083
0.000869664
0.000182664
0.00083982
0.000195738
0.000807749
0.000208266
0.000773532
0.000220212
0.000737254
0.000231544
0.000699009
0.000242229
0.000658896
0.000252238
0.000617019
0.000261542
0.000573489
0.000270117
0.000528421
0.000277938
0.00048193
0.000284984
0.000434134
0.000291236
0.000385169
0.000296674
0.000335155
0.000301285
0.000284217
0.000305051
0.000232484
0.000307969
0.000180091
0.000310019
0.000127119
0.00031121
7.33115e-05
2.09191e-05
0.000311523
1.53874e-05
0.00103412
4.99494e-08
3.1031e-05
0.00102262
4.67707e-05
0.00101048
6.24941e-05
0.000997949
7.81164e-05
0.000984115
9.35687e-05
0.000968448
0.000108795
0.00095052
0.000123742
0.000930379
0.000138363
0.000907803
0.00015261
0.000882975
0.000166438
0.000855844
0.000179808
0.00082646
0.000192678
0.00079489
0.000205012
0.00076121
0.000216774
0.000725504
0.000227931
0.000687865
0.000238452
0.000648389
0.000248307
0.000607179
0.000257469
0.000564343
0.000265912
0.000519994
0.000273614
0.000474246
0.000280553
0.000427214
0.00028671
0.000379033
0.000292065
0.000329821
0.000296607
0.000279701
0.000300317
0.000228799
0.000303192
0.000177247
0.000305212
0.000125126
0.000306387
7.21739e-05
2.06551e-05
0.000306698
1.51462e-05
0.00101892
5.0491e-08
3.05453e-05
0.00100722
4.60389e-05
0.000994979
6.15162e-05
0.000982466
7.6894e-05
0.00096873
9.21043e-05
0.000953231
0.000107092
0.000935524
0.000121805
0.000915658
0.000136197
0.000893402
0.000150222
0.000868942
0.000163835
0.000842221
0.000176996
0.000813288
0.000189666
0.000782208
0.00020181
0.000749055
0.00021339
0.000713911
0.000224375
0.000676866
0.000234734
0.000638015
0.000244438
0.000597459
0.000253459
0.000555304
0.000261774
0.00051166
0.000269359
0.00046664
0.000276191
0.000420358
0.000282255
0.000372946
0.000287529
0.000324519
0.000292002
0.0002752
0.000295657
0.00022511
0.000298489
0.00017438
0.000300481
0.000123088
0.000301639
7.09716e-05
2.02678e-05
0.000301947
1.49085e-05
0.00100396
5.08939e-08
3.00667e-05
0.000992063
4.53179e-05
0.000979734
6.05529e-05
0.000967236
7.569e-05
0.000953599
9.06621e-05
0.000938265
0.000105416
0.000920777
0.000119899
0.000901183
0.000134066
0.000879242
0.000147871
0.000855145
0.000161272
0.000828829
0.000174229
0.000800341
0.000186702
0.000769744
0.000198658
0.00073711
0.000210059
0.000702521
0.000220875
0.000666062
0.000231075
0.000627828
0.00024063
0.000587918
0.000249513
0.000546435
0.000257701
0.000503488
0.00026517
0.000459189
0.000271898
0.000413648
0.00027787
0.000366996
0.000283064
0.000319346
0.00028747
0.000270818
0.00029107
0.000221533
0.00029386
0.00017162
0.000295823
0.000121152
0.000296965
6.98642e-05
2.00063e-05
0.000297272
1.46744e-05
0.000989232
5.12343e-08
2.95953e-05
0.000977135
4.46078e-05
0.000964715
5.96042e-05
0.000952233
7.45044e-05
0.000938692
8.92422e-05
0.000923521
0.000103765
0.000906247
0.000118021
0.000886919
0.000131967
0.000865288
0.000145557
0.000841546
0.00015875
0.000815627
0.000171505
0.000787575
0.000183785
0.000757452
0.000195556
0.000725328
0.000206781
0.000691282
0.000217431
0.000655399
0.000227473
0.00061777
0.000236882
0.000578493
0.000245629
0.00053767
0.000253692
0.000495407
0.000261047
0.000451813
0.000267673
0.000406999
0.000273554
0.000361091
0.000278669
0.000314203
0.000283009
0.000266451
0.000286554
0.000217954
0.000289304
0.000168837
0.000291238
0.000119173
0.000292365
6.86948e-05
1.96268e-05
0.000292668
1.44439e-05
0.000974741
5.14375e-08
2.91311e-05
0.000962452
4.39085e-05
0.000949943
5.86702e-05
0.000937476
7.33372e-05
0.000924031
8.78443e-05
0.00090902
0.00010214
0.000891957
0.000116174
0.000872892
0.000129902
0.000851567
0.00014328
0.000828176
0.000156267
0.000802649
0.000168824
0.000775027
0.000180915
0.000745372
0.000192503
0.000713751
0.000203555
0.000680241
0.00021404
0.000644925
0.000223929
0.000607894
0.000233193
0.000569243
0.000241807
0.000529071
0.000249746
0.000487483
0.000256989
0.000444587
0.000263514
0.00040049
0.000269305
0.00035532
0.000274344
0.000309185
0.000278618
0.000262201
0.00028211
0.000214483
0.000284819
0.000166157
0.000286725
0.000117292
0.000287835
6.76172e-05
1.93682e-05
0.000288137
1.4217e-05
0.000960466
5.15898e-08
2.8674e-05
0.000947988
4.32201e-05
0.00093539
5.77506e-05
0.000922939
7.21881e-05
0.000909587
8.64683e-05
0.000894732
0.000100541
0.000877877
0.000114355
0.00085907
0.000127869
0.000838044
0.000141039
0.000814997
0.000153824
0.000789854
0.000166187
0.000762655
0.000178089
0.000733457
0.000189498
0.00070233
0.00020038
0.000669345
0.000210704
0.000634587
0.000220441
0.000598142
0.000229563
0.000560104
0.000238045
0.000520571
0.000245862
0.000479646
0.000252995
0.000437435
0.000259421
0.000394042
0.000265124
0.000349594
0.000270086
0.000304196
0.000274295
0.000257964
0.000277735
0.00021101
0.000280404
0.000163455
0.000282282
0.00011537
0.000283378
6.64801e-05
1.89965e-05
0.000283676
1.39935e-05
0.000946425
5.16156e-08
2.82241e-05
0.000933762
4.25424e-05
0.000921077
5.68454e-05
0.000908641
7.10571e-05
0.000895381
8.5114e-05
0.000880681
9.89666e-05
0.000864031
0.000112565
0.000845478
0.000125869
0.000824748
0.000138834
0.00080204
0.00015142
0.000777276
0.000163591
0.000750493
0.000175309
0.000721748
0.000186542
0.000691107
0.000197256
0.000658642
0.000207421
0.000624434
0.000217008
0.000588567
0.00022599
0.000551135
0.000234342
0.000512233
0.00024204
0.000471963
0.000249064
0.000430428
0.000255392
0.000387731
0.000261009
0.000343996
0.000265895
0.000299329
0.000270041
0.00025384
0.00027343
0.000207642
0.000276058
0.000160854
0.000277909
0.000113542
0.000278989
6.54317e-05
1.87411e-05
0.000279286
1.37737e-05
0.000932594
5.16087e-08
2.77813e-05
0.000919746
4.18754e-05
0.000906976
5.59545e-05
0.000894554
6.99439e-05
0.000881385
8.37811e-05
0.000866836
9.74174e-05
0.000850387
0.000110804
0.000832083
0.0001239
0.000811643
0.000136663
0.000789267
0.000149054
0.000764875
0.000161036
0.000738501
0.000172573
0.0007102
0.000183632
0.000680036
0.000194181
0.00064808
0.00020419
0.000614411
0.000213629
0.000579112
0.000222474
0.000542275
0.000230698
0.000503992
0.000238278
0.000464364
0.000245195
0.000423491
0.000251426
0.000381477
0.000256958
0.000338442
0.00026177
0.00029449
0.000265854
0.00024973
0.000269191
0.000204272
0.000271781
0.000158232
0.000273605
0.000111676
0.00027467
6.43261e-05
1.83773e-05
0.000274963
1.35573e-05
0.00091899
5.14898e-08
2.73454e-05
0.000905963
4.12188e-05
0.000893108
5.50776e-05
0.0008807
6.88484e-05
0.00086762
8.24693e-05
0.000853221
9.58928e-05
0.00083697
0.000109071
0.000818911
0.000121963
0.000798757
0.000134528
0.00077671
0.000146726
0.000752684
0.000158522
0.000726713
0.000169881
0.00069885
0.000180769
0.000669157
0.000191155
0.000637704
0.00020101
0.000604567
0.000210305
0.00056983
0.000219013
0.000533578
0.000227111
0.000495907
0.000234576
0.000456913
0.000241387
0.000416696
0.000247523
0.000375356
0.000252971
0.000333013
0.00025771
0.000289768
0.000261732
0.00024573
0.00026502
0.000201004
0.000267571
0.000155707
0.000269368
0.000109901
0.000270418
6.33064e-05
1.81253e-05
0.000270709
1.33444e-05
0.000905588
5.13571e-08
2.69165e-05
0.000892383
4.05727e-05
0.000879445
5.42147e-05
0.000867051
6.77702e-05
0.000854057
8.11783e-05
0.000839805
9.43925e-05
0.000823748
0.000107365
0.00080593
0.000120057
0.000786057
0.000132426
0.000764332
0.000144435
0.000740665
0.000156048
0.000715089
0.000167231
0.000687656
0.000177951
0.000658425
0.000188178
0.000627465
0.00019788
0.000594851
0.000207032
0.000560663
0.000215607
0.000524987
0.000223582
0.000487916
0.000230932
0.000449544
0.000237639
0.00040997
0.000243682
0.000369291
0.000249047
0.000327626
0.000253714
0.000285075
0.000257675
0.000241742
0.000260913
0.000197734
0.000263427
0.000153162
0.000265198
0.000108088
0.000266233
6.22317e-05
1.77693e-05
0.00026652
1.31348e-05
0.000892406
5.11268e-08
2.64943e-05
0.000879028
3.99368e-05
0.000866008
5.33654e-05
0.000853627
6.67092e-05
0.000840719
7.99079e-05
0.000826612
9.29161e-05
0.000810746
0.000105686
0.000793166
0.000118181
0.000773569
0.000130358
0.000752162
0.000142181
0.00072885
0.000153614
0.000703664
0.000164624
0.000676655
0.000175178
0.00064788
0.000185247
0.000617407
0.0001948
0.000585308
0.000203812
0.000551663
0.000212255
0.000516556
0.000220108
0.000480077
0.000227346
0.000442319
0.00023395
0.00040338
0.000239901
0.000363355
0.000245184
0.000322361
0.000249781
0.000280495
0.000253682
0.000237862
0.000256872
0.000194563
0.000259348
0.000150711
0.000261093
0.000106364
0.000262113
6.12401e-05
1.75209e-05
0.000262399
1.29287e-05
0.000879421
5.08988e-08
2.60789e-05
0.00086587
3.93111e-05
0.000852769
5.25297e-05
0.0008404
6.5665e-05
0.000827577
7.86578e-05
0.000813611
9.14632e-05
0.000797933
0.000104035
0.000780586
0.000116335
0.000761261
0.000128323
0.000740165
0.000139962
0.000717201
0.000151218
0.000692397
0.000162059
0.000665804
0.00017245
0.000637476
0.000182363
0.00060748
0.00019177
0.000575887
0.000200643
0.000542775
0.000208957
0.000508226
0.000216689
0.000472328
0.000223816
0.000435173
0.00023032
0.000396857
0.00023618
0.000357473
0.000241383
0.000317137
0.00024591
0.000275943
0.000249752
0.000233994
0.000252894
0.00019139
0.000255333
0.000148241
0.000257052
0.000104604
0.000258059
6.01955e-05
1.71728e-05
0.00025834
1.27257e-05
0.000866648
5.05847e-08
2.56701e-05
0.00085293
3.86953e-05
0.000839749
5.17073e-05
0.000827393
6.46376e-05
0.000814652
7.74276e-05
0.000800826
9.00335e-05
0.000785333
0.000102409
0.000768216
0.000114518
0.000749158
0.00012632
0.00072837
0.000137779
0.000705749
0.000148861
0.000681323
0.000159534
0.00065514
0.000169764
0.000627254
0.000179526
0.000597729
0.000188787
0.000566636
0.000197524
0.000534049
0.00020571
0.000500051
0.000213324
0.000464727
0.000220342
0.000428168
0.000226747
0.000390467
0.000232518
0.000351716
0.000237642
0.00031203
0.0002421
0.000271501
0.000245884
0.000230229
0.000248979
0.000188314
0.000251381
0.000145862
0.000253075
0.00010293
0.000254067
5.92314e-05
1.69282e-05
0.000254347
1.25261e-05
0.000854066
5.0286e-08
2.52679e-05
0.00084018
3.80894e-05
0.00082692
5.0898e-05
0.000814576
6.36265e-05
0.000801917
7.62171e-05
0.000788227
8.86267e-05
0.000772916
0.00010081
0.000756024
0.000112731
0.000737229
0.000124349
0.000716742
0.000135631
0.000694457
0.000146541
0.000670402
0.000157049
0.000644621
0.000167122
0.000617169
0.000176733
0.000588106
0.000185852
0.000557503
0.000194455
0.000525432
0.000202515
0.000491974
0.000210013
0.000457213
0.000216923
0.000421239
0.00022323
0.000384141
0.000228913
0.000346012
0.000233959
0.000306963
0.00023835
0.000267085
0.000242077
0.000226477