/*--------------------------------*- C++ -*----------------------------------*\
  =========                 |
  \\      /  F ield         | OpenFOAM: The Open Source CFD Toolbox
   \\    /   O peration     | Website:  https://openfoam.org
    \\  /    A nd           | Version:  6.0
     \\/     M anipulation  |
\*---------------------------------------------------------------------------*/
FoamFile
{
    version     2.0;
    format      ascii;
    class       surfaceScalarField;
    location    "7";
    object      phi;
}
// * * * * * * * * * * * * * * * * * * * * * * * * * * * * * * * * * * * * * //

dimensions      [0 3 -1 0 0 0 0];

internalField   nonuniform List<scalar> 
123526
(
8.58856e-06
0.000514815
1.36944e-07
1.74148e-05
0.000514341
2.63597e-05
0.000513479
3.5407e-05
0.000512261
4.45204e-05
0.000510711
5.36753e-05
0.000508818
6.28485e-05
0.000506585
7.20182e-05
0.000504014
8.11645e-05
0.000501109
9.02696e-05
0.000497872
9.93181e-05
0.000494308
0.000108297
0.000490418
0.000117196
0.000486204
0.00012601
0.000481666
0.000134728
0.000476811
0.000143345
0.000471633
0.000151862
0.000466128
0.000160272
0.000460305
0.000168575
0.000454154
0.000176768
0.000447677
0.000184847
0.000440878
0.000192813
0.000433751
0.000200656
0.000426309
0.000208378
0.000418547
0.000215968
0.000410479
0.000223424
0.000402107
0.000230738
0.000393443
0.000237904
0.000384493
0.000244915
0.00037527
0.000251765
0.000365782
0.000258446
0.000356043
0.000264952
0.000346059
0.000271278
0.000335845
0.000277417
0.000325406
0.000283363
0.000314757
0.000289113
0.000303903
0.00029466
0.000292856
0.000300001
0.000281621
0.000305131
0.000270209
0.000310046
0.000258626
0.000314744
0.000246879
0.00031922
0.000234977
0.000323473
0.000222925
0.000327497
0.000210732
0.000331292
0.000198402
0.000334853
0.000185944
0.00033818
0.000173365
0.000341269
0.00016067
0.000344119
0.000147866
0.000346727
0.00013496
0.000349092
0.00012196
0.00035121
0.00010887
0.000353081
9.56966e-05
0.000354702
8.24462e-05
0.000356069
6.91236e-05
0.000357179
5.57316e-05
0.000358016
4.22786e-05
0.000358588
2.87342e-05
0.000358602
1.52477e-05
2.4329e-06
0.000356803
8.59424e-06
0.000506157
6.61673e-08
1.7345e-05
0.000505593
2.61982e-05
0.000504629
3.51338e-05
0.00050333
4.41131e-05
0.000501737
5.31109e-05
0.000499827
6.21044e-05
0.0004976
7.1074e-05
0.000495054
8.00032e-05
0.000492191
8.88787e-05
0.00048901
9.76899e-05
0.000485512
0.000106429
0.000481697
0.000115091
0.000477562
0.000123676
0.000473104
0.000132175
0.000468336
0.000140587
0.000463248
0.000148916
0.000457829
0.000157153
0.000452099
0.000165299
0.000446041
0.000173352
0.000439659
0.000181305
0.000432962
0.000189157
0.000425937
0.000196898
0.000418607
0.000204525
0.000410961
0.000212029
0.000403017
0.000219402
0.000394775
0.000226637
0.00038625
0.000233726
0.000377445
0.00024066
0.000368376
0.000247433
0.000359049
0.000254037
0.000349477
0.000260467
0.000339667
0.000266713
0.000329634
0.000272773
0.000319381
0.00027864
0.000308924
0.00028431
0.000298265
0.000289777
0.000287418
0.000295038
0.000276388
0.00030009
0.000265184
0.000304928
0.000253812
0.000309551
0.00024228
0.000313953
0.000230596
0.000318134
0.000218764
0.00032209
0.000206794
0.00032582
0.000194691
0.00032932
0.000182461
0.000332588
0.000170112
0.000335624
0.000157649
0.000338424
0.00014508
0.000340988
0.00013241
0.000343312
0.000119647
0.000345396
0.000106797
0.000347238
9.38663e-05
0.000348835
8.086e-05
0.000350185
6.77843e-05
0.000351284
5.46438e-05
0.000352122
4.14514e-05
0.000352666
2.82014e-05
0.000353055
1.48639e-05
1.80756e-06
0.0003537
8.48731e-06
0.000497665
7.05147e-09
1.70641e-05
0.000497019
2.57342e-05
0.000495961
3.44779e-05
0.000494589
4.3258e-05
0.000492961
5.20509e-05
0.000491038
6.08364e-05
0.000488819
6.95977e-05
0.000486299
7.83215e-05
0.000483475
8.69974e-05
0.000480343
9.56178e-05
0.000476902
0.000104177
0.000473149
0.000112672
0.00046908
0.000121102
0.000464687
0.000129462
0.000459992
0.000137748
0.000454978
0.000145962
0.000449632
0.000154097
0.000443983
0.00016215
0.000438008
0.000170117
0.000431714
0.000177989
0.000425112
0.000185764
0.000418185
0.000193429
0.000410965
0.000200982
0.000403432
0.000208409
0.000395614
0.000215706
0.000387503
0.000222861
0.000379118
0.000229868
0.000370462
0.000236718
0.00036155
0.000243404
0.000352385
0.000249919
0.000342985
0.000256257
0.000333351
0.000262411
0.000323501
0.000268377
0.000313434
0.000274149
0.000303171
0.000279724
0.000292708
0.000285096
0.000282063
0.000290264
0.000271236
0.000295223
0.00026024
0.00029997
0.000249079
0.000304503
0.00023776
0.000308819
0.000226293
0.000312915
0.000214679
0.00031679
0.000202931
0.00032044
0.00019105
0.000323864
0.000179046
0.00032706
0.000166925
0.000330025
0.000154691
0.000332758
0.000142354
0.000335256
0.000129919
0.000337518
0.000117392
0.00033954
0.000104781
0.000341321
9.20914e-05
0.000342857
7.93302e-05
0.000344143
6.65043e-05
0.000345172
5.36205e-05
0.000345936
4.06928e-05
0.00034642
2.77205e-05
0.000346645
1.465e-05
1.82239e-06
0.000346628
8.3246e-06
0.000489365
-2.24589e-08
1.67058e-05
0.000488639
2.51778e-05
0.000487491
3.37223e-05
0.000486047
4.23042e-05
0.000484382
5.09023e-05
0.000482444
5.94984e-05
0.000480228
6.80777e-05
0.000477725
7.66285e-05
0.00047493
8.51417e-05
0.000471836
9.36104e-05
0.00046844
0.000102029
0.000464738
0.000110395
0.000460723
0.000118708
0.000456385
0.000126958
0.000451753
0.000135143
0.000446805
0.000143264
0.000441524
0.000151309
0.000435951
0.000159276
0.000430055
0.000167158
0.000423846
0.000174946
0.00041734
0.000182636
0.000410511
0.000190215
0.000403403
0.000197678
0.000395986
0.000205013
0.000388296
0.000212214
0.000380319
0.000219271
0.000372079
0.000226178
0.000363573
0.000232924
0.00035482
0.000239506
0.000345821
0.000245914
0.000336594
0.000252144
0.000327137
0.000258189
0.000317471
0.000264047
0.000307592
0.000269711
0.000297522
0.000275179
0.000287254
0.000280446
0.000276809
0.00028551
0.000266186
0.000290367
0.000255395
0.000295014
0.000244444
0.00029945
0.000233336
0.00030367
0.000222083
0.000307675
0.000210685
0.00031146
0.000199155
0.000315025
0.000187495
0.000318366
0.000175713
0.000321482
0.000163817
0.00032437
0.000151811
0.000327029
0.000139703
0.000329456
0.000127499
0.000331649
0.000115206
0.000333606
0.000102831
0.000335323
9.03807e-05
0.000336797
7.78621e-05
0.000338025
6.52828e-05
0.000339001
5.26508e-05
0.000339721
3.99792e-05
0.000340178
2.72695e-05
0.000340356
1.44731e-05
1.94997e-06
0.000340243
8.15428e-06
0.000481246
-3.30734e-08
1.63529e-05
0.000480443
2.46421e-05
0.000479204
3.30052e-05
0.000477687
4.1409e-05
0.00047598
4.9834e-05
0.000474022
5.82634e-05
0.000471801
6.66835e-05
0.000469309
7.50835e-05
0.000466534
8.34546e-05
0.00046347
9.17899e-05
0.00046011
0.000100084
0.00045645
0.000108332
0.00045248
0.000116534
0.00044819
0.000124679
0.000443615
0.000132762
0.000438729
0.000140784
0.000433511
0.000148732
0.000428013
0.000156602
0.000422195
0.000164386
0.000416072
0.000172075
0.000409662
0.000179663
0.000402934
0.000187138
0.000395939
0.000194494
0.000388641
0.00020172
0.000381081
0.000208809
0.00037324
0.000215752
0.000365146
0.000222543
0.000356793
0.000229173
0.000348201
0.000235637
0.000339368
0.000241927
0.000330314
0.00024804
0.000321034
0.000253969
0.000311552
0.000259712
0.000301859
0.000265262
0.00029198
0.000270619
0.000281906
0.000275776
0.00027166
0.000280733
0.000261237
0.000285485
0.00025065
0.000290032
0.000239904
0.000294369
0.000229005
0.000298496
0.000217963
0.000302409
0.000206777
0.000306107
0.000195463
0.000309587
0.00018402
0.000312848
0.000172457
0.000315887
0.000160782
0.000318703
0.000148999
0.000321293
0.000137117
0.000323656
0.00012514
0.000325788
0.000113077
0.000327689
0.000100934
0.000329355
8.87179e-05
0.000330784
7.64364e-05
0.000331973
6.40974e-05
0.000332918
5.17089e-05
0.000333616
3.92843e-05
0.000334061
2.68253e-05
0.000334248
1.42938e-05
2.02779e-06
0.000334167
7.98668e-06
0.000473295
-3.32084e-08
1.60177e-05
0.000472413
2.414e-05
0.000471084
3.23384e-05
0.00046949
4.05813e-05
0.00046774
4.88502e-05
0.000465755
5.71292e-05
0.000463525
6.54052e-05
0.000461036
7.36677e-05
0.000458275
8.19078e-05
0.000455234
9.01184e-05
0.000451904
9.8293e-05
0.00044828
0.000106427
0.000444352
0.000114517
0.000440106
0.000122553
0.000435585
0.00013053
0.000430759
0.000138445
0.000425604
0.000146286
0.00042018
0.000154047
0.000414443
0.000161721
0.000408406
0.000169297
0.000402095
0.000176771
0.00039547
0.000184128
0.000388591
0.000191365
0.000381414
0.00019847
0.000373986
0.000205437
0.000366284
0.000212257
0.000358337
0.000218924
0.000350137
0.00022543
0.000341706
0.00023177
0.000333038
0.000237938
0.000324156
0.00024393
0.000315052
0.00024974
0.000305752
0.000255365
0.000296243
0.000260801
0.000286554
0.000266046
0.000276671
0.000271095
0.00026662
0.000275946
0.000256394
0.000280597
0.000246008
0.000285045
0.000235464
0.000289288
0.00022477
0.000293323
0.000213935
0.00029715
0.000202958
0.000300764
0.000191855
0.000304166
0.000180625
0.000307352
0.000169278
0.000310321
0.00015782
0.00031307
0.000146255
0.000315598
0.000134594
0.000317904
0.00012284
0.000319984
0.000111002
0.000321836
9.90861e-05
0.00032346
8.70994e-05
0.000324852
7.50496e-05
0.000326009
6.29449e-05
0.000326929
5.07935e-05
0.000327609
3.86086e-05
0.000328047
2.63928e-05
0.000328237
1.41044e-05
2.08833e-06
0.000328188
7.82517e-06
0.000465505
-3.30297e-08
1.57014e-05
0.000464539
2.36707e-05
0.000463116
3.17184e-05
0.000461444
3.98139e-05
0.000459646
4.79395e-05
0.000457632
5.60798e-05
0.000455387
6.4222e-05
0.000452897
7.23553e-05
0.000450145
8.04707e-05
0.000447122
8.85604e-05
0.000443818
9.66174e-05
0.000440227
0.000104636
0.000436338
0.000112612
0.000432135
0.000120535
0.000427667
0.000128398
0.000422902
0.000136199
0.000417809
0.000143923
0.000412461
0.000151567
0.000406806
0.000159121
0.000400859
0.000166575
0.000394648
0.000173924
0.000388128
0.000181156
0.000381366
0.000188265
0.000374312
0.000195242
0.000367017
0.00020208
0.000359453
0.000208771
0.000351653
0.00021531
0.000343606
0.000221689
0.000335334
0.000227903
0.000326831
0.000233947
0.000318119
0.000239817
0.000309189
0.000245508
0.000300067
0.000251018
0.00029074
0.000256341
0.000281237
0.000261476
0.000271542
0.000266419
0.000261683
0.000271169
0.00025165
0.000275721
0.00024146
0.000280075
0.000231116
0.000284227
0.000220622
0.000288176
0.00020999
0.000291921
0.000199218
0.000295457
0.000188322
0.000298785
0.000177301
0.000301901
0.000166165
0.000304805
0.00015492
0.000307493
0.00014357
0.000309965
0.000132125
0.000312218
0.00012059
0.00031425
0.000108972
0.00031606
9.72787e-05
0.000317646
8.55164e-05
0.000319004
7.36933e-05
0.000320134
6.18175e-05
0.000321033
4.98973e-05
0.000321698
3.79456e-05
0.000322128
2.59638e-05
0.000322325
1.39132e-05
2.11989e-06
0.00032229
7.66993e-06
0.000457855
-1.85603e-08
1.54043e-05
0.000456806
2.32328e-05
0.000455289
3.11412e-05
0.000453538
3.91e-05
0.000451689
4.70918e-05
0.000449642
5.51016e-05
0.00044738
6.31163e-05
0.000444884
7.11251e-05
0.000442139
7.91186e-05
0.000439131
8.70884e-05
0.000435852
9.50268e-05
0.000432293
0.000102927
0.000428441
0.000110785
0.000424281
0.00011859
0.000419868
0.000126333
0.000415164
0.000134012
0.000410136
0.000141613
0.000404866
0.000149131
0.000399294
0.000156558
0.000393439
0.000163883
0.00038733
0.000171102
0.000380916
0.000178202
0.000374273
0.000185179
0.000367343
0.000192024
0.00036018
0.00019873
0.000352755
0.00020529
0.000345101
0.000211699
0.000337205
0.00021795
0.000329091
0.000224039
0.00032075
0.00022996
0.000312205
0.00023571
0.000303446
0.000241285
0.000294501
0.000246681
0.000285351
0.000251894
0.000276031
0.000256924
0.00026652
0.000261765
0.000256849
0.000266416
0.000247006
0.000270874
0.000237009
0.000275137
0.000226859
0.000279204
0.000216562
0.000283071
0.000206129
0.000286737
0.000195558
0.0002902
0.000184865
0.000293458
0.000174049
0.00029651
0.000163119
0.000299352
0.000152082
0.000301984
0.000140943
0.000304403
0.000129711
0.000306608
0.00011839
0.000308597
0.000106988
0.000310367
9.55123e-05
0.000311918
8.39699e-05
0.000313247
7.23686e-05
0.000314352
6.07165e-05
0.000315232
4.90219e-05
0.000315884
3.7297e-05
0.00031631
2.55429e-05
0.000316507
1.3716e-05
2.15306e-06
0.000316485
7.52178e-06
0.000450333
2.3645e-09
1.51247e-05
0.000449204
2.28218e-05
0.000447594
3.05996e-05
0.000445761
3.84293e-05
0.000443861
4.62938e-05
0.00044178
5.4178e-05
0.000439498
6.20689e-05
0.000436996
6.99553e-05
0.000434255
7.78274e-05
0.000431262
8.56763e-05
0.000428006
9.34938e-05
0.000424479
0.000101273
0.000420666
0.000109009
0.000416549
0.00011669
0.000412191
0.000124308
0.00040755
0.000131859
0.000402589
0.000139332
0.000397398
0.00014672
0.000391911
0.000154014
0.000386149
0.000161206
0.000380144
0.000168291
0.000373837
0.000175257
0.000367313
0.0001821
0.000360505
0.000188811
0.000353475
0.000195384
0.000346187
0.000201814
0.000338678
0.000208094
0.000330931
0.000214218
0.000322972
0.000220184
0.00031479
0.000225984
0.00030641
0.000231618
0.000297819
0.000237078
0.000289045
0.000242365
0.00028007
0.000247472
0.000270928
0.000252399
0.000261598
0.000257142
0.000252111
0.000261699
0.000242454
0.000266067
0.000232645
0.000270244
0.000222686
0.000274229
0.000212581
0.000278018
0.000202344
0.000281611
0.000191969
0.000285004
0.000181475
0.000288197
0.000170859
0.000291186
0.000160132
0.000293971
0.0001493
0.00029655
0.000138367
0.00029892
0.000127343
0.00030108
0.000116232
0.000303028
0.000105042
0.000304762
9.37798e-05
0.000306281
8.24527e-05
0.000307583
7.10686e-05
0.000308666
5.96353e-05
0.000309529
4.81608e-05
0.000310171
3.66569e-05
0.000310591
2.51236e-05
0.000310792
1.35196e-05
2.16812e-06
0.000310774
7.38102e-06
0.000442931
2.17544e-08
1.48595e-05
0.000441727
2.2432e-05
0.000440022
3.00852e-05
0.00043811
3.77907e-05
0.000436158
4.55317e-05
0.00043404
5.3293e-05
0.000431739
6.10616e-05
0.000429229
6.88259e-05
0.000426493
7.65758e-05
0.000423515
8.43021e-05
0.000420282
9.19962e-05
0.000416788
9.9651e-05
0.000413014
0.000107261
0.000408943
0.000114814
0.000404642
0.000122303
0.000400065
0.000129724
0.000395173
0.000137064
0.000390062
0.000144318
0.000384662
0.000151478
0.000378994
0.000158535
0.000373093
0.000165484
0.000366893
0.000172315
0.000360488
0.000179024
0.000353803
0.000185602
0.000346903
0.000192045
0.000339751
0.000198345
0.000332384
0.000204498
0.000324784
0.000210499
0.000316978
0.000216344
0.000308952
0.000222028
0.000300733
0.000227547
0.000292306
0.000232898
0.000283701
0.000238079
0.000274896
0.000243084
0.000265929
0.000247913
0.000256775
0.000252561
0.000247468
0.000257028
0.000237993
0.00026131
0.000228369
0.000265405
0.000218596
0.000269312
0.00020868
0.000273027
0.000198634
0.000276549
0.000188451
0.000279876
0.000178152
0.000283007
0.000167734
0.000285938
0.000157205
0.000288669
0.000146574
0.000291197
0.000135843
0.000293521
0.000125023
0.000295639
0.000114118
0.000297549
0.000103135
0.000299249
9.2083e-05
0.000300739
8.09669e-05
0.000302016
6.97954e-05
0.000303079
5.85761e-05
0.000303926
4.73169e-05
0.000304558
3.60288e-05
0.000304974
2.47115e-05
0.000305174
1.33203e-05
2.18938e-06
0.000305162
7.24688e-06
0.000435648
3.73774e-08
1.46058e-05
0.000434369
2.20579e-05
0.000432571
2.95901e-05
0.000430579
3.71743e-05
0.000428575
4.47938e-05
0.000426422
5.24333e-05
0.000424101
6.00797e-05
0.000421585
6.77213e-05
0.000418854
7.53477e-05
0.00041589
8.29495e-05
0.000412683
9.05179e-05
0.000409222
9.80455e-05
0.000405489
0.000105527
0.000401465
0.00011295
0.000397222
0.000120307
0.000392711
0.000127595
0.000387889
0.000134801
0.00038286
0.000141921
0.000377547
0.000148946
0.000371974
0.000155867
0.000366175
0.000162682
0.000360083
0.000169379
0.000353795
0.000175955
0.000347231
0.000182402
0.000340461
0.000188716
0.000333442
0.00019489
0.000326215
0.00020092
0.000318758
0.000206801
0.000311102
0.000212529
0.000303229
0.000218099
0.000295168
0.000223509
0.0002869
0.000228754
0.00027846
0.000233832
0.000269822
0.000238739
0.000261027
0.000243473
0.000252045
0.000248031
0.000242914
0.000252412
0.000233617
0.000256611
0.000224173
0.000260628
0.000214583
0.000264459
0.000204851
0.000268104
0.000194992
0.000271559
0.000184999
0.000274823
0.000174891
0.000277894
0.000164665
0.00028077
0.000154331
0.000283449
0.000143897
0.000285929
0.000133364
0.000288209
0.000122745
0.000290287
0.000112042
0.000292161
0.000101263
0.00029383
9.04157e-05
0.000295292
7.95065e-05
0.000296545
6.85432e-05
0.000297589
5.75335e-05
0.000298423
4.64848e-05
0.000299045
3.54077e-05
0.000299456
2.4301e-05
0.000299658
1.31229e-05
2.19559e-06
0.000299648
7.11781e-06
0.00042848
5.19441e-08
1.43603e-05
0.000427128
2.16947e-05
0.000425238
2.91079e-05
0.000423167
3.65722e-05
0.000421112
4.40708e-05
0.000418925
5.15887e-05
0.000416584
5.91125e-05
0.000414063
6.66304e-05
0.000411338
7.41319e-05
0.000408391
8.16076e-05
0.00040521
8.90484e-05
0.000401784
9.64472e-05
0.000398094
0.000103798
0.000394117
0.000111089
0.000389934
0.000118314
0.00038549
0.000125468
0.000380738
0.00013254
0.000375792
0.000139525
0.000370567
0.000146416
0.000365087
0.000153203
0.000359393
0.000159885
0.000353406
0.00016645
0.000347235
0.000172896
0.00034079
0.000179216
0.000334147
0.000185404
0.000327259
0.000191455
0.000320169
0.000197366
0.000312853
0.00020313
0.000305343
0.000208745
0.000297619
0.000214205
0.000289712
0.000219509
0.000281602
0.000224652
0.000273323
0.000229632
0.000264848
0.000234444
0.000256219
0.000239088
0.000247406
0.000243559
0.000238448
0.000247856
0.000229325
0.000251977
0.000220057
0.000255918
0.000210647
0.000259678
0.000201096
0.000263254
0.000191421
0.000266645
0.000181612
0.000269848
0.000171692
0.000272862
0.000161655
0.000275685
0.000151512
0.000278314
0.000141271
0.000280749
0.000130933
0.000282987
0.00012051
0.000285027
0.000110005
0.000286867
9.94262e-05
0.000288505
8.87806e-05
0.000289941
7.80742e-05
0.000291172
6.73151e-05
0.000292198
5.65106e-05
0.000293018
4.56682e-05
0.000293631
3.47977e-05
0.000294038
2.38977e-05
0.000294237
1.2924e-05
2.20915e-06
0.000294233
6.99274e-06
0.000421424
6.46778e-08
1.41206e-05
0.000420001
2.13385e-05
0.000418021
2.86336e-05
0.000415873
3.59784e-05
0.000413768
4.33564e-05
0.000411548
5.07522e-05
0.00040919
5.81527e-05
0.000406664
6.55459e-05
0.000403946
7.29215e-05
0.000401017
8.02698e-05
0.000397863
8.75822e-05
0.000394473
9.4851e-05
0.000390827
0.000102071
0.0003869
0.00010923
0.000382777
0.000116322
0.0003784
0.000123343
0.00037372
0.000130282
0.000368856
0.000137134
0.000363719
0.000143891
0.000358333
0.000150547
0.00035274
0.000157098
0.000346859
0.000163535
0.000340802
0.000169854
0.000334474
0.000176049
0.000327956
0.000182115
0.000321196
0.000188048
0.000314241
0.000193842
0.000307063
0.000199494
0.000299695
0.000204999
0.000292118
0.000210354
0.000284361
0.000215556
0.000276404
0.0002206
0.000268282
0.000225485
0.000259967
0.000230206
0.000251502
0.000234762
0.000242853
0.00023915
0.000234063
0.000243367
0.000225111
0.000247411
0.000216016
0.000251279
0.000206782
0.00025497
0.000197408
0.00025848
0.000187913
0.000261809
0.000178285
0.000264954
0.000168549
0.000267914
0.000158698
0.000270685
0.000148743
0.000273267
0.000138691
0.000275658
0.000128544
0.000277855
0.000118314
0.000279858
0.000108003
0.000281665
9.76204e-05
0.000283274
8.71723e-05
0.000284685
7.66648e-05
0.000285895
6.61059e-05
0.000286904
5.55027e-05
0.000287711
4.48622e-05
0.000288315
3.41941e-05
0.000288717
2.34964e-05
0.000288917
1.27276e-05
2.20891e-06
0.000288913
6.87094e-06
0.000414481
7.32186e-08
1.38848e-05
0.000412988
2.09868e-05
0.00041092
2.8164e-05
0.000408697
3.53893e-05
0.000406544
4.26462e-05
0.000404293
4.99195e-05
0.000401918
5.7196e-05
0.000399389
6.4464e-05
0.00039668
7.1713e-05
0.00039377
7.89335e-05
0.000390645
8.61168e-05
0.000387292
9.32557e-05
0.00038369
0.000100345
0.000379814
0.000107373
0.000375752
0.000114333
0.000371443
0.000121222
0.000366834
0.000128029
0.000362052
0.000134749
0.000357002
0.000141377
0.000351709
0.000147904
0.000346217
0.000154327
0.00034044
0.000160639
0.000334495
0.000166835
0.000328283
0.000172908
0.000321887
0.000178857
0.000315252
0.000184673
0.000308428
0.000190356
0.000301386
0.000195898
0.000294158
0.000201298
0.000286723
0.000206551
0.000279113
0.000211654
0.000271306
0.000216603
0.000263338
0.000221396
0.000255178
0.000226029
0.000246873
0.000230501
0.000238386
0.000234807
0.000229761
0.000238947
0.000220975
0.000242917
0.000212051
0.000246715
0.000202988
0.000250338
0.000193788
0.000253786
0.000184469
0.000257055
0.00017502
0.000260143
0.000165464
0.000263049
0.000155795
0.000265771
0.000146024
0.000268307
0.000136158
0.000270655
0.000126199
0.000272814
0.000116158
0.000274781
0.000106039
0.000276556
9.58481e-05
0.000278137
8.5594e-05
0.000279523
7.52817e-05
0.000280713
6.49191e-05
0.000281705
5.45132e-05
0.000282499
4.40709e-05
0.000283095
3.36012e-05
0.000283493
2.31022e-05
0.00028369
1.25305e-05
2.21642e-06
0.000283691
6.75153e-06
0.000407651
7.90443e-08
1.36517e-05
0.000406088
2.06378e-05
0.000403935
2.7697e-05
0.000401638
3.48026e-05
0.000399439
4.19381e-05
0.000397158
4.90885e-05
0.000394768
5.62407e-05
0.000392238
6.33831e-05
0.000389539
7.05053e-05
0.000386649
7.7598e-05
0.000383554
8.46526e-05
0.000380239
9.16621e-05
0.000376683
9.8621e-05
0.000372857
0.000105519
0.000368857
0.000112349
0.000364615
0.000119108
0.000360078
0.000125786
0.000355377
0.000132377
0.000350413
0.000138878
0.000345212
0.000145279
0.000339819
0.000151578
0.000334143
0.000157767
0.000328309
0.000163843
0.00032221
0.0001698
0.000315934
0.000175633
0.000309422
0.000181338
0.000302727
0.000186912
0.000295815
0.000192349
0.000288724
0.000197646
0.000281428
0.0002028
0.000273963
0.000207807
0.000266301
0.000212664
0.000258484
0.000217369
0.000250477
0.000221916
0.000242328
0.000226306
0.000233999
0.000230534
0.000225536
0.000234599
0.000216914
0.000238497
0.000208155
0.000242226
0.000199261
0.000245785
0.000190232
0.000249171
0.000181086
0.000252382
0.000171811
0.000255415
0.000162432
0.00025827
0.000152942
0.000260944
0.000143352
0.000263435
0.000133669
0.000265741
0.000123893
0.000267862
0.000114038
0.000269795
0.000104106
0.000271539
9.41045e-05
0.000273093
8.40407e-05
0.000274455
7.39199e-05
0.000275625
6.37499e-05
0.000276601
5.35376e-05
0.000277383
4.32896e-05
0.00027797
3.30146e-05
0.000278362
2.27102e-05
0.00027856
1.23361e-05
2.2109e-06
0.000278561
6.63371e-06
0.000400935
8.3652e-08
1.34202e-05
0.000399303
2.02903e-05
0.000397066
2.72314e-05
0.000394698
3.42171e-05
0.000392454
4.12311e-05
0.000390145
4.82586e-05
0.000387742
5.52865e-05
0.000385211
6.23034e-05
0.000382523
6.92991e-05
0.000379655
7.62645e-05
0.00037659
8.31913e-05
0.000373315
9.00725e-05
0.000369804
9.69028e-05
0.000366029
0.000103672
0.00036209
0.000110374
0.000357916
0.000117005
0.000353449
0.000123556
0.000348829
0.000130022
0.00034395
0.000136398
0.000338839
0.000142676
0.000333545
0.000148855
0.000327968
0.000154925
0.000322243
0.000160885
0.000316254
0.000166727
0.000310095
0.00017245
0.000303704
0.000178047
0.000297134
0.000183515
0.000290351
0.000188849
0.000283393
0.000194048
0.000276234
0.000199106
0.000268909
0.00020402
0.000261391
0.000208788
0.000253721
0.000213406
0.000245863
0.000217871
0.000237867
0.000222181
0.000229693
0.000226333
0.000221388
0.000230324
0.000212926
0.000234152
0.000204331
0.000237815
0.000195601
0.000241311
0.00018674
0.000244637
0.000177764
0.000247791
0.00016866
0.000250771
0.000159455
0.000253575
0.000150141
0.000256202
0.000140728
0.000258649
0.000131224
0.000260916
0.000121629
0.000262999
0.000111957
0.000264899
0.000102209
0.000266613
9.23929e-05
0.00026814
8.25159e-05
0.00026948
7.25831e-05
0.00027063
6.26021e-05
0.00027159
5.25798e-05
0.00027236
4.25224e-05
0.000272938
3.24385e-05
0.000273326
2.23255e-05
0.000273521
1.21414e-05
2.21341e-06
0.000273526
6.51707e-06
0.000394331
8.75925e-08
1.319e-05
0.00039263
1.99441e-05
0.000390312
2.67671e-05
0.000387876
3.36329e-05
0.000385589
4.05255e-05
0.000383254
4.74302e-05
0.000380838
5.43341e-05
0.000378308
6.12261e-05
0.000375632
6.80962e-05
0.000372786
7.49353e-05
0.000369752
8.17354e-05
0.000366516
8.84898e-05
0.000363051
9.51934e-05
0.000359327
0.000101836
0.000355449
0.000108412
0.000351342
0.000114918
0.000346945
0.000121345
0.000342405
0.000127688
0.000337609
0.000133943
0.000332587
0.000140102
0.000327388
0.000146163
0.00032191
0.000152117
0.00031629
0.000157964
0.00031041
0.000163696
0.000304366
0.000169311
0.000298092
0.000174802
0.000291645
0.000180168
0.000284988
0.000185403
0.000278161
0.000190505
0.000271135
0.00019547
0.000263948
0.000200294
0.000256569
0.000204975
0.000249043
0.000209509
0.000241331
0.000213894
0.000233485
0.000218126
0.000225463
0.000222204
0.000217313
0.000226124
0.000209008
0.000229884
0.000200572
0.000233482
0.000192005
0.000236916
0.000183308
0.000240183
0.000174498
0.000243282
0.000165563
0.000246209
0.000156529
0.000248965
0.000147386
0.000251546
0.000138148
0.00025395
0.00012882
0.000256177
0.000119402
0.000258225
0.00010991
0.000260092
0.000100342
0.000261777
9.07084e-05
0.000263278
8.10148e-05
0.000264595
7.12666e-05
0.000265726
6.14711e-05
0.000266671
5.16351e-05
0.000267428
4.17649e-05
0.000267998
3.18685e-05
0.000268381
2.1943e-05
0.000268576
1.19495e-05
2.20346e-06
0.000268581
6.40144e-06
0.000387839
9.04638e-08
1.29609e-05
0.000386072
1.95992e-05
0.000383674
2.63042e-05
0.000381171
3.30505e-05
0.000378844
3.9822e-05
0.000376483
4.66044e-05
0.000374057
5.33851e-05
0.000371529
6.01531e-05
0.000368866
6.68986e-05
0.000366042
7.36128e-05
0.000363039
8.02879e-05
0.000359842
8.69173e-05
0.000356423
9.34961e-05
0.00035275
0.000100015
0.000348932
0.000106467
0.000344892
0.000112851
0.000340564
0.000119157
0.000336102
0.00012538
0.000331389
0.000131516
0.000326453
0.000137559
0.000321349
0.000143505
0.000315967
0.000149348
0.000310451
0.000155084
0.000304676
0.000160709
0.000298744
0.000166218
0.000292586
0.000171608
0.000286259
0.000176874
0.000279726
0.000182013
0.000273026
0.000187021
0.00026613
0.000191895
0.000259078
0.000196632
0.000251836
0.000201227
0.000244452
0.00020568
0.000236882
0.000209986
0.000229183
0.000214142
0.000221309
0.000218147
0.000213312
0.000221998
0.000205161
0.000225692
0.000196882
0.000229226
0.000188474
0.0002326
0.000179937
0.00023581
0.000171291
0.000238854
0.000162521
0.000241731
0.000153655
0.000244438
0.000144682
0.000246974
0.000135614
0.000249337
0.000126459
0.000251525
0.000117216
0.000253538
0.0001079
0.000255372
9.85098e-05
0.000257028
8.90546e-05
0.000258504
7.9541e-05
0.000259799
6.9974e-05
0.000260911
6.03607e-05
0.000261841
5.07077e-05
0.000262587
4.10212e-05
0.000263149
3.13088e-05
0.000263527
2.15678e-05
0.000263718
1.17577e-05
2.20167e-06
0.000263727
6.28671e-06
0.00038146
9.28858e-08
1.27329e-05
0.000379626
1.92558e-05
0.000377152
2.58433e-05
0.000374584
3.24705e-05
0.000372217
3.91216e-05
0.000369832
4.57826e-05
0.000367396
5.24411e-05
0.000364871
5.90863e-05
0.000362221
6.57087e-05
0.000359421
7.22996e-05
0.000356449
7.88515e-05
0.000353292
8.5358e-05
0.000349918
9.18144e-05
0.000346295
9.82113e-05
0.000342537
0.000104543
0.000338562
0.000110807
0.000334301
0.000116994
0.000329917
0.0001231
0.000325284
0.000129121
0.000320434
0.00013505
0.000315422
0.000140885
0.000310134
0.000146619
0.00030472
0.000152248
0.000299049
0.000157768
0.000293227
0.000163176
0.000287181
0.000168465
0.000280972
0.000173635
0.000274559
0.000178679
0.000267983
0.000183596
0.000261216
0.000188382
0.000254295
0.000193033
0.000247187
0.000197546
0.000239941
0.000201918
0.000232511
0.000206147
0.000224957
0.00021023
0.000217228
0.000214164
0.00020938
0.000217946
0.00020138
0.000221575
0.000193255
0.000225048
0.000185003
0.000228362
0.000176624
0.000231516
0.000168139
0.000234507
0.000159531
0.000237333
0.000150829
0.000239994
0.000142022
0.000242486
0.000133122
0.000244808
0.000124137
0.000246958
0.000115066
0.000248936
0.000105922
0.000250739
9.67065e-05
0.000252367
8.74268e-05
0.000253818
7.809e-05
0.000255091
6.87008e-05
0.000256185
5.92663e-05
0.0002571
4.9793e-05
0.000257834
4.02867e-05
0.000258388
3.07551e-05
0.00025876
2.11949e-05
0.000258952
1.15686e-05
2.18784e-06
0.000258961
6.17288e-06
0.000375193
9.52099e-08
1.25064e-05
0.000373293
1.89144e-05
0.000370744
2.53851e-05
0.000368114
3.1894e-05
0.000365709
3.84257e-05
0.000363301
4.49664e-05
0.000360856
5.1504e-05
0.000358334
5.80279e-05
0.000355698
6.45288e-05
0.000352921
7.09983e-05
0.000349981
7.7429e-05
0.000346862
8.38148e-05
0.000343534
9.0151e-05
0.000339961
9.64286e-05
0.000336261
0.000102642
0.00033235
0.000108789
0.000328157
0.00011486
0.000323848
0.000120852
0.000319294
0.000126761
0.000314528
0.000132579
0.000309607
0.000138306
0.000304411
0.000143932
0.000299096
0.000149458
0.000293527
0.000154876
0.000287812
0.000160183
0.000281876
0.000165376
0.000275782
0.000170451
0.000269487
0.000175404
0.000263034
0.000180232
0.000256391
0.00018493
0.000249599
0.000189498
0.000242623
0.00019393
0.000235512
0.000198224
0.00022822
0.000202378
0.000220806
0.000206389
0.000213221
0.000210253
0.000205519
0.000213969
0.000197667
0.000217534
0.000189693
0.000220945
0.000181594
0.000224202
0.000173371
0.0002273
0.000165043
0.000230239
0.000156595
0.000233017
0.000148054
0.000235631
0.00013941
0.00023808
0.000130676
0.000240361
0.000121858
0.000242475
0.000112954
0.000244419
0.00010398
0.000246191
9.49358e-05
0.000247791
8.58285e-05
0.000249218
7.66654e-05
0.000250469
6.74509e-05
0.000251545
5.8192e-05
0.000252445
4.8895e-05
0.000253168
3.95658e-05
0.000253714
3.02116e-05
0.000254082
2.08293e-05
0.00025427
1.138e-05
2.18226e-06
0.000254282
6.06009e-06
0.000369036
9.73466e-08
1.22817e-05
0.000367071
1.85755e-05
0.000364451
2.49303e-05
0.000361759
3.1322e-05
0.000359317
3.77355e-05
0.000356888
4.41573e-05
0.000354435
5.05755e-05
0.000351916
5.69797e-05
0.000349295
6.33609e-05
0.000346541
6.9711e-05
0.000343632
7.60227e-05
0.000340552
8.22899e-05
0.000337268
8.85084e-05
0.000333743
9.46692e-05
0.000330102
0.000100767
0.000326254
0.000106799
0.000322126
0.000112758
0.000317891
0.000118638
0.000313415
0.000124437
0.000308731
0.000130147
0.000303898
0.000135768
0.000298792