/*--------------------------------*- C++ -*----------------------------------*\
  =========                 |
  \\      /  F ield         | OpenFOAM: The Open Source CFD Toolbox
   \\    /   O peration     | Website:  https://openfoam.org
    \\  /    A nd           | Version:  6.0
     \\/     M anipulation  |
\*---------------------------------------------------------------------------*/
FoamFile
{
    version     2.0;
    format      ascii;
    class       volVectorField;
    location    "7";
    object      U;
}
// * * * * * * * * * * * * * * * * * * * * * * * * * * * * * * * * * * * * * //

dimensions      [0 1 -1 0 0 0 0];

internalField   nonuniform List<vector> 
62000
(
(0.999998 7.67899e-05 -4.35369e-20)
(0.999979 -3.35648e-05 1.57342e-19)
(0.999953 -0.000152882 -5.46574e-19)
(0.999921 -0.000279187 -1.07798e-19)
(0.999883 -0.000406299 -8.27246e-19)
(0.999842 -0.000528073 2.47968e-19)
(0.999799 -0.000638588 5.27745e-19)
(0.999753 -0.000732556 7.56674e-19)
(0.999705 -0.000805747 -1.27109e-18)
(0.999655 -0.000855461 -6.80532e-19)
(0.999602 -0.000880831 -1.76438e-19)
(0.999544 -0.00088305 -2.57098e-19)
(0.999479 -0.000865351 8.15084e-20)
(0.999405 -0.00083287 6.23442e-19)
(0.999321 -0.000792285 1.40052e-18)
(0.999224 -0.000751292 -1.58166e-18)
(0.999114 -0.000718055 6.13673e-19)
(0.99899 -0.000700652 -1.3143e-18)
(0.998853 -0.000706474 1.20056e-21)
(0.998704 -0.000741751 6.47508e-19)
(0.998543 -0.000811256 -1.2701e-18)
(0.998375 -0.000918004 -5.63717e-19)
(0.998201 -0.00106331 9.66402e-19)
(0.998026 -0.00124668 -2.18576e-18)
(0.997853 -0.00146615 1.43299e-18)
(0.997686 -0.00171836 -1.64944e-18)
(0.997527 -0.00199902 1.5752e-18)
(0.997381 -0.00230306 -3.11244e-19)
(0.99725 -0.0026251 1.19497e-18)
(0.997135 -0.0029596 6.07516e-19)
(0.99704 -0.00330126 2.36854e-18)
(0.996965 -0.00364504 8.05051e-19)
(0.996911 -0.0039865 -2.36428e-19)
(0.996878 -0.00432176 -1.57494e-18)
(0.996866 -0.00464767 1.24053e-18)
(0.996874 -0.00496172 8.64768e-19)
(0.996901 -0.00526217 5.73249e-20)
(0.996946 -0.00554788 6.09613e-20)
(0.997008 -0.00581838 -1.73854e-18)
(0.997086 -0.00607374 -1.02485e-19)
(0.997177 -0.00631459 -5.2275e-19)
(0.99728 -0.00654203 -4.28219e-19)
(0.997394 -0.00675762 8.93936e-19)
(0.997518 -0.00696338 -6.23746e-19)
(0.997649 -0.00716176 -3.06764e-19)
(0.997787 -0.00735571 2.48668e-19)
(0.997931 -0.0075487 4.06871e-19)
(0.998079 -0.00774487 -3.97137e-20)
(0.99823 -0.00794918 1.31866e-19)
(0.998384 -0.00816761 4.11004e-19)
(0.998539 -0.00840757 4.12896e-19)
(0.998696 -0.00867835 1.60099e-19)
(0.998853 -0.00899194 1.54487e-19)
(0.999009 -0.00936422 -2.83584e-20)
(0.999162 -0.00981677 1.55361e-19)
(0.999309 -0.0103807 2.24103e-20)
(0.999451 -0.0110954 -8.45357e-20)
(0.999449 -0.012075 -9.28204e-20)
(0.999671 -0.0132777 6.17987e-20)
(0.997079 -0.0151907 -3.49316e-21)
(0.99983 -0.000198595 7.63162e-20)
(0.999808 -0.000520107 -6.64271e-20)
(0.999784 -0.000822631 -1.86193e-19)
(0.999758 -0.00109338 -1.44698e-19)
(0.99973 -0.00131773 2.22779e-19)
(0.999701 -0.00148384 4.31478e-19)
(0.99967 -0.0015837 -4.88794e-19)
(0.999634 -0.00161396 1.19307e-19)
(0.999592 -0.00157624 -9.92783e-19)
(0.999539 -0.0014772 1.24949e-18)
(0.999471 -0.00132797 3.0214e-19)
(0.999386 -0.00114346 -1.52081e-20)
(0.99928 -0.000941246 -1.43322e-19)
(0.99915 -0.000740454 2.38694e-19)
(0.998995 -0.000560354 -2.34586e-19)
(0.998815 -0.000418972 3.99011e-19)
(0.99861 -0.000332241 1.65889e-18)
(0.998384 -0.000312901 2.14622e-18)
(0.998141 -0.000370021 -1.43222e-18)
(0.997884 -0.000508612 -1.53803e-18)
(0.997621 -0.000729656 4.39121e-19)
(0.997357 -0.00103045 -3.49295e-19)
(0.997099 -0.0014049 -1.57627e-18)
(0.996854 -0.00184429 3.43555e-18)
(0.996627 -0.00233784 -1.67171e-19)
(0.996424 -0.00287349 2.89977e-19)
(0.99625 -0.00343862 -2.73677e-18)
(0.996108 -0.00402054 1.25417e-18)
(0.996 -0.00460715 -1.39997e-18)
(0.995929 -0.00518723 -2.34375e-18)
(0.995895 -0.00575082 -5.41958e-19)
(0.995898 -0.00628934 -1.62113e-18)
(0.995937 -0.00679567 2.06122e-18)
(0.996011 -0.00726425 9.27326e-19)
(0.996118 -0.00769083 -2.46932e-18)
(0.996255 -0.00807258 -2.221e-18)
(0.996419 -0.00840773 1.90201e-19)
(0.996608 -0.00869557 6.59607e-19)
(0.996819 -0.00893618 2.11025e-18)
(0.997048 -0.00913029 -1.13445e-18)
(0.997293 -0.00927922 -2.34609e-20)
(0.997552 -0.00938448 3.44672e-19)
(0.997821 -0.00944799 6.64797e-19)
(0.998098 -0.00947165 6.49612e-19)
(0.998381 -0.00945741 -5.14434e-19)
(0.998668 -0.00940713 -2.05303e-19)
(0.998956 -0.00932242 1.51426e-19)
(0.999245 -0.00920471 2.17459e-20)
(0.999532 -0.00905493 -2.15696e-19)
(0.999817 -0.00887343 -4.0615e-20)
(1.0001 -0.00865986 -6.89711e-20)
(1.00037 -0.00841274 -1.24852e-19)
(1.00064 -0.00812918 -3.24886e-19)
(1.0009 -0.00780427 1.31755e-19)
(1.00114 -0.00742989 -1.77366e-19)
(1.00136 -0.00699427 -9.15778e-20)
(1.00155 -0.00646893 1.80547e-20)
(1.00165 -0.00584488 -5.95244e-20)
(1.00165 -0.00507381 -5.40521e-20)
(1.00239 -0.00297716 5.4138e-21)
(0.999625 -0.000372484 1.11059e-19)
(0.999625 -0.000662032 -2.29772e-19)
(0.999634 -0.000918084 4.63195e-19)
(0.999653 -0.00112042 1.9568e-19)
(0.999681 -0.00125492 6.01938e-19)
(0.999717 -0.00131195 -1.2438e-19)
(0.999757 -0.00128714 4.59008e-19)
(0.999797 -0.00118217 -3.8309e-19)
(0.999832 -0.00100473 2.60101e-19)
(0.999859 -0.000768105 7.43531e-19)
(0.999872 -0.000490058 -2.03793e-19)
(0.999868 -0.000191572 3.52123e-19)
(0.999843 0.000104737 -7.74532e-19)
(0.999795 0.000375995 -2.03287e-19)
(0.999724 0.000600861 -1.70398e-19)
(0.999629 0.000760926 -3.07727e-19)
(0.999514 0.000841281 -7.16253e-19)
(0.999381 0.000831826 -1.82667e-18)
(0.999233 0.000727062 2.23143e-18)
(0.999078 0.000526306 2.97248e-19)
(0.998919 0.00023358 6.7025e-19)
(0.998762 -0.00014381 6.64559e-19)
(0.998614 -0.000594708 9.42429e-19)
(0.998479 -0.00110638 -3.68919e-18)
(0.998363 -0.00166404 1.85214e-18)
(0.998269 -0.00225278 -1.94424e-19)
(0.9982 -0.00285741 1.40221e-19)
(0.998159 -0.00346374 2.49712e-19)
(0.998147 -0.00405852 6.43893e-19)
(0.998165 -0.00463027 1.64997e-18)
(0.998212 -0.00516892 1.48124e-18)
(0.998289 -0.00566661 3.99147e-19)
(0.998393 -0.00611679 -1.00991e-18)
(0.998523 -0.00651518 -8.82817e-19)
(0.998676 -0.00685848 2.75795e-18)
(0.998849 -0.00714536 -8.46848e-19)
(0.999041 -0.00737521 2.32717e-19)
(0.999249 -0.00754871 -1.09723e-18)
(0.999468 -0.00766722 -2.1937e-19)
(0.999698 -0.00773269 2.20587e-19)
(0.999935 -0.00774767 7.10813e-19)
(1.00018 -0.00771476 -8.07754e-21)
(1.00042 -0.00763707 -8.70366e-19)
(1.00066 -0.0075176 3.30933e-19)
(1.0009 -0.00735943 6.82224e-19)
(1.00114 -0.00716574 -9.88055e-20)
(1.00137 -0.00693955 1.76395e-20)
(1.00159 -0.00668401 -3.22644e-19)
(1.0018 -0.00640232 3.96397e-19)
(1.002 -0.00609769 -3.14648e-19)
(1.00218 -0.00577375 -2.30388e-19)
(1.00234 -0.00543453 -2.12361e-19)
(1.00248 -0.00508488 2.33833e-20)
(1.00259 -0.00473121 -9.35481e-20)
(1.00267 -0.00438155 1.33486e-19)
(1.0027 -0.004048 -5.46449e-20)
(1.00268 -0.00373722 -3.4746e-20)
(1.00256 -0.00348599 1.19343e-19)
(1.00234 -0.00336275 4.99673e-21)
(1.00215 -0.00281625 1.50037e-20)
(0.999469 -0.000419599 5.30456e-20)
(0.999492 -0.000613634 3.00059e-20)
(0.999534 -0.00077546 -9.02153e-20)
(0.999593 -0.0008803 -1.82557e-19)
(0.99967 -0.000917017 -1.83802e-20)
(0.999762 -0.000879763 2.19023e-19)
(0.999865 -0.000767748 -3.44731e-19)
(0.999974 -0.000585984 2.23303e-19)
(1.00009 -0.000345064 3.72004e-19)
(1.00019 -6.04811e-05 -9.66728e-19)
(1.0003 0.000248623 -1.19901e-18)
(1.00039 0.000560859 4.94854e-19)
(1.00046 0.000854201 4.65322e-19)
(1.00052 0.0011072 5.30098e-19)
(1.00056 0.00130072 -8.17602e-19)
(1.00058 0.00141928 1.63656e-19)
(1.00059 0.00145109 5.14456e-19)
(1.00058 0.0013895 8.92995e-19)
(1.00056 0.00123232 -7.11563e-19)
(1.00053 0.00098186 9.58116e-19)
(1.0005 0.000644977 3.23962e-19)
(1.00046 0.000230961 -8.72158e-19)
(1.00043 -0.000247236 -9.99146e-19)
(1.00041 -0.000775972 1.35916e-18)
(1.00039 -0.00133988 1.36412e-19)
(1.00039 -0.00192411 1.63598e-18)
(1.0004 -0.00251387 -2.84317e-19)
(1.00043 -0.00309582 -9.29467e-19)
(1.00047 -0.0036577 -3.52858e-19)
(1.00053 -0.00418935 4.44444e-19)
(1.00061 -0.00468205 -1.38764e-18)
(1.0007 -0.0051294 -1.69066e-19)
(1.00081 -0.00552628 6.98296e-19)
(1.00093 -0.00586988 4.34514e-20)
(1.00106 -0.00615828 -1.77761e-19)
(1.00121 -0.00639145 9.22528e-19)
(1.00136 -0.00657009 8.96465e-19)
(1.00152 -0.00669603 -2.58611e-19)
(1.00168 -0.00677179 3.68717e-19)
(1.00184 -0.00680041 -1.88829e-18)
(1.00201 -0.0067855 9.64229e-20)
(1.00217 -0.00673078 2.57843e-19)
(1.00233 -0.00664033 8.04995e-21)
(1.00248 -0.00651843 -6.89925e-20)
(1.00262 -0.00636926 -3.90746e-19)
(1.00276 -0.00619732 -3.04504e-19)
(1.00288 -0.00600711 -5.10414e-19)
(1.00299 -0.00580326 3.61825e-19)
(1.00309 -0.00559088 -1.59556e-19)
(1.00317 -0.00537496 -1.82984e-19)
(1.00323 -0.0051612 3.81814e-19)
(1.00326 -0.00495567 -1.47104e-19)
(1.00328 -0.00476481 5.71738e-20)
(1.00326 -0.00459608 1.96979e-19)
(1.00321 -0.00445646 6.65692e-20)
(1.00312 -0.00435338 6.07875e-21)
(1.00298 -0.00428368 -7.2359e-20)
(1.00278 -0.00426064 -1.1826e-19)
(1.00254 -0.00433899 3.65673e-20)
(1.00215 -0.00400909 -1.9942e-20)
(0.999363 -0.000407567 3.16447e-21)
(0.999404 -0.000530774 1.52346e-19)
(0.999464 -0.000632012 2.98153e-19)
(0.999547 -0.000681723 2.54052e-19)
(0.99965 -0.000671089 -1.08677e-18)
(0.999771 -0.000597558 3.82942e-19)
(0.999905 -0.000462865 -7.01243e-21)
(1.00005 -0.000273801 -4.73685e-19)
(1.0002 -4.19152e-05 -1.21313e-19)
(1.00035 0.000217267 5.08044e-19)
(1.0005 0.000485476 -1.84389e-19)
(1.00065 0.00074307 6.77677e-20)
(1.00078 0.000970533 9.18893e-19)
(1.0009 0.0011494 -1.4586e-18)
(1.00102 0.00126373 5.79428e-19)
(1.00112 0.00130151 -1.46685e-19)
(1.0012 0.00125426 1.91822e-19)
(1.00128 0.00111819 8.53997e-20)
(1.00135 0.000893759 -1.22929e-19)
(1.0014 0.000585207 -1.44988e-18)
(1.00146 0.000200801 4.41966e-20)
(1.0015 -0.000249291 -5.34748e-20)
(1.00155 -0.000752026 4.59479e-19)
(1.0016 -0.00129388 -3.18353e-19)
(1.00165 -0.00186034 -5.12432e-19)
(1.0017 -0.0024375 -2.69562e-18)
(1.00176 -0.00301192 9.571e-20)
(1.00183 -0.00357167 2.00951e-18)
(1.0019 -0.0041061 -4.46036e-19)
(1.00198 -0.00460649 1.26888e-18)
(1.00207 -0.00506573 -2.63798e-19)
(1.00216 -0.00547871 -6.4161e-19)
(1.00226 -0.00584175 5.29625e-19)
(1.00236 -0.00615303 -1.31556e-18)
(1.00247 -0.00641186 -1.6168e-19)
(1.00258 -0.00661887 -3.07616e-19)
(1.00269 -0.00677574 -1.43649e-18)
(1.00281 -0.00688474 1.17477e-18)
(1.00292 -0.00694901 -1.13934e-18)
(1.00302 -0.00697196 1.85586e-18)
(1.00313 -0.00695744 -6.62407e-19)
(1.00323 -0.00690954 -9.29025e-19)
(1.00332 -0.00683222 -1.92126e-19)
(1.00341 -0.00673003 1.20132e-19)
(1.00348 -0.00660689 8.64377e-19)
(1.00355 -0.00646714 -2.97225e-19)
(1.0036 -0.00631494 4.84383e-19)
(1.00365 -0.00615418 -3.58708e-19)
(1.00368 -0.00598928 -2.89544e-19)
(1.00369 -0.00582376 2.08472e-19)
(1.00369 -0.00566152 3.74229e-20)
(1.00367 -0.00550605 -3.30305e-19)
(1.00362 -0.00535998 -1.14726e-19)
(1.00356 -0.00522589 4.31067e-20)
(1.00346 -0.00510392 -2.56543e-19)
(1.00334 -0.00499289 2.0724e-19)
(1.00318 -0.00488037 6.60934e-20)
(1.00299 -0.00477091 4.27807e-20)
(1.00277 -0.00471857 1.6723e-20)
(1.00243 -0.00421449 1.35488e-20)
(0.999292 -0.000360891 -1.1947e-19)
(0.999339 -0.00044462 -7.82991e-20)
(0.999405 -0.000521016 -4.92938e-19)
(0.999493 -0.000555733 -5.87694e-19)
(0.999601 -0.000541172 8.82417e-19)
(0.999725 -0.000477506 1.67389e-19)
(0.999863 -0.000368137 4.41309e-19)
(1.00001 -0.000220557 2.52408e-19)
(1.00017 -4.61005e-05 8.52991e-19)
(1.00033 0.000140877 -1.85301e-19)
(1.00049 0.00032412 1.28264e-18)
(1.00065 0.000486738 -2.57769e-18)
(1.0008 0.000612559 9.21863e-20)
(1.00095 0.000686714 1.4142e-18)
(1.0011 0.000696659 -2.92738e-19)
(1.00123 0.000633935 1.09795e-18)
(1.00137 0.000493285 -1.24065e-18)
(1.00149 0.000273198 -6.48431e-19)
(1.00161 -2.36599e-05 9.5147e-19)
(1.00172 -0.000391799 9.80509e-19)
(1.00183 -0.000822365 6.38062e-19)
(1.00193 -0.00130483 -1.72891e-18)
(1.00203 -0.001827 -6.90539e-19)
(1.00213 -0.00237588 6.84131e-19)
(1.00223 -0.00293849 8.09658e-19)
(1.00233 -0.00350217 7.76767e-19)
(1.00242 -0.00405527 5.97039e-19)
(1.00252 -0.00458734 -4.03246e-19)
(1.00262 -0.0050895 1.04016e-18)
(1.00272 -0.00555443 -4.16247e-19)
(1.00282 -0.00597655 -4.62508e-19)
(1.00292 -0.00635181 -7.43681e-19)
(1.00301 -0.00667781 -7.85707e-19)
(1.00311 -0.00695332 -1.36715e-18)
(1.00321 -0.00717867 -4.43823e-19)
(1.0033 -0.00735464 9.2986e-19)
(1.0034 -0.0074836 1.32485e-18)
(1.00349 -0.00756776 -2.80129e-19)
(1.00357 -0.00761047 1.11422e-18)
(1.00365 -0.00761505 -3.5638e-19)
(1.00373 -0.00758512 1.11452e-18)
(1.00379 -0.00752462 -3.1193e-21)
(1.00385 -0.00743692 -7.22939e-19)
(1.00391 -0.0073263 -6.47268e-19)
(1.00395 -0.00719591 2.1076e-19)
(1.00399 -0.00704942 8.26937e-20)
(1.00401 -0.00689018 -8.44189e-20)
(1.00402 -0.00672092 -3.12514e-19)
(1.00402 -0.00654505 -9.23986e-20)
(1.00401 -0.00636461 2.84424e-19)
(1.00398 -0.00618193 1.10326e-19)
(1.00394 -0.00599875 1.82357e-19)
(1.00388 -0.0058157 -3.77621e-21)
(1.0038 -0.00563349 -3.59553e-19)
(1.0037 -0.00545048 2.03755e-19)
(1.00357 -0.00526461 -2.32866e-19)
(1.00341 -0.00506485 -3.01623e-21)
(1.00323 -0.00485965 -8.4689e-21)
(1.00302 -0.00471315 -2.67414e-20)
(1.00274 -0.00411875 -3.63947e-21)
(0.999237 -0.00029736 1.1047e-19)
(0.99928 -0.000361872 3.9589e-20)
(0.999341 -0.000444436 3.68609e-19)
(0.999423 -0.000496415 -6.84646e-20)
(0.999522 -0.000510661 1.60659e-20)
(0.999634 -0.000489699 -9.10556e-19)
(0.999758 -0.000437877 -1.13176e-18)
(0.999891 -0.000362552 7.76713e-19)
(1.00003 -0.000274002 -2.03833e-18)
(1.00018 -0.000184659 7.08608e-19)
(1.00033 -0.000108138 -1.27953e-18)
(1.00048 -5.812e-05 3.6126e-19)
(1.00064 -4.71579e-05 5.15219e-19)
(1.0008 -8.64319e-05 9.72387e-19)
(1.00095 -0.000185263 -5.32921e-19)
(1.00111 -0.000348832 -3.36269e-19)
(1.00126 -0.00057955 -3.30364e-19)
(1.00142 -0.000877251 -1.30297e-19)
(1.00157 -0.0012376 -1.16389e-19)
(1.00172 -0.00165443 6.26243e-19)
(1.00187 -0.00211893 -1.96143e-18)
(1.00201 -0.00262066 1.76274e-18)
(1.00215 -0.00314881 1.17559e-18)
(1.00229 -0.00369123 -2.20595e-18)
(1.00243 -0.00423677 2.96465e-19)
(1.00257 -0.00477421 -1.68436e-19)
(1.0027 -0.0052938 5.48078e-19)
(1.00282 -0.0057866 -2.45128e-19)
(1.00295 -0.00624544 -3.64311e-19)
(1.00307 -0.0066643 -6.79068e-19)
(1.00319 -0.00703901 3.12944e-19)
(1.0033 -0.0073664 1.52422e-18)
(1.00341 -0.00764516 1.63481e-18)
(1.00351 -0.00787446 2.27207e-18)
(1.00361 -0.00805538 -1.36389e-18)
(1.00371 -0.00818875 6.02861e-20)
(1.0038 -0.00827734 6.32183e-19)
(1.00388 -0.00832321 -5.34578e-19)
(1.00396 -0.00832972 -1.54985e-19)
(1.00403 -0.00829998 -1.18685e-18)
(1.00409 -0.00823728 -3.27427e-19)
(1.00415 -0.00814535 5.64866e-19)
(1.0042 -0.00802699 1.19545e-19)
(1.00424 -0.00788621 1.09317e-18)
(1.00428 -0.00772555 -1.00079e-19)
(1.0043 -0.00754819 -5.23181e-19)
(1.00431 -0.00735694 -3.33199e-19)
(1.00431 -0.00715391 5.40207e-19)
(1.00431 -0.00694204 -1.40241e-19)
(1.00428 -0.00672273 -3.07243e-19)
(1.00425 -0.00649785 9.86912e-21)
(1.0042 -0.00626873 3.81533e-20)
(1.00413 -0.00603571 3.29508e-19)
(1.00404 -0.00579964 -5.80303e-20)
(1.00394 -0.00555929 -1.72575e-19)
(1.00381 -0.0053138 5.42955e-19)
(1.00365 -0.00505444 -1.4412e-19)
(1.00347 -0.0047928 1.08472e-19)
(1.00327 -0.00459778 -4.3862e-20)
(1.00303 -0.00396019 -2.38598e-20)
(0.999169 -0.000222421 -1.35004e-19)
(0.99921 -0.000289498 8.83399e-20)
(0.999261 -0.000404798 -1.75989e-19)
(0.999331 -0.000499652 3.63255e-19)
(0.999414 -0.000566722 3.52078e-19)
(0.999508 -0.000610569 6.19304e-20)
(0.999611 -0.000635951 1.13603e-18)
(0.999723 -0.00064949 -7.84769e-19)
(0.999844 -0.000659908 9.34276e-19)
(0.999972 -0.000677363 -1.78271e-18)
(1.00011 -0.000712649 1.47124e-18)
(1.00025 -0.000776236 3.62602e-19)
(1.0004 -0.000877225 -5.73912e-20)
(1.00055 -0.00102343 -1.458e-18)
(1.00071 -0.0012214 2.81903e-20)
(1.00088 -0.00147358 5.82247e-19)
(1.00105 -0.00178011 4.49184e-19)
(1.00123 -0.00213976 -2.02837e-19)
(1.0014 -0.0025471 2.3576e-19)
(1.00158 -0.0029958 4.54482e-19)
(1.00176 -0.00347758 4.92007e-19)
(1.00194 -0.00398244 -1.63823e-18)
(1.00211 -0.00450122 2.96546e-19)
(1.00229 -0.00502284 -1.7382e-20)
(1.00246 -0.0055381 8.18183e-19)
(1.00263 -0.00603722 -1.24249e-18)
(1.00279 -0.00651233 -1.37083e-18)
(1.00294 -0.00695594 -1.05577e-18)
(1.0031 -0.00736247 1.27043e-19)
(1.00324 -0.00772708 -5.26049e-19)
(1.00338 -0.00804682 -4.08744e-19)
(1.00351 -0.0083193 -1.5228e-18)
(1.00363 -0.00854407 -1.98835e-18)
(1.00375 -0.00872063 -2.17331e-19)
(1.00386 -0.00885066 8.1495e-20)
(1.00397 -0.00893497 7.60094e-19)
(1.00406 -0.00897661 -1.15694e-18)
(1.00415 -0.00897747 -8.22123e-19)
(1.00423 -0.00894089 -7.6037e-19)
(1.00431 -0.00886977 3.61494e-19)
(1.00437 -0.00876715 -2.69764e-19)
(1.00443 -0.00863659 -4.1856e-19)
(1.00448 -0.00848046 2.60244e-20)
(1.00452 -0.00830265 -1.35523e-19)
(1.00455 -0.00810528 -7.87407e-19)
(1.00457 -0.00789129 -2.66487e-19)
(1.00458 -0.00766326 1.09179e-18)
(1.00458 -0.00742299 -8.85492e-19)
(1.00456 -0.00717334 3.95653e-19)
(1.00454 -0.0069155 8.7339e-19)
(1.0045 -0.00665131 -2.84023e-19)
(1.00444 -0.00638214 2.77408e-20)
(1.00437 -0.0061084 1.43218e-19)
(1.00428 -0.00583132 4.08967e-19)
(1.00417 -0.00555011 -1.50956e-20)
(1.00404 -0.00526463 -2.34582e-19)
(1.00389 -0.00496747 2.95751e-20)
(1.0037 -0.00467115 9.59505e-20)
(1.00351 -0.00444844 -3.76493e-20)
(1.0033 -0.00378418 -2.14483e-20)
(0.99907 -0.000149833 4.76101e-20)
(0.999116 -0.00023452 4.57501e-20)
(0.999155 -0.000399953 2.6039e-19)
(0.999212 -0.000555577 1.30985e-19)
(0.999279 -0.00069097 -3.32975e-19)
(0.999354 -0.000812269 1.62005e-18)
(0.999437 -0.000924268 -2.09117e-18)
(0.999529 -0.0010325 9.22795e-19)
(0.999629 -0.00114393 -5.91556e-19)
(0.99974 -0.00126639 7.41209e-20)
(0.999861 -0.00140799 4.81774e-19)
(0.999992 -0.0015763 -6.52737e-19)
(1.00014 -0.00177737 -5.60339e-19)
(1.00029 -0.00201618 -1.21618e-18)
(1.00045 -0.00229711 -1.39158e-18)
(1.00063 -0.00262048 -4.97147e-19)
(1.00081 -0.00298479 3.16116e-19)
(1.001 -0.00338826 5.80874e-19)
(1.0012 -0.00382492 -1.89107e-18)
(1.0014 -0.00428866 1.30869e-18)
(1.0016 -0.00477205 1.51499e-19)
(1.00181 -0.0052658 1.38027e-18)
(1.00202 -0.00576251 1.06857e-18)
(1.00222 -0.00625226 1.35463e-18)
(1.00242 -0.00672773 -1.51053e-18)
(1.00261 -0.00718058 -1.10516e-18)
(1.0028 -0.00760465 9.43878e-19)
(1.00299 -0.0079938 1.12332e-18)
(1.00316 -0.00834386 -9.30097e-19)
(1.00333 -0.00865101 -4.14502e-19)
(1.00349 -0.00891339 2.78254e-18)
(1.00364 -0.0091292 -5.02285e-19)
(1.00379 -0.00929874 6.29259e-19)
(1.00392 -0.00942177 -5.54117e-19)
(1.00404 -0.0095004 -1.43998e-19)
(1.00416 -0.00953542 3.24113e-19)
(1.00427 -0.00953007 8.97301e-19)
(1.00436 -0.00948609 -3.0208e-20)
(1.00445 -0.00940677 7.24795e-19)
(1.00453 -0.00929485 2.12123e-19)
(1.0046 -0.00915317 3.20347e-19)
(1.00466 -0.00898514 -1.11587e-19)
(1.00472 -0.00879284 -6.36832e-19)
(1.00476 -0.00858007 -4.52242e-19)
(1.00479 -0.0083487 1.45889e-18)
(1.00481 -0.0081015 -3.49654e-19)
(1.00482 -0.00784094 -2.76161e-19)
(1.00482 -0.00756864 -2.79871e-19)
(1.00481 -0.00728747 -1.83214e-19)
(1.00478 -0.00699849 5.58e-20)
(1.00474 -0.00670355 -2.78303e-19)
(1.00468 -0.00640406 -2.65853e-19)
(1.00461 -0.0061004 -2.07206e-19)
(1.00451 -0.00579404 -1.36072e-19)
(1.0044 -0.0054843 2.3518e-19)
(1.00427 -0.00517141 -1.30616e-19)
(1.00412 -0.00484856 -1.4868e-19)
(1.00394 -0.0045289 1.38271e-19)
(1.00375 -0.00428758 -2.55815e-21)
(1.00355 -0.00360415 3.04111e-20)
(0.998935 -8.03855e-05 -4.34545e-20)
(0.998989 -0.00019869 -3.54987e-19)
(0.999016 -0.000424261 -3.89339e-19)
(0.99906 -0.000651302 -1.14541e-19)
(0.999113 -0.000863079 -5.98669e-19)
(0.999172 -0.00106685 -1.36974e-18)
(0.99924 -0.00126724 8.49434e-19)
(0.999316 -0.00146853 1.33938e-20)
(0.999402 -0.00167593 -3.73708e-20)
(0.9995 -0.00189514 1.26888e-19)
(0.999612 -0.00213189 -1.35461e-18)
(0.999737 -0.00239125 4.26081e-19)
(0.999877 -0.00267678 -5.33108e-19)
(1.00003 -0.00299124 1.98613e-18)
(1.0002 -0.00333739 3.1734e-18)
(1.00038 -0.00371404 4.05798e-19)
(1.00058 -0.00411858 3.13209e-20)
(1.00078 -0.00454919 -2.79766e-20)
(1.001 -0.00499969 4.09064e-19)
(1.00122 -0.00546454 -1.33812e-18)
(1.00145 -0.00593731 -1.56724e-19)
(1.00168 -0.00640959 1.26793e-18)
(1.00191 -0.00687569 -2.4476e-18)
(1.00214 -0.00732687 3.50446e-19)
(1.00236 -0.00775754 -5.06594e-19)
(1.00258 -0.00816073 3.22071e-18)
(1.0028 -0.00853178 -5.92941e-19)
(1.003 -0.00886574 -4.96326e-19)
(1.0032 -0.00915967 6.04777e-20)
(1.00339 -0.00941062 1.16661e-18)
(1.00357 -0.00961759 -6.05432e-19)
(1.00374 -0.00977933 -1.05438e-18)
(1.0039 -0.0098967 5.39675e-19)
(1.00405 -0.00996962 -1.33981e-18)
(1.00419 -0.0100006 1.86215e-18)
(1.00432 -0.00999025 6.0412e-19)
(1.00444 -0.00994207 -1.00552e-18)
(1.00455 -0.00985759 2.55638e-19)
(1.00464 -0.00974004 1.03782e-18)
(1.00473 -0.009592 5.20288e-20)
(1.00481 -0.00941613 -8.30882e-19)
(1.00488 -0.00921571 1.1498e-18)
(1.00493 -0.00899256 -1.16333e-18)
(1.00498 -0.00875044 1.12962e-18)
(1.00502 -0.00849097 -1.17969e-18)
(1.00504 -0.0082168 8.75038e-20)
(1.00505 -0.00793028 2.21588e-19)
(1.00505 -0.00763285 8.89654e-19)
(1.00504 -0.00732742 6.17223e-19)
(1.00501 -0.00701484 -1.07036e-18)
(1.00497 -0.00669693 1.22556e-19)
(1.00491 -0.00637504 2.51116e-19)
(1.00483 -0.00604944 -1.08726e-18)
(1.00474 -0.00572171 7.30625e-19)
(1.00463 -0.00539115 -2.29481e-20)
(1.00449 -0.00505812 3.35565e-20)
(1.00434 -0.00471634 1.72826e-19)
(1.00416 -0.00437902 -4.14554e-19)
(1.00398 -0.00412395 9.33719e-20)
(1.0038 -0.0034242 3.09576e-20)
(0.998763 -1.69749e-05 1.60678e-19)
(0.998826 -0.000180346 2.17605e-19)
(0.99884 -0.000470753 -3.07036e-19)
(0.998874 -0.00077402 2.22851e-19)
(0.998916 -0.00106445 5.8003e-19)
(0.998964 -0.00135017 6.32775e-19)
(0.999021 -0.00163552 -2.14101e-19)
(0.999087 -0.00192358 -6.27332e-20)
(0.999165 -0.00221793 6.45342e-19)
(0.999257 -0.0025224 -1.72382e-19)
(0.999365 -0.00284077 1.25119e-18)
(0.999489 -0.00317609 -4.38539e-19)
(0.999631 -0.00352996 7.29779e-19)
(0.99979 -0.00390346 -8.66645e-19)
(0.999967 -0.00429832 -7.53365e-19)
(1.00016 -0.00471227 -4.58202e-19)
(1.00037 -0.00514212 1.93066e-18)
(1.00059 -0.00558628 1.44977e-19)
(1.00082 -0.0060387 -8.58373e-19)
(1.00106 -0.00649454 1.57152e-18)
(1.00131 -0.00694848 3.43504e-19)
(1.00156 -0.00739301 -1.90596e-18)
(1.00181 -0.00782408 1.78189e-18)
(1.00206 -0.00823403 1.02685e-18)
(1.00231 -0.00861886 1.3574e-18)
(1.00255 -0.00897277 -1.6616e-18)
(1.00278 -0.00929243 -7.62155e-20)
(1.00301 -0.00957391 -1.93572e-18)
(1.00323 -0.00981528 2.10526e-18)
(1.00344 -0.0100143 -9.35316e-19)
(1.00364 -0.0101707 1.39117e-19)
(1.00382 -0.0102836 -6.80632e-19)
(1.004 -0.0103544 -8.05112e-19)
(1.00416 -0.010383 1.49893e-18)
(1.00432 -0.0103722 -4.49086e-19)
(1.00446 -0.0103226 -1.17704e-18)
(1.00459 -0.0102376 -3.48676e-19)
(1.00471 -0.0101187 1.08743e-18)
(1.00482 -0.009969 6.07472e-19)
(1.00491 -0.00979093 -2.20363e-19)
(1.005 -0.00958694 8.80459e-19)
(1.00507 -0.00936022 -1.11432e-18)
(1.00513 -0.0091123 6.35475e-19)
(1.00519 -0.00884693 2.38102e-19)
(1.00522 -0.00856542 2.46397e-19)
(1.00525 -0.00827034 -1.01955e-18)
(1.00527 -0.0079639 7.33107e-19)
(1.00527 -0.00764734 -1.48877e-18)
(1.00525 -0.00732355 1.37112e-21)
(1.00523 -0.00699317 8.75678e-19)
(1.00518 -0.00665793 2.95162e-19)
(1.00512 -0.00631907 4.84467e-19)
(1.00505 -0.00597672 8.57364e-19)
(1.00496 -0.00563253 -9.54623e-19)
(1.00484 -0.0052857 3.793e-19)
(1.00471 -0.00493672 1.85625e-19)
(1.00456 -0.00457966 -1.75321e-20)
(1.00439 -0.00422789 1.40963e-19)
(1.0042 -0.00396093 -2.15812e-19)
(1.00404 -0.00324645 -1.09139e-20)
(0.998551 4.51044e-05 -2.17973e-19)
(0.998622 -0.000176167 -1.47386e-19)
(0.998625 -0.000532551 4.82086e-19)
(0.998652 -0.000912394 3.59447e-19)
(0.998687 -0.00127957 -2.29253e-19)
(0.998729 -0.00164295 -2.47843e-19)
(0.998779 -0.00200665 7.69526e-19)
(0.998842 -0.00237265 1.78361e-19)
(0.998918 -0.00274312 4.15259e-19)
(0.999009 -0.00312039 4.58625e-19)
(0.999119 -0.00350665 -1.41993e-18)
(0.999247 -0.00390341 2.48796e-18)
(0.999395 -0.00431079 -5.83887e-19)
(0.999562 -0.00472872 1.66597e-18)
(0.999749 -0.00515827 -1.4307e-18)
(0.999954 -0.00559655 1.17262e-18)
(1.00018 -0.0060401 -2.21596e-18)
(1.00041 -0.00648779 1.4363e-18)
(1.00066 -0.00693387 -2.95513e-19)
(1.00092 -0.00737432 -2.60443e-18)
(1.00118 -0.00780487 1.30183e-18)
(1.00145 -0.00821891 -3.38424e-19)
(1.00172 -0.00861387 -4.40117e-19)
(1.00199 -0.00898308 1.05408e-20)
(1.00225 -0.00932392 -1.83985e-18)
(1.00251 -0.00963157 -7.8815e-20)
(1.00277 -0.00990386 2.33583e-19)
(1.00301 -0.0101377 1.47488e-18)
(1.00325 -0.0103319 -2.34619e-18)
(1.00347 -0.0104849 7.89486e-19)
(1.00369 -0.010597 -8.10523e-19)
(1.00389 -0.0106675 -9.40123e-20)
(1.00408 -0.0106982 -4.34924e-19)
(1.00426 -0.0106891 9.04842e-19)
(1.00443 -0.0106431 -3.39785e-19)
(1.00458 -0.0105606 8.2247e-19)
(1.00472 -0.0104453 -5.25178e-20)
(1.00485 -0.0102981 -7.89206e-19)
(1.00497 -0.0101224 2.57562e-20)
(1.00507 -0.00992019 1.86598e-19)
(1.00517 -0.00969384 -4.42778e-19)
(1.00525 -0.0094464 -4.6904e-20)
(1.00532 -0.00917911 2.38151e-19)
(1.00537 -0.00889569 1.48783e-18)
(1.00542 -0.00859718 -4.41048e-19)
(1.00545 -0.00828604 2.8574e-20)
(1.00547 -0.00796431 2.30258e-19)
(1.00547 -0.00763302 2.09183e-19)
(1.00546 -0.00729505 -5.16337e-19)
(1.00543 -0.00695078 -4.39598e-20)
(1.00539 -0.00660187 -3.56912e-19)
(1.00534 -0.00624946 -6.53339e-19)
(1.00526 -0.00589348 -1.19672e-19)
(1.00517 -0.00553568 8.76031e-19)
(1.00506 -0.00517517 -2.04548e-19)
(1.00493 -0.00481254 -3.0294e-19)
(1.00478 -0.00444224 -6.83112e-21)
(1.00461 -0.00407746 -4.85558e-20)
(1.00443 -0.00379971 1.26707e-19)
(1.00427 -0.00307077 1.56645e-20)
(0.998299 0.000100791 2.56736e-19)
(0.998377 -0.00018367 2.46665e-19)
(0.998372 -0.00060368 -4.79656e-20)
(0.998393 -0.00105723 -4.30368e-19)
(0.998425 -0.00149652 -4.43569e-19)
(0.998464 -0.00193104 -5.3077e-19)
(0.998515 -0.00236484 -2.09079e-19)
(0.998578 -0.00279894 -5.11667e-19)
(0.998656 -0.00323441 6.12703e-19)
(0.998753 -0.00367236 -5.71633e-19)
(0.998868 -0.0041138 2.015e-18)
(0.999005 -0.0045591 -1.8548e-18)
(0.999162 -0.00500732 -3.86438e-19)
(0.99934 -0.00545761 5.09174e-19)
(0.999539 -0.00591077 7.08821e-19)
(0.999757 -0.00636353 -9.99259e-19)
(0.999992 -0.00681242 1.40312e-18)
(1.00024 -0.00725692 6.19318e-19)
(1.00051 -0.00769164 -4.48447e-19)
(1.00078 -0.00811338 1.22473e-18)
(1.00106 -0.00851889 1.06517e-18)
(1.00134 -0.00890236 -1.21577e-18)
(1.00163 -0.00926256 -1.08864e-18)
(1.00191 -0.00959362 1.38541e-18)
(1.0022 -0.00989414 1.93297e-18)
(1.00247 -0.0101601 -9.54973e-20)
(1.00274 -0.0103903 1.19866e-18)
(1.003 -0.0105823 3.9908e-20)
(1.00326 -0.0107356 -5.71978e-19)
(1.0035 -0.010849 -3.36862e-19)
(1.00373 -0.0109233 2.49089e-18)
(1.00394 -0.0109581 -5.7591e-19)
(1.00415 -0.0109553 1.3438e-18)
(1.00434 -0.0109148 3.72865e-19)
(1.00452 -0.0108398 -1.90623e-18)
(1.00468 -0.0107305 1.17753e-18)
(1.00484 -0.0105906 -3.01137e-19)
(1.00498 -0.0104208 5.46947e-19)
(1.0051 -0.0102243 -5.32316e-19)
(1.00522 -0.010003 -2.41592e-18)
(1.00532 -0.00975911 -8.57937e-19)
(1.00541 -0.00949546 6.88631e-19)
(1.00549 -0.00921305 6.21614e-19)
(1.00555 -0.00891559 4.23923e-19)
(1.0056 -0.00860382 -2.77561e-19)
(1.00564 -0.00828008 1.07743e-18)
(1.00566 -0.00794629 -6.36579e-19)
(1.00567 -0.00760323 1.02779e-18)
(1.00566 -0.00725381 -2.67808e-19)
(1.00563 -0.00689813 -5.70987e-19)
(1.0056 -0.00653778 7.32213e-19)
(1.00554 -0.00617383 -2.48452e-19)
(1.00547 -0.00580603 -5.05118e-19)
(1.00538 -0.00543626 -4.44078e-19)
(1.00527 -0.00506354 4.34875e-20)
(1.00514 -0.00468856 2.20258e-20)
(1.005 -0.00430605 1.17702e-19)
(1.00483 -0.00392916 1.90042e-19)
(1.00465 -0.00364068 -6.39399e-20)
(1.0045 -0.00289763 5.01653e-20)
(0.998011 0.000153991 -1.06518e-19)
(0.998094 -0.000199304 -1.94343e-19)
(0.998081 -0.0006791 3.3759e-20)
(0.9981 -0.00120154 1.78481e-19)
(0.998131 -0.00170671 2.46089e-19)
(0.998172 -0.0022048 8.35163e-19)
(0.998225 -0.0026999 -9.08502e-19)
(0.998294 -0.00319231 -2.54038e-19)
(0.998379 -0.00368223 -1.0468e-18)
(0.998483 -0.00416989 6.27221e-19)
(0.998609 -0.00465544 -1.01621e-18)
(0.998756 -0.00513844 1.46859e-18)
(0.998926 -0.00561721 -1.21214e-18)
(0.999117 -0.00609045 -1.12918e-18)
(0.999329 -0.00655891 -2.61982e-19)
(0.999561 -0.00701917 1.20103e-18)
(0.999811 -0.00746785 -1.96984e-18)
(1.00008 -0.00790514 -8.05804e-19)
(1.00035 -0.00832603 -5.81461e-20)
(1.00064 -0.00872808 3.5326e-19)
(1.00094 -0.00910898 -1.34563e-18)
(1.00124 -0.00946359 8.33282e-19)
(1.00154 -0.00979189 1.055e-18)
(1.00184 -0.0100886 8.06295e-19)
(1.00213 -0.0103535 -9.88343e-19)
(1.00243 -0.010583 -1.70874e-18)
(1.00271 -0.0107768 -1.30758e-18)
(1.00299 -0.0109329 7.00011e-20)
(1.00325 -0.0110515 1.38089e-18)
(1.00351 -0.0111317 6.12359e-19)
(1.00375 -0.0111745 -5.31218e-19)
(1.00398 -0.0111796 4.9516e-19)
(1.0042 -0.0111491 7.03549e-19)
(1.0044 -0.011083 -1.91065e-18)
(1.00459 -0.0109846 6.73804e-19)
(1.00477 -0.0108536 -9.68225e-19)
(1.00494 -0.0106939 1.11026e-18)
(1.00509 -0.0105061 2.11702e-19)
(1.00523 -0.0102931 -1.3253e-19)
(1.00535 -0.0100567 1.58819e-18)
(1.00546 -0.00979884 -6.23075e-19)
(1.00556 -0.00952235 3.1932e-19)
(1.00564 -0.00922792 -2.02217e-19)
(1.00571 -0.00891925 3.56161e-19)
(1.00577 -0.00859678 -4.57865e-19)
(1.00581 -0.00826277 -1.10293e-18)
(1.00584 -0.00791898 2.32525e-19)
(1.00585 -0.00756601 2.47284e-19)
(1.00585 -0.00720677 8.49236e-19)
(1.00583 -0.00684112 -2.16034e-19)
(1.00579 -0.00647062 -7.93495e-19)
(1.00574 -0.00609624 2.09407e-19)
(1.00567 -0.00571761 6.06293e-20)
(1.00558 -0.00533675 7.74324e-19)
(1.00548 -0.00495259 -4.4177e-19)
(1.00536 -0.0045659 4.69082e-19)
(1.00521 -0.00417173 -1.36563e-19)
(1.00504 -0.00378294 -1.08224e-19)
(1.00487 -0.00348381 -1.48956e-19)
(1.00473 -0.00272648 -4.51251e-20)
(0.997691 0.00020291 2.86671e-20)
(0.997774 -0.000219983 -1.10315e-19)
(0.997756 -0.000754982 2.88866e-19)
(0.997775 -0.00134046 3.03047e-19)
(0.997808 -0.00190463 -9.491e-21)
(0.997853 -0.00245845 1.16328e-19)
(0.997912 -0.00300628 1.56228e-18)
(0.997988 -0.00354787 1.46849e-18)