1.45 	0 	0 	-0.118188
2.35 	0 	0 	0.0283895
