1.45 	0 	0 	0.0304623 	-0.00633282 	3.73209e-21
2.35 	0 	0 	0.213933 	-0.0111371 	8.93049e-22
