/*--------------------------------*- C++ -*----------------------------------*\
  =========                 |
  \\      /  F ield         | OpenFOAM: The Open Source CFD Toolbox
   \\    /   O peration     | Website:  https://openfoam.org
    \\  /    A nd           | Version:  6.0
     \\/     M anipulation  |
\*---------------------------------------------------------------------------*/
FoamFile
{
    version     2.0;
    format      ascii;
    class       volScalarField;
    location    "3.7";
    object      p;
}
// * * * * * * * * * * * * * * * * * * * * * * * * * * * * * * * * * * * * * //

dimensions      [0 2 -2 0 0 0 0];

internalField   nonuniform List<scalar> 
24000
(
1.00681
1.00685
1.00647
1.00584
1.00488
1.00384
1.0028
1.00189
1.00112
1.00056
1.0001
0.999791
1.00682
1.00691
1.00664
1.00613
1.00529
1.00432
1.00328
1.00231
1.00143
1.00075
1.00013
0.999715
1.00682
1.00689
1.00659
1.00605
1.0052
1.00423
1.0032
1.00225
1.00139
1.00075
1.00013
0.999753
1.00682
1.00687
1.00654
1.00597
1.0051
1.00413
1.00312
1.0022
1.00137
1.00075
1.00013
0.999771
1.00682
1.00687
1.00654
1.00597
1.0051
1.00415
1.00314
1.00223
1.0014
1.00077
1.00013
0.999748
1.00682
1.00688
1.00655
1.00599
1.00513
1.00417
1.00317
1.00225
1.00141
1.00077
1.00011
0.999714
1.00683
1.00688
1.00656
1.006
1.00514
1.00418
1.00318
1.00225
1.00141
1.00076
1.00009
0.99969
1.00684
1.00688
1.00657
1.00602
1.00516
1.0042
1.0032
1.00227
1.00143
1.00077
1.0001
0.999679
1.00684
1.00689
1.00658
1.00604
1.0052
1.00425
1.00325
1.00232
1.00147
1.00081
1.00011
0.99967
1.00685
1.00689
1.00659
1.00606
1.00523
1.00429
1.00329
1.00237
1.00151
1.00083
1.00012
0.999657
1.00686
1.0069
1.0066
1.00607
1.00525
1.00432
1.00333
1.0024
1.00153
1.00085
1.00012
0.999637
1.00687
1.0069
1.0066
1.00608
1.00527
1.00433
1.00334
1.00241
1.00154
1.00085
1.00011
0.999617
1.00688
1.00691
1.0066
1.00609
1.00528
1.00435
1.00336
1.00243
1.00155
1.00085
1.0001
0.999599
1.00689
1.00691
1.00661
1.00609
1.00529
1.00436
1.00338
1.00244
1.00156
1.00085
1.0001
0.999584
1.0069
1.00692
1.00662
1.0061
1.0053
1.00438
1.0034
1.00246
1.00158
1.00086
1.0001
0.999571
1.00691
1.00693
1.00663
1.00611
1.00531
1.0044
1.00342
1.00248
1.00159
1.00087
1.0001
0.99956
1.00692
1.00695
1.00664
1.00612
1.00532
1.00442
1.00344
1.0025
1.00161
1.00088
1.0001
0.999549
1.00694
1.00696
1.00666
1.00614
1.00534
1.00444
1.00346
1.00252
1.00163
1.00089
1.0001
0.99954
1.00695
1.00698
1.00668
1.00616
1.00536
1.00446
1.00349
1.00255
1.00165
1.0009
1.00011
0.999531
1.00697
1.007
1.0067
1.00618
1.00539
1.00449
1.00351
1.00257
1.00167
1.00091
1.00011
0.999522
1.00698
1.00702
1.00673
1.00621
1.00542
1.00452
1.00355
1.0026
1.00169
1.00092
1.00011
0.999514
1.007
1.00704
1.00675
1.00624
1.00545
1.00455
1.00358
1.00263
1.00171
1.00094
1.00012
0.999506
1.00702
1.00706
1.00678
1.00627
1.00548
1.00459
1.00361
1.00266
1.00173
1.00095
1.00012
0.999498
1.00703
1.00708
1.0068
1.00629
1.00551
1.00462
1.00364
1.00268
1.00175
1.00096
1.00012
0.99949
1.00705
1.0071
1.00682
1.00632
1.00554
1.00465
1.00367
1.00271
1.00177
1.00097
1.00013
0.999482
1.00707
1.00712
1.00684
1.00634
1.00557
1.00468
1.0037
1.00273
1.00179
1.00098
1.00013
0.999475
1.00709
1.00714
1.00686
1.00637
1.0056
1.00471
1.00373
1.00276
1.00181
1.00099
1.00013
0.999467
1.00711
1.00716
1.00689
1.00639
1.00562
1.00474
1.00375
1.00278
1.00183
1.001
1.00014
0.99946
1.00713
1.00718
1.00691
1.00642
1.00565
1.00477
1.00378
1.00281
1.00184
1.00101
1.00014
0.999452
1.00715
1.0072
1.00693
1.00644
1.00568
1.00479
1.00381
1.00283
1.00186
1.00102
1.00014
0.999445
1.00718
1.00723
1.00696
1.00647
1.00571
1.00482
1.00384
1.00285
1.00188
1.00102
1.00014
0.999436
1.0072
1.00725
1.00698
1.0065
1.00574
1.00485
1.00387
1.00288
1.0019
1.00103
1.00014
0.999428
1.00722
1.00727
1.007
1.00652
1.00577
1.00488
1.00389
1.0029
1.00191
1.00104
1.00014
0.999419
1.00725
1.0073
1.00703
1.00655
1.00579
1.00491
1.00392
1.00292
1.00193
1.00104
1.00014
0.99941
1.00728
1.00733
1.00706
1.00658
1.00582
1.00494
1.00394
1.00294
1.00194
1.00105
1.00014
0.999401
1.0073
1.00735
1.00708
1.0066
1.00585
1.00497
1.00397
1.00296
1.00195
1.00105
1.00014
0.999393
1.00733
1.00738
1.00711
1.00663
1.00588
1.00499
1.004
1.00298
1.00197
1.00106
1.00014
0.999384
1.00736
1.00742
1.00715
1.00667
1.00591
1.00502
1.00402
1.003
1.00198
1.00106
1.00014
0.999375
1.0074
1.00745
1.00718
1.0067
1.00594
1.00506
1.00405
1.00303
1.002
1.00107
1.00014
0.999366
1.00743
1.00748
1.00722
1.00674
1.00598
1.00509
1.00408
1.00305
1.00202
1.00108
1.00014
0.999356
1.00746
1.00752
1.00725
1.00677
1.00601
1.00512
1.00411
1.00308
1.00203
1.00108
1.00014
0.999346
1.0075
1.00756
1.00729
1.00681
1.00605
1.00516
1.00414
1.0031
1.00205
1.00109
1.00014
0.999335
1.00753
1.00759
1.00733
1.00686
1.00609
1.0052
1.00418
1.00313
1.00207
1.0011
1.00013
0.999324
1.00757
1.00763
1.00737
1.0069
1.00613
1.00524
1.00421
1.00315
1.00208
1.0011
1.00013
0.999312
1.0076
1.00767
1.00741
1.00694
1.00618
1.00528
1.00424
1.00318
1.0021
1.00111
1.00013
0.999299
1.00764
1.00771
1.00745
1.00698
1.00622
1.00531
1.00428
1.0032
1.00212
1.00111
1.00012
0.999285
1.00768
1.00775
1.00749
1.00702
1.00626
1.00535
1.00431
1.00323
1.00213
1.00111
1.00012
0.99927
1.00772
1.00779
1.00754
1.00706
1.0063
1.00539
1.00434
1.00325
1.00214
1.00112
1.00011
0.999255
1.00776
1.00783
1.00758
1.00711
1.00634
1.00543
1.00437
1.00328
1.00216
1.00112
1.00011
0.999239
1.0078
1.00787
1.00762
1.00715
1.00638
1.00546
1.0044
1.0033
1.00217
1.00112
1.0001
0.999221
1.00784
1.00792
1.00766
1.00719
1.00642
1.0055
1.00444
1.00332
1.00218
1.00112
1.00009
0.999204
1.00789
1.00796
1.00771
1.00724
1.00646
1.00554
1.00447
1.00334
1.0022
1.00112
1.00008
0.999185
1.00793
1.00801
1.00775
1.00728
1.00651
1.00558
1.0045
1.00337
1.00221
1.00112
1.00007
0.999165
1.00798
1.00805
1.0078
1.00733
1.00655
1.00562
1.00453
1.00339
1.00222
1.00112
1.00006
0.999145
1.00802
1.0081
1.00785
1.00738
1.00659
1.00566
1.00456
1.00341
1.00223
1.00112
1.00005
0.999124
1.00807
1.00815
1.0079
1.00742
1.00664
1.0057
1.0046
1.00343
1.00224
1.00112
1.00004
0.999103
1.00812
1.0082
1.00795
1.00747
1.00668
1.00574
1.00463
1.00346
1.00225
1.00112
1.00003
0.999081
1.00817
1.00826
1.008
1.00753
1.00673
1.00578
1.00466
1.00348
1.00226
1.00112
1.00001
0.999059
1.00822
1.00831
1.00805
1.00758
1.00678
1.00582
1.00469
1.0035
1.00227
1.00111
0.999999
0.999036
1.00828
1.00837
1.00811
1.00763
1.00683
1.00586
1.00473
1.00353
1.00228
1.00111
0.999985
0.999012
1.00833
1.00842
1.00817
1.00769
1.00688
1.00591
1.00476
1.00355
1.0023
1.00111
0.99997
0.998988
1.00839
1.00848
1.00823
1.00775
1.00693
1.00596
1.0048
1.00357
1.00231
1.0011
0.999955
0.998962
1.00844
1.00854
1.00829
1.00781
1.00699
1.006
1.00484
1.0036
1.00232
1.0011
0.999939
0.998935
1.0085
1.0086
1.00835
1.00787
1.00704
1.00605
1.00488
1.00362
1.00233
1.0011
0.999922
0.998907
1.00856
1.00867
1.00841
1.00793
1.0071
1.0061
1.00491
1.00365
1.00234
1.00109
0.999904
0.998878
1.00862
1.00873
1.00847
1.00799
1.00716
1.00615
1.00495
1.00367
1.00235
1.00108
0.999885
0.998848
1.00868
1.00879
1.00854
1.00806
1.00722
1.0062
1.00499
1.0037
1.00235
1.00108
0.999865
0.998816
1.00874
1.00886
1.0086
1.00812
1.00727
1.00625
1.00503
1.00372
1.00236
1.00107
0.999844
0.998783
1.00881
1.00893
1.00867
1.00818
1.00733
1.0063
1.00506
1.00374
1.00237
1.00106
0.999822
0.998749
1.00887
1.009
1.00874
1.00825
1.00739
1.00635
1.0051
1.00376
1.00237
1.00105
0.999799
0.998714
1.00894
1.00907
1.00881
1.00832
1.00745
1.0064
1.00514
1.00379
1.00238
1.00104
0.999775
0.998678
1.00901
1.00914
1.00888
1.00838
1.00751
1.00645
1.00518
1.00381
1.00239
1.00103
0.99975
0.998641
1.00908
1.00921
1.00895
1.00845
1.00758
1.0065
1.00522
1.00383
1.00239
1.00102
0.999724
0.998604
1.00915
1.00929
1.00902
1.00852
1.00764
1.00656
1.00525
1.00385
1.00239
1.001
0.999697
0.998566
1.00922
1.00936
1.0091
1.0086
1.0077
1.00661
1.00529
1.00388
1.0024
1.00099
0.999669
0.998527
1.0093
1.00944
1.00917
1.00867
1.00777
1.00666
1.00533
1.0039
1.0024
1.00098
0.99964
0.998486
1.00938
1.00952
1.00925
1.00875
1.00784
1.00672
1.00537
1.00392
1.00241
1.00096
0.999611
0.998446
1.00945
1.0096
1.00933
1.00882
1.00791
1.00678
1.00541
1.00394
1.00241
1.00095
0.999581
0.998404
1.00954
1.00969
1.00942
1.0089
1.00798
1.00684
1.00545
1.00397
1.00242
1.00094
0.999551
0.998361
1.00962
1.00977
1.0095
1.00898
1.00805
1.00689
1.0055
1.00399
1.00242
1.00092
0.999519
0.998317
1.0097
1.00986
1.00959
1.00907
1.00812
1.00696
1.00554
1.00401
1.00242
1.00091
0.999487
0.998272
1.00979
1.00995
1.00967
1.00915
1.0082
1.00702
1.00558
1.00404
1.00243
1.00089
0.999453
0.998226
1.00988
1.01004
1.00976
1.00924
1.00827
1.00708
1.00563
1.00406
1.00243
1.00087
0.999419
0.998178
1.00997
1.01014
1.00986
1.00933
1.00835
1.00714
1.00567
1.00409
1.00243
1.00086
0.999384
0.998129
1.01006
1.01023
1.00995
1.00942
1.00843
1.00721
1.00572
1.00412
1.00244
1.00084
0.999348
0.998078
1.01015
1.01033
1.01004
1.00951
1.00851
1.00728
1.00577
1.00414
1.00244
1.00082
0.99931
0.998026
1.01025
1.01043
1.01014
1.0096
1.00859
1.00735
1.00582
1.00417
1.00244
1.0008
0.999272
0.997972
1.01034
1.01053
1.01024
1.0097
1.00868
1.00742
1.00586
1.00419
1.00244
1.00078
0.999231
0.997916
1.01044
1.01063
1.01034
1.0098
1.00876
1.00749
1.00591
1.00422
1.00245
1.00076
0.99919
0.997859
1.01055
1.01073
1.01045
1.0099
1.00885
1.00756
1.00596
1.00425
1.00245
1.00074
0.999147
0.9978
1.01065
1.01084
1.01055
1.01
1.00894
1.00763
1.00601
1.00428
1.00245
1.00071
0.999103
0.997739
1.01076
1.01095
1.01066
1.0101
1.00903
1.00771
1.00606
1.0043
1.00245
1.00069
0.999057
0.997676
1.01086
1.01106
1.01077
1.01021
1.00913
1.00778
1.00612
1.00433
1.00245
1.00066
0.999011
0.997612
1.01097
1.01118
1.01088
1.01031
1.00922
1.00786
1.00617
1.00436
1.00245
1.00064
0.998962
0.997545
1.01109
1.01129
1.011
1.01043
1.00932
1.00794
1.00622
1.00439
1.00245
1.00061
0.998912
0.997477
1.0112
1.01141
1.01112
1.01054
1.00942
1.00802
1.00628
1.00441
1.00245
1.00058
0.99886
0.997406
1.01132
1.01153
1.01124
1.01065
1.00952
1.0081
1.00634
1.00444
1.00245
1.00055
0.998807
0.997334
1.01144
1.01166
1.01136
1.01077
1.00963
1.00819
1.00639
1.00447
1.00244
1.00052
0.998752
0.997259
1.01156
1.01178
1.01149
1.0109
1.00973
1.00828
1.00645
1.0045
1.00244
1.00049
0.998695
0.997182
1.01168
1.01191
1.01162
1.01102
1.00984
1.00836
1.00651
1.00453
1.00244
1.00046
0.998636
0.997103
1.01181
1.01205
1.01175
1.01115
1.00995
1.00845
1.00657
1.00456
1.00244
1.00043
0.998576
0.997022
1.01194
1.01218
1.01189
1.01128
1.01007
1.00855
1.00664
1.00459
1.00243
1.00039
0.998513
0.996937
1.01207
1.01232
1.01203
1.01141
1.01019
1.00864
1.0067
1.00462
1.00243
1.00035
0.998449
0.996851
1.01221
1.01246
1.01217
1.01155
1.01031
1.00874
1.00676
1.00466
1.00242
1.00032
0.998383
0.996762
1.01235
1.01261
1.01232
1.01169
1.01043
1.00884
1.00683
1.00469
1.00242
1.00028
0.998314
0.996671
1.01249
1.01275
1.01246
1.01183
1.01055
1.00893
1.00689
1.00472
1.00241
1.00024
0.998243
0.996577
1.01263
1.01291
1.01262
1.01197
1.01068
1.00904
1.00696
1.00475
1.0024
1.00019
0.99817
0.99648
1.01278
1.01306
1.01277
1.01212
1.01081
1.00914
1.00703
1.00478
1.00239
1.00015
0.998094
0.99638
1.01293
1.01322
1.01293
1.01227
1.01095
1.00924
1.0071
1.00481
1.00238
1.0001
0.998017
0.996277
1.01308
1.01338
1.01309
1.01242
1.01108
1.00935
1.00717
1.00484
1.00237
1.00005
0.997936
0.996171
1.01324
1.01354
1.01326
1.01258
1.01122
1.00946
1.00724
1.00487
1.00236
1
0.997853
0.996063
1.01339
1.01371
1.01343
1.01274
1.01136
1.00957
1.00731
1.0049
1.00235
0.999952
0.997767
0.99595
1.01356
1.01388
1.0136
1.01291
1.0115
1.00968
1.00738
1.00493
1.00234
0.999898
0.997679
0.995835
1.01372
1.01406
1.01377
1.01307
1.01165
1.00979
1.00745
1.00496
1.00232
0.999841
0.997587
0.995716
1.01389
1.01424
1.01395
1.01324
1.01179
1.00991
1.00753
1.00499
1.00231
0.999783
0.997493
0.995595
1.01407
1.01442
1.01414
1.01341
1.01195
1.01003
1.0076
1.00502
1.00229
0.999722
0.997395
0.995469
1.01424
1.01461
1.01432
1.01359
1.0121
1.01015
1.00768
1.00505
1.00227
0.999659
0.997296
0.99534
1.01442
1.0148
1.01451
1.01377
1.01226
1.01027
1.00776
1.00508
1.00225
0.999593
0.997192
0.995207
1.01461
1.01499
1.01471
1.01396
1.01242
1.01039
1.00784
1.00511
1.00223
0.999525
0.997086
0.99507
1.01479
1.01519
1.01491
1.01414
1.01258
1.01052
1.00791
1.00514
1.00221
0.999455
0.996975
0.994929
1.01499
1.01539
1.01511
1.01433
1.01275
1.01064
1.00799
1.00516
1.00219
0.999382
0.996863
0.994785
1.01518
1.0156
1.01531
1.01453
1.01291
1.01077
1.00808
1.00519
1.00216
0.999306
0.996745
0.994636
1.01538
1.01581
1.01553
1.01473
1.01309
1.01091
1.00816
1.00522
1.00213
0.999227
0.996625
0.994484
1.01559
1.01603
1.01574
1.01493
1.01326
1.01104
1.00824
1.00525
1.0021
0.999145
0.9965
0.994326
1.01579
1.01625
1.01596
1.01514
1.01344
1.01118
1.00833
1.00527
1.00207
0.999061
0.996373
0.994165
1.01601
1.01647
1.01618
1.01535
1.01363
1.01132
1.00841
1.0053
1.00204
0.998973
0.99624
0.993998
1.01622
1.0167
1.01641
1.01557
1.01381
1.01146
1.0085
1.00532
1.00201
0.998882
0.996104
0.993828
1.01644
1.01693
1.01665
1.01579
1.014
1.0116
1.00858
1.00535
1.00197
0.998788
0.995963
0.993652
1.01667
1.01717
1.01688
1.01601
1.01419
1.01175
1.00867
1.00537
1.00193
0.99869
0.995819
0.993472
1.0169
1.01742
1.01713
1.01624
1.01439
1.01189
1.00876
1.00539
1.00189
0.998589
0.995669
0.993286
1.01714
1.01766
1.01737
1.01647
1.01459
1.01204
1.00885
1.00541
1.00185
0.998484
0.995516
0.993095
1.01738
1.01792
1.01763
1.01671
1.01479
1.0122
1.00893
1.00543
1.0018
0.998375
0.995357
0.992899
1.01762
1.01818
1.01789
1.01695
1.015
1.01235
1.00902
1.00545
1.00175
0.998263
0.995194
0.992698
1.01787
1.01844
1.01815
1.0172
1.01521
1.01251
1.00912
1.00547
1.0017
0.998146
0.995025
0.99249
1.01813
1.01871
1.01842
1.01745
1.01543
1.01267
1.00921
1.00549
1.00164
0.998025
0.994852
0.992277
1.01839
1.01899
1.01869
1.01771
1.01565
1.01283
1.0093
1.00551
1.00159
0.9979
0.994672
0.992058
1.01865
1.01927
1.01897
1.01797
1.01587
1.01299
1.00939
1.00552
1.00153
0.997771
0.994489
0.991834
1.01893
1.01956
1.01926
1.01824
1.0161
1.01316
1.00949
1.00553
1.00146
0.997637
0.994299
0.991602
1.0192
1.01986
1.01955
1.01852
1.01633
1.01333
1.00958
1.00555
1.0014
0.997499
0.994104
0.991365
1.01949
1.02016
1.01985
1.0188
1.01657
1.0135
1.00968
1.00556
1.00133
0.997355
0.993902
0.991121
1.01978
1.02046
1.02016
1.01908
1.01681
1.01368
1.00977
1.00557
1.00126
0.997207
0.993695
0.990871
1.02007
1.02078
1.02047
1.01937
1.01706
1.01386
1.00987
1.00557
1.00118
0.997053
0.993481
0.990612
1.02038
1.0211
1.02079
1.01967
1.01731
1.01404
1.00996
1.00558
1.0011
0.996895
0.993261
0.990348
1.02068
1.02143
1.02112
1.01998
1.01756
1.01422
1.01006
1.00558
1.00101
0.99673
0.993034
0.990076
1.021
1.02176
1.02145
1.02029
1.01783
1.01441
1.01016
1.00559
1.00093
0.99656
0.992801
0.989797
1.02132
1.0221
1.02179
1.0206
1.01809
1.0146
1.01026
1.00558
1.00083
0.996384
0.99256
0.989509
1.02165
1.02246
1.02214
1.02093
1.01836
1.01479
1.01035
1.00558
1.00073
0.996202
0.992312
0.989215
1.02199
1.02281
1.02249
1.02126
1.01864
1.01498
1.01045
1.00558
1.00063
0.996013
0.992057
0.988911
1.02233
1.02318
1.02286
1.0216
1.01892
1.01518
1.01055
1.00557
1.00053
0.995819
0.991794
0.9886
1.02268
1.02355
1.02323
1.02194
1.01921
1.01538
1.01065
1.00556
1.00041
0.995616
0.991523
0.98828
1.02304
1.02394
1.02361
1.0223
1.0195
1.01559
1.01075
1.00554
1.0003
0.995408
0.991244
0.987952
1.02341
1.02433
1.024
1.02266
1.0198
1.01579
1.01084
1.00553
1.00017
0.995191
0.990956
0.987613
1.02379
1.02473
1.0244
1.02303
1.02011
1.01601
1.01094
1.00551
1.00004
0.994968
0.990661
0.987267
1.02417
1.02514
1.0248
1.0234
1.02042
1.01622
1.01104
1.00548
0.999908
0.994737
0.990355
0.98691
1.02457
1.02556
1.02522
1.02379
1.02074
1.01643
1.01114
1.00545
0.999767
0.994498
0.990042
0.986545
1.02497
1.02599
1.02565
1.02418
1.02106
1.01665
1.01123
1.00542
0.999619
0.99425
0.989718
0.986168
1.02538
1.02643
1.02608
1.02459
1.02139
1.01688
1.01133
1.00539
0.999465
0.993994
0.989385
0.985782
1.02581
1.02688
1.02653
1.025
1.02173
1.0171
1.01142
1.00535
0.999303
0.993728
0.989041
0.985384
1.02624
1.02734
1.02699
1.02542
1.02207
1.01733
1.01151
1.0053
0.999134
0.993455
0.988688
0.984977
1.02668
1.02781
1.02745
1.02585
1.02242
1.01756
1.01161
1.00525
0.998956
0.99317
0.988324
0.984558
1.02713
1.02829
1.02793
1.02629
1.02278
1.0178
1.0117
1.0052
0.998772
0.992877
0.987949
0.984128
1.0276
1.02879
1.02843
1.02675
1.02314
1.01803
1.01179
1.00513
0.998578
0.992573
0.987562
0.983685
1.02807
1.02929
1.02893
1.02721
1.02352
1.01827
1.01187
1.00507
0.998376
0.992258
0.987165
0.983232
1.02856
1.02981
1.02945
1.02768
1.0239
1.01851
1.01196
1.00499
0.998163
0.991932
0.986754
0.982765
1.02906
1.03034
1.02997
1.02817
1.02428
1.01876
1.01204
1.00491
0.997942
0.991596
0.986332
0.982286
1.02957
1.03089
1.03052
1.02866
1.02468
1.01901
1.01212
1.00483
0.99771
0.991246
0.985897
0.981793
1.03009
1.03145
1.03107
1.02917
1.02508
1.01926
1.0122
1.00473
0.997468
0.990885
0.985449
0.981288
1.03062
1.03202
1.03164
1.02969
1.02549
1.01951
1.01227
1.00463
0.997214
0.990511
0.984986
0.980768
1.03117
1.03261
1.03223
1.03023
1.02591
1.01977
1.01234
1.00452
0.99695
0.990124
0.984511
0.980235
1.03174
1.03321
1.03283
1.03077
1.02634
1.02002
1.0124
1.0044
0.996672
0.989723
0.98402
0.979686
1.03231
1.03383
1.03344
1.03133
1.02678
1.02028
1.01246
1.00427
0.996383
0.989308
0.983516
0.979124
1.0329
1.03446
1.03408
1.03191
1.02722
1.02054
1.01252
1.00413
0.996079
0.988877
0.982995
0.978544
1.03351
1.03511
1.03472
1.03249
1.02768
1.0208
1.01257
1.00398
0.995762
0.988433
0.98246
0.977951
1.03413
1.03578
1.03539
1.0331
1.02814
1.02107
1.01261
1.00381
0.99543
0.987971
0.981907
0.97734
1.03477
1.03647
1.03608
1.03372
1.02861
1.02133
1.01265
1.00364
0.995084
0.987494
0.981338
0.976714
1.03543
1.03717
1.03678
1.03435
1.02909
1.02159
1.01267
1.00345
0.99472
0.986999
0.980751
0.976069
1.0361
1.0379
1.0375
1.035
1.02958
1.02186
1.0127
1.00325
0.994341
0.986487
0.980148
0.975409
1.03679
1.03864
1.03824
1.03567
1.03008
1.02212
1.01271
1.00303
0.993944
0.985955
0.979524
0.974729
1.0375
1.03941
1.03901
1.03635
1.03058
1.02238
1.01271
1.0028
0.993529
0.985406
0.978883
0.974032
1.03823
1.0402
1.03979
1.03705
1.0311
1.02264
1.0127
1.00255
0.993094
0.984836
0.978222
0.973314
1.03898
1.04101
1.0406
1.03777
1.03163
1.0229
1.01268
1.00229
0.992639
0.984246
0.977541
0.97258
1.03975
1.04184
1.04143
1.03851
1.03216
1.02316
1.01265
1.002
0.992163
0.983634
0.976839
0.971823
1.04054
1.0427
1.04229
1.03926
1.0327
1.02341
1.0126
1.0017
0.991666
0.983001
0.976117
0.971048
1.04135
1.04358
1.04317
1.04004
1.03325
1.02365
1.01254
1.00137
0.991145
0.982344
0.975371
0.97025
1.04219
1.04449
1.04407
1.04084
1.03381
1.0239
1.01246
1.00103
0.9906
0.981664
0.974604
0.969433
1.04305
1.04543
1.04501
1.04166
1.03438
1.02413
1.01236
1.00066
0.990029
0.980958
0.973812
0.968592
1.04394
1.04639
1.04597
1.0425
1.03496
1.02436
1.01225
1.00026
0.989433
0.980228
0.972998
0.96773
1.04485
1.04739
1.04696
1.04336
1.03554
1.02458
1.01212
0.99984
0.988809
0.97947
0.972158
0.966843
1.04579
1.04841
1.04799
1.04424
1.03613
1.02479
1.01196
0.99939
0.988156
0.978686
0.971294
0.965935
1.04676
1.04947
1.04904
1.04515
1.03672
1.02498
1.01178
0.998911
0.987472
0.977873
0.970402
0.965
1.04776
1.05056
1.05013
1.04608
1.03732
1.02516
1.01157
0.9984
0.986757
0.977031
0.969484
0.964043
1.04879
1.05169
1.05126
1.04704
1.03793
1.02533
1.01133
0.997855
0.986008
0.976157
0.968538
0.963059
1.04985
1.05286
1.05242
1.04802
1.03853
1.02548
1.01106
0.997276
0.985226
0.975253
0.967565
0.96205
1.05094
1.05406
1.05362
1.04902
1.03914
1.02561
1.01076
0.996658
0.984407
0.974315
0.966561
0.961014
1.05207
1.05531
1.05486
1.05005
1.03976
1.02572
1.01042
0.996002
0.98355
0.973344
0.965528
0.959952
1.05324
1.05659
1.05614
1.05111
1.04036
1.0258
1.01005
0.995303
0.982654
0.972337
0.964464
0.95886
1.05445
1.05793
1.05747
1.05219
1.04097
1.02585
1.00963
0.99456
0.981717
0.971296
0.963369
0.957742
1.05569
1.05931
1.05884
1.0533
1.04157
1.02587
1.00917
0.993769
0.980736
0.970215
0.96224
0.956594
1.05698
1.06074
1.06025
1.05443
1.04217
1.02585
1.00865
0.99293
0.979712
0.969098
0.96108
0.955417
1.05831
1.06222
1.06172
1.05559
1.04275
1.0258
1.00809
0.992038
0.97864
0.967939
0.959884
0.954209
1.05969
1.06375
1.06324
1.05678
1.04332
1.0257
1.00747
0.991091
0.977521
0.966741
0.958655
0.952972
1.06111
1.06535
1.06481
1.05799
1.04387
1.02555
1.00679
0.990085
0.976351
0.965499
0.957388
0.951702
1.06259
1.06701
1.06644
1.05922
1.0444
1.02535
1.00604
0.989019
0.975129
0.964215
0.956087
0.950401
1.06412
1.06873
1.06813
1.06047
1.0449
1.02508
1.00522
0.987888
0.973852
0.962885
0.954747
0.949067
1.06571
1.07052
1.06988
1.06175
1.04537
1.02475
1.00433
0.986689
0.972519
0.96151
0.95337
0.947701
1.06736
1.07239
1.0717
1.06304
1.04581
1.02435
1.00336
0.985419
0.971128
0.960088
0.951953
0.9463
1.06907
1.07433
1.07357
1.06435
1.04619
1.02387
1.0023
0.984075
0.969677
0.958617
0.950498
0.944866
1.07085
1.07635
1.07552
1.06566
1.04653
1.02329
1.00115
0.982653
0.968163
0.957097
0.949002
0.943396
1.07269
1.07846
1.07754
1.06699
1.0468
1.02262
0.999903
0.981149
0.966585
0.955527
0.947465
0.941892
1.07462
1.08067
1.07963
1.06832
1.047
1.02184
0.998551
0.97956
0.964941
0.953904
0.945886
0.940351
1.07662
1.08297
1.08179
1.06964
1.04712
1.02094
0.997089
0.977883
0.963229
0.952229
0.944266
0.938774
1.0787
1.08538
1.08403
1.07096
1.04714
1.01992
0.99551
0.976114
0.961447
0.9505
0.942603
0.93716
1.08087
1.08791
1.08635
1.07225
1.04705
1.01875
0.993806
0.97425
0.959595
0.948718
0.940897
0.935509
1.08314
1.09055
1.08874
1.07351
1.04684
1.01744
0.991972
0.972288
0.957669
0.946879
0.939147
0.93382
1.08552
1.09333
1.09121
1.07473
1.04649
1.01595
0.989999
0.970224
0.955669
0.944985
0.937354
0.932095
1.088
1.09624
1.09375
1.07588
1.04597
1.01429
0.987882
0.968055
0.953594
0.943034
0.935515
0.930331
1.09059
1.09929
1.09637
1.07697
1.04528
1.01244
0.985614
0.96578
0.951442
0.941027
0.933633
0.928531
1.09332
1.10251
1.09905
1.07795
1.04438
1.01037
0.983189
0.963396
0.949213
0.938962
0.931705
0.926692
1.09618
1.10589
1.1018
1.07882
1.04325
1.00809
0.9806
0.960901
0.946907
0.936841
0.929732
0.924818
1.09919
1.10945
1.10459
1.07954
1.04186
1.00556
0.977842
0.958294
0.944522
0.934661
0.927715
0.922904
1.10235
1.1132
1.10743
1.08008
1.04019
1.00278
0.974911
0.955575
0.942059
0.932425
0.925653
0.920955
1.1057
1.11714
1.11028
1.0804
1.0382
0.999732
0.971803
0.952742
0.939519
0.930132
0.923547
0.918967
1.10923
1.1213
1.11314
1.08047
1.03585
0.996401
0.968515
0.949797
0.936902
0.927784
0.921397
0.916944
1.11297
1.12568
1.11598
1.08024
1.03313
0.992773
0.965047
0.94674
0.934208
0.92538
0.919204
0.914883
1.11693
1.13028
1.11876
1.07965
1.02997
0.988836
0.961397
0.943575
0.931441
0.922923
0.916969
0.912788
1.12115
1.13512
1.12144
1.07866
1.02636
0.984582
0.95757
0.940303
0.928602
0.920413
0.914691
0.910656
1.12565
1.1402
1.12398
1.07718
1.02225
0.980002
0.953569
0.936928
0.925692
0.917852
0.912374
0.90849
1.13046
1.14552
1.12631
1.07515
1.0176
0.975095
0.9494
0.933456
0.922716
0.915243
0.910016
0.90629
1.1356
1.15107
1.12836
1.07249
1.01238
0.96986
0.945071
0.929891
0.919675
0.912587
0.907622
0.904057
1.14113
1.15684
1.13005
1.06912
1.00656
0.964303
0.940595
0.92624
0.916574
0.909888
0.90519
0.901792
1.14707
1.16281
1.13127
1.06493
1.0001
0.958437
0.935985
0.922509
0.913417
0.907149
0.902725
0.899496
1.15349
1.16894
1.1319
1.05984
0.992991
0.952281
0.931258
0.918708
0.910209
0.904373
0.900228
0.89717
1.16043
1.17517
1.1318
1.05374
0.985216
0.94586
0.926431
0.914842
0.906955
0.901565
0.897702
0.894817
1.16796
1.18145
1.13082
1.04655
0.97678
0.939211
0.921525
0.910922
0.90366
0.898728
0.895148
0.892436
1.17613
1.18765
1.12877
1.03814
0.9677
0.932374
0.916561
0.906956
0.900331
0.895869
0.892571
0.890031
1.18502
1.19366
1.12544
1.02846
0.958015
0.925402
0.911563
0.902953
0.896975
0.892992
0.889974
0.887602
1.19469
1.1993
1.12059
1.01741
0.947785
0.918351
0.906551
0.898922
0.893599
0.890106
0.887362
0.885152
1.20523
1.20436
1.114
1.00495
0.937097
0.911289
0.901548
0.894871
0.890213
0.887217
0.884738
0.882682
1.2167
1.20854
1.10537
0.991073
0.926065
0.904279
0.896571
0.890809
0.886826
0.884335
0.88211
0.880193
1.22914
1.21151
1.09443
0.975815
0.914835
0.897392
0.891635
0.886745
0.88345
0.881471
0.879485
0.877684
1.24261
1.21282
1.08091
0.959274
0.903577
0.890687
0.886752
0.882687
0.880098
0.878638
0.876878
0.875157
1.25708
1.21195
1.06454
0.941633
0.892485
0.884221
0.881927
0.878646
0.876784
0.875846
0.874286
0.872596
1.27251
1.20823
1.0451
0.923172
0.881758
0.878023
0.877158
0.874635
0.873541
0.873142
0.871754
0.870028
1.28872
1.20088
1.02245
0.904291
0.871617
0.872134
0.872438
0.870633
0.870318
0.870428
0.869159
0.867346
1.3054
1.18895
0.996604
0.885454
0.862174
0.866524
0.867844
0.866849
0.867438
0.86809
0.866826
0.864753
1.32204
1.17131
0.96793
0.867448
0.853722
0.86102
0.862876
0.862558
0.863995
0.865243
0.863969
0.861713
1.33768
1.14658
0.936848
0.850446
0.846706
0.856959
0.85953
0.860016
0.86216
0.863607
0.861799
0.858981
1.35119
1.11395
0.906326
0.83446
0.837878
0.849782
0.853279
0.855367
0.859151
0.861335
0.859156
0.855777
1.35899
1.06926
0.880836
0.82849
0.83769
0.848798
0.851228
0.853536
0.858087
0.860511
0.85783
0.853983
1.36231
0.998744
0.832154
0.805103
0.827238
0.843506
0.848325
0.852244
0.857828
0.860571
0.857842
0.853997
0.996733
0.997411
0.998338
0.998722
0.998638
0.998457
0.998423
0.998537
0.998659
0.998665
0.998531
0.998325
0.997279
0.997684
0.998376
0.99869
0.998633
0.998487
0.998454
0.998543
0.99864
0.998639
0.998513
0.998324
0.997734
0.997842
0.998295
0.998577
0.998594
0.99851
0.998477
0.998527
0.998588
0.99858
0.998474
0.998311
0.997964
0.997908
0.998231
0.998521
0.99861
0.998567
0.998514
0.998512
0.998536
0.998526
0.998443
0.998309
0.998092
0.997983
0.998242
0.998527
0.998638
0.998597
0.998515
0.998473
0.998474
0.99847
0.998413
0.998308
0.998218
0.998097
0.9983
0.998543
0.998637
0.998585
0.998489
0.998434
0.998431
0.998437
0.9984
0.998314
0.998358
0.998221
0.998356
0.998539
0.998607
0.998557
0.998469
0.998417
0.998413
0.998421
0.998393
0.99832
0.998484
0.99832
0.99839
0.998521
0.998575
0.998536
0.998463
0.998416
0.998407
0.998409
0.998382
0.998316
0.998573
0.998388
0.99841
0.998507
0.998554
0.998527
0.998466
0.998419
0.998402
0.998396
0.998369
0.99831
0.99863
0.998436
0.998431
0.998505
0.998546
0.998524
0.998469
0.998421
0.998397
0.998385
0.998357
0.998303
0.998671
0.99848
0.998457
0.998512
0.998544
0.998523
0.998471
0.998422
0.998393
0.998376
0.998347
0.998295
0.998709
0.998523
0.998487
0.998524
0.998546
0.998523
0.998473
0.998423
0.99839
0.998368
0.998336
0.998286
0.998747
0.998565
0.998517
0.998537
0.998548
0.998523
0.998475
0.998425
0.998388
0.99836
0.998325
0.998276
0.998782
0.998603
0.998544
0.99855
0.998553
0.998525
0.998476
0.998425
0.998384
0.998351
0.998314
0.998267
0.998812
0.998636
0.998569
0.998564
0.998558
0.998528
0.998477
0.998424
0.998379
0.998344
0.998305
0.998259
0.998839
0.998666
0.998593
0.998577
0.998564
0.998529
0.998477
0.998422
0.998375
0.998337
0.998297
0.998251
0.998861
0.998692
0.998614
0.99859
0.99857
0.998531
0.998476
0.99842
0.998372
0.998331
0.998289
0.998243
0.998881
0.998715
0.998632
0.998601
0.998574
0.998532
0.998476
0.998419
0.998369
0.998325
0.998281
0.998233
0.998898
0.998734
0.998648
0.99861
0.998578
0.998533
0.998476
0.998417
0.998365
0.998319
0.998272
0.998222
0.998911
0.99875
0.998661
0.998618
0.998582
0.998535
0.998476
0.998416
0.998361
0.998312
0.998261
0.99821
0.998922
0.998763
0.998671
0.998625
0.998586
0.998536
0.998476
0.998413
0.998355
0.998303
0.99825
0.998197
0.998929
0.998773
0.998681
0.998632
0.99859
0.998537
0.998474
0.998409
0.998348
0.998294
0.998239
0.998185
0.998935
0.998781
0.998689
0.998637
0.998592
0.998537
0.998471
0.998403
0.99834
0.998284
0.998227
0.998173
0.99894
0.998789
0.998696
0.998641
0.998593
0.998534
0.998466
0.998397
0.998332
0.998274
0.998216
0.998161
0.998944
0.998795
0.998701
0.998644
0.998592
0.998531
0.99846
0.998389
0.998323
0.998264
0.998206
0.998151
0.998947
0.998799
0.998704
0.998644
0.998589
0.998525
0.998453
0.998381
0.998314
0.998254
0.998196
0.998141
0.998948
0.998802
0.998705
0.998642
0.998585
0.998519
0.998446
0.998372
0.998305
0.998245
0.998186
0.998132
0.998949
0.998803
0.998704
0.998638
0.998579
0.998512
0.998438
0.998364
0.998296
0.998236
0.998177
0.998122
0.998947
0.998802
0.998701
0.998633
0.998572
0.998504
0.99843
0.998356
0.998287
0.998226
0.998167
0.998112
0.998945
0.9988
0.998698
0.998627
0.998564
0.998496
0.998421
0.998347
0.998279
0.998217
0.998157
0.998101
0.998942
0.998796
0.998693
0.998621
0.998557
0.998488
0.998413
0.998339
0.998269
0.998206
0.998146
0.998089
0.998938
0.998792
0.998688
0.998614
0.998549
0.99848
0.998405
0.998329
0.998259
0.998195
0.998134
0.998077
0.998933
0.998788
0.998682
0.998606
0.998541
0.998471
0.998396
0.99832
0.998248
0.998183
0.998121
0.998063
0.998928
0.998783
0.998676
0.998599
0.998533
0.998463
0.998386
0.998309
0.998236
0.99817
0.998107
0.998049
0.998923
0.998778
0.99867
0.998592
0.998524
0.998454
0.998376
0.998298
0.998223
0.998156
0.998092
0.998034
0.998918
0.998773
0.998663
0.998583
0.998515
0.998444
0.998366
0.998285
0.998209
0.998141
0.998076
0.998018
0.998913
0.998767
0.998656
0.998575
0.998506
0.998433
0.998354
0.998272
0.998195
0.998126
0.99806
0.998001
0.998907
0.99876
0.998647
0.998565
0.998496
0.998423
0.998342
0.998259
0.99818
0.998109
0.998043
0.997984
0.9989
0.998752
0.998638
0.998555
0.998485
0.998411
0.998329
0.998244
0.998164
0.998092
0.998025
0.997966
0.998891
0.998743
0.998628
0.998544
0.998473
0.998399
0.998316
0.99823
0.998148
0.998075
0.998007
0.997947
0.998882
0.998733
0.998617
0.998532
0.998461
0.998386
0.998302
0.998214
0.998131
0.998057
0.997988
0.997928
0.998871
0.998721
0.998604
0.99852
0.998449
0.998373
0.998287
0.998198
0.998113
0.998038
0.997969
0.997908
0.998859
0.998708
0.998591
0.998507
0.998435
0.998359
0.998272
0.998181
0.998096
0.998019
0.997949
0.997888
0.998846
0.998694
0.998577
0.998492
0.998421
0.998344
0.998256
0.998164
0.998077
0.998
0.997929
0.997869
0.998831
0.998679
0.998561
0.998477
0.998406
0.998328
0.99824
0.998147
0.998059
0.997981
0.99791
0.997849
0.998816
0.998663