/*--------------------------------*- C++ -*----------------------------------*\
  =========                 |
  \\      /  F ield         | OpenFOAM: The Open Source CFD Toolbox
   \\    /   O peration     | Website:  https://openfoam.org
    \\  /    A nd           | Version:  6.0
     \\/     M anipulation  |
\*---------------------------------------------------------------------------*/
FoamFile
{
    version     2.0;
    format      ascii;
    class       surfaceScalarField;
    location    "3.7";
    object      phi;
}
// * * * * * * * * * * * * * * * * * * * * * * * * * * * * * * * * * * * * * //

dimensions      [0 3 -1 0 0 0 0];

internalField   nonuniform List<scalar> 
47678
(
2.98081e-05
0.00388594
2.41952e-09
5.98447e-05
0.00381844
8.91109e-05
0.00368579
0.000116961
0.00348996
0.000142853
0.00323439
0.000166314
0.00292354
0.000186917
0.00256288
0.000204298
0.0021586
0.000218148
0.00171777
0.000228223
0.00124771
0.000234336
0.000757181
0.000257239
0.00023687
2.96169e-05
0.00385632
5.82151e-09
5.94645e-05
0.00378859
8.85458e-05
0.00365669
0.00011622
0.00346228
0.000141947
0.00320866
0.000165257
0.00290022
0.000185727
0.0025424
0.000202997
0.00214133
0.000216759
0.001704
0.000226765
0.0012377
0.000232939
0.000750999
0.000254592
0.000235581
2.94272e-05
0.00382688
8.74364e-09
5.90867e-05
0.00375894
8.79846e-05
0.00362779
0.000115483
0.00343478
0.000141047
0.00318309
0.000164208
0.00287706
0.000184548
0.00252205
0.000201707
0.00212417
0.000215382
0.00169032
0.000225317
0.00122776
0.000231469
0.000744848
0.000251991
0.000234077
2.9239e-05
0.00379763
1.1313e-08
5.87115e-05
0.00372946
8.74269e-05
0.00359907
0.000114752
0.00340745
0.000140154
0.00315768
0.000163167
0.00285404
0.000183377
0.00250184
0.000200425
0.00210711
0.000214014
0.00167673
0.000223881
0.00121789
0.000229979
0.000738745
0.000249451
0.000232517
2.90524e-05
0.00376856
1.35159e-08
5.83389e-05
0.00370018
8.68727e-05
0.00357053
0.000114025
0.0033803
0.000139265
0.00313244
0.000162132
0.00283117
0.000182212
0.00248176
0.000199151
0.00209018
0.000212653
0.00166323
0.000222457
0.00120809
0.000228498
0.000732705
0.000246989
0.000230966
2.88672e-05
0.00373968
1.52997e-08
5.79687e-05
0.00367108
8.63219e-05
0.00354217
0.000113302
0.00335332
0.000138382
0.00310735
0.000161102
0.00280844
0.000181054
0.0024618
0.000197884
0.00207334
0.000211302
0.0016498
0.000221044
0.00119835
0.000227033
0.000726712
0.000244583
0.000229437
2.86833e-05
0.00371098
1.66781e-08
5.76008e-05
0.00364216
8.57745e-05
0.003514
0.000112583
0.00332651
0.000137504
0.00308243
0.00016008
0.00278587
0.000179904
0.00244198
0.000196626
0.00205662
0.000209959
0.00163647
0.000219643
0.00118866
0.000225585
0.000720772
0.000242247
0.000227928
2.85006e-05
0.00368246
1.76984e-08
5.72352e-05
0.00361342
8.52305e-05
0.00348599
0.000111869
0.00329987
0.000136632
0.00305766
0.000159063
0.00276343
0.00017876
0.00242227
0.000195376
0.00204
0.000208624
0.00162322
0.000218251
0.00117903
0.00022415
0.00071487
0.000239956
0.000226439
2.83192e-05
0.00365412
1.83909e-08
5.68719e-05
0.00358487
8.46899e-05
0.00345818
0.00011116
0.0032734
0.000135764
0.00303305
0.000158053
0.00274115
0.000177624
0.0024027
0.000194133
0.00202349
0.000207298
0.00161006
0.000216868
0.00116947
0.000222727
0.000709013
0.000237717
0.00022497
2.8139e-05
0.00362596
1.88002e-08
5.65109e-05
0.0035565
8.41526e-05
0.00343053
0.000110454
0.00324709
0.000134902
0.0030086
0.000157048
0.002719
0.000176495
0.00238325
0.000192898
0.00200708
0.000205979
0.00159697
0.000215493
0.00115995
0.000221314
0.00070319
0.000235509
0.00022352
2.796e-05
0.00359799
1.89915e-08
5.61522e-05
0.00352831
8.36187e-05
0.00340306
0.000109753
0.00322096
0.000134046
0.00298431
0.00015605
0.00269699
0.000175372
0.00236393
0.000191672
0.00199079
0.00020467
0.00158398
0.000214127
0.00115049
0.000219911
0.000697407
0.000233337
0.000222086
2.77822e-05
0.00357018
1.90142e-08
5.57957e-05
0.00350029
8.3088e-05
0.00337577
0.000109057
0.00319499
0.000133194
0.00296017
0.000155058
0.00267513
0.000174257
0.00234473
0.000190453
0.00197459
0.000203368
0.00157106
0.000212769
0.00114109
0.000218518
0.000691656
0.000231188
0.000220664
2.76055e-05
0.00354256
1.89087e-08
5.54414e-05
0.00347246
8.25606e-05
0.00334865
0.000108364
0.00316919
0.000132348
0.00293619
0.000154073
0.0026534
0.000173149
0.00232565
0.000189242
0.0019585
0.000202075
0.00155822
0.00021142
0.00113175
0.000217134
0.000685944
0.000229072
0.000219253
2.74299e-05
0.00351511
1.87101e-08
5.50893e-05
0.0034448
8.20365e-05
0.0033217
0.000107676
0.00314355
0.000131507
0.00291235
0.000153093
0.00263181
0.000172048
0.0023067
0.000188038
0.00194251
0.00020079
0.00154547
0.000210079
0.00112246
0.000215758
0.000680262
0.000226975
0.000217852
2.72556e-05
0.00348784
1.84393e-08
5.47394e-05
0.00341732
8.15156e-05
0.00329492
0.000106992
0.00311807
0.000130671
0.00288867
0.00015212
0.00261037
0.000170954
0.00228786
0.000186842
0.00192662
0.000199514
0.0015328
0.000208746
0.00111323
0.000214391
0.000674618
0.000224908
0.000216461
2.70823e-05
0.00346073
1.80991e-08
5.43916e-05
0.00339
8.09978e-05
0.00326831
0.000106312
0.00309275
0.00012984
0.00286514
0.000151152
0.00258905
0.000169867
0.00226915
0.000185654
0.00191083
0.000198246
0.00152021
0.000207421
0.00110405
0.000213033
0.000669004
0.000222857
0.00021508
2.69102e-05
0.00343381
1.76975e-08
5.4046e-05
0.00336287
8.04832e-05
0.00324188
0.000105636
0.0030676
0.000129015
0.00284176
0.000150191
0.00256788
0.000168786
0.00225055
0.000184474
0.00189514
0.000196986
0.0015077
0.000206105
0.00109493
0.000211682
0.000663428
0.000220835
0.000213708
2.67391e-05
0.00340705
1.72382e-08
5.37026e-05
0.0033359
7.99717e-05
0.00321561
0.000104964
0.00304261
0.000128194
0.00281853
0.000149236
0.00254683
0.000167713
0.00223207
0.000183301
0.00187955
0.000195734
0.00149526
0.000204797
0.00108586
0.000210341
0.000657882
0.000218825
0.000212346
2.65691e-05
0.00338046
1.67385e-08
5.33612e-05
0.00330911
7.94633e-05
0.0031895
0.000104297
0.00301778
0.000127379
0.00279545
0.000148286
0.00252593
0.000166646
0.00221371
0.000182136
0.00186406
0.00019449
0.00148291
0.000203498
0.00107686
0.000209007
0.000652374
0.000216843
0.000210994
2.64002e-05
0.00335405
1.6232e-08
5.30219e-05
0.00328249
7.89579e-05
0.00316357
0.000103633
0.0029931
0.000126568
0.00277251
0.000147343
0.00250515
0.000165586
0.00219547
0.000180978
0.00184867
0.000193254
0.00147063
0.000202206
0.0010679
0.000207682
0.000646895
0.00021487
0.000209651
2.62324e-05
0.0033278
1.57726e-08
5.26847e-05
0.00325604
7.84556e-05
0.0031378
0.000102974
0.00296858
0.000125763
0.00274973
0.000146405
0.00248451
0.000164533
0.00217734
0.000179827
0.00183338
0.000192026
0.00145843
0.000200923
0.00105901
0.000206366
0.000641455
0.000212925
0.000208317
2.60655e-05
0.00330172
1.54278e-08
5.23495e-05
0.00322975
7.79564e-05
0.00311219
0.000102318
0.00294422
0.000124962
0.00272708
0.000145474
0.002464
0.000163486
0.00215933
0.000178684
0.00181818
0.000190806
0.00144631
0.000199648
0.00105016
0.000205057
0.000636042
0.000210986
0.000206992
2.58996e-05
0.0032758
1.52784e-08
5.20163e-05
0.00320364
7.74602e-05
0.00308674
0.000101667
0.00292001
0.000124167
0.00270458
0.000144548
0.00244362
0.000162447
0.00214143
0.000177549
0.00180308
0.000189595
0.00143426
0.000198381
0.00104138
0.000203757
0.000630668
0.000209073
0.000205676
2.57347e-05
0.00325005
1.53989e-08
5.16851e-05
0.00317768
7.6967e-05
0.00306146
0.00010102
0.00289596
0.000123376
0.00268222
0.000143628
0.00242336
0.000161414
0.00212364
0.00017642
0.00178807
0.00018839
0.00142229
0.000197123
0.00103264
0.000202466
0.000625322
0.000207165
0.000204369
2.55708e-05
0.00322446
1.58536e-08
5.13559e-05
0.0031519
7.64768e-05
0.00303634
0.000100377
0.00287206
0.000122591
0.00266001
0.000142714
0.00240324
0.000160387
0.00210597
0.000175299
0.00177316
0.000187194
0.0014104
0.000195872
0.00102397
0.000201182
0.000620013
0.000205282
0.000203071
2.54077e-05
0.00319904
1.66775e-08
5.10287e-05
0.00312628
7.59896e-05
0.00301138
9.97372e-05
0.00284831
0.000121811
0.00263794
0.000141806
0.00238324
0.000159367
0.00208841
0.000174185
0.00175834
0.000186005
0.00139858
0.000194629
0.00101534
0.000199907
0.000614732
0.000203403
0.000201781
2.52456e-05
0.00317378
1.78776e-08
5.07034e-05
0.00310082
7.55054e-05
0.00298658
9.91019e-05
0.00282472
0.000121035
0.002616
0.000140904
0.00236338
0.000158354
0.00207096
0.000173079
0.00174361
0.000184825
0.00138683
0.000193395
0.00100677
0.00019864
0.000609489
0.000201549
0.000200499
2.50844e-05
0.00314867
1.94253e-08
5.03801e-05
0.00307552
7.50241e-05
0.00296193
9.84705e-05
0.00280127
0.000120264
0.00259421
0.000140007
0.00234363
0.000157347
0.00205362
0.000171979
0.00172898
0.000183651
0.00137516
0.000192168
0.000998252
0.000197381
0.000604273
0.000199697
0.000199226
2.49241e-05
0.00312373
2.12693e-08
5.00587e-05
0.00305039
7.45459e-05
0.00293745
9.78431e-05
0.00277797
0.000119498
0.00257256
0.000139117
0.00232402
0.000156346
0.00203639
0.000170887
0.00171444
0.000182486
0.00136356
0.000190949
0.00098979
0.00019613
0.000599095
0.00019787
0.000197961
2.47647e-05
0.00309894
2.33394e-08
4.97392e-05
0.00302541
7.40705e-05
0.00291311
9.72197e-05
0.00275482
0.000118738
0.00255104
0.000138231
0.00230452
0.000155352
0.00201927
0.000169801
0.00169999
0.000181327
0.00135203
0.000189738
0.000981376
0.000194887
0.000593943
0.000196045
0.000196704
2.46061e-05
0.00307431
2.55656e-08
4.94216e-05
0.0030006
7.35981e-05
0.00288894
9.66001e-05
0.00273182
0.000117981
0.00252966
0.000137352
0.00228515
0.000154365
0.00200226
0.000168723
0.00168563
0.000180177
0.00134058
0.000188535
0.00097302
0.000193651
0.000588829
0.000194243
0.000195456
2.44484e-05
0.00304983
2.78822e-08
4.9106e-05
0.00297594
7.31287e-05
0.00286491
9.59844e-05
0.00270896
0.00011723
0.00250841
0.000136478
0.0022659
0.000153383
0.00198535
0.000167651
0.00167136
0.000179033
0.0013292
0.000187339
0.000964711
0.000192424
0.000583741
0.000192444
0.000194216
2.42916e-05
0.00302551
3.02427e-08
4.87923e-05
0.00295144
7.26621e-05
0.00284105
9.53726e-05
0.00268626
0.000116484
0.0024873
0.00013561
0.00224678
0.000152409
0.00196855
0.000166586
0.00165719
0.000177897
0.00131789
0.000186151
0.000956458
0.000191205
0.000578691
0.000190667
0.000192984
2.41357e-05
0.00300134
3.26145e-08
4.84804e-05
0.0029271
7.21984e-05
0.00281733
9.47647e-05
0.00266369
0.000115742
0.00246632
0.000134747
0.00222777
0.00015144
0.00195186
0.000165528
0.0016431
0.000176768
0.00130664
0.000184971
0.000948253
0.000189993
0.000573666
0.000188894
0.000191759
2.39806e-05
0.00297732
3.49848e-08
4.81705e-05
0.00290291
7.17376e-05
0.00279376
9.41605e-05
0.00264127
0.000115005
0.00244548
0.00013389
0.00220889
0.000150477
0.00193527
0.000164477
0.0016291
0.000175647
0.00129548
0.000183798
0.000940103
0.000188789
0.000568678
0.000187143
0.000190543
2.38264e-05
0.00295346
3.73473e-08
4.78624e-05
0.00287887
7.12797e-05
0.00277034
9.35602e-05
0.00261899
0.000114272
0.00242477
0.000133038
0.00219012
0.000149521
0.00191879
0.000163433
0.00161518
0.000174533
0.00128437
0.000182633
0.000932
0.000187593
0.000563716
0.000185394
0.000189334
2.36731e-05
0.00292975
3.97034e-08
4.75562e-05
0.00285499
7.08246e-05
0.00274707
9.29637e-05
0.00259685
0.000113545
0.00240419
0.000132191
0.00217148
0.000148571
0.00190241
0.000162395
0.00160136
0.000173426
0.00127335
0.000181475
0.000923952
0.000186404
0.000558791
0.000183669
0.000188133
2.35206e-05
0.00290618
4.20482e-08
4.72518e-05
0.00283126
7.03723e-05
0.00272395
9.23709e-05
0.00257485
0.000112821
0.00238373
0.000131351
0.00215295
0.000147627
0.00188613
0.000161365
0.00158762
0.000172326
0.00126238
0.000180325
0.000915949
0.000185223
0.00055389
0.000181946
0.00018694
2.33691e-05
0.00288277
4.43738e-08
4.69493e-05
0.00280768
6.99229e-05
0.00270098
9.17819e-05
0.00255299
0.000112103
0.00236342
0.000130515
0.00213454
0.000146689
0.00186996
0.00016034
0.00157397
0.000171233
0.00125149
0.000179182
0.000908002
0.000184049
0.000549026
0.000180246
0.000185755
2.32184e-05
0.0028595
4.66608e-08
4.66487e-05
0.00278425
6.94763e-05
0.00267815
9.11966e-05
0.00253127
0.000111389
0.00234322
0.000129685
0.00211624
0.000145757
0.00185389
0.000159322
0.0015604
0.000170147
0.00124067
0.000178047
0.000900099
0.000182883
0.000544186
0.000178548
0.000184577
2.30686e-05
0.00283639
4.88863e-08
4.63499e-05
0.00276097
6.90324e-05
0.00265547
9.06149e-05
0.00250969
0.00011068
0.00232316
0.00012886
0.00209806
0.00014483
0.00183792
0.000158311
0.00154692
0.000169068
0.00122991
0.000176918
0.000892251
0.000181725
0.000539383
0.000176873
0.000183407
2.29196e-05
0.00281342
5.10209e-08
4.6053e-05
0.00273783
6.85914e-05
0.00263293
9.0037e-05
0.00248824
0.000109975
0.00230322
0.00012804
0.00208
0.00014391
0.00182205
0.000157306
0.00153352
0.000167996
0.00121922
0.000175797
0.000884447
0.000180574
0.000534603
0.000175198
0.000182244
2.27716e-05
0.00279059
5.3039e-08
4.57579e-05
0.00271485
6.81531e-05
0.00261054
8.94628e-05
0.00246694
0.000109274
0.00228341
0.000127226
0.00206205
0.000142996
0.00180628
0.000156308
0.00152021
0.00016693
0.0012086
0.000174683
0.000876697
0.00017943
0.00052986
0.000173547
0.000181089
2.26245e-05
0.00276791
5.4917e-08
4.54646e-05
0.00269201
6.77176e-05
0.00258828
8.88921e-05
0.00244576
0.000108578
0.00226372
0.000126417
0.00204421
0.000142088
0.00179061
0.000155316
0.00150698
0.000165872
0.00119804
0.000173576
0.00086899
0.000178293
0.00052514
0.000171894
0.000179941
2.24783e-05
0.00274538
5.66424e-08
4.51732e-05
0.00266931
6.72848e-05
0.00256617
8.83252e-05
0.00242472
0.000107887
0.00224416
0.000125613
0.00202648
0.000141185
0.00177504
0.000154331
0.00149384
0.00016482
0.00118756
0.000172476
0.000861337
0.000177164
0.000520456
0.000170267
0.000178801
2.2333e-05
0.00272299
5.8209e-08
4.48836e-05
0.00264676
6.68548e-05
0.0025442
8.77618e-05
0.00240382
0.0001072
0.00222473
0.000124814
0.00200887
0.000140288
0.00175956
0.000153351
0.00148077
0.000163775
0.00117713
0.000171383
0.000853726
0.000176042
0.000515795
0.000168634
0.000177668
2.21886e-05
0.00270074
5.96219e-08
4.45959e-05
0.00262435
6.64276e-05
0.00252237
8.72021e-05
0.00238304
0.000106517
0.00220541
0.00012402
0.00199137
0.000139397
0.00174419
0.000152378
0.0014678
0.000162737
0.00116677
0.000170297
0.000846169
0.000174927
0.000511171
0.000167028
0.000176543
2.20451e-05
0.00267863
6.08905e-08
4.431e-05
0.00260209
6.6003e-05
0.00250068
8.66459e-05
0.0023624
0.000105839
0.00218622
0.000123232
0.00197397
0.000138512
0.0017289
0.000151412
0.00145489
0.000161706
0.00115648
0.000169218
0.000838653
0.000173819
0.000506568
0.000165416
0.000175424
2.19025e-05
0.00265667
6.20293e-08
4.40259e-05
0.00257997
6.55812e-05
0.00247912
8.60933e-05
0.00234189
0.000105165
0.00216715
0.000122448
0.00195669
0.000137632
0.00171372
0.000150451
0.00144208
0.00016068
0.00114625
0.000168146
0.000831191
0.000172718
0.000502002
0.000163829
0.000174313
2.17609e-05
0.00263485
6.30509e-08
4.37436e-05
0.00255798
6.51621e-05
0.0024577
8.55443e-05
0.00232151
0.000104496
0.0021482
0.00012167
0.00193952
0.000136758
0.00169863
0.000149496
0.00142934
0.000159662
0.00113608
0.000167081
0.000823769
0.000171624
0.000497458
0.000162235
0.000173209
2.16202e-05
0.00261316
6.39669e-08
4.34631e-05
0.00253614
6.47457e-05
0.00243642
8.49987e-05
0.00230126
0.00010383
0.00212937
0.000120896
0.00192246
0.00013589
0.00168364
0.000148548
0.00141668
0.00015865
0.00112599
0.000166022
0.0008164
0.000170538
0.00049295
0.000160667
0.000172112
2.14805e-05
0.00259162
6.47831e-08
4.31845e-05
0.00251444
6.4332e-05
0.00241527
8.44568e-05
0.00228113
0.000103169
0.00211065
0.000120128
0.0019055
0.000135027
0.00166874
0.000147606
0.0014041
0.000157644
0.00111595
0.00016497
0.000809071
0.000169458
0.000488462
0.000159091
0.000171022
2.13416e-05
0.00257021
6.55037e-08
4.29076e-05
0.00249287
6.39209e-05
0.00239426
8.39183e-05
0.00226114
0.000102513
0.00209206
0.000119364
0.00188865
0.00013417
0.00165394
0.000146669
0.0013916
0.000156645
0.00110597
0.000163925
0.000801795
0.000168385
0.000484012
0.000157541
0.000169939
2.12037e-05
0.00254894
6.61298e-08
4.26326e-05
0.00247144
6.35126e-05
0.00237338
8.33832e-05
0.00224127
0.00010186
0.00207358
0.000118605
0.0018719
0.000133318
0.00163922
0.000145739
0.00137918
0.000155652
0.00109606
0.000162887
0.000794557
0.000167318
0.000479579
0.000155985
0.000168862
2.10668e-05
0.00252781
6.66662e-08
4.23593e-05
0.00245015
6.31068e-05
0.00235264
8.28517e-05
0.00222152
0.000101212
0.00205523
0.000117851
0.00185527
0.000132471
0.00162461
0.000144815
0.00136684
0.000154666
0.00108621
0.000161855
0.000787372
0.000166259
0.000475184
0.000154453
0.000167793
2.09308e-05
0.00250681
6.71216e-08
4.20879e-05
0.00242899
6.27037e-05
0.00233202
8.23235e-05
0.0022019
0.000100568
0.00203698
0.000117102
0.00183873
0.00013163
0.00161008
0.000143896
0.00135457
0.000153686
0.00107642
0.00016083
0.000780226
0.000165206
0.000470806
0.000152917
0.00016673
2.07957e-05
0.00248595
6.75143e-08
4.18182e-05
0.00240797
6.23032e-05
0.00231154
8.17988e-05
0.00218241
9.99277e-05
0.00201886
0.000116358
0.0018223
0.000130795
0.00159564
0.000142984
0.00134238
0.000152712
0.0010667
0.000159811
0.000773131
0.00016416
0.000466466
0.000151407
0.000165674
2.06615e-05
0.00246522
6.7871e-08
4.15503e-05
0.00238708
6.19054e-05
0.00229118
8.12775e-05
0.00216304
9.92918e-05
0.00200084
0.000115619
0.00180597
0.000129964
0.00158129
0.000142077
0.00133027
0.000151744
0.00105703
0.000158799
0.000766073
0.00016312
0.000462142
0.000149892
0.000164625
2.05283e-05
0.00244463
6.82278e-08
4.12842e-05
0.00236633
6.15101e-05
0.00227096
8.07596e-05
0.00214379
9.86601e-05
0.00198294
0.000114884
0.00178975
0.000129139
0.00156704
0.000141176
0.00131824
0.000150783
0.00104742
0.000157793
0.000759067
0.000162088
0.000457855
0.000148404
0.000163583
2.0396e-05
0.00242416
6.86253e-08
4.10199e-05
0.0023457
6.11174e-05
0.00225086
8.0245e-05
0.00212466
9.80324e-05
0.00196516
0.000114154
0.00177363
0.00012832
0.00155288
0.000140281
0.00130627
0.000149827
0.00103788
0.000156794
0.000752098
0.000161061
0.000453586
0.000146911
0.000162547
2.02646e-05
0.00240383
6.91062e-08
4.07572e-05
0.00232521
6.07273e-05
0.00223089
7.97337e-05
0.00210566
9.74087e-05
0.00194748
0.000113429
0.00175762
0.000127505
0.0015388
0.000139391
0.00129439
0.000148878
0.00102839
0.000155801
0.00074518
0.000160042
0.000449352
0.000145445
0.000161518
2.01341e-05
0.00238363
6.97072e-08
4.04964e-05
0.00230485
6.03397e-05
0.00221105
7.92258e-05
0.00208677
9.6789e-05
0.00192992
0.000112708
0.0017417
0.000126696
0.00152481
0.000138507
0.00128258
0.000147935
0.00101897
0.000154815
0.000738298
0.000159029
0.000445136
0.000143972
0.000160495
2.00045e-05
0.00236356
7.04569e-08
4.02372e-05
0.00228462
5.99546e-05
0.00219133
7.87211e-05
0.00206801
9.61733e-05
0.00191247
0.000111992
0.00172588
0.000125892
0.00151092
0.000137629
0.00127085
0.000146997
0.0010096
0.000153834
0.000731467
0.000158022
0.000440955
0.000142528
0.000159479
1.98757e-05
0.00234361
7.13698e-08
3.99798e-05
0.00226451
5.9572e-05
0.00217174
7.82196e-05
0.00204936
9.55616e-05
0.00189513
0.00011128
0.00171016
0.000125093
0.0014971
0.000136756
0.00125918
0.000146066
0.00100029
0.00015286
0.000724671
0.000157022
0.000436792
0.000141073
0.00015847
1.97479e-05
0.00232379
7.24477e-08
3.97241e-05
0.00224454
5.91919e-05
0.00215227
7.77215e-05
0.00203083
9.49538e-05
0.0018779
0.000110573
0.00169454
0.000124299
0.00148338
0.000135889
0.0012476
0.000145141
0.000991047
0.000151892
0.000717926
0.000156028
0.000432665
0.000139648
0.000157467
1.96209e-05
0.0023041
7.36777e-08
3.947e-05
0.00222469
5.88143e-05
0.00213293
7.72265e-05
0.00201242
9.43499e-05
0.00186078
0.000109871
0.00167902
0.00012351
0.00146974
0.000135028
0.00123608
0.000144221
0.000981853
0.000150931
0.000711215
0.000155041
0.000428554
0.000138209
0.000156471
1.94948e-05
0.00228453
7.50381e-08
3.92176e-05
0.00220497
5.84391e-05
0.00211371
7.67347e-05
0.00199413
9.37499e-05
0.00184376
0.000109173
0.0016636
0.000122727
0.00145619
0.000134172
0.00122464
0.000143308
0.000972723
0.000149975
0.000704554
0.00015406
0.000424479
0.0001368
0.000155481
1.93695e-05
0.00226508
7.64999e-08
3.89669e-05
0.00218537
5.80664e-05
0.00209461
7.62461e-05
0.00197595
9.31537e-05
0.00182686
0.00010848
0.00164828
0.000121948
0.00144272
0.000133321
0.00121326
0.0001424
0.000963644
0.000149026
0.000697926
0.000153085
0.000420419
0.000135374
0.000154497
1.92451e-05
0.00224576
7.8034e-08
3.87178e-05
0.0021659
5.76961e-05
0.00207563
7.57606e-05
0.00195789
9.25613e-05
0.00181006
0.000107791
0.00163305
0.000121174
0.00142934
0.000132476
0.00120197
0.000141498
0.000954629
0.000148083
0.000691348
0.000152117
0.000416396
0.00013398
0.00015352
1.91215e-05
0.00222656
7.9612e-08
3.84704e-05
0.00214655
5.73282e-05
0.00205677
7.52782e-05
0.00193994
9.19728e-05
0.00179336
0.000107106
0.00161792
0.000120406
0.00141604
0.000131637
0.00119074
0.000140602
0.000945663
0.000147146
0.000684803
0.000151154
0.000412385
0.000132567
0.000152548
1.89987e-05
0.00220748
8.12121e-08
3.82246e-05
0.00212733
5.69626e-05
0.00203804
7.47989e-05
0.0019221
9.1388e-05
0.00177678
0.000106426
0.00160288
0.000119642
0.00140283
0.000130802
0.00117958
0.000139712
0.000936761
0.000146214
0.000678307
0.000150198
0.000408412
0.000131186
0.000151583
1.88767e-05
0.00218852
8.28165e-08
3.79803e-05
0.00210822
5.65994e-05
0.00201942
7.43227e-05
0.00190438
9.08069e-05
0.00176029
0.00010575
0.00158794
0.000118883
0.0013897
0.000129973
0.00116849
0.000138827
0.000927907
0.000145289
0.000671843
0.000149248
0.00040445
0.000129787
0.000150624
1.87555e-05
0.00216969
8.44143e-08
3.77377e-05
0.00208924
5.62385e-05
0.00200092
7.38496e-05
0.00188677
9.02296e-05
0.00174392
0.000105078
0.0015731
0.000118129
0.00137665
0.00012915
0.00115748
0.000137948
0.000919116
0.00014437
0.000665429
0.000148304
0.000400525
0.000128421
0.000149672
1.86351e-05
0.00215096
8.59964e-08
3.74966e-05
0.00207038
5.588e-05
0.00198254
7.33794e-05
0.00186927
8.96559e-05
0.00172764
0.000104411
0.00155834
0.000117379
0.00136369
0.000128331
0.00114652
0.000137075
0.000910373
0.000143457
0.000659044
0.000147366
0.000396611
0.000127039
0.000148725
1.85154e-05
0.00213236
8.75571e-08
3.72571e-05
0.00205164
5.55237e-05
0.00196427
7.29123e-05
0.00185189
8.90859e-05
0.00171147
0.000103748
0.00154368
0.000116635
0.00135081
0.000127518
0.00113565
0.000136207
0.000901691
0.000142549
0.000652709
0.000146434
0.000392734
0.00012569
0.000147784
1.83965e-05
0.00211388
8.90886e-08
3.70191e-05
0.00203302
5.51698e-05
0.00194612
7.24482e-05
0.00183461
8.85196e-05
0.0016954
0.000103089
0.00152911
0.000115895
0.001338
0.000126711
0.00112483
0.000135345
0.000893056
0.000141648
0.000646403
0.000145508
0.000388867
0.000124323
0.00014685
1.82784e-05
0.00209551
9.05837e-08
3.67827e-05
0.00201451
5.48181e-05
0.00192809
7.1987e-05
0.00181744
8.79569e-05
0.00167943
0.000102435
0.00151464
0.00011516
0.00132528
0.000125908
0.00111409
0.000134489
0.000884483
0.000140752
0.000640147
0.000144589
0.000385037
0.000122993
0.000145921
1.8161e-05
0.00207726
9.20311e-08
3.65477e-05
0.00199613
5.44686e-05
0.00191016
7.15288e-05
0.00180038
8.73978e-05
0.00166356
0.000101785
0.00150026
0.00011443
0.00131264
0.00012511
0.00110341
0.000133637
0.000875956
0.000139862
0.000633919
0.000143675
0.000381217
0.000121644
0.000144999
1.80444e-05
0.00205912
9.34212e-08
3.63143e-05
0.00197786
5.41214e-05
0.00189236
7.10736e-05
0.00178343
8.68422e-05
0.0016478
0.000101139
0.00148596
0.000113704
0.00130008
0.000124318
0.00109281
0.000132792
0.000867489
0.000138978
0.00062774
0.000142767
0.000377435
0.000120332
0.000144082
1.79284e-05
0.0020411
9.47419e-08
3.60823e-05
0.0019597
5.37764e-05
0.00187467
7.06212e-05
0.00176659
8.62903e-05
0.00163213
0.000100497
0.00147176
0.000112984
0.00128759
0.000123531
0.00108226
0.000131952
0.000859068
0.000138099
0.000621588
0.000141865
0.00037366
0.000118999
0.000143172
1.78132e-05
0.00202319
9.59857e-08
3.58518e-05
0.00194167
5.34336e-05
0.00185709
7.01717e-05
0.00174985
8.57418e-05
0.00161657
9.98587e-05
0.00145765
0.000112267
0.00127519
0.000122749
0.00107178
0.000131117
0.000850706
0.000137227
0.000615486
0.000140968
0.000369925
0.000117705
0.000142267
1.76987e-05
0.0020054
9.71455e-08
3.56227e-05
0.00192374
5.3093e-05
0.00183962
6.97251e-05
0.00173322
8.51969e-05
0.00160109
9.92249e-05
0.00144362
0.000111556
0.00126286
0.000121972
0.00106137
0.000130288
0.000842389
0.00013636
0.00060941
0.000140078
0.000366196
0.000116387
0.000141369
1.7585e-05
0.00198772
9.82202e-08
3.53951e-05
0.00190593
5.27545e-05
0.00182226
6.92813e-05
0.0017167
8.46555e-05
0.00158572
9.85953e-05
0.00142969
0.000110849
0.00125061
0.000121199
0.00105103
0.000129464
0.000834131
0.000135498
0.000603382
0.000139193
0.000362506
0.000115111
0.000140476
1.74719e-05
0.00197014
9.92101e-08
3.5169e-05
0.00188824
5.24182e-05
0.00180501
6.88404e-05
0.00170028
8.41175e-05
0.00157045
9.79696e-05
0.00141584
0.000110146
0.00123844
0.000120432
0.00104074
0.000128646
0.000825917
0.000134642
0.000597381
0.000138315
0.000358823
0.000113808
0.000139589
1.73595e-05
0.00195269
1.00121e-07
3.49442e-05
0.00187065
5.2084e-05
0.00178787
6.84023e-05
0.00168396
8.3583e-05
0.00155527
9.7348e-05
0.00140208
0.000109448
0.00122634
0.00011967
0.00103053
0.000127832
0.000817761
0.000133792
0.000591428
0.000137441
0.000355179
0.000112549
0.000138708
1.72478e-05
0.00193534
1.00957e-07
3.47209e-05
0.00185318
5.1752e-05
0.00177084
6.7967e-05
0.00166775
8.3052e-05
0.00154019
9.67304e-05
0.0013884
0.000108755
0.00121432
0.000118913
0.00102037
0.000127024
0.000809649
0.000132947
0.0005855
0.000136574
0.00035154
0.000111261
0.000137833
1.71368e-05
0.0019181
1.01725e-07
3.44989e-05
0.00183582
5.1422e-05
0.00175392
6.75345e-05
0.00165164
8.25243e-05
0.0015252
9.61169e-05
0.00137481
0.000108066
0.00120238
0.000118161
0.00101028
0.000126222
0.000801594
0.000132108
0.00057962
0.000135712
0.00034794
0.000110017
0.000136964
1.70265e-05
0.00190097
1.0243e-07
3.42784e-05
0.00181857
5.10942e-05
0.0017371
6.71048e-05
0.00163563
8.2e-05
0.00151031
9.55072e-05
0.00136131
0.000107382
0.00119051
0.000117413
0.00100025
0.000125424
0.000793581
0.000131274
0.000573765
0.000134856
0.000344345
0.000108744
0.0001361
1.69168e-05
0.00188395
1.03077e-07
3.40592e-05
0.00180143
5.07684e-05
0.0017204
6.66778e-05
0.00161972
8.14792e-05
0.00149551
9.49015e-05
0.00134789
0.000106702
0.00117871
0.000116671
0.000990286
0.000124632
0.000785627
0.000130445
0.000567957
0.000134006
0.00034079
0.000107516
0.000135242
1.68079e-05
0.00186704
1.03666e-07
3.38414e-05
0.00178439
5.04447e-05
0.00170379
6.62535e-05
0.00160391
8.09616e-05
0.0014808
9.42997e-05
0.00133455
0.000106026
0.00116699
0.000115933
0.000980378
0.000123845
0.000777713
0.000129622
0.000562173
0.000133161
0.000337238
0.000106257
0.000134389
1.66996e-05
0.00185024
1.04202e-07
3.3625e-05
0.00176747
5.01231e-05
0.0016873
6.5832e-05
0.00158821
8.04475e-05
0.00146619
9.37019e-05
0.00132131
0.000105355
0.00115534
0.0001152
0.000970539
0.000123063
0.000769856
0.000128805
0.000556438
0.000132321
0.000333727
0.000105045
0.000133543
1.65919e-05
0.00183354
1.04688e-07
3.34099e-05
0.00175065
4.98035e-05
0.0016709
6.54131e-05
0.0015726
7.99366e-05
0.00145167
9.31079e-05
0.00130814
0.000104688
0.00114376
0.000114472
0.000960755
0.000122286
0.00076204
0.000127992
0.000550724
0.000131488
0.000330218
0.000103799
0.000132702
1.64849e-05
0.00181696
1.05131e-07
3.31961e-05
0.00173394
4.94859e-05
0.00165462
6.4997e-05
0.00155709
7.9429e-05
0.00143724
9.25177e-05
0.00129505
0.000104026
0.00113226
0.000113749
0.000951038
0.000121514
0.00075428
0.000127185
0.000545059
0.000130659
0.00032675
0.000102602
0.000131866
1.63786e-05
0.00180047
1.05543e-07
3.29838e-05
0.00171733
4.91704e-05
0.00163843
6.45835e-05
0.00154168
7.89248e-05
0.0014229
9.19314e-05
0.00128205
0.000103367
0.00112082
0.00011303
0.000941374
0.000120747
0.00074656
0.000126384
0.000539415
0.000129836
0.000323282
0.000101371
0.000131036
1.6273e-05
0.0017841
1.05941e-07
3.27727e-05
0.00170084
4.88569e-05
0.00162235
6.41727e-05
0.00152637
7.84238e-05
0.00140866
9.13489e-05
0.00126913
0.000102714
0.00110946
0.000112316
0.000931777
0.000119986
0.000738896
0.000125587
0.00053382
0.000129019
0.000319857
0.000100189
0.000130211
1.6168e-05
0.00176782
1.06345e-07
3.2563e-05
0.00168444
4.85454e-05
0.00160637
6.37646e-05
0.00151115
7.7926e-05
0.0013945
9.07702e-05
0.00125628
0.000102064
0.00109817
0.000111607
0.000922233
0.000119229
0.00073127
0.000124796
0.000528245
0.000128207
0.000316431
9.89702e-05
0.000129392
1.60637e-05
0.00175165
1.06779e-07
3.23546e-05
0.00166815
4.82359e-05
0.00159049
6.33591e-05
0.00149603
7.74315e-05
0.00138043
9.01953e-05
0.00124353
0.000101419
0.00108695
0.000110903
0.000912755
0.000118477
0.000723701
0.00012401
0.000522718
0.0001274
0.000313048
9.78033e-05
0.000128579
1.596e-05
0.00173559
1.07269e-07
3.21475e-05
0.00165196
4.79283e-05
0.00157471
6.29562e-05
0.001481
7.69403e-05
0.00136645
8.96242e-05
0.00123084
0.000100777
0.0010758
0.000110203
0.000903328
0.000117731
0.000716169
0.00012323
0.000517211
0.000126599
0.000309663
9.65984e-05
0.00012777
1.58569e-05
0.00171962
1.07839e-07
3.19417e-05
0.00163588
4.76228e-05
0.00155903
6.25559e-05
0.00146607
7.64522e-05
0.00135255
8.90568e-05
0.00121824
0.000100141
0.00106472
0.000109507
0.000893967
0.000116989
0.000708692
0.000122454
0.000511752
0.000125802
0.000306321
9.5446e-05
0.000126967
1.57546e-05
0.00170376
1.08508e-07
3.17373e-05
0.0016199
4.73192e-05
0.00154345
6.21582e-05
0.00145124
7.59673e-05
0.00133874
8.84931e-05
0.00120572
9.95079e-05
0.00105371
0.000108817
0.000884657
0.000116252
0.000701253
0.000121683
0.000506312
0.000125012
0.000302977
9.42544e-05
0.00012617
1.56528e-05
0.001688
1.09293e-07
3.15342e-05
0.00160402
4.70176e-05
0.00152796
6.17631e-05
0.00143649
7.54856e-05
0.00132503
8.79331e-05
0.00119328
9.88794e-05
0.00104276
0.00010813
0.000875412
0.00011552
0.000693868
0.000120918
0.000500921
0.000124226
0.000299676
9.31167e-05
0.000125378
1.55518e-05
0.00167234
1.10199e-07
3.13323e-05
0.00158824
4.6718e-05
0.00151258
6.13706e-05
0.00142184
7.5007e-05
0.00131139
8.73768e-05
0.00118091
9.8255e-05
0.00103188