/*--------------------------------*- C++ -*----------------------------------*\
  =========                 |
  \\      /  F ield         | OpenFOAM: The Open Source CFD Toolbox
   \\    /   O peration     | Website:  https://openfoam.org
    \\  /    A nd           | Version:  6.0
     \\/     M anipulation  |
\*---------------------------------------------------------------------------*/
FoamFile
{
    version     2.0;
    format      ascii;
    class       volVectorField;
    location    "3.7";
    object      U;
}
// * * * * * * * * * * * * * * * * * * * * * * * * * * * * * * * * * * * * * //

dimensions      [0 1 -1 0 0 0 0];

internalField   nonuniform List<vector> 
24000
(
(0.999994 5.38758e-06 -7.9616e-17)
(0.999946 -1.42748e-05 1.08432e-16)
(0.999858 -6.27468e-05 -1.90686e-16)
(0.999752 -0.000149739 2.10442e-16)
(0.999661 -0.000267428 -1.0383e-15)
(0.999607 -0.000396791 -6.15537e-16)
(0.999609 -0.000509056 6.30169e-16)
(0.999661 -0.000583078 -1.3962e-15)
(0.999755 -0.000586659 4.38298e-16)
(0.999863 -0.000532105 -3.22315e-16)
(0.999974 -0.000271319 -3.11959e-16)
(1.00088 0.000826506 -4.63746e-16)
(0.999987 1.37761e-05 1.16714e-16)
(0.999898 -3.48163e-05 -1.60451e-16)
(0.999739 -0.000135095 3.56319e-16)
(0.999547 -0.000302859 -8.89922e-17)
(0.999388 -0.000524827 4.62133e-16)
(0.9993 -0.000762495 6.22529e-16)
(0.999316 -0.00096268 -3.50576e-16)
(0.999422 -0.00108812 1.48333e-15)
(0.999604 -0.00108021 -3.11233e-16)
(0.999814 -0.000970306 1.59681e-17)
(0.999961 -0.000504807 8.14984e-17)
(1.00173 0.00114313 1.54358e-16)
(0.999986 1.97345e-05 -8.88974e-17)
(0.999906 -4.74761e-05 2.16195e-16)
(0.999763 -0.000160757 -1.235e-16)
(0.999592 -0.000333918 4.51687e-16)
(0.999451 -0.000557061 2.51698e-16)
(0.999375 -0.000790873 2.31534e-16)
(0.999398 -0.000983318 5.18572e-16)
(0.999507 -0.00110266 -6.59431e-16)
(0.999686 -0.00109206 -3.68022e-16)
(0.999905 -0.000996422 -1.29941e-16)
(0.999969 -0.000585176 -2.90768e-17)
(1.00182 0.00060638 4.88442e-16)
(0.999983 2.31073e-05 -3.79587e-17)
(0.999919 -6.21669e-05 -2.0455e-16)
(0.9998 -0.00018445 -3.15916e-16)
(0.999661 -0.000354801 -2.23928e-16)
(0.999546 -0.000567994 -1.31164e-16)
(0.999485 -0.00078736 -9.0625e-16)
(0.999511 -0.000966503 -1.43573e-15)
(0.999614 -0.00108027 1.64042e-16)
(0.999778 -0.00107637 4.69782e-17)
(1 -0.000999883 6.45826e-16)
(0.999994 -0.000660039 -4.12413e-16)
(1.00169 0.000231374 -5.71476e-16)
(0.999979 2.45048e-05 6.76237e-17)
(0.999919 -8.05454e-05 3.30223e-17)
(0.99981 -0.000218363 1.601e-16)
(0.999685 -0.000397927 -7.56917e-17)
(0.999585 -0.000616138 2.07998e-16)
(0.999535 -0.000835736 1.8725e-16)
(0.999566 -0.00101372 1.45241e-15)
(0.999672 -0.00112648 -9.49022e-17)
(0.999837 -0.00112284 -2.79967e-16)
(1.00008 -0.00103987 7.60981e-17)
(1.00005 -0.000716124 2.84619e-16)
(1.00156 0.000128713 -1.51356e-16)
(0.999973 2.45135e-05 3.91326e-18)
(0.999915 -0.000100186 -1.89999e-17)
(0.999809 -0.000255411 -2.13681e-17)
(0.999694 -0.000447928 -3.8695e-18)
(0.999607 -0.000674347 -8.63203e-16)
(0.99957 -0.000894663 1.05641e-15)
(0.999613 -0.00106863 2.93149e-17)
(0.999731 -0.0011729 1.46287e-16)
(0.999904 -0.00115752 6.91969e-16)
(1.00017 -0.00105436 -3.40639e-16)
(1.00015 -0.000726839 5.16492e-16)
(1.00148 0.000103613 3.4674e-16)
(0.999967 2.34153e-05 -3.54141e-18)
(0.999911 -0.000119857 2.04897e-16)
(0.99981 -0.000291412 -2.07835e-16)
(0.999707 -0.000495751 -1.01355e-16)
(0.999635 -0.000728138 4.43603e-16)
(0.999614 -0.000945653 -2.18228e-16)
(0.99967 -0.00111141 -6.04413e-16)
(0.999799 -0.00120343 -3.13582e-16)
(0.999979 -0.00117436 1.22225e-16)
(1.00027 -0.00105656 6.02474e-16)
(1.00026 -0.000737501 -1.21924e-15)
(1.00144 2.76379e-05 3.17982e-16)
(0.99996 2.13679e-05 -5.23077e-17)
(0.999907 -0.000139637 7.93226e-17)
(0.999812 -0.000327086 2.39489e-16)
(0.999718 -0.000543684 4.53449e-16)
(0.999659 -0.000783207 2.41416e-16)
(0.999652 -0.00100034 -2.67897e-16)
(0.999719 -0.00116167 -2.91297e-16)
(0.999859 -0.00124711 -1.39634e-16)
(1.00004 -0.00121183 4.82458e-17)
(1.00035 -0.00108963 -1.30484e-16)
(1.00037 -0.000790244 1.04393e-15)
(1.00143 -0.000109017 -5.4984e-16)
(0.999952 1.85401e-05 2.05951e-17)
(0.999901 -0.000159612 -1.94795e-16)
(0.999811 -0.000363082 1.4616e-17)
(0.999725 -0.000593287 -7.23638e-17)
(0.999675 -0.000842516 7.30282e-17)
(0.999679 -0.00106356 -6.11546e-17)
(0.999755 -0.00122612 5.1241e-17)
(0.999904 -0.00131165 5.59161e-16)
(1.0001 -0.0012768 -6.92914e-17)
(1.00042 -0.00115342 -7.90515e-16)
(1.00048 -0.000871168 -8.80698e-16)
(1.00145 -0.000251892 9.78262e-16)
(0.999943 1.50644e-05 7.31955e-17)
(0.999895 -0.000179644 4.86929e-18)
(0.99981 -0.000398796 1.84534e-16)
(0.99973 -0.000642626 -4.83882e-16)
(0.999688 -0.000901819 -1.15493e-16)
(0.999703 -0.00112768 5.22717e-16)
(0.999788 -0.00129259 -4.44018e-16)
(0.999946 -0.00137926 -6.69656e-16)
(1.00015 -0.00134534 2.05106e-16)
(1.00048 -0.00121696 2.0568e-16)
(1.00059 -0.00094266 6.54883e-16)
(1.00149 -0.00035778 -1.38346e-16)
(0.999934 1.10282e-05 -1.00394e-16)
(0.999888 -0.000199643 -2.31183e-17)
(0.99981 -0.000433657 -2.19928e-16)
(0.999737 -0.000689866 3.66005e-17)
(0.999706 -0.000957226 1.67331e-16)
(0.999732 -0.00118589 -3.60745e-16)
(0.999827 -0.00135051 2.71022e-16)
(0.999995 -0.0014351 7.54548e-16)
(1.0002 -0.00139867 -5.62622e-16)
(1.00056 -0.00126042 2.24448e-16)
(1.0007 -0.000987536 -8.48377e-16)
(1.00156 -0.000426414 -9.06583e-16)
(0.999924 6.46848e-06 6.51774e-18)
(0.999881 -0.000219697 1.9203e-16)
(0.999811 -0.000467796 -1.92621e-16)
(0.999748 -0.000735022 1.48992e-16)
(0.999727 -0.00100875 -4.57893e-16)
(0.999765 -0.0012383 -2.04027e-16)
(0.999872 -0.00140007 6.64333e-17)
(1.00005 -0.0014794 -3.03036e-16)
(1.00027 -0.00143742 -3.94489e-16)
(1.00064 -0.00128744 3.6324e-16)
(1.00082 -0.00101471 2.85987e-16)
(1.00164 -0.000480881 1.00883e-17)
(0.999913 1.41871e-06 2.45234e-17)
(0.999874 -0.000239936 -1.9191e-17)
(0.999812 -0.000501648 5.3075e-16)
(0.999759 -0.00077901 1.53132e-16)
(0.99975 -0.0010583 2.61738e-16)
(0.9998 -0.00128844 -2.92579e-16)
(0.999919 -0.00144693 -1.47962e-16)
(1.00011 -0.00152028 1.20648e-16)
(1.00034 -0.00147216 4.65929e-16)
(1.00071 -0.00131176 -1.22039e-15)
(1.00093 -0.00104067 -4.87182e-16)
(1.00172 -0.000539453 5.43591e-16)
(0.999901 -4.09438e-06 -7.57391e-17)
(0.999866 -0.000260455 -6.74217e-17)
(0.999812 -0.000535541 -4.19462e-16)
(0.999769 -0.000822476 -3.31504e-16)
(0.999772 -0.00110717 -2.32343e-16)
(0.999834 -0.00133871 3.65216e-16)
(0.999964 -0.00149515 2.51151e-16)
(1.00017 -0.00156382 -2.76687e-16)
(1.00041 -0.00151088 -3.71311e-16)
(1.00079 -0.00134257 -1.33032e-16)
(1.00104 -0.00107429 6.91861e-16)
(1.0018 -0.000605701 -4.83043e-16)
(0.999889 -1.00281e-05 4.07686e-17)
(0.999856 -0.000281273 3.22306e-17)
(0.999811 -0.000569594 4.95489e-17)
(0.999779 -0.000865605 7.90692e-17)
(0.999792 -0.00115555 8.22177e-17)
(0.999866 -0.00138929 -1.48336e-16)
(1.00001 -0.00154522 7.77666e-18)
(1.00022 -0.00161097 -3.8324e-16)
(1.00047 -0.00155496 3.62869e-16)
(1.00087 -0.00138077 1.38343e-15)
(1.00114 -0.00111508 -2.0574e-16)
(1.00188 -0.000674768 6.72751e-16)
(0.999876 -1.63372e-05 -3.93647e-17)
(0.999845 -0.000302376 1.48652e-18)
(0.999808 -0.000603849 1.47869e-16)
(0.999787 -0.00090847 2.09133e-16)
(0.999812 -0.00120329 2.31356e-16)
(0.999897 -0.00143946 -1.50326e-16)
(1.00005 -0.00159575 -2.42079e-16)
(1.00028 -0.00165979 5.92018e-16)
(1.00054 -0.00160193 1.43369e-16)
(1.00094 -0.00142297 -1.4911e-15)
(1.00124 -0.00115887 2.3583e-16)
(1.00197 -0.000742207 2.23052e-17)
(0.999862 -2.29543e-05 9.00685e-17)
(0.999833 -0.000323706 3.30946e-17)
(0.999804 -0.000638317 -3.19612e-16)
(0.999794 -0.000951275 1.37954e-16)
(0.999831 -0.0012506 -5.61562e-17)
(0.999927 -0.001489 3.67588e-16)
(1.00009 -0.00164588 6.25866e-16)
(1.00033 -0.00170868 1.05388e-16)
(1.0006 -0.00164955 5.11057e-16)
(1.00102 -0.00146648 1.23966e-15)
(1.00134 -0.00120317 1.43482e-15)
(1.00205 -0.000807136 -5.3681e-16)
(0.999847 -2.98037e-05 3.46183e-17)
(0.999819 -0.000345184 -2.74485e-17)
(0.999797 -0.000672987 3.03999e-16)
(0.999799 -0.000994324 -2.77338e-16)
(0.999849 -0.00129808 3.92607e-16)
(0.999956 -0.00153856 4.03456e-18)
(1.00013 -0.00169604 -4.0688e-16)
(1.00038 -0.00175776 1.28303e-16)
(1.00067 -0.00169762 -4.42499e-16)
(1.00109 -0.00151103 -2.16626e-16)
(1.00144 -0.00124814 -5.75506e-16)
(1.00214 -0.000871138 -1.06573e-16)
(0.999831 -3.67873e-05 -4.15161e-17)
(0.999803 -0.000366684 -2.31128e-16)
(0.999788 -0.000707759 -1.26527e-16)
(0.999801 -0.00103782 1.55317e-16)
(0.999863 -0.00134635 -2.82115e-17)
(0.999984 -0.00158913 -2.62177e-16)
(1.00017 -0.00174737 -5.46826e-17)
(1.00043 -0.00180822 -3.37877e-17)
(1.00073 -0.00174728 -5.31184e-16)
(1.00117 -0.00155772 -3.89752e-16)
(1.00154 -0.00129489 -1.72557e-15)
(1.00223 -0.000935069 1.02558e-15)
(0.999815 -4.38052e-05 -3.95569e-17)
(0.999787 -0.000388071 2.40621e-16)
(0.999778 -0.000742458 -1.71788e-16)
(0.9998 -0.00108172 7.66871e-17)
(0.999875 -0.00139568 -1.88285e-16)
(1.00001 -0.00164131 -4.26598e-16)
(1.00021 -0.00180072 5.41231e-17)
(1.00049 -0.00186097 -6.91106e-17)
(1.0008 -0.00179936 2.87552e-16)
(1.00124 -0.00160712 4.4704e-16)
(1.00163 -0.00134359 1.54426e-15)
(1.00232 -0.000998434 -9.91813e-16)
(0.999798 -5.07461e-05 2.84526e-17)
(0.999769 -0.000409198 -1.12027e-17)
(0.999766 -0.000776838 2.72435e-17)
(0.999798 -0.00112574 -6.36025e-17)
(0.999884 -0.00144583 -2.36591e-16)
(1.00003 -0.001695 -9.46775e-18)
(1.00025 -0.00185606 -1.25533e-16)
(1.00054 -0.00191596 -6.70654e-16)
(1.00086 -0.00185362 4.0416e-16)
(1.00132 -0.00165859 2.18942e-16)
(1.00173 -0.00139325 6.53452e-17)
(1.00241 -0.00105984 2.22993e-16)
(0.99978 -5.75074e-05 3.25448e-17)
(0.99975 -0.000429949 -2.63985e-16)
(0.999754 -0.00081068 5.16989e-16)
(0.999794 -0.00116949 4.92064e-17)
(0.999892 -0.00149627 1.43513e-16)
(1.00005 -0.00174958 8.70153e-16)
(1.00028 -0.00191266 7.15728e-16)
(1.00059 -0.00197232 3.62295e-16)
(1.00092 -0.001909 -9.6019e-16)
(1.00139 -0.00171091 -2.80098e-16)
(1.00182 -0.00144274 9.27051e-17)
(1.0025 -0.00111878 -3.32985e-17)
(0.999762 -6.39841e-05 -6.09897e-17)
(0.999731 -0.000450235 1.05162e-16)
(0.999741 -0.000843827 -6.97096e-17)
(0.99979 -0.00121264 -8.85442e-17)
(0.999899 -0.00154646 -2.55319e-16)
(1.00007 -0.00180432 -5.05263e-16)
(1.00032 -0.00196967 -2.74669e-16)
(1.00064 -0.00202912 -2.17875e-17)
(1.00099 -0.00196455 2.78279e-16)
(1.00147 -0.00176321 -2.65461e-16)
(1.00192 -0.00149166 -1.56697e-15)
(1.00259 -0.00117573 7.95245e-16)
(0.999743 -7.00862e-05 4.45306e-17)
(0.999712 -0.000470014 6.34579e-18)
(0.999727 -0.000876239 -1.89698e-16)
(0.999785 -0.00125503 -1.45115e-16)
(0.999906 -0.0015961 -8.05414e-17)
(1.00009 -0.00185879 -1.19074e-16)
(1.00035 -0.00202662 -2.17251e-16)
(1.00069 -0.00208591 -2.31818e-16)
(1.00106 -0.00201999 -6.75943e-17)
(1.00155 -0.0018155 -2.46306e-16)
(1.00202 -0.00154052 9.30098e-17)
(1.00269 -0.00123189 -1.58242e-16)
(0.999723 -7.57264e-05 1.52638e-17)
(0.999692 -0.000489264 1.49423e-16)
(0.999714 -0.000907952 4.09095e-17)
(0.99978 -0.0012967 -1.57134e-17)
(0.999913 -0.00164516 9.89096e-17)
(1.00011 -0.00191294 2.78012e-16)
(1.00039 -0.00208348 1.07033e-16)
(1.00074 -0.00214283 2.67757e-16)
(1.00112 -0.00207566 3.13956e-16)
(1.00163 -0.0018684 -3.06492e-16)
(1.00211 -0.00159021 1.00645e-15)
(1.00279 -0.00128816 -6.24437e-16)
(0.999702 -8.08346e-05 -2.06981e-17)
(0.999671 -0.00050799 -1.95501e-17)
(0.9997 -0.00093907 -1.47806e-16)
(0.999775 -0.0013378 -9.73011e-17)
(0.99992 -0.00169385 -3.48846e-17)
(1.00013 -0.00196698 -1.7906e-16)
(1.00042 -0.00214056 1.04233e-17)
(1.00079 -0.00220031 -3.11684e-16)
(1.00119 -0.00213218 -2.70864e-17)
(1.00171 -0.00192258 1.05328e-15)
(1.00221 -0.00164135 4.97076e-16)
(1.00288 -0.00134486 5.32724e-17)
(0.99968 -8.5345e-05 -9.8474e-18)
(0.99965 -0.000526194 -1.14695e-16)
(0.999685 -0.000969691 -5.05515e-17)
(0.99977 -0.00137855 -7.55445e-17)
(0.999927 -0.00174245 5.57856e-16)
(1.00015 -0.00202123 -1.29274e-16)
(1.00046 -0.00219821 1.53922e-16)
(1.00084 -0.00225877 -1.59961e-16)
(1.00125 -0.00218998 -2.55631e-16)
(1.00179 -0.00197835 -2.65601e-16)
(1.0023 -0.00169399 -1.96679e-17)
(1.00298 -0.0014018 -2.01914e-16)
(0.999657 -8.92109e-05 3.40977e-17)
(0.999628 -0.000543887 -4.08642e-17)
(0.999669 -0.000999909 1.71696e-16)
(0.999763 -0.00141911 3.4671e-16)
(0.999932 -0.0017912 -5.27489e-16)
(1.00017 -0.00207597 4.99371e-16)
(1.00049 -0.00225667 -2.76204e-16)
(1.00089 -0.00231839 -1.44256e-16)
(1.00132 -0.00224913 -1.9439e-16)
(1.00186 -0.0020356 -3.55628e-16)
(1.0024 -0.00174773 -1.51016e-16)
(1.00307 -0.00145837 -1.21158e-16)
(0.999633 -9.23921e-05 -5.82424e-18)
(0.999605 -0.000561063 -1.56717e-17)
(0.999653 -0.00102976 -1.57887e-17)
(0.999756 -0.0014596 -3.35616e-16)
(0.999937 -0.00184026 -1.44117e-16)
(1.00019 -0.00213135 -1.30604e-17)
(1.00053 -0.00231604 -3.90091e-16)
(1.00094 -0.00237914 7.19132e-16)
(1.00139 -0.00230946 -5.87598e-18)
(1.00194 -0.00209391 2.51236e-16)
(1.00249 -0.001802 1.78122e-16)
(1.00317 -0.00151405 -5.45512e-18)
(0.999607 -9.48665e-05 -1.8896e-17)
(0.999581 -0.000577725 1.07913e-16)
(0.999635 -0.00105928 3.21442e-17)
(0.999747 -0.00150005 4.61283e-16)
(0.999941 -0.00188968 2.51788e-16)
(1.00021 -0.00218739 -4.22507e-16)
(1.00056 -0.00237628 1.91888e-16)
(1.00099 -0.00244087 -3.78886e-16)
(1.00145 -0.00237067 1.31222e-15)
(1.00202 -0.00215284 -1.02052e-16)
(1.00259 -0.00185632 2.24698e-17)
(1.00327 -0.00156854 -1.41257e-16)
(0.99958 -9.66176e-05 -1.9717e-17)
(0.999556 -0.000593872 7.53882e-17)
(0.999616 -0.00108844 -9.05823e-17)
(0.999738 -0.00154044 -4.47692e-16)
(0.999944 -0.0019394 4.6367e-16)
(1.00023 -0.00224403 2.713e-16)
(1.00059 -0.00243728 3.43214e-16)
(1.00104 -0.00250338 1.53617e-16)
(1.00152 -0.00243245 -1.08999e-16)
(1.00211 -0.00221206 5.47573e-16)
(1.00268 -0.00191041 -9.93882e-16)
(1.00337 -0.00162199 1.12453e-15)
(0.999551 -9.76446e-05 2.74743e-17)
(0.99953 -0.000609514 -1.44287e-16)
(0.999597 -0.00111726 -8.42596e-17)
(0.999728 -0.00158072 -2.68477e-17)
(0.999946 -0.00198931 -1.77342e-16)
(1.00025 -0.00230112 -5.0382e-18)
(1.00063 -0.00249886 -2.82125e-16)
(1.00109 -0.00256646 -2.13591e-16)
(1.00159 -0.00249461 -1.20535e-15)
(1.00219 -0.0022714 -3.9802e-16)
(1.00278 -0.00196421 -2.56092e-16)
(1.00347 -0.00167454 -3.01457e-17)
(0.999521 -9.79503e-05 1.05364e-17)
(0.999503 -0.000624667 -1.18617e-17)
(0.999577 -0.00114573 -4.2632e-17)
(0.999717 -0.00162084 3.25695e-16)
(0.999948 -0.00203929 -5.5309e-16)
(1.00026 -0.00235851 -4.10552e-16)
(1.00066 -0.00256086 3.52817e-16)
(1.00114 -0.00262998 -2.3357e-17)
(1.00165 -0.00255704 7.30327e-17)
(1.00227 -0.00233084 4.21849e-16)
(1.00287 -0.00201789 -1.68743e-16)
(1.00357 -0.00172664 3.04906e-16)
(0.99949 -9.75494e-05 -1.51777e-17)
(0.999475 -0.000639364 1.70131e-16)
(0.999556 -0.00117391 2.88652e-16)
(0.999706 -0.00166079 -9.61927e-17)
(0.999949 -0.00208927 4.35854e-17)
(1.00028 -0.00241608 1.82409e-16)
(1.00069 -0.0026232 -4.21219e-16)
(1.00119 -0.0026939 4.43641e-16)
(1.00172 -0.0026198 3.45052e-16)
(1.00235 -0.00239056 -2.84432e-16)
(1.00297 -0.00207177 3.22795e-18)
(1.00367 -0.0017787 -1.90994e-17)
(0.999457 -9.64572e-05 -4.2956e-18)
(0.999446 -0.00065364 -2.47155e-16)
(0.999534 -0.00120185 -4.8521e-17)
(0.999694 -0.00170065 5.79719e-17)
(0.999951 -0.00213929 6.52494e-16)
(1.00029 -0.00247385 5.21107e-17)
(1.00073 -0.00268589 3.91105e-16)
(1.00124 -0.00275828 -7.24618e-16)
(1.00179 -0.00268306 3.64034e-16)
(1.00243 -0.00245085 -4.37502e-16)
(1.00307 -0.00212626 9.39309e-16)
(1.00377 -0.00183119 -4.67736e-16)
(0.999423 -9.46986e-05 2.14719e-17)
(0.999416 -0.000667541 1.09577e-16)
(0.999511 -0.00122966 -1.16394e-16)
(0.999681 -0.00174054 4.79244e-17)
(0.999951 -0.00218947 -3.92505e-16)
(1.00031 -0.00253196 -1.38228e-16)
(1.00076 -0.0027491 2.26982e-17)
(1.00129 -0.00282336 5.19244e-16)
(1.00186 -0.00274712 3.13513e-16)
(1.00252 -0.0025121 -2.1656e-17)
(1.00316 -0.00218178 1.23767e-15)
(1.00387 -0.00188446 -6.11934e-16)
(0.999387 -9.2299e-05 1.44338e-18)
(0.999385 -0.000681105 1.19597e-16)
(0.999487 -0.00125742 1.19505e-16)
(0.999668 -0.00178062 -1.44089e-17)
(0.999951 -0.00224003 2.87048e-16)
(1.00033 -0.00259063 3.7128e-16)
(1.00079 -0.0028131 -1.13325e-16)
(1.00134 -0.00288945 5.2161e-16)
(1.00193 -0.00281235 -1.19735e-15)
(1.0026 -0.00257466 -1.32889e-16)
(1.00326 -0.00223865 -1.78171e-15)
(1.00398 -0.00193866 1.41201e-16)
(0.99935 -8.92926e-05 -6.22755e-17)
(0.999352 -0.00069437 7.44118e-17)
(0.999461 -0.00128524 -2.12687e-17)
(0.999652 -0.00182107 1.55176e-16)
(0.99995 -0.00229123 -2.13725e-16)
(1.00034 -0.00265019 -5.21021e-16)
(1.00082 -0.0028782 -4.00887e-17)
(1.00139 -0.00295686 -3.71795e-16)
(1.002 -0.00287904 1.27544e-15)
(1.00268 -0.00263877 -4.29919e-17)
(1.00336 -0.00229701 3.82372e-16)
(1.00408 -0.00199384 7.05765e-16)
(0.999312 -8.57149e-05 1.54869e-17)
(0.999318 -0.000707361 -3.19027e-16)
(0.999434 -0.00131316 1.09973e-16)
(0.999636 -0.00186201 -5.10165e-16)
(0.999947 -0.00234327 2.55304e-16)
(1.00035 -0.00271088 8.45528e-16)
(1.00086 -0.00294469 -2.19291e-16)
(1.00144 -0.00302585 -5.19416e-16)
(1.00206 -0.0029474 -4.05898e-16)
(1.00277 -0.00270453 -8.02992e-17)
(1.00345 -0.00235686 3.96347e-16)
(1.00418 -0.00204959 -6.45405e-16)
(0.999272 -8.16112e-05 3.5517e-17)
(0.999283 -0.0007201 9.26875e-17)
(0.999405 -0.00134122 -3.33973e-16)
(0.999617 -0.00190354 4.62656e-16)
(0.999943 -0.00239632 -6.95771e-16)
(1.00037 -0.00277291 -6.95207e-16)
(1.00089 -0.00301274 2.651e-16)
(1.00149 -0.00309655 9.32575e-16)
(1.00213 -0.00301747 -5.25515e-16)
(1.00285 -0.00277187 2.1156e-16)
(1.00355 -0.00241802 -1.71039e-16)
(1.00428 -0.00210583 6.04575e-17)
(0.999231 -7.70307e-05 -6.04986e-18)
(0.999246 -0.000732597 2.00037e-16)
(0.999375 -0.00136941 2.66457e-16)
(0.999597 -0.00194566 -3.17234e-16)
(0.999937 -0.00245041 1.54371e-16)
(1.00038 -0.00283633 4.28255e-16)
(1.00091 -0.0030824 1.44054e-16)
(1.00154 -0.00316894 -9.66587e-17)
(1.0022 -0.00308914 7.36654e-16)
(1.00293 -0.00284058 3.75028e-16)
(1.00365 -0.00248022 7.05814e-17)
(1.00439 -0.00216217 6.37948e-17)
(0.999189 -7.20322e-05 1.36004e-17)
(0.999208 -0.00074487 -2.23153e-16)
(0.999343 -0.00139771 -5.89646e-17)
(0.999576 -0.00198833 1.2424e-16)
(0.99993 -0.00250549 7.5124e-16)
(1.00039 -0.00290108 -3.85429e-16)
(1.00094 -0.00315358 -3.2846e-16)
(1.00158 -0.00324288 -7.46656e-17)
(1.00226 -0.00316222 -7.28617e-16)
(1.00301 -0.00291042 4.23844e-16)
(1.00375 -0.00254322 -5.90132e-17)
(1.00449 -0.0022186 3.79487e-16)
(0.999146 -6.66775e-05 -1.07918e-17)
(0.999169 -0.000756936 1.39725e-16)
(0.99931 -0.00142609 -9.64257e-17)
(0.999553 -0.00203147 3.61904e-16)
(0.999921 -0.00256144 -7.05741e-16)
(1.0004 -0.00296701 4.95995e-16)
(1.00097 -0.0032261 -4.82662e-17)
(1.00163 -0.00331817 -5.0438e-17)
(1.00233 -0.00323649 7.53939e-16)
(1.0031 -0.00298116 -2.90795e-16)
(1.00384 -0.00260685 -2.38157e-16)
(1.00459 -0.0022748 -9.58537e-17)
(0.999102 -6.10366e-05 1.51896e-18)
(0.999129 -0.00076883 -2.6043e-17)
(0.999276 -0.00145454 1.17496e-16)
(0.999529 -0.00207499 -4.0142e-16)
(0.999912 -0.00261813 3.4844e-16)
(1.0004 -0.00303396 1.16615e-16)
(1.001 -0.00329977 1.68003e-16)
(1.00168 -0.00339459 -8.77412e-16)
(1.0024 -0.00331174 -3.68252e-16)
(1.00318 -0.00305264 -1.32508e-15)
(1.00394 -0.00267105 -6.93155e-16)
(1.0047 -0.00233098 -7.13212e-16)
(0.999057 -5.51805e-05 -1.97198e-17)
(0.999088 -0.000780589 1.80526e-17)
(0.999241 -0.00148305 -2.20173e-16)
(0.999504 -0.00211885 1.44783e-17)
(0.999901 -0.00267544 -8.85203e-17)
(1.00041 -0.00310174 5.26467e-18)
(1.00102 -0.00337439 3.10363e-16)
(1.00172 -0.00347198 1.18622e-15)
(1.00246 -0.00338783 1.03159e-16)
(1.00326 -0.00312475 8.27013e-16)
(1.00404 -0.00273575 -1.21439e-16)
(1.00481 -0.00238698 1.29447e-15)
(0.999011 -4.91847e-05 1.89732e-17)
(0.999046 -0.000792272 1.096e-17)
(0.999206 -0.00151166 2.97546e-16)
(0.999479 -0.00216303 -1.74058e-16)
(0.99989 -0.00273331 -2.03852e-16)
(1.00042 -0.00317028 -2.35507e-16)
(1.00105 -0.00344987 -1.42885e-16)
(1.00177 -0.00355023 -4.75621e-16)
(1.00253 -0.00346472 8.56312e-17)
(1.00335 -0.00319751 8.217e-16)
(1.00414 -0.00280099 7.98152e-16)
(1.00491 -0.00244309 -1.14959e-15)
(0.998964 -4.31219e-05 -1.93703e-17)
(0.999003 -0.00080394 -2.39638e-16)
(0.999169 -0.00154043 -1.27596e-16)
(0.999453 -0.00220757 2.92358e-17)
(0.999879 -0.00279173 5.11031e-16)
(1.00042 -0.00323952 -4.05324e-16)
(1.00108 -0.00352616 -3.61825e-16)
(1.00182 -0.00362933 -4.4741e-16)
(1.0026 -0.00354241 -5.3656e-16)
(1.00343 -0.00327093 -1.77543e-15)
(1.00423 -0.00286675 -5.94092e-16)
(1.00502 -0.00249924 5.82866e-16)
(0.998916 -3.70655e-05 9.69428e-18)
(0.998959 -0.000815665 2.0014e-16)
(0.999132 -0.00156942 6.03708e-17)
(0.999426 -0.00225253 3.7254e-16)
(0.999866 -0.00285075 -5.89833e-16)
(1.00043 -0.00330952 5.75106e-16)
(1.0011 -0.0036033 -6.85836e-18)
(1.00186 -0.00370931 1.05433e-15)
(1.00266 -0.00362095 3.80778e-16)
(1.00351 -0.00334509 2.31536e-15)
(1.00433 -0.00293308 3.30362e-16)
(1.00513 -0.00255561 5.43207e-16)
(0.998867 -3.10848e-05 -1.9792e-17)
(0.998914 -0.000827517 4.29922e-17)
(0.999093 -0.00159873 9.36461e-17)
(0.999398 -0.00229799 -1.45693e-16)
(0.999853 -0.00291045 5.03973e-16)
(1.00043 -0.00338034 -6.06766e-16)
(1.00113 -0.00368135 5.5412e-16)
(1.00191 -0.00379023 -1.42278e-16)
(1.00273 -0.0037004 2.32308e-16)
(1.0036 -0.00342002 -1.68852e-15)
(1.00443 -0.00299985 1.0039e-15)
(1.00523 -0.00261212 -1.21232e-15)
(0.998818 -2.52477e-05 2.12885e-17)
(0.998868 -0.000839567 -1.19013e-16)
(0.999054 -0.00162843 -1.73054e-16)
(0.999369 -0.00234405 -1.7112e-16)
(0.99984 -0.00297093 5.22014e-17)
(1.00044 -0.00345208 -1.59739e-16)
(1.00115 -0.00376038 -3.01825e-16)
(1.00195 -0.00387215 -6.69962e-16)
(1.00279 -0.00378079 -2.40033e-16)
(1.00368 -0.00349573 3.94639e-16)
(1.00453 -0.00306705 -9.86154e-16)
(1.00534 -0.00266888 7.00905e-16)
(0.998768 -1.96156e-05 5.12946e-17)
(0.99882 -0.000851877 1.44725e-17)
(0.999014 -0.0016586 -4.60489e-17)
(0.99934 -0.00239079 1.24355e-16)
(0.999825 -0.00303227 -6.88191e-16)
(1.00044 -0.00352479 1.16521e-16)
(1.00118 -0.00384045 5.05038e-16)
(1.002 -0.0039551 -2.82025e-16)
(1.00286 -0.00386212 9.47723e-17)
(1.00376 -0.0035722 -1.24234e-16)
(1.00463 -0.00313459 2.251e-16)
(1.00545 -0.00272593 -5.28226e-16)
(0.998717 -1.42476e-05 -3.34846e-17)
(0.998772 -0.000864511 7.35549e-17)
(0.998972 -0.0016893 -1.34611e-16)
(0.999309 -0.00243827 -8.06592e-17)
(0.99981 -0.00309452 5.11963e-16)
(1.00044 -0.00359852 2.11797e-16)
(1.0012 -0.00392157 -2.23611e-16)
(1.00204 -0.00403908 4.58793e-16)
(1.00292 -0.00394439 1.51075e-16)
(1.00385 -0.00364941 2.98189e-16)
(1.00472 -0.00320254 -3.07386e-16)
(1.00556 -0.00278331 -1.10954e-17)
(0.998666 -9.19615e-06 -5.12794e-17)
(0.998722 -0.000877519 -2.66957e-17)
(0.99893 -0.00172059 1.3877e-16)
(0.999278 -0.00248653 1.22688e-16)
(0.999794 -0.0031577 1.59603e-16)
(1.00045 -0.00367328 4.3182e-16)
(1.00122 -0.00400374 -1.9383e-16)
(1.00209 -0.00412407 -8.64662e-17)
(1.00299 -0.00402754 -1.83291e-16)
(1.00393 -0.00372731 -6.70467e-18)
(1.00482 -0.00327081 6.6498e-18)
(1.00567 -0.00284119 3.86713e-16)
(0.998613 -4.50884e-06 8.62698e-17)
(0.998672 -0.000890955 -1.39912e-17)
(0.998886 -0.00175251 1.60402e-16)
(0.999245 -0.00253562 -7.32943e-17)
(0.999777 -0.00322184 -1.40521e-16)
(1.00045 -0.00374906 -5.68517e-16)
(1.00125 -0.00408695 -3.44366e-16)
(1.00213 -0.00421003 2.24281e-16)
(1.00306 -0.00411158 3.53314e-17)
(1.00402 -0.00380592 5.37326e-17)
(1.00492 -0.00333956 8.31888e-17)
(1.00577 -0.00289969 3.45665e-17)
(0.99856 -2.24228e-07 -8.60454e-17)
(0.99862 -0.000904862 1.31689e-16)
(0.998841 -0.00178511 -2.3615e-16)
(0.999212 -0.00258555 1.62538e-16)
(0.999759 -0.00328695 -3.77439e-18)
(1.00045 -0.00382586 3.85952e-16)
(1.00127 -0.00417117 3.36087e-16)
(1.00218 -0.00429699 -2.24501e-16)
(1.00312 -0.00419653 3.69408e-16)
(1.0041 -0.00388529 -2.39473e-16)
(1.00502 -0.00340888 7.15493e-16)
(1.00588 -0.00295907 7.24061e-16)
(0.998506 3.62664e-06 6.59404e-17)
(0.998566 -0.000919286 -9.53272e-17)
(0.998795 -0.00181844 -4.00618e-17)
(0.999177 -0.00263638 1.20991e-16)
(0.99974 -0.00335306 -1.51902e-16)
(1.00045 -0.00390371 -2.36324e-16)
(1.00129 -0.00425645 3.6102e-16)
(1.00222 -0.00438497 -2.11494e-16)
(1.00319 -0.00428246 -4.49818e-16)
(1.00418 -0.00396554 2.42019e-16)
(1.00512 -0.00347906 -4.10684e-16)
(1.00599 -0.00301941 -5.67263e-16)
(0.998452 7.02241e-06 2.74131e-17)
(0.998512 -0.000934261 -1.01379e-16)
(0.998747 -0.00185254 4.14377e-16)
(0.999141 -0.00268816 -2.02566e-16)
(0.99972 -0.00342021 8.28019e-17)
(1.00045 -0.00398265 -1.92127e-16)
(1.00131 -0.00434284 -4.74453e-16)
(1.00226 -0.00447406 4.12188e-16)
(1.00325 -0.00436945 4.75082e-16)
(1.00427 -0.00404675 -5.9978e-16)
(1.00522 -0.00355028 -2.34136e-16)
(1.0061 -0.00308067 -1.77864e-16)
(0.998397 9.95121e-06 -7.85745e-17)
(0.998456 -0.000949826 3.06195e-17)
(0.998699 -0.00188746 -1.87559e-16)
(0.999104 -0.00274093 2.56692e-17)
(0.9997 -0.00348847 1.14278e-16)
(1.00045 -0.00406276 4.66776e-16)
(1.00133 -0.00443042 5.04962e-18)
(1.00231 -0.00456436 -2.43865e-17)
(1.00331 -0.00445763 -6.5325e-16)
(1.00435 -0.00412908 9.59064e-17)
(1.00532 -0.00362273 -1.35099e-16)
(1.00621 -0.00314288 7.25144e-17)
(0.998341 1.24114e-05 -1.26869e-17)
(0.998399 -0.000966006 -2.33574e-17)
(0.998649 -0.00192323 -2.73708e-16)
(0.999066 -0.00279475 -5.00277e-17)
(0.999678 -0.0035579 -1.79864e-16)
(1.00045 -0.00414413 -1.30189e-16)
(1.00135 -0.00451931 -1.328e-16)
(1.00235 -0.004656 1.63213e-16)
(1.00338 -0.00454709 1.83732e-16)
(1.00443 -0.00421259 3.14415e-16)
(1.00542 -0.00369645 4.43303e-16)
(1.00631 -0.00320577 -2.29361e-16)
(0.998284 1.441e-05 3.06811e-17)
(0.998341 -0.000982825 1.59487e-17)
(0.998598 -0.00195989 2.61323e-16)
(0.999027 -0.00284966 -5.25146e-17)
(0.999655 -0.00362858 -9.69126e-17)
(1.00044 -0.00422683 -1.49381e-16)
(1.00137 -0.00460959 4.43125e-16)
(1.00239 -0.00474906 -2.97244e-16)
(1.00344 -0.00463794 1.05036e-16)
(1.00452 -0.00429738 4.0952e-16)
(1.00552 -0.00377151 -2.60577e-16)
(1.00642 -0.00326942 -4.08098e-17)
(0.998226 1.59605e-05 -4.19494e-17)
(0.998281 -0.00100029 4.34091e-17)
(0.998545 -0.00199743 8.90639e-17)
(0.998986 -0.00290566 1.89805e-16)
(0.999631 -0.00370053 3.4212e-16)
(1.00044 -0.00431093 -2.54733e-16)
(1.00139 -0.00470133 -1.68995e-16)
(1.00243 -0.00484357 1.78236e-17)
(1.00351 -0.00473018 -3.11761e-16)
(1.0046 -0.00438337 -4.48825e-16)
(1.00562 -0.00384783 5.98156e-16)
(1.00653 -0.00333349 2.50791e-16)
(0.998167 1.70822e-05 6.75168e-17)
(0.998221 -0.00101842 8.25008e-17)
(0.998491 -0.00203586 -8.46023e-17)
(0.998943 -0.00296277 -1.72119e-16)
(0.999605 -0.00377376 4.47734e-17)
(1.00043 -0.00439642 4.17082e-16)
(1.0014 -0.00479454 -2.97818e-16)
(1.00247 -0.00493954 -1.07624e-17)
(1.00357 -0.00482379 3.97864e-16)
(1.00468 -0.00447055 -3.90077e-16)
(1.00572 -0.00392535 -5.07928e-16)
(1.00664 -0.00339811 -1.30174e-16)
(0.998107 1.77974e-05 8.35276e-18)
(0.998158 -0.0010372 8.44621e-18)
(0.998435 -0.00207516 -2.78365e-16)
(0.9989 -0.00302095 -2.27113e-16)
(0.999578 -0.00384823 -3.82237e-16)
(1.00043 -0.00448329 5.20759e-17)
(1.00142 -0.00488919 8.54173e-17)
(1.00251 -0.00503692 -5.94528e-17)
(1.00363 -0.00491872 -3.26848e-16)
(1.00477 -0.00455882 7.32632e-16)
(1.00582 -0.00400388 3.79563e-16)
(1.00675 -0.00346272 -1.17131e-16)
(0.998046 1.81314e-05 -3.96589e-17)
(0.998095 -0.00105662 -7.73123e-17)
(0.998378 -0.00211531 3.71084e-16)
(0.998855 -0.00308015 3.38082e-16)
(0.99955 -0.0039239 -7.43467e-18)
(1.00042 -0.00457148 7.23784e-17)
(1.00144 -0.0049852 -1.12406e-16)
(1.00255 -0.00513563 8.26202e-17)
(1.00369 -0.00501488 3.47946e-16)
(1.00485 -0.00464812 -1.80899e-16)
(1.00592 -0.00408337 1.28915e-16)
(1.00687 -0.00352769 2.17558e-16)
(0.997983 1.81079e-05 -2.48142e-18)
(0.99803 -0.00107669 5.34913e-17)
(0.99832 -0.00215626 -1.62464e-16)
(0.998809 -0.00314032 -3.19527e-16)
(0.999521 -0.00400068 1.93563e-16)
(1.00041 -0.00466089 -4.44067e-16)
(1.00145 -0.00508248 1.31262e-16)
(1.00259 -0.00523556 -1.95001e-16)
(1.00376 -0.00511215 3.08414e-17)
(1.00493 -0.00473833 1.85543e-16)
(1.00602 -0.00416349 -1.5992e-16)
(1.00698 -0.00359269 -4.8487e-16)
(0.99792 1.77531e-05 2.29249e-17)
(0.997964 -0.00109737 -1.4852e-16)
(0.998261 -0.00219799 1.66697e-16)
(0.998761 -0.0032014 2.80074e-16)
(0.999491 -0.00407851 -3.60313e-16)
(1.0004 -0.00475146 -3.05009e-17)
(1.00146 -0.00518095 2.19474e-16)
(1.00263 -0.00533664 -2.64969e-16)
(1.00382 -0.00521049 -3.21136e-16)
(1.00501 -0.00482947 9.08649e-17)
(1.00612 -0.00424426 -2.78634e-16)
(1.00709 -0.00365822 4.27028e-16)
(0.997854 1.70909e-05 1.50647e-17)
(0.997897 -0.00111866 7.82784e-17)
(0.9982 -0.00224047 -7.73461e-17)
(0.998713 -0.00326334 2.36011e-16)
(0.999459 -0.00415732 1.75104e-16)
(1.00039 -0.00484311 1.47511e-16)
(1.00148 -0.00528053 -2.48168e-16)
(1.00266 -0.00543881 3.78324e-16)
(1.00388 -0.00530985 -3.36613e-18)
(1.0051 -0.0049215 -7.20371e-16)
(1.00622 -0.0043256 1.37844e-16)
(1.0072 -0.00372435 -2.6875e-17)
(0.997787 1.61483e-05 -2.40154e-17)
(0.997829 -0.00114054 8.08602e-17)
(0.998139 -0.0022837 -2.69447e-16)
(0.998663 -0.00332613 -1.97729e-16)
(0.999427 -0.00423708 4.02625e-17)
(1.00038 -0.0049358 1.55106e-16)
(1.00149 -0.00538118 2.59218e-16)
(1.0027 -0.00554206 3.53888e-17)
(1.00394 -0.00541025 2.80468e-17)
(1.00518 -0.00501451 4.79684e-16)
(1.00632 -0.00440762 1.46028e-16)
(1.00732 -0.00379154 -2.33165e-16)
(0.997719 1.49504e-05 -1.89823e-17)
(0.997759 -0.001163 -2.24376e-17)
(0.998076 -0.00232764 2.85592e-16)
(0.998613 -0.00338973 4.56314e-18)
(0.999394 -0.00431777 2.46208e-16)
(1.00037 -0.00502952 -2.32191e-16)
(1.0015 -0.00548292 -1.52036e-16)
(1.00274 -0.00564638 -4.51806e-17)
(1.004 -0.0055117 5.44814e-18)
(1.00527 -0.0051085 2.91395e-16)
(1.00642 -0.00449024 -4.54445e-16)
(1.00743 -0.00385973 -2.6814e-16)
(0.997648 1.35266e-05 5.17642e-18)
(0.997688 -0.00118602 -7.88177e-17)
(0.998012 -0.0023723 -2.76255e-16)
(0.998561 -0.00345417 4.92642e-17)
(0.99936 -0.00439939 2.30183e-17)
(1.00035 -0.00512428 2.929e-18)
(1.00151 -0.00558575 -8.0332e-17)
(1.00277 -0.00575184 3.49385e-16)
(1.00407 -0.00561428 3.83199e-16)
(1.00535 -0.00520361 -2.54963e-16)
(1.00653 -0.00457372 6.88389e-16)