1.275 	2.15223e-18 	-2.76991e-20 	-0.0344643 	-0.000434767 	-1.90921e-22
1.825 	2.15223e-18 	-1.39322e-20 	-0.00946592 	-0.00275316 	1.68626e-21
2.375 	2.15223e-18 	-2.66896e-23 	0.115306 	-0.00323782 	-7.03372e-22
