1.275 	2.15223e-18 	-2.76991e-20 	-0.0344745 	-0.000436857 	-1.90688e-22
1.825 	2.15223e-18 	-1.39322e-20 	-0.00948579 	-0.00275249 	1.68331e-21
2.375 	2.15223e-18 	-2.66896e-23 	0.115246 	-0.00323144 	-7.02125e-22
