1.275 	2.15223e-18 	-2.76991e-20 	-0.0228126 	-0.00209849 	-2.02144e-22
1.825 	2.15223e-18 	-1.39322e-20 	0.0779747 	-0.0064673 	1.26148e-21
2.375 	2.15223e-18 	-2.66896e-23 	0.330268 	-0.00759198 	-4.319e-22
