1.45 	0 	0 	-0.29147
2.35 	0 	0 	-0.126749
