/*--------------------------------*- C++ -*----------------------------------*\
  =========                 |
  \\      /  F ield         | OpenFOAM: The Open Source CFD Toolbox
   \\    /   O peration     | Website:  https://openfoam.org
    \\  /    A nd           | Version:  6.0
     \\/     M anipulation  |
\*---------------------------------------------------------------------------*/
FoamFile
{
    version     2.0;
    format      ascii;
    class       volScalarField;
    location    "0.5";
    object      p;
}
// * * * * * * * * * * * * * * * * * * * * * * * * * * * * * * * * * * * * * //

dimensions      [0 2 -2 0 0 0 0];

internalField   nonuniform List<scalar> 
200
(
1.11242e-06
-0.00614413
-0.00985936
-0.00935173
-0.00495141
0.00287611
0.0138074
0.0276998
0.04459
0.0646542
0.08813
0.115175
0.145627
0.178642
0.212269
0.243165
0.266848
0.278881
0.277163
0.266607
0.00625861
-0.000389794
-0.00301053
-0.00171213
0.00266696
0.00995756
0.0201161
0.0331262
0.049024
0.0678925
0.0898288
0.114861
0.142787
0.172897
0.203618
0.232211
0.254944
0.267873
0.267821
0.256388
0.00996744
0.00105041
-0.00163176
6.02272e-05
0.00446985
0.0114891
0.0211931
0.0335992
0.0487081
0.0665324
0.0871127
0.110501
0.136664
0.165259
0.195233
0.224364
0.249124
0.264936
0.26615
0.251316
0.00656071
-0.00458081
-0.0073179
-0.0050841
-0.000295274
0.00695304
0.0167549
0.029064
0.04378
0.0608219
0.0802018
0.102076
0.126719
0.154343
0.184657
0.216193
0.245706
0.267583
0.272794
0.256114
-0.00765612
-0.0196971
-0.0211245
-0.0172295
-0.0110611
-0.00263523
0.00812642
0.0210582
0.035922
0.0525351
0.0708974
0.0913027
0.114385
0.141009
0.171862
0.206666
0.243076
0.274876
0.289317
0.275669
-0.0371056
-0.0469283
-0.0437512
-0.0357462
-0.0263529
-0.0153042
-0.00247854
0.0118879
0.027487
0.0441102
0.0618099
0.0810517
0.102822
0.128612
0.160144
0.19868
0.243633
0.289422
0.320557
0.319338
-0.0888432
-0.0886385
-0.074189
-0.0579837
-0.0427677
-0.0274688
-0.0116417
0.00467179
0.0213256
0.0382651
0.0557148
0.0743638
0.0955268
0.121232
0.154145
0.197187
0.252241
0.316199
0.374277
0.402562
-0.179634
-0.146365
-0.107879
-0.0781657
-0.0546363
-0.0341761
-0.0153699
0.00250129
0.0198301
0.0369232
0.0542769
0.0728309
0.0942007
0.12089
0.15646
0.205568
0.273125
0.361005
0.463632
0.556697
-0.360803
-0.217306
-0.127419
-0.0809614
-0.0508775
-0.0278986
-0.00882711
0.00830104
0.0246174
0.040761
0.0573748
0.0754906
0.0968463
0.124239
0.162017
0.2168
0.297923
0.417895
0.601434
0.849263
-0.702843
-0.279512
-0.101886
-0.0470222
-0.0213546
-0.00385033
0.00985772
0.0223904
0.0351343
0.0485981
0.0631578
0.0795583
0.0992569
0.124814
0.160565
0.214159
0.300244
0.449815
0.745972
1.287
)
;

boundaryField
{
    movingWall
    {
        type            zeroGradient;
    }
    fixedWalls
    {
        type            zeroGradient;
    }
    frontAndBack
    {
        type            empty;
    }
}


// ************************************************************************* //
