1.275 	2.15223e-18 	-2.76991e-20 	-0.0329483 	-0.000541506 	-2.06642e-22
1.825 	2.15223e-18 	-1.39322e-20 	-0.0021198 	-0.00357408 	1.75338e-21
2.375 	2.15223e-18 	-2.66896e-23 	0.165203 	-0.00492522 	-7.00872e-22
