1.45 	0 	0 	-0.00767706 	-0.0025921 	3.83078e-21
2.35 	0 	0 	0.0623499 	-0.00666409 	2.3526e-21
