/*--------------------------------*- C++ -*----------------------------------*\
  =========                 |
  \\      /  F ield         | OpenFOAM: The Open Source CFD Toolbox
   \\    /   O peration     | Website:  https://openfoam.org
    \\  /    A nd           | Version:  6.0
     \\/     M anipulation  |
\*---------------------------------------------------------------------------*/
FoamFile
{
    version     2.0;
    format      ascii;
    class       volScalarField;
    location    "9";
    object      p;
}
// * * * * * * * * * * * * * * * * * * * * * * * * * * * * * * * * * * * * * //

dimensions      [0 2 -2 0 0 0 0];

internalField   nonuniform List<scalar> 
47000
(
1.01603
1.01653
1.01691
1.01696
1.01658
1.01574
1.01457
1.0133
1.01213
1.01125
1.01069
1.01044
1.01035
1.01033
1.01026
1.01007
1.00972
1.00924
1.00862
1.00792
1.00717
1.00641
1.00567
1.00495
1.00429
1.00368
1.00316
1.00264
1.00261
1.00342
1.01601
1.01655
1.01699
1.01713
1.01683
1.01608
1.01498
1.01374
1.01257
1.01168
1.01112
1.0109
1.0109
1.01102
1.01111
1.0111
1.01093
1.0106
1.0101
1.00948
1.00877
1.00801
1.00722
1.00645
1.00571
1.00502
1.00443
1.00388
1.00396
1.00467
1.01599
1.01654
1.017
1.01716
1.0169
1.01615
1.01501
1.01367
1.01234
1.01123
1.01044
1.00999
1.0098
1.00979
1.00981
1.0098
1.00968
1.00944
1.00906
1.00857
1.00799
1.00737
1.00672
1.00609
1.00549
1.00495
1.00453
1.00422
1.00452
1.00536
1.01597
1.01654
1.01705
1.0173
1.01713
1.01648
1.01539
1.01406
1.01265
1.01141
1.01042
1.00976
1.00937
1.00919
1.0091
1.00904
1.00893
1.00874
1.00846
1.00809
1.00766
1.00719
1.00671
1.00624
1.00581
1.00544
1.0052
1.00509
1.00551
1.00645
1.01593
1.01656
1.01716
1.01756
1.01758
1.01714
1.01627
1.01509
1.01379
1.01256
1.01152
1.01076
1.01025
1.00995
1.00976
1.00964
1.00949
1.00931
1.00906
1.00875
1.00838
1.00799
1.00758
1.00719
1.00683
1.00652
1.00632
1.00623
1.00661
1.00741
1.01589
1.01657
1.01729
1.01785
1.01811
1.01794
1.01735
1.01643
1.01534
1.01425
1.01327
1.0125
1.01193
1.01155
1.01128
1.01108
1.01087
1.01064
1.01036
1.01003
1.00966
1.00925
1.00883
1.00842
1.00802
1.00767
1.00742
1.00726
1.00751
1.00812
1.01583
1.01656
1.01737
1.01809
1.01856
1.01865
1.01834
1.0177
1.01685
1.01593
1.01506
1.01433
1.01375
1.01332
1.01297
1.01269
1.0124
1.0121
1.01175
1.01136
1.01093
1.01046
1.00998
1.0095
1.00903
1.00861
1.00827
1.00804
1.00817
1.00861
1.01576
1.01652
1.01739
1.01822
1.01884
1.01914
1.01907
1.01868
1.01805
1.01731
1.01656
1.0159
1.01532
1.01486
1.01446
1.0141
1.01374
1.01336
1.01294
1.01248
1.01197
1.01144
1.01088
1.01033
1.0098
1.00931
1.00892
1.00863
1.00868
1.00901
1.01566
1.01644
1.01734
1.01822
1.01894
1.01939
1.0195
1.0193
1.01885
1.01827
1.01764
1.01704
1.01649
1.01601
1.01557
1.01516
1.01474
1.0143
1.01381
1.01328
1.01272
1.01213
1.01153
1.01093
1.01035
1.00982
1.0094
1.00909
1.00909
1.00934
1.01555
1.01632
1.01721
1.01811
1.01888
1.01941
1.01964
1.01958
1.01928
1.01883
1.0183
1.01777
1.01725
1.01678
1.01632
1.01588
1.01542
1.01493
1.0144
1.01384
1.01324
1.01261
1.01198
1.01136
1.01077
1.01023
1.0098
1.00949
1.00947
1.00966
1.01541
1.01616
1.01703
1.01791
1.01868
1.01925
1.01956
1.0196
1.01941
1.01907
1.01863
1.01816
1.01768
1.01722
1.01676
1.01631
1.01582
1.01532
1.01477
1.01419
1.01357
1.01294
1.0123
1.01168
1.01109
1.01057
1.01015
1.00984
1.0098
1.00996
1.01525
1.01598
1.0168
1.01764
1.0184
1.01898
1.01932
1.01943
1.01932
1.01906
1.0187
1.01829
1.01786
1.01743
1.01698
1.01653
1.01605
1.01554
1.01499
1.01441
1.01381
1.01318
1.01256
1.01195
1.01138
1.01088
1.01048
1.01019
1.01014
1.01027
1.01508
1.01578
1.01655
1.01734
1.01806
1.01862
1.01898
1.01913
1.01909
1.0189
1.0186
1.01825
1.01787
1.01747
1.01705
1.01662
1.01615
1.01566
1.01512
1.01456
1.01397
1.01337
1.01277
1.01219
1.01165
1.01117
1.0108
1.01052
1.01047
1.01056
1.01488
1.01555
1.01627
1.01701
1.01768
1.01823
1.01859
1.01877
1.01877
1.01864
1.01841
1.01811
1.01777
1.01742
1.01703
1.01663
1.01619
1.01572
1.01521
1.01468
1.01412
1.01355
1.01298
1.01243
1.01192
1.01148
1.01113
1.01086
1.0108
1.01088
1.01466
1.0153
1.01598
1.01666
1.0173
1.01782
1.01818
1.01838
1.01842
1.01834
1.01816
1.01792
1.01763
1.01732
1.01697
1.0166
1.01619
1.01576
1.01528
1.01478
1.01426
1.01372
1.01319
1.01267
1.01219
1.01177
1.01145
1.01119
1.01113
1.01119
1.01442
1.01504
1.01568
1.01632
1.01691
1.01741
1.01777
1.01798
1.01806
1.01802
1.01789
1.01771
1.01747
1.0172
1.01689
1.01656
1.01619
1.01579
1.01535
1.01489
1.0144
1.0139
1.0134
1.01292
1.01248
1.01208
1.01178
1.01153
1.01146
1.01151
1.01417
1.01477
1.01537
1.01597
1.01653
1.01701
1.01737
1.0176
1.0177
1.01771
1.01763
1.01749
1.0173
1.01708
1.01681
1.01652
1.01619
1.01583
1.01543
1.015
1.01455
1.01409
1.01363
1.01318
1.01276
1.01239
1.0121
1.01186
1.01179
1.01182
1.01391
1.01449
1.01505
1.01562
1.01616
1.01662
1.01698
1.01723
1.01736
1.01741
1.01738
1.01729
1.01714
1.01697
1.01675
1.0165
1.01621
1.01588
1.01552
1.01513
1.01472
1.01429
1.01386
1.01344
1.01306
1.01271
1.01244
1.01221
1.01213
1.01214
1.01363
1.01419
1.01473
1.01527
1.01579
1.01625
1.01661
1.01688
1.01704
1.01713
1.01714
1.0171
1.017
1.01686
1.01669
1.01648
1.01623
1.01595
1.01562
1.01527
1.01489
1.0145
1.0141
1.01371
1.01335
1.01302
1.01276
1.01254
1.01246
1.01246
1.01334
1.01388
1.0144
1.01493
1.01543
1.01588
1.01625
1.01654
1.01674
1.01686
1.01692
1.01692
1.01687
1.01678
1.01664
1.01648
1.01627
1.01602
1.01574
1.01542
1.01508
1.01472
1.01436
1.01399
1.01366
1.01335
1.0131
1.01288
1.01279
1.01278
1.01303
1.01356
1.01407
1.01458
1.01508
1.01553
1.01591
1.01622
1.01645
1.01661
1.01671
1.01675
1.01675
1.0167
1.01661
1.01648
1.01631
1.01611
1.01586
1.01558
1.01527
1.01494
1.01461
1.01427
1.01396
1.01367
1.01343
1.01321
1.01312
1.0131
1.01271
1.01323
1.01373
1.01423
1.01472
1.01518
1.01557
1.0159
1.01617
1.01637
1.01651
1.0166
1.01664
1.01663
1.01659
1.0165
1.01637
1.0162
1.01599
1.01575
1.01548
1.01518
1.01487
1.01456
1.01427
1.01399
1.01377
1.01355
1.01346
1.01342
1.01237
1.01288
1.01338
1.01387
1.01437
1.01483
1.01524
1.0156
1.0159
1.01614
1.01632
1.01645
1.01653
1.01657
1.01657
1.01652
1.01643
1.0163
1.01613
1.01592
1.01568
1.01541
1.01513
1.01485
1.01457
1.01431
1.0141
1.01389
1.01379
1.01374
1.01202
1.01252
1.01302
1.01351
1.01401
1.01448
1.01491
1.0153
1.01563
1.0159
1.01613
1.0163
1.01643
1.01651
1.01655
1.01655
1.0165
1.0164
1.01627
1.01609
1.01589
1.01565
1.0154
1.01514
1.01489
1.01464
1.01444
1.01423
1.01412
1.01407
1.01166
1.01215
1.01264
1.01314
1.01364
1.01413
1.01458
1.01499
1.01536
1.01567
1.01594
1.01616
1.01633
1.01646
1.01654
1.01657
1.01656
1.01651
1.01641
1.01627
1.0161
1.01589
1.01567
1.01543
1.0152
1.01496
1.01477
1.01456
1.01445
1.01439
1.01128
1.01176
1.01226
1.01276
1.01327
1.01377
1.01425
1.01469
1.01509
1.01544
1.01575
1.01601
1.01623
1.0164
1.01652
1.0166
1.01663
1.01662
1.01656
1.01645
1.01631
1.01614
1.01594
1.01573
1.01551
1.01529
1.01511
1.0149
1.01479
1.01472
1.01088
1.01136
1.01186
1.01236
1.01289
1.01341
1.01391
1.01438
1.01481
1.01521
1.01556
1.01587
1.01613
1.01634
1.01651
1.01663
1.0167
1.01672
1.0167
1.01663
1.01653
1.01638
1.01621
1.01602
1.01582
1.01562
1.01544
1.01524
1.01512
1.01505
1.01047
1.01094
1.01144
1.01196
1.0125
1.01303
1.01355
1.01406
1.01453
1.01496
1.01536
1.01571
1.01602
1.01628
1.01649
1.01666
1.01677
1.01683
1.01685
1.01682
1.01674
1.01663
1.01649
1.01632
1.01614
1.01595
1.01578
1.01558
1.01546
1.01538
1.01004
1.0105
1.01102
1.01154
1.01209
1.01265
1.0132
1.01373
1.01424
1.01472
1.01516
1.01555
1.01591
1.01621
1.01647
1.01668
1.01684
1.01694
1.017
1.017
1.01696
1.01687
1.01676
1.01661
1.01645
1.01627
1.01611
1.01592
1.01579
1.01571
1.00959
1.01005
1.01057
1.0111
1.01167
1.01225
1.01282
1.01339
1.01394
1.01446
1.01494
1.01539
1.01579
1.01614
1.01645
1.0167
1.0169
1.01705
1.01714
1.01718
1.01718
1.01712
1.01704
1.01691
1.01677
1.0166
1.01645
1.01626
1.01614
1.01604
1.00913
1.00958
1.01011
1.01066
1.01124
1.01184
1.01244
1.01304
1.01363
1.01419
1.01472
1.01521
1.01566
1.01606
1.01642
1.01672
1.01696
1.01715
1.01729
1.01736
1.01739
1.01737
1.01731
1.01721
1.01708
1.01693
1.01679
1.0166
1.01647
1.01637
1.00864
1.00909
1.00963
1.01019
1.01079
1.01141
1.01204
1.01268
1.01331
1.01391
1.01449
1.01503
1.01553
1.01598
1.01638
1.01673
1.01702
1.01725
1.01743
1.01754
1.01761
1.01762
1.01759
1.01751
1.0174
1.01727
1.01713
1.01695
1.01682
1.01671
1.00814
1.00859
1.00913
1.00971
1.01032
1.01097
1.01163
1.01231
1.01297
1.01363
1.01425
1.01484
1.01539
1.01589
1.01634
1.01674
1.01708
1.01735
1.01757
1.01772
1.01782
1.01786
1.01786
1.0178
1.01772
1.01759
1.01747
1.01729
1.01716
1.01705
1.00762
1.00806
1.00862
1.0092
1.00984
1.01051
1.01121
1.01191
1.01263
1.01332
1.014
1.01464
1.01524
1.01579
1.0163
1.01674
1.01713
1.01745
1.01771
1.0179
1.01804
1.01811
1.01814
1.01811
1.01804
1.01793
1.01781
1.01764
1.01751
1.01739
1.00708
1.00752
1.00808
1.00868
1.00934
1.01004
1.01076
1.01151
1.01227
1.01301
1.01374
1.01443
1.01508
1.01569
1.01625
1.01674
1.01718
1.01754
1.01785
1.01808
1.01826
1.01836
1.01841
1.0184
1.01836
1.01826
1.01815
1.01798
1.01785
1.01773
1.00652
1.00695
1.00753
1.00814
1.00882
1.00954
1.0103
1.01109
1.01189
1.01268
1.01346
1.0142
1.01491
1.01557
1.01619
1.01673
1.01722
1.01763
1.01798
1.01826
1.01847
1.01861
1.01869
1.01871
1.01868
1.0186
1.0185
1.01834
1.0182
1.01808
1.00593
1.00637
1.00695
1.00758
1.00828
1.00903
1.00983
1.01065
1.0115
1.01234
1.01317
1.01397
1.01474
1.01545
1.01612
1.01672
1.01726
1.01772
1.01812
1.01843
1.01868
1.01885
1.01897
1.01901
1.019
1.01893
1.01885
1.01869
1.01855
1.01842
1.00533
1.00576
1.00635
1.007
1.00772
1.0085
1.00933
1.01019
1.01109
1.01198
1.01287
1.01372
1.01455
1.01532
1.01604
1.01669
1.01729
1.0178
1.01825
1.0186
1.0189
1.0191
1.01925
1.01931
1.01933
1.01927
1.0192
1.01904
1.01891
1.01878
1.0047
1.00513
1.00573
1.0064
1.00714
1.00795
1.00881
1.00972
1.01066
1.01161
1.01255
1.01346
1.01434
1.01517
1.01596
1.01667
1.01732
1.01788
1.01837
1.01877
1.01911
1.01935
1.01953
1.01962
1.01965
1.01961
1.01954
1.01939
1.01926
1.01913
1.00405
1.00447
1.00508
1.00577
1.00654
1.00737
1.00827
1.00923
1.01022
1.01121
1.01222
1.01319
1.01413
1.01502
1.01587
1.01663
1.01734
1.01795
1.0185
1.01894
1.01932
1.01959
1.0198
1.01992
1.01998
1.01995
1.0199
1.01975
1.01962
1.01948
1.00338
1.00379
1.00442
1.00512
1.00591
1.00678
1.00772
1.00871
1.00975
1.01081
1.01187
1.0129
1.01391
1.01486
1.01576
1.01659
1.01735
1.01802
1.01862
1.01911
1.01953
1.01984
1.02008
1.02022
1.0203
1.02029
1.02025
1.02011
1.01998
1.01984
1.00268
1.00309
1.00372
1.00444
1.00526
1.00616
1.00714
1.00818
1.00927
1.01038
1.0115
1.01259
1.01367
1.01468
1.01565
1.01654
1.01736
1.01808
1.01873
1.01927
1.01973
1.02008
1.02036
1.02053
1.02063
1.02064
1.02061
1.02047
1.02034
1.0202
1.00195
1.00236
1.00301
1.00375
1.00459
1.00552
1.00653
1.00762
1.00877
1.00994
1.01112
1.01228
1.01341
1.01449
1.01553
1.01648
1.01736
1.01814
1.01884
1.01943
1.01994
1.02033
1.02064
1.02084
1.02096
1.02098
1.02096
1.02083
1.0207
1.02056
1.0012
1.00161
1.00226
1.00302
1.00388
1.00485
1.0059
1.00704
1.00824
1.00947
1.01072
1.01194
1.01315
1.01429
1.0154
1.01641
1.01735
1.01819
1.01895
1.01959
1.02014
1.02057
1.02092
1.02114
1.02129
1.02133
1.02132
1.0212
1.02107
1.02093
1.00043
1.00083
1.0015
1.00227
1.00316
1.00415
1.00525
1.00644
1.0077
1.00899
1.0103
1.01159
1.01287
1.01408
1.01525
1.01633
1.01734
1.01824
1.01905
1.01974
1.02034
1.02081
1.02119
1.02145
1.02162
1.02168
1.02168
1.02156
1.02144
1.02129
0.999622
1.00002
1.0007
1.00149
1.0024
1.00343
1.00458
1.00581
1.00713
1.00848
1.00986
1.01122
1.01257
1.01385
1.0151
1.01624
1.01732
1.01828
1.01915
1.01989
1.02054
1.02105
1.02147
1.02176
1.02195
1.02203
1.02204
1.02194
1.02181
1.02166
0.998793
0.999187
0.999873
1.00069
1.00163
1.00269
1.00387
1.00516
1.00654
1.00795
1.0094
1.01083
1.01225
1.01361
1.01493
1.01615
1.01729
1.01831
1.01924
1.02004
1.02073
1.02129
1.02175
1.02206
1.02228
1.02238
1.02241
1.0223
1.02218
1.02203
0.997931
0.99832
0.999016
0.999847
1.00081
1.00191
1.00314
1.00448
1.00592
1.0074
1.00892
1.01043
1.01192
1.01336
1.01475
1.01604
1.01725
1.01834
1.01933
1.02018
1.02093
1.02153
1.02202
1.02237
1.02262
1.02273
1.02277
1.02268
1.02256
1.02241
0.997044
0.997427
0.998133
0.998984
0.999976
1.00111
1.00238
1.00378
1.00528
1.00683
1.00842
1.01
1.01158
1.01309
1.01456
1.01592
1.0172
1.01836
1.01941
1.02032
1.02112
1.02176
1.0223
1.02268
1.02295
1.02309
1.02314
1.02305
1.02293
1.02278
0.996122
0.9965
0.997215
0.998085
0.999103
1.00027
1.00159
1.00305
1.00461
1.00623
1.0079
1.00956
1.01121
1.0128
1.01435
1.01579
1.01714
1.01837
1.01949
1.02045
1.0213
1.022
1.02257
1.02299
1.02329
1.02344
1.02351
1.02343
1.02331
1.02316
0.995173
0.995544
0.996269
0.997158
0.998204
0.999409
1.00078
1.00229
1.00392
1.00561
1.00735
1.00909
1.01083
1.0125
1.01413
1.01565
1.01708
1.01837
1.01956
1.02058
1.02149
1.02223
1.02285
1.0233
1.02362
1.0238
1.02388
1.02381
1.02369
1.02354
0.994188
0.994551
0.995285
0.996194
0.997267
0.998509
0.999928
1.0015
1.00319
1.00496
1.00678
1.0086
1.01042
1.01218
1.01389
1.01549
1.017
1.01836
1.01962
1.02071
1.02167
1.02246
1.02312
1.0236
1.02396
1.02416
1.02425
1.02419
1.02408
1.02392
0.993173
0.993529
0.994272
0.9952
0.996301
0.997582
0.999051
1.00068
1.00244
1.00428
1.00619
1.00809
1.01
1.01184
1.01364
1.01532
1.01691
1.01835
1.01967
1.02082
1.02184
1.02269
1.02339
1.02391
1.0243
1.02451
1.02463
1.02457
1.02446
1.02431
0.992121
0.992467
0.993218
0.994167
0.995296
0.996616
0.998136
0.999825
1.00166
1.00358
1.00557
1.00756
1.00955
1.01149
1.01337
1.01514
1.01681
1.01832
1.01972
1.02094
1.02202
1.02291
1.02366
1.02422
1.02464
1.02488
1.025
1.02496
1.02485
1.0247
0.991039
0.991373
0.992133
0.993102
0.994261
0.995621
0.997193
0.998944
1.00085
1.00285
1.00492
1.007
1.00909
1.01111
1.01309
1.01494
1.0167
1.01829
1.01976
1.02104
1.02219
1.02313
1.02393
1.02453
1.02497
1.02524
1.02538
1.02535
1.02524
1.02509
0.989917
0.990239
0.991006
0.991996
0.993184
0.994586
0.99621
0.998026
1.00001
1.00209
1.00425
1.00642
1.0086
1.01071
1.01279
1.01473
1.01657
1.01825
1.01979
1.02114
1.02235
1.02335
1.0242
1.02483
1.02531
1.0256
1.02576
1.02574
1.02563
1.02548
0.988764
0.989072
0.989847
0.990858
0.992076
0.993519
0.995198
0.997079
0.999137
1.0013
1.00355
1.00581
1.00809
1.0103
1.01247
1.0145
1.01643
1.01819
1.01982
1.02124
1.02251
1.02357
1.02446
1.02514
1.02565
1.02596
1.02614
1.02612
1.02603
1.02587
0.987571
0.987863
0.988646
0.989676
0.990925
0.992411
0.994144
0.996092
0.998228
1.00047
1.00282
1.00517
1.00755
1.00986
1.01213
1.01426
1.01628
1.01812
1.01983
1.02133
1.02266
1.02378
1.02473
1.02545
1.02599
1.02633
1.02652
1.02652
1.02642
1.02627
0.986347
0.986623
0.987412
0.988463
0.989742
0.991271
0.99306
0.995076
0.99729
0.999622
1.00206
1.00451
1.00699
1.00941
1.01177
1.014
1.01612
1.01805
1.01984
1.02141
1.02281
1.02399
1.02499
1.02575
1.02633
1.02669
1.0269
1.02691
1.02682
1.02667
0.985084
0.985342
0.986136
0.987207
0.988516
0.990087
0.991932
0.994017
0.996311
0.998732
1.00127
1.00382
1.0064
1.00892
1.01139
1.01372
1.01594
1.01796
1.01983
1.02148
1.02296
1.02419
1.02525
1.02606
1.02667
1.02706
1.02729
1.02731
1.02722
1.02707
0.98379
0.984031
0.98483
0.985918
0.987257
0.98887
0.990772
0.992927
0.995303
0.997814
1.00045
1.00311
1.0058
1.00842
1.011
1.01343
1.01574
1.01786
1.01982
1.02155
1.0231
1.0244
1.02551
1.02636
1.02701
1.02742
1.02767
1.0277
1.02762
1.02747
0.982456
0.98268
0.983481
0.984587
0.985953
0.987609
0.989568
0.991793
0.994252
0.996856
0.999588
1.00235
1.00515
1.00789
1.01058
1.01312
1.01553
1.01775
1.0198
1.02161
1.02323
1.0246
1.02576
1.02666
1.02735
1.02779
1.02806
1.0281
1.02803
1.02788
0.981093
0.9813
0.982103
0.983223
0.984616
0.986313
0.988329
0.990625
0.993169
0.995867
0.998702
1.00158
1.00449
1.00734
1.01014
1.01279
1.01531
1.01762
1.01976
1.02166
1.02336
1.02479
1.02601
1.02696
1.02769
1.02816
1.02845
1.0285
1.02843
1.02828
0.97969
0.97988
0.980683
0.981816
0.983234
0.984971
0.987044
0.989412
0.992041
0.994836
0.997777
1.00076
1.00379
1.00676
1.00968
1.01244
1.01507
1.01748
1.01972
1.0217
1.02348
1.02498
1.02627
1.02726
1.02803
1.02852
1.02884
1.0289
1.02884
1.02869
0.978257
0.978433
0.979233
0.980376
0.981818
0.983594
0.985723
0.988164
0.99088
0.993772
0.996822
0.999923
1.00307
1.00616
1.0092
1.01207
1.01482
1.01733
1.01967
1.02174
1.0236
1.02517
1.02651
1.02756
1.02836
1.02889
1.02923
1.02931
1.02925
1.02911
0.976785
0.976944
0.97774
0.978891
0.980354
0.982168
0.984354
0.986867
0.989672
0.992665
0.995825
0.999044
1.00232
1.00553
1.00869
1.01168
1.01454
1.01716
1.0196
1.02176
1.02371
1.02535
1.02676
1.02785
1.0287
1.02926
1.02961
1.02971
1.02966
1.02952
0.975283
0.975427
0.976217
0.977373
0.978855
0.980706
0.982947
0.985534
0.988428
0.991523
0.994797
0.998136
1.00153
1.00487
1.00816
1.01128
1.01425
1.01699
1.01953
1.02178
1.02381
1.02553
1.027
1.02815
1.02904
1.02963
1.03001
1.03012
1.03007
1.02994
0.97374
0.973867
0.974649
0.975808
0.977307
0.979194
0.98149
0.984151
0.987135
0.990334
0.993725
0.997188
1.00071
1.00418
1.0076
1.01084
1.01394
1.01679
1.01944
1.02179
1.02391
1.0257
1.02724
1.02844
1.02938
1.03
1.0304
1.03052
1.03049
1.03036
0.972167
0.972277
0.973049
0.974209
0.975722
0.977643
0.979994
0.982729
0.985805
0.98911
0.99262
0.996209
0.999869
1.00347
1.00702
1.0104
1.01362
1.01659
1.01934
1.0218
1.024
1.02587
1.02748
1.02873
1.02971
1.03036
1.03079
1.03093
1.0309
1.03078
0.970552
0.970643
0.971402
0.97256
0.974087
0.976039
0.978445
0.981254
0.984424
0.987838
0.991469
0.995189
0.998985
1.00273
1.00642
1.00992
1.01328
1.01636
1.01924
1.02179
1.02408
1.02604
1.02771
1.02902
1.03004
1.03073
1.03118
1.03133
1.03132
1.03121
0.968906
0.968976
0.969721
0.970875
0.972412
0.974396
0.976855
0.979739
0.983004
0.986528
0.990284
0.994137
0.998074
1.00196
1.00579
1.00943
1.01292
1.01613
1.01912
1.02177
1.02416
1.0262
1.02794
1.02931
1.03038
1.0311
1.03157
1.03174
1.03174
1.03163
0.967216
0.967263
0.967991
0.969138
0.970685
0.972698
0.97521
0.97817
0.981531
0.985168
0.989052
0.993042
0.997123
1.00115
1.00513
1.00892
1.01254
1.01588
1.01899
1.02175
1.02424
1.02635
1.02817
1.0296
1.03071
1.03146
1.03196
1.03215
1.03216
1.03206
0.965494
0.965516
0.966224
0.967363
0.968917
0.970959
0.973523
0.976559
0.980016
0.983769
0.987784
0.991915
0.996144
1.00032
1.00445
1.00838
1.01215
1.01562
1.01884
1.02172
1.0243
1.02651
1.02839
1.02988
1.03104
1.03183
1.03235
1.03256
1.03258
1.03248
0.963726
0.96372
0.964407
0.965535
0.967093
0.969163
0.971779
0.974891
0.978448
0.982319
0.986468
0.990743
0.995125
0.999457
1.00374
1.00782
1.01173
1.01534
1.01869
1.02168
1.02436
1.02665
1.02861
1.03016
1.03137
1.03219
1.03274
1.03296
1.03299
1.03291
0.961924
0.961889
0.962552
0.963666
0.965228
0.967323
0.969991
0.97318
0.976838
0.980829
0.985115
0.989538
0.994076
0.998566
1.00301
1.00724
1.0113
1.01504
1.01853
1.02163
1.02442
1.02679
1.02883
1.03044
1.0317
1.03256
1.03313
1.03337
1.03341
1.03333
0.960076
0.960007
0.960644
0.961743
0.963306
0.965426
0.968145
0.971412
0.975172
0.979286
0.983713
0.988289
0.992987
0.99764
1.00225
1.00664
1.01085
1.01473
1.01835
1.02157
1.02446
1.02693
1.02904
1.03071
1.03202
1.03292
1.03351
1.03377
1.03382
1.03375
0.958192
0.958088
0.958696
0.959778
0.961341
0.963483
0.966254
0.969598
0.973462
0.977702
0.982273
0.987005
0.991867
0.996688
1.00146
1.00602
1.01038
1.01441
1.01816
1.0215
1.0245
1.02706
1.02925
1.03099
1.03234
1.03327
1.0339
1.03418
1.03424
1.03417
0.956259
0.956118
0.956695
0.957757
0.959317
0.961482
0.964303
0.967727
0.971697
0.976065
0.980784
0.985676
0.990708
0.9957
1.00065
1.00537
1.00989
1.01407
1.01796
1.02142
1.02453
1.02718
1.02946
1.03125
1.03266
1.03363
1.03428
1.03457
1.03464
1.03459
0.954289
0.95411
0.954654
0.955694
0.957249
0.959434
0.962306
0.965809
0.969887
0.974387
0.979257
0.984313
0.989517
0.994685
0.999809
1.0047
1.00939
1.01372
1.01775
1.02134
1.02456
1.0273
1.02966
1.03152
1.03297
1.03398
1.03466
1.03497
1.03505
1.035
0.952269
0.952049
0.952559
0.953575
0.955123
0.957327
0.960248
0.963833
0.968021
0.972656
0.977681
0.982904
0.988286
0.993634
0.998939
1.00401
1.00886
1.01335
1.01752
1.02124
1.02457
1.02741
1.02985
1.03178
1.03328
1.03433
1.03503
1.03536
1.03545
1.0354
0.950211
0.94995
0.950424
0.951413
0.952952
0.955174
0.958144
0.961811
0.966111
0.970883
0.976066
0.981462
0.987025
0.992558
0.998048
1.00329
1.00832
1.01296
1.01729
1.02113
1.02458
1.02752
1.03004
1.03203
1.03359
1.03467
1.03539
1.03574
1.03584
1.03579
0.948103
0.947798
0.948235
0.949194
0.950721
0.95296
0.95598
0.959729
0.964144
0.969056
0.974403
0.979974
0.985723
0.991444
0.997125
1.00255
1.00775
1.01256
1.01703
1.02101
1.02457
1.02761
1.03022
1.03228
1.03388
1.035
1.03575
1.03611
1.03622
1.03618
0.945959
0.94561
0.946006
0.946933
0.948446
0.950699
0.953769
0.957602
0.962134
0.967189
0.972701
0.978453
0.98439
0.990305
0.996179
1.00179
1.00717
1.01214
1.01677
1.02088
1.02456
1.0277
1.03039
1.03251
1.03417
1.03532
1.03609
1.03647
1.03659
1.03656
0.943766
0.943372
0.943725
0.944615
0.946111
0.948378
0.951497
0.955416
0.960067
0.965269
0.970951
0.976887
0.983018
0.989129
0.995202
1.00101
1.00656
1.0117
1.01648
1.02073
1.02452
1.02777
1.03055
1.03274
1.03444
1.03563
1.03643
1.03683
1.03695
1.03692
0.94154
0.941099
0.941406
0.942256
0.943732
0.946011
0.94918
0.953185
0.957957
0.963309
0.969165
0.975287
0.981615
0.987927
0.994202
1.0002
1.00594
1.01124
1.01618
1.02057
1.02448
1.02783
1.0307
1.03296
1.03471
1.03594
1.03677
1.03718
1.03731
1.03729
0.93927
0.93878
0.939037
0.939843
0.941295
0.943584
0.946802
0.950896
0.955791
0.961296
0.967329
0.973644
0.980172
0.986688
0.993169
0.999366
1.00529
1.01077
1.01586
1.02038
1.02442
1.02787
1.03083
1.03316
1.03497
1.03624
1.03709
1.03752
1.03767
1.03765
0.93697
0.93643
0.936632
0.937388
0.938814
0.941112
0.944379
0.948562
0.953584
0.959244
0.965458
0.971968
0.9787
0.985423
0.992112
0.998509
1.00462
1.01027
1.01551
1.02018
1.02434
1.0279
1.03095
1.03336
1.03522
1.03653
1.03742
1.03787
1.03803
1.03802
0.934631
0.934036
0.934179
0.934881
0.936276
0.93858
0.941896
0.94617
0.951321
0.957141
0.963539
0.970247
0.977187
0.98412
0.99102
0.99762
1.00392
1.00975
1.01515
1.01996
1.02424
1.02792
1.03106
1.03354
1.03546
1.03682
1.03774
1.03822
1.03838
1.03838
0.932267
0.931616
0.931692
0.932334
0.933695
0.936004
0.939369
0.943736
0.949018
0.955
0.961585
0.968494
0.975645
0.982791
0.989903
0.996708
1.0032
1.0092
1.01477
1.01972
1.02414
1.02792
1.03115
1.03372
1.0357
1.03711
1.03807
1.03857
1.03875
1.03876
0.929866
0.929154
0.929158
0.929734
0.931057
0.93337
0.936785
0.941245
0.946662
0.952808
0.959583
0.966697
0.974061
0.981422
0.988748
0.995761
1.00245
1.00863
1.01436
1.01947
1.02401
1.02791
1.03124
1.03389
1.03594
1.0374
1.0384
1.03893
1.03912
1.03914
0.927444
0.926668
0.926592
0.927096
0.928377
0.930692
0.934156
0.938712
0.944265
0.950578
0.957544
0.964866
0.972446
0.980025
0.987566
0.994789
1.00168
1.00805
1.01394
1.0192
1.02388
1.0279
1.03133
1.03406
1.03618
1.0377
1.03874
1.0393
1.03951
1.03953
0.924987
0.924142
0.92398
0.924406
0.925642
0.927957
0.931471
0.936124
0.941816
0.948298
0.955458
0.962989
0.970789
0.978588
0.986346
0.993783
1.00087
1.00743
1.0135
1.01892
1.02374
1.02788
1.03141
1.03423
1.03642
1.03801
1.03909
1.03968
1.0399
1.03993
0.92251
0.921591
0.921335
0.921676
0.922864
0.925178
0.928742
0.933494
0.939327
0.94598
0.953334
0.961077
0.969099
0.977123
0.9851
0.992754
1.00005
1.00681
1.01305
1.01864
1.0236
1.02787
1.0315
1.03441
1.03668
1.03833
1.03945
1.04007
1.0403
1.04034
0.919999
0.919001
0.918643
0.918893
0.92003
0.922343
0.925957
0.930809
0.936786
0.943611
0.951161
0.959118
0.967365
0.975617
0.983818
0.991694
0.999203
1.00616
1.01259
1.01835
1.02346
1.02786
1.03159
1.0346
1.03694
1.03865
1.03982
1.04047
1.04071
1.04074
0.917466
0.916386
0.915917
0.91607
0.917152
0.919462
0.923127
0.928081
0.934204
0.941204
0.948949
0.957123
0.965599
0.974085
0.982515
0.990619
0.998344
1.00551
1.01213
1.01807
1.02333
1.02786
1.0317
1.0348
1.03722
1.03899
1.0402
1.04088
1.04113
1.04116
0.914899
0.913731
0.913144
0.913193
0.914219
0.916525
0.920241
0.925298
0.931568
0.938745
0.946688
0.955081
0.96379
0.972516
0.981183
0.989522
0.997468
1.00485
1.01167
1.01779
1.0232
1.02787
1.03182
1.03501
1.0375
1.03933
1.04058
1.04129
1.04155
1.04158
0.91231
0.911051
0.910339
0.910277
0.911241
0.913541
0.917309
0.92247
0.928891
0.936247
0.94439
0.953007
0.961954
0.970928
0.979838
0.98842
0.996594
1.00419
1.01121
1.01752
1.02309
1.02789
1.03195
1.03524
1.0378
1.03969
1.04098
1.04171
1.04197
1.042
0.909686
0.908332
0.907488
0.907309
0.908207
0.9105
0.914318
0.919586
0.926159
0.933699
0.942045
0.950892
0.960082
0.969312
0.978473
0.987306
0.995712
1.00354
1.01076
1.01725
1.02298
1.02792
1.03209
1.03547
1.03811
1.04005
1.04138
1.04212
1.0424
1.04242
0.90704
0.905589
0.904608
0.904305
0.905131
0.907413
0.911281
0.916657
0.923385
0.931113
0.939671
0.948753
0.958194
0.967686
0.977108
0.986196
0.994842
1.00289
1.01032
1.017
1.02289
1.02797
1.03225
1.03571
1.03843
1.04042
1.04178
1.04255
1.04282
1.04284
0.90436
0.90281
0.901688
0.901255
0.902003
0.90427
0.908188
0.913673
0.920559
0.928481
0.937257
0.946584
0.956281
0.966044
0.975732
0.985082
0.993971
1.00225
1.00988
1.01675
1.0228
1.02802
1.0324
1.03596
1.03874
1.04079
1.04219
1.04297
1.04325
1.04325
0.901659
0.900011
0.898746
0.898176
0.89884
0.901087
0.905053
0.910649
0.917696
0.92582
0.934823
0.944403
0.954365
0.964404
0.974364
0.983981
0.993115
1.00162
1.00946
1.01651
1.02273
1.02808
1.03258
1.03622
1.03907
1.04117
1.0426
1.0434
1.04367
1.04367
0.898926
0.89718
0.895769
0.89506
0.895632
0.897856
0.901869
0.907578
0.91479
0.923122
0.932363
0.942206
0.952438
0.962759
0.972994
0.982878
0.992259
1.001
1.00904
1.01627
1.02265
1.02813
1.03274
1.03648
1.0394
1.04155
1.04301
1.04382
1.04409
1.04408
0.896175
0.894333
0.892777
0.891924
0.892398
0.894594
0.898654
0.904478
0.911859
0.920407
0.929896
0.94001
0.950519
0.961125
0.971638
0.98179
0.991418
1.00039
1.00863
1.01604
1.02258
1.0282
1.03292
1.03675
1.03974
1.04193
1.04342
1.04424
1.04451
1.04449
0.893395
0.891458
0.889757
0.888759
0.889131
0.891297
0.895403
0.901344
0.908898
0.91767
0.927414
0.937807
0.948599
0.959492
0.970281
0.9807
0.990575
0.99977
1.00821
1.01581
1.0225
1.02826
1.03309
1.03701
1.04007
1.04231
1.04383
1.04466
1.04492
1.04489
0.890602
0.888571
0.886725
0.885581
0.885848
0.887982
0.892135
0.898197
0.90593
0.914931
0.924939
0.935616
0.946694
0.957874
0.968939
0.979623
0.989743
0.999163
1.00781
1.01558
1.02243
1.02833
1.03328
1.03729
1.04041
1.0427
1.04424
1.04509
1.04534
1.04529
0.887784
0.88566
0.88367
0.882379
0.882541
0.884643
0.888846
0.895033
0.902947
0.912183
0.922458
0.933424
0.94479
0.956257
0.967595
0.978541
0.988904
0.998549
1.00739
1.01535
1.02236
1.02839
1.03345
1.03755
1.04074
1.04308
1.04465
1.0455
1.04575
1.04567
0.884958
0.882741
0.880607
0.87917
0.879227
0.881299
0.885554
0.891869
0.89997
0.909445
0.919992
0.931248
0.942903
0.954655
0.966264
0.977468
0.988072
0.997939
1.00698
1.01512
1.02229
1.02846
1.03363
1.03783
1.04108
1.04347
1.04506
1.04592
1.04616
1.04606
0.882113
0.879802
0.877522
0.875939
0.875894
0.87794
0.882251
0.888698
0.89699
0.906706
0.917526
0.929071
0.941015
0.95305
0.964927
0.976386
0.98723
0.997318
1.00656
1.01488
1.0222
1.02852
1.03381
1.03809
1.04142
1.04385
1.04547
1.04633
1.04655
1.04644
0.879263
0.876858
0.87443
0.872702
0.872558
0.874581
0.878953
0.885537
0.894023
0.903984
0.915077
0.926911
0.939142
0.951457
0.963599
0.975311
0.986391
0.996701
1.00614
1.01464
1.02213
1.02858
1.03399
1.03837
1.04176
1.04424
1.04588
1.04675
1.04696
1.04682
0.876401
0.873898
0.871319
0.869446
0.869206
0.871211
0.875648
0.882373
0.891058
0.901264
0.91263
0.92475
0.937265
0.949857
0.962261
0.974223
0.985539
0.996069
1.00571
1.01439
1.02204
1.02864
1.03416
1.03864
1.0421
1.04462
1.04629
1.04716
1.04735
1.04718
0.873539
0.870936
0.868204
0.866184
0.865851
0.867842
0.87235
0.879221
0.888108
0.898561
0.910198
0.922602
0.935399
0.948265
0.960929
0.973139
0.984689
0.995439
1.00528
1.01415
1.02196
1.0287
1.03435
1.03892
1.04245
1.04502
1.0467
1.04757
1.04774
1.04755
0.870669
0.867964
0.865073
0.862905
0.86248
0.864462
0.869044
0.876065
0.885158
0.895859
0.907766
0.920451
0.933526
0.946664
0.959585
0.97204
0.983824
0.994794
1.00484
1.01389
1.02187
1.02876
1.03452
1.03919
1.04279
1.0454
1.04711
1.04797
1.04812
1.04789
0.867805
0.864994
0.86194
0.859622
0.859107
0.861083
0.865744
0.872919
0.882222
0.893171
0.905348
0.918311
0.931663
0.945069
0.958245
0.970945
0.982962
0.994151
1.0044
1.01364
1.02179
1.02882
1.03471
1.03947
1.04315
1.0458
1.04752
1.04838
1.0485
1.04824
0.864938
0.862019
0.858797
0.856324
0.85572
0.857692
0.862436
0.869769
0.879283
0.890482
0.902927
0.916167
0.929792
0.943463
0.956893
0.969835
0.982084
0.993494
1.00395
1.01337
1.0217
1.02888
1.03489
1.03975
1.04349
1.04619
1.04793
1.04878
1.04887
1.04857
0.862081
0.859051
0.855657
0.853027
0.852333
0.854304
0.859134
0.866628
0.876357
0.887807
0.90052
0.914034
0.927931
0.941865
0.955546
0.968729
0.981209
0.992839
1.0035
1.01312
1.02161
1.02894
1.03508
1.04004
1.04385
1.04659
1.04834
1.04918
1.04924
1.0489
0.859227
0.856083
0.852511
0.849721
0.848935
0.850906
0.855826
0.863483
0.87343
0.88513
0.898111
0.911896
0.926061
0.940256
0.954186
0.967609
0.980319
0.99217
1.00304
1.01285
1.02152
1.029
1.03527
1.04033
1.04421
1.04698
1.04874
1.04957
1.0496
1.04921
0.856387
0.853129
0.849375
0.84642
0.845542
0.847515
0.852526
0.860351
0.870517
0.88247
0.895717
0.909773
0.924204
0.938656
0.952833
0.966493
0.979433
0.991506
1.00259
1.01259
1.02143
1.02907
1.03546
1.04062
1.04457
1.04738
1.04916
1.04996
1.04995
1.04952
0.853554
0.85018
0.846239
0.843117
0.842145
0.84412
0.849226
0.857219
0.867607
0.879811
0.893324
0.907647
0.922341
0.937047
0.951469
0.965366
0.978535
0.990829
1.00212
1.01232
1.02134
1.02913
1.03566
1.04092
1.04493
1.04778
1.04956
1.05034
1.05029
1.0498
0.850741
0.84725
0.84312
0.839827
0.83876
0.840739
0.845941
0.854106
0.864716
0.877174
0.890951
0.905539
0.920493
0.93545
0.950113
0.964245
0.977642
0.990158
1.00166
1.01206
1.02126
1.02921
1.03586
1.04122
1.04531
1.04819
1.04997
1.05073
1.05063
1.05008
0.847941
0.844332
0.840009
0.836542
0.835379
0.837362
0.842663
0.851001
0.861836
0.874545
0.888585
0.903434
0.918643
0.933848