/*--------------------------------*- C++ -*----------------------------------*\
  =========                 |
  \\      /  F ield         | OpenFOAM: The Open Source CFD Toolbox
   \\    /   O peration     | Website:  https://openfoam.org
    \\  /    A nd           | Version:  6.0
     \\/     M anipulation  |
\*---------------------------------------------------------------------------*/
FoamFile
{
    version     2.0;
    format      ascii;
    class       volScalarField;
    location    "9";
    object      p;
}
// * * * * * * * * * * * * * * * * * * * * * * * * * * * * * * * * * * * * * //

dimensions      [0 2 -2 0 0 0 0];

internalField   nonuniform List<scalar> 
47000
(
0.00828668
0.00874703
0.00935614
0.00999212
0.0105322
0.0108858
0.0110219
0.0109804
0.010838
0.0106787
0.0105613
0.0105071
0.0105003
0.0105025
0.0104666
0.0103544
0.0101401
0.0098174
0.00939347
0.00888699
0.00832194
0.00772357
0.00711621
0.00652028
0.00595366
0.00542927
0.00496951
0.00453937
0.00441445
0.00518125
0.00825865
0.00872887
0.00935674
0.0100227
0.0106038
0.0110045
0.0111872
0.0111863
0.0110775
0.0109486
0.0108663
0.0108601
0.01092
0.0110086
0.0110742
0.0110697
0.0109584
0.0107231
0.0103616
0.00988673
0.00931925
0.00868418
0.00800793
0.00731413
0.0066252
0.00595837
0.00534763
0.00477931
0.00453797
0.00469588
0.00820169
0.00865405
0.00924464
0.00985921
0.0103774
0.010701
0.0107861
0.0106617
0.0104014
0.0100975
0.00982783
0.00963714
0.00953208
0.0094887
0.00946417
0.00941423
0.00929998
0.00909857
0.0088004
0.00841048
0.00794321
0.00741875
0.00686098
0.00629311
0.0057399
0.00522451
0.00479086
0.00445544
0.0044439
0.00482658
0.00811978
0.00856642
0.0091435
0.0097436
0.0102492
0.0105577
0.0106162
0.0104435
0.0101059
0.00969458
0.00929391
0.00896136
0.00872005
0.0085617
0.00845623
0.0083668
0.00825683
0.00810139
0.00788575
0.00760843
0.00727708
0.00690577
0.00651349
0.00611969
0.00574654
0.00541624
0.00516882
0.00501736
0.00514135
0.00560201
0.00801463
0.00848096
0.00909415
0.00975228
0.0103391
0.0107463
0.0109082
0.010829
0.0105607
0.0101856
0.00978636
0.00942622
0.00913933
0.00893037
0.00878161
0.00866525
0.00855003
0.00841219
0.00823521
0.00801357
0.00774987
0.00745261
0.00713533
0.00681208
0.00649956
0.00621485
0.00598931
0.00582447
0.00587696
0.00617253
0.00788347
0.00838259
0.00905744
0.00981093
0.0105279
0.0110942
0.0114317
0.0115278
0.0114172
0.0111679
0.0108551
0.0105411
0.010266
0.0100435
0.0098666
0.00971665
0.00956915
0.00940403
0.00920564
0.00896717
0.0086885
0.00837452
0.00803495
0.00767998
0.00732273
0.00697771
0.00667274
0.00640695
0.00632763
0.00644634
0.00772454
0.00825343
0.0089866
0.00983063
0.0106726
0.0113958
0.0119119
0.0121941
0.0122595
0.0121611
0.0119628
0.0117226
0.0114819
0.0112607
0.0110598
0.010869
0.0106708
0.0104501
0.0101938
0.00989603
0.00955622
0.00917801
0.00876969
0.00834034
0.00790258
0.0074719
0.00707716
0.00671967
0.00653839
0.00653815
0.00753167
0.00807843
0.00884839
0.00975304
0.010684
0.0115253
0.0121834
0.0126206
0.0128395
0.0128786
0.0127903
0.012626
0.0124257
0.0122125
0.011993
0.0117639
0.0115139
0.0112331
0.0109121
0.0105471
0.0101387
0.00969093
0.00921254
0.00871326
0.00820691
0.00771116
0.00725639
0.006845
0.00660377
0.00653308
0.00730075
0.00785238
0.00863315
0.00956186
0.0105368
0.011447
0.0121974
0.0127442
0.0130787
0.0132274
0.0132315
0.0131352
0.0129754
0.012776
0.0125473
0.0122912
0.0120016
0.0116734
0.0113008
0.0108827
0.0104213
0.00992218
0.00939509
0.00885098
0.00830501
0.00777633
0.00729545
0.00686316
0.00659286
0.00648292
0.00702784
0.00757244
0.00834008
0.00925978
0.0102384
0.0111722
0.0119688
0.0125815
0.0129942
0.0132233
0.0133004
0.0132626
0.0131425
0.0129634
0.0127375
0.0124703
0.0121596
0.0118044
0.0114018
0.0109535
0.0104634
0.00993847
0.00938955
0.0088285
0.00827119
0.00773703
0.00725511
0.00682311
0.00654171
0.00641031
0.0067132
0.00724229
0.00797942
0.00886582
0.00981792
0.010741
0.0115479
0.0121919
0.0126519
0.0129372
0.0130709
0.0130833
0.0130026
0.0128504
0.0126394
0.0123773
0.0120647
0.0117034
0.0112932
0.0108378
0.0103426
0.00981551
0.00926814
0.00871276
0.00816516
0.00764404
0.00717621
0.0067557
0.00647294
0.00632974
0.00635586
0.00686379
0.00755937
0.00839718
0.0093037
0.0101937
0.0109868
0.0116379
0.0121237
0.0124473
0.0126255
0.0126822
0.0126412
0.0125218
0.0123363
0.0120932
0.0117951
0.0114458
0.0110468
0.0106033
0.0101216
0.00961051
0.00908168
0.00854732
0.00802258
0.0075249
0.00707849
0.00667412
0.00639396
0.00624357
0.00595783
0.00644282
0.00709219
0.00787437
0.00872577
0.00957088
0.0103361
0.0109799
0.0114773
0.0118277
0.0120421
0.0121392
0.0121384
0.0120563
0.0119042
0.0116908
0.0114197
0.0110958
0.0107219
0.0103039
0.00984894
0.0093658
0.00886618
0.00836178
0.00786683
0.00739723
0.00697476
0.00658741
0.00631137
0.00615567
0.00551988
0.00598143
0.00658406
0.00730939
0.00810354
0.00889961
0.00963132
0.0102604
0.010762
0.0111322
0.0113778
0.0115127
0.0115523
0.0115106
0.0113974
0.011221
0.0109854
0.010696
0.0103562
0.00997258
0.00955234
0.00910422
0.00863955
0.00816937
0.00770685
0.00726638
0.00686752
0.00649625
0.00622399
0.00606354
0.00504582
0.00548492
0.00604361
0.00671513
0.00745451
0.00820287
0.00890042
0.0095127
0.010015
0.0104016
0.0106754
0.0108464
0.0109264
0.0109269
0.0108558
0.0107209
0.0105259
0.0102765
0.0099763
0.00963199
0.00925076
0.00884106
0.00841373
0.00797906
0.00754914
0.00713696
0.00676024
0.00640339
0.00613444
0.00596903
0.00453634
0.00495392
0.00547299
0.00609587
0.00678599
0.00749106
0.00815739
0.00875388
0.00925663
0.00965823
0.00995879
0.0101648
0.010285
0.0103283
0.0103009
0.0102099
0.0100582
0.00985163
0.00959373
0.00929107
0.00895062
0.00858044
0.00819079
0.0077912
0.00739274
0.00700714
0.00665056
0.00630641
0.00603975
0.00586916
0.00399442
0.00439238
0.00487725
0.00545791
0.00610541
0.00677325
0.00741284
0.00799641
0.00850075
0.00891743
0.00924408
0.00948443
0.00964432
0.00973038
0.00974732
0.00970095
0.00959377
0.00943126
0.00921664
0.00895636
0.00865697
0.00832613
0.00797347
0.00760777
0.00723918
0.00687831
0.00654005
0.00620702
0.00594214
0.00576596
0.00341987
0.00379952
0.00425554
0.00480046
0.00541248
0.0060496
0.00666787
0.00724217
0.00775029
0.00818281
0.00853555
0.00880974
0.00900882
0.00913733
0.00919843
0.00919685
0.00913439
0.00901609
0.00884484
0.00862673
0.00836795
0.00807563
0.00775881
0.00742556
0.00708514
0.00674722
0.00642559
0.00610246
0.00583863
0.00565672
0.0028152
0.00317827
0.0036107
0.00412624
0.0047094
0.00532219
0.00592433
0.00649332
0.00700759
0.0074572
0.00783629
0.00814411
0.0083819
0.00855243
0.00865729
0.00870024
0.00868225
0.00860794
0.00847969
0.00830326
0.00808433
0.00782958
0.00754742
0.00724526
0.00693157
0.00661516
0.00630892
0.00599473
0.00573176
0.00554397
0.00217936
0.00252681
0.00294028
0.00343206
0.00399258
0.00458687
0.00517801
0.00574545
0.00626848
0.00673654
0.00714256
0.00748397
0.00776019
0.0079723
0.00812055
0.00820765
0.00823382
0.0082031
0.00811738
0.00798202
0.00780221
0.00758412
0.00733555
0.00706331
0.0067751
0.006479
0.00618711
0.00588121
0.00561875
0.00542518
0.00151402
0.00184741
0.00224614
0.00271921
0.00326233
0.00384331
0.00442782
0.00499725
0.00553142
0.00601946
0.00645308
0.00682832
0.00714285
0.00739637
0.00758774
0.00771878
0.00778883
0.00780144
0.0077579
0.00766318
0.00752191
0.00733978
0.00712401
0.0068808
0.00661718
0.00634056
0.00606237
0.00576432
0.00550246
0.00530323
0.000817518
0.0011377
0.00152515
0.00198377
0.00251419
0.00308631
0.00366826
0.00424285
0.00479055
0.00530003
0.00576217
0.00617162
0.00652463
0.00681953
0.007054
0.0072289
0.00734279
0.00739859
0.00739707
0.00734269
0.00723959
0.00709293
0.00690936
0.00669453
0.0064548
0.006197
0.00593198
0.00564155
0.0053802
0.00517559
9.12926e-05
0.000399661
0.000778826
0.00122673
0.0017482
0.00231532
0.00289803
0.00348064
0.00404397
0.00457648
0.00506808
0.00551241
0.00590427
0.00624088
0.00651865
0.00673764
0.00689552
0.00699468
0.00703523
0.00702119
0.00695613
0.00684473
0.00669303
0.00650619
0.00628995
0.00605061
0.00579853
0.00551558
0.00525503
0.00504535
-0.000666579
-0.000369371
3.87721e-06
0.000444099
0.000960028
0.00152536
0.00211197
0.00270514
0.00328621
0.00384322
0.00436545
0.00484544
0.00527681
0.00565559
0.00597717
0.00624065
0.00644293
0.00658577
0.00666866
0.00669511
0.00666815
0.00659194
0.00647198
0.00631289
0.00611985
0.0058987
0.00565938
0.00538392
0.00512425
0.00490988
-0.00145484
-0.00116757
-0.000798164
-0.000362969
0.000150033
0.000716396
0.00130938
0.00191546
0.00251612
0.00309926
0.0036533
0.00417
0.0046417
0.00506348
0.00542955
0.00573825
0.00598555
0.00617267
0.00629839
0.00636575
0.00637715
0.00633631
0.00624812
0.00611677
0.00594688
0.00574387
0.00551732
0.00524943
0.00499102
0.00477237
-0.00227553
-0.00199769
-0.00163058
-0.00119828
-0.000685733
-0.000115981
0.00048584
0.0011069
0.00172907
0.00233985
0.0029271
0.00348161
0.00399471
0.00446041
0.00487191
0.00522666
0.00551983
0.00575193
0.00592114
0.0060299
0.0060801
0.00607488
0.00601864
0.00591508
0.00576833
0.00558344
0.00536969
0.00510954
0.00485256
0.00463006
-0.0031274
-0.00285791
-0.00249179
-0.00206045
-0.00154652
-0.000971272
-0.000358687
0.000279365
0.000924768
0.00156485
0.0021867
0.00278041
0.0033361
0.00384695
0.00430497
0.00470689
0.00504691
0.00532498
0.00553846
0.00568937
0.00577891
0.00580978
0.00578581
0.00571028
0.00558684
0.00542023
0.00521945
0.00496723
0.00471212
0.00448624
-0.00401251
-0.00375108
-0.00338498
-0.00295309
-0.00243593
-0.00185339
-0.00122802
-0.000571171
9.92849e-05
0.000770253
0.00142826
0.00206254
0.00266221
0.00321947
0.00372532
0.00417557
0.00456361
0.00488863
0.00514736
0.00534117
0.00547072
0.00553818
0.00554685
0.00549961
0.00539967
0.00525148
0.00506384
0.0048198
0.0045668
0.00433798
-0.0049296
-0.0046754
-0.00430845
-0.00387464
-0.00335291
-0.00276141
-0.00212167
-0.00144422
-0.000747053
-4.34611e-05
0.000652276
0.00132875
0.00197391
0.00257911
0.00313419
0.0036342
0.00407151
0.00444473
0.00474973
0.00498742
0.00515775
0.00526245
0.00530428
0.00528575
0.00520962
0.00508014
0.00490593
0.00467033
0.00441989
0.00418863
-0.00588079
-0.00563371
-0.00526537
-0.00482857
-0.00430083
-0.00369893
-0.00304307
-0.00234338
-0.00161772
-0.000879864
-0.000144676
0.000575583
0.00126786
0.00192253
0.0025284
0.00307959
0.00356758
0.00399022
0.00434267
0.00462518
0.00483714
0.00497975
0.00505527
0.00506585
0.00501386
0.00490335
0.00474284
0.00451601
0.0042684
0.00403512
-0.00686483
-0.00662421
-0.006254
-0.00581317
-0.00527844
-0.00466477
-0.00399141
-0.00326779
-0.00251199
-0.00173805
-0.000961695
-0.00019582
0.000545304
0.00125123
0.00190953
0.00251355
0.00305371
0.0035272
0.00392832
0.0042568
0.00451132
0.00469266
0.00480252
0.00484275
0.00481534
0.0047242
0.00457774
0.00435999
0.00411568
0.00388089
-0.00788386
-0.00764979
-0.00727746
-0.00683188
-0.00628898
-0.00566235
-0.00496992
-0.00422082
-0.00343311
-0.00262139
-0.00180201
-0.00098877
-0.000196954
0.000561952
0.00127447
0.00193294
0.00252686
0.00305262
0.00350373
0.00387929
0.00417738
0.00439823
0.0045431
0.0046135
0.00461112
0.00453969
0.00440762
0.00419932
0.0039586
0.00372273
-0.00893664
-0.00870868
-0.00833395
-0.00788289
-0.0073311
-0.00669033
-0.00597761
-0.0052014
-0.00438014
-0.00352874
-0.00266449
-0.00180187
-0.000957454
-0.00014357
0.00062499
0.00133978
0.00198912
0.00256876
0.00307125
0.00349518
0.00383788
0.0040992
0.00427985
0.00438109
0.00440425
0.00435301
0.00423575
0.00403725
0.00380059
0.00356413
-0.0100254
-0.00980378
-0.00942661
-0.00896961
-0.00840799
-0.00775209
-0.00701761
-0.00621281
-0.00535622
-0.00446337
-0.00355229
-0.0026384
-0.00173936
-0.000868591
-4.20146e-05
0.000730876
0.00143742
0.00207248
0.00262785
0.00310138
0.00348984
0.00379253
0.00400975
0.00414243
0.00419167
0.00416104
0.00405899
0.00387069
0.00363839
0.00340173
-0.0111488
-0.0109333
-0.0105537
-0.0100902
-0.00951824
-0.00884618
-0.00808884
-0.00725387
-0.00636028
-0.00542401
-0.00446414
-0.0034968
-0.00254107
-0.00161124
-0.00072463
0.0001084
0.000873964
0.00156623
0.00217599
0.00270056
0.00313596
0.0034811
0.00373574
0.00390064
0.00397656
0.00396709
0.00388071
0.00370298
0.00347549
0.00323913
-0.0123092
-0.0121002
-0.0117182
-0.0112481
-0.010665
-0.00997599
-0.00919444
-0.00832786
-0.00739548
-0.00641397
-0.00540322
-0.00438042
-0.0033658
-0.00237483
-0.00142605
-0.000530923
0.000295598
0.00104678
0.00171255
0.00228954
0.00277313
0.00316172
0.00345469
0.0036525
0.00375573
0.0037679
0.00369762
0.00353089
0.00330852
0.00307283
-0.0135054
-0.0133027
-0.0129185
-0.0124414
-0.011847
-0.01114
-0.0103332
-0.00943352
-0.00846066
-0.00743186
-0.00636816
-0.00528758
-0.00421184
-0.00315737
-0.00214423
-0.0011848
-0.000295333
0.000516689
0.00124015
0.00187111
0.00240419
0.00283743
0.00316968
0.00340126
0.00353247
0.00356688
0.0035132
0.00335784
0.00314103
0.00290649
-0.0147395
-0.0145438
-0.0141576
-0.0136737
-0.0130672
-0.0123417
-0.0115084
-0.0105742
-0.00955903
-0.00848105
-0.00736222
-0.00622169
-0.00508249
-0.00396229
-0.00288248
-0.00185662
-0.00090211
-2.73964e-05
0.00075552
0.00144195
0.00202591
0.00250491
0.00287744
0.00314357
0.00330345
0.00336063
0.00332403
0.00318048
0.00296954
0.00273647
-0.0160105
-0.0158216
-0.0154339
-0.0149429
-0.0143243
-0.0135796
-0.0127188
-0.0117485
-0.0106894
-0.00956008
-0.00838394
-0.007181
-0.00597594
-0.00478748
-0.00363863
-0.00254395
-0.00152225
-0.000582756
0.00026142
0.00100502
0.00164127
0.00216734
0.00258119
0.00288281
0.00307209
0.0031527
0.00313369
0.00300233
0.00279766
0.00256653
-0.0173206
-0.0171393
-0.0167504
-0.0162526
-0.0156216
-0.014857
-0.0139677
-0.0129599
-0.011855
-0.0106724
-0.00943668
-0.00816903
-0.00689561
-0.00563648
-0.0044161
-0.00325032
-0.00215917
-0.00115289
-0.000245538
0.00055686
0.0012469
0.00182125
0.00227753
0.0026155
0.00283494
0.00293954
0.00293862
0.00281989
0.0026218
0.00239291
-0.0186686
-0.018495
-0.0181054
-0.017601
-0.0169575
-0.0161725
-0.0152538
-0.0142071
-0.0130546
-0.0118166
-0.0105189
-0.00918393
-0.00783958
-0.00650706
-0.00521263
-0.00397318
-0.00281026
-0.00173494
-0.000762458
0.000100574
0.000845944
0.00146998
0.00196982
0.00234515
0.00259553
0.0027248
0.0027425
0.00263677
0.00244563
0.00221939
-0.0200568
-0.0198919
-0.0195021
-0.0189915
-0.0183355
-0.0175297
-0.0165804
-0.0154934
-0.0142915
-0.012996
-0.0116341
-0.0102293
-0.00881138
-0.00740291
-0.00603174
-0.00471616
-0.00347904
-0.00233253
-0.00129286
-0.000367446
0.000434873
0.00110992
0.00165451
0.00206812
0.00235027
0.00250482
0.00254165
0.00244936
0.00226545
0.00204213
-0.021484
-0.0213279
-0.0209387
-0.0204223
-0.0197539
-0.0189268
-0.0179463
-0.0168176
-0.0155645
-0.0142093
-0.0127805
-0.0113033
-0.00980901
-0.00832167
-0.00687104
-0.00547658
-0.00416277
-0.00294265
-0.0018337
-0.000843921
1.69952e-05
0.00074457
0.00133512
0.0017881
0.00210283
0.00228336
0.00233986
0.00226134
0.00208499
0.00186495
-0.0229525
-0.0228063
-0.0224185
-0.021897
-0.0212163
-0.0203677
-0.0193549
-0.0181832
-0.0168771
-0.0154599
-0.0139619
-0.0124096
-0.0108361
-0.00926716
-0.00773421
-0.00625822
-0.00486512
-0.00356908
-0.00238863
-0.00133261
-0.000411355
0.000370161
0.00100795
0.0015013
0.00184948
0.00205663
0.00213331
0.002069
0.00190048
0.00168396
-0.0244611
-0.0243251
-0.0239395
-0.0234135
-0.022721
-0.0218506
-0.0208049
-0.0195888
-0.0182278
-0.0167464
-0.0151765
-0.0135461
-0.0118906
-0.0102369
-0.0086187
-0.00705825
-0.00558319
-0.00420863
-0.00295444
-0.00183007
-0.000846714
-9.63738e-06
0.00067668
0.00121153
0.00159402
0.00182851
0.00192589
0.00187609
0.00171565
0.00150294
-0.0260122
-0.0258877
-0.0255053
-0.0249758
-0.0242717
-0.0233794
-0.0222998
-0.021038
-0.0196202
-0.0180724
-0.016428
-0.0147168
-0.0129761
-0.0112348
-0.00952834
-0.00788059
-0.00632079
-0.00486524
-0.00353494
-0.00234022
-0.00129289
-0.000398746
0.000337473
0.000914871
0.00133259
0.00159507
0.0017137
0.00167883
0.00152673
0.00131803
-0.0276044
-0.0274918
-0.0271138
-0.0265815
-0.0258666
-0.0249523
-0.0238384
-0.0225294
-0.0210529
-0.0194361
-0.0177146
-0.0159195
-0.0140906
-0.0122583
-0.0104604
-0.00872224
-0.00707484
-0.00553555
-0.00412675
-0.00285942
-0.00174625
-0.000793319
-5.85417e-06
0.000615296
0.00106913
0.00136033
0.00150069
0.00148102
0.00133744
0.00113292
-0.0292403
-0.0291411
-0.0287686
-0.0282349
-0.0275095
-0.0265733
-0.0254241
-0.0240667
-0.0225297
-0.0208417
-0.0190401
-0.0171582
-0.0152378
-0.0133114
-0.0114189
-0.00958727
-0.00784932
-0.00622365
-0.00473383
-0.00339174
-0.00221076
-0.00119744
-0.000357265
0.000308739
0.000799649
0.00112025
0.0012829
0.00127884
0.00114401
0.00094386
-0.0309181
-0.030833
-0.0304675
-0.0299334
-0.0291985
-0.0282405
-0.0270556
-0.0256484
-0.0240488
-0.022287
-0.0204027
-0.0184306
-0.0164155
-0.0143915
-0.012401
-0.0104725
-0.00864096
-0.00692597
-0.0053526
-0.00393338
-0.0026826
-0.00160708
-0.000712791
-6.79834e-07
0.000528208
0.000878945
0.00106436
0.00107614
0.000950157
0.000754387
-0.0326408
-0.0325715
-0.0322144
-0.0316814
-0.0309377
-0.029958
-0.0287367
-0.0272785
-0.0256143
-0.0237763
-0.0218062
-0.0197409
-0.0176276
-0.0155026
-0.0134106
-0.0113822
-0.00945391
-0.0076468
-0.00598719
-0.00448856
-0.00316589
-0.00202648
-0.00107653
-0.000317163
0.000250722
0.000632311
0.000841061
0.00086908
0.000752152
0.000560936
-0.0344063
-0.0343536
-0.0340069
-0.0334764
-0.032725
-0.0317239
-0.0304657
-0.0289551
-0.0272245
-0.0253075
-0.0232486
-0.0210866
-0.0188716
-0.0166419
-0.014445
-0.012313
-0.0102847
-0.00838235
-0.00663383
-0.00505328
-0.00365663
-0.00245143
-0.00144436
-0.000636427
-2.86282e-05
0.000384551
0.000617108
0.000661555
0.000553697
0.000366813
-0.0362179
-0.0361838
-0.0358491
-0.0353228
-0.0345646
-0.0335423
-0.0322467
-0.0306824
-0.0288832
-0.0268849
-0.024734
-0.022472
-0.0201518
-0.0178138
-0.0155082
-0.0132692
-0.0111376
-0.00913708
-0.0072968
-0.00563194
-0.0041591
-0.00288633
-0.00182052
-0.000962814
-0.000314027
0.000131493
0.000388448
0.000449744
0.000351128
0.000168802
-0.0380731
-0.0380589
-0.0377383
-0.037218
-0.0364544
-0.0354114
-0.034078
-0.0324586
-0.0305889
-0.0285063
-0.0262603
-0.0238946
-0.0214653
-0.0190151
-0.0165971
-0.0142474
-0.012009
-0.00990699
-0.00797214
-0.00622032
-0.00466911
-0.00332678
-0.00220071
-0.00129188
-0.00060117
-0.000122551
0.000159276
0.000237578
0.000148151
-3.01419e-05
-0.0399758
-0.0399834
-0.039679
-0.0391665
-0.0383986
-0.0373354
-0.0359637
-0.034288
-0.0323455
-0.030176
-0.0278317
-0.0253588
-0.0228166
-0.0202504
-0.017716
-0.015252
-0.0129034
-0.0106967
-0.0086643
-0.00682301
-0.00519109
-0.00377735
-0.00258932
-0.00162811
-0.00089434
-0.00038183
-7.45024e-05
2.125e-05
-5.88206e-05
-0.000232725
-0.0419234
-0.0419543
-0.0416685
-0.0411657
-0.0403952
-0.0393122
-0.0379019
-0.0361685
-0.0341511
-0.0318918
-0.0294457
-0.0268618
-0.0242027
-0.0215163
-0.0188617
-0.0162793
-0.0138168
-0.0115021
-0.00936911
-0.00743555
-0.00572067
-0.00423344
-0.00298187
-0.00196689
-0.0011891
-0.000641912
-0.000308586
-0.000195214
-0.000265975
-0.000436336
-0.04392
-0.0439762
-0.0437111
-0.0432203
-0.0424482
-0.0413462
-0.0398969
-0.0381045
-0.0360102
-0.0336582
-0.0311069
-0.0284083
-0.0256282
-0.0228176
-0.0200385
-0.017334
-0.0147539
-0.0123278
-0.0100912
-0.00806273
-0.00626244
-0.00469979
-0.00338291
-0.00231283
-0.00148983
-0.000907127
-0.000547124
-0.000415632
-0.000476885
-0.000643045
-0.0459628
-0.0460461
-0.0458043
-0.0453274
-0.0445557
-0.0434353
-0.0419467
-0.0400941
-0.0379204
-0.0354728
-0.0328127
-0.0299951
-0.0270899
-0.0241507
-0.021243
-0.0184121
-0.0157107
-0.0131695
-0.0108261
-0.00869988
-0.00681181
-0.00517158
-0.00378778
-0.00266116
-0.00179196
-0.00117292
-0.000785688
-0.000635832
-0.000687444
-0.000850387
-0.0480562
-0.0481688
-0.0479523
-0.0474917
-0.0467218
-0.0455839
-0.0440557
-0.0421415
-0.0398864
-0.0373401
-0.0345676
-0.0316272
-0.0285926
-0.0255204
-0.0224798
-0.0195185
-0.0166918
-0.0140322
-0.0115787
-0.00935194
-0.00737356
-0.00565375
-0.00420116
-0.00301664
-0.00209999
-0.00144372
-0.00102851
-0.000859682
-0.000901338
-0.0010601
-0.0501972
-0.0503409
-0.0501524
-0.0497103
-0.0489443
-0.0477897
-0.0462219
-0.0442447
-0.0419057
-0.0392575
-0.0363689
-0.0333014
-0.0301328
-0.0269231
-0.0237451
-0.020649
-0.017693
-0.0149111
-0.0123444
-0.010014
-0.00794289
-0.00614126
-0.00461823
-0.00337431
-0.0024092
-0.00171483
-0.00127101
-0.0010828
-0.00111405
-0.00126897
-0.0523901
-0.052567
-0.0524087
-0.0519878
-0.0512275
-0.0500573
-0.0484495
-0.0464082
-0.043983
-0.0412299
-0.0382212
-0.0350224
-0.0317155
-0.0283637
-0.0250437
-0.0218086
-0.0187193
-0.0158115
-0.013128
-0.0106913
-0.00852475
-0.00663922
-0.00504383
-0.00373911
-0.00272422
-0.0019908
-0.00151756
-0.00130918
-0.00132943
-0.00147938
-0.0546312
-0.0548435
-0.0547184
-0.0543211
-0.0535688
-0.0523841
-0.0507365
-0.0486296
-0.0461159
-0.0432543
-0.0401217
-0.036787
-0.0333369
-0.0298382
-0.0263716
-0.0229929
-0.019766
-0.0167284
-0.0139249
-0.0113786
-0.00911411
-0.00714238
-0.00547293
-0.00410587
-0.00304018
-0.00226679
-0.00176342
-0.00153425
-0.00154267
-0.00168617
-0.0569246
-0.0571747
-0.0570853
-0.0567149
-0.0559728
-0.0547749
-0.0530873
-0.0509136
-0.0483089
-0.0453357
-0.0420751
-0.0386001
-0.0350022
-0.0313518
-0.0277338
-0.0242071
-0.0208384
-0.0176672
-0.01474
-0.0120813
-0.00971612
-0.00765606
-0.00591055
-0.00447971
-0.00336185
-0.00254753
-0.00201315
-0.00176226
-0.00175782
-0.00189355
-0.0592663
-0.0595564
-0.0595061
-0.0591656
-0.0584366
-0.0572269
-0.0554994
-0.0532576
-0.0505594
-0.0474711
-0.0440783
-0.0404582
-0.0367075
-0.0329002
-0.029126
-0.0254464
-0.0219317
-0.0186227
-0.0155684
-0.0127939
-0.0103255
-0.00817475
-0.00635147
-0.00485527
-0.0036842
-0.00282801
-0.00226188
-0.00198852
-0.00197008
-0.0020955
-0.0616597
-0.0619928
-0.0619848
-0.061678
-0.0609646
-0.0597449
-0.0579776
-0.0556663
-0.0528722
-0.0496654
-0.0461361
-0.0423664
-0.0384578
-0.0344889
-0.0305534
-0.0267163
-0.023051
-0.0196004
-0.0164154
-0.0135221
-0.0109477
-0.00870398
-0.00680088
-0.00523785
-0.00401217
-0.00311313
-0.00251438
-0.00221764
-0.00218414
-0.00229824
-0.0641004
-0.0644789
-0.0645174
-0.0642483
-0.0635541
-0.0623259
-0.0605191
-0.0581371
-0.0552445
-0.0519153
-0.0482453
-0.0443208
-0.0402493
-0.0361131
-0.0320113
-0.0280118
-0.0241914
-0.020595
-0.0172756
-0.0142602
-0.011577
-0.00923802
-0.00725334
-0.0056219
-0.00434058
-0.00339777
-0.00276566
-0.00244486
-0.00239525
-0.00249621
-0.0665917
-0.0670191
-0.0671081
-0.0668812
-0.0662092
-0.0649746
-0.0631286
-0.0606747
-0.0576809
-0.054226
-0.0504107
-0.0463267
-0.0420869
-0.0377785
-0.0335051
-0.0293383
-0.0253584
-0.0216121
-0.0181546
-0.015014
-0.0122192
-0.00978259
-0.00771426
-0.00601291
-0.00467454
-0.00368699
-0.00302073
-0.00267509
-0.00260866
-0.00269646
-0.0691287
-0.069608
-0.0697528
-0.0695727
-0.068927
-0.067688
-0.0658033
-0.0632762
-0.0601786
-0.0565939
-0.0526289
-0.04838
-0.0439665
-0.0394802
-0.03503
-0.0306908
-0.0265466
-0.0226461
-0.0190468
-0.0157775
-0.0128683
-0.0103317
-0.00817796
-0.00640511
-0.0050087
-0.00397554
-0.00327446
-0.00290348
-0.00281963
-0.00289308
-0.0717151
-0.0722503
-0.0724556
-0.0723277
-0.0717119
-0.0704709
-0.0685477
-0.0659464
-0.0627423
-0.0590242
-0.0549047
-0.0504859
-0.0458934
-0.0412237
-0.0365914
-0.0320749
-0.0277618
-0.0237029
-0.0199579
-0.0165568
-0.0135303
-0.0108914
-0.00865007
-0.00680421
-0.00534833
-0.00426865
-0.00353206
-0.00313519
-0.00303362
-0.00309333
-0.0743455
-0.0749401
-0.0752121
-0.0751418
-0.0745606
-0.0733199
-0.0713591
-0.068682
-0.0653688
-0.0615132
-0.0572345
-0.0526402
-0.0478629
-0.0430042
-0.0381843
-0.033485
-0.0289982
-0.0247764
-0.0208821
-0.0173456
-0.0141991
-0.0114553
-0.00912467
-0.00720421
-0.00568792
-0.00456092
-0.00378829
-0.00336525
-0.00324571
-0.00329127
-0.0770241
-0.0776828
-0.0780269
-0.0780201
-0.0774774
-0.0762399
-0.0742418
-0.071488
-0.0680628
-0.0640659
-0.059623
-0.0548481
-0.0498804
-0.0448271
-0.039814
-0.0349271
-0.0302617
-0.0258729
-0.0218253
-0.0181503
-0.0148806
-0.0120297
-0.00960761
-0.00761105
-0.00603294
-0.00485776
-0.00404851
-0.00359897
-0.0034615
-0.00349398
-0.0797454
-0.0804722
-0.0808953
-0.080958
-0.080459
-0.0792272
-0.0771929
-0.074361
-0.070821
-0.0666785
-0.0620666
-0.0571053
-0.0519413
-0.0466873
-0.0414755
-0.0363953
-0.0315465
-0.0269861
-0.0227814
-0.0189642
-0.0155687
-0.012608
-0.0100927
-0.00801849
-0.00637768
-0.0051536
-0.00430734
-0.0038312
-0.00367589
-0.0036951
-0.0825137
-0.0833139
-0.083822
-0.0839607
-0.0835097
-0.0822866
-0.0802167
-0.0773056
-0.0736479
-0.0693559
-0.0645699
-0.0594167
-0.0540507
-0.0485903
-0.0431742
-0.0378956
-0.0328586
-0.0281223
-0.0237565
-0.0197939
-0.0162694
-0.0131967
-0.0105861
-0.0084327
-0.00672777
-0.00545401
-0.00457028
-0.0040674
-0.00389454
-0.0039016
-0.0853234
-0.0862015
-0.0868022
-0.0870233
-0.0866261
-0.0854146
-0.08331
-0.0803185
-0.0765402
-0.0720943
-0.067129
-0.061778
-0.0562038
-0.0505309
-0.0449046
-0.0394221
-0.0341918
-0.029275
-0.0247442
-0.0206327
-0.0169764
-0.0137892
-0.0110813
-0.00884718
-0.00707734
-0.00575326
-0.00483177
-0.00430222
-0.00411207
-0.0041072
-0.0881792
-0.0891409
-0.0898406
-0.0901511
-0.0898121
-0.0886156
-0.0864771
-0.0834041
-0.0795022
-0.0748982
-0.0697484
-0.0641939
-0.0584056
-0.0525144
-0.0466723
-0.0409807
-0.0355522
-0.0304507
-0.025751
-0.0214871
-0.017696
-0.0143918
-0.0115847
-0.00926835
-0.00743217
-0.00605705
-0.00509748
-0.00454126
-0.00433423
-0.00431875
-0.0910749
-0.0921252
-0.092932
-0.0933389
-0.0930644
-0.0918859
-0.0897147
-0.0865588
-0.0825305
-0.0777637
-0.072424
-0.06666
-0.0606513
-0.0545356
-0.0484718
-0.0425653
-0.0369337
-0.0316427
-0.0267701
-0.0223503
-0.0184215
-0.0149978
-0.0120896
-0.00968941
-0.00778619
-0.00635948
-0.0053616
-0.00477891
-0.00455549
-0.0045296
-0.0940156
-0.0951604
-0.0960812
-0.0965919
-0.0963866
-0.0952298
-0.0930268
-0.089787
-0.0856289
-0.0806952
-0.0751603
-0.069181
-0.0629458
-0.0565995
-0.0503084
-0.0441819
-0.0383421
-0.0328574
-0.0278082
-0.0232291
-0.0191594
-0.0156138
-0.0126025
-0.0101171
-0.00814536
-0.00666636
-0.00562997
-0.00502091
-0.00478163
-0.0047466
-0.0969946
-0.0982394
-0.0992828
-0.0999046
-0.0997754
-0.0986436
-0.09641
-0.0930848
-0.0887941
-0.0836888
-0.077953
-0.071752
-0.0652842
-0.058701
-0.0521765
-0.0458242
-0.0397714
-0.0340883
-0.0288582
-0.0241161
-0.0199029
-0.0162328
-0.0131165
-0.0105442
-0.00850337
-0.00697161
-0.00589654
-0.0052614
-0.00500687
-0.00496321
-0.100017
-0.101368
-0.102541
-0.103282
-0.103234
-0.102131
-0.0998679
-0.0964565
-0.0920296
-0.0867482
-0.0808062
-0.0743777
-0.0676708
-0.0608449
-0.0540814
-0.0474982
-0.0412273
-0.0353416
-0.029927
-0.0250187
-0.0206586
-0.0168617
-0.0136383
-0.0109777
-0.00886635
-0.00728118
-0.00616734
-0.00550631
-0.0052371
-0.00518637
-0.103076
-0.104538
-0.105851
-0.106719
-0.106759
-0.105689
-0.103397
-0.0998979
-0.0953321
-0.0898697
-0.0837157
-0.0770532
-0.0701011
-0.063026
-0.0560174
-0.0491974
-0.0427038
-0.0366107
-0.0310074
-0.025929
-0.0214196
-0.0174932
-0.0141607
-0.0114102
-0.00922776
-0.00758876
-0.006436
-0.00574945
-0.0054663
-0.005409
-0.106175
-0.107756
-0.109216
-0.110219
-0.110354
-0.10932
-0.107001
-0.103413
-0.0987045
-0.0930566
-0.086685
-0.0797826
-0.072579
-0.0652488
-0.0579896
-0.0509279
-0.0442063
-0.0379018
-0.0321062
-0.0268547
-0.0221923
-0.0181341
-0.0146907
-0.0118489
-0.00959392
-0.00790047
-0.0067088
-0.00599703
-0.00570058
-0.00563804
-0.109308
-0.111014
-0.112631
-0.113778
-0.114014
-0.113021
-0.110676
-0.106997
-0.102144
-0.0963052
-0.0897099
-0.0825611
-0.0750998
-0.0675081
-0.0599921
-0.052683
-0.045729
-0.0392084
-0.0332161
-0.0277876
-0.02297
-0.0187774
-0.0152207
-0.012286
-0.00995798
-0.00820972
-0.006979
-0.00624248
-0.00593361
-0.00586642
-0.112479
-0.114315
-0.116098
-0.117399
-0.117743
-0.116794
-0.114425
-0.110655
-0.105652
-0.099618
-0.0927936
-0.0853925
-0.0776671
-0.0698081
-0.06203
-0.0544686
-0.0472772
-0.0405364
-0.034344
-0.0287354
-0.0237591
-0.0194296
-0.0157581
-0.012729
-0.0103265
-0.0085229
-0.00725325
-0.00649235
-0.00617179
-0.00610158
-0.11568
-0.117654
-0.119614
-0.121077
-0.121537
-0.120637
-0.118244
-0.11438
-0.109225
-0.102991
-0.0959316
-0.0882717
-0.0802764
-0.0721437
-0.0640973
-0.0562778
-0.0488448
-0.0418793
-0.0354824
-0.0296899
-0.0245527
-0.0200837
-0.0162948
-0.0131696
-0.0106924
-0.00883301
-0.00752433
-0.00673961
-0.00640842
-0.00633577
-0.118915
-0.121034
-0.123179
-0.124815
-0.125397
-0.12455
-0.122135
-0.118178
-0.112866
-0.106427
-0.0991268
-0.0912021
-0.0829305
-0.0745186
-0.0661988
-0.0581167
-0.0504371
-0.0432429
-0.0366382
-0.0306588
-0.0253572
-0.0207464
-0.0168384
-0.0136158
-0.0110624
-0.00914686
-0.0077993
-0.00699122
-0.00665023
-0.00657691
-0.122176
-0.124448
-0.12679
-0.128607
-0.12932
-0.128531
-0.126095
-0.122042
-0.116572
-0.109922
-0.102375
-0.0941786
-0.0856251
-0.0769276
-0.0683284
-0.0599781
-0.0520482
-0.0446207
-0.0378039
-0.0316338
-0.0261657
-0.0214103
-0.0173808
-0.014059
-0.0114291
-0.00945696
-0.00807051
-0.00723968
-0.00689013
-0.00681705
-0.125467
-0.127898
-0.130447
-0.132456
-0.133308
-0.132581
-0.130125
-0.125975
-0.120342
-0.113477
-0.105677
-0.0972042
-0.0883627
-0.0793741
-0.0704907
-0.061868
-0.053683
-0.0460184
-0.0389862
-0.0326226
-0.0269848
-0.0220823
-0.0179296
-0.0145074
-0.0117998
-0.00977064
-0.0083455
-0.0074925
-0.00713522
-0.00706454
-0.128779
-0.131378
-0.134146
-0.136357
-0.137356
-0.136695
-0.134222
-0.129973
-0.124174
-0.117089
-0.10903
-0.100274
-0.0911387
-0.081853
-0.0726798
-0.0637795
-0.0553356
-0.0474295
-0.0401779
-0.0336171
-0.0278073
-0.022755
-0.0184766
-0.0149521
-0.0121663
-0.01008
-0.0086163
-0.00774189
-0.00737827
-0.00731064
-0.132117
-0.13489
-0.137887
-0.140312
-0.141465
-0.140876
-0.138385
-0.134036
-0.128068
-0.120758
-0.112435
-0.10339
-0.0939554
-0.0843674
-0.0748999
-0.0657179
-0.0570109
-0.0488598
-0.0413855
-0.0346247
-0.02864
-0.0234355
-0.0190297
-0.0154017
-0.0125368
-0.0103928
-0.00889083
-0.00799573
-0.00762673
-0.00756397
-0.13547
-0.138428
-0.141666
-0.144315
-0.145631
-0.145119
-0.142612
-0.138162
-0.132021
-0.12448
-0.115887
-0.106547
-0.0968079
-0.0869122
-0.0771451
-0.0676771
-0.058703
-0.0503027
-0.0426019
-0.0356377