/*--------------------------------*- C++ -*----------------------------------*\
  =========                 |
  \\      /  F ield         | OpenFOAM: The Open Source CFD Toolbox
   \\    /   O peration     | Website:  https://openfoam.org
    \\  /    A nd           | Version:  6.0
     \\/     M anipulation  |
\*---------------------------------------------------------------------------*/
FoamFile
{
    version     2.0;
    format      ascii;
    class       volScalarField;
    location    "9";
    object      p;
}
// * * * * * * * * * * * * * * * * * * * * * * * * * * * * * * * * * * * * * //

dimensions      [0 2 -2 0 0 0 0];

internalField   nonuniform List<scalar> 
47000
(
0.0145725
0.0152096
0.0158554
0.0162809
0.0163653
0.0159916
0.0152678
0.0143014
0.0133234
0.0124625
0.0118321
0.01142
0.0111862
0.0110325
0.0108826
0.0106618
0.0103407
0.00990498
0.00937099
0.00875909
0.00810157
0.00742534
0.00675696
0.00611521
0.00551633
0.00496983
0.00449439
0.00405219
0.00386932
0.00444555
0.014558
0.015224
0.0159256
0.0164326
0.0166154
0.0163429
0.0157073
0.0148047
0.0138664
0.0130292
0.0124238
0.012052
0.0118851
0.0118244
0.0117877
0.0116862
0.0114774
0.0111327
0.0106599
0.010073
0.00940386
0.00868053
0.00793402
0.0071876
0.00646368
0.00577649
0.00515681
0.00458116
0.00431523
0.00446902
0.0145296
0.0151979
0.0159011
0.0164131
0.0166003
0.0163203
0.0156478
0.0146641
0.013595
0.0125838
0.0117798
0.0112082
0.0108649
0.0106682
0.0105456
0.0104088
0.0102102
0.0099116
0.0095112
0.0090135
0.00844404
0.00782577
0.00718817
0.00655447
0.00595036
0.0053956
0.00493121
0.00456356
0.00451782
0.00488899
0.014487
0.0151699
0.0158991
0.0164551
0.0167008
0.0164819
0.0158513
0.0148697
0.0137484
0.0126297
0.0116753
0.0109317
0.0104205
0.0100819
0.0098597
0.00967242
0.00947356
0.00921904
0.00890009
0.00851196
0.00807304
0.00759919
0.00711571
0.00664227
0.00620322
0.00581797
0.00552558
0.00533334
0.00542592
0.00589572
0.0144335
0.0151555
0.015957
0.0166267
0.0170243
0.0169829
0.0165301
0.0157005
0.0146821
0.0136059
0.0126357
0.0118309
0.0112337
0.0108044
0.0105053
0.0102651
0.010043
0.00979391
0.0095059
0.0091676
0.00879181
0.00838744
0.00797477
0.00756782
0.00718648
0.00684546
0.00657643
0.00637716
0.00641315
0.00674213
0.0143618
0.0151325
0.0160255
0.0168391
0.0174317
0.017626
0.0174254
0.0168366
0.01602
0.0150877
0.0141975
0.0134131
0.0127916
0.0123094
0.0119465
0.0116431
0.0113673
0.011076
0.0107578
0.0103975
0.0100046
0.00958258
0.00914788
0.00870968
0.00828455
0.0078843
0.00753737
0.00723932
0.0071507
0.00730898
0.0142751
0.015087
0.0160603
0.017004
0.0177784
0.0182007
0.0182541
0.0179205
0.0173325
0.0165808
0.0158115
0.0150875
0.0144744
0.0139612
0.0135429
0.0131709
0.0128233
0.0124608
0.0120751
0.0116492
0.0111918
0.0107032
0.0101979
0.00968281
0.00917389
0.00868348
0.00824151
0.00784665
0.00765526
0.00769138
0.0141624
0.0149984
0.0160222
0.0170555
0.0179647
0.0185669
0.0188316
0.0187211
0.0183431
0.017767
0.0171255
0.0164759
0.0158885
0.0153604
0.014899
0.0144653
0.0140471
0.0136097
0.0131488
0.0126478
0.012116
0.0115523
0.0109714
0.0103795
0.0097941
0.00922966
0.00871888
0.00826295
0.00800911
0.0079698
0.0140251
0.0148686
0.0159095
0.0169863
0.0179751
0.018698
0.0191167
0.0191799
0.018974
0.01855
0.0180258
0.0174519
0.0168993
0.0163702
0.0158812
0.0154013
0.0149266
0.0144271
0.0139031
0.0133389
0.0127457
0.012122
0.0114836
0.0108371
0.0102019
0.00959435
0.00904883
0.00856631
0.00828161
0.00819912
0.0138544
0.0146892
0.0157171
0.0167958
0.0178135
0.0186013
0.0191186
0.019305
0.0192309
0.0189306
0.0185086
0.018007
0.0174956
0.0169789
0.0164802
0.0159742
0.0154644
0.0149246
0.0143596
0.0137547
0.0131235
0.0124643
0.0117947
0.0111213
0.0104653
0.00984369
0.00929116
0.00880607
0.00851026
0.00840382
0.013657
0.0144724
0.0154654
0.0165153
0.0175238
0.0183334
0.0189047
0.0191725
0.0191949
0.0189923
0.0186572
0.0182231
0.0177571
0.0172642
0.0167721
0.0162595
0.0157358
0.015178
0.0145948
0.0139724
0.0133267
0.0126559
0.0119789
0.0113022
0.0106482
0.0100334
0.00949164
0.00901754
0.00872137
0.00860243
0.0134255
0.0142133
0.015157
0.0161579
0.0171313
0.0179324
0.0185252
0.018843
0.0189347
0.0188092
0.0185486
0.0181778
0.0177609
0.0173013
0.0168302
0.0163285
0.0158104
0.0152547
0.0146739
0.0140546
0.0134146
0.0127517
0.0120862
0.0114239
0.0107874
0.0101927
0.00967153
0.00921494
0.00892346
0.00879759
0.0131688
0.0139265
0.0148147
0.0157566
0.0166811
0.0174557
0.0180496
0.0183965
0.018538
0.0184745
0.0182783
0.0179671
0.0176011
0.0171818
0.0167421
0.0162643
0.0157661
0.0152278
0.0146646
0.0140632
0.0134432
0.0128018
0.01216
0.0115227
0.0109127
0.0103444
0.00984792
0.00941064
0.00912562
0.00899603
0.0128797
0.0136059
0.014437
0.0153167
0.0161866
0.0169259
0.0175094
0.0178722
0.0180512
0.0180391
0.0179006
0.0176461
0.0173324
0.0169584
0.0165581
0.0161139
0.0156465
0.0151369
0.0146025
0.0140299
0.0134398
0.0128288
0.0122184
0.0116122
0.0110333
0.010494
0.0100232
0.00960489
0.00932645
0.009194
0.0125696
0.013266
0.014043
0.0148629
0.0156791
0.0163813
0.0169499
0.0173219
0.0175307
0.0175629
0.0174767
0.0172763
0.0170149
0.0166887
0.0163322
0.0159275
0.0154975
0.0150233
0.0145242
0.0139863
0.0134316
0.0128553
0.0122797
0.0117071
0.0111603
0.0106499
0.0102035
0.00980259
0.0095301
0.00939551
0.0122306
0.0128979
0.0136255
0.0143906
0.0151573
0.0158244
0.0163776
0.0167561
0.0169907
0.017063
0.0170258
0.0168774
0.0166682
0.0163914
0.0160817
0.0157204
0.0153323
0.014898
0.0144385
0.0139391
0.0134228
0.0128837
0.0123446
0.0118061
0.0112912
0.0108087
0.0103852
0.01
0.00973263
0.00959552
0.0118741
0.0125155
0.0132002
0.0139176
0.0146414
0.0152782
0.0158183
0.0162033
0.0164617
0.0165714
0.0165803
0.0164819
0.0163238
0.0160963
0.0158344
0.015518
0.0151734
0.0147807
0.0143624
0.0139027
0.0134255
0.0129238
0.0124207
0.0119155
0.011431
0.0109745
0.0105718
0.0102005
0.00993739
0.00979799
0.0114904
0.0121073
0.0127554
0.0134321
0.01412
0.0147321
0.0152628
0.0156556
0.0159378
0.0160833
0.0161369
0.016087
0.0159792
0.0158011
0.0155875
0.0153169
0.0150171
0.0146672
0.0142912
0.0138718
0.0134341
0.0129697
0.0125021
0.0120291
0.0115738
0.0111418
0.0107583
0.0103995
0.0101401
0.00999787
0.0110916
0.0116874
0.0123055
0.0129488
0.013608
0.0142015
0.0147269
0.0151296
0.0154358
0.0156164
0.0157129
0.01571
0.0156513
0.0155216
0.0153557
0.0151307
0.0148754
0.0145681
0.0142339
0.0138543
0.0134553
0.0130269
0.0125935
0.0121514
0.0117235
0.0113141
0.0109483
0.0106006
0.0103443
0.0101995
0.0106665
0.0112419
0.0118356
0.012452
0.0130892
0.0136695
0.0141939
0.014609
0.0149402
0.0151557
0.0152947
0.0153379
0.0153276
0.0152458
0.0151275
0.0149481
0.0147377
0.0144731
0.0141809
0.0138408
0.0134802
0.0130875
0.0126876
0.0122752
0.0118737
0.0114859
0.0111366
0.0107994
0.0105459
0.0103981
0.0102273
0.0107854
0.0113602
0.0119558
0.0125768
0.0131493
0.0136765
0.0141063
0.0144634
0.0147137
0.0148942
0.0149825
0.0150194
0.0149846
0.0149133
0.0147789
0.0146127
0.0143902
0.0141391
0.0138379
0.0135147
0.0131565
0.0127888
0.012405
0.0120287
0.0116611
0.0113273
0.0109997
0.0107488
0.0105984
0.00976135
0.0103025
0.0108627
0.0114425
0.0120525
0.0126216
0.0131552
0.013602
0.0139864
0.0142719
0.014494
0.014627
0.014711
0.0147231
0.0146987
0.0146095
0.0144877
0.0143075
0.0140978
0.0138354
0.0135495
0.0132256
0.0128899
0.0125341
0.0121823
0.0118344
0.0115155
0.0111972
0.0109487
0.0107955
0.0092817
0.00980859
0.0103583
0.0109268
0.0115302
0.0120998
0.0126428
0.0131087
0.0135213
0.0138422
0.0141054
0.0142827
0.0144131
0.0144716
0.0144936
0.0144492
0.0143714
0.0142331
0.0140643
0.0138402
0.0135909
0.0133005
0.0129959
0.0126674
0.0123392
0.0120102
0.0117056
0.0113961
0.0111501
0.0109946
0.00877443
0.00928686
0.00982905
0.01039
0.0109905
0.011564
0.0121193
0.0126062
0.0130484
0.0134054
0.0137103
0.0139321
0.0141092
0.0142144
0.0142833
0.0142841
0.014251
0.0141551
0.0140277
0.0138423
0.0136299
0.0133733
0.0130998
0.0127984
0.0124937
0.0121834
0.0118929
0.0115922
0.0113487
0.0111906
0.00825326
0.0087538
0.00929128
0.00984794
0.0104487
0.011029
0.0115987
0.0121082
0.0125809
0.0129745
0.0133211
0.0135872
0.0138108
0.0139626
0.0140784
0.0141244
0.0141359
0.0140823
0.0139961
0.0138492
0.0136735
0.0134501
0.0132074
0.0129326
0.012651
0.0123588
0.0120821
0.0117899
0.0115489
0.0113888
0.00770321
0.00819125
0.00872607
0.0092811
0.00988495
0.0104744
0.0110609
0.0115948
0.0120994
0.0125304
0.0129196
0.0132307
0.0135017
0.0137007
0.0138643
0.0139564
0.0140135
0.0140032
0.0139591
0.0138512
0.0137129
0.0135232
0.0133116
0.0130636
0.0128052
0.0125312
0.0122684
0.0119848
0.0117465
0.0115843
0.00713896
0.00761686
0.00815094
0.00870677
0.00931582
0.00991661
0.0105215
0.0110811
0.0116184
0.0120876
0.0125195
0.0128759
0.0131944
0.013441
0.0136526
0.0137911
0.0138939
0.0139271
0.0139253
0.0138566
0.0137555
0.0135996
0.0134188
0.0131974
0.0129618
0.0127059
0.0124566
0.0121815
0.011946
0.0117824
0.00654442
0.00701127
0.00754594
0.00810448
0.00872091
0.0093349
0.00996028
0.0105471
0.0111186
0.011627
0.0121029
0.0125056
0.0128727
0.013168
0.0134289
0.013615
0.0137649
0.0138427
0.0138842
0.0138558
0.0137928
0.0136712
0.0135219
0.0133275
0.0131152
0.0128774
0.012642
0.0123756
0.0121431
0.011978
0.00593526
0.00639329
0.00692984
0.00749291
0.00811824
0.0087471
0.00939411
0.0100094
0.0106159
0.0111643
0.0116848
0.0121343
0.0125505
0.012895
0.0132057
0.0134399
0.0136373
0.0137601
0.0138454
0.0138574
0.0138327
0.0137455
0.0136277
0.0134602
0.0132709
0.0130512
0.0128295
0.0125717
0.0123425
0.0121765
0.00529428
0.00574231
0.0062816
0.00685062
0.00748665
0.0081319
0.00880242
0.00944758
0.0100908
0.0106804
0.0112469
0.0117445
0.0122113
0.0126063
0.0129683
0.0132521
0.0134986
0.0136677
0.0137981
0.0138517
0.0138664
0.0138145
0.0137289
0.0135889
0.0134232
0.0132219
0.0130142
0.0127654
0.0125396
0.0123726
0.00463817
0.00507835
0.00562126
0.00619765
0.00684547
0.00750847
0.00820347
0.00887973
0.00956038
0.0101922
0.0108053
0.0113518
0.0118699
0.0123162
0.0127302
0.0130642
0.0133603
0.0135764
0.0137524
0.0138479
0.0139023
0.0138859
0.0138326
0.0137201
0.013578
0.0133951
0.0132014
0.0129615
0.0127393
0.012572
0.00394865
0.00437953
0.00492662
0.00551146
0.00617266
0.00685474
0.00757601
0.00828478
0.00900463
0.0096801
0.0103415
0.0109384
0.0115093
0.0120086
0.0124763
0.0128622
0.0132097
0.0134743
0.0136973
0.0138362
0.0139313
0.0139515
0.0139314
0.0138472
0.0137291
0.0135651
0.0133858
0.0131552
0.0129369
0.0127692
0.00324341
0.00366711
0.00421898
0.00481339
0.00548876
0.00619107
0.00693944
0.00768188
0.00844175
0.00916191
0.00987243
0.0105207
0.0111454
0.0116984
0.0122206
0.0126592
0.0130588
0.0133726
0.0136432
0.0138258
0.0139623
0.0140192
0.0140326
0.0139767
0.0138829
0.0137376
0.0135728
0.0133514
0.0131373
0.0129699
0.00250304
0.00291792
0.0034749
0.00407973
0.00477074
0.00549449
0.00627174
0.0070493
0.00785105
0.00861745
0.00937896
0.0100802
0.0107605
0.0113692
0.0119479
0.012441
0.0128945
0.0132591
0.013579
0.0138069
0.0139859
0.0140808
0.0141286
0.0141019
0.0140329
0.013907
0.0137571
0.0135455
0.0133357
0.0131685
0.00174632
0.00215445
0.00271699
0.00333313
0.00404032
0.00478654
0.00559337
0.00640723
0.00725171
0.00806552
0.00887894
0.0096343
0.0103712
0.0110364
0.0116726
0.0122211
0.0127293
0.0131456
0.0135154
0.0137891
0.0140112
0.0141444
0.0142269
0.0142295
0.0141856
0.0140792
0.0139442
0.0137423
0.0135371
0.0133708
0.000952686
0.00135222
0.00192051
0.00254863
0.0032734
0.00404322
0.00488145
0.00573307
0.00662225
0.00748515
0.00835249
0.00916381
0.00995933
0.0106832
0.0113788
0.0119847
0.0125497
0.0130194
0.013441
0.013762
0.0140287
0.0142014
0.0143198
0.0143527
0.0143345
0.0142482
0.0141287
0.0139369
0.0137366
0.013571
0.000141976
0.000534997
0.00110936
0.00175018
0.00249287
0.00328719
0.00415743
0.005048
0.00598279
0.00689603
0.00781834
0.00868679
0.00954206
0.0103256
0.0110818
0.011746
0.0123687
0.0128926
0.0133667
0.0137358
0.0140475
0.0142603
0.0144149
0.0144783
0.0144862
0.0144201
0.0143161
0.0141345
0.0139393
0.0137751
-0.000707515
-0.000323052
0.000257457
0.000911508
0.00167348
0.00249339
0.00339748
0.00432851
0.00531096
0.00627635
0.00725577
0.00818339
0.0091006
0.00994597
0.0107649
0.0114897
0.0121722
0.0127524
0.0132809
0.0136997
0.0140581
0.0143123
0.0145044
0.0145993
0.014634
0.0145888
0.0145009
0.01433
0.0141402
0.0139772
-0.00157483
-0.00119684
-0.000609915
5.79375e-05
0.000839307
0.00168562
0.00262409
0.00359679
0.00462785
0.00564672
0.0066844
0.00767247
0.00865283
0.00956124
0.0104441
0.0112305
0.0119738
0.0126112
0.0131948
0.0136641
0.0140699
0.014366
0.014596
0.0147228
0.0147846
0.0147605
0.0146889
0.0145287
0.0143444
0.0141832
-0.00248288
-0.00211358
-0.00152026
-0.000838211
-3.60802e-05
0.000837659
0.0018124
0.00282833
0.00391014
0.0049844
0.00608262
0.0071333
0.00817917
0.00915292
0.0101022
0.0109525
0.0117588
0.0124555
0.0130965
0.013618
0.0140729
0.0144124
0.0146816
0.0148415
0.0149313
0.0149289
0.0148742
0.0147252
0.0145468
0.0143873
-0.00340953
-0.00304682
-0.00244686
-0.00175016
-0.000927412
-2.55256e-05
0.000985931
0.0020463
0.00317986
0.00431091
0.00547091
0.00658558
0.00769828
0.00873868
0.00975554
0.0106709
0.0115414
0.0122983
0.0129975
0.0135722
0.0140768
0.0144604
0.0147694
0.0149627
0.0150809
0.0151005
0.0150629
0.014925
0.0147526
0.0145954
-0.00437891
-0.0040252
-0.0034187
-0.00270708
-0.00186235
-0.000931334
0.00011877
0.00122519
0.00241271
0.00360257
0.00482673
0.0060077
0.00718974
0.00829925
0.00938631
0.0103691
0.0113064
0.0121258
0.0128854
0.0135152
0.0140714
0.0145007
0.0148509
0.0150788
0.0152263
0.0152688
0.0152488
0.0151228
0.0149567
0.0148016
-0.0053677
-0.00502083
-0.00440758
-0.00368067
-0.00281437
-0.00185361
-0.000764492
0.0003892
0.00163174
0.00288188
0.00417153
0.00542025
0.00667304
0.00785306
0.00901164
0.0100632
0.0110683
0.0119514
0.0127724
0.0134581
0.0140668
0.0145425
0.0149345
0.0151976
0.0153749
0.0154404
0.0154383
0.0153239
0.0151643
0.0150118
-0.00640125
-0.00606382
-0.00544398
-0.00470162
-0.00381243
-0.00282098
-0.00169088
-0.000488259
0.000811572
0.00212409
0.00348172
0.00480066
0.00612686
0.00738002
0.0086129
0.00973586
0.0108114
0.0117605
0.0126454
0.0133891
0.0140523
0.0145761
0.0150115
0.015311
0.0155191
0.0156086
0.015625
0.015523
0.0153701
0.0152201
-0.0074551
-0.00712493
-0.00649831
-0.00574024
-0.0048288
-0.0038061
-0.00263472
-0.00138192
-2.36954e-05
0.00135273
0.00277974
0.00417041
0.00557154
0.00689931
0.00820791
0.00940357
0.0105509
0.0115672
0.0125169
0.0133197
0.0140382
0.014611
0.0150906
0.015427
0.0156665
0.0157801
0.0158153
0.0157256
0.0155796
0.0154325
-0.0085559
-0.00823583
-0.00760266
-0.0068288
-0.00589372
-0.00483885
-0.00362417
-0.0023195
-0.000900554
0.000541959
0.00204096
0.00350596
0.00498483
0.00639002
0.0077773
0.0090485
0.0102704
0.0113565
0.0123736
0.0132378
0.0140138
0.0146374
0.0151627
0.0155375
0.0158094
0.0159482
0.0160028
0.015926
0.0157872
0.0156429
-0.00967812
-0.00936599
-0.00872618
-0.00793629
-0.00697831
-0.00589071
-0.00463244
-0.0032746
-0.00179378
-0.000283601
0.00128884
0.00282976
0.00438797
0.00587214
0.00733958
0.00868772
0.00998558
0.0111427
0.0122284
0.0131549
0.0139894
0.0146648
0.0152367
0.0156506
0.0159555
0.0161197
0.016194
0.0161302
0.0159986
0.0158574
-0.0108497
-0.0105487
-0.00990242
-0.00909642
-0.0081141
-0.00699279
-0.00568885
-0.00427612
-0.00273105
-0.00115095
0.000497639
0.00211719
0.00375773
0.00532386
0.00687463
0.00830273
0.00967954
0.0109105
0.0120674
0.0130588
0.0139541
0.0146832
0.0153035
0.0157579
0.016097
0.0162877
0.0163824
0.0163321
0.0162081
0.0160699
-0.0120442
-0.0117521
-0.0110995
-0.0102771
-0.00927115
-0.00811546
-0.00676549
-0.00529652
-0.003686
-0.00203436
-0.000308128
0.00139171
0.00311625
0.00476598
0.00640165
0.0079112
0.00936843
0.0106745
0.011904
0.0129614
0.0139185
0.0147024
0.015372
0.0158677
0.0162416
0.0164591
0.0165745
0.0165377
0.0164213
0.0162865
-0.0132909
-0.0130112
-0.0123525
-0.0115136
-0.0104822
-0.00929101
-0.00789286
-0.00636589
-0.00468752
-0.00296204
-0.00115536
0.000627623
0.00243931
0.00417581
0.00589974
0.00749395
0.00903482
0.010419
0.0117239
0.0128499
0.0138713
0.0147121
0.0154329
0.0159714
0.0163815
0.0166268
0.0167638
0.0167411
0.0166327
0.0165011
-0.0145619
-0.0142934
-0.0136285
-0.0127726
-0.0117163
-0.0104887
-0.00904187
-0.0074555
-0.00570804
-0.00390707
-0.00201841
-0.000150578
0.00175001
0.00357498
0.00538883
0.00706929
0.00869534
0.0101591
0.0115407
0.0127365
0.0138235
0.0147223
0.0154954
0.0160776
0.0165244
0.016798
0.0169567
0.0169482
0.0168478
0.0167197
-0.0158885
-0.0156345
-0.0149635
-0.0140904
-0.0130071
-0.0117419
-0.0102442
-0.00859666
-0.00677773
-0.00489892
-0.00292539
-0.000969726
0.00102308
0.00293989
0.00484723
0.00661736
0.00833203
0.00987848
0.0113399
0.0126084
0.0137635
0.0147226
0.01555
0.0161775
0.0166625
0.0169654
0.0171467
0.017153
0.0170611
0.0169364
-0.0172408
-0.0170006
-0.0163238
-0.0154328
-0.0143226
-0.0130187
-0.0114696
-0.00975946
-0.0078678
-0.00590951
-0.00384953
-0.00180429
0.000282564
0.002293
0.00429557
0.00615704
0.00796198
0.00959264
0.0111353
0.0124778
0.0137024
0.0147231
0.0156059
0.0162797
0.0168035
0.0171362
0.0173404
0.0173615
0.0172781
0.0171571
-0.0186508
-0.0184299
-0.0177461
-0.0168365
-0.0156974
-0.0143536
-0.0127509
-0.0109764
-0.00900972
-0.00696958
-0.00482018
-0.00268222
-0.000497825
0.00160979
0.0037114
0.00566786
0.00756672
0.00928498
0.0109122
0.0123316
0.0136285
0.0147131
0.0156534
0.0163753
0.0169394
0.0173029
0.0175309
0.0175676
0.0174932
0.017376
-0.0200872
-0.0198849
-0.019195
-0.0182662
-0.0170982
-0.0157133
-0.0140565
-0.0122164
-0.0101734
-0.00804981
-0.00580941
-0.00357695
-0.00129311
0.000913577
0.00311604
0.00516925
0.0071638
0.00897127
0.0106846
0.0121825
0.0135531
0.0147031
0.0157022
0.0164731
0.0170782
0.0174731
0.0177251
0.0177775
0.0177122
0.017599
-0.0215835
-0.0214035
-0.0207075
-0.0197591
-0.0185603
-0.0171333
-0.0154206
-0.0135133
-0.0113917
-0.00918228
-0.0068478
-0.00451756
-0.00213059
0.00017894
0.00248631
0.00464017
0.00673428
0.0086346
0.0104376
0.012017
0.0134643
0.0146821
0.0157422
0.0165639
0.0172115
0.017639
0.0179161
0.017985
0.0179293
0.0178204
-0.023105
-0.0229466
-0.0222462
-0.0212779
-0.0200489
-0.0185792
-0.0168102
-0.0148345
-0.0126333
-0.0103365
-0.00790633
-0.00547645
-0.00298438
-0.00057003
0.00184416
0.00410055
0.00629611
0.00829104
0.0101853
0.0118481
0.0133737
0.0146608
0.0157832
0.0166568
0.0173477
0.0178081
0.0181106
0.0181961
0.0181505
0.0180461
-0.0246866
-0.0245545
-0.0238483
-0.0228607
-0.0216002
-0.0200873
-0.0182605
-0.0162152
-0.0139324
-0.0115457
-0.00901675
-0.00648382
-0.00388274
-0.00135956
0.00116577
0.00352882
0.00582997
0.00792338
0.00991273
0.0116621
0.013269
0.0146281
0.0158151
0.0167424
0.0174781
0.0179728
0.0183018
0.0184048
0.0183698
0.0182705
-0.0262922
-0.026184
-0.025475
-0.0244686
-0.0231781
-0.021622
-0.0197376
-0.0176219
-0.0152563
-0.0127784
-0.010149
-0.00751106
-0.00479891
-0.00216481
0.000473678
0.00294543
0.00535422
0.00754804
0.00963432
0.0114721
0.0131622
0.0145949
0.0158478
0.0168298
0.0176112
0.0181407
0.0184964
0.0186172
0.0185933
0.0184995
-0.0279576
-0.0278757
-0.0271641
-0.0261403
-0.0248196
-0.0232207
-0.0212778
-0.0190907
-0.0166405
-0.014069
-0.0113359
-0.00858938
-0.00576204
-0.00301276
-0.000256513
0.00232835
0.00484916
0.00714753
0.00933473
0.0112645
0.0130408
0.0145498
0.015871
0.0169097
0.0177383
0.0183038
0.0186875
0.018827
0.018815
0.0187274
-0.0296444
-0.0295857
-0.0288747
-0.0278358
-0.0264875
-0.0248466
-0.0228459
-0.0205869
-0.0180514
-0.0153848
-0.0125464
-0.0096893
-0.00674459
-0.00387789
-0.00100171
0.00169847
0.00433357
0.00673862
0.0090288
0.0110525
0.0129171
0.014504
0.0158949
0.0169913
0.017868
0.01847
0.0188819
0.0190405
0.019041
0.0189603
-0.0313908
-0.0313568
-0.0306469
-0.0295952
-0.0282201
-0.0265384
-0.0244795
-0.0221481
-0.0195255
-0.0167616
-0.0138143
-0.0108429
-0.00777646
-0.00478782
-0.00178682
0.0010334
0.00378742
0.00630358
0.00870095
0.0108223
0.0127784
0.014446
0.0159089
0.017065
0.0179913
0.0186312
0.0190726
0.0192514
0.0192652
0.0191923
-0.0331575
-0.0331439
-0.0324391
-0.0313774
-0.0299792
-0.0282581
-0.0261424
-0.0237384
-0.0210281
-0.0181654
-0.0151078
-0.0120199
-0.0088294
-0.00571637
-0.00258819
0.000354466
0.00322993
0.00585953
0.00836635
0.0105875
0.0126371
0.0143871
0.0159236
0.0171404
0.0181171
0.0187953
0.0192666
0.0194659
0.0194938
0.0194296
-0.0349843
-0.0349924
-0.0342932
-0.0332246
-0.0318045
-0.0300459
-0.0278733
-0.0253965
-0.0225969
-0.0196331
-0.0164615
-0.0132531
-0.00993393
-0.00669171
-0.00343115
-0.000361032
0.00264077
0.00538851
0.00800922
0.0103341
0.0124805
0.0143157
0.015928
0.0172075
0.0182363
0.0189541
0.0194566
0.0196776
0.0197204
0.0196663
-0.0368298
-0.0368562
-0.0361667
-0.0350948
-0.033657
-0.0318629
-0.0296352
-0.0270856
-0.0241962
-0.02113
-0.0178427
-0.0145116
-0.0110612
-0.0076871
-0.00429157
-0.00109133
0.00203958
0.00490804
0.0076451
0.0100759
0.0123213
0.0142434
0.015933
0.0172761
0.0183579
0.0191158
0.0196497
0.0198929
0.0199514
0.0199085
-0.038737
-0.038784
-0.0381042
-0.0370321
-0.0355781
-0.0337505
-0.0314679
-0.0288455
-0.0258647
-0.0226935
-0.0192867
-0.0158286
-0.0122421
-0.00873109
-0.00519509
-0.00185941
0.00140576
0.00439987
0.00725792
0.00979862
0.0121464
0.0141582
0.0159274
0.0173362
0.0184724
0.0192719
0.0198386
0.020105
0.0201802
0.0201497
-0.0406628
-0.0407278
-0.0400628
-0.0389937
-0.0375278
-0.035669
-0.0333334
-0.0306384
-0.0275658
-0.0242882
-0.0207602
-0.0171727
-0.0134474
-0.00979643
-0.00611709
-0.00264304
0.000759433
0.00388201
0.00686367
0.00951661
0.011969
0.0140722
0.0159224
0.0173978
0.0185894
0.0194307
0.0200305
0.0203205
0.0204132
0.020396
-0.0426526
-0.0427391
-0.042089
-0.0410258
-0.039549
-0.037661
-0.0352727
-0.032505
-0.0293389
-0.0259524
-0.0222989
-0.0185775
-0.0147082
-0.010912
-0.0070835
-0.00346546
7.96574e-05
0.00333585
0.00644592
0.00921525
0.0117755
0.013973
0.0159065
0.0174505
0.0186989
0.0195836
0.0202176
0.0205324
0.0206435
0.0206406
-0.044661
-0.0447682
-0.0441379
-0.043084
-0.0416008
-0.0396858
-0.0372467
-0.0344068
-0.0311467
-0.0276497
-0.0238691
-0.020011
-0.0159948
-0.01205
-0.00806921
-0.00430402
-0.000612908
0.00277992
0.00602118
0.00890923
0.0115797
0.013873
0.0158912
0.0175047
0.0188108
0.0197391
0.0204077
0.0207475
0.0208777
0.0208899
-0.0467365
-0.0468693
-0.0462587
-0.0452166
-0.0437274
-0.0417872
-0.0392976
-0.036385
-0.0330291
-0.0294189
-0.0255066
-0.0215071
-0.0173385
-0.0132395
-0.0091004
-0.00518216
-0.00133959
0.00219519
0.00557252
0.00858349
0.0113674
0.0137594
0.0158646
0.0175495
0.0189149
0.0198882
0.0205926
0.0209585
0.0211085
0.0211364
-0.0488318
-0.0489903
-0.0484051
-0.0473776
-0.0458868
-0.0439236
-0.0413853
-0.0384004
-0.0349483
-0.0312231
-0.0271771
-0.0230334
-0.0187091
-0.0144523
-0.0101515
-0.00607679
-0.00207916
0.00160077
0.0051171
0.00825332
0.0111529
0.0136451
0.0158386
0.0175959
0.0190214
0.0200398
0.0207801
0.0211723
0.0213428
0.0213871
-0.050998
-0.0511874
-0.0506274
-0.0496166
-0.0481242
-0.0461393
-0.0435524
-0.0404949
-0.0369442
-0.033101
-0.0289166
-0.0246237
-0.0201381
-0.0157177
-0.0112488
-0.0070116
-0.00285338
0.000977087
0.00463733
0.00790302
0.0109215
0.0135167
0.0158007
0.0176323
0.0191195
0.0201846
0.0209619
0.0213814
0.0215729
0.021634
-0.0531848
-0.0534064
-0.0528771
-0.0518859
-0.0503963
-0.0483921
-0.0457584
-0.0426284
-0.0389787
-0.0350157
-0.0306907
-0.0262454
-0.0215949
-0.0170071
-0.0123664
-0.00796308
-0.00364046
0.000343856
0.00415112
0.00754858
0.0106879
0.0133877
0.0157636
0.0176703
0.01922
0.0203317
0.021146
0.0215927
0.0218058
0.0218842
-0.0554463
-0.0557053
-0.0552059
-0.0542363
-0.0527492
-0.0507269
-0.0480462
-0.044843
-0.0410916
-0.0370055
-0.0325349
-0.027932
-0.0231109
-0.0183496
-0.0135309
-0.00895522
-0.00446268
-0.000319101
0.00364003
0.00717343
0.010437
0.0132439
0.015714
0.0176976
0.0193115
0.0204713
0.0213235
0.0217985
0.0220334
0.0221294
-0.0577304
-0.0580278
-0.0575643
-0.0566187
-0.0551386
-0.0531003
-0.0503743
-0.047098
-0.0432445
-0.0390331
-0.0344146
-0.0296508
-0.0246554
-0.0197166
-0.0147158
-0.00996406
-0.00529767
-0.00099147
0.00312283
0.00679444
0.0101838
0.0130994
0.0156651
0.0177264
0.0194047
0.0206125
0.0215023
0.0220054
0.0222625
0.0223762
-0.060093
-0.0604331
-0.0600045
-0.0590847
-0.0576109
-0.0555576
-0.0527861
-0.0494357
-0.045477
-0.0411368
-0.036365
-0.0314351
-0.0262596
-0.0211371
-0.0159479
-0.0110139
-0.00616825
-0.00169413
0.0025802
0.00639415
0.00991256
0.0129395
0.0156029
0.0177437
0.0194881
0.0207451
0.0216734
0.0222053
0.0224848
0.0226162
-0.0624796
-0.0628633
-0.0624747
-0.0615834
-0.0601207
-0.0580549
-0.0552392
-0.0518147
-0.0477502
-0.0432791
-0.0383516
-0.033252
-0.0278925
-0.0225823
-0.0172004
-0.0120804
-0.00705156
-0.0024062
0.00203154
0.00599001
0.0096388
0.0127783
0.0155411
0.0177619
0.0195719
0.0208774
0.0218438
0.0224041
0.022706
0.0228552
-0.0649483
-0.0653785
-0.0650281
-0.0641672
-0.0627149
-0.0606374
-0.0577773
-0.0542775
-0.0501036
-0.0454977
-0.040409
-0.0351345
-0.0295853
-0.0240813
-0.0185004
-0.0131882
-0.00797088
-0.00314922
0.00145675
0.0055638
0.009346
0.012601
0.0154651
0.0177674
0.0196444
0.0209994
0.0220044
0.0225937
0.0229178
0.0230847
-0.0674422
-0.0679188
-0.0676122
-0.066784
-0.0653473
-0.0632605
-0.0603572
-0.0567818
-0.0524981
-0.047755
-0.0425027
-0.0370498
-0.0313068
-0.025605
-0.0198206
-0.0143124
-0.00890309
-0.00390206
0.000875259
0.00513287
0.00904956
0.012421
0.015388
0.0177721
0.0197142
0.0211178
0.0221607
0.0227785
0.0231246
0.0233088
-0.0700224
-0.0705453
-0.0702801
-0.0694866
-0.0680648
-0.0659696
-0.0630228
-0.0593702
-0.0549726
-0.0500885
-0.0446668
-0.0390303
-0.0330881
-0.0271824
-0.0211882
-0.0154781
-0.00987171
-0.00468664
0.000266702
0.00467878
0.00873283
0.0122236
0.0152953
0.0177624
0.0197707
0.0212231
0.0223043
0.0229508
0.0233188
0.02352
-0.0726256
-0.0731957
-0.0729769
-0.0722215
-0.0708202
-0.0687193
-0.0657299
-0.0619998
-0.0574879
-0.0524604
-0.0468669
-0.0410433
-0.0348981
-0.0287846
-0.0225759
-0.0166601
-0.0108539
-0.00548229
-0.000350739
0.00421729
0.00840978
0.0120207
0.0151986
0.0177483
0.0198203
0.0213209
0.0224395
0.0231145
0.0235039
0.0237218
-0.0753124
-0.0759308
-0.0757565
-0.075042
-0.0736609
-0.0715552
-0.0685228
-0.0647135
-0.0600828
-0.0549077
-0.0491366
-0.0431208
-0.0367672
-0.0304402
-0.024011
-0.0178838
-0.011873
-0.00631065
-0.000996645
0.00373089
0.00806449
0.0117983
0.015084
0.0177176
0.0198532
0.0214026
0.0225583
0.0232625
0.023673
0.0239073
-0.0780185
-0.0786859
-0.078563
-0.0778931
-0.0765387
-0.0744309
-0.0713566
-0.0674673
-0.0627177
-0.0573928
-0.0514414
-0.0452301
-0.0386646
-0.0321206
-0.0254666
-0.0191249
-0.0129074
-0.00715277
-0.00165622
0.0032321
0.00770779
0.0115658
0.0149602
0.0176776
0.0198756
0.0214738
0.0226666
0.0234004
0.0238322
0.024083
-0.0808066
-0.0815223
-0.08145
-0.0808287
-0.0795012
-0.0773926
-0.0742758
-0.0703048
-0.0654311
-0.0599522
-0.0538147
-0.0474029
-0.0406204
-0.0338543
-0.0269693
-0.0204078
-0.0139793
-0.00802877
-0.00234621
0.00270545
0.00732616
0.0113107
0.0148156
0.0176181
0.0198802
0.0215288
0.0227593
0.023524
0.0239774
0.0242453
-0.0836065
-0.0843738
-0.0843597
-0.0837925
-0.0824992
-0.0803928
-0.0772345
-0.0731809
-0.0681832
-0.0625481
-0.0562218
-0.0496066
-0.0426044
-0.0356133
-0.0284947
-0.0217111
-0.0150702
-0.00892331
-0.00305623
0.00216041
0.00692707
0.0110404
0.0146564
0.0175458
0.0198736
0.0215756
0.0228455
0.0236429
0.0241187
0.0244046
-0.0864805
-0.0873015
-0.0873467
-0.0868388
-0.0855808
-0.0834781
-0.0802779
-0.0761398
-0.0710126
-0.0652171
-0.0586963
-0.0518727
-0.0446458
-0.0374252
-0.0300673
-0.0230569
-0.0161996
-0.00985288
-0.00380014
0.00158467
0.0064992
0.0107446
0.0144729
0.0174528
0.0198495
0.0216088
0.0229205
0.0237527
0.0242522
0.0245563
-0.0893597
-0.0902377
-0.0903529
-0.0899109
-0.0886961
-0.0866003
-0.0833589
-0.0791353
-0.0738788
-0.0679213
-0.0612038
-0.0541696
-0.0467162
-0.0392644
-0.0316677
-0.0244288
-0.0173541
-0.0108071
-0.00456945
0.000985837
0.00605021
0.0104308
0.0142726
0.0173468
0.0198177
0.0216396
0.0229968
0.0238667
0.0243909
0.0247146
-0.0923083
-0.0932462
-0.0934334
-0.0930633
-0.0918936
-0.0898062
-0.0865236
-0.0822125
-0.0768207
-0.0706973
-0.0637776
-0.0565281
-0.0488432
-0.0411561
-0.0333156
-0.0258448
-0.0185482
-0.0117975
-0.00537252
0.000356732
0.00557388
0.0100929
0.0140507
0.0172237
0.0197734
0.0216635
0.0230698
0.0239803
0.0245304
0.0248742
-0.0952558
-0.0962593
-0.0965301
-0.0962401
-0.095123
-0.0930472
-0.0897238
-0.0853241
-0.0797977
-0.0735073
-0.0663853
-0.0589192
-0.051002
-0.0430794
-0.0349982
-0.0272934
-0.0197738
-0.0128162
-0.00620128
-0.000292418
0.00508071
0.00974255
0.013818
0.0170954
0.0197307
0.0216953
0.0231552
0.024109
0.0246861
0.0250509
-0.0982713
-0.099343
-0.0996992
-0.0994958
-0.0984335
-0.096371
-0.0930067
-0.0885162
-0.0828491
-0.0763884
-0.0690586
-0.0613718
-0.0532169
-0.0450547
-0.0367304
-0.028787
-0.0210406
-0.0138695
-0.00706076
-0.000966523
0.00456691
0.0093754
0.0135714
0.0169577
0.0196839
0.0217275
0.0232449
0.024244
0.0248488
0.0252336
-0.101283
-0.102428
-0.102885
-0.102777
-0.101775
-0.0997287
-0.0963236
-0.0917413
-0.0859347
-0.0793039
-0.0717697
-0.0638617
-0.0554693
-0.0470674
-0.0385028
-0.0303181
-0.0223417
-0.0149501
-0.00793975
-0.0016518
0.00404734
0.0090072
0.0133261
0.0168262
0.0196486
0.0217759
0.0233544
0.0244003
0.0250327
0.025437
-0.104364
-0.105585
-0.106145
-0.106138
-0.105199
-0.103169
-0.0997224
-0.0950461
-0.089094
-0.0822901
-0.074547
-0.0664142
-0.0577774
-0.0491317
-0.0403226
-0.0318913
-0.0236793
-0.0160589
-0.00884095
-0.00235137
0.00351842
0.00863403
0.0130783
0.0166958
0.0196165
0.0218296
0.0234712
0.0245641
0.0252236
0.0256452
-0.107439
-0.108744
-0.109422
-0.109526
-0.108654
-0.106644
-0.103156
-0.0983847
-0.0922892
-0.0853137
-0.0773677
-0.0690096
-0.0601294
-0.0512368
-0.0421816
-0.0334969
-0.025044
-0.0171844
-0.00974817
-0.00304774
0.00299903
0.00827457
0.0128464
0.016584
0.0196049
0.0219052
0.0236108
0.0247503
0.0254356
0.0258729
-0.110588
-0.111977
-0.112779
-0.112997
-0.112192
-0.110201
-0.106672
-0.101804
-0.0955587
-0.0884085
-0.0802576
-0.0716677
-0.0625379
-0.0533895