1.45 	0 	0 	-0.00799773 	-0.00257584 	3.79583e-21
2.35 	0 	0 	0.0615772 	-0.00664026 	2.30462e-21
