1.45 	0 	0 	0.00669636 	-0.00414027 	3.93241e-21
2.35 	0 	0 	0.127598 	-0.00892123 	1.78764e-21
