/*--------------------------------*- C++ -*----------------------------------*\
  =========                 |
  \\      /  F ield         | OpenFOAM: The Open Source CFD Toolbox
   \\    /   O peration     | Website:  https://openfoam.org
    \\  /    A nd           | Version:  6.0
     \\/     M anipulation  |
\*---------------------------------------------------------------------------*/
FoamFile
{
    version     2.0;
    format      ascii;
    class       volVectorField;
    location    "2.4";
    object      U;
}
// * * * * * * * * * * * * * * * * * * * * * * * * * * * * * * * * * * * * * //

dimensions      [0 1 -1 0 0 0 0];

internalField   nonuniform List<vector> 
24000
(
(0.999994 5.29729e-07 -7.9631e-17)
(0.999946 -2.21497e-05 1.08426e-16)
(0.999864 -6.8766e-05 -1.90634e-16)
(0.999771 -0.000145507 2.10348e-16)
(0.999697 -0.000245265 -1.03771e-15)
(0.999662 -0.000347616 -6.15131e-16)
(0.999673 -0.000431311 6.29753e-16)
(0.999727 -0.000475582 -1.39528e-15)
(0.999816 -0.000454438 4.37979e-16)
(0.999916 -0.00036271 -3.22019e-16)
(1.00001 -4.86019e-05 -3.1149e-16)
(1.00118 0.001223 -4.61623e-16)
(0.999988 -2.83289e-06 1.16736e-16)
(0.999902 -5.27668e-05 -1.60443e-16)
(0.999756 -0.000144437 3.5622e-16)
(0.999592 -0.000290329 -8.89476e-17)
(0.999466 -0.000474916 4.61859e-16)
(0.999414 -0.000656576 6.22097e-16)
(0.999445 -0.000799197 -3.50341e-16)
(0.999555 -0.000866096 1.48222e-15)
(0.999723 -0.00081171 -3.10998e-16)
(0.999917 -0.000633545 1.59613e-17)
(1.00003 -8.13811e-05 8.13618e-17)
(1.00214 0.00182741 1.53688e-16)
(0.999986 -7.82724e-06 -8.89143e-17)
(0.99991 -7.28365e-05 2.16184e-16)
(0.999782 -0.000173532 -1.23464e-16)
(0.999638 -0.000323203 4.51466e-16)
(0.999531 -0.000504726 2.51544e-16)
(0.999496 -0.000674192 2.31371e-16)
(0.999539 -0.000798114 5.18183e-16)
(0.999655 -0.000846471 -6.58905e-16)
(0.999823 -0.000775943 -3.67705e-16)
(1.00002 -0.000600179 -1.29796e-16)
(1.00006 -8.51729e-05 -2.90297e-17)
(1.00224 0.00143215 4.86186e-16)
(0.999984 -1.37299e-05 -3.7966e-17)
(0.999921 -9.27952e-05 -2.04543e-16)
(0.999818 -0.000200343 -3.15836e-16)
(0.999699 -0.00034931 -2.23818e-16)
(0.999613 -0.000523367 -1.31086e-16)
(0.999589 -0.000681095 -9.05623e-16)
(0.999635 -0.000792817 -1.43467e-15)
(0.999747 -0.000836245 1.63915e-16)
(0.999904 -0.000770344 4.69325e-17)
(1.00011 -0.000614316 6.45122e-16)
(1.00009 -0.000168724 -4.11691e-16)
(1.00207 0.00104135 -5.68812e-16)
(0.99998 -1.99295e-05 6.76368e-17)
(0.999921 -0.000114719 3.30202e-17)
(0.999827 -0.00023602 1.60058e-16)
(0.999718 -0.000395516 -7.56573e-17)
(0.99964 -0.000577227 2.07883e-16)
(0.999619 -0.00074115 1.87113e-16)
(0.999667 -0.000858388 1.45138e-15)
(0.999782 -0.00090899 -9.48251e-17)
(0.999944 -0.000849951 -2.79736e-16)
(1.00017 -0.000692661 7.60174e-17)
(1.00014 -0.000267112 2.84113e-16)
(1.00192 0.000859882 -1.50624e-16)
(0.999975 -2.61506e-05 3.91408e-18)
(0.999917 -0.000136804 -1.90006e-17)
(0.999829 -0.000273513 -2.13635e-17)
(0.999729 -0.000444533 -3.86785e-18)
(0.99966 -0.000633306 -8.62729e-16)
(0.999647 -0.000800681 1.05572e-15)
(0.999703 -0.000917954 2.92957e-17)
(0.999827 -0.00096585 1.46175e-16)
(0.999998 -0.000899977 6.91382e-16)
(1.00025 -0.000722523 -3.40269e-16)
(1.00024 -0.00029018 5.15556e-16)
(1.00183 0.000816856 3.45089e-16)
(0.999969 -3.24476e-05 -3.54203e-18)
(0.999914 -0.000158456 2.04895e-16)
(0.999835 -0.000309498 -2.07788e-16)
(0.999749 -0.000488456 -1.0131e-16)
(0.999696 -0.000677993 4.43359e-16)
(0.999696 -0.000840236 -2.1809e-16)
(0.999764 -0.000947563 -6.03989e-16)
(0.9999 -0.000982083 -3.13338e-16)
(1.00008 -0.000900558 1.22113e-16)
(1.00035 -0.000702121 6.01779e-16)
(1.00036 -0.000269151 -1.21698e-15)
(1.00179 0.000786975 3.16425e-16)
(0.999963 -3.89315e-05 -5.23182e-17)
(0.99991 -0.000180214 7.93237e-17)
(0.999841 -0.000345683 2.39433e-16)
(0.999769 -0.000532132 4.5325e-16)
(0.999732 -0.000721897 2.4128e-16)
(0.999746 -0.000878943 -2.6772e-16)
(0.999826 -0.000977139 -2.91084e-16)
(0.999972 -0.00100009 -1.39518e-16)
(1.00016 -0.000906481 4.81949e-17)
(1.00044 -0.000697092 -1.30352e-16)
(1.00048 -0.000277206 1.04197e-15)
(1.00178 0.000696376 -5.47131e-16)
(0.999956 -4.56489e-05 2.05992e-17)
(0.999905 -0.000202397 -1.94796e-16)
(0.999842 -0.00038328 1.46122e-17)
(0.999782 -0.000579125 -7.23283e-17)
(0.999756 -0.000772503 7.29868e-17)
(0.999781 -0.000929555 -6.11125e-17)
(0.999871 -0.00102568 5.12033e-17)
(1.00003 -0.00104518 5.58695e-16)
(1.00022 -0.000947849 -6.92298e-17)
(1.00052 -0.000735901 -7.89576e-16)
(1.00059 -0.000333732 -8.79e-16)
(1.00178 0.000559725 9.7338e-16)
(0.999947 -5.26054e-05 7.32107e-17)
(0.999898 -0.000224843 4.86895e-18)
(0.99984 -0.00042157 1.845e-16)
(0.999788 -0.000628005 -4.8368e-16)
(0.999772 -0.00082715 -1.15428e-16)
(0.999806 -0.000987437 5.2237e-16)
(0.999905 -0.00108602 -4.4369e-16)
(1.00007 -0.00110722 -6.69097e-16)
(1.00027 -0.00101112 2.04913e-16)
(1.00059 -0.000798299 2.05433e-16)
(1.00069 -0.000409566 6.5362e-16)
(1.0018 0.000426894 -1.37662e-16)
(0.999939 -5.98063e-05 -1.00415e-16)
(0.99989 -0.000247308 -2.31196e-17)
(0.999837 -0.000459455 -2.19888e-16)
(0.999793 -0.000676302 3.65803e-17)
(0.999787 -0.000881058 1.67241e-16)
(0.999831 -0.00104423 -3.60495e-16)
(0.999939 -0.00114508 2.70814e-16)
(1.00011 -0.00116783 7.53922e-16)
(1.00033 -0.00107284 -5.62087e-16)
(1.00066 -0.000856373 2.24177e-16)
(1.0008 -0.000474656 -8.46719e-16)
(1.00184 0.00032461 -9.02012e-16)
(0.999929 -6.72468e-05 6.51899e-18)
(0.999882 -0.000269648 1.92039e-16)
(0.999835 -0.000496418 -1.92595e-16)
(0.999799 -0.000723082 1.48934e-16)
(0.999803 -0.000932654 -4.57661e-16)
(0.999859 -0.00109717 -2.03891e-16)
(0.999978 -0.00119806 6.63804e-17)
(1.00016 -0.0012197 -3.02784e-16)
(1.00039 -0.00112326 -3.94121e-16)
(1.00073 -0.000900108 3.62803e-16)
(1.0009 -0.000521444 2.85432e-16)
(1.00189 0.000247263 1.00448e-17)
(0.999919 -7.49002e-05 2.45286e-17)
(0.999873 -0.000291796 -1.91906e-17)
(0.999833 -0.000532398 5.30677e-16)
(0.999805 -0.000768551 1.53081e-16)
(0.99982 -0.000982845 2.61604e-16)
(0.999889 -0.00114815 -2.92397e-16)
(1.00002 -0.00124766 -1.47862e-16)
(1.00022 -0.00126612 1.20553e-16)
(1.00046 -0.00116617 4.65488e-16)
(1.00081 -0.000935221 -1.2189e-15)
(1.00101 -0.000558585 -4.86213e-16)
(1.00195 0.000178431 5.40824e-16)
(0.999909 -8.27084e-05 -7.57557e-17)
(0.999865 -0.000313667 -6.74252e-17)
(0.999832 -0.000567382 -4.19409e-16)
(0.999811 -0.00081291 -3.31399e-16)
(0.999837 -0.00103256 -2.3224e-16)
(0.999918 -0.00119944 3.64996e-16)
(1.00006 -0.00129778 2.50973e-16)
(1.00027 -0.00131275 -2.76465e-16)
(1.00052 -0.00120876 -3.70961e-16)
(1.00089 -0.000970587 -1.32865e-16)
(1.00112 -0.000596025 6.90497e-16)
(1.00202 0.000108641 -4.80577e-16)
(0.999898 -9.05941e-05 4.07774e-17)
(0.999856 -0.000335184 3.22333e-17)
(0.999831 -0.000601317 4.9542e-17)
(0.999817 -0.000856011 7.90418e-17)
(0.999852 -0.00108174 8.21748e-17)
(0.999945 -0.00125153 -1.48247e-16)
(1.0001 -0.00134988 7.76964e-18)
(1.00033 -0.0013622 -3.82933e-16)
(1.00059 -0.00125468 3.62524e-16)
(1.00097 -0.00101023 1.38171e-15)
(1.00122 -0.00063721 -2.0532e-16)
(1.00209 3.78411e-05 6.69276e-16)
(0.999886 -9.84598e-05 -3.93737e-17)
(0.999848 -0.000356281 1.48698e-18)
(0.999829 -0.00063418 1.47853e-16)
(0.999823 -0.000897579 2.09073e-16)
(0.999868 -0.00112971 2.31255e-16)
(0.999973 -0.00130338 -1.50241e-16)
(1.00014 -0.00140288 -2.41918e-16)
(1.00038 -0.00141351 5.91544e-16)
(1.00066 -0.00130307 1.43232e-16)
(1.00104 -0.00105287 -1.48923e-15)
(1.00133 -0.000680105 2.35358e-16)
(1.00217 -3.01701e-05 2.21877e-17)
(0.999873 -0.000106201 9.00886e-17)
(0.999838 -0.000376943 3.30974e-17)
(0.999828 -0.000666084 -3.19579e-16)
(0.99983 -0.000937604 1.37917e-16)
(0.999885 -0.001176 -5.61333e-17)
(1 -0.00135386 3.67382e-16)
(1.00018 -0.00145506 6.25445e-16)
(1.00043 -0.00146452 1.05303e-16)
(1.00072 -0.00135147 5.1056e-16)
(1.00112 -0.0010957 1.23808e-15)
(1.00143 -0.000722027 1.43186e-15)
(1.00225 -9.37483e-05 -5.33998e-16)
(0.99986 -0.000113698 3.46262e-17)
(0.999828 -0.000397174 -2.74503e-17)
(0.999826 -0.000697255 3.03967e-16)
(0.999838 -0.000976431 -2.77262e-16)
(0.999904 -0.00122077 3.92447e-16)
(1.00003 -0.00140269 4.03371e-18)
(1.00023 -0.00150569 -4.06608e-16)
(1.00049 -0.00151414 1.28199e-16)
(1.00079 -0.00139862 -4.4207e-16)
(1.00121 -0.00113759 -2.1635e-16)
(1.00153 -0.000762523 -5.74324e-16)
(1.00233 -0.000154341 -1.0601e-16)
(0.999845 -0.000120835 -4.15255e-17)
(0.999817 -0.000416998 -2.31146e-16)
(0.999823 -0.000727979 -1.26513e-16)
(0.999845 -0.00101467 1.55275e-16)
(0.999923 -0.00126481 -2.81995e-17)
(1.00006 -0.00145064 -2.62031e-16)
(1.00027 -0.00155543 -5.46454e-17)
(1.00055 -0.00156302 -3.37627e-17)
(1.00086 -0.00144525 -5.30654e-16)
(1.00129 -0.00117958 -3.89239e-16)
(1.00163 -0.000803153 -1.72192e-15)
(1.00241 -0.000214414 1.02015e-15)
(0.99983 -0.000127492 -3.95663e-17)
(0.999805 -0.000436414 2.4064e-16)
(0.999818 -0.000758479 -1.71771e-16)
(0.999851 -0.00105292 7.66662e-17)
(0.999941 -0.00130906 -1.88208e-16)
(1.00009 -0.00149889 -4.2636e-16)
(1.00031 -0.00160563 5.40874e-17)
(1.0006 -0.00161265 -6.90565e-17)
(1.00093 -0.00149297 2.87265e-16)
(1.00137 -0.00122332 4.46444e-16)
(1.00173 -0.000845439 1.54098e-15)
(1.0025 -0.000274746 -9.86579e-16)
(0.999814 -0.000133564 2.84593e-17)
(0.999791 -0.000455414 -1.1203e-17)
(0.999811 -0.000788883 2.72392e-17)
(0.999855 -0.00109159 -6.35846e-17)
(0.999957 -0.0013542 -2.36494e-16)
(1.00012 -0.00154838 -9.46206e-18)
(1.00036 -0.00165738 -1.25446e-16)
(1.00066 -0.00166419 -6.70096e-16)
(1.001 -0.00154289 4.03746e-16)
(1.00145 -0.00126962 2.18641e-16)
(1.00183 -0.000889658 6.51981e-17)
(1.00258 -0.000334672 2.21804e-16)
(0.999797 -0.000138958 3.25528e-17)
(0.999775 -0.00047396 -2.64009e-16)
(0.999803 -0.000819195 5.16937e-16)
(0.999857 -0.00113078 4.91938e-17)
(0.999971 -0.00140046 1.43454e-16)
(1.00015 -0.00159944 8.69665e-16)
(1.0004 -0.00171101 7.15237e-16)
(1.00072 -0.00171786 3.61993e-16)
(1.00107 -0.00159497 -9.59197e-16)
(1.00153 -0.001318 -2.79717e-16)
(1.00193 -0.000934894 9.24965e-17)
(1.00267 -0.000392826 -3.31183e-17)
(0.999778 -0.000143608 -6.10051e-17)
(0.999759 -0.000492024 1.0517e-16)
(0.999793 -0.000849362 -6.97005e-17)
(0.999857 -0.0011704 -8.85195e-17)
(0.999983 -0.0014477 -2.55215e-16)
(1.00018 -0.00165189 -5.04978e-16)
(1.00044 -0.00176626 -2.74479e-16)
(1.00077 -0.00177318 -2.17691e-17)
(1.00114 -0.00164848 2.77991e-16)
(1.00162 -0.00136749 -2.6509e-16)
(1.00203 -0.000980148 -1.56348e-15)
(1.00276 -0.00044882 7.90945e-16)
(0.999758 -0.000147466 4.4542e-17)
(0.999741 -0.00050957 6.34567e-18)
(0.999781 -0.000879308 -1.89682e-16)
(0.999856 -0.00121029 -1.45078e-16)
(0.999995 -0.00149562 -8.05121e-17)
(1.0002 -0.00170534 -1.19009e-16)
(1.00048 -0.00182261 -2.17102e-16)
(1.00083 -0.00182952 -2.31621e-16)
(1.00121 -0.00170269 -6.75205e-17)
(1.0017 -0.00141736 -2.45957e-16)
(1.00213 -0.00102503 9.28137e-17)
(1.00286 -0.000502854 -1.57395e-16)
(0.999737 -0.000150513 1.5268e-17)
(0.999722 -0.000526591 1.49441e-16)
(0.999769 -0.000908998 4.0907e-17)
(0.999853 -0.00125029 -1.57108e-17)
(1 -0.00154396 9.88676e-17)
(1.00023 -0.00175945 2.77857e-16)
(1.00052 -0.00187973 1.06959e-16)
(1.00088 -0.00188657 2.67529e-16)
(1.00128 -0.00175739 3.13622e-16)
(1.00178 -0.00146762 -3.06048e-16)
(1.00223 -0.00107002 1.00416e-15)
(1.00295 -0.000555611 -6.21022e-16)
(0.999715 -0.000152741 -2.07038e-17)
(0.999702 -0.000543086 -1.95514e-17)
(0.999755 -0.00093843 -1.47799e-16)
(0.99985 -0.00129034 -9.7281e-17)
(1.00001 -0.00159259 -3.48746e-17)
(1.00025 -0.00181407 -1.78962e-16)
(1.00056 -0.00193751 1.04164e-17)
(1.00094 -0.00194435 -3.11418e-16)
(1.00136 -0.00181277 -2.70565e-17)
(1.00187 -0.0015187 1.05176e-15)
(1.00233 -0.00111581 4.95931e-16)
(1.00304 -0.000607992 5.29837e-17)
(0.999691 -0.000154162 -9.85032e-18)
(0.999681 -0.000559072 -1.14711e-16)
(0.999741 -0.00096765 -5.0552e-17)
(0.999846 -0.00133048 -7.55323e-17)
(1.00002 -0.00164153 5.57651e-16)
(1.00027 -0.00186923 -1.29206e-16)
(1.0006 -0.00199605 1.53817e-16)
(1.00099 -0.00200309 -1.59824e-16)
(1.00143 -0.00186924 -2.55352e-16)
(1.00195 -0.00157117 -2.65213e-16)
(1.00243 -0.00116307 -1.96279e-17)
(1.00314 -0.000660765 -2.00789e-16)
(0.999666 -0.000154792 3.4108e-17)
(0.999658 -0.000574562 -4.08716e-17)
(0.999725 -0.000996707 1.71692e-16)
(0.999841 -0.00137078 3.46639e-16)
(1.00003 -0.00169087 -5.27302e-16)
(1.0003 -0.00192504 4.99109e-16)
(1.00064 -0.00205551 -2.76017e-16)
(1.00105 -0.00206304 -1.44133e-16)
(1.0015 -0.00192715 -1.94176e-16)
(1.00204 -0.00162537 -3.55101e-16)
(1.00253 -0.00121205 -1.50664e-16)
(1.00323 -0.000713922 -1.20481e-16)
(0.999639 -0.000154662 -5.82588e-18)
(0.999635 -0.000589581 -1.56759e-17)
(0.999709 -0.00102565 -1.57886e-17)
(0.999835 -0.00141135 -3.35556e-16)
(1.00004 -0.00174079 -1.44073e-16)
(1.00032 -0.00198171 -1.30501e-17)
(1.00067 -0.0021161 -3.8983e-16)
(1.0011 -0.00212441 7.18513e-16)
(1.00157 -0.00198671 -5.86785e-18)
(1.00212 -0.00168143 2.50859e-16)
(1.00262 -0.00126276 1.7769e-16)
(1.00333 -0.000767094 -5.41969e-18)
(0.999611 -0.000153799 -1.8902e-17)
(0.999611 -0.00060414 1.07932e-16)
(0.999691 -0.0010545 3.2145e-17)
(0.999828 -0.00145225 4.61207e-16)
(1.00005 -0.00179145 2.51702e-16)
(1.00034 -0.00203941 -4.22293e-16)
(1.00071 -0.00217799 1.91757e-16)
(1.00116 -0.00218732 -3.78561e-16)
(1.00164 -0.00204795 1.31077e-15)
(1.0022 -0.00173922 -1.01897e-16)
(1.00272 -0.0013149 2.24109e-17)
(1.00342 -0.000820044 -1.40452e-16)
(0.999582 -0.000152246 -1.97237e-17)
(0.999586 -0.000618258 7.54042e-17)
(0.999672 -0.00108325 -9.05855e-17)
(0.999819 -0.00149351 -4.47627e-16)
(1.00005 -0.00184293 4.63529e-16)
(1.00036 -0.00209829 2.71166e-16)
(1.00075 -0.00224128 3.42987e-16)
(1.00121 -0.00225178 1.53484e-16)
(1.00171 -0.00211078 -1.08878e-16)
(1.00229 -0.0017985 5.46732e-16)
(1.00282 -0.00136809 -9.91442e-16)
(1.00352 -0.000872472 1.11804e-15)
(0.999552 -0.000150043 2.74837e-17)
(0.99956 -0.000631942 -1.44318e-16)
(0.999652 -0.00111185 -8.4266e-17)
(0.999809 -0.00153508 -2.685e-17)
(1.00005 -0.00189521 -1.77286e-16)
(1.00038 -0.00215834 -5.03362e-18)
(1.00079 -0.00230595 -2.81944e-16)
(1.00126 -0.00231771 -2.1341e-16)
(1.00178 -0.00217497 -1.20401e-15)
(1.00237 -0.00185888 -3.97408e-16)
(1.00292 -0.00142183 -2.55455e-16)
(1.00362 -0.000924079 -2.99749e-17)
(0.999521 -0.000147249 1.05402e-17)
(0.999533 -0.000645218 -1.18655e-17)
(0.999631 -0.00114026 -4.26382e-17)
(0.999798 -0.00157686 3.25658e-16)
(1.00006 -0.00194819 -5.52942e-16)
(1.0004 -0.00221946 -4.10363e-16)
(1.00082 -0.00237186 3.52591e-16)
(1.00132 -0.00238486 -2.33392e-17)
(1.00185 -0.00224021 7.29498e-17)
(1.00246 -0.00191994 4.21189e-16)
(1.00301 -0.00147571 -1.68313e-16)
(1.00372 -0.000974757 3.031e-16)
(0.999489 -0.00014392 -1.51832e-17)
(0.999505 -0.000658111 1.70173e-16)
(0.999609 -0.00116843 2.88676e-16)
(0.999786 -0.0016187 -9.61844e-17)
(1.00006 -0.00200163 4.35669e-17)
(1.00042 -0.00228139 1.82325e-16)
(1.00086 -0.00243873 -4.20957e-16)
(1.00137 -0.00245293 4.43265e-16)
(1.00192 -0.00230609 3.44664e-16)
(1.00254 -0.00198127 -2.83986e-16)
(1.00311 -0.00152933 3.22677e-18)
(1.00382 -0.00102447 -1.89929e-17)
(0.999455 -0.00014013 -4.29724e-18)
(0.999476 -0.000670674 -2.47219e-16)
(0.999587 -0.00119635 -4.85247e-17)
(0.999774 -0.00166049 5.79677e-17)
(1.00006 -0.00205533 6.52342e-16)
(1.00043 -0.00234384 5.20869e-17)
(1.00089 -0.00250623 3.90863e-16)
(1.00142 -0.00252155 -7.24008e-16)
(1.00199 -0.00237229 3.63622e-16)
(1.00263 -0.00204259 -4.36806e-16)
(1.00321 -0.00158259 9.36897e-16)
(1.00392 -0.00107326 -4.64916e-16)
(0.99942 -0.00013595 2.14802e-17)
(0.999446 -0.000682962 1.09606e-16)
(0.999564 -0.00122404 -1.16408e-16)
(0.999761 -0.00170216 4.79229e-17)
(1.00006 -0.00210909 -3.9242e-16)
(1.00045 -0.00240654 -1.38173e-16)
(1.00093 -0.00257407 2.26857e-17)
(1.00148 -0.00259045 5.18808e-16)
(1.00206 -0.00243859 3.13158e-16)
(1.00271 -0.00210377 -2.16202e-17)
(1.00331 -0.00163549 1.23446e-15)
(1.00402 -0.00112155 -6.08226e-16)
(0.999385 -0.000131467 1.44413e-18)
(0.999416 -0.000695061 1.19631e-16)
(0.99954 -0.00125158 1.19521e-16)
(0.999748 -0.00174374 -1.44075e-17)
(1.00006 -0.00216285 2.86992e-16)
(1.00047 -0.00246938 3.71131e-16)
(1.00096 -0.00264212 -1.13257e-16)
(1.00153 -0.00265954 5.21173e-16)
(1.00214 -0.00250496 -1.19598e-15)
(1.0028 -0.00216494 -1.32671e-16)
(1.00341 -0.00168831 -1.77702e-15)
(1.00412 -0.0011701 1.40333e-16)
(0.999348 -0.000126755 -6.23009e-17)
(0.999385 -0.00070705 7.44351e-17)
(0.999516 -0.0012791 -2.12712e-17)
(0.999735 -0.00178532 1.55175e-16)
(1.00006 -0.00221667 -2.13685e-16)
(1.00048 -0.00253236 -5.2082e-16)
(1.001 -0.00271038 -4.00653e-17)
(1.00158 -0.00272886 -3.71484e-16)
(1.00221 -0.00257155 1.27398e-15)
(1.00289 -0.00222634 -4.29189e-17)
(1.00351 -0.00174136 3.8136e-16)
(1.00422 -0.00121924 7.01404e-16)
(0.99931 -0.000121903 1.5493e-17)
(0.999352 -0.000719027 -3.19124e-16)
(0.999492 -0.00130675 1.09991e-16)
(0.999721 -0.00182712 -5.10161e-16)
(1.00006 -0.00227074 2.55262e-16)
(1.0005 -0.00259566 8.45207e-16)
(1.00103 -0.00277903 -2.19163e-16)
(1.00164 -0.00279865 -5.18979e-16)
(1.00228 -0.00263865 -4.05428e-16)
(1.00297 -0.0022883 -8.01623e-17)
(1.00361 -0.00179502 3.95274e-16)
(1.00432 -0.00126904 -6.41355e-16)
(0.999271 -0.000116983 3.55321e-17)
(0.999318 -0.000731072 9.27155e-17)
(0.999465 -0.00133467 -3.34028e-16)
(0.999706 -0.00186932 4.62657e-16)
(1.00006 -0.0023253 -6.9566e-16)
(1.00052 -0.00265953 -6.94948e-16)
(1.00107 -0.00284833 2.64946e-16)
(1.00169 -0.00286916 9.31791e-16)
(1.00235 -0.00270654 -5.249e-16)
(1.00306 -0.00235111 2.11209e-16)
(1.00371 -0.00184952 -1.70576e-16)
(1.00443 -0.00131971 6.0079e-17)
(0.999231 -0.000112074 -6.05247e-18)
(0.999283 -0.000743268 2.00103e-16)
(0.999438 -0.00136301 2.66503e-16)
(0.99969 -0.00191216 -3.17238e-16)
(1.00006 -0.00238064 1.54343e-16)
(1.00053 -0.00272429 4.28099e-16)
(1.0011 -0.0029186 1.4397e-16)
(1.00174 -0.0029407 -9.65771e-17)
(1.00242 -0.0027755 7.35784e-16)
(1.00315 -0.002415 3.74391e-16)
(1.00381 -0.00190498 7.0384e-17)
(1.00453 -0.00137138 6.33889e-17)
(0.999189 -0.000107241 1.36066e-17)
(0.999247 -0.000755676 -2.23229e-16)
(0.999409 -0.00139186 -5.89751e-17)
(0.999672 -0.0019558 1.24242e-16)
(1.00006 -0.00243698 7.51133e-16)
(1.00055 -0.00279017 -3.85291e-16)
(1.00113 -0.00299008 -3.28271e-16)
(1.0018 -0.00301349 -7.46024e-17)
(1.00249 -0.00284569 -7.27751e-16)
(1.00323 -0.00248005 4.23115e-16)
(1.0039 -0.00196139 -5.88507e-17)
(1.00463 -0.00142397 3.77073e-16)
(0.999147 -0.000102553 -1.07966e-17)
(0.999209 -0.000768355 1.39774e-16)
(0.999379 -0.00142131 -9.64454e-17)
(0.999653 -0.00200036 3.61919e-16)
(1.00005 -0.00249449 -7.05646e-16)
(1.00056 -0.00285737 4.95821e-16)
(1.00117 -0.00306293 -4.82393e-17)
(1.00185 -0.00308765 -5.03949e-17)
(1.00256 -0.0029172 7.53032e-16)
(1.00332 -0.0025463 -2.90292e-16)
(1.004 -0.00201879 -2.37482e-16)
(1.00473 -0.00147721 -9.52382e-17)
(0.999105 -9.80663e-05 1.51974e-18)
(0.99917 -0.000781344 -2.60521e-17)
(0.999347 -0.00145138 1.17521e-16)
(0.999633 -0.00204589 -4.01438e-16)
(1.00005 -0.00255321 3.48396e-16)
(1.00057 -0.00292594 1.16579e-16)
(1.0012 -0.0031372 1.67906e-16)
(1.0019 -0.0031632 -8.76664e-16)
(1.00264 -0.00298998 -3.67808e-16)
(1.00341 -0.00261365 -1.32276e-15)
(1.0041 -0.00207717 -6.91173e-16)
(1.00484 -0.001531 -7.08629e-16)
(0.999061 -9.38436e-05 -1.97294e-17)
(0.99913 -0.000794686 1.80601e-17)
(0.999314 -0.0014821 -2.20224e-16)
(0.999611 -0.00209238 1.4478e-17)
(1.00004 -0.00261316 -8.85101e-17)
(1.00059 -0.00299587 5.26817e-18)
(1.00123 -0.00321287 3.10187e-16)
(1.00195 -0.0032401 1.1852e-15)
(1.00271 -0.00306399 1.03033e-16)
(1.00349 -0.00268204 8.25547e-16)
(1.0042 -0.00213635 -1.2108e-16)
(1.00494 -0.00158519 1.28604e-15)
(0.999017 -8.9933e-05 1.89825e-17)
(0.999089 -0.000808411 1.09652e-17)
(0.99928 -0.00151347 2.97619e-16)
(0.999588 -0.00213981 -1.74075e-16)
(1.00003 -0.00267426 -2.03835e-16)
(1.0006 -0.00306708 -2.35427e-16)
(1.00126 -0.00328984 -1.42804e-16)
(1.002 -0.00331824 -4.75213e-16)
(1.00277 -0.00313911 8.55262e-17)
(1.00358 -0.0027514 8.20233e-16)
(1.0043 -0.00219637 7.95825e-16)
(1.00505 -0.00163958 -1.14213e-15)
(0.998971 -8.63924e-05 -1.93802e-17)
(0.999046 -0.000822559 -2.3974e-16)
(0.999244 -0.00154549 -1.27629e-16)
(0.999564 -0.00218814 2.92343e-17)
(1.00003 -0.00273645 5.10992e-16)
(1.00061 -0.00313948 -4.05197e-16)
(1.00129 -0.00336802 -3.61623e-16)
(1.00205 -0.00339755 -4.47027e-16)
(1.00284 -0.00321531 -5.35897e-16)
(1.00366 -0.00282171 -1.77221e-15)
(1.0044 -0.00225761 -5.92326e-16)
(1.00515 -0.00169437 5.7903e-16)
(0.998926 -8.32628e-05 9.69916e-18)
(0.999002 -0.000837154 2.00226e-16)
(0.999207 -0.00157816 6.03884e-17)
(0.999539 -0.00223733 3.72584e-16)
(1.00002 -0.00279966 -5.89798e-16)
(1.00062 -0.00321298 5.74937e-16)
(1.00132 -0.00344731 -6.85703e-18)
(1.0021 -0.00347794 1.05343e-15)
(1.00291 -0.00329254 3.80308e-16)
(1.00375 -0.00289293 2.31115e-15)
(1.00449 -0.00232014 3.29381e-16)
(1.00526 -0.00174942 5.39642e-16)
(0.998879 -8.05942e-05 -1.98027e-17)
(0.998957 -0.000852238 4.30124e-17)
(0.99917 -0.00161151 9.36766e-17)
(0.999513 -0.0022874 -1.45711e-16)
(1.00001 -0.00286386 5.03951e-16)
(1.00062 -0.00328753 -6.06591e-16)
(1.00135 -0.00352768 5.5382e-16)
(1.00215 -0.00355942 -1.42152e-16)
(1.00298 -0.00337081 2.32018e-16)
(1.00383 -0.00296509 -1.68542e-15)
(1.00459 -0.00238366 1.00086e-15)
(1.00536 -0.00180431 -1.20424e-15)
(0.998832 -7.8417e-05 2.12999e-17)
(0.998911 -0.000867834 -1.1907e-16)
(0.999131 -0.00164555 -1.73109e-16)
(0.999485 -0.00233832 -1.71149e-16)
(0.999994 -0.00292904 5.22049e-17)
(1.00063 -0.00336312 -1.59701e-16)
(1.00138 -0.00360911 -3.01663e-16)
(1.0022 -0.00364196 -6.69391e-16)
(1.00305 -0.00345013 -2.39733e-16)
(1.00392 -0.00303821 3.9391e-16)
(1.00469 -0.00244812 -9.83163e-16)
(1.00547 -0.00185885 6.96243e-16)
(0.998784 -7.67679e-05 5.13234e-17)
(0.998864 -0.000883979 1.44785e-17)
(0.999091 -0.00168032 -4.60658e-17)
(0.999457 -0.00239012 1.24375e-16)
(0.999982 -0.00299521 -6.88188e-16)
(1.00064 -0.00343976 1.16487e-16)
(1.0014 -0.00369163 5.04777e-16)
(1.00225 -0.00372559 -2.81787e-16)
(1.00312 -0.00353052 9.46531e-17)
(1.004 -0.00311226 -1.24e-16)
(1.00479 -0.00251365 2.24409e-16)
(1.00558 -0.00191333 -5.24649e-16)
(0.998736 -7.56621e-05 -3.35032e-17)
(0.998816 -0.000900691 7.35922e-17)
(0.99905 -0.00171582 -1.34663e-16)
(0.999428 -0.00244281 -8.06767e-17)
(0.999969 -0.00306237 5.11967e-16)
(1.00064 -0.00351746 2.11745e-16)
(1.00143 -0.00377523 -2.23492e-16)
(1.00229 -0.0038103 4.58404e-16)
(1.00318 -0.00361195 1.50885e-16)
(1.00409 -0.00318719 2.97629e-16)
(1.00489 -0.00258008 -3.06438e-16)
(1.00568 -0.00196761 -1.1019e-17)
(0.998686 -7.51196e-05 -5.13092e-17)
(0.998767 -0.000917996 -2.67096e-17)
(0.999009 -0.00175207 1.3882e-16)
(0.999398 -0.00249639 1.22713e-16)
(0.999955 -0.00313053 1.59611e-16)
(1.00065 -0.00359621 4.31726e-16)
(1.00146 -0.00385991 -1.9373e-16)
(1.00234 -0.00389607 -8.63929e-17)
(1.00325 -0.00369436 -1.83058e-16)
(1.00417 -0.00326292 -6.69204e-18)
(1.00498 -0.00264711 6.63075e-18)
(1.00579 -0.00202128 3.84041e-16)
(0.998636 -7.51374e-05 8.63209e-17)
(0.998717 -0.000935905 -1.3999e-17)
(0.998966 -0.00178908 1.60467e-16)
(0.999367 -0.00255084 -7.33124e-17)
(0.999941 -0.00319965 -1.40524e-16)
(1.00065 -0.00367598 -5.68397e-16)
(1.00148 -0.0039456 -3.44198e-16)
(1.00239 -0.00398283 2.24093e-16)
(1.00332 -0.00377767 3.52869e-17)
(1.00426 -0.00333936 5.36301e-17)
(1.00508 -0.00271449 8.29299e-17)
(1.0059 -0.00207458 3.43257e-17)
(0.998586 -7.57179e-05 -8.60973e-17)
(0.998666 -0.000954439 1.31764e-16)
(0.998922 -0.00182683 -2.3625e-16)
(0.999335 -0.00260614 1.6258e-16)
(0.999925 -0.00326969 -3.77267e-18)
(1.00066 -0.0037567 3.85877e-16)
(1.00151 -0.00403225 3.35924e-16)
(1.00243 -0.0040705 -2.24311e-16)
(1.00338 -0.0038618 3.68936e-16)
(1.00434 -0.00341644 -2.3901e-16)
(1.00518 -0.00278199 7.13221e-16)
(1.00601 -0.00212749 7.18933e-16)
(0.998535 -7.68411e-05 6.59809e-17)
(0.998614 -0.000973601 -9.53813e-17)
(0.998877 -0.00186531 -4.00825e-17)
(0.999302 -0.00266225 1.21027e-16)
(0.999908 -0.00334059 -1.51914e-16)
(1.00066 -0.00383831 -2.3628e-16)
(1.00153 -0.00411977 3.60854e-16)
(1.00248 -0.00415899 -2.11318e-16)
(1.00345 -0.00394667 -4.49242e-16)
(1.00442 -0.0034941 2.4155e-16)
(1.00528 -0.00284962 -4.09378e-16)
(1.00612 -0.00218051 -5.63235e-16)
(0.998482 -7.84948e-05 2.74309e-17)
(0.998561 -0.00099341 -1.0144e-16)
(0.998832 -0.00190453 4.14566e-16)
(0.999269 -0.00271914 -2.02624e-16)
(0.999891 -0.00341231 8.28102e-17)
(1.00066 -0.00392074 -1.92096e-16)
(1.00155 -0.00420809 -4.74229e-16)
(1.00253 -0.00424825 4.11844e-16)
(1.00352 -0.00403224 4.74469e-16)
(1.00451 -0.00357236 -5.98602e-16)
(1.00538 -0.00291741 -2.33379e-16)
(1.00622 -0.00223419 -1.76576e-16)
(0.998429 -8.06459e-05 -7.86246e-17)
(0.998507 -0.00101386 3.06371e-17)
(0.998785 -0.00194448 -1.87646e-16)
(0.999234 -0.00277678 2.56778e-17)
(0.999873 -0.0034848 1.14294e-16)
(1.00066 -0.00400395 4.66706e-16)
(1.00158 -0.00429719 5.0473e-18)
(1.00257 -0.00433827 -2.43651e-17)
(1.00358 -0.00411855 -6.52406e-16)
(1.00459 -0.00365128 9.57183e-17)
(1.00548 -0.00298553 -1.34659e-16)
(1.00633 -0.0022888 7.19853e-17)
(0.998375 -8.32713e-05 -1.26956e-17)
(0.998451 -0.00103498 -2.33732e-17)
(0.998737 -0.00198518 -2.73843e-16)
(0.999199 -0.0028352 -5.00437e-17)
(0.999854 -0.00355807 -1.79887e-16)
(1.00066 -0.00408794 -1.30168e-16)
(1.0016 -0.00438708 -1.32741e-16)
(1.00261 -0.00442909 1.63078e-16)
(1.00365 -0.00420568 1.83492e-16)
(1.00468 -0.003731 3.13788e-16)
(1.00558 -0.0030541 4.41845e-16)
(1.00644 -0.00234428 -2.27663e-16)
(0.998319 -8.63292e-05 3.07013e-17)
(0.998395 -0.00105674 1.59579e-17)
(0.998688 -0.00202662 2.61453e-16)
(0.999162 -0.00289439 -5.25332e-17)
(0.999835 -0.00363213 -9.69279e-17)
(1.00066 -0.00417274 -1.49361e-16)
(1.00162 -0.00447782 4.4293e-16)
(1.00266 -0.0045208 -2.96997e-16)
(1.00371 -0.00429374 1.04899e-16)
(1.00476 -0.00381164 4.087e-16)
(1.00568 -0.00312332 -2.59716e-16)
(1.00655 -0.00240092 -4.05072e-17)
(0.998263 -8.97896e-05 -4.19783e-17)
(0.998337 -0.00107916 4.3437e-17)
(0.998638 -0.00206883 8.91112e-17)
(0.999124 -0.00295441 1.89873e-16)
(0.999814 -0.00370706 3.42175e-16)
(1.00066 -0.00425845 -2.54704e-16)
(1.00164 -0.00456952 -1.68919e-16)
(1.0027 -0.00461354 1.78091e-17)
(1.00378 -0.00438286 -3.1135e-16)
(1.00485 -0.00389337 -4.47915e-16)
(1.00578 -0.00319339 5.96147e-16)
(1.00666 -0.00245899 2.489e-16)
(0.998205 -9.36048e-05 6.75636e-17)
(0.998278 -0.00110221 8.25569e-17)
(0.998587 -0.00211181 -8.46466e-17)
(0.999086 -0.00301528 -1.72182e-16)
(0.999792 -0.00378291 4.47847e-17)
(1.00066 -0.00434515 4.17037e-16)
(1.00166 -0.00466229 -2.9769e-16)
(1.00275 -0.00470742 -1.07532e-17)
(1.00385 -0.00447318 3.9734e-16)
(1.00493 -0.0039763 -3.89284e-16)
(1.00588 -0.00326457 -5.06216e-16)
(1.00677 -0.0025185 -1.29195e-16)
(0.998145 -9.77405e-05 8.35908e-18)
(0.998217 -0.00112588 8.45319e-18)
(0.998534 -0.00215557 -2.7852e-16)
(0.999045 -0.00307704 -2.27203e-16)
(0.999769 -0.00385975 -3.82307e-16)
(1.00066 -0.00443294 5.20729e-17)
(1.00168 -0.00475624 8.53797e-17)
(1.00279 -0.00480259 -5.94031e-17)
(1.00391 -0.00456483 -3.26413e-16)
(1.00501 -0.00406054 7.31125e-16)
(1.00598 -0.00333679 3.78263e-16)
(1.00689 -0.00257943 -1.16237e-16)
(0.998084 -0.000102145 -3.96875e-17)
(0.998156 -0.00115013 -7.73666e-17)
(0.99848 -0.0022001 3.71293e-16)
(0.999004 -0.0031397 3.38216e-16)
(0.999745 -0.00393762 -7.43775e-18)
(1.00066 -0.0045219 7.23752e-17)
(1.0017 -0.00485148 -1.1236e-16)
(1.00283 -0.00489914 8.25518e-17)
(1.00397 -0.00465788 3.47484e-16)
(1.0051 -0.00414614 -1.80525e-16)
(1.00608 -0.00341018 1.2847e-16)
(1.007 -0.0026413 2.15902e-16)
(0.998021 -0.000106783 -2.48341e-18)
(0.998092 -0.00117494 5.35304e-17)
(0.998424 -0.00224538 -1.62558e-16)
(0.998961 -0.00320327 -3.19662e-16)
(0.999719 -0.00401657 1.93604e-16)
(1.00065 -0.00461207 -4.44032e-16)
(1.00172 -0.00494806 1.31206e-16)
(1.00287 -0.00499712 -1.94839e-16)
(1.00404 -0.00475236 3.0801e-17)
(1.00518 -0.0042331 1.85157e-16)
(1.00618 -0.00348516 -1.59363e-16)
(1.00711 -0.00270423 -4.81128e-16)
(0.997956 -0.0001116 2.29422e-17)
(0.998028 -0.00120026 -1.48631e-16)
(0.998367 -0.00229138 1.66798e-16)
(0.998916 -0.00326773 2.80194e-16)
(0.999693 -0.00409658 -3.60397e-16)
(1.00064 -0.00470348 -3.05015e-17)
(1.00174 -0.00504601 2.19385e-16)
(1.00291 -0.00509655 -2.64753e-16)
(1.0041 -0.00484831 -3.20706e-16)
(1.00527 -0.00432141 9.06753e-17)
(1.00628 -0.00356179 -2.77659e-16)
(1.00723 -0.00276791 4.23748e-16)
(0.99789 -0.00011656 1.50767e-17)
(0.997962 -0.00122606 7.83368e-17)
(0.998308 -0.00233806 -7.73924e-17)
(0.99887 -0.00333306 2.36121e-16)
(0.999664 -0.00417766 1.75143e-16)
(1.00064 -0.00479614 1.47501e-16)
(1.00175 -0.00514534 -2.48069e-16)
(1.00295 -0.00519745 3.7801e-16)
(1.00417 -0.00494571 -3.3617e-18)
(1.00535 -0.00441105 -7.1885e-16)
(1.00639 -0.00363978 1.37355e-16)
(1.00734 -0.00283184 -2.66661e-17)
(0.997821 -0.000121611 -2.40342e-17)
(0.997894 -0.00125228 8.09236e-17)
(0.998248 -0.00238538 -2.69621e-16)
(0.998823 -0.00339922 -1.97819e-16)
(0.999634 -0.00425976 4.02713e-17)
(1.00063 -0.00489 1.551e-16)
(1.00177 -0.00524604 2.59118e-16)
(1.00299 -0.0052998 3.53595e-17)
(1.00423 -0.00504456 2.80085e-17)
(1.00544 -0.00450201 4.7867e-16)
(1.00649 -0.00371902 1.45508e-16)
(1.00746 -0.00289572 -2.3135e-16)
(0.997751 -0.000126721 -1.89978e-17)
(0.997825 -0.00127889 -2.24545e-17)
(0.998186 -0.0024333 2.85778e-16)
(0.998774 -0.00346618 4.56685e-18)
(0.999603 -0.00434287 2.46277e-16)
(1.00062 -0.00498506 -2.32185e-16)
(1.00178 -0.00534809 -1.51977e-16)
(1.00303 -0.00540358 -4.5144e-17)
(1.00429 -0.00514484 5.44062e-18)
(1.00552 -0.00459424 2.90773e-16)
(1.00659 -0.00379971 -4.52809e-16)
(1.00758 -0.00296006 -2.6601e-16)
(0.997679 -0.000131841 5.18049e-18)
(0.997754 -0.00130584 -7.88822e-17)
(0.998123 -0.00248178 -2.76443e-16)
(0.998724 -0.00353389 4.92914e-17)
(0.999571 -0.00442695 2.30288e-17)
(1.00061 -0.0050813 2.92699e-18)
(1.0018 -0.00545149 -8.03031e-17)
(1.00307 -0.00550881 3.49104e-16)
(1.00436 -0.00524656 3.82682e-16)
(1.00561 -0.00468776 -2.54418e-16)
(1.0067 -0.00388177 6.8591e-16)