/*--------------------------------*- C++ -*----------------------------------*\
  =========                 |
  \\      /  F ield         | OpenFOAM: The Open Source CFD Toolbox
   \\    /   O peration     | Website:  https://openfoam.org
    \\  /    A nd           | Version:  6.0
     \\/     M anipulation  |
\*---------------------------------------------------------------------------*/
FoamFile
{
    version     2.0;
    format      ascii;
    class       volVectorField;
    location    "2.4";
    object      U;
}
// * * * * * * * * * * * * * * * * * * * * * * * * * * * * * * * * * * * * * //

dimensions      [0 1 -1 0 0 0 0];

internalField   nonuniform List<vector> 
34500
(
(0.999997 2.74682e-06 -4.63311e-17)
(0.999971 -9.8234e-06 -8.13451e-18)
(0.999923 -3.39044e-05 1.4219e-16)
(0.999861 -7.41718e-05 -1.07628e-16)
(0.999792 -0.000134086 3.35372e-17)
(0.999727 -0.000212682 -1.01428e-16)
(0.999676 -0.000306267 -1.00946e-16)
(0.999646 -0.000406977 8.64833e-17)
(0.99964 -0.000506954 1.07201e-16)
(0.999662 -0.000596112 -6.82625e-16)
(0.999708 -0.000666046 -1.03936e-15)
(0.999772 -0.000717014 1.26632e-16)
(0.999848 -0.000730977 4.3325e-16)
(0.99998 -0.000778543 -2.0667e-16)
(0.998972 -0.00124616 7.57629e-17)
(0.999993 9.32881e-06 3.24469e-17)
(0.999947 -1.88447e-05 9.76235e-17)
(0.999863 -6.80948e-05 7.17377e-17)
(0.999753 -0.000146323 -3.02095e-16)
(0.999634 -0.000259385 -5.05671e-16)
(0.999523 -0.000404996 -5.50119e-17)
(0.999437 -0.000576002 2.55387e-16)
(0.99939 -0.000757995 -6.76884e-16)
(0.99939 -0.000935127 -1.7851e-16)
(0.999439 -0.00108906 6.80868e-16)
(0.999532 -0.00120253 1.26078e-15)
(0.999658 -0.00127628 -6.28213e-16)
(0.999792 -0.00127333 -9.82235e-16)
(1.0001 -0.00128822 -3.93571e-16)
(0.999059 -0.00166151 5.17255e-16)
(0.999991 1.65921e-05 1.04676e-17)
(0.999951 -2.26321e-05 -1.229e-16)
(0.999882 -8.0583e-05 -1.25134e-16)
(0.999793 -0.000162153 4.55495e-16)
(0.999698 -0.00027193 -2.85988e-17)
(0.999612 -0.000407083 -1.63927e-16)
(0.99955 -0.000561242 9.77582e-17)
(0.999523 -0.000721685 3.8433e-16)
(0.999537 -0.000873439 2.43829e-19)
(0.999594 -0.000999989 -3.92563e-16)
(0.999689 -0.0010842 -7.2711e-16)
(0.999815 -0.00112823 4.12996e-16)
(0.999922 -0.00109951 2.24303e-16)
(1.00025 -0.00106398 1.63933e-16)
(0.999627 -0.00111446 -2.42983e-16)
(0.999987 2.39189e-05 -1.73547e-17)
(0.999956 -2.72954e-05 -9.02246e-18)
(0.999903 -9.43932e-05 4.83081e-17)
(0.999837 -0.000179033 -3.05266e-16)
(0.999769 -0.000284378 3.72042e-16)
(0.999711 -0.000407386 3.29738e-16)
(0.999673 -0.000542847 -3.99203e-16)
(0.999664 -0.000680668 -4.19582e-16)
(0.999689 -0.000807948 4.3458e-16)
(0.999749 -0.00091147 -4.6999e-16)
(0.999839 -0.000975918 -2.44086e-16)
(0.999959 -0.00100577 -3.84656e-16)
(1.00004 -0.000979373 5.41032e-16)
(1.00033 -0.000937267 -4.78665e-17)
(0.999929 -0.000967484 2.13667e-17)
(0.999983 3.15408e-05 -1.70436e-17)
(0.999952 -3.32732e-05 1.53295e-16)
(0.999904 -0.000114004 6.95364e-17)
(0.999845 -0.00021072 1.69688e-16)
(0.999785 -0.00032587 4.67222e-17)
(0.999736 -0.000456095 -1.58149e-16)
(0.999708 -0.000595977 1.02454e-16)
(0.999709 -0.000736282 2.66095e-16)
(0.999742 -0.000864132 -4.17299e-16)
(0.99981 -0.000967974 -2.30722e-16)
(0.999905 -0.00103259 1.00517e-15)
(1.00003 -0.00106346 6.33124e-16)
(1.00011 -0.00104571 -2.89011e-16)
(1.00036 -0.00100121 5.90569e-16)
(1.00008 -0.00103376 -5.85256e-16)
(0.999976 3.97001e-05 1.8352e-17)
(0.999944 -3.91631e-05 -9.47976e-17)
(0.999897 -0.000134737 -1.86292e-16)
(0.999839 -0.000246164 -5.29169e-17)
(0.999782 -0.000375371 1.09379e-16)
(0.999738 -0.000518609 -1.0878e-16)
(0.999717 -0.000669554 1.48077e-16)
(0.999726 -0.000818779 1.3109e-16)
(0.999769 -0.00095261 2.9076e-16)
(0.999847 -0.00106033 -1.00147e-16)
(0.999952 -0.00112632 2.87167e-18)
(1.00009 -0.00115533 -3.88618e-16)
(1.00017 -0.00113648 1.82737e-17)
(1.0004 -0.00107596 -4.67615e-16)
(1.00022 -0.00104338 7.39081e-17)
(0.999968 4.84003e-05 3.25546e-18)
(0.999937 -4.44888e-05 -3.5583e-17)
(0.999891 -0.0001542 -2.90124e-17)
(0.999838 -0.000278917 1.75679e-16)
(0.999786 -0.000420028 -2.20357e-16)
(0.999749 -0.000573552 2.75308e-16)
(0.999738 -0.000732346 -6.18864e-16)
(0.999757 -0.000886654 -3.69587e-16)
(0.999811 -0.00102224 -1.51473e-16)
(0.9999 -0.00112923 6.70696e-16)
(1.00001 -0.00119223 -7.6739e-16)
(1.00016 -0.00121462 2.97621e-16)
(1.00026 -0.00118935 4.55297e-16)
(1.00046 -0.00110986 -9.56288e-17)
(1.00034 -0.00101539 -1.20345e-16)
(0.999959 5.76026e-05 1.51163e-17)
(0.999928 -4.94424e-05 3.2282e-17)
(0.999887 -0.000172859 2.50223e-17)
(0.999839 -0.000309915 -1.50814e-16)
(0.999796 -0.000461492 3.28727e-16)
(0.999768 -0.000623601 -1.39521e-16)
(0.999766 -0.000788517 2.01424e-16)
(0.999796 -0.000946106 -1.46176e-16)
(0.999861 -0.00108176 3.97273e-16)
(0.999959 -0.00118627 1.77598e-16)
(1.00008 -0.00124486 2.445e-16)
(1.00024 -0.00125938 -5.64393e-17)
(1.00035 -0.00122645 -5.03722e-16)
(1.00053 -0.00113017 1.13587e-15)
(1.00047 -0.000993456 1.85955e-16)
(0.999949 6.72986e-05 -1.12158e-17)
(0.999918 -5.41559e-05 9.89394e-17)
(0.999881 -0.000191344 1.50759e-16)
(0.99984 -0.000340757 1.11879e-16)
(0.999804 -0.000502801 -4.88463e-16)
(0.999785 -0.000673569 1.40897e-16)
(0.999793 -0.000844904 3.20537e-16)
(0.999834 -0.00100618 7.72014e-16)
(0.999909 -0.00114235 -3.8514e-16)
(1.00002 -0.00124443 8.99735e-17)
(1.00015 -0.00129823 4.48643e-16)
(1.00032 -0.00130397 -3.23352e-16)
(1.00044 -0.00126136 -1.53792e-16)
(1.00061 -0.00114834 -3.80096e-16)
(1.0006 -0.000975799 8.37801e-17)
(0.999937 7.74937e-05 4.06846e-17)
(0.999907 -5.859e-05 -8.97219e-17)
(0.999873 -0.000209639 8.85026e-18)
(0.999839 -0.000371474 -1.10141e-16)
(0.999811 -0.000543954 4.10467e-16)
(0.999802 -0.000723222 7.95731e-17)
(0.99982 -0.000900767 2.701e-16)
(0.999871 -0.0010655 -5.72752e-16)
(0.999958 -0.00120196 4.15622e-17)
(1.00008 -0.00130107 -7.86291e-17)
(1.00022 -0.00134916 -1.39553e-16)
(1.0004 -0.00134494 4.40858e-17)
(1.00053 -0.00129091 5.91432e-16)
(1.00069 -0.00116177 -8.02888e-16)
(1.00072 -0.000960304 -2.68602e-16)
(0.999923 8.81593e-05 -2.62211e-17)
(0.999895 -6.27114e-05 3.52439e-17)
(0.999864 -0.000227636 -1.47489e-16)
(0.999837 -0.000401782 2.49867e-16)
(0.999819 -0.000584364 -3.6143e-16)
(0.99982 -0.000771435 -3.02945e-16)
(0.999849 -0.000954224 -3.38695e-16)
(0.999912 -0.00112137 3.90969e-17)
(1.00001 -0.00125719 -8.13643e-17)
(1.00014 -0.00135255 -4.24219e-16)
(1.00029 -0.00139438 -7.20556e-16)
(1.00048 -0.00138017 2.85543e-16)
(1.00062 -0.0013153 -3.27955e-16)
(1.00078 -0.00117337 9.05532e-16)
(1.00084 -0.000953195 5.35788e-17)
(0.999909 9.92509e-05 -2.45528e-17)
(0.999881 -6.6543e-05 -1.04215e-16)
(0.999855 -0.000245392 1.50699e-16)
(0.999834 -0.000431853 -2.34086e-16)
(0.999826 -0.000624393 7.68435e-17)
(0.999838 -0.000818821 4.54008e-16)
(0.99988 -0.00100613 5.537e-17)
(0.999954 -0.00117492 -6.73145e-17)
(1.00006 -0.00130957 1.81452e-16)
(1.0002 -0.00140108 -1.56813e-16)
(1.00036 -0.00143716 -9.50045e-17)
(1.00056 -0.00141439 -6.67237e-17)
(1.00071 -0.00134075 -2.86802e-16)
(1.00087 -0.00119018 -6.20434e-16)
(1.00094 -0.000958514 1.23854e-17)
(0.999892 0.000110706 -2.17646e-18)
(0.999866 -7.01334e-05 1.40472e-16)
(0.999844 -0.000263062 -2.21464e-16)
(0.99983 -0.000462078 8.33829e-17)
(0.999831 -0.000664872 -9.35316e-17)
(0.999855 -0.00086683 -1.54702e-16)
(0.999909 -0.00105867 -3.88795e-17)
(0.999995 -0.00122908 3.64895e-16)
(1.00012 -0.00136278 -6.29958e-16)
(1.00027 -0.00145105 4.20052e-16)
(1.00044 -0.00148253 2.20375e-16)
(1.00064 -0.00145302 1.83927e-16)
(1.0008 -0.00137238 7.48698e-16)
(1.00097 -0.00121562 7.28986e-16)
(1.00104 -0.000974009 5.47199e-16)
(0.999874 0.000122462 8.30257e-18)
(0.999849 -7.3517e-05 5.28676e-17)
(0.999831 -0.000280722 1.76022e-16)
(0.999824 -0.000492679 5.57544e-17)
(0.999834 -0.000706308 1.70587e-16)
(0.999868 -0.000916431 1.67998e-16)
(0.999934 -0.00111339 -1.1843e-17)
(1.00003 -0.00128596 4.9276e-17)
(1.00016 -0.00141936 9.37314e-16)
(1.00033 -0.00150522 -1.13855e-16)
(1.00051 -0.00153316 5.41862e-16)
(1.00071 -0.00149815 -7.38509e-16)
(1.00089 -0.00141105 1.3684e-16)
(1.00106 -0.00124824 -1.34293e-15)
(1.00115 -0.000994716 -6.14941e-16)
(0.999855 0.000134447 9.93892e-18)
(0.999831 -7.67218e-05 -1.17661e-16)
(0.999816 -0.000298384 1.54756e-16)
(0.999815 -0.000523652 -2.24041e-16)
(0.999833 -0.000748722 1.56789e-16)
(0.999878 -0.000967763 2.07126e-17)
(0.999956 -0.00117063 1.94947e-16)
(1.00007 -0.00134611 -2.59905e-16)
(1.00021 -0.00147988 -8.38684e-16)
(1.00038 -0.00156396 2.4915e-16)
(1.00057 -0.00158886 -5.59888e-16)
(1.00079 -0.00154869 1.12746e-16)
(1.00098 -0.00145441 -4.89801e-16)
(1.00115 -0.00128405 2.6534e-16)
(1.00125 -0.00101568 -1.08239e-16)
(0.999834 0.000146589 3.32356e-17)
(0.999811 -7.97731e-05 7.18742e-17)
(0.999799 -0.000316004 -3.58873e-16)
(0.999804 -0.000554835 2.88303e-16)
(0.999831 -0.000791779 -2.7987e-16)
(0.999885 -0.00102034 -3.72844e-16)
(0.999974 -0.0012298 -3.82794e-16)
(1.0001 -0.0014088 3.37465e-16)
(1.00025 -0.00154344 7.18562e-16)
(1.00044 -0.00162599 1.62943e-16)
(1.00064 -0.00164771 9.4655e-17)
(1.00086 -0.0016019 7.00405e-17)
(1.00106 -0.00149901 -7.32281e-16)
(1.00125 -0.00131906 6.43155e-17)
(1.00136 -0.00103393 6.31145e-16)
(0.999812 0.00015881 -8.96521e-17)
(0.99979 -8.2708e-05 -9.23803e-17)
(0.999782 -0.000333548 3.4277e-17)
(0.999792 -0.000586025 -2.64265e-16)
(0.999826 -0.00083501 -1.79614e-17)
(0.999891 -0.00107336 4.81484e-16)
(0.99999 -0.00128976 5.50503e-17)
(1.00012 -0.00147262 3.0396e-16)
(1.00029 -0.00160829 -6.02595e-16)
(1.00049 -0.00168916 -3.09512e-16)
(1.0007 -0.00170712 4.4434e-16)
(1.00093 -0.00165473 -1.4896e-16)
(1.00114 -0.00154181 4.83259e-16)
(1.00134 -0.00135069 7.48546e-16)
(1.00148 -0.00104877 -5.96903e-17)
(0.999788 0.000171038 2.80859e-17)
(0.999768 -8.55695e-05 1.14734e-17)
(0.999762 -0.000350989 1.15593e-16)
(0.999778 -0.000617045 2.2581e-18)
(0.999821 -0.000877965 9.88302e-17)
(0.999895 -0.00112602 -2.89529e-16)
(1.00001 -0.00134934 5.98005e-16)
(1.00015 -0.00153601 -1.53418e-16)
(1.00033 -0.00167256 6.52173e-16)
(1.00054 -0.00175138 -3.41152e-16)
(1.00076 -0.00176486 -5.43142e-16)
(1.00101 -0.00170506 5.2413e-16)
(1.00123 -0.00158123 -8.83455e-16)
(1.00143 -0.00137847 -1.30067e-15)
(1.00159 -0.00106176 -3.28709e-16)
(0.999764 0.000183204 3.12707e-18)
(0.999744 -8.84139e-05 1.94949e-17)
(0.999742 -0.000368353 -3.12077e-17)
(0.999765 -0.000647826 1.5862e-16)
(0.999815 -0.000920393 1.08786e-16)
(0.9999 -0.00117781 -4.2656e-17)
(1.00002 -0.00140771 -3.60455e-16)
(1.00018 -0.00159789 -3.47453e-16)
(1.00037 -0.00173501 -2.34839e-16)
(1.0006 -0.00181138 4.32713e-16)
(1.00083 -0.00181987 3.35243e-16)
(1.00108 -0.00175229 -4.92812e-16)
(1.00132 -0.00161756 1.09441e-15)
(1.00153 -0.00140382 1.37049e-15)
(1.0017 -0.0010754 4.62423e-17)
(0.999738 0.000195251 3.57575e-17)
(0.999719 -9.12979e-05 -4.75891e-17)
(0.999721 -0.000385693 2.29381e-16)
(0.99975 -0.000678406 -4.56813e-17)
(0.99981 -0.00096229 -1.74339e-16)
(0.999905 -0.00122864 7.39062e-17)
(1.00004 -0.00146467 -1.29653e-16)
(1.00021 -0.00165799 2.93355e-16)
(1.00042 -0.0017954 7.71078e-17)
(1.00065 -0.00186913 5.38974e-17)
(1.0009 -0.00187252 -2.57105e-16)
(1.00116 -0.00179739 3.41224e-16)
(1.0014 -0.00165252 1.73867e-16)
(1.00162 -0.00142919 1.55255e-16)
(1.0018 -0.00109206 3.9277e-16)
(0.999711 0.000207131 -1.83824e-17)
(0.999693 -9.42793e-05 2.72421e-17)
(0.999699 -0.000403103 -3.71824e-16)
(0.999735 -0.000708941 -2.37871e-16)
(0.999804 -0.0010039 3.292e-16)
(0.99991 -0.00127886 -8.91162e-17)
(1.00006 -0.00152068 5.20534e-16)
(1.00024 -0.00171689 -1.41318e-16)
(1.00046 -0.00185449 -7.50719e-18)
(1.00071 -0.00192567 -1.49875e-16)
(1.00097 -0.00192428 3.84779e-16)
(1.00124 -0.00184231 -2.42478e-16)
(1.00149 -0.00168839 -7.96836e-16)
(1.00172 -0.00145688 -1.89544e-16)
(1.0019 -0.00111285 -4.48641e-16)
(0.999683 0.000218819 2.47455e-17)
(0.999666 -9.74007e-05 1.1255e-16)
(0.999676 -0.000420666 3.3513e-16)
(0.999718 -0.000739615 2.60077e-16)
(0.999797 -0.00104559 -3.20573e-17)
(0.999914 -0.00132904 -1.30214e-16)
(1.00007 -0.00157656 -5.76251e-16)
(1.00027 -0.00177566 -6.69933e-17)
(1.0005 -0.0019136 -3.42219e-16)
(1.00076 -0.0019826 1.10825e-16)
(1.00103 -0.001977 -7.05267e-16)
(1.00131 -0.00188901 3.40139e-16)
(1.00158 -0.00172703 1.14794e-15)
(1.00182 -0.00148818 -8.84435e-16)
(1.00201 -0.00113758 5.23017e-16)
(0.999653 0.000230299 -1.99534e-17)
(0.999637 -0.000100692 -1.58363e-16)
(0.999651 -0.000438454 -1.91803e-16)
(0.9997 -0.000770596 -9.56555e-17)
(0.999788 -0.00108769 -6.12576e-17)
(0.999917 -0.00137977 8.40924e-17)
(1.00009 -0.00163318 -3.21996e-17)
(1.0003 -0.00183542 -4.4224e-16)
(1.00054 -0.00197406 -1.30152e-16)
(1.00082 -0.00204137 -3.27676e-17)
(1.0011 -0.00203212 6.41928e-16)
(1.00139 -0.00193877 1.07339e-16)
(1.00166 -0.00176918 -9.544e-16)
(1.00191 -0.00152304 5.061e-16)
(1.00211 -0.00116487 -1.01235e-16)
(0.999623 0.000241579 1.80245e-17)
(0.999607 -0.00010416 9.31123e-17)
(0.999625 -0.000456491 9.23149e-17)
(0.99968 -0.000801966 1.79518e-16)
(0.999777 -0.00113042 -9.78021e-17)
(0.999917 -0.00143143 -2.75073e-17)
(1.0001 -0.00169108 1.98732e-16)
(1.00033 -0.00189689 2.96936e-16)
(1.00058 -0.00203668 -2.13951e-17)
(1.00087 -0.00210274 -3.58406e-16)
(1.00116 -0.00209021 -2.75452e-16)
(1.00147 -0.00199173 -4.84075e-16)
(1.00175 -0.00181444 2.03015e-17)
(1.00201 -0.00156033 2.62054e-16)
(1.00221 -0.001193 -1.58263e-16)
(0.999592 0.000252675 -9.63759e-18)
(0.999575 -0.000107801 -5.51015e-17)
(0.999597 -0.000474773 1.40197e-16)
(0.999659 -0.000833726 1.47026e-17)
(0.999764 -0.00117379 -1.245e-16)
(0.999915 -0.00148409 1.00389e-16)
(1.00011 -0.00175043 -4.79511e-17)
(1.00035 -0.00196023 2.73782e-16)
(1.00062 -0.00210155 5.05804e-16)
(1.00092 -0.00216664 7.85391e-17)
(1.00123 -0.0021509 2.37703e-16)
(1.00154 -0.00204712 2.41879e-16)
(1.00183 -0.00186158 5.96812e-17)
(1.0021 -0.0015985 -5.39276e-16)
(1.00231 -0.00122052 1.30471e-16)
(0.999559 0.000263617 1.29096e-17)
(0.999542 -0.000111597 1.16053e-17)
(0.999567 -0.000493257 -2.86419e-16)
(0.999635 -0.000865794 -1.25117e-16)
(0.99975 -0.00121767 1.75893e-16)
(0.999911 -0.00153756 -2.74544e-17)
(1.00012 -0.00181093 1.83603e-16)
(1.00037 -0.00202508 -2.43837e-16)
(1.00065 -0.00216817 1.38983e-16)
(1.00097 -0.00223237 1.15576e-16)
(1.00129 -0.00221322 1.21971e-16)
(1.00161 -0.00210368 1.55159e-16)
(1.00192 -0.00190924 2.15578e-16)
(1.0022 -0.00163629 3.0318e-17)
(1.00242 -0.00124696 7.67472e-17)
(0.999525 0.000274438 -3.97197e-17)
(0.999508 -0.00011553 1.05093e-16)
(0.999536 -0.000511901 1.64456e-16)
(0.99961 -0.000898064 -1.05263e-16)
(0.999733 -0.00126186 -6.84276e-17)
(0.999906 -0.0015915 3.89436e-17)
(1.00013 -0.00187212 -2.0002e-16)
(1.00039 -0.00209079 -1.30865e-16)
(1.00069 -0.00223573 -1.71871e-16)
(1.00101 -0.00229895 2.73122e-16)
(1.00135 -0.00227608 -3.78818e-16)
(1.00169 -0.0021603 2.95786e-16)
(1.00201 -0.00195646 1.44791e-16)
(1.0023 -0.00167315 5.4141e-16)
(1.00253 -0.00127259 -4.94355e-16)
(0.99949 0.000285176 1.67602e-17)
(0.999472 -0.000119579 -7.9101e-17)
(0.999504 -0.000530659 5.79107e-17)
(0.999584 -0.000930439 1.28073e-16)
(0.999716 -0.00130617 -8.87844e-17)
(0.999899 -0.00164559 -1.50035e-16)
(1.00013 -0.00193352 -7.10296e-17)
(1.00041 -0.00215676 9.7875e-17)
(1.00072 -0.0023035 -4.47644e-16)
(1.00106 -0.00236558 6.60375e-17)
(1.00141 -0.00233872 2.51699e-16)
(1.00177 -0.0022164 -7.03226e-16)
(1.00209 -0.002003 1.41911e-16)
(1.00239 -0.00170934 2.17154e-17)
(1.00263 -0.00129815 3.64543e-16)
(0.999454 0.000295867 -6.37163e-18)
(0.999435 -0.00012373 9.69463e-17)
(0.99947 -0.000549519 -9.36548e-17)
(0.999556 -0.000962876 -5.8124e-17)
(0.999697 -0.0013505 -9.26937e-17)
(0.999892 -0.00169966 -4.90143e-17)
(1.00014 -0.00199488 -1.05674e-16)
(1.00043 -0.00222264 7.54386e-17)
(1.00076 -0.00237112 2.901e-17)
(1.00111 -0.00243197 -3.09922e-16)
(1.00148 -0.00240099 -3.6963e-16)
(1.00184 -0.00227206 4.09893e-16)
(1.00218 -0.00204928 -3.57585e-16)
(1.00249 -0.00174562 -1.13753e-16)
(1.00274 -0.00132461 -1.11655e-17)
(0.999416 0.00030655 -1.92802e-17)
(0.999396 -0.000127971 -4.47846e-17)
(0.999435 -0.000568474 3.16277e-17)
(0.999528 -0.000995384 2.25353e-16)
(0.999678 -0.00139486 3.76309e-16)
(0.999884 -0.00175373 3.0718e-16)
(1.00014 -0.00205618 3.35581e-16)
(1.00045 -0.00228845 -2.14064e-16)
(1.00079 -0.00243866 6.99883e-20)
(1.00116 -0.00249828 2.32096e-16)
(1.00154 -0.00246325 4.56928e-17)
(1.00192 -0.00232789 2.51859e-16)
(1.00227 -0.00209609 2.02272e-16)
(1.00259 -0.00178288 -5.29471e-16)
(1.00285 -0.00135257 -3.46713e-16)
(0.999376 0.000317257 9.91985e-18)
(0.999356 -0.000132293 -8.09439e-17)
(0.999399 -0.000587549 -1.61896e-16)
(0.999498 -0.00102803 -1.58902e-16)
(0.999657 -0.00143937 1.46026e-17)
(0.999875 -0.00180797 -1.73422e-16)
(1.00015 -0.00211771 -3.77552e-16)
(1.00047 -0.00235454 2.88136e-16)
(1.00083 -0.00250655 2.34309e-16)
(1.00121 -0.00256509 -5.1655e-16)
(1.0016 -0.00252619 4.23617e-16)
(1.00199 -0.00238468 -3.08702e-16)
(1.00236 -0.00214422 -1.42213e-16)
(1.00269 -0.00182175 -1.24231e-16)
(1.00295 -0.00138214 1.47714e-16)
(0.999335 0.00032802 3.77611e-17)
(0.999315 -0.000136682 1.73683e-17)
(0.999361 -0.00060676 8.7563e-17)
(0.999467 -0.00106088 4.06711e-17)
(0.999636 -0.0014842 4.78453e-17)
(0.999865 -0.00186265 2.9993e-16)
(1.00015 -0.0021798 -1.35504e-16)
(1.00049 -0.00242135 1.48049e-16)
(1.00086 -0.00257534 8.49917e-17)
(1.00126 -0.00263301 5.92214e-17)
(1.00167 -0.00259047 1.97236e-16)
(1.00207 -0.00244305 -4.20358e-17)
(1.00245 -0.00219412 9.33718e-18)
(1.00279 -0.00186236 8.66528e-16)
(1.00306 -0.00141299 2.74833e-18)
(0.999293 0.000338864 -3.66525e-17)
(0.999272 -0.000141126 -1.26577e-17)
(0.999322 -0.000626129 5.72479e-17)
(0.999434 -0.00109401 -1.74529e-16)
(0.999612 -0.00152949 -2.79522e-16)
(0.999853 -0.00191801 -2.67795e-16)
(1.00015 -0.00224282 2.26876e-16)
(1.0005 -0.00248933 -8.29671e-17)
(1.00089 -0.00264552 9.67275e-18)
(1.00131 -0.00270252 -5.009e-18)
(1.00173 -0.00265651 -2.72441e-16)
(1.00215 -0.00250324 -2.46128e-16)
(1.00253 -0.0022458 -1.58623e-16)
(1.00289 -0.00190444 2.40483e-17)
(1.00316 -0.00144454 -5.41118e-17)
(0.999249 0.000349812 -1.82981e-17)
(0.999228 -0.000145605 4.84242e-17)
(0.999281 -0.000645658 4.76385e-17)
(0.9994 -0.00112748 7.75166e-17)
(0.999587 -0.00157534 1.06015e-16)
(0.99984 -0.0019742 1.67514e-18)
(1.00015 -0.00230695 2.26773e-16)
(1.00052 -0.00255868 -5.05591e-16)
(1.00092 -0.00271729 2.57778e-16)
(1.00135 -0.00277377 2.62849e-16)
(1.00179 -0.00272432 -3.75937e-16)
(1.00222 -0.00256511 7.01826e-16)
(1.00262 -0.00229892 3.6923e-16)
(1.00299 -0.00194749 -6.87381e-16)
(1.00327 -0.00147629 -2.04047e-16)
(0.999203 0.000360881 3.78393e-17)
(0.999182 -0.000150102 2.93794e-17)
(0.999239 -0.000665347 4.58732e-18)
(0.999364 -0.00116128 -3.47492e-17)
(0.999561 -0.00162178 2.01555e-17)
(0.999825 -0.00203126 2.84352e-16)
(1.00015 -0.00237223 -4.5829e-17)
(1.00053 -0.00262943 3.24451e-16)
(1.00095 -0.00279061 -4.80032e-17)
(1.0014 -0.00284662 -2.90736e-16)
(1.00185 -0.00279366 6.01422e-16)
(1.0023 -0.00262829 -3.60794e-16)
(1.00271 -0.002353 -4.88151e-16)
(1.00308 -0.00199103 2.06156e-16)
(1.00337 -0.00150799 3.43894e-16)
(0.999155 0.000372083 -3.14666e-17)
(0.999135 -0.000154596 -1.32642e-17)
(0.999195 -0.000685175 -1.7295e-16)
(0.999327 -0.0011954 -8.4515e-17)
(0.999532 -0.00166876 5.20436e-17)
(0.999809 -0.00208911 -2.87062e-16)
(1.00015 -0.00243855 -8.4376e-17)
(1.00054 -0.00270138 2.82774e-16)
(1.00098 -0.00286522 -2.39109e-16)
(1.00144 -0.00292074 7.01068e-17)
(1.00191 -0.00286411 -3.34895e-16)
(1.00237 -0.0026923 1.05307e-17)
(1.0028 -0.00240764 2.64218e-16)
(1.00318 -0.00203477 1.38896e-16)
(1.00348 -0.00153964 -5.40061e-17)
(0.999106 0.000383421 3.00182e-17)
(0.999087 -0.000159076 -9.73865e-17)
(0.999149 -0.000705133 8.17423e-17)
(0.999288 -0.00122981 5.34958e-17)
(0.999503 -0.00171622 -4.03315e-17)
(0.999791 -0.00214765 -1.72432e-16)
(1.00015 -0.00250571 5.22755e-17)
(1.00056 -0.00277431 -1.29642e-16)
(1.00101 -0.00294083 -2.18548e-16)
(1.00149 -0.00299578 -2.73072e-17)
(1.00197 -0.00293533 -4.83965e-16)
(1.00245 -0.00275687 4.95097e-16)
(1.00289 -0.00246265 3.84592e-17)
(1.00328 -0.00207872 -7.92948e-17)
(1.00359 -0.00157148 -7.69762e-18)
(0.999055 0.000394899 -3.68185e-17)
(0.999036 -0.000163528 1.00253e-16)
(0.999103 -0.000725208 -2.30277e-17)
(0.999247 -0.00126449 -2.09753e-16)
(0.999472 -0.00176411 -9.99315e-17)
(0.999772 -0.00220675 1.16076e-16)
(1.00014 -0.00257357 -1.70301e-16)
(1.00057 -0.00284799 -1.90735e-16)
(1.00104 -0.00301719 3.24542e-16)
(1.00153 -0.00307153 1.12906e-16)
(1.00203 -0.00300716 5.07814e-16)
(1.00252 -0.00282194 -3.81804e-16)
(1.00298 -0.00251812 1.37118e-16)
(1.00338 -0.00212314 -1.54248e-16)
(1.0037 -0.00160387 5.1317e-18)
(0.999002 0.000406512 2.27886e-17)
(0.998985 -0.000167954 -5.80146e-17)
(0.999054 -0.000745406 7.20574e-17)
(0.999205 -0.00129943 3.12528e-16)
(0.999439 -0.00181239 1.32613e-16)
(0.999752 -0.00226638 8.22644e-17)
(1.00014 -0.00264204 3.38255e-16)
(1.00058 -0.00292235 1.60724e-16)
(1.00106 -0.00309425 -2.64678e-16)
(1.00158 -0.00314795 4.50885e-16)
(1.00209 -0.00307966 2.50673e-16)
(1.0026 -0.00288768 -2.12079e-16)
(1.00306 -0.00257434 -4.05428e-16)
(1.00348 -0.00216834 -1.57409e-16)
(1.0038 -0.00163707 6.06407e-17)
(0.998948 0.000418258 4.67914e-18)
(0.998931 -0.000172355 -1.236e-16)
(0.999004 -0.000765736 -9.17179e-17)
(0.999162 -0.00133466 -2.15192e-16)
(0.999406 -0.0018611 3.45632e-17)
(0.999731 -0.00232655 -3.34075e-16)
(1.00013 -0.00271116 -3.59107e-16)
(1.00059 -0.00299742 -1.44428e-16)
(1.00109 -0.00317208 3.07634e-16)
(1.00162 -0.00322522 -3.26705e-16)
(1.00215 -0.00315305 1.15487e-16)
(1.00267 -0.00295438 2.14616e-16)
(1.00315 -0.00263158 3.25633e-16)
(1.00358 -0.0022146 1.98546e-16)
(1.00391 -0.00167122 1.68228e-17)
(0.998893 0.000430126 3.289e-17)
(0.998877 -0.000176744 2.02013e-16)
(0.998953 -0.000786227 9.40122e-17)
(0.999118 -0.00137021 1.80653e-16)
(0.999371 -0.0019103 1.08229e-16)
(0.999708 -0.00238735 4.56222e-17)
(1.00012 -0.00278104 5.26198e-17)
(1.0006 -0.00307338 -1.20877e-16)
(1.00112 -0.0032509 -1.22555e-16)
(1.00166 -0.00330356 1.43588e-17)
(1.00221 -0.00322761 -7.89154e-16)
(1.00275 -0.00302231 -3.08093e-16)
(1.00324 -0.0026901 3.23788e-16)
(1.00369 -0.00226203 -7.21504e-17)
(1.00402 -0.00170622 -1.994e-16)
(0.998836 0.000442112 -4.42059e-17)
(0.99882 -0.000181132 -1.29455e-16)
(0.9989 -0.000806904 -1.85901e-16)
(0.999072 -0.00140614 6.10659e-17)
(0.999335 -0.00196006 -2.05332e-16)
(0.999685 -0.00244889 3.82455e-17)
(1.00011 -0.00285182 -4.73318e-17)
(1.0006 -0.00315041 -8.63803e-18)
(1.00114 -0.00333092 -1.46444e-16)
(1.00171 -0.00338322 -7.67689e-17)
(1.00227 -0.00330357 2.71802e-17)
(1.00283 -0.00309166 2.67561e-16)
(1.00333 -0.00274997 -1.34785e-16)
(1.00379 -0.00231061 2.65862e-16)
(1.00413 -0.00174192 9.37677e-17)
(0.998778 0.000454208 2.36265e-17)
(0.998762 -0.000185539 1.24016e-16)
(0.998846 -0.000827802 2.36182e-16)
(0.999024 -0.0014425 -6.82375e-17)
(0.999297 -0.00201046 -1.65537e-17)
(0.99966 -0.00251129 2.50614e-16)
(1.0001 -0.00292367 2.13072e-16)
(1.00061 -0.00322866 -1.45972e-16)
(1.00117 -0.00341231 3.91e-16)
(1.00175 -0.00346435 3.54646e-16)
(1.00233 -0.00338104 3.77008e-16)
(1.0029 -0.00316246 -1.74031e-17)
(1.00342 -0.00281113 -2.98799e-16)
(1.00389 -0.00236018 -3.1356e-16)
(1.00424 -0.00177815 -3.0154e-17)
(0.998718 0.000466411 -2.02452e-17)
(0.998703 -0.00018998 -6.549e-17)
(0.99879 -0.000848944 -1.95758e-16)
(0.998975 -0.00147933 1.25971e-16)
(0.999258 -0.00206157 1.20861e-16)
(0.999634 -0.00257462 -1.67801e-16)
(1.00009 -0.00299664 -8.47026e-17)
(1.00062 -0.00330822 8.37407e-18)
(1.00119 -0.00349513 -1.7377e-16)
(1.00179 -0.00354697 -3.03863e-16)
(1.00239 -0.00345998 -5.60503e-16)
(1.00298 -0.0032346 6.05105e-17)
(1.00351 -0.00287343 3.64809e-16)
(1.00399 -0.00241056 3.30047e-16)
(1.00434 -0.0018148 -6.9283e-17)
(0.998657 0.000478712 -1.61105e-17)
(0.998641 -0.000194478 -1.31733e-17)
(0.998732 -0.000870359 1.71307e-16)
(0.998924 -0.00151666 -1.61619e-16)
(0.999217 -0.00211341 -3.1934e-16)
(0.999606 -0.00263892 1.54959e-16)
(1.00008 -0.00307078 8.79212e-17)
(1.00062 -0.00338911 4.07064e-16)
(1.00121 -0.00357938 5.81898e-17)
(1.00183 -0.00363104 2.82926e-16)
(1.00245 -0.00354029 8.39902e-16)
(1.00305 -0.00330796 -2.30336e-16)
(1.0036 -0.00293673 -9.77095e-17)
(1.00409 -0.00246165 -1.15241e-17)
(1.00445 -0.00185182 -2.7593e-17)
(0.998595 0.000491108 4.5056e-17)
(0.998579 -0.000199048 4.92165e-17)
(0.998673 -0.000892062 -1.47332e-16)
(0.998871 -0.0015545 1.36852e-16)
(0.999174 -0.002166 -9.21013e-17)
(0.999576 -0.00270417 -2.96488e-16)
(1.00006 -0.00314607 1.30274e-17)
(1.00062 -0.00347127 -3.50135e-17)
(1.00123 -0.00366496 -2.15812e-16)
(1.00187 -0.00371644 1.81875e-16)
(1.00251 -0.00362187 -7.83985e-16)
(1.00313 -0.00338242 -1.42631e-17)
(1.00369 -0.00300095 -1.7453e-16)
(1.00419 -0.00251345 3.25705e-17)
(1.00456 -0.00188934 -8.17399e-17)
(0.998531 0.000503591 -1.14974e-17)
(0.998514 -0.000203714 -1.17269e-17)
(0.998612 -0.000914075 2.03869e-17)
(0.998817 -0.00159288 -1.52185e-16)
(0.99913 -0.00221934 -2.73192e-17)
(0.999545 -0.00277037 3.62024e-16)
(1.00005 -0.00322246 -2.63806e-16)
(1.00063 -0.00355466 -3.267e-16)
(1.00125 -0.00375183 3.4975e-16)
(1.00191 -0.00380312 -3.16373e-16)
(1.00257 -0.00370465 4.00294e-16)
(1.0032 -0.00345798 3.7856e-16)
(1.00378 -0.00306614 2.72504e-16)
(1.0043 -0.00256605 -1.81166e-16)
(1.00467 -0.00192749 -6.16091e-17)
(0.998466 0.000516157 -1.23995e-17)
(0.998448 -0.000208495 -7.19559e-17)
(0.998549 -0.000936411 -9.68829e-17)
(0.998761 -0.00163179 7.10991e-17)
(0.999084 -0.00227342 1.80178e-16)
(0.999513 -0.00283751 6.31901e-17)
(1.00003 -0.00329994 2.4517e-16)
(1.00063 -0.00363923 5.35796e-17)
(1.00127 -0.00383994 -4.59843e-16)
(1.00195 -0.00389104 1.60876e-16)
(1.00263 -0.00378864 -2.27344e-16)
(1.00328 -0.00353467 -1.8876e-16)
(1.00387 -0.00313237 -2.54108e-16)
(1.0044 -0.00261957 4.01212e-17)
(1.00479 -0.00196639 1.48798e-16)
(0.998399 0.000528793 -1.90321e-17)
(0.99838 -0.000213414 3.4273e-17)
(0.998484 -0.000959093 4.13741e-17)
(0.998703 -0.00167125 -1.42506e-16)
(0.999037 -0.00232827 6.9538e-17)
(0.999479 -0.00290558 -2.10961e-16)
(1.00002 -0.00337851 -2.58395e-17)
(1.00063 -0.00372501 3.172e-16)
(1.00129 -0.00392932 -2.02286e-16)
(1.00199 -0.00398027 -2.67346e-16)
(1.00268 -0.00387395 2.29566e-16)
(1.00335 -0.00361264 -6.81205e-17)
(1.00396 -0.00319981 -7.20028e-16)
(1.0045 -0.00267416 7.34052e-17)
(1.0049 -0.00200607 1.07038e-16)
(0.99833 0.000541493 -9.79618e-18)
(0.99831 -0.000218489 3.34302e-17)
(0.998418 -0.000982136 1.25934e-17)
(0.998644 -0.00171129 1.89967e-17)
(0.998988 -0.00238388 1.19999e-16)
(0.999444 -0.00297463 6.66729e-17)
(0.999996 -0.00345821 -2.19566e-16)
(1.00063 -0.00381206 -2.00474e-17)
(1.00131 -0.00402007 6.05886e-16)
(1.00203 -0.00407093 -1.94292e-16)
(1.00274 -0.00396069 -5.7117e-18)
(1.00343 -0.00369201 2.87182e-17)
(1.00405 -0.00326855 2.77196e-17)
(1.00461 -0.00272986 -5.08261e-17)
(1.00501 -0.00204654 1.68961e-17)
(0.99826 0.000554243 2.5815e-17)
(0.998239 -0.000223743 -6.81913e-17)
(0.99835 -0.00100557 -7.78833e-17)
(0.998583 -0.00175192 1.49542e-19)
(0.998938 -0.00244031 -1.81195e-16)
(0.999407 -0.00304469 -2.89323e-17)
(0.999976 -0.00353911 4.26336e-17)
(1.00063 -0.00390046 -4.827e-17)
(1.00133 -0.00411229 -4.10202e-16)
(1.00207 -0.00416313 5.46072e-16)
(1.0028 -0.004049 -3.11573e-17)
(1.0035 -0.00377289 -5.70343e-17)
(1.00414 -0.00333867 3.3602e-16)
(1.00471 -0.0027867 -3.76549e-16)
(1.00512 -0.00208772 7.93404e-18)
(0.998188 0.000567034 2.73907e-18)
(0.998166 -0.000229189 8.18061e-17)
(0.99828 -0.0010294 2.19831e-16)
(0.99852 -0.00179316 -5.54321e-17)
(0.998886 -0.00249759 1.17756e-16)
(0.999369 -0.00311581 -1.82963e-16)
(0.999954 -0.00362127 -2.19088e-16)
(1.00062 -0.0039903 5.26067e-18)
(1.00135 -0.00420607 2.38835e-16)
(1.0021 -0.00425696 -4.76611e-16)
(1.00286 -0.00413894 1.18693e-16)
(1.00358 -0.00385531 -2.06239e-17)
(1.00424 -0.00341013 2.59583e-16)
(1.00482 -0.00284458 8.01549e-17)
(1.00524 -0.00212952 -1.24571e-16)
(0.998114 0.00057985 1.05258e-18)
(0.998091 -0.000234848 -8.8787e-17)
(0.998209 -0.00105365 -1.25465e-16)
(0.998455 -0.00183505 2.07631e-17)
(0.998832 -0.00255574 -2.18772e-17)
(0.999329 -0.00318804 1.66079e-16)
(0.999931 -0.00370476 3.59711e-16)
(1.00062 -0.00408163 -3.19036e-16)
(1.00136 -0.00430148 3.62855e-16)
(1.00214 -0.00435247 3.2071e-17)
(1.00291 -0.00423052 7.11571e-17)
(1.00365 -0.00393924 -1.3739e-16)
(1.00433 -0.0034829 2.65134e-16)
(1.00492 -0.00290344 1.50148e-16)
(1.00535 -0.00217186 1.95689e-16)
(0.998038 0.000592685 -8.60852e-18)
(0.998015 -0.000240727 8.46937e-17)
(0.998135 -0.00107834 1.54536e-16)
(0.998389 -0.0018776 5.33875e-17)
(0.998776 -0.00261479 1.56138e-16)
(0.999288 -0.00326141 1.19903e-16)
(0.999907 -0.0037896 -3.23027e-16)
(1.00061 -0.00417449 6.47115e-16)
(1.00138 -0.00439852 -2.03533e-16)
(1.00218 -0.00444965 -6.76975e-17)
(1.00297 -0.00432372 -2.44984e-16)
(1.00373 -0.00402463 -1.07557e-16)
(1.00442 -0.00355688 -2.95065e-16)
(1.00503 -0.0029632 -1.08635e-16)
(1.00547 -0.00221473 4.7066e-17)
(0.99796 0.000605522 -3.05713e-17)
(0.997936 -0.00024684 -9.05731e-17)
(0.99806 -0.00110349 -1.08378e-17)
(0.998321 -0.00192083 1.06206e-16)
(0.998719 -0.00267477 -1.42096e-16)
(0.999245 -0.00333594 -1.04332e-16)
(0.999881 -0.0038758 4.04226e-16)
(1.00061 -0.00426889 -1.2072e-16)
(1.00139 -0.00449719 -5.15687e-16)
(1.00221 -0.00454847 7.09632e-17)
(1.00303 -0.00441849 -1.24386e-16)
(1.00381 -0.00411144 2.30069e-16)
(1.00451 -0.00363205 3.68354e-16)
(1.00514 -0.00302387 3.27893e-16)
(1.00558 -0.00225819 -2.74278e-16)
(0.99788 0.000618356 1.83345e-18)
(0.997856 -0.000253189 -1.74708e-17)
(0.997983 -0.0011291 -7.23126e-17)
(0.998251 -0.00196476 4.50703e-17)
(0.99866 -0.00273567 -7.87898e-17)
(0.9992 -0.00341163 1.34368e-16)
(0.999854 -0.00396337 -1.16154e-16)
(1.0006 -0.00436479 3.9856e-17)
(1.00141 -0.00459746 -1.08086e-16)
(1.00225 -0.0046489 2.74956e-16)
(1.00308 -0.0045148 3.36359e-16)
(1.00388 -0.00419963 1.94336e-18)
(1.00461 -0.00370841 -5.86244e-16)
(1.00525 -0.00308548 -3.98682e-16)
(1.0057 -0.00230232 2.71356e-16)