1.45 	0 	0 	-0.297281
2.35 	0 	0 	-0.13168
