1.45 	0 	0 	-0.00815073 	-0.00256863 	3.7818e-21
2.35 	0 	0 	0.0613317 	-0.00662879 	2.28346e-21
