1.45 	0 	0 	-0.290848
2.35 	0 	0 	-0.126729
