1.45 	0 	0 	-0.307311
2.35 	0 	0 	-0.12972
