1.45 	0 	0 	-0.307472
2.35 	0 	0 	-0.129126
