/*--------------------------------*- C++ -*----------------------------------*\
  =========                 |
  \\      /  F ield         | OpenFOAM: The Open Source CFD Toolbox
   \\    /   O peration     | Website:  https://openfoam.org
    \\  /    A nd           | Version:  6.0
     \\/     M anipulation  |
\*---------------------------------------------------------------------------*/
FoamFile
{
    version     2.0;
    format      ascii;
    class       surfaceScalarField;
    location    "42";
    object      phi;
}
// * * * * * * * * * * * * * * * * * * * * * * * * * * * * * * * * * * * * * //

dimensions      [0 3 -1 0 0 0 0];

internalField   nonuniform List<scalar> 
3880
(
-1.79763e-05
1.7977e-05
-6.69108e-10
-5.34947e-05
3.55198e-05
-1.43998e-09
-9.53877e-05
4.1895e-05
-1.88215e-09
-0.00013659
4.12048e-05
-2.10941e-09
-0.000172742
3.61542e-05
-2.20246e-09
-0.000201433
2.86923e-05
-2.22253e-09
-0.000221728
2.02975e-05
-2.21064e-09
-0.000233866
1.21406e-05
-2.20093e-09
-0.000239055
5.1908e-06
-2.231e-09
2.22675e-07
-2.33098e-09
-0.000239275
-1.72977e-05
3.52747e-05
-5.08459e-05
6.9068e-05
-8.96158e-05
8.06648e-05
-0.000126655
7.8244e-05
-0.000157644
6.71432e-05
-0.000180138
5.11865e-05
-0.000193118
3.3277e-05
-0.000196721
1.57437e-05
-0.0001921
5.69465e-07
-1.0608e-05
-0.000181269
-1.59052e-05
5.11798e-05
-4.54319e-05
9.85948e-05
-7.78686e-05
0.000113101
-0.000106532
0.000106907
-0.000127228
8.78396e-05
-0.000137482
6.14402e-05
-0.000136116
3.19109e-05
-0.000123061
2.68878e-06
-9.93322e-05
-2.31595e-05
-4.29434e-05
-6.69967e-05
-1.37115e-05
6.48914e-05
-3.69707e-05
0.000121854
-5.96374e-05
0.000135768
-7.55359e-05
0.000122806
-8.0773e-05
9.30768e-05
-7.29279e-05
5.35951e-05
-5.06499e-05
9.63292e-06
-1.3554e-05
-3.44071e-05
3.76137e-05
-7.43272e-05
-0.000106093
0.000100763
-1.05534e-05
7.54448e-05
-2.49447e-05
0.000136245
-3.39526e-05
0.000144776
-3.22489e-05
0.000121102
-1.65477e-05
7.73755e-05
1.52775e-05
2.17699e-05
6.46366e-05
-3.97262e-05
0.000132292
-0.000102063
0.000217965
-0.00016
-0.000207787
0.000319659
-6.17963e-06
8.16244e-05
-8.56531e-06
0.000138631
7.22729e-07
0.000135488
2.57496e-05
9.60752e-05
6.8742e-05
3.43831e-05
0.000131064
-4.05518e-05
0.000213799
-0.000122462
0.000317957
-0.000206221
0.00044396
-0.000286002
-0.000353904
0.000590077
-2.78344e-07
8.19028e-05
1.31428e-05
0.00012521
4.63808e-05
0.00010225
0.00010185
4.06062e-05
0.000180197
-4.39644e-05
0.00028131
-0.000141664
0.000405102
-0.000246254
0.000552131
-0.000353249
0.000723478
-0.00045735
-0.000548672
0.000918246
7.43408e-06
7.44687e-05
4.10622e-05
9.15815e-05
0.000104947
3.83654e-05
0.000199681
-5.41285e-05
0.000323974
-0.000168257
0.00047545
-0.00029314
0.000651495
-0.000422299
0.000850403
-0.000552158
0.00107264
-0.00067959
-0.000797611
0.00132158
1.70656e-05
5.74031e-05
7.55067e-05
3.31405e-05
0.000177312
-6.34398e-05
0.000321567
-0.000198384
0.000505324
-0.000352013
0.000723817
-0.000511633
0.000970772
-0.000669253
0.00123938
-0.000820761
0.00152587
-0.000966081
-0.00111591
0.00184417
2.83505e-05
2.90525e-05
0.000115561
-5.40702e-05
0.000261836
-0.000209715
0.000465774
-0.000402322
0.000724584
-0.000610823
0.0010338
-0.00082085
0.00138663
-0.00102208
0.00177227
-0.0012064
0.00217503
-0.00136884
-0.00151337
0.00257249
4.0475e-05
-1.14225e-05
0.000158375
-0.00017197
0.000352088
-0.000403429
0.000620352
-0.000670585
0.000962548
-0.00095302
0.00137937
-0.00123767
0.00187408
-0.00151679
0.00245576
-0.00178809
0.00314736
-0.00206044
-0.0023722
0.00400618
5.23593e-05
-6.37818e-05
0.000199954
-0.000319565
0.000438006
-0.00064148
0.000763002
-0.000995581
0.00117226
-0.00136228
0.00166392
-0.00172934
0.00223691
-0.00208978
0.00289038
-0.00244156
0.00361883
-0.00278888
-0.0031408
0.00438742
6.34849e-05
-0.000127267
0.000238251
-0.000494331
0.000514864
-0.000918092
0.000885314
-0.00136603
0.00134184
-0.00181881
0.00187631
-0.0022638
0.00247952
-0.00269299
0.00313969
-0.00310173
0.00383825
-0.00348744
-0.003844
0.00454145
7.38715e-05
-0.000201138
0.000272989
-0.000693448
0.000582121
-0.00122723
0.000987488
-0.0017714
0.00147522
-0.00230653
0.0020307
-0.00281929
0.00263816
-0.00330045
0.00327987
-0.00374344
0.00393458
-0.00414215
-0.00448538
0.00457596
8.36628e-05
-0.000284801
0.000304313
-0.000914099
0.000640048
-0.00156296
0.00107069
-0.00220204
0.00157622
-0.00281206
0.00213646
-0.00337953
0.00273121
-0.0038952
0.00334036
-0.00435259
0.0039438
-0.00474559
-0.00506327
0.00452169
9.28483e-05
-0.000377649
0.000331967
-0.00115322
0.000688072
-0.00191907
0.00113437
-0.00264834
0.00164514
-0.00332283
0.00219582
-0.00393021
0.00276372
-0.00446309
0.00332854
-0.00491742
0.00387285
-0.0052899
-0.00557324
0.00438282
0.000101184
-0.000478834
0.000355067
-0.0014071
0.000724484
-0.00228848
0.00117614
-0.00309999
0.00167935
-0.00382604
0.00220662
-0.00445748
0.00273444
-0.00499091
0.00324398
-0.00542695
0.00372141
-0.00576733
-0.00601043
0.0041586
0.000108242
-0.000587075
0.000372269
-0.00167113
0.000746863
-0.00266308
0.0011927
-0.00354583
0.00167529
-0.00430863
0.00216569
-0.00494788
0.00264125
-0.00546647
0.0030859
-0.0058716
0.00349006
-0.0061715
-0.00637124
0.00385087
0.000113496
-0.000700571
0.00038206
-0.00193969
0.000752695
-0.00303371
0.00118098
-0.00397412
0.00163007
-0.00475772
0.00207123
-0.00538904
0.00248414
-0.00587937
0.00285647
-0.00624394
0.00318316
-0.00649818
-0.00665405
0.00346596
0.000116416
-0.000816987
0.000383026
-0.0022063
0.000739894
-0.00339058
0.0011389
-0.00437313
0.00154253
-0.00516135
0.00192389
-0.0057704
0.00226619
-0.00622167
0.00256142
-0.00653917
0.00280887
-0.00674563
-0.00685929
0.00301411
0.000116537
-0.000933523
0.00037406
-0.00246382
0.000707144
-0.00372366
0.00106576
-0.00473175
0.00141354
-0.00550912
0.00172689
-0.00608375
0.00199335
-0.00648813
0.00220937
-0.00675519
0.00237812
-0.00691438
-0.00698916
0.00250799
0.000113457
-0.00104698
0.000354398
-0.00270477
0.000653935
-0.0040232
0.000962215
-0.00504003
0.00124578
-0.00579269
0.00148545
-0.00632342
0.00167351
-0.00667619
0.00181059
-0.00689227
0.00190303
-0.00700681
-0.00704716
0.00196103
0.000106917
-0.0011539
0.000323755
-0.0029216
0.000580683
-0.00428013
0.00083023
-0.00528958
0.00104342
-0.00600588
0.00120625
-0.00648625
0.0013157
-0.00678563
0.001376
-0.00695257
0.00139578
-0.0070266
-0.00703761
0.00138623
9.67702e-05
-0.00125067
0.000282254
-0.00310709
0.000488541
-0.00448642
0.000672709
-0.00547375
0.000811533
-0.0061447
0.000896519
-0.00657124
0.000928979
-0.00681809
0.000915972
-0.00693956
0.000867556
-0.00697819
-0.00696517
0.00079512
8.29982e-05
-0.00133367
0.00023041
-0.0032545
0.000379272
-0.00463528
0.000493176
-0.00558765
0.000555541
-0.00620707
0.000563389
-0.00657908
0.000521771
-0.00677648
0.000439696
-0.00685749
0.000327813
-0.0068663
-0.0068346
0.00019724
6.57185e-05
-0.00139938
0.00016911
-0.00335789
0.000255132
-0.0047213
0.000295518
-0.00562804
0.000280837
-0.00619239
0.000213369
-0.00651162
0.000101234
-0.00666434
-4.54421e-05
-0.00671081
-0.00021617
-0.00669558
-0.00665045
-0.000400312
4.52016e-05
-0.00144459
9.96132e-05
-0.0034123
0.000118828
-0.00474052
8.38886e-05
-0.0055931
-7.37067e-06
-0.00610113
-0.000147839
-0.00637115
-0.000326938
-0.00648524
-0.000534098
-0.00650365
-0.000759593
-0.00647008
-0.00641654
-0.00099351
2.18974e-05
-0.00146648
2.35908e-05
-0.003414
-2.64519e-05
-0.00469047
-0.000137249
-0.0054823
-0.000303969
-0.00593441
-0.000515216
-0.0061599
-0.000758422
-0.00624204
-0.00102295
-0.00623912
-0.00130036
-0.00619267
-0.00613332
-0.00158358
-3.52399e-06
-0.00146296
-5.68001e-05
-0.00336072
-0.000176919
-0.00457035
-0.000362962
-0.00529626
-0.000603851
-0.00569352
-0.000884696
-0.00587906
-0.00119127
-0.00593546
-0.00151273
-0.00591767
-0.00184204
-0.00586335
-0.00579383
-0.00218153
-3.01078e-05
-0.00143285
-0.000138738
-0.00325209
-0.000327728
-0.00438136
-0.000586879
-0.00503711
-0.000900372
-0.00538002
-0.0012516
-0.00552783
-0.00162603
-0.00556103
-0.00201327
-0.00553043
-0.00240934
-0.00546729
-0.00540647
-0.00279669
-5.66204e-05
-0.00137623
-0.000218705
-0.00309
-0.000472466
-0.0041276
-0.000799081
-0.00471049
-0.00117942
-0.00499968
-0.00159758
-0.00510967
-0.00204225
-0.00511636
-0.00250617
-0.00506652
-0.00298843
-0.00498502
-0.00486994
-0.00352497
-8.19862e-05
-0.00129424
-0.000293656
-0.00287833
-0.000605384
-0.00381588
-0.00098945
-0.00432643
-0.00142231
-0.00456682
-0.00188592
-0.00464606
-0.00236727
-0.004635
-0.0028574
-0.00457639
-0.00335011
-0.00449231
-0.00439084
-0.00382921
-0.000105567
-0.00118868
-0.00036221
-0.00262169
-0.000725122
-0.00345296
-0.0011583
-0.00389325
-0.00163423
-0.00409089
-0.00213319
-0.0041471
-0.00264174
-0.00412645
-0.0031509
-0.00406724
-0.00365346
-0.00398975
-0.00390446
-0.00413984
-0.00012702
-0.00106166
-0.00042378
-0.00232493
-0.000831571
-0.00304517
-0.00130721
-0.00341761
-0.00182015
-0.00357795
-0.00234994
-0.00361731
-0.00288351
-0.00359288
-0.00341269
-0.00353806
-0.00393191
-0.00347053
-0.00339976
-0.0044366
-0.000146081
-0.000915577
-0.000477931
-0.00199308
-0.000924551
-0.00259855
-0.00143676
-0.0029054
-0.0019818
-0.0030329
-0.00253907
-0.00306004
-0.00309627
-0.00303569
-0.00364639
-0.00298793
-0.00418547
-0.00293145
-0.00287403
-0.00471121
-0.000162504
-0.000753073
-0.000524206
-0.00163138
-0.00100363
-0.00211913
-0.00154671
-0.00236232
-0.00211914
-0.00246047
-0.00270043
-0.00247876
-0.00327912
-0.00245699
-0.00384931
-0.00241775
-0.00440816
-0.00237259
-0.00232762
-0.00495457
-0.000176039
-0.000577034
-0.000562094
-0.00124532
-0.00106815
-0.00161308
-0.00163633
-0.00179414
-0.00223122
-0.00186558
-0.00283257
-0.00187741
-0.00342968
-0.00185989
-0.00401747
-0.00182996
-0.00459391
-0.00179616
-0.00176296
-0.00515857
-0.000186443
-0.000390591
-0.000591077
-0.00084069
-0.00111738
-0.00108677
-0.00170467
-0.00120685
-0.00231679
-0.00125346
-0.0029337
-0.00126049
-0.00354531
-0.00124828
-0.00414715
-0.00122812
-0.00473767
-0.00120563
-0.00118375
-0.00531689
-0.000193509
-0.000197082
-0.000610691
-0.000423508
-0.00115064
-0.000546822
-0.00175082
-0.000606672
-0.0023746
-0.000629679
-0.00300215
-0.000632941
-0.00362375
-0.000626684
-0.00423532
-0.000616548
-0.00483563
-0.000605316
-0.000594448
-0.00542493
-0.000197082
-3.1329e-10
-0.000620589
-5.923e-10
-0.00116741
-7.49481e-10
-0.00177408
-8.51747e-10
-0.00240376
-9.32096e-10
-0.0030367
-1.00167e-09
-0.00366338
-1.0603e-09
-0.00427993
-1.10503e-09
-0.00488524
-1.13226e-09
-1.14285e-09
-0.00547969
-0.000197082
0.000197082
-0.000620589
0.000423507
-0.00116741
0.00054682
-0.00177408
0.00060667
-0.00240376
0.000629677
-0.0030367
0.000632939
-0.00366338
0.000626682
-0.00427993
0.000616546
-0.00488524
0.000605314
0.000594446
-0.00547969
-0.000193509
0.00039059
-0.000610691
0.000840689
-0.00115064
0.00108677
-0.00175082
0.00120685
-0.0023746
0.00125346
-0.00300215
0.00126049
-0.00362375
0.00124828
-0.00423532
0.00122812
-0.00483563
0.00120563
0.00118374
-0.00542493
-0.000186443
0.000577033
-0.000591077
0.00124532
-0.00111738
0.00161308
-0.00170467
0.00179414
-0.00231679
0.00186558
-0.0029337
0.00187741
-0.00354531
0.00185988
-0.00414715
0.00182995
-0.00473767
0.00179615
0.00176296
-0.00531689
-0.000176039
0.000753072
-0.000562094
0.00163138
-0.00106815
0.00211913
-0.00163633
0.00236232
-0.00223122
0.00246047
-0.00283257
0.00247875
-0.00342968
0.00245699
-0.00401747
0.00241775
-0.00459391
0.00237259
0.00232762
-0.00515857
-0.000162504
0.000915576
-0.000524206
0.00199308
-0.00100363
0.00259855
-0.00154671
0.0029054
-0.00211914
0.0030329
-0.00270043
0.00306004
-0.00327912
0.00303569
-0.00384931
0.00298793
-0.00440816
0.00293144
0.00287403
-0.00495457
-0.000146081
0.00106166
-0.000477931
0.00232493
-0.000924551
0.00304517
-0.00143676
0.00341761
-0.0019818
0.00357795
-0.00253907
0.00361731
-0.00309627
0.00359288
-0.00364639
0.00353806
-0.00418547
0.00347052
0.00339976
-0.00471121
-0.00012702
0.00118868
-0.00042378
0.00262169
-0.000831571
0.00345296
-0.00130721
0.00389325
-0.00182015
0.00409089
-0.00234994
0.0041471
-0.00288351
0.00412645
-0.00341269
0.00406724
-0.00393191
0.00398974
0.00390445
-0.0044366
-0.000105567
0.00129424
-0.00036221
0.00287833
-0.000725122
0.00381587
-0.0011583
0.00432642
-0.00163423
0.00456682
-0.00213319
0.00464606
-0.00264174
0.004635
-0.0031509
0.00457639
-0.00365346
0.00449231
0.00439084
-0.00413984
-8.19862e-05
0.00137623
-0.000293656
0.00309
-0.000605384
0.0041276
-0.00098945
0.00471049
-0.00142231
0.00499968
-0.00188592
0.00510967
-0.00236727
0.00511636
-0.0028574
0.00506651
-0.00335011
0.00498502
0.00486994
-0.00382921
-5.66204e-05
0.00143285
-0.000218705
0.00325209
-0.000472466
0.00438136
-0.000799081
0.0050371
-0.00117942
0.00538002
-0.00159758
0.00552782
-0.00204225
0.00556103
-0.00250617
0.00553043
-0.00298843
0.00546728
0.00540647
-0.00352497
-3.01078e-05
0.00146296
-0.000138738
0.00336072
-0.000327727
0.00457035
-0.000586879
0.00529626
-0.000900372
0.00569352
-0.0012516
0.00587905
-0.00162603
0.00593546
-0.00201327
0.00591766
-0.00240934
0.00586335
0.00579383
-0.00279669
-3.524e-06
0.00146648
-5.68001e-05
0.00341399
-0.000176919
0.00469047
-0.000362962
0.0054823
-0.000603851
0.00593441
-0.000884696
0.0061599
-0.00119127
0.00624203
-0.00151273
0.00623912
-0.00184204
0.00619267
0.00613332
-0.00218153
2.18974e-05
0.00144459
2.35908e-05
0.0034123
-2.64519e-05
0.00474051
-0.000137249
0.0055931
-0.000303968
0.00610113
-0.000515216
0.00637115
-0.000758422
0.00648524
-0.00102295
0.00650365
-0.00130036
0.00647008
0.00641654
-0.00158358
4.52016e-05
0.00139938
9.96132e-05
0.00335789
0.000118828
0.0047213
8.38887e-05
0.00562803
-7.37049e-06
0.00619238
-0.000147839
0.00651161
-0.000326938
0.00666434
-0.000534097
0.00671081
-0.000759593
0.00669557
0.00665045
-0.000993509
6.57185e-05
0.00133367
0.00016911
0.0032545
0.000255132
0.00463528
0.000295518
0.00558765
0.000280837
0.00620707
0.000213369
0.00657908
0.000101235
0.00677647
-4.54417e-05
0.00685749
-0.000216169
0.0068663
0.0068346
-0.000400312
8.29982e-05
0.00125067
0.00023041
0.00310709
0.000379272
0.00448642
0.000493176
0.00547374
0.000555541
0.0061447
0.000563389
0.00657124
0.000521771
0.00681809
0.000439697
0.00693956
0.000327814
0.00697818
0.00696517
0.00019724
9.67702e-05
0.0011539
0.000282254
0.0029216
0.000488541
0.00428013
0.000672709
0.00528958
0.000811533
0.00600588
0.00089652
0.00648625
0.00092898
0.00678563
0.000915973
0.00695257
0.000867557
0.0070266
0.0070376
0.000795121
0.000106917
0.00104698
0.000323755
0.00270476
0.000580683
0.0040232
0.000830231
0.00504003
0.00104342
0.00579268
0.00120625
0.00632342
0.0013157
0.00667619
0.001376
0.00689227
0.00139578
0.00700681
0.00704716
0.00138623
0.000113457
0.000933523
0.000354398
0.00246382
0.000653935
0.00372366
0.000962216
0.00473175
0.00124578
0.00550912
0.00148545
0.00608375
0.00167351
0.00648813
0.00181059
0.00675519
0.00190303
0.00691438
0.00698916
0.00196103
0.000116537
0.000816986
0.00037406
0.0022063
0.000707144
0.00339058
0.00106576
0.00437313
0.00141354
0.00516134
0.00172689
0.0057704
0.00199335
0.00622167
0.00220937
0.00653917
0.00237812
0.00674563
0.00685928
0.00250799
0.000116416
0.000700571
0.000383026
0.00193969
0.000739894
0.00303371
0.0011389
0.00397412
0.00154253
0.00475772
0.00192389
0.00538904
0.00226619
0.00587937
0.00256142
0.00624393
0.00280887
0.00649818
0.00665405
0.00301411
0.000113496
0.000587075
0.00038206
0.00167113
0.000752695
0.00266308
0.00118098
0.00354583
0.00163007
0.00430863
0.00207123
0.00494788
0.00248414
0.00546646
0.00285647
0.0058716
0.00318316
0.00617149
0.00637124
0.00346596
0.000108242
0.000478833
0.000372269
0.0014071
0.000746863
0.00228848
0.0011927
0.00309999
0.00167529
0.00382604
0.00216569
0.00445748
0.00264125
0.00499091
0.0030859
0.00542695
0.00349006
0.00576733
0.00601043
0.00385088
0.000101184
0.000377649
0.000355067
0.00115322
0.000724484
0.00191906
0.00117614
0.00264834
0.00167935
0.00332282
0.00220662
0.00393021
0.00273444
0.00446309
0.00324398
0.00491741
0.00372141
0.00528989
0.00557323
0.0041586
9.28482e-05
0.000284801
0.000331967
0.000914098
0.000688072
0.00156296
0.00113437
0.00220204
0.00164514
0.00281206
0.00219582
0.00337952
0.00276372
0.00389519
0.00332854
0.00435259
0.00387285
0.00474559
0.00506327
0.00438282
8.36627e-05
0.000201138
0.000304313
0.000693447
0.000640048
0.00122722
0.00107069
0.0017714
0.00157622
0.00230653
0.00213646
0.00281928
0.00273121
0.00330045
0.00334036
0.00374344
0.0039438
0.00414215
0.00448537
0.00452169
7.38715e-05
0.000127267
0.000272988
0.00049433
0.000582121
0.000918091
0.000987487
0.00136603
0.00147522
0.0018188
0.0020307
0.0022638
0.00263815
0.00269299
0.00327987
0.00310172
0.00393458
0.00348743
0.003844
0.00457596
6.34848e-05
6.37817e-05
0.000238251
0.000319565
0.000514863
0.000641479
0.000885313
0.00099558
0.00134184
0.00136228
0.00187631
0.00172933
0.00247952
0.00208977
0.00313969
0.00244155
0.00383825
0.00278888
0.00314079
0.00454145
5.23593e-05
1.14224e-05
0.000199954
0.00017197
0.000438005
0.000403428
0.000763001
0.000670584
0.00117226
0.000953018
0.00166392
0.00123767
0.00223691
0.00151678
0.00289038
0.00178808
0.00361882
0.00206043
0.0023722
0.00438742
4.04749e-05
-2.90524e-05
0.000158374
5.40702e-05
0.000352088
0.000209715
0.000620351
0.000402321
0.000962547
0.000610822
0.00137937
0.000820848
0.00187407
0.00102208
0.00245576
0.0012064
0.00314735
0.00136884
0.00151337
0.00400618
2.83504e-05
-5.74029e-05
0.000115561
-3.31402e-05
0.000261836
6.34398e-05
0.000465773
0.000198384
0.000724582
0.000352012
0.0010338
0.000511632
0.00138663
0.000669251
0.00177227
0.000820759
0.00217503
0.000966078
0.00111591
0.00257249
1.70655e-05
-7.44684e-05
7.55062e-05
-9.1581e-05
0.000177311
-3.83649e-05
0.000321566
5.41288e-05
0.000505322
0.000168256
0.000723814
0.00029314
0.000970768
0.000422298
0.00123937
0.000552156
0.00152586
0.000679588
0.000797609
0.00184416
7.43393e-06
-8.19023e-05
4.10617e-05
-0.000125209
0.000104946
-0.000102249
0.00019968
-4.06052e-05
0.000323971
4.3965e-05
0.000475446
0.000141664
0.00065149
0.000246254
0.000850398
0.000353249
0.00107264
0.000457349
0.000548671
0.00132157
-2.78502e-07
-8.16238e-05
1.31423e-05
-0.000138629
4.63797e-05
-0.000135486
0.000101848
-9.60736e-05
0.000180195
-3.43817e-05
0.000281306
4.0553e-05
0.000405097
0.000122462
0.000552125
0.000206221
0.000723472
0.000286003
0.000353904
0.000918238
-6.17979e-06
-7.5444e-05
-8.56584e-06
-0.000136243
7.21655e-07
-0.000144774
2.57478e-05
-0.0001211
6.87395e-05
-7.73733e-05
0.00013106
-2.17679e-05
0.000213795
3.97279e-05
0.000317952
0.000102064
0.000443953
0.000160001
0.000207788
0.00059007
-1.05536e-05
-6.48904e-05
-2.49452e-05
-0.000121852
-3.39536e-05
-0.000135765
-3.22505e-05
-0.000122803
-1.655e-05
-9.30738e-05
1.52743e-05
-5.35923e-05
6.46326e-05
-9.63033e-06
0.000132287
3.44095e-05
0.000217959
7.43295e-05
0.000106095
0.000319652
-1.37117e-05
-5.11787e-05
-3.69712e-05
-9.85923e-05
-5.96382e-05
-0.000113098
-7.55373e-05
-0.000106904
-8.0775e-05
-8.78361e-05
-7.29306e-05
-6.14367e-05
-5.06534e-05
-3.19076e-05
-1.35583e-05
-2.68555e-06
3.76085e-05
2.31626e-05
4.29467e-05
0.000100757
-1.59053e-05
-3.52734e-05
-4.54323e-05
-6.90654e-05
-7.78692e-05
-8.06613e-05
-0.000106533
-7.82401e-05
-0.00012723
-6.71391e-05
-0.000137484
-5.11824e-05
-0.000136119
-3.32731e-05
-0.000123064
-1.57399e-05
-9.93361e-05
-5.6559e-07
1.0612e-05
-6.70015e-05
-1.72978e-05
-1.79757e-05
-5.08461e-05
-3.5517e-05
-8.96162e-05
-4.18912e-05
-0.000126656
-4.12007e-05
-0.000157645
-3.61499e-05
-0.000180139
-2.86879e-05
-0.000193119
-2.02932e-05
-0.000196723
-1.21363e-05
-0.000192102
-5.18649e-06
-2.18182e-07
-0.000181272
-1.79763e-05
-5.34947e-05
-9.53879e-05
-0.000136591
-0.000172743
-0.000201433
-0.000221728
-0.000233867
-0.000239056
-0.000239276
0.000183774
-0.000422987
-6.2218e-08
0.00132176
-0.00113825
2.58285e-07
0.00248553
-0.00116426
4.92979e-07
0.0032326
-0.000746961
-1.08192e-07
0.00385234
-0.000619079
-6.636e-07
0.0042807
-0.000427678
-6.82789e-07
0.00462473
-0.000343358
-6.77416e-07
0.00485668
-0.000232469
5.27717e-07
0.00506609
-0.000210789
1.37815e-06
-0.000124882
4.87937e-07
0.000295454
-0.00089971
0.00140416
-0.00224696
0.00254163
-0.00230173
0.00327214
-0.00147747
0.00388034
-0.00122728
0.00430207
-0.0008494
0.00464195
-0.000683241
0.00487211
-0.000462631
0.00508075
-0.000419423
-0.000250324
0.000511652
-0.00147836
0.0015633
-0.0032986
0.00264965
-0.00338807
0.00334828
-0.0021761
0.0039343
-0.00181331
0.00434337
-0.00125847
0.0046754
-0.00101527
0.00490232
-0.000689552
0.00510964
-0.000626744
-0.000377996
0.000818511
-0.00219611
0.00178827
-0.00426836
0.00280151
-0.00440131
0.00345531
-0.00282991
0.00401023
-0.00236823
0.00440184
-0.00165007
0.00472318
-0.00133662
0.004946
-0.000912374
0.00515193
-0.000832672
-0.000509342
0.00119646
-0.0030729
0.0020638
-0.00513571
0.00298594
-0.00532345
0.00358527
-0.00342924
0.00410258
-0.00288553
0.00447357
-0.00202106
0.0047826
-0.00164565
0.00500131
-0.00113108
0.00520641
-0.00103777
-0.000646176
0.00162143
-0.00410426
0.00237131
-0.00588558
0.00318928
-0.00614143
0.00372847
-0.00396843
0.00420454
-0.0033616
0.00455376
-0.00237028
0.00485032
-0.00194221
0.00506592
-0.00134668
0.00527154
-0.0012434
-0.000790761
0.00206538
-0.00525139
0.00268961
-0.00650982
0.00339634
-0.00684816
0.00387417
-0.00444626
0.00430856
-0.00379599
0.00463704
-0.00269876
0.00492256
-0.00222773
0.00513717
-0.00156129
0.00534553
-0.00145176
-0.00094586
0.00249797
-0.00642778
0.00299565
-0.0070075
0.00359113
-0.00744363
0.00401117
-0.00486629
0.00440677
-0.0041916
0.00471776
-0.00300974
0.00499528
-0.00250526
0.00521218
-0.00177819
0.00542639
-0.00166597
-0.00111476
0.00290163
-0.00748523
0.0032705
-0.00737638
0.0037596
-0.00793274
0.00412901
-0.0052357
0.00449169
-0.00455428
0.00479038
-0.00330843
0.00506447
-0.00277935
0.00528799
-0.00200171
0.00551202
-0.00189
-0.00130122
0.00328111
-0.00819385
0.00351248
-0.00760775
0.00389091
-0.00831116
0.0042204
-0.00556519
0.00455658
-0.00489046
0.00484999
-0.00360184
0.00512612
-0.00305548
0.00536188
-0.00223747
0.00559995
-0.00212806
-0.00151002
0.0432806
-0.00091569
-0.0505587
0.0390645
-0.00339164
0.0369861
-0.00623277
0.0368001
-0.00537922
0.0366533
-0.00474366
0.0368191
-0.00376762
0.0370096
-0.00324599
0.0372632
-0.00249108
0.0374735
-0.00233838
-0.0017988
0.0523392
0.00331276
-0.0565676
0.0501432
-0.00119564
0.0475496
-0.00363919
0.0460087
-0.00383836
0.0448015
-0.00353641
0.0439756
-0.00294176
0.0433286
-0.00259892
0.0429107
-0.00207321
0.042509
-0.00193674
-0.00160606
0.0539039
0.00452392
-0.0551151
0.0526219
8.64546e-05
0.0510055
-0.00202285
0.049696
-0.00252887
0.0485976
-0.00243793
0.0477379
-0.00208213
0.0469856
-0.00184663
0.0464231
-0.00151071
0.0458666
-0.00138017
-0.00122401
0.0520606
0.00437432
-0.051911
0.0516516
0.000495438
0.0508182
-0.00118946
0.0499786
-0.00168931
0.0492354
-0.00169474
0.0486344
-0.00148105
0.0480832
-0.00129549
0.0476469
-0.00107438
0.0472083
-0.000941558
-0.000873979
0.0500073
0.00369107
-0.0493241
0.0498798
0.000622957
0.0494568
-0.000766406
0.0489538
-0.00118632
0.0484822
-0.00122318
0.0480976
-0.00109646
0.0477476
-0.00094547
0.0474626
-0.000789376
0.0471847
-0.00066372
-0.000624707
0.0483082
0.00289049
-0.0475076
0.0483333
0.000597835
0.0480818
-0.000514911
0.0477503
-0.000854847
0.0474255
-0.000898352
0.0471558
-0.000826763
0.0469217
-0.000711416
0.0467294
-0.000596995
0.0465566
-0.000490937
-0.000457173
0.0470995
0.00210086
-0.0463099
0.0471933
0.000504066
0.0470186
-0.000340196
0.0467668
-0.000603111
0.0465109
-0.000642411
0.046289
-0.000604875
0.0461026
-0.000525006
0.0459487
-0.000443056
0.0458211
-0.000363322
-0.000332326
0.0462851
0.00136196
-0.0455462
0.0464292
0.000359917
0.0462957
-0.000206633
0.0460796
-0.000387077
0.0458534
-0.000416216
0.0456477
-0.000399178
0.0454736
-0.000350844
0.0453284
-0.000297889
0.0452107
-0.000245615
-0.000221683
0.0457885
0.00066859
-0.0450951
0.0459646
0.000183768
0.0458569
-9.89075e-05
0.0456575
-0.000187624
0.0454438
-0.000202542
0.0452429
-0.000198272
0.0450683
-0.000176305
0.0449213
-0.000150866
0.0448002
-0.00012448
-0.000112076
0.0455539
-0.0448853
0.0457377
0.0456388
0.0454511
0.0452486
0.0450503
0.044874
0.0447232
0.0445987
0.0567753
0.00230158
-0.0560628
0.0573298
0.00291153
0.0576775
0.00350308
0.057769
0.00406716
0.0575572
0.00459456
0.0570025
0.00507646
0.0560733
0.00550515
0.0547402
0.0058745
0.052948
0.00617965
0.00639546
0.0513979
0.00169288
-0.0507892
0.0520516
0.00225783
0.0527363
0.00281841
0.0534339
0.00336954
0.054123
0.00390549
0.0547794
0.00442005
0.0553778
0.00490678
0.055893
0.0053593
0.0563008
0.00577188
0.00612859
0.0480918
0.00121798
-0.0476169
0.0486477
0.00170196
0.0492813
0.00218476
0.0499873
0.00266351
0.0507578
0.00313506
0.0515819
0.00359594
0.0524463
0.00404232
0.0533356
0.00447003
0.0542329
0.00487454
0.00524641
0.0454945
0.000891379
-0.0451679
0.0459013
0.0012952
0.0463888
0.00169727
0.0469569
0.00209537
0.0476047
0.00248721
0.0483302
0.00287048
0.0491298
0.00324275
0.0499983
0.00360154
0.0509288
0.00394403
0.00426424
0.0439058
0.000651548
-0.043666
0.0442197
0.000981268
0.0446079
0.00130911
0.0450701
0.0016332
0.0456056
0.00195169
0.0462134
0.00226269
0.0468918
0.00256436
0.0476385
0.00285479
0.0484506
0.0031319
0.0033908
0.0428101
0.000469376
-0.0426279
0.0430622
0.000729114
0.0433842
0.000987083
0.0437757
0.00124177
0.0442357
0.00149166
0.0447631
0.00173526
0.0453564
0.00197111
0.0460134
0.00219773
0.0467318
0.00241351
0.00261506
0.0421162
0.000324605
-0.0419714
0.0423279
0.000517444
0.0426061
0.000708868
0.0429501
0.000897727
0.0433589
0.00108287
0.043831
0.00126318
0.0443646
0.00143753
0.0449575
0.00160481
0.0456071
0.00176384
0.00191231
0.0416643
0.000203994
-0.0415437
0.04185
0.000331703
0.0421004
0.000458456
0.0424147
0.000583478
0.0427915
0.000706003
0.0432294
0.00082527
0.0437264
0.000940532
0.0442802
0.00105105
0.044888
0.00115604
0.00125414
0.0413996
9.81581e-05
-0.0412938
0.0415695
0.000161806
0.041803
0.000224993
0.0420991
0.000287332
0.0424567
0.000348435
0.042874
0.000407919
0.0433492
0.000465408
0.0438797
0.000520529
0.0444628
0.000572891
0.000621853
0.0412741
-0.041176
0.041436
0.0416609
0.0419483
0.0422967
0.0427046
0.04317
0.0436906
0.0442635
0.0481094
-0.00335375
-0.0475524
0.0488228
-0.0028949
0.0496454
-0.00240623
0.0505376
-0.00188566
0.0514714
-0.00133415
0.0524283
-0.000759607
0.0533899
-0.000166538
0.0543348
0.000441366
0.0552365
0.00105936
0.00168167
0.0479852
-0.00340684
-0.0479321
0.0480815
-0.0029912
0.0482205
-0.00254527
0.0484082
-0.0020733
0.0486505
-0.00157646
0.0489517
-0.00106081
0.0493153
-0.000530101
0.0497433
1.33458e-05
0.0502356
0.00056704
0.00112802
0.046897
-0.0031475
-0.0471564
0.0466931
-0.00278731
0.0465499
-0.00240198
0.0464725
-0.00199592
0.0464672
-0.00157119
0.0465376
-0.00113121
0.046686
-0.000678492
0.0469144
-0.000215045
0.0472244
0.000257046
0.000735521
0.0455818
-0.00277138
-0.0459579
0.0452636
-0.00246906
0.0450067
-0.0021451
0.0448147
-0.00180393
0.0446909
-0.00144743
0.0446377
-0.00107801
0.044657
-0.000697779
0.0447507
-0.000308675
0.0449204
8.729e-05
0.000488025
0.0446599
-0.0023496
-0.0450817
0.0442919
-0.00210111
0.0439823
-0.00183549
0.0437342
-0.00155579
0.0435504
-0.00126363
0.0434332
-0.000960856
0.0433847
-0.000649205
0.0434064
-0.000330374
0.0434998
-6.10298e-06
0.000321815
0.0439897
-0.00190031
-0.0444389
0.0435923
-0.0017038
0.0432508
-0.00149398
0.0429681
-0.0012731
0.0427469
-0.0010424
0.0425893
-0.000803276
0.0424972
-0.000557128
0.0424722
-0.000305343
0.0425155
-4.93487e-05
0.00020939
0.043559
-0.00143594
-0.0440234
0.043145
-0.00128981
0.042785
-0.00113398
0.0424818
-0.000969932
0.042238
-0.000798575
0.0420557
-0.00062093
0.0419366
-0.000438032
0.0418822
-0.000250934
0.0418935
-6.0718e-05
0.000131506
0.0432802
-0.000961462
-0.0437546
0.0428551
-0.000864767
0.0424828
-0.000761685
0.042166
-0.000653146
0.0419072
-0.000539754
0.0417085
-0.00042217
0.0415715
-0.000301079
0.0414978
-0.000177184
0.0414883
-5.12096e-05
7.61032e-05
0.0431192
-0.000481537
-0.0435992
0.042688
-0.000433515
0.0423086
-0.000382323
0.0419839
-0.0003284
0.0417162
-0.000272045
0.0415076
-0.000213581
0.0413599
-0.000153345
0.0412744
-9.16879e-05
0.0412521
-2.89694e-05
3.44392e-05
0.0430454
-0.043527
0.0426119
0.0422296
0.0419012
0.0416291
0.0414156
0.0412622
0.0411705
0.0411415
0.0429475
0.00017463
-0.000193169
0.0429914
0.000521276
-0.0005652
0.0430658
0.000872671
-0.000947118
0.0431884
0.001237
-0.00135953
0.043389
0.00161961
-0.00182026
0.0437114
0.00202475
-0.0023471
0.0442143
0.00245452
-0.0029574
0.0449695
0.00291137
-0.00366664
0.0460712
0.00337131
-0.00447302
0.00392367
-0.00540479
0.0429657
0.000137881
0.0430729
0.000414036
0.043254
0.000691548
0.0435194
0.000971602
0.043884
0.00125501
0.0443668
0.00154201
0.0449896
0.00183167
0.0457769
0.00212406
0.0467446
0.00240364
0.00273617
0.0429665
0.000100273
0.0430779
0.000302717
0.0432627
0.000506705
0.0435251
0.000709226
0.0438707
0.000909383
0.0443068
0.00110588
0.0448419
0.00129663
0.045486
0.00147993
0.0462438
0.00164581
0.00182363
0.0429586
7.05593e-05
0.0430476
0.000213751
0.043196
0.000358306
0.0434046
0.000500636
0.0436744
0.000639534
0.0440066
0.000773706
0.0444017
0.00090158
0.0448597
0.00102195
0.0453756
0.00112982
0.00124133
0.0429506
4.8896e-05
0.0430161
0.000148279
0.0431258
0.000248592
0.0432795
0.000346944
0.0434767
0.000442273
0.0437169
0.00053353
0.0439989
0.000619574
0.0443214
0.000699475
0.0446808
0.000770442
0.000840422
0.0429445
3.3308e-05
0.0429918
0.000101019
0.043071
0.000169334
0.0431818
0.000236201
0.0433232
0.000300842
0.0434942
0.00036252
0.0436933
0.000420493
0.0439186
0.000474166
0.044167
0.000522068
0.000568464
0.0429403
2.19174e-05
0.0429749
6.64638e-05
0.0430328
0.000111388
0.0431137
0.000155331
0.0432168
0.00019777
0.0433411
0.000238217
0.0434854
0.000276193
0.0436482
0.000311311
0.0438276
0.000342739
0.000372645
0.0429376
1.32769e-05
0.0429638
4.02494e-05
0.0430077
6.74375e-05
0.043069
9.40325e-05
0.0431471
0.00011972
0.0432411
0.000144209
0.0433501
0.000167223
0.0434728
0.000188537
0.0436079
0.000207715
0.000225863
0.0429359
6.26134e-06
0.0429572
1.89821e-05
0.0429929
3.1794e-05
0.0430426
4.43272e-05
0.0431058
5.6435e-05