1.45 	0 	0 	0.00911582 	-0.00440673 	3.91277e-21
2.35 	0 	0 	0.138239 	-0.00924704 	1.66513e-21
