1.45 	0 	0 	0.00458289 	-0.00389549 	3.94828e-21
2.35 	0 	0 	0.11773 	-0.00860427 	1.90456e-21
