/*--------------------------------*- C++ -*----------------------------------*\
  =========                 |
  \\      /  F ield         | OpenFOAM: The Open Source CFD Toolbox
   \\    /   O peration     | Website:  https://openfoam.org
    \\  /    A nd           | Version:  6.0
     \\/     M anipulation  |
\*---------------------------------------------------------------------------*/
FoamFile
{
    version     2.0;
    format      ascii;
    class       volVectorField;
    location    "98";
    object      U;
}
// * * * * * * * * * * * * * * * * * * * * * * * * * * * * * * * * * * * * * //

dimensions      [0 1 -1 0 0 0 0];

internalField   nonuniform List<vector> 
34500
(
(0.999994 2.29461e-05 -4.64236e-17)
(0.999955 5.29604e-06 -8.15518e-18)
(0.999878 -3.10601e-05 1.42595e-16)
(0.999768 -9.77082e-05 -1.07968e-16)
(0.999632 -0.000206142 3.36945e-17)
(0.999486 -0.00036539 -1.01862e-16)
(0.999344 -0.000577726 -1.0135e-16)
(0.999223 -0.000840504 8.71235e-17)
(0.999139 -0.0011484 1.0764e-16)
(0.999099 -0.00149943 -6.8601e-16)
(0.999111 -0.00189148 -1.04585e-15)
(0.999172 -0.00237603 1.27837e-16)
(0.999285 -0.00289516 4.38168e-16)
(0.999981 -0.00400683 -2.10574e-16)
(0.989918 -0.00951517 8.15874e-17)
(0.999987 7.29989e-05 3.25116e-17)
(0.999913 3.39932e-05 9.78629e-17)
(0.999773 -3.96147e-05 7.19473e-17)
(0.999573 -0.000169814 -3.03098e-16)
(0.999327 -0.000377257 -5.07552e-16)
(0.999063 -0.000678442 -5.52573e-17)
(0.99881 -0.00107531 2.56544e-16)
(0.998599 -0.00156106 -6.80165e-16)
(0.998456 -0.00212369 -1.79486e-16)
(0.998398 -0.00275716 6.84963e-16)
(0.998436 -0.00345012 1.26942e-15)
(0.998577 -0.00428846 -6.33622e-16)
(0.998722 -0.00514052 -9.93561e-16)
(1.00037 -0.00671516 -4.01507e-16)
(0.989733 -0.012485 5.53589e-16)
(0.999982 0.000123662 1.04886e-17)
(0.999912 6.9779e-05 -1.23202e-16)
(0.999787 -1.56527e-05 -1.25499e-16)
(0.999612 -0.000152405 4.57004e-16)
(0.999397 -0.00035865 -2.86858e-17)
(0.999166 -0.000650842 -1.64578e-16)
(0.998946 -0.00102994 9.81713e-17)
(0.998765 -0.00148926 3.86233e-16)
(0.998645 -0.00201711 2.71426e-19)
(0.998604 -0.00260831 -3.9498e-16)
(0.99865 -0.00324661 -7.32227e-16)
(0.998809 -0.0040161 4.16629e-16)
(0.998835 -0.00478888 2.26993e-16)
(1.00065 -0.00605766 1.67145e-16)
(0.993522 -0.00953584 -2.58043e-16)
(0.999975 0.000174 -1.73896e-17)
(0.999912 0.000104088 -9.04473e-18)
(0.999808 6.89217e-06 4.84484e-17)
(0.999666 -0.000134064 -3.0627e-16)
(0.999494 -0.000332806 3.73419e-16)
(0.999311 -0.000604184 3.31089e-16)
(0.999138 -0.000948259 -4.00983e-16)
(0.998996 -0.00135938 -4.21603e-16)
(0.998906 -0.00182783 4.36883e-16)
(0.998882 -0.00235183 -4.7278e-16)
(0.998927 -0.00291598 -2.4576e-16)
(0.999088 -0.00360313 -3.88006e-16)
(0.998996 -0.00433671 5.47559e-16)
(1.00058 -0.00540552 -4.88392e-17)
(0.995609 -0.00827492 2.26595e-17)
(0.999966 0.000224286 -1.70777e-17)
(0.999901 0.000136157 1.53674e-16)
(0.999799 2.04914e-05 6.97394e-17)
(0.999666 -0.000138714 1.70246e-16)
(0.999506 -0.000352955 4.68945e-17)
(0.99934 -0.000635803 -1.58792e-16)
(0.999185 -0.000985946 1.02907e-16)
(0.999061 -0.00139754 2.67375e-16)
(0.998987 -0.00186114 -4.19509e-16)
(0.998976 -0.00237714 -2.32116e-16)
(0.999025 -0.00293165 1.01218e-15)
(0.999199 -0.00360631 6.38687e-16)
(0.999054 -0.00437637 -2.92551e-16)
(1.00032 -0.00537713 6.02285e-16)
(0.996509 -0.00805977 -6.16578e-16)
(0.999955 0.000274738 1.8389e-17)
(0.999884 0.000167782 -9.50328e-17)
(0.999778 3.12551e-05 -1.86836e-16)
(0.999642 -0.000151586 -5.30929e-17)
(0.999483 -0.000390401 1.09787e-16)
(0.99932 -0.000697699 -1.09234e-16)
(0.999171 -0.00107064 1.48743e-16)
(0.999057 -0.0015026 1.3173e-16)
(0.998994 -0.00198336 2.92317e-16)
(0.998995 -0.00251392 -1.00802e-16)
(0.999052 -0.00308084 2.9548e-18)
(0.999245 -0.00375959 -3.92075e-16)
(0.999095 -0.00456267 1.8503e-17)
(1.00008 -0.00550122 -4.77019e-16)
(0.997054 -0.00781932 7.76273e-17)
(0.999943 0.000325198 3.26205e-18)
(0.999867 0.000199566 -3.5672e-17)
(0.999758 4.288e-05 -2.90984e-17)
(0.999622 -0.00016204 1.76266e-16)
(0.999467 -0.000422878 -2.2118e-16)
(0.99931 -0.000751056 2.76439e-16)
(0.99917 -0.00114251 -6.21664e-16)
(0.999066 -0.00159009 -3.71419e-16)
(0.999015 -0.00208297 -1.52298e-16)
(0.999029 -0.00262236 6.74801e-16)
(0.999094 -0.00319517 -7.72901e-16)
(0.999302 -0.00386762 3.0033e-16)
(0.999168 -0.00467971 4.6116e-16)
(0.999921 -0.00554434 -9.76153e-17)
(0.997475 -0.00750556 -1.2629e-16)
(0.999929 0.000375429 1.51469e-17)
(0.99985 0.000231136 3.23624e-17)
(0.999741 5.50106e-05 2.50954e-17)
(0.999608 -0.000170092 -1.5132e-16)
(0.999461 -0.00044971 3.29965e-16)
(0.999314 -0.00079407 -1.40103e-16)
(0.999186 -0.00119821 2.02335e-16)
(0.999096 -0.00165471 -1.46916e-16)
(0.999057 -0.00215257 3.9947e-16)
(0.999083 -0.00269325 1.78711e-16)
(0.999155 -0.00326461 2.46292e-16)
(0.999371 -0.0039235 -5.69432e-17)
(0.999262 -0.00473257 -5.1025e-16)
(0.999837 -0.0055337 1.15925e-15)
(0.997816 -0.00723487 1.94734e-16)
(0.999913 0.000425243 -1.12384e-17)
(0.999831 0.0002621 9.91882e-17)
(0.999724 6.65777e-05 1.51206e-16)
(0.999595 -0.000178186 1.12257e-16)
(0.999456 -0.000475654 -4.90311e-16)
(0.999321 -0.000834732 1.41485e-16)
(0.999206 -0.00124976 3.22007e-16)
(0.99913 -0.00171313 7.75902e-16)
(0.999104 -0.0022138 -3.87282e-16)
(0.999142 -0.00275353 9.05527e-17)
(0.99922 -0.00332166 4.52001e-16)
(0.99944 -0.00396635 -3.26374e-16)
(0.999359 -0.00476938 -1.55834e-16)
(0.999802 -0.00552451 -3.87889e-16)
(0.998101 -0.00703012 8.76347e-17)
(0.999896 0.000474517 4.07675e-17)
(0.999811 0.00029231 -8.99483e-17)
(0.999704 7.7217e-05 8.87726e-18)
(0.99958 -0.000187244 -1.10515e-16)
(0.999449 -0.000502651 4.12031e-16)
(0.999324 -0.000876537 7.99086e-17)
(0.999223 -0.00130269 2.71356e-16)
(0.999159 -0.00177337 -5.75665e-16)
(0.999146 -0.00227757 4.17958e-17)
(0.999195 -0.00281723 -7.9118e-17)
(0.99928 -0.00338356 -1.40566e-16)
(0.999502 -0.00401642 4.4491e-17)
(0.999449 -0.00481273 5.99345e-16)
(0.999798 -0.00553441 -8.19648e-16)
(0.99835 -0.00687928 -2.80753e-16)
(0.999877 0.000523146 -2.62746e-17)
(0.99979 0.000321713 3.53329e-17)
(0.999683 8.69258e-05 -1.47931e-16)
(0.999563 -0.000197268 2.50723e-16)
(0.999439 -0.000530763 -3.62818e-16)
(0.999324 -0.000919729 -3.04238e-16)
(0.999235 -0.00135754 -3.40273e-16)
(0.999184 -0.0018364 3.92873e-17)
(0.999182 -0.00234547 -8.18311e-17)
(0.999242 -0.00288668 -4.26977e-16)
(0.999333 -0.00345324 -7.26075e-16)
(0.999556 -0.00407694 2.88298e-16)
(0.99953 -0.00486505 -3.32362e-16)
(0.999817 -0.00555933 9.2459e-16)
(0.998578 -0.00676396 5.59113e-17)
(0.999857 0.000571063 -2.46031e-17)
(0.999766 0.000350288 -1.04481e-16)
(0.999659 9.57412e-05 1.51154e-16)
(0.999543 -0.000208195 -2.34891e-16)
(0.999426 -0.000559872 7.71382e-17)
(0.999321 -0.00096412 4.55959e-16)
(0.999242 -0.00141395 5.56342e-17)
(0.999203 -0.00190157 -6.76792e-17)
(0.999213 -0.00241634 1.82506e-16)
(0.999283 -0.0029601 -1.57873e-16)
(0.999382 -0.00352786 -9.57738e-17)
(0.999604 -0.00414371 -6.73622e-17)
(0.999604 -0.00492058 -2.9074e-16)
(0.999849 -0.00558919 -6.33539e-16)
(0.998794 -0.00666848 1.28927e-17)
(0.999835 0.000618219 -2.18096e-18)
(0.999741 0.000378031 1.40832e-16)
(0.999633 0.00010371 -2.22137e-16)
(0.99952 -0.000219962 8.36731e-17)
(0.99941 -0.000589876 -9.39017e-17)
(0.999314 -0.00100952 -1.55372e-16)
(0.999246 -0.0014715 -3.90638e-17)
(0.999219 -0.00196797 3.66823e-16)
(0.99924 -0.00248851 -6.33685e-16)
(0.999321 -0.00303471 4.2286e-16)
(0.999427 -0.00360319 2.22103e-16)
(0.99965 -0.00421095 1.85777e-16)
(0.999674 -0.00497291 7.59092e-16)
(0.999892 -0.0056162 7.44545e-16)
(0.998997 -0.00658471 5.7071e-16)
(0.999811 0.000664595 8.31979e-18)
(0.999715 0.000404984 5.30046e-17)
(0.999606 0.000110954 1.7656e-16)
(0.999495 -0.000232373 5.59514e-17)
(0.999391 -0.000620478 1.71258e-16)
(0.999304 -0.0010555 1.68739e-16)
(0.999247 -0.00152956 -1.18996e-17)
(0.999232 -0.00203462 4.95455e-17)
(0.999265 -0.00256046 9.42919e-16)
(0.999357 -0.0031083 -1.14633e-16)
(0.999472 -0.00367626 5.46241e-16)
(0.999695 -0.00427505 -7.45968e-16)
(0.99974 -0.00501928 1.38822e-16)
(0.999941 -0.00563823 -1.37169e-15)
(0.999186 -0.00651165 -6.41041e-16)
(0.999786 0.000710184 9.95976e-18)
(0.999686 0.000431194 -1.17966e-16)
(0.999576 0.000117626 1.55234e-16)
(0.999469 -0.000245143 -2.24832e-16)
(0.99937 -0.00065123 1.57415e-16)
(0.999292 -0.00110146 2.08095e-17)
(0.999246 -0.00158738 1.95908e-16)
(0.999243 -0.00210065 -2.61317e-16)
(0.999288 -0.00263119 -8.4377e-16)
(0.999391 -0.00317982 2.50877e-16)
(0.999516 -0.00374603 -5.6446e-16)
(0.99974 -0.00433524 1.13868e-16)
(0.999805 -0.00506022 -4.96688e-16)
(0.999995 -0.00565658 2.70999e-16)
(0.999362 -0.00644941 -1.12829e-16)
(0.999759 0.000754989 3.33055e-17)
(0.999656 0.000456713 7.20619e-17)
(0.999546 0.000123864 -3.59985e-16)
(0.999441 -0.000258004 2.89329e-16)
(0.999348 -0.0006817 -2.80994e-16)
(0.999279 -0.00114681 -3.74513e-16)
(0.999244 -0.00164427 -3.84692e-16)
(0.999253 -0.00216533 3.39321e-16)
(0.99931 -0.00270006 7.22969e-16)
(0.999424 -0.00324882 1.64099e-16)
(0.99956 -0.00381243 9.54326e-17)
(0.999786 -0.00439189 7.07436e-17)
(0.999868 -0.00509718 -7.42762e-16)
(1.00005 -0.00567301 6.56692e-17)
(0.999524 -0.00639808 6.5746e-16)
(0.99973 0.000799009 -8.98405e-17)
(0.999624 0.000481568 -9.26231e-17)
(0.999513 0.000129746 3.43821e-17)
(0.999412 -0.000270792 -2.65211e-16)
(0.999325 -0.000711601 -1.80362e-17)
(0.999265 -0.00119112 4.8366e-16)
(0.999241 -0.00169971 5.53221e-17)
(0.999263 -0.00222813 3.05659e-16)
(0.999331 -0.00276662 -6.06337e-16)
(0.999458 -0.00331508 -3.11698e-16)
(0.999603 -0.00387557 4.48084e-16)
(0.999832 -0.00444552 -1.50551e-16)
(0.99993 -0.0051314 4.90201e-16)
(1.00011 -0.00568884 7.64842e-16)
(0.999673 -0.00635738 -6.21468e-17)
(0.9997 0.000842249 2.81451e-17)
(0.999591 0.000505773 1.15036e-17)
(0.99948 0.000135291 1.15955e-16)
(0.999382 -0.000283471 2.26542e-18)
(0.999302 -0.000740855 9.92312e-17)
(0.999251 -0.00123427 -2.90843e-16)
(0.999238 -0.00175353 6.01029e-16)
(0.999272 -0.00228892 -1.54264e-16)
(0.999353 -0.00283084 6.56269e-16)
(0.99949 -0.00337877 -3.43609e-16)
(0.999646 -0.00393595 -5.47758e-16)
(0.999878 -0.00449701 5.2969e-16)
(0.999991 -0.00516436 -8.96372e-16)
(1.00017 -0.00570574 -1.32916e-15)
(0.99981 -0.00632787 -3.42278e-16)
(0.999669 0.000884706 3.13366e-18)
(0.999557 0.000529324 1.95468e-17)
(0.999446 0.000140466 -3.13067e-17)
(0.999351 -0.000296122 1.59196e-16)
(0.999278 -0.000769595 1.09233e-16)
(0.999236 -0.00127645 -4.28509e-17)
(0.999235 -0.001806 -3.62284e-16)
(0.999281 -0.0023481 -3.49415e-16)
(0.999373 -0.00289331 -2.36321e-16)
(0.999522 -0.00344074 4.35856e-16)
(0.999688 -0.00399475 3.38134e-16)
(0.999923 -0.0045478 -4.9813e-16)
(1.00005 -0.00519789 1.11046e-15)
(1.00023 -0.00572546 1.40064e-15)
(0.999936 -0.00630943 4.81316e-17)
(0.999635 0.000926382 3.58342e-17)
(0.999521 0.000552219 -4.77168e-17)
(0.99941 0.000145219 2.30112e-16)
(0.999319 -0.000308887 -4.58475e-17)
(0.999253 -0.000798076 -1.75062e-16)
(0.999221 -0.00131804 7.42496e-17)
(0.99923 -0.00185766 -1.30319e-16)
(0.999288 -0.00240641 2.95043e-16)
(0.999392 -0.00295501 7.76114e-17)
(0.999551 -0.00350225 5.43046e-17)
(0.999728 -0.0040535 -2.5935e-16)
(0.999967 -0.00459955 3.44927e-16)
(1.00011 -0.00523372 1.76471e-16)
(1.0003 -0.00574929 1.58745e-16)
(1.00005 -0.00630131 4.08905e-16)
(0.999601 0.000967269 -1.84219e-17)
(0.999483 0.000574449 2.73154e-17)
(0.999372 0.000149491 -3.73018e-16)
(0.999285 -0.00032192 -2.3875e-16)
(0.999226 -0.000826576 3.30575e-16)
(0.999203 -0.00135946 -8.95318e-17)
(0.999224 -0.0019091 5.23252e-16)
(0.999293 -0.00246464 -1.42126e-16)
(0.999409 -0.00301692 -7.54601e-18)
(0.999579 -0.00356444 -1.50987e-16)
(0.999766 -0.00411341 3.88196e-16)
(1.00001 -0.00465338 -2.45171e-16)
(1.00016 -0.00527267 -8.08788e-16)
(1.00036 -0.00577732 -1.93716e-16)
(1.00017 -0.0063016 -4.6704e-16)
(0.999564 0.00100736 2.47995e-17)
(0.999444 0.000596014 1.12857e-16)
(0.999333 0.000153242 3.36214e-16)
(0.99925 -0.00033534 2.61043e-16)
(0.999197 -0.000855313 -3.2188e-17)
(0.999184 -0.00140103 -1.30831e-16)
(0.999215 -0.00196072 -5.79275e-16)
(0.999296 -0.00252325 -6.73799e-17)
(0.999423 -0.00307958 -3.44477e-16)
(0.999604 -0.00362787 1.1167e-16)
(0.999801 -0.004175 -7.11607e-16)
(1.00005 -0.00470955 3.43934e-16)
(1.00022 -0.00531469 1.16532e-15)
(1.00042 -0.00580897 -9.04249e-16)
(1.00027 -0.0063086 5.44461e-16)
(0.999527 0.00104664 -1.99969e-17)
(0.999403 0.00061691 -1.58797e-16)
(0.999292 0.000156444 -1.92427e-16)
(0.999212 -0.000349229 -9.60141e-17)
(0.999167 -0.00088444 -6.15152e-17)
(0.999162 -0.00144295 8.44906e-17)
(0.999204 -0.00201273 -3.23737e-17)
(0.999296 -0.00258241 -4.44871e-16)
(0.999435 -0.0031431 -1.31035e-16)
(0.999626 -0.00369255 -3.30097e-17)
(0.999833 -0.00423812 6.47764e-16)
(1.00009 -0.00476763 1.08565e-16)
(1.00027 -0.00535911 -9.68959e-16)
(1.00048 -0.00584324 5.17487e-16)
(1.00038 -0.00632059 -1.0536e-16)
(0.999487 0.00108511 1.80644e-17)
(0.999361 0.000637139 9.33695e-17)
(0.999249 0.000159088 9.26187e-17)
(0.999173 -0.000363635 1.80199e-16)
(0.999133 -0.000914051 -9.82209e-17)
(0.999138 -0.00148533 -2.76425e-17)
(0.99919 -0.0020652 1.99801e-16)
(0.999294 -0.00264213 2.98712e-16)
(0.999444 -0.00320735 -2.15573e-17)
(0.999645 -0.0037582 -3.61196e-16)
(0.999864 -0.00430232 -2.77987e-16)
(1.00013 -0.00482701 -4.89632e-16)
(1.00032 -0.0054052 2.05862e-17)
(1.00055 -0.00587942 2.68012e-16)
(1.00048 -0.00633664 -1.64742e-16)
(0.999446 0.00112273 -9.65876e-18)
(0.999317 0.000656697 -5.52551e-17)
(0.999204 0.000161168 1.40665e-16)
(0.999131 -0.000378584 1.47625e-17)
(0.999098 -0.000944214 -1.25041e-16)
(0.999111 -0.00152826 1.00877e-16)
(0.999174 -0.00211821 -4.82089e-17)
(0.999289 -0.0027024 2.75451e-16)
(0.999451 -0.0032722 5.09269e-16)
(0.999663 -0.00382452 7.91453e-17)
(0.999893 -0.00436719 2.39929e-16)
(1.00016 -0.00488715 2.44669e-16)
(1.00037 -0.00545242 6.0585e-17)
(1.00061 -0.00591693 -5.51575e-16)
(1.00058 -0.0063557 1.35849e-16)
(0.999404 0.0011595 1.29388e-17)
(0.999271 0.000675587 1.16376e-17)
(0.999157 0.000162694 -2.87377e-16)
(0.999087 -0.000394073 -1.25598e-16)
(0.99906 -0.000974963 1.76662e-16)
(0.999082 -0.00157184 -2.75891e-17)
(0.999156 -0.00217187 1.84619e-16)
(0.999282 -0.00276328 -2.45332e-16)
(0.999456 -0.00333761 1.39962e-16)
(0.999679 -0.00389141 1.16491e-16)
(0.99992 -0.00443253 1.23145e-16)
(1.0002 -0.00494778 1.56981e-16)
(1.00042 -0.00550051 2.18952e-16)
(1.00068 -0.00595556 3.09942e-17)
(1.00068 -0.00637757 7.99312e-17)
(0.999361 0.00119539 -3.98094e-17)
(0.999224 0.000693804 1.05391e-16)
(0.999109 0.000163685 1.65011e-16)
(0.999041 -0.000410071 -1.05673e-16)
(0.99902 -0.00100628 -6.87295e-17)
(0.999051 -0.00161607 3.9138e-17)
(0.999135 -0.00222623 -2.01125e-16)
(0.999273 -0.00282485 -1.31683e-16)
(0.999458 -0.00340364 -1.73066e-16)
(0.999693 -0.00395882 2.75336e-16)
(0.999946 -0.00449824 -3.8244e-16)
(1.00024 -0.00500876 2.9932e-16)
(1.00047 -0.00554927 1.47091e-16)
(1.00074 -0.00599506 5.53925e-16)
(1.00077 -0.00640162 -5.14768e-16)
(0.999316 0.0012304 1.67983e-17)
(0.999175 0.00071135 -7.93263e-17)
(0.999059 0.000164169 5.81094e-17)
(0.998994 -0.000426508 1.28576e-16)
(0.998978 -0.00103807 -8.91828e-17)
(0.999017 -0.00166089 -1.50792e-16)
(0.999111 -0.00228126 -7.14287e-17)
(0.999261 -0.0028871 9.84879e-17)
(0.999459 -0.00347027 -4.50836e-16)
(0.999706 -0.00402672 6.65958e-17)
(0.999971 -0.00456425 2.54146e-16)
(1.00027 -0.00506994 -7.11677e-16)
(1.00052 -0.00559854 1.44201e-16)
(1.0008 -0.00603523 2.22529e-17)
(1.00087 -0.00642759 3.79639e-16)
(0.999269 0.00126452 -6.38628e-18)
(0.999125 0.00072822 9.72261e-17)
(0.999008 0.000164174 -9.39751e-17)
(0.998944 -0.000443292 -5.83543e-17)
(0.998934 -0.00107018 -9.31173e-17)
(0.998981 -0.00170609 -4.9269e-17)
(0.999086 -0.00233677 -1.06279e-16)
(0.999248 -0.00294987 7.59204e-17)
(0.999459 -0.00353736 2.92025e-17)
(0.999717 -0.00409495 -3.12483e-16)
(0.999995 -0.00463037 -3.73262e-16)
(1.0003 -0.00513111 4.14866e-16)
(1.00057 -0.00564806 -3.63347e-16)
(1.00087 -0.00607581 -1.16387e-16)
(1.00096 -0.00645525 -1.16152e-17)
(0.999221 0.00129774 -1.9325e-17)
(0.999073 0.000744411 -4.49133e-17)
(0.998955 0.000163725 3.17387e-17)
(0.998894 -0.000460327 2.2626e-16)
(0.998888 -0.00110241 3.78026e-16)
(0.998944 -0.00175141 3.08759e-16)
(0.99906 -0.00239244 3.37516e-16)
(0.999233 -0.00301284 -2.1545e-16)
(0.999457 -0.00360459 5.41127e-20)
(0.999728 -0.00416322 2.34053e-16)
(1.00002 -0.00469635 4.61353e-17)
(1.00034 -0.00519204 2.54974e-16)
(1.00062 -0.00569769 2.05568e-16)
(1.00093 -0.00611676 -5.41946e-16)
(1.00105 -0.00648474 -3.61171e-16)
(0.999172 0.00133007 9.94288e-18)
(0.99902 0.000759916 -8.11804e-17)
(0.998902 0.000162828 -1.62462e-16)
(0.998843 -0.000477543 -1.59541e-16)
(0.998842 -0.00113459 1.46746e-17)
(0.998906 -0.00179654 -1.74321e-16)
(0.999032 -0.00244791 -3.79751e-16)
(0.999218 -0.0030756 2.90019e-16)
(0.999454 -0.00367158 2.36033e-16)
(0.999737 -0.00423118 -5.20948e-16)
(1.00004 -0.00476192 4.2789e-16)
(1.00037 -0.00525257 -3.12526e-16)
(1.00066 -0.00574738 -1.44545e-16)
(1.00099 -0.0061582 -1.27207e-16)
(1.00114 -0.00651627 1.53891e-16)
(0.999122 0.00136153 3.78502e-17)
(0.998966 0.000774728 1.74194e-17)
(0.998847 0.000161467 8.78708e-17)
(0.99879 -0.000494922 4.08388e-17)
(0.998796 -0.00116661 4.80734e-17)
(0.998868 -0.00184129 3.01508e-16)
(0.999004 -0.00250287 -1.36312e-16)
(0.999202 -0.00313782 1.49038e-16)
(0.999451 -0.00373802 8.56277e-17)
(0.999747 -0.00429859 5.9713e-17)
(1.00006 -0.00482698 1.99276e-16)
(1.00041 -0.00531277 -4.2565e-17)
(1.00071 -0.00579737 9.491e-18)
(1.00106 -0.00620058 8.87225e-16)
(1.00123 -0.00655043 2.86094e-18)
(0.999071 0.00139214 -3.67393e-17)
(0.998911 0.000788844 -1.26951e-17)
(0.998791 0.000159603 5.74525e-17)
(0.998737 -0.000512516 -1.75248e-16)
(0.998749 -0.0011985 -2.80834e-16)
(0.998829 -0.00188561 -2.69212e-16)
(0.998976 -0.00255721 2.28219e-16)
(0.999186 -0.00319936 -8.35113e-17)
(0.999448 -0.00380378 9.74894e-18)
(0.999756 -0.00436544 -5.06903e-18)
(1.00009 -0.00489166 -2.75223e-16)
(1.00044 -0.00537292 -2.49269e-16)
(1.00076 -0.00584811 -1.61284e-16)
(1.00112 -0.00624442 2.46701e-17)
(1.00131 -0.00658748 -5.64042e-17)
(0.999018 0.00142195 -1.83421e-17)
(0.998854 0.000802266 4.85694e-17)
(0.998734 0.000157185 4.78103e-17)
(0.998684 -0.000530434 7.78381e-17)
(0.998701 -0.00123041 1.06518e-16)
(0.99879 -0.00192964 1.68431e-18)
(0.998947 -0.00261107 2.28138e-16)
(0.999169 -0.00326034 -5.09014e-16)
(0.999444 -0.00386906 2.59762e-16)
(0.999765 -0.00443201 2.65158e-16)
(1.00011 -0.00495639 -3.79855e-16)
(1.00047 -0.00543361 7.10848e-16)
(1.00081 -0.00590024 3.75464e-16)
(1.00118 -0.00629041 -7.04014e-16)
(1.00139 -0.0066279 -2.12728e-16)
(0.998965 0.001451 3.79304e-17)
(0.998796 0.000815013 2.94689e-17)
(0.998676 0.000154158 4.60524e-18)
(0.998629 -0.000548828 -3.48952e-17)
(0.998652 -0.00126258 2.02537e-17)
(0.99875 -0.00197373 2.85894e-16)
(0.998918 -0.00266482 -4.61032e-17)
(0.999152 -0.00332121 3.26662e-16)
(0.999439 -0.00393433 -4.83592e-17)
(0.999773 -0.00449884 -2.93338e-16)
(1.00013 -0.00502179 6.07777e-16)
(1.00051 -0.0054955 -3.65457e-16)
(1.00085 -0.00595438 -4.96468e-16)
(1.00124 -0.00633904 2.11178e-16)
(1.00147 -0.00667158 3.5857e-16)
(0.99891 0.00147935 -3.15429e-17)
(0.998736 0.000827116 -1.33035e-17)
(0.998616 0.000150488 -1.73581e-16)
(0.998572 -0.000567853 -8.48741e-17)
(0.998602 -0.00129533 5.22974e-17)
(0.998709 -0.00201831 -2.88623e-16)
(0.998888 -0.00271902 -8.4891e-17)
(0.999133 -0.00338255 2.84734e-16)
(0.999433 -0.00400025 -2.40974e-16)
(0.99978 -0.00456663 7.07225e-17)
(1.00015 -0.00508856 -3.38445e-16)
(1.00054 -0.00555925 1.06754e-17)
(1.0009 -0.00601107 2.68745e-16)
(1.0013 -0.00639059 1.42318e-16)
(1.00154 -0.00671829 -5.6323e-17)
(0.998854 0.00150709 3.00917e-17)
(0.998675 0.000838627 -9.76858e-17)
(0.998555 0.000146166 8.20422e-17)
(0.998513 -0.000587627 5.3722e-17)
(0.99855 -0.00132893 -4.05246e-17)
(0.998665 -0.00206382 -1.73384e-16)
(0.998855 -0.00277422 5.2602e-17)
(0.999113 -0.00344503 -1.30536e-16)
(0.999426 -0.0040675 -2.20283e-16)
(0.999785 -0.00463605 -2.75727e-17)
(1.00017 -0.00515729 -4.89196e-16)
(1.00057 -0.00562528 5.01691e-16)
(1.00094 -0.00607042 3.91262e-17)
(1.00136 -0.00644486 -8.12457e-17)
(1.00162 -0.00676714 -8.03116e-18)
(0.998797 0.00153429 -3.69093e-17)
(0.998612 0.000849614 1.00564e-16)
(0.998491 0.000141223 -2.3113e-17)
(0.998453 -0.000608202 -2.1066e-16)
(0.998495 -0.00136357 -1.00421e-16)
(0.99862 -0.00211059 1.16718e-16)
(0.998821 -0.00283091 -1.71369e-16)
(0.99909 -0.00350919 -1.92078e-16)
(0.999416 -0.00413663 3.27141e-16)
(0.999788 -0.00470755 1.13934e-16)
(1.00018 -0.00522829 5.13348e-16)
(1.0006 -0.00569371 -3.86888e-16)
(1.00099 -0.0061323 1.39526e-16)
(1.00142 -0.00650141 -1.58094e-16)
(1.00169 -0.00681742 5.35341e-18)
(0.998739 0.00156105 2.28449e-17)
(0.998548 0.000860159 -5.81952e-17)
(0.998426 0.00013573 7.23281e-17)
(0.99839 -0.000629543 3.13883e-16)
(0.998438 -0.00139928 1.33274e-16)
(0.998571 -0.00215878 8.27266e-17)
(0.998783 -0.00288929 3.404e-16)
(0.999065 -0.00357529 1.61875e-16)
(0.999404 -0.00420786 -2.66824e-16)
(0.99979 -0.00478126 4.55104e-16)
(1.0002 -0.00530151 2.53463e-16)
(1.00063 -0.00576423 -2.14944e-16)
(1.00103 -0.00619612 -4.12595e-16)
(1.00148 -0.00655942 -1.61378e-16)
(1.00177 -0.0068681 6.3293e-17)
(0.998679 0.00158745 4.69073e-18)
(0.998483 0.000870351 -1.23991e-16)
(0.998359 0.000129791 -9.20648e-17)
(0.998325 -0.000651534 -2.16139e-16)
(0.998379 -0.00143596 3.47409e-17)
(0.99852 -0.00220829 -3.3598e-16)
(0.998743 -0.00294933 -3.61405e-16)
(0.999038 -0.00364326 -1.45469e-16)
(0.99939 -0.00428107 3.1016e-16)
(0.999789 -0.00485692 -3.29782e-16)
(1.00021 -0.00537653 1.16816e-16)
(1.00065 -0.00583624 2.17563e-16)
(1.00107 -0.00626113 3.31429e-16)
(1.00154 -0.00661807 2.03563e-16)
(1.00184 -0.00691864 1.75676e-17)
(0.998619 0.00161359 3.29729e-17)
(0.998416 0.000880281 2.02655e-16)
(0.998291 0.000123525 9.43713e-17)
(0.998258 -0.000673993 1.81451e-16)
(0.998317 -0.00147336 1.08786e-16)
(0.998467 -0.00225884 4.58723e-17)
(0.998701 -0.00301066 5.2956e-17)
(0.999008 -0.00371269 -1.21765e-16)
(0.999375 -0.00435576 -1.23564e-16)
(0.999788 -0.00493393 1.44953e-17)
(1.00022 -0.00545262 -7.98057e-16)
(1.00068 -0.00590892 -3.12353e-16)
(1.00111 -0.00632648 3.29634e-16)
(1.0016 -0.00667656 -7.39967e-17)
(1.00191 -0.00696854 -2.08225e-16)
(0.998557 0.00163955 -4.43174e-17)
(0.998348 0.000890032 -1.29869e-16)
(0.998221 0.000117053 -1.86618e-16)
(0.99819 -0.000696716 6.1341e-17)
(0.998254 -0.00151118 -2.06379e-16)
(0.998412 -0.00230998 3.84573e-17)
(0.998657 -0.00307276 -4.76464e-17)
(0.998977 -0.00378297 -8.70924e-18)
(0.999358 -0.00443124 -1.47674e-16)
(0.999786 -0.00501156 -7.75151e-17)
(1.00024 -0.00552903 2.74711e-17)
(1.00071 -0.00598155 2.71303e-16)
(1.00116 -0.00639159 -1.37202e-16)
(1.00165 -0.00673461 2.72702e-16)
(1.00199 -0.00701815 9.79331e-17)
(0.998494 0.00166542 2.36866e-17)
(0.998278 0.000899681 1.24417e-16)
(0.99815 0.000110479 2.37099e-16)
(0.998121 -0.000719512 -6.85449e-17)
(0.99819 -0.00154908 -1.66377e-17)
(0.998357 -0.00236127 2.52081e-16)
(0.998612 -0.00313506 2.14484e-16)
(0.998945 -0.00385345 -1.47076e-16)
(0.999341 -0.00450683 3.94329e-16)
(0.999783 -0.00508911 3.58124e-16)
(1.00025 -0.00560514 3.81358e-16)
(1.00074 -0.00605367 -1.76368e-17)
(1.0012 -0.00645621 -3.04261e-16)
(1.00171 -0.00679225 -3.21685e-16)
(1.00206 -0.00706792 -3.15094e-17)
(0.998429 0.0016913 -2.02969e-17)
(0.998207 0.000909293 -6.57023e-17)
(0.998078 0.000103875 -1.96524e-16)
(0.998051 -0.000742245 1.26546e-16)
(0.998125 -0.00158684 1.21495e-16)
(0.9983 -0.00241235 -1.68799e-16)
(0.998567 -0.00319711 -8.52671e-17)
(0.998913 -0.00392363 8.42286e-18)
(0.999323 -0.00458204 -1.75249e-16)
(0.999781 -0.00516618 -3.06862e-16)
(1.00026 -0.0056807 -5.67055e-16)
(1.00076 -0.00612524 6.13878e-17)
(1.00124 -0.00652059 3.71562e-16)
(1.00177 -0.00685004 3.38668e-16)
(1.00213 -0.00711873 -7.24149e-17)
(0.998363 0.00171725 -1.61522e-17)
(0.998134 0.000918922 -1.32164e-17)
(0.998005 9.72778e-05 1.71983e-16)
(0.99798 -0.000764858 -1.6236e-16)
(0.99806 -0.00162433 -3.21024e-16)
(0.998244 -0.00246303 1.55885e-16)
(0.998522 -0.00325867 8.8518e-17)
(0.998881 -0.00399327 4.1017e-16)
(0.999306 -0.00465668 5.87046e-17)
(0.999779 -0.00524272 2.85763e-16)
(1.00028 -0.00575584 8.49807e-16)
(1.00079 -0.00619661 -2.33648e-16)
(1.00128 -0.00658524 -9.9506e-17)
(1.00182 -0.00690858 -1.18106e-17)
(1.0022 -0.00717108 -2.88592e-17)
(0.998296 0.00174338 4.51731e-17)
(0.99806 0.000928616 4.93797e-17)
(0.99793 9.06908e-05 -1.47918e-16)
(0.997908 -0.000787372 1.37487e-16)
(0.997994 -0.00166159 -9.25976e-17)
(0.998187 -0.00251334 -2.98285e-16)
(0.998476 -0.00331978 1.31209e-17)
(0.998849 -0.00406246 -3.52785e-17)
(0.999288 -0.00473096 -2.177e-16)
(0.999776 -0.00531905 1.83735e-16)
(1.00029 -0.00583104 -7.93322e-16)
(1.00082 -0.00626842 -1.44735e-17)
(1.00132 -0.00665091 -1.77798e-16)
(1.00188 -0.00696864 3.34527e-17)
(1.00227 -0.00722562 -8.5493e-17)
(0.998227 0.00176976 -1.15272e-17)
(0.997984 0.000938425 -1.17652e-17)
(0.997854 8.4099e-05 2.04678e-17)
(0.997835 -0.00080987 -1.52895e-16)
(0.997928 -0.00169875 -2.74734e-17)
(0.998129 -0.00256348 3.64228e-16)
(0.99843 -0.00338071 -2.65625e-16)
(0.998816 -0.00413155 -3.29249e-16)
(0.99927 -0.00480529 3.52858e-16)
(0.999773 -0.00539572 -3.19585e-16)
(1.0003 -0.00590695 4.05099e-16)
(1.00084 -0.00634135 3.84133e-16)
(1.00136 -0.0067182 2.77693e-16)
(1.00193 -0.00703067 -1.85999e-16)
(1.00233 -0.0072824 -6.44704e-17)
(0.998156 0.00179649 -1.24321e-17)
(0.997907 0.0009484 -7.21977e-17)
(0.997776 7.74835e-05 -9.72761e-17)
(0.997761 -0.000832462 7.14338e-17)
(0.99786 -0.00173603 1.81147e-16)
(0.99807 -0.00261374 6.35823e-17)
(0.998383 -0.00344182 2.46875e-16)
(0.998782 -0.00420098 5.39906e-17)
(0.999251 -0.00488023 -4.63952e-16)
(0.999769 -0.00547331 1.6255e-16)
(1.00031 -0.00598417 -2.30114e-16)
(1.00087 -0.00641597 -1.91539e-16)
(1.0014 -0.00678759 -2.58953e-16)
(1.00199 -0.00709497 4.12082e-17)
(1.00239 -0.00734149 1.55666e-16)
(0.998084 0.00182366 -1.90828e-17)
(0.997828 0.000958606 3.43883e-17)
(0.997697 7.08402e-05 4.154e-17)
(0.997684 -0.000855253 -1.43184e-16)
(0.99779 -0.00177363 6.99152e-17)
(0.99801 -0.00266444 -2.12269e-16)
(0.998334 -0.00350353 -2.60178e-17)
(0.998747 -0.00427121 3.19718e-16)
(0.99923 -0.00495624 -2.04129e-16)
(0.999764 -0.00555229 -2.70121e-16)
(1.00032 -0.00606312 2.32381e-16)
(1.0009 -0.0064926 -6.91315e-17)
(1.00144 -0.00685923 -7.33962e-16)
(1.00204 -0.00716151 7.54113e-17)
(1.00245 -0.00740248 1.1202e-16)
(0.99801 0.00185136 -9.8228e-18)
(0.997747 0.000969117 3.35445e-17)
(0.997615 6.41865e-05 1.26431e-17)
(0.997606 -0.000878313 1.90849e-17)
(0.997718 -0.00181174 1.2066e-16)
(0.997948 -0.00271584 6.7089e-17)
(0.998283 -0.00356615 -2.21123e-16)
(0.99871 -0.00434262 -2.02013e-17)
(0.999208 -0.0050337 6.11418e-16)
(0.999757 -0.00563302 -1.96344e-16)
(1.00033 -0.00614409 -5.77928e-18)
(1.00092 -0.00657144 2.91606e-17)
(1.00148 -0.0069332 2.82012e-17)
(1.00209 -0.00723031 -5.22054e-17)
(1.00252 -0.00746533 1.7684e-17)
(0.997934 0.0018797 2.58842e-17)
(0.997664 0.000980019 -6.84259e-17)
(0.997532 5.75713e-05 -7.82085e-17)
(0.997525 -0.000901666 1.47815e-19)
(0.997644 -0.00185047 -1.82201e-16)
(0.997883 -0.00276815 -2.91163e-17)
(0.998231 -0.00362994 4.29325e-17)
(0.998671 -0.00441545 -4.86563e-17)
(0.999184 -0.00511286 -4.13982e-16)
(0.999748 -0.00571569 5.5189e-16)
(1.00034 -0.00622721 -3.15448e-17)
(1.00094 -0.00665254 -5.7898e-17)
(1.00152 -0.00700947 3.42586e-16)
(1.00215 -0.00730125 -3.86957e-16)
(1.00257 -0.0075296 8.30522e-18)
(0.997857 0.00190875 2.74643e-18)
(0.997579 0.000991401 8.209e-17)
(0.997446 5.10662e-05 2.20749e-16)
(0.997442 -0.000925289 -5.57058e-17)
(0.997567 -0.00188986 1.18415e-16)
(0.997815 -0.00282148 -1.84135e-16)
(0.998175 -0.00369507 -2.20683e-16)
(0.998629 -0.00448992 5.30811e-18)
(0.999158 -0.00519391 2.41061e-16)
(0.999738 -0.00580046 -4.81727e-16)
(1.00034 -0.00631259 1.20202e-16)
(1.00096 -0.00673596 -2.09376e-17)
(1.00156 -0.00708804 2.64719e-16)
(1.0022 -0.00737429 8.23631e-17)
(1.00263 -0.00759511 -1.30516e-16)
(0.997778 0.00193861 1.05538e-18)
(0.997493 0.00100336 -8.90975e-17)
(0.997357 4.47651e-05 -1.25994e-16)
(0.997356 -0.000949118 2.08609e-17)
(0.997487 -0.00192992 -2.20002e-17)
(0.997745 -0.00287591 1.67142e-16)
(0.998117 -0.00376168 3.62329e-16)
(0.998585 -0.00456618 -3.2168e-16)
(0.999129 -0.00527699 3.66294e-16)
(0.999726 -0.00588744 3.24122e-17)
(1.00035 -0.00640028 7.20818e-17)
(1.00099 -0.00682167 -1.39533e-16)
(1.00159 -0.00716873 2.70454e-16)
(1.00225 -0.00744907 1.54351e-16)
(1.00269 -0.00766109 2.05075e-16)
(0.997697 0.00196937 -8.63224e-18)
(0.997404 0.00101598 8.49923e-17)
(0.997267 3.87691e-05 1.55194e-16)
(0.997267 -0.000973063 5.36493e-17)
(0.997405 -0.00197059 1.57033e-16)
(0.997672 -0.00293144 1.20684e-16)
(0.998056 -0.00382983 -3.25417e-16)
(0.998538 -0.00464433 6.5253e-16)
(0.999098 -0.00536222 -2.05445e-16)
(0.999712 -0.00597671 -6.845e-17)
(1.00035 -0.00649028 -2.48146e-16)
(1.001 -0.00690957 -1.09263e-16)
(1.00163 -0.00725132 -3.01017e-16)
(1.0023 -0.00752519 -1.1172e-16)
(1.00275 -0.00772706 4.93451e-17)
(0.997615 0.00200109 -3.0656e-17)
(0.997313 0.00102936 -9.0895e-17)
(0.997174 3.31897e-05 -1.08819e-17)
(0.997176 -0.000996998 1.06737e-16)
(0.99732 -0.00201177 -1.42912e-16)
(0.997596 -0.00298801 -1.05018e-16)
(0.997992 -0.00389949 4.07232e-16)
(0.998489 -0.00472436 -1.21718e-16)
(0.999065 -0.00544956 -5.2065e-16)
(0.999696 -0.00606817 7.1743e-17)
(1.00035 -0.00658237 -1.26021e-16)
(1.00102 -0.00699926 2.33716e-16)
(1.00166 -0.00733522 3.75877e-16)
(1.00235 -0.00760188 3.37249e-16)
(1.00281 -0.0077921 -2.87632e-16)
(0.997531 0.00203385 1.83796e-18)
(0.997221 0.00104356 -1.75346e-17)
(0.99708 2.81333e-05 -7.26241e-17)
(0.997083 -0.00102078 4.53003e-17)
(0.997232 -0.00205329 -7.92494e-17)
(0.997517 -0.00304544 1.35262e-16)
(0.997926 -0.00397049 -1.17026e-16)
(0.998437 -0.00480609 4.0217e-17)
(0.99903 -0.00553878 -1.0916e-16)
(0.999679 -0.00616148 2.78046e-16)
(1.00035 -0.00667609 3.40799e-16)
(1.00104 -0.00709015 1.97573e-18)