/*--------------------------------*- C++ -*----------------------------------*\
  =========                 |
  \\      /  F ield         | OpenFOAM: The Open Source CFD Toolbox
   \\    /   O peration     | Website:  https://openfoam.org
    \\  /    A nd           | Version:  6.0
     \\/     M anipulation  |
\*---------------------------------------------------------------------------*/
FoamFile
{
    version     2.0;
    format      ascii;
    class       surfaceScalarField;
    location    "0.5";
    object      phi;
}
// * * * * * * * * * * * * * * * * * * * * * * * * * * * * * * * * * * * * * //

dimensions      [0 3 -1 0 0 0 0];

internalField   nonuniform List<scalar> 
370
(
4.20533e-08
-4.20544e-08
3.02403e-08
1.18133e-08
-2.68166e-08
5.70572e-08
-1.06692e-07
7.98749e-08
-2.08257e-07
1.01566e-07
-3.48562e-07
1.40304e-07
-5.61028e-07
2.12466e-07
-9.00275e-07
3.39247e-07
-1.44892e-06
5.48649e-07
-2.31088e-06
8.61961e-07
-3.56277e-06
1.25189e-06
-5.15548e-06
1.59271e-06
-6.82737e-06
1.67189e-06
-8.12053e-06
1.29316e-06
-8.51479e-06
3.94264e-07
-7.6151e-06
-8.99695e-07
-5.3715e-06
-2.2436e-06
-2.38373e-06
-2.98777e-06
-1.25148e-07
-2.25858e-06
-1.25149e-07
-4.25598e-08
5.05691e-10
-2.27905e-07
1.97159e-07
-5.11363e-07
3.40515e-07
-8.6472e-07
4.33233e-07
-1.30405e-06
5.40894e-07
-1.88475e-06
7.21004e-07
-2.69655e-06
1.02427e-06
-3.85451e-06
1.4972e-06
-5.46507e-06
2.15921e-06
-7.54817e-06
2.94506e-06
-9.94273e-06
3.64646e-06
-1.22858e-05
3.93573e-06
-1.41209e-05
3.50703e-06
-1.50488e-05
2.22106e-06
-1.47776e-05
1.23022e-07
-1.30917e-05
-2.58551e-06
-9.90812e-06
-5.42722e-06
-5.57053e-06
-7.32536e-06
-1.4238e-06
-6.40532e-06
-1.54895e-06
-1.99428e-07
1.99934e-07
-6.45721e-07
6.43452e-07
-1.21836e-06
9.13156e-07
-1.88089e-06
1.09576e-06
-2.66491e-06
1.32491e-06
-3.64447e-06
1.70057e-06
-4.91261e-06
2.29241e-06
-6.54442e-06
3.12901e-06
-8.53887e-06
4.15367e-06
-1.07625e-05
5.16864e-06
-1.295e-05
5.83404e-06
-1.47925e-05
5.77815e-06
-1.60487e-05
4.76327e-06
-1.65808e-05
2.75312e-06
-1.62865e-05
-1.71273e-07
-1.49956e-05
-3.87642e-06
-1.24233e-05
-7.99946e-06
-8.30646e-06
-1.14422e-05
-3.1077e-06
-1.16041e-05
-4.65665e-06
-3.89702e-07
5.89636e-07
-1.12429e-06
1.37804e-06
-1.97553e-06
1.76439e-06
-2.88269e-06
2.00292e-06
-3.87125e-06
2.31348e-06
-4.99649e-06
2.82581e-06
-6.30755e-06
3.60346e-06
-7.81059e-06
4.63205e-06
-9.4354e-06
5.77848e-06
-1.1033e-05
6.76622e-06
-1.24257e-05
7.2268e-06
-1.34872e-05
6.83963e-06
-1.41837e-05
5.45978e-06
-1.45372e-05
3.10661e-06
-1.4542e-05
-1.66503e-07
-1.40676e-05
-4.35081e-06
-1.27245e-05
-9.34252e-06
-9.79511e-06
-1.43717e-05
-4.75695e-06
-1.66422e-05
-9.4136e-06
-6.00937e-07
1.19057e-06
-1.61179e-06
2.3889e-06
-2.67098e-06
2.82358e-06
-3.68195e-06
3.01389e-06
-4.64837e-06
3.2799e-06
-5.5904e-06
3.76784e-06
-6.51556e-06
4.52863e-06
-7.40144e-06
5.51793e-06
-8.1898e-06
6.56683e-06
-8.80755e-06
7.38398e-06
-9.21302e-06
7.63226e-06
-9.43368e-06
7.0603e-06
-9.5595e-06
5.5856e-06
-9.69632e-06
3.24343e-06
-9.91296e-06
5.01372e-08
-1.01672e-05
-4.09655e-06
-1.01367e-05
-9.37303e-06
-8.96751e-06
-1.55409e-05
-5.41787e-06
-2.01919e-05
-1.48315e-05
-8.47935e-07
2.03851e-06
-2.11554e-06
3.65651e-06
-3.28275e-06
3.99079e-06
-4.23397e-06
3.96511e-06
-4.96489e-06
4.01082e-06
-5.47235e-06
4.2753e-06
-5.7463e-06
4.80257e-06
-5.77598e-06
5.54762e-06
-5.56131e-06
6.35216e-06
-5.13281e-06
6.95548e-06
-4.57184e-06
7.07129e-06
-4.00925e-06
6.49772e-06
-3.5985e-06
5.17485e-06
-3.48133e-06
3.12626e-06
-3.76831e-06
3.37121e-07
-4.49185e-06
-3.37301e-06
-5.47975e-06
-8.38514e-06
-6.02471e-06
-1.49959e-05
-4.5775e-06
-2.16391e-05
-1.9409e-05
-1.19257e-06
3.23107e-06
-2.71512e-06
5.17906e-06
-3.85014e-06
5.12582e-06
-4.56088e-06
4.67585e-06
-4.89277e-06
4.3427e-06
-4.85157e-06
4.2341e-06
-4.42693e-06
4.37794e-06
-3.62375e-06
4.74443e-06
-2.49052e-06
5.21893e-06
-1.13786e-06
5.60282e-06
2.61597e-07
5.67183e-06
1.50487e-06
5.25445e-06
2.39604e-06
4.28367e-06
2.7794e-06
2.7429e-06
2.53422e-06
5.82296e-07
1.59293e-06
-2.43171e-06
-1.90225e-08
-6.77319e-06
-1.8971e-06
-1.31178e-05
-2.59521e-06
-2.0941e-05
-2.20042e-05
-1.79816e-06
5.02924e-06
-3.5026e-06
6.88349e-06
-4.18971e-06
5.81293e-06
-4.20355e-06
4.68969e-06
-3.82302e-06
3.96217e-06
-3.11227e-06
3.52335e-06
-2.05235e-06
3.31802e-06
-6.28841e-07
3.32092e-06
1.12375e-06
3.46633e-06
3.0972e-06
3.62937e-06
5.10468e-06
3.66436e-06
6.92217e-06
3.43696e-06
8.32414e-06
2.88171e-06
9.12382e-06
1.94322e-06
9.15139e-06
5.54733e-07
8.25867e-06
-1.539e-06
6.29369e-06
-4.8082e-06
3.26622e-06
-1.00903e-05
2.68143e-07
-1.79429e-05
-2.17361e-05
-4.20032e-06
9.22956e-06
-3.44947e-06
6.13264e-06
-1.33765e-06
3.70111e-06
5.35003e-07
2.81704e-06
2.21119e-06
2.28598e-06
3.84201e-06
1.89253e-06
5.52197e-06
1.63806e-06
7.32939e-06
1.51351e-06
9.31038e-06
1.48534e-06
1.14455e-05
1.49425e-06
1.36288e-05
1.48101e-06
1.56891e-05
1.3767e-06
1.74197e-05
1.15108e-06
1.86062e-05
7.56728e-07
1.89966e-05
1.64362e-07
1.82561e-05
-7.98504e-07
1.59072e-05
-2.45928e-06
1.14736e-05
-5.65674e-06
5.00654e-06
-1.14759e-05
-1.67295e-05
9.22956e-06
1.53622e-05
1.90633e-05
2.18803e-05
2.41663e-05
2.60589e-05
2.76969e-05
2.92104e-05
3.06958e-05
3.219e-05
3.3671e-05
3.50477e-05
3.61988e-05
3.69555e-05
3.71199e-05
3.63214e-05
3.38621e-05
2.82054e-05
1.67295e-05
)
;

boundaryField
{
    movingWall
    {
        type            calculated;
        value           uniform 0;
    }
    fixedWalls
    {
        type            calculated;
        value           uniform 0;
    }
    frontAndBack
    {
        type            empty;
        value           nonuniform 0();
    }
}


// ************************************************************************* //
