1.275 	2.15223e-18 	-2.76991e-20 	-0.0344797 	-0.000439116 	-1.90318e-22
1.825 	2.15223e-18 	-1.39322e-20 	-0.0094973 	-0.00275483 	1.67841e-21
2.375 	2.15223e-18 	-2.66896e-23 	0.115207 	-0.0032302 	-7.00035e-22
