1.45 	0 	0 	-0.000199234 	-0.00330439 	3.97254e-21
2.35 	0 	0 	0.0932703 	-0.00775624 	2.20614e-21
