1.275 	2.15223e-18 	-2.76991e-20 	-0.0344018 	-0.000441039 	-1.92919e-22
1.825 	2.15223e-18 	-1.39322e-20 	-0.00935339 	-0.00277253 	1.71241e-21
2.375 	2.15223e-18 	-2.66896e-23 	0.11562 	-0.00326146 	-7.14534e-22
