/*--------------------------------*- C++ -*----------------------------------*\
  =========                 |
  \\      /  F ield         | OpenFOAM: The Open Source CFD Toolbox
   \\    /   O peration     | Website:  https://openfoam.org
    \\  /    A nd           | Version:  6.0
     \\/     M anipulation  |
\*---------------------------------------------------------------------------*/
FoamFile
{
    version     2.0;
    format      ascii;
    class       volScalarField;
    location    "11";
    object      p;
}
// * * * * * * * * * * * * * * * * * * * * * * * * * * * * * * * * * * * * * //

dimensions      [0 2 -2 0 0 0 0];

internalField   nonuniform List<scalar> 
2000
(
-0.361446
-0.36731
-0.368965
-0.368239
-0.366313
-0.363566
-0.360279
-0.356739
-0.353221
-0.349455
-0.36418
-0.369624
-0.370937
-0.369908
-0.367693
-0.36467
-0.361118
-0.357318
-0.353547
-0.349657
-0.369667
-0.374252
-0.374869
-0.373228
-0.370431
-0.36685
-0.36276
-0.358422
-0.354126
-0.349982
-0.377948
-0.381193
-0.38074
-0.37817
-0.374489
-0.370059
-0.365141
-0.359957
-0.354821
-0.350269
-0.38908
-0.390443
-0.388519
-0.384694
-0.379825
-0.374249
-0.368193
-0.361808
-0.35543
-0.350259
-0.403126
-0.401988
-0.398166
-0.392759
-0.386408
-0.379396
-0.371884
-0.363891
-0.355745
-0.349619
-0.420118
-0.415784
-0.409621
-0.402323
-0.394231
-0.385541
-0.376307
-0.366324
-0.355764
-0.348088
-0.439999
-0.431731
-0.42279
-0.413325
-0.40328
-0.392726
-0.381575
-0.369235
-0.355245
-0.344481
-0.462554
-0.449653
-0.437557
-0.425723
-0.413593
-0.401043
-0.387674
-0.372014
-0.351892
-0.334027
-0.487348
-0.469285
-0.453821
-0.439663
-0.425792
-0.411984
-0.39749
-0.379727
-0.354591
-0.329847
-0.513693
-0.490198
-0.47131
-0.455056
-0.440239
-0.427215
-0.416332
-0.40822
-0.407996
-0.426877
-0.540759
-0.51181
-0.489404
-0.470788
-0.454363
-0.440568
-0.429892
-0.423362
-0.425978
-0.443019
-0.56782
-0.533658
-0.507825
-0.486735
-0.468281
-0.452802
-0.440675
-0.432592
-0.431571
-0.439216
-0.594222
-0.555264
-0.526254
-0.502718
-0.481986
-0.464213
-0.449569
-0.43829
-0.431795
-0.430266
-0.619208
-0.575955
-0.54406
-0.518085
-0.494764
-0.474052
-0.455919
-0.440233
-0.427391
-0.41754
-0.641782
-0.59479
-0.560292
-0.531821
-0.505555
-0.481314
-0.458987
-0.438272
-0.419003
-0.401959
-0.660652
-0.610551
-0.573712
-0.542637
-0.513064
-0.484823
-0.457891
-0.431983
-0.406713
-0.383775
-0.674253
-0.621778
-0.582854
-0.549046
-0.515861
-0.483322
-0.451665
-0.42077
-0.390239
-0.362754
-0.680819
-0.626828
-0.586092
-0.549451
-0.512468
-0.475557
-0.43935
-0.403971
-0.369121
-0.338398
-0.678481
-0.623958
-0.581728
-0.54224
-0.501455
-0.46036
-0.420063
-0.380951
-0.342847
-0.310116
-0.665381
-0.611425
-0.568091
-0.525885
-0.481532
-0.436728
-0.393078
-0.351188
-0.310971
-0.277373
-0.639787
-0.587587
-0.543647
-0.49905
-0.451645
-0.403908
-0.357895
-0.314349
-0.273206
-0.239799
-0.600228
-0.551039
-0.507121
-0.460702
-0.411062
-0.361455
-0.314292
-0.270343
-0.22949
-0.197259
-0.545614
-0.500727
-0.457607
-0.410195
-0.359433
-0.309277
-0.262352
-0.219355
-0.180029
-0.1499
-0.475348
-0.43606
-0.394663
-0.347341
-0.296823
-0.247631
-0.202459
-0.161838
-0.125303
-0.0981585
-0.389438
-0.35701
-0.318392
-0.272437
-0.223698
-0.177084
-0.135218
-0.0984156
-0.0659531
-0.0426693
-0.288582
-0.264191
-0.229483
-0.186291
-0.140922
-0.0984834
-0.0614076
-0.0297961
-0.002709
0.0157307
-0.174232
-0.158903
-0.12923
-0.0901994
-0.0497371
-0.0129732
0.0179132
0.0429063
0.0629056
0.0749999
-0.0486076
-0.043127
-0.0194921
0.0141595
0.048471
0.0783945
0.101896
0.11852
0.128447
0.131424
0.0853245
0.0804828
0.0973095
0.124749
0.152374
0.175441
0.191983
0.200393
0.199413
0.193018
0.223979
0.208652
0.218063
0.238665
0.259504
0.276678
0.288961
0.294628
0.293544
0.306096
0.363455
0.337727
0.339149
0.352046
0.36514
0.375166
0.381306
0.382728
0.381565
0.393428
0.499805
0.464033
0.457154
0.461765
0.466476
0.468595
0.467604
0.463118
0.457318
0.461599
0.629186
0.583959
0.568787
0.564927
0.561071
0.555108
0.546826
0.53609
0.524731
0.521244
0.747939
0.694068
0.670958
0.658874
0.646737
0.633
0.617722
0.600953
0.584201
0.57377
0.852686
0.791196
0.76085
0.741217
0.721526
0.700748
0.679177
0.657006
0.635437
0.618952
0.940415
0.872539
0.83598
0.809845
0.78369
0.756931
0.730051
0.70336
0.677764
0.656218
1.00858
0.935731
0.894258
0.862975
0.831731
0.800288
0.76928
0.739096
0.710384
0.6849
1.05518
0.978923
0.93405
0.899206
0.864454
0.829798
0.79597
0.763412
0.732579
0.704395
1.07883
1.00084
0.954233
0.917568
0.88103
0.84474
0.809481
0.775724
0.743816
0.714258
1.07883
1.00084
0.954233
0.917568
0.881029
0.84474
0.809481
0.775723
0.743816
0.714258
1.05518
0.978923
0.93405
0.899206
0.864454
0.829798
0.795969
0.763412
0.732579
0.704395
1.00858
0.93573
0.894258
0.862975
0.831731
0.800288
0.76928
0.739096
0.710384
0.6849
0.940415
0.872538
0.835979
0.809844
0.78369
0.75693
0.730051
0.70336
0.677764
0.656218
0.852685
0.791196
0.760849
0.741216
0.721525
0.700748
0.679176
0.657005
0.635437
0.618951
0.747938
0.694067
0.670957
0.658873
0.646736
0.633
0.617722
0.600952
0.584201
0.573769
0.629185
0.583958
0.568786
0.564926
0.56107
0.555107
0.546825
0.536089
0.52473
0.521243
0.499804
0.464031
0.457153
0.461764
0.466475
0.468594
0.467603
0.463117
0.457317
0.461598
0.363454
0.337726
0.339148
0.352044
0.365139
0.375165
0.381305
0.382727
0.381564
0.393427
0.223978
0.208651
0.218062
0.238664
0.259503
0.276676
0.28896
0.294627
0.293543
0.306095
0.085323
0.0804813
0.0973081
0.124747
0.152372
0.17544
0.191982
0.200392
0.199412
0.193017
-0.0486093
-0.0431286
-0.0194936
0.014158
0.0484697
0.0783932
0.101895
0.118519
0.128445
0.131423
-0.174234
-0.158904
-0.129232
-0.090201
-0.0497385
-0.0129746
0.0179119
0.0429051
0.0629045
0.0749988
-0.288584
-0.264193
-0.229485
-0.186293
-0.140924
-0.0984848
-0.0614089
-0.0297974
-0.00271019
0.0157295
-0.38944
-0.357011
-0.318394
-0.272439
-0.223699
-0.177085
-0.135219
-0.0984169
-0.0659543
-0.0426704
-0.47535
-0.436061
-0.394665
-0.347342
-0.296824
-0.247633
-0.20246
-0.161839
-0.125304
-0.0981597
-0.545616
-0.500729
-0.457608
-0.410197
-0.359435
-0.309279
-0.262354
-0.219356
-0.18003
-0.149902
-0.60023
-0.551041
-0.507123
-0.460703
-0.411063
-0.361457
-0.314293
-0.270344
-0.229491
-0.19726
-0.639789
-0.587588
-0.543649
-0.499052
-0.451647
-0.403909
-0.357897
-0.31435
-0.273208
-0.2398
-0.665383
-0.611426
-0.568093
-0.525887
-0.481534
-0.43673
-0.39308
-0.351189
-0.310973
-0.277374
-0.678483
-0.62396
-0.58173
-0.542241
-0.501457
-0.460361
-0.420064
-0.380952
-0.342848
-0.310117
-0.680821
-0.62683
-0.586094
-0.549453
-0.51247
-0.475559
-0.439351
-0.403972
-0.369122
-0.338399
-0.674255
-0.62178
-0.582856
-0.549047
-0.515862
-0.483323
-0.451667
-0.420772
-0.39024
-0.362756
-0.660654
-0.610553
-0.573714
-0.542638
-0.513066
-0.484824
-0.457892
-0.431985
-0.406714
-0.383777
-0.641784
-0.594791
-0.560294
-0.531822
-0.505556
-0.481315
-0.458989
-0.438273
-0.419004
-0.40196
-0.61921
-0.575957
-0.544062
-0.518086
-0.494766
-0.474054
-0.45592
-0.440235
-0.427393
-0.417541
-0.594224
-0.555266
-0.526256
-0.50272
-0.481987
-0.464214
-0.44957
-0.438292
-0.431796
-0.430267
-0.567822
-0.533659
-0.507827
-0.486737
-0.468283
-0.452803
-0.440676
-0.432594
-0.431572
-0.439218
-0.540761
-0.511811
-0.489406
-0.470789
-0.454364
-0.44057
-0.429893
-0.423363
-0.425979
-0.44302
-0.513694
-0.490199
-0.471311
-0.455057
-0.440241
-0.427216
-0.416333
-0.408221
-0.407997
-0.426878
-0.48735
-0.469286
-0.453822
-0.439665
-0.425793
-0.411985
-0.397491
-0.379728
-0.354592
-0.329849
-0.462555
-0.449654
-0.437558
-0.425724
-0.413595
-0.401044
-0.387675
-0.372015
-0.351893
-0.334028
-0.44
-0.431732
-0.422791
-0.413326
-0.403281
-0.392727
-0.381576
-0.369236
-0.355246
-0.344482
-0.420119
-0.415785
-0.409622
-0.402324
-0.394232
-0.385542
-0.376308
-0.366325
-0.355765
-0.348089
-0.403127
-0.401989
-0.398167
-0.392759
-0.386409
-0.379397
-0.371885
-0.363892
-0.355745
-0.34962
-0.389081
-0.390444
-0.38852
-0.384694
-0.379826
-0.37425
-0.368194
-0.361809
-0.355431
-0.350259
-0.377949
-0.381194
-0.38074
-0.37817
-0.374489
-0.37006
-0.365142
-0.359958
-0.354821
-0.350269
-0.369668
-0.374253
-0.374869
-0.373229
-0.370431
-0.36685
-0.362761
-0.358422
-0.354127
-0.349982
-0.36418
-0.369624
-0.370937
-0.369908
-0.367693
-0.364671
-0.361119
-0.357318
-0.353547
-0.349657
-0.361446
-0.36731
-0.368966
-0.368239
-0.366313
-0.363566
-0.360279
-0.356739
-0.353221
-0.349455
-0.302876
-0.134547
-0.0882223
-0.0346383
-0.0205759
-0.00683591
-0.00173327
0.00235656
0.00201218
0.00432328
-0.304138
-0.13513
-0.0885353
-0.034889
-0.0206929
-0.00693745
-0.00179598
0.0023122
0.00198562
0.00429575
-0.306591
-0.13628
-0.0891529
-0.0353887
-0.0209242
-0.00713849
-0.00192009
0.00222433
0.00193323
0.00424099
-0.31009
-0.137967
-0.0900581
-0.0361338
-0.0212649
-0.00743503
-0.00210306
0.00209463
0.00185642
0.00415959
-0.314387
-0.140146
-0.0912176
-0.0371151
-0.0217068
-0.00782077
-0.00234105
0.00192551
0.00175727
0.00405235
-0.319132
-0.142739
-0.0925745
-0.0383095
-0.022236
-0.00828578
-0.00262849
0.00172028
0.00163831
0.0039204
-0.324179
-0.145803
-0.0941217
-0.0397009
-0.0228431
-0.00881981
-0.00295978
0.00148337
0.00150187
0.00376612
-0.329925
-0.149937
-0.0960931
-0.0413758
-0.0235637
-0.00943166
-0.00333786
0.00121763
0.00134873
0.00359339
-0.334602
-0.155516
-0.098658
-0.0434971
-0.0244588
-0.0101549
-0.00377622
0.000916576
0.00118172
0.00339963
-0.327639
-0.158375
-0.100035
-0.0454702
-0.0252531
-0.0108937
-0.00422907
0.000573619
0.00102165
0.00315742
-0.259799
-0.150325
-0.09652
-0.0493455
-0.0264996
-0.0129457
-0.00558881
-0.000721204
0.000533461
0.00209532
-0.200856
-0.141468
-0.0901081
-0.0505497
-0.0283882
-0.0158057
-0.00811134
-0.00286297
-0.000643188
0.000772814
-0.158812
-0.12323
-0.0799407
-0.0483298
-0.0294599
-0.0181037
-0.0104624
-0.00495937
-0.001868
-0.00025232
-0.118396
-0.101752
-0.0699263
-0.0457267
-0.0301553
-0.0199026
-0.0124447
-0.00682702
-0.00301628
-0.000956941
-0.0885019
-0.0839932
-0.0628129
-0.044149
-0.0307673
-0.0212492
-0.0139919
-0.00834578
-0.00401785
-0.00140202
-0.0679116
-0.0707863
-0.05769
-0.0430014
-0.0310661
-0.0221005
-0.0150852
-0.00947895
-0.00482175
-0.00167232
-0.0545414
-0.06126
-0.053718
-0.0419648
-0.0311173
-0.0226028
-0.0158243
-0.0102798
-0.00542462
-0.00183666
-0.0460592
-0.0546047
-0.0506754
-0.0410969
-0.0310869
-0.0229011
-0.0163044
-0.0108153
-0.0058463
-0.00193613
-0.0410864
-0.0503737
-0.0486221
-0.0405091
-0.0310613
-0.0230662
-0.0165848
-0.011139
-0.00611184
-0.00199191
-0.0387744
-0.0483032
-0.0475913
-0.0402294
-0.03106
-0.0231376
-0.0167095
-0.0112885
-0.00624206
-0.00201455
-0.230283
-0.258385
-0.284442
-0.308733
-0.331633
-0.353627
-0.375309
-0.397295
-0.420037
-0.444089
-0.0775519
-0.0876389
-0.0967262
-0.105057
-0.11294
-0.120764
-0.128999
-0.1382
-0.14897
-0.163064
-0.0551005
-0.0642435
-0.0730006
-0.0813449
-0.0892381
-0.0966333
-0.103484
-0.10976
-0.115453
-0.120671
-0.0279455
-0.0336143
-0.0390767
-0.0443519
-0.0494619
-0.0544303
-0.0592807
-0.0640354
-0.0686906
-0.0731181
-0.0222388
-0.026556
-0.0307474
-0.0348096
-0.0387388
-0.0425312
-0.0461832
-0.049692
-0.0530343
-0.0561728
-0.0169481
-0.0201273
-0.0232471
-0.0263067
-0.0293055
-0.0322433
-0.0351198
-0.0379337
-0.0406705
-0.0433285
-0.0157526
-0.0182562
-0.0207228
-0.0231484
-0.0255294
-0.0278631
-0.0301469
-0.0323785
-0.03455
-0.0366715
-0.0148517
-0.0168773
-0.0188856
-0.0208727
-0.0228349
-0.0247689
-0.0266717
-0.0285404
-0.0303703
-0.0321668
-0.0147157
-0.0164593
-0.018194
-0.0199153
-0.021619
-0.0233013
-0.0249587
-0.0265881
-0.0281864
-0.0297538
-0.0146279
-0.0162231
-0.0178147
-0.0193987
-0.0209717
-0.0225304
-0.0240716
-0.0255925
-0.0270908
-0.0285641
0.155906
0.114841
0.0699159
0.0269971
-0.0147225
-0.0555674
-0.0949215
-0.132238
-0.167271
-0.199946
0.107377
0.0815192
0.0550411
0.0323099
0.0121802
-0.0065046
-0.0238073
-0.0395293
-0.0536483
-0.0662744
0.063111
0.047421
0.0325974
0.0197413
0.00789905
-0.00355667
-0.0146847
-0.0254031
-0.0356937
-0.045585
0.0433732
0.0343658
0.025848
0.0182077
0.0109883
0.00394173
-0.00292472
-0.00955477
-0.015929
-0.0220548
0.028054
0.02214
0.0164631
0.0112136
0.00615234
0.00116058
-0.0037521
-0.00855543
-0.0132378
-0.0177988
0.0180303
0.0141756
0.0103814
0.00678269
0.0032728
-0.000209257
-0.00366067
-0.0070655
-0.0104161
-0.0137106
0.0104737
0.00777148
0.00505334
0.00240674
-0.000212886
-0.0028341
-0.0054542
-0.00806249
-0.0106514
-0.0132162
0.00541164
0.00344123
0.00142693
-0.000579384
-0.00259176
-0.00462109
-0.00666452
-0.00871488
-0.010766
-0.0128131
0.00215192
0.000580091
-0.00103739
-0.00267751
-0.00434283
-0.00603462
-0.00774877
-0.00947937
-0.0112208
-0.0129679
0.000593517
-0.000803797
-0.00224268
-0.00371306
-0.00521338
-0.0067411
-0.00829176
-0.0098604
-0.0114423
-0.0130329
0.324651
0.323962
0.322318
0.319319
0.314197
0.30571
0.292087
0.270951
0.239673
0.195034
0.235061
0.234039
0.231382
0.226778
0.219917
0.210357
0.197521
0.180761
0.15933
0.132715
0.164533
0.163495
0.160798
0.156246
0.149757
0.141205
0.130389
0.11709
0.100892
0.0818949
0.113174
0.11236
0.110231
0.106648
0.101612
0.0951375
0.0872075
0.0778318
0.0669336
0.054861
0.0770649
0.0764738
0.0749178
0.0722923
0.0686195
0.0639422
0.058287
0.0516912
0.0441344
0.03583
0.0520753
0.051651
0.0505319
0.0486435
0.0460102
0.0426762
0.0386781
0.0340593
0.0288382
0.0231643
0.0350748
0.0347654
0.0339488
0.0325713
0.0306525
0.0282275
0.0253262
0.0219809
0.0182112
0.0141028
0.0239019
0.0236676
0.0230494
0.0220067
0.0205549
0.0187215
0.0165305
0.0140067
0.0111707
0.00807577
0.0171415
0.0169516
0.0164508
0.0156061
0.01443
0.0129442
0.0111678
0.00911911
0.00681629
0.00429145
0.0139561
0.0137866
0.0133404
0.012588
0.0115401
0.010216
0.00863215
0.0068046
0.00475036
0.00249293
0.475108
0.476789
0.483169
0.494324
0.510169
0.531023
0.557348
0.589669
0.628517
0.674127
0.472867
0.474523
0.480823
0.491822
0.507419
0.527896
0.553658
0.585142
0.622739
0.666565
0.468435
0.470048
0.476195
0.486892
0.502004
0.521742
0.546394
0.576227
0.61135
0.651648
0.461914
0.463474
0.469412
0.479678
0.494091
0.512756
0.535788
0.563201
0.594671
0.629781
0.45344
0.454955
0.460644
0.470376
0.483907
0.501206
0.522164
0.546452
0.57317
0.601545
0.443182
0.444675
0.450099
0.459215
0.471712
0.487392
0.505882
0.526432
0.54742
0.567674
0.431334
0.432875
0.438054
0.446511
0.457862
0.471721
0.487407
0.503675
0.518093
0.529019
0.4181
0.41987
0.424936
0.432804
0.443033
0.455019
0.467701
0.479198
0.486175
0.486343
0.403556
0.405806
0.41095
0.41836
0.427582
0.43779
0.447476
0.453929
0.452663
0.439182
0.387381
0.389834
0.394601
0.400948
0.408437
0.416116
0.422188
0.423413
0.414935
0.387482
0.38738
0.389834
0.3946
0.400948
0.408437
0.416115
0.422187
0.423412
0.414934
0.387481
0.403556
0.405805
0.410949
0.41836
0.427581
0.43779
0.447476
0.453929
0.452662
0.439182
0.418099
0.41987
0.424935
0.432804
0.443032
0.455018
0.467701
0.479197
0.486174
0.486343
0.431334
0.432874
0.438053
0.446511
0.457861
0.471721
0.487407
0.503674
0.518093
0.529019
0.443182
0.444675
0.450099
0.459215
0.471711
0.487392
0.505882
0.526432
0.547419
0.567673
0.45344
0.454954
0.460644
0.470375
0.483907
0.501205
0.522163
0.546452
0.57317
0.601545
0.461913
0.463474
0.469411
0.479678
0.494091
0.512755
0.535788
0.5632
0.594671
0.629781
0.468435
0.470048
0.476195
0.486892
0.502004
0.521742
0.546394
0.576227
0.611349
0.651648
0.472867
0.474523
0.480823
0.491822
0.507418
0.527896
0.553657
0.585142
0.622739
0.666565
0.475108
0.476789
0.483169
0.494324
0.510169
0.531022
0.557348
0.589669
0.628517
0.674127
0.0139555
0.013786
0.0133397
0.0125874
0.0115395
0.0102154
0.00863155
0.006804
0.00474976
0.00249234
0.0171408
0.016951
0.0164501
0.0156055
0.0144293
0.0129436
0.0111671
0.0091185
0.00681569
0.00429085
0.0239012
0.0236669
0.0230487
0.022006
0.0205542
0.0187209
0.0165299
0.0140061
0.0111701
0.00807515
0.0350742
0.0347647
0.0339482
0.0325707
0.0306518
0.0282269
0.0253256
0.0219803
0.0182106
0.0141022
0.0520747
0.0516504
0.0505312
0.0486429
0.0460095
0.0426755
0.0386774
0.0340587
0.0288375
0.0231637
0.0770643
0.0764731
0.0749171
0.0722916
0.0686189
0.0639416
0.0582864
0.0516905
0.0441337
0.0358293
0.113173
0.112359
0.11023
0.106647
0.101612
0.0951369
0.0872068
0.0778311
0.0669329
0.0548603
0.164532
0.163495
0.160797
0.156245
0.149756
0.141205
0.130388
0.117089
0.100891
0.0818941
0.235061
0.234039
0.231381
0.226778
0.219916
0.210356
0.197521
0.18076
0.15933
0.132715
0.32465
0.323961
0.322318
0.319318
0.314196
0.305709
0.292086
0.270951
0.239672
0.195033
0.000592947
-0.000804357
-0.00224323
-0.00371361
-0.00521392
-0.00674163
-0.00829228
-0.00986091
-0.0114428
-0.0130334
0.00215134
0.000579511
-0.00103797
-0.00267807
-0.00434339
-0.00603517
-0.00774932
-0.00947991
-0.0112213
-0.0129685
0.00541103
0.00344063
0.00142634
-0.000579973
-0.00259234
-0.00462166
-0.00666509
-0.00871544
-0.0107666
-0.0128137
0.0104731
0.00777084
0.00505271
0.0024061
-0.000213512
-0.00283472
-0.00545482
-0.0080631
-0.010652
-0.0132168
0.0180296
0.014175
0.0103808
0.00678206
0.00327218
-0.000209878
-0.00366128
-0.00706612
-0.0104167
-0.0137112
0.0280533
0.0221393
0.0164625
0.011213
0.00615166
0.00115991
-0.00375276
-0.00855609
-0.0132384
-0.0177994
0.0433725
0.0343651
0.0258473
0.018207
0.0109876
0.00394103
-0.00292541
-0.00955546
-0.0159297
-0.0220555
0.0631102
0.0474203
0.0325966
0.0197406
0.00789831
-0.00355741
-0.0146855
-0.0254038
-0.0356945
-0.0455857
0.107376
0.0815184
0.0550403
0.0323091
0.0121794
-0.00650542
-0.0238082
-0.0395302
-0.0536491
-0.0662753
0.155905
0.11484
0.0699149
0.0269961
-0.0147234
-0.0555684
-0.0949225
-0.132239
-0.167272
-0.199947
-0.0146284
-0.0162236
-0.0178152
-0.0193992
-0.0209722
-0.0225309
-0.0240721
-0.025593
-0.0270913
-0.0285645
-0.0147163
-0.0164599
-0.0181945
-0.0199158
-0.0216195
-0.0233018
-0.0249592
-0.0265885
-0.0281868
-0.0297543
-0.0148522
-0.0168778
-0.0188861
-0.0208732
-0.0228354
-0.0247694
-0.0266722
-0.0285408
-0.0303708
-0.0321672
-0.0157532
-0.0182568
-0.0207233
-0.0231489
-0.02553
-0.0278636
-0.0301474
-0.032379
-0.0345505
-0.036672
-0.0169487
-0.0201279
-0.0232477
-0.0263073
-0.0293061
-0.0322439
-0.0351204
-0.0379342
-0.040671
-0.043329
-0.0222394
-0.0265566
-0.030748
-0.0348102
-0.0387394
-0.0425317
-0.0461837
-0.0496925
-0.0530348
-0.0561733
-0.0279462
-0.0336149
-0.0390774
-0.0443525
-0.0494625
-0.0544309
-0.0592813
-0.064036
-0.0686912
-0.0731187
-0.0551012
-0.0642442
-0.0730013
-0.0813456
-0.0892388
-0.096634
-0.103485
-0.109761
-0.115453
-0.120672
-0.0775528
-0.0876397
-0.096727
-0.105057
-0.112941
-0.120765
-0.129
-0.138201
-0.148971
-0.163065
-0.230284
-0.258386
-0.284443
-0.308734
-0.331634
-0.353628
-0.37531
-0.397296
-0.420039
-0.44409
-0.0387748
-0.0483035
-0.0475915
-0.0402296
-0.0310601
-0.0231378
-0.0167097
-0.0112887
-0.00624218
-0.0020146
-0.0410868
-0.050374
-0.0486223
-0.0405092
-0.0310615
-0.0230664
-0.016585
-0.0111392
-0.00611196
-0.00199196
-0.0460596
-0.054605
-0.0506756
-0.0410969
-0.031087
-0.0229013
-0.0163046
-0.0108155
-0.00584642
-0.00193619
-0.0545418
-0.0612603
-0.0537181
-0.0419648
-0.0311174
-0.0226031
-0.0158245
-0.0102801
-0.00542474
-0.00183673
-0.067912
-0.0707866
-0.05769
-0.0430014
-0.0310661
-0.0221007
-0.0150855
-0.00947921
-0.00482189
-0.0016724
-0.0885023
-0.0839935
-0.0628129
-0.0441488
-0.0307673
-0.0212494
-0.0139923
-0.00834609
-0.00401803
-0.00140212
-0.118396
-0.101752
-0.0699261
-0.0457263
-0.0301552
-0.0199029
-0.0124451
-0.00682742
-0.00301652
-0.000957068
-0.158813
-0.12323
-0.0799403
-0.0483291
-0.0294596
-0.0181041
-0.010463
-0.0049599
-0.00186835
-0.000252472
-0.200857
-0.141469
-0.0901073
-0.0505485
-0.0283877
-0.0158062
-0.00811209
-0.00286367
-0.00064366
0.000772643
-0.2598
-0.150326
-0.0965192
-0.049344
-0.0264989
-0.0129461
-0.00558958
-0.00072198
0.000532923
0.00209515
-0.32764
-0.158376
-0.100034
-0.045469
-0.0252525
-0.010894
-0.00422967
0.000572984
0.00102119
0.00315728
-0.334603
-0.155516
-0.0986574
-0.0434959
-0.0244582
-0.0101552
-0.00377678
0.000915982
0.00118129
0.00339949
-0.329926
-0.149938
-0.0960926
-0.0413747
-0.0235632
-0.00943193
-0.00333838
0.00121708
0.00134835
0.00359327
-0.32418
-0.145804
-0.0941211
-0.0396999
-0.0228426
-0.00882007
-0.00296026
0.00148288
0.00150152
0.00376601
-0.319133
-0.14274
-0.092574
-0.0383086
-0.0222356
-0.00828601
-0.00262891
0.00171985
0.00163801
0.00392031
-0.314387
-0.140147
-0.0912172
-0.0371143
-0.0217064
-0.00782097
-0.0023414
0.00192515
0.00175702
0.00405227
-0.31009
-0.137968
-0.0900578
-0.0361331
-0.0212646
-0.00743519
-0.00210334
0.00209435
0.00185623
0.00415952
-0.306592
-0.13628
-0.0891527
-0.0353882
-0.0209239
-0.0071386
-0.00192029
0.00222413
0.00193309
0.00424094
-0.304139
-0.13513
-0.0885352
-0.0348887
-0.0206927
-0.00693752
-0.0017961
0.00231208
0.00198554
0.00429572
-0.302876
-0.134547
-0.0882222
-0.0346381
-0.0205759
-0.00683593
-0.0017333
0.00235652
0.00201216
0.00432327
)
;

boundaryField
{
    inlet
    {
        type            zeroGradient;
    }
    outlet
    {
        type            fixedValue;
        value           uniform 0;
    }
    cylinder
    {
        type            zeroGradient;
    }
    top
    {
        type            symmetryPlane;
    }
    bottom
    {
        type            symmetryPlane;
    }
    defaultFaces
    {
        type            empty;
    }
}


// ************************************************************************* //
