/*--------------------------------*- C++ -*----------------------------------*\
  =========                 |
  \\      /  F ield         | OpenFOAM: The Open Source CFD Toolbox
   \\    /   O peration     | Website:  https://openfoam.org
    \\  /    A nd           | Version:  6.0
     \\/     M anipulation  |
\*---------------------------------------------------------------------------*/
FoamFile
{
    version     2.0;
    format      ascii;
    class       volScalarField;
    location    "11";
    object      p;
}
// * * * * * * * * * * * * * * * * * * * * * * * * * * * * * * * * * * * * * //

dimensions      [0 2 -2 0 0 0 0];

internalField   nonuniform List<scalar> 
2000
(
-0.36165
-0.367515
-0.369145
-0.368404
-0.366461
-0.363694
-0.360383
-0.356824
-0.353308
-0.349519
-0.364393
-0.369834
-0.371122
-0.370078
-0.367846
-0.364803
-0.361228
-0.357407
-0.353635
-0.349726
-0.369896
-0.37447
-0.375062
-0.373406
-0.370591
-0.366991
-0.362879
-0.358518
-0.354213
-0.350061
-0.378198
-0.381421
-0.380945
-0.378359
-0.37466
-0.37021
-0.365271
-0.360063
-0.354906
-0.350364
-0.389355
-0.390681
-0.388737
-0.384895
-0.380008
-0.374413
-0.368338
-0.361926
-0.355513
-0.350378
-0.403427
-0.402235
-0.398398
-0.392973
-0.386604
-0.379574
-0.372046
-0.364022
-0.355825
-0.34977
-0.420444
-0.416037
-0.409866
-0.402551
-0.39444
-0.385734
-0.376488
-0.36647
-0.355837
-0.348278
-0.440346
-0.431987
-0.423048
-0.413566
-0.403501
-0.392933
-0.381775
-0.369395
-0.355299
-0.344742
-0.462917
-0.449908
-0.437827
-0.425977
-0.413826
-0.401265
-0.387893
-0.37218
-0.351922
-0.334482
-0.487722
-0.469535
-0.454101
-0.439929
-0.426036
-0.412216
-0.397712
-0.379886
-0.354665
-0.330545
-0.514073
-0.49044
-0.4716
-0.455331
-0.440487
-0.427436
-0.416509
-0.408334
-0.408181
-0.427388
-0.541145
-0.512044
-0.489704
-0.471075
-0.454619
-0.440786
-0.430044
-0.423441
-0.426088
-0.443017
-0.568209
-0.533884
-0.508136
-0.487036
-0.468549
-0.453028
-0.440834
-0.432677
-0.431655
-0.439128
-0.594612
-0.55548
-0.526573
-0.50303
-0.482263
-0.464447
-0.449736
-0.438381
-0.431852
-0.430161
-0.619594
-0.576158
-0.544382
-0.5184
-0.495043
-0.474287
-0.456088
-0.440324
-0.427418
-0.417436
-0.642157
-0.594975
-0.560609
-0.532133
-0.505827
-0.48154
-0.459152
-0.438358
-0.418996
-0.401861
-0.66101
-0.610713
-0.574018
-0.542936
-0.513322
-0.485034
-0.458044
-0.432058
-0.406669
-0.383684
-0.674589
-0.621913
-0.583142
-0.549325
-0.516096
-0.483511
-0.451801
-0.420828
-0.390154
-0.362666
-0.681129
-0.626933
-0.586355
-0.549705
-0.512676
-0.475721
-0.439465
-0.404007
-0.368993
-0.338314
-0.678763
-0.624032
-0.581963
-0.542465
-0.501634
-0.460496
-0.420156
-0.380963
-0.342675
-0.310042
-0.665638
-0.611471
-0.568299
-0.526081
-0.481684
-0.43684
-0.393152
-0.351178
-0.31076
-0.277321
-0.640024
-0.587611
-0.543829
-0.499221
-0.451773
-0.404001
-0.357955
-0.314322
-0.272964
-0.239786
-0.600454
-0.551051
-0.507282
-0.460854
-0.411175
-0.361538
-0.314346
-0.270306
-0.22923
-0.197306
-0.54584
-0.500739
-0.457756
-0.410338
-0.359542
-0.30936
-0.262411
-0.219316
-0.179766
-0.150028
-0.475586
-0.436087
-0.394812
-0.347486
-0.296939
-0.247725
-0.202531
-0.161807
-0.125052
-0.0983789
-0.389701
-0.357068
-0.318552
-0.272597
-0.223833
-0.1772
-0.135313
-0.0983997
-0.0657251
-0.0429864
-0.288881
-0.264297
-0.229667
-0.186477
-0.141089
-0.0986324
-0.0615304
-0.0297959
-0.00250784
0.0153222
-0.174573
-0.159069
-0.129449
-0.0904234
-0.0499467
-0.0131654
0.0177573
0.042885
0.0630571
0.0745155
-0.0489968
-0.0433657
-0.0197559
0.0138866
0.048205
0.0781459
0.10169
0.118429
0.128445
0.130875
0.0848885
0.0801662
0.0969951
0.124419
0.152042
0.175125
0.191694
0.200133
0.19916
0.192476
0.223503
0.208257
0.217697
0.238278
0.259105
0.276288
0.288554
0.294086
0.293078
0.307046
0.362949
0.337258
0.338736
0.351608
0.364684
0.374708
0.380804
0.382083
0.381038
0.394007
0.499283
0.463498
0.456701
0.461289
0.465978
0.468089
0.467054
0.462457
0.456786
0.461923
0.628659
0.583369
0.568304
0.564422
0.560543
0.554572
0.54625
0.53543
0.524185
0.521365
0.747417
0.693432
0.670451
0.658349
0.646189
0.632446
0.617138
0.600305
0.583641
0.573707
0.852173
0.790524
0.760327
0.740678
0.720965
0.700183
0.678591
0.656376
0.63486
0.61871
0.939916
0.871838
0.835445
0.809297
0.783121
0.756358
0.729468
0.702749
0.677168
0.65581
1.00809
0.935009
0.893715
0.862421
0.831156
0.799712
0.7687
0.7385
0.70977
0.684351
1.0547
0.978188
0.933503
0.898648
0.863876
0.829219
0.795392
0.762826
0.73195
0.703743
1.07835
1.0001
0.953683
0.917009
0.88045
0.844159
0.808904
0.775143
0.743179
0.713552
1.07835
1.0001
0.953683
0.917009
0.880449
0.844159
0.808904
0.775143
0.743179
0.713552
1.0547
0.978188
0.933503
0.898648
0.863876
0.829219
0.795391
0.762826
0.73195
0.703742
1.00809
0.935009
0.893715
0.862421
0.831155
0.799711
0.768699
0.738499
0.70977
0.68435
0.939915
0.871837
0.835444
0.809296
0.78312
0.756357
0.729467
0.702748
0.677167
0.655809
0.852172
0.790523
0.760326
0.740677
0.720964
0.700181
0.67859
0.656375
0.634859
0.618709
0.747415
0.693431
0.67045
0.658348
0.646188
0.632444
0.617137
0.600304
0.58364
0.573706
0.628658
0.583368
0.568303
0.564421
0.560542
0.554571
0.546249
0.535429
0.524184
0.521364
0.499282
0.463497
0.4567
0.461288
0.465977
0.468088
0.467053
0.462456
0.456786
0.461923
0.362948
0.337258
0.338735
0.351607
0.364683
0.374707
0.380804
0.382083
0.381039
0.394009
0.223503
0.208257
0.217697
0.238278
0.259105
0.276289
0.288555
0.294087
0.293079
0.307049
0.0848889
0.0801666
0.0969954
0.12442
0.152042
0.175126
0.191695
0.200135
0.199162
0.19248
-0.0489957
-0.0433645
-0.0197548
0.0138877
0.0482062
0.0781474
0.101692
0.118431
0.128447
0.130878
-0.174571
-0.159067
-0.129447
-0.0904214
-0.0499446
-0.0131632
0.0177597
0.0428876
0.0630598
0.0745187
-0.288877
-0.264293
-0.229664
-0.186474
-0.141086
-0.0986294
-0.0615273
-0.0297928
-0.00250473
0.0153255
-0.389696
-0.357064
-0.318548
-0.272593
-0.223829
-0.177197
-0.135309
-0.098396
-0.0657215
-0.0429827
-0.475581
-0.436081
-0.394807
-0.34748
-0.296933
-0.24772
-0.202526
-0.161802
-0.125048
-0.0983747
-0.545833
-0.500732
-0.457749
-0.410332
-0.359535
-0.309354
-0.262405
-0.219311
-0.179761
-0.150023
-0.600446
-0.551043
-0.507274
-0.460846
-0.411167
-0.361531
-0.314339
-0.270299
-0.229224
-0.1973
-0.640014
-0.587601
-0.543819
-0.499211
-0.451764
-0.403992
-0.357947
-0.314314
-0.272957
-0.239779
-0.665627
-0.61146
-0.568287
-0.52607
-0.481673
-0.43683
-0.393143
-0.35117
-0.310752
-0.277313
-0.678751
-0.62402
-0.581951
-0.542452
-0.501622
-0.460484
-0.420145
-0.380953
-0.342666
-0.310033
-0.681116
-0.626919
-0.586342
-0.549691
-0.512663
-0.475708
-0.439452
-0.403995
-0.368982
-0.338305
-0.674575
-0.621899
-0.583127
-0.54931
-0.516081
-0.483497
-0.451787
-0.420815
-0.390143
-0.362656
-0.660996
-0.610698
-0.574003
-0.54292
-0.513306
-0.485018
-0.458029
-0.432044
-0.406657
-0.383673
-0.642142
-0.594959
-0.560593
-0.532116
-0.50581
-0.481523
-0.459135
-0.438343
-0.418983
-0.40185
-0.619577
-0.576142
-0.544365
-0.518383
-0.495026
-0.474269
-0.45607
-0.440308
-0.427403
-0.417423
-0.594595
-0.555463
-0.526555
-0.503012
-0.482244
-0.464428
-0.449717
-0.438364
-0.431837
-0.430148
-0.568191
-0.533866
-0.508118
-0.487018
-0.46853
-0.453009
-0.440814
-0.432659
-0.431638
-0.439113
-0.541126
-0.512026
-0.489686
-0.471056
-0.454599
-0.440766
-0.430024
-0.423421
-0.42607
-0.443001
-0.514055
-0.490422
-0.471581
-0.455311
-0.440467
-0.427415
-0.416488
-0.408313
-0.408161
-0.427369
-0.487704
-0.469517
-0.454082
-0.43991
-0.426016
-0.412196
-0.397691
-0.379864
-0.354643
-0.330524
-0.462899
-0.44989
-0.437809
-0.425958
-0.413807
-0.401245
-0.387872
-0.372159
-0.351901
-0.334461
-0.440329
-0.43197
-0.423031
-0.413549
-0.403483
-0.392914
-0.381756
-0.369375
-0.355279
-0.344722
-0.420428
-0.416022
-0.40985
-0.402535
-0.394423
-0.385716
-0.37647
-0.366452
-0.355818
-0.348259
-0.403414
-0.402222
-0.398384
-0.392959
-0.386589
-0.379559
-0.37203
-0.364006
-0.355808
-0.349754
-0.389344
-0.39067
-0.388726
-0.384883
-0.379996
-0.3744
-0.368325
-0.361912
-0.355499
-0.350363
-0.37819
-0.381412
-0.380936
-0.378349
-0.37465
-0.3702
-0.365261
-0.360052
-0.354894
-0.350353
-0.36989
-0.374464
-0.375056
-0.3734
-0.370584
-0.366983
-0.362871
-0.35851
-0.354205
-0.350053
-0.364389
-0.36983
-0.371118
-0.370074
-0.367842
-0.364799
-0.361224
-0.357402
-0.353629
-0.349721
-0.361648
-0.367514
-0.369144
-0.368403
-0.36646
-0.363693
-0.360382
-0.356823
-0.353306
-0.349517
-0.302388
-0.13428
-0.0872238
-0.033458
-0.019287
-0.00593136
-0.00126046
0.00243342
0.00189172
0.00399996
-0.303654
-0.134862
-0.0875405
-0.0337131
-0.0194076
-0.00603386
-0.00132273
0.00239099
0.00186753
0.00397419
-0.306113
-0.136016
-0.0881683
-0.0342207
-0.0196434
-0.0062343
-0.00144422
0.00230761
0.00181982
0.0039228
-0.309623
-0.137712
-0.0890899
-0.0349772
-0.0199899
-0.00652904
-0.00162264
0.0021846
0.00174978
0.0038464
-0.313932
-0.139901
-0.0902702
-0.0359725
-0.0204386
-0.00691197
-0.00185442
0.00202408
0.00165919
0.0037457
-0.318676
-0.142501
-0.0916481
-0.0371818
-0.0209753
-0.00737341
-0.00213442
0.00182892
0.00155022
0.00362177
-0.323721
-0.145573
-0.0932186
-0.0385888
-0.0215914
-0.00790371
-0.00245755
0.00160311
0.0014248
0.00347699
-0.329592
-0.149781
-0.0952474
-0.0402936
-0.0223279
-0.00851365
-0.00282725
0.0013494
0.00128353
0.00331535
-0.334551
-0.155528
-0.0979216
-0.0424756
-0.0232491
-0.00923812
-0.00325645
0.00106148
0.00112954
0.00313328
-0.326842
-0.158114
-0.0991999
-0.0444405
-0.0240342
-0.00996629
-0.00369475
0.000731622
0.000983779
0.00289988
-0.260239
-0.150366
-0.0957543
-0.0482789
-0.0253241
-0.0120052
-0.0050382
-0.000518831
0.000524714
0.00190119
-0.200931
-0.140957
-0.0893205
-0.0495714
-0.0273495
-0.0149465
-0.00757867
-0.00263447
-0.000615882
0.000663726
-0.158192
-0.122392
-0.079249
-0.0475544
-0.0286158
-0.0173749
-0.00997101
-0.00471966
-0.00181567
-0.000294084
-0.117616
-0.100869
-0.069374
-0.0451537
-0.0294983
-0.0192987
-0.0119929
-0.0065733
-0.00293895
-0.000953919
-0.0877564
-0.0831719
-0.062337
-0.0436939
-0.0302362
-0.0207378
-0.0135744
-0.00808075
-0.00391696
-0.00137449
-0.0672728
-0.0700431
-0.0572364
-0.0425976
-0.0306127
-0.021658
-0.0147027
-0.00921257
-0.00470404
-0.00163442
-0.0539934
-0.0605831
-0.053266
-0.0415835
-0.0307149
-0.0222119
-0.0154747
-0.0100202
-0.00529796
-0.00179639
-0.0455786
-0.0539798
-0.0502246
-0.0407272
-0.0307164
-0.0225456
-0.0159817
-0.0105659
-0.00571667
-0.00189711
-0.0406478
-0.049785
-0.0481725
-0.0401431
-0.0307074
-0.0227324
-0.0162811
-0.0108989
-0.00598232
-0.00195512
-0.0383627
-0.0477375
-0.0471432
-0.0398633
-0.0307123
-0.0228138
-0.0164156
-0.0110535
-0.00611288
-0.00197932
-0.230051
-0.258012
-0.283873
-0.307915
-0.330523
-0.352195
-0.373541
-0.395194
-0.417629
-0.441543
-0.0785533
-0.0886956
-0.0978622
-0.106296
-0.114302
-0.122264
-0.130638
-0.139968
-0.150833
-0.165026
-0.0552064
-0.06436
-0.0731301
-0.0814902
-0.0894036
-0.0968257
-0.103713
-0.11004
-0.115802
-0.121123
-0.0283427
-0.0340234
-0.0394987
-0.0447878
-0.049913
-0.0548982
-0.0597668
-0.0645413
-0.0692219
-0.0736936
-0.0223362
-0.0266499
-0.0308389
-0.0348997
-0.0388288
-0.0426225
-0.0462777
-0.0497916
-0.0531448
-0.056311
-0.0170357
-0.0202095
-0.0233233
-0.0263762
-0.0293679
-0.0322981
-0.0351665
-0.0379718
-0.0407026
-0.0433656
-0.0157382
-0.0182322
-0.0206889
-0.0231042
-0.0254749
-0.0277979
-0.0300709
-0.0322914
-0.0344535
-0.0365727
-0.0148063
-0.016822
-0.0188199
-0.0207961
-0.0227468
-0.0246687
-0.0265589
-0.0284143
-0.0302317
-0.0320197
-0.0146357
-0.0163688
-0.0180926
-0.0198026
-0.0214946
-0.0231646
-0.0248093
-0.0264254
-0.0280108
-0.0295678
-0.0145378
-0.0161229
-0.0177039
-0.019277
-0.0208386
-0.0223853
-0.0239141
-0.025422
-0.0269076
-0.0283697
0.156804
0.115767
0.0704144
0.027338
-0.0144162
-0.0553132
-0.0947356
-0.132103
-0.167151
-0.199796
0.10679
0.0808727
0.0541161
0.0313077
0.0112066
-0.00745225
-0.0247489
-0.0404729
-0.0545988
-0.067242
0.0630604
0.0473775
0.0324695
0.0195991
0.00778193
-0.00365262
-0.0147729
-0.0254913
-0.0357855
-0.0456826
0.0431761
0.0341297
0.0255473
0.0178811
0.0106544
0.00360046
-0.00327653
-0.0099182
-0.0163038
-0.0224407
0.027941
0.022018
0.0163198
0.0110701
0.00601805
0.00103524
-0.00387045
-0.00866779
-0.0133446
-0.0179005
0.0179338
0.0140739
0.0102665
0.00666648
0.00316079
-0.000317089
-0.00376505
-0.00716643
-0.0105131
-0.0138032
0.010428
0.00772703
0.00500519
0.00236253
-0.000249343
-0.00286248
-0.00547471
-0.00807489
-0.0106553
-0.0132111
0.00539537
0.00342674
0.00141158
-0.000590279
-0.00259558
-0.00461751
-0.00665351
-0.00869608
-0.0107389
-0.0127772
0.00216168
0.000592232
-0.00102383
-0.00265831
-0.00431599
-0.0059998
-0.00770582
-0.00942789
-0.0111603
-0.0128979
0.000614438
-0.000780845
-0.00221778
-0.00368239
-0.00517522
-0.00669515
-0.00823785
-0.00979815
-0.0113712
-0.0129525
0.324674
0.32397
0.32241
0.319519
0.31451
0.306147
0.292657
0.271643
0.240468
0.195758
0.234975
0.233856
0.231215
0.22662
0.219736
0.210133
0.197242
0.180402
0.158867
0.13208
0.164386
0.163257
0.160588
0.156061
0.149568
0.141
0.130169
0.116861
0.100667
0.0816738
0.113029
0.112145
0.110044
0.106484
0.101449
0.0949633
0.0870215
0.0776332
0.066721
0.0546195
0.0769356
0.0762927
0.0747575
0.0721506
0.0684796
0.0637969
0.0581369
0.051538
0.043981
0.0356739
0.0519696
0.0515082
0.0504046
0.0485309
0.0459003
0.0425641
0.0385643
0.033945
0.0287241
0.0230477
0.0349953
0.0346591
0.0338546
0.0324889
0.0305738
0.0281494
0.0252496
0.0219074
0.0181423
0.0140383
0.0238457
0.0235915
0.022983
0.0219502
0.0205024
0.0186712
0.0164832
0.0139639
0.0111336
0.00804453
0.0171018
0.0168959
0.0164034
0.0155677
0.014396
0.0129134
0.0111412
0.00909833
0.00680278
0.00428591
0.0139276
0.0137438
0.0133049
0.0125606
0.011517
0.0101962
0.00861685
0.00679523
0.00474836
0.00249911
0.474493
0.476244
0.482573
0.493711
0.509553
0.530401
0.556723
0.589045
0.627905
0.673553
0.472253
0.473979
0.480227
0.491209
0.506802
0.527272
0.55303
0.584514
0.622126
0.66596
0.467825
0.469506
0.475601
0.48628
0.501386
0.521115
0.545761
0.575591
0.610732
0.65098
0.46131
0.462936
0.46882
0.479067
0.493472
0.512124
0.535148
0.562552
0.594048
0.629022
0.452846
0.454422
0.460057
0.469767
0.483285
0.500566
0.52151
0.545784
0.572537
0.60067
0.442602
0.444149
0.449517
0.458607
0.471084
0.48674
0.50521
0.525737
0.54677
0.566662
0.430774
0.432361
0.437481
0.445907
0.457231
0.471058
0.486715
0.50295
0.517425
0.527862
0.417568
0.419381
0.424387
0.432223
0.442421
0.454367
0.467013
0.478467
0.4855
0.485064
0.403053
0.405341
0.410426
0.417796
0.426971
0.437119
0.446741
0.453119
0.451869
0.437755
0.386869
0.3893
0.393956
0.400196
0.407552
0.415074
0.420988
0.422072
0.413556
0.385792
0.386877
0.389308
0.393964
0.400203
0.40756
0.415082
0.420996
0.422079
0.413563
0.385797
0.403061
0.405349
0.410433
0.417803
0.426978
0.437126
0.446748
0.453126
0.451874
0.437758
0.417575
0.419387
0.424394
0.43223
0.442427
0.454374
0.467018
0.478471
0.485504
0.485065
0.43078
0.432367
0.437487
0.445913
0.457237
0.471063
0.48672
0.502953
0.517426
0.527862
0.442608
0.444155
0.449522
0.458612
0.471089
0.486744
0.505213
0.525739
0.546771
0.566661
0.452851
0.454426
0.460061
0.469771
0.483289
0.500569
0.521512
0.545786
0.572537
0.60067
0.461314
0.462939
0.468824
0.47907
0.493474
0.512126
0.535149
0.562552
0.594048
0.629021
0.467828
0.469508
0.475603
0.486282
0.501388
0.521116
0.545762
0.575591
0.610732
0.65098
0.472254
0.47398
0.480229
0.491211
0.506803
0.527273
0.55303
0.584514
0.622126
0.665959
0.474493
0.476245
0.482573
0.493712
0.509553
0.530401
0.556723
0.589045
0.627905
0.673553
0.0139384
0.0137546
0.0133157
0.0125713
0.0115278
0.0102069
0.00862744
0.00680572
0.00475874
0.00250938
0.0171126
0.0169067
0.0164142
0.0155784
0.0144067
0.0129241
0.0111518
0.00910881
0.00681315
0.00429617
0.0238565
0.0236022
0.0229937
0.0219609
0.0205132
0.0186819
0.0164939
0.0139744
0.0111441
0.00805486
0.035006
0.0346698
0.0338653
0.0324996
0.0305844
0.02816
0.0252602
0.0219179
0.0181527
0.0140487
0.0519801
0.0515188
0.0504152
0.0485414
0.0459108
0.0425747
0.0385748
0.0339554
0.0287344
0.023058
0.076946
0.0763031
0.0747679
0.072161
0.06849
0.0638073
0.0581473
0.0515484
0.0439913
0.0356842
0.11304
0.112155
0.110054
0.106495
0.101459
0.0949736
0.0870318
0.0776434
0.0667312
0.0546296
0.164396
0.163267
0.160598
0.156071
0.149578
0.14101
0.130179
0.116871
0.100678
0.0816842
0.234984
0.233866
0.231224
0.22663
0.219746
0.210144
0.197252
0.180413
0.158878
0.132091
0.324683
0.323979
0.322419
0.319528
0.314519
0.306156
0.292666
0.271653
0.240478
0.195768
0.000624527
-0.000770981
-0.00220821
-0.00367318
-0.0051664
-0.00668674
-0.00822984
-0.00979054
-0.011364
-0.0129457
0.00217176
0.000602085
-0.0010143
-0.00264915
-0.00430723
-0.00599147
-0.00769791
-0.00942041
-0.0111532
-0.0128913
0.00540552
0.00343662
0.00142111
-0.000581162
-0.00258692
-0.00460933
-0.00664581
-0.00868886
-0.0107322
-0.0127709
0.0104382
0.00773696
0.00501473
0.00237159
-0.0002408
-0.00285446
-0.00546721
-0.00806791
-0.0106488
-0.0132052
0.0179439
0.0140836
0.0102758
0.00667523
0.00316895
-0.000309489
-0.003758
-0.00715992
-0.0105071
-0.0137977
0.027951
0.0220276
0.0163289
0.0110785
0.00602589
0.00104248
-0.00386381
-0.00866173
-0.0133391
-0.0178956
0.043186
0.0341391
0.0255562
0.0178895
0.0106621
0.00360758
-0.00327002
-0.00991231
-0.0162985
-0.0224361
0.0630706
0.0473873
0.0324786
0.0196075
0.00778963
-0.0036457
-0.0147668
-0.025486
-0.035781
-0.0456789
0.106801
0.0808836
0.054126
0.0313165
0.0112144
-0.00744546
-0.024743
-0.0404679
-0.0545946
-0.0672385
0.156814
0.115776
0.0704214
0.0273436
-0.0144116
-0.0553092
-0.0947318
-0.1321
-0.167147
-0.199793
-0.0145314
-0.0161169
-0.0176983
-0.0192716
-0.0208335
-0.0223806
-0.0239097
-0.0254179
-0.0269039
-0.0283662
-0.0146295
-0.016363
-0.0180871
-0.0197974
-0.0214896
-0.0231599
-0.0248049
-0.0264212
-0.028007
-0.0295643
-0.0148006
-0.0168167
-0.018815
-0.0207914
-0.0227424
-0.0246646
-0.026555
-0.0284107
-0.0302284
-0.0320166
-0.0157327
-0.0182272
-0.0206843
-0.0231001
-0.0254711
-0.0277944
-0.0300677
-0.0322884
-0.0344507
-0.0365699
-0.0170307
-0.0202049
-0.0233191
-0.0263725
-0.0293645
-0.032295
-0.0351637
-0.0379692
-0.0407001
-0.0433631
-0.0223318
-0.0266459
-0.0308353
-0.0348965
-0.0388261
-0.0426201
-0.0462755
-0.0497895
-0.0531428
-0.056309
-0.0283386
-0.0340198
-0.0394956
-0.0447851
-0.0499107
-0.0548961
-0.0597649
-0.0645395
-0.06922
-0.0736918
-0.0552032
-0.0643574
-0.0731278
-0.0814884
-0.089402
-0.0968244
-0.103712
-0.110039
-0.115801
-0.121122
-0.0785501
-0.0886924
-0.0978589
-0.106292
-0.1143
-0.122261
-0.130636
-0.139965
-0.15083
-0.165023
-0.230047
-0.258009
-0.283869
-0.307911
-0.330518
-0.35219
-0.373535
-0.395187
-0.41762
-0.441533
-0.0383605
-0.0477364
-0.0471416
-0.0398603
-0.0307073
-0.0228085
-0.0164118
-0.0110514
-0.00611138
-0.0019769
-0.0406457
-0.0497842
-0.0481712
-0.0401399
-0.0307021
-0.0227268
-0.016277
-0.0108966
-0.00598075
-0.00195273
-0.0455765
-0.0539795
-0.0502237
-0.0407238
-0.0307104
-0.0225393
-0.015977
-0.0105632
-0.00571497
-0.00189481
-0.0539915
-0.060584
-0.0532659
-0.0415795
-0.0307075
-0.022204
-0.0154688
-0.0100169
-0.0052961
-0.00179428
-0.0672711
-0.0700458
-0.0572378
-0.0425927
-0.0306029
-0.0216474
-0.0146947
-0.00920829
-0.00470206
-0.00163266
-0.0877551
-0.0831772
-0.0623406
-0.0436876
-0.0302223
-0.0207227
-0.0135633
-0.00807507
-0.00391501
-0.00137333
-0.117616
-0.100879
-0.06938
-0.0451444
-0.0294781
-0.0192769
-0.0119773
-0.00656586
-0.00293737
-0.000953674
-0.158195
-0.122412
-0.0792596
-0.04754
-0.0285859
-0.0173437
-0.00994977
-0.00471046
-0.00181497
-0.000295033
-0.200936
-0.140994
-0.0893425
-0.0495536
-0.0273085
-0.0149046
-0.00755132
-0.00262364
-0.000616214
0.000661475
-0.260238
-0.150417
-0.0957917
-0.0482655
-0.0252802
-0.0119584
-0.00500789
-0.000507028
0.000524259
0.0018981
-0.326837
-0.158164
-0.0992374
-0.0444326
-0.0240005
-0.00992922
-0.00367036
0.000741629
0.000984425
0.00289802
-0.334546
-0.155576
-0.0979582
-0.0424684
-0.0232179
-0.00920375
-0.00323384
0.00107079
0.00113028
0.00313166
-0.32959
-0.149829
-0.0952818
-0.0402863
-0.0222986
-0.00848193
-0.00280652
0.00135784
0.00128418
0.00331386
-0.323722
-0.145618
-0.0932504
-0.0385819
-0.0215647
-0.00787508
-0.00243888
0.00161065
0.00142537
0.00347568
-0.318679
-0.142542
-0.0916767
-0.0371755
-0.0209517
-0.00734825
-0.00211801
0.00183552
0.00155074
0.00362062
-0.313934
-0.139937
-0.0902949
-0.0359671
-0.0204185
-0.00689075
-0.00184051
0.00202966
0.00165965
0.00374474
-0.309626
-0.137741
-0.08911
-0.0349728
-0.0199737
-0.00651214
-0.00161144
0.00218908
0.00175018
0.00384566
-0.306116
-0.136038
-0.0881831
-0.0342175
-0.0196315
-0.00622206
-0.00143598
0.00231085
0.00182012
0.00392229
-0.303655
-0.134876
-0.0875495
-0.033711
-0.0194002
-0.00602638
-0.00131762
0.00239301
0.00186773
0.00397387
-0.302389
-0.134284
-0.0872269
-0.0334574
-0.0192846
-0.00592893
-0.00125878
0.00243406
0.00189179
0.0039999
)
;

boundaryField
{
    inlet
    {
        type            zeroGradient;
    }
    outlet
    {
        type            fixedValue;
        value           uniform 0;
    }
    cylinder
    {
        type            zeroGradient;
    }
    top
    {
        type            symmetryPlane;
    }
    bottom
    {
        type            symmetryPlane;
    }
    defaultFaces
    {
        type            empty;
    }
}


// ************************************************************************* //
