/*--------------------------------*- C++ -*----------------------------------*\
  =========                 |
  \\      /  F ield         | OpenFOAM: The Open Source CFD Toolbox
   \\    /   O peration     | Website:  https://openfoam.org
    \\  /    A nd           | Version:  6.0
     \\/     M anipulation  |
\*---------------------------------------------------------------------------*/
FoamFile
{
    version     2.0;
    format      ascii;
    class       surfaceScalarField;
    location    "11";
    object      phi;
}
// * * * * * * * * * * * * * * * * * * * * * * * * * * * * * * * * * * * * * //

dimensions      [0 3 -1 0 0 0 0];

internalField   nonuniform List<scalar> 
3880
(
-1.79691e-05
1.79689e-05
1.64538e-10
-5.33446e-05
3.53695e-05
6.03737e-09
-9.48946e-05
4.15345e-05
1.56054e-08
-0.000135517
4.0595e-05
2.74443e-08
-0.000170831
3.52731e-05
4.06687e-08
-0.000198417
2.75313e-05
5.47118e-08
-0.000217346
1.886e-05
6.92616e-08
-0.000227872
1.0442e-05
8.41471e-08
-0.00023123
3.25877e-06
9.88956e-08
-1.90382e-06
1.14163e-07
-0.00022944
-1.72787e-05
3.52476e-05
-5.06573e-05
6.87481e-05
-8.90451e-05
7.99223e-05
-0.000125453
7.70033e-05
-0.000155541
6.53611e-05
-0.000176855
4.88454e-05
-0.000188378
3.03825e-05
-0.000190261
1.23247e-05
-0.000183682
-3.32023e-06
-1.48904e-05
-0.000170695
-1.58636e-05
5.11112e-05
-4.5169e-05
9.80535e-05
-7.71485e-05
0.000111902
-0.000105084
0.000104939
-0.00012476
8.50374e-05
-0.00013369
5.77756e-05
-0.000130697
2.73892e-05
-0.000115722
-2.65064e-06
-8.98029e-05
-2.92392e-05
-4.96473e-05
-5.50461e-05
-1.36389e-05
6.47501e-05
-3.66058e-05
0.00012102
-5.87122e-05
0.000134008
-7.37502e-05
0.000119977
-7.78053e-05
8.90925e-05
-6.84448e-05
4.84152e-05
-4.43156e-05
3.26001e-06
-5.04059e-06
-4.19256e-05
4.86129e-05
-8.28927e-05
-0.00011555
0.000114516
-1.04447e-05
7.51948e-05
-2.44607e-05
0.000135036
-3.2788e-05
0.000142335
-3.00695e-05
0.000117258
-1.29999e-05
7.20229e-05
2.05578e-05
1.48574e-05
7.20154e-05
-4.81975e-05
0.000142127
-0.000112037
0.000230591
-0.000171357
-0.000220331
0.000335371
-6.03352e-06
8.12284e-05
-7.95791e-06
0.000136961
2.13579e-06
0.000132242
2.83368e-05
9.10573e-05
7.28881e-05
2.74716e-05
0.00013716
-4.94146e-05
0.000222233
-0.00013327
0.0003291
-0.000218904
0.000458156
-0.000300413
-0.000369798
0.000607624
-9.76626e-08
8.1326e-05
1.38645e-05
0.000122999
4.80231e-05
9.80831e-05
0.000104811
3.42691e-05
0.000184888
-5.26054e-05
0.000288141
-0.000152668
0.000414472
-0.000259601
0.000564406
-0.000368839
0.000738981
-0.000474988
-0.000568055
0.000937239
7.64276e-06
7.36833e-05
4.18757e-05
8.87657e-05
0.00010677
3.3189e-05
0.00020293
-6.18917e-05
0.000329071
-0.000178746
0.000482814
-0.00030641
0.000661521
-0.000438307
0.00086344
-0.000570758
0.00108897
-0.000700516
-0.00082046
0.00134137
1.72931e-05
5.63902e-05
7.6379e-05
2.96798e-05
0.000179241
-6.96728e-05
0.000324964
-0.000207615
0.000510595
-0.000364378
0.000731359
-0.000527174
0.000980955
-0.000687903
0.00125252
-0.000842322
0.0015422
-0.000990196
-0.00114199
0.00186372
2.85873e-05
2.78029e-05
0.000116456
-5.81887e-05
0.000263782
-0.000216999
0.000469137
-0.00041297
0.000729701
-0.000624943
0.00104098
-0.00083845
0.00139613
-0.00104306
0.00178432
-0.00123051
0.00218974
-0.00139562
-0.00154213
0.00258989
4.07152e-05
-1.29124e-05
0.000159264
-0.000176738
0.000353974
-0.000411709
0.000623512
-0.000682507
0.000967174
-0.000968605
0.00138555
-0.00125683
0.00188177
-0.00153928
0.00246476
-0.0018135
0.00315721
-0.00208807
-0.00240089
0.00401597
5.2604e-05
-6.55164e-05
0.000200833
-0.000324967
0.00043981
-0.000650686
0.000765912
-0.00100861
0.00117633
-0.00137902
0.00166904
-0.00174954
0.00224281
-0.00211305
0.00289665
-0.00246733
0.00362493
-0.00281635
-0.00316883
0.00439287
6.37378e-05
-0.000129254
0.000239123
-0.000500352
0.000516592
-0.000928154
0.000887989
-0.00138001
0.00134539
-0.00183642
0.00188051
-0.00228465
0.00248398
-0.00271653
0.00314391
-0.00312726
0.00384169
-0.00351413
-0.00387081
0.00454366
7.41332e-05
-0.000203387
0.000273851
-0.00070007
0.00058376
-0.00123806
0.00098991
-0.00178616
0.00147825
-0.00232477
0.00203402
-0.00284042
0.0026413
-0.00332381
0.0032823
-0.00376826
0.00393576
-0.00416759
-0.0045105
0.00457546
8.39273e-05
-0.000287315
0.000305142
-0.000921285
0.000641549
-0.00157447
0.00107278
-0.00221739
0.00157865
-0.00283063
0.00213881
-0.00340059
0.00273297
-0.00391797
0.00334098
-0.00437627
0.00394277
-0.00476937
-0.00508636
0.00451862
9.31042e-05
-0.000380419
0.000332724
-0.0011609
0.000689361
-0.00193111
0.00113602
-0.00266405
0.00164681
-0.00334142
0.00219705
-0.00395083
0.00276397
-0.00448488
0.00332728
-0.00493958
0.00386961
-0.0053117
-0.00559405
0.0043773
0.000101418
-0.000481837
0.000355709
-0.0014152
0.00072548
-0.00230088
0.00117723
-0.00311581
0.00168014
-0.00384433
0.00220661
-0.00447729
0.0027331
-0.00501137
0.00324083
-0.00544731
0.00371608
-0.00578695
-0.00602883
0.00415086
0.000108438
-0.000590274
0.000372755
-0.00167951
0.000747497
-0.00267562
0.00119316
-0.00356147
0.00167512
-0.00432629
0.0021644
-0.00496657
0.00263836
-0.00548533
0.003081
-0.00588996
0.00348289
-0.00618884
-0.00638723
0.00384129
0.000113643
-0.000703917
0.000382359
-0.00194823
0.000752924
-0.00304619
0.00118077
-0.00398931
0.00162894
-0.00477447
0.00206873
-0.00540635
0.00247985
-0.00589645
0.0028501
-0.0062602
0.00317452
-0.00651325
-0.00666773
0.00345501
0.000116506
-0.000820423
0.000383119
-0.00221484
0.000739704
-0.00340277
0.00113802
-0.00438763
0.00154051
-0.00517696
0.00192032
-0.00578617
0.00226075
-0.00623688
0.00255391
-0.00655336
0.00279919
-0.00675854
-0.00687082
0.00300229
0.000116566
-0.000936989
0.000373945
-0.00247222
0.000706549
-0.00373538
0.00106427
-0.00474535
0.00141075
-0.00552343
0.00172246
-0.00609787
0.00198705
-0.00650147
0.00220108
-0.0067674
0.00236784
-0.0069253
-0.00699877
0.00249578
0.000113424
-0.00105041
0.000354083
-0.00271288
0.000652973
-0.00403427
0.000960209
-0.00505259
0.00124238
-0.0058056
0.0014804
-0.0063359
0.00166666
-0.00668773
0.0018019
-0.00690264
0.00189254
-0.00701594
-0.00705508
0.00194885
0.000106825
-0.00115724
0.000323261
-0.00292931
0.000579411
-0.00429042
0.000827817
-0.00530099
0.00103958
-0.00601737
0.00120081
-0.00649712
0.00130857
-0.0067955
0.00136722
-0.00696128
0.00138543
-0.00703415
-0.00704406
0.0013744
9.66248e-05
-0.00125386
0.000281608
-0.0031143
0.000487026
-0.00449583
0.000670008
-0.00548398
0.000807428
-0.00615479
0.0008909
-0.00658059
0.000921833
-0.00682643
0.000907359
-0.00694681
0.000857577
-0.00698437
-0.00697037
0.000783895
8.28076e-05
-0.00133667
0.000229646
-0.00326114
0.000377586
-0.00464377
0.000490304
-0.00559669
0.000551328
-0.00621581
0.000557783
-0.00658705
0.000514802
-0.00678345
0.000431448
-0.00686345
0.000318397
-0.00687131
-0.00683875
0.000186773
6.54924e-05
-0.00140216
0.000168263
-0.00336391
0.000253346
-0.00472886
0.000292583
-0.00563593
0.000276652
-0.00619988
0.000207927
-0.00651832
9.45953e-05
-0.00667012
-5.31829e-05
-0.00671568
-0.000224901
-0.0066996
-0.00665373
-0.000409923
4.49504e-05
-0.00144711
9.87184e-05
-0.00341768
0.000117008
-0.00474715
8.09822e-05
-0.0055999
-1.14176e-05
-0.00610748
-0.000153
-0.00637674
-0.000333138
-0.00648998
-0.000541238
-0.00650758
-0.000767569
-0.00647327
-0.00641908
-0.00100222
2.16315e-05
-0.00146874
2.26807e-05
-0.00341872
-2.82488e-05
-0.00469622
-0.00014005
-0.0054881
-0.000307792
-0.00593974
-0.000520013
-0.00616452
-0.00076411
-0.00624589
-0.00102943
-0.00624225
-0.00130755
-0.00619515
-0.00613524
-0.00159138
-3.79469e-06
-0.00146495
-5.76968e-05
-0.00336482
-0.000178647
-0.00457527
-0.000365601
-0.00530115
-0.000607391
-0.00569795
-0.000889074
-0.00588284
-0.0011964
-0.00593856
-0.00151853
-0.00592012
-0.00184843
-0.00586525
-0.00579524
-0.00218844
-3.03744e-05
-0.00143458
-0.000139598
-0.0032556
-0.00032935
-0.00438552
-0.000589313
-0.00504119
-0.000903589
-0.00538367
-0.00125553
-0.00553089
-0.00163059
-0.0055635
-0.00201837
-0.00553234
-0.00241492
-0.00546869
-0.00540746
-0.0028027
-5.68757e-05
-0.0013777
-0.000219511
-0.00309296
-0.000473958
-0.00413107
-0.000801287
-0.00471386
-0.0011823
-0.00500265
-0.00160106
-0.00511214
-0.00204623
-0.00511832
-0.00251057
-0.00506801
-0.00299315
-0.00498611
-0.00487065
-0.00352996
-8.22246e-05
-0.00129547
-0.000294395
-0.00288079
-0.000606734
-0.00381873
-0.000991419
-0.00432917
-0.00142486
-0.00456922
-0.00188896
-0.00464803
-0.00237074
-0.00463655
-0.0028612
-0.00457755
-0.00335418
-0.00449313
-0.00439135
-0.00383348
-0.000105786
-0.00118969
-0.000362877
-0.0026237
-0.000726325
-0.00345528
-0.00116004
-0.00389546
-0.00163645
-0.00409281
-0.00213583
-0.00414865
-0.00264473
-0.00412765
-0.00315416
-0.00406812
-0.00365694
-0.00399035
-0.00390481
-0.00414348
-0.000127216
-0.00106247
-0.000424373
-0.00232655
-0.000832633
-0.00304702
-0.00130873
-0.00341936
-0.00182208
-0.00357945
-0.00235222
-0.00361852
-0.00288607
-0.0035938
-0.00341547
-0.00353872
-0.00393486
-0.00347096
-0.0034
-0.00443967
-0.000146256
-0.000916217
-0.000478455
-0.00199435
-0.000925482
-0.00259999
-0.00143808
-0.00290676
-0.00198347
-0.00303406
-0.00254103
-0.00306096
-0.00309845
-0.00303638
-0.00364875
-0.00298842
-0.00418796
-0.00293175
-0.00287418
-0.00471378
-0.000162659
-0.000753558
-0.000524668
-0.00163234
-0.00100444
-0.00212022
-0.00154786
-0.00236334
-0.00212059
-0.00246134
-0.00270211
-0.00247944
-0.003281
-0.0024575
-0.00385132
-0.00241809
-0.00441027
-0.0023728
-0.00232771
-0.00495674
-0.000176176
-0.000577382
-0.000562505
-0.00124601
-0.00106887
-0.00161385
-0.00163735
-0.00179487
-0.00223249
-0.00186619
-0.00283405
-0.00187789
-0.00343131
-0.00186024
-0.00401921
-0.00183019
-0.00459572
-0.00179629
-0.00176301
-0.00516042
-0.000186567
-0.000390814
-0.000591447
-0.00084113
-0.00111803
-0.00108727
-0.00170558
-0.00120731
-0.00231792
-0.00125385
-0.00293501
-0.00126079
-0.00354675
-0.0012485
-0.00414868
-0.00122826
-0.00473926
-0.00120571
-0.00118377
-0.0053185
-0.000193623
-0.000197191
-0.000611032
-0.000423721
-0.00115124
-0.000547062
-0.00175166
-0.000606895
-0.00237565
-0.000629865
-0.00300335
-0.000633085
-0.00362506
-0.000626787
-0.00423671
-0.000616614
-0.00483707
-0.000605351
-0.000594456
-0.00542638
-0.000197192
9.3084e-10
-0.000620916
3.21033e-09
-0.00116798
5.01559e-09
-0.00177488
5.86342e-09
-0.00240475
5.90797e-09
-0.00303785
5.39564e-09
-0.00366464
4.54888e-09
-0.00428125
3.53858e-09
-0.00488661
2.3523e-09
9.53107e-10
-0.00548106
-0.000197192
0.000197193
-0.000620916
0.000423728
-0.00116798
0.000547072
-0.00177488
0.000606907
-0.00240475
0.000629876
-0.00303784
0.000633096
-0.00366464
0.000626796
-0.00428125
0.000616621
-0.00488661
0.000605356
0.000594458
-0.00548106
-0.000193623
0.000390816
-0.000611032
0.000841136
-0.00115124
0.00108728
-0.00175166
0.00120733
-0.00237564
0.00125386
-0.00300335
0.0012608
-0.00362506
0.00124851
-0.00423671
0.00122827
-0.00483707
0.00120571
0.00118377
-0.00542638
-0.000186567
0.000577383
-0.000591446
0.00124602
-0.00111803
0.00161386
-0.00170558
0.00179488
-0.00231792
0.0018662
-0.00293501
0.0018779
-0.00354675
0.00186024
-0.00414867
0.0018302
-0.00473926
0.00179629
0.00176301
-0.0053185
-0.000176176
0.000753559
-0.000562503
0.00163234
-0.00106887
0.00212023
-0.00163734
0.00236335
-0.00223249
0.00246135
-0.00283404
0.00247945
-0.0034313
0.0024575
-0.00401921
0.0024181
-0.00459572
0.0023728
0.00232771
-0.00516042
-0.000162659
0.000916218
-0.000524667
0.00199435
-0.00100444
0.0026
-0.00154786
0.00290677
-0.00212058
0.00303407
-0.00270211
0.00306097
-0.00328099
0.00303639
-0.00385131
0.00298842
-0.00441026
0.00293175
0.00287418
-0.00495673
-0.000146256
0.00106247
-0.000478454
0.00232655
-0.000925479
0.00304703
-0.00143808
0.00341937
-0.00198347
0.00357946
-0.00254102
0.00361853
-0.00309845
0.00359381
-0.00364875
0.00353872
-0.00418795
0.00347096
0.0034
-0.00471378
-0.000127215
0.00118969
-0.000424372
0.0026237
-0.00083263
0.00345528
-0.00130873
0.00389547
-0.00182208
0.00409281
-0.00235221
0.00414866
-0.00288606
0.00412766
-0.00341546
0.00406813
-0.00393485
0.00399035
0.00390481
-0.00443966
-0.000105785
0.00129547
-0.000362875
0.00288079
-0.000726322
0.00381873
-0.00116003
0.00432918
-0.00163644
0.00456923
-0.00213582
0.00464804
-0.00264472
0.00463655
-0.00315415
0.00457755
-0.00365693
0.00449313
0.00439136
-0.00414347
-8.2224e-05
0.0013777
-0.000294393
0.00309296
-0.00060673
0.00413107
-0.000991415
0.00471386
-0.00142485
0.00500266
-0.00188896
0.00511214
-0.00237073
0.00511833
-0.00286119
0.00506802
-0.00335417
0.00498611
0.00487065
-0.00383347
-5.68751e-05
0.00143457
-0.000219509
0.0032556
-0.000473955
0.00438552
-0.000801283
0.00504119
-0.0011823
0.00538367
-0.00160105
0.0055309
-0.00204623
0.00556351
-0.00251056
0.00553235
-0.00299315
0.0054687
0.00540746
-0.00352996
-3.03738e-05
0.00146495
-0.000139597
0.00336482
-0.000329346
0.00457527
-0.000589308
0.00530115
-0.000903584
0.00569795
-0.00125552
0.00588284
-0.00163058
0.00593856
-0.00201836
0.00592013
-0.00241491
0.00586525
0.00579524
-0.00280269
-3.79416e-06
0.00146874
-5.76951e-05
0.00341872
-0.000178644
0.00469621
-0.000365596
0.0054881
-0.000607385
0.00593974
-0.000889067
0.00616452
-0.00119639
0.00624589
-0.00151852
0.00624225
-0.00184842
0.00619515
0.00613525
-0.00218843
2.1632e-05
0.00144711
2.26824e-05
0.00341767
-2.82456e-05
0.00474714
-0.000140045
0.0055999
-0.000307785
0.00610748
-0.000520005
0.00637674
-0.0007641
0.00648999
-0.00102942
0.00650758
-0.00130754
0.00647327
0.00641908
-0.00159137
4.49508e-05
0.00140216
9.872e-05
0.0033639
0.000117012
0.00472885
8.09875e-05
0.00563593
-1.14102e-05
0.00619988
-0.00015299
0.00651832
-0.000333127
0.00667012
-0.000541224
0.00671568
-0.000767554
0.0066996
0.00665373
-0.0010022
6.54928e-05
0.00133667
0.000168265
0.00326113
0.00025335
0.00464377
0.000292588
0.00559669
0.00027666
0.0062158
0.000207938
0.00658704
9.4609e-05
0.00678345
-5.31665e-05
0.00686345
-0.000224882
0.00687131
0.00683875
-0.000409902
8.2808e-05
0.00125386
0.000229648
0.00311429
0.000377589
0.00449582
0.00049031
0.00548397
0.000551337
0.00615478
0.000557795
0.00658058
0.000514818
0.00682643
0.000431467
0.0069468
0.00031842
0.00698436
0.00697037
0.000186799
9.6625e-05
0.00115723
0.000281609
0.00292931
0.000487029
0.0042904
0.000670014
0.00530098
0.000807437
0.00601735
0.000890913
0.00649711
0.000921851
0.00679549
0.00090738
0.00696127
0.000857603
0.00703414
0.00704405
0.000783925
0.000106825
0.00105041
0.000323262
0.00271287
0.000579414
0.00403425
0.000827823
0.00505257
0.00103959
0.00580559
0.00120082
0.00633588
0.00130859
0.00668772
0.00136724
0.00690262
0.00138545
0.00701592
0.00705506
0.00137444
0.000113424
0.000936983
0.000354084
0.00247221
0.000652975
0.00373536
0.000960214
0.00474534
0.00124238
0.00552342
0.00148041
0.00609785
0.00166668
0.00650145
0.00180193
0.00676737
0.00189258
0.00692528
0.00699875
0.00194889
0.000116566
0.000820417
0.000373945
0.00221483
0.00070655
0.00340276
0.00106428
0.00438761
0.00141076
0.00517694
0.00172247
0.00578614
0.00198707
0.00623685
0.00220111
0.00655333
0.00236787
0.00675851
0.0068708
0.00249582
0.000116506
0.000703911
0.000383119
0.00194822
0.000739705
0.00304617
0.00113802
0.00398929
0.00154051
0.00477444
0.00192033
0.00540632
0.00226077
0.00589642
0.00255393
0.00626017
0.00279923
0.00651322
0.00666769
0.00300233
0.000113643
0.000590269
0.000382358
0.0016795
0.000752924
0.0026756
0.00118077
0.00356144
0.00162895
0.00432626
0.00206874
0.00496653
0.00247987
0.00548529
0.00285012
0.00588991
0.00317455
0.00618879
0.00638719
0.00345505
0.000108437
0.000481832
0.000372754
0.00141518
0.000747497
0.00230086
0.00119316
0.00311578
0.00167513
0.0038443
0.00216441
0.00447725
0.00263837
0.00501133
0.00308103
0.00544725
0.00348292
0.00578689
0.00602878
0.00384134
0.000101417
0.000380415
0.000355707
0.00116089
0.000725479
0.00193109
0.00117723
0.00266403
0.00168015
0.00334138
0.00220661
0.00395078
0.00273311
0.00448483
0.00324085
0.00493952
0.00371611
0.00531163
0.00559398
0.0041509
9.31034e-05
0.000287311
0.000332722
0.000921275
0.000689359
0.00157445
0.00113602
0.00221736
0.00164681
0.00283059
0.00219706
0.00340054
0.00276398
0.0039179
0.0033273
0.0043762
0.00386964
0.00476929
0.00508628
0.00437734
8.39264e-05
0.000203385
0.00030514
0.000700061
0.000641546
0.00123805
0.00107278
0.00178613
0.00157865
0.00232473
0.00213881
0.00284037
0.00273298
0.00332374
0.003341
0.00376818
0.00394279
0.0041675
0.00451041
0.00451866
7.4132e-05
0.000129253
0.000273848
0.000500346
0.000583756
0.000928139
0.000989905
0.00137998
0.00147825
0.00183638
0.00203402
0.0022846
0.00264131
0.00271645
0.00328231
0.00312717
0.00393578
0.00351403
0.0038707
0.00457549
6.37364e-05
6.55164e-05
0.00023912
0.000324962
0.000516586
0.000650673
0.000887983
0.00100858
0.00134539
0.00137898
0.0018805
0.00174948
0.00248398
0.00211298
0.00314392
0.00246724
0.00384171
0.00281624
0.00316872
0.00454369
5.26024e-05
1.2914e-05
0.000200829
0.000176736
0.000439804
0.000411698
0.000765904
0.000682483
0.00117632
0.000968565
0.00166903
0.00125677
0.00224281
0.0015392
0.00289665
0.00181339
0.00362494
0.00208796
0.00240076
0.00439289
4.07136e-05
-2.77996e-05
0.00015926
5.81894e-05
0.000353968
0.00021699
0.000623503
0.000412948
0.000967165
0.000624904
0.00138554
0.000838391
0.00188176
0.00104298
0.00246475
0.0012304
0.00315721
0.0013955
0.00154199
0.00401599
2.85859e-05
-5.63855e-05
0.000116452
-2.96769e-05
0.000263776
6.96664e-05
0.00046913
0.000207594
0.000729694
0.000364339
0.00104097
0.000527115
0.00139613
0.000687821
0.00178431
0.000842216
0.00218974
0.000990066
0.00114183
0.0025899
1.72921e-05
-7.36775e-05
7.63767e-05
-8.87616e-05
0.000179238
-3.31946e-05
0.00032496
6.18712e-05
0.000510593
0.000178707
0.000731358
0.00030635
0.000980956
0.000438223
0.00125252
0.000570648
0.00154221
0.00070038
0.000820298
0.00186374
7.64232e-06
-8.13199e-05
4.18752e-05
-0.000122995
0.00010677
-9.80895e-05
0.000202933
-3.42913e-05
0.000329077
5.25635e-05
0.000482823
0.000152603
0.000661535
0.000259511
0.00086346
0.000368723
0.00108899
0.000474845
0.000567885
0.00134141
-9.74318e-08
-8.12224e-05
1.3866e-05
-0.000136958
4.80272e-05
-0.000132251
0.000104819
-9.10834e-05
0.000184901
-2.75186e-05
0.000288161
4.93439e-05
0.000414498
0.000133174
0.000564441
0.00021878
0.000739025
0.000300261
0.000369618
0.000937292
-6.03269e-06
-7.51897e-05
-7.95467e-06
-0.000135036
2.14298e-06
-0.000142348
2.83494e-05
-0.00011729
7.29075e-05
-7.20767e-05
0.000137187
-1.49361e-05
0.000222269
4.8092e-05
0.000329146
0.000111903
0.000458212
0.000171195
0.00022014
0.00060769
-1.04435e-05
-6.47463e-05
-2.44564e-05
-0.000121023
-3.27788e-05
-0.000134026
-3.0054e-05
-0.000120015
-1.29768e-05
-8.91539e-05
2.05897e-05
-4.85026e-05
7.20568e-05
-3.37505e-06
0.000142178
4.17818e-05
0.000230653
8.272e-05
0.000115348
0.000335444
-1.36375e-05
-5.11087e-05
-3.66011e-05
-9.80595e-05
-5.87025e-05
-0.000111924
-7.37342e-05
-0.000104983
-7.77818e-05
-8.51063e-05
-6.84129e-05
-5.78715e-05
-4.42746e-05
-2.75134e-05
-4.98999e-06
2.49726e-06
4.86734e-05
2.90566e-05
4.94349e-05
0.000114587
-1.58622e-05
-3.52465e-05
-4.51646e-05
-6.87571e-05
-7.71398e-05
-7.99492e-05
-0.00010507
-7.70529e-05
-0.00012474
-6.54364e-05
-0.000133663
-4.89482e-05
-0.000130662
-3.05142e-05
-0.000115679
-1.2486e-05
-8.97519e-05
3.12948e-06
1.46695e-05
-5.49864e-05
-1.72777e-05
-1.79688e-05
-5.0654e-05
-3.53807e-05
-8.90387e-05
-4.15645e-05
-0.000125443
-4.06484e-05
-0.000155527
-3.53527e-05
-0.000176836
-2.76389e-05
-0.000188354
-1.89967e-05
-0.000190231
-1.06084e-05
-0.000183647
-3.45484e-06
1.67725e-06
-0.000170655
-1.79686e-05
-5.33433e-05
-9.48922e-05
-0.000135513
-0.000170825
-0.000198409
-0.000217337
-0.000227861
-0.000231217
-0.000229426
0.000228878
-0.000463047
4.72867e-06
0.00141135
-0.00118312
6.46307e-07
0.00264456
-0.00122515
-8.05402e-06
0.00350108
-0.000846692
-9.83142e-06
0.00425615
-0.000749762
-5.31175e-06
0.00483488
-0.000580972
2.24588e-06
0.00533477
-0.000509152
9.25619e-06
0.00569295
-0.000369736
1.15653e-05
0.00603706
-0.000356233
1.21228e-05
-0.000212255
6.27612e-06
0.000342088
-0.000975829
0.00149493
-0.00233596
0.00270118
-0.00243141
0.00353994
-0.00168544
0.00428191
-0.00149174
0.00485237
-0.00115143
0.00534656
-0.00100334
0.00570193
-0.000725104
0.00604444
-0.000698743
-0.000419296
0.000561051
-0.00159193
0.00165613
-0.00343104
0.00280987
-0.00358515
0.00361425
-0.00248983
0.00433093
-0.00220841
0.00488554
-0.00170604
0.00536886
-0.00148666
0.00571899
-0.00107524
0.00605859
-0.00103834
-0.000628623
0.000871262
-0.00234867
0.0018834
-0.00444318
0.00296197
-0.00466371
0.00371798
-0.00324584
0.00439915
-0.00288958
0.00493177
-0.00223866
0.00540013
-0.00195503
0.00574333
-0.00141844
0.00607919
-0.00137421
-0.000841655
0.0012523
-0.0032656
0.00216061
-0.00535149
0.00314537
-0.00564848
0.00384246
-0.00394293
0.00448059
-0.00352771
0.00498701
-0.00274508
0.00543776
-0.00240578
0.00577327
-0.00175394
0.00610525
-0.00170619
-0.00106013
0.00167923
-0.00433721
0.00246831
-0.00614056
0.00334564
-0.00652581
0.00397745
-0.00457474
0.00456821
-0.00411847
0.00504653
-0.00322341
0.00547874
-0.00283799
0.00580697
-0.00208216
0.00613572
-0.00203494
-0.00128615
0.00212324
-0.00552321
0.00278461
-0.00680193
0.00354693
-0.00728813
0.00411174
-0.00513955
0.00465425
-0.00466098
0.00510505
-0.00367421
0.00551965
-0.00325258
0.00584225
-0.00240477
0.00616935
-0.00236204
-0.00152224
0.00255343
-0.00673526
0.00308595
-0.00733445
0.00373284
-0.00793502
0.00423387
-0.00564059
0.00473085
-0.00515796
0.00515717
-0.00410053
0.00555694
-0.00365235
0.00587684
-0.00272467
0.00620475
-0.00268995
-0.00177131
0.00295207
-0.0078236
0.00335328
-0.00773566
0.00388928
-0.00847102
0.00433343
-0.00608474
0.00479071
-0.00561524
0.00519776
-0.00450759
0.00558718
-0.00404177
0.00590847
-0.00304596
0.00624053
-0.00302201
-0.00203667
0.00332393
-0.00855765
0.0035854
-0.00799713
0.00400567
-0.00889128
0.00440325
-0.00648233
0.00482741
-0.00603939
0.00522235
-0.00490253
0.00560698
-0.0044264
0.00593522
-0.0033742
0.00627485
-0.00336164
-0.00232274
0.0436163
-0.0014337
-0.0507402
0.039685
-0.00406584
0.0378671
-0.00707341
0.0380498
-0.00666508
0.0383494
-0.00633897
0.0389308
-0.00548392
0.0395106
-0.00500616
0.0400505
-0.0039141
0.0405368
-0.003848
-0.00284446
0.0524151
0.00277354
-0.0566223
0.0503346
-0.00198537
0.0478703
-0.00460912
0.0464482
-0.00524297
0.0454295
-0.0053203
0.0447446
-0.00479897
0.044177
-0.00443854
0.043753
-0.00349016
0.0432811
-0.00337611
-0.00265814
0.0538379
0.00403899
-0.0551033
0.052503
-0.000650479
0.050849
-0.00295509
0.0494506
-0.00384458
0.0482937
-0.0041634
0.0473486
-0.00385394
0.0464522
-0.00354212
0.0456999
-0.0027378
0.0448557
-0.00253197
-0.00212025
0.0519451
0.00396321
-0.0518693
0.051414
-0.000119434
0.0504487
-0.00198977
0.0494123
-0.0028082
0.0484555
-0.00320653
0.0476239
-0.0030224
0.0467979
-0.00271612
0.0460893
-0.00202913
0.0452834
-0.00172612
-0.0015315
0.0498803
0.00335437
-0.0492714
0.049623
0.000137793
0.0490404
-0.00140712
0.0483144
-0.00208216
0.0475692
-0.00246138
0.0468966
-0.00234983
0.0462304
-0.00204991
0.045671
-0.00146975
0.0450545
-0.00110953
-0.00103635
0.0481809
0.00262454
-0.0474511
0.0480885
0.00023022
0.0476831
-0.00100172
0.0471405
-0.00153964
0.0465376
-0.00185848
0.0459781
-0.00179027
0.0454461
-0.0015179
0.045023
-0.00104668
0.0445989
-0.000685465
-0.000668628
0.046974
0.00190303
-0.0462525
0.0469635
0.0002407
0.0466504
-0.000688619
0.0462084
-0.00109763
0.0456904
-0.00134051
0.0451993
-0.00129911
0.044758
-0.00107664
0.0444308
-0.00071947
0.0441529
-0.000407576
-0.000411592
0.046161
0.00123074
-0.0454888
0.0462116
0.000190141
0.045954
-0.000431019
0.0455644
-0.000708036
0.0450941
-0.000870207
0.0446424
-0.000847433
0.0442573
-0.000691528
0.04399
-0.000452199
0.0438082
-0.000225719
-0.000234136
0.0456656
0.000603015
-0.0450379
0.0457554
0.000100286
0.0455334
-0.000208974
0.0451703
-0.000344949
0.0447255
-0.000425412
0.0442963
-0.000418216
0.0439435
-0.00033877
0.0437104
-0.000219013
0.0435841
-9.94723e-05
-0.000106012
0.0454312
-0.0448282
0.0455315
0.0453225
0.0449775
0.0445521
0.0441339
0.0437951
0.0435761
0.0434767
0.0568256
0.00228344
-0.0561067
0.057388
0.00289261
0.0577456
0.00348364
0.0578489
0.00404757
0.057651
0.00457524
0.0571117
0.00505791
0.0561993
0.0054879
0.0548838
0.00585913
0.0531099
0.00616681
0.00638562
0.0514062
0.00167469
-0.0507975
0.0520604
0.00223842
0.0527462
0.00279787
0.0534457
0.00334799
0.0541379
0.00388312
0.0547986
0.00439711
0.055403
0.00488356
0.055926
0.00533617
0.0563435
0.00574927
0.0061068
0.0480817
0.0012015
-0.0476085
0.0486358
0.00168428
0.0492678
0.00216589
0.0499723
0.00264348
0.0507415
0.00311391
0.0515649
0.00357376
0.0524292
0.00401924
0.0533191
0.00444621
0.0542182
0.0048502
0.00522167
0.0454745
0.000877221
-0.0451502
0.0458787
0.00128
0.0463636
0.00168101
0.0469291
0.00207803
0.0475742
0.00246879
0.048297
0.00285099
0.049094
0.00322224
0.0499601
0.00358006
0.0508886
0.00392167
0.00424101
0.0438815
0.000639844
-0.0436441
0.0441928
0.00096871
0.0445782
0.00129567
0.0450373
0.00161885
0.0455697
0.00193641
0.0461742
0.00224648
0.0468493
0.00254721
0.0475926
0.00283672
0.0484013
0.00311293
0.00337091
0.0427832
0.000460133
-0.0426035
0.0430328
0.0007192
0.043352
0.000976468
0.0437404
0.00123042
0.0441972
0.00147956
0.0447213
0.00172239
0.0453111
0.00195746
0.0459645
0.00218328
0.0466792
0.00239827
0.00259901
0.0420884
0.000317769
-0.041946
0.0422975
0.000510114
0.0425729
0.000701018
0.042914
0.00088933
0.0433197
0.00107391
0.0437885
0.00125362
0.0443186
0.00142736
0.0449078
0.00159402
0.0455537
0.0017524
0.00190021
0.041636
0.000199498
-0.0415177
0.0418192
0.000326883
0.0420669
0.000453289
0.0423783
0.000577945
0.0427521
0.000700084
0.0431868
0.000818945
0.0436804
0.000933783
0.0442305
0.00104386
0.0448346
0.00114839
0.00124601
0.0413712
9.59399e-05
-0.0412676
0.0415386
0.000159427
0.0417695
0.000222441
0.0420628
0.000284594
0.0424174
0.0003455
0.0428316
0.000404774
0.0433033
0.000462041
0.0438302
0.000516928
0.0444096
0.000569044
0.000617747
0.0412457
-0.0411497
0.0414051
0.0416275
0.0419121
0.0422576
0.0426624
0.0431244
0.0436414
0.0442104
0.0481316
-0.00336074
-0.0475736
0.0488462
-0.00290301
0.0496702
-0.00241534
0.0505637
-0.00189579
0.0514992
-0.00134539
0.052458
-0.000772027
0.0534221
-0.000180168
0.0543699
0.00042652
0.0552755
0.00104333
0.00166451
0.0479953
-0.00341398
-0.0479421
0.0480916
-0.00299934
0.0482306
-0.00255433
0.0484181
-0.00208331
0.0486602
-0.0015875
0.0489612
-0.00107294
0.0493244
-0.000543381
0.049752
-1.12941e-06
0.050244
0.000551335
0.00111106
0.0468988
-0.00315421
-0.0471586
0.0466943
-0.00279484
0.0465503
-0.00241031
0.0464721
-0.00200507
0.0464658
-0.00158123
0.0465351
-0.00114221
0.0466822
-0.000690498
0.0469092
-0.000228108
0.0472176
0.000242879
0.000720212
0.0455775
-0.00277737
-0.0459543
0.0452584
-0.00247572
0.0450005
-0.00215241
0.0448073
-0.00181193
0.0446823
-0.00145617
0.0446276
-0.00108755
0.0446453
-0.000708153
0.0447371
-0.000319932
0.0449049
7.51071e-05
0.000474874
0.0446523
-0.00235478
-0.0450749
0.0442834
-0.00210679
0.0439727
-0.00184169
0.0437233
-0.00156255
0.0435381
-0.00127098
0.0434194
-0.000968834
0.0433691
-0.000657852
0.0433889
-0.000339728
0.0434802
-1.62028e-05
0.000310931
0.04398
-0.00190457
-0.0444302
0.0435816
-0.00170843
0.0432389
-0.001499
0.0429549
-0.00127854
0.0427322
-0.00104829
0.0425731
-0.000809647
0.0424792
-0.000564009
0.0424522
-0.000312765
0.0424934
-5.73449e-05
0.000200787
0.0435483
-0.00143921
-0.0440136
0.0431332
-0.00129334
0.042772
-0.0011378
0.0424675
-0.000974041
0.0422222
-0.000803001
0.0420383
-0.000625696
0.0419174
-0.00044316
0.0418611
-0.00025645
0.0418704
-6.66475e-05
0.000125137
0.0432688
-0.000963699
-0.0437443
0.0428426
-0.000867163
0.0424691
-0.000764254
0.042151
-0.000655899
0.0418907
-0.000542706
0.0416903
-0.000425336
0.0415516
-0.000304475
0.041476
-0.000180827
0.0414645
-5.51171e-05
7.19113e-05
0.0431076
-0.000482683
-0.0435886
0.0426752
-0.000434734
0.0422945
-0.000383621
0.0419684
-0.000329784
0.0416992
-0.000273521
0.0414891
-0.000215158
0.0413396
-0.000155031
0.0412523
-9.34912e-05
0.0412281
-3.09003e-05
3.23703e-05
0.0430336
-0.0435163
0.0425989
0.0422152
0.0418855
0.0416119
0.0413968
0.0412417
0.0411483
0.0411174
0.0429476
0.000174238
-0.000192924
0.042992
0.000520073
-0.000564448
0.0430672
0.000870625
-0.000945838
0.0431909
0.00123405
-0.0013577
0.043393
0.00161569
-0.00181786
0.0437174
0.00201978
-0.00234411
0.0442228
0.00244839
-0.0029538
0.0449812
0.00290397
-0.00366244
0.0460871
0.00336241
-0.00446827
0.00391337
-0.00539986
0.0429658
0.000137401
0.0430733
0.00041257
0.0432548
0.000689059
0.0435209
0.000968022
0.0438863
0.00125026
0.0443701
0.00153599
0.0449942
0.00182425
0.0457831
0.00211513
0.0467525
0.00239301
0.00272378
0.0429666
9.97726e-05
0.0430779
0.000301185
0.0432629
0.000504098
0.0435254
0.000705477
0.0438713
0.000904412
0.0443077
0.00109959
0.044843
0.00128892
0.0454875
0.00147067
0.0462456
0.00163486
0.00181081
0.0429586
7.00848e-05
0.0430475
0.000212294
0.0431958
0.000355824
0.0434042
0.000497068
0.0436738
0.000634812
0.0440056
0.000767751
0.0444003
0.000894305
0.0448577
0.00101326
0.0453729
0.0011196
0.00122942
0.0429505
4.84749e-05
0.0430158
0.000146984
0.0431253
0.000246386
0.0432786
0.000343774
0.0434753
0.000438084
0.0437148
0.000528259
0.043996
0.000613151
0.0443174
0.00069182
0.0446755
0.00076148
0.00083001
0.0429444
3.2958e-05
0.0429915
9.99434e-05
0.0430704
0.000167499
0.0431806
0.000233565
0.0433213
0.000297364
0.0434914
0.000358151
0.0436894
0.000415181
0.0439133
0.000467854
0.0441601
0.000514701
0.000559937
0.0429402
2.16488e-05
0.0429745
6.56375e-05
0.0430321
0.000109978
0.0431123
0.000153308
0.0432146
0.000195102
0.0433379
0.00023487
0.0434809
0.000272129
0.0436423
0.000306489
0.0438199
0.000337122
0.000366157
0.0429375
1.30954e-05
0.0429634
3.9691e-05
0.0430069
6.64847e-05
0.0430676
9.26657e-05
0.0431447
0.000117919
0.0432377
0.000141951
0.0433453
0.000164484
0.0434665
0.000185291
0.0435997
0.000203939
0.000221509
0.0429359
6.16988e-06
0.0429568
1.87008e-05
0.042992
3.13141e-05
0.043041
4.36388e-05
0.0431034
5.55282e-05
0.0431785