1.45 	0 	0 	0.01457 	-0.00496146 	3.8663e-21
2.35 	0 	0 	0.160184 	-0.00986879 	1.42395e-21
