/*--------------------------------*- C++ -*----------------------------------*\
  =========                 |
  \\      /  F ield         | OpenFOAM: The Open Source CFD Toolbox
   \\    /   O peration     | Website:  https://openfoam.org
    \\  /    A nd           | Version:  6.0
     \\/     M anipulation  |
\*---------------------------------------------------------------------------*/
FoamFile
{
    version     2.0;
    format      ascii;
    class       volScalarField;
    location    "99";
    object      p;
}
// * * * * * * * * * * * * * * * * * * * * * * * * * * * * * * * * * * * * * //

dimensions      [0 2 -2 0 0 0 0];

internalField   nonuniform List<scalar> 
2000
(
-0.348041
-0.353947
-0.355636
-0.354967
-0.353107
-0.350431
-0.347215
-0.343754
-0.340334
-0.336637
-0.350759
-0.356246
-0.357594
-0.356623
-0.354476
-0.351524
-0.348046
-0.344324
-0.340649
-0.336834
-0.356215
-0.360842
-0.3615
-0.35992
-0.357191
-0.353684
-0.34967
-0.345412
-0.341208
-0.337148
-0.364449
-0.367737
-0.367332
-0.364826
-0.361216
-0.356863
-0.352025
-0.346923
-0.341872
-0.337422
-0.375521
-0.376926
-0.375061
-0.371302
-0.366508
-0.361012
-0.355043
-0.348742
-0.342443
-0.3374
-0.389496
-0.388397
-0.384646
-0.379309
-0.373035
-0.366109
-0.358691
-0.350786
-0.342711
-0.336751
-0.406407
-0.402107
-0.396028
-0.388804
-0.380793
-0.372194
-0.363064
-0.353173
-0.342674
-0.335217
-0.426198
-0.417956
-0.409115
-0.399728
-0.389765
-0.37931
-0.368275
-0.356033
-0.34209
-0.331647
-0.448657
-0.435773
-0.423792
-0.412039
-0.399993
-0.387549
-0.374309
-0.358749
-0.338664
-0.321352
-0.473351
-0.455291
-0.439959
-0.425884
-0.412099
-0.398402
-0.384039
-0.366374
-0.341334
-0.317357
-0.499591
-0.476086
-0.457347
-0.441177
-0.426449
-0.413537
-0.402782
-0.394825
-0.394963
-0.414496
-0.526554
-0.49758
-0.475339
-0.456808
-0.440472
-0.426789
-0.416237
-0.409872
-0.412828
-0.4301
-0.553517
-0.519315
-0.493662
-0.47266
-0.454296
-0.438934
-0.426941
-0.419036
-0.418327
-0.426145
-0.579832
-0.54082
-0.512003
-0.488559
-0.467923
-0.450279
-0.435788
-0.424703
-0.4185
-0.417163
-0.604749
-0.561426
-0.529738
-0.503862
-0.480649
-0.460084
-0.442125
-0.42665
-0.41408
-0.404454
-0.627279
-0.580201
-0.545924
-0.517561
-0.491418
-0.467345
-0.445219
-0.424729
-0.405708
-0.38892
-0.646139
-0.595933
-0.559328
-0.528374
-0.498942
-0.470892
-0.444184
-0.418513
-0.393461
-0.370808
-0.659768
-0.607169
-0.56849
-0.534817
-0.501793
-0.469467
-0.438053
-0.407399
-0.377054
-0.349879
-0.666405
-0.61227
-0.571787
-0.535297
-0.498495
-0.461815
-0.425865
-0.390724
-0.356023
-0.325635
-0.664183
-0.609495
-0.567525
-0.528203
-0.487616
-0.446765
-0.406732
-0.367847
-0.329855
-0.297489
-0.651246
-0.597104
-0.554034
-0.512008
-0.467865
-0.423312
-0.379925
-0.338245
-0.298101
-0.264904
-0.62586
-0.573455
-0.529778
-0.485371
-0.438183
-0.390697
-0.34494
-0.30158
-0.260473
-0.227512
-0.586551
-0.537141
-0.493479
-0.447254
-0.397832
-0.348471
-0.301548
-0.257758
-0.216907
-0.185176
-0.532223
-0.487102
-0.444224
-0.397008
-0.346459
-0.296534
-0.24983
-0.20696
-0.167609
-0.138037
-0.462271
-0.42274
-0.381568
-0.334435
-0.284117
-0.235138
-0.190162
-0.149635
-0.113053
-0.0865219
-0.376694
-0.344022
-0.305601
-0.259825
-0.211269
-0.164843
-0.123146
-0.0864021
-0.0538757
-0.0312554
-0.276181
-0.25155
-0.217006
-0.173978
-0.128772
-0.0864935
-0.0495522
-0.0179603
0.00920313
0.026936
-0.16217
-0.146614
-0.117068
-0.078183
-0.0378618
-0.00122839
0.0295618
0.0545723
0.0746416
0.0860225
-0.0368722
-0.0311863
-0.00763746
0.025887
0.0600777
0.0898991
0.113338
0.129982
0.139916
0.142287
0.0967578
0.0920919
0.108873
0.136202
0.163723
0.186713
0.2032
0.211568
0.210533
0.203804
0.235144
0.219955
0.22936
0.249868
0.270618
0.287731
0.299936
0.305418
0.304371
0.318289
0.374391
0.348757
0.350212
0.363031
0.376051
0.386025
0.392078
0.39332
0.392243
0.405166
0.510556
0.474826
0.468019
0.472571
0.477224
0.479303
0.47824
0.473618
0.467926
0.473029
0.639791
0.594555
0.579489
0.575588
0.571689
0.565701
0.557364
0.546531
0.535273
0.532431
0.758436
0.704502
0.68153
0.669421
0.657255
0.643507
0.628195
0.611359
0.594689
0.584742
0.863104
0.801503
0.771321
0.751676
0.731968
0.711191
0.689605
0.667393
0.645877
0.629722
0.950779
0.882748
0.846375
0.82024
0.794077
0.767327
0.740448
0.713738
0.688162
0.666804
1.01891
0.94587
0.9046
0.873325
0.842079
0.810652
0.779656
0.749469
0.720748
0.695333
1.06548
0.989017
0.944358
0.909526
0.874777
0.840142
0.806333
0.773783
0.742918
0.714717
1.08912
1.01091
0.964524
0.927874
0.89134
0.855073
0.819839
0.786093
0.754142
0.724522
1.08912
1.01091
0.964524
0.927874
0.89134
0.855073
0.819839
0.786093
0.754142
0.724522
1.06548
0.989017
0.944358
0.909526
0.874777
0.840142
0.806333
0.773783
0.742918
0.714717
1.01891
0.94587
0.9046
0.873325
0.842079
0.810652
0.779656
0.749469
0.720748
0.695333
0.950779
0.882748
0.846375
0.82024
0.794077
0.767327
0.740448
0.713738
0.688162
0.666804
0.863104
0.801503
0.771321
0.751676
0.731968
0.711191
0.689605
0.667393
0.645877
0.629722
0.758436
0.704502
0.68153
0.669421
0.657255
0.643507
0.628195
0.611359
0.594689
0.584742
0.639791
0.594555
0.579489
0.575588
0.571689
0.565701
0.557364
0.546531
0.535273
0.532431
0.510556
0.474826
0.468019
0.472571
0.477224
0.479303
0.47824
0.473618
0.467926
0.473029
0.374391
0.348757
0.350212
0.363031
0.376051
0.386025
0.392078
0.39332
0.392243
0.405166
0.235144
0.219955
0.22936
0.249868
0.270618
0.287731
0.299936
0.305418
0.304371
0.318289
0.0967578
0.0920919
0.108873
0.136202
0.163723
0.186713
0.2032
0.211568
0.210533
0.203804
-0.0368722
-0.0311863
-0.00763745
0.025887
0.0600777
0.0898991
0.113338
0.129982
0.139916
0.142287
-0.16217
-0.146614
-0.117068
-0.078183
-0.0378618
-0.00122838
0.0295618
0.0545723
0.0746416
0.0860225
-0.276181
-0.25155
-0.217006
-0.173978
-0.128772
-0.0864935
-0.0495522
-0.0179603
0.00920314
0.026936
-0.376694
-0.344022
-0.305601
-0.259825
-0.211269
-0.164843
-0.123146
-0.0864021
-0.0538757
-0.0312554
-0.462271
-0.42274
-0.381568
-0.334435
-0.284117
-0.235138
-0.190162
-0.149635
-0.113053
-0.0865219
-0.532223
-0.487102
-0.444224
-0.397008
-0.346459
-0.296534
-0.24983
-0.20696
-0.167609
-0.138037
-0.586551
-0.537141
-0.493479
-0.447254
-0.397832
-0.348471
-0.301548
-0.257758
-0.216907
-0.185176
-0.62586
-0.573455
-0.529778
-0.485371
-0.438183
-0.390697
-0.34494
-0.30158
-0.260473
-0.227512
-0.651246
-0.597104
-0.554034
-0.512008
-0.467865
-0.423312
-0.379925
-0.338245
-0.298101
-0.264904
-0.664183
-0.609495
-0.567525
-0.528203
-0.487616
-0.446765
-0.406732
-0.367847
-0.329855
-0.297489
-0.666405
-0.61227
-0.571787
-0.535297
-0.498495
-0.461815
-0.425865
-0.390724
-0.356023
-0.325635
-0.659768
-0.607169
-0.56849
-0.534817
-0.501793
-0.469467
-0.438053
-0.407399
-0.377054
-0.349879
-0.646139
-0.595933
-0.559328
-0.528374
-0.498942
-0.470892
-0.444184
-0.418513
-0.393461
-0.370808
-0.627279
-0.580201
-0.545924
-0.517561
-0.491418
-0.467345
-0.445219
-0.424729
-0.405708
-0.38892
-0.604749
-0.561426
-0.529738
-0.503862
-0.480649
-0.460084
-0.442125
-0.42665
-0.41408
-0.404454
-0.579832
-0.54082
-0.512003
-0.488559
-0.467923
-0.450279
-0.435788
-0.424703
-0.4185
-0.417163
-0.553517
-0.519315
-0.493662
-0.47266
-0.454296
-0.438934
-0.426941
-0.419036
-0.418327
-0.426145
-0.526554
-0.49758
-0.475339
-0.456808
-0.440472
-0.426789
-0.416236
-0.409872
-0.412828
-0.4301
-0.499591
-0.476086
-0.457347
-0.441177
-0.426449
-0.413537
-0.402782
-0.394825
-0.394963
-0.414496
-0.47335
-0.455291
-0.439959
-0.425884
-0.412099
-0.398402
-0.384039
-0.366374
-0.341334
-0.317357
-0.448657
-0.435773
-0.423792
-0.412039
-0.399993
-0.387549
-0.374309
-0.358749
-0.338664
-0.321352
-0.426198
-0.417956
-0.409115
-0.399728
-0.389765
-0.37931
-0.368275
-0.356033
-0.34209
-0.331647
-0.406407
-0.402107
-0.396028
-0.388804
-0.380793
-0.372194
-0.363064
-0.353173
-0.342674
-0.335217
-0.389496
-0.388397
-0.384646
-0.379309
-0.373035
-0.366109
-0.358691
-0.350786
-0.342711
-0.336751
-0.375521
-0.376926
-0.375061
-0.371302
-0.366508
-0.361012
-0.355043
-0.348742
-0.342443
-0.3374
-0.364449
-0.367737
-0.367332
-0.364826
-0.361216
-0.356863
-0.352025
-0.346923
-0.341872
-0.337422
-0.356215
-0.360842
-0.3615
-0.35992
-0.357191
-0.353684
-0.34967
-0.345412
-0.341208
-0.337148
-0.350759
-0.356246
-0.357594
-0.356623
-0.354476
-0.351524
-0.348046
-0.344324
-0.340649
-0.336834
-0.348041
-0.353947
-0.355636
-0.354967
-0.353107
-0.350431
-0.347215
-0.343754
-0.340334
-0.336637
-0.290428
-0.126293
-0.0812214
-0.0303206
-0.0192158
-0.00778216
-0.00434252
-0.000872349
-0.000455439
0.00217198
-0.291659
-0.126841
-0.0814917
-0.0305191
-0.0192837
-0.00784186
-0.00437207
-0.000893085
-0.000464566
0.00215611
-0.29405
-0.127923
-0.0820271
-0.0309175
-0.0194193
-0.00796102
-0.00443119
-0.000934522
-0.000482722
0.00212457
-0.297461
-0.129514
-0.0828162
-0.0315176
-0.0196222
-0.00813918
-0.00451968
-0.000996554
-0.000509762
0.00207767
-0.301646
-0.13157
-0.0838328
-0.0323177
-0.0198905
-0.00837498
-0.00463703
-0.00107898
-0.000545409
0.00201587
-0.30625
-0.134016
-0.0850275
-0.0333042
-0.0202183
-0.00866482
-0.00478202
-0.00118128
-0.000589309
0.00193981
-0.311142
-0.136921
-0.0864056
-0.0344723
-0.0206064
-0.00900596
-0.00495412
-0.00130247
-0.000641663
0.00185107
-0.316845
-0.140936
-0.08823
-0.0359227
-0.0210979
-0.00941185
-0.00515936
-0.00144291
-0.000704011
0.00175242
-0.321622
-0.146441
-0.090679
-0.0378206
-0.0217434
-0.00990955
-0.00540691
-0.00160795
-0.000774766
0.0016413
-0.313817
-0.148817
-0.09179
-0.0395219
-0.0222457
-0.0104015
-0.0056516
-0.00179889
-0.000834409
0.00149474
-0.247286
-0.140718
-0.0881699
-0.0427768
-0.0227442
-0.0117332
-0.00636811
-0.0025386
-0.00100012
0.000841547
-0.189191
-0.131709
-0.082168
-0.0442356
-0.0244775
-0.0141257
-0.00821712
-0.00402225
-0.00176191
-6.26317e-07
-0.147776
-0.11385
-0.0727393
-0.0428052
-0.0259033
-0.0163319
-0.0101525
-0.00561398
-0.00269674
-0.000680764
-0.108183
-0.0929484
-0.0633195
-0.0408364
-0.0269531
-0.0181273
-0.0118275
-0.00704925
-0.00358787
-0.00115194
-0.0789458
-0.0756758
-0.0565192
-0.0395814
-0.0277774
-0.0194728
-0.01314
-0.00820342
-0.00433545
-0.00145059
-0.0588544
-0.0628286
-0.051559
-0.0385819
-0.0281888
-0.02032
-0.014067
-0.00905787
-0.00491385
-0.00164424
-0.0458291
-0.0535676
-0.0476973
-0.0376118
-0.028277
-0.0208015
-0.0146908
-0.00966613
-0.00534249
-0.00178092
-0.0375849
-0.0471082
-0.0447352
-0.0367589
-0.0282322
-0.0210712
-0.0150991
-0.0100831
-0.00564523
-0.00187974
-0.0327631
-0.0430074
-0.0427277
-0.0361558
-0.028176
-0.0212177
-0.0153441
-0.0103425
-0.0058382
-0.00194434
-0.0305327
-0.0410059
-0.0417166
-0.0358589
-0.0281522
-0.0212826
-0.0154572
-0.0104645
-0.00593257
-0.00197461
-0.218584
-0.246481
-0.272261
-0.296204
-0.318698
-0.340248
-0.361472
-0.383016
-0.405382
-0.429225
-0.0679395
-0.0780821
-0.0872468
-0.0956768
-0.103679
-0.111635
-0.120001
-0.129317
-0.140163
-0.15433
-0.0451686
-0.0543504
-0.0631467
-0.0715306
-0.0794646
-0.086904
-0.0938053
-0.100142
-0.10591
-0.111231
-0.0187455
-0.0244656
-0.0299793
-0.0353056
-0.0404664
-0.045485
-0.0503845
-0.0551871
-0.0598927
-0.0643806
-0.0130364
-0.0173923
-0.0216237
-0.0257269
-0.0296983
-0.0335339
-0.03723
-0.0407838
-0.0441756
-0.047374
-0.00798211
-0.0111994
-0.0143574
-0.017455
-0.0204916
-0.0234668
-0.0263801
-0.02923
-0.0320048
-0.0347081
-0.00685858
-0.0093955
-0.0118961
-0.0143564
-0.0167728
-0.0191422
-0.021462
-0.0237298
-0.0259396
-0.0281046
-0.00605765
-0.00811558
-0.010157
-0.0121778
-0.0141743
-0.016143
-0.0180809
-0.0199849
-0.0218517
-0.0236887
-0.00597008
-0.00774479
-0.00951157
-0.0112659
-0.0130036
-0.0147208
-0.016414
-0.0180798
-0.0197163
-0.0213247
-0.00591411
-0.00754011
-0.00916351
-0.0107806
-0.0123877
-0.0139816
-0.0155592
-0.0171176
-0.0186553
-0.0201706
0.168015
0.127028
0.08168
0.0386109
-0.00312757
-0.0440066
-0.0834099
-0.120755
-0.155773
-0.18838
0.117546
0.0916307
0.0648388
0.042
0.0218798
0.00320603
-0.0141044
-0.0298404
-0.0439755
-0.056625
0.0734253
0.0577273
0.0427743
0.0298622
0.0180108
0.00654415
-0.00460881
-0.0153601
-0.0256866
-0.035615
0.0531694
0.0440964
0.0354674
0.0277569
0.0204906
0.013398
0.00648138
-0.000200561
-0.00662654
-0.0128037
0.0376326
0.0316813
0.0259411
0.0206504
0.0155601
0.0105391
0.00559401
0.000756349
-0.00396141
-0.00855885
0.0273711
0.0234821
0.0196369
0.0159991
0.0124565
0.00894118
0.00545443
0.00201302
-0.00137471
-0.00470674
0.0196685
0.01694
0.0141848
0.0115082
0.00886214
0.00621377
0.00356486
0.000926575
-0.00169322
-0.00428968
0.0144881
0.012493
0.0104477
0.00841459
0.0063771
0.00432161
0.00225048
0.00017125
-0.00190973
-0.00398754
0.0111575
0.00956253
0.00791858
0.00625484
0.00456654
0.00285055
0.00111075
-0.000646719
-0.0024161
-0.00419222
0.00956135
0.00814072
0.00667676
0.0051837
0.00366093
0.0021095
0.000533746
-0.00106117
-0.00267041
-0.00428949
0.33543
0.33473
0.333181
0.330306
0.325322
0.316991
0.303542
0.282581
0.251473
0.206856
0.245532
0.244416
0.24178
0.237196
0.230325
0.22074
0.207869
0.191053
0.169546
0.142791
0.174701
0.173572
0.170906
0.166381
0.159891
0.151327
0.140501
0.127197
0.111009
0.0920222
0.123092
0.122206
0.120104
0.116541
0.111502
0.10501
0.0970606
0.0876623
0.0767375
0.0646212
0.0867579
0.0861134
0.0845745
0.0819614
0.0782814
0.073587
0.0679123
0.0612954
0.0537167
0.0453849
0.0615788
0.0611154
0.0600068
0.0581247
0.0554822
0.0521305
0.0481114
0.0434687
0.0382201
0.0325119
0.0444275
0.0440889
0.0432788
0.0419035
0.0399748
0.0375328
0.0346113
0.0312431
0.0274475
0.0233087
0.0331419
0.0328852
0.0322706
0.0312275
0.0297653
0.0279152
0.0257042
0.0231573
0.0202949
0.017169
0.0263062
0.0260977
0.025599
0.0247526
0.0235659
0.0220639
0.020268
0.0181969
0.0158685
0.0133142
0.0230858
0.0228993
0.0224541
0.021699
0.0206402
0.0192997
0.0176963
0.0158462
0.0137662
0.011479
0.485404
0.487157
0.49349
0.504637
0.520488
0.541348
0.567682
0.600014
0.638882
0.684529
0.483163
0.48489
0.491143
0.502134
0.517736
0.538219
0.563988
0.595483
0.633103
0.676937
0.478733
0.480414
0.486515
0.497202
0.512319
0.53206
0.556719
0.586561
0.621711
0.661961
0.472213
0.47384
0.479729
0.489985
0.504401
0.523067
0.546105
0.573522
0.605029
0.640007
0.463742
0.465319
0.47096
0.480679
0.494211
0.511507
0.532467
0.556756
0.583523
0.611662
0.45349
0.455038
0.460412
0.469513
0.482005
0.497677
0.516165
0.53671
0.557762
0.577663
0.441651
0.443239
0.448367
0.456805
0.468145
0.481991
0.497669
0.513926
0.528424
0.538875
0.428432
0.430247
0.435262
0.443112
0.453327
0.465295
0.477965
0.489445
0.496509
0.496093
0.413902
0.416194
0.421288
0.428674
0.437869
0.448042
0.457693
0.464103
0.462893
0.448813
0.3977
0.400136
0.404803
0.41106
0.418439
0.42599
0.431938
0.433061
0.424596
0.396893
0.3977
0.400136
0.404803
0.41106
0.418439
0.42599
0.431938
0.433061
0.424596
0.396893
0.413902
0.416194
0.421288
0.428674
0.437869
0.448042
0.457693
0.464103
0.462893
0.448813
0.428432
0.430247
0.435262
0.443112
0.453327
0.465295
0.477965
0.489445
0.496509
0.496093
0.441651
0.443239
0.448367
0.456805
0.468145
0.481991
0.497669
0.513926
0.528424
0.538875
0.45349
0.455038
0.460412
0.469513
0.482005
0.497677
0.516165
0.53671
0.557762
0.577663
0.463742
0.465319
0.47096
0.480679
0.494211
0.511507
0.532467
0.556756
0.583523
0.611662
0.472213
0.47384
0.479729
0.489985
0.504401
0.523067
0.546105
0.573522
0.605029
0.640007
0.478733
0.480414
0.486515
0.497202
0.512319
0.53206
0.556719
0.586561
0.621711
0.661961
0.483163
0.48489
0.491143
0.502134
0.517736
0.538219
0.563988
0.595483
0.633103
0.676937
0.485404
0.487157
0.49349
0.504637
0.520488
0.541348
0.567682
0.600014
0.638882
0.684529
0.0230858
0.0228993
0.0224541
0.021699
0.0206402
0.0192997
0.0176963
0.0158462
0.0137662
0.011479
0.0263062
0.0260977
0.025599
0.0247526
0.0235659
0.0220639
0.020268
0.0181969
0.0158685
0.0133142
0.0331419
0.0328852
0.0322706
0.0312276
0.0297653
0.0279152
0.0257042
0.0231573
0.0202949
0.017169
0.0444275
0.044089
0.0432788
0.0419035
0.0399748
0.0375328
0.0346113
0.0312431
0.0274475
0.0233087
0.0615788
0.0611154
0.0600069
0.0581247
0.0554822
0.0521305
0.0481114
0.0434687
0.0382201
0.0325119
0.0867579
0.0861134
0.0845745
0.0819614
0.0782814
0.073587
0.0679123
0.0612954
0.0537167
0.0453849
0.123092
0.122206
0.120104
0.116541
0.111502
0.10501
0.0970606
0.0876623
0.0767375
0.0646212
0.174701
0.173572
0.170906
0.166381
0.159891
0.151327
0.140501
0.127197
0.111009
0.0920222
0.245532
0.244416
0.24178
0.237196
0.230325
0.22074
0.207869
0.191053
0.169546
0.142791
0.33543
0.33473
0.333181
0.330306
0.325322
0.316991
0.303542
0.282581
0.251473
0.206856
0.00956136
0.00814073
0.00667677
0.00518371
0.00366094
0.00210951
0.000533757
-0.00106116
-0.0026704
-0.00428948
0.0111575
0.00956254
0.00791859
0.00625485
0.00456655
0.00285056
0.00111076
-0.000646709
-0.00241609
-0.00419221
0.0144881
0.012493
0.0104477
0.0084146
0.00637711
0.00432162
0.00225049
0.000171261
-0.00190972
-0.00398753
0.0196685
0.01694
0.0141848
0.0115082
0.00886216
0.00621378
0.00356487
0.000926586
-0.0016932
-0.00428967
0.0273711
0.0234822
0.0196369
0.0159991
0.0124566
0.00894119
0.00545444
0.00201303
-0.0013747
-0.00470673
0.0376327
0.0316813
0.0259411
0.0206505
0.0155601
0.0105391
0.00559402
0.00075636
-0.0039614
-0.00855884
0.0531694
0.0440965
0.0354674
0.0277569
0.0204906
0.013398
0.0064814
-0.000200549
-0.00662653
-0.0128037
0.0734254
0.0577273
0.0427743
0.0298622
0.0180108
0.00654416
-0.0046088
-0.0153601
-0.0256866
-0.035615
0.117546
0.0916307
0.0648388
0.042
0.0218798
0.00320604
-0.0141044
-0.0298404
-0.0439755
-0.056625
0.168015
0.127028
0.08168
0.0386109
-0.00312755
-0.0440066
-0.0834099
-0.120755
-0.155773
-0.18838
-0.0059141
-0.0075401
-0.0091635
-0.0107805
-0.0123877
-0.0139816
-0.0155592
-0.0171176
-0.0186553
-0.0201706
-0.00597007
-0.00774478
-0.00951156
-0.0112659
-0.0130036
-0.0147208
-0.016414
-0.0180798
-0.0197163
-0.0213247
-0.00605764
-0.00811557
-0.010157
-0.0121778
-0.0141743
-0.016143
-0.0180809
-0.0199849
-0.0218517
-0.0236886
-0.00685857
-0.00939549
-0.0118961
-0.0143564
-0.0167728
-0.0191422
-0.021462
-0.0237298
-0.0259396
-0.0281046
-0.0079821
-0.0111994
-0.0143574
-0.017455
-0.0204916
-0.0234668
-0.0263801
-0.0292299
-0.0320048
-0.0347081
-0.0130364
-0.0173923
-0.0216237
-0.0257269
-0.0296983
-0.0335339
-0.03723
-0.0407837
-0.0441756
-0.047374
-0.0187455
-0.0244656
-0.0299793
-0.0353056
-0.0404664
-0.045485
-0.0503845
-0.0551871
-0.0598927
-0.0643806
-0.0451686
-0.0543504
-0.0631466
-0.0715305
-0.0794646
-0.086904
-0.0938053
-0.100142
-0.10591
-0.111231
-0.0679395
-0.0780821
-0.0872468
-0.0956768
-0.103679
-0.111635
-0.120001
-0.129317
-0.140163
-0.15433
-0.218584
-0.246481
-0.272261
-0.296204
-0.318698
-0.340248
-0.361472
-0.383016
-0.405382
-0.429225
-0.0305327
-0.0410059
-0.0417166
-0.0358589
-0.0281522
-0.0212826
-0.0154572
-0.0104645
-0.00593256
-0.00197461
-0.0327631
-0.0430074
-0.0427277
-0.0361558
-0.028176
-0.0212177
-0.015344
-0.0103425
-0.00583819
-0.00194434
-0.0375849
-0.0471082
-0.0447352
-0.0367588
-0.0282322
-0.0210712
-0.0150991
-0.0100831
-0.00564522
-0.00187974
-0.0458291
-0.0535676
-0.0476973
-0.0376118
-0.028277
-0.0208015
-0.0146908
-0.00966611
-0.00534247
-0.00178092
-0.0588544
-0.0628286
-0.051559
-0.0385819
-0.0281888
-0.02032
-0.014067
-0.00905785
-0.00491384
-0.00164424
-0.0789457
-0.0756758
-0.0565192
-0.0395814
-0.0277774
-0.0194728
-0.01314
-0.0082034
-0.00433543
-0.00145059
-0.108183
-0.0929484
-0.0633195
-0.0408364
-0.0269531
-0.0181273
-0.0118274
-0.00704921
-0.00358785
-0.00115194
-0.147776
-0.11385
-0.0727393
-0.0428052
-0.0259033
-0.0163319
-0.0101525
-0.00561394
-0.00269672
-0.000680771
-0.189191
-0.131709
-0.082168
-0.0442356
-0.0244774
-0.0141257
-0.00821708
-0.00402219
-0.00176189
-6.40785e-07
-0.247286
-0.140718
-0.0881699
-0.0427768
-0.0227441
-0.0117332
-0.00636808
-0.00253854
-0.0010001
0.000841526
-0.313817
-0.148817
-0.0917901
-0.0395219
-0.0222456
-0.0104014
-0.0056516
-0.00179883
-0.000834385
0.00149472
-0.321622
-0.146441
-0.0906791
-0.0378206
-0.0217434
-0.00990951
-0.00540691
-0.0016079
-0.000774741
0.00164128
-0.316845
-0.140936
-0.0882302
-0.0359227
-0.0210978
-0.00941182
-0.00515937
-0.00144286
-0.000703985
0.0017524
-0.311142
-0.136921
-0.0864058
-0.0344723
-0.0206063
-0.00900592
-0.00495415
-0.00130243
-0.000641636
0.00185105
-0.30625
-0.134016
-0.0850276
-0.0333043
-0.0202182
-0.00866478
-0.00478207
-0.00118125
-0.00058928
0.0019398
-0.301646
-0.13157
-0.083833
-0.0323178
-0.0198904
-0.00837493
-0.00463709
-0.00107897
-0.000545378
0.00201586
-0.297461
-0.129514
-0.0828164
-0.0315176
-0.0196221
-0.00813913
-0.00451976
-0.000996547
-0.000509729
0.00207767
-0.29405
-0.127923
-0.0820274
-0.0309175
-0.0194191
-0.00796097
-0.00443128
-0.000934524
-0.000482688
0.00212457
-0.291659
-0.126841
-0.081492
-0.0305192
-0.0192835
-0.00784181
-0.00437216
-0.000893095
-0.000464535
0.00215612
-0.290428
-0.126293
-0.0812215
-0.0303206
-0.0192157
-0.00778214
-0.00434256
-0.000872356
-0.000455424
0.00217198
)
;

boundaryField
{
    inlet
    {
        type            zeroGradient;
    }
    outlet
    {
        type            fixedValue;
        value           uniform 0;
    }
    cylinder
    {
        type            zeroGradient;
    }
    top
    {
        type            symmetryPlane;
    }
    bottom
    {
        type            symmetryPlane;
    }
    defaultFaces
    {
        type            empty;
    }
}


// ************************************************************************* //
