1.275 	2.15223e-18 	-2.76991e-20 	-0.0344647 	-0.000434797 	-1.9091e-22
1.825 	2.15223e-18 	-1.39322e-20 	-0.00946649 	-0.0027531 	1.68612e-21
2.375 	2.15223e-18 	-2.66896e-23 	0.115305 	-0.00323764 	-7.03312e-22
