1.45 	0 	0 	-0.294452
2.35 	0 	0 	-0.12944
