1.275 	2.15223e-18 	-2.76991e-20 	-0.0342393 	-0.000450623 	-1.96386e-22
1.825 	2.15223e-18 	-1.39322e-20 	-0.00905939 	-0.00277125 	1.75693e-21
2.375 	2.15223e-18 	-2.66896e-23 	0.116461 	-0.00324807 	-7.33421e-22
