/*--------------------------------*- C++ -*----------------------------------*\
  =========                 |
  \\      /  F ield         | OpenFOAM: The Open Source CFD Toolbox
   \\    /   O peration     | Website:  https://openfoam.org
    \\  /    A nd           | Version:  6.0
     \\/     M anipulation  |
\*---------------------------------------------------------------------------*/
FoamFile
{
    version     2.0;
    format      ascii;
    class       volScalarField;
    location    "0.8";
    object      p;
}
// * * * * * * * * * * * * * * * * * * * * * * * * * * * * * * * * * * * * * //

dimensions      [0 2 -2 0 0 0 0];

internalField   nonuniform List<scalar> 
200
(
-5.66847e-09
-0.000123518
-0.000461452
-0.000999548
-0.00174859
-0.00274916
-0.00406141
-0.00575465
-0.00784474
-0.0101139
-0.0119731
-0.0126733
-0.0114455
-0.00708007
0.00199297
0.0160493
0.0320359
0.0437825
0.0465612
0.0426373
0.000118577
-3.50017e-05
-0.000352946
-0.000831141
-0.00147757
-0.00230288
-0.00332265
-0.00458339
-0.00621797
-0.00841605
-0.0111468
-0.0138305
-0.0152291
-0.0134647
-0.00652594
0.0062324
0.022371
0.0361184
0.0418109
0.0396221
0.000490598
0.000254507
-5.53807e-05
-0.000467246
-0.000999974
-0.00165847
-0.00250777
-0.00378081
-0.00594635
-0.00955263
-0.0147624
-0.0208472
-0.026061
-0.0279978
-0.0242929
-0.013668
0.00278836
0.0205834
0.0329564
0.0363527
0.0010044
0.000651498
0.000340644
-1.64643e-05
-0.000463056
-0.00103485
-0.00193486
-0.00370116
-0.00720231
-0.0132166
-0.0217394
-0.0315734
-0.0405477
-0.046136
-0.0460096
-0.0384452
-0.0229872
-0.00180226
0.0190571
0.0319797
0.00141184
0.000933075
0.000621562
0.000318102
-3.25135e-05
-0.0005107
-0.00150164
-0.00385843
-0.00873783
-0.0169372
-0.0281378
-0.0407101
-0.0522416
-0.0602861
-0.0627961
-0.0581396
-0.0450914
-0.0236384
0.00275888
0.0251266
0.00133566
0.000752593
0.000500429
0.000344136
0.000234711
3.91828e-05
-0.000812716
-0.00341042
-0.00903753
-0.0184014
-0.030943
-0.0448025
-0.0574723
-0.0665728
-0.0702894
-0.0673101
-0.0564788
-0.036716
-0.00879405
0.0202297
0.000209371
-0.000376168
-0.000308874
-2.70735e-05
0.00042579
0.000853866
0.00051905
-0.00180569
-0.00741365
-0.0169121
-0.0296426
-0.0436975
-0.056554
-0.0657814
-0.0695287
-0.0664847
-0.0555923
-0.0353604
-0.0049427
0.030895
-0.00289288
-0.00306701
-0.00201679
-0.000862395
0.00058674
0.00200499
0.00249816
0.000783539
-0.00436644
-0.0134508
-0.0257945
-0.0395288
-0.0521488
-0.0610206
-0.0638924
-0.0586991
-0.0435285
-0.0157841
0.0263052
0.0774765
-0.00954902
-0.00877628
-0.00530124
-0.00199869
0.000826647
0.00325207
0.00449691
0.00332824
-0.00137265
-0.00997684
-0.021815
-0.0350603
-0.0472502
-0.0554744
-0.0568486
-0.0477651
-0.0239518
0.0205094
0.0887039
0.172284
-0.0376761
-0.0122953
-0.00234227
0.00124148
0.00389601
0.00630711
0.00751235
0.00627698
0.00157414
-0.00688036
-0.0184462
-0.0313505
-0.0431943
-0.0508924
-0.0510896
-0.0387704
-0.00693904
0.0556585
0.157
0.286319
)
;

boundaryField
{
    movingWall
    {
        type            zeroGradient;
    }
    fixedWalls
    {
        type            zeroGradient;
    }
    frontAndBack
    {
        type            empty;
    }
}


// ************************************************************************* //
