1.45 	0 	0 	-0.295
2.35 	0 	0 	-0.129904
