/*--------------------------------*- C++ -*----------------------------------*\
  =========                 |
  \\      /  F ield         | OpenFOAM: The Open Source CFD Toolbox
   \\    /   O peration     | Website:  https://openfoam.org
    \\  /    A nd           | Version:  6.0
     \\/     M anipulation  |
\*---------------------------------------------------------------------------*/
FoamFile
{
    version     2.0;
    format      ascii;
    class       volScalarField;
    location    "15";
    object      p;
}
// * * * * * * * * * * * * * * * * * * * * * * * * * * * * * * * * * * * * * //

dimensions      [0 2 -2 0 0 0 0];

internalField   nonuniform List<scalar> 
8000
(
-0.327529
-0.331795
-0.33429
-0.335753
-0.336625
-0.33698
-0.336896
-0.336456
-0.335726
-0.334761
-0.333606
-0.332301
-0.33088
-0.329372
-0.327803
-0.326197
-0.32457
-0.32291
-0.321217
-0.319815
-0.328192
-0.332411
-0.334865
-0.33629
-0.337123
-0.33744
-0.337319
-0.336844
-0.336078
-0.335079
-0.33389
-0.332552
-0.331099
-0.329561
-0.327962
-0.326328
-0.324675
-0.32299
-0.321271
-0.319859
-0.329521
-0.333645
-0.336017
-0.337364
-0.33812
-0.33836
-0.338166
-0.337617
-0.336781
-0.335712
-0.334456
-0.333053
-0.331536
-0.329935
-0.328277
-0.326586
-0.324881
-0.323144
-0.321374
-0.319943
-0.331519
-0.335498
-0.337746
-0.338976
-0.339614
-0.33974
-0.339434
-0.338776
-0.337833
-0.33666
-0.335302
-0.333799
-0.332184
-0.330489
-0.32874
-0.326964
-0.325178
-0.323363
-0.321515
-0.320057
-0.334193
-0.337976
-0.340055
-0.341126
-0.341607
-0.341578
-0.341121
-0.340317
-0.339232
-0.337918
-0.336423
-0.334785
-0.333039
-0.331216
-0.329343
-0.327449
-0.325554
-0.32363
-0.321675
-0.320184
-0.337552
-0.341082
-0.342946
-0.343815
-0.344096
-0.343873
-0.343227
-0.342239
-0.340973
-0.339484
-0.337815
-0.336006
-0.334093
-0.332105
-0.330073
-0.328028
-0.325989
-0.323925
-0.321832
-0.320302
-0.341606
-0.344823
-0.346421
-0.347044
-0.347082
-0.346622
-0.345748
-0.344538
-0.343055
-0.341352
-0.339473
-0.337456
-0.335337
-0.333148
-0.330918
-0.328683
-0.326464
-0.324222
-0.321957
-0.320383
-0.346369
-0.349205
-0.350484
-0.350812
-0.350562
-0.349824
-0.348682
-0.347211
-0.345474
-0.34352
-0.341393
-0.33913
-0.336766
-0.334333
-0.331864
-0.329396
-0.326954
-0.324491
-0.322013
-0.320391
-0.351855
-0.354234
-0.355136
-0.355119
-0.354534
-0.353476
-0.352025
-0.350256
-0.348228
-0.345988
-0.343576
-0.341027
-0.338376
-0.335656
-0.332899
-0.33015
-0.327436
-0.324698
-0.321956
-0.32028
-0.358078
-0.359916
-0.360377
-0.359962
-0.358995
-0.357572
-0.355774
-0.353671
-0.351317
-0.348755
-0.346021
-0.343148
-0.340168
-0.337111
-0.334016
-0.330929
-0.327882
-0.324804
-0.321735
-0.319991
-0.365051
-0.366253
-0.366204
-0.365336
-0.363938
-0.362108
-0.359925
-0.357454
-0.354742
-0.351825
-0.348736
-0.3455
-0.342146
-0.338704
-0.335211
-0.33172
-0.328266
-0.324766
-0.321285
-0.319447
-0.372782
-0.373243
-0.37261
-0.371232
-0.369354
-0.367076
-0.364473
-0.361601
-0.358502
-0.355204
-0.351729
-0.348097
-0.344328
-0.340448
-0.336492
-0.332519
-0.328567
-0.324537
-0.320528
-0.318547
-0.381272
-0.380879
-0.379584
-0.377638
-0.37523
-0.372464
-0.369408
-0.366111
-0.362603
-0.358901
-0.355018
-0.35096
-0.346739
-0.34237
-0.337882
-0.333335
-0.328773
-0.324071
-0.319368
-0.317155
-0.390512
-0.389143
-0.387106
-0.384533
-0.381549
-0.378257
-0.374721
-0.370977
-0.367045
-0.362928
-0.358624
-0.354124
-0.349423
-0.344519
-0.339428
-0.334206
-0.328892
-0.323329
-0.317693
-0.31509
-0.400476
-0.398008
-0.39515
-0.391892
-0.388288
-0.384437
-0.380398
-0.376194
-0.371831
-0.3673
-0.362577
-0.357636
-0.352445
-0.346976
-0.34122
-0.335213
-0.328977
-0.322295
-0.315365
-0.31209
-0.411123
-0.407435
-0.403679
-0.399684
-0.395417
-0.390979
-0.38642
-0.381751
-0.376965
-0.372034
-0.366917
-0.361561
-0.355901
-0.34987
-0.343412
-0.33652
-0.329168
-0.321027
-0.312263
-0.307847
-0.422393
-0.417372
-0.412648
-0.407867
-0.402903
-0.397855
-0.392765
-0.387636
-0.382444
-0.377149
-0.37169
-0.365984
-0.35993
-0.353406
-0.346284
-0.338481
-0.329878
-0.319935
-0.308618
-0.302257
-0.434206
-0.427757
-0.422003
-0.416397
-0.410706
-0.405029
-0.399407
-0.393828
-0.388264
-0.382661
-0.376943
-0.371004
-0.364702
-0.357852
-0.35023
-0.341636
-0.331807
-0.319774
-0.30466
-0.294238
-0.446464
-0.438514
-0.431686
-0.425222
-0.418781
-0.412465
-0.406311
-0.400304
-0.394411
-0.388576
-0.38272
-0.376722
-0.370409
-0.363526
-0.355716
-0.346573
-0.33547
-0.320296
-0.297709
-0.277524
-0.45906
-0.449562
-0.441629
-0.434286
-0.427081
-0.42012
-0.41344
-0.407027
-0.400855
-0.394884
-0.389052
-0.383267
-0.377383
-0.371156
-0.3642
-0.355959
-0.345264
-0.32829
-0.298567
-0.268193
-0.471878
-0.460815
-0.451764
-0.443534
-0.435558
-0.427948
-0.420745
-0.413942
-0.407528
-0.401494
-0.395833
-0.390543
-0.385637
-0.381153
-0.377214
-0.374103
-0.372126
-0.371473
-0.376016
-0.40082
-0.484801
-0.472185
-0.462023
-0.452907
-0.44416
-0.4359
-0.428173
-0.420975
-0.414311
-0.408198
-0.402671
-0.397789
-0.393655
-0.390437
-0.388424
-0.388053
-0.389762
-0.394414
-0.406703
-0.434001
-0.49772
-0.48359
-0.472338
-0.462351
-0.452842
-0.443935
-0.435678
-0.428069
-0.421122
-0.414868
-0.409363
-0.404694
-0.400991
-0.398448
-0.397349
-0.398056
-0.400857
-0.40639
-0.417929
-0.43819
-0.510534
-0.494948
-0.482645
-0.471812
-0.461559
-0.452013
-0.443224
-0.435186
-0.427914
-0.421445
-0.415839
-0.411186
-0.407611
-0.405287
-0.404441
-0.405321
-0.408065
-0.413076
-0.422628
-0.437115
-0.523153
-0.506183
-0.492878
-0.481235
-0.470266
-0.460097
-0.450775
-0.44229
-0.434652
-0.427891
-0.42206
-0.417235
-0.413514
-0.411025
-0.409921
-0.410331
-0.41226
-0.415951
-0.423124
-0.433017
-0.535494
-0.517219
-0.502971
-0.490563
-0.47891
-0.46814
-0.458291
-0.449342
-0.441295
-0.434167
-0.427995
-0.422828
-0.418732
-0.415782
-0.414057
-0.413595
-0.414309
-0.416353
-0.421121
-0.427172
-0.547476
-0.52798
-0.512852
-0.49973
-0.487432
-0.476083
-0.465712
-0.456286
-0.447788
-0.440222
-0.433602
-0.42795
-0.423293
-0.41966
-0.417072
-0.415501
-0.41481
-0.415118
-0.417588
-0.420368
-0.559017
-0.538383
-0.522441
-0.508657
-0.495757
-0.483854
-0.472968
-0.463047
-0.454059
-0.445987
-0.438823
-0.432562
-0.427197
-0.422719
-0.419107
-0.416292
-0.414118
-0.412693
-0.412998
-0.412951
-0.570027
-0.548335
-0.531647
-0.517257
-0.503794
-0.491362
-0.479965
-0.469532
-0.460014
-0.451373
-0.443581
-0.436607
-0.430419
-0.424981
-0.420244
-0.416117
-0.412445
-0.409335
-0.407612
-0.405108
-0.580401
-0.557731
-0.540366
-0.525424
-0.51144
-0.498501
-0.486595
-0.475631
-0.465543
-0.456275
-0.44778
-0.44001
-0.432913
-0.426436
-0.420515
-0.415053
-0.409908
-0.405189
-0.40158
-0.396939
-0.590022
-0.566455
-0.54848
-0.53304
-0.518574
-0.505148
-0.492732
-0.481218
-0.470521
-0.460574
-0.451314
-0.44268
-0.434612
-0.427047
-0.419918
-0.41313
-0.406563
-0.400326
-0.394975
-0.388488
-0.598753
-0.574373
-0.555858
-0.539975
-0.525062
-0.511166
-0.498238
-0.486152
-0.474812
-0.464138
-0.454062
-0.444515
-0.435434
-0.426757
-0.418419
-0.410338
-0.402418
-0.394765
-0.387821
-0.379753
-0.606443
-0.58134
-0.562355
-0.546081
-0.530757
-0.516406
-0.502962
-0.490285
-0.478269
-0.46683
-0.455897
-0.445402
-0.435287
-0.425493
-0.415968
-0.406644
-0.397451
-0.388491
-0.380105
-0.370698
-0.612924
-0.587196
-0.567816
-0.551204
-0.535501
-0.520709
-0.506744
-0.493458
-0.480739
-0.468504
-0.456686
-0.445223
-0.434067
-0.423171
-0.412496
-0.401993
-0.391618
-0.381464
-0.371784
-0.361261
-0.618016
-0.59177
-0.572075
-0.555177
-0.539129
-0.523908
-0.50942
-0.495509
-0.482065
-0.469013
-0.456291
-0.443855
-0.431667
-0.419698
-0.407924
-0.396317
-0.384856
-0.373624
-0.362796
-0.35136
-0.621531
-0.594887
-0.574957
-0.557828
-0.541467
-0.525832
-0.510819
-0.496272
-0.482089
-0.468205
-0.454577
-0.441174
-0.427977
-0.414977
-0.402166
-0.389539
-0.377094
-0.3649
-0.353066
-0.340902
-0.623274
-0.596361
-0.576283
-0.558979
-0.542341
-0.526307
-0.51077
-0.495581
-0.480652
-0.465935
-0.451406
-0.437056
-0.422889
-0.408911
-0.395137
-0.381579
-0.368254
-0.355214
-0.342512
-0.329786
-0.623048
-0.596008
-0.575875
-0.558453
-0.541571
-0.525156
-0.509102
-0.493273
-0.4776
-0.462058
-0.446648
-0.431385
-0.416294
-0.401405
-0.386748
-0.372355
-0.358257
-0.344487
-0.331049
-0.317912
-0.620659
-0.593643
-0.57355
-0.556071
-0.538985
-0.522209
-0.50565
-0.489189
-0.472783
-0.456436
-0.440177
-0.424047
-0.408095
-0.392369
-0.376919
-0.361791
-0.347029
-0.332642
-0.318596
-0.305184
-0.61592
-0.589087
-0.569135
-0.551659
-0.53441
-0.517301
-0.500254
-0.483179
-0.466063
-0.448944
-0.431881
-0.414941
-0.398199
-0.381722
-0.365575
-0.349817
-0.334501
-0.31961
-0.305076
-0.291515
-0.608654
-0.582171
-0.562462
-0.545055
-0.527685
-0.510274
-0.492766
-0.475104
-0.457314
-0.439467
-0.421656
-0.403978
-0.386529
-0.369394
-0.352652
-0.336372
-0.320613
-0.30533
-0.290424
-0.276826
-0.598687
-0.57273
-0.553369
-0.536097
-0.518657
-0.500982
-0.483047
-0.464837
-0.446418
-0.427902
-0.409415
-0.391081
-0.373017
-0.355327
-0.338098
-0.321408
-0.305318
-0.289753
-0.274586
-0.261054
-0.585873
-0.560618
-0.541714
-0.524647
-0.507189
-0.489295
-0.470978
-0.45227
-0.433283
-0.414169
-0.395087
-0.37619
-0.357616
-0.339479
-0.321875
-0.304889
-0.28858
-0.272842
-0.257521
-0.244148
-0.570082
-0.545709
-0.52737
-0.510579
-0.493161
-0.475101
-0.456457
-0.437313
-0.41783
-0.398201
-0.378621
-0.359267
-0.340293
-0.321825
-0.303963
-0.286797
-0.270381
-0.254577
-0.239203
-0.226075
-0.551207
-0.527894
-0.510229
-0.493787
-0.476474
-0.458309
-0.439403
-0.419898
-0.400004
-0.379959
-0.359986
-0.340288
-0.321034
-0.302356
-0.284357
-0.267127
-0.250716
-0.234952
-0.219622
-0.206815
-0.529166
-0.507089
-0.490205
-0.474189
-0.45705
-0.43885
-0.419759
-0.39998
-0.379774
-0.35942
-0.339173
-0.319254
-0.299845
-0.281083
-0.26307
-0.245894
-0.229599
-0.213977
-0.198785
-0.186366
-0.503905
-0.483236
-0.467239
-0.451729
-0.434838
-0.416682
-0.397494
-0.377539
-0.357132
-0.336589
-0.316194
-0.296186
-0.276754
-0.258037
-0.240135
-0.22313
-0.20706
-0.191682
-0.176714
-0.164742
-0.475398
-0.456304
-0.441299
-0.426374
-0.409813
-0.39179
-0.372603
-0.352583
-0.332095
-0.311494
-0.291088
-0.271128
-0.251808
-0.233268
-0.215601
-0.198885
-0.183148
-0.168112
-0.153451
-0.141975
-0.443653
-0.426294
-0.412382
-0.398124
-0.38198
-0.364185
-0.345109
-0.325145
-0.304709
-0.284188
-0.263912
-0.244143
-0.225077
-0.206847
-0.189541
-0.173229
-0.15793
-0.143333
-0.129057
-0.118115
-0.408708
-0.393236
-0.380514
-0.367009
-0.351374
-0.333912
-0.315063
-0.295285
-0.275041
-0.254748
-0.234752
-0.21532
-0.196649
-0.178865
-0.162046
-0.146252
-0.131496
-0.117429
-0.103613
-0.0932325
-0.370638
-0.357193
-0.345757
-0.333089
-0.318059
-0.301041
-0.282546
-0.263093
-0.243188
-0.223275
-0.20371
-0.184767
-0.166635
-0.149432
-0.133225
-0.118065
-0.103954
-0.0905109
-0.0772227
-0.0674215
-0.329548
-0.318261
-0.308201
-0.296456
-0.282132
-0.265675
-0.247666
-0.228682
-0.209269
-0.18989
-0.170914
-0.15261
-0.135162
-0.118678
-0.103209
-0.0887976
-0.0754352
-0.0627092
-0.0500191
-0.0408031
-0.285582
-0.276572
-0.267971
-0.257235
-0.243719
-0.227944
-0.210556
-0.19219
-0.173423
-0.154738
-0.136505
-0.118993
-0.102375
-0.0867469
-0.0721458
-0.0586004
-0.0460947
-0.0341841
-0.0221653
-0.0135327
-0.238913
-0.232287
-0.225224
-0.21558
-0.202977
-0.188006
-0.171378
-0.153777
-0.135811
-0.117975
-0.100642
-0.0840726
-0.0684304
-0.0537972
-0.0401959
-0.0276413
-0.0161092
-0.00512491
0.00613553
0.0141912
-0.189753
-0.185602
-0.18015
-0.17168
-0.16009
-0.146045
-0.130313
-0.113624
-0.0966107
-0.079776
-0.063492
-0.0480121
-0.0334891
-0.0199919
-0.00752894
0.00389881
0.0143226
0.024243
0.0346266
0.0421063
-0.138343
-0.136745
-0.132967
-0.125748
-0.115272
-0.102271
-0.0875672
-0.0719301
-0.0560119
-0.0403213
-0.0252274
-0.0109758
0.00229013
0.0145117
0.025692
0.0358411
0.0449932
0.0536656
0.0629922
0.0698645
-0.0849563
-0.0859727
-0.0839233
-0.078027
-0.06876
-0.0569158
-0.043364
-0.0289088
-0.0142168
0.000200884
0.0139794
0.0268796
0.0387645
0.0495805
0.0593355
0.0680449
0.0757383
0.0829266
0.0909089
0.097038
-0.0298962
-0.0335708
-0.0332954
-0.0287867
-0.0208157
-0.0102324
0.00205356
0.0152104
0.0285619
0.0415979
0.0539581
0.065408
0.075812
0.0851127
0.0933104
0.100416
0.106445
0.111824
0.117884
0.122793
0.0265084
0.02015
0.0186172
0.0216813
0.0282773
0.0375058
0.0484249
0.0601832
0.0721005
0.0836713
0.0945413
0.104479
0.113342
0.121055
0.127586
0.132912
0.136978
0.139862
0.142449
0.14463
0.0839035
0.0748555
0.071492
0.0730637
0.0782154
0.0860063
0.0954716
0.105748
0.11616
0.126212
0.135561
0.143984
0.151337
0.157522
0.162465
0.166101
0.168205
0.167999
0.165119
0.16272
0.141913
0.13019
0.124986
0.125028
0.128677
0.134959
0.142896
0.151623
0.160474
0.168975
0.176806
0.183765
0.189737
0.194653
0.198496
0.201336
0.203072
0.202396
0.198378
0.203861
0.200168
0.185799
0.178754
0.177236
0.179331
0.184043
0.190388
0.197505
0.204746
0.211663
0.21796
0.223468
0.228102
0.231837
0.234714
0.236892
0.238396
0.238332
0.236729
0.244528
0.258269
0.241302
0.232428
0.229332
0.229835
0.232927
0.237625
0.243079
0.248666
0.253959
0.258693
0.262721
0.265983
0.268478
0.270273
0.271529
0.272278
0.271809
0.270382
0.277239
0.315817
0.296319
0.28564
0.280958
0.279843
0.281276
0.284285
0.288035
0.291927
0.295562
0.298698
0.30121
0.303055
0.304247
0.304859
0.305044
0.304822
0.303563
0.301545
0.306788
0.372418
0.350469
0.338021
0.331757
0.32901
0.32876
0.330052
0.332069
0.334238
0.336188
0.337699
0.338662
0.339049
0.338879
0.338227
0.33723
0.335895
0.333658
0.330815
0.334423
0.427679
0.403374
0.389204
0.381374
0.376996
0.375055
0.374616
0.374887
0.375321
0.375574
0.375445
0.374843
0.373747
0.372181
0.370215
0.367972
0.365449
0.362145
0.358378
0.36037
0.481219
0.454664
0.438829
0.429463
0.423468
0.419845
0.417681
0.41621
0.414916
0.413477
0.411714
0.409549
0.406968
0.403998
0.400705
0.397199
0.393468
0.389076
0.384358
0.384763
0.532666
0.50398
0.486549
0.475687
0.468107
0.462827
0.458962
0.455774
0.452776
0.449671
0.4463
0.442596
0.438551
0.434196
0.429592
0.424836
0.419916
0.414456
0.408795
0.407658
0.581666
0.550975
0.532025
0.519722
0.510605
0.503712
0.498189
0.493329
0.488672
0.483948
0.479014
0.473815
0.46835
0.46265
0.456774
0.450808
0.44474
0.438253
0.431677
0.429058
0.627878
0.595317
0.574937
0.561261
0.55067
0.542225
0.535107
0.528639
0.522389
0.51611
0.509678
0.503048
0.496224
0.489239
0.482149
0.47503
0.467873
0.460416
0.452967
0.448938
0.670983
0.636696
0.614982
0.600013
0.588026
0.578109
0.569478
0.561483
0.553724
0.545975
0.538128
0.530147
0.522042
0.513847
0.505616
0.497416
0.489241
0.480879
0.472609
0.467256
0.710683
0.67482
0.651878
0.635707
0.622417
0.611125
0.601078
0.591658
0.582491
0.573372
0.564207
0.554971
0.545678
0.536362
0.527075
0.517876
0.508764
0.499572
0.490542
0.483958
0.746701
0.709419
0.685363
0.668093
0.653608
0.641052
0.629705
0.618977
0.608517
0.598144
0.587774
0.577392
0.567014
0.556677
0.546429
0.536322
0.526362
0.516419
0.506696
0.498989
0.778787
0.740249
0.715201
0.696945
0.681385
0.667691
0.655173
0.643267
0.631647
0.620147
0.608698
0.597289
0.585942
0.574692
0.563586
0.552671
0.541956
0.531346
0.521004
0.512291
0.806718
0.767093
0.741181
0.722062
0.705558
0.690864
0.677318
0.664379
0.651741
0.639255
0.626861
0.614555
0.602361
0.590315
0.578462
0.566844
0.555472
0.544285
0.533403
0.523809
0.8303
0.789761
0.763118
0.743267
0.725961
0.710417
0.695996
0.682179
0.668678
0.655354
0.64216
0.629094
0.616183
0.603466
0.590981
0.578769
0.566845
0.555172
0.543833
0.533492
0.849366
0.80809
0.780858
0.760413
0.742454
0.726218
0.711086
0.696556
0.682353
0.66835
0.654506
0.640825
0.627335
0.614073
0.601078
0.588386
0.576016
0.563951
0.552242
0.541295
0.863784
0.821953
0.794274
0.773378
0.754924
0.738163
0.722491
0.707419
0.692683
0.678166
0.66383
0.649683
0.635753
0.62208
0.608699
0.595644
0.582938
0.570577
0.558588
0.547181
0.873453
0.83125
0.803271
0.782072
0.763285
0.746171
0.730135
0.714699
0.699606
0.684743
0.670076
0.655616
0.641392
0.627442
0.613803
0.600505
0.587573
0.575014
0.562837
0.551121
0.878304
0.835915
0.807786
0.786435
0.76748
0.750188
0.73397
0.718351
0.703078
0.688041
0.673209
0.658591
0.644219
0.630131
0.616361
0.602942
0.589897
0.577238
0.564967
0.553096
0.878304
0.835915
0.807786
0.786434
0.76748
0.750188
0.73397
0.718351
0.703078
0.688041
0.673208
0.658591
0.644219
0.630131
0.616361
0.602942
0.589896
0.577238
0.564967
0.553096
0.873452
0.83125
0.803271
0.782072
0.763285
0.74617
0.730135
0.714699
0.699606
0.684743
0.670076
0.655616
0.641392
0.627442
0.613802
0.600505
0.587572
0.575014
0.562837
0.551121
0.863784
0.821953
0.794273
0.773377
0.754923
0.738163
0.72249
0.707418
0.692683
0.678166
0.66383
0.649682
0.635753
0.622079
0.608698
0.595644
0.582937
0.570576
0.558587
0.547181
0.849365
0.80809
0.780857
0.760412
0.742453
0.726218
0.711086
0.696555
0.682352
0.66835
0.654506
0.640824
0.627334
0.614072
0.601077
0.588385
0.576015
0.56395
0.552241
0.541294
0.830299
0.78976
0.763117
0.743267
0.72596
0.710416
0.695995
0.682178
0.668677
0.655354
0.642159
0.629093
0.616183
0.603465
0.59098
0.578768
0.566844
0.555171
0.543832
0.533491
0.806717
0.767092
0.74118
0.722061
0.705557
0.690863
0.677317
0.664378
0.65174
0.639254
0.62686
0.614554
0.60236
0.590315
0.578461
0.566843
0.555471
0.544284
0.533402
0.523808
0.778786
0.740248
0.7152
0.696944
0.681384
0.66769
0.655172
0.643266
0.631646
0.620146
0.608697
0.597288
0.585941
0.574691
0.563585
0.55267
0.541955
0.531346
0.521003
0.51229
0.746699
0.709418
0.685362
0.668092
0.653607
0.641051
0.629703
0.618975
0.608516
0.598142
0.587773
0.577391
0.567013
0.556676
0.546427
0.536321
0.526361
0.516418
0.506694
0.498988
0.710681
0.674818
0.651876
0.635705
0.622415
0.611124
0.601077
0.591657
0.582489
0.57337
0.564206
0.55497
0.545677
0.536361
0.527073
0.517874
0.508763
0.499571
0.49054
0.483957
0.670981
0.636695
0.614981
0.600011
0.588024
0.578108
0.569476
0.561481
0.553722
0.545973
0.538126
0.530145
0.52204
0.513846
0.505614
0.497414
0.48924
0.480878
0.472608
0.467254
0.627876
0.595316
0.574935
0.561259
0.550668
0.542223
0.535105
0.528637
0.522387
0.516109
0.509677
0.503046
0.496222
0.489237
0.482147
0.475028
0.467872
0.460414
0.452965
0.448937
0.581663
0.550973
0.532023
0.51972
0.510603
0.50371
0.498187
0.493327
0.48867
0.483946
0.479012
0.473813
0.468348
0.462648
0.456772
0.450806
0.444738
0.438251
0.431675
0.429057
0.532664
0.503978
0.486546
0.475685
0.468105
0.462825
0.458959
0.455772
0.452774
0.449669
0.446298
0.442594
0.438549
0.434194
0.42959
0.424834
0.419914
0.414454
0.408793
0.407656
0.481216
0.454662
0.438827
0.42946
0.423466
0.419842
0.417678
0.416208
0.414913
0.413474
0.411712
0.409547
0.406965
0.403996
0.400703
0.397197
0.393466
0.389074
0.384356
0.384761
0.427676
0.403371
0.389201
0.381371
0.376993
0.375052
0.374613
0.374884
0.375319
0.375571
0.375443
0.374841
0.373744
0.372178
0.370213
0.36797
0.365447
0.362142
0.358376
0.360368
0.372415
0.350466
0.338018
0.331754
0.329007
0.328758
0.330049
0.332066
0.334236
0.336185
0.337696
0.33866
0.339046
0.338877
0.338225
0.337227
0.335892
0.333656
0.330813
0.334421
0.315814
0.296316
0.285637
0.280955
0.27984
0.281273
0.284282
0.288033
0.291924
0.295559
0.298695
0.301207
0.303052
0.304244
0.304857
0.305042
0.304819
0.303561
0.301543
0.306786
0.258265
0.241299
0.232425
0.229329
0.229832
0.232924
0.237622
0.243076
0.248663
0.253956
0.25869
0.262718
0.26598
0.268476
0.27027
0.271526
0.272275
0.271806
0.270379
0.277237
0.200164
0.185795
0.17875
0.177232
0.179328
0.18404
0.190385
0.197501
0.204743
0.21166
0.217957
0.223465
0.228099
0.231834
0.234711
0.236889
0.238393
0.238329
0.236726
0.244525
0.141909
0.130186
0.124983
0.125024
0.128673
0.134955
0.142893
0.151619
0.160471
0.168972
0.176802
0.183762
0.189733
0.19465
0.198493
0.201334
0.203069
0.202393
0.198375
0.203858
0.0838996
0.0748515
0.071488
0.0730598
0.0782115
0.0860025
0.0954679
0.105745
0.116156
0.126208
0.135558
0.14398
0.151333
0.157519
0.162462
0.166098
0.168202
0.167996
0.165116
0.162717
0.0265043
0.0201458
0.018613
0.0216772
0.0282732
0.0375018
0.048421
0.0601793
0.0720968
0.0836676
0.0945377
0.104475
0.113339
0.121052
0.127582
0.132909
0.136974
0.139859
0.142446
0.144628
-0.0299006
-0.0335752
-0.0332998
-0.0287911
-0.02082
-0.0102366
0.00204943
0.0152063
0.028558
0.041594
0.0539543
0.0654043
0.0758083
0.0851092
0.0933069
0.100413
0.106441
0.111821
0.117881
0.12279
-0.0849609
-0.0859773
-0.0839279
-0.0780315
-0.0687645
-0.0569202
-0.0433683
-0.028913
-0.0142209
0.000196825
0.0139755
0.0268757
0.0387607
0.0495768
0.0593319
0.0680414
0.0757349
0.0829233
0.0909057
0.0970349
-0.138348
-0.13675
-0.132971
-0.125752
-0.115277
-0.102276
-0.0875717
-0.0719345
-0.0560162
-0.0403256
-0.0252315
-0.0109798
0.00228618
0.0145079
0.0256882
0.0358375
0.0449896
0.0536622
0.0629888
0.0698612
-0.189758
-0.185607
-0.180155
-0.171685
-0.160095
-0.14605
-0.130318
-0.113629
-0.0966152
-0.0797804
-0.0634963
-0.0480163
-0.0334933
-0.0199959
-0.00753284
0.00389501
0.0143189
0.0242394
0.0346231
0.0421029
-0.238919
-0.232292
-0.225229
-0.215586
-0.202982
-0.188011
-0.171383
-0.153782
-0.135816
-0.11798
-0.100647
-0.084077
-0.0684347
-0.0538013
-0.0402
-0.0276453
-0.0161131
-0.00512865
0.00613188
0.0141876
-0.285587
-0.276577
-0.267976
-0.25724
-0.243724
-0.227949
-0.210562
-0.192195
-0.173428
-0.154742
-0.13651
-0.118998
-0.10238
-0.0867512
-0.07215
-0.0586045
-0.0460987
-0.034188
-0.0221691
-0.0135364
-0.329554
-0.318267
-0.308206
-0.296461
-0.282137
-0.265681
-0.247671
-0.228687
-0.209274
-0.189895
-0.170919
-0.152615
-0.135167
-0.118682
-0.103214
-0.0888018
-0.0754393
-0.0627133
-0.050023
-0.040807
-0.370644
-0.357198
-0.345762
-0.333094
-0.318065
-0.301047
-0.282552
-0.263099
-0.243194
-0.22328
-0.203715
-0.184772
-0.16664
-0.149437
-0.13323
-0.118069
-0.103958
-0.090515
-0.0772267
-0.0674254
-0.408714
-0.393242
-0.38052
-0.367015
-0.35138
-0.333918
-0.315069
-0.295291
-0.275047
-0.254753
-0.234757
-0.215325
-0.196654
-0.17887
-0.16205
-0.146257
-0.1315
-0.117434
-0.103617
-0.0932366
-0.443659
-0.4263
-0.412388
-0.39813
-0.381986
-0.364191
-0.345115
-0.32515
-0.304714
-0.284194
-0.263918
-0.244148
-0.225082
-0.206852
-0.189546
-0.173234
-0.157935
-0.143337
-0.129061
-0.118119
-0.475404
-0.456311
-0.441305
-0.42638
-0.40982
-0.391796
-0.372609
-0.352589
-0.332101
-0.3115
-0.291093
-0.271133
-0.251814
-0.233273
-0.215606
-0.19889
-0.183152
-0.168117
-0.153456
-0.141979
-0.503911
-0.483242
-0.467246
-0.451735
-0.434845
-0.416688
-0.3975
-0.377545
-0.357138
-0.336595
-0.3162
-0.296192
-0.276759
-0.258042
-0.24014
-0.223135
-0.207065
-0.191687
-0.176719
-0.164746
-0.529173
-0.507096
-0.490212
-0.474196
-0.457057
-0.438856
-0.419766
-0.399986
-0.37978
-0.359426
-0.339179
-0.31926
-0.299851
-0.281088
-0.263076
-0.245899
-0.229604
-0.213982
-0.198789
-0.18637
-0.551214
-0.527901
-0.510235
-0.493794
-0.476481
-0.458315
-0.439409
-0.419904
-0.400011
-0.379965
-0.359992
-0.340294
-0.321039
-0.302361
-0.284363
-0.267132
-0.250721
-0.234957
-0.219627
-0.206819
-0.570089
-0.545716
-0.527377
-0.510586
-0.493168
-0.475107
-0.456463
-0.437319
-0.417836
-0.398208
-0.378627
-0.359273
-0.340298
-0.321831
-0.303969
-0.286802
-0.270386
-0.254582
-0.239208
-0.22608
-0.58588
-0.560625
-0.541722
-0.524654
-0.507196
-0.489301
-0.470984
-0.452276
-0.433289
-0.414175
-0.395093
-0.376197
-0.357622
-0.339485
-0.321881
-0.304895
-0.288586
-0.272847
-0.257526
-0.244153
-0.598694
-0.572737
-0.553377
-0.536105
-0.518664
-0.500989
-0.483054
-0.464844
-0.446425
-0.427909
-0.409421
-0.391087
-0.373023
-0.355333
-0.338103
-0.321413
-0.305323
-0.289758
-0.274591
-0.261059
-0.608661
-0.582179
-0.56247
-0.545062
-0.527693
-0.510281
-0.492773
-0.475111
-0.45732
-0.439474
-0.421662
-0.403984
-0.386535
-0.3694
-0.352658
-0.336378
-0.320619
-0.305335
-0.290429
-0.276831
-0.615928
-0.589095
-0.569143
-0.551667
-0.534417
-0.517308
-0.500261
-0.483186
-0.46607
-0.448951
-0.431887
-0.414948
-0.398205
-0.381729
-0.365581
-0.349823
-0.334507
-0.319616
-0.305081
-0.29152
-0.620667
-0.59365
-0.573558
-0.556078
-0.538992
-0.522217
-0.505657
-0.489196
-0.47279
-0.456443
-0.440184
-0.424054
-0.408101
-0.392376
-0.376925
-0.361797
-0.347035
-0.332648
-0.318601
-0.30519
-0.623056
-0.596015
-0.575882
-0.55846
-0.541579
-0.525164
-0.50911
-0.49328
-0.477607
-0.462065
-0.446654
-0.431391
-0.416301
-0.401411
-0.386755
-0.372361
-0.358263
-0.344492
-0.331055
-0.317917
-0.623281
-0.596368
-0.576291
-0.558987
-0.542348
-0.526314
-0.510777
-0.495589
-0.480659
-0.465942
-0.451413
-0.437063
-0.422895
-0.408918
-0.395143
-0.381585
-0.36826
-0.35522
-0.342518
-0.329791
-0.621539
-0.594894
-0.574964
-0.557835
-0.541475
-0.52584
-0.510827
-0.496279
-0.482096
-0.468212
-0.454584
-0.441181
-0.427984
-0.414984
-0.402173
-0.389545
-0.3771
-0.364906
-0.353072
-0.340907
-0.618024
-0.591778
-0.572082
-0.555185
-0.539136
-0.523916
-0.509428
-0.495516
-0.482073
-0.46902
-0.456298
-0.443862
-0.431674
-0.419704
-0.40793
-0.396323
-0.384862
-0.373631
-0.362802
-0.351366
-0.612932
-0.587203
-0.567824
-0.551212
-0.535509
-0.520717
-0.506752
-0.493465
-0.480746
-0.468512
-0.456693
-0.44523
-0.434074
-0.423178
-0.412502
-0.402
-0.391624
-0.381471
-0.37179
-0.361267
-0.606451
-0.581348
-0.562363
-0.546089
-0.530764
-0.516414
-0.502969
-0.490292
-0.478276
-0.466838
-0.455904
-0.445409
-0.435294
-0.4255
-0.415975
-0.406651
-0.397457
-0.388498
-0.380111
-0.370704
-0.598761
-0.574381
-0.555865
-0.539982
-0.525069
-0.511174
-0.498245
-0.48616
-0.474819
-0.464146
-0.454069
-0.444522
-0.435441
-0.426764
-0.418426
-0.410345
-0.402424
-0.394771
-0.387828
-0.379759
-0.59003
-0.566463
-0.548487
-0.533048
-0.518581
-0.505156
-0.49274
-0.481225
-0.470528
-0.460581
-0.451321
-0.442687
-0.434619
-0.427054
-0.419924
-0.413136
-0.406569
-0.400332
-0.394982
-0.388494
-0.580409
-0.557739
-0.540373
-0.525431
-0.511447
-0.498509
-0.486602
-0.475639
-0.46555
-0.456283
-0.447788
-0.440017
-0.43292
-0.426443
-0.420522
-0.41506
-0.409915
-0.405196
-0.401586
-0.396946
-0.570035
-0.548342
-0.531655
-0.517264
-0.503802
-0.49137
-0.479973
-0.46954
-0.460021
-0.451381
-0.443588
-0.436614
-0.430426
-0.424988
-0.420251
-0.416124
-0.412452
-0.409342
-0.407619
-0.405114
-0.559025
-0.538391
-0.522449
-0.508665
-0.495764
-0.483861
-0.472975
-0.463054
-0.454066
-0.445995
-0.438831
-0.432569
-0.427204
-0.422726
-0.419114
-0.416299
-0.414125
-0.412699
-0.413005
-0.412958
-0.547484
-0.527988
-0.51286
-0.499737
-0.48744
-0.47609
-0.46572
-0.456293
-0.447796
-0.44023
-0.433609
-0.427957
-0.4233
-0.419667
-0.417079
-0.415508
-0.414817
-0.415125
-0.417595
-0.420374
-0.535502
-0.517227
-0.502979
-0.490571
-0.478918
-0.468147
-0.458298
-0.44935
-0.441302
-0.434174
-0.428002
-0.422835
-0.418739
-0.415789
-0.414064
-0.413602
-0.414315
-0.41636
-0.421128
-0.427179
-0.523161
-0.50619
-0.492886
-0.481243
-0.470273
-0.460104
-0.450783
-0.442298
-0.434659
-0.427898
-0.422067
-0.417242
-0.413521
-0.411032
-0.409928
-0.410337
-0.412267
-0.415958
-0.423131
-0.433023
-0.510542
-0.494955
-0.482653
-0.471819
-0.461566
-0.452021
-0.443231
-0.435193
-0.427921
-0.421452
-0.415846
-0.411193
-0.407618
-0.405294
-0.404448
-0.405328
-0.408072
-0.413083
-0.422635
-0.437122
-0.497727
-0.483597
-0.472346
-0.462358
-0.452849
-0.443942
-0.435685
-0.428076
-0.421129
-0.414875
-0.40937
-0.404701
-0.400998
-0.398455
-0.397356
-0.398062
-0.400864
-0.406397
-0.417936
-0.438197
-0.484808
-0.472193
-0.46203
-0.452914
-0.444167
-0.435907
-0.42818
-0.420982
-0.414318
-0.408205
-0.402678
-0.397796
-0.393662
-0.390443
-0.388431
-0.388059
-0.389769
-0.394421
-0.40671
-0.434008
-0.471885
-0.460822
-0.451771
-0.443541
-0.435565
-0.427955
-0.420752
-0.413949
-0.407535
-0.401501
-0.39584
-0.39055
-0.385644
-0.38116
-0.37722
-0.37411
-0.372133
-0.37148
-0.376023
-0.400827
-0.459068
-0.449569
-0.441636
-0.434293
-0.427088
-0.420127
-0.413447
-0.407034
-0.400862
-0.39489
-0.389058
-0.383273
-0.377389
-0.371162
-0.364207
-0.355966
-0.345271
-0.328297
-0.298574
-0.2682
-0.446472
-0.438521
-0.431693
-0.425229
-0.418788
-0.412472
-0.406318
-0.400311
-0.394417
-0.388583
-0.382726
-0.376728
-0.370416
-0.363532
-0.355722
-0.34658
-0.335477
-0.320303
-0.297717
-0.277532
-0.434213
-0.427764
-0.42201
-0.416404
-0.410712
-0.405036
-0.399413
-0.393835
-0.38827
-0.382668
-0.37695
-0.37101
-0.364709
-0.357858
-0.350237
-0.341643
-0.331814
-0.319781
-0.304668
-0.294245
-0.4224
-0.417379
-0.412654
-0.407874
-0.402909
-0.397861
-0.392772
-0.387642
-0.38245
-0.377155
-0.371696
-0.36599
-0.359937
-0.353412
-0.346291
-0.338488
-0.329885
-0.319942
-0.308625
-0.302264
-0.411131
-0.407442
-0.403685
-0.39969
-0.395423
-0.390985
-0.386426
-0.381757
-0.376971
-0.37204
-0.366923
-0.361567
-0.355907
-0.349876
-0.343418
-0.336527
-0.329175
-0.321034
-0.31227
-0.307854
-0.400483
-0.398014
-0.395156
-0.391899
-0.388294
-0.384443
-0.380403
-0.3762
-0.371837
-0.367305
-0.362583
-0.357642
-0.352451
-0.346982
-0.341226
-0.335219
-0.328983
-0.322302
-0.315372
-0.312097
-0.390519
-0.389149
-0.387112
-0.384539
-0.381555
-0.378263
-0.374727
-0.370983
-0.36705
-0.362933
-0.358629
-0.35413
-0.349429
-0.344525
-0.339434
-0.334212
-0.328899
-0.323335
-0.3177
-0.315097
-0.381279
-0.380885
-0.37959
-0.377643
-0.375236
-0.372469
-0.369413
-0.366116
-0.362608
-0.358906
-0.355023
-0.350966
-0.346745
-0.342375
-0.337887
-0.333341
-0.328779
-0.324077
-0.319374
-0.317162
-0.372788
-0.373249
-0.372616
-0.371238
-0.369359
-0.367081
-0.364478
-0.361606
-0.358507
-0.355209
-0.351734
-0.348102
-0.344333
-0.340453
-0.336498
-0.332524
-0.328573
-0.324543
-0.320534
-0.318553
-0.365056
-0.366259
-0.366209
-0.365341
-0.363943
-0.362113
-0.35993
-0.357459
-0.354746
-0.35183
-0.34874
-0.345505
-0.342151
-0.338709
-0.335216
-0.331725
-0.328272
-0.324771
-0.321291
-0.319452
-0.358083
-0.359921
-0.360382
-0.359967
-0.359
-0.357577
-0.355779
-0.353676
-0.351322
-0.34876
-0.346026
-0.343153
-0.340172
-0.337116
-0.334021
-0.330934
-0.327887
-0.324809
-0.32174
-0.319996
-0.351859
-0.354239
-0.35514
-0.355123
-0.354539
-0.35348
-0.352029
-0.35026
-0.348232
-0.345992
-0.34358
-0.341031
-0.33838
-0.33566
-0.332904
-0.330155
-0.32744
-0.324702
-0.321961