1.275 	2.15223e-18 	-2.76991e-20 	-0.0344564 	-0.000434342 	-1.9119e-22
1.825 	2.15223e-18 	-1.39322e-20 	-0.00945156 	-0.00275506 	1.6898e-21
2.375 	2.15223e-18 	-2.66896e-23 	0.115346 	-0.00324249 	-7.0488e-22
