1.45 	0 	0 	-0.292562
2.35 	0 	0 	-0.127823
