/*--------------------------------*- C++ -*----------------------------------*\
  =========                 |
  \\      /  F ield         | OpenFOAM: The Open Source CFD Toolbox
   \\    /   O peration     | Website:  https://openfoam.org
    \\  /    A nd           | Version:  6.0
     \\/     M anipulation  |
\*---------------------------------------------------------------------------*/
FoamFile
{
    version     2.0;
    format      ascii;
    class       volScalarField;
    location    "29";
    object      p;
}
// * * * * * * * * * * * * * * * * * * * * * * * * * * * * * * * * * * * * * //

dimensions      [0 2 -2 0 0 0 0];

internalField   nonuniform List<scalar> 
2000
(
-0.348278
-0.354185
-0.355873
-0.355203
-0.353343
-0.350665
-0.347448
-0.343986
-0.340565
-0.336867
-0.350997
-0.356484
-0.357831
-0.35686
-0.354712
-0.351759
-0.34828
-0.344557
-0.340881
-0.337064
-0.356453
-0.361081
-0.361738
-0.360157
-0.357428
-0.35392
-0.349905
-0.345645
-0.341441
-0.33738
-0.364689
-0.367977
-0.367571
-0.365064
-0.361453
-0.3571
-0.352261
-0.347158
-0.342106
-0.337655
-0.375763
-0.377167
-0.375301
-0.371542
-0.366747
-0.361251
-0.35528
-0.348978
-0.342678
-0.337634
-0.389739
-0.38864
-0.384888
-0.37955
-0.373276
-0.366349
-0.35893
-0.351024
-0.342947
-0.336986
-0.406652
-0.402351
-0.396271
-0.389047
-0.381034
-0.372435
-0.363304
-0.353412
-0.342912
-0.335454
-0.426444
-0.418202
-0.40936
-0.399972
-0.390009
-0.379552
-0.368517
-0.356274
-0.342329
-0.331885
-0.448905
-0.436019
-0.424038
-0.412284
-0.400238
-0.387793
-0.374552
-0.358991
-0.338904
-0.321592
-0.4736
-0.455539
-0.440206
-0.426131
-0.412345
-0.398647
-0.384283
-0.366617
-0.341576
-0.317598
-0.499841
-0.476335
-0.457596
-0.441425
-0.426696
-0.413783
-0.403027
-0.395069
-0.395205
-0.414735
-0.526806
-0.497831
-0.475589
-0.457057
-0.44072
-0.427036
-0.416482
-0.410116
-0.41307
-0.430338
-0.55377
-0.519567
-0.493913
-0.47291
-0.454545
-0.439182
-0.427187
-0.41928
-0.418569
-0.426384
-0.580085
-0.541072
-0.512255
-0.48881
-0.468173
-0.450528
-0.436035
-0.424948
-0.418742
-0.417402
-0.605003
-0.561679
-0.529991
-0.504113
-0.480899
-0.460333
-0.442373
-0.426895
-0.414322
-0.404693
-0.627533
-0.580454
-0.546176
-0.517813
-0.491669
-0.467594
-0.445466
-0.424973
-0.40595
-0.389159
-0.646393
-0.596187
-0.559581
-0.528626
-0.499193
-0.47114
-0.44443
-0.418757
-0.393702
-0.371047
-0.660022
-0.607422
-0.568742
-0.535069
-0.502044
-0.469715
-0.438299
-0.407643
-0.377295
-0.350118
-0.666658
-0.612522
-0.572039
-0.535548
-0.498745
-0.462063
-0.42611
-0.390966
-0.356263
-0.325874
-0.664435
-0.609747
-0.567776
-0.528454
-0.487865
-0.447011
-0.406976
-0.368089
-0.330094
-0.297726
-0.651497
-0.597355
-0.554285
-0.512256
-0.468112
-0.423557
-0.380168
-0.338486
-0.29834
-0.265141
-0.626109
-0.573704
-0.530027
-0.485618
-0.438428
-0.39094
-0.345181
-0.30182
-0.260711
-0.227748
-0.586799
-0.537389
-0.493726
-0.4475
-0.398076
-0.348713
-0.301788
-0.257997
-0.217144
-0.185411
-0.532468
-0.487348
-0.444469
-0.397252
-0.346701
-0.296774
-0.250069
-0.207197
-0.167845
-0.138271
-0.462514
-0.422984
-0.381811
-0.334676
-0.284358
-0.235377
-0.1904
-0.149871
-0.113288
-0.0867558
-0.376936
-0.344263
-0.305842
-0.260065
-0.211508
-0.165081
-0.123382
-0.0866371
-0.0541096
-0.0314885
-0.27642
-0.25179
-0.217245
-0.174216
-0.129009
-0.0867293
-0.049787
-0.0181942
0.00897007
0.0267036
-0.162408
-0.146852
-0.117306
-0.0784194
-0.0380972
-0.00146285
0.0293282
0.0543394
0.0744093
0.0857907
-0.0371076
-0.031422
-0.00787286
0.0256523
0.0598438
0.089666
0.113105
0.12975
0.139685
0.142056
0.0965242
0.091858
0.10864
0.135969
0.163491
0.186481
0.202969
0.211337
0.210302
0.203573
0.234912
0.219723
0.229128
0.249636
0.270387
0.2875
0.299705
0.305188
0.304141
0.318059
0.374161
0.348526
0.349981
0.362801
0.375821
0.385795
0.391848
0.393091
0.392013
0.404937
0.510327
0.474597
0.467789
0.472341
0.476995
0.479074
0.478011
0.47339
0.467697
0.4728
0.639563
0.594326
0.579261
0.575359
0.57146
0.565472
0.557136
0.546303
0.535044
0.532203
0.758208
0.704275
0.681302
0.669193
0.657027
0.643279
0.627968
0.611131
0.594461
0.584514
0.862877
0.801276
0.771094
0.751449
0.731741
0.710964
0.689377
0.667165
0.64565
0.629494
0.950553
0.882521
0.846149
0.820013
0.79385
0.7671
0.740221
0.71351
0.687935
0.666577
1.01868
0.945644
0.904374
0.873098
0.841852
0.810426
0.779429
0.749242
0.720521
0.695106
1.06526
0.988791
0.944132
0.9093
0.874551
0.839915
0.806107
0.773556
0.742691
0.71449
1.0889
1.01069
0.964298
0.927649
0.891114
0.854847
0.819612
0.785867
0.753915
0.724296
1.0889
1.01069
0.964298
0.927649
0.891114
0.854847
0.819612
0.785867
0.753915
0.724296
1.06526
0.988791
0.944132
0.9093
0.874551
0.839916
0.806107
0.773556
0.742691
0.71449
1.01868
0.945644
0.904374
0.873099
0.841853
0.810426
0.77943
0.749243
0.720522
0.695106
0.950553
0.882522
0.846149
0.820014
0.793851
0.767101
0.740222
0.713511
0.687936
0.666577
0.862878
0.801276
0.771094
0.75145
0.731742
0.710965
0.689378
0.667166
0.645651
0.629495
0.758209
0.704276
0.681303
0.669194
0.657028
0.64328
0.627969
0.611132
0.594462
0.584515
0.639564
0.594327
0.579262
0.575361
0.571462
0.565474
0.557138
0.546304
0.535046
0.532204
0.510328
0.474598
0.467791
0.472343
0.476996
0.479075
0.478012
0.473391
0.467699
0.472802
0.374162
0.348528
0.349983
0.362802
0.375823
0.385797
0.39185
0.393093
0.392015
0.404939
0.234914
0.219724
0.22913
0.249638
0.270389
0.287502
0.299708
0.30519
0.304143
0.318061
0.0965264
0.0918602
0.108642
0.135971
0.163493
0.186483
0.202971
0.211339
0.210305
0.203576
-0.0371051
-0.0314196
-0.00787035
0.0256549
0.0598464
0.0896686
0.113108
0.129753
0.139687
0.142058
-0.162405
-0.146849
-0.117303
-0.0784165
-0.0380943
-0.00145993
0.0293311
0.0543423
0.0744122
0.0857936
-0.276417
-0.251787
-0.217242
-0.174213
-0.129006
-0.0867261
-0.0497838
-0.018191
0.00897322
0.0267067
-0.376932
-0.34426
-0.305839
-0.260062
-0.211505
-0.165077
-0.123378
-0.0866336
-0.0541062
-0.0314852
-0.462511
-0.42298
-0.381807
-0.334673
-0.284354
-0.235373
-0.190396
-0.149867
-0.113285
-0.0867522
-0.532464
-0.487344
-0.444465
-0.397248
-0.346697
-0.29677
-0.250065
-0.207193
-0.167841
-0.138268
-0.586795
-0.537384
-0.493721
-0.447496
-0.398072
-0.348708
-0.301784
-0.257992
-0.21714
-0.185407
-0.626105
-0.5737
-0.530022
-0.485613
-0.438423
-0.390936
-0.345177
-0.301815
-0.260706
-0.227744
-0.651492
-0.59735
-0.55428
-0.512251
-0.468107
-0.423552
-0.380163
-0.338481
-0.298335
-0.265137
-0.66443
-0.609742
-0.567771
-0.528448
-0.487859
-0.447006
-0.406971
-0.368084
-0.330089
-0.297722
-0.666653
-0.612517
-0.572034
-0.535543
-0.498739
-0.462057
-0.426104
-0.390961
-0.356258
-0.325869
-0.660017
-0.607417
-0.568736
-0.535063
-0.502038
-0.469709
-0.438294
-0.407637
-0.37729
-0.350113
-0.646387
-0.596181
-0.559575
-0.52862
-0.499187
-0.471135
-0.444425
-0.418751
-0.393697
-0.371042
-0.627528
-0.580448
-0.54617
-0.517807
-0.491663
-0.467588
-0.44546
-0.424968
-0.405944
-0.389154
-0.604997
-0.561673
-0.529985
-0.504107
-0.480893
-0.460327
-0.442367
-0.42689
-0.414317
-0.404687
-0.580079
-0.541066
-0.512249
-0.488804
-0.468167
-0.450522
-0.436029
-0.424942
-0.418737
-0.417397
-0.553764
-0.519561
-0.493907
-0.472904
-0.454539
-0.439176
-0.427182
-0.419275
-0.418564
-0.426379
-0.5268
-0.497825
-0.475583
-0.457051
-0.440714
-0.42703
-0.416476
-0.410111
-0.413065
-0.430333
-0.499836
-0.47633
-0.45759
-0.441419
-0.42669
-0.413777
-0.403021
-0.395063
-0.395199
-0.41473
-0.473594
-0.455534
-0.440201
-0.426125
-0.412339
-0.398642
-0.384277
-0.366612
-0.341571
-0.317593
-0.4489
-0.436014
-0.424033
-0.412279
-0.400233
-0.387788
-0.374547
-0.358986
-0.338899
-0.321587
-0.42644
-0.418197
-0.409355
-0.399967
-0.390004
-0.379547
-0.368512
-0.356269
-0.342325
-0.331881
-0.406648
-0.402347
-0.396267
-0.389043
-0.38103
-0.37243
-0.363299
-0.353408
-0.342908
-0.33545
-0.389736
-0.388636
-0.384884
-0.379547
-0.373272
-0.366345
-0.358926
-0.35102
-0.342943
-0.336983
-0.37576
-0.377165
-0.375299
-0.371539
-0.366744
-0.361248
-0.355277
-0.348975
-0.342675
-0.33763
-0.364687
-0.367974
-0.367569
-0.365062
-0.361451
-0.357097
-0.352259
-0.347155
-0.342103
-0.337652
-0.356452
-0.361079
-0.361736
-0.360156
-0.357426
-0.353918
-0.349903
-0.345644
-0.341439
-0.337378
-0.350996
-0.356483
-0.35783
-0.356859
-0.354711
-0.351758
-0.348279
-0.344556
-0.34088
-0.337063
-0.348278
-0.354184
-0.355872
-0.355203
-0.353342
-0.350665
-0.347448
-0.343985
-0.340564
-0.336867
-0.290643
-0.126457
-0.0814587
-0.0304516
-0.0193968
-0.00792982
-0.004478
-0.000981548
-0.00053214
0.00214609
-0.291874
-0.127004
-0.0817288
-0.0306505
-0.0194656
-0.00799045
-0.00450824
-0.00100218
-0.000540894
0.00213023
-0.294266
-0.128085
-0.0822645
-0.0310495
-0.0196022
-0.00811083
-0.00456829
-0.00104379
-0.000559008
0.00209847
-0.297678
-0.129675
-0.0830544
-0.0316507
-0.0198061
-0.00829045
-0.00465794
-0.00110629
-0.000586369
0.00205113
-0.301865
-0.131731
-0.0840721
-0.0324524
-0.0200755
-0.00852794
-0.00477666
-0.00118946
-0.000622625
0.00198867
-0.306471
-0.134176
-0.0852681
-0.0334409
-0.0204042
-0.00881965
-0.00492319
-0.00129272
-0.000667426
0.00191175
-0.311366
-0.13708
-0.0866476
-0.0346114
-0.0207931
-0.0091628
-0.00509696
-0.00141509
-0.000720935
0.00182196
-0.317072
-0.141095
-0.0884735
-0.0360645
-0.0212852
-0.0095708
-0.005304
-0.00155689
-0.000784673
0.00172209
-0.321853
-0.1466
-0.0909239
-0.0379659
-0.0219313
-0.0100708
-0.00555351
-0.00172354
-0.000857059
0.00160958
-0.314052
-0.148976
-0.0920333
-0.0396724
-0.0224331
-0.0105652
-0.00579978
-0.00191589
-0.000917826
0.0014618
-0.247521
-0.140885
-0.0883951
-0.0429484
-0.0229254
-0.0119043
-0.00651885
-0.00265816
-0.00108382
0.000805868
-0.18942
-0.131873
-0.0823726
-0.0444208
-0.0246509
-0.0142935
-0.00836376
-0.00413735
-0.00184202
-3.65657e-05
-0.147989
-0.114011
-0.0729298
-0.0429933
-0.0260703
-0.0164899
-0.0102903
-0.00572106
-0.00277013
-0.000713596
-0.108377
-0.0931082
-0.0635025
-0.0410234
-0.0271147
-0.018275
-0.0119551
-0.00714736
-0.00365297
-0.00118017
-0.0791214
-0.0758349
-0.0566992
-0.0397662
-0.0279345
-0.0196122
-0.0132585
-0.00829381
-0.00439334
-0.00147523
-0.0590153
-0.0629873
-0.0517383
-0.0387644
-0.0283423
-0.0204534
-0.0141782
-0.00914275
-0.00496686
-0.00166693
-0.0459795
-0.053726
-0.0478765
-0.0377923
-0.0284279
-0.0209308
-0.0147969
-0.00974753
-0.00539266
-0.00180276
-0.0377286
-0.0472666
-0.0449146
-0.036938
-0.0283815
-0.0211979
-0.0152016
-0.0101625
-0.00569388
-0.00190119
-0.0329031
-0.0431655
-0.0429073
-0.0363343
-0.0283245
-0.0213427
-0.0154444
-0.0104206
-0.00588614
-0.00196557
-0.0306715
-0.0411636
-0.0418962
-0.0360369
-0.0283005
-0.0214067
-0.0155565
-0.0105419
-0.00598032
-0.00199565
-0.218813
-0.24671
-0.272489
-0.296432
-0.318927
-0.340477
-0.361701
-0.383245
-0.405612
-0.429454
-0.0681625
-0.0783046
-0.0874686
-0.095898
-0.1039
-0.111854
-0.120219
-0.129535
-0.14038
-0.154546
-0.0453893
-0.0545707
-0.0633664
-0.0717497
-0.0796831
-0.0871218
-0.0940222
-0.100358
-0.106125
-0.111445
-0.0189655
-0.0246852
-0.0301987
-0.0355248
-0.0406853
-0.0457037
-0.050603
-0.0554053
-0.0601105
-0.0645978
-0.0132557
-0.0176115
-0.0218428
-0.025946
-0.0299174
-0.033753
-0.0374492
-0.0410031
-0.0443951
-0.0475931
-0.00820006
-0.0114173
-0.0145752
-0.0176728
-0.0207094
-0.0236847
-0.026598
-0.0294481
-0.0322233
-0.0349261
-0.00707482
-0.00961157
-0.012112
-0.0145721
-0.0169884
-0.0193577
-0.0216775
-0.0239452
-0.0261552
-0.0283195
-0.00627206
-0.00832969
-0.0103708
-0.0123913
-0.0143875
-0.0163559
-0.0182935
-0.0201972
-0.022064
-0.0238998
-0.00618302
-0.00795734
-0.00972371
-0.0114776
-0.0132148
-0.0149315
-0.0166242
-0.0182895
-0.0199257
-0.0215328
-0.00612622
-0.00775177
-0.00937468
-0.0109912
-0.0125978
-0.0141911
-0.0157681
-0.0173258
-0.0188631
-0.0203769
0.167785
0.126798
0.0814498
0.0383808
-0.00335748
-0.0442364
-0.0836395
-0.120984
-0.156003
-0.188609
0.117318
0.0914037
0.0646123
0.0417739
0.0216541
0.0029807
-0.0143293
-0.0300649
-0.0441996
-0.0568485
0.0732008
0.057503
0.0425504
0.0296386
0.0177876
0.00632133
-0.00483126
-0.0155822
-0.0259083
-0.0358362
0.052947
0.0438742
0.0352455
0.0275353
0.0202692
0.0131769
0.0062605
-0.000421197
-0.00684694
-0.0130239
0.0374118
0.0314606
0.0257206
0.0204302
0.01534
0.0103191
0.00537426
0.000536749
-0.00418088
-0.0087782
0.0271517
0.0232629
0.0194178
0.0157802
0.0122378
0.00872261
0.005236
0.00179474
-0.00159286
-0.00492478
0.0194504
0.0167221
0.0139671
0.0112907
0.0086448
0.00599662
0.00334789
0.000709795
-0.00190981
-0.0045061
0.0142713
0.0122764
0.0102313
0.00819838
0.00616112
0.00410586
0.00203498
-4.39982e-05
-0.00212472
-0.00420225
0.0109416
0.00934689
0.00770318
0.0060397
0.00435166
0.00263595
0.000896442
-0.000860711
-0.00262976
-0.00440552
0.00934606
0.00792565
0.00646193
0.00496914
0.00344665
0.00189554
0.000320103
-0.00127447
-0.00288334
-0.00450202
0.335203
0.334502
0.332953
0.330079
0.325095
0.316763
0.303314
0.282352
0.251244
0.206627
0.245306
0.24419
0.241554
0.236969
0.230099
0.220513
0.207642
0.190827
0.169319
0.142564
0.174477
0.173348
0.170681
0.166156
0.159666
0.151103
0.140276
0.126972
0.110784
0.0917976
0.122869
0.121983
0.119881
0.116318
0.111279
0.104787
0.0968377
0.0874395
0.0765148
0.0643986
0.0865364
0.0858919
0.084353
0.0817399
0.07806
0.0733656
0.067691
0.0610742
0.0534956
0.045164
0.0613586
0.0608952
0.0597867
0.0579046
0.0552621
0.0519105
0.0478915
0.0432489
0.0380004
0.0322924
0.0442085
0.0438699
0.0430598
0.0416846
0.0397559
0.037314
0.0343926
0.0310246
0.0272292
0.0230905
0.0329238
0.0326671
0.0320526
0.0310096
0.0295474
0.0276974
0.0254866
0.0229399
0.0200777
0.016952
0.0260888
0.0258803
0.0253816
0.0245353
0.0233487
0.0218469
0.0200511
0.0179803
0.0156521
0.0130981
0.0228687
0.0226822
0.0222371
0.0214821
0.0204234
0.0190831
0.0174799
0.01563
0.0135503
0.0112635
0.485177
0.48693
0.493263
0.504409
0.520261
0.541121
0.567455
0.599787
0.638655
0.684302
0.482936
0.484663
0.490916
0.501906
0.517509
0.537991
0.563761
0.595256
0.632875
0.67671
0.478505
0.480187
0.486287
0.496974
0.512091
0.531833
0.556492
0.586333
0.621484
0.661733
0.471985
0.473612
0.479502
0.489757
0.504174
0.52284
0.545877
0.573295
0.604802
0.639779
0.463515
0.465091
0.470732
0.480452
0.493983
0.511279
0.532239
0.556528
0.583295
0.611434
0.453262
0.454811
0.460185
0.469285
0.481777
0.49745
0.515937
0.536483
0.557534
0.577435
0.441423
0.443011
0.448139
0.456577
0.467917
0.481763
0.497441
0.513698
0.528196
0.538647
0.428204
0.430019
0.435034
0.442884
0.453099
0.465067
0.477737
0.489217
0.496281
0.495865
0.413674
0.415966
0.42106
0.428446
0.437641
0.447814
0.457464
0.463875
0.462664
0.448585
0.397472
0.399908
0.404575
0.410832
0.418211
0.425762
0.431709
0.432833
0.424367
0.396664
0.397475
0.39991
0.404577
0.410834
0.418213
0.425764
0.431712
0.432835
0.424369
0.396666
0.413677
0.415968
0.421062
0.428448
0.437643
0.447816
0.457466
0.463877
0.462666
0.448587
0.428206
0.430021
0.435036
0.442886
0.453101
0.465069
0.477739
0.489219
0.496283
0.495867
0.441425
0.443013
0.44814
0.456579
0.467919
0.481765
0.497443
0.513699
0.528198
0.538648
0.453263
0.454812
0.460186
0.469287
0.481778
0.497451
0.515938
0.536484
0.557536
0.577436
0.463516
0.465093
0.470734
0.480453
0.493984
0.51128
0.53224
0.55653
0.583296
0.611435
0.471986
0.473613
0.479503
0.489759
0.504175
0.522841
0.545878
0.573296
0.604803
0.63978
0.478506
0.480188
0.486288
0.496975
0.512092
0.531834
0.556492
0.586334
0.621484
0.661734
0.482936
0.484663
0.490916
0.501907
0.517509
0.537992
0.563762
0.595256
0.632876
0.67671
0.485177
0.48693
0.493263
0.50441
0.520261
0.541121
0.567455
0.599787
0.638655
0.684302
0.0228712
0.0226847
0.0222395
0.0214845
0.0204258
0.0190855
0.0174823
0.0156324
0.0135526
0.0112658
0.0260912
0.0258827
0.025384
0.0245377
0.0233511
0.0218493
0.0200535
0.0179827
0.0156546
0.0131005
0.0329263
0.0326695
0.032055
0.031012
0.0295498
0.0276999
0.025489
0.0229423
0.0200801
0.0169545
0.0442109
0.0438724
0.0430623
0.0416871
0.0397584
0.0373165
0.0343952
0.0310271
0.0272317
0.023093
0.0613611
0.0608977
0.0597892
0.0579071
0.0552647
0.0519131
0.047894
0.0432515
0.038003
0.0322949
0.0865389
0.0858945
0.0843555
0.0817425
0.0780626
0.0733682
0.0676936
0.0610768
0.0534983
0.0451666
0.122871
0.121986
0.119883
0.116321
0.111281
0.10479
0.0968404
0.0874422
0.0765175
0.0644014
0.174479
0.17335
0.170684
0.166159
0.159669
0.151105
0.140279
0.126975
0.110787
0.0918004
0.245309
0.244192
0.241557
0.236972
0.230102
0.220516
0.207645
0.190829
0.169322
0.142567
0.335205
0.334505
0.332956
0.330081
0.325097
0.316765
0.303316
0.282355
0.251247
0.206629
0.00934837
0.00792792
0.00646416
0.00497131
0.00344877
0.00189759
0.000322091
-0.00127254
-0.00288148
-0.00450023
0.010944
0.00934922
0.00770545
0.0060419
0.0043538
0.00263802
0.000898449
-0.000858771
-0.00262789
-0.00440372
0.0142737
0.0122787
0.0102336
0.00820065
0.00616332
0.00410799
0.00203704
-4.20065e-05
-0.00212279
-0.0042004
0.0194529
0.0167246
0.0139695
0.011293
0.00864705
0.0059988
0.00334999
0.000711819
-0.00190786
-0.00450422
0.0271542
0.0232654
0.0194202
0.0157826
0.0122401
0.00872485
0.00523816
0.00179682
-0.00159085
-0.00492285
0.0374144
0.0314632
0.0257231
0.0204326
0.0153424
0.0103215
0.0053765
0.000538923
-0.00417878
-0.00877618
0.0529497
0.0438769
0.0352481
0.0275379
0.0202718
0.0131794
0.00626294
-0.00041881
-0.00684461
-0.0130216
0.0732036
0.0575057
0.0425531
0.0296413
0.0177903
0.00632399
-0.00482862
-0.0155796
-0.0259057
-0.0358337
0.117321
0.0914065
0.0646151
0.0417768
0.0216571
0.00298367
-0.0143263
-0.0300619
-0.0441966
-0.0568456
0.167787
0.1268
0.0814527
0.0383838
-0.00335432
-0.0442331
-0.0836361
-0.120981
-0.155999
-0.188605
-0.0061245
-0.00775012
-0.00937311
-0.0109897
-0.0125964
-0.0141898
-0.0157669
-0.0173247
-0.0188621
-0.020376
-0.00618128
-0.00795566
-0.0097221
-0.0114761
-0.0132134
-0.0149302
-0.0166229
-0.0182884
-0.0199247
-0.0215319
-0.0062703
-0.00832801
-0.0103692
-0.0123898
-0.0143861
-0.0163546
-0.0182922
-0.0201961
-0.022063
-0.0238989
-0.00707303
-0.00960986
-0.0121104
-0.0145706
-0.016987
-0.0193564
-0.0216763
-0.0239441
-0.0261542
-0.0283186
-0.0081982
-0.0114155
-0.0145735
-0.0176712
-0.020708
-0.0236833
-0.0265968
-0.0294469
-0.0322223
-0.0349252
-0.0132537
-0.0176097
-0.021841
-0.0259444
-0.0299159
-0.0337516
-0.0374479
-0.0410018
-0.044394
-0.0475921
-0.0189633
-0.0246832
-0.0301967
-0.0355229
-0.0406836
-0.045702
-0.0506014
-0.0554038
-0.0601092
-0.0645966
-0.0453869
-0.0545683
-0.0633641
-0.0717475
-0.079681
-0.0871198
-0.0940204
-0.100356
-0.106123
-0.111444
-0.0681596
-0.0783016
-0.0874657
-0.0958951
-0.103897
-0.111851
-0.120217
-0.129533
-0.140378
-0.154544
-0.218809
-0.246706
-0.272485
-0.296429
-0.318923
-0.340473
-0.361698
-0.383242
-0.405608
-0.429451
-0.0306707
-0.0411631
-0.0418957
-0.036036
-0.028299
-0.0214053
-0.0155562
-0.0105425
-0.00598117
-0.00199657
-0.0329023
-0.043165
-0.0429069
-0.0363334
-0.0283229
-0.0213412
-0.015444
-0.0104213
-0.00588713
-0.00196658
-0.0377278
-0.0472661
-0.0449144
-0.0369371
-0.0283796
-0.0211962
-0.0152012
-0.0101633
-0.00569517
-0.00190241
-0.0459788
-0.0537256
-0.0478765
-0.0377914
-0.0284256
-0.0209287
-0.0147964
-0.00974866
-0.00539451
-0.0018043
-0.0590145
-0.0629871
-0.0517387
-0.0387634
-0.0283392
-0.0204507
-0.0141775
-0.0091444
-0.00496971
-0.00166893
-0.0791206
-0.075835
-0.0567003
-0.0397651
-0.0279301
-0.0196086
-0.0132574
-0.0082964
-0.00439782
-0.00147783
-0.108376
-0.0931088
-0.0635047
-0.0410219
-0.0271082
-0.0182701
-0.0119535
-0.00715143
-0.00365994
-0.00118352
-0.147988
-0.114014
-0.072934
-0.0429912
-0.0260607
-0.0164828
-0.0102877
-0.00572699
-0.00278038
-0.000717843
-0.189419
-0.131877
-0.0823804
-0.0444189
-0.024638
-0.0142834
-0.0083593
-0.00414457
-0.00185531
-4.17325e-05
-0.247519
-0.14089
-0.0884064
-0.0429481
-0.0229117
-0.0118925
-0.00651244
-0.00266503
-0.00109773
0.000800457
-0.314049
-0.148981
-0.0920441
-0.0396723
-0.022422
-0.0105559
-0.00579396
-0.00192169
-0.000929155
0.0014576
-0.32185
-0.146605
-0.0909343
-0.0379658
-0.0219209
-0.0100621
-0.00554802
-0.001729
-0.000867536
0.00160575
-0.317069
-0.1411
-0.0884835
-0.0360642
-0.0212755
-0.00956277
-0.005299
-0.00156195
-0.000794192
0.00171864
-0.311363
-0.137085
-0.0866568
-0.0346111
-0.0207842
-0.00915555
-0.00509248
-0.00141968
-0.00072942
0.00181889
-0.306469
-0.13418
-0.0852763
-0.0334406
-0.0203964
-0.00881327
-0.00491927
-0.00129673
-0.000674762
0.00190912
-0.301863
-0.131735
-0.0840792
-0.0324522
-0.0200688
-0.00852254
-0.00477337
-0.00119284
-0.000628755
0.00198649
-0.297677
-0.129678
-0.0830602
-0.0316506
-0.0198008
-0.00828613
-0.00465532
-0.001109
-0.000591217
0.00204942
-0.294265
-0.128087
-0.0822688
-0.0310494
-0.0195983
-0.00810766
-0.0045664
-0.00104577
-0.000562521
0.00209724
-0.291873
-0.127006
-0.0817314
-0.0306504
-0.0194632
-0.00798851
-0.0045071
-0.00100339
-0.000543022
0.0021295
-0.290643
-0.126457
-0.0814596
-0.0304516
-0.019396
-0.00792917
-0.00447761
-0.000981957
-0.000532848
0.00214585
)
;

boundaryField
{
    inlet
    {
        type            zeroGradient;
    }
    outlet
    {
        type            fixedValue;
        value           uniform 0;
    }
    cylinder
    {
        type            zeroGradient;
    }
    top
    {
        type            symmetryPlane;
    }
    bottom
    {
        type            symmetryPlane;
    }
    defaultFaces
    {
        type            empty;
    }
}


// ************************************************************************* //
