/*--------------------------------*- C++ -*----------------------------------*\
  =========                 |
  \\      /  F ield         | OpenFOAM: The Open Source CFD Toolbox
   \\    /   O peration     | Website:  https://openfoam.org
    \\  /    A nd           | Version:  6.0
     \\/     M anipulation  |
\*---------------------------------------------------------------------------*/
FoamFile
{
    version     2.0;
    format      ascii;
    class       volVectorField;
    location    "29";
    object      U;
}
// * * * * * * * * * * * * * * * * * * * * * * * * * * * * * * * * * * * * * //

dimensions      [0 1 -1 0 0 0 0];

internalField   nonuniform List<vector> 
2000
(
(-0.00199136 0.0017383 5.73284e-20)
(-0.00762192 0.00330207 6.80878e-20)
(-0.0153305 0.00366075 -6.49107e-20)
(-0.0223326 0.00333578 -1.32452e-19)
(-0.0276801 0.00263747 -9.25248e-20)
(-0.0312203 0.00176897 1.23263e-19)
(-0.0330504 0.000875691 7.17974e-20)
(-0.0334398 6.43449e-05 -2.90441e-20)
(-0.0328206 -0.000585949 -7.25057e-20)
(-0.0314875 -0.00101128 5.28663e-20)
(-0.00248983 0.00512143 -1.42101e-19)
(-0.00837094 0.00968513 1.96165e-19)
(-0.0157254 0.0106963 1.95614e-20)
(-0.0220249 0.00969521 -1.13627e-19)
(-0.0264586 0.00759491 5.43715e-19)
(-0.0289499 0.00499232 -2.39296e-19)
(-0.0296444 0.00231577 -2.58889e-19)
(-0.0288375 -0.000116394 3.12253e-19)
(-0.0269778 -0.00206246 -3.07956e-19)
(-0.0244376 -0.00332991 1.55358e-19)
(-0.00343588 0.00822512 2.36006e-20)
(-0.00972821 0.0154093 8.39312e-21)
(-0.0163013 0.0168848 5.87898e-19)
(-0.0211428 0.0151377 2.06229e-19)
(-0.0237158 0.0116293 4.09018e-20)
(-0.024095 0.00731134 3.38245e-19)
(-0.0225189 0.00286976 -6.42453e-19)
(-0.0193315 -0.00117263 1.39334e-20)
(-0.0150109 -0.00439904 -3.79904e-19)
(-0.0100911 -0.0064858 4.18513e-19)
(-0.00472416 0.0108683 -4.43944e-20)
(-0.0114033 0.02006 2.55404e-19)
(-0.016617 0.0217174 -7.44134e-19)
(-0.0191343 0.0191461 -9.61878e-20)
(-0.0188287 0.0142627 -5.47712e-19)
(-0.0159984 0.00830496 5.67247e-19)
(-0.0110154 0.00216759 -6.01675e-19)
(-0.00428662 -0.00344027 4.22548e-19)
(0.00367552 -0.00790883 1.7764e-19)
(0.012079 -0.0107789 -2.00734e-19)
(-0.00618714 0.0128751 -4.94099e-19)
(-0.0129395 0.0232568 4.45737e-21)
(-0.0159807 0.0247646 9.16653e-19)
(-0.0151311 0.0213391 2.74814e-19)
(-0.0108094 0.0152196 -8.73806e-19)
(-0.00360822 0.00782769 5.43352e-19)
(0.00592859 0.000186334 6.1589e-19)
(0.0173273 -0.00685099 -5.49115e-19)
(0.0300523 -0.012467 3.91519e-19)
(0.0429439 -0.0160638 9.61413e-20)
(-0.00758374 0.0140744 6.75408e-20)
(-0.0136948 0.024664 1.25264e-20)
(-0.0134266 0.0256982 -1.17192e-18)
(-0.00791591 0.0215072 -6.55633e-19)
(0.00174309 0.0144857 7.82122e-19)
(0.0145892 0.00610673 -9.15903e-19)
(0.0298634 -0.00260096 1.04955e-18)
(0.0470264 -0.0107281 -9.06536e-20)
(0.065561 -0.0172654 -2.95272e-19)
(0.0838248 -0.0214896 -8.58209e-19)
(-0.00858762 0.014304 -1.46956e-19)
(-0.0128302 0.0240043 -2.68404e-19)
(-0.00770951 0.0243057 -3.29753e-19)
(0.00408602 0.0196218 7.03464e-19)
(0.0206697 0.0123195 1.30495e-18)
(0.0406315 0.00377486 -2.69711e-19)
(0.062932 -0.00514464 -6.56455e-19)
(0.0869512 -0.0136474 2.00219e-19)
(0.112276 -0.0206327 -1.26094e-18)
(0.136704 -0.0253041 1.38502e-18)
(-0.00878329 0.0134238 8.98788e-19)
(-0.00932568 0.021084 -4.90594e-19)
(0.00265135 0.0204985 9.57821e-19)
(0.0227444 0.0158115 -1.5649e-18)
(0.0481862 0.00919725 -7.47747e-19)
(0.0770312 0.0018153 -1.03574e-18)
(0.107851 -0.00580771 3.00909e-19)
(0.139869 -0.013265 -8.37837e-19)
(0.172908 -0.0195924 1.82453e-18)
(0.204309 -0.0241023 5.10756e-19)
(-0.00768146 0.0113469 6.61534e-20)
(-0.00204135 0.0158365 7.99138e-19)
(0.0192622 0.0143179 1.58809e-18)
(0.0500756 0.0102932 4.85304e-19)
(0.0867175 0.00564988 1.43642e-18)
(0.126614 0.001348 7.87352e-20)
(0.167758 -0.00242197 -7.23784e-22)
(0.20895 -0.00570998 5.79128e-19)
(0.250268 -0.00785918 4.68458e-19)
(0.289154 -0.00928603 -1.52036e-18)
(-0.0047693 0.00808484 -5.3238e-19)
(0.0101512 0.00838138 -8.91674e-19)
(0.043652 0.00593246 -1.29612e-18)
(0.0880092 0.00320128 3.06175e-20)
(0.138768 0.00174645 -6.60771e-19)
(0.192828 0.00252972 1.04146e-18)
(0.247615 0.00587343 -2.86732e-18)
(0.301194 0.0119964 1.28731e-18)
(0.35292 0.0214934 4.83906e-19)
(0.400071 0.030223 1.51827e-18)
(0.000390268 0.00380735 2.66317e-19)
(0.0281234 -0.000878054 -1.01947e-18)
(0.0768195 -0.00427886 9.10306e-19)
(0.137578 -0.00546993 -3.53177e-19)
(0.205573 -0.00345359 3.84161e-19)
(0.277845 0.00269384 8.36367e-19)
(0.352558 0.0137089 -1.12292e-18)
(0.429308 0.0305332 1.45909e-19)
(0.509073 0.0524304 -5.38101e-19)
(0.594208 0.0694286 1.0917e-18)
(0.00806222 -0.00110927 3.81548e-19)
(0.0522666 -0.011097 -9.24265e-19)
(0.118767 -0.0153358 1.25934e-18)
(0.197765 -0.0150275 -7.84296e-19)
(0.28407 -0.0102907 -2.87714e-19)
(0.37463 -0.000985972 1.70341e-19)
(0.467636 0.0127983 8.80712e-20)
(0.562521 0.0307504 1.19465e-18)
(0.658937 0.0501546 3.43921e-19)
(0.754593 0.062316 1.47023e-18)
(0.0183545 -0.00610335 -3.40555e-19)
(0.0826202 -0.0209226 1.195e-18)
(0.16902 -0.02527 -9.97148e-19)
(0.267073 -0.0228396 -1.16948e-18)
(0.371111 -0.0151117 1.63624e-18)
(0.477642 -0.00287915 -1.24413e-18)
(0.584269 0.0129272 3.28631e-19)
(0.689438 0.0311954 -1.94821e-18)
(0.791366 0.0492434 1.45934e-18)
(0.886073 0.0617272 7.29145e-20)
(0.0312731 -0.0105472 -4.43813e-19)
(0.118985 -0.0287976 -4.28634e-19)
(0.226883 -0.0317903 -9.12764e-19)
(0.344082 -0.0258994 1.10639e-18)
(0.46447 -0.0140495 -5.58857e-20)
(0.584088 0.00206392 7.1531e-19)
(0.699998 0.0208397 1.30495e-18)
(0.80996 0.04078 -4.01015e-19)
(0.911608 0.0597906 -1.41842e-18)
(1.00093 0.0748584 2.8161e-18)
(0.0467485 -0.013833 -2.29398e-19)
(0.16092 -0.0332204 -2.7363e-19)
(0.291354 -0.0327855 4.92448e-19)
(0.427134 -0.0216718 -9.15346e-19)
(0.561908 -0.00427066 1.56378e-19)
(0.691468 0.0168695 1.39168e-19)
(0.812692 0.0396 6.10338e-20)
(0.92323 0.0622154 -9.85779e-21)
(1.02089 0.0832128 -1.49509e-19)
(1.10228 0.100974 -2.3808e-18)
(0.0646222 -0.0153988 9.31197e-19)
(0.207693 -0.0328663 -6.49877e-19)
(0.360998 -0.0265419 8.31036e-21)
(0.514074 -0.00834461 -9.89816e-19)
(0.660678 0.015899 -3.54146e-19)
(0.796728 0.0428662 3.31124e-19)
(0.919388 0.0699829 2.57162e-19)
(1.02676 0.0954586 -9.16384e-19)
(1.11737 0.118328 7.49034e-19)
(1.18887 0.137777 -9.82109e-19)
(0.0846151 -0.0147335 4.01902e-19)
(0.258239 -0.0266457 -3.57193e-19)
(0.433916 -0.0118392 1.48367e-18)
(0.602245 0.0150958 1.51282e-19)
(0.757574 0.0470127 3.47663e-19)
(0.896437 0.0799614 1.54961e-18)
(1.0168 0.111121 -2.36928e-19)
(1.11774 0.138786 2.15909e-19)
(1.1989 0.162551 8.94113e-20)
(1.25921 0.182082 -1.10026e-19)
(0.106298 -0.0113868 2.80782e-19)
(0.311152 -0.0137447 6.7509e-19)
(0.507797 0.0120092 -7.23212e-19)
(0.688629 0.0488855 -2.44848e-19)
(0.849182 0.0886607 -3.02468e-19)
(0.987167 0.127011 4.68655e-19)
(1.10188 0.161139 -2.43784e-19)
(1.19377 0.189664 6.55883e-19)
(1.26386 0.212834 2.20727e-19)
(1.31251 0.230653 -3.59848e-19)
(0.129075 -0.00499502 -3.02579e-19)
(0.364712 0.00632733 2.68953e-19)
(0.580032 0.0451352 -5.73906e-19)
(0.770058 0.09254 2.47562e-19)
(0.932181 0.139651 -2.56883e-19)
(1.06586 0.182152 -3.20612e-19)
(1.17216 0.217621 -2.57479e-19)
(1.25321 0.245292 2.87758e-19)
(1.31152 0.266193 -5.42571e-19)
(1.34887 0.280625 3.27894e-19)
(0.152196 0.00468189 -1.07855e-19)
(0.416957 0.0336819 -2.10983e-19)
(0.647869 0.0871008 1.0047e-19)
(0.843451 0.144922 6.19281e-21)
(1.00362 0.198183 8.33686e-20)
(1.13009 0.243063 1.14383e-19)
(1.22603 0.277931 1.06016e-19)
(1.29537 0.302926 -1.40581e-19)
(1.34203 0.31997 1.19694e-19)
(1.36912 0.329665 -1.87321e-19)
(0.174779 0.0177192 -6.24337e-20)
(0.465784 0.0680018 -2.34213e-20)
(0.708594 0.1369 9.32062e-20)
(0.906025 0.204325 -4.29069e-20)
(1.06112 0.262004 1.14373e-19)
(1.17823 0.307188 -1.47678e-19)
(1.26276 0.339445 3.42263e-20)
(1.32039 0.36007 3.67248e-20)
(1.35628 0.371943 -1.53979e-20)
(1.37466 0.375976 5.82514e-20)
(0.195861 0.0339922 -6.73555e-20)
(0.509081 0.108511 -3.04811e-19)
(0.759704 0.192986 -2.1116e-20)
(0.955484 0.268575 6.27666e-21)
(1.10301 0.328577 -3.96499e-19)
(1.20945 0.371904 5.24122e-20)
(1.28241 0.399688 -4.46256e-20)
(1.32911 0.41455 -1.07659e-19)
(1.35568 0.420322 2.24489e-19)
(1.36716 0.418222 -4.09331e-19)
(0.214449 0.0531512 -3.25331e-20)
(0.544861 0.153971 6.17349e-19)
(0.799077 0.253336 9.94712e-20)
(0.990149 0.335148 -5.43522e-19)
(1.12839 0.395216 -4.40784e-20)
(1.22373 0.43465 -5.20938e-19)
(1.28576 0.45642 3.81889e-19)
(1.3229 0.464533 -1.38585e-19)
(1.34193 0.463696 2.45855e-19)
(1.34842 0.455412 -1.79709e-19)
(0.229591 0.0746131 -2.05146e-19)
(0.571402 0.20272 1.95963e-19)
(0.825104 0.315543 -1.41444e-19)
(1.00903 0.401308 1.06608e-18)
(1.1371 0.459222 5.26192e-19)
(1.22174 0.493025 -1.22016e-19)
(1.2741 0.507668 4.11117e-19)
(1.30346 0.508494 -2.70535e-19)
(1.31689 0.50095 -7.54046e-20)
(1.32028 0.486791 4.94737e-19)
(0.240439 0.0975696 -3.55099e-19)
(0.587364 0.252733 4.51938e-19)
(0.836784 0.376933 -8.89196e-19)
(1.01186 0.464235 1.24896e-19)
(1.12968 0.51799 2.79148e-19)
(1.2047 0.544842 -4.28003e-19)
(1.24915 0.551722 -4.98586e-19)
(1.27273 0.545168 2.18921e-19)
(1.28253 0.531178 -2.6368e-19)
(1.28454 0.511749 3.16841e-19)
(0.246315 0.121014 -8.97187e-20)
(0.59188 0.301727 -4.59865e-19)
(0.833764 0.43471 2.54398e-19)
(0.99904 0.52116 4.26774e-19)
(1.10726 0.569097 -2.56621e-19)
(1.17429 0.588155 -1.91256e-19)
(1.21288 0.587116 -1.04718e-19)
(1.23274 0.573481 -5.17656e-20)
(1.24078 0.553593 1.07287e-20)
(1.24292 0.529714 1.08402e-19)
(0.246762 0.143786 6.59009e-20)
(0.584623 0.34728 -3.86041e-19)
(0.816348 0.486101 6.43928e-19)
(0.97159 0.569496 -3.81493e-19)
(1.07146 0.610386 1.06777e-19)
(1.13248 0.62129 -1.51431e-19)
(1.16742 0.6126 1.63043e-19)
(1.18559 0.592493 3.15323e-20)
(1.19357 0.567427 -7.71575e-20)
(1.19712 0.540017 1.49943e-19)
(0.241595 0.164637 -1.73281e-19)
(0.565838 0.386977 3.38583e-19)
(0.785455 0.528511 -1.51892e-20)
(0.931033 0.606952 -7.34276e-20)
(1.0242 0.640034 -2.0141e-19)
(1.08146 0.642882 2.49046e-20)
(1.11501 0.627182 6.08274e-20)
(1.1335 0.601455 -1.50967e-19)
(1.14303 0.57198 1.76252e-19)
(1.14921 0.541875 1.49966e-19)
(0.230937 0.182312 3.88879e-20)
(0.53633 0.418564 -8.10726e-20)
(0.742537 0.559671 2.39459e-20)
(0.879245 0.631623 1.32725e-20)
(0.967559 0.656555 7.71376e-20)
(1.02335 0.651785 -1.43582e-19)
(1.05788 0.629966 -3.00815e-19)
(1.07892 0.599655 -1.22779e-19)
(1.09214 0.56662 -1.56969e-19)
(1.10255 0.534698 1.32894e-19)
(0.215232 0.195655 1.10332e-19)
(0.497433 0.440133 -1.71266e-19)
(0.689472 0.577807 1.65332e-19)
(0.818268 0.642112 -3.14288e-19)
(0.903427 0.658819 7.62226e-20)
(0.959701 0.646834 5.15595e-19)
(0.997283 0.619362 -1.58123e-19)
(1.02317 0.584701 1.87884e-19)
(1.04272 0.548003 2.75138e-19)
(1.05903 0.515025 1.00082e-18)
(0.19525 0.203727 6.79855e-19)
(0.45097 0.450298 -4.62523e-19)
(0.628517 0.581866 1.12582e-18)
(0.750273 0.637907 -1.92797e-19)
(0.833394 0.646759 9.66031e-19)
(0.891061 0.628052 6.06078e-19)
(0.932314 0.594736 -1.42384e-18)
(0.963574 0.553879 2.1619e-18)
(0.98946 0.507897 -4.569e-19)
(1.00632 0.461004 8.99124e-19)
(0.172051 0.205875 -3.75055e-19)
(0.399207 0.448256 -2.67462e-19)
(0.562394 0.571531 2.58751e-19)
(0.677932 0.619483 -6.40614e-19)
(0.759665 0.622009 -2.00094e-18)
(0.818703 0.598991 -8.04759e-19)
(0.862696 0.563188 -7.25278e-19)
(0.897116 0.52174 3.51063e-19)
(0.92512 0.478158 2.92559e-18)
(0.942608 0.43739 -6.08543e-19)
(0.146895 0.201722 1.97444e-19)
(0.344729 0.433651 -7.99125e-19)
(0.494243 0.546776 1.75751e-19)
(0.604669 0.587134 -1.27989e-18)
(0.686061 0.585017 2.80213e-18)
(0.747295 0.559929 -3.24798e-19)
(0.794587 0.52408 1.52696e-18)
(0.832426 0.484256 -2.18729e-18)
(0.863344 0.443961 6.86237e-19)
(0.88465 0.407475 1.06167e-19)
(0.121119 0.191157 1.45557e-19)
(0.290164 0.406551 8.81362e-19)
(0.427121 0.507895 -2.589e-18)
(0.533589 0.54123 1.25979e-18)
(0.615634 0.535983 -4.1311e-21)
(0.67989 0.510616 -4.25122e-19)
(0.731207 0.476429 5.35057e-19)
(0.773238 0.439623 -5.31724e-19)
(0.808167 0.40335 -1.82774e-18)
(0.834249 0.370864 -5.0082e-19)
(0.0960491 0.174335 4.7633e-19)
(0.238034 0.367475 5.34452e-19)
(0.363856 0.455616 2.20746e-18)
(0.467421 0.482514 -1.22803e-18)
(0.550833 0.4755 2.53127e-18)
(0.618567 0.451352 -5.45231e-19)
(0.674215 0.420138 -5.7631e-19)
(0.720701 0.387298 6.81052e-19)
(0.759933 0.355514 4.44038e-19)
(0.790871 0.327124 1.60995e-18)
(0.0729451 0.15167 -4.83436e-19)
(0.190665 0.317377 1.57812e-19)
(0.306989 0.391112 4.26848e-20)
(0.408536 0.412151 1.25197e-18)
(0.493704 0.404589 -3.1251e-18)
(0.564991 0.382953 5.30901e-19)
(0.624866 0.35582 1.17224e-18)
(0.675619 0.327751 -1.41717e-18)
(0.718935 0.30091 4.99254e-19)
(0.754396 0.276897 -2.31706e-18)
(0.052947 0.123827 1.03026e-19)
(0.150114 0.257626 5.55781e-19)
(0.258723 0.315974 2.16161e-19)
(0.358946 0.331692 2.92951e-19)
(0.445942 0.324635 5.61322e-19)
(0.520506 0.306609 1.6712e-18)
(0.584156 0.284488 -2.04616e-18)
(0.638656 0.261882 -1.15243e-18)
(0.685523 0.240441 1.90976e-19)
(0.724904 0.221194 1.50248e-18)
(0.0370319 0.091691 -6.23014e-19)
(0.118111 0.189953 -7.41086e-20)
(0.220875 0.23216 -6.20821e-19)
(0.320289 0.243022 8.84164e-20)
(0.40891 0.237333 -5.31448e-19)
(0.486185 0.2238 -6.06742e-19)
(0.552892 0.207442 -9.04192e-19)
(0.610385 0.190868 2.43651e-18)
(0.660067 0.175232 4.20347e-19)
(0.702563 0.161149 -6.40748e-19)
(0.025973 0.0563425 3.35776e-19)
(0.0960032 0.116392 4.43813e-19)
(0.194848 0.141927 1.74847e-19)
(0.293813 0.148292 -9.43671e-19)
(0.383641 0.144613 -4.39316e-19)
(0.462845 0.136226 -9.46005e-20)
(0.531694 0.126185 1.84847e-19)
(0.591266 0.116066 1.48424e-19)
(0.642894 0.106551 -1.14769e-18)
(0.687549 0.0979582 6.58567e-19)
(0.0203063 0.0190051 -1.74859e-19)
(0.0847143 0.0392054 -1.98928e-19)
(0.181593 0.0477517 1.58547e-19)
(0.280362 0.0498472 1.40761e-19)
(0.370832 0.0485763 1.44259e-19)
(0.451037 0.0457355 2.20617e-19)
(0.520988 0.0423503 -1.1601e-20)
(0.581622 0.0389478 -2.89385e-19)
(0.634243 0.0357538 2.74878e-19)
(0.680004 0.0328648 -4.13564e-19)
(0.0203063 -0.0190054 -1.76009e-19)
(0.0847143 -0.0392061 -1.89573e-19)
(0.181593 -0.0477527 1.74704e-19)
(0.280362 -0.0498484 3.42051e-19)
(0.370832 -0.0485775 2.27909e-19)
(0.451037 -0.0457367 -3.00299e-19)
(0.520988 -0.0423514 -1.63176e-19)
(0.581622 -0.0389488 7.11619e-20)
(0.634243 -0.0357546 1.59985e-19)
(0.680004 -0.0328656 -9.52677e-20)
(0.025973 -0.0563427 4.20032e-19)
(0.0960033 -0.116393 -5.33807e-19)
(0.194848 -0.141928 -4.43968e-20)
(0.293813 -0.148293 2.95762e-19)
(0.383641 -0.144614 -1.33718e-18)
(0.462846 -0.136227 5.71355e-19)
(0.531695 -0.126186 5.89792e-19)
(0.591266 -0.116067 -6.9627e-19)
(0.642894 -0.106552 6.65094e-19)
(0.687549 -0.0979589 -2.91921e-19)
(0.037032 -0.0916913 -7.26209e-20)
(0.118111 -0.189954 -9.26266e-21)
(0.220875 -0.232161 -1.44182e-18)
(0.320289 -0.243023 -4.58659e-19)
(0.40891 -0.237334 -4.83469e-20)
(0.486185 -0.223801 -7.54531e-19)
(0.552892 -0.207443 1.40588e-18)
(0.610385 -0.190868 -4.9412e-20)
(0.660067 -0.175233 8.02773e-19)
(0.702563 -0.161149 -7.05848e-19)
(0.0529471 -0.123827 1.22646e-19)
(0.150114 -0.257627 -5.67792e-19)
(0.258723 -0.315975 1.74712e-18)
(0.358947 -0.331694 2.47238e-19)
(0.445942 -0.324636 1.21543e-18)
(0.520506 -0.30661 -1.18823e-18)
(0.584156 -0.284489 1.2474e-18)
(0.638657 -0.261882 -8.99342e-19)
(0.685523 -0.240442 -3.94951e-19)
(0.724904 -0.221195 3.35501e-19)
(0.0729452 -0.151671 1.09512e-18)
(0.190665 -0.317378 2.80574e-21)
(0.30699 -0.391113 -1.84124e-18)
(0.408537 -0.412152 -5.34189e-19)
(0.493704 -0.40459 1.77375e-18)
(0.564992 -0.382954 -1.03951e-18)
(0.624866 -0.355821 -1.2034e-18)
(0.675619 -0.327751 1.08276e-18)
(0.718935 -0.300911 -7.37126e-19)
(0.754396 -0.276898 -1.58922e-19)
(0.0960492 -0.174335 -1.63476e-19)
(0.238034 -0.367476 -7.74866e-21)
(0.363856 -0.455617 1.9981e-18)
(0.467421 -0.482515 1.14569e-18)
(0.550833 -0.475501 -1.35103e-18)
(0.618568 -0.451353 1.63582e-18)
(0.674216 -0.420139 -1.775e-18)
(0.720701 -0.387299 1.76649e-19)
(0.759934 -0.355515 5.28692e-19)
(0.790871 -0.327124 1.22329e-18)
(0.121119 -0.191157 1.8736e-19)
(0.290165 -0.406552 3.01701e-19)
(0.427121 -0.507896 3.28156e-19)
(0.53359 -0.541231 -1.05518e-18)
(0.615635 -0.535984 -1.87953e-18)
(0.67989 -0.510617 3.95808e-19)
(0.731207 -0.47643 1.14544e-18)
(0.773238 -0.439624 -3.2787e-19)
(0.808167 -0.403351 1.97387e-18)
(0.83425 -0.370865 -1.924e-18)
(0.146895 -0.201722 -1.06059e-18)
(0.344729 -0.433651 4.07474e-19)
(0.494244 -0.546777 -1.1004e-18)
(0.604669 -0.587135 1.77893e-18)
(0.686061 -0.585018 8.89545e-19)
(0.747296 -0.55993 1.25594e-18)
(0.794587 -0.52408 -2.90617e-19)
(0.832426 -0.484257 1.14519e-18)
(0.863345 -0.443961 -2.42456e-18)
(0.884651 -0.407476 -6.32105e-19)
(0.172051 -0.205875 6.24841e-20)
(0.399207 -0.448257 -7.12426e-19)
(0.562395 -0.571532 -1.14056e-18)
(0.677932 -0.619484 -4.83329e-19)
(0.759666 -0.62201 -1.36577e-18)
(0.818704 -0.598992 -1.38945e-19)
(0.862696 -0.563189 1.18817e-19)
(0.897117 -0.521741 -5.33668e-19)
(0.92512 -0.478158 -5.96465e-19)
(0.942609 -0.437391 1.57299e-18)
(0.19525 -0.203727 3.3516e-19)
(0.45097 -0.450298 4.67966e-19)
(0.628518 -0.581867 8.38463e-19)
(0.750273 -0.637908 3.7222e-20)
(0.833394 -0.64676 5.59518e-19)
(0.891062 -0.628053 -7.66091e-19)
(0.932315 -0.594737 2.33907e-18)
(0.963575 -0.55388 -1.03272e-18)
(0.989461 -0.507898 -5.07234e-19)
(1.00633 -0.461005 -1.52956e-18)
(0.215232 -0.195655 -1.31983e-19)
(0.497434 -0.440133 2.32909e-19)
(0.689473 -0.577808 -2.38725e-19)
(0.818269 -0.642112 1.28762e-19)
(0.903428 -0.658819 -1.52176e-19)
(0.959701 -0.646835 -3.90338e-19)
(0.997283 -0.619363 5.13456e-19)
(1.02317 -0.584702 -1.6806e-19)
(1.04272 -0.548003 2.6056e-19)
(1.05904 -0.515026 -5.68602e-19)
(0.230937 -0.182312 -7.2222e-21)
(0.53633 -0.418565 -1.06889e-19)
(0.742538 -0.559672 2.17845e-20)
(0.879246 -0.631623 1.44174e-19)
(0.96756 -0.656556 -6.54777e-20)
(1.02335 -0.651786 1.76272e-20)
(1.05789 -0.629966 -1.71439e-20)
(1.07892 -0.599656 -3.82703e-19)
(1.09214 -0.566621 -1.77762e-19)
(1.10255 -0.534699 -5.59106e-19)
(0.241596 -0.164637 -9.62726e-20)
(0.565838 -0.386977 3.39768e-19)
(0.785456 -0.528511 -2.11229e-19)
(0.931034 -0.606952 -7.65435e-20)
(1.0242 -0.640035 3.47418e-20)
(1.08146 -0.642883 7.08644e-20)
(1.11501 -0.627183 -6.85108e-21)
(1.1335 -0.601456 2.91403e-19)
(1.14303 -0.571981 -2.51931e-19)
(1.14921 -0.541876 -3.53414e-21)
(0.246762 -0.143786 -2.36882e-19)
(0.584624 -0.347281 -1.48428e-19)
(0.816349 -0.486101 -3.6852e-19)
(0.971591 -0.569496 4.19238e-19)
(1.07146 -0.610387 -3.07317e-20)
(1.13248 -0.621291 1.36466e-19)
(1.16742 -0.612601 1.54282e-19)
(1.1856 -0.592494 -5.60842e-20)
(1.19357 -0.567428 4.97268e-20)
(1.19712 -0.540018 -1.5818e-19)
(0.246315 -0.121014 -1.61104e-19)
(0.59188 -0.301728 -2.06941e-19)
(0.833764 -0.43471 3.11877e-19)
(0.999041 -0.521161 -4.68682e-19)
(1.10726 -0.569098 8.23261e-20)
(1.17429 -0.588156 4.16422e-20)
(1.21288 -0.587117 9.20202e-20)
(1.23274 -0.573482 -6.04705e-20)
(1.24078 -0.553594 -7.24968e-20)
(1.24292 -0.529715 -2.37355e-19)
(0.240439 -0.0975696 6.71656e-19)
(0.587364 -0.252733 -5.25627e-19)
(0.836784 -0.376933 2.4549e-20)
(1.01186 -0.464235 -6.73643e-19)
(1.12968 -0.51799 -1.95603e-19)
(1.2047 -0.544843 1.56501e-19)
(1.24915 -0.551723 1.14682e-19)
(1.27273 -0.545168 -3.82556e-19)
(1.28253 -0.531179 1.6811e-19)
(1.28454 -0.511749 -3.03055e-19)
(0.229591 -0.0746131 3.33297e-19)
(0.571402 -0.20272 -3.29861e-19)
(0.825105 -0.315543 1.1838e-18)
(1.00903 -0.401308 9.44207e-20)
(1.1371 -0.459223 2.68482e-19)
(1.22174 -0.493026 9.57927e-19)
(1.2741 -0.507668 -1.99071e-19)
(1.30346 -0.508494 4.84469e-20)
(1.31689 -0.500951 -2.83764e-20)
(1.32029 -0.486792 -4.95845e-20)
(0.214448 -0.0531512 2.56907e-19)
(0.544861 -0.153971 5.83795e-19)
(0.799077 -0.253337 -5.9509e-19)
(0.990149 -0.335149 -1.80781e-19)
(1.12839 -0.395217 -1.91419e-19)
(1.22373 -0.434651 3.76778e-19)
(1.28576 -0.456421 -1.77817e-19)
(1.3229 -0.464534 4.19303e-19)
(1.34193 -0.463697 1.00945e-19)
(1.34842 -0.455413 -1.77518e-19)
(0.195861 -0.0339922 -2.77513e-19)
(0.50908 -0.108511 2.5753e-19)
(0.759704 -0.192987 -5.28733e-19)
(0.955484 -0.268575 2.21376e-19)
(1.10301 -0.328578 -2.21882e-19)
(1.20945 -0.371905 -2.63857e-19)
(1.28241 -0.399689 -2.04748e-19)
(1.32911 -0.414551 2.2591e-19)
(1.35568 -0.420323 -3.92718e-19)
(1.36716 -0.418223 2.48611e-19)
(0.174779 -0.0177192 -1.03965e-19)
(0.465783 -0.0680019 -2.0402e-19)
(0.708593 -0.1369 9.5976e-20)
(0.906025 -0.204326 7.08411e-21)
(1.06112 -0.262005 7.63912e-20)
(1.17823 -0.307189 1.09458e-19)
(1.26276 -0.339446 9.32139e-20)
(1.32039 -0.360071 -1.26115e-19)
(1.35628 -0.371944 1.02821e-19)
(1.37466 -0.375977 -1.62427e-19)
(0.152196 -0.00468192 -6.55102e-20)
(0.416956 -0.033682 -2.64051e-20)
(0.647869 -0.0871011 9.83937e-20)
(0.84345 -0.144923 -4.4388e-20)
(1.00362 -0.198183 1.24233e-19)
(1.13009 -0.243064 -1.57035e-19)
(1.22603 -0.277932 4.03398e-20)
(1.29537 -0.302927 3.4623e-20)
(1.34203 -0.319972 -1.23746e-20)
(1.36912 -0.329666 5.67782e-20)
(0.129075 0.00499497 -7.8589e-20)
(0.364712 -0.00632748 -3.33196e-19)
(0.580031 -0.0451355 -2.68379e-20)
(0.770058 -0.0925405 1.07122e-20)
(0.93218 -0.139652 -4.62217e-19)
(1.06586 -0.182153 4.88098e-20)
(1.17216 -0.217622 -5.17129e-20)
(1.25321 -0.245293 -1.40668e-19)
(1.31152 -0.266195 3.11281e-19)
(1.34887 -0.280626 -5.66325e-19)
(0.106297 0.0113868 -4.4555e-20)
(0.311151 0.0137445 7.14656e-19)
(0.507796 -0.0120095 9.53249e-20)
(0.688628 -0.048886 -6.45596e-19)
(0.849181 -0.0886614 -7.73003e-20)
(0.987167 -0.127012 -7.28073e-19)
(1.10188 -0.16114 5.66139e-19)
(1.19377 -0.189666 -2.29796e-19)
(1.26386 -0.212836 4.35559e-19)
(1.31251 -0.230655 -3.84274e-19)
(0.0846147 0.0147334 -2.51993e-19)
(0.258238 0.0266455 2.93425e-19)
(0.433915 0.0118388 -2.04962e-19)
(0.602244 -0.0150963 1.41676e-18)
(0.757573 -0.0470134 7.49963e-19)
(0.896437 -0.0799623 -1.9639e-19)
(1.0168 -0.111122 7.63649e-19)
(1.11774 -0.138788 -4.99319e-19)
(1.1989 -0.162553 -1.60598e-19)
(1.25921 -0.182084 1.16023e-18)
(0.0646218 0.0153987 -4.65853e-19)
(0.207692 0.032866 6.95563e-19)
(0.360997 0.0265414 -1.31911e-18)
(0.514073 0.00834398 2.28339e-19)
(0.660677 -0.0158998 5.6934e-19)
(0.796727 -0.0428672 -7.15458e-19)
(0.919387 -0.0699841 -1.26721e-18)
(1.02676 -0.09546 6.79335e-19)
(1.11737 -0.11833 -8.83521e-19)
(1.18887 -0.137779 1.41392e-18)
(0.0467482 0.0138328 -1.15161e-19)
(0.160919 0.03322 -7.0011e-19)
(0.291353 0.032785 3.45601e-19)
(0.427133 0.0216711 8.64574e-19)
(0.561907 0.00426976 -4.64405e-19)
(0.691467 -0.0168706 -4.58314e-19)
(0.812691 -0.0396013 -7.77077e-19)
(0.923229 -0.0622169 -3.56083e-19)
(1.02089 -0.0832145 -8.55214e-20)
(1.10228 -0.100976 1.41302e-18)
(0.0312728 0.010547 1.93369e-19)
(0.118984 0.0287972 -9.51088e-19)
(0.226882 0.0317897 1.62683e-18)
(0.344081 0.0258986 -9.05876e-19)
(0.464469 0.0140485 5.86943e-19)
(0.584086 -0.00206513 -7.30337e-19)
(0.699997 -0.0208411 8.13426e-19)
(0.809959 -0.0407816 7.10423e-19)
(0.911607 -0.0597924 1.55219e-18)
(1.00093 -0.0748604 -2.56613e-18)
(0.0183542 0.00610319 -6.00845e-19)
(0.0826195 0.0209221 1.20654e-18)
(0.169019 0.0252693 1.61082e-20)
(0.267072 0.0228387 -4.3459e-19)
(0.371109 0.0151106 -2.30778e-19)
(0.47764 0.00287779 1.84469e-19)
(0.584268 -0.0129288 -1.30964e-18)
(0.689436 -0.0311973 1.01184e-18)
(0.791365 -0.0492455 -1.30406e-18)
(0.886072 -0.0617295 -5.95239e-19)
(0.00806198 0.00110911 1.03396e-18)
(0.0522659 0.0110966 -3.22547e-19)
(0.118766 0.0153351 -6.05081e-19)
(0.197764 0.0150265 1.64339e-18)
(0.284068 0.0102895 -1.61435e-18)
(0.374628 0.000984438 9.01971e-19)
(0.467634 -0.0128001 9.60657e-19)
(0.562519 -0.0307525 2.62881e-19)
(0.658936 -0.050157 2.73409e-19)
(0.754592 -0.0623186 -3.87834e-19)
(0.000390061 -0.0038075 -9.88865e-19)
(0.0281228 0.00087759 9.39925e-19)
(0.0768185 0.00427809 -8.31809e-19)
(0.137577 0.00546885 1.04365e-18)
(0.205572 0.00345218 -3.11803e-19)
(0.277843 -0.00269557 -1.08293e-18)
(0.352556 -0.0137109 3.10554e-19)
(0.429306 -0.0305355 -5.12386e-19)
(0.509071 -0.0524331 -6.06874e-19)
(0.594206 -0.0694315 -1.89324e-18)
(-0.00476946 -0.00808498 -1.23532e-18)
(0.0101507 -0.00838186 9.82112e-19)
(0.0436511 -0.00593331 -1.92429e-18)
(0.0880079 -0.0032025 3.44101e-19)
(0.138766 -0.00174806 -1.33316e-18)
(0.192826 -0.00253172 -7.99586e-19)
(0.247613 -0.00587579 1.91353e-18)
(0.301192 -0.0119991 -2.61611e-18)
(0.352918 -0.0214965 5.0355e-19)
(0.400069 -0.0302265 -8.29298e-19)
(-0.00768159 -0.011347 6.08505e-19)
(-0.00204181 -0.015837 2.57481e-19)
(0.0192614 -0.0143188 -7.65958e-20)
(0.0500744 -0.0102946 7.31264e-19)
(0.0867161 -0.00565175 2.14735e-18)
(0.126613 -0.00135032 7.4116e-19)
(0.167757 0.0024192 7.65837e-19)
(0.208948 0.00570678 -2.64805e-19)
(0.250266 0.00785557 -2.47024e-18)
(0.289152 0.00928202 6.26467e-19)
(-0.00878339 -0.0134239 -1.71795e-19)
(-0.00932606 -0.0210846 5.46797e-19)
(0.00265066 -0.0204995 -1.43244e-19)
(0.0227434 -0.0158131 1.01141e-18)
(0.048185 -0.00919942 -2.33847e-18)
(0.0770299 -0.00181802 1.985e-19)
(0.10785 0.00580447 -1.11297e-18)
(0.139867 0.0132612 1.63775e-18)
(0.172906 0.0195882 -4.78695e-19)
(0.204307 0.0240977 -6.84046e-20)
(-0.0085877 -0.0143041 -1.16951e-19)
(-0.0128305 -0.0240049 -6.57584e-19)
(-0.00771009 -0.0243069 1.65381e-18)
(0.00408521 -0.0196237 -8.71975e-19)
(0.0206687 -0.012322 6.12799e-20)
(0.0406303 -0.00377799 2.79835e-19)
(0.0629307 0.00514091 -2.55752e-19)
(0.08695 0.0136431 3.32376e-19)
(0.112275 0.0206279 1.15176e-18)
(0.136703 0.0252988 3.01402e-19)
(-0.0075838 -0.0140746 -2.62323e-19)
(-0.0136951 -0.0246648 -2.91779e-19)
(-0.013427 -0.0256996 -1.29511e-18)
(-0.00791656 -0.0215093 6.8961e-19)
(0.0017423 -0.0144886 -1.4224e-18)
(0.0145883 -0.00611028 3.23138e-19)
(0.0298625 0.00259675 3.6335e-19)
(0.0470254 0.0107233 -3.84e-19)
(0.0655601 0.01726 -2.48445e-19)
(0.0838239 0.0214838 -1.11656e-18)
(-0.00618719 -0.0128752 2.0493e-19)
(-0.0129397 -0.0232576 -4.82051e-20)
(-0.0159811 -0.0247661 9.76645e-22)
(-0.0151316 -0.0213415 -6.22396e-19)
(-0.01081 -0.0152228 1.57557e-18)
(-0.00360887 -0.00783163 -2.45751e-19)
(0.00592792 -0.000190978 -6.1329e-19)
(0.0173266 0.00684571 7.50642e-19)
(0.0300517 0.0124611 -2.63793e-19)
(0.0429433 0.0160575 1.45808e-18)
(-0.00472421 -0.0108685 -3.84646e-20)
(-0.0114034 -0.0200609 -2.25515e-19)
(-0.0166173 -0.0217192 -8.90046e-20)
(-0.0191347 -0.0191488 -1.13708e-19)
(-0.0188291 -0.0142662 -2.44467e-19)
(-0.0159988 -0.00830924 -7.6772e-19)
(-0.0110158 -0.0021726 9.60327e-19)
(-0.00428704 0.0034346 5.60983e-19)
(0.00367514 0.00790257 -1.00493e-19)
(0.0120786 0.0107721 -8.94348e-19)
(-0.00343592 -0.00822537 2.1843e-19)
(-0.00972834 -0.0154103 3.81693e-20)
(-0.0163015 -0.0168867 2.58367e-19)
(-0.021143 -0.0151405 -2.9573e-20)
(-0.023716 -0.011633 2.35262e-19)
(-0.0240953 -0.0073159 2.65433e-19)
(-0.0225191 -0.00287507 3.97941e-19)
(-0.0193318 0.00116666 -1.1273e-18)
(-0.0150111 0.00439248 -2.08066e-19)
(-0.0100912 0.00647876 3.72896e-19)
(-0.00248985 -0.0051217 -1.10296e-19)
(-0.00837102 -0.00968623 -1.56764e-19)
(-0.0157255 -0.0106983 -7.54122e-20)
(-0.0220251 -0.00969819 3.68853e-19)
(-0.0264587 -0.00759881 1.79042e-19)
(-0.0289501 -0.00499706 3.67178e-20)
(-0.0296445 -0.00232127 -7.96069e-20)
(-0.0288376 0.000110227 -6.17536e-20)
(-0.0269779 0.00205569 5.3007e-19)
(-0.0244376 0.00332266 -3.61016e-19)
(-0.00199136 -0.00173859 5.62279e-20)
(-0.00762194 -0.0033032 6.99628e-20)
(-0.0153306 -0.00366284 -5.96563e-20)
(-0.0223327 -0.00333884 -5.45648e-20)
(-0.0276802 -0.00264146 -5.65755e-20)
(-0.0312203 -0.00177381 -9.02756e-20)
(-0.0330505 -0.000881293 2.89933e-21)
(-0.0334399 -7.06138e-05 1.25257e-19)
(-0.0328206 0.000579084 -1.25768e-19)
(-0.0314875 0.00100393 2.28825e-19)
(-0.00810313 -0.00259594 1.65471e-20)
(0.0623094 -0.00663155 9.90408e-21)
(0.277408 -0.0067078 1.34456e-21)
(0.377521 -0.00436041 -9.04806e-22)
(0.479587 -0.00367362 -6.33163e-23)
(0.554286 -0.00265562 1.49699e-22)
(0.606251 -0.00221903 1.71618e-22)
(0.6613 -0.00163346 -3.62365e-23)
(0.684222 -0.00147147 -2.22508e-24)
(0.735175 -0.00100084 2.40832e-22)
(0.00869979 -0.00807937 2.62354e-20)
(0.0775587 -0.019717 1.24413e-21)
(0.288902 -0.019989 -1.7538e-20)
(0.386273 -0.0130394 1.40991e-20)
(0.486302 -0.0109669 8.94694e-22)
(0.559524 -0.00789224 -6.06935e-22)
(0.610526 -0.00655617 7.09041e-22)
(0.664657 -0.00478409 7.69545e-23)
(0.68715 -0.00439103 1.6216e-22)
(0.737393 -0.00303556 -2.20842e-22)
(0.0420107 -0.0144428 2.68802e-20)
(0.107585 -0.0323216 -3.61405e-20)
(0.311466 -0.0328113 1.79218e-20)
(0.403467 -0.0214176 -1.16832e-20)
(0.499495 -0.0180329 8.36162e-22)
(0.569828 -0.0129769 -6.53363e-22)
(0.618949 -0.010778 -2.65186e-22)
(0.671285 -0.00785468 3.91242e-24)
(0.692944 -0.00724479 -1.23691e-22)
(0.741789 -0.00503056 -3.22553e-22)
(0.0912271 -0.0221643 -4.16498e-20)
(0.151468 -0.0441463 -5.01407e-20)
(0.344269 -0.0448893 -2.31638e-20)
(0.428497 -0.0293115 1.21744e-20)
(0.518713 -0.0247321 -1.46692e-20)
(0.584874 -0.0178164 3.9055e-21)
(0.631275 -0.0148129 -2.15748e-22)
(0.681013 -0.0107952 1.341e-22)
(0.701469 -0.00999077 -1.46696e-22)
(0.748283 -0.00696025 1.19609e-22)
(0.155417 -0.0315166 1.15214e-19)
(0.20788 -0.0549036 7.2326e-20)
(0.38612 -0.0559592 2.60395e-20)
(0.460495 -0.0365588 -2.36548e-20)
(0.543309 -0.0309403 1.20455e-20)
(0.604196 -0.0223276 3.20845e-21)
(0.647153 -0.0185967 2.27456e-21)
(0.693592 -0.0135606 2.61051e-22)
(0.712535 -0.0125909 3.32026e-22)
(0.756753 -0.00880076 -6.34864e-22)
(0.233297 -0.042427 -5.08748e-20)
(0.275148 -0.0642785 3.90066e-20)
(0.435537 -0.0657676 4.82013e-21)
(0.498381 -0.043016 2.63984e-20)
(0.572481 -0.0365508 -5.9874e-21)
(0.627213 -0.02644 -3.74987e-21)
(0.666143 -0.022074 -2.34972e-21)
(0.708714 -0.016112 -1.74071e-22)
(0.725896 -0.0150111 -1.74328e-22)
(0.767048 -0.0105303 6.79037e-22)
(0.323239 -0.0546151 -3.86995e-20)
(0.3513 -0.0720065 -1.00892e-19)
(0.490819 -0.0741113 -1.71102e-20)
(0.540918 -0.0485674 -1.46933e-20)
(0.605312 -0.0414806 7.03563e-21)
(0.653258 -0.0300981 -1.96733e-21)
(0.687737 -0.0252007 2.51049e-21)
(0.726013 -0.0184177 4.78423e-22)
(0.741266 -0.0172232 -5.27e-23)
(0.778981 -0.0121291 2.61519e-22)