1.45 	0 	0 	-0.295758
2.35 	0 	0 	-0.130528
