/*--------------------------------*- C++ -*----------------------------------*\
  =========                 |
  \\      /  F ield         | OpenFOAM: The Open Source CFD Toolbox
   \\    /   O peration     | Website:  https://openfoam.org
    \\  /    A nd           | Version:  6.0
     \\/     M anipulation  |
\*---------------------------------------------------------------------------*/
FoamFile
{
    version     2.0;
    format      ascii;
    class       surfaceScalarField;
    location    "7.5";
    object      phi;
}
// * * * * * * * * * * * * * * * * * * * * * * * * * * * * * * * * * * * * * //

dimensions      [0 3 -1 0 0 0 0];

internalField   nonuniform List<scalar> 
58656
(
2.37913e-05
0.00311205
-1.18129e-09
4.78833e-05
0.00307726
7.16879e-05
0.00300898
9.48156e-05
0.0029078
0.000116962
0.00277477
0.000137855
0.00261135
0.000157248
0.00241937
0.000174917
0.00220096
0.00019066
0.00195858
0.000204296
0.00169493
0.000215672
0.00141295
0.000224657
0.00111591
0.000231141
0.000806941
0.000235072
0.000490574
0.000177034
0.000238044
2.36417e-05
0.00308841
-2.39135e-09
4.75807e-05
0.00305332
7.12337e-05
0.00298533
9.42137e-05
0.00288482
0.000116218
0.00275277
0.000136978
0.0025906
0.000156248
0.0024001
0.000173804
0.00218341
0.000189447
0.00194294
0.000202996
0.00168139
0.000214301
0.00140165
0.000223233
0.00110698
0.000229648
0.000800523
0.000233812
0.000486405
0.000173938
0.000236904
2.34927e-05
0.00306492
-3.32969e-09
4.72797e-05
0.00302953
7.07822e-05
0.00296183
9.3616e-05
0.00286198
0.000115481
0.0027309
0.000136109
0.00256997
0.000155256
0.00238096
0.000172702
0.00216596
0.000188244
0.0019274
0.000201708
0.00166792
0.00021294
0.00139041
0.000221821
0.00109809
0.000228181
0.000794159
0.000232277
0.000482309
0.000171125
0.000235089
2.33445e-05
0.00304157
-4.14218e-09
4.69805e-05
0.0030059
7.03335e-05
0.00293847
9.30221e-05
0.00283929
0.000114748
0.00270917
0.000135246
0.00254947
0.000154271
0.00236193
0.000171606
0.00214863
0.000187049
0.00191195
0.000200427
0.00165454
0.000211587
0.00137925
0.000220417
0.00108926
0.000226739
0.000787832
0.000230733
0.000478307
0.00016859
0.000233257
2.31972e-05
0.00301838
-4.73847e-09
4.66831e-05
0.00298241
6.98876e-05
0.00291527
9.2432e-05
0.00281675
0.00011402
0.00268758
0.000134388
0.00252911
0.000153292
0.00234302
0.000170516
0.0021314
0.000185861
0.0018966
0.000199154
0.00164125
0.000210243
0.00136815
0.000219021
0.00108048
0.000225317
0.000781534
0.000229242
0.000474383
0.000166305
0.000231528
2.30507e-05
0.00299534
-5.24555e-09
4.63875e-05
0.00295907
6.94444e-05
0.00289221
9.18456e-05
0.00279435
0.000113297
0.00266613
0.000133535
0.00250887
0.000152319
0.00232424
0.000169433
0.00211429
0.00018468
0.00188135
0.000197889
0.00162804
0.000208908
0.00135713
0.000217633
0.00107175
0.000223907
0.000775254
0.000227789
0.000470492
0.000164185
0.000229893
2.29049e-05
0.00297244
-5.65894e-09
4.60935e-05
0.00293588
6.9004e-05
0.0028693
9.12629e-05
0.00277209
0.000112578
0.00264482
0.000132688
0.00248876
0.000151353
0.00230557
0.000168358
0.00209728
0.000183508
0.0018662
0.000196633
0.00161491
0.000207581
0.00134618
0.000216253
0.00106308
0.000222506
0.000769
0.00022636
0.000466639
0.000162211
0.000228334
2.276e-05
0.00294968
-5.96095e-09
4.58014e-05
0.00291284
6.85664e-05
0.00284653
9.0684e-05
0.00274997
0.000111864
0.00262363
0.000131846
0.00246877
0.000150392
0.00228702
0.000167289
0.00208038
0.000182343
0.00185115
0.000195384
0.00160187
0.000206263
0.0013353
0.000214881
0.00105446
0.00022111
0.000762765
0.000224946
0.000462795
0.000160313
0.000226823
2.26158e-05
0.00292707
-6.13758e-09
4.5511e-05
0.00288994
6.81315e-05
0.00282391
9.01089e-05
0.00272799
0.000111155
0.00260259
0.00013101
0.00244892
0.000149438
0.00226859
0.000166228
0.00206359
0.000181185
0.00183619
0.000194144
0.00158891
0.000204954
0.00132449
0.000213517
0.00104589
0.00021972
0.000756563
0.000223539
0.000458979
0.000158516
0.000225338
2.24725e-05
0.0029046
-6.16358e-09
4.52224e-05
0.00286719
6.76995e-05
0.00280143
8.95375e-05
0.00270615
0.00011045
0.00258167
0.000130179
0.00242919
0.00014849
0.00225028
0.000165173
0.00204691
0.000180035
0.00182132
0.000192912
0.00157603
0.000203654
0.00131374
0.000212162
0.00103738
0.000218335
0.000750384
0.000222138
0.000455168
0.000156762
0.000223869
2.233e-05
0.00288228
-6.02547e-09
4.49356e-05
0.00284459
6.72702e-05
0.0027791
8.89699e-05
0.00268445
0.00010975
0.00256089
0.000129353
0.00240958
0.000147548
0.00223208
0.000164124
0.00203033
0.000178893
0.00180655
0.000191688
0.00156323
0.000202362
0.00130307
0.000210816
0.00102893
0.000216957
0.000744243
0.000220741
0.000451388
0.000155095
0.000222414
2.21884e-05
0.0028601
-5.71513e-09
4.46506e-05
0.00282212
6.68436e-05
0.0027569
8.84058e-05
0.00266289
0.000109054
0.00254024
0.000128533
0.0023901
0.000146612
0.002214
0.000163083
0.00201386
0.000177757
0.00179188
0.000190471
0.00155051
0.000201079
0.00129246
0.000209478
0.00102052
0.000215586
0.00073813
0.00021935
0.000447617
0.000153452
0.000220972
2.20476e-05
0.00283805
-5.25305e-09
4.43674e-05
0.0027998
6.64198e-05
0.00273485
8.78454e-05
0.00264146
0.000108362
0.00251972
0.000127718
0.00237075
0.000145682
0.00219604
0.000162048
0.00199749
0.000176629
0.00177729
0.000189263
0.00153788
0.000199804
0.00128191
0.00020815
0.00101218
0.000214222
0.000732059
0.000217965
0.000443879
0.000151883
0.000219543
2.19077e-05
0.00281615
-4.67096e-09
4.4086e-05
0.00277762
6.59987e-05
0.00271293
8.72885e-05
0.00262017
0.000107675
0.00249933
0.000126908
0.00235151
0.000144757
0.00217818
0.00016102
0.00198123
0.000175508
0.0017628
0.000188062
0.00152532
0.000198537
0.00127144
0.000206829
0.00100388
0.000212866
0.000726016
0.000216587
0.000440151
0.000150327
0.000218125
2.17686e-05
0.00279438
-4.00945e-09
4.38063e-05
0.00275559
6.55802e-05
0.00269116
8.67351e-05
0.00259901
0.000106993
0.00247908
0.000126102
0.0023324
0.000143839
0.00216045
0.000159998
0.00196507
0.000174394
0.00174841
0.000186869
0.00151285
0.000197278
0.00126103
0.000205518
0.000995643
0.000211519
0.000720018
0.000215216
0.000436458
0.000148838
0.000216719
2.16304e-05
0.00277276
-3.32793e-09
4.35285e-05
0.00273369
6.51643e-05
0.00266952
8.61852e-05
0.00257799
0.000106314
0.00245895
0.000125302
0.00231341
0.000142926
0.00214282
0.000158982
0.00194901
0.000173288
0.0017341
0.000185683
0.00150045
0.000196028
0.00125068
0.000204215
0.000987452
0.000210179
0.000714048
0.000213853
0.000432776
0.000147354
0.000215325
2.14931e-05
0.00275127
-2.67653e-09
4.32523e-05
0.00271193
6.4751e-05
0.00264802
8.56386e-05
0.0025571
0.00010564
0.00243895
0.000124507
0.00229455
0.000142019
0.00212531
0.000157973
0.00193306
0.000172188
0.00171988
0.000184505
0.00148814
0.000194785
0.0012404
0.000202921
0.000979317
0.000208848
0.000708124
0.000212498
0.000429131
0.000145928
0.000213941
2.13566e-05
0.00272991
-2.10375e-09
4.29779e-05
0.0026903
6.43403e-05
0.00262666
8.50955e-05
0.00253635
0.000104969
0.00241907
0.000123717
0.0022758
0.000141118
0.00210791
0.000156971
0.0019172
0.000171095
0.00170576
0.000183335
0.00147589
0.00019355
0.00123018
0.000201635
0.000971228
0.000207525
0.000702229
0.000211152
0.000425495
0.000144503
0.000212569
2.1221e-05
0.00270869
-1.64453e-09
4.27052e-05
0.00266882
6.39322e-05
0.00260543
8.45556e-05
0.00251572
0.000104303
0.00239932
0.000122932
0.00225717
0.000140222
0.00209062
0.000155975
0.00190145
0.00017001
0.00169172
0.000182172
0.00146373
0.000192323
0.00122003
0.000200358
0.000963195
0.00020621
0.000696378
0.000209814
0.000421898
0.000143129
0.000211208
2.10862e-05
0.0026876
-1.31502e-09
4.24343e-05
0.00264747
6.35266e-05
0.00258434
8.40191e-05
0.00249523
0.000103641
0.0023797
0.000122152
0.00223866
0.000139332
0.00207343
0.000154985
0.00188579
0.000168931
0.00167777
0.000181016
0.00145165
0.000191104
0.00120994
0.000199088
0.000955207
0.000204904
0.000690556
0.000208484
0.000418308
0.000141752
0.000209857
2.09523e-05
0.00266665
-1.11547e-09
4.2165e-05
0.00262626
6.31234e-05
0.00256338
8.34859e-05
0.00247487
0.000102984
0.0023602
0.000121377
0.00222026
0.000138448
0.00205636
0.000154001
0.00187024
0.000167859
0.00166392
0.000179868
0.00143964
0.000189893
0.00119991
0.000197827
0.000947274
0.000203606
0.00068478
0.000207163
0.000414758
0.000140419
0.000208516
2.08192e-05
0.00264583
-1.03576e-09
4.18973e-05
0.00260518
6.27228e-05
0.00254255
8.2956e-05
0.00245463
0.00010233
0.00234082
0.000120606
0.00220198
0.000137569
0.0020394
0.000153024
0.00185478
0.000166794
0.00165014
0.000178727
0.0014277
0.000188689
0.00118995
0.000196574
0.000939385
0.000202316
0.000679031
0.00020585
0.000411215
0.000139079
0.000207185
2.06869e-05
0.00262515
-1.05736e-09
4.16314e-05
0.00258423
6.23246e-05
0.00252186
8.24293e-05
0.00243453
0.00010168
0.00232157
0.000119841
0.00218383
0.000136696
0.00202254
0.000152053
0.00183943
0.000165736
0.00163646
0.000177593
0.00141585
0.000187493
0.00118005
0.000195328
0.000931551
0.000201035
0.000673327
0.000204546
0.000407711
0.000137781
0.000205863
2.05555e-05
0.00260459
-1.16678e-09
4.1367e-05
0.00256342
6.19289e-05
0.00250129
8.1906e-05
0.00241455
0.000101035
0.00230244
0.00011908
0.00216578
0.000135828
0.00200579
0.000151088
0.00182417
0.000164684
0.00162286
0.000176467
0.00140406
0.000186304
0.00117021
0.000194091
0.00092376
0.000199761
0.000667651
0.000203249
0.000404214
0.000136471
0.00020455
2.04249e-05
0.00258417
-1.35332e-09
4.11044e-05
0.00254274
6.15357e-05
0.00248086
8.13859e-05
0.0023947
0.000100393
0.00228343
0.000118324
0.00214785
0.000134966
0.00198915
0.000150129
0.001809
0.00016364
0.00160935
0.000175347
0.00139236
0.000185123
0.00116043
0.000192861
0.000916024
0.000198496
0.000662019
0.000201961
0.000400756
0.000135201
0.000203246
2.02952e-05
0.00256387
-1.61431e-09
4.08433e-05
0.00252219
6.11449e-05
0.00246056
8.08691e-05
0.00237497
9.97558e-05
0.00226455
0.000117573
0.00213003
0.000134109
0.00197261
0.000149176
0.00179393
0.000162602
0.00159592
0.000174235
0.00138072
0.00018395
0.00115072
0.000191639
0.00090833
0.000197238
0.000656414
0.000200681
0.000397304
0.000133918
0.000201951
2.01663e-05
0.00254371
-1.94974e-09
4.05839e-05
0.00250177
6.07566e-05
0.00244039
8.03556e-05
0.00235537
9.91224e-05
0.00224578
0.000116826
0.00211233
0.000133258
0.00195618
0.00014823
0.00177896
0.00016157
0.00158259
0.00017313
0.00136916
0.000182784
0.00114106
0.000190425
0.00090069
0.000195989
0.000650854
0.000199409
0.000393891
0.000132675
0.000200665
2.00382e-05
0.00252367
-2.3614e-09
4.03262e-05
0.00248148
6.03707e-05
0.00242034
7.98452e-05
0.0023359
9.8493e-05
0.00222713
0.000116085
0.00209473
0.000132412
0.00193985
0.000147289
0.00176408
0.000160545
0.00156933
0.000172032
0.00135767
0.000181625
0.00113147
0.000189219
0.000893092
0.000194747
0.00064532
0.000198145
0.000390484
0.000131414
0.000199387
1.9911e-05
0.00250377
-2.84725e-09
4.00701e-05
0.00246132
5.99873e-05
0.00240042
7.93382e-05
0.00231655
9.78677e-05
0.0022086
0.000115348
0.00207725
0.000131572
0.00192362
0.000146355
0.0017493
0.000159527
0.00155616
0.000170941
0.00134626
0.000180474
0.00112194
0.00018802
0.000885547
0.000193513
0.00063983
0.000196889
0.000387117
0.000130194
0.000198119
1.97846e-05
0.00248398
-3.40342e-09
3.98156e-05
0.00244129
5.96063e-05
0.00238063
7.88343e-05
0.00229732
9.72463e-05
0.00219019
0.000114615
0.00205988
0.000130737
0.0019075
0.000145426
0.00173461
0.000158515
0.00154306
0.000169857
0.00133491
0.00017933
0.00111246
0.000186829
0.000878043
0.000192287
0.000634366
0.00019564
0.000383754
0.000128954
0.000196859
1.9659e-05
0.00246433
-4.02129e-09
3.95627e-05
0.00242139
5.92277e-05
0.00236096
7.83337e-05
0.00227821
9.66288e-05
0.00217189
0.000113888
0.00204262
0.000129907
0.00189148
0.000144503
0.00172002
0.000157509
0.00153006
0.00016878
0.00132364
0.000178193
0.00110305
0.000185645
0.000870593
0.000191068
0.000628947
0.0001944
0.000380431
0.000127757
0.000195607
1.95343e-05
0.0024448
-4.69277e-09
3.93115e-05
0.00240161
5.88516e-05
0.00234142
7.78363e-05
0.00225923
9.60153e-05
0.00215371
0.000113165
0.00202547
0.000129083
0.00187556
0.000143586
0.00170551
0.00015651
0.00151713
0.00016771
0.00131244
0.000177064
0.00109369
0.000184469
0.000863183
0.000189858
0.000623551
0.000193168
0.000377112
0.000126538
0.000194364
1.94105e-05
0.00242539
-5.40828e-09
3.90619e-05
0.00238196
5.84779e-05
0.00232201
7.7342e-05
0.00224036
9.54057e-05
0.00213565
0.000112447
0.00200843
0.000128264
0.00185974
0.000142675
0.0016911
0.000155517
0.00150429
0.000166647
0.00130131
0.000175942
0.0010844
0.0001833
0.000855827
0.000188655
0.000618201
0.000191943
0.000373833
0.000125365
0.000193129
1.92875e-05
0.00240611
-6.16025e-09
3.8814e-05
0.00236243
5.81066e-05
0.00230271
7.68509e-05
0.00222161
9.48e-05
0.00211769
0.000111733
0.0019915
0.00012745
0.00184403
0.00014177
0.00167678
0.000154531
0.00149153
0.00016559
0.00129025
0.000174826
0.00107516
0.000182139
0.000848509
0.000187459
0.000612875
0.000190726
0.000370558
0.000124168
0.000191902
1.91653e-05
0.00238695
-6.93922e-09
3.85676e-05
0.00234303
5.77376e-05
0.00228354
7.6363e-05
0.00220299
9.41982e-05
0.00209986
0.000111024
0.00197467
0.000126641
0.00182841
0.00014087
0.00166255
0.000153551
0.00147885
0.00016454
0.00127926
0.000173718
0.00106598
0.000180985
0.000841245
0.000186271
0.000607593
0.000189516
0.000367323
0.000123017
0.000190682
1.90439e-05
0.00236791
-7.73494e-09
3.83229e-05
0.00232375
5.73711e-05
0.00226449
7.58782e-05
0.00218448
9.36002e-05
0.00208214
0.000110319
0.00195795
0.000125837
0.00181289
0.000139977
0.00164841
0.000152577
0.00146625
0.000163497
0.00126834
0.000172618
0.00105685
0.000179839
0.000834018
0.000185091
0.000602334
0.000188315
0.000364092
0.000121844
0.000189471
1.89234e-05
0.002349
-8.532e-09
3.80797e-05
0.00230459
5.70069e-05
0.00224556
7.53964e-05
0.00216609
9.3006e-05
0.00206453
0.000109619
0.00194134
0.000125039
0.00179747
0.000139089
0.00163436
0.000151609
0.00145373
0.00016246
0.00125749
0.000171524
0.00104779
0.000178699
0.000826845
0.000183918
0.00059712
0.000187121
0.0003609
0.000120718
0.000188268
1.88036e-05
0.0023302
-9.31194e-09
3.78381e-05
0.00228555
5.6645e-05
0.00222676
7.49178e-05
0.00214782
9.24156e-05
0.00204703
0.000108923
0.00192483
0.000124245
0.00178214
0.000138206
0.0016204
0.000150648
0.00144128
0.00016143
0.00124671
0.000170437
0.00103878
0.000177567
0.000819709
0.000182753
0.000591928
0.000185934
0.000357712
0.00011957
0.000187072
1.86847e-05
0.00231153
-1.00516e-08
3.75981e-05
0.00226664
5.62855e-05
0.00220807
7.44422e-05
0.00212966
9.18289e-05
0.00202964
0.000108231
0.00190843
0.000123457
0.00176692
0.000137329
0.00160652
0.000149692
0.00142892
0.000160407
0.00123599
0.000169357
0.00102984
0.000176443
0.000812626
0.000181595
0.00058678
0.000184756
0.000354563
0.000118465
0.000185884
1.85665e-05
0.00229297
-1.07283e-08
3.73596e-05
0.00224784
5.59282e-05
0.0021895
7.39696e-05
0.00211162
9.1246e-05
0.00201236
0.000107544
0.00189213
0.000122673
0.00175179
0.000136458
0.00159274
0.000148743
0.00141664
0.00015939
0.00122534
0.000168284
0.00102094
0.000175325
0.000805579
0.000180445
0.000581654
0.000183584
0.000351418
0.00011734
0.000184704
1.84491e-05
0.00227453
-1.13209e-08
3.71227e-05
0.00222917
5.55733e-05
0.00217105
7.35001e-05
0.00209369
9.06668e-05
0.00199519
0.000106862
0.00187593
0.000121895
0.00173676
0.000135592
0.00157904
0.0001478
0.00140443
0.00015838
0.00121476
0.000167217
0.0010121
0.000174215
0.000798585
0.000179302
0.000576572
0.00018242
0.000348311
0.000116257
0.000183532
1.83325e-05
0.00225621
-1.18166e-08
3.68873e-05
0.00221061
5.52206e-05
0.00215271
7.30335e-05
0.00207587
9.00913e-05
0.00197813
0.000106184
0.00185984
0.000121121
0.00172182
0.000134732
0.00156543
0.000146862
0.0013923
0.000157376
0.00120425
0.000166158
0.00100332
0.000173111
0.000791627
0.000178166
0.000571511
0.000181264
0.000345208
0.000115152
0.000182367
1.82167e-05
0.00223801
-1.2211e-08
3.66534e-05
0.00219218
5.48702e-05
0.00213449
7.25699e-05
0.00205818
8.95194e-05
0.00196118
0.00010551
0.00184385
0.000120353
0.00170697
0.000133878
0.0015519
0.000145931
0.00138024
0.000156378
0.0011938
0.000165105
0.000994593
0.000172015
0.00078472
0.000177037
0.000566494
0.000180115
0.000342142
0.000114087
0.00018121
1.81015e-05
0.00221992
-1.25129e-08
3.6421e-05
0.00217386
5.4522e-05
0.00211639
7.21093e-05
0.00204059
8.89511e-05
0.00194434
0.00010484
0.00182796
0.000119589
0.00169222
0.000133028
0.00153846
0.000145006
0.00136826
0.000155387
0.00118342
0.000164059
0.000985917
0.000170926
0.000777849
0.000175916
0.000561497
0.000178974
0.000339081
0.000113001
0.00018006
1.79872e-05
0.00220194
-1.27415e-08
3.61901e-05
0.00215565
5.4176e-05
0.00209841
7.16515e-05
0.00202311
8.83864e-05
0.00192761
0.000104174
0.00181217
0.00011883
0.00167757
0.000132184
0.00152511
0.000144086
0.00135636
0.000154403
0.0011731
0.00016302
0.000977302
0.000169843
0.000771029
0.000174802
0.000556544
0.00017784
0.000336056
0.00011195
0.000178918
1.78735e-05
0.00218408
-1.29264e-08
3.59606e-05
0.00213756
5.38321e-05
0.00208053
7.11967e-05
0.00200574
8.78253e-05
0.00191098
0.000103513
0.00179648
0.000118076
0.001663
0.000131346
0.00151183
0.000143173
0.00134453
0.000153424
0.00116285
0.000161987
0.000968735
0.000168768
0.000764243
0.000173695
0.000551611
0.000176713
0.000333035
0.00011088
0.000177784
1.77606e-05
0.00216633
-1.31008e-08
3.57326e-05
0.00211959
5.34905e-05
0.00206277
7.07447e-05
0.00198849
8.72678e-05
0.00189445
0.000102856
0.00178089
0.000117327
0.00164853
0.000130513
0.00149865
0.000142265
0.00133278
0.000152452
0.00115266
0.000160962
0.000960228
0.000167699
0.000757509
0.000172596
0.00054672
0.000175594
0.000330051
0.000109844
0.000176657
1.76484e-05
0.0021487
-1.32993e-08
3.55061e-05
0.00210173
5.3151e-05
0.00204513
7.02956e-05
0.00197134
8.67138e-05
0.00187803
0.000102203
0.0017654
0.000116582
0.00163415
0.000129685
0.00148554
0.000141363
0.0013211
0.000151486
0.00114254
0.000159942
0.000951768
0.000166638
0.000750809
0.000171503
0.000541849
0.000174481
0.000327069
0.000108787
0.000175537
1.75368e-05
0.00213117
-1.355e-08
3.5281e-05
0.00208399
5.28137e-05
0.00202759
6.98493e-05
0.00195431
8.61633e-05
0.00186172
0.000101555
0.00175001
0.000115843
0.00161987
0.000128863
0.00147253
0.000140467
0.0013095
0.000150526
0.00113248
0.000158929
0.000943368
0.000165583
0.000744159
0.000170417
0.000537021
0.000173376
0.000324121
0.000107764
0.000174424
1.7426e-05
0.00211376
-1.38731e-08
3.50573e-05
0.00206636
5.24785e-05
0.00201017
6.94059e-05
0.00193738
8.56163e-05
0.00184551
0.00010091
0.00173471
0.000115108
0.00160567
0.000128045
0.00145959
0.000139577
0.00129796
0.000149573
0.00112248
0.000157923
0.000935014
0.000164535
0.000737542
0.000169339
0.000532211
0.000172278
0.000321177
0.000106718
0.000173319
1.73159e-05
0.00209646
-1.42761e-08
3.4835e-05
0.00204884
5.21455e-05
0.00199286
6.89652e-05
0.00192056
8.50728e-05
0.0018294
0.00010027
0.00171952
0.000114377
0.00159156
0.000127233
0.00144673
0.000138692
0.00128651
0.000148625
0.00111255
0.000156923
0.000926719
0.000163493
0.000730975
0.000168267
0.000527444
0.000171187
0.000318267
0.000105708
0.000172221
1.72064e-05
0.00207927
-1.47564e-08
3.46141e-05
0.00203143
5.18145e-05
0.00197566
6.85274e-05
0.00190384
8.45327e-05
0.00181339
9.96333e-05
0.00170442
0.000113652
0.00157754
0.000126427
0.00143395
0.000137813
0.00127512
0.000147684
0.00110268
0.00015593
0.000918469
0.000162459
0.000724441
0.000167202
0.000522694
0.000170103
0.000315358
0.000104671
0.00017113
1.70977e-05
0.00206218
-1.5302e-08
3.43946e-05
0.00201413
5.14856e-05
0.00195857
6.80923e-05
0.00188724
8.39961e-05
0.00179749
9.9001e-05
0.00168941
0.000112931
0.00156361
0.000125625
0.00142126
0.00013694
0.0012638
0.000146748
0.00109287
0.000154943
0.000910278
0.000161431
0.000717957
0.000166144
0.000517987
0.000169027
0.000312481
0.000103673
0.000170046
1.69896e-05
0.00204521
-1.58961e-08
3.41764e-05
0.00199694
5.11588e-05
0.00194158
6.766e-05
0.00187073
8.34629e-05
0.00178168
9.83727e-05
0.0016745
0.000112214
0.00154977
0.000124828
0.00140864
0.000136072
0.00125256
0.000145819
0.00108312
0.000153962
0.000902132
0.000160409
0.000711504
0.000165093
0.000513297
0.000167957
0.000309607
0.000102647
0.000168969
1.68821e-05
0.00202834
-1.65208e-08
3.39597e-05
0.00197986
5.0834e-05
0.00192471
6.72304e-05
0.00185434
8.29331e-05
0.00176598
9.77484e-05
0.00165968
0.000111503
0.00153601
0.000124037
0.00139611
0.00013521
0.00124139
0.000144896
0.00107344
0.000152987
0.000894043
0.000159394
0.000705101
0.000164048
0.000508649
0.000166894
0.000306766
0.000101659
0.0001679
1.67754e-05
0.00201158
-1.71609e-08
3.37443e-05
0.00196289
5.05113e-05
0.00190794
6.68036e-05
0.00183804
8.24066e-05
0.00175037
9.71281e-05
0.00164496
0.000110795
0.00152234
0.000123251
0.00138365
0.000134353
0.00123028
0.000143978
0.00106381
0.000152019
0.000885999
0.000158386
0.000698729
0.000163011
0.000504018
0.000165837
0.000303926
0.000100646
0.000166837
1.66692e-05
0.00199493
-1.78059e-08
3.35302e-05
0.00194603
5.01907e-05
0.00189128
6.63795e-05
0.00182185
8.18835e-05
0.00173487
9.65118e-05
0.00163033
0.000110093
0.00150876
0.00012247
0.00137128
0.000133502
0.00121925
0.000143067
0.00105425
0.000151057
0.000878011
0.000157384
0.000692406
0.00016198
0.000499429
0.000164788
0.000301122
9.96755e-05
0.000165781
1.65638e-05
0.00197838
-1.84505e-08
3.33175e-05
0.00192927
4.98721e-05
0.00187472
6.5958e-05
0.00180577
8.13638e-05
0.00171946
9.58995e-05
0.0016158
0.000109394
0.00149527
0.000121693
0.00135898
0.000132657
0.00120828
0.000142161
0.00104474
0.000150101
0.000870067
0.000156389
0.000686114
0.000160955
0.000494856
0.000163746
0.000298318
9.86779e-05
0.000164732
1.6459e-05
0.00196194
-1.90937e-08
3.31062e-05
0.00191263
4.95555e-05
0.00185827
6.55393e-05
0.00178978
8.08473e-05
0.00170416
9.5291e-05
0.00160135
0.000108701
0.00148186
0.000120922
0.00134675
0.000131816
0.00119739
0.000141261
0.0010353
0.000149152
0.00086218
0.0001554
0.00067987
0.000159937
0.000490325
0.00016271
0.000295551
9.77216e-05
0.00016369
1.63549e-05
0.00194561
-1.97365e-08
3.28962e-05
0.00189608
4.92409e-05
0.00184192
6.51232e-05
0.0017739
8.03342e-05
0.00168894
9.46864e-05
0.001587
0.000108011
0.00146853
0.000120156
0.00133461
0.000130982
0.00118656
0.000140367
0.00102591
0.000148208
0.000854335
0.000154417
0.000673657
0.000158926
0.00048581
0.000161681
0.000292784
9.674e-05
0.000162655
1.62514e-05
0.00192938
-2.03805e-08
3.26875e-05
0.00187965
4.89283e-05
0.00182568
6.47098e-05
0.00175812
7.98243e-05
0.00167383
9.40858e-05
0.00157274
0.000107327
0.00145529
0.000119394
0.00132254
0.000130152
0.00117581
0.000139479
0.00101659
0.000147271
0.000846546
0.000153441
0.000667491
0.000157921
0.000481336
0.000160658
0.000290053
9.58001e-05
0.000161626
1.61485e-05
0.00191325
-2.10252e-08
3.24801e-05
0.00186331
4.86177e-05
0.00180954
6.4299e-05
0.00174243
7.93177e-05
0.00165881
9.34889e-05
0.00155856
0.000106646
0.00144213
0.000118638
0.00131055
0.000129328
0.00116511
0.000138596
0.00100731
0.000146339
0.0008388
0.00015247
0.000661355
0.000156923
0.000476877
0.000159642
0.000287322
9.48339e-05
0.000160604
1.60463e-05
0.00189722
-2.16686e-08
3.2274e-05
0.00184708
4.83091e-05
0.00179351
6.38908e-05
0.00172685
7.88144e-05
0.00164388
9.28959e-05
0.00154448
0.00010597
0.00142906
0.000117886
0.00129863
0.000128509
0.00115449
0.000137719
0.000998106
0.000145414
0.000831108
0.000151507
0.000655266
0.000155931
0.000472459
0.000158633
0.000284628
9.39076e-05
0.000159589
1.59448e-05
0.0018813
-2.23058e-08
3.20693e-05
0.00183096
4.80024e-05
0.00177757
6.34853e-05
0.00171137
7.83143e-05
0.00162905
9.23067e-05
0.00153049
0.000105298
0.00141606
0.000117139
0.00128679
0.000127696
0.00114393
0.000136848
0.000988951
0.000144494
0.000823458
0.000150549
0.000649206
0.000154945
0.000468057
0.000157631
0.000281933
9.29553e-05
0.00015858
1.58439e-05
0.00186548
-2.29314e-08
3.18658e-05
0.00181494
4.76977e-05
0.00176174
6.30823e-05
0.00169598
7.78173e-05
0.00161432
9.17213e-05
0.00151658
0.000104631
0.00140315
0.000116397
0.00127502
0.000126887
0.00113345
0.000135982
0.000979859
0.00014358
0.000815863
0.000149597
0.000643194
0.000153966
0.000463695
0.000156634
0.000279274
9.20409e-05
0.000157577
1.57436e-05
0.00184975
-2.35386e-08
3.16636e-05
0.00179902
4.73949e-05
0.00174601
6.2682e-05
0.00168069
7.73236e-05
0.00159968
9.11396e-05
0.00150277
0.000103968
0.00139032
0.00011566
0.00126333
0.000126084
0.00112302
0.000135122
0.000970818
0.000142673
0.000808308
0.000148652
0.00063721
0.000152993
0.000459348
0.000155645
0.000276614
9.11017e-05
0.000156582
1.56439e-05
0.00183413
-2.41219e-08
3.14628e-05
0.0017832
4.70941e-05
0.00173038
6.22841e-05
0.0016655
7.6833e-05
0.00158513
9.05617e-05
0.00148904
0.000103309
0.00137758
0.000114928
0.00125171
0.000125286
0.00111266
0.000134267
0.00096184
0.000141771
0.000800808
0.000147713
0.000631273
0.000152027
0.00045504
0.000154661
0.00027399
9.01977e-05
0.000155592
1.55449e-05
0.00181861
-2.46749e-08
3.12632e-05
0.00176748
4.67952e-05
0.00171484
6.18889e-05
0.00165041
7.63456e-05
0.00157067
8.99875e-05
0.00147539
0.000102654
0.00136491
0.0001142
0.00124016
0.000124493
0.00110237
0.000133418
0.000952912
0.000140875
0.000793348
0.000146779
0.000625363
0.000151067
0.000450748
0.000153685
0.000271365
8.92706e-05
0.00015461
1.54466e-05
0.00180319
-2.51932e-08
3.10649e-05
0.00175186
4.64983e-05
0.00169941
6.14962e-05
0.00163541
7.58614e-05
0.0015563
8.9417e-05
0.00146184
0.000102004
0.00135232
0.000113477
0.00122869
0.000123706
0.00109214
0.000132575
0.000944045
0.000139985
0.000785941
0.000145852
0.0006195
0.000150112
0.000446494
0.000152714
0.000268776
8.83797e-05
0.000153633
1.53488e-05
0.00178786
-2.56705e-08
3.08678e-05
0.00173634
4.62032e-05
0.00168407
6.1106e-05
0.00162051
7.53802e-05
0.00154203
8.88502e-05
0.00144837
0.000101358
0.00133981
0.000112759
0.00121729
0.000122923
0.00108197
0.000131736
0.000935229
0.0001391
0.000778574
0.000144931
0.000613664
0.000149165
0.000442256
0.00015175
0.000266185
8.74633e-05
0.000152663
1.52517e-05
0.00177264
-2.61019e-08
3.06721e-05
0.00172092
4.591e-05
0.00166883
6.07183e-05
0.0016057
7.49022e-05
0.00152784
8.8287e-05
0.00143498
0.000100716
0.00132738
0.000112045
0.00120596
0.000122146
0.00107187
0.000130904
0.000926473
0.000138221
0.000771259
0.000144016
0.000607874
0.000148223
0.000438055
0.000150792
0.000263626
8.65815e-05
0.0001517
1.51553e-05
0.00175751
-2.64805e-08
3.04775e-05
0.00170559
4.56188e-05
0.00165369
6.03331e-05
0.00159098
7.44272e-05
0.00151375
8.77275e-05
0.00142168
0.000100078
0.00131503
0.000111336
0.0011947
0.000121373
0.00106183
0.000130076
0.000917767
0.000137348
0.000763984
0.000143107
0.000602111
0.000147287
0.000433869
0.00014984
0.000261067
8.56738e-05
0.000150742
1.50594e-05
0.00174247
-2.68013e-08
3.02843e-05
0.00169037
4.53294e-05
0.00163864
5.99504e-05
0.00157636
7.39553e-05
0.00149974
8.71716e-05
0.00140846
9.9444e-05
0.00130276
0.000110631
0.00118351
0.000120605
0.00105186
0.000129254
0.000909121
0.000136481
0.00075676
0.000142203
0.000596393
0.000146358
0.000429721
0.000148894
0.00025854
8.48032e-05
0.000149791
1.49642e-05
0.00172754
-2.70582e-08
3.00923e-05
0.00167524
4.50418e-05
0.00162369
5.95702e-05
0.00156183
7.34864e-05
0.00148582
8.66192e-05
0.00139533
9.88144e-05
0.00129056
0.000109931
0.00117239
0.000119843
0.00104195
0.000128438
0.000900523
0.000135619
0.000749576
0.000141306
0.000590701
0.000145434
0.000425587
0.000147955
0.00025601
8.39031e-05
0.000148846
1.48696e-05
0.00171269
-2.72494e-08
2.99015e-05
0.00166021
4.47561e-05
0.00160884
5.91924e-05
0.00154739
7.30206e-05
0.001472
8.60704e-05
0.00138228
9.81887e-05
0.00127844
0.000109236
0.00116135
0.000119085
0.0010321
0.000127626
0.000891984
0.000134763
0.000742442
0.000140414
0.000585054
0.000144517
0.000421491
0.000147022
0.000253511
8.30419e-05
0.000147908
1.47756e-05
0.00169794
-2.73737e-08
2.9712e-05
0.00164527
4.44723e-05
0.00159408
5.88171e-05
0.00153305
7.25577e-05
0.00145825
8.55252e-05
0.00136931
9.75672e-05
0.0012664
0.000108545
0.00115037
0.000118332
0.00102231
0.00012682
0.000883494
0.000133912
0.000735347
0.000139528
0.000579433
0.000143605
0.000417408
0.000146094
0.000251011
8.21499e-05
0.000146975
1.46822e-05
0.00168329
-2.74359e-08
2.95237e-05
0.00163043
4.41903e-05
0.00157941
5.84442e-05
0.00151879
7.20979e-05
0.0014446
8.49835e-05
0.00135643
9.69496e-05
0.00125444
0.000107858
0.00113946
0.000117585
0.00101258
0.000126019
0.000875062
0.000133067
0.000728302
0.000138648
0.000573856
0.0001427
0.000413362
0.000145173
0.000248541
8.12975e-05
0.000146049
1.45894e-05
0.00166872
-2.74423e-08
2.93366e-05
0.00161568
4.39101e-05
0.00156483
5.80737e-05
0.00150463
7.1641e-05
0.00143103
8.44453e-05
0.00134362
9.63361e-05
0.00124254
0.000107176
0.00112862
0.000116842
0.00100292
0.000125223
0.000866677
0.000132227
0.000721295
0.000137773
0.000568306
0.0001418
0.00040933
0.000144258
0.000246071
8.04159e-05
0.000145129
1.44972e-05
0.00165425
-2.74047e-08
2.91508e-05
0.00160103
4.36318e-05
0.00155035
5.77055e-05
0.00149055
7.11871e-05
0.00141755
8.39106e-05
0.0013309
9.57265e-05
0.00123073
0.000106498
0.00111785
0.000116103
0.000993313
0.000124433
0.00085835
0.000131393
0.000714338
0.000136904
0.000562798
0.000140906
0.000405334
0.000143349
0.000243632
7.95771e-05
0.000144215
1.44056e-05
0.00163987
-2.7335e-08
2.89661e-05
0.00158647
4.33552e-05
0.00153596
5.73398e-05
0.00147657
7.07361e-05
0.00140415
8.33793e-05
0.00131825
9.51209e-05
0.00121898
0.000105825
0.00110714
0.00011537
0.000983765
0.000123647
0.00085007
0.000130564
0.000707417
0.000136041
0.000557316
0.000140018
0.000401352
0.000142446
0.000241192
7.87084e-05
0.000143307
1.43146e-05
0.00162559
-2.72489e-08
2.87827e-05
0.001572
4.30805e-05
0.00152166
5.69765e-05
0.00146267
7.02881e-05
0.00139084
8.28515e-05
0.00130569
9.45192e-05
0.00120732
0.000105156
0.00109651
0.000114641
0.000974282
0.000122867
0.000841846
0.00012974
0.000700547
0.000135184
0.000551876
0.000139136
0.000397406
0.000141548
0.000238785
7.7881e-05
0.000142404
1.42242e-05
0.00161139
-2.71602e-08
2.86004e-05
0.00155762
4.28075e-05
0.00150746
5.66154e-05
0.00144886
6.98429e-05
0.00137761
8.23271e-05
0.0012932
9.39214e-05
0.00119572
0.000104492
0.00108593
0.000113917