/*--------------------------------*- C++ -*----------------------------------*\
  =========                 |
  \\      /  F ield         | OpenFOAM: The Open Source CFD Toolbox
   \\    /   O peration     | Website:  https://openfoam.org
    \\  /    A nd           | Version:  6.0
     \\/     M anipulation  |
\*---------------------------------------------------------------------------*/
FoamFile
{
    version     2.0;
    format      ascii;
    class       volScalarField;
    location    "30";
    object      p;
}
// * * * * * * * * * * * * * * * * * * * * * * * * * * * * * * * * * * * * * //

dimensions      [0 2 -2 0 0 0 0];

internalField   nonuniform List<scalar> 
2000
(
-0.348234
-0.35414
-0.355828
-0.355159
-0.353298
-0.350621
-0.347405
-0.343942
-0.340521
-0.336824
-0.350952
-0.356439
-0.357787
-0.356816
-0.354668
-0.351715
-0.348236
-0.344513
-0.340838
-0.337021
-0.356409
-0.361036
-0.361693
-0.360113
-0.357383
-0.353876
-0.349861
-0.345602
-0.341397
-0.337336
-0.364644
-0.367932
-0.367527
-0.36502
-0.361409
-0.357055
-0.352217
-0.347114
-0.342062
-0.337611
-0.375718
-0.377123
-0.375257
-0.371498
-0.366702
-0.361206
-0.355236
-0.348934
-0.342634
-0.33759
-0.389694
-0.388595
-0.384843
-0.379505
-0.373231
-0.366304
-0.358886
-0.350979
-0.342903
-0.336943
-0.406607
-0.402306
-0.396226
-0.389002
-0.38099
-0.37239
-0.363259
-0.353367
-0.342868
-0.33541
-0.426399
-0.418157
-0.409315
-0.399927
-0.389963
-0.379507
-0.368472
-0.356229
-0.342285
-0.331841
-0.44886
-0.435974
-0.423993
-0.412239
-0.400193
-0.387748
-0.374507
-0.358946
-0.33886
-0.321548
-0.473554
-0.455494
-0.440161
-0.426086
-0.412299
-0.398602
-0.384238
-0.366572
-0.341532
-0.317554
-0.499796
-0.47629
-0.45755
-0.441379
-0.42665
-0.413738
-0.402982
-0.395024
-0.39516
-0.414691
-0.52676
-0.497785
-0.475543
-0.457012
-0.440674
-0.426991
-0.416437
-0.410072
-0.413026
-0.430295
-0.553724
-0.519521
-0.493867
-0.472864
-0.4545
-0.439137
-0.427143
-0.419236
-0.418525
-0.426341
-0.580039
-0.541026
-0.512209
-0.488764
-0.468128
-0.450483
-0.43599
-0.424903
-0.418698
-0.417359
-0.604957
-0.561633
-0.529945
-0.504068
-0.480854
-0.460288
-0.442328
-0.426851
-0.414278
-0.404649
-0.627488
-0.580409
-0.546131
-0.517768
-0.491623
-0.467549
-0.445421
-0.424929
-0.405906
-0.389116
-0.646347
-0.596141
-0.559535
-0.52858
-0.499148
-0.471096
-0.444386
-0.418713
-0.393659
-0.371004
-0.659977
-0.607377
-0.568697
-0.535023
-0.501999
-0.46967
-0.438255
-0.407599
-0.377251
-0.350074
-0.666613
-0.612477
-0.571994
-0.535503
-0.4987
-0.462018
-0.426066
-0.390923
-0.35622
-0.32583
-0.66439
-0.609702
-0.567732
-0.528409
-0.48782
-0.446967
-0.406932
-0.368045
-0.330051
-0.297683
-0.651452
-0.59731
-0.55424
-0.512212
-0.468068
-0.423513
-0.380124
-0.338443
-0.298296
-0.265098
-0.626065
-0.57366
-0.529983
-0.485574
-0.438384
-0.390897
-0.345138
-0.301776
-0.260667
-0.227705
-0.586755
-0.537344
-0.493682
-0.447456
-0.398032
-0.348669
-0.301745
-0.257953
-0.217101
-0.185368
-0.532424
-0.487304
-0.444426
-0.397208
-0.346657
-0.296731
-0.250026
-0.207154
-0.167802
-0.138229
-0.462471
-0.42294
-0.381767
-0.334633
-0.284314
-0.235333
-0.190357
-0.149828
-0.113246
-0.0867132
-0.376892
-0.34422
-0.305799
-0.260022
-0.211465
-0.165038
-0.123339
-0.0865944
-0.0540671
-0.0314461
-0.276377
-0.251747
-0.217202
-0.174173
-0.128966
-0.0866865
-0.0497443
-0.0181516
0.00901254
0.026746
-0.162365
-0.146809
-0.117263
-0.0783766
-0.0380544
-0.0014202
0.0293707
0.0543819
0.0744517
0.085833
-0.037065
-0.0313794
-0.00783021
0.025695
0.0598863
0.0897085
0.113148
0.129793
0.139727
0.142098
0.0965666
0.0919004
0.108682
0.136011
0.163533
0.186524
0.203011
0.211379
0.210345
0.203616
0.234954
0.219765
0.229171
0.249679
0.270429
0.287543
0.299748
0.30523
0.304183
0.318101
0.374203
0.348568
0.350023
0.362843
0.375863
0.385837
0.391891
0.393133
0.392056
0.404979
0.510369
0.474639
0.467831
0.472383
0.477037
0.479116
0.478053
0.473432
0.467739
0.472843
0.639605
0.594368
0.579303
0.575401
0.571503
0.565514
0.557178
0.546345
0.535087
0.532245
0.75825
0.704317
0.681344
0.669235
0.657069
0.643321
0.62801
0.611173
0.594503
0.584556
0.862919
0.801318
0.771135
0.751491
0.731783
0.711006
0.689419
0.667207
0.645692
0.629536
0.950594
0.882563
0.846191
0.820055
0.793892
0.767142
0.740263
0.713552
0.687977
0.666619
1.01872
0.945686
0.904416
0.87314
0.841894
0.810468
0.779472
0.749284
0.720563
0.695148
1.0653
0.988833
0.944174
0.909342
0.874593
0.839957
0.806149
0.773598
0.742733
0.714532
1.08894
1.01073
0.96434
0.927691
0.891156
0.854889
0.819654
0.785909
0.753957
0.724338
1.08894
1.01073
0.96434
0.927691
0.891156
0.854889
0.819654
0.785909
0.753957
0.724338
1.0653
0.988834
0.944175
0.909342
0.874593
0.839958
0.806149
0.773598
0.742733
0.714532
1.01872
0.945687
0.904416
0.873141
0.841895
0.810468
0.779472
0.749285
0.720564
0.695148
0.950596
0.882564
0.846192
0.820056
0.793893
0.767143
0.740264
0.713553
0.687978
0.666619
0.86292
0.801319
0.771137
0.751492
0.731784
0.711007
0.68942
0.667208
0.645693
0.629537
0.758252
0.704318
0.681345
0.669237
0.657071
0.643323
0.628011
0.611174
0.594504
0.584557
0.639607
0.59437
0.579305
0.575403
0.571504
0.565516
0.55718
0.546346
0.535088
0.532246
0.510371
0.474641
0.467833
0.472385
0.477039
0.479118
0.478055
0.473433
0.467741
0.472844
0.374205
0.348571
0.350026
0.362845
0.375866
0.38584
0.391893
0.393135
0.392057
0.404981
0.234957
0.219767
0.229173
0.249681
0.270431
0.287545
0.29975
0.305232
0.304185
0.318103
0.0965695
0.0919032
0.108685
0.136014
0.163536
0.186526
0.203014
0.211381
0.210347
0.203618
-0.0370619
-0.0313764
-0.00782725
0.0256979
0.0598892
0.0897113
0.11315
0.129795
0.13973
0.142101
-0.162361
-0.146806
-0.11726
-0.0783735
-0.0380514
-0.00141721
0.0293737
0.0543847
0.0744545
0.0858358
-0.276374
-0.251744
-0.217199
-0.17417
-0.128963
-0.0866833
-0.0497412
-0.0181485
0.00901555
0.0267489
-0.376889
-0.344216
-0.305795
-0.260018
-0.211461
-0.165034
-0.123336
-0.0865911
-0.0540639
-0.0314429
-0.462467
-0.422937
-0.381764
-0.334629
-0.284311
-0.23533
-0.190353
-0.149825
-0.113242
-0.0867099
-0.53242
-0.4873
-0.444422
-0.397204
-0.346653
-0.296727
-0.250022
-0.207151
-0.167799
-0.138225
-0.58675
-0.53734
-0.493677
-0.447452
-0.398028
-0.348665
-0.301741
-0.25795
-0.217098
-0.185365
-0.626061
-0.573655
-0.529978
-0.485569
-0.43838
-0.390893
-0.345134
-0.301772
-0.260664
-0.227701
-0.651448
-0.597306
-0.554236
-0.512208
-0.468063
-0.423509
-0.38012
-0.338438
-0.298292
-0.265094
-0.664386
-0.609698
-0.567727
-0.528404
-0.487815
-0.446963
-0.406927
-0.368041
-0.330047
-0.297679
-0.666608
-0.612472
-0.571989
-0.535499
-0.498695
-0.462014
-0.426061
-0.390918
-0.356216
-0.325826
-0.659972
-0.607372
-0.568692
-0.535019
-0.501994
-0.469666
-0.43825
-0.407594
-0.377247
-0.35007
-0.646343
-0.596137
-0.559531
-0.528576
-0.499143
-0.471091
-0.444381
-0.418708
-0.393654
-0.370999
-0.627483
-0.580404
-0.546126
-0.517763
-0.491619
-0.467544
-0.445416
-0.424924
-0.405901
-0.389111
-0.604952
-0.561629
-0.52994
-0.504063
-0.480849
-0.460283
-0.442323
-0.426846
-0.414274
-0.404645
-0.580034
-0.541021
-0.512204
-0.48876
-0.468123
-0.450478
-0.435985
-0.424898
-0.418694
-0.417354
-0.553719
-0.519516
-0.493862
-0.47286
-0.454495
-0.439132
-0.427138
-0.419231
-0.41852
-0.426336
-0.526755
-0.49778
-0.475539
-0.457007
-0.44067
-0.426986
-0.416432
-0.410067
-0.413021
-0.43029
-0.499791
-0.476285
-0.457546
-0.441375
-0.426646
-0.413733
-0.402977
-0.395019
-0.395156
-0.414687
-0.47355
-0.455489
-0.440157
-0.426081
-0.412295
-0.398598
-0.384233
-0.366567
-0.341527
-0.317549
-0.448856
-0.43597
-0.423989
-0.412235
-0.400188
-0.387744
-0.374503
-0.358941
-0.338855
-0.321543
-0.426395
-0.418153
-0.409311
-0.399923
-0.38996
-0.379503
-0.368468
-0.356225
-0.342281
-0.331837
-0.406603
-0.402302
-0.396223
-0.388999
-0.380986
-0.372386
-0.363255
-0.353364
-0.342864
-0.335406
-0.389691
-0.388592
-0.38484
-0.379502
-0.373228
-0.366301
-0.358882
-0.350976
-0.342899
-0.336939
-0.375715
-0.37712
-0.375254
-0.371495
-0.366699
-0.361204
-0.355233
-0.348931
-0.342631
-0.337587
-0.364642
-0.36793
-0.367525
-0.365018
-0.361407
-0.357053
-0.352215
-0.347111
-0.34206
-0.337609
-0.356407
-0.361035
-0.361692
-0.360112
-0.357382
-0.353874
-0.34986
-0.3456
-0.341395
-0.337334
-0.350952
-0.356438
-0.357786
-0.356815
-0.354667
-0.351714
-0.348235
-0.344512
-0.340836
-0.33702
-0.348234
-0.35414
-0.355828
-0.355158
-0.353298
-0.350621
-0.347404
-0.343942
-0.340521
-0.336823
-0.290607
-0.126424
-0.081417
-0.0304268
-0.0193598
-0.00790053
-0.00444874
-0.000960693
-0.000513966
0.00214967
-0.291838
-0.126971
-0.0816871
-0.0306251
-0.0194281
-0.00796104
-0.00447923
-0.000981857
-0.000522928
0.00213392
-0.29423
-0.128053
-0.0822227
-0.0310235
-0.0195642
-0.00808126
-0.00453948
-0.00102397
-0.000541175
0.00210232
-0.297642
-0.129643
-0.0830123
-0.0316242
-0.0197678
-0.00826066
-0.00462925
-0.00108687
-0.000568608
0.00205518
-0.301829
-0.131699
-0.0840297
-0.0324253
-0.0200367
-0.00849788
-0.00474804
-0.00117035
-0.00060489
0.00199298
-0.306434
-0.134145
-0.0852253
-0.0334132
-0.0203651
-0.00878927
-0.00489458
-0.00127385
-0.00064966
0.00191636
-0.311329
-0.137049
-0.0866045
-0.0345831
-0.0207537
-0.00913207
-0.00506831
-0.00139636
-0.000703089
0.0018269
-0.317034
-0.141064
-0.08843
-0.0360358
-0.0212457
-0.00953969
-0.00527527
-0.00153825
-0.000766704
0.0017274
-0.321815
-0.146569
-0.0908799
-0.0379366
-0.0218916
-0.0100393
-0.00552464
-0.00170491
-0.000838922
0.00161529
-0.314013
-0.148946
-0.0919891
-0.0396422
-0.0223935
-0.0105331
-0.00577085
-0.00189709
-0.00089959
0.00146802
-0.247482
-0.140855
-0.0883519
-0.0429138
-0.0228874
-0.0118701
-0.00649026
-0.00263847
-0.00106583
0.000814213
-0.189382
-0.131844
-0.0823305
-0.0443838
-0.0246165
-0.0142597
-0.00833628
-0.00411806
-0.00182477
-2.77351e-05
-0.147953
-0.113983
-0.0728894
-0.0429564
-0.0260388
-0.0164579
-0.0102643
-0.00570262
-0.00275442
-0.000705666
-0.108345
-0.09308
-0.0634635
-0.0409872
-0.0270851
-0.0182449
-0.0119307
-0.00713025
-0.00363941
-0.00117359
-0.079093
-0.0758065
-0.0566613
-0.0397308
-0.0279061
-0.0195837
-0.0132357
-0.00827803
-0.00438172
-0.00146968
-0.0589897
-0.0629588
-0.0517011
-0.0387296
-0.0283147
-0.0204263
-0.0141567
-0.00912785
-0.00495656
-0.00166196
-0.045956
-0.0536973
-0.04784
-0.0377581
-0.0284006
-0.0209047
-0.0147763
-0.00973306
-0.0053831
-0.00179805
-0.0377063
-0.0472378
-0.0448787
-0.0369041
-0.0283544
-0.0211726
-0.0151816
-0.0101481
-0.0056847
-0.00189661
-0.0328815
-0.0431367
-0.0428716
-0.0363005
-0.0282975
-0.021318
-0.0154247
-0.0104063
-0.00587713
-0.00196107
-0.0306502
-0.0411349
-0.0418607
-0.0360033
-0.0282736
-0.0213823
-0.015537
-0.0105275
-0.00597135
-0.00199121
-0.218771
-0.246668
-0.272447
-0.296391
-0.318885
-0.340435
-0.36166
-0.383204
-0.40557
-0.429413
-0.0681218
-0.078264
-0.0874282
-0.0958577
-0.10386
-0.111814
-0.12018
-0.129496
-0.140341
-0.154507
-0.0453489
-0.0545304
-0.0633262
-0.0717097
-0.0796433
-0.0870821
-0.0939828
-0.100319
-0.106086
-0.111406
-0.018925
-0.0246448
-0.0301584
-0.0354845
-0.0406452
-0.0456636
-0.0505631
-0.0553654
-0.0600708
-0.0645584
-0.0132151
-0.017571
-0.0218023
-0.0259055
-0.0298769
-0.0337125
-0.0374087
-0.0409625
-0.0443546
-0.0475527
-0.00815959
-0.0113768
-0.0145347
-0.0176323
-0.0206689
-0.0236441
-0.0265574
-0.0294074
-0.0321825
-0.0348854
-0.00703457
-0.00957129
-0.0120717
-0.0145318
-0.016948
-0.0193173
-0.021637
-0.0239048
-0.0261146
-0.028279
-0.00623212
-0.00828974
-0.0103308
-0.0123513
-0.0143475
-0.0163159
-0.0182534
-0.0201572
-0.0220239
-0.0238599
-0.00614331
-0.00791764
-0.00968402
-0.011438
-0.0131752
-0.0148919
-0.0165846
-0.0182499
-0.0198861
-0.0214934
-0.00608664
-0.00771221
-0.00933516
-0.0109517
-0.0125584
-0.0141518
-0.0157288
-0.0172865
-0.0188238
-0.0203379
0.167827
0.12684
0.0814918
0.0384228
-0.00331551
-0.0441945
-0.0835976
-0.120942
-0.155961
-0.188567
0.11736
0.0914452
0.0646537
0.0418153
0.0216954
0.00302194
-0.0142881
-0.0300238
-0.0441586
-0.0568077
0.0732419
0.057544
0.0425913
0.0296795
0.0178285
0.00636216
-0.00479049
-0.0155415
-0.0258677
-0.0357957
0.0529877
0.0439149
0.0352862
0.027576
0.0203099
0.0132175
0.00630112
-0.000380612
-0.00680639
-0.0129833
0.0374524
0.0315012
0.0257611
0.0204707
0.0153806
0.0103597
0.00541478
0.000577271
-0.00414036
-0.00873767
0.0271921
0.0233033
0.0194582
0.0158206
0.0122782
0.00876302
0.00527642
0.00183516
-0.00155243
-0.00488434
0.0194907
0.0167624
0.0140073
0.0113309
0.00868503
0.00603684
0.00338811
0.000750015
-0.00186959
-0.00446587
0.0143113
0.0123164
0.0102713
0.00823841
0.00620113
0.00414586
0.00207497
-4.01607e-06
-0.00208474
-0.00416229
0.0109815
0.00938676
0.00774302
0.00607952
0.00439147
0.00267575
0.000936222
-0.000820944
-0.00259001
-0.00436579
0.00938586
0.00796544
0.00650171
0.00500889
0.00348638
0.00193524
0.000359784
-0.00123481
-0.00284371
-0.00446243
0.335245
0.334544
0.332995
0.33012
0.325136
0.316805
0.303355
0.282394
0.251286
0.206669
0.245348
0.244231
0.241596
0.237011
0.230141
0.220555
0.207684
0.190868
0.16936
0.142605
0.174518
0.173389
0.170722
0.166198
0.159707
0.151144
0.140317
0.127014
0.110825
0.0918388
0.12291
0.122024
0.119922
0.116359
0.11132
0.104828
0.0968786
0.0874804
0.0765557
0.0644395
0.0865771
0.0859326
0.0843937
0.0817807
0.0781007
0.0734064
0.0677317
0.0611149
0.0535363
0.0452046
0.0613992
0.0609358
0.0598272
0.0579451
0.0553026
0.051951
0.047932
0.0432894
0.0380409
0.0323328
0.0442489
0.0439103
0.0431002
0.041725
0.0397963
0.0373544
0.034433
0.0310649
0.0272694
0.0231308
0.0329641
0.0327074
0.0320929
0.0310498
0.0295876
0.0277377
0.0255268
0.02298
0.0201178
0.0169921
0.026129
0.0259205
0.0254218
0.0245755
0.0233888
0.021887
0.0200912
0.0180203
0.0156922
0.013138
0.0229089
0.0227224
0.0222772
0.0215222
0.0204635
0.0191232
0.0175199
0.01567
0.0135902
0.0113033
0.485219
0.486972
0.493305
0.504451
0.520303
0.541163
0.567497
0.599829
0.638697
0.684344
0.482978
0.484705
0.490958
0.501948
0.517551
0.538033
0.563803
0.595298
0.632917
0.676752
0.478547
0.480229
0.486329
0.497016
0.512133
0.531875
0.556534
0.586375
0.621526
0.661775
0.472027
0.473654
0.479544
0.489799
0.504216
0.522882
0.545919
0.573337
0.604844
0.639821
0.463557
0.465133
0.470774
0.480494
0.494025
0.511321
0.532281
0.55657
0.583337
0.611477
0.453304
0.454853
0.460227
0.469327
0.481819
0.497492
0.515979
0.536525
0.557576
0.577477
0.441465
0.443053
0.448181
0.456619
0.467959
0.481805
0.497483
0.51374
0.528238
0.538689
0.428246
0.430061
0.435076
0.442926
0.453141
0.465109
0.477779
0.489259
0.496323
0.495907
0.413716
0.416008
0.421102
0.428488
0.437683
0.447856
0.457506
0.463917
0.462706
0.448627
0.397514
0.39995
0.404617
0.410874
0.418253
0.425804
0.431751
0.432875
0.424409
0.396706
0.397516
0.399952
0.404619
0.410876
0.418255
0.425806
0.431753
0.432877
0.424411
0.396708
0.413718
0.41601
0.421104
0.42849
0.437685
0.447858
0.457508
0.463919
0.462708
0.448629
0.428247
0.430063
0.435078
0.442927
0.453142
0.465111
0.47778
0.489261
0.496325
0.495909
0.441466
0.443055
0.448182
0.456621
0.467961
0.481806
0.497484
0.513741
0.52824
0.53869
0.453305
0.454854
0.460228
0.469329
0.48182
0.497493
0.51598
0.536526
0.557578
0.577478
0.463558
0.465134
0.470775
0.480495
0.494026
0.511322
0.532282
0.556571
0.583338
0.611477
0.472028
0.473655
0.479545
0.4898
0.504217
0.522883
0.54592
0.573337
0.604845
0.639822
0.478548
0.48023
0.48633
0.497017
0.512134
0.531875
0.556534
0.586376
0.621526
0.661776
0.482978
0.484705
0.490958
0.501949
0.517551
0.538034
0.563803
0.595298
0.632918
0.676752
0.485219
0.486972
0.493305
0.504451
0.520303
0.541163
0.567497
0.599829
0.638697
0.684344
0.0229121
0.0227256
0.0222804
0.0215254
0.0204667
0.0191264
0.0175231
0.0156732
0.0135934
0.0113065
0.0261321
0.0259236
0.025425
0.0245786
0.023392
0.0218902
0.0200944
0.0180235
0.0156953
0.0131412
0.0329673
0.0327105
0.032096
0.031053
0.0295908
0.0277408
0.0255299
0.0229832
0.020121
0.0169952
0.0442519
0.0439134
0.0431033
0.0417281
0.0397994
0.0373575
0.0344361
0.031068
0.0272725
0.0231338
0.0614022
0.0609388
0.0598303
0.0579481
0.0553057
0.0519541
0.047935
0.0432924
0.0380439
0.0323358
0.0865801
0.0859356
0.0843967
0.0817836
0.0781037
0.0734093
0.0677347
0.0611179
0.0535393
0.0452076
0.122913
0.122027
0.119924
0.116362
0.111322
0.104831
0.0968816
0.0874834
0.0765587
0.0644425
0.174521
0.173392
0.170725
0.1662
0.15971
0.151147
0.14032
0.127017
0.110828
0.0918418
0.24535
0.244234
0.241598
0.237014
0.230143
0.220558
0.207686
0.190871
0.169363
0.142608
0.335247
0.334547
0.332997
0.330123
0.325139
0.316807
0.303358
0.282397
0.251289
0.206672
0.00938906
0.00796858
0.00650477
0.00501187
0.00348928
0.00193805
0.000362503
-0.00123219
-0.00284119
-0.00446
0.0109847
0.00938988
0.00774607
0.00608249
0.00439435
0.00267854
0.00093893
-0.00081833
-0.00258749
-0.00436337
0.0143144
0.0123195
0.0102743
0.00824134
0.00620399
0.00414864
0.00207768
-1.39217e-06
-0.0020822
-0.00415983
0.0194937
0.0167654
0.0140103
0.0113338
0.00868785
0.00603959
0.0033908
0.000752627
-0.00186705
-0.00446341
0.0271951
0.0233063
0.0194611
0.0158235
0.012281
0.00876575
0.00527909
0.00183776
-0.0015499
-0.00488187
0.0374554
0.0315041
0.0257641
0.0204736
0.0153834
0.0103624
0.00541748
0.000579911
-0.00413778
-0.00873517
0.0529907
0.0439179
0.0352891
0.0275789
0.0203127
0.0132203
0.00630387
-0.000377915
-0.00680375
-0.0129808
0.0732449
0.0575471
0.0425943
0.0296825
0.0178315
0.00636506
-0.00478763
-0.0155387
-0.0258649
-0.0357929
0.117363
0.0914482
0.0646567
0.0418183
0.0216984
0.00302495
-0.0142851
-0.0300208
-0.0441556
-0.0568047
0.16783
0.126843
0.0814948
0.0384259
-0.00331235
-0.0441912
-0.0835943
-0.120939
-0.155957
-0.188564
-0.00608434
-0.00771003
-0.0093331
-0.0109498
-0.0125566
-0.0141501
-0.0157272
-0.0172852
-0.0188226
-0.0203368
-0.00614099
-0.00791543
-0.00968194
-0.011436
-0.0131734
-0.0148903
-0.0165831
-0.0182486
-0.0198848
-0.0214923
-0.00622976
-0.00828751
-0.0103287
-0.0123494
-0.0143457
-0.0163142
-0.0182519
-0.0201558
-0.0220226
-0.0238588
-0.00703221
-0.00956905
-0.0120696
-0.0145298
-0.0169462
-0.0193155
-0.0216354
-0.0239033
-0.0261133
-0.0282778
-0.00815721
-0.0113745
-0.0145325
-0.0176302
-0.0206669
-0.0236422
-0.0265556
-0.0294058
-0.032181
-0.0348841
-0.0132127
-0.0175686
-0.0218
-0.0259033
-0.0298748
-0.0337105
-0.0374068
-0.0409608
-0.044353
-0.0475512
-0.0189225
-0.0246424
-0.030156
-0.0354823
-0.040643
-0.0456615
-0.050561
-0.0553635
-0.060069
-0.0645567
-0.0453462
-0.0545278
-0.0633236
-0.0717072
-0.0796409
-0.0870798
-0.0939806
-0.100316
-0.106084
-0.111404
-0.0681188
-0.078261
-0.0874252
-0.0958547
-0.103857
-0.111811
-0.120177
-0.129493
-0.140338
-0.154505
-0.218768
-0.246665
-0.272444
-0.296387
-0.318881
-0.340431
-0.361656
-0.3832
-0.405566
-0.429409
-0.0306493
-0.0411342
-0.0418602
-0.0360026
-0.0282721
-0.0213802
-0.0155353
-0.0105267
-0.00597098
-0.00199148
-0.0328807
-0.043136
-0.0428711
-0.0362999
-0.028296
-0.0213159
-0.0154229
-0.0104053
-0.00587681
-0.00196142
-0.0377054
-0.0472372
-0.0448783
-0.0369037
-0.0283529
-0.0211703
-0.0151796
-0.0101471
-0.00568452
-0.00189714
-0.045955
-0.0536967
-0.04784
-0.0377579
-0.0283989
-0.020902
-0.0147739
-0.00973197
-0.00538321
-0.00179886
-0.0589887
-0.0629583
-0.0517016
-0.0387299
-0.0283125
-0.0204228
-0.0141538
-0.00912664
-0.00495726
-0.00166325
-0.079092
-0.0758061
-0.0566625
-0.0397317
-0.0279033
-0.0195793
-0.0132318
-0.00827668
-0.00438352
-0.00147172
-0.108344
-0.0930799
-0.0634661
-0.040989
-0.0270811
-0.018239
-0.0119254
-0.00712872
-0.00364305
-0.00117677
-0.147952
-0.113984
-0.0728943
-0.0429597
-0.0260331
-0.0164497
-0.0102567
-0.00570065
-0.0027605
-0.000710335
-0.189379
-0.131845
-0.082339
-0.0443899
-0.0246097
-0.014249
-0.00832592
-0.00411505
-0.00183295
-3.38647e-05
-0.247477
-0.140855
-0.0883627
-0.0429224
-0.0228814
-0.0118589
-0.00647823
-0.0026343
-0.0010742
0.000807686
-0.314008
-0.148946
-0.0919988
-0.0396497
-0.0223888
-0.0105245
-0.00576078
-0.00189364
-0.000906427
0.00146291
-0.321811
-0.146569
-0.0908893
-0.0379437
-0.0218872
-0.0100313
-0.00551523
-0.00170173
-0.000845275
0.00161061
-0.31703
-0.141065
-0.088439
-0.0360423
-0.0212415
-0.00953231
-0.00526662
-0.0015354
-0.000772518
0.00172317
-0.311325
-0.137049
-0.0866129
-0.0345891
-0.0207499
-0.00912536
-0.00506052
-0.00139386
-0.000708308
0.00182314
-0.306431
-0.134145
-0.0852329
-0.0334185
-0.0203618
-0.00878336
-0.00488774
-0.00127167
-0.000654196
0.00191312
-0.301826
-0.131699
-0.0840363
-0.0324299
-0.0200339
-0.00849286
-0.00474226
-0.00116854
-0.000608702
0.00199028
-0.29764
-0.129643
-0.0830177
-0.0316279
-0.0197655
-0.00825664
-0.00462463
-0.00108545
-0.000571639
0.00205306
-0.294228
-0.128053
-0.0822267
-0.0310262
-0.0195626
-0.00807831
-0.00453611
-0.00102296
-0.00054338
0.00210079
-0.291837
-0.126971
-0.0816896
-0.0306267
-0.0194271
-0.00795924
-0.00447719
-0.000981268
-0.000524257
0.002133
-0.290607
-0.126424
-0.0814179
-0.0304273
-0.0193594
-0.00789993
-0.00444807
-0.000960498
-0.000514403
0.00214937
)
;

boundaryField
{
    inlet
    {
        type            zeroGradient;
    }
    outlet
    {
        type            fixedValue;
        value           uniform 0;
    }
    cylinder
    {
        type            zeroGradient;
    }
    top
    {
        type            symmetryPlane;
    }
    bottom
    {
        type            symmetryPlane;
    }
    defaultFaces
    {
        type            empty;
    }
}


// ************************************************************************* //
