/*--------------------------------*- C++ -*----------------------------------*\
  =========                 |
  \\      /  F ield         | OpenFOAM: The Open Source CFD Toolbox
   \\    /   O peration     | Website:  https://openfoam.org
    \\  /    A nd           | Version:  6.0
     \\/     M anipulation  |
\*---------------------------------------------------------------------------*/
FoamFile
{
    version     2.0;
    format      ascii;
    class       surfaceScalarField;
    location    "30";
    object      phi;
}
// * * * * * * * * * * * * * * * * * * * * * * * * * * * * * * * * * * * * * //

dimensions      [0 3 -1 0 0 0 0];

internalField   nonuniform List<scalar> 
3880
(
-1.79768e-05
1.79782e-05
-1.38965e-09
-5.34953e-05
3.5521e-05
-2.4482e-09
-9.53876e-05
4.18947e-05
-2.47134e-09
-0.000136588
4.12024e-05
-1.85111e-09
-0.000172736
3.6149e-05
-8.53025e-10
-0.00020142
2.86839e-05
3.54912e-10
-0.000221708
2.02856e-05
1.65768e-09
-0.000233836
1.2125e-05
2.97522e-09
-0.000239012
5.1715e-06
4.28594e-09
1.99594e-07
5.48349e-09
-0.000239217
-1.7298e-05
3.52762e-05
-5.08461e-05
6.90691e-05
-8.96149e-05
8.06635e-05
-0.000126651
7.8239e-05
-0.000157636
6.71336e-05
-0.000180124
5.11718e-05
-0.000193095
3.32567e-05
-0.000196687
1.57174e-05
-0.000192053
5.36802e-07
-1.0647e-05
-0.000181206
-1.59053e-05
5.11814e-05
-4.54314e-05
9.85952e-05
-7.78663e-05
0.000113098
-0.000106526
0.000106899
-0.000127218
8.7825e-05
-0.000137464
6.14183e-05
-0.000136089
3.18812e-05
-0.000123022
2.65054e-06
-9.92784e-05
-2.32066e-05
-4.29994e-05
-6.6926e-05
-1.37113e-05
6.48928e-05
-3.69692e-05
0.000121853
-5.96332e-05
0.000135762
-7.55273e-05
0.000122793
-8.07582e-05
9.30558e-05
-7.29047e-05
5.35648e-05
-5.0616e-05
9.59245e-06
-1.35069e-05
-3.44585e-05
3.76766e-05
-7.439e-05
-0.000106167
0.000100844
-1.05528e-05
7.54456e-05
-2.4942e-05
0.000136242
-3.39462e-05
0.000144766
-3.22369e-05
0.000121084
-1.6528e-05
7.7347e-05
1.53069e-05
2.17299e-05
6.46782e-05
-3.97788e-05
0.000132348
-0.000102129
0.000218038
-0.00016008
-0.000207881
0.000319752
-6.17865e-06
8.16243e-05
-8.56144e-06
0.000138625
7.31433e-07
0.000135474
2.57652e-05
9.60501e-05
6.87666e-05
3.43456e-05
0.0001311
-4.06031e-05
0.000213848
-0.000122528
0.000318022
-0.000206302
0.000444042
-0.0002861
-0.000354018
0.00059018
-2.77011e-07
8.19013e-05
1.31478e-05
0.0001252
4.63916e-05
0.00010223
0.000101869
4.0573e-05
0.000180226
-4.40121e-05
0.000281351
-0.000141728
0.000405158
-0.000246334
0.000552202
-0.000353347
0.000723568
-0.000457466
-0.000548806
0.000918355
7.43569e-06
7.44656e-05
4.1068e-05
9.1568e-05
0.000104959
3.83387e-05
0.000199703
-5.41706e-05
0.000324006
-0.000168315
0.000475495
-0.000293217
0.000651555
-0.000422394
0.000850479
-0.000552271
0.00107274
-0.000679722
-0.000797762
0.00132169
1.70674e-05
5.73982e-05
7.55129e-05
3.31225e-05
0.000177325
-6.34734e-05
0.000321589
-0.000198435
0.000505357
-0.000352083
0.000723863
-0.000511723
0.000970832
-0.000669362
0.00123945
-0.000820889
0.00152596
-0.000966228
-0.00111608
0.00184427
2.83523e-05
2.90459e-05
0.000115568
-5.40927e-05
0.000261849
-0.000209755
0.000465796
-0.000402381
0.000724616
-0.000610903
0.00103384
-0.00082095
0.00138668
-0.0010222
0.00177234
-0.00120654
0.00217511
-0.001369
-0.00151354
0.00257257
4.04767e-05
-1.14308e-05
0.000158381
-0.000171997
0.0003521
-0.000403475
0.000620372
-0.000670652
0.000962576
-0.000953107
0.00137941
-0.00123778
0.00187412
-0.00151691
0.0024558
-0.00178823
0.0031474
-0.00206059
-0.00237236
0.00400622
5.23609e-05
-6.37917e-05
0.00019996
-0.000319596
0.000438016
-0.000641532
0.000763018
-0.000995654
0.00117228
-0.00136237
0.00166395
-0.00172945
0.00223694
-0.00208991
0.00289041
-0.0024417
0.00361885
-0.00278903
-0.00314095
0.00438743
6.34864e-05
-0.000127278
0.000238256
-0.000494365
0.000514873
-0.000918149
0.000885327
-0.00136611
0.00134186
-0.0018189
0.00187633
-0.00226392
0.00247954
-0.00269312
0.0031397
-0.00310186
0.00383825
-0.00348758
-0.00384414
0.00454144
7.38729e-05
-0.000201151
0.000272993
-0.000693485
0.00058213
-0.00122729
0.000987499
-0.00177148
0.00147523
-0.00230663
0.00203071
-0.0028194
0.00263816
-0.00330057
0.00327987
-0.00374357
0.00393458
-0.00414228
-0.0044855
0.00457594
8.36641e-05
-0.000284815
0.000304317
-0.000914138
0.000640055
-0.00156302
0.0010707
-0.00220212
0.00157623
-0.00281216
0.00213647
-0.00337964
0.00273121
-0.00389531
0.00334035
-0.00435271
0.00394378
-0.00474571
-0.00506338
0.00452166
9.28495e-05
-0.000377665
0.00033197
-0.00115326
0.000688078
-0.00191913
0.00113438
-0.00264842
0.00164514
-0.00332292
0.00219582
-0.00393032
0.00276371
-0.0044632
0.00332853
-0.00491753
0.00387282
-0.00529
-0.00557334
0.00438278
0.000101186
-0.00047885
0.000355069
-0.00140714
0.000724488
-0.00228855
0.00117614
-0.00310008
0.00167935
-0.00382614
0.00220662
-0.00445758
0.00273442
-0.00499101
0.00324395
-0.00542705
0.00372137
-0.00576743
-0.00601052
0.00415855
0.000108242
-0.000587092
0.000372271
-0.00167117
0.000746864
-0.00266314
0.0011927
-0.00354591
0.00167528
-0.00430872
0.00216568
-0.00494797
0.00264123
-0.00546656
0.00308586
-0.00587169
0.00349002
-0.00617158
-0.00637132
0.00385082
0.000113496
-0.000700589
0.000382061
-0.00193974
0.000752694
-0.00303378
0.00118098
-0.0039742
0.00163006
-0.00475781
0.00207121
-0.00538913
0.00248411
-0.00587946
0.00285644
-0.00624402
0.00318311
-0.00649825
-0.00665411
0.0034659
0.000116416
-0.000817005
0.000383025
-0.00220634
0.000739891
-0.00339064
0.0011389
-0.0043732
0.00154252
-0.00516142
0.00192387
-0.00577048
0.00226616
-0.00622174
0.00256138
-0.00653924
0.00280882
-0.00674569
-0.00685934
0.00301405
0.000116537
-0.000933541
0.000374059
-0.00246387
0.00070714
-0.00372372
0.00106575
-0.00473182
0.00141353
-0.00550919
0.00172686
-0.00608382
0.00199331
-0.00648819
0.00220932
-0.00675525
0.00237806
-0.00691443
-0.0069892
0.00250793
0.000113457
-0.001047
0.000354395
-0.00270481
0.000653929
-0.00402326
0.000962204
-0.00504009
0.00124576
-0.00579275
0.00148542
-0.00632348
0.00167348
-0.00667624
0.00181055
-0.00689232
0.00190297
-0.00700686
-0.0070472
0.00196097
0.000106916
-0.00115391
0.000323752
-0.00292164
0.000580676
-0.00428018
0.000830217
-0.00528963
0.0010434
-0.00600593
0.00120622
-0.0064863
0.00131566
-0.00678568
0.00137595
-0.00695261
0.00139573
-0.00702664
-0.00703764
0.00138617
9.67693e-05
-0.00125068
0.00028225
-0.00310712
0.000488533
-0.00448646
0.000672695
-0.0054738
0.000811512
-0.00614475
0.000896491
-0.00657128
0.000928944
-0.00681813
0.00091593
-0.0069396
0.000867508
-0.00697822
-0.00696519
0.000795067
8.29971e-05
-0.00133368
0.000230406
-0.00325453
0.000379263
-0.00463532
0.000493161
-0.00558769
0.00055552
-0.00620711
0.000563361
-0.00657912
0.000521737
-0.00677651
0.000439656
-0.00685752
0.000327768
-0.00686633
-0.00683462
0.00019719
6.57174e-05
-0.0013994
0.000169106
-0.00335792
0.000255123
-0.00472134
0.000295504
-0.00562807
0.000280817
-0.00619242
0.000213342
-0.00651165
0.000101203
-0.00666437
-4.54789e-05
-0.00671084
-0.000216211
-0.0066956
-0.00665047
-0.000400357
4.52004e-05
-0.0014446
9.96088e-05
-0.00341233
0.000118819
-0.00474055
8.38746e-05
-0.00559313
-7.39006e-06
-0.00610116
-0.000147863
-0.00637118
-0.000326968
-0.00648526
-0.000534131
-0.00650367
-0.000759631
-0.0064701
-0.00641655
-0.00099355
2.18961e-05
-0.00146649
2.35864e-05
-0.00341402
-2.64605e-05
-0.0046905
-0.000137262
-0.00548233
-0.000303987
-0.00593443
-0.000515239
-0.00615992
-0.000758449
-0.00624206
-0.00102298
-0.00623914
-0.0013004
-0.00619268
-0.00613333
-0.00158362
-3.52526e-06
-0.00146297
-5.68043e-05
-0.00336074
-0.000176928
-0.00457038
-0.000362975
-0.00529628
-0.000603868
-0.00569354
-0.000884716
-0.00587907
-0.00119129
-0.00593548
-0.00151276
-0.00591768
-0.00184207
-0.00586336
-0.00579384
-0.00218156
-3.0109e-05
-0.00143286
-0.000138742
-0.00325211
-0.000327735
-0.00438139
-0.00058689
-0.00503713
-0.000900387
-0.00538004
-0.00125162
-0.00552784
-0.00162606
-0.00556104
-0.00201329
-0.00553044
-0.00240936
-0.00546729
-0.00540648
-0.00279672
-5.66216e-05
-0.00137624
-0.000218709
-0.00309002
-0.000472473
-0.00412762
-0.000799091
-0.00471051
-0.00117944
-0.0049997
-0.0015976
-0.00510968
-0.00204227
-0.00511637
-0.00250619
-0.00506652
-0.00298845
-0.00498503
-0.00486994
-0.00352499
-8.19873e-05
-0.00129425
-0.000293659
-0.00287835
-0.000605391
-0.00381589
-0.000989459
-0.00432644
-0.00142232
-0.00456683
-0.00188593
-0.00464607
-0.00236729
-0.00463501
-0.00285741
-0.0045764
-0.00335013
-0.00449231
-0.00439084
-0.00382923
-0.000105568
-0.00118868
-0.000362213
-0.0026217
-0.000725128
-0.00345298
-0.00115831
-0.00389326
-0.00163424
-0.0040909
-0.0021332
-0.00414711
-0.00264176
-0.00412646
-0.00315091
-0.00406724
-0.00365348
-0.00398975
-0.00390446
-0.00413986
-0.00012702
-0.00106166
-0.000423782
-0.00232494
-0.000831576
-0.00304518
-0.00130722
-0.00341762
-0.00182016
-0.00357796
-0.00234995
-0.00361732
-0.00288352
-0.00359289
-0.0034127
-0.00353806
-0.00393192
-0.00347053
-0.00339977
-0.00443662
-0.000146082
-0.00091558
-0.000477933
-0.00199309
-0.000924555
-0.00259856
-0.00143676
-0.00290541
-0.00198181
-0.00303291
-0.00253908
-0.00306005
-0.00309628
-0.00303569
-0.0036464
-0.00298794
-0.00418548
-0.00293145
-0.00287403
-0.00471122
-0.000162505
-0.000753075
-0.000524208
-0.00163139
-0.00100363
-0.00211914
-0.00154671
-0.00236233
-0.00211915
-0.00246048
-0.00270044
-0.00247876
-0.00327913
-0.002457
-0.00384932
-0.00241775
-0.00440817
-0.00237259
-0.00232762
-0.00495458
-0.000176039
-0.000577036
-0.000562096
-0.00124533
-0.00106815
-0.00161308
-0.00163633
-0.00179414
-0.00223123
-0.00186558
-0.00283258
-0.00187741
-0.00342969
-0.00185989
-0.00401748
-0.00182996
-0.00459392
-0.00179616
-0.00176296
-0.00515858
-0.000186444
-0.000390592
-0.000591079
-0.000840693
-0.00111738
-0.00108678
-0.00170468
-0.00120685
-0.00231679
-0.00125347
-0.00293371
-0.00126049
-0.00354532
-0.00124828
-0.00414715
-0.00122812
-0.00473768
-0.00120563
-0.00118375
-0.0053169
-0.000193509
-0.000197083
-0.000610693
-0.00042351
-0.00115064
-0.000546823
-0.00175082
-0.000606673
-0.00237461
-0.00062968
-0.00300216
-0.000632942
-0.00362375
-0.000626685
-0.00423533
-0.000616548
-0.00483564
-0.000605317
-0.000594448
-0.00542494
-0.000197082
-6.37885e-10
-0.000620591
-1.16539e-09
-0.00116741
-1.30667e-09
-0.00177408
-1.26712e-09
-0.00240376
-1.1699e-09
-0.0030367
-1.07713e-09
-0.00366339
-1.0132e-09
-0.00427994
-9.86047e-10
-0.00488525
-9.83344e-10
-9.74971e-10
-0.0054797
-0.000197082
0.000197082
-0.000620591
0.000423507
-0.00116741
0.000546821
-0.00177409
0.000606671
-0.00240376
0.000629678
-0.00303671
0.00063294
-0.00366339
0.000626683
-0.00427994
0.000616546
-0.00488525
0.000605315
0.000594446
-0.0054797
-0.000193509
0.000390591
-0.000610693
0.00084069
-0.00115064
0.00108677
-0.00175082
0.00120685
-0.00237461
0.00125346
-0.00300216
0.00126049
-0.00362375
0.00124828
-0.00423533
0.00122812
-0.00483564
0.00120563
0.00118374
-0.00542494
-0.000186444
0.000577035
-0.000591079
0.00124533
-0.00111738
0.00161308
-0.00170468
0.00179414
-0.00231679
0.00186558
-0.00293371
0.00187741
-0.00354532
0.00185989
-0.00414716
0.00182996
-0.00473768
0.00179615
0.00176296
-0.0053169
-0.000176039
0.000753074
-0.000562096
0.00163138
-0.00106815
0.00211913
-0.00163634
0.00236232
-0.00223123
0.00246048
-0.00283258
0.00247876
-0.00342969
0.00245699
-0.00401748
0.00241775
-0.00459392
0.00237259
0.00232762
-0.00515858
-0.000162505
0.000915579
-0.000524208
0.00199309
-0.00100363
0.00259856
-0.00154671
0.00290541
-0.00211915
0.00303291
-0.00270044
0.00306005
-0.00327913
0.00303569
-0.00384932
0.00298793
-0.00440817
0.00293145
0.00287403
-0.00495458
-0.000146082
0.00106166
-0.000477933
0.00232494
-0.000924556
0.00304518
-0.00143676
0.00341761
-0.00198181
0.00357796
-0.00253908
0.00361732
-0.00309628
0.00359289
-0.0036464
0.00353806
-0.00418548
0.00347053
0.00339976
-0.00471122
-0.000127021
0.00118868
-0.000423783
0.0026217
-0.000831577
0.00345297
-0.00130722
0.00389326
-0.00182016
0.0040909
-0.00234996
0.00414711
-0.00288352
0.00412645
-0.00341271
0.00406724
-0.00393193
0.00398975
0.00390446
-0.00443662
-0.000105568
0.00129425
-0.000362214
0.00287834
-0.000725128
0.00381589
-0.00115831
0.00432644
-0.00163424
0.00456683
-0.0021332
0.00464607
-0.00264176
0.00463501
-0.00315091
0.0045764
-0.00365348
0.00449231
0.00439084
-0.00413986
-8.19874e-05
0.00137624
-0.00029366
0.00309002
-0.000605391
0.00412762
-0.00098946
0.00471051
-0.00142232
0.0049997
-0.00188593
0.00510968
-0.00236729
0.00511637
-0.00285742
0.00506652
-0.00335013
0.00498503
0.00486994
-0.00382923
-5.66217e-05
0.00143286
-0.000218709
0.0032521
-0.000472474
0.00438138
-0.000799092
0.00503712
-0.00117944
0.00538004
-0.0015976
0.00552784
-0.00204227
0.00556104
-0.00250619
0.00553044
-0.00298846
0.00546729
0.00540648
-0.00352499
-3.01091e-05
0.00146297
-0.000138743
0.00336074
-0.000327735
0.00457038
-0.00058689
0.00529628
-0.000900387
0.00569354
-0.00125162
0.00587907
-0.00162606
0.00593548
-0.00201329
0.00591768
-0.00240936
0.00586336
0.00579384
-0.00279672
-3.52532e-06
0.00146649
-5.68045e-05
0.00341402
-0.000176928
0.0046905
-0.000362975
0.00548233
-0.000603869
0.00593443
-0.000884717
0.00615992
-0.00119129
0.00624205
-0.00151276
0.00623914
-0.00184207
0.00619268
0.00613333
-0.00218157
2.18961e-05
0.0014446
2.35863e-05
0.00341233
-2.64606e-05
0.00474055
-0.000137262
0.00559313
-0.000303987
0.00610116
-0.000515239
0.00637117
-0.000758449
0.00648526
-0.00102298
0.00650367
-0.0013004
0.0064701
0.00641655
-0.00158362
4.52004e-05
0.0013994
9.96088e-05
0.00335792
0.000118819
0.00472134
8.38746e-05
0.00562807
-7.39013e-06
0.00619242
-0.000147863
0.00651165
-0.000326968
0.00666437
-0.000534132
0.00671084
-0.000759631
0.0066956
0.00665047
-0.000993551
6.57174e-05
0.00133368
0.000169106
0.00325453
0.000255123
0.00463532
0.000295504
0.00558769
0.000280817
0.00620711
0.000213343
0.00657912
0.000101203
0.00677651
-4.54788e-05
0.00685752
-0.000216211
0.00686633
0.00683462
-0.000400357
8.29972e-05
0.00125068
0.000230407
0.00310712
0.000379264
0.00448646
0.000493162
0.00547379
0.000555521
0.00614475
0.000563362
0.00657128
0.000521738
0.00681813
0.000439657
0.0069396
0.000327769
0.00697822
0.00696519
0.000197191
9.67694e-05
0.00115391
0.000282251
0.00292164
0.000488533
0.00428018
0.000672696
0.00528963
0.000811513
0.00600593
0.000896492
0.0064863
0.000928945
0.00678568
0.000915931
0.00695261
0.000867509
0.00702664
0.00703763
0.000795068
0.000106916
0.001047
0.000323752
0.0027048
0.000580677
0.00402325
0.000830218
0.00504009
0.0010434
0.00579275
0.00120622
0.00632348
0.00131566
0.00667624
0.00137595
0.00689232
0.00139574
0.00700686
0.0070472
0.00138617
0.000113457
0.00093354
0.000354396
0.00246386
0.00065393
0.00372372
0.000962205
0.00473182
0.00124576
0.00550919
0.00148543
0.00608381
0.00167348
0.00648819
0.00181055
0.00675525
0.00190298
0.00691443
0.0069892
0.00196097
0.000116537
0.000817003
0.000374059
0.00220634
0.000707141
0.00339064
0.00106576
0.0043732
0.00141353
0.00516142
0.00172687
0.00577048
0.00199331
0.00622174
0.00220932
0.00653923
0.00237807
0.00674569
0.00685934
0.00250793
0.000116416
0.000700587
0.000383026
0.00193973
0.000739892
0.00303377
0.0011389
0.00397419
0.00154252
0.0047578
0.00192387
0.00538912
0.00226616
0.00587945
0.00256138
0.00624401
0.00280882
0.00649825
0.00665411
0.00301405
0.000113496
0.000587091
0.000382061
0.00167117
0.000752695
0.00266314
0.00118098
0.00354591
0.00163006
0.00430872
0.00207122
0.00494797
0.00248412
0.00546656
0.00285644
0.00587169
0.00318311
0.00617158
0.00637131
0.00346591
0.000108242
0.000478849
0.000372271
0.00140714
0.000746865
0.00228854
0.0011927
0.00310007
0.00167529
0.00382613
0.00216568
0.00445757
0.00264123
0.00499101
0.00308587
0.00542705
0.00349002
0.00576742
0.00601051
0.00385083
0.000101185
0.000377663
0.000355069
0.00115326
0.000724488
0.00191913
0.00117614
0.00264842
0.00167936
0.00332292
0.00220662
0.00393031
0.00273443
0.0044632
0.00324395
0.00491752
0.00372138
0.00529
0.00557333
0.00415856
9.28494e-05
0.000284814
0.00033197
0.000914135
0.000688078
0.00156302
0.00113438
0.00220212
0.00164514
0.00281215
0.00219583
0.00337963
0.00276372
0.00389531
0.00332853
0.00435271
0.00387283
0.0047457
0.00506338
0.00438278
8.3664e-05
0.00020115
0.000304317
0.000693482
0.000640055
0.00122728
0.0010707
0.00177147
0.00157623
0.00230662
0.00213647
0.00281939
0.00273121
0.00330056
0.00334036
0.00374356
0.00394378
0.00414227
0.00448549
0.00452167
7.38728e-05
0.000127277
0.000272993
0.000494362
0.000582129
0.000918144
0.000987498
0.0013661
0.00147523
0.00181889
0.00203071
0.00226391
0.00263817
0.00269311
0.00327987
0.00310185
0.00393458
0.00348757
0.00384413
0.00457594
6.34862e-05
6.37909e-05
0.000238255
0.000319593
0.000514872
0.000641527
0.000885326
0.000995648
0.00134185
0.00136237
0.00187632
0.00172944
0.00247954
0.0020899
0.00313971
0.00244169
0.00383826
0.00278902
0.00314094
0.00454145
5.23606e-05
1.14302e-05
0.000199959
0.000171995
0.000438015
0.000403471
0.000763016
0.000670647
0.00117228
0.0009531
0.00166395
0.00123777
0.00223694
0.0015169
0.00289041
0.00178822
0.00361885
0.00206058
0.00237235
0.00438744
4.04763e-05
-2.90461e-05
0.00015838
5.40916e-05
0.000352098
0.000209753
0.000620368
0.000402377
0.000962572
0.000610897
0.0013794
0.000820942
0.00187411
0.00102219
0.0024558
0.00120653
0.0031474
0.00136898
0.00151353
0.00400621
2.83519e-05
-5.73979e-05
0.000115566
-3.31228e-05
0.000261847
6.34719e-05
0.000465792
0.000198432
0.000724611
0.000352078
0.00103384
0.000511715
0.00138668
0.000669353
0.00177233
0.000820877
0.0021751
0.000966214
0.00111606
0.00257257
1.70669e-05
-7.44649e-05
7.55115e-05
-9.15674e-05
0.000177322
-3.8339e-05
0.000321586
5.41686e-05
0.000505352
0.000168311
0.000723856
0.000293211
0.000970824
0.000422385
0.00123944
0.00055226
0.00152595
0.000679709
0.000797746
0.00184426
7.43523e-06
-8.19001e-05
4.10666e-05
-0.000125199
0.000104956
-0.000102229
0.000199699
-4.05736e-05
0.000324001
4.40095e-05
0.000475488
0.000141723
0.000651547
0.000246327
0.00085047
0.000353337
0.00107273
0.000457453
0.000548791
0.00132168
-2.77446e-07
-8.16227e-05
1.31464e-05
-0.000138623
4.63891e-05
-0.000135472
0.000101865
-9.60495e-05
0.000180222
-3.4347e-05
0.000281345
4.05993e-05
0.00040515
0.000122521
0.000552194
0.000206293
0.000723559
0.000286089
0.000354004
0.000918345
-6.17903e-06
-7.54437e-05
-8.56262e-06
-0.000136239
7.29293e-07
-0.000144764
2.5762e-05
-0.000121082
6.87624e-05
-7.73474e-05
0.000131094
-2.17327e-05
0.000213842
3.97734e-05
0.000318015
0.000102121
0.000444034
0.000160069
0.000207867
0.000590171
-1.05532e-05
-6.48905e-05
-2.4943e-05
-0.000121849
-3.39479e-05
-0.000135759
-3.22395e-05
-0.000122791
-1.65314e-05
-9.30555e-05
1.53027e-05
-5.35668e-05
6.46732e-05
-9.59704e-06
0.000132343
3.44513e-05
0.000218031
7.43801e-05
0.000106155
0.000319744
-1.37116e-05
-5.1179e-05
-3.697e-05
-9.85909e-05
-5.96345e-05
-0.000113094
-7.55293e-05
-0.000106896
-8.07607e-05
-8.7824e-05
-7.29079e-05
-6.14197e-05
-5.06197e-05
-3.18852e-05
-1.35112e-05
-2.65722e-06
3.76717e-05
2.31972e-05
4.29876e-05
0.000100839
-1.59055e-05
-3.52735e-05
-4.54319e-05
-6.90644e-05
-7.78672e-05
-8.06588e-05
-0.000106528
-7.82356e-05
-0.000127219
-6.71323e-05
-0.000137466
-5.11728e-05
-0.000136091
-3.32603e-05
-0.000123025
-1.57236e-05
-9.92819e-05
-5.45714e-07
1.06356e-05
-6.69299e-05
-1.72981e-05
-1.79754e-05
-5.08464e-05
-3.55161e-05
-8.96154e-05
-4.18899e-05
-0.000126652
-4.11988e-05
-0.000157637
-3.61473e-05
-0.000180125
-2.86846e-05
-0.000193097
-2.0289e-05
-0.000196689
-1.21311e-05
-0.000192055
-5.18015e-06
-2.1066e-07
-0.000181208
-1.79768e-05
-5.34954e-05
-9.53877e-05
-0.000136588
-0.000172737
-0.000201421
-0.000221708
-0.000233836
-0.000239012
-0.000239217
0.000184357
-0.000423887
3.13458e-07
0.00132186
-0.00113851
1.00431e-06
0.00248673
-0.00116516
2.90913e-07
0.00323403
-0.000745148
-2.14916e-06
0.00385423
-0.000617983
-2.21527e-06
0.00428338
-0.000428589
-5.68744e-07
0.00462798
-0.000345693
1.09876e-06
0.00486107
-0.000237151
4.05589e-06
0.00507149
-0.00021295
2.53404e-06
-0.000125552
-6.54764e-07
0.000296028
-0.000901122
0.00140426
-0.00224674
0.00254282
-0.00230372
0.00327357
-0.0014759
0.00388225
-0.00122666
0.00430476
-0.000851105
0.00464519
-0.000686124
0.00487649
-0.000468447
0.00508612
-0.000422582
-0.000252806
0.000512213
-0.00148026
0.0015634
-0.00329792
0.00265083
-0.00339116
0.0033497
-0.00217477
0.00393621
-0.00181317
0.00434606
-0.00126096
0.00467863
-0.00101869
0.00490667
-0.000696484
0.00511498
-0.000630893
-0.000382287
0.000819055
-0.00219847
0.00178838
-0.00426725
0.00280268
-0.00440546
0.00345672
-0.00282881
0.00401214
-0.00236858
0.00440452
-0.00165333
0.00472638
-0.00134056
0.0049503
-0.000920399
0.00515721
-0.000837807
-0.000515437
0.00119698
-0.0030757
0.00206392
-0.00513418
0.00298709
-0.00532864
0.00358666
-0.00342838
0.00410447
-0.00288639
0.00447621
-0.00202508
0.00478576
-0.0016501
0.00500554
-0.00114018
0.00521162
-0.00104389
-0.000654064
0.00162193
-0.00410745
0.00237143
-0.00588368
0.0031904
-0.00614761
0.00372982
-0.00396779
0.00420639
-0.00336297
0.00455635
-0.00237504
0.00485341
-0.00194716
0.00507005
-0.00135682
0.00527665
-0.00125048
-0.000800428
0.00206584
-0.00525493
0.00268973
-0.00650757
0.00339741
-0.00685529
0.00387546
-0.00444585
0.00431035
-0.00379786
0.00463955
-0.00270424
0.00492555
-0.00223316
0.00514118
-0.00157244
0.0053505
-0.00145981
-0.000957287
0.00249839
-0.00643163
0.00299576
-0.00700494
0.00359212
-0.00745165
0.00401239
-0.00486612
0.00440848
-0.00419395
0.00472016
-0.00301593
0.00499815
-0.00251115
0.00521603
-0.00179032
0.0054312
-0.00167497
-0.00112791
0.002902
-0.00748936
0.00327058
-0.00737351
0.00376048
-0.00794155
0.00413014
-0.00523577
0.00449327
-0.00455708
0.00479265
-0.00331531
0.00506719
-0.00278569
0.00529166
-0.00201479
0.00551662
-0.00189993
-0.00131607
0.00328143
-0.00819822
0.00351254
-0.00760463
0.00389164
-0.00832065
0.00422142
-0.00556555
0.00455802
-0.00489368
0.00485209
-0.00360938
0.00512865
-0.00306225
0.00536531
-0.00225144
0.00560429
-0.00213891
-0.0015265
0.0432811
-0.000919785
-0.0505595
0.0390683
-0.00339191
0.0369886
-0.00624091
0.0368076
-0.00538451
0.0366616
-0.00474769
0.0368316
-0.00377944
0.0370241
-0.00325472
0.0372819
-0.00250921
0.0374958
-0.00235281
-0.00182209
0.0523379
0.00330987
-0.0565676
0.0501457
-0.00119966
0.0475497
-0.00364495
0.0460122
-0.00384695
0.0448056
-0.00354107
0.0439822
-0.00295604
0.0433364
-0.002609
0.0429207
-0.00209349
0.0425212
-0.00195331
-0.00163328
0.053902
0.00452273
-0.0551148
0.0526222
8.01074e-05
0.051004
-0.0020268
0.0496957
-0.00253858
0.0485974
-0.00244278
0.0477384
-0.00209711
0.0469864
-0.001857
0.046424
-0.00153104
0.0458677
-0.00139707
-0.00125232
0.0520588
0.00437466
-0.0519107
0.0516505
0.000488357
0.050816
-0.00119225
0.0499761
-0.00169867
0.0492325
-0.00169919
0.0486308
-0.00149544
0.048079
-0.00130513
0.0476409
-0.00109303
0.047201
-0.000957079
-0.000900844
0.0500063
0.00369239
-0.049324
0.0498783
0.000616332
0.0494545
-0.000768493
0.0489504
-0.00119454
0.0484781
-0.00122686
0.048092
-0.00110941
0.0477407
-0.000953778
0.0474529
-0.000805249
0.0471726
-0.00067679
-0.000648283
0.0483077
0.0028922
-0.0475075
0.0483317
0.000592322
0.0480798
-0.000516527
0.0477468
-0.000861592
0.0474211
-0.000901169
0.0471494
-0.000837728
0.0469138
-0.00071813
0.0467182
-0.000609623
0.0465425
-0.000501171
-0.000476417
0.0470995
0.00210251
-0.0463098
0.0471919
0.000499916
0.0470168
-0.000341423
0.0467634
-0.00060824
0.0465067
-0.000644395
0.0462824
-0.000613459
0.0460943
-0.000530042
0.045937
-0.000452368
0.0458066
-0.000370749
-0.000346807
0.0462852
0.00136325
-0.045546
0.046428
0.000357158
0.0462941
-0.000207481
0.0460764
-0.000390542
0.0458494
-0.000417445
0.045641
-0.000405086
0.0454652
-0.000354181
0.0453168
-0.000303993
0.0451965
-0.000250409
-0.000231307
0.0457887
0.000669375
-0.0450948
0.0459635
0.000182332
0.0458554
-9.93576e-05
0.0456543
-0.000189419
0.0454399
-0.000203064
0.0452361
-0.000201315
0.0450599
-0.00017793
0.0449098
-0.000153922
0.0447862
-0.000126794
-0.000116881
0.0455543
-0.044885
0.0457367
0.0456373
0.0454479
0.0452448
0.0450435
0.0448656
0.0447117
0.0445849
0.0567755
0.0023015
-0.0560629
0.05733
0.00291145
0.0576778
0.00350299
0.0577693
0.00406707
0.0575576
0.00459447
0.0570029
0.00507637
0.0560737
0.00550505
0.0547408
0.00587441
0.0529487
0.00617956
0.00639538
0.0513979
0.00169282
-0.0507892
0.0520516
0.00225776
0.0527362
0.00281833
0.0534339
0.00336945
0.0541229
0.0039054
0.0547793
0.00441996
0.0553777
0.00490668
0.0558929
0.0053592
0.0563007
0.00577177
0.00612849
0.0480917
0.00121793
-0.0476168
0.0486475
0.0017019
0.0492812
0.0021847
0.0499872
0.00266345
0.0507576
0.003135
0.0515817
0.00359587
0.0524461
0.00404225
0.0533353
0.00446995
0.0542327
0.00487446
0.00524633
0.0454944
0.000891334
-0.0451678
0.0459012
0.00129515
0.0463887
0.00169723
0.0469568
0.00209532
0.0476046
0.00248716
0.0483301
0.00287042
0.0491296
0.0032427
0.0499981
0.00360148
0.0509286
0.00394397
0.00426418
0.0439057
0.000651507
-0.0436659
0.0442197
0.000981225
0.0446078
0.00130906
0.04507
0.00163316
0.0456055
0.00195164
0.0462133
0.00226264
0.0468917
0.00256431
0.0476384
0.00285474
0.0484506
0.00313185
0.00339075
0.04281
0.000469337
-0.0426278
0.0430621
0.000729073
0.0433842
0.00098704
0.0437756
0.00124172
0.0442356
0.00149161
0.0447631
0.00173521
0.0453563
0.00197106
0.0460134
0.00219767
0.0467318
0.00241345
0.00261501
0.0421161
0.000324572
-0.0419713
0.0423278
0.000517408
0.042606
0.00070883
0.04295
0.000897686
0.0433588
0.00108283
0.0438309
0.00126313
0.0443645
0.00143748
0.0449574
0.00160476
0.045607
0.00176378
0.00191226
0.0416642
0.000203969
-0.0415435
0.0418499
0.000331677
0.0421003
0.000458427
0.0424145
0.000583447
0.0427914
0.000705969
0.0432293
0.000825233
0.0437263
0.000940493
0.04428
0.00105101
0.0448878
0.00115599
0.00125409
0.0413995
9.81447e-05
-0.0412936
0.0415694
0.000161791
0.0418028
0.000224977
0.0420989
0.000287315
0.0424565
0.000348416
0.0428738
0.000407899
0.0433489
0.000465386
0.0438794
0.000520506
0.0444626
0.000572865
0.000621828
0.041274
-0.0411758
0.0414358
0.0416607
0.0419481
0.0422965
0.0427044
0.0431698
0.0436903
0.0442631
0.0481095
-0.00335378
-0.0475525
0.0488229
-0.00289494
0.0496456
-0.00240627
0.0505377
-0.00188571
0.0514715
-0.0013342
0.0524284
-0.000759661
0.0533901
-0.000166597
0.0543349
0.000441301
0.0552366
0.00105929
0.00168159
0.0479852
-0.00340687
-0.0479321
0.0480815
-0.00299124
0.0482206
-0.0025453
0.0484082
-0.00207334
0.0486505
-0.00157651
0.0489517
-0.00106086
0.0493153
-0.000530152
0.0497433
1.32899e-05
0.0502356
0.00056698
0.00112795
0.046897
-0.00314753
-0.0471564
0.0466931
-0.00278734
0.0465498
-0.00240202
0.0464725
-0.00199595
0.0464672
-0.00157123
0.0465376
-0.00113125
0.046686
-0.000678534
0.0469143
-0.000215091
0.0472243
0.000256997
0.00073547
0.0455818
-0.0027714
-0.0459579
0.0452635
-0.00246909
0.0450067
-0.00214513
0.0448147
-0.00180396
0.0446909
-0.00144746
0.0446377
-0.00107805
0.044657
-0.000697816
0.0447506
-0.000308714
0.0449203
8.7249e-05
0.000487982
0.0446599
-0.00234962
-0.0450817
0.0442919
-0.00210114
0.0439823
-0.00183551
0.0437342
-0.00155582
0.0435504
-0.00126366
0.0434332
-0.000960887
0.0433846
-0.000649238
0.0434063
-0.000330409
0.0434997
-6.14006e-06
0.000321776
0.0439896
-0.00190033
-0.0444389
0.0435923
-0.00170382
0.0432508
-0.001494
0.0429681
-0.00127312
0.0427469
-0.00104242
0.0425893
-0.000803304
0.0424972
-0.000557158
0.0424722
-0.000305375
0.0425154
-4.93826e-05
0.000209354
0.043559
-0.00143595
-0.0440233
0.043145
-0.00128983
0.042785
-0.001134
0.0424818
-0.000969952
0.042238
-0.000798597
0.0420556
-0.000620954
0.0419365
-0.000438057
0.0418821
-0.000250961
0.0418935
-6.0747e-05
0.000131475
0.0432801
-0.000961474
-0.0437546
0.0428551
-0.00086478
0.0424828
-0.000761699
0.042166
-0.000653161
0.0419072
-0.00053977
0.0417084
-0.000422187
0.0415714
-0.000301098
0.0414977
-0.000177204
0.0414882
-5.12311e-05
7.608e-05
0.0431192
-0.000481544
-0.0435991
0.0426879
-0.000433522
0.0423086
-0.00038233
0.0419838
-0.000328408
0.0417161
-0.000272053
0.0415075
-0.00021359
0.0413597
-0.000153355
0.0412742
-9.16984e-05
0.041252
-2.89808e-05
3.44269e-05
0.0430453
-0.0435269
0.0426118
0.0422295
0.0419011
0.041629
0.0414154
0.0412621
0.0411704
0.0411414
0.0429475
0.000174629
-0.000193167
0.0429914
0.00052127
-0.000565196
0.0430658
0.000872661
-0.000947111
0.0431884
0.00123698
-0.00135952
0.043389
0.00161959
-0.00182025
0.0437114
0.00202472
-0.00234709
0.0442143
0.00245449
-0.00295738
0.0449696
0.00291134
-0.00366662
0.0460713
0.00337126
-0.004473
0.00392362
-0.00540477
0.0429657
0.000137879
0.0430729
0.000414029
0.043254
0.000691536
0.0435194
0.000971585
0.043884
0.00125499
0.0443668
0.00154199
0.0449896
0.00183163
0.045777
0.00212402
0.0467446
0.00240359
0.00273612
0.0429665
0.000100271
0.0430779
0.00030271
0.0432627
0.000506693
0.0435251
0.000709209
0.0438707
0.000909361
0.0443068
0.00110585
0.0448419
0.0012966
0.045486
0.00147989
0.0462438
0.00164576
0.00182358
0.0429586
7.05574e-05
0.0430476
0.000213744
0.043196
0.000358295
0.0434046
0.000500619
0.0436744
0.000639513
0.0440066
0.000773679
0.0444017
0.000901549
0.0448596
0.00102192
0.0453756
0.00112978
0.00124128
0.0429506
4.88942e-05
0.0430161
0.000148272
0.0431258
0.000248582
0.0432795
0.000346929
0.0434767
0.000442254
0.0437169
0.000533506
0.0439989
0.000619546
0.0443214
0.000699441
0.0446807
0.000770404
0.000840379
0.0429445
3.33064e-05
0.0429918
0.000101014
0.043071
0.000169325
0.0431818
0.000236187
0.0433232
0.000300825
0.0434942
0.000362499
0.0436933
0.000420467
0.0439186
0.000474137
0.044167
0.000522034
0.000568426
0.0429403
2.19161e-05
0.0429749
6.64593e-05
0.0430328
0.00011138
0.0431137
0.00015532
0.0432168
0.000197756
0.0433411
0.000238199
0.0434853
0.000276172
0.0436482
0.000311286
0.0438275
0.000342711
0.000372613
0.0429376
1.3276e-05
0.0429638
4.02461e-05
0.0430077
6.7432e-05
0.043069
9.40247e-05
0.0431471
0.00011971
0.0432411
0.000144197
0.04335
0.000167208
0.0434728
0.000188519
0.0436078
0.000207695
0.000225839
0.0429359
6.26084e-06
0.0429572
1.89805e-05
0.0429929
3.17911e-05
0.0430426