/*--------------------------------*- C++ -*----------------------------------*\
  =========                 |
  \\      /  F ield         | OpenFOAM: The Open Source CFD Toolbox
   \\    /   O peration     | Website:  https://openfoam.org
    \\  /    A nd           | Version:  6.0
     \\/     M anipulation  |
\*---------------------------------------------------------------------------*/
FoamFile
{
    version     2.0;
    format      ascii;
    class       volVectorField;
    location    "30";
    object      U;
}
// * * * * * * * * * * * * * * * * * * * * * * * * * * * * * * * * * * * * * //

dimensions      [0 1 -1 0 0 0 0];

internalField   nonuniform List<vector> 
2000
(
(-0.00199135 0.00173871 5.73211e-20)
(-0.0076219 0.00330312 6.80793e-20)
(-0.0153305 0.0036623 -6.49026e-20)
(-0.0223326 0.0033377 -1.32435e-19)
(-0.0276802 0.00263968 -9.25132e-20)
(-0.0312204 0.0017714 1.23247e-19)
(-0.0330508 0.000878277 7.17883e-20)
(-0.0334403 6.70389e-05 -2.90405e-20)
(-0.0328213 -0.000583178 -7.24964e-20)
(-0.0314885 -0.00100846 5.28595e-20)
(-0.00248985 0.00512181 -1.42083e-19)
(-0.00837098 0.00968613 1.96141e-19)
(-0.0157254 0.0106978 1.95589e-20)
(-0.022025 0.00969713 -1.13612e-19)
(-0.0264587 0.00759718 5.43647e-19)
(-0.0289501 0.00499486 -2.39266e-19)
(-0.0296447 0.00231854 -2.58856e-19)
(-0.028838 -0.00011344 3.12214e-19)
(-0.0269785 -0.00205934 -3.07917e-19)
(-0.0244386 -0.00332668 1.55338e-19)
(-0.00343593 0.00822546 2.35976e-20)
(-0.00972831 0.0154102 8.39224e-21)
(-0.0163014 0.0168863 5.87826e-19)
(-0.021143 0.0151396 2.06204e-19)
(-0.023716 0.0116315 4.08969e-20)
(-0.0240953 0.00731395 3.38202e-19)
(-0.0225194 0.00287267 -6.42373e-19)
(-0.0193322 -0.00116946 1.39317e-20)
(-0.0150118 -0.00439563 -3.79856e-19)
(-0.0100923 -0.0064822 4.18459e-19)
(-0.00472422 0.0108686 -4.43889e-20)
(-0.0114034 0.0200608 2.55373e-19)
(-0.0166172 0.0217188 -7.44044e-19)
(-0.0191346 0.019148 -9.61757e-20)
(-0.0188291 0.014265 -5.47644e-19)
(-0.0159989 0.00830759 5.67177e-19)
(-0.0110162 0.00217058 -6.01599e-19)
(-0.00428763 -0.00343694 4.22495e-19)
(0.00367426 -0.00790518 1.77618e-19)
(0.0120774 -0.0107749 -2.00708e-19)
(-0.00618721 0.0128753 -4.94041e-19)
(-0.0129397 0.0232576 4.45719e-21)
(-0.015981 0.0247658 9.16545e-19)
(-0.0151316 0.0213409 2.7478e-19)
(-0.01081 0.0152218 -8.737e-19)
(-0.00360908 0.00783031 5.43286e-19)
(0.00592747 0.000189374 6.15813e-19)
(0.0173259 -0.00684755 -5.49046e-19)
(0.0300506 -0.0124631 3.91469e-19)
(0.0429418 -0.0160596 9.61288e-20)
(-0.00758383 0.0140747 6.75327e-20)
(-0.0136951 0.0246648 1.25249e-20)
(-0.013427 0.0256994 -1.17178e-18)
(-0.00791658 0.0215089 -6.55556e-19)
(0.00174216 0.0144878 7.82028e-19)
(0.014588 0.00610932 -9.15792e-19)
(0.0298618 -0.00259792 1.04942e-18)
(0.0470244 -0.0107246 -9.06432e-20)
(0.0655587 -0.0172614 -2.95235e-19)
(0.083822 -0.0214852 -8.58098e-19)
(-0.00858773 0.0143042 -1.4694e-19)
(-0.0128305 0.0240049 -2.68375e-19)
(-0.00771012 0.0243068 -3.29716e-19)
(0.00408512 0.0196234 7.03383e-19)
(0.0206684 0.0123216 1.30479e-18)
(0.0406299 0.00377739 -2.6968e-19)
(0.0629299 -0.00514163 -6.56374e-19)
(0.0869487 -0.0136439 2.00195e-19)
(0.112273 -0.0206287 -1.26078e-18)
(0.136701 -0.0252996 1.38484e-18)
(-0.00878342 0.013424 8.98692e-19)
(-0.00932611 0.0210847 -4.90543e-19)
(0.00265058 0.0204995 9.57715e-19)
(0.0227432 0.015813 -1.56472e-18)
(0.0481846 0.00919923 -7.4766e-19)
(0.0770292 0.00181776 -1.03562e-18)
(0.107849 -0.00580477 3.00874e-19)
(0.139866 -0.0132615 -8.37729e-19)
(0.172904 -0.0195885 1.8243e-18)
(0.204305 -0.0240978 5.10688e-19)
(-0.00768162 0.0113471 6.61492e-20)
(-0.00204188 0.0158371 7.99055e-19)
(0.0192612 0.0143189 1.58792e-18)
(0.0500742 0.0102947 4.85249e-19)
(0.0867156 0.0056518 1.43626e-18)
(0.126612 0.00135038 7.87257e-20)
(0.167755 -0.00241911 -7.20951e-22)
(0.208947 -0.00570663 5.79058e-19)
(0.250264 -0.00785531 4.68392e-19)
(0.289149 -0.0092816 -1.52016e-18)
(-0.00476949 0.00808503 -5.32328e-19)
(0.0101506 0.00838196 -8.91584e-19)
(0.0436509 0.00593345 -1.29598e-18)
(0.0880075 0.00320269 3.06164e-20)
(0.138765 0.00174831 -6.60697e-19)
(0.192825 0.00253205 1.04134e-18)
(0.247611 0.00587624 -2.86698e-18)
(0.301189 0.0119997 1.28715e-18)
(0.352915 0.0214973 4.8384e-19)
(0.400065 0.0302274 1.51806e-18)
(0.000390029 0.00380755 2.6629e-19)
(0.0281227 -0.000877472 -1.01937e-18)
(0.0768182 -0.0042779 9.10216e-19)
(0.137576 -0.00546857 -3.5314e-19)
(0.205571 -0.00345179 3.84121e-19)
(0.277842 0.00269611 8.36275e-19)
(0.352554 0.0137116 -1.1228e-18)
(0.429304 0.0305364 1.4589e-19)
(0.509068 0.0524342 -5.38039e-19)
(0.594203 0.0694328 1.09159e-18)
(0.00806194 -0.00110907 3.81515e-19)
(0.0522658 -0.0110964 -9.24181e-19)
(0.118766 -0.0153349 1.25922e-18)
(0.197763 -0.0150262 -7.84217e-19)
(0.284067 -0.010289 -2.87685e-19)
(0.374626 -0.000983821 1.70324e-19)
(0.467632 0.0128009 8.8062e-20)
(0.562517 0.0307535 1.19452e-18)
(0.658933 0.0501582 3.43882e-19)
(0.754589 0.0623199 1.47008e-18)
(0.0183541 -0.00610315 -3.40526e-19)
(0.0826192 -0.020922 1.1949e-18)
(0.169018 -0.0252691 -9.97055e-19)
(0.267071 -0.0228384 -1.16936e-18)
(0.371108 -0.0151101 1.63608e-18)
(0.477639 -0.00287718 -1.244e-18)
(0.584266 0.0129296 3.28597e-19)
(0.689433 0.0311982 -1.948e-18)
(0.791362 0.0492466 1.45918e-18)
(0.886069 0.0617307 7.29068e-20)
(0.0312727 -0.010547 -4.43778e-19)
(0.118984 -0.0287971 -4.28597e-19)
(0.226881 -0.0317895 -9.12681e-19)
(0.34408 -0.0258983 1.10629e-18)
(0.464467 -0.0140481 -5.58801e-20)
(0.584084 0.00206567 7.15239e-19)
(0.699994 0.0208418 1.30482e-18)
(0.809957 0.0407825 -4.00974e-19)
(0.911604 0.0597934 -1.41827e-18)
(1.00093 0.0748614 2.81581e-18)
(0.0467481 -0.0138328 -2.29381e-19)
(0.160919 -0.0332199 -2.73609e-19)
(0.291353 -0.0327848 4.92405e-19)
(0.427132 -0.0216708 -9.15263e-19)
(0.561905 -0.00426942 1.56364e-19)
(0.691465 0.016871 1.39155e-19)
(0.812688 0.0396019 6.10278e-20)
(0.923226 0.0622176 -9.85801e-21)
(1.02088 0.0832153 -1.49494e-19)
(1.10228 0.100977 -2.38054e-18)
(0.0646217 -0.0153986 9.31128e-19)
(0.207692 -0.0328659 -6.49828e-19)
(0.360996 -0.0265413 8.30993e-21)
(0.514071 -0.00834379 -9.8973e-19)
(0.660675 0.0159 -3.54112e-19)
(0.796725 0.0428675 3.31094e-19)
(0.919385 0.0699845 2.57135e-19)
(1.02676 0.0954605 -9.1629e-19)
(1.11737 0.11833 7.48953e-19)
(1.18887 0.137779 -9.81999e-19)
(0.0846146 -0.0147334 4.01873e-19)
(0.258238 -0.0266454 -3.57166e-19)
(0.433914 -0.0118387 1.48355e-18)
(0.602242 0.0150965 1.51268e-19)
(0.757571 0.0470136 3.47632e-19)
(0.896434 0.0799625 1.54946e-18)
(1.0168 0.111123 -2.36907e-19)
(1.11774 0.138788 2.15883e-19)
(1.1989 0.162553 8.93995e-20)
(1.25921 0.182085 -1.10015e-19)
(0.106297 -0.0113867 2.80763e-19)
(0.311151 -0.0137444 6.7504e-19)
(0.507795 0.0120096 -7.23153e-19)
(0.688626 0.0488861 -2.44825e-19)
(0.849179 0.0886615 -3.02439e-19)
(0.987164 0.127012 4.68611e-19)
(1.10187 0.161141 -2.43759e-19)
(1.19376 0.189666 6.55813e-19)
(1.26386 0.212836 2.20701e-19)
(1.31251 0.230655 -3.59806e-19)
(0.129075 -0.00499496 -3.02558e-19)
(0.364711 0.0063275 2.68933e-19)
(0.58003 0.0451355 -5.73861e-19)
(0.770056 0.0925405 2.47541e-19)
(0.932178 0.139652 -2.5686e-19)
(1.06586 0.182153 -3.20582e-19)
(1.17215 0.217622 -2.57452e-19)
(1.25321 0.245293 2.87725e-19)
(1.31151 0.266195 -5.42504e-19)
(1.34887 0.280627 3.27853e-19)
(0.152196 0.00468192 -1.07847e-19)
(0.416956 0.033682 -2.10968e-19)
(0.647868 0.087101 1.00462e-19)
(0.843449 0.144923 6.19264e-21)
(1.00362 0.198183 8.33614e-20)
(1.13009 0.243064 1.14371e-19)
(1.22603 0.277932 1.06004e-19)
(1.29536 0.302928 -1.40565e-19)
(1.34203 0.319972 1.19678e-19)
(1.36912 0.329666 -1.87295e-19)
(0.174779 0.0177192 -6.24293e-20)
(0.465783 0.0680018 -2.34195e-20)
(0.708592 0.1369 9.31981e-20)
(0.906023 0.204325 -4.29036e-20)
(1.06111 0.262005 1.14361e-19)
(1.17822 0.307189 -1.47663e-19)
(1.26275 0.339446 3.4223e-20)
(1.32038 0.360071 3.67211e-20)
(1.35628 0.371944 -1.53954e-20)
(1.37466 0.375978 5.82432e-20)
(0.19586 0.0339921 -6.73505e-20)
(0.509079 0.108511 -3.04787e-19)
(0.759702 0.192986 -2.11135e-20)
(0.955483 0.268575 6.27571e-21)
(1.10301 0.328578 -3.96458e-19)
(1.20945 0.371905 5.24077e-20)
(1.28241 0.399689 -4.4621e-20)
(1.32911 0.414551 -1.07644e-19)
(1.35568 0.420323 2.2445e-19)
(1.36716 0.418224 -4.09256e-19)
(0.214448 0.0531512 -3.25301e-20)
(0.54486 0.153971 6.17296e-19)
(0.799076 0.253336 9.94628e-20)
(0.990147 0.335148 -5.4347e-19)
(1.12838 0.395217 -4.40735e-20)
(1.22373 0.434651 -5.20871e-19)
(1.28576 0.456421 3.81834e-19)
(1.3229 0.464534 -1.38559e-19)
(1.34192 0.463698 2.45807e-19)
(1.34842 0.455414 -1.79659e-19)
(0.22959 0.074613 -2.05129e-19)
(0.571401 0.20272 1.9594e-19)
(0.825103 0.315543 -1.41427e-19)
(1.00903 0.401308 1.06597e-18)
(1.13709 0.459222 5.26126e-19)
(1.22174 0.493026 -1.21997e-19)
(1.2741 0.507668 4.11043e-19)
(1.30346 0.508495 -2.70483e-19)
(1.31689 0.500951 -7.53831e-20)
(1.32028 0.486793 4.94596e-19)
(0.240439 0.0975695 -3.55066e-19)
(0.587363 0.252733 4.51885e-19)
(0.836783 0.376933 -8.8909e-19)
(1.01186 0.464235 1.24877e-19)
(1.12968 0.51799 2.79096e-19)
(1.2047 0.544842 -4.27938e-19)
(1.24915 0.551723 -4.98462e-19)
(1.27273 0.545169 2.18854e-19)
(1.28253 0.531179 -2.63586e-19)
(1.28454 0.51175 3.16676e-19)
(0.246315 0.121014 -8.97107e-20)
(0.591879 0.301727 -4.59811e-19)
(0.833763 0.43471 2.54371e-19)
(0.999039 0.521161 4.26699e-19)
(1.10726 0.569098 -2.56581e-19)
(1.17429 0.588156 -1.91214e-19)
(1.21288 0.587117 -1.04641e-19)
(1.23274 0.573482 -5.17283e-20)
(1.24078 0.553595 1.07392e-20)
(1.24292 0.529715 1.08238e-19)
(0.246761 0.143786 6.58859e-20)
(0.584623 0.34728 -3.85964e-19)
(0.816348 0.486101 6.4379e-19)
(0.97159 0.569496 -3.81415e-19)
(1.07146 0.610387 1.06722e-19)
(1.13248 0.62129 -1.51362e-19)
(1.16742 0.612601 1.62965e-19)
(1.18559 0.592494 3.14616e-20)
(1.19357 0.567428 -7.73152e-20)
(1.19712 0.540018 1.50234e-19)
(0.241595 0.164637 -1.73234e-19)
(0.565838 0.386977 3.38483e-19)
(0.785455 0.528511 -1.51918e-20)
(0.931033 0.606952 -7.33903e-20)
(1.0242 0.640035 -2.01391e-19)
(1.08146 0.642882 2.48864e-20)
(1.11501 0.627183 6.09572e-20)
(1.1335 0.601456 -1.51069e-19)
(1.14303 0.571981 1.76385e-19)
(1.14921 0.541876 1.50033e-19)
(0.230937 0.182312 3.88039e-20)
(0.53633 0.418564 -8.10462e-20)
(0.742537 0.559671 2.4001e-20)
(0.879245 0.631623 1.31207e-20)
(0.967559 0.656555 7.72914e-20)
(1.02335 0.651785 -1.43671e-19)
(1.05788 0.629966 -3.00914e-19)
(1.07892 0.599656 -1.22807e-19)
(1.09214 0.566621 -1.56998e-19)
(1.10255 0.534699 1.32937e-19)
(0.215232 0.195655 1.10415e-19)
(0.497433 0.440133 -1.71349e-19)
(0.689472 0.577807 1.65408e-19)
(0.818268 0.642112 -3.14388e-19)
(0.903427 0.658819 7.62525e-20)
(0.959701 0.646834 5.15707e-19)
(0.997283 0.619363 -1.58154e-19)
(1.02317 0.584702 1.87937e-19)
(1.04272 0.548004 2.75201e-19)
(1.05903 0.515026 1.00104e-18)
(0.19525 0.203727 6.79967e-19)
(0.45097 0.450298 -4.62614e-19)
(0.628517 0.581866 1.126e-18)
(0.750272 0.637907 -1.92831e-19)
(0.833394 0.64676 9.66168e-19)
(0.891061 0.628052 6.06165e-19)
(0.932315 0.594737 -1.42405e-18)
(0.963575 0.55388 2.1622e-18)
(0.98946 0.507898 -4.56958e-19)
(1.00632 0.461005 8.99226e-19)
(0.172051 0.205875 -3.75111e-19)
(0.399207 0.448257 -2.67489e-19)
(0.562394 0.571532 2.58761e-19)
(0.677932 0.619483 -6.40688e-19)
(0.759665 0.62201 -2.00117e-18)
(0.818703 0.598991 -8.04841e-19)
(0.862696 0.563188 -7.25365e-19)
(0.897117 0.52174 3.51092e-19)
(0.92512 0.478158 2.9259e-18)
(0.942608 0.437391 -6.08611e-19)
(0.146895 0.201722 1.97461e-19)
(0.344729 0.433651 -7.99181e-19)
(0.494244 0.546776 1.75766e-19)
(0.604669 0.587135 -1.28e-18)
(0.686061 0.585018 2.80238e-18)
(0.747295 0.55993 -3.24822e-19)
(0.794587 0.52408 1.52709e-18)
(0.832426 0.484256 -2.18749e-18)
(0.863344 0.443961 6.86294e-19)
(0.88465 0.407476 1.06175e-19)
(0.121119 0.191157 1.45568e-19)
(0.290164 0.406552 8.8143e-19)
(0.427121 0.507896 -2.58917e-18)
(0.533589 0.54123 1.25988e-18)
(0.615634 0.535984 -4.13651e-21)
(0.67989 0.510616 -4.25153e-19)
(0.731207 0.47643 5.35089e-19)
(0.773238 0.439624 -5.31763e-19)
(0.808167 0.403351 -1.82788e-18)
(0.834249 0.370865 -5.00855e-19)
(0.0960491 0.174335 4.76358e-19)
(0.238034 0.367475 5.34483e-19)
(0.363856 0.455617 2.2076e-18)
(0.467421 0.482514 -1.22811e-18)
(0.550833 0.475501 2.53143e-18)
(0.618568 0.451353 -5.45267e-19)
(0.674215 0.420139 -5.76351e-19)
(0.720701 0.387299 6.811e-19)
(0.759933 0.355514 4.4407e-19)
(0.790871 0.327124 1.61007e-18)
(0.0729452 0.151671 -4.83459e-19)
(0.190665 0.317378 1.57817e-19)
(0.306989 0.391113 4.26853e-20)
(0.408536 0.412152 1.25204e-18)
(0.493704 0.404589 -3.12528e-18)
(0.564991 0.382954 5.30929e-19)
(0.624866 0.355821 1.17231e-18)
(0.675619 0.327751 -1.41726e-18)
(0.718935 0.300911 4.99287e-19)
(0.754396 0.276897 -2.31721e-18)
(0.0529471 0.123827 1.0303e-19)
(0.150114 0.257627 5.55807e-19)
(0.258723 0.315975 2.16171e-19)
(0.358946 0.331693 2.92964e-19)
(0.445942 0.324636 5.6135e-19)
(0.520506 0.306609 1.67129e-18)
(0.584156 0.284488 -2.04627e-18)
(0.638656 0.261882 -1.1525e-18)
(0.685523 0.240441 1.90988e-19)
(0.724904 0.221195 1.50257e-18)
(0.0370319 0.0916913 -6.2304e-19)
(0.118111 0.189954 -7.41128e-20)
(0.220875 0.232161 -6.20851e-19)
(0.320289 0.243023 8.84203e-20)
(0.40891 0.237334 -5.31475e-19)
(0.486185 0.223801 -6.06773e-19)
(0.552892 0.207443 -9.0424e-19)
(0.610385 0.190868 2.43665e-18)
(0.660067 0.175233 4.20373e-19)
(0.702563 0.161149 -6.40787e-19)
(0.025973 0.0563427 3.35789e-19)
(0.0960032 0.116393 4.43831e-19)
(0.194848 0.141928 1.74856e-19)
(0.293813 0.148293 -9.43715e-19)
(0.383641 0.144614 -4.39338e-19)
(0.462845 0.136227 -9.46049e-20)
(0.531694 0.126185 1.84856e-19)
(0.591266 0.116066 1.48432e-19)
(0.642893 0.106552 -1.14775e-18)
(0.687549 0.0979588 6.58604e-19)
(0.0203063 0.0190054 -1.74866e-19)
(0.0847143 0.0392059 -1.98936e-19)
(0.181593 0.0477524 1.58554e-19)
(0.280362 0.049848 1.40767e-19)
(0.370832 0.0485771 1.44266e-19)
(0.451037 0.0457363 2.20628e-19)
(0.520988 0.042351 -1.16012e-20)
(0.581622 0.0389485 -2.894e-19)
(0.634243 0.0357544 2.74894e-19)
(0.680004 0.0328654 -4.13588e-19)
(0.0203063 -0.0190051 -1.76015e-19)
(0.0847143 -0.0392055 -1.89581e-19)
(0.181593 -0.0477519 1.74712e-19)
(0.280362 -0.0498475 3.42066e-19)
(0.370832 -0.0485766 2.2792e-19)
(0.451037 -0.0457359 -3.00314e-19)
(0.520988 -0.0423506 -1.63184e-19)
(0.581622 -0.0389481 7.11654e-20)
(0.634243 -0.035754 1.59993e-19)
(0.680004 -0.032865 -9.52732e-20)
(0.025973 -0.0563425 4.20049e-19)
(0.0960032 -0.116392 -5.3383e-19)
(0.194848 -0.141927 -4.43992e-20)
(0.293813 -0.148292 2.95775e-19)
(0.383641 -0.144614 -1.33724e-18)
(0.462845 -0.136226 5.71384e-19)
(0.531694 -0.126185 5.89823e-19)
(0.591266 -0.116066 -6.96309e-19)
(0.642893 -0.106551 6.65132e-19)
(0.687549 -0.0979584 -2.91937e-19)
(0.0370319 -0.091691 -7.26237e-20)
(0.118111 -0.189953 -9.26351e-21)
(0.220875 -0.232161 -1.44189e-18)
(0.320289 -0.243022 -4.58683e-19)
(0.40891 -0.237333 -4.83516e-20)
(0.486185 -0.2238 -7.54571e-19)
(0.552892 -0.207442 1.40596e-18)
(0.610385 -0.190868 -4.94137e-20)
(0.660067 -0.175232 8.0282e-19)
(0.702563 -0.161149 -7.05892e-19)
(0.052947 -0.123827 1.22651e-19)
(0.150114 -0.257626 -5.67822e-19)
(0.258723 -0.315975 1.74721e-18)
(0.358946 -0.331693 2.4725e-19)
(0.445942 -0.324635 1.2155e-18)
(0.520506 -0.306609 -1.1883e-18)
(0.584156 -0.284488 1.24747e-18)
(0.638656 -0.261882 -8.99393e-19)
(0.685523 -0.240441 -3.94973e-19)
(0.724904 -0.221195 3.35522e-19)
(0.0729451 -0.15167 1.09517e-18)
(0.190665 -0.317377 2.80556e-21)
(0.306989 -0.391112 -1.84134e-18)
(0.408536 -0.412151 -5.34221e-19)
(0.493704 -0.404589 1.77385e-18)
(0.564991 -0.382954 -1.03957e-18)
(0.624866 -0.35582 -1.20348e-18)
(0.675619 -0.327751 1.08283e-18)
(0.718935 -0.30091 -7.37174e-19)
(0.754396 -0.276897 -1.58932e-19)
(0.096049 -0.174335 -1.63484e-19)
(0.238034 -0.367475 -7.75001e-21)
(0.363856 -0.455617 1.99823e-18)
(0.467421 -0.482514 1.14576e-18)
(0.550833 -0.475501 -1.35112e-18)
(0.618567 -0.451352 1.63593e-18)
(0.674215 -0.420139 -1.77512e-18)
(0.720701 -0.387299 1.76659e-19)
(0.759933 -0.355514 5.28727e-19)
(0.790871 -0.327124 1.22338e-18)
(0.121119 -0.191157 1.87375e-19)
(0.290164 -0.406551 3.01729e-19)
(0.427121 -0.507896 3.28191e-19)
(0.533589 -0.54123 -1.05526e-18)
(0.615634 -0.535983 -1.87967e-18)
(0.67989 -0.510616 3.95838e-19)
(0.731207 -0.476429 1.14551e-18)
(0.773238 -0.439623 -3.27894e-19)
(0.808167 -0.403351 1.97402e-18)
(0.834249 -0.370864 -1.92415e-18)
(0.146895 -0.201722 -1.06068e-18)
(0.344729 -0.433651 4.07522e-19)
(0.494243 -0.546776 -1.1005e-18)
(0.604669 -0.587135 1.7791e-18)
(0.686061 -0.585017 8.89627e-19)
(0.747295 -0.559929 1.25605e-18)
(0.794587 -0.52408 -2.9065e-19)
(0.832426 -0.484256 1.14529e-18)
(0.863344 -0.443961 -2.42478e-18)
(0.88465 -0.407476 -6.32162e-19)
(0.172051 -0.205875 6.24801e-20)
(0.399207 -0.448256 -7.12505e-19)
(0.562394 -0.571531 -1.14072e-18)
(0.677931 -0.619483 -4.83381e-19)
(0.759665 -0.62201 -1.36593e-18)
(0.818703 -0.598991 -1.38953e-19)
(0.862696 -0.563188 1.1882e-19)
(0.897116 -0.52174 -5.33734e-19)
(0.92512 -0.478158 -5.96527e-19)
(0.942608 -0.437391 1.57316e-18)
(0.19525 -0.203727 3.35209e-19)
(0.45097 -0.450298 4.6805e-19)
(0.628517 -0.581866 8.38593e-19)
(0.750272 -0.637907 3.72209e-20)
(0.833393 -0.64676 5.59588e-19)
(0.891061 -0.628052 -7.66203e-19)
(0.932314 -0.594737 2.33939e-18)
(0.963574 -0.55388 -1.03286e-18)
(0.98946 -0.507898 -5.07297e-19)
(1.00632 -0.461005 -1.52975e-18)
(0.215232 -0.195655 -1.32008e-19)
(0.497433 -0.440133 2.33001e-19)
(0.689472 -0.577807 -2.3881e-19)
(0.818268 -0.642112 1.28796e-19)
(0.903427 -0.658819 -1.52214e-19)
(0.959701 -0.646834 -3.90425e-19)
(0.997283 -0.619363 5.13573e-19)
(1.02317 -0.584701 -1.68078e-19)
(1.04272 -0.548003 2.60618e-19)
(1.05903 -0.515025 -5.68724e-19)
(0.230937 -0.182312 -7.25406e-21)
(0.53633 -0.418564 -1.06809e-19)
(0.742537 -0.559671 2.16701e-20)
(0.879245 -0.631623 1.44249e-19)
(0.967559 -0.656555 -6.54505e-20)
(1.02335 -0.651785 1.76109e-20)
(1.05788 -0.629966 -1.71525e-20)
(1.07892 -0.599656 -3.82827e-19)
(1.09214 -0.566621 -1.77799e-19)
(1.10255 -0.534698 -5.59271e-19)
(0.241595 -0.164637 -9.62457e-20)
(0.565838 -0.386977 3.39668e-19)
(0.785455 -0.528511 -2.11141e-19)
(0.931032 -0.606952 -7.64336e-20)
(1.0242 -0.640035 3.45871e-20)
(1.08146 -0.642882 7.0987e-20)
(1.11501 -0.627182 -6.88314e-21)
(1.1335 -0.601456 2.916e-19)
(1.14303 -0.571981 -2.52079e-19)
(1.14921 -0.541876 -3.5428e-21)
(0.246761 -0.143786 -2.36849e-19)
(0.584623 -0.34728 -1.48392e-19)
(0.816347 -0.4861 -3.68441e-19)
(0.97159 -0.569496 4.19142e-19)
(1.07146 -0.610387 -3.07263e-20)
(1.13248 -0.62129 1.36399e-19)
(1.16742 -0.612601 1.54154e-19)
(1.18559 -0.592494 -5.60448e-20)
(1.19357 -0.567428 4.98706e-20)
(1.19712 -0.540018 -1.58498e-19)
(0.246314 -0.121014 -1.61088e-19)
(0.591879 -0.301727 -2.06921e-19)
(0.833763 -0.43471 3.11836e-19)
(0.999039 -0.521161 -4.68603e-19)
(1.10726 -0.569098 8.23134e-20)
(1.17429 -0.588156 4.16294e-20)
(1.21288 -0.587117 9.20142e-20)
(1.23274 -0.573482 -6.04709e-20)
(1.24078 -0.553594 -7.24827e-20)
(1.24292 -0.529715 -2.37079e-19)
(0.240439 -0.0975695 6.7159e-19)
(0.587363 -0.252733 -5.2558e-19)
(0.836783 -0.376933 2.45485e-20)
(1.01186 -0.464235 -6.7356e-19)
(1.12968 -0.51799 -1.9557e-19)
(1.2047 -0.544842 1.56472e-19)
(1.24915 -0.551723 1.14657e-19)
(1.27272 -0.545169 -3.82465e-19)
(1.28253 -0.531179 1.68031e-19)
(1.28453 -0.51175 -3.02939e-19)
(0.22959 -0.074613 3.33269e-19)
(0.571401 -0.20272 -3.29835e-19)
(0.825103 -0.315543 1.18368e-18)
(1.00903 -0.401308 9.4407e-20)
(1.13709 -0.459223 2.68453e-19)
(1.22174 -0.493026 9.57784e-19)
(1.2741 -0.507669 -1.99051e-19)
(1.30346 -0.508495 4.84223e-20)
(1.31689 -0.500951 -2.8388e-20)
(1.32028 -0.486793 -4.95742e-20)
(0.214448 -0.0531511 2.56888e-19)
(0.544859 -0.153971 5.83746e-19)
(0.799075 -0.253337 -5.95032e-19)
(0.990147 -0.335148 -1.80759e-19)
(1.12838 -0.395217 -1.91391e-19)
(1.22373 -0.434651 3.76735e-19)
(1.28576 -0.456422 -1.77792e-19)
(1.3229 -0.464534 4.19235e-19)
(1.34192 -0.463698 1.00919e-19)
(1.34842 -0.455414 -1.77475e-19)
(0.19586 -0.0339921 -2.77493e-19)
(0.509079 -0.108511 2.57511e-19)
(0.759702 -0.192986 -5.28689e-19)
(0.955482 -0.268575 2.21356e-19)
(1.10301 -0.328578 -2.2186e-19)
(1.20945 -0.371905 -2.63828e-19)
(1.28241 -0.39969 -2.04721e-19)
(1.32911 -0.414552 2.25878e-19)
(1.35568 -0.420324 -3.92652e-19)
(1.36716 -0.418224 2.4857e-19)
(0.174779 -0.0177192 -1.03957e-19)
(0.465782 -0.0680018 -2.04005e-19)
(0.708592 -0.1369 9.59687e-20)
(0.906022 -0.204326 7.08393e-21)
(1.06111 -0.262005 7.63843e-20)
(1.17822 -0.30719 1.09446e-19)
(1.26275 -0.339446 9.32021e-20)
(1.32038 -0.360072 -1.26099e-19)
(1.35628 -0.371945 1.02806e-19)
(1.37466 -0.375978 -1.62401e-19)
(0.152195 -0.00468193 -6.55058e-20)
(0.416955 -0.0336821 -2.64033e-20)
(0.647867 -0.0871011 9.83857e-20)
(0.843448 -0.144923 -4.43847e-20)
(1.00361 -0.198183 1.24222e-19)
(1.13009 -0.243065 -1.5702e-19)
(1.22603 -0.277933 4.03365e-20)
(1.29536 -0.302928 3.46194e-20)
(1.34203 -0.319973 -1.23722e-20)
(1.36912 -0.329667 5.67702e-20)
(0.129075 0.00499492 -7.85839e-20)
(0.364711 -0.00632759 -3.33172e-19)
(0.580029 -0.0451357 -2.68355e-20)
(0.770055 -0.0925408 1.07112e-20)
(0.932177 -0.139653 -4.62176e-19)
(1.06586 -0.182153 4.88055e-20)
(1.17215 -0.217622 -5.17083e-20)
(1.25321 -0.245294 -1.40653e-19)
(1.31151 -0.266196 3.11242e-19)
(1.34887 -0.280628 -5.66252e-19)
(0.106297 0.0113867 -4.4552e-20)
(0.31115 0.0137443 7.14604e-19)
(0.507794 -0.0120098 9.53167e-20)
(0.688625 -0.0488864 -6.45544e-19)
(0.849178 -0.088662 -7.72952e-20)
(0.987164 -0.127013 -7.28006e-19)
(1.10187 -0.161141 5.66084e-19)
(1.19376 -0.189667 -2.29771e-19)
(1.26386 -0.212837 4.35511e-19)
(1.31251 -0.230656 -3.84227e-19)
(0.0846143 0.0147333 -2.51975e-19)
(0.258237 0.0266452 2.93402e-19)
(0.433913 0.0118385 -2.04945e-19)
(0.602241 -0.0150969 1.41665e-18)
(0.75757 -0.0470141 7.49897e-19)
(0.896433 -0.0799632 -1.96371e-19)
(1.0168 -0.111123 7.63574e-19)
(1.11774 -0.138789 -4.99267e-19)
(1.1989 -0.162554 -1.60577e-19)
(1.25921 -0.182086 1.1601e-18)
(0.0646214 0.0153986 -4.65819e-19)
(0.207691 0.0328657 6.95509e-19)
(0.360995 0.0265409 -1.31901e-18)
(0.51407 0.00834335 2.28319e-19)
(0.660674 -0.0159006 5.69287e-19)
(0.796724 -0.0428682 -7.15393e-19)
(0.919384 -0.0699854 -1.26708e-18)
(1.02676 -0.0954615 6.79267e-19)
(1.11737 -0.118331 -8.83426e-19)
(1.18887 -0.137781 1.41377e-18)
(0.0467479 0.0138327 -1.15153e-19)
(0.160918 0.0332197 -7.00055e-19)
(0.291352 0.0327844 3.45574e-19)
(0.427131 0.0216704 8.64497e-19)
(0.561904 0.00426882 -4.64364e-19)
(0.691463 -0.0168718 -4.58271e-19)
(0.812687 -0.0396028 -7.76998e-19)
(0.923225 -0.0622187 -3.56045e-19)
(1.02088 -0.0832165 -8.55111e-20)
(1.10228 -0.100978 1.41287e-18)
(0.0312725 0.0105469 1.93353e-19)
(0.118983 0.0287969 -9.51009e-19)
(0.226881 0.0317891 1.62668e-18)
(0.344079 0.0258978 -9.05797e-19)
(0.464466 0.0140475 5.86887e-19)
(0.584083 -0.00206646 -7.30266e-19)
(0.699993 -0.0208428 8.13346e-19)
(0.809955 -0.0407836 7.1035e-19)
(0.911603 -0.0597947 1.55203e-18)
(1.00093 -0.0748629 -2.56587e-18)
(0.0183539 0.00610307 -6.00796e-19)
(0.0826187 0.0209218 1.20644e-18)
(0.169017 0.0252688 1.61056e-20)
(0.267069 0.022838 -4.34551e-19)
(0.371107 0.0151095 -2.30759e-19)
(0.477637 0.00287638 1.8445e-19)
(0.584264 -0.0129306 -1.3095e-18)
(0.689432 -0.0311995 1.01173e-18)
(0.79136 -0.0492481 -1.30393e-18)
(0.886067 -0.0617323 -5.95179e-19)
(0.0080618 0.00110901 1.03387e-18)
(0.0522654 0.0110963 -3.22519e-19)
(0.118765 0.0153346 -6.05024e-19)
(0.197762 0.0150258 1.64323e-18)
(0.284066 0.0102884 -1.61419e-18)
(0.374625 0.000983044 9.01879e-19)
(0.46763 -0.0128019 9.60555e-19)
(0.562515 -0.0307547 2.62852e-19)
(0.658931 -0.0501597 2.7338e-19)
(0.754586 -0.0623217 -3.87795e-19)
(0.000389943 -0.00380757 -9.88777e-19)
(0.0281223 0.000877376 9.39837e-19)
(0.0768175 0.00427772 -8.31729e-19)
(0.137575 0.00546826 1.04354e-18)
(0.205569 0.00345131 -3.11771e-19)
(0.27784 -0.00269681 -1.08282e-18)
(0.352552 -0.0137126 3.10521e-19)
(0.429301 -0.0305377 -5.12331e-19)
(0.509066 -0.0524357 -6.06809e-19)
(0.594201 -0.0694346 -1.89305e-18)
(-0.00476953 -0.008085 -1.2352e-18)
(0.0101504 -0.00838195 9.82016e-19)
(0.0436503 -0.0059335 -1.9241e-18)
(0.0880066 -0.00320286 3.44066e-19)
(0.138764 -0.00174867 -1.33302e-18)
(0.192823 -0.00253265 -7.99496e-19)
(0.247609 -0.00587709 1.91331e-18)
(0.301187 -0.0120009 -2.6158e-18)
(0.352912 -0.0214987 5.03489e-19)
(0.400062 -0.0302292 -8.29179e-19)
(-0.0076816 -0.0113469 6.08446e-19)
(-0.00204201 -0.0158369 2.57453e-19)
(0.0192608 -0.0143188 -7.65851e-20)
(0.0500733 -0.0102947 7.31187e-19)
(0.0867144 -0.00565202 2.14711e-18)
(0.12661 -0.00135086 7.41075e-19)
(0.167753 0.00241834 7.65746e-19)
(0.208944 0.00570555 -2.64774e-19)
(0.250261 0.0078539 -2.46991e-18)
(0.289146 0.00927987 6.26386e-19)
(-0.00878336 -0.0134238 -1.71777e-19)
(-0.00932614 -0.0210844 5.46737e-19)
(0.00265027 -0.0204993 -1.43228e-19)
(0.0227426 -0.0158129 1.01129e-18)
(0.0481836 -0.00919933 -2.33821e-18)
(0.0770277 -0.00181815 1.98476e-19)
(0.107847 0.00580405 -1.11284e-18)
(0.139864 0.0132605 1.63755e-18)
(0.172901 0.019587 -4.78637e-19)
(0.204302 0.024096 -6.8396e-20)
(-0.00858764 -0.0143039 -1.16939e-19)
(-0.0128305 -0.0240045 -6.57513e-19)
(-0.00771031 -0.0243064 1.65362e-18)
(0.00408461 -0.0196231 -8.71877e-19)
(0.0206676 -0.0123216 6.12743e-20)
(0.0406286 -0.00377771 2.79803e-19)
(0.0629283 0.00514093 -2.55719e-19)
(0.0869468 0.0136428 3.32335e-19)
(0.112271 0.0206272 1.15161e-18)
(0.136698 0.0252976 3.01361e-19)
(-0.00758372 -0.0140743 -2.62293e-19)
(-0.013695 -0.0246642 -2.91746e-19)
(-0.0134271 -0.0256988 -1.29496e-18)
(-0.00791695 -0.0215085 6.89529e-19)
(0.00174149 -0.0144877 -1.42223e-18)
(0.014587 -0.00610959 3.231e-19)
(0.0298605 0.00259723 3.63306e-19)
(0.0470228 0.0107235 -3.83951e-19)
(0.0655568 0.0172598 -2.48412e-19)
(0.0838199 0.0214832 -1.11642e-18)
(-0.0061871 -0.0128749 2.04905e-19)
(-0.0129396 -0.0232569 -4.8199e-20)
(-0.0159811 -0.0247651 9.77097e-22)
(-0.0151319 -0.0213404 -6.22321e-19)
(-0.0108105 -0.0152216 1.57538e-18)
(-0.00360983 -0.00783054 -2.45722e-19)
(0.00592645 -0.000190057 -6.13214e-19)
(0.0173246 0.00684639 7.50548e-19)
(0.0300491 0.0124615 -2.63759e-19)
(0.0429401 0.0160575 1.45789e-18)
(-0.00472412 -0.0108681 -3.84599e-20)
(-0.0114033 -0.02006 -2.25487e-19)
(-0.0166172 -0.021718 -8.89937e-20)
(-0.0191348 -0.0191474 -1.13694e-19)
(-0.0188295 -0.0142647 -2.44437e-19)
(-0.0159995 -0.00830779 -7.67625e-19)
(-0.0110169 -0.00217126 9.60207e-19)
(-0.00428857 0.00343576 5.60912e-19)
(0.00367313 0.0079035 -1.0048e-19)
(0.0120761 0.0107728 -8.94233e-19)
(-0.00343585 -0.00822495 2.18403e-19)
(-0.00972821 -0.0154093 3.81648e-20)
(-0.0163014 -0.0168854 2.58336e-19)
(-0.0211431 -0.0151389 -2.9569e-20)
(-0.0237162 -0.0116312 2.35234e-19)
(-0.0240957 -0.00731412 2.654e-19)
(-0.0225199 -0.00287334 3.97891e-19)
(-0.0193329 0.00116828 -1.12716e-18)
(-0.0150126 0.00439393 -2.08039e-19)
(-0.0100932 0.00648002 3.72848e-19)
(-0.0024898 -0.00512127 -1.10282e-19)
(-0.00837091 -0.00968518 -1.56744e-19)
(-0.0157254 -0.0106969 -7.5403e-20)
(-0.022025 -0.00969641 3.68807e-19)
(-0.0264588 -0.00759685 1.7902e-19)
(-0.0289503 -0.00499501 3.67132e-20)
(-0.029645 -0.00231921 -7.95969e-20)
(-0.0288384 0.000112249 -6.17458e-20)
(-0.026979 0.00205763 5.30002e-19)
(-0.0244391 0.00332448 -3.6097e-19)
(-0.00199134 -0.00173816 5.62207e-20)
(-0.00762188 -0.00330214 6.9954e-20)
(-0.0153305 -0.00366131 -5.96488e-20)
(-0.0223326 -0.00333696 -5.4558e-20)
(-0.0276802 -0.00263934 -5.65685e-20)
(-0.0312205 -0.00177154 -9.02643e-20)
(-0.0330509 -0.000878942 2.89903e-21)
(-0.0334404 -6.82308e-05 1.25241e-19)
(-0.0328214 0.000581462 -1.25752e-19)
(-0.0314887 0.00100627 2.28796e-19)
(-0.00811017 -0.00259299 1.65448e-20)
(0.0622937 -0.00663543 9.90067e-21)
(0.277411 -0.00672021 1.34337e-21)
(0.377442 -0.00436664 -9.04382e-22)
(0.479599 -0.0036597 -6.33861e-23)
(0.554172 -0.00263677 1.49369e-22)
(0.606225 -0.00219942 1.70493e-22)
(0.661145 -0.00163247 -3.579e-23)
(0.684122 -0.00149758 -2.28086e-24)
(0.734937 -0.00101402 2.41276e-22)
(0.0086928 -0.00807551 2.62329e-20)
(0.0775444 -0.0197212 1.24617e-21)
(0.288904 -0.0199988 -1.75277e-20)
(0.386193 -0.0130458 1.40885e-20)
(0.486311 -0.0109517 8.93111e-22)
(0.559409 -0.00787178 -6.0437e-22)
(0.610501 -0.00653503 7.04729e-22)
(0.664505 -0.00478013 7.5645e-23)
(0.687052 -0.00441387 1.57011e-22)
(0.737155 -0.00304315 -2.21216e-22)
(0.0420033 -0.014438 2.68763e-20)
(0.107572 -0.0323261 -3.61332e-20)
(0.311467 -0.0328184 1.79124e-20)
(0.403387 -0.0214243 -1.16737e-20)
(0.499501 -0.0180165 8.34545e-22)
(0.569713 -0.012955 -6.51722e-22)
(0.618924 -0.0107553 -2.63312e-22)
(0.671135 -0.00784763 3.51473e-24)
(0.692847 -0.00726424 -1.19712e-22)
(0.741553 -0.00503261 -3.23092e-22)
(0.0912189 -0.0221588 -4.16464e-20)
(0.151456 -0.044151 -5.01354e-20)
(0.344267 -0.0448936 -2.31559e-20)
(0.428417 -0.0293184 1.21653e-20)
(0.518715 -0.0247146 -1.46414e-20)
(0.584759 -0.0177932 3.89328e-21)
(0.63125 -0.0147889 -2.14276e-22)
(0.680865 -0.0107852 1.31776e-22)
(0.701373 -0.0100068 -1.42656e-22)
(0.748047 -0.00695676 1.19828e-22)
(0.155408 -0.0315103 1.15198e-19)
(0.207869 -0.0549083 7.23079e-20)
(0.386115 -0.0559609 2.60285e-20)
(0.460416 -0.0365658 -2.36374e-20)
(0.543308 -0.0309218 1.20215e-20)
(0.604081 -0.0223033 3.19883e-21)
(0.647127 -0.0185714 2.26114e-21)
(0.693447 -0.0135476 2.57289e-22)
(0.712439 -0.0126034 3.21397e-22)
(0.756519 -0.00879181 -6.36051e-22)
(0.233287 -0.0424199 -5.08646e-20)
(0.275138 -0.0642832 3.90066e-20)
(0.435529 -0.0657666 4.82005e-21)
(0.498302 -0.0430232 2.63749e-20)
(0.572476 -0.0365312 -5.97884e-21)
(0.627098 -0.0264148 -3.73669e-21)
(0.666117 -0.0220476 -2.33598e-21)
(0.708571 -0.0160962 -1.69573e-22)
(0.725801 -0.0150201 -1.69914e-22)
(0.766814 -0.0105159 6.80767e-22)
(0.323227 -0.0546074 -3.8698e-20)
(0.35129 -0.0720111 -1.00871e-19)
(0.490809 -0.0741078 -1.70992e-20)
(0.54084 -0.0485747 -1.46824e-20)
(0.605303 -0.0414601 7.02233e-21)
(0.653143 -0.0300722 -1.96198e-21)
(0.68771 -0.0251733 2.49932e-21)
(0.725872 -0.018399 4.73417e-22)
(0.74117 -0.0172286 -5.13956e-23)