1.45 	0 	0 	-0.00812075 	-0.00256984 	3.78399e-21
2.35 	0 	0 	0.0613544 	-0.00663108 	2.28725e-21
