1.275 	2.15223e-18 	-2.76991e-20 	-0.0329301 	-0.000495716 	-2.02033e-22
1.825 	2.15223e-18 	-1.39322e-20 	-0.00727097 	-0.00289087 	1.81281e-21
2.375 	2.15223e-18 	-2.66896e-23 	0.122502 	-0.00344699 	-7.55141e-22
