1.275 	2.15223e-18 	-2.76991e-20 	-0.0344228 	-0.00043741 	-1.9228e-22
1.825 	2.15223e-18 	-1.39322e-20 	-0.00939119 	-0.00276655 	1.70407e-21
2.375 	2.15223e-18 	-2.66896e-23 	0.115514 	-0.00325774 	-7.10974e-22
