1.45 	0 	0 	-0.3018
2.35 	0 	0 	-0.134211
