1.275 	2.15223e-18 	-2.76991e-20 	-0.0341746 	-0.000447608 	-1.97232e-22
1.825 	2.15223e-18 	-1.39322e-20 	-0.00894067 	-0.00276778 	1.76741e-21
2.375 	2.15223e-18 	-2.66896e-23 	0.116801 	-0.00325226 	-7.37816e-22
