/*--------------------------------*- C++ -*----------------------------------*\
  =========                 |
  \\      /  F ield         | OpenFOAM: The Open Source CFD Toolbox
   \\    /   O peration     | Website:  https://openfoam.org
    \\  /    A nd           | Version:  6.0
     \\/     M anipulation  |
\*---------------------------------------------------------------------------*/
FoamFile
{
    version     2.0;
    format      ascii;
    class       volVectorField;
    location    "9";
    object      U;
}
// * * * * * * * * * * * * * * * * * * * * * * * * * * * * * * * * * * * * * //

dimensions      [0 1 -1 0 0 0 0];

internalField   nonuniform List<vector> 
8000
(
(-0.000402166 0.000445794 -1.44243e-21)
(-0.00211223 0.00107137 8.40514e-21)
(-0.00517209 0.00147723 -1.04805e-20)
(-0.00880917 0.00171573 8.14672e-21)
(-0.0126237 0.00182483 4.0424e-21)
(-0.0163881 0.00183395 -1.23344e-20)
(-0.019939 0.0017671 -1.10156e-21)
(-0.0231687 0.00164385 -3.85952e-22)
(-0.0260136 0.00148028 -6.61364e-21)
(-0.0284425 0.00128983 -3.60175e-21)
(-0.030448 0.00108384 2.73875e-21)
(-0.0320405 0.000871993 1.03794e-20)
(-0.0332436 0.000662591 -8.22239e-22)
(-0.0340905 0.00046277 1.09465e-21)
(-0.0346215 0.000278607 -1.05956e-20)
(-0.034882 0.000115175 6.5502e-21)
(-0.0349208 -2.34276e-05 -9.36644e-21)
(-0.0347799 -0.000133896 1.42467e-20)
(-0.0344916 -0.000213402 -1.63209e-23)
(-0.0341638 -0.000261116 3.55456e-21)
(-0.000470027 0.00133278 4.78669e-21)
(-0.00226464 0.00320191 -2.67195e-20)
(-0.00535833 0.00441397 -1.89431e-20)
(-0.00899049 0.00512569 -1.31368e-20)
(-0.0127694 0.00545062 -1.72055e-20)
(-0.0164731 0.00547679 3.8349e-21)
(-0.0199435 0.00527589 -2.04154e-20)
(-0.0230764 0.00490634 -4.6065e-21)
(-0.0258112 0.00441619 1.53869e-21)
(-0.0281189 0.00384552 1.57405e-20)
(-0.029994 0.00322821 -1.72602e-20)
(-0.031448 0.00259321 2.41722e-20)
(-0.0325057 0.0019654 -1.81871e-20)
(-0.0332014 0.00136619 -2.16199e-20)
(-0.0335762 0.000813872 -2.9784e-20)
(-0.0336767 0.000323758 1.92908e-20)
(-0.0335524 -9.17492e-05 -6.11978e-21)
(-0.0332463 -0.000422583 -2.25142e-20)
(-0.0327908 -0.000660078 2.14159e-20)
(-0.0322976 -0.000801813 -1.84467e-20)
(-0.00060434 0.00220251 4.68115e-20)
(-0.00256526 0.00528591 2.66551e-20)
(-0.00572395 0.00728143 3.06431e-20)
(-0.00934385 0.00844907 2.61749e-21)
(-0.0130492 0.00897708 1.75964e-20)
(-0.0166301 0.00901123 2.21826e-20)
(-0.019938 0.00866994 -4.11237e-20)
(-0.0228763 0.00804967 -2.19173e-20)
(-0.0253904 0.00722965 -2.88282e-20)
(-0.0274556 0.00627601 3.10483e-20)
(-0.0290697 0.0052447 -2.39002e-20)
(-0.0302471 0.00418363 -3.09024e-20)
(-0.0310146 0.00313414 -1.13525e-20)
(-0.0314084 0.00213195 1.08271e-20)
(-0.0314715 0.00120772 -2.86581e-21)
(-0.0312525 0.000387275 4.45621e-21)
(-0.030803 -0.000308349 5.02747e-20)
(-0.0301674 -0.000861876 -7.31622e-21)
(-0.0293784 -0.00125823 -5.12803e-20)
(-0.0285558 -0.00149364 7.83743e-20)
(-0.000802222 0.00304354 1.64728e-20)
(-0.00300555 0.00729255 -2.51485e-20)
(-0.00625495 0.0100339 -6.54816e-21)
(-0.00985028 0.0116291 1.24913e-20)
(-0.01344 0.0123396 3.59012e-20)
(-0.0168322 0.0123672 7.97077e-20)
(-0.0198929 0.0118758 7.88994e-20)
(-0.022537 0.0109982 6.62387e-21)
(-0.0247185 0.0098436 4.93584e-20)
(-0.0264193 0.00850317 7.61758e-20)
(-0.0276421 0.00705408 -6.10301e-20)
(-0.0284052 0.00556269 9.14043e-20)
(-0.0287387 0.00408655 -2.05196e-20)
(-0.0286813 0.00267569 5.41559e-21)
(-0.0282788 0.00137345 2.16392e-20)
(-0.0275826 0.000216586 2.87179e-20)
(-0.0266474 -0.000764614 -4.59098e-20)
(-0.0255196 -0.00154488 -3.82118e-20)
(-0.0242329 -0.00210174 -6.74527e-20)
(-0.0229195 -0.00243052 1.14091e-19)
(-0.00105928 0.00384448 -8.52177e-21)
(-0.00357244 0.00919129 -9.63091e-20)
(-0.00692992 0.0126265 -2.92375e-20)
(-0.0104808 0.0146106 -7.25682e-20)
(-0.0139063 0.0154758 2.80321e-20)
(-0.0170385 0.0154781 -4.46143e-20)
(-0.0197631 0.0148243 1.57035e-20)
(-0.0220103 0.0136819 -9.67272e-20)
(-0.0237454 0.0121879 5.16879e-20)
(-0.024959 0.010457 -6.19739e-20)
(-0.0256604 0.00858637 -5.54002e-20)
(-0.0258726 0.00666002 -6.23534e-20)
(-0.0256296 0.00475127 5.68035e-20)
(-0.0249737 0.0029245 -5.119e-20)
(-0.0239539 0.00123606 7.16311e-20)
(-0.0226252 -0.000265666 2.05913e-20)
(-0.0210464 -0.00154029 5.10438e-20)
(-0.0192666 -0.00255334 2.22278e-20)
(-0.0173208 -0.00327345 -8.91523e-20)
(-0.0153596 -0.00369572 1.68065e-19)
(-0.00136951 0.004594 3.82671e-20)
(-0.00424806 0.0109519 2.92085e-21)
(-0.00771956 0.0150153 1.76591e-20)
(-0.0111957 0.0173401 6.26461e-20)
(-0.0143992 0.0183265 -9.47974e-21)
(-0.0171927 0.0182818 1.05085e-19)
(-0.0194865 0.0174528 4.73441e-20)
(-0.0212296 0.0160387 4.11569e-21)
(-0.0224019 0.0142021 1.23662e-19)
(-0.0230044 0.0120789 4.06416e-20)
(-0.0230542 0.00978464 1.94799e-20)
(-0.02258 0.00741975 6.21579e-20)
(-0.0216203 0.00507269 5.71328e-20)
(-0.0202213 0.00282207 1.04361e-19)
(-0.0184357 0.000737676 -9.39972e-20)
(-0.0163226 -0.00111959 1.32229e-19)
(-0.0139459 -0.00269803 1.0504e-21)
(-0.011358 -0.00395224 -1.69754e-19)
(-0.00859599 -0.00483992 2.20162e-19)
(-0.00583524 -0.00535682 1.05196e-19)
(-0.00172518 0.00528072 -2.24241e-20)
(-0.00500933 0.0125444 -4.52087e-20)
(-0.00858601 0.0171574 -9.59717e-20)
(-0.0119438 0.0197666 -2.94339e-21)
(-0.0148559 0.0208364 1.71708e-20)
(-0.0172222 0.0207218 -1.28563e-19)
(-0.0189826 0.0197061 -9.64579e-20)
(-0.020109 0.0180165 -1.40301e-20)
(-0.0205981 0.015838 -1.24255e-19)
(-0.0204638 0.013325 -8.64886e-20)
(-0.0197316 0.010609 -2.53914e-20)
(-0.0184369 0.00780522 -8.22115e-20)
(-0.0166229 0.00501617 -1.57653e-21)
(-0.0143397 0.00233439 -1.09956e-19)
(-0.0116439 -0.000156439 4.59469e-20)
(-0.00859923 -0.00238184 -5.29781e-20)
(-0.00527507 -0.00427716 4.00966e-20)
(-0.00172785 -0.00578373 -5.22387e-20)
(0.00200234 -0.00684548 -1.47558e-19)
(0.00570721 -0.00745997 -5.19512e-20)
(-0.00211656 0.00589307 -8.78367e-21)
(-0.00582747 0.013939 -1.03926e-20)
(-0.00948217 0.0190111 8.08097e-20)
(-0.0126613 0.0218416 -1.34516e-19)
(-0.0151982 0.0229546 1.99963e-20)
(-0.0170366 0.0227484 -8.02917e-20)
(-0.0181511 0.0215382 3.80516e-20)
(-0.0185405 0.019575 1.73114e-19)
(-0.0182213 0.0170624 -1.16282e-20)
(-0.0172214 0.0141694 -1.31149e-19)
(-0.0155765 0.0110407 2.39083e-20)
(-0.0133288 0.00780371 4.90065e-21)
(-0.010526 0.00457356 -2.67964e-20)
(-0.00722193 0.00145603 3.40405e-21)
(-0.00347684 -0.00145104 2.40074e-19)
(0.000640779 -0.0040584 -3.47094e-20)
(0.0050558 -0.00628634 -6.68565e-20)
(0.0097074 -0.00805978 -1.19296e-19)
(0.0145512 -0.00930512 1.22616e-19)
(0.0193362 -0.010023 6.11679e-20)
(-0.00253174 0.00641925 4.26578e-20)
(-0.00666735 0.015106 -6.14123e-20)
(-0.0103508 0.0205358 8.87661e-20)
(-0.013271 0.0235195 9.14517e-20)
(-0.0153314 0.0246351 8.54617e-20)
(-0.0165262 0.024319 1.74987e-19)
(-0.0168702 0.022913 1.14173e-19)
(-0.016393 0.0206872 -2.47848e-19)
(-0.0151334 0.0178586 1.27763e-19)
(-0.0131355 0.0146067 1.00663e-19)
(-0.0104458 0.0110855 -1.80412e-21)
(-0.00711359 0.00743127 1.13578e-19)
(-0.00319107 0.00376925 8.81516e-20)
(0.00126504 0.000217156 -4.88368e-20)
(0.00619174 -0.00311306 1.63222e-19)
(0.0115164 -0.00611613 -2.03642e-19)
(0.017158 -0.00869481 8.12559e-20)
(0.0230513 -0.0107535 1.04288e-19)
(0.029146 -0.0121959 -2.41937e-20)
(0.0351373 -0.0130271 2.43497e-19)
(-0.00295623 0.00684702 8.76048e-20)
(-0.00748686 0.0160154 5.28841e-21)
(-0.0111239 0.0216923 -3.47693e-20)
(-0.0136816 0.0247578 -3.71839e-20)
(-0.0151436 0.025837 -1.76078e-19)
(-0.0155614 0.0253985 2.59766e-20)
(-0.0149954 0.0238052 7.21245e-20)
(-0.0135097 0.02134 -3.55664e-20)
(-0.0111687 0.0182283 2.94373e-20)
(-0.00803447 0.0146548 -7.89717e-21)
(-0.00416552 0.0107774 -3.85731e-20)
(0.000381747 0.00673727 3.70835e-20)
(0.00555121 0.00266604 -1.58686e-19)
(0.0112844 -0.00130903 1.53828e-19)
(0.017517 -0.00506274 -1.32392e-19)
(0.0241734 -0.00847292 4.14017e-20)
(0.0311676 -0.0114219 9.29823e-20)
(0.0384302 -0.0137884 -1.98744e-20)
(0.0459038 -0.0154466 -6.45344e-20)
(0.0532157 -0.0164068 -5.0944e-20)
(-0.00337265 0.00716376 -1.10806e-19)
(-0.00823633 0.0166378 -7.95911e-21)
(-0.0117219 0.0224428 2.59778e-20)
(-0.0137869 0.025517 6.75207e-20)
(-0.014505 0.0265246 -9.67851e-20)
(-0.0139918 0.0259596 -8.52453e-20)
(-0.0123583 0.0241996 2.00229e-19)
(-0.00970741 0.0215344 -1.12652e-19)
(-0.00613221 0.0181915 -7.28532e-20)
(-0.0017149 0.0143548 -1.04599e-19)
(0.00347252 0.0101803 6.95787e-20)
(0.00936605 0.00580796 -2.51407e-21)
(0.0159064 0.00137079 -1.31231e-19)
(0.0230348 -0.00299852 -2.1303e-19)
(0.0306879 -0.00716383 1.6336e-19)
(0.0387896 -0.0109861 -1.31201e-19)
(0.0472501 -0.0143245 1.86802e-19)
(0.0559977 -0.0170253 -5.29411e-20)
(0.0649665 -0.0189243 1.08116e-19)
(0.0737002 -0.0200369 -4.33296e-19)
(-0.00376042 0.00735657 -2.2941e-19)
(-0.00885815 0.0169439 1.63486e-19)
(-0.012054 0.0227515 2.22569e-20)
(-0.0134662 0.0257613 4.56144e-21)
(-0.0132685 0.0266671 -1.0459e-19)
(-0.0116466 0.0259817 1.55914e-19)
(-0.00876709 0.0240903 1.6479e-20)
(-0.00477581 0.0212836 -3.22356e-20)
(0.000202063 0.0177848 -1.04721e-19)
(0.00606123 0.0137704 1.13813e-19)
(0.0127143 0.00938762 2.8827e-19)
(0.0200887 0.00476793 -6.4378e-20)
(0.0281221 3.83571e-05 1.44709e-19)
(0.0367574 -0.00466945 -1.7023e-19)
(0.0459347 -0.00921321 -1.62612e-19)
(0.0555811 -0.013439 9.87012e-20)
(0.0656067 -0.0171809 1.60653e-19)
(0.0759399 -0.0202457 -5.22823e-19)
(0.0865069 -0.0224178 6.2756e-20)
(0.096749 -0.0237157 9.75183e-20)
(-0.00409557 0.00741258 1.71295e-19)
(-0.00928668 0.0169061 6.39888e-20)
(-0.0120179 0.0225854 3.25384e-19)
(-0.0125855 0.0254587 1.70374e-20)
(-0.0112713 0.0262389 -3.65764e-20)
(-0.00833655 0.02545 -1.76931e-19)
(-0.00400818 0.0234786 1.5301e-19)
(0.00152111 0.0206101 2.76061e-19)
(0.00809027 0.0170575 1.83234e-19)
(0.0155674 0.0129835 1.3353e-19)
(0.0238467 0.00851887 1.15182e-19)
(0.0328448 0.00377802 -2.07064e-19)
(0.0424956 -0.00112761 -6.39056e-20)
(0.0527446 -0.00607722 -4.75449e-20)
(0.063539 -0.0109311 5.09666e-19)
(0.0748137 -0.0155263 -3.35612e-21)
(0.0864843 -0.0196729 -1.26092e-19)
(0.0984851 -0.0231304 -3.7383e-20)
(0.110738 -0.0256155 3.62352e-19)
(0.122559 -0.0271434 5.59752e-20)
(-0.00435073 0.00731955 -6.76743e-21)
(-0.00944883 0.0164991 -1.77249e-19)
(-0.011502 0.0219155 -2.68144e-19)
(-0.0109992 0.0245819 -7.57232e-20)
(-0.00833744 0.0252189 4.32246e-20)
(-0.00385758 0.0243542 9.72553e-21)
(0.00214976 0.0223697 2.45832e-19)
(0.00944123 0.0195405 -3.07607e-19)
(0.017816 0.0160646 -1.17937e-19)
(0.0271113 0.0120853 -2.37072e-19)
(0.0371986 0.00770997 -2.01597e-19)
(0.0479795 0.00302664 -1.78624e-19)
(0.0593817 -0.00188042 4.51044e-20)
(0.0713524 -0.00691498 -5.8215e-20)
(0.0838485 -0.0119543 2.47047e-19)
(0.0968184 -0.0168392 -1.3728e-19)
(0.110192 -0.0213626 -4.22537e-19)
(0.12392 -0.0252321 -8.22395e-20)
(0.137928 -0.0280753 2.07497e-19)
(0.151385 -0.0298905 -2.10362e-19)
(-0.00449546 0.00706673 -2.66853e-20)
(-0.0092653 0.015702 2.22942e-19)
(-0.0103873 0.0207185 -2.87322e-19)
(-0.00855453 0.0231099 6.6938e-20)
(-0.00428354 0.0235913 -1.38592e-19)
(0.00200314 0.0226868 3.14318e-19)
(0.00994887 0.0207688 -2.25353e-19)
(0.019257 0.0180986 2.58187e-19)
(0.0296833 0.0148562 -2.47517e-19)
(0.0410295 0.0111624 1.04474e-19)
(0.0531384 0.00709624 -5.1955e-20)
(0.0658906 0.00271143 -1.29011e-19)
(0.079201 -0.00194716 -1.58242e-19)
(0.0930148 -0.00682499 1.57617e-19)
(0.107298 -0.0118377 -1.31586e-19)
(0.122018 -0.0168526 -2.84569e-19)
(0.137128 -0.0216652 2.96537e-19)
(0.152615 -0.0259353 -3.75501e-19)
(0.168429 -0.0291764 1.68243e-19)
(0.183564 -0.0313455 4.26242e-21)
(-0.00449692 0.00664598 -2.6326e-19)
(-0.00865268 0.0145004 -3.05857e-19)
(-0.00855128 0.0189796 3.51158e-20)
(-0.0050964 0.0210295 -3.00762e-19)
(0.00107482 0.021346 -2.69797e-20)
(0.00945838 0.0204423 -2.23987e-19)
(0.0196315 0.0186773 -5.19294e-20)
(0.0312433 0.0162971 -1.52094e-19)
(0.0440038 0.013464 5.26953e-22)
(0.0576749 0.0102767 -6.74921e-20)
(0.0720646 0.00678552 3.30032e-21)
(0.0870237 0.0030063 -1.92943e-19)
(0.102445 -0.00106453 2.09935e-19)
(0.118261 -0.00543123 -3.00309e-19)
(0.13444 -0.0100747 1.04504e-19)
(0.150968 -0.0149255 2.60857e-21)
(0.167833 -0.0198216 -1.65868e-19)
(0.185083 -0.0244016 4.06598e-19)
(0.202737 -0.0280481 -9.72921e-20)
(0.21959 -0.0306409 -7.33336e-20)
(-0.00432103 0.00605308 2.9955e-19)
(-0.00752642 0.0128893 1.73819e-19)
(-0.00587264 0.0166952 1.62311e-19)
(-0.000474097 0.0183385 2.39751e-20)
(0.00791402 0.0184806 2.25657e-19)
(0.0187094 0.0176172 3.25706e-19)
(0.0314259 0.0160903 2.68695e-19)
(0.0456599 0.0141309 2.2204e-20)
(0.061076 0.0118872 1.96461e-19)
(0.0773944 0.00944123 3.05157e-19)
(0.0943836 0.00682098 -7.97171e-20)
(0.111856 0.00400976 1.33652e-19)
(0.12967 0.000956022 1.09063e-19)
(0.147728 -0.00241257 1.10004e-19)
(0.165985 -0.00616736 6.37164e-19)
(0.184432 -0.0103491 -2.39451e-19)
(0.203092 -0.0149106 -1.43462e-20)
(0.222105 -0.0195487 2.68214e-19)
(0.241644 -0.0235379 -1.51106e-19)
(0.260303 -0.0266287 8.8771e-20)
(-0.00393398 0.00528904 -2.47012e-19)
(-0.00580453 0.0108754 1.92377e-20)
(-0.00223674 0.0138767 -2.13919e-19)
(0.00545109 0.0150494 -2.64177e-20)
(0.0163923 0.015005 1.59693e-19)
(0.0299326 0.0142136 -4.75098e-19)
(0.045528 0.0129974 3.05814e-21)
(0.0627275 0.0115735 2.2246e-19)
(0.0811549 0.0100814 2.09709e-19)
(0.100492 0.00859655 -9.28776e-20)
(0.120467 0.00713903 2.99248e-20)
(0.140851 0.00567728 7.13018e-20)
(0.161456 0.00413001 -3.41525e-20)
(0.182139 0.00236956 -3.72529e-19)
(0.202812 0.000230467 9.53787e-20)
(0.223438 -0.00247748 2.53822e-19)
(0.244043 -0.00592338 -3.5972e-19)
(0.264868 -0.0100229 1.75903e-19)
(0.286385 -0.0140377 4.49863e-20)
(0.307082 -0.0175225 2.69889e-19)
(-0.00330397 0.00436129 -3.82804e-20)
(-0.0034116 0.00848002 -1.87779e-19)
(0.00245859 0.0105534 8.52152e-20)
(0.0127982 0.011194 -2.33653e-21)
(0.0266395 0.0109463 -3.85465e-19)
(0.043265 0.0102458 6.09481e-20)
(0.0620819 0.00939009 -1.0543e-20)
(0.0826008 0.00858258 7.82937e-20)
(0.104414 0.0079589 -3.60269e-19)
(0.127175 0.00759951 -2.30637e-20)
(0.150584 0.00753606 -8.2668e-20)
(0.174377 0.00775228 7.74316e-20)
(0.198321 0.00817969 2.53581e-19)
(0.222216 0.00868995 -3.97496e-20)
(0.245901 0.00908313 1.41595e-20)
(0.269247 0.00906049 9.98721e-20)
(0.292178 0.00821493 -2.39253e-20)
(0.314935 0.00631352 1.84595e-19)
(0.338419 0.00402269 -1.17964e-19)
(0.361393 0.00163765 -1.98755e-19)
(-0.002403 0.00328443 3.46262e-20)
(-0.000282584 0.00574073 7.86263e-21)
(0.00829791 0.00677688 7.7497e-20)
(0.0216602 0.006829 1.89871e-19)
(0.0387484 0.00635722 1.06247e-19)
(0.0587928 0.00575112 1.06706e-20)
(0.0811622 0.0052762 -1.28681e-19)
(0.105341 0.00511781 3.38765e-20)
(0.130904 0.00540768 1.73426e-19)
(0.157497 0.00623664 -2.9624e-19)
(0.184813 0.00766238 2.24307e-19)
(0.212589 0.00971287 -1.68757e-19)
(0.240587 0.0123854 1.43048e-19)
(0.268597 0.0156415 -3.07589e-19)
(0.296424 0.0193908 3.3501e-19)
(0.323871 0.0234425 -3.5962e-19)
(0.350721 0.0274668 -9.05657e-20)
(0.37704 0.0313024 2.74983e-19)
(0.403821 0.0355698 -9.97247e-20)
(0.430151 0.0385675 4.25445e-20)
(-0.00120836 0.00208038 -2.73222e-20)
(0.00363407 0.00271235 2.70586e-19)
(0.0153444 0.00262227 -3.3589e-21)
(0.0320995 0.0020404 -1.70083e-19)
(0.0527696 0.00132419 -1.14131e-19)
(0.0765435 0.000804114 2.11652e-19)
(0.102762 0.000701941 -8.4726e-20)
(0.130895 0.00117435 -1.1033e-20)
(0.160515 0.00233901 1.74363e-19)
(0.191278 0.00428698 -2.20477e-19)
(0.222907 0.00709233 2.34254e-20)
(0.255188 0.0108199 -2.86688e-19)
(0.287972 0.0155322 1.50699e-19)
(0.321189 0.0212956 -4.33335e-19)
(0.354878 0.0281795 6.90482e-19)
(0.389255 0.0362381 -1.25392e-19)
(0.424889 0.0455304 1.31445e-19)
(0.463183 0.0562308 -3.4743e-19)
(0.507003 0.0677764 4.96183e-21)
(0.560866 0.0743821 4.87732e-19)
(0.000296389 0.000777828 -8.46836e-20)
(0.0083747 -0.000533731 7.71287e-20)
(0.0236385 -0.0018104 -2.8156e-19)
(0.0441469 -0.00305329 4.19245e-19)
(0.0687112 -0.00402512 -3.04363e-19)
(0.0964878 -0.00446919 1.51641e-20)
(0.126797 -0.00422186 -3.29031e-19)
(0.159098 -0.00317082 2.36658e-19)
(0.192968 -0.00123154 -3.53344e-20)
(0.22808 0.0016619 -2.10591e-19)
(0.264191 0.00556325 -1.21867e-19)
(0.301142 0.0105181 1.28982e-19)
(0.338869 0.0165639 8.58567e-20)
(0.377424 0.0237232 -3.85316e-19)
(0.417014 0.0319793 1.40696e-19)
(0.458073 0.0412291 -2.06598e-19)
(0.501405 0.0512504 2.26163e-20)
(0.548387 0.061582 -1.8143e-19)
(0.600653 0.0703962 8.32813e-20)
(0.658874 0.0723158 -3.35198e-19)
(0.00212124 -0.000588927 2.38528e-19)
(0.0139601 -0.00391151 -1.51964e-19)
(0.0331977 -0.00639802 1.25964e-19)
(0.0578042 -0.00830117 -1.59258e-19)
(0.0865451 -0.00951947 2.71554e-19)
(0.118551 -0.00988394 -5.86257e-21)
(0.153124 -0.00930327 -3.31687e-20)
(0.189715 -0.00772503 -2.46791e-20)
(0.227899 -0.00511617 1.52394e-19)
(0.267355 -0.00145873 2.58645e-19)
(0.307856 0.00325157 -1.55677e-19)
(0.349263 0.00900339 1.50029e-19)
(0.391534 0.0157621 2.75592e-19)
(0.434736 0.0234528 -1.96163e-19)
(0.479062 0.0319253 -4.00765e-19)
(0.524858 0.0409044 7.37277e-19)
(0.572676 0.0499538 -1.33613e-19)
(0.623288 0.0583457 -4.48455e-20)
(0.677171 0.064259 4.84958e-19)
(0.733599 0.0641011 -1.24325e-19)
(0.00427017 -0.00198176 -3.92941e-19)
(0.0203965 -0.00732391 -2.78464e-19)
(0.0440197 -0.0109986 -1.06965e-19)
(0.0730483 -0.0135247 2.07174e-19)
(0.106215 -0.014949 -4.69471e-19)
(0.142628 -0.0152021 2.42516e-19)
(0.181574 -0.0142764 3.07034e-20)
(0.222488 -0.0121911 2.97651e-20)
(0.264937 -0.00897698 -3.22892e-19)
(0.30859 -0.00467668 -1.15244e-19)
(0.353208 0.000652231 -2.02854e-19)
(0.398637 0.00693176 1.9609e-19)
(0.444802 0.014053 5.56737e-20)
(0.491712 0.0218577 9.58914e-21)
(0.539449 0.0301091 2.61293e-19)
(0.588172 0.0384582 -2.66427e-19)
(0.638114 0.0464322 -1.14224e-20)
(0.689543 0.0533495 5.70428e-21)
(0.742318 0.0577566 3.61061e-20)
(0.795487 0.0573093 2.60511e-19)
(0.00674206 -0.00336061 1.26593e-19)
(0.0276774 -0.010667 3.45675e-19)
(0.0560843 -0.0154573 2.7767e-19)
(0.0898358 -0.0185256 -9.56119e-20)
(0.127642 -0.0200763 3.32334e-19)
(0.168596 -0.0201479 -2.86263e-20)
(0.211965 -0.0188246 -4.0061e-20)
(0.257167 -0.0162044 2.38683e-20)
(0.30375 -0.0123874 3.28046e-19)
(0.351359 -0.00748067 1.92758e-19)
(0.39973 -0.00160348 5.62142e-20)
(0.448666 0.0051058 3.48799e-21)
(0.498037 0.01248 -3.80157e-19)
(0.547766 0.0203093 3.32288e-19)
(0.597815 0.0283213 5.78249e-20)
(0.648173 0.0361655 -9.53308e-20)
(0.698849 0.0434243 -4.18766e-19)
(0.74982 0.0495557 -3.6489e-20)
(0.800698 0.0534466 1.69348e-19)
(0.850637 0.0535297 -3.93413e-20)
(0.00953185 -0.00468513 -3.20537e-19)
(0.0357859 -0.0138342 1.42789e-19)
(0.0693563 -0.0196132 -6.977e-19)
(0.108106 -0.0230957 2.86167e-19)
(0.150733 -0.0246497 -2.29982e-19)
(0.196319 -0.0244273 1.70648e-19)
(0.244113 -0.0226091 -2.65177e-19)
(0.293514 -0.0193746 2.51528e-20)
(0.344044 -0.0148944 -1.3207e-20)
(0.395323 -0.00933757 7.15013e-20)
(0.447046 -0.00287903 1.03982e-19)
(0.498973 0.00429454 -1.99053e-19)
(0.550913 0.0119771 1.05542e-19)
(0.60271 0.0199341 9.76792e-20)
(0.654231 0.0278919 4.25311e-19)
(0.705346 0.0355341 -1.8614e-19)
(0.755931 0.0425236 -1.25239e-19)
(0.805821 0.0484532 2.12413e-19)
(0.854558 0.0524571 1.16307e-19)
(0.901457 0.053475 -2.70369e-19)
(0.0126315 -0.00591605 2.82159e-19)
(0.0446956 -0.0167201 2.88626e-19)
(0.0837872 -0.0233054 8.38078e-20)
(0.127781 -0.0270262 3.53087e-19)
(0.175378 -0.0284173 1.72194e-19)
(0.225648 -0.0277475 -3.15483e-19)
(0.277828 -0.0252953 4.78796e-19)
(0.331299 -0.0213223 -2.37734e-19)
(0.385557 -0.0160675 2.37226e-19)
(0.440192 -0.00975759 3.07601e-19)
(0.494866 -0.00261513 -1.77126e-19)
(0.549296 0.00513627 3.39164e-20)
(0.603241 0.0132665 1.89497e-19)
(0.656489 0.0215338 1.34202e-19)
(0.70884 0.0296791 3.11255e-19)
(0.760098 0.0374299 -1.25409e-19)
(0.810069 0.0445242 -1.54608e-20)
(0.85853 0.0506589 2.01268e-19)
(0.905023 0.0551431 -4.32581e-20)
(0.949004 0.0572723 9.99001e-22)
(0.0160307 -0.00701594 -1.46865e-19)
(0.0543727 -0.0192232 -5.68629e-19)
(0.099316 -0.0263787 1.3414e-19)
(0.148771 -0.0301164 -1.03291e-19)
(0.201448 -0.0311386 -2.37259e-19)
(0.25642 -0.0298322 -1.68834e-19)
(0.312912 -0.0265737 -1.04125e-19)
(0.370289 -0.0217052 2.58252e-19)
(0.428029 -0.0155312 -1.54347e-19)
(0.485696 -0.00833107 -1.58601e-19)
(0.542925 -0.000368036 -2.0118e-19)
(0.599402 0.00810591 -3.34954e-20)
(0.654853 0.016846 -2.32405e-20)
(0.70903 0.0256113 -4.72325e-19)
(0.7617 0.0341626 2.30276e-19)
(0.812637 0.0422682 -3.05336e-19)
(0.861621 0.0497256 9.65279e-20)
(0.908413 0.0563074 -7.40744e-19)
(0.952588 0.0614529 2.24411e-19)
(0.993715 0.0647205 3.42561e-19)
(0.0197172 -0.00794953 -3.6018e-20)
(0.0647758 -0.0212478 2.77424e-19)
(0.11587 -0.0286874 1.83546e-20)
(0.170966 -0.0321794 4.29351e-20)
(0.228801 -0.0325933 -8.76872e-20)
(0.288453 -0.0304336 -1.82568e-21)
(0.349147 -0.0261737 -1.56289e-21)
(0.410238 -0.0202341 -5.25596e-20)
(0.471191 -0.0129813 1.91621e-19)
(0.531557 -0.00474312 7.45385e-20)
(0.590951 0.00418208 3.38467e-19)
(0.649044 0.0135197 -9.34588e-20)
(0.705545 0.0230153 6.51701e-20)
(0.760195 0.0324324 -8.41702e-21)
(0.812751 0.0415507 1.82847e-19)
(0.862984 0.0501721 1.12589e-19)
(0.910678 0.0581394 2.73053e-19)
(0.955602 0.0652794 -4.44426e-19)
(0.997384 0.0711354 5.63261e-19)
(1.03568 0.0754655 -2.16074e-19)
(0.0236764 -0.00868381 -3.35617e-19)
(0.0758562 -0.0227048 -1.10088e-19)
(0.133362 -0.0300978 8.8924e-20)
(0.194243 -0.0330468 5.62807e-20)
(0.257272 -0.032587 5.79687e-20)
(0.321546 -0.029339 5.74434e-20)
(0.386296 -0.0238712 -1.4757e-19)
(0.450879 -0.0166798 -5.99757e-20)
(0.514757 -0.00819017 1.97966e-20)
(0.577475 0.00122577 -1.82451e-19)
(0.638646 0.0112385 -8.25477e-20)
(0.697939 0.0215549 5.04621e-19)
(0.755066 0.031914 -1.314e-19)
(0.809772 0.0420843 -1.81804e-19)
(0.861828 0.0518623 -8.66626e-20)
(0.911022 0.0610774 6.06447e-20)
(0.95716 0.0696063 7.41295e-20)
(1.00004 0.0773161 -3.57892e-19)
(1.03934 0.0838387 5.20963e-19)
(1.07481 0.089084 -5.44875e-19)
(0.0278917 -0.00918783 -3.70612e-20)
(0.0875571 -0.0235127 1.11424e-20)
(0.151696 -0.0304897 -1.45698e-20)
(0.218459 -0.032571 2.15596e-19)
(0.286677 -0.0309544 1.20638e-20)
(0.355474 -0.0263744 7.95877e-20)
(0.424099 -0.0194916 -1.68702e-19)
(0.491922 -0.0108749 -5.85544e-21)
(0.558413 -0.00100471 2.36553e-19)
(0.623126 0.00970661 3.29044e-20)
(0.685685 0.0209023 -2.08744e-19)
(0.745772 0.0322739 -1.845e-20)
(0.803119 0.0435562 -1.73445e-19)
(0.857493 0.0545235 1.74512e-19)
(0.908695 0.0649876 2.43557e-19)
(0.956547 0.0748007 -2.70577e-20)
(1.00089 0.0838659 -3.30008e-20)
(1.04156 0.0920831 1.01405e-19)
(1.07832 0.0991627 -3.27416e-19)
(1.11094 0.105129 3.4835e-19)
(0.0323431 -0.00943268 3.74143e-20)
(0.099813 -0.0235971 -2.58403e-19)
(0.170756 -0.0297575 7.07948e-20)
(0.243456 -0.0306267 -2.15919e-19)
(0.316811 -0.0275611 7.58031e-20)
(0.38999 -0.0214057 -2.79207e-19)
(0.462274 -0.01291 1.13695e-19)
(0.533054 -0.00271126 -3.69291e-20)
(0.601825 0.00865884 -1.51287e-21)
(0.668163 0.0207518 3.77264e-20)
(0.731719 0.0331877 -1.38557e-19)
(0.792203 0.0456464 -1.99456e-19)
(0.84938 0.0578611 -4.11224e-20)
(0.903058 0.0696134 -1.86194e-20)
(0.95308 0.0807299 -4.76669e-20)
(0.999315 0.0910837 -1.56231e-20)
(1.04165 0.1006 -4.70506e-20)
(1.07998 0.109209 -4.10147e-20)
(1.11412 0.116691 -1.2237e-19)
(1.14391 0.123154 2.29136e-19)
(0.0370073 -0.00939138 8.9628e-20)
(0.112549 -0.0228916 -1.05028e-19)
(0.190418 -0.0278102 2.26178e-19)
(0.269055 -0.0271111 -9.93264e-20)
(0.347451 -0.0223034 2.66819e-19)
(0.424828 -0.0143382 4.90825e-21)
(0.500515 -0.00404875 1.35524e-19)
(0.573943 0.00786386 -3.74078e-20)
(0.644642 0.020822 1.54271e-19)
(0.712226 0.0343459 1.08974e-20)
(0.776386 0.0480375 3.73981e-19)
(0.836878 0.0615693 -2.60619e-19)
(0.893515 0.0746765 3.54796e-20)
(0.946156 0.0871508 6.82859e-20)
(0.994701 0.0988352 3.5968e-19)
(1.03907 0.109623 -1.30267e-19)
(1.07922 0.119463 -2.59091e-20)
(1.11509 0.128309 -1.37492e-19)
(1.14657 0.136012 -1.42327e-20)
(1.17356 0.142735 8.17986e-20)
(0.0418566 -0.00903912 -4.08065e-20)
(0.12568 -0.0213379 1.28462e-19)
(0.210539 -0.0245725 -1.33243e-19)
(0.295063 -0.0219447 5.22223e-20)
(0.378352 -0.0151086 -6.45208e-20)
(0.459703 -0.00511525 2.36242e-19)
(0.538504 0.00712465 -3.41692e-20)
(0.614243 0.0208526 8.17708e-20)
(0.686501 0.0354511 -4.95545e-20)
(0.754945 0.0504157 -1.7602e-21)
(0.819322 0.0653359 5.71236e-20)
(0.879447 0.0798825 -4.5028e-20)
(0.935193 0.0937978 1.17749e-19)
(0.986485 0.106887 -5.93165e-20)
(1.03329 0.119014 -2.63041e-19)
(1.07559 0.130093 2.63385e-19)
(1.1134 0.140093 -1.19118e-19)
(1.14673 0.149 9.57067e-20)
(1.17554 0.156727 1.6616e-19)
(1.19978 0.163471 8.05359e-20)
(0.0468593 -0.0083535 1.02025e-19)
(0.13911 -0.0188864 -2.25124e-19)
(0.230963 -0.019985 4.22559e-20)
(0.32127 -0.0150715 -3.1648e-20)
(0.409257 -0.00593452 -1.30183e-19)
(0.494315 0.00628301 -1.02308e-19)
(0.575911 0.0206008 -2.0727e-20)
(0.653602 0.036211 -1.86816e-19)
(0.727038 0.0524642 -1.19785e-20)
(0.795956 0.0688389 -3.56992e-20)
(0.860171 0.0849196 -9.79692e-20)
(0.919571 0.100382 -2.19553e-20)
(0.974102 0.114982 -7.6654e-20)
(1.02376 0.128545 -1.29354e-19)
(1.06859 0.140955 1.33588e-19)
(1.10865 0.152154 1.83582e-20)
(1.14402 0.162136 3.66737e-20)
(1.17476 0.170914 -1.56538e-19)
(1.20092 0.178464 -4.37733e-21)
(1.22248 0.184997 -2.83611e-19)
(0.0519787 -0.00731501 1.08671e-19)
(0.152734 -0.0154975 7.74347e-20)
(0.251524 -0.0140051 -1.26859e-19)
(0.347451 -0.00645897 1.99732e-19)
(0.439895 0.00523128 -2.25629e-20)
(0.528356 0.0198412 7.61263e-20)
(0.612398 0.0363312 2.69122e-20)
(0.691666 0.0538538 9.63903e-20)
(0.765895 0.0717375 -7.65857e-20)
(0.834904 0.0894527 2.6141e-20)
(0.898594 0.106588 -2.5211e-20)
(0.956936 0.122832 -1.116e-20)
(1.00996 0.137961 2.17454e-20)
(1.05775 0.151825 -4.04461e-20)
(1.10041 0.164338 -1.2551e-20)
(1.1381 0.175471 -3.85889e-20)
(1.17095 0.185243 -6.29963e-20)
(1.1991 0.1937 4.10454e-20)
(1.22265 0.200877 -5.57987e-20)
(1.24164 0.206985 2.83229e-19)
(0.057174 -0.00590762 -5.29046e-20)
(0.166435 -0.0111419 -1.60821e-19)
(0.27204 -0.0066082 -2.05996e-20)
(0.373372 0.0039009 -6.78893e-21)
(0.469986 0.0183713 -7.43629e-20)
(0.561513 0.0355102 -1.24224e-19)
(0.64763 0.0542308 4.12531e-20)
(0.728089 0.0736582 -5.76173e-20)
(0.802725 0.0931101 -6.56219e-20)
(0.871455 0.11206 3.74101e-20)
(0.934278 0.13011 -2.86145e-20)
(0.991257 0.146971 -5.90827e-20)
(1.04252 0.162448 -2.20551e-21)
(1.08823 0.176423 4.1055e-20)
(1.12859 0.188845 -4.23397e-20)
(1.16381 0.199715 5.92961e-20)
(1.19411 0.209085 1.61996e-20)
(1.2197 0.217033 4.06392e-20)
(1.24072 0.223652 7.8803e-20)
(1.25729 0.229141 -7.86244e-20)
(0.0623998 -0.00411933 4.94665e-20)
(0.180091 -0.00580239 -3.84203e-21)
(0.292323 0.0022116 2.47834e-20)
(0.398789 0.0159914 -3.30698e-20)
(0.499245 0.0334388 3.47869e-21)
(0.59347 0.0532081 1.18977e-19)
(0.681276 0.0741805 -7.89139e-20)
(0.762536 0.0954678 3.46245e-20)
(0.837201 0.11639 3.13722e-20)
(0.905301 0.136435 -8.83917e-20)
(0.966941 0.155231 8.48204e-20)
(1.02229 0.172522 9.86213e-22)
(1.07157 0.188148 -6.17846e-20)
(1.11504 0.202031 7.53221e-20)
(1.15299 0.214158 -3.01411e-20)
(1.18571 0.224571 2.32367e-20)
(1.21348 0.233351 -2.63032e-20)
(1.23657 0.240614 -1.06778e-20)
(1.25518 0.246507 -9.17831e-20)
(1.26947 0.251207 3.26352e-20)
(0.0676071 -0.00194285 -1.57537e-20)
(0.19357 0.000525173 4.69472e-20)
(0.312174 0.0124402 7.67186e-21)
(0.423455 0.0297705 3.12411e-20)
(0.527387 0.0503578 1.53969e-20)
(0.623921 0.072822 7.35727e-21)
(0.713018 0.0960301 4.21956e-20)
(0.794691 0.119096 -4.96449e-21)
(0.869021 0.141357 1.96413e-20)
(0.936163 0.162331 3.20579e-20)
(0.996338 0.181682 1.58856e-20)
(1.04983 0.199196 1.16434e-20)
(1.09696 0.21476 4.77605e-20)
(1.13808 0.228343 -4.657e-20)
(1.17356 0.239976 1.01304e-20)
(1.20378 0.24974 -9.50732e-21)
(1.22907 0.257754 1.49292e-20)
(1.24975 0.264172 1.25708e-20)
(1.2661 0.26919 2.61037e-20)
(1.27828 0.27296 1.2335e-21)
(0.0727438 0.000623871 9.57493e-21)
(0.206735 0.007831 9.06965e-21)
(0.331393 0.0240428 -1.27344e-20)
(0.44712 0.0451706 8.07857e-21)
(0.554131 0.0690237 4.69411e-21)
(0.652565 0.0942095 -1.49247e-20)
(0.742553 0.1196 5.06432e-21)
(0.824261 0.14433 1.00901e-21)
(0.897913 0.167771 9.1645e-21)
(0.963798 0.189482 -2.53058e-20)
(1.02226 0.209179 -1.53238e-22)
(1.07371 0.2267 7.31885e-21)
(1.11855 0.241988 -5.88362e-21)
(1.15726 0.255062 6.08928e-21)
(1.19027 0.266005 1.60704e-20)
(1.21801 0.274943 -9.19448e-21)
(1.24091 0.282031 2.61136e-21)
(1.25933 0.287461 1.01489e-20)
(1.27357 0.29148 -1.67579e-20)
(1.28386 0.294204 9.39153e-21)
(0.0777559 0.00357717 2.47258e-20)
(0.219446 0.0160905 -1.4603e-20)
(0.349778 0.0369634 1.74526e-20)
(0.469538 0.0620985 -1.32135e-20)
(0.579204 0.0893044 -6.12129e-21)
(0.67912 0.1172 1.91945e-21)
(0.769602 0.144685 -6.3523e-21)
(0.850982 0.170934 2.33912e-20)
(0.923639 0.195369 -2.01145e-20)
(0.988004 0.21761 4.88088e-21)
(1.04456 0.237432 -3.63426e-21)
(1.09381 0.25474 -2.47292e-20)
(1.13629 0.269537 2.43727e-20)
(1.17255 0.281903 9.43984e-21)
(1.20311 0.291973 -9.49396e-21)
(1.22848 0.299922 2.24366e-20)
(1.24911 0.305942 -3.65772e-22)
(1.26542 0.310264 -2.19131e-20)
(1.27774 0.313181 1.62423e-20)
(1.28632 0.314774 5.79546e-21)
(0.0825875 0.00690735 -8.88478e-21)
(0.231564 0.0252638 2.59254e-20)
(0.367128 0.0511243 3.06845e-20)
(0.490471 0.0804361 -1.50537e-20)
(0.602347 0.111041 2.63802e-20)
(0.703322 0.141597 4.35871e-20)
(0.793909 0.171055 -2.64741e-21)
(0.87462 0.198652 -8.39407e-21)
(0.945996 0.223878 4.07713e-20)
(1.00862 0.246426 2.05338e-20)
(1.06309 0.266149 -3.98807e-21)
(1.11005 0.283023 3.21726e-20)
(1.15014 0.297122 -3.55057e-20)
(1.18397 0.308591 5.56149e-20)
(1.21216 0.317622 -9.41765e-21)
(1.23525 0.324437 2.70879e-20)
(1.25377 0.329269 4.83409e-21)
(1.26814 0.332386 1.9461e-20)
(1.27874 0.334124 -1.86506e-20)
(1.28585 0.334525 5.11837e-21)
(0.0871817 0.0105982 -1.30644e-20)
(0.242947 0.0352953 3.14618e-20)
(0.383247 0.0664265 2.35477e-20)
(0.509689 0.10004 -3.73299e-21)
(0.623316 0.13405 3.99928e-20)
(0.724929 0.167182 -3.25275e-20)
(0.81525 0.198462 -3.30619e-21)
(0.894978 0.227212 2.92508e-20)
(0.964822 0.253011 9.04984e-21)
(1.02551 0.275639 1.41612e-20)