1.275 	2.15223e-18 	-2.76991e-20 	-0.0343907 	-0.000442944 	-1.93237e-22
1.825 	2.15223e-18 	-1.39322e-20 	-0.00933356 	-0.0027748 	1.71656e-21
2.375 	2.15223e-18 	-2.66896e-23 	0.115676 	-0.00326192 	-7.16304e-22
