1.45 	0 	0 	0.00267913 	-0.00366515 	3.96069e-21
2.35 	0 	0 	0.10833 	-0.00828884 	2.0188e-21
