1.45 	0 	0 	-0.00124977 	-0.00317384 	3.97321e-21
2.35 	0 	0 	0.0876827 	-0.00755021 	2.27561e-21
