1.275 	2.15223e-18 	-2.76991e-20 	-0.253637
1.825 	2.15223e-18 	-1.39322e-20 	-0.0379917
2.375 	2.15223e-18 	-2.66896e-23 	-0.0103051
