/*--------------------------------*- C++ -*----------------------------------*\
  =========                 |
  \\      /  F ield         | OpenFOAM: The Open Source CFD Toolbox
   \\    /   O peration     | Website:  https://openfoam.org
    \\  /    A nd           | Version:  6.0
     \\/     M anipulation  |
\*---------------------------------------------------------------------------*/
FoamFile
{
    version     2.0;
    format      ascii;
    class       volVectorField;
    location    "0.1";
    object      U;
}
// * * * * * * * * * * * * * * * * * * * * * * * * * * * * * * * * * * * * * //

dimensions      [0 1 -1 0 0 0 0];

internalField   nonuniform List<vector> 
200
(
(-0.00129082 0.00123207 0)
(-0.00549087 0.00260237 0)
(-0.0116144 0.00283062 0)
(-0.0176937 0.00269797 0)
(-0.0232603 0.00249301 0)
(-0.0282866 0.00226566 0)
(-0.0327626 0.00202632 0)
(-0.0366835 0.00178159 0)
(-0.0400528 0.00153488 0)
(-0.042871 0.00128326 0)
(-0.0451172 0.00101368 0)
(-0.0467246 0.000698772 0)
(-0.0475461 0.000292354 0)
(-0.0473102 -0.000273939 0)
(-0.0455788 -0.00108603 0)
(-0.0417344 -0.00221939 0)
(-0.0350655 -0.0036571 0)
(-0.0251627 -0.00509963 0)
(-0.0131727 -0.00560737 0)
(-0.00345904 -0.00328418 0)
(-0.00304264 0.00578127 0)
(-0.0115319 0.0105748 0)
(-0.022651 0.0111723 0)
(-0.0333447 0.0104821 0)
(-0.0428947 0.00950254 0)
(-0.0512661 0.00844698 0)
(-0.0584648 0.00737505 0)
(-0.0645298 0.00631506 0)
(-0.069516 0.00527359 0)
(-0.0734658 0.00423011 0)
(-0.0763809 0.00312829 0)
(-0.0781908 0.00186479 0)
(-0.0787093 0.000276343 0)
(-0.0775812 -0.00186908 0)
(-0.0742219 -0.00485656 0)
(-0.0677799 -0.0089332 0)
(-0.0572074 -0.0140328 0)
(-0.0417548 -0.0191293 0)
(-0.0227459 -0.0210296 0)
(-0.00629871 -0.0129986 0)
(-0.00375609 0.013142 0)
(-0.0140592 0.0223207 0)
(-0.0271884 0.0231176 0)
(-0.0394668 0.0214168 0)
(-0.0501865 0.0191357 0)
(-0.0593997 0.0167356 0)
(-0.067173 0.0143602 0)
(-0.0736067 0.0120702 0)
(-0.0788161 0.00987327 0)
(-0.0829022 0.00772234 0)
(-0.085927 0.0055052 0)
(-0.0878851 0.00302699 0)
(-0.0886635 -1.48428e-05 0)
(-0.0879757 -0.00405628 0)
(-0.0852561 -0.0096645 0)
(-0.079505 -0.0174171 0)
(-0.0691686 -0.0274189 0)
(-0.0525432 -0.0379868 0)
(-0.0300573 -0.0429811 0)
(-0.00859679 -0.0280855 0)
(-0.00431735 0.0218215 0)
(-0.0159607 0.0357893 0)
(-0.0304596 0.0364553 0)
(-0.0435874 0.0333326 0)
(-0.0547244 0.0294135 0)
(-0.0640841 0.025414 0)
(-0.0718355 0.0215551 0)
(-0.078162 0.017926 0)
(-0.0832551 0.0145344 0)
(-0.0872936 0.0113102 0)
(-0.0904292 0.00809564 0)
(-0.0927711 0.00462123 0)
(-0.0943571 0.000460815 0)
(-0.0950855 -0.00503585 0)
(-0.094555 -0.0128168 0)
(-0.0917052 -0.0240984 0)
(-0.0842542 -0.0397795 0)
(-0.0686768 -0.0582166 0)
(-0.0429317 -0.069968 0)
(-0.0129722 -0.0490071 0)
(-0.00517682 0.0317761 0)
(-0.0186054 0.0508293 0)
(-0.034707 0.0508033 0)
(-0.0486038 0.0457093 0)
(-0.0599146 0.0397903 0)
(-0.0691354 0.0339729 0)
(-0.0765821 0.0285189 0)
(-0.082544 0.0235291 0)
(-0.0873047 0.0190074 0)
(-0.0911348 0.0148683 0)
(-0.0942946 0.0109308 0)
(-0.0970419 0.00689116 0)
(-0.0996374 0.00225649 0)
(-0.102316 -0.00378806 0)
(-0.105126 -0.0126121 0)
(-0.10731 -0.0264183 0)
(-0.105874 -0.0478727 0)
(-0.0944082 -0.0770454 0)
(-0.0659394 -0.102267 0)
(-0.0209722 -0.0798297 0)
(-0.00667066 0.0439236 0)
(-0.0228787 0.068234 0)
(-0.041127 0.0663959 0)
(-0.0556585 0.0584734 0)
(-0.0667402 0.0500759 0)
(-0.0753737 0.0421748 0)
(-0.0820639 0.0349953 0)
(-0.0872236 0.0286236 0)
(-0.0912381 0.0230523 0)
(-0.0944694 0.0181848 0)
(-0.0972761 0.013842 0)
(-0.100054 0.00974642 0)
(-0.103302 0.00545296 0)
(-0.107692 0.000143524 0)
(-0.114023 -0.00784661 0)
(-0.122372 -0.0219855 0)
(-0.129375 -0.0482688 0)
(-0.125211 -0.092437 0)
(-0.095951 -0.144374 0)
(-0.0293017 -0.132767 0)
(-0.00932145 0.0601064 0)
(-0.0300213 0.0888531 0)
(-0.050897 0.0830303 0)
(-0.0649661 0.0710847 0)
(-0.0743454 0.0595238 0)
(-0.0809699 0.049186 0)
(-0.0855781 0.0401418 0)
(-0.088732 0.0324081 0)
(-0.0909211 0.0259279 0)
(-0.0925655 0.0205639 0)
(-0.0940481 0.0161387 0)
(-0.0957816 0.0124475 0)
(-0.0983319 0.00921966 0)
(-0.102592 0.00582087 0)
(-0.109983 0.000415263 0)
(-0.121703 -0.0124182 0)
(-0.135301 -0.0448902 0)
(-0.139119 -0.114066 0)
(-0.112053 -0.212589 0)
(-0.0216593 -0.230787 0)
(-0.0125774 0.080865 0)
(-0.0409818 0.115772 0)
(-0.0647437 0.0999252 0)
(-0.071148 0.079273 0)
(-0.0722408 0.0636113 0)
(-0.0713474 0.0510313 0)
(-0.0693872 0.0406462 0)
(-0.066954 0.0322088 0)
(-0.0644748 0.0254835 0)
(-0.0622253 0.0202064 0)
(-0.0603863 0.0161717 0)
(-0.0590965 0.0132422 0)
(-0.0586205 0.0113811 0)
(-0.059449 0.0101778 0)
(-0.0630473 0.00770187 0)
(-0.0716602 -0.00385926 0)
(-0.086492 -0.043104 0)
(-0.0960083 -0.136927 0)
(-0.0764696 -0.277087 0)
(0.0276108 -0.335625 0)
(-0.0810723 0.146306 0)
(-0.0795312 0.126219 0)
(-0.0447415 0.084952 0)
(-0.014621 0.064861 0)
(0.010884 0.0513271 0)
(0.0317966 0.0403304 0)
(0.0489178 0.0313836 0)
(0.0628556 0.0244037 0)
(0.0741123 0.0190839 0)
(0.0831868 0.0150631 0)
(0.0904844 0.0121266 0)
(0.0965175 0.0101567 0)
(0.101356 0.00938463 0)
(0.105492 0.00982263 0)
(0.106932 0.0112388 0)
(0.104563 0.00798867 0)
(0.0902109 -0.015753 0)
(0.0773749 -0.0912513 0)
(0.0659864 -0.219767 0)
(0.13888 -0.306825 0)
(0.192485 0.115558 0)
(0.238734 0.101005 0)
(0.317896 0.0741294 0)
(0.38434 0.0551663 0)
(0.433089 0.0418223 0)
(0.46892 0.0317404 0)
(0.495881 0.0239019 0)
(0.516463 0.0178633 0)
(0.532234 0.0133205 0)
(0.544501 0.00995329 0)
(0.553951 0.00754194 0)
(0.562 0.00579891 0)
(0.568022 0.00478915 0)
(0.57536 0.00426738 0)
(0.578151 0.00460639 0)
(0.584512 0.00490166 0)
(0.567095 0.00299631 0)
(0.545901 -0.0090368 0)
(0.442453 -0.033636 0)
(0.363792 -0.0913471 0)
)
;

boundaryField
{
    movingWall
    {
        type            fixedValue;
        value           uniform (1 0 0);
    }
    fixedWalls
    {
        type            noSlip;
    }
    frontAndBack
    {
        type            empty;
    }
}


// ************************************************************************* //
