/*--------------------------------*- C++ -*----------------------------------*\
  =========                 |
  \\      /  F ield         | OpenFOAM: The Open Source CFD Toolbox
   \\    /   O peration     | Website:  https://openfoam.org
    \\  /    A nd           | Version:  6.0
     \\/     M anipulation  |
\*---------------------------------------------------------------------------*/
FoamFile
{
    version     2.0;
    format      ascii;
    class       volVectorField;
    location    "0.1";
    object      U;
}
// * * * * * * * * * * * * * * * * * * * * * * * * * * * * * * * * * * * * * //

dimensions      [0 1 -1 0 0 0 0];

internalField   nonuniform List<vector> 
800
(
(6.76748e-05 -0.000110321 0)
(-0.000190819 0.000170011 0)
(-0.00120471 0.000414305 0)
(-0.00260933 0.000519099 0)
(-0.00415951 0.000548516 0)
(-0.00572704 0.000548365 0)
(-0.00726931 0.000540068 0)
(-0.00877411 0.000531095 0)
(-0.0102387 0.000522737 0)
(-0.011662 0.000514413 0)
(-0.013042 0.000505409 0)
(-0.0143763 0.000495319 0)
(-0.0156625 0.000484011 0)
(-0.0168982 0.000471514 0)
(-0.0180815 0.000457941 0)
(-0.019211 0.000443442 0)
(-0.0202852 0.000428151 0)
(-0.0213031 0.000412117 0)
(-0.022263 0.00039524 0)
(-0.0231627 0.00037721 0)
(-0.0239983 0.000357431 0)
(-0.0247641 0.000334924 0)
(-0.0254507 0.000308222 0)
(-0.0260447 0.000275259 0)
(-0.0265267 0.000233273 0)
(-0.02687 0.000178742 0)
(-0.0270388 0.000107405 0)
(-0.0269871 1.44435e-05 0)
(-0.0266584 -0.000105089 0)
(-0.0259862 -0.000255434 0)
(-0.0248981 -0.000438795 0)
(-0.0233222 -0.000653402 0)
(-0.0212002 -0.000890982 0)
(-0.0185048 -0.00113376 0)
(-0.0152652 -0.00135132 0)
(-0.011598 -0.00149812 0)
(-0.0077384 -0.00151223 0)
(-0.00407965 -0.00131353 0)
(-0.00126301 -0.000817307 0)
(-8.18451e-05 -9.43787e-05 0)
(-0.00025785 0.000207873 0)
(-0.00161585 0.00147787 0)
(-0.00438699 0.00243795 0)
(-0.00790628 0.00289201 0)
(-0.0117008 0.00303609 0)
(-0.0155405 0.00303426 0)
(-0.0193179 0.00297532 0)
(-0.0229838 0.00289683 0)
(-0.0265164 0.00281072 0)
(-0.0299041 0.00271941 0)
(-0.0331392 0.00262306 0)
(-0.0362159 0.00252179 0)
(-0.0391301 0.00241611 0)
(-0.0418791 0.00230672 0)
(-0.044461 0.00219437 0)
(-0.0468751 0.00207967 0)
(-0.0491207 0.00196289 0)
(-0.0511969 0.00184373 0)
(-0.0531013 0.0017211 0)
(-0.0548298 0.0015929 0)
(-0.0563744 0.00145574 0)
(-0.0577227 0.00130463 0)
(-0.0588552 0.00113259 0)
(-0.0597438 0.000930375 0)
(-0.0603492 0.000686147 0)
(-0.0606188 0.000385426 0)
(-0.060484 1.13715e-05 0)
(-0.0598595 -0.000454244 0)
(-0.0586427 -0.00102903 0)
(-0.0567171 -0.00172647 0)
(-0.053959 -0.00255057 0)
(-0.050251 -0.00348824 0)
(-0.045504 -0.00449966 0)
(-0.0396894 -0.00550692 0)
(-0.0328837 -0.00638262 0)
(-0.0253218 -0.00694153 0)
(-0.0174435 -0.00693997 0)
(-0.00993854 -0.00608738 0)
(-0.00389013 -0.00411775 0)
(-0.000698152 -0.00118065 0)
(-0.000527129 0.00135239 0)
(-0.00279169 0.00436833 0)
(-0.00693259 0.0064085 0)
(-0.0119525 0.00740225 0)
(-0.0172615 0.00772435 0)
(-0.022594 0.00770181 0)
(-0.027813 0.00752526 0)
(-0.0328483 0.00728342 0)
(-0.0376651 0.00701089 0)
(-0.0422449 0.00671991 0)
(-0.0465769 0.00641551 0)
(-0.0506549 0.00610085 0)
(-0.054476 0.00577869 0)
(-0.0580397 0.00545149 0)
(-0.0613473 0.00512119 0)
(-0.064401 0.00478899 0)
(-0.067203 0.00445497 0)
(-0.0697549 0.00411774 0)
(-0.0720562 0.00377404 0)
(-0.0741036 0.00341831 0)
(-0.0758891 0.00304215 0)
(-0.0773985 0.00263374 0)
(-0.0786094 0.00217723 0)
(-0.0794889 0.00165211 0)
(-0.0799911 0.00103285 0)
(-0.0800542 0.000288882 0)
(-0.0795983 -0.00061455 0)
(-0.0785234 -0.00171426 0)
(-0.0767095 -0.00304483 0)
(-0.0740186 -0.00463135 0)
(-0.0703027 -0.00647821 0)
(-0.0654185 -0.00855334 0)
(-0.0592526 -0.0107676 0)
(-0.0517619 -0.0129509 0)
(-0.0430304 -0.0148279 0)
(-0.0333372 -0.0160025 0)
(-0.0232128 -0.0159626 0)
(-0.0134852 -0.0141267 0)
(-0.00548324 -0.00999792 0)
(-0.00106128 -0.00363441 0)
(-0.000694583 0.00306902 0)
(-0.00355944 0.00829729 0)
(-0.00863083 0.0115938 0)
(-0.0146457 0.0131689 0)
(-0.0209192 0.013652 0)
(-0.0271676 0.0135617 0)
(-0.0332439 0.0132029 0)
(-0.0390709 0.0127222 0)
(-0.0446097 0.0121813 0)
(-0.0498404 0.0116059 0)
(-0.0547525 0.0110085 0)
(-0.0593419 0.0103971 0)
(-0.063609 0.00977796 0)
(-0.0675569 0.00915581 0)
(-0.0711911 0.00853412 0)
(-0.0745178 0.00791462 0)
(-0.0775432 0.00729693 0)
(-0.0802726 0.00667813 0)
(-0.082709 0.0060522 0)
(-0.0848521 0.00540945 0)
(-0.0866969 0.00473574 0)
(-0.0882318 0.00401163 0)
(-0.0894368 0.00321149 0)
(-0.0902813 0.00230257 0)
(-0.090721 0.00124444 0)
(-0.0906951 -1.11678e-05 0)
(-0.0901231 -0.00151921 0)
(-0.0889015 -0.00333829 0)
(-0.0869019 -0.00552439 0)
(-0.0839706 -0.00811985 0)
(-0.0799338 -0.0111358 0)
(-0.0746106 -0.0145262 0)
(-0.0678398 -0.0181536 0)
(-0.0595272 -0.0217462 0)
(-0.0497183 -0.0248564 0)
(-0.0386918 -0.0268327 0)
(-0.0270401 -0.0268331 0)
(-0.0157341 -0.023916 0)
(-0.00637245 -0.0172776 0)
(-0.00121649 -0.0067488 0)
(-0.00078943 0.00509549 0)
(-0.00403254 0.0128568 0)
(-0.0097193 0.0175121 0)
(-0.0163882 0.0196647 0)
(-0.0232747 0.0202657 0)
(-0.0300807 0.0200526 0)
(-0.0366566 0.0194528 0)
(-0.0429249 0.018673 0)
(-0.0488488 0.0178038 0)
(-0.0544106 0.0168855 0)
(-0.0596033 0.0159392 0)
(-0.0644265 0.0149786 0)
(-0.0688848 0.014014 0)
(-0.0729859 0.0130528 0)
(-0.0767397 0.0121 0)
(-0.080157 0.0111578 0)
(-0.0832484 0.0102252 0)
(-0.0860238 0.00929776 0)
(-0.0884906 0.00836665 0)
(-0.0906536 0.00741812 0)
(-0.0925127 0.0064325 0)
(-0.0940622 0.00538306 0)
(-0.0952888 0.00423479 0)
(-0.0961687 0.00294305 0)
(-0.0966653 0.00145242 0)
(-0.0967255 -0.000303826 0)
(-0.0962746 -0.00240311 0)
(-0.0952117 -0.00493034 0)
(-0.0934032 -0.00797064 0)
(-0.0906787 -0.0115952 0)
(-0.0868292 -0.0158374 0)
(-0.0816156 -0.0206548 0)
(-0.074794 -0.0258752 0)
(-0.0661706 -0.0311271 0)
(-0.0556978 -0.0357663 0)
(-0.0436096 -0.0388258 0)
(-0.0305551 -0.0390373 0)
(-0.0177116 -0.0349896 0)
(-0.00705775 -0.0254948 0)
(-0.00129768 -0.0101814 0)
(-0.000851228 0.00731991 0)
(-0.00436042 0.0178451 0)
(-0.0104949 0.0239392 0)
(-0.0176375 0.0266594 0)
(-0.0249541 0.0273323 0)
(-0.0321323 0.0269406 0)
(-0.0390222 0.026044 0)
(-0.0455501 0.0249127 0)
(-0.0516842 0.0236664 0)
(-0.0574121 0.0223605 0)
(-0.0627319 0.021025 0)
(-0.0676484 0.0196796 0)
(-0.0721714 0.0183386 0)
(-0.0763134 0.0170121 0)
(-0.0800893 0.0157066 0)
(-0.0835144 0.0144247 0)
(-0.0866046 0.0131651 0)
(-0.0893745 0.0119217 0)
(-0.0918375 0.0106835 0)
(-0.0940041 0.00943314 0)
(-0.0958815 0.00814622 0)
(-0.0974724 0.00678976 0)
(-0.0987726 0.00532046 0)
(-0.09977 0.00368278 0)
(-0.10044 0.00180695 0)
(-0.100744 -0.000392829 0)
(-0.100619 -0.00301897 0)
(-0.0999727 -0.00618873 0)
(-0.0986728 -0.0100274 0)
(-0.0965329 -0.0146531 0)
(-0.0933029 -0.0201467 0)
(-0.0886659 -0.0265003 0)
(-0.0822563 -0.0335375 0)
(-0.0737182 -0.0408014 0)
(-0.0628301 -0.0474268 0)
(-0.0497026 -0.0520407 0)
(-0.0350115 -0.052785 0)
(-0.0202182 -0.0475844 0)
(-0.00788993 -0.0347632 0)
(-0.00137869 -0.0139072 0)
(-0.000907639 0.00969851 0)
(-0.00465583 0.0231799 0)
(-0.0111895 0.0307792 0)
(-0.018747 0.0340516 0)
(-0.026427 0.0347461 0)
(-0.0339033 0.0341167 0)
(-0.0410279 0.0328668 0)
(-0.047734 0.0313329 0)
(-0.0539974 0.029665 0)
(-0.0598132 0.0279331 0)
(-0.0651865 0.026176 0)
(-0.0701285 0.0244188 0)
(-0.0746546 0.0226798 0)
(-0.0787832 0.0209715 0)
(-0.0825341 0.0193018 0)
(-0.085928 0.0176738 0)
(-0.088986 0.0160859 0)
(-0.0917284 0.0145311 0)
(-0.0941748 0.0129964 0)
(-0.096343 0.0114622 0)
(-0.0982487 0.00990045 0)
(-0.0999045 0.00827362 0)
(-0.101319 0.00653195 0)
(-0.102494 0.004611 0)
(-0.103424 0.00242826 0)
(-0.104089 -0.000120428 0)
(-0.104448 -0.00316409 0)
(-0.104429 -0.00685801 0)
(-0.103911 -0.0113803 0)
(-0.102704 -0.0169185 0)
(-0.100522 -0.0236368 0)
(-0.0969598 -0.0316116 0)
(-0.0914943 -0.0407189 0)
(-0.0835295 -0.0504617 0)
(-0.0725451 -0.0597482 0)
(-0.0583765 -0.0666898 0)
(-0.0416123 -0.0685827 0)
(-0.0240481 -0.0623327 0)
(-0.00918 -0.045551 0)
(-0.00150355 -0.0180509 0)
(-0.000976688 0.0122376 0)
(-0.0049956 0.0288652 0)
(-0.0119634 0.0380265 0)
(-0.0199574 0.0418237 0)
(-0.0280039 0.0424772 0)
(-0.0357656 0.0415415 0)
(-0.0431008 0.0398749 0)
(-0.049953 0.0378839 0)
(-0.0563091 0.0357485 0)
(-0.0621744 0.033553 0)
(-0.0675625 0.0313438 0)
(-0.0724923 0.0291512 0)
(-0.0769861 0.0269965 0)
(-0.0810683 0.0248944 0)
(-0.0847645 0.022854 0)
(-0.088101 0.0208788 0)
(-0.0911043 0.0189673 0)
(-0.0938011 0.0171117 0)
(-0.0962176 0.0152985 0)
(-0.0983794 0.0135065 0)
(-0.100312 0.0117062 0)
(-0.102038 0.00985726 0)
(-0.103583 0.00790653 0)
(-0.104965 0.00578388 0)
(-0.106202 0.00339764 0)
(-0.107301 0.000628415 0)
(-0.108255 -0.00267792 0)
(-0.109029 -0.00671723 0)
(-0.109535 -0.0117309 0)
(-0.109606 -0.0179998 0)
(-0.108945 -0.0258163 0)
(-0.107072 -0.0354127 0)
(-0.103283 -0.0468151 0)
(-0.0966594 -0.0595906 0)
(-0.0862025 -0.0724774 0)
(-0.071207 -0.0829784 0)
(-0.0518976 -0.0871821 0)
(-0.0303261 -0.0803325 0)
(-0.011391 -0.058772 0)
(-0.00173315 -0.0228877 0)
(-0.00107226 0.014979 0)
(-0.00543759 0.0349694 0)
(-0.0129342 0.0457413 0)
(-0.0214378 0.0500143 0)
(-0.0298923 0.0505424 0)
(-0.0379549 0.049214 0)
(-0.0454978 0.047055 0)
(-0.0524813 0.0445438 0)
(-0.0589077 0.0418901 0)
(-0.0647954 0.0391906 0)
(-0.0701689 0.0364981 0)
(-0.0750562 0.0338465 0)
(-0.0794872 0.0312594 0)
(-0.083493 0.0287529 0)
(-0.0871055 0.026337 0)
(-0.0903567 0.0240158 0)
(-0.0932792 0.0217876 0)
(-0.0959056 0.019645 0)
(-0.0982691 0.0175742 0)
(-0.100403 0.0155544 0)
(-0.102343 0.0135561 0)
(-0.104125 0.0115394 0)
(-0.105787 0.00945135 0)
(-0.10737 0.00722097 0)
(-0.108918 0.00475355 0)
(-0.110475 0.00192162 0)
(-0.11208 -0.00144702 0)
(-0.113755 -0.00558412 0)
(-0.115482 -0.010797 0)
(-0.117158 -0.0174786 0)
(-0.118529 -0.026097 0)
(-0.119093 -0.0371329 0)
(-0.117983 -0.0509132 0)
(-0.113887 -0.0672689 0)
(-0.105117 -0.0849541 0)
(-0.0900276 -0.100875 0)
(-0.0679539 -0.109482 0)
(-0.0408222 -0.10328 0)
(-0.0153831 -0.0760564 0)
(-0.00220771 -0.0289701 0)
(-0.00120979 0.0179956 0)
(-0.00603976 0.0416128 0)
(-0.0142105 0.0540311 0)
(-0.0233318 0.0586957 0)
(-0.032253 0.0589795 0)
(-0.0406378 0.0571462 0)
(-0.0483853 0.0544014 0)
(-0.0554822 0.0512961 0)
(-0.0619521 0.0480663 0)
(-0.0678304 0.0448183 0)
(-0.0731547 0.0416089 0)
(-0.0779634 0.0384737 0)
(-0.0822949 0.0354372 0)
(-0.0861875 0.0325159 0)
(-0.0896794 0.0297201 0)
(-0.0928087 0.0270543 0)
(-0.0956138 0.024517 0)
(-0.0981333 0.0221015 0)
(-0.100407 0.0197947 0)
(-0.102476 0.0175772 0)
(-0.104385 0.015422 0)
(-0.10618 0.0132927 0)
(-0.107916 0.0111407 0)
(-0.109655 0.00890096 0)
(-0.111469 0.00648464 0)
(-0.113443 0.00376812 0)
(-0.115675 0.000576127 0)
(-0.118268 -0.00334287 0)
(-0.121307 -0.00834962 0)
(-0.124818 -0.0149518 0)
(-0.128676 -0.0238305 0)
(-0.132454 -0.035818 0)
(-0.135208 -0.0517454 0)
(-0.135235 -0.072031 0)
(-0.129969 -0.0958392 0)
(-0.116349 -0.119736 0)
(-0.0920423 -0.1362 0)
(-0.0579792 -0.13346 0)
(-0.0227139 -0.100146 0)
(-0.00326145 -0.0374209 0)
(-0.00141253 0.0213969 0)
(-0.00687924 0.0489703 0)
(-0.0159218 0.0630427 0)
(-0.0257944 0.0679581 0)
(-0.0352407 0.0678283 0)
(-0.0439551 0.0653432 0)
(-0.0518858 0.0618982 0)
(-0.0590587 0.0581125 0)
(-0.0655267 0.054242 0)
(-0.0713457 0.0503974 0)
(-0.076569 0.0466355 0)
(-0.0812463 0.042991 0)
(-0.0854251 0.0394873 0)
(-0.0891511 0.0361406 0)
(-0.0924691 0.0329605 0)
(-0.095423 0.0299514 0)
(-0.0980569 0.0271123 0)
(-0.100415 0.0244371 0)
(-0.102543 0.0219143 0)
(-0.104489 0.0195271 0)
(-0.106302 0.0172524 0)
(-0.108042 0.0150603 0)
(-0.109772 0.0129117 0)
(-0.111573 0.0107543 0)
(-0.113544 0.00851627 0)
(-0.115811 0.00609437 0)
(-0.118531 0.00333344 0)
(-0.121899 -7.39894e-06 0)
(-0.126139 -0.00430849 0)
(-0.131461 -0.0101662 0)
(-0.137968 -0.0184836 0)
(-0.145456 -0.0305329 0)
(-0.153077 -0.0478836 0)
(-0.158869 -0.0719809 0)
(-0.159358 -0.103041 0)
(-0.149708 -0.137932 0)
(-0.12507 -0.167204 0)
(-0.0840781 -0.173201 0)
(-0.0358345 -0.135181 0)
(-0.00563303 -0.050484 0)
(-0.00172075 0.0253491 0)
(-0.00807609 0.0572863 0)
(-0.0182508 0.0729607 0)
(-0.0290209 0.0778943 0)
(-0.0390267 0.0771105 0)
(-0.0480392 0.0737836 0)
(-0.056089 0.0695007 0)
(-0.0632591 0.0649368 0)
(-0.0696395 0.0603555 0)
(-0.075311 0.0558637 0)
(-0.0803437 0.0515126 0)
(-0.0847998 0.0473326 0)
(-0.0887362 0.0433441 0)
(-0.0922065 0.0395612 0)
(-0.0952621 0.0359924 0)
(-0.0979529 0.0326414 0)
(-0.100328 0.0295073 0)
(-0.102438 0.0265844 0)
(-0.104331 0.023863 0)
(-0.106061 0.0213292 0)
(-0.107681 0.0189653 0)
(-0.109255 0.0167496 0)
(-0.110855 0.0146559 0)
(-0.112569 0.0126513 0)
(-0.114512 0.0106917 0)
(-0.116837 0.00871178 0)
(-0.11975 0.0066048 0)
(-0.123526 0.00418233 0)
(-0.12852 0.00110043 0)
(-0.135153 -0.00326451 0)
(-0.143826 -0.00999761 0)
(-0.154705 -0.0208513 0)
(-0.16728 -0.0383424 0)
(-0.179655 -0.0654259 0)
(-0.187762 -0.104182 0)
(-0.18505 -0.152791 0)
(-0.16371 -0.200586 0)
(-0.118869 -0.223301 0)
(-0.0575122 -0.186068 0)
(-0.0107227 -0.0722133 0)
(-0.00220881 0.0301151 0)
(-0.00983058 0.0669055 0)
(-0.0214713 0.0840039 0)
(-0.0332708 0.0885748 0)
(-0.0438 0.0867977 0)
(-0.0529917 0.082388 0)
(-0.0610079 0.0771066 0)
(-0.0680085 0.0716567 0)
(-0.0741286 0.0662905 0)
(-0.0794768 0.0610992 0)
(-0.0841422 0.0561217 0)
(-0.0882008 0.0513802 0)
(-0.0917203 0.0468898 0)
(-0.0947634 0.042661 0)
(-0.0973892 0.0387004 0)
(-0.0996541 0.0350102 0)
(-0.101613 0.0315888 0)
(-0.10332 0.0284303 0)
(-0.104827 0.025526 0)
(-0.106188 0.0228644 0)
(-0.10746 0.0204327 0)
(-0.108702 0.0182176 0)
(-0.109984 0.0162068 0)
(-0.111393 0.0143894 0)
(-0.11304 0.0127552 0)
(-0.115078 0.0112896 0)
(-0.11772 0.00995797 0)
(-0.121272 0.00866562 0)
(-0.126162 0.0071707 0)
(-0.132957 0.00491295 0)
(-0.142331 0.000723186 0)
(-0.154882 -0.00757889 0)
(-0.170678 -0.0235489 0)
(-0.188415 -0.0520133 0)
(-0.20421 -0.0976504 0)
(-0.210627 -0.16109 0)
(-0.197407 -0.23193 0)
(-0.155908 -0.28062 0)
(-0.0879463 -0.255602 0)
(-0.0203813 -0.108557 0)
(-0.00302014 0.0361327 0)
(-0.01249 0.078318 0)
(-0.0260028 0.0964027 0)
(-0.0388726 0.0999882 0)
(-0.0497144 0.0967444 0)
(-0.0587725 0.0909526 0)
(-0.066405 0.084488 0)
(-0.0728677 0.0780333 0)
(-0.0783482 0.0718023 0)
(-0.0829889 0.065856 0)
(-0.0869027 0.0602142 0)
(-0.0901845 0.0548868 0)
(-0.0929176 0.0498813 0)
(-0.0951776 0.0452031 0)
(-0.0970339 0.0408552 0)
(-0.0985513 0.036837 0)
(-0.0997906 0.0331444 0)
(-0.100809 0.0297699 0)
(-0.101659 0.0267036 0)
(-0.102394 0.0239345 0)
(-0.103064 0.0214522 0)
(-0.10372 0.0192495 0)
(-0.104422 0.0173248 0)
(-0.105234 0.015686 0)
(-0.106244 0.0143537 0)
(-0.107565 0.0133632 0)
(-0.109365 0.012757 0)
(-0.111891 0.0125538 0)
(-0.115516 0.0126602 0)
(-0.120792 0.0126704 0)
(-0.128478 0.011479 0)
(-0.139486 0.0066683 0)
(-0.154577 -0.00619089 0)
(-0.173604 -0.0337806 0)
(-0.194055 -0.0836737 0)
(-0.209286 -0.159873 0)
(-0.208409 -0.254475 0)
(-0.180157 -0.336543 0)
(-0.119161 -0.339901 0)
(-0.0347864 -0.16631 0)
(-0.00444145 0.0441744 0)
(-0.0166737 0.0922193 0)
(-0.0324783 0.110312 0)
(-0.0461605 0.111894 0)
(-0.0566734 0.106531 0)
(-0.0648282 0.0989875 0)
(-0.0712558 0.0911221 0)
(-0.0763267 0.0835233 0)
(-0.080298 0.0763344 0)
(-0.0833632 0.0695736 0)
(-0.0856762 0.0632346 0)
(-0.0873645 0.0573104 0)
(-0.0885373 0.0517973 0)
(-0.08929 0.0466922 0)
(-0.0897063 0.041991 0)
(-0.0898603 0.0376871 0)
(-0.0898172 0.0337703 0)
(-0.0896342 0.030228 0)
(-0.0893614 0.0270459 0)
(-0.0890425 0.0242098 0)
(-0.0887165 0.0217077 0)
(-0.0884189 0.0195331 0)
(-0.0881839 0.0176882 0)
(-0.0880464 0.0161898 0)
(-0.0880453 0.0150756 0)
(-0.0882289 0.0144115 0)
(-0.0886647 0.0142937 0)
(-0.0894589 0.01483 0)
(-0.0907918 0.0160671 0)
(-0.0929813 0.0177945 0)
(-0.0965792 0.0191228 0)
(-0.10248 0.0177321 0)
(-0.11195 0.00887043 0)
(-0.126266 -0.0153332 0)
(-0.14539 -0.0648688 0)
(-0.165594 -0.147526 0)
(-0.178193 -0.260512 0)
(-0.171581 -0.377577 0)
(-0.13304 -0.425773 0)
(-0.0477789 -0.250631 0)
(-0.00706861 0.0557055 0)
(-0.023515 0.109544 0)
(-0.0417842 0.125535 0)
(-0.0551233 0.123471 0)
(-0.0635607 0.115104 0)
(-0.0689112 0.105339 0)
(-0.0721748 0.0957929 0)
(-0.0738821 0.0868749 0)
(-0.0744107 0.0786306 0)
(-0.074051 0.0710213 0)
(-0.0730292 0.0640022 0)
(-0.0715246 0.0575387 0)
(-0.0696812 0.0516054 0)
(-0.0676155 0.0461816 0)
(-0.0654212 0.0412483 0)
(-0.0631739 0.0367854 0)
(-0.0609329 0.0327712 0)
(-0.058744 0.0291826 0)
(-0.0566415 0.0259962 0)
(-0.0546497 0.0231903 0)
(-0.0527844 0.0207468 0)
(-0.0510546 0.0186536 0)
(-0.0494623 0.0169087 0)
(-0.0480023 0.0155252 0)
(-0.0466607 0.0145383 0)
(-0.0454119 0.0140144 0)
(-0.0442156 0.014057 0)
(-0.0430161 0.0147984 0)
(-0.0417539 0.0163498 0)
(-0.0404082 0.0186439 0)
(-0.039113 0.02107 0)
(-0.0383862 0.021749 0)
(-0.0394996 0.0164333 0)
(-0.0447048 -0.00258775 0)
(-0.0566078 -0.0462251 0)
(-0.0758294 -0.125413 0)
(-0.0987595 -0.244245 0)
(-0.116636 -0.387964 0)
(-0.111758 -0.490687 0)
(-0.0456689 -0.355083 0)
(-0.0122245 0.0738193 0)
(-0.0351181 0.131324 0)
(-0.054699 0.14086 0)
(-0.0637134 0.132485 0)
(-0.0653501 0.119805 0)
(-0.0632458 0.107167 0)
(-0.0589185 0.095619 0)
(-0.0531503 0.0852815 0)
(-0.0465073 0.076044 0)
(-0.0394045 0.067762 0)
(-0.0321364 0.0603135 0)
(-0.0249109 0.0536062 0)
(-0.0178746 0.0475712 0)
(-0.0111291 0.042154 0)
(-0.00474162 0.0373082 0)
(0.0012465 0.0329918 0)
(0.00681466 0.0291647 0)
(0.0119582 0.0257893 0)
(0.0166851 0.02283 0)
(0.0210128 0.0202553 0)
(0.0249665 0.0180382 0)
(0.0285785 0.0161583 0)
(0.0318877 0.0146047 0)
(0.0349425 0.0133787 0)
(0.0378041 0.0125004 0)
(0.0405536 0.0120133 0)
(0.0433011 0.0119894 0)
(0.0462004 0.0125217 0)
(0.0494534 0.0136934 0)
(0.0533024 0.0154673 0)
(0.0579279 0.0174383 0)
(0.0632339 0.0182829 0)
(0.0683067 0.0148725 0)
(0.0708483 0.00107224 0)
(0.0667638 -0.0326978 0)
(0.0517785 -0.098206 0)
(0.0230727 -0.205418 0)
(-0.016888 -0.355395 0)
(-0.0510268 -0.505757 0)
(-0.0168644 -0.446882 0)
(-0.0232734 0.105815 0)
(-0.0551445 0.157169 0)
(-0.067501 0.149869 0)
(-0.0582885 0.1304 0)
(-0.0411295 0.112338 0)
(-0.0219057 0.0969889 0)
(-0.00217231 0.084043 0)
(0.0173415 0.0731204 0)
(0.0361324 0.0638287 0)
(0.0538955 0.0558298 0)
(0.0704736 0.0488755 0)
(0.0857985 0.0427931 0)
(0.0998575 0.0374589 0)
(0.112675 0.032779 0)
(0.124299 0.028678 0)
(0.134796 0.0250926 0)
(0.144245 0.0219676 0)
(0.152728 0.0192543 0)
(0.160332 0.0169098 0)
(0.167147 0.0148966 0)
(0.173258 0.0131834 0)
(0.178755 0.011745 0)
(0.183724 0.0105639 0)
(0.188259 0.00963214 0)
(0.192456 0.00895474 0)
(0.196431 0.0085505 0)
(0.200317 0.00845431 0)
(0.204286 0.00870578 0)
(0.208539 0.00933272 0)
(0.213328 0.0102682 0)
(0.218816 0.0112237 0)
(0.225016 0.0113244 0)
(0.231109 0.00864319 0)
(0.235206 -0.000768245 0)
(0.232757 -0.0233751 0)
(0.218174 -0.0686912 0)
(0.183144 -0.148013 0)
(0.123116 -0.276055 0)
(0.0464523 -0.445039 0)
(0.0426835 -0.472512 0)
(-0.0574455 0.17898 0)
(-0.0711699 0.17067 0)
(-0.0187772 0.124601 0)
(0.0378267 0.0982942 0)
(0.0886813 0.0805618 0)
(0.133378 0.0666674 0)
(0.173006 0.0555272 0)
(0.20823 0.0466454 0)
(0.239476 0.0395029 0)
(0.267144 0.0336509 0)
(0.29162 0.0287727 0)
(0.313246 0.0246588 0)
(0.332326 0.0211663 0)
(0.349134 0.0181912 0)
(0.363919 0.0156536 0)
(0.376913 0.0134896 0)
(0.388327 0.0116467 0)
(0.398355 0.0100807 0)
(0.407171 0.00875455 0)
(0.414936 0.00763756 0)
(0.421797 0.00670441 0)
(0.427889 0.0059344 0)
(0.433335 0.00531188 0)
(0.438256 0.00482658 0)
(0.442766 0.00447682 0)
(0.446993 0.00426778 0)
(0.451062 0.00421519 0)
(0.455137 0.00432902 0)
(0.45934 0.00461518 0)
(0.463868 0.00500539 0)
(0.468642 0.0053381 0)
(0.473625 0.0051036 0)
(0.477546 0.00337719 0)
(0.47896 -0.00186847 0)
(0.472417 -0.0136287 0)
(0.45285 -0.0373007 0)
(0.406553 -0.0797002 0)
(0.326779 -0.157759 0)
(0.201695 -0.296934 0)
(0.149485 -0.378945 0)
(0.230959 0.123231 0)
(0.278263 0.108867 0)
(0.376355 0.077131 0)
(0.460841 0.0563684 0)
(0.522906 0.0428974 0)
(0.56993 0.0332513 0)
(0.607445 0.026034 0)
(0.638152 0.0205865 0)
(0.663553 0.0164438 0)
(0.684715 0.0132512 0)
(0.702457 0.0107543 0)
(0.717408 0.00877653 0)
(0.73005 0.007195 0)
(0.740767 0.00592165 0)
(0.749875 0.00489169 0)
(0.757635 0.00405625 0)
(0.764263 0.0033776 0)
(0.769945 0.00282628 0)
(0.774837 0.00237917 0)
(0.779072 0.00201817 0)
(0.782765 0.00172899 0)
(0.786017 0.00149991 0)
(0.788915 0.00132167 0)
(0.79154 0.00118693 0)
(0.793966 0.00109289 0)
(0.796281 0.00103864 0)
(0.798553 0.00102955 0)
(0.800903 0.00106426 0)
(0.803345 0.00114585 0)
(0.806041 0.00124536 0)
(0.808701 0.00132492 0)
(0.811382 0.00123431 0)
(0.81244 0.000727408 0)
(0.811346 -0.000707046 0)
(0.802161 -0.00391867 0)
(0.783365 -0.0099267 0)
(0.73709 -0.0214246 0)
(0.664996 -0.040732 0)
(0.512248 -0.0840633 0)
(0.38253 -0.136468 0)
)
;

boundaryField
{
    movingWall
    {
        type            fixedValue;
        value           uniform (1 0 0);
    }
    fixedWalls
    {
        type            noSlip;
    }
    frontAndBack
    {
        type            empty;
    }
}


// ************************************************************************* //
