1.45 	0 	0 	-0.308007
2.35 	0 	0 	-0.114134
