1.45 	0 	0 	-0.308368
2.35 	0 	0 	-0.11905
