1.45 	0 	0 	-0.00814102 	-0.002569 	3.78247e-21
2.35 	0 	0 	0.0613375 	-0.00662951 	2.28467e-21
