/*--------------------------------*- C++ -*----------------------------------*\
  =========                 |
  \\      /  F ield         | OpenFOAM: The Open Source CFD Toolbox
   \\    /   O peration     | Website:  https://openfoam.org
    \\  /    A nd           | Version:  6.0
     \\/     M anipulation  |
\*---------------------------------------------------------------------------*/
FoamFile
{
    version     2.0;
    format      ascii;
    class       volScalarField;
    location    "104";
    object      p;
}
// * * * * * * * * * * * * * * * * * * * * * * * * * * * * * * * * * * * * * //

dimensions      [0 2 -2 0 0 0 0];

internalField   nonuniform List<scalar> 
34500
(
1.00821
1.00864
1.00884
1.00882
1.00856
1.00812
1.00754
1.00687
1.00613
1.00537
1.00457
1.00384
1.00294
1.00247
1.00211
1.00822
1.00869
1.00898
1.00909
1.00899
1.00872
1.0083
1.00778
1.00716
1.00648
1.00571
1.00496
1.00394
1.00356
1.00296
1.00822
1.00867
1.00892
1.00899
1.00883
1.00849
1.008
1.00742
1.00675
1.00605
1.00528
1.00457
1.00364
1.00349
1.00296
1.00822
1.00866
1.00888
1.0089
1.00869
1.00829
1.00775
1.00712
1.00642
1.00571
1.00495
1.00429
1.00346
1.00351
1.00324
1.00823
1.00866
1.00889
1.00891
1.00872
1.00834
1.00781
1.00719
1.0065
1.00579
1.00505
1.00441
1.00363
1.00377
1.00364
1.00824
1.00867
1.00891
1.00895
1.00878
1.00843
1.00793
1.00734
1.00667
1.00597
1.00524
1.00461
1.00385
1.00403
1.00395
1.00825
1.00868
1.00892
1.00897
1.0088
1.00847
1.00799
1.0074
1.00675
1.00606
1.00534
1.00473
1.00399
1.0042
1.00419
1.00826
1.00869
1.00893
1.00897
1.0088
1.00847
1.00799
1.00741
1.00677
1.00609
1.00538
1.00479
1.00409
1.00433
1.0044
1.00827
1.00871
1.00894
1.00898
1.00881
1.00848
1.008
1.00743
1.00679
1.00612
1.00543
1.00485
1.0042
1.00446
1.00459
1.00828
1.00872
1.00896
1.00899
1.00883
1.0085
1.00803
1.00746
1.00683
1.00617
1.00549
1.00494
1.00431
1.00459
1.00475
1.0083
1.00874
1.00898
1.00902
1.00886
1.00853
1.00807
1.00751
1.00688
1.00624
1.00556
1.00502
1.00443
1.0047
1.0049
1.00832
1.00876
1.009
1.00904
1.00889
1.00857
1.00811
1.00756
1.00693
1.0063
1.00563
1.00511
1.00454
1.00481
1.00503
1.00833
1.00878
1.00902
1.00907
1.00892
1.0086
1.00815
1.0076
1.00698
1.00635
1.0057
1.00519
1.00464
1.0049
1.00514
1.00835
1.0088
1.00905
1.0091
1.00895
1.00864
1.00819
1.00764
1.00703
1.00641
1.00576
1.00526
1.00475
1.00499
1.00524
1.00838
1.00883
1.00907
1.00912
1.00898
1.00867
1.00823
1.00769
1.00708
1.00647
1.00583
1.00534
1.00484
1.00508
1.00532
1.0084
1.00885
1.0091
1.00915
1.00902
1.00871
1.00827
1.00774
1.00714
1.00652
1.0059
1.00542
1.00494
1.00516
1.0054
1.00842
1.00888
1.00913
1.00919
1.00905
1.00875
1.00832
1.00779
1.00719
1.00659
1.00597
1.0055
1.00504
1.00524
1.00547
1.00845
1.0089
1.00916
1.00922
1.00909
1.00879
1.00836
1.00784
1.00725
1.00665
1.00604
1.00558
1.00513
1.00531
1.00553
1.00848
1.00893
1.00919
1.00925
1.00913
1.00884
1.00841
1.00789
1.00731
1.00671
1.00611
1.00565
1.00521
1.00537
1.00558
1.0085
1.00896
1.00922
1.00929
1.00917
1.00888
1.00846
1.00795
1.00736
1.00677
1.00617
1.00572
1.00529
1.00543
1.00562
1.00854
1.009
1.00926
1.00933
1.00921
1.00893
1.00851
1.008
1.00742
1.00683
1.00624
1.00578
1.00537
1.00549
1.00566
1.00857
1.00903
1.0093
1.00937
1.00926
1.00897
1.00856
1.00805
1.00747
1.00689
1.0063
1.00585
1.00544
1.00554
1.0057
1.0086
1.00906
1.00933
1.00941
1.0093
1.00902
1.00861
1.0081
1.00752
1.00694
1.00635
1.0059
1.00551
1.00559
1.00573
1.00864
1.0091
1.00937
1.00944
1.00934
1.00906
1.00865
1.00814
1.00757
1.00699
1.0064
1.00596
1.00557
1.00563
1.00576
1.00867
1.00914
1.00941
1.00948
1.00938
1.0091
1.0087
1.00819
1.00762
1.00704
1.00646
1.00601
1.00563
1.00568
1.00578
1.00871
1.00918
1.00945
1.00952
1.00942
1.00914
1.00874
1.00823
1.00766
1.00708
1.00651
1.00607
1.00569
1.00572
1.00581
1.00875
1.00922
1.00949
1.00957
1.00946
1.00919
1.00878
1.00828
1.00771
1.00713
1.00656
1.00612
1.00575
1.00576
1.00583
1.00879
1.00926
1.00953
1.00961
1.00951
1.00923
1.00883
1.00833
1.00776
1.00719
1.00662
1.00618
1.0058
1.0058
1.00585
1.00883
1.0093
1.00958
1.00966
1.00955
1.00928
1.00888
1.00838
1.00781
1.00724
1.00667
1.00623
1.00586
1.00583
1.00586
1.00888
1.00935
1.00963
1.00971
1.0096
1.00933
1.00893
1.00843
1.00786
1.00729
1.00672
1.00628
1.00591
1.00587
1.00588
1.00892
1.0094
1.00968
1.00976
1.00966
1.00939
1.00898
1.00848
1.00792
1.00734
1.00678
1.00633
1.00596
1.0059
1.00589
1.00897
1.00945
1.00973
1.00981
1.00971
1.00944
1.00904
1.00854
1.00797
1.0074
1.00683
1.00638
1.006
1.00593
1.0059
1.00902
1.0095
1.00978
1.00987
1.00977
1.0095
1.0091
1.00859
1.00803
1.00745
1.00688
1.00643
1.00605
1.00596
1.00591
1.00907
1.00955
1.00984
1.00992
1.00983
1.00956
1.00916
1.00865
1.00808
1.0075
1.00693
1.00647
1.00609
1.00598
1.00592
1.00912
1.0096
1.0099
1.00998
1.00989
1.00962
1.00922
1.00871
1.00814
1.00755
1.00698
1.00652
1.00613
1.006
1.00592
1.00917
1.00966
1.00995
1.01004
1.00995
1.00968
1.00927
1.00877
1.00819
1.0076
1.00703
1.00656
1.00616
1.00602
1.00593
1.00923
1.00972
1.01001
1.0101
1.01001
1.00974
1.00933
1.00882
1.00824
1.00765
1.00707
1.0066
1.0062
1.00604
1.00593
1.00929
1.00977
1.01007
1.01016
1.01007
1.0098
1.00939
1.00888
1.00829
1.0077
1.00711
1.00663
1.00623
1.00606
1.00593
1.00934
1.00983
1.01013
1.01022
1.01013
1.00986
1.00944
1.00893
1.00834
1.00774
1.00715
1.00667
1.00625
1.00607
1.00593
1.0094
1.0099
1.0102
1.01028
1.01019
1.00991
1.0095
1.00898
1.00839
1.00778
1.00719
1.0067
1.00628
1.00609
1.00593
1.00947
1.00996
1.01026
1.01035
1.01025
1.00997
1.00956
1.00903
1.00844
1.00783
1.00723
1.00673
1.00631
1.0061
1.00593
1.00953
1.01002
1.01033
1.01041
1.01031
1.01003
1.00961
1.00909
1.00849
1.00787
1.00727
1.00676
1.00633
1.00611
1.00593
1.00959
1.01009
1.01039
1.01048
1.01038
1.0101
1.00967
1.00914
1.00854
1.00792
1.00731
1.0068
1.00636
1.00612
1.00592
1.00966
1.01016
1.01046
1.01055
1.01045
1.01016
1.00974
1.0092
1.00859
1.00797
1.00735
1.00683
1.00638
1.00613
1.00592
1.00973
1.01023
1.01054
1.01062
1.01052
1.01023
1.0098
1.00926
1.00865
1.00801
1.00739
1.00686
1.0064
1.00614
1.00591
1.0098
1.0103
1.01061
1.0107
1.0106
1.01031
1.00987
1.00932
1.0087
1.00806
1.00743
1.00689
1.00642
1.00614
1.0059
1.00987
1.01037
1.01069
1.01078
1.01067
1.01038
1.00994
1.00939
1.00876
1.00811
1.00747
1.00691
1.00644
1.00614
1.00589
1.00994
1.01045
1.01076
1.01085
1.01075
1.01046
1.01001
1.00945
1.00881
1.00815
1.0075
1.00694
1.00645
1.00614
1.00588
1.01001
1.01052
1.01084
1.01093
1.01083
1.01053
1.01008
1.00951
1.00886
1.0082
1.00754
1.00696
1.00646
1.00614
1.00586
1.01009
1.0106
1.01092
1.01101
1.0109
1.0106
1.01015
1.00957
1.00892
1.00824
1.00757
1.00698
1.00647
1.00614
1.00585
1.01017
1.01068
1.011
1.01109
1.01098
1.01067
1.01021
1.00963
1.00896
1.00828
1.00759
1.007
1.00648
1.00613
1.00583
1.01025
1.01076
1.01108
1.01117
1.01106
1.01075
1.01028
1.00969
1.00901
1.00831
1.00762
1.00701
1.00648
1.00612
1.00581
1.01033
1.01085
1.01117
1.01125
1.01113
1.01082
1.01034
1.00974
1.00906
1.00835
1.00765
1.00703
1.00648
1.00612
1.00579
1.01041
1.01093
1.01125
1.01134
1.01121
1.01089
1.01041
1.0098
1.00911
1.00839
1.00767
1.00704
1.00649
1.00611
1.00577
1.0105
1.01102
1.01134
1.01142
1.0113
1.01097
1.01048
1.00986
1.00916
1.00843
1.0077
1.00706
1.00649
1.0061
1.00575
1.01058
1.01111
1.01143
1.01151
1.01138
1.01104
1.01055
1.00992
1.00921
1.00846
1.00773
1.00707
1.00649
1.00608
1.00572
1.01067
1.0112
1.01152
1.0116
1.01147
1.01113
1.01062
1.00998
1.00926
1.0085
1.00775
1.00708
1.00649
1.00607
1.0057
1.01076
1.0113
1.01162
1.0117
1.01156
1.01121
1.01069
1.01005
1.00931
1.00854
1.00778
1.0071
1.00649
1.00605
1.00567
1.01085
1.01139
1.01172
1.01179
1.01165
1.0113
1.01077
1.01012
1.00937
1.00859
1.00781
1.00711
1.00649
1.00604
1.00564
1.01095
1.01149
1.01182
1.01189
1.01175
1.01139
1.01085
1.01019
1.00942
1.00863
1.00784
1.00712
1.00648
1.00602
1.00561
1.01104
1.01159
1.01192
1.012
1.01185
1.01148
1.01094
1.01026
1.00948
1.00867
1.00786
1.00713
1.00647
1.006
1.00558
1.01114
1.01169
1.01202
1.0121
1.01195
1.01157
1.01102
1.01033
1.00954
1.00871
1.00789
1.00714
1.00646
1.00597
1.00554
1.01124
1.0118
1.01213
1.0122
1.01205
1.01167
1.01111
1.0104
1.0096
1.00875
1.00791
1.00714
1.00645
1.00594
1.0055
1.01134
1.0119
1.01224
1.01231
1.01215
1.01177
1.01119
1.01047
1.00965
1.00879
1.00793
1.00714
1.00643
1.00591
1.00546
1.01145
1.01201
1.01234
1.01242
1.01225
1.01186
1.01128
1.01054
1.0097
1.00882
1.00794
1.00714
1.00641
1.00588
1.00541
1.01155
1.01212
1.01245
1.01252
1.01235
1.01195
1.01136
1.01061
1.00975
1.00885
1.00795
1.00713
1.00639
1.00584
1.00537
1.01166
1.01223
1.01256
1.01263
1.01245
1.01204
1.01144
1.01067
1.0098
1.00888
1.00796
1.00712
1.00637
1.0058
1.00532
1.01177
1.01234
1.01267
1.01274
1.01256
1.01213
1.01151
1.01073
1.00984
1.00891
1.00797
1.00711
1.00634
1.00576
1.00527
1.01188
1.01246
1.01279
1.01285
1.01266
1.01222
1.01159
1.0108
1.00989
1.00894
1.00798
1.00711
1.00632
1.00572
1.00522
1.01199
1.01258
1.0129
1.01296
1.01276
1.01232
1.01167
1.01086
1.00994
1.00896
1.00799
1.0071
1.00629
1.00568
1.00516
1.01211
1.0127
1.01302
1.01308
1.01287
1.01242
1.01175
1.01093
1.00999
1.009
1.008
1.00709
1.00627
1.00564
1.00511
1.01223
1.01282
1.01315
1.0132
1.01298
1.01252
1.01184
1.011
1.01004
1.00903
1.00802
1.00708
1.00624
1.00559
1.00505
1.01235
1.01295
1.01327
1.01332
1.0131
1.01262
1.01193
1.01107
1.0101
1.00906
1.00803
1.00707
1.00621
1.00554
1.00499
1.01247
1.01308
1.0134
1.01345
1.01322
1.01273
1.01203
1.01115
1.01015
1.0091
1.00804
1.00706
1.00617
1.00549
1.00492
1.0126
1.01321
1.01354
1.01358
1.01334
1.01285
1.01213
1.01123
1.01021
1.00913
1.00805
1.00705
1.00614
1.00544
1.00486
1.01273
1.01335
1.01367
1.01371
1.01347
1.01296
1.01223
1.01131
1.01027
1.00917
1.00806
1.00703
1.0061
1.00538
1.00479
1.01286
1.01349
1.01381
1.01385
1.0136
1.01308
1.01233
1.01139
1.01033
1.0092
1.00807
1.00701
1.00606
1.00532
1.00471
1.01299
1.01363
1.01395
1.01399
1.01373
1.0132
1.01243
1.01147
1.01038
1.00923
1.00807
1.00699
1.00602
1.00526
1.00464
1.01313
1.01377
1.0141
1.01413
1.01386
1.01332
1.01253
1.01155
1.01044
1.00926
1.00807
1.00697
1.00597
1.00519
1.00456
1.01327
1.01392
1.01424
1.01427
1.014
1.01344
1.01263
1.01163
1.01049
1.00929
1.00808
1.00695
1.00593
1.00513
1.00448
1.01341
1.01407
1.01439
1.01442
1.01413
1.01356
1.01274
1.01171
1.01055
1.00932
1.00808
1.00692
1.00588
1.00506
1.00439
1.01356
1.01422
1.01454
1.01456
1.01427
1.01368
1.01284
1.0118
1.01061
1.00935
1.00808
1.0069
1.00583
1.00499
1.0043
1.0137
1.01437
1.01469
1.01471
1.01441
1.01381
1.01295
1.01188
1.01067
1.00938
1.00808
1.00687
1.00578
1.00491
1.00421
1.01385
1.01453
1.01485
1.01486
1.01455
1.01394
1.01306
1.01197
1.01073
1.00941
1.00808
1.00684
1.00572
1.00483
1.00412
1.014
1.01468
1.01501
1.01502
1.0147
1.01407
1.01318
1.01206
1.01079
1.00944
1.00808
1.00681
1.00566
1.00475
1.00401
1.01416
1.01484
1.01517
1.01518
1.01485
1.01421
1.01329
1.01215
1.01085
1.00947
1.00808
1.00677
1.00559
1.00466
1.00391
1.01432
1.01501
1.01533
1.01534
1.015
1.01434
1.0134
1.01224
1.0109
1.00949
1.00807
1.00673
1.00552
1.00456
1.0038
1.01448
1.01517
1.0155
1.0155
1.01515
1.01448
1.01352
1.01232
1.01096
1.00951
1.00805
1.00668
1.00545
1.00447
1.00369
1.01464
1.01534
1.01566
1.01566
1.0153
1.01461
1.01363
1.0124
1.01101
1.00952
1.00803
1.00663
1.00537
1.00437
1.00357
1.01481
1.01552
1.01583
1.01583
1.01545
1.01474
1.01374
1.01248
1.01105
1.00953
1.00801
1.00658
1.00529
1.00426
1.00345
1.01498
1.01569
1.01601
1.01599
1.01561
1.01488
1.01384
1.01256
1.0111
1.00955
1.00799
1.00652
1.00521
1.00416
1.00333
1.01515
1.01587
1.01618
1.01616
1.01576
1.01501
1.01395
1.01264
1.01114
1.00955
1.00796
1.00647
1.00512
1.00405
1.00321
1.01533
1.01605
1.01636
1.01633
1.01592
1.01515
1.01406
1.01272
1.01119
1.00957
1.00794
1.00641
1.00504
1.00394
1.00308
1.01551
1.01624
1.01655
1.01651
1.01608
1.01529
1.01418
1.0128
1.01124
1.00958
1.00792
1.00636
1.00496
1.00383
1.00295
1.01569
1.01643
1.01674
1.01669
1.01625
1.01544
1.0143
1.01289
1.01129
1.0096
1.0079
1.00631
1.00487
1.00372
1.00282
1.01588
1.01663
1.01693
1.01688
1.01642
1.01559
1.01442
1.01298
1.01135
1.00962
1.00789
1.00626
1.00479
1.00361
1.00268
1.01607
1.01683
1.01713
1.01708
1.0166
1.01575
1.01456
1.01308
1.01142
1.00965
1.00788
1.00621
1.0047
1.00349
1.00254
1.01627
1.01704
1.01734
1.01728
1.01679
1.01592
1.0147
1.01319
1.01149
1.00968
1.00786
1.00615
1.00461
1.00337
1.0024
1.01647
1.01725
1.01755
1.01749
1.01699
1.01609
1.01485
1.01331
1.01156
1.00971
1.00785
1.0061
1.00452
1.00324
1.00225
1.01667
1.01746
1.01776
1.0177
1.01719
1.01627
1.015
1.01342
1.01164
1.00974
1.00784
1.00604
1.00442
1.00311
1.00209
1.01688
1.01768
1.01798
1.01791
1.01739
1.01646
1.01515
1.01354
1.01171
1.00977
1.00782
1.00598
1.00432
1.00297
1.00193
1.01709
1.0179
1.01821
1.01813
1.0176
1.01664
1.01531
1.01366
1.01179
1.00979
1.0078
1.00591
1.00421
1.00283
1.00176
1.01731
1.01812
1.01843
1.01835
1.01781
1.01683
1.01547
1.01378
1.01186
1.00982
1.00777
1.00583
1.00409
1.00268
1.00158
1.01752
1.01835
1.01866
1.01858
1.01802
1.01702
1.01562
1.01389
1.01192
1.00983
1.00773
1.00575
1.00397
1.00252
1.0014
1.01775
1.01858
1.01889
1.01881
1.01823
1.01721
1.01577
1.014
1.01198
1.00984
1.00769
1.00566
1.00384
1.00236
1.00122
1.01797
1.01881
1.01913
1.01903
1.01844
1.01739
1.01592
1.01411
1.01204
1.00985
1.00765
1.00557
1.00371
1.00219
1.00103
1.0182
1.01905
1.01936
1.01926
1.01866
1.01758
1.01607
1.01421
1.0121
1.00985
1.0076
1.00548
1.00357
1.00202
1.00083
1.01844
1.01929
1.01961
1.0195
1.01887
1.01777
1.01622
1.01431
1.01215
1.00985
1.00754
1.00537
1.00343
1.00185
1.00063
1.01868
1.01954
1.01985
1.01974
1.01909
1.01795
1.01637
1.01442
1.0122
1.00985
1.00749
1.00527
1.00329
1.00167
1.00043
1.01892
1.01979
1.0201
1.01998
1.01931
1.01815
1.01652
1.01452
1.01225
1.00984
1.00743
1.00517
1.00314
1.00149
1.00022
1.01917
1.02005
1.02036
1.02022
1.01954
1.01834
1.01668
1.01463
1.0123
1.00984
1.00738
1.00506
1.00299
1.0013
1.00001
1.01942
1.02032
1.02062
1.02048
1.01977
1.01854
1.01684
1.01473
1.01236
1.00984
1.00732
1.00496
1.00284
1.00111
0.999788
1.01968
1.02058
1.02089
1.02074
1.02001
1.01875
1.017
1.01485
1.01242
1.00984
1.00727
1.00485
1.00268
1.00092
0.999566
1.01994
1.02086
1.02116
1.021
1.02025
1.01896
1.01717
1.01497
1.01248
1.00984
1.00721
1.00474
1.00252
1.00072
0.999336
1.02021
1.02114
1.02144
1.02127
1.0205
1.01918
1.01735
1.01509
1.01254
1.00984
1.00715
1.00462
1.00236
1.00052
0.999103
1.02049
1.02143
1.02173
1.02155
1.02076
1.0194
1.01753
1.01521
1.0126
1.00984
1.00709
1.00451
1.0022
1.00031
0.998861
1.02077
1.02172
1.02202
1.02184
1.02103
1.01963
1.01771
1.01534
1.01267
1.00985
1.00703
1.00439
1.00203
1.00009
0.998616
1.02105
1.02201
1.02232
1.02213
1.02129
1.01987
1.0179
1.01548
1.01274
1.00985
1.00697
1.00426
1.00185
0.999871
0.998361
1.02134
1.02232
1.02263
1.02243
1.02157
1.02011
1.01809
1.01561
1.01281
1.00985
1.0069
1.00413
1.00167
0.999645
0.998102
1.02164
1.02263
1.02294
1.02273
1.02185
1.02036
1.01829
1.01575
1.01287
1.00984
1.00683
1.004
1.00148
0.999411
0.997835
1.02194
1.02294
1.02325
1.02304
1.02214
1.02061
1.01849
1.01588
1.01294
1.00984
1.00675
1.00386
1.00128
0.999172
0.997562
1.02225
1.02326
1.02358
1.02335
1.02243
1.02086
1.01869
1.01602
1.01301
1.00983
1.00667
1.00372
1.00108
0.998925
0.997281
1.02256
1.02359
1.0239
1.02367
1.02273
1.02112
1.01889
1.01616
1.01307
1.00982
1.00659
1.00357
1.00088
0.998673
0.996995
1.02288
1.02392
1.02424
1.024
1.02303
1.02138
1.0191
1.0163
1.01313
1.00981
1.0065
1.00341
1.00066
0.998412
0.9967
1.0232
1.02426
1.02458
1.02433
1.02334
1.02165
1.01931
1.01643
1.0132
1.00979
1.00641
1.00325
1.00044
0.998147
0.996399
1.02353
1.02461
1.02493
1.02467
1.02365
1.02191
1.01952
1.01657
1.01326
1.00977
1.00631
1.00308
1.00022
0.997873
0.99609
1.02387
1.02496
1.02528
1.02501
1.02397
1.02219
1.01973
1.01671
1.01332
1.00974
1.00621
1.00291
0.999987
0.997594
0.995775
1.02422
1.02532
1.02564
1.02537
1.02429
1.02247
1.01995
1.01685
1.01337
1.00972
1.0061
1.00273
0.999748
0.997306
0.995452
1.02457
1.02569
1.02601
1.02572
1.02462
1.02275
1.02017
1.01699
1.01343
1.00969
1.00599
1.00255
0.999504
0.997013
0.995123
1.02492
1.02606
1.02639
1.02609
1.02496
1.02304
1.02039
1.01714
1.01348
1.00965
1.00588
1.00236
0.999253
0.996712
0.994784
1.02529
1.02644
1.02677
1.02646
1.0253
1.02333
1.02062
1.01728
1.01354
1.00962
1.00576
1.00217
0.998996
0.996405
0.99444
1.02566
1.02683
1.02717
1.02685
1.02565
1.02363
1.02085
1.01743
1.01359
1.00958
1.00563
1.00196
0.998731
0.996089
0.994086
1.02604
1.02723
1.02757
1.02724
1.02601
1.02394
1.02108
1.01758
1.01365
1.00954
1.0055
1.00176
0.998461
0.995767
0.993726
1.02643
1.02764
1.02798
1.02763
1.02638
1.02425
1.02132
1.01772
1.0137
1.0095
1.00537
1.00154
0.998181
0.995435
0.993356
1.02682
1.02805
1.02839
1.02804
1.02675
1.02457
1.02156
1.01788
1.01375
1.00945
1.00523
1.00133
0.997896
0.995097
0.99298
1.02723
1.02847
1.02882
1.02845
1.02713
1.02489
1.02181
1.01803
1.0138
1.0094
1.00509
1.0011
0.997602
0.99475
0.992594
1.02764
1.02891
1.02926
1.02888
1.02752
1.02523
1.02206
1.01818
1.01385
1.00934
1.00494
1.00087
0.997302
0.994396
0.992201
1.02806
1.02935
1.0297
1.02931
1.02792
1.02556
1.02231
1.01833
1.0139
1.00929
1.00478
1.00063
0.996991
0.994031
0.991797
1.02849
1.0298
1.03016
1.02975
1.02832
1.02591
1.02257
1.01849
1.01394
1.00922
1.00462
1.00038
0.996674
0.99366
0.991386
1.02892
1.03025
1.03062
1.03021
1.02874
1.02626
1.02283
1.01865
1.01399
1.00915
1.00445
1.00012
0.996347
0.993278
0.990965
1.02937
1.03072
1.03109
1.03067
1.02916
1.02661
1.0231
1.0188
1.01403
1.00908
1.00427
0.999858
0.996012
0.992888
0.990536
1.02982
1.0312
1.03158
1.03114
1.02959
1.02697
1.02336
1.01896
1.01406
1.009
1.00409
0.999584
0.995667
0.992488
0.990096
1.03029
1.03169
1.03207
1.03162
1.03003
1.02735
1.02364
1.01912
1.0141
1.00892
1.0039
0.999304
0.995314
0.99208
0.989648
1.03076
1.03219
1.03257
1.03211
1.03048
1.02772
1.02391
1.01928
1.01413
1.00883
1.0037
0.999013
0.99495
0.99166
0.989189
1.03124
1.0327
1.03309
1.03261
1.03094
1.02811
1.02419
1.01943
1.01416
1.00873
1.00349
0.998714
0.994578
0.991232
0.988722
1.03173
1.03322
1.03362
1.03313
1.0314
1.02849
1.02448
1.01959
1.01419
1.00863
1.00328
0.998404
0.994194
0.990793
0.988243
1.03224
1.03375
1.03416
1.03365
1.03188
1.02889
1.02477
1.01975
1.01421
1.00852
1.00305
0.998086
0.993801
0.990345
0.987756
1.03275
1.03429
1.03471
1.03418
1.03237
1.0293
1.02506
1.01991
1.01422
1.00841
1.00282
0.997756
0.993397
0.989884
0.987257
1.03328
1.03485
1.03527
1.03473
1.03287
1.02971
1.02535
1.02006
1.01424
1.00828
1.00258
0.997417
0.992983
0.989415
0.986749
1.03381
1.03541
1.03584
1.03529
1.03338
1.03013
1.02565
1.02022
1.01424
1.00815
1.00233
0.997066
0.992556
0.988932
0.986228
1.03436
1.03599
1.03643
1.03586
1.03389
1.03056
1.02595
1.02037
1.01425
1.00801
1.00206
0.996705
0.99212
0.988441
0.985699
1.03492
1.03658
1.03703
1.03645
1.03442
1.03099
1.02625
1.02052
1.01424
1.00786
1.00179
0.996331
0.99167
0.987936
0.985157
1.03549
1.03719
1.03765
1.03705
1.03497
1.03143
1.02656
1.02068
1.01423
1.00771
1.00151
0.995947
0.99121
0.987422
0.984605
1.03607
1.03781
1.03827
1.03766
1.03552
1.03188
1.02687
1.02082
1.01422
1.00754
1.00121
0.995549
0.990736
0.986893
0.984041
1.03667
1.03844
1.03892
1.03828
1.03608
1.03234
1.02718
1.02097
1.0142
1.00737
1.0009
0.99514
0.990251
0.986355
0.983466
1.03727
1.03908
1.03957
1.03892
1.03666
1.03281
1.0275
1.02112
1.01417
1.00718
1.00058
0.994717
0.989751
0.985802
0.982878
1.03789
1.03974
1.04025
1.03958
1.03725
1.03328
1.02782
1.02126
1.01413
1.00698
1.00025
0.994281
0.98924
0.985238
0.982281
1.03853
1.04042
1.04094
1.04024
1.03785
1.03376
1.02814
1.02139
1.01409
1.00677
0.999907
0.99383
0.988713
0.98466
0.981669
1.03918
1.04111
1.04164
1.04093
1.03846
1.03425
1.02846
1.02153
1.01403
1.00655
0.999548
0.993366
0.988174
0.984071
0.981047
1.03984
1.04182
1.04236
1.04163
1.03909
1.03475
1.02879
1.02166
1.01397
1.00631
0.999173
0.992886
0.98762
0.983466
0.980411
1.04052
1.04254
1.0431
1.04235
1.03973
1.03526
1.02911
1.02178
1.01389
1.00607
0.998785
0.992392
0.987052
0.982849
0.979764
1.04121
1.04328
1.04386
1.04308
1.04038
1.03577
1.02944
1.0219
1.01381
1.0058
0.998379
0.991881
0.986467
0.982217
0.979103
1.04192
1.04404
1.04463
1.04383
1.04105
1.03629
1.02977
1.02201
1.01371
1.00553
0.997959
0.991355
0.985869
0.981572
0.97843
1.04265
1.04481
1.04542
1.0446
1.04173
1.03682
1.0301
1.02212
1.0136
1.00523
0.997521
0.99081
0.985253
0.980911
0.977743
1.04339
1.04561
1.04623
1.04539
1.04243
1.03736
1.03042
1.02222
1.01348
1.00492
0.997066
0.99025
0.984622
0.980237
0.977045
1.04415
1.04642
1.04706
1.04619
1.04314
1.03791
1.03075
1.0223
1.01335
1.0046
0.996592
0.98967
0.983973
0.979547
0.976331
1.04493
1.04725
1.04792
1.04702
1.04387
1.03846
1.03108
1.02239
1.0132
1.00425
0.9961
0.989074
0.983309
0.978842
0.975605
1.04572
1.0481
1.04879
1.04786
1.04461
1.03902
1.0314
1.02245
1.01303
1.00389
0.995587
0.988457
0.982626
0.97812
0.974864
1.04653
1.04898
1.04969
1.04873
1.04537
1.03959
1.03172
1.02251
1.01285
1.00351
0.995055
0.987822
0.981926
0.977385
0.974111
1.04737
1.04987
1.0506
1.04962
1.04614
1.04016
1.03204
1.02256
1.01265
1.0031
0.9945
0.987165
0.981207
0.976631
0.973341
1.04822
1.05079
1.05154
1.05053
1.04693
1.04075
1.03236
1.0226
1.01243
1.00268
0.993925
0.986489
0.98047
0.975862
0.972559
1.04909
1.05173
1.05251
1.05146
1.04773
1.04133
1.03267
1.02262
1.01219
1.00223
0.993326
0.985791
0.979713
0.975075
0.971761
1.04998
1.05269
1.0535
1.05241
1.04855
1.04193
1.03297
1.02262
1.01193
1.00176
0.992704
0.985072
0.978938
0.974273
0.970949
1.0509
1.05368
1.05451
1.05339
1.04939
1.04253
1.03327
1.02261
1.01164
1.00126
0.992057
0.984329
0.978141
0.973452
0.970121
1.05184
1.05469
1.05556
1.05439
1.05025
1.04313
1.03356
1.02258
1.01133
1.00074
0.991385
0.983564
0.977326
0.972615
0.96928
1.0528
1.05573
1.05663
1.05542
1.05112
1.04374
1.03384
1.02253
1.011
1.00019
0.990686
0.982774
0.976488
0.971758
0.968421
1.05378
1.0568
1.05773
1.05647
1.05201
1.04435
1.03411
1.02246
1.01064
0.999612
0.989962
0.981961
0.975631
0.970885
0.967549
1.05479
1.05789
1.05885
1.05755
1.05291
1.04496
1.03436
1.02237
1.01025
0.999004
0.989208
0.981122
0.974751
0.969992
0.96666
1.05583
1.05901
1.06001
1.05866
1.05384
1.04558
1.03461
1.02225
1.00983
0.998366
0.988426
0.980258
0.97385
0.969082
0.965756
1.05689
1.06016
1.0612
1.0598
1.05478
1.04619
1.03484
1.0221
1.00938
0.997694
0.987613
0.979367
0.972925
0.968151
0.964835
1.05798
1.06135
1.06243
1.06096
1.05573
1.04681
1.03505
1.02193
1.0089
0.996991
0.986771
0.978451
0.971979
0.967203
0.9639
1.05909
1.06256
1.06368
1.06215
1.0567
1.04742
1.03524
1.02173
1.00838
0.996251
0.985896
0.977505
0.971008
0.966234
0.962946
1.06024
1.06381
1.06498
1.06338
1.05769
1.04803
1.03541
1.02149
1.00783
0.995476
0.984989
0.976533
0.970015
0.965247
0.961978
1.06141
1.0651
1.06631
1.06464
1.0587
1.04863
1.03555
1.02122
1.00723
0.994661
0.984047
0.975531
0.968997
0.964239
0.960992
1.06262
1.06642
1.06767
1.06592
1.05972
1.04923
1.03567
1.02091
1.00659
0.99381
0.983072
0.974501
0.967956
0.963211
0.959991
1.06386
1.06777
1.06908
1.06724
1.06075
1.04982
1.03576
1.02056
1.00591
0.992915
0.98206
0.97344
0.966889
0.962163
0.958972
1.06513
1.06917
1.07053
1.0686
1.0618
1.0504
1.03582
1.02016
1.00519
0.99198
0.981013
0.97235
0.965798
0.961095
0.957937
1.06644
1.07061
1.07202
1.06999
1.06286
1.05096
1.03584
1.01972
1.00441
0.991
0.979927
0.971227
0.964681
0.960005
0.956884
1.06778
1.07209
1.07356
1.07141
1.06394
1.0515
1.03583
1.01923
1.00359
0.989976
0.978804
0.970074
0.963539
0.958896
0.955815
1.06916
1.07361
1.07514
1.07287
1.06502
1.05203
1.03577
1.01869
1.00272
0.988904
0.97764
0.968887
0.962371
0.957765
0.954728
1.07058
1.07518
1.07677
1.07437
1.06611
1.05253
1.03567
1.0181
1.00179
0.987785
0.976437
0.96767
0.961177
0.956613
0.953625
1.07204
1.07679
1.07845
1.0759
1.0672
1.053
1.03551
1.01744
1.0008
0.986615
0.975192
0.966418
0.959955
0.95544
0.952503
1.07354
1.07846
1.08019
1.07747
1.0683
1.05345
1.0353
1.01672
0.999755
0.985395
0.973906
0.965133
0.958709
0.954246
0.951366
1.07509
1.08018
1.08198
1.07907
1.06941
1.05385
1.03503
1.01594
0.998646
0.984121
0.972576
0.963814
0.957434
0.953029
0.95021
1.07668
1.08195
1.08382
1.08071
1.07051
1.05422
1.0347
1.01508
0.997473
0.982794
0.971204
0.962461
0.956133
0.951793
0.949038
1.07832
1.08378
1.08572
1.08239
1.0716
1.05454
1.03429
1.01415
0.996233
0.98141
0.969786
0.961073
0.954804
0.950533
0.947847
1.08001
1.08568
1.08769
1.08411
1.07269
1.05481
1.03381
1.01315
0.994925
0.97997
0.968325
0.959651
0.953449
0.949253
0.94664
1.08174
1.08763
1.08972
1.08586
1.07376
1.05502
1.03325
1.01206
0.993543
0.97847
0.966816
0.958192
0.952065
0.947951
0.945415
1.08353
1.08965
1.09181
1.08764
1.07481
1.05516
1.03261
1.01088
0.992088
0.976912
0.965263
0.9567
0.950655
0.946628
0.944173
1.08538
1.09174
1.09398
1.08946
1.07583
1.05523
1.03186
1.00961
0.990556
0.975293
0.963662
0.95517
0.949217
0.945283
0.942913
1.08729
1.0939
1.09621
1.09131
1.07683
1.05522
1.03102
1.00825
0.988945
0.973612
0.962015
0.953606
0.947752
0.943917
0.941638
1.08925
1.09614
1.09852
1.09318
1.07778
1.05511
1.03007
1.00679
0.987253
0.971868
0.96032
0.952006
0.94626
0.94253
0.940344
1.09128
1.09847
1.1009
1.09508
1.07869
1.05491
1.02901
1.00523
0.985478
0.970061
0.958578
0.950371
0.944741
0.941122
0.939034
1.09338
1.10087
1.10336
1.097
1.07954
1.0546
1.02782
1.00356
0.983617
0.968189
0.956788
0.9487
0.943194
0.939692
0.937707
1.09554
1.10338
1.1059
1.09894
1.08032
1.05417
1.02651
1.00177
0.98167
0.966253
0.954951
0.946994
0.941622
0.938243
0.936364
1.09778
1.10597
1.10852
1.10088
1.08103
1.0536
1.02505
0.999875
0.979634
0.964251
0.953066
0.945253
0.940022
0.936772
0.935004
1.10009
1.10867
1.11123
1.10283
1.08164
1.05289
1.02346
0.997859
0.977508
0.962184
0.951135
0.943479
0.938398
0.935282
0.933629
1.10249
1.11148
1.11402
1.10477
1.08215
1.05203
1.02171
0.995719
0.975291
0.960051
0.949156
0.941669
0.936747
0.933771
0.932237
1.10497
1.1144
1.11689
1.10669
1.08253
1.051
1.0198
0.993455
0.972984
0.957854
0.947131
0.939828
0.935072
0.932241
0.930831
1.10754
1.11744
1.11985
1.10859
1.08278
1.04978
1.01772
0.991062
0.970583
0.955591
0.945061
0.937952
0.933372
0.930692
0.929409
1.11021
1.12061
1.12289
1.11045
1.08287
1.04837
1.01548
0.988539
0.96809
0.953264
0.942946
0.936046
0.931648
0.929125
0.927973
1.11298
1.12392
1.12602
1.11224
1.08279
1.04674
1.01304
0.985883
0.965505
0.950874
0.940788
0.934107
0.929901
0.927538
0.926521
1.11586
1.12737
1.12921
1.11397
1.08251
1.04489
1.01043
0.983094
0.962828
0.948422
0.938587
0.93214
0.928131
0.925935
0.925056
1.11885
1.13097
1.13248
1.1156
1.08201
1.0428
1.00762
0.980171
0.96006
0.945908
0.936345
0.930143
0.926339
0.924314
0.923576
1.12196
1.13474
1.13582
1.11711
1.08127
1.04046
1.00461
0.977113
0.957204
0.943336
0.934064
0.928118
0.924526
0.922677
0.922084
1.1252
1.13867
1.13921
1.11848
1.08025
1.03784
1.0014
0.973922
0.954259
0.940707
0.931744
0.926066
0.922692
0.921022
0.920577
1.12858
1.14278
1.14264
1.11968
1.07894
1.03494
0.997993
0.970598
0.95123
0.938023
0.929389
0.92399
0.92084
0.919354
0.919059
1.13212
1.14708
1.1461
1.12068
1.07731
1.03174
0.994376
0.967144
0.948117
0.935286
0.926999
0.921888
0.918968
0.917669
0.917527
1.13582
1.15157
1.14956
1.12143
1.07532
1.02824
0.990553
0.963564
0.944926
0.9325
0.924579
0.919765
0.91708
0.915972
0.915985
1.13969
1.15626
1.15302
1.12191
1.07294
1.02442
0.986526
0.959861
0.941659
0.929667
0.922127
0.91762
0.915175
0.914259
0.914431
1.14375
1.16116
1.15643
1.12207
1.07016
1.02027
0.982298
0.956039
0.938321
0.926792
0.919649
0.915456
0.913255
0.912536
0.912867
1.14803
1.16626
1.15976
1.12185
1.06693
1.01579
0.977873
0.952105
0.934915
0.923877
0.917146
0.913274
0.91132
0.910799
0.911291
1.15253
1.17158
1.16298
1.12122
1.06323
1.01097
0.973258
0.948066
0.931449
0.920927
0.914622
0.911077
0.909372
0.909053
0.909707
1.15727
1.1771
1.16604
1.12012
1.05902
1.00581
0.968462
0.943928
0.927925
0.917945
0.912078
0.908864
0.907412
0.907295
0.908113
1.16229
1.18283
1.16889
1.11848
1.05429
1.00032
0.963495
0.9397
0.924352
0.914936
0.909518
0.90664
0.905443
0.90553
0.906512
1.1676
1.18876
1.17146
1.11626
1.04902
0.994505
0.95837
0.93539
0.920735
0.911905
0.906944
0.904405
0.903463
0.903755
0.904901
1.17324
1.19486
1.1737
1.11338
1.04317
0.988373
0.953101
0.931009
0.917081
0.908856
0.904361
0.902161
0.901476
0.901973
0.903285
1.17924
1.20112
1.17551
1.10979
1.03675
0.981942
0.947705
0.926566
0.913396
0.905794
0.90177
0.899911
0.899482
0.900185
0.90166
1.18563
1.2075
1.17682
1.10542
1.02974
0.975232
0.942199
0.922072
0.90969
0.902725
0.899174
0.897656
0.897484
0.898392
0.900031
1.19245
1.21395
1.17753
1.10021
1.02214
0.968269
0.936603
0.917538
0.905967
0.899652
0.896577
0.895397
0.895481
0.896593
0.898395
1.19973
1.22044
1.17753
1.0941
1.01396
0.961084
0.930936
0.912975
0.902238
0.896583
0.893983
0.893138
0.893478
0.894793
0.896756
1.20754
1.22688
1.17671
1.08703
1.00523
0.953713
0.925219
0.908395
0.89851
0.89352
0.891392
0.89088
0.891473
0.892989
0.895111
1.2159
1.23318
1.17494
1.07895
0.995962
0.946196
0.919474
0.90381
0.89479
0.89047
0.888809
0.888626
0.889471
0.891185
0.893464
1.22487
1.23926
1.17209
1.06984
0.986211
0.938577
0.913721
0.899231
0.891088
0.887436
0.886237
0.886377
0.887471
0.889381
0.891811
1.23449
1.24497
1.16801
1.05965
0.976031
0.930902
0.907982
0.894669
0.88741
0.884425
0.883678
0.884137
0.885477
0.887578
0.890158
1.24481
1.25016
1.16257
1.04839
0.965493
0.923219
0.902274
0.890136
0.883766
0.881439
0.881135
0.881907
0.883488
0.885776
0.888499
1.25586
1.25466
1.15562
1.03606
0.954679
0.915578
0.896617
0.885645
0.880164
0.878485
0.878611
0.87969
0.881509
0.883978
0.88684
1.26768
1.25826
1.14701
1.02271
0.943688
0.908023
0.891028
0.881206
0.87661
0.875565
0.87611
0.877489
0.87954
0.882183
0.885177
1.28028
1.2607
1.13659
1.0084
0.932626
0.9006
0.885522
0.876831
0.873111
0.872684
0.873635
0.875306
0.877583
0.880393
0.883513
1.29367
1.2617
1.12424
0.993232
0.921608
0.893346
0.880112
0.872531
0.869676
0.869845
0.871188
0.873145
0.87564
0.878608
0.881845
1.30779
1.26093
1.10984
0.977361
0.910753
0.886293
0.874811
0.868317
0.866308
0.867052
0.868774
0.871008
0.873712
0.876829
0.880176
1.32259
1.258
1.09329