1.275 	2.15223e-18 	-2.76991e-20 	-0.0333297 	-0.00047492 	-2.01206e-22
1.825 	2.15223e-18 	-1.39322e-20 	-0.00760102 	-0.00286328 	1.80857e-21
2.375 	2.15223e-18 	-2.66896e-23 	0.120676 	-0.00340532 	-7.54139e-22
