1.45 	0 	0 	-0.299559
2.35 	0 	0 	-0.133112
