1.45 	0 	0 	-0.299782
2.35 	0 	0 	-0.133235
