/*--------------------------------*- C++ -*----------------------------------*\
  =========                 |
  \\      /  F ield         | OpenFOAM: The Open Source CFD Toolbox
   \\    /   O peration     | Website:  https://openfoam.org
    \\  /    A nd           | Version:  6.0
     \\/     M anipulation  |
\*---------------------------------------------------------------------------*/
FoamFile
{
    version     2.0;
    format      ascii;
    class       surfaceScalarField;
    location    "10";
    object      phi;
}
// * * * * * * * * * * * * * * * * * * * * * * * * * * * * * * * * * * * * * //

dimensions      [0 3 -1 0 0 0 0];

internalField   nonuniform List<scalar> 
3880
(
-1.79731e-05
1.79727e-05
3.87295e-10
-5.33499e-05
3.53761e-05
6.72423e-10
-9.48786e-05
4.1528e-05
7.14417e-10
-0.000135447
4.0568e-05
6.12747e-10
-0.000170668
3.522e-05
4.21176e-10
-0.000198116
2.74487e-05
1.63775e-10
-0.000216864
1.87479e-05
-1.36328e-10
-0.000227168
1.03042e-05
-4.58996e-10
-0.000230266
3.09908e-06
-7.98375e-10
-2.08867e-06
-1.1398e-09
-0.000228176
-1.72829e-05
3.52556e-05
-5.06629e-05
6.87562e-05
-8.90288e-05
7.98939e-05
-0.000125381
7.69205e-05
-0.000155372
6.52109e-05
-0.000176542
4.86187e-05
-0.000187872
3.00774e-05
-0.000189515
1.19476e-05
-0.000182653
-3.76261e-06
-1.54051e-05
-0.000169337
-1.58686e-05
5.11242e-05
-4.51769e-05
9.80645e-05
-7.71352e-05
0.000111852
-0.000105014
0.0001048
-0.000124589
8.47862e-05
-0.000133367
5.73958e-05
-0.000130164
2.68746e-05
-0.000114923
-3.29344e-06
-8.86834e-05
-3.00019e-05
-5.05411e-05
-5.35474e-05
-1.36455e-05
6.47697e-05
-3.66179e-05
0.000121037
-5.87057e-05
0.00013394
-7.36891e-05
0.000119783
-7.76428e-05
8.87399e-05
-6.81241e-05
4.78771e-05
-4.3772e-05
2.52256e-06
-4.20663e-06
-4.28588e-05
4.98063e-05
-8.40149e-05
-0.000116879
0.000116144
-1.04532e-05
7.52229e-05
-2.44782e-05
0.000135062
-3.2791e-05
0.000142253
-3.00236e-05
0.000117015
-1.28591e-05
7.15754e-05
2.08519e-05
1.41661e-05
7.25323e-05
-4.91579e-05
0.000142944
-0.000113271
0.000231793
-0.000172863
-0.000222136
0.00033705
-6.04359e-06
8.12665e-05
-7.97908e-06
0.000136997
2.12497e-06
0.000132149
2.83668e-05
9.07736e-05
7.2999e-05
2.69432e-05
0.000137405
-5.02398e-05
0.00022268
-0.000134433
0.00032983
-0.000220421
0.000459268
-0.000302301
-0.000372094
0.000609226
-1.07468e-07
8.13739e-05
1.38456e-05
0.000123044
4.8015e-05
9.79795e-05
0.000104838
3.39506e-05
0.000184979
-5.31976e-05
0.000288334
-0.000153595
0.00041482
-0.000260918
0.000564983
-0.000370585
0.000739892
-0.00047721
-0.000570817
0.000938616
7.63665e-06
7.37373e-05
4.18707e-05
8.88101e-05
0.000106786
3.30639e-05
0.000202987
-6.22496e-05
0.000329182
-0.000179393
0.000482993
-0.000307406
0.00066179
-0.000439715
0.000863841
-0.000572636
0.00108958
-0.000702948
-0.000823641
0.0013424
1.72955e-05
5.64418e-05
7.64044e-05
2.97012e-05
0.000179315
-6.9847e-05
0.000325105
-0.000208039
0.000510807
-0.000365095
0.00073163
-0.000528229
0.000981263
-0.000689348
0.00125287
-0.000844241
0.00154263
-0.000992711
-0.00114544
0.00186443
2.86041e-05
2.78377e-05
0.000116531
-5.82254e-05
0.000263955
-0.000217271
0.000469437
-0.000413521
0.000730138
-0.000625796
0.00104153
-0.000839621
0.00139675
-0.00104457
0.00178498
-0.00123247
0.00219048
-0.00139821
-0.00154515
0.00259019
4.0751e-05
-1.29133e-05
0.000159403
-0.000176878
0.00035428
-0.000412148
0.000624038
-0.000683279
0.000967961
-0.000969719
0.00138663
-0.00125829
0.00188313
-0.00154108
0.00246633
-0.00181567
0.00315868
-0.00209055
-0.00240331
0.00401683
5.26581e-05
-6.55714e-05
0.000201036
-0.000325256
0.000440247
-0.000651359
0.00076666
-0.00100969
0.00117745
-0.00138051
0.00167061
-0.00175144
0.00224489
-0.00211536
0.00289925
-0.00247002
0.00362809
-0.0028194
-0.00317241
0.0043972
6.38076e-05
-0.000129379
0.000239381
-0.000500829
0.000517137
-0.000929115
0.000888909
-0.00138146
0.00134676
-0.00183837
0.00188239
-0.00228707
0.00248642
-0.00271939
0.00314694
-0.00313054
0.00384533
-0.00351779
-0.00387505
0.00454796
7.42163e-05
-0.000203595
0.000274153
-0.000700765
0.000584388
-0.00123935
0.00099095
-0.00178803
0.00147977
-0.00232719
0.00203606
-0.00284335
0.00264386
-0.0033272
0.00328537
-0.00377204
0.00393929
-0.00417172
-0.00451512
0.00457936
8.4022e-05
-0.000287617
0.000305479
-0.000922222
0.000642236
-0.00157611
0.0010739
-0.00221969
0.00158023
-0.00283353
0.00214088
-0.003404
0.0027355
-0.00392182
0.00334392
-0.00438045
0.00394601
-0.00477381
-0.00509115
0.00452203
9.32089e-05
-0.000380826
0.000333087
-0.0011621
0.000690086
-0.00193311
0.00113717
-0.00266678
0.00164841
-0.00334476
0.00219908
-0.00395468
0.00276638
-0.00448912
0.00332999
-0.00494406
0.00387251
-0.00531633
-0.00559886
0.00438022
0.000101531
-0.000482357
0.00035609
-0.00141666
0.000726222
-0.00230324
0.00117838
-0.00311893
0.0016817
-0.00384808
0.00220853
-0.00448151
0.00273532
-0.00501591
0.00324326
-0.005452
0.0037186
-0.00579167
-0.00603358
0.00415332
0.000108557
-0.000590914
0.000373144
-0.00168125
0.000748233
-0.00267833
0.00119426
-0.00356496
0.00167658
-0.00433039
0.00216615
-0.00497108
0.00264032
-0.00549008
0.00308309
-0.00589477
0.003485
-0.00619358
-0.00639188
0.0038433
0.000113765
-0.000704678
0.000382743
-0.00195023
0.000753627
-0.00304921
0.00118179
-0.00399313
0.00163025
-0.00477885
0.00207024
-0.00541108
0.0024815
-0.00590133
0.0028518
-0.00626506
0.00317619
-0.00651797
-0.00667225
0.00345655
0.000116626
-0.000821305
0.000383484
-0.00221708
0.000740346
-0.00340607
0.00113892
-0.0043917
0.00154161
-0.00518154
0.00192154
-0.00579102
0.00226202
-0.00624181
0.00255516
-0.0065582
0.00280038
-0.00676319
-0.00687521
0.00300335
0.000116679
-0.000937983
0.000374274
-0.00247468
0.000707102
-0.0037389
0.00106501
-0.00474961
0.00141159
-0.00552812
0.00172334
-0.00610276
0.00198789
-0.00650636
0.00220185
-0.00677216
0.0023685
-0.00692984
-0.00700303
0.00249632
0.000113525
-0.00105151
0.000354361
-0.00271551
0.000653409
-0.00403795
0.000960741
-0.00505694
0.00124293
-0.00581031
0.00148089
-0.00634072
0.00166704
-0.00669251
0.00180214
-0.00690726
0.00189265
-0.00702035
-0.00705922
0.00194883
0.000106907
-0.00115842
0.000323471
-0.00293208
0.000579706
-0.00429418
0.00082812
-0.00530535
0.00103981
-0.006022
0.00120089
-0.0065018
0.00130847
-0.00680009
0.00136691
-0.00696571
0.00138495
-0.00703839
-0.00704806
0.00137379
9.66835e-05
-0.0012551
0.000281738
-0.00311713
0.000487162
-0.00449961
0.000670064
-0.00548825
0.000807322
-0.00615925
0.000890569
-0.00658505
0.000921242
-0.00683076
0.000906508
-0.00695097
0.000856508
-0.00698839
-0.00697422
0.000782665
8.28378e-05
-0.00133794
0.000229686
-0.00326398
0.000377551
-0.00464747
0.000490105
-0.00560081
0.000550889
-0.00622004
0.00055705
-0.00659121
0.000513747
-0.00678746
0.000430079
-0.00686731
0.000316756
-0.00687506
-0.00684239
0.000184926
6.54905e-05
-0.00140343
0.000168205
-0.0033667
0.000253136
-0.0047324
0.000292131
-0.0056398
0.000275893
-0.0062038
0.000206817
-0.00652213
9.31145e-05
-0.00667376
-5.50287e-05
-0.00671916
-0.00022708
-0.00670301
-0.00665709
-0.000412372
4.49143e-05
-0.00144834
9.85603e-05
-0.00342034
0.000116624
-0.00475047
8.02886e-05
-0.00560347
-1.24757e-05
-0.00611103
-0.000154454
-0.00638015
-0.000335001
-0.00649321
-0.000543509
-0.00651065
-0.000770243
-0.00647628
-0.00642206
-0.00100527
2.15612e-05
-0.0014699
2.24259e-05
-0.00342121
-2.87966e-05
-0.00469924
-0.000140968
-0.0054913
-0.000309126
-0.00594288
-0.000521786
-0.00616749
-0.000766328
-0.00624867
-0.00103211
-0.00624487
-0.00131073
-0.00619765
-0.00613765
-0.00159514
-3.8963e-06
-0.00146601
-5.80374e-05
-0.00336707
-0.000179335
-0.00457795
-0.00036671
-0.00530392
-0.000608965
-0.00570062
-0.000891135
-0.00588532
-0.00119896
-0.00594084
-0.00152164
-0.00592219
-0.00185233
-0.00586696
-0.00579709
-0.00219289
-3.05015e-05
-0.0014355
-0.000140004
-0.00325756
-0.00033014
-0.00438781
-0.000590557
-0.00504351
-0.00090533
-0.00538585
-0.0012578
-0.00553286
-0.00163339
-0.00556525
-0.00202171
-0.00553387
-0.00241906
-0.00546961
-0.00540554
-0.00281062
-5.70185e-05
-0.00137849
-0.000219952
-0.00309463
-0.000474795
-0.00413297
-0.00080258
-0.00471572
-0.00118409
-0.00500434
-0.00160336
-0.00511359
-0.0020491
-0.0051195
-0.00251413
-0.00506884
-0.00299723
-0.00498651
-0.00487133
-0.00353144
-8.23698e-05
-0.00129612
-0.000294834
-0.00288216
-0.000607548
-0.00382025
-0.00099265
-0.00433062
-0.00142652
-0.00457047
-0.00189109
-0.00464902
-0.00237335
-0.00463724
-0.00286428
-0.00457792
-0.00335755
-0.00449324
-0.00439127
-0.0038376
-0.000105922
-0.00119019
-0.000363284
-0.0026248
-0.000727063
-0.00345648
-0.00116113
-0.00389656
-0.00163789
-0.00409371
-0.0021376
-0.00414931
-0.00264681
-0.00412803
-0.0031565
-0.00406823
-0.00365948
-0.00399026
-0.00390452
-0.00414624
-0.000127336
-0.00106286
-0.000424732
-0.00232741
-0.00083327
-0.00304794
-0.00130965
-0.00342018
-0.00182326
-0.0035801
-0.00235362
-0.00361895
-0.00288765
-0.003594
-0.00341718
-0.0035387
-0.00393663
-0.0034708
-0.00339967
-0.00444148
-0.000146357
-0.000916502
-0.000478759
-0.001995
-0.000926015
-0.00260068
-0.00143883
-0.00290736
-0.00198441
-0.00303451
-0.00254211
-0.00306124
-0.00309964
-0.00303648
-0.00364998
-0.00298836
-0.00418917
-0.0029316
-0.00287389
-0.00471495
-0.000162741
-0.000753761
-0.000524921
-0.00163282
-0.00100488
-0.00212072
-0.00154847
-0.00236377
-0.00212133
-0.00246165
-0.00270295
-0.00247962
-0.00328188
-0.00245755
-0.0038522
-0.00241804
-0.00441112
-0.00237269
-0.0023275
-0.00495751
-0.000176242
-0.000577519
-0.000562714
-0.00124635
-0.00106923
-0.0016142
-0.00163784
-0.00179516
-0.00223309
-0.0018664
-0.00283471
-0.00187801
-0.00343199
-0.00186027
-0.00401988
-0.00183015
-0.00459634
-0.00179623
-0.00176287
-0.00516097
-0.00018662
-0.000390899
-0.000591623
-0.000841347
-0.00111833
-0.00108749
-0.001706
-0.0012075
-0.00231841
-0.00125399
-0.00293555
-0.00126087
-0.0035473
-0.00124852
-0.00414921
-0.00122824
-0.00473976
-0.00120568
-0.00118369
-0.00531894
-0.000193668
-0.000197232
-0.000611187
-0.000423828
-0.00115151
-0.000547172
-0.00175202
-0.000606988
-0.00237608
-0.000629932
-0.00300382
-0.000633124
-0.00362554
-0.000626798
-0.00423717
-0.000616606
-0.00483751
-0.00060534
-0.000594422
-0.00542678
-0.000197232
1.7892e-10
-0.00062106
3.73565e-10
-0.00116823
5.0283e-10
-0.00177522
5.88499e-10
-0.00240515
6.47425e-10
-0.00303828
6.90948e-10
-0.00366508
7.24665e-10
-0.00428168
7.50602e-10
-0.00488703
7.68688e-10
7.86036e-10
-0.00548145
-0.000197232
0.000197232
-0.00062106
0.000423829
-0.00116823
0.000547173
-0.00177522
0.000606989
-0.00240515
0.000629934
-0.00303828
0.000633125
-0.00366508
0.000626799
-0.00428168
0.000616608
-0.00488703
0.000605342
0.000594424
-0.00548145
-0.000193668
0.0003909
-0.000611187
0.000841348
-0.00115151
0.00108749
-0.00175202
0.0012075
-0.00237608
0.00125399
-0.00300382
0.00126087
-0.00362554
0.00124852
-0.00423717
0.00122824
-0.00483751
0.00120568
0.00118369
-0.00542678
-0.00018662
0.00057752
-0.000591623
0.00124635
-0.00111833
0.0016142
-0.001706
0.00179516
-0.00231841
0.00186641
-0.00293555
0.00187801
-0.0035473
0.00186027
-0.00414921
0.00183015
-0.00473976
0.00179623
0.00176288
-0.00531894
-0.000176242
0.000753762
-0.000562714
0.00163282
-0.00106923
0.00212072
-0.00163784
0.00236377
-0.00223309
0.00246165
-0.00283471
0.00247962
-0.00343199
0.00245755
-0.00401988
0.00241804
-0.00459634
0.0023727
0.0023275
-0.00516097
-0.000162741
0.000916503
-0.000524921
0.001995
-0.00100488
0.00260068
-0.00154847
0.00290736
-0.00212133
0.00303452
-0.00270295
0.00306124
-0.00328188
0.00303648
-0.0038522
0.00298836
-0.00441112
0.00293161
0.00287389
-0.00495751
-0.000146357
0.00106286
-0.000478759
0.00232741
-0.000926015
0.00304794
-0.00143883
0.00342018
-0.00198441
0.0035801
-0.00254211
0.00361895
-0.00309964
0.003594
-0.00364998
0.0035387
-0.00418917
0.0034708
0.00339967
-0.00471495
-0.000127336
0.0011902
-0.000424732
0.0026248
-0.00083327
0.00345648
-0.00130965
0.00389656
-0.00182326
0.00409371
-0.00235362
0.00414931
-0.00288765
0.00412803
-0.00341718
0.00406823
-0.00393663
0.00399026
0.00390452
-0.00444148
-0.000105922
0.00129612
-0.000363285
0.00288217
-0.000727063
0.00382026
-0.00116113
0.00433062
-0.00163789
0.00457047
-0.0021376
0.00464902
-0.00264681
0.00463724
-0.0031565
0.00457792
-0.00365948
0.00449324
0.00439128
-0.00414624
-8.23698e-05
0.00137849
-0.000294834
0.00309463
-0.000607548
0.00413297
-0.00099265
0.00471572
-0.00142652
0.00500434
-0.00189109
0.00511359
-0.00237335
0.0051195
-0.00286428
0.00506884
-0.00335755
0.00498651
0.00487133
-0.0038376
-5.70185e-05
0.00143551
-0.000219952
0.00325756
-0.000474795
0.00438781
-0.00080258
0.00504351
-0.00118409
0.00538585
-0.00160336
0.00553286
-0.0020491
0.00556525
-0.00251413
0.00553387
-0.00299723
0.00546961
0.00540554
-0.00353144
-3.05016e-05
0.00146601
-0.000140004
0.00336707
-0.00033014
0.00457795
-0.000590557
0.00530392
-0.00090533
0.00570062
-0.0012578
0.00588532
-0.00163339
0.00594084
-0.00202171
0.00592219
-0.00241906
0.00586696
0.00579709
-0.00281062
-3.89635e-06
0.0014699
-5.80376e-05
0.00342121
-0.000179336
0.00469925
-0.000366711
0.0054913
-0.000608966
0.00594288
-0.000891136
0.00616749
-0.00119896
0.00624867
-0.00152164
0.00624487
-0.00185233
0.00619766
0.00613765
-0.00219289
2.15611e-05
0.00144834
2.24257e-05
0.00342034
-2.8797e-05
0.00475047
-0.000140968
0.00560347
-0.000309127
0.00611104
-0.000521787
0.00638015
-0.000766328
0.00649321
-0.00103211
0.00651066
-0.00131073
0.00647628
0.00642206
-0.00159514
4.49142e-05
0.00140343
9.856e-05
0.0033667
0.000116623
0.00473241
8.0288e-05
0.00563981
-1.24765e-05
0.0062038
-0.000154455
0.00652213
-0.000335002
0.00667376
-0.00054351
0.00671916
-0.000770244
0.00670301
0.00665709
-0.00100528
6.54905e-05
0.00133794
0.000168205
0.00326398
0.000253135
0.00464747
0.000292131
0.00560081
0.000275892
0.00622004
0.000206816
0.00659121
9.31134e-05
0.00678746
-5.50299e-05
0.00686731
-0.000227081
0.00687506
0.00684239
-0.000412374
8.28378e-05
0.0012551
0.000229685
0.00311714
0.000377551
0.00449961
0.000490104
0.00548826
0.000550888
0.00615926
0.000557048
0.00658505
0.000513746
0.00683076
0.000430077
0.00695097
0.000316755
0.00698839
0.00697422
0.000184925
9.66834e-05
0.00115842
0.000281738
0.00293208
0.000487161
0.00429419
0.000670063
0.00530535
0.000807321
0.006022
0.000890568
0.0065018
0.00092124
0.00680009
0.000906507
0.00696571
0.000856507
0.00703839
0.00704806
0.000782663
0.000106907
0.00105151
0.000323471
0.00271552
0.000579705
0.00403795
0.00082812
0.00505694
0.00103981
0.00581031
0.00120089
0.00634072
0.00130846
0.00669251
0.00136691
0.00690727
0.00138494
0.00702035
0.00705922
0.00137379
0.000113525
0.000937984
0.000354361
0.00247468
0.000653408
0.0037389
0.00096074
0.00474961
0.00124292
0.00552813
0.00148089
0.00610276
0.00166703
0.00650637
0.00180214
0.00677216
0.00189264
0.00692984
0.00700303
0.00194883
0.000116679
0.000821305
0.000374274
0.00221709
0.000707101
0.00340608
0.00106501
0.0043917
0.00141159
0.00518154
0.00172333
0.00579102
0.00198789
0.00624181
0.00220184
0.00655821
0.0023685
0.00676319
0.00687522
0.00249632
0.000116626
0.000704679
0.000383484
0.00195023
0.000740346
0.00304922
0.00113892
0.00399313
0.0015416
0.00477885
0.00192154
0.00541108
0.00226202
0.00590134
0.00255516
0.00626507
0.00280038
0.00651797
0.00667225
0.00300334
0.000113765
0.000590915
0.000382743
0.00168125
0.000753627
0.00267833
0.00118179
0.00356497
0.00163025
0.0043304
0.00207024
0.00497109
0.0024815
0.00549008
0.00285179
0.00589477
0.00317618
0.00619358
0.00639188
0.00345655
0.000108557
0.000482358
0.000373144
0.00141666
0.000748233
0.00230324
0.00119426
0.00311894
0.00167658
0.00384808
0.00216615
0.00448152
0.00264032
0.00501591
0.00308309
0.005452
0.003485
0.00579167
0.00603359
0.0038433
0.000101531
0.000380827
0.00035609
0.0011621
0.000726222
0.00193311
0.00117838
0.00266678
0.0016817
0.00334476
0.00220853
0.00395468
0.00273532
0.00448912
0.00324325
0.00494407
0.00371859
0.00531633
0.00559886
0.00415332
9.32089e-05
0.000287618
0.000333087
0.000922225
0.000690086
0.00157611
0.00113717
0.00221969
0.00164841
0.00283353
0.00219908
0.00340401
0.00276638
0.00392182
0.00332999
0.00438046
0.00387251
0.00477381
0.00509115
0.00438022
8.4022e-05
0.000203596
0.000305479
0.000700768
0.000642236
0.00123935
0.0010739
0.00178803
0.00158023
0.00232719
0.00214088
0.00284336
0.0027355
0.0033272
0.00334392
0.00377204
0.003946
0.00417172
0.00451512
0.00452203
7.42164e-05
0.00012938
0.000274153
0.000500832
0.000584388
0.000929118
0.00099095
0.00138147
0.00147977
0.00183837
0.00203606
0.00228707
0.00264386
0.0027194
0.00328537
0.00313054
0.00393929
0.0035178
0.00387505
0.00457936
6.38077e-05
6.55722e-05
0.000239381
0.000325258
0.000517138
0.000651362
0.00088891
0.0010097
0.00134676
0.00138052
0.00188239
0.00175145
0.00248642
0.00211536
0.00314694
0.00247003
0.00384533
0.00281941
0.00317242
0.00454796
5.26582e-05
1.2914e-05
0.000201036
0.00017688
0.000440248
0.000412151
0.000766661
0.000683283
0.00117746
0.000969724
0.00167061
0.00125829
0.00224489
0.00154108
0.00289925
0.00181567
0.00362809
0.00209056
0.00240331
0.0043972
4.07511e-05
-2.78372e-05
0.000159404
5.8227e-05
0.000354281
0.000217274
0.000624039
0.000413524
0.000967963
0.0006258
0.00138663
0.000839626
0.00188314
0.00104458
0.00246634
0.00123247
0.00315868
0.00139822
0.00154516
0.00401683
2.86042e-05
-5.64414e-05
0.000116531
-2.96999e-05
0.000263956
6.98492e-05
0.000469438
0.000208042
0.00073014
0.000365099
0.00104153
0.000528233
0.00139676
0.000689353
0.00178498
0.000844246
0.00219048
0.000992717
0.00114544
0.0025902
1.72957e-05
-7.3737e-05
7.64049e-05
-8.88092e-05
0.000179316
-3.30623e-05
0.000325106
6.2252e-05
0.000510809
0.000179396
0.000731633
0.00030741
0.000981266
0.000439719
0.00125287
0.000572641
0.00154264
0.000702953
0.000823647
0.00186443
7.63683e-06
-8.13739e-05
4.18713e-05
-0.000123044
0.000106787
-9.79784e-05
0.000202988
-3.3949e-05
0.000329184
5.31999e-05
0.000482996
0.000153598
0.000661794
0.000260922
0.000863846
0.000370589
0.00108958
0.000477215
0.000570823
0.00134241
-1.07284e-07
-8.12666e-05
1.38462e-05
-0.000136997
4.80162e-05
-0.000132148
0.00010484
-9.07726e-05
0.000184981
-2.69416e-05
0.000288337
5.0242e-05
0.000414824
0.000134435
0.000564988
0.000220425
0.000739898
0.000302305
0.000372099
0.000938621
-6.04341e-06
-7.52232e-05
-7.9785e-06
-0.000135062
2.12608e-06
-0.000142253
2.83685e-05
-0.000117015
7.30014e-05
-7.15745e-05
0.000137408
-1.41646e-05
0.000222683
4.916e-05
0.000329835
0.000113273
0.000459273
0.000172867
0.000222141
0.000609231
-1.04531e-05
-6.47701e-05
-2.44776e-05
-0.000121038
-3.279e-05
-0.000133941
-3.0022e-05
-0.000119783
-1.2857e-05
-8.87396e-05
2.08546e-05
-4.78762e-05
7.25357e-05
-2.52103e-06
0.000142948
4.2861e-05
0.000231797
8.40178e-05
0.000116882
0.000337055
-1.36453e-05
-5.11247e-05
-3.66175e-05
-9.80654e-05
-5.87049e-05
-0.000111853
-7.36878e-05
-0.0001048
-7.7641e-05
-8.47863e-05
-6.81218e-05
-5.73954e-05
-4.37692e-05
-2.68736e-05
-4.2033e-06
3.29509e-06
4.98102e-05
3.00043e-05
5.05442e-05
0.000116148
-1.58685e-05
-3.52562e-05
-4.51765e-05
-6.87573e-05
-7.71346e-05
-7.98951e-05
-0.000105013
-7.69215e-05
-0.000124588
-6.52114e-05
-0.000133365
-4.86187e-05
-0.000130162
-3.00768e-05
-0.00011492
-1.19463e-05
-8.86805e-05
3.76455e-06
1.54077e-05
-5.3544e-05
-1.72828e-05
-1.79734e-05
-5.06627e-05
-3.53774e-05
-8.90284e-05
-4.15293e-05
-0.000125381
-4.05691e-05
-0.000155371
-3.52208e-05
-0.000176541
-2.7449e-05
-0.00018787
-1.87476e-05
-0.000189514
-1.03032e-05
-0.000182652
-3.0974e-06
2.09103e-06
-0.000169335
-1.7973e-05
-5.33498e-05
-9.48784e-05
-0.000135447
-0.000170667
-0.000198116
-0.000216864
-0.000227167
-0.000230266
-0.000228176
0.000235885
-0.000463976
-8.5677e-08
0.00143272
-0.00119665
-1.8336e-07
0.00269052
-0.00125776
-3.52009e-08
0.00358409
-0.000893793
2.19578e-07
0.00437776
-0.000793959
2.89253e-07
0.00499821
-0.000620554
1.08621e-07
0.00552616
-0.000527857
-9.45265e-08
0.00591137
-0.000384971
-2.40839e-07
0.00626507
-0.000353324
-3.79265e-07
-0.000189807
-2.13228e-07
0.00034953
-0.000982843
0.00151663
-0.00236375
0.00274706
-0.00248819
0.00362219
-0.00176892
0.00440203
-0.0015738
0.00501345
-0.00123197
0.00553524
-0.00104966
0.00591742
-0.000767142
0.00626975
-0.00070566
-0.00038138
0.000569202
-0.00160559
0.0016783
-0.00347285
0.0028555
-0.0036654
0.00369512
-0.00260854
0.00444836
-0.00232704
0.00504251
-0.00182612
0.00555257
-0.00155971
0.00592902
-0.0011436
0.00627885
-0.00105549
-0.00057615
0.000880213
-0.00236966
0.00190595
-0.00449859
0.00300698
-0.00476643
0.00379663
-0.00339818
0.00451256
-0.00304298
0.0050827
-0.00239626
0.00557651
-0.00205352
0.00594526
-0.00151234
0.00629189
-0.00140212
-0.000775937
0.00126194
-0.00329455
0.00218325
-0.0054199
0.00318923
-0.00577241
0.00391806
-0.00412701
0.0045888
-0.00371372
0.00513025
-0.00293771
0.0056048
-0.00252807
0.00596482
-0.00187236
0.00630817
-0.00174547
-0.000982808
0.00168922
-0.00437454
0.00249053
-0.00622121
0.00338765
-0.00666953
0.0040491
-0.00478846
0.00467008
-0.00433471
0.0051806
-0.00344822
0.00563467
-0.00298214
0.00598608
-0.00222377
0.00632684
-0.00208623
-0.00119912
0.00213318
-0.00556911
0.00280583
-0.00689386
0.0035863
-0.00745
0.00417853
-0.00538069
0.00474882
-0.004905
0.00522878
-0.00392818
0.00566306
-0.00341642
0.00600725
-0.00256797
0.00634691
-0.00242588
-0.00142755
0.00256319
-0.00678989
0.00310564
-0.00743631
0.0037688
-0.00811316
0.00429498
-0.00590687
0.00481732
-0.00542733
0.0052697
-0.00438056
0.00568682
-0.00383355
0.00602645
-0.00290759
0.00636734
-0.00276677
-0.00167111
0.00296069
-0.00788615
0.00337063
-0.00784625
0.00392103
-0.00866356
0.0043881
-0.00637394
0.00486847
-0.00590769
0.00529856
-0.00481066
0.00570293
-0.00423791
0.00604181
-0.00324648
0.00638708
-0.00311204
-0.00193306
0.00332998
-0.00862595
0.00359978
-0.00811605
0.0040323
-0.00909609
0.00445083
-0.00679248
0.00489603
-0.00635289
0.00531117
-0.0052258
0.00570834
-0.00463508
0.00605178
-0.00358992
0.00640466
-0.00346492
-0.00221744
0.0437763
-0.00155679
-0.0508454
0.0398223
-0.00416207
0.0380581
-0.00733185
0.0383636
-0.00709802
0.0387426
-0.0067319
0.0393427
-0.00582587
0.0399088
-0.00520124
0.0404431
-0.00412416
0.0409795
-0.00400137
-0.00273667
0.0524009
0.00265499
-0.0566127
0.0503585
-0.00211964
0.0479156
-0.00488902
0.0465487
-0.00573112
0.0455564
-0.00573961
0.0448003
-0.00506976
0.0441237
-0.00452462
0.0435868
-0.00358728
0.043112
-0.00352655
-0.00259204
0.0538087
0.00393166
-0.0550853
0.0524544
-0.000765346
0.050781
-0.00321571
0.0493808
-0.00433087
0.048212
-0.0045708
0.0471687
-0.00402646
0.0461371
-0.00349301
0.0452314
-0.00268157
0.0443395
-0.00263471
-0.00210577
0.0519022
0.00387666
-0.0518471
0.051346
-0.000209142
0.0503425
-0.00221222
0.0492659
-0.00325434
0.0482689
-0.00357372
0.0473444
-0.003102
0.0464065
-0.00255515
0.045566
-0.00184104
0.0446965
-0.00176515
-0.00155689
0.0498447
0.00328687
-0.0492549
0.0495588
7.68e-05
0.0489353
-0.00158874
0.048149
-0.00246807
0.0473467
-0.00277142
0.046603
-0.00235827
0.0458714
-0.00182356
0.0452344
-0.00120409
0.0445636
-0.00109436
-0.00108367
0.0481503
0.00257453
-0.0474379
0.0480362
0.000190912
0.0475923
-0.00114487
0.046979
-0.00185483
0.0463114
-0.00210376
0.0457083
-0.00175517
0.0451605
-0.00127579
0.0447195
-0.000763084
0.044263
-0.000637824
-0.000721964
0.0469484
0.00186793
-0.0462419
0.0469221
0.000217222
0.046573
-0.000795713
0.0460549
-0.00133674
0.0454713
-0.00152018
0.0449634
-0.00124724
0.0445483
-0.00086068
0.0442528
-0.000467608
0.0439654
-0.00035044
-0.000459491
0.0461386
0.00120861
-0.0454793
0.0461788
0.000177097
0.0458858
-0.000502737
0.0454172
-0.000868163
0.0448839
-0.000986918
0.0444373
-0.000800579
0.0441087
-0.000532072
0.043908
-0.000266952
0.0437351
-0.000177545
-0.000269382
0.0456455
0.000592115
-0.045029
0.0457282
9.4369e-05
0.0454703
-0.000244829
0.0450268
-0.000424609
0.0445225
-0.000482651
0.0441133
-0.00039139
0.043836
-0.000254742
0.0436904
-0.000121343
0.0435853
-7.24528e-05
-0.000124586
0.0454115
-0.0448194
0.0455059
0.045261
0.0448364
0.0443538
0.0439624
0.0437076
0.0435863
0.0435139
0.056846
0.00227848
-0.0561211
0.0574156
0.00288695
0.0577815
0.00347733
0.0578942
0.00404069
0.0577064
0.00456795
0.057178
0.00505043
0.0562769
0.00548052
0.0549727
0.00585218
0.0532092
0.00616069
0.00638057
0.0514
0.00167045
-0.050792
0.0520531
0.00223388
0.0527374
0.00279299
0.0534354
0.00334273
0.0541259
0.00387744
0.0547854
0.00439096
0.055389
0.00487692
0.0559121
0.00532903
0.0563312
0.00574163
0.0060991
0.0480747
0.001198
-0.0476023
0.0486281
0.00168049
0.0492593
0.00216181
0.0499629
0.0026391
0.0507311
0.00310923
0.0515533
0.00356878
0.0524163
0.00401397
0.0533046
0.00444066
0.0542019
0.00484437
0.00521566
0.0454632
0.000874538
-0.0451397
0.0458666
0.00127712
0.0463505
0.00167792
0.0469148
0.00207473
0.0475588
0.00246527
0.0482803
0.00284724
0.049076
0.00321827
0.0499408
0.00357586
0.0508679
0.00391725
0.00423645
0.0438744
0.000637846
-0.0436377
0.0441849
0.000966579
0.0445695
0.0012934
0.0450277
0.00161644
0.0455592
0.00193386
0.0461626
0.00224378
0.0468365
0.00254436
0.0475787
0.00283372
0.0483861
0.00310979
0.00336764
0.0427762
0.000458647
-0.042597
0.0430252
0.000717614
0.0433438
0.000974778
0.0437316
0.00122863
0.0441878
0.00147765
0.0447112
0.00172038
0.0453003
0.00195532
0.045953
0.00218104
0.0466668
0.00239591
0.00259655
0.042083
0.000316711
-0.0419411
0.0422916
0.000508987
0.0425666
0.00069982
0.0429072
0.000888057
0.0433123
0.00107256
0.0437805
0.00125219
0.0443099
0.00142585
0.0448985
0.00159242
0.0455437
0.00175072
0.00189844
0.0416309
0.000198814
-0.041513
0.0418138
0.000326152
0.0420611
0.00045251
0.042372
0.000577116
0.0427454
0.0006992
0.0431796
0.000818004
0.0436726
0.000932783
0.0442222
0.0010428
0.0448257
0.00114727
0.00124482
0.0413666
9.56045e-05
-0.0412634
0.0415337
0.000159068
0.0417641
0.000222058
0.0420571
0.000284185
0.0424112
0.000345062
0.0428249
0.000404307
0.0432961
0.000461542
0.0438225
0.000516395
0.0444013
0.000568477
0.000617142
0.0412411
-0.0411455
0.0414002
0.0416223
0.0419065
0.0422515
0.0426558
0.0431174
0.0436338
0.0442022
0.0481445
-0.00336175
-0.0475933
0.0488556
-0.00290408
0.0496766
-0.00241609
0.0505677
-0.00189642
0.0515019
-0.00134651
0.0524606
-0.000773771
0.0534257
-0.000182502
0.0543759
0.000423583
0.055285
0.00103975
0.00166026
0.0479809
-0.00341584
-0.0479268
0.0480787
-0.00300185
0.0482194
-0.00255679
0.0484087
-0.00208574
0.0486523
-0.00159016
0.0489545
-0.0010759
0.0493186
-0.000546601
0.0497467
-4.58562e-06
0.0502388
0.000547638
0.00110711
0.0468985
-0.00315598
-0.0471583
0.0466934
-0.00279677
0.0465488
-0.00241223
0.0464701
-0.002007
0.0464633
-0.0015833
0.0465318
-0.00114448
0.0466782
-0.000692981
0.0469044
-0.00023082
0.0472122
0.000239922
0.000716991
0.0455718
-0.0027786
-0.0459492
0.0452522
-0.00247709
0.0449938
-0.00215385
0.0448002
-0.00181344
0.0446747
-0.00145782
0.0446196
-0.00108935
0.0446368
-0.00071012
0.044728
-0.000322067
0.0448951
7.27973e-05
0.000472381
0.0446495
-0.00235581
-0.0450723
0.0442803
-0.00210791
0.0439694
-0.00184286
0.0437197
-0.00156378
0.0435342
-0.0012723
0.0434151
-0.000970254
0.0433643
-0.000659378
0.0433836
-0.000341363
0.0434744
-1.79533e-05
0.00030906
0.0439768
-0.00190533
-0.0444273
0.0435782
-0.00170925
0.0432352
-0.00149987
0.0429509
-0.00127946
0.0427278
-0.00104927
0.0425683
-0.000810702
0.0424741
-0.000565141
0.0424467
-0.000313979
0.0424874
-5.86452e-05
0.000199396
0.043546
-0.00143978
-0.0440115
0.0431307
-0.00129395
0.0427692
-0.00113843
0.0424645
-0.000974715
0.0422189
-0.00080372
0.0420347
-0.000626463
0.0419135
-0.000443979
0.0418569
-0.000257324
0.0418658
-6.75791e-05
0.000124144
0.0432666
-0.000964072
-0.0437424
0.0428403
-0.000867559
0.0424665
-0.00076467
0.0421481
-0.000656338
0.0418876
-0.000543171
0.0416869
-0.000425831
0.041548
-0.000305003
0.041472
-0.00018139
0.0414602
-5.57179e-05
7.12702e-05
0.0431057
-0.000482873
-0.0435869
0.0426731
-0.000434932
0.0422922
-0.000383828
0.0419659
-0.000330001
0.0416965
-0.000273751
0.041486
-0.000215401
0.0413363
-0.00015529
0.0412487
-9.3767e-05
0.0412242
-3.11944e-05
3.20563e-05
0.0430317
-0.0435145
0.0425967
0.0422129
0.0418829
0.0416091
0.0413937
0.0412385
0.0411447
0.0411135
0.0429489
0.000173756
-0.000193701
0.0429955
0.000518742
-0.000565363
0.0430737
0.000869014
-0.000947199
0.0432008
0.00123213
-0.00135923
0.0434066
0.00161335
-0.00181916
0.0437344
0.00201685
-0.00234467
0.0442427
0.00244469
-0.00295298
0.0450029
0.00289928
-0.00365946
0.046109
0.00335645
-0.0044626
0.00390467
-0.00538898
0.0429656
0.000137135
0.0430725
0.000411839
0.0432536
0.000687909
0.0435192
0.000966478
0.0438842
0.00124833
0.0443674
0.0015337
0.0449904
0.00182164
0.0457774
0.00211232
0.0467437
0.00239013
0.00272157
0.0429665
9.96084e-05
0.0430775
0.000300748
0.0432621
0.000503316
0.0435243
0.000704328
0.0438697
0.000902891
0.0443057
0.00109769
0.0448408
0.00128661
0.0454852
0.00146791
0.0462437
0.00163158
0.00180696
0.0429586
6.99483e-05
0.0430474
0.000211955
0.0431955
0.00035524
0.0434036
0.000496204
0.0436728
0.000633659
0.0440042
0.000766308
0.0443982
0.000892571
0.0448549
0.00101124
0.0453692
0.0011173
0.00122692
0.0429505
4.83724e-05
0.0430157
0.000146731
0.043125
0.000245949
0.0432781
0.000343122
0.0434746
0.000437204
0.0437137
0.000527144
0.0439945
0.000611793
0.0443155
0.000690209
0.0446732
0.000759598
0.000827843
0.0429444
3.28851e-05
0.0429914
9.97589e-05
0.0430702
0.00016718
0.0431802
0.000233089
0.0433207
0.000296718
0.0434905
0.000357333
0.0436881
0.000414186
0.0439116
0.000466679
0.0441579
0.000513342
0.000558401
0.0429402
2.15985e-05
0.0429745
6.55074e-05
0.0430319
0.000109753
0.043112
0.00015297
0.0432141
0.000194644
0.0433371
0.000234287
0.0434799
0.000271417
0.0436409
0.000305643
0.0438181
0.000336136
0.000365023
0.0429375
1.30624e-05
0.0429634
3.96051e-05
0.0430068
6.63387e-05
0.0430673
9.24492e-05
0.0431443
0.000117626
0.043237
0.000141579
0.0433444
0.000164031
0.0434653
0.000184753
0.0435981
0.000203315
0.000220796
0.0429358
6.15337e-06
0.0429568
1.86521e-05
0.0429919
3.12372e-05
0.0430408
4.35285e-05
0.0431031
5.53813e-05
0.043178
6.66603e-05
0.0432648
7.72364e-05