1.45 	0 	0 	-0.00197454 	-0.00308681 	3.97196e-21
2.35 	0 	0 	0.0839098 	-0.00740856 	2.32149e-21
