1.45 	0 	0 	-0.00646846 	-0.00268011 	3.90853e-21
2.35 	0 	0 	0.0661918 	-0.00677496 	2.43449e-21
