1.45 	0 	0 	-0.00146886 	-0.00314718 	3.973e-21
2.35 	0 	0 	0.0865309 	-0.00750718 	2.28975e-21
