1.275 	2.15223e-18 	-2.76991e-20 	-0.0329643 	-0.000549898 	-2.06701e-22
1.825 	2.15223e-18 	-1.39322e-20 	-0.00164425 	-0.00360796 	1.74933e-21
2.375 	2.15223e-18 	-2.66896e-23 	0.167022 	-0.00497572 	-6.98076e-22
