1.45 	0 	0 	0.395003 	-0.0198049 	1.73528e-21
2.35 	0 	0 	0.699698 	-0.0108653 	-1.02073e-21
