1.275 	2.15223e-18 	-2.76991e-20 	-0.300014
1.825 	2.15223e-18 	-1.39322e-20 	-0.188258
2.375 	2.15223e-18 	-2.66896e-23 	-0.15987
