1.45 	0 	0 	-0.00755447 	-0.0025999 	3.84362e-21
2.35 	0 	0 	0.0626908 	-0.00667636 	2.36943e-21
