1.45 	0 	0 	-0.293698
2.35 	0 	0 	-0.128793
