/*--------------------------------*- C++ -*----------------------------------*\
  =========                 |
  \\      /  F ield         | OpenFOAM: The Open Source CFD Toolbox
   \\    /   O peration     | Website:  https://openfoam.org
    \\  /    A nd           | Version:  6.0
     \\/     M anipulation  |
\*---------------------------------------------------------------------------*/
FoamFile
{
    version     2.0;
    format      ascii;
    class       surfaceScalarField;
    location    "4.1";
    object      phi;
}
// * * * * * * * * * * * * * * * * * * * * * * * * * * * * * * * * * * * * * //

dimensions      [0 3 -1 0 0 0 0];

internalField   nonuniform List<scalar> 
47678
(
2.98085e-05
0.00388594
2.27885e-09
5.9844e-05
0.00381846
8.91102e-05
0.00368581
0.00011696
0.00348999
0.000142853
0.00323439
0.000166313
0.00292348
0.000186916
0.00256274
0.000204298
0.0021584
0.000218148
0.00171748
0.000228224
0.00124734
0.000234336
0.000756606
0.000256093
0.000236803
2.96166e-05
0.00385632
5.96675e-09
5.94627e-05
0.00378861
8.85442e-05
0.00365673
0.000116218
0.00346231
0.000141946
0.00320865
0.000165256
0.00290016
0.000185727
0.00254226
0.000202998
0.00214112
0.000216759
0.00170371
0.000226766
0.00123732
0.000232929
0.000750435
0.000253516
0.000235499
2.94261e-05
0.00382689
9.32351e-09
5.90842e-05
0.00375896
8.79823e-05
0.00362782
0.000115481
0.00343481
0.000141046
0.00318309
0.000164208
0.002877
0.000184548
0.00252192
0.000201708
0.00212396
0.000215383
0.00169004
0.000225318
0.00122739
0.000231457
0.000744297
0.000250979
0.000234001
2.92373e-05
0.00379764
1.23575e-08
5.87084e-05
0.00372949
8.74242e-05
0.0035991
0.00011475
0.00340748
0.000140153
0.00315768
0.000163167
0.00285398
0.000183377
0.00250171
0.000200426
0.00210691
0.000214014
0.00167644
0.000223882
0.00121751
0.000229967
0.000738205
0.00024849
0.00023245
2.90501e-05
0.00376857
1.5052e-08
5.83352e-05
0.0037002
8.68697e-05
0.00357056
0.000114022
0.00338033
0.000139264
0.00313243
0.000162132
0.00283111
0.000182213
0.00248162
0.000199152
0.00208997
0.000212654
0.00166294
0.000222458
0.00120771
0.000228487
0.000732177
0.000246078
0.000230906
2.88643e-05
0.00373969
1.73537e-08
5.79647e-05
0.0036711
8.63187e-05
0.00354221
0.000113299
0.00335335
0.000138381
0.00310735
0.000161103
0.00280838
0.000181055
0.00246167
0.000197886
0.00207313
0.000211303
0.00164952
0.000221045
0.00119797
0.000227023
0.000726193
0.000243713
0.000229382
2.868e-05
0.00371099
1.92701e-08
5.75965e-05
0.00364219
8.57712e-05
0.00351403
0.000112581
0.00332654
0.000137503
0.00308242
0.00016008
0.00278581
0.000179905
0.00244184
0.000196628
0.00205641
0.00020996
0.00163618
0.000219644
0.00118829
0.000225576
0.000720263
0.000241418
0.000227877
2.8497e-05
0.00368247
2.07929e-08
5.72308e-05
0.00361345
8.52271e-05
0.00348603
0.000111867
0.0032999
0.000136631
0.00305766
0.000159064
0.00276337
0.000178762
0.00242214
0.000195378
0.00203979
0.000208626
0.00162293
0.000218252
0.00117866
0.000224141
0.000714369
0.00023916
0.000226392
2.83153e-05
0.00365413
2.19348e-08
5.68674e-05
0.0035849
8.46864e-05
0.00345821
0.000111157
0.00327343
0.000135764
0.00303305
0.000158053
0.00274108
0.000177626
0.00240257
0.000194135
0.00202328
0.000207299
0.00160977
0.000216868
0.00116909
0.000222718
0.000708521
0.000236954
0.000224928
2.81349e-05
0.00362598
2.27315e-08
5.65063e-05
0.00355653
8.41491e-05
0.00343056
0.000110452
0.00324712
0.000134902
0.00300859
0.000157049
0.00271893
0.000176497
0.00238312
0.0001929
0.00200687
0.000205981
0.00159668
0.000215494
0.00115957
0.000221306
0.000702705
0.000234771
0.000223483
2.79557e-05
0.003598
2.32395e-08
5.61475e-05
0.00352834
8.36151e-05
0.0034031
0.000109751
0.00322099
0.000134046
0.0029843
0.000156052
0.00269693
0.000175375
0.0023638
0.000191674
0.00199058
0.000204671
0.00158369
0.000214128
0.00115012
0.000219904
0.00069693
0.000232627
0.000222052
2.77776e-05
0.00357019
2.35146e-08
5.57909e-05
0.00350032
8.30845e-05
0.0033758
0.000109055
0.00319502
0.000133194
0.00296016
0.00015506
0.00267506
0.00017426
0.00234459
0.000190455
0.00197438
0.00020337
0.00157077
0.00021277
0.00114072
0.000218512
0.000691184
0.000230499
0.000220633
2.76008e-05
0.00354257
2.36126e-08
5.54366e-05
0.00347249
8.25571e-05
0.00334868
0.000108362
0.00316921
0.000132348
0.00293617
0.000154074
0.00265333
0.000173152
0.00232552
0.000189244
0.00195829
0.000202077
0.00155794
0.00021142
0.00113137
0.000217128
0.000685479
0.000228406
0.000219225
2.74251e-05
0.00351512
2.35838e-08
5.50844e-05
0.00344483
8.2033e-05
0.00332173
0.000107674
0.00314357
0.000131507
0.00291234
0.000153095
0.00263174
0.000172051
0.00230656
0.00018804
0.0019423
0.000200792
0.00154518
0.000210079
0.00112208
0.000215753
0.000679801
0.000226327
0.000217825
2.72506e-05
0.00348785
2.34631e-08
5.47345e-05
0.00341735
8.15121e-05
0.00329495
0.00010699
0.00311809
0.000130672
0.00288866
0.000152122
0.00261029
0.000170957
0.00228772
0.000186845
0.00192641
0.000199515
0.00153252
0.000208746
0.00111286
0.000214386
0.000674163
0.000224283
0.000216436
2.70773e-05
0.00346075
2.32627e-08
5.43868e-05
0.00339004
8.09944e-05
0.00326834
0.00010631
0.00309277
0.000129841
0.00286512
0.000151154
0.00258898
0.000169869
0.00226901
0.000185657
0.00191062
0.000198247
0.00151992
0.000207421
0.00110368
0.000213028
0.000668553
0.000222249
0.000215057
2.69051e-05
0.00343382
2.29889e-08
5.40413e-05
0.0033629
8.04799e-05
0.0032419
0.000105635
0.00306762
0.000129015
0.00284174
0.000150193
0.0025678
0.000168789
0.00225041
0.000184476
0.00189493
0.000196987
0.00150741
0.000206104
0.00109456
0.000211677
0.000662983
0.000220246
0.000213687
2.6734e-05
0.00340706
2.26387e-08
5.36978e-05
0.00333593
7.99685e-05
0.00321563
0.000104963
0.00304262
0.000128195
0.00281851
0.000149238
0.00254676
0.000167715
0.00223193
0.000183303
0.00187934
0.000195735
0.00149498
0.000204796
0.0010855
0.000210336
0.00065744
0.000218251
0.000212326
2.6564e-05
0.00338048
2.22137e-08
5.33566e-05
0.00330914
7.94601e-05
0.00318953
0.000104296
0.00301779
0.000127379
0.00279543
0.000148288
0.00252585
0.000166648
0.00221357
0.000182138
0.00186386
0.000194491
0.00148263
0.000203496
0.0010765
0.000209002
0.000651937
0.000216288
0.000210974
2.63951e-05
0.00335406
2.173e-08
5.30174e-05
0.00328252
7.89549e-05
0.00316359
0.000103632
0.00299311
0.000126569
0.00277249
0.000147345
0.00250507
0.000165588
0.00219533
0.00018098
0.00184846
0.000193254
0.00147035
0.000202205
0.00106754
0.000207677
0.000646461
0.000214328
0.000209632
2.62273e-05
0.00332781
2.12238e-08
5.26803e-05
0.00325607
7.84527e-05
0.00313782
0.000102973
0.00296859
0.000125764
0.0027497
0.000146407
0.00248443
0.000164535
0.0021772
0.000179829
0.00183317
0.000192026
0.00145815
0.000200921
0.00105865
0.00020636
0.000641025
0.000212399
0.000208299
2.60605e-05
0.00330173
2.07507e-08
5.23452e-05
0.00322978
7.79536e-05
0.00311221
0.000102318
0.00294422
0.000124963
0.00272705
0.000145476
0.00246392
0.000163488
0.00215919
0.000178686
0.00181797
0.000190806
0.00144603
0.000199646
0.00104981
0.000205052
0.000635616
0.000210471
0.000206975
2.58947e-05
0.00327581
2.03875e-08
5.20121e-05
0.00320366
7.74575e-05
0.00308676
0.000101666
0.00292002
0.000124168
0.00270455
0.00014455
0.00244354
0.000162448
0.00214129
0.00017755
0.00180287
0.000189594
0.00143399
0.000198379
0.00104103
0.000203752
0.000630246
0.000208573
0.00020566
2.57299e-05
0.00325006
2.02156e-08
5.16811e-05
0.00317771
7.69645e-05
0.00306148
0.000101019
0.00289596
0.000123377
0.00268219
0.00014363
0.00242328
0.000161415
0.0021235
0.000176421
0.00178786
0.00018839
0.00142202
0.00019712
0.00103229
0.00020246
0.000624902
0.000206674
0.000204354
2.5566e-05
0.00322448
2.03156e-08
5.1352e-05
0.00315193
7.64744e-05
0.00303636
0.000100376
0.00287206
0.000122592
0.00265998
0.000142716
0.00240316
0.000160388
0.00210583
0.0001753
0.00177295
0.000187193
0.00141013
0.000195869
0.00102362
0.000201177
0.000619598
0.000204803
0.000203056
2.54031e-05
0.00319905
2.07479e-08
5.10249e-05
0.0031263
7.59873e-05
0.00301139
9.97366e-05
0.00284831
0.000121811
0.0026379
0.000141808
0.00238316
0.000159368
0.00208827
0.000174186
0.00175813
0.000186004
0.00139831
0.000194626
0.00101499
0.000199901
0.00061432
0.000202931
0.000201766
2.52411e-05
0.00317379
2.15468e-08
5.06998e-05
0.00310085
7.55032e-05
0.00298659
9.91013e-05
0.00282471
0.000121036
0.00261597
0.000140905
0.00236329
0.000158355
0.00207082
0.000173079
0.00174341
0.000184823
0.00138656
0.000193391
0.00100643
0.000198634
0.000609081
0.000201087
0.000200485
2.50801e-05
0.00314869
2.27109e-08
5.03766e-05
0.00307555
7.50221e-05
0.00296195
9.84699e-05
0.00280126
0.000120265
0.00259417
0.000140008
0.00234355
0.000157348
0.00205348
0.000171979
0.00172878
0.00018365
0.00137489
0.000192164
0.000997911
0.000197375
0.000603867
0.000199241
0.000199212
2.49199e-05
0.00312374
2.42094e-08
5.00553e-05
0.00305041
7.45439e-05
0.00293746
9.78425e-05
0.00277797
0.000119499
0.00257252
0.000139117
0.00232393
0.000156347
0.00203625
0.000170886
0.00171424
0.000182484
0.0013633
0.000190945
0.000989452
0.000196123
0.000598693
0.000197422
0.000197948
2.47607e-05
0.00309896
2.59847e-08
4.9736e-05
0.00302544
7.40687e-05
0.00291312
9.72191e-05
0.00275482
0.000118738
0.002551
0.000138232
0.00230443
0.000155353
0.00201913
0.000169801
0.00169979
0.000181325
0.00135177
0.000189734
0.00098104
0.00019488
0.000593543
0.000195601
0.000196692
2.46023e-05
0.00307433
2.79688e-08
4.94186e-05
0.00300062
7.35963e-05
0.00288895
9.65995e-05
0.00273181
0.000117982
0.00252962
0.000137352
0.00228507
0.000154365
0.00200212
0.000168722
0.00168544
0.000180174
0.00134032
0.000188531
0.000972686
0.000193645
0.000588433
0.000193806
0.000195444
2.44448e-05
0.00304985
3.00911e-08
4.91031e-05
0.00297596
7.3127e-05
0.00286492
9.59838e-05
0.00270896
0.00011723
0.00250837
0.000136478
0.00226582
0.000153384
0.00198521
0.00016765
0.00167117
0.000179031
0.00132894
0.000187335
0.000964379
0.000192417
0.000583347
0.00019201
0.000194204
2.42882e-05
0.00302553
3.22934e-08
4.87895e-05
0.00295146
7.26605e-05
0.00284105
9.5372e-05
0.00268625
0.000116484
0.00248726
0.00013561
0.00224669
0.000152408
0.00196842
0.000166585
0.00165699
0.000177894
0.00131763
0.000186147
0.00095613
0.000191198
0.0005783
0.000190241
0.000192972
2.41324e-05
0.00300136
3.45314e-08
4.84778e-05
0.00292712
7.21969e-05
0.00281733
9.47641e-05
0.00266368
0.000115742
0.00246628
0.000134747
0.00222769
0.000151439
0.00195172
0.000165527
0.0016429
0.000176765
0.00130639
0.000184966
0.000947926
0.000189986
0.000573276
0.00018847
0.000191748
2.39776e-05
0.00297735
3.67811e-08
4.8168e-05
0.00290293
7.17362e-05
0.00279377
9.41599e-05
0.00264126
0.000115005
0.00244544
0.00013389
0.0022088
0.000150477
0.00193514
0.000164476
0.00162891
0.000175644
0.00129522
0.000183793
0.000939779
0.000188782
0.000568292
0.000186725
0.000190532
2.38236e-05
0.00295349
3.90312e-08
4.78601e-05
0.00287889
7.12783e-05
0.00277035
9.35596e-05
0.00261897
0.000114272
0.00242472
0.000133038
0.00219004
0.00014952
0.00191865
0.000163431
0.00161499
0.000174529
0.00128412
0.000182628
0.000931678
0.000187586
0.000563331
0.00018498
0.000189323
2.36704e-05
0.00292978
4.12825e-08
4.7554e-05
0.00285501
7.08233e-05
0.00274708
9.2963e-05
0.00259684
0.000113544
0.00240414
0.000132191
0.00217139
0.00014857
0.00190228
0.000162393
0.00160117
0.000173422
0.0012731
0.00018147
0.000923633
0.000186397
0.000558409
0.000183262
0.000188122
2.35181e-05
0.00290621
4.35365e-08
4.72498e-05
0.00283127
7.03711e-05
0.00272396
9.23703e-05
0.00257484
0.000112821
0.00238369
0.00013135
0.00215286
0.000147625
0.001886
0.000161362
0.00158743
0.000172322
0.00126213
0.00018032
0.000915632
0.000185216
0.00055351
0.000181541
0.000186929
2.33667e-05
0.0028828
4.57943e-08
4.69474e-05
0.00280769
6.99217e-05
0.00270098
9.17812e-05
0.00255298
0.000112103
0.00236337
0.000130514
0.00213445
0.000146687
0.00186983
0.000160338
0.00157379
0.000171229
0.00125125
0.000179176
0.000907687
0.000184042
0.000548649
0.000179848
0.000185744
2.32162e-05
0.00285954
4.80481e-08
4.66469e-05
0.00278426
6.94751e-05
0.00267816
9.11959e-05
0.00253126
0.000111388
0.00234318
0.000129684
0.00211616
0.000145755
0.00185375
0.00015932
0.00156022
0.000170143
0.00124042
0.000178041
0.000899786
0.000182876
0.000543811
0.000178152
0.000184566
2.30665e-05
0.00283642
5.02842e-08
4.63482e-05
0.00276098
6.90313e-05
0.00265547
9.06142e-05
0.00250967
0.000110679
0.00232311
0.000128859
0.00209798
0.000144829
0.00183779
0.000158308
0.00154674
0.000169063
0.00122967
0.000176912
0.000891941
0.000181717
0.000539011
0.000176484
0.000183396
2.29177e-05
0.00281345
5.24794e-08
4.60514e-05
0.00273785
6.85903e-05
0.00263293
9.00363e-05
0.00248823
0.000109974
0.00230317
0.000128039
0.00207991
0.000143908
0.00182192
0.000157303
0.00153334
0.000167991
0.00121898
0.000175791
0.000884138
0.000180566
0.000534232
0.000174812
0.000182234
2.27698e-05
0.00279063
5.46081e-08
4.57564e-05
0.00271486
6.81521e-05
0.00261054
8.9462e-05
0.00246692
0.000109273
0.00228337
0.000127225
0.00206196
0.000142994
0.00180615
0.000156305
0.00152004
0.000166926
0.00120836
0.000174676
0.000876391
0.000179422
0.000529492
0.000173167
0.000181079
2.26228e-05
0.00276795
5.66418e-08
4.54632e-05
0.00269202
6.77166e-05
0.00258828
8.88913e-05
0.00244574
0.000108577
0.00226368
0.000126415
0.00204412
0.000142085
0.00179048
0.000155313
0.00150681
0.000165867
0.00119781
0.000173569
0.000868685
0.000178285
0.000524774
0.000171516
0.000179932
2.24767e-05
0.00274541
5.85572e-08
4.51719e-05
0.00266933
6.72839e-05
0.00256617
8.83243e-05
0.00242471
0.000107886
0.00224412
0.000125611
0.0020264
0.000141183
0.00177491
0.000154327
0.00149366
0.000164815
0.00118732
0.000172469
0.000861035
0.000177156
0.000520093
0.000169893
0.000178792
2.23314e-05
0.00272302
6.03355e-08
4.48823e-05
0.00264678
6.68539e-05
0.0025442
8.77608e-05
0.0024038
0.000107199
0.00222468
0.000124812
0.00200879
0.000140286
0.00175943
0.000153348
0.0014806
0.00016377
0.0011769
0.000171376
0.000853426
0.000176034
0.000515433
0.000168263
0.000177659
2.21871e-05
0.00270077
6.19675e-08
4.45946e-05
0.00262437
6.64266e-05
0.00252237
8.7201e-05
0.00238303
0.000106516
0.00220537
0.000124018
0.00199129
0.000139394
0.00174406
0.000152374
0.00146762
0.000162732
0.00116654
0.00017029
0.000845871
0.000174919
0.000510812
0.000166661
0.000176533
2.20436e-05
0.00267867
6.34511e-08
4.43087e-05
0.0026021
6.6002e-05
0.00250068
8.66448e-05
0.00236238
0.000105838
0.00218617
0.00012323
0.00197389
0.000138509
0.00172878
0.000151407
0.00145472
0.0001617
0.00115625
0.000169211
0.000838357
0.000173811
0.000506211
0.00016505
0.000175415
2.19011e-05
0.0026567
6.47925e-08
4.40246e-05
0.00257998
6.55802e-05
0.00247912
8.60921e-05
0.00234187
0.000105164
0.0021671
0.000122446
0.00195661
0.000137629
0.0017136
0.000150447
0.00144191
0.000160675
0.00114602
0.000168139
0.000830896
0.00017271
0.000501648
0.000163467
0.000174304
2.17595e-05
0.00263488
6.60012e-08
4.37423e-05
0.002558
6.5161e-05
0.0024577
8.55429e-05
0.00232149
0.000104494
0.00214815
0.000121667
0.00193944
0.000136755
0.00169851
0.000149492
0.00142917
0.000159656
0.00113586
0.000167074
0.000823476
0.000171616
0.000497105
0.000161874
0.0001732
2.16188e-05
0.00261319
6.70893e-08
4.34618e-05
0.00253616
6.47445e-05
0.00243642
8.49973e-05
0.00230124
0.000103828
0.00212932
0.000120893
0.00192238
0.000135886
0.00168352
0.000148543
0.00141651
0.000158644
0.00112576
0.000166015
0.000816109
0.000170529
0.0004926
0.000160309
0.000172103
2.1479e-05
0.00259164
6.8067e-08
4.31831e-05
0.00251445
6.43307e-05
0.00241527
8.44551e-05
0.00228111
0.000103167
0.00211061
0.000120125
0.00190542
0.000135023
0.00166862
0.000147601
0.00140393
0.000157638
0.00111572
0.000164963
0.000808781
0.000169449
0.000488114
0.000158735
0.000171013
2.13401e-05
0.00257024
6.89424e-08
4.29062e-05
0.00249289
6.39196e-05
0.00239426
8.39165e-05
0.00226112
0.00010251
0.00209202
0.000119361
0.00188857
0.000134166
0.00165382
0.000146665
0.00139144
0.000156639
0.00110575
0.000163918
0.000801507
0.000168376
0.000483665
0.000157187
0.000169929
2.12021e-05
0.00254896
6.97198e-08
4.26311e-05
0.00247146
6.35111e-05
0.00237338
8.33814e-05
0.00224125
0.000101858
0.00207354
0.000118602
0.00187182
0.000133314
0.0016391
0.000145734
0.00137901
0.000155646
0.00109584
0.00016288
0.000794271
0.00016731
0.000479234
0.000155632
0.000168853
2.10651e-05
0.00252783
7.0402e-08
4.23578e-05
0.00245016
6.31052e-05
0.00235264
8.28496e-05
0.0022215
0.000101209
0.00205518
0.000117848
0.00185519
0.000132467
0.00162449
0.00014481
0.00136667
0.00015466
0.00108599
0.000161848
0.000787087
0.00016625
0.000474841
0.000154103
0.000167783
2.0929e-05
0.00250683
7.09922e-08
4.20863e-05
0.00242901
6.2702e-05
0.00233202
8.23214e-05
0.00220188
0.000100565
0.00203694
0.000117099
0.00183865
0.000131626
0.00160996
0.000143891
0.00135441
0.000153679
0.0010762
0.000160823
0.000779942
0.000165197
0.000470465
0.000152569
0.000166721
2.07938e-05
0.00248597
7.14978e-08
4.18165e-05
0.00240799
6.23014e-05
0.00231154
8.17965e-05
0.00218239
9.99248e-05
0.00201881
0.000116354
0.00182223
0.00013079
0.00159553
0.000142978
0.00134222
0.000152705
0.00106648
0.000159804
0.000772848
0.000164151
0.000466126
0.000151062
0.000165665
2.06596e-05
0.00246524
7.1932e-08
4.15485e-05
0.0023871
6.19034e-05
0.00229118
8.1275e-05
0.00216302
9.92887e-05
0.0020008
0.000115615
0.0018059
0.00012996
0.00158118
0.000142071
0.00133011
0.000151737
0.00105681
0.000158792
0.000765792
0.000163112
0.000461804
0.000149548
0.000164615
2.05262e-05
0.00244464
7.23172e-08
4.12823e-05
0.00236634
6.1508e-05
0.00227096
8.0757e-05
0.00214377
9.86568e-05
0.0019829
0.00011488
0.00178968
0.000129135
0.00156693
0.00014117
0.00131808
0.000150776
0.00104721
0.000157786
0.000758787
0.000162079
0.000457519
0.000148063
0.000163573
2.03938e-05
0.00242417
7.26831e-08
4.10178e-05
0.00234572
6.11152e-05
0.00225086
8.02422e-05
0.00212464
9.8029e-05
0.00196511
0.00011415
0.00177356
0.000128315
0.00155276
0.000140275
0.00130612
0.00014982
0.00103766
0.000156786
0.000751819
0.000161053
0.000453251
0.00014657
0.000162537
2.02623e-05
0.00240384
7.30668e-08
4.07551e-05
0.00232522
6.07249e-05
0.00223089
7.97308e-05
0.00210564
9.74052e-05
0.00194744
0.000113424
0.00175754
0.0001275
0.00153869
0.000139385
0.00129423
0.000148871
0.00102818
0.000155793
0.000744903
0.000160033
0.000449019
0.000145107
0.000161508
2.01317e-05
0.00238363
7.35071e-08
4.04941e-05
0.00230486
6.03372e-05
0.00221105
7.92227e-05
0.00208675
9.67854e-05
0.00192988
0.000112704
0.00174162
0.000126691
0.0015247
0.000138501
0.00128242
0.000147928
0.00101875
0.000154807
0.000738022
0.00015902
0.000444804
0.000143635
0.000160485
2.0002e-05
0.00236356
7.40421e-08
4.02348e-05
0.00228463
5.9952e-05
0.00219133
7.87179e-05
0.00206799
9.61696e-05
0.00191243
0.000111987
0.00172581
0.000125887
0.0015108
0.000137623
0.00127069
0.00014699
0.00100939
0.000153827
0.000731192
0.000158013
0.000440625
0.000142194
0.000159469
1.98732e-05
0.00234361
7.47026e-08
3.99772e-05
0.00226452
5.95693e-05
0.00217174
7.82164e-05
0.00204934
9.55577e-05
0.00189509
0.000111276
0.00171009
0.000125088
0.00149699
0.00013675
0.00125903
0.000146059
0.00100008
0.000152852
0.000724397
0.000157013
0.000436463
0.00014074
0.00015846
1.97452e-05
0.00232379
7.551e-08
3.97214e-05
0.00224455
5.91891e-05
0.00215227
7.7718e-05
0.00203081
9.49498e-05
0.00187786
0.000110569
0.00169447
0.000124294
0.00148327
0.000135883
0.00124744
0.000145134
0.000990835
0.000151885
0.000717652
0.000156019
0.000432339
0.000139318
0.000157457
1.96181e-05
0.0023041
7.64726e-08
3.94672e-05
0.0022247
5.88113e-05
0.00213293
7.72229e-05
0.0020124
9.43458e-05
0.00186073
0.000109866
0.00167895
0.000123505
0.00146963
0.000135022
0.00123592
0.000144214
0.000981642
0.000150923
0.000710942
0.000155032
0.000428229
0.00013788
0.00015646
1.94919e-05
0.00228453
7.7587e-08
3.92147e-05
0.00220498
5.84361e-05
0.00211371
7.67311e-05
0.00199411
9.37457e-05
0.00184372
0.000109168
0.00166353
0.000122721
0.00145608
0.000134166
0.00122448
0.000143301
0.000972513
0.000149967
0.000704282
0.000154051
0.000424156
0.000136474
0.00015547
1.93666e-05
0.00226509
7.88379e-08
3.89639e-05
0.00218538
5.80632e-05
0.00209461
7.62423e-05
0.00197593
9.31494e-05
0.00182681
0.000108475
0.0016482
0.000121942
0.00144261
0.000133315
0.00121311
0.000142393
0.000963434
0.000149018
0.000697656
0.000153076
0.000420097
0.00013505
0.000154486
1.92421e-05
0.00224576
8.02035e-08
3.87147e-05
0.00216591
5.76928e-05
0.00207563
7.57567e-05
0.00195787
9.2557e-05
0.00181001
0.000107786
0.00163298
0.000121169
0.00142923
0.00013247
0.00120181
0.000141491
0.00095442
0.000148075
0.000691079
0.000152107
0.000416076
0.000133661
0.000153509
1.91184e-05
0.00222656
8.16566e-08
3.84672e-05
0.00214656
5.73248e-05
0.00205677
7.52743e-05
0.00193992
9.19683e-05
0.00179332
0.000107101
0.00161785
0.0001204
0.00141593
0.00013163
0.00119058
0.000140595
0.000945454
0.000147138
0.000684535
0.000151145
0.000412068
0.000132251
0.000152537
1.89955e-05
0.00220749
8.31711e-08
3.82213e-05
0.00212733
5.69591e-05
0.00203803
7.47949e-05
0.00192208
9.13835e-05
0.00177673
0.000106421
0.00160281
0.000119636
0.00140272
0.000130796
0.00117943
0.000139704
0.000936552
0.000146206
0.00067804
0.000150188
0.000408097
0.000130875
0.000151572
1.88735e-05
0.00218853
8.47223e-08
3.7977e-05
0.00210823
5.65959e-05
0.00201941
7.43187e-05
0.00190436
9.08023e-05
0.00176025
0.000105745
0.00158787
0.000118877
0.00138959
0.000129967
0.00116834
0.00013882
0.000927699
0.000145281
0.000671577
0.000149238
0.000404137
0.00012948
0.000150613
1.87522e-05
0.00216969
8.62913e-08
3.77343e-05
0.00208925
5.62349e-05
0.00200091
7.38455e-05
0.00188675
9.02249e-05
0.00174387
0.000105073
0.00157302
0.000118123
0.00137654
0.000129143
0.00115732
0.000137941
0.000918909
0.000144362
0.000665163
0.000148294
0.000400215
0.000128121
0.00014966
1.86318e-05
0.00215097
8.78626e-08
3.74931e-05
0.00207039
5.58763e-05
0.00198253
7.33753e-05
0.00186925
8.96512e-05
0.0017276
0.000104406
0.00155827
0.000117373
0.00136358
0.000128325
0.00114637
0.000137067
0.000910166
0.000143449
0.00065878
0.000147356
0.000396303
0.000126743
0.000148713
1.85121e-05
0.00213237
8.94263e-08
3.72536e-05
0.00205164
5.552e-05
0.00196427
7.29081e-05
0.00185186
8.90812e-05
0.00171142
0.000103743
0.00154361
0.000116629
0.0013507
0.000127512
0.00113549
0.0001362
0.000901485
0.000142541
0.000652446
0.000146424
0.000392429
0.000125402
0.000147772
1.83932e-05
0.00211389
9.09738e-08
3.70155e-05
0.00203302
5.5166e-05
0.00194611
7.2444e-05
0.00183459
8.85149e-05
0.00169535
0.000103084
0.00152904
0.000115889
0.00133789
0.000126704
0.00112468
0.000135338
0.00089285
0.000141639
0.000646142
0.000145498
0.000388564
0.00012404
0.000146838
1.82751e-05
0.00209552
9.24991e-08
3.67791e-05
0.00201452
5.48143e-05
0.00192808
7.19828e-05
0.00181742
8.79521e-05
0.00167939
0.00010243
0.00151457
0.000115154
0.00132517
0.000125901
0.00111394
0.000134481
0.000884278
0.000140744
0.000639887
0.000144579
0.000384738
0.000122719
0.000145909
1.81577e-05
0.00207727
9.39942e-08
3.65441e-05
0.00199613
5.44648e-05
0.00191016
7.15246e-05
0.00180036
8.7393e-05
0.00166352
0.000101779
0.00150018
0.000114424
0.00131253
0.000125104
0.00110326
0.00013363
0.000875751
0.000139854
0.00063366
0.000143665
0.00038092
0.000121374
0.000144986
1.80411e-05
0.00205914
9.54517e-08
3.63106e-05
0.00197786
5.41176e-05
0.00189235
7.10693e-05
0.00178341
8.68374e-05
0.00164775
0.000101133
0.00148589
0.000113698
0.00129997
0.000124311
0.00109265
0.000132784
0.000867285
0.000138969
0.000627482
0.000142756
0.000377141
0.000120071
0.00014407
1.79252e-05
0.00204112
9.6861e-08
3.60787e-05
0.00195971
5.37726e-05
0.00187466
7.06169e-05
0.00176656
8.62854e-05
0.00163208
0.000100491
0.00147168
0.000112977
0.00128748
0.000123524
0.0010821
0.000131944
0.000858863
0.000138091
0.000621332
0.000141854
0.00037337
0.000118744
0.000143159
1.781e-05
0.00202321
9.82133e-08
3.58482e-05
0.00194167
5.34298e-05
0.00185708
7.01674e-05
0.00174983
8.5737e-05
0.00161652
9.98532e-05
0.00145757
0.000112261
0.00127508
0.000122742
0.00107163
0.000131109
0.000850503
0.000137218
0.000615231
0.000140958
0.000369638
0.000117459
0.000142254
1.76956e-05
0.00200541
9.94977e-08
3.56192e-05
0.00192375
5.30892e-05
0.00183961
6.97208e-05
0.0017332
8.51921e-05
0.00160104
9.92194e-05
0.00144354
0.00011155
0.00126275
0.000121965
0.00106121
0.00013028
0.000842186
0.000136351
0.000609157
0.000140068
0.000365912
0.000116148
0.000141356
1.75818e-05
0.00198773
1.00708e-07
3.53916e-05
0.00190594
5.27507e-05
0.00182225
6.9277e-05
0.00171667
8.46506e-05
0.00158567
9.85897e-05
0.00142961
0.000110842
0.0012505
0.000121192
0.00105087
0.000129456
0.000833929
0.000135489
0.000603131
0.000139183
0.000362227
0.000114881
0.000140463
1.74688e-05
0.00197016
1.01837e-07
3.51654e-05
0.00188824
5.24144e-05
0.001805
6.88361e-05
0.00170025
8.41126e-05
0.0015704
9.7964e-05
0.00141576
0.00011014
0.00123832
0.000120425
0.00104058
0.000128638
0.000825715
0.000134633
0.000597131
0.000138304
0.000358546
0.000113585
0.000139576
1.73565e-05
0.00195271
1.02884e-07
3.49407e-05
0.00187066
5.20803e-05
0.00178786
6.8398e-05
0.00168393
8.35781e-05
0.00155522
9.73424e-05
0.001402
0.000109442
0.00122623
0.000119663
0.00103037
0.000127824
0.00081756
0.000133783
0.00059118
0.000137431
0.000354906
0.000112335
0.000138695
1.72448e-05
0.00193536
1.03849e-07
3.47174e-05
0.00185318
5.17482e-05
0.00177083
6.79627e-05
0.00166772
8.30471e-05
0.00154013
9.67248e-05
0.00138832
0.000108749
0.0012142
0.000118906
0.00102021
0.000127016
0.000809448
0.000132938
0.000585254
0.000136563
0.00035127
0.000111054
0.000137819
1.71339e-05
0.00191812
1.04738e-07
3.44955e-05
0.00183582
5.14183e-05
0.00175391
6.75302e-05
0.00165161
8.25194e-05
0.00152515
9.61112e-05
0.00137473
0.00010806
0.00120226
0.000118154
0.00101012
0.000126214
0.000801394
0.000132098
0.000579376
0.000135701
0.000347675
0.000109821
0.00013695
1.70236e-05
0.00190099
1.05553e-07
3.4275e-05
0.00181857
5.10905e-05
0.00173709
6.71004e-05
0.0016356
8.19951e-05
0.00151025
9.55015e-05
0.00136122
0.000107375
0.00119039
0.000117406
0.00100009
0.000125416
0.000793382
0.000131264
0.000573523
0.000134845
0.000344082
0.000108554
0.000136086
1.6914e-05
0.00188397
1.06301e-07
3.40559e-05
0.00180143
5.07648e-05
0.00172038
6.66734e-05
0.00161969
8.14742e-05
0.00149545
9.48958e-05
0.00134781
0.000106695
0.00117859
0.000116663
0.00099013
0.000124624
0.000785428
0.000130436
0.000567718
0.000133995
0.000340532
0.000107337
0.000135228
1.68051e-05
0.00186706
1.06987e-07
3.38382e-05
0.00178439
5.04411e-05
0.00170378
6.62492e-05
0.00160388
8.09567e-05
0.00148075
9.42939e-05
0.00133447
0.000106019
0.00116687
0.000115926
0.000980223
0.000123836
0.000777515
0.000129613
0.000561935
0.00013315
0.000336983
0.000106084
0.000134376
1.66969e-05
0.00185026
1.07616e-07
3.36218e-05
0.00176747
5.01195e-05
0.00168728
6.58276e-05
0.00158817
8.04425e-05
0.00146613
9.3696e-05
0.00132122
0.000105348
0.00115522
0.000115193
0.000970384
0.000123054
0.000769659
0.000128795
0.000556202
0.00013231
0.000333476
0.000104882
0.000133529
1.65893e-05
0.00183356
1.08192e-07
3.34067e-05
0.00175065
4.97999e-05
0.00167089
6.54088e-05
0.00157257
7.99317e-05
0.00145161
9.3102e-05
0.00130805
0.000104681
0.00114364
0.000114465
0.000960599
0.000122277
0.000761843
0.000127983
0.00055049
0.000131476
0.00032997
0.000103643
0.000132687
1.64824e-05
0.00181697
1.08721e-07
3.3193e-05
0.00173394
4.94824e-05
0.0016546
6.49926e-05
0.00155706
7.94241e-05
0.00143718
9.25118e-05
0.00129496
0.000104019
0.00113214
0.000113741
0.000950883
0.000121506
0.000754084
0.000127175
0.000544828
0.000130648
0.000326507
0.000102457
0.000131852
1.63761e-05
0.00180049
1.09209e-07
3.29807e-05
0.00171733
4.91669e-05
0.00163841
6.45792e-05
0.00154164
7.89198e-05
0.00142284
9.19254e-05
0.00128196
0.000103361
0.0011207
0.000113022
0.000941219
0.000120739
0.000746365
0.000126374
0.000539186
0.000129825
0.000323042
0.000101231
0.000131022
1.62705e-05
0.00178411
1.09668e-07
3.27697e-05
0.00170084
4.88534e-05
0.00162233
6.41683e-05
0.00152633
7.84188e-05
0.00140859
9.13429e-05
0.00126904
0.000102707
0.00110934
0.000112308
0.000931623
0.000119977
0.000738702
0.000125577
0.000533593
0.000129007
0.000319621
0.00010006
0.000130197
1.61655e-05
0.00176783
1.10109e-07
3.256e-05
0.00168444
4.85419e-05
0.00160635
6.37602e-05
0.00151111
7.79211e-05
0.00139443
9.07642e-05
0.00125619
0.000102057
0.00109805
0.000111599
0.000922079
0.00011922
0.000731077
0.000124786
0.00052802
0.000128195
0.000316198
9.88479e-05
0.000129378
1.60612e-05
0.00175166
1.10553e-07
3.23516e-05
0.00166815
4.82324e-05
0.00159047
6.33546e-05
0.00149599
7.74265e-05
0.00138036
9.01892e-05
0.00124344
0.000101412
0.00108683
0.000110894
0.000912601
0.000118469
0.000723509
0.000124
0.000522496
0.000127388
0.00031282
9.76918e-05
0.000128564
1.59576e-05
0.00173559
1.11018e-07
3.21446e-05
0.00165196
4.79249e-05
0.00157468
6.29517e-05
0.00148096
7.69353e-05
0.00136638
8.9618e-05
0.00123075
0.000100771
0.00107568
0.000110194
0.000903175
0.000117722
0.000715978
0.000123219
0.000516991
0.000126586
0.000309438
9.64926e-05
0.000127755
1.58546e-05
0.00171963
1.11529e-07
3.19388e-05
0.00163588
4.76194e-05
0.001559
6.25514e-05
0.00146603
7.64472e-05
0.00135248
8.90505e-05
0.00121815
0.000100134
0.0010646
0.000109499
0.000893815
0.00011698
0.000708502
0.000122443
0.000511535
0.00012579
0.000306101
9.53509e-05
0.000126952
1.57522e-05
0.00170377
1.12105e-07
3.17344e-05
0.00161989
4.73158e-05
0.00154342
6.21537e-05
0.00145119
7.59622e-05
0.00133867
8.84867e-05
0.00120563
9.95009e-05
0.00105358
0.000108808
0.000884505
0.000116243
0.000701063
0.000121673
0.000506097
0.000124999
0.000302759
9.41645e-05
0.000126155
1.56505e-05
0.00168801
1.12768e-07
3.15313e-05
0.00160401
4.70142e-05
0.00152794
6.17586e-05
0.00143645
7.54805e-05
0.00132495
8.79267e-05
0.00119318
9.88723e-05
0.00104264
0.000108122
0.00087526
0.000115511
0.00069368
0.000120907
0.000500708
0.000124214
0.000299464
9.30373e-05
0.000125362
1.55494e-05
0.00167234
1.13531e-07
3.13294e-05
0.00158823
4.67145e-05
0.00151255
6.1366e-05
0.0014218
7.50019e-05
0.00131132
8.73703e-05
0.00118081