/*--------------------------------*- C++ -*----------------------------------*\
  =========                 |
  \\      /  F ield         | OpenFOAM: The Open Source CFD Toolbox
   \\    /   O peration     | Website:  https://openfoam.org
    \\  /    A nd           | Version:  6.0
     \\/     M anipulation  |
\*---------------------------------------------------------------------------*/
FoamFile
{
    version     2.0;
    format      ascii;
    class       volScalarField;
    location    "8.5";
    object      p;
}
// * * * * * * * * * * * * * * * * * * * * * * * * * * * * * * * * * * * * * //

dimensions      [0 2 -2 0 0 0 0];

internalField   nonuniform List<scalar> 
29500
(
1.00658
1.00639
1.00609
1.00561
1.00499
1.00424
1.00344
1.00265
1.00191
1.00123
1.00065
1.00015
0.999843
0.999499
0.999136
1.00658
1.00643
1.00619
1.00578
1.00524
1.00455
1.00379
1.003
1.00223
1.00148
1.00081
1.00019
0.999774
0.999241
0.998796
1.00658
1.00641
1.00614
1.00571
1.00513
1.00442
1.00364
1.00285
1.00209
1.00136
1.00072
1.00013
0.999741
0.999175
0.998827
1.00658
1.00639
1.0061
1.00563
1.00503
1.00429
1.0035
1.0027
1.00194
1.00123
1.00061
1.00005
0.999672
0.999084
0.998716
1.00658
1.00639
1.00609
1.00562
1.00502
1.00428
1.00348
1.00268
1.00191
1.00119
1.00056
0.999985
0.999589
0.998962
0.998543
1.00659
1.0064
1.00609
1.00562
1.00503
1.0043
1.0035
1.00269
1.00191
1.00118
1.00054
0.999943
0.999527
0.998863
0.998415
1.00659
1.0064
1.00609
1.00562
1.00503
1.0043
1.00351
1.0027
1.00192
1.00118
1.00053
0.999922
0.99949
0.998794
0.998316
1.0066
1.0064
1.00608
1.00561
1.00501
1.0043
1.00351
1.0027
1.00192
1.00118
1.00052
0.999906
0.999457
0.998733
0.998216
1.0066
1.00641
1.00608
1.0056
1.00501
1.00429
1.00351
1.00271
1.00192
1.00117
1.00051
0.999885
0.999416
0.998668
0.998115
1.00661
1.00641
1.00609
1.0056
1.005
1.00428
1.0035
1.0027
1.00192
1.00116
1.00049
0.999854
0.999365
0.998599
0.998018
1.00661
1.00642
1.0061
1.00561
1.005
1.00428
1.00349
1.00269
1.0019
1.00114
1.00047
0.999815
0.999311
0.998532
0.997928
1.00662
1.00643
1.00611
1.00562
1.005
1.00427
1.00348
1.00268
1.00188
1.00112
1.00044
0.999775
0.999256
0.998469
0.997844
1.00663
1.00644
1.00612
1.00563
1.00501
1.00428
1.00348
1.00267
1.00187
1.0011
1.00041
0.999738
0.999204
0.99841
0.997766
1.00664
1.00645
1.00613
1.00564
1.00502
1.00428
1.00349
1.00267
1.00186
1.00109
1.00038
0.999702
0.999153
0.998352
0.997692
1.00665
1.00646
1.00614
1.00566
1.00503
1.0043
1.00349
1.00267
1.00186
1.00107
1.00036
0.999666
0.999102
0.998296
0.997621
1.00666
1.00647
1.00615
1.00567
1.00505
1.00431
1.0035
1.00267
1.00185
1.00106
1.00033
0.999628
0.999049
0.998241
0.997554
1.00668
1.00648
1.00616
1.00568
1.00505
1.00432
1.00351
1.00267
1.00184
1.00104
1.0003
0.999588
0.998996
0.998187
0.997491
1.00669
1.00649
1.00617
1.00568
1.00506
1.00432
1.00351
1.00266
1.00183
1.00101
1.00027
0.999548
0.998944
0.998134
0.997431
1.0067
1.0065
1.00618
1.00568
1.00506
1.00432
1.0035
1.00265
1.00181
1.00099
1.00024
0.999509
0.998894
0.998085
0.997375
1.00671
1.00651
1.00618
1.00568
1.00506
1.00432
1.0035
1.00265
1.0018
1.00097
1.00022
0.999473
0.998846
0.998038
0.997321
1.00673
1.00652
1.00619
1.00569
1.00506
1.00431
1.00349
1.00264
1.00179
1.00095
1.00019
0.999438
0.9988
0.997992
0.997269
1.00674
1.00654
1.0062
1.00569
1.00506
1.00431
1.00349
1.00263
1.00177
1.00094
1.00016
0.999405
0.998755
0.997946
0.997218
1.00676
1.00655
1.00621
1.0057
1.00506
1.00431
1.00349
1.00262
1.00176
1.00092
1.00014
0.999371
0.998709
0.9979
0.997167
1.00677
1.00657
1.00622
1.00571
1.00507
1.00431
1.00348
1.00262
1.00175
1.0009
1.00011
0.999336
0.998662
0.997853
0.997117
1.00679
1.00658
1.00624
1.00572
1.00507
1.00432
1.00348
1.00261
1.00174
1.00088
1.00009
0.9993
0.998615
0.997805
0.997067
1.00681
1.0066
1.00626
1.00574
1.00509
1.00432
1.00349
1.00261
1.00173
1.00086
1.00006
0.999263
0.998566
0.997757
0.997018
1.00683
1.00662
1.00627
1.00575
1.0051
1.00433
1.00349
1.00261
1.00172
1.00084
1.00003
0.999224
0.998517
0.997708
0.996969
1.00685
1.00664
1.00629
1.00577
1.00511
1.00434
1.00349
1.0026
1.00171
1.00082
0.999998
0.999184
0.998467
0.997659
0.99692
1.00687
1.00666
1.00631
1.00579
1.00513
1.00435
1.0035
1.0026
1.0017
1.0008
0.999967
0.999145
0.998417
0.99761
0.996872
1.00689
1.00668
1.00633
1.0058
1.00514
1.00436
1.0035
1.00259
1.00168
1.00078
0.999936
0.999105
0.998368
0.997562
0.996824
1.00691
1.0067
1.00634
1.00582
1.00515
1.00437
1.0035
1.00259
1.00167
1.00076
0.999905
0.999065
0.998319
0.997514
0.996776
1.00693
1.00672
1.00636
1.00583
1.00516
1.00438
1.0035
1.00258
1.00166
1.00074
0.999874
0.999026
0.998271
0.997466
0.996728
1.00695
1.00674
1.00638
1.00584
1.00517
1.00438
1.0035
1.00258
1.00164
1.00072
0.999843
0.998988
0.998223
0.997418
0.99668
1.00698
1.00676
1.00639
1.00586
1.00518
1.00438
1.0035
1.00257
1.00163
1.00069
0.999813
0.998949
0.998175
0.997369
0.996631
1.007
1.00679
1.00641
1.00587
1.00519
1.00439
1.0035
1.00257
1.00162
1.00067
0.999782
0.99891
0.998127
0.99732
0.996581
1.00703
1.00681
1.00643
1.00589
1.0052
1.00439
1.0035
1.00256
1.0016
1.00065
0.999751
0.99887
0.998078
0.99727
0.996531
1.00705
1.00684
1.00646
1.00591
1.00521
1.0044
1.0035
1.00255
1.00159
1.00063
0.99972
0.99883
0.998029
0.997219
0.99648
1.00708
1.00686
1.00648
1.00593
1.00523
1.00441
1.00351
1.00255
1.00158
1.00061
0.999688
0.998789
0.997978
0.997168
0.996427
1.00711
1.00689
1.00651
1.00595
1.00525
1.00442
1.00351
1.00255
1.00157
1.00059
0.999656
0.998747
0.997928
0.997115
0.996374
1.00714
1.00692
1.00653
1.00597
1.00527
1.00444
1.00352
1.00254
1.00155
1.00056
0.999623
0.998705
0.997876
0.997062
0.99632
1.00717
1.00695
1.00656
1.006
1.00529
1.00445
1.00353
1.00254
1.00154
1.00054
0.999589
0.998662
0.997824
0.997008
0.996265
1.0072
1.00698
1.00659
1.00602
1.00531
1.00447
1.00353
1.00254
1.00153
1.00052
0.999555
0.998618
0.997772
0.996953
0.99621
1.00723
1.00701
1.00662
1.00605
1.00533
1.00448
1.00354
1.00254
1.00152
1.0005
0.999521
0.998574
0.997719
0.996898
0.996153
1.00726
1.00704
1.00664
1.00607
1.00535
1.00449
1.00354
1.00253
1.0015
1.00047
0.999485
0.99853
0.997665
0.996842
0.996096
1.0073
1.00707
1.00667
1.0061
1.00537
1.00451
1.00355
1.00253
1.00149
1.00045
0.99945
0.998485
0.997612
0.996786
0.996038
1.00733
1.00711
1.0067
1.00612
1.00538
1.00452
1.00355
1.00253
1.00148
1.00042
0.999414
0.998439
0.997558
0.996729
0.995979
1.00737
1.00714
1.00673
1.00615
1.0054
1.00453
1.00356
1.00252
1.00146
1.0004
0.999378
0.998394
0.997503
0.996671
0.995919
1.0074
1.00718
1.00676
1.00617
1.00542
1.00454
1.00356
1.00252
1.00145
1.00037
0.999342
0.998348
0.997448
0.996612
0.995857
1.00744
1.00721
1.0068
1.0062
1.00545
1.00456
1.00357
1.00252
1.00143
1.00035
0.999306
0.998302
0.997393
0.996552
0.995795
1.00748
1.00725
1.00683
1.00623
1.00547
1.00458
1.00358
1.00251
1.00142
1.00032
0.999269
0.998255
0.997336
0.996491
0.995731
1.00752
1.00729
1.00687
1.00626
1.0055
1.00459
1.00359
1.00251
1.00141
1.0003
0.999232
0.998207
0.997279
0.99643
0.995667
1.00756
1.00733
1.0069
1.0063
1.00552
1.00461
1.0036
1.00251
1.00139
1.00027
0.999194
0.998158
0.99722
0.996366
0.995601
1.00761
1.00737
1.00694
1.00633
1.00555
1.00463
1.00361
1.00251
1.00138
1.00025
0.999156
0.998109
0.997161
0.996302
0.995534
1.00765
1.00742
1.00698
1.00637
1.00558
1.00466
1.00362
1.00251
1.00137
1.00022
0.999118
0.998059
0.9971
0.996237
0.995465
1.00769
1.00746
1.00702
1.0064
1.00561
1.00468
1.00363
1.00251
1.00136
1.00019
0.999078
0.998008
0.997039
0.996171
0.995396
1.00774
1.0075
1.00706
1.00644
1.00564
1.0047
1.00364
1.00251
1.00134
1.00017
0.999038
0.997956
0.996977
0.996103
0.995325
1.00779
1.00755
1.00711
1.00648
1.00567
1.00472
1.00365
1.00251
1.00133
1.00014
0.998997
0.997904
0.996914
0.996034
0.995253
1.00783
1.0076
1.00715
1.00652
1.0057
1.00474
1.00367
1.00251
1.00131
1.00011
0.998955
0.99785
0.99685
0.995963
0.995179
1.00788
1.00764
1.00719
1.00655
1.00574
1.00476
1.00368
1.00251
1.0013
1.00008
0.998913
0.997796
0.996786
0.995892
0.995104
1.00793
1.00769
1.00724
1.00659
1.00577
1.00479
1.00369
1.00251
1.00128
1.00005
0.998871
0.997741
0.99672
0.995819
0.995027
1.00798
1.00774
1.00728
1.00663
1.0058
1.00481
1.0037
1.0025
1.00127
1.00003
0.998828
0.997686
0.996653
0.995746
0.994949
1.00804
1.00779
1.00733
1.00667
1.00583
1.00483
1.00371
1.0025
1.00125
0.999996
0.998784
0.997629
0.996585
0.99567
0.994869
1.00809
1.00784
1.00738
1.00672
1.00587
1.00486
1.00372
1.0025
1.00124
0.999968
0.998741
0.997573
0.996517
0.995594
0.994788
1.00815
1.0079
1.00743
1.00676
1.0059
1.00488
1.00374
1.0025
1.00123
0.999938
0.998696
0.997515
0.996447
0.995516
0.994704
1.0082
1.00795
1.00748
1.00681
1.00594
1.00491
1.00375
1.00251
1.00121
0.999909
0.998652
0.997456
0.996376
0.995436
0.99462
1.00826
1.00801
1.00753
1.00685
1.00598
1.00494
1.00377
1.00251
1.0012
0.999879
0.998606
0.997397
0.996304
0.995355
0.994533
1.00832
1.00807
1.00759
1.0069
1.00602
1.00497
1.00379
1.00251
1.00118
0.99985
0.998561
0.997336
0.996231
0.995273
0.994445
1.00838
1.00813
1.00764
1.00695
1.00606
1.005
1.0038
1.00251
1.00117
0.999819
0.998514
0.997275
0.996156
0.99519
0.994354
1.00844
1.00819
1.0077
1.007
1.0061
1.00503
1.00382
1.00251
1.00116
0.999789
0.998467
0.997212
0.996081
0.995105
0.994263
1.0085
1.00825
1.00776
1.00705
1.00614
1.00506
1.00384
1.00252
1.00114
0.999757
0.998418
0.997149
0.996004
0.995018
0.994169
1.00857
1.00831
1.00782
1.00711
1.00619
1.00509
1.00386
1.00252
1.00113
0.999726
0.998369
0.997084
0.995926
0.99493
0.994074
1.00863
1.00838
1.00788
1.00716
1.00623
1.00513
1.00388
1.00252
1.00111
0.999693
0.99832
0.997019
0.995846
0.994841
0.993977
1.0087
1.00845
1.00794
1.00722
1.00628
1.00516
1.0039
1.00253
1.0011
0.999661
0.99827
0.996952
0.995766
0.99475
0.993879
1.00877
1.00851
1.008
1.00727
1.00633
1.00519
1.00391
1.00253
1.00108
0.999628
0.998218
0.996885
0.995684
0.994658
0.993778
1.00884
1.00858
1.00807
1.00733
1.00637
1.00523
1.00394
1.00253
1.00107
0.999595
0.998167
0.996817
0.995601
0.994564
0.993676
1.00892
1.00865
1.00813
1.00739
1.00642
1.00527
1.00396
1.00254
1.00106
0.999562
0.998115
0.996747
0.995517
0.994468
0.993572
1.00899
1.00873
1.0082
1.00745
1.00647
1.0053
1.00398
1.00254
1.00104
0.999529
0.998062
0.996677
0.995431
0.994371
0.993467
1.00906
1.0088
1.00827
1.00751
1.00653
1.00534
1.004
1.00255
1.00103
0.999495
0.998009
0.996606
0.995344
0.994272
0.993359
1.00914
1.00888
1.00834
1.00758
1.00658
1.00538
1.00403
1.00255
1.00101
0.999461
0.997955
0.996533
0.995256
0.994171
0.993249
1.00922
1.00895
1.00841
1.00764
1.00663
1.00543
1.00405
1.00256
1.001
0.999426
0.997899
0.99646
0.995166
0.994068
0.993137
1.0093
1.00903
1.00849
1.00771
1.00669
1.00547
1.00408
1.00257
1.00099
0.999391
0.997844
0.996385
0.995075
0.993964
0.993023
1.00938
1.00911
1.00856
1.00778
1.00675
1.00551
1.00411
1.00258
1.00097
0.999355
0.997787
0.996309
0.994982
0.993857
0.992906
1.00947
1.0092
1.00864
1.00785
1.00681
1.00556
1.00413
1.00258
1.00096
0.999319
0.997729
0.996232
0.994888
0.993749
0.992787
1.00956
1.00928
1.00872
1.00792
1.00687
1.0056
1.00416
1.00259
1.00094
0.999282
0.997671
0.996154
0.994792
0.993638
0.992666
1.00964
1.00937
1.0088
1.00799
1.00693
1.00565
1.00419
1.0026
1.00093
0.999246
0.997612
0.996074
0.994695
0.993526
0.992542
1.00973
1.00946
1.00889
1.00807
1.00699
1.0057
1.00422
1.00261
1.00092
0.999208
0.997552
0.995994
0.994596
0.993412
0.992416
1.00983
1.00955
1.00897
1.00814
1.00706
1.00574
1.00425
1.00262
1.0009
0.999171
0.997492
0.995912
0.994495
0.993296
0.992287
1.00992
1.00964
1.00906
1.00822
1.00712
1.0058
1.00428
1.00263
1.00089
0.999133
0.997431
0.995829
0.994393
0.993177
0.992156
1.01001
1.00973
1.00915
1.0083
1.00719
1.00585
1.00431
1.00264
1.00088
0.999096
0.997369
0.995746
0.994289
0.993056
0.992022
1.01011
1.00983
1.00924
1.00838
1.00726
1.0059
1.00435
1.00265
1.00086
0.999058
0.997306
0.99566
0.994182
0.992933
0.991885
1.01021
1.00993
1.00933
1.00847
1.00733
1.00596
1.00438
1.00266
1.00085
0.999019
0.997243
0.995573
0.994075
0.992808
0.991745
1.01031
1.01003
1.00942
1.00856
1.0074
1.00601
1.00442
1.00267
1.00084
0.99898
0.997178
0.995485
0.993964
0.992679
0.991603
1.01042
1.01013
1.00952
1.00864
1.00748
1.00607
1.00445
1.00268
1.00082
0.998941
0.997113
0.995395
0.993852
0.992549
0.991458
1.01052
1.01023
1.00962
1.00873
1.00756
1.00613
1.00449
1.0027
1.00081
0.998901
0.997046
0.995303
0.993738
0.992416
0.99131
1.01063
1.01034
1.00972
1.00883
1.00764
1.00619
1.00453
1.00271
1.0008
0.998861
0.996978
0.995209
0.993621
0.992281
0.99116
1.01074
1.01045
1.00982
1.00892
1.00771
1.00625
1.00457
1.00273
1.00078
0.99882
0.996909
0.995114
0.993502
0.992142
0.991006
1.01085
1.01056
1.00993
1.00902
1.0078
1.00632
1.00461
1.00274
1.00077
0.998778
0.996839
0.995017
0.993381
0.992002
0.99085
1.01097
1.01067
1.01004
1.00911
1.00788
1.00638
1.00465
1.00276
1.00076
0.998736
0.996767
0.994918
0.993257
0.991858
0.990691
1.01108
1.01079
1.01015
1.00921
1.00797
1.00645
1.0047
1.00277
1.00075
0.998693
0.996695
0.994817
0.993132
0.991712
0.99053
1.0112
1.01091
1.01026
1.00932
1.00805
1.00652
1.00474
1.00279
1.00073
0.998649
0.996621
0.994714
0.993003
0.991562
0.990365
1.01133
1.01103
1.01037
1.00942
1.00814
1.00659
1.00479
1.00281
1.00072
0.998606
0.996546
0.99461
0.992873
0.991411
0.990197
1.01145
1.01115
1.01049
1.00953
1.00823
1.00666
1.00484
1.00283
1.00071
0.998561
0.996469
0.994504
0.99274
0.991255
0.990026
1.01158
1.01128
1.01061
1.00964
1.00833
1.00673
1.00488
1.00285
1.0007
0.998516
0.996391
0.994395
0.992604
0.991098
0.989851
1.01171
1.01141
1.01073
1.00975
1.00843
1.00681
1.00493
1.00287
1.00068
0.99847
0.996312
0.994285
0.992466
0.990936
0.989673
1.01184
1.01154
1.01086
1.00987
1.00852
1.00688
1.00499
1.00289
1.00067
0.998424
0.996231
0.994172
0.992325
0.990772
0.989492
1.01198
1.01167
1.01099
1.00998
1.00862
1.00696
1.00504
1.00291
1.00066
0.998376
0.996149
0.994057
0.992181
0.990605
0.989306
1.01211
1.01181
1.01112
1.0101
1.00873
1.00705
1.00509
1.00293
1.00065
0.998328
0.996065
0.99394
0.992034
0.990434
0.989118
1.01225
1.01195
1.01125
1.01023
1.00883
1.00713
1.00515
1.00296
1.00064
0.998278
0.995979
0.993821
0.991885
0.99026
0.988925
1.0124
1.01209
1.01139
1.01035
1.00894
1.00722
1.00521
1.00298
1.00062
0.998228
0.995892
0.993699
0.991732
0.990083
0.988729
1.01255
1.01224
1.01153
1.01048
1.00905
1.0073
1.00527
1.00301
1.00061
0.998177
0.995803
0.993575
0.991577
0.989902
0.988528
1.0127
1.01239
1.01167
1.01061
1.00917
1.00739
1.00533
1.00303
1.0006
0.998125
0.995712
0.993448
0.991419
0.989718
0.988325
1.01285
1.01254
1.01182
1.01075
1.00928
1.00749
1.00539
1.00306
1.00058
0.998072
0.99562
0.993319
0.991257
0.98953
0.988117
1.013
1.0127
1.01197
1.01088
1.0094
1.00758
1.00545
1.00308
1.00057
0.998018
0.995526
0.993188
0.991093
0.989339
0.987906
1.01316
1.01286
1.01212
1.01102
1.00952
1.00768
1.00551
1.00311
1.00056
0.997963
0.995429
0.993053
0.990925
0.989144
0.98769
1.01333
1.01302
1.01228
1.01117
1.00965
1.00778
1.00558
1.00314
1.00054
0.997907
0.995332
0.992917
0.990754
0.988946
0.987471
1.01349
1.01318
1.01243
1.01131
1.00978
1.00788
1.00565
1.00317
1.00053
0.99785
0.995232
0.992777
0.99058
0.988743
0.987247
1.01366
1.01335
1.0126
1.01146
1.00991
1.00798
1.00572
1.0032
1.00052
0.997792
0.99513
0.992635
0.990403
0.988537
0.987019
1.01384
1.01353
1.01276
1.01162
1.01004
1.00809
1.00579
1.00323
1.0005
0.997733
0.995027
0.992491
0.990221
0.988326
0.986787
1.01401
1.0137
1.01293
1.01177
1.01018
1.0082
1.00586
1.00326
1.00049
0.997673
0.994921
0.992343
0.990037
0.988111
0.98655
1.01419
1.01388
1.01311
1.01193
1.01031
1.00831
1.00594
1.00329
1.00048
0.997612
0.994813
0.992192
0.989849
0.987892
0.986308
1.01438
1.01407
1.01328
1.0121
1.01046
1.00842
1.00601
1.00332
1.00046
0.997549
0.994703
0.992039
0.989657
0.987669
0.986061
1.01457
1.01426
1.01347
1.01227
1.0106
1.00854
1.00609
1.00336
1.00045
0.997485
0.994591
0.991882
0.989461
0.987441
0.985809
1.01476
1.01445
1.01365
1.01244
1.01075
1.00866
1.00617
1.00339
1.00043
0.99742
0.994477
0.991723
0.989262
0.987208
0.985552
1.01495
1.01464
1.01384
1.01261
1.01091
1.00878
1.00625
1.00343
1.00042
0.997354
0.99436
0.99156
0.989058
0.986971
0.98529
1.01515
1.01485
1.01403
1.01279
1.01106
1.0089
1.00633
1.00346
1.0004
0.997286
0.994241
0.991394
0.988851
0.986728
0.985022
1.01536
1.01505
1.01423
1.01298
1.01122
1.00903
1.00642
1.0035
1.00039
0.997218
0.99412
0.991224
0.988639
0.986481
0.984748
1.01557
1.01526
1.01443
1.01316
1.01138
1.00916
1.00651
1.00354
1.00037
0.997147
0.993996
0.991051
0.988423
0.986229
0.984469
1.01578
1.01547
1.01464
1.01335
1.01155
1.00929
1.0066
1.00358
1.00036
0.997076
0.99387
0.990875
0.988202
0.985971
0.984183
1.016
1.01569
1.01485
1.01355
1.01172
1.00943
1.00669
1.00362
1.00034
0.997003
0.993741
0.990694
0.987976
0.985708
0.983892
1.01622
1.01592
1.01507
1.01375
1.0119
1.00957
1.00678
1.00366
1.00033
0.996928
0.99361
0.99051
0.987746
0.985439
0.983595
1.01644
1.01614
1.01529
1.01396
1.01208
1.00971
1.00688
1.0037
1.00031
0.996852
0.993475
0.990322
0.987511
0.985165
0.983292
1.01668
1.01638
1.01552
1.01417
1.01226
1.00986
1.00698
1.00374
1.00029
0.996774
0.993338
0.99013
0.98727
0.984885
0.982982
1.01691
1.01662
1.01575
1.01438
1.01245
1.01001
1.00708
1.00379
1.00028
0.996695
0.993197
0.989933
0.987025
0.984598
0.982666
1.01715
1.01686
1.01598
1.0146
1.01264
1.01016
1.00718
1.00383
1.00026
0.996613
0.993053
0.989732
0.986774
0.984306
0.982343
1.0174
1.01711
1.01622
1.01483
1.01284
1.01032
1.00729
1.00388
1.00024
0.99653
0.992906
0.989526
0.986517
0.984007
0.982014
1.01765
1.01736
1.01647
1.01506
1.01304
1.01048
1.0074
1.00393
1.00022
0.996444
0.992756
0.989316
0.986255
0.983702
0.981677
1.01791
1.01762
1.01672
1.01529
1.01324
1.01064
1.00751
1.00398
1.00021
0.996357
0.992601
0.989101
0.985986
0.983391
0.981334
1.01817
1.01789
1.01698
1.01553
1.01346
1.01081
1.00762
1.00403
1.00019
0.996267
0.992443
0.98888
0.985712
0.983073
0.980984
1.01844
1.01816
1.01725
1.01578
1.01367
1.01098
1.00774
1.00408
1.00017
0.996175
0.992281
0.988655
0.985432
0.982748
0.980626
1.01871
1.01844
1.01752
1.01603
1.01389
1.01116
1.00786
1.00413
1.00015
0.99608
0.992115
0.988424
0.985145
0.982416
0.980261
1.019
1.01872
1.01779
1.01629
1.01412
1.01134
1.00798
1.00418
1.00012
0.995983
0.991945
0.988188
0.984852
0.982078
0.979888
1.01928
1.01902
1.01808
1.01655
1.01435
1.01152
1.0081
1.00424
1.0001
0.995883
0.99177
0.987946
0.984553
0.981732
0.979508
1.01958
1.01931
1.01836
1.01682
1.01459
1.01171
1.00823
1.00429
1.00008
0.99578
0.991591
0.987698
0.984246
0.981378
0.97912
1.01988
1.01962
1.01866
1.0171
1.01483
1.01191
1.00836
1.00435
1.00006
0.995674
0.991407
0.987444
0.983933
0.981017
0.978724
1.02018
1.01993
1.01896
1.01739
1.01508
1.01211
1.00849
1.00441
1.00003
0.995565
0.991219
0.987184
0.983613
0.980649
0.97832
1.0205
1.02025
1.01927
1.01768
1.01534
1.01231
1.00863
1.00446
1
0.995452
0.991025
0.986918
0.983285
0.980272
0.977908
1.02082
1.02057
1.01959
1.01797
1.0156
1.01252
1.00877
1.00452
0.999975
0.995337
0.990826
0.986646
0.98295
0.979888
0.977487
1.02114
1.02091
1.01992
1.01828
1.01586
1.01273
1.00891
1.00458
0.999945
0.995217
0.990622
0.986366
0.982608
0.979495
0.977058
1.02148
1.02125
1.02025
1.01859
1.01614
1.01295
1.00905
1.00464
0.999914
0.995094
0.990412
0.98608
0.982258
0.979094
0.97662
1.02182
1.0216
1.02059
1.01891
1.01642
1.01317
1.0092
1.0047
0.999881
0.994967
0.990197
0.985787
0.981899
0.978685
0.976173
1.02217
1.02195
1.02094
1.01924
1.01671
1.0134
1.00935
1.00477
0.999846
0.994835
0.989975
0.985486
0.981533
0.978266
0.975717
1.02253
1.02232
1.0213
1.01958
1.017
1.01363
1.00951
1.00483
0.99981
0.9947
0.989748
0.985179
0.981158
0.977839
0.975251
1.0229
1.02269
1.02166
1.01992
1.0173
1.01387
1.00966
1.00489
0.999771
0.994559
0.989514
0.984863
0.980775
0.977402
0.974776
1.02328
1.02308
1.02204
1.02027
1.01761
1.01411
1.00982
1.00495
0.999729
0.994415
0.989274
0.98454
0.980382
0.976956
0.974291
1.02366
1.02347
1.02242
1.02063
1.01793
1.01436
1.00999
1.00502
0.999686
0.994265
0.989027
0.984208
0.979981
0.976499
0.973795
1.02405
1.02387
1.02282
1.021
1.01825
1.01462
1.01015
1.00508
0.99964
0.994111
0.988773
0.983868
0.97957
0.976033
0.97329
1.02446
1.02428
1.02322
1.02138
1.01859
1.01488
1.01033
1.00515
0.99959
0.99395
0.988511
0.983519
0.979149
0.975557
0.972773
1.02487
1.0247
1.02364
1.02177
1.01893
1.01515
1.0105
1.00521
0.999539
0.993785
0.988243
0.983161
0.978719
0.97507
0.972245
1.02529
1.02513
1.02406
1.02217
1.01928
1.01543
1.01068
1.00527
0.999483
0.993614
0.987966
0.982794
0.978277
0.974571
0.971706
1.02572
1.02558
1.0245
1.02258
1.01964
1.01571
1.01086
1.00534
0.999425
0.993436
0.987681
0.982417
0.977826
0.974062
0.971155
1.02617
1.02603
1.02494
1.023
1.02
1.01599
1.01104
1.0054
0.999363
0.993252
0.987387
0.982029
0.977363
0.97354
0.970592
1.02662
1.02649
1.0254
1.02343
1.02038
1.01629
1.01123
1.00547
0.999297
0.993062
0.987085
0.981632
0.976889
0.973007
0.970018
1.02708
1.02697
1.02587
1.02387
1.02077
1.01659
1.01142
1.00553
0.999227
0.992864
0.986773
0.981223
0.976402
0.972461
0.96943
1.02756
1.02746
1.02635
1.02433
1.02116
1.0169
1.01161
1.00559
0.999153
0.99266
0.986451
0.980804
0.975904
0.971903
0.968829
1.02805
1.02796
1.02684
1.02479
1.02157
1.01721
1.01181
1.00565
0.999073
0.992446
0.986119
0.980372
0.975392
0.971331
0.968215
1.02855
1.02847
1.02735
1.02527
1.02198
1.01753
1.01201
1.00571
0.998989
0.992225
0.985777
0.979929
0.974868
0.970746
0.967587
1.02906
1.029
1.02787
1.02576
1.02241
1.01786
1.01221
1.00577
0.998899
0.991995
0.985423
0.979471
0.97433
0.970146
0.966945
1.02958
1.02954
1.0284
1.02626
1.02285
1.0182
1.01242
1.00583
0.998804
0.991756
0.985058
0.979002
0.973778
0.969532
0.966288
1.03012
1.03009
1.02895
1.02678
1.0233
1.01854
1.01263
1.00589
0.998702
0.991507
0.98468
0.978518
0.973211
0.968903
0.965616
1.03067
1.03066
1.02951
1.02731
1.02376
1.0189
1.01284
1.00594
0.998594
0.991248
0.984291
0.97802
0.972629
0.968259
0.96493
1.03124
1.03125
1.03009
1.02785
1.02423
1.01926
1.01305
1.00599
0.998478
0.990977
0.983886
0.977507
0.972031
0.967598
0.964227
1.03182
1.03185
1.03069
1.02841
1.02471
1.01963
1.01327
1.00604
0.998355
0.990696
0.983469
0.976979
0.971418
0.966922
0.963508
1.03242
1.03246
1.0313
1.02898
1.02521
1.02
1.01349
1.00608
0.998222
0.990401
0.983036
0.976433
0.970787
0.966229
0.962773
1.03303
1.03309
1.03192
1.02958
1.02572
1.02039
1.01371
1.00612
0.998082
0.990095
0.982588
0.975872
0.970139
0.965518
0.96202
1.03366
1.03374
1.03257
1.03018
1.02624
1.02078
1.01394
1.00616
0.99793
0.989773
0.982123
0.975292
0.969473
0.964789
0.96125
1.03431
1.03441
1.03323
1.03081
1.02678
1.02118
1.01417
1.00619
0.997769
0.989438
0.981642
0.974695
0.968789
0.964042
0.960462
1.03497
1.0351
1.03391
1.03145
1.02733
1.02159
1.01439
1.00621
0.997596
0.989087
0.981142
0.974078
0.968084
0.963276
0.959655
1.03565
1.0358
1.03461
1.03211
1.02789
1.022
1.01462
1.00623
0.997411
0.98872
0.980624
0.973442
0.967361
0.96249
0.95883
1.03635
1.03653
1.03533
1.03278
1.02847
1.02243
1.01485
1.00625
0.997213
0.988335
0.980085
0.972785
0.966616
0.961684
0.957984
1.03707
1.03728
1.03608
1.03348
1.02907
1.02286
1.01508
1.00625
0.997001
0.987933
0.979527
0.972107
0.96585
0.960858
0.957119
1.03781
1.03804
1.03684
1.0342
1.02968
1.02331
1.01531
1.00625
0.996773
0.98751
0.978946
0.971405
0.965062
0.960009
0.956233
1.03857
1.03883
1.03763
1.03494
1.03031
1.02376
1.01553
1.00623
0.99653
0.987068
0.978344
0.970682
0.964251
0.959139
0.955327
1.03935
1.03965
1.03844
1.03569
1.03095
1.02422
1.01576
1.00621
0.996269
0.986603
0.977717
0.969933
0.963416
0.958245
0.954398
1.04015
1.04048
1.03927
1.03648
1.03161
1.02468
1.01598
1.00617
0.995989
0.986116
0.977066
0.96916
0.962557
0.957329
0.953447
1.04098
1.04134
1.04013
1.03728
1.03228
1.02516
1.0162
1.00612
0.995689
0.985604
0.976387
0.968359
0.961672
0.956388
0.952473
1.04183
1.04223
1.04102
1.03811
1.03298
1.02564
1.01642
1.00606
0.995368
0.985067
0.975683
0.967533
0.960762
0.955423
0.951477
1.04271
1.04315
1.04193
1.03896
1.03369
1.02613
1.01663
1.00598
0.995022
0.984501
0.974948
0.966677
0.959824
0.954432
0.950455
1.04361
1.04409
1.04287
1.03984
1.03442
1.02662
1.01684
1.00589
0.994653
0.983908
0.974185
0.965793
0.958859
0.953415
0.94941
1.04454
1.04506
1.04385
1.04075
1.03517
1.02712
1.01704
1.00577
0.994256
0.983282
0.973389
0.964877
0.957863
0.952371
0.948338
1.0455
1.04607
1.04485
1.04169
1.03593
1.02763
1.01723
1.00563
0.993831
0.982626
0.972561
0.963931
0.956839
0.951299
0.947242
1.04649
1.0471
1.04589
1.04265
1.03672
1.02814
1.0174
1.00547
0.993374
0.981935
0.971698
0.96295
0.955783
0.950198
0.946118
1.04751
1.04817
1.04696
1.04364
1.03753
1.02866
1.01757
1.00529
0.992886
0.981208
0.970799
0.961936
0.954697
0.949068
0.944968
1.04856
1.04928
1.04806
1.04466
1.03835
1.02918
1.01772
1.00508
0.992361
0.980442
0.969862
0.960885
0.953576
0.947907
0.943788
1.04965
1.05042
1.0492
1.04572
1.0392
1.0297
1.01786
1.00484
0.991799
0.979637
0.968886
0.959799
0.952422
0.946717
0.942582
1.05077
1.0516
1.05038
1.04681
1.04006
1.03022
1.01797
1.00456
0.991196
0.978788
0.967868
0.958673
0.951233
0.945493
0.941344
1.05193
1.05282
1.05161
1.04793
1.04095
1.03074
1.01807
1.00425
0.99055
0.977895
0.966808
0.957508
0.950008
0.944238
0.940078
1.05312
1.05408
1.05287
1.04909
1.04185
1.03126
1.01814
1.0039
0.989857
0.976954
0.965702
0.956301
0.948745
0.942947
0.93878
1.05436
1.05538
1.05418
1.05029
1.04277
1.03177
1.01818
1.00351
0.989115
0.975963
0.964549
0.955053
0.947445
0.941624
0.937452
1.05564
1.05673
1.05553
1.05152
1.04371
1.03228
1.01819
1.00306
0.98832
0.974919
0.963346
0.953759
0.946104
0.940264
0.936091
1.05696
1.05814
1.05694
1.05279
1.04468
1.03277
1.01817
1.00257
0.987468
0.97382
0.962093
0.95242
0.944724
0.938869
0.934697
1.05833
1.05959
1.05839
1.05411
1.04565
1.03325
1.01811
1.00203
0.986555
0.972661
0.960786
0.951033
0.943301
0.937436
0.933269
1.05975
1.06109
1.0599
1.05546
1.04664
1.03372
1.018
1.00142
0.985579
0.971442
0.959424
0.949598
0.941836
0.935966
0.931808
1.06122
1.06265
1.06147
1.05686
1.04765
1.03416
1.01784
1.00075
0.984533
0.970156
0.958003
0.948111
0.940327
0.934456
0.93031
1.06274
1.06427
1.06309
1.05831
1.04867
1.03458
1.01763
1.00001
0.983414
0.968804
0.956522
0.946573
0.938773
0.932907
0.928778
1.06432
1.06595
1.06478
1.05979
1.0497
1.03497
1.01736
0.999187
0.982217
0.967379
0.954979
0.944981
0.937171
0.931317
0.927208
1.06597
1.0677
1.06653
1.06133
1.05074
1.03532
1.01701
0.998284
0.980938
0.96588
0.953371
0.943334
0.935524
0.929687
0.925601
1.06767
1.06952
1.06835
1.06291
1.05178
1.03562
1.01659
0.99729
0.97957
0.964302
0.951695
0.941629
0.933827
0.928013
0.923956
1.06944
1.07141
1.07025
1.06454
1.05282
1.03588
1.01608
0.996199
0.97811
0.962643
0.94995
0.939867
0.932081
0.926297
0.922273
1.07128
1.07339
1.07222
1.06622
1.05385
1.03607
1.01548
0.995002
0.97655
0.960897
0.948133
0.938044
0.930284
0.924537
0.920549
1.0732
1.07544
1.07427
1.06794
1.05488
1.03619
1.01477
0.993693
0.974888
0.959063
0.946242
0.936161
0.928436
0.922733
0.918786
1.07519
1.07759
1.07641
1.06972
1.05588
1.03624
1.01394
0.992262
0.973114
0.957135
0.944274
0.934213
0.926535
0.920883
0.916981
1.07727
1.07983
1.07863
1.07153
1.05686
1.03618
1.01299
0.9907
0.971226
0.955111
0.942228
0.932203
0.924582
0.918987
0.915136
1.07943
1.08217
1.08095
1.07339
1.0578
1.03602
1.01189
0.988997
0.969215
0.952987
0.9401
0.930126
0.922573
0.917045
0.913249
1.0817
1.08461
1.08337
1.07529
1.05869
1.03574
1.01064
0.987146
0.967078
0.95076
0.937891
0.927984
0.920511
0.915056
0.91132
1.08406
1.08718
1.08589
1.07722
1.05951
1.03531
1.00921
0.985134
0.964806
0.948426
0.935596
0.925773
0.918392
0.913018
0.909348
1.08653
1.08986
1.08852
1.07919
1.06026
1.03472
1.0076
0.982954
0.962397
0.945983
0.933217
0.923495
0.916218
0.910934
0.907333
1.08911
1.09268
1.09126
1.08117
1.0609
1.03395
1.00579
0.980593
0.959843
0.943426
0.930748
0.921148
0.913987
0.9088
0.905274
1.09182
1.09565
1.09411
1.08317
1.06143
1.03297
1.00376
0.978044
0.957141
0.940756
0.928192
0.918731
0.9117
0.906618
0.903172
1.09466
1.09876
1.09708
1.08516
1.0618
1.03175
1.00148
0.975294
0.954283
0.937967
0.925546
0.916244
0.909356
0.904387
0.901025
1.09765
1.10204
1.10018
1.08713
1.062
1.03028
0.998953
0.972336
0.951269
0.93506
0.92281
0.913689
0.906955
0.902107
0.898834
1.10078
1.1055
1.10339
1.08906
1.06199
1.02851
0.996144
0.96916
0.948091
0.932031
0.919983
0.911063
0.904498
0.899778
0.896598
1.10408
1.10915
1.10673
1.09093
1.06173
1.02641
0.993041
0.965758
0.94475
0.928882
0.917067
0.908368
0.901986
0.897401
0.894317
1.10756
1.11301
1.11018
1.0927
1.06118
1.02395
0.989622
0.962124
0.94124
0.925611
0.91406
0.905606
0.899417
0.894974
0.891991
1.11124
1.11709
1.11374
1.09434
1.06028
1.02109
0.985872
0.958251
0.937564
0.922219
0.910966
0.902776
0.896795
0.8925
0.88962
1.11513
1.12142
1.1174
1.09579
1.05898
1.01779
0.981772
0.954137
0.933719
0.918707
0.907784
0.899882
0.89412
0.889978
0.887204
1.11925
1.126
1.12114
1.09701
1.05721
1.01402
0.977311
0.949779
0.929707
0.915077
0.904518
0.896924
0.891392
0.887409
0.884743
1.12362
1.13086
1.12494
1.09792
1.05492
1.00973
0.972475
0.945177
0.925531
0.911331
0.901169
0.893905
0.888615
0.884794
0.882238
1.12829
1.13601
1.12876
1.09845
1.05202
1.00488
0.967259
0.940335
0.921195
0.907473
0.897743
0.89083
0.88579
0.882134
0.879688
1.13326
1.14148
1.13255
1.09851
1.04844
0.999443
0.961658
0.935258
0.916702
0.903508
0.894243
0.887699
0.882918
0.87943
0.877093
1.13858
1.14727
1.13626
1.09799
1.04408
0.993385
0.955676
0.929956
0.912061
0.899441
0.890674
0.884519
0.880005
0.876683
0.874455
1.14429
1.1534
1.1398
1.09676
1.03887
0.986682
0.949322
0.924439
0.907278
0.895279
0.887043
0.881293
0.87705
0.873894
0.871772
1.15044
1.15987
1.14307
1.09468
1.03271
0.97932
0.942613
0.918723
0.902365
0.891029
0.883355
0.878028
0.87406
0.871066
0.869046
1.15708
1.16666
1.14595
1.0916
1.02553
0.971297
0.935572
0.912825
0.89733
0.886701
0.879619
0.874728
0.871037
0.868199
0.866276
1.16427
1.17376
1.14826
1.08734
1.01724
0.962626
0.928234
0.906766
0.892186
0.882305
0.875845
0.871401
0.867985
0.865295
0.863462
1.17209
1.18112
1.14982
1.08171
1.00777
0.953338
0.920637
0.900566
0.886946
0.877853
0.872041
0.868055
0.864909
0.862355
0.860604
1.18063
1.18865
1.15039
1.07451