/*--------------------------------*- C++ -*----------------------------------*\
  =========                 |
  \\      /  F ield         | OpenFOAM: The Open Source CFD Toolbox
   \\    /   O peration     | Website:  https://openfoam.org
    \\  /    A nd           | Version:  6.0
     \\/     M anipulation  |
\*---------------------------------------------------------------------------*/
FoamFile
{
    version     2.0;
    format      ascii;
    class       volScalarField;
    location    "0.3";
    object      p;
}
// * * * * * * * * * * * * * * * * * * * * * * * * * * * * * * * * * * * * * //

dimensions      [0 2 -2 0 0 0 0];

internalField   nonuniform List<scalar> 
800
(
-3.75325e-08
-0.000728942
-0.00189927
-0.00316207
-0.00428629
-0.00516532
-0.00576864
-0.00610327
-0.00618868
-0.00604252
-0.00567373
-0.00507995
-0.00424706
-0.00314939
-0.00175013
-1.31878e-06
0.00215637
0.00479392
0.00799387
0.0118494
0.0164619
0.0219362
0.0283732
0.0358583
0.0444461
0.05414
0.0648695
0.0764653
0.0886389
0.100971
0.112919
0.123851
0.133107
0.1401
0.144431
0.146
0.145101
0.14245
0.139182
0.136748
0.000734619
-2.50497e-05
-0.000975544
-0.00193583
-0.00278983
-0.0034633
-0.00392533
-0.00417006
-0.00420017
-0.00401772
-0.00361947
-0.00299473
-0.00212455
-0.000981588
0.000469927
0.00227437
0.00448494
0.00716385
0.0103822
0.0142187
0.0187582
0.0240866
0.0302856
0.0374221
0.0455362
0.0546236
0.0646166
0.075363
0.0866082
0.0979852
0.10902
0.119161
0.127838
0.134542
0.138937
0.140949
0.140838
0.139186
0.136735
0.134339
0.00197797
0.000890624
-0.000101964
-0.0009551
-0.00167267
-0.00222066
-0.00258324
-0.00275812
-0.0027441
-0.0025363
-0.00212456
-0.00149283
-0.000619003
0.000524995
0.00197332
0.00376649
0.00595176
0.00858355
0.0117235
0.0154401
0.0198072
0.0249012
0.0307962
0.0375564
0.0452246
0.0538082
0.0632596
0.0734562
0.0841801
0.0951046
0.105794
0.115726
0.124344
0.131136
0.135741
0.138043
0.138246
0.136835
0.134263
0.131034
0.00337161
0.00180486
0.000621259
-0.000247945
-0.000922812
-0.00141005
-0.00171521
-0.00184772
-0.00180961
-0.00159452
-0.00118922
-0.000574957
0.000271539
0.00137753
0.0027742
0.00449711
0.0065868
0.00908971
0.0120589
0.0155544
0.0196435
0.0243989
0.0298961
0.0362072
0.043392
0.0514835
0.0604692
0.0702683
0.0807072
0.0914988
0.102233
0.112391
0.121388
0.12865
0.133725
0.136393
0.136767
0.135254
0.132123
0.127742
0.00458294
0.00249127
0.00106392
0.000128096
-0.000549288
-0.00101384
-0.00129252
-0.00140761
-0.00136596
-0.00116144
-0.000779585
-0.00020082
0.000597399
0.00163954
0.00295186
0.00456297
0.00650495
0.00881481
0.0115362
0.014721
0.0184309
0.0227381
0.0277237
0.0334745
0.0400751
0.047594
0.0560652
0.0654618
0.0756668
0.0864442
0.0974178
0.108071
0.117778
0.125875
0.131772
0.135087
0.135793
0.134201
0.13045
0.124896
0.00533249
0.00271065
0.00102171
-5.23688e-06
-0.000712238
-0.00118104
-0.0014577
-0.00157586
-0.00154662
-0.00136452
-0.00101504
-0.000479558
0.00026161
0.00122782
0.00243797
0.00391143
0.0056697
0.00773864
0.0101514
0.0129512
0.0161952
0.0199561
0.0243238
0.0294036
0.0353096
0.0421528
0.0500216
0.0589535
0.0689019
0.0796975
0.0910154
0.102356
0.113059
0.122356
0.129484
0.133841
0.135194
0.133715
0.129416
0.122701
0.00536952
0.00222787
0.00027811
-0.000845946
-0.00159267
-0.00207752
-0.00236276
-0.00249079
-0.0024756
-0.0023123
-0.00198734
-0.0014849
-0.000790459
0.000107668
0.00121849
0.00254973
0.00411024
0.00591319
0.00798012
0.0103455
0.0130617
0.0162031
0.0198694
0.0241857
0.0292978
0.0353617
0.0425242
0.050895
0.0605091
0.0712822
0.0829636
0.0950984
0.107013
0.117845
0.126638
0.132516
0.13496
0.133918
0.129225
0.121346
0.00445794
0.000809411
-0.00138722
-0.00259458
-0.00336855
-0.00385752
-0.00413766
-0.00425776
-0.00423334
-0.0040601
-0.00372666
-0.00322195
-0.00253904
-0.00167643
-0.000637377
0.000572194
0.00194691
0.00348625
0.00519968
0.0071127
0.00927317
0.0117573
0.0146744
0.0181685
0.022416
0.0276163
0.0339748
0.0416752
0.050842
0.0614908
0.0734711
0.0864075
0.0996546
0.112288
0.123163
0.131094
0.135183
0.135039
0.130196
0.121141
0.00236555
-0.00178487
-0.00420267
-0.00545409
-0.006211
-0.00665743
-0.00688287
-0.0069415
-0.00684994
-0.00660508
-0.00619923
-0.00562819
-0.00489488
-0.00401008
-0.00299098
-0.00185833
-0.000632249
0.000673038
0.00205546
0.00353221
0.00514728
0.00697869
0.00914439
0.0118055
0.0151652
0.0194621
0.0249548
0.0318978
0.0405055
0.0509022
0.0630583
0.0767149
0.0913067
0.105905
0.11922
0.129744
0.136125
0.137476
0.132837
0.122617
-0.00115022
-0.00581467
-0.00841031
-0.0096266
-0.0102738
-0.0105803
-0.0106518
-0.0105487
-0.0102897
-0.00987404
-0.00929944
-0.00857037
-0.00770117
-0.00671593
-0.00564625
-0.00452741
-0.00339331
-0.00227038
-0.00117044
-8.27314e-05
0.00103432
0.0022611
0.00372352
0.0055972
0.00810783
0.0115262
0.0161563
0.0223147
0.0302985
0.0403391
0.0525381
0.0667818
0.0826385
0.0992503
0.11526
0.128879
0.138254
0.141839
0.13791
0.126602
-0.00636872
-0.0115834
-0.0142775
-0.0153107
-0.01568
-0.0156766
-0.0154293
-0.015008
-0.0144346
-0.013712
-0.0128441
-0.0118448
-0.0107396
-0.00956516
-0.00836607
-0.00718988
-0.00608153
-0.00507646
-0.0041929
-0.00342349
-0.00272654
-0.0020178
-0.00116341
2.48983e-05
0.00179114
0.00443181
0.0082868
0.0137227
0.0211067
0.030766
0.0429291
0.0576405
0.0746429
0.0932276
0.112077
0.129219
0.142312
0.149012
0.146501
0.13431
-0.0136589
-0.0194821
-0.0221164
-0.0226977
-0.0225033
-0.0219188
-0.021106
-0.0201471
-0.0190676
-0.0178727
-0.0165706
-0.0151821
-0.013741
-0.0122934
-0.0108924
-0.00959352
-0.0084481
-0.00749578
-0.00675664
-0.0062225
-0.0058482
-0.00554327
-0.00516488
-0.00451278
-0.0033274
-0.0012917
0.00196193
0.00683878
0.0137608
0.0231341
0.0352984
0.0504506
0.0685269
0.0890298
0.110798
0.131822
0.149371
0.160226
0.16012
0.147476
-0.0235876
-0.0300664
-0.0323102
-0.0319593
-0.0307362
-0.0291637
-0.0274432
-0.0256664
-0.0238556
-0.0220107
-0.0201371
-0.0182547
-0.0163989
-0.0146175
-0.0129657
-0.0115004
-0.0102727
-0.00932069
-0.00866094
-0.0082798
-0.00812481
-0.00809648
-0.00804132
-0.00774672
-0.00693856
-0.00528219
-0.00238746
0.00218129
0.00888877
0.0182031
0.0305559
0.0462782
0.0654967
0.0879605
0.112767
0.138048
0.160861
0.177137
0.180841
0.168613
-0.0371513
-0.0441893
-0.0453362
-0.0432091
-0.0402305
-0.0370934
-0.0340243
-0.0311036
-0.0283288
-0.0256743
-0.0231255
-0.0206871
-0.0183829
-0.0162521
-0.0143422
-0.0127031
-0.0113788
-0.0103994
-0.00977282
-0.00947562
-0.00944466
-0.00956894
-0.00968263
-0.00955992
-0.00891216
-0.00738793
-0.00457655
-1.57125e-05
0.00679582
0.0163786
0.0292418
0.045834
0.0664596
0.0911272
0.119272
0.14935
0.178472
0.201866
0.211526
0.201484
-0.0562819
-0.0632143
-0.0617416
-0.0563891
-0.0505744
-0.045111
-0.0401786
-0.0357867
-0.0318571
-0.0282993
-0.0250477
-0.0220682
-0.0193553
-0.0169252
-0.0148073
-0.0130359
-0.0116411
-0.0106402
-0.0100283
-0.00976935
-0.00978755
-0.00995911
-0.0101053
-0.0099868
-0.00930055
-0.0076785
-0.00468957
0.000155153
0.00739344
0.0175978
0.0313538
0.049225
0.0716924
0.0990361
0.131094
0.166844
0.203797
0.236822
0.255991
0.251866
-0.0848839
-0.0893087
-0.0819984
-0.0710394
-0.0608905
-0.0521929
-0.0448898
-0.0387899
-0.0336428
-0.029225
-0.0253734
-0.0219843
-0.0190018
-0.0164053
-0.0141967
-0.0123886
-0.0109937
-0.0100136
-0.00942968
-0.00919285
-0.00921501
-0.00936053
-0.00943898
-0.0091992
-0.00832502
-0.00643299
-0.00307212
0.00227395
0.0101825
0.0212845
0.0362533
0.055786
0.0805684
0.111198
0.148007
0.190722
0.237728
0.284161
0.318818
0.328246
-0.131008
-0.125722
-0.106252
-0.086108
-0.0697181
-0.0568454
-0.0468301
-0.0390258
-0.0328433
-0.0278263
-0.0236577
-0.0201325
-0.0171281
-0.0145792
-0.0124573
-0.0107534
-0.00946338
-0.00857587
-0.00806078
-0.00785923
-0.0078741
-0.00796141
-0.00792278
-0.0074989
-0.0063644
-0.00412402
-0.000310025
0.00561943
0.0142817
0.0263715
0.042665
0.0640243
0.0914011
0.125818
0.168295
0.219651
0.279776
0.345097
0.405154
0.443079
-0.21411
-0.176501
-0.132711
-0.0988172
-0.0743282
-0.0567657
-0.0442732
-0.0353096
-0.0287009
-0.0236552
-0.0196664
-0.0164203
-0.0137316
-0.0114991
-0.00967342
-0.00823321
-0.00716653
-0.0064565
-0.00606898
-0.00594187
-0.00597543
-0.00602356
-0.005886
-0.00530153
-0.00394203
-0.00140735
0.00277941
0.00917723
0.0184346
0.0313021
0.0486544
0.0715288
0.101189
0.139215
0.187625
0.248958
0.325711
0.417937
0.522447
0.622792
-0.389429
-0.242356
-0.147264
-0.0966399
-0.0657256
-0.0457947
-0.0331615
-0.0250524
-0.0195914
-0.0156965
-0.0127596
-0.0104344
-0.00853183
-0.00695955
-0.00568127
-0.00468874
-0.00398217
-0.00355533
-0.00338356
-0.00341334
-0.00355295
-0.00366407
-0.00355414
-0.00296952
-0.00158929
0.000980462
0.00521258
0.0116661
0.0209973
0.0339788
0.0515343
0.0748037
0.105266
0.144974
0.196988
0.266146
0.359677
0.487848
0.675365
0.928736
-0.730058
-0.303254
-0.119965
-0.0602369
-0.0330225
-0.017951
-0.0102485
-0.00651931
-0.00460948
-0.00349238
-0.00271127
-0.00205965
-0.00145909
-0.000902545
-0.000418958
-5.01975e-05
0.000164365
0.000199361
5.30555e-05
-0.000243977
-0.000620757
-0.000958321
-0.00108267
-0.000758258
0.000317905
0.00252182
0.00630812
0.012217
0.0208846
0.0330608
0.0496424
0.0717367
0.100788
0.138847
0.189183
0.257862
0.357632
0.517587
0.820195
1.36681
)
;

boundaryField
{
    movingWall
    {
        type            zeroGradient;
    }
    fixedWalls
    {
        type            zeroGradient;
    }
    frontAndBack
    {
        type            empty;
    }
}


// ************************************************************************* //
