/*--------------------------------*- C++ -*----------------------------------*\
  =========                 |
  \\      /  F ield         | OpenFOAM: The Open Source CFD Toolbox
   \\    /   O peration     | Website:  https://openfoam.org
    \\  /    A nd           | Version:  6.0
     \\/     M anipulation  |
\*---------------------------------------------------------------------------*/
FoamFile
{
    version     2.0;
    format      ascii;
    class       volScalarField;
    location    "0.3";
    object      p;
}
// * * * * * * * * * * * * * * * * * * * * * * * * * * * * * * * * * * * * * //

dimensions      [0 2 -2 0 0 0 0];

internalField   nonuniform List<scalar> 
200
(
-5.55694e-09
-0.00232188
-0.00420882
-0.00508497
-0.00504392
-0.00414619
-0.00232548
0.000617176
0.0050204
0.0113667
0.0202665
0.0323822
0.0482365
0.0678512
0.0902189
0.112794
0.131501
0.141927
0.141915
0.135255
0.00238589
-0.000143327
-0.00157513
-0.00202666
-0.00178732
-0.000822982
0.00100847
0.00390991
0.00815583
0.0141057
0.0222141
0.0330102
0.0469949
0.0643705
0.0845445
0.105539
0.123812
0.135099
0.136295
0.129043
0.00423498
0.000785262
-0.000673579
-0.0009698
-0.000714616
0.000145353
0.00177176
0.0043291
0.00800176
0.0130297
0.0197657
0.0287305
0.0405992
0.0559984
0.0749881
0.0962827
0.116656
0.131121
0.134192
0.125066
0.00359189
-0.000865994
-0.00247095
-0.00272759
-0.00253273
-0.00181363
-0.000429176
0.00169153
0.00459132
0.00835924
0.0132499
0.0198208
0.0290094
0.0420041
0.0597431
0.0819991
0.106263
0.126775
0.134731
0.12566
-0.00136053
-0.00645535
-0.00782909
-0.00775539
-0.00734077
-0.00645554
-0.00500871
-0.00307359
-0.000791553
0.00175293
0.00471125
0.00867574
0.0148304
0.0249081
0.0407912
0.0636411
0.0924105
0.121432
0.13868
0.134527
-0.0126936
-0.0174053
-0.0173565
-0.0160223
-0.0146161
-0.0128725
-0.0107567
-0.00849471
-0.00639299
-0.00466578
-0.00321753
-0.00140407
0.00215737
0.00961574
0.0236277
0.0467048
0.0797592
0.118658
0.15003
0.158694
-0.033473
-0.0349722
-0.0307405
-0.0263724
-0.0227534
-0.0192602
-0.015829
-0.012745
-0.0103621
-0.0088979
-0.00820216
-0.00751204
-0.00525089
0.00104347
0.0145707
0.0388317
0.0765344
0.126239
0.176738
0.209035
-0.0707635
-0.0598905
-0.0459518
-0.036043
-0.0289039
-0.0230426
-0.0180912
-0.0141349
-0.0113565
-0.00981098
-0.00917555
-0.00849468
-0.00596446
0.00118973
0.0166783
0.0448745
0.0900815
0.154314
0.233162
0.307724
-0.147032
-0.0897852
-0.0542084
-0.0371006
-0.0270177
-0.0198161
-0.0144963
-0.0106802
-0.00819286
-0.00686305
-0.00620854
-0.00513227
-0.00167381
0.00718872
0.0257053
0.0595032
0.115692
0.202625
0.331147
0.493994
-0.308135
-0.112837
-0.036923
-0.0179658
-0.0106568
-0.00593463
-0.00300659
-0.00132953
-0.000503614
-0.000314255
-0.000331528
0.000463555
0.0039502
0.013105
0.0323247
0.0681285
0.131289
0.241712
0.436636
0.751627
)
;

boundaryField
{
    movingWall
    {
        type            zeroGradient;
    }
    fixedWalls
    {
        type            zeroGradient;
    }
    frontAndBack
    {
        type            empty;
    }
}


// ************************************************************************* //
