/*--------------------------------*- C++ -*----------------------------------*\
  =========                 |
  \\      /  F ield         | OpenFOAM: The Open Source CFD Toolbox
   \\    /   O peration     | Website:  https://openfoam.org
    \\  /    A nd           | Version:  6.0
     \\/     M anipulation  |
\*---------------------------------------------------------------------------*/
FoamFile
{
    version     2.0;
    format      ascii;
    class       volVectorField;
    location    "0.3";
    object      U;
}
// * * * * * * * * * * * * * * * * * * * * * * * * * * * * * * * * * * * * * //

dimensions      [0 1 -1 0 0 0 0];

internalField   nonuniform List<vector> 
800
(
(0.000236211 -0.000235752 0)
(0.000403548 -8.52622e-05 0)
(-9.78705e-05 0.000188024 0)
(-0.00126629 0.000413751 0)
(-0.00294092 0.000564828 0)
(-0.00494615 0.000652197 0)
(-0.00714289 0.000695505 0)
(-0.00943852 0.000713579 0)
(-0.0117813 0.000720738 0)
(-0.0141501 0.000726481 0)
(-0.016544 0.000736505 0)
(-0.0189746 0.000753898 0)
(-0.0214603 0.00078011 0)
(-0.0240223 0.000815597 0)
(-0.0266821 0.000860144 0)
(-0.0294587 0.000912932 0)
(-0.0323668 0.000972414 0)
(-0.0354135 0.00103606 0)
(-0.038595 0.00110002 0)
(-0.0418926 0.00115877 0)
(-0.0452676 0.00120469 0)
(-0.0486562 0.00122783 0)
(-0.051964 0.00121573 0)
(-0.0550616 0.00115364 0)
(-0.0577818 0.00102532 0)
(-0.0599201 0.000814576 0)
(-0.0612413 0.000507832 0)
(-0.0614931 9.78334e-05 0)
(-0.0604294 -0.000411714 0)
(-0.0578445 -0.00100118 0)
(-0.0536159 -0.00163087 0)
(-0.0477533 -0.00223951 0)
(-0.0404435 -0.0027473 0)
(-0.0320813 -0.00306501 0)
(-0.0232704 -0.00310909 0)
(-0.0147848 -0.00282099 0)
(-0.00748221 -0.00218654 0)
(-0.00217579 -0.00125069 0)
(0.00053405 -0.000160126 0)
(0.000591957 0.000570913 0)
(9.30685e-05 -0.000419645 0)
(-0.000509385 0.000493392 0)
(-0.00268604 0.00176315 0)
(-0.00628976 0.00284941 0)
(-0.0110051 0.00363289 0)
(-0.0165041 0.00413507 0)
(-0.0225017 0.00442481 0)
(-0.0287889 0.00457834 0)
(-0.0352344 0.00466012 0)
(-0.0417716 0.00471738 0)
(-0.0483808 0.00478142 0)
(-0.0550736 0.00487108 0)
(-0.0618799 0.0049961 0)
(-0.0688379 0.00515969 0)
(-0.0759859 0.00535989 0)
(-0.0833555 0.00558994 0)
(-0.090964 0.00583781 0)
(-0.0988071 0.00608533 0)
(-0.10685 0.00630701 0)
(-0.115016 0.0064688 0)
(-0.123183 0.0065273 0)
(-0.131163 0.00642948 0)
(-0.138705 0.00611369 0)
(-0.145482 0.00551241 0)
(-0.151097 0.00455756 0)
(-0.155089 0.00318902 0)
(-0.156957 0.00136667 0)
(-0.156192 -0.000914065 0)
(-0.152332 -0.0036046 0)
(-0.145027 -0.00658603 0)
(-0.134117 -0.009657 0)
(-0.119719 -0.0125325 0)
(-0.102298 -0.0148605 0)
(-0.0827137 -0.0162612 0)
(-0.0622185 -0.0163901 0)
(-0.0423765 -0.0150197 0)
(-0.0248868 -0.0121256 0)
(-0.0113164 -0.00795939 0)
(-0.00286884 -0.00317435 0)
(-2.47532e-05 0.000575721 0)
(-0.000219199 0.000102625 0)
(-0.00199884 0.00272492 0)
(-0.00624063 0.0057684 0)
(-0.0124536 0.00836585 0)
(-0.0201431 0.01029 0)
(-0.0288819 0.0115721 0)
(-0.0382978 0.0123497 0)
(-0.048109 0.0127859 0)
(-0.0581314 0.0130269 0)
(-0.068264 0.0131854 0)
(-0.0784676 0.0133397 0)
(-0.0887458 0.0135391 0)
(-0.0991277 0.0138098 0)
(-0.109654 0.0141604 0)
(-0.120364 0.0145841 0)
(-0.131288 0.0150603 0)
(-0.14243 0.0155535 0)
(-0.153763 0.0160118 0)
(-0.165215 0.0163649 0)
(-0.176656 0.0165226 0)
(-0.187888 0.0163746 0)
(-0.198633 0.0157916 0)
(-0.208532 0.01463 0)
(-0.217136 0.0127408 0)
(-0.223919 0.00998377 0)
(-0.228295 0.00624701 0)
(-0.229643 0.00147381 0)
(-0.227357 -0.00430619 0)
(-0.220905 -0.0109432 0)
(-0.209898 -0.0181366 0)
(-0.194185 -0.0254149 0)
(-0.173936 -0.0321372 0)
(-0.149734 -0.0375294 0)
(-0.122628 -0.0407648 0)
(-0.0941506 -0.0410961 0)
(-0.0662434 -0.0380299 0)
(-0.0410557 -0.0315223 0)
(-0.0206283 -0.0221462 0)
(-0.00676496 -0.0112728 0)
(-0.000844867 -0.00166381 0)
(-0.00055179 0.00148439 0)
(-0.00362097 0.00681275 0)
(-0.0100988 0.0122425 0)
(-0.0190153 0.0167493 0)
(-0.0296343 0.0200735 0)
(-0.0414218 0.022297 0)
(-0.0539331 0.0236517 0)
(-0.0668351 0.0244072 0)
(-0.0799094 0.0248073 0)
(-0.0930323 0.0250432 0)
(-0.106151 0.0252507 0)
(-0.11926 0.0255165 0)
(-0.132385 0.0258872 0)
(-0.145562 0.0263768 0)
(-0.158827 0.0269711 0)
(-0.172199 0.0276296 0)
(-0.18567 0.0282844 0)
(-0.199193 0.0288388 0)
(-0.212664 0.0291651 0)
(-0.225919 0.0291038 0)
(-0.238716 0.028465 0)
(-0.250733 0.0270331 0)
(-0.26156 0.0245764 0)
(-0.270709 0.020863 0)
(-0.277616 0.0156847 0)
(-0.281667 0.00888784 0)
(-0.282225 0.000412605 0)
(-0.278669 -0.00966162 0)
(-0.270452 -0.0210687 0)
(-0.257162 -0.0333121 0)
(-0.238606 -0.0456348 0)
(-0.214896 -0.0570185 0)
(-0.186554 -0.0662288 0)
(-0.154596 -0.0719287 0)
(-0.120595 -0.0728749 0)
(-0.0866572 -0.0681954 0)
(-0.0552493 -0.0577141 0)
(-0.0288854 -0.0422356 0)
(-0.0101258 -0.0237587 0)
(-0.00149199 -0.00588787 0)
(-0.000873742 0.00374398 0)
(-0.00524069 0.0128157 0)
(-0.0139864 0.021202 0)
(-0.0255928 0.0279037 0)
(-0.039031 0.0327434 0)
(-0.0536384 0.0359243 0)
(-0.0688951 0.0378142 0)
(-0.0844245 0.0388125 0)
(-0.0999852 0.0392734 0)
(-0.115441 0.0394746 0)
(-0.130732 0.0396142 0)
(-0.145849 0.0398188 0)
(-0.160814 0.0401566 0)
(-0.175661 0.0406467 0)
(-0.190421 0.0412653 0)
(-0.205109 0.0419485 0)
(-0.219709 0.0425924 0)
(-0.234164 0.0430511 0)
(-0.248364 0.0431367 0)
(-0.262134 0.0426191 0)
(-0.27523 0.0412306 0)
(-0.287334 0.0386745 0)
(-0.298051 0.0346394 0)
(-0.306917 0.0288218 0)
(-0.313407 0.0209565 0)
(-0.316952 0.0108556 0)
(-0.316954 -0.00154334 0)
(-0.312822 -0.0161227 0)
(-0.304002 -0.0325258 0)
(-0.290031 -0.0500986 0)
(-0.270597 -0.0678444 0)
(-0.245637 -0.0844048 0)
(-0.215449 -0.0980963 0)
(-0.180829 -0.107032 0)
(-0.143203 -0.109364 0)
(-0.104705 -0.103664 0)
(-0.0680701 -0.0894013 0)
(-0.036364 -0.0673885 0)
(-0.0130778 -0.0400635 0)
(-0.00201182 -0.0117228 0)
(-0.00118024 0.00685331 0)
(-0.00681181 0.0207164 0)
(-0.0177744 0.0326172 0)
(-0.0319679 0.0417415 0)
(-0.0480353 0.0481198 0)
(-0.0651643 0.0521649 0)
(-0.0827537 0.054436 0)
(-0.100387 0.0554934 0)
(-0.117808 0.0558182 0)
(-0.134878 0.0557824 0)
(-0.151539 0.0556492 0)
(-0.167785 0.0555869 0)
(-0.183641 0.0556852 0)
(-0.199146 0.0559678 0)
(-0.214333 0.056401 0)
(-0.229222 0.0568974 0)
(-0.243802 0.0573173 0)
(-0.258026 0.0574685 0)
(-0.271799 0.0571067 0)
(-0.28497 0.0559392 0)
(-0.29733 0.0536309 0)
(-0.308611 0.0498169 0)
(-0.318483 0.0441205 0)
(-0.326562 0.0361791 0)
(-0.332411 0.0256784 0)
(-0.33555 0.0123942 0)
(-0.335462 -0.00375508 0)
(-0.3316 -0.0226489 0)
(-0.323404 -0.0438953 0)
(-0.310329 -0.0667567 0)
(-0.29189 -0.0900784 0)
(-0.26775 -0.112236 0)
(-0.23785 -0.131135 0)
(-0.202599 -0.144305 0)
(-0.163103 -0.149164 0)
(-0.121365 -0.14348 0)
(-0.0803231 -0.126037 0)
(-0.0436542 -0.0973208 0)
(-0.0159615 -0.0599832 0)
(-0.00250931 -0.0190015 0)
(-0.00147381 0.0107765 0)
(-0.00832512 0.0304499 0)
(-0.0214118 0.0463815 0)
(-0.0380269 0.058084 0)
(-0.0564596 0.0659276 0)
(-0.0757338 0.0706351 0)
(-0.0951652 0.073023 0)
(-0.114304 0.0738515 0)
(-0.132891 0.0737481 0)
(-0.150795 0.0731875 0)
(-0.167973 0.0725013 0)
(-0.184434 0.0719 0)
(-0.200217 0.0714945 0)
(-0.215373 0.0713135 0)
(-0.229953 0.0713145 0)
(-0.24399 0.0713891 0)
(-0.257497 0.0713664 0)
(-0.270454 0.0710147 0)
(-0.282803 0.070044 0)
(-0.294445 0.0681113 0)
(-0.305239 0.0648298 0)
(-0.314997 0.0597828 0)
(-0.323491 0.0525437 0)
(-0.330449 0.0427022 0)
(-0.335556 0.029898 0)
(-0.33845 0.0138615 0)
(-0.338714 -0.00553515 0)
(-0.335868 -0.0282165 0)
(-0.329356 -0.0538277 0)
(-0.31855 -0.0816421 0)
(-0.302774 -0.110458 0)
(-0.281368 -0.138493 0)
(-0.253828 -0.163319 0)
(-0.220028 -0.181889 0)
(-0.180555 -0.19076 0)
(-0.137071 -0.186608 0)
(-0.0925486 -0.167096 0)
(-0.0512559 -0.131906 0)
(-0.0190868 -0.0835722 0)
(-0.00307659 -0.0277702 0)
(-0.00176182 0.0154835 0)
(-0.00979788 0.0419387 0)
(-0.024907 0.0623472 0)
(-0.0437396 0.076686 0)
(-0.0642089 0.0858078 0)
(-0.0851708 0.0908587 0)
(-0.105867 0.0929883 0)
(-0.125829 0.0932001 0)
(-0.144811 0.0922906 0)
(-0.162711 0.090846 0)
(-0.179515 0.0892686 0)
(-0.195262 0.0878106 0)
(-0.210018 0.0866038 0)
(-0.223862 0.0856819 0)
(-0.236867 0.0849953 0)
(-0.2491 0.0844188 0)
(-0.260606 0.0837574 0)
(-0.271409 0.0827495 0)
(-0.281505 0.0810718 0)
(-0.290863 0.0783465 0)
(-0.299426 0.0741517 0)
(-0.307107 0.0680358 0)
(-0.313795 0.0595371 0)
(-0.319347 0.0482077 0)
(-0.323586 0.0336429 0)
(-0.326283 0.0155172 0)
(-0.327145 -0.00637023 0)
(-0.325782 -0.0320373 0)
(-0.321677 -0.0612395 0)
(-0.314159 -0.0933637 0)
(-0.302394 -0.127289 0)
(-0.285415 -0.161224 0)
(-0.262238 -0.192542 0)
(-0.232096 -0.21769 0)
(-0.194846 -0.232304 0)
(-0.151517 -0.231692 0)
(-0.104814 -0.211866 0)
(-0.0594258 -0.171032 0)
(-0.0226681 -0.111062 0)
(-0.00378308 -0.0382338 0)
(-0.00205833 0.0209622 0)
(-0.011277 0.0551224 0)
(-0.0283276 0.0803567 0)
(-0.049154 0.0972584 0)
(-0.0712693 0.107331 0)
(-0.0933713 0.112274 0)
(-0.114653 0.113656 0)
(-0.134658 0.112772 0)
(-0.153183 0.110608 0)
(-0.170181 0.10787 0)
(-0.185689 0.105031 0)
(-0.199793 0.102383 0)
(-0.212603 0.100074 0)
(-0.224233 0.0981434 0)
(-0.234798 0.0965349 0)
(-0.244398 0.0951105 0)
(-0.253123 0.0936579 0)
(-0.261047 0.0918956 0)
(-0.268226 0.0894799 0)
(-0.274703 0.0860129 0)
(-0.280509 0.0810534 0)
(-0.285661 0.0741306 0)
(-0.290165 0.0647615 0)
(-0.294009 0.0524705 0)
(-0.297154 0.0368129 0)
(-0.299518 0.0174024 0)
(-0.300945 -0.00605232 0)
(-0.30117 -0.0336975 0)
(-0.299768 -0.0654592 0)
(-0.2961 -0.100931 0)
(-0.289261 -0.139209 0)
(-0.27806 -0.178665 0)
(-0.261079 -0.216678 0)
(-0.236866 -0.249372 0)
(-0.204369 -0.271521 0)
(-0.163637 -0.276873 0)
(-0.116652 -0.25923 0)
(-0.0681351 -0.214417 0)
(-0.026821 -0.14274 0)
(-0.0046816 -0.0506968 0)
(-0.00238979 0.0272375 0)
(-0.0128535 0.0699891 0)
(-0.0318156 0.100265 0)
(-0.0543997 0.119474 0)
(-0.0776942 0.129986 0)
(-0.100272 0.134214 0)
(-0.121328 0.134241 0)
(-0.140471 0.1317 0)
(-0.157585 0.127787 0)
(-0.172712 0.123327 0)
(-0.185968 0.118859 0)
(-0.197508 0.114705 0)
(-0.207497 0.111027 0)
(-0.216099 0.107862 0)
(-0.223468 0.105147 0)
(-0.229748 0.102733 0)
(-0.235071 0.100396 0)
(-0.239559 0.0978422 0)
(-0.243325 0.0947189 0)
(-0.246481 0.0906207 0)
(-0.249136 0.0851009 0)
(-0.2514 0.0776836 0)
(-0.253387 0.0678778 0)
(-0.255202 0.0551918 0)
(-0.256939 0.0391498 0)
(-0.258657 0.0193101 0)
(-0.260355 -0.00471062 0)
(-0.261924 -0.0332 0)
(-0.263091 -0.0662885 0)
(-0.263341 -0.103844 0)
(-0.261825 -0.145298 0)
(-0.257278 -0.189377 0)
(-0.247979 -0.233725 0)
(-0.231855 -0.274443 0)
(-0.206849 -0.305688 0)
(-0.171698 -0.319649 0)
(-0.127077 -0.307429 0)
(-0.077084 -0.261376 0)
(-0.0315928 -0.178803 0)
(-0.00582414 -0.0655195 0)
(-0.00280598 0.0344034 0)
(-0.0146884 0.0866154 0)
(-0.0356111 0.121955 0)
(-0.0596907 0.142953 0)
(-0.0835748 0.153149 0)
(-0.105787 0.155869 0)
(-0.125616 0.153812 0)
(-0.142817 0.148991 0)
(-0.157426 0.142817 0)
(-0.169618 0.136226 0)
(-0.179623 0.129806 0)
(-0.187682 0.123894 0)
(-0.194027 0.118651 0)
(-0.198873 0.114105 0)
(-0.202417 0.110178 0)
(-0.204839 0.106709 0)
(-0.206305 0.103466 0)
(-0.206975 0.100148 0)
(-0.207008 0.0964014 0)
(-0.206565 0.091824 0)
(-0.205819 0.085975 0)
(-0.204954 0.0783858 0)
(-0.204168 0.0685701 0)
(-0.203666 0.0560343 0)
(-0.203655 0.040286 0)
(-0.204329 0.0208439 0)
(-0.205839 -0.00275114 0)
(-0.208255 -0.030916 0)
(-0.211505 -0.0639846 0)
(-0.215289 -0.102126 0)
(-0.218953 -0.145188 0)
(-0.221349 -0.192418 0)
(-0.220678 -0.242011 0)
(-0.214438 -0.290458 0)
(-0.199628 -0.331761 0)
(-0.173444 -0.356849 0)
(-0.134631 -0.353892 0)
(-0.0857201 -0.310591 0)
(-0.037003 -0.219228 0)
(-0.00728442 -0.0831067 0)
(-0.00340066 0.0426786 0)
(-0.0170572 0.105217 0)
(-0.0400829 0.145333 0)
(-0.065308 0.167211 0)
(-0.0889625 0.176006 0)
(-0.109676 0.176201 0)
(-0.126985 0.171216 0)
(-0.14091 0.163464 0)
(-0.151724 0.154552 0)
(-0.159792 0.145496 0)
(-0.165484 0.136901 0)
(-0.169142 0.129093 0)
(-0.17107 0.122209 0)
(-0.17153 0.116248 0)
(-0.17075 0.111112 0)
(-0.168932 0.106623 0)
(-0.166261 0.102535 0)
(-0.162916 0.0985495 0)
(-0.15908 0.0943147 0)
(-0.154945 0.0894398 0)
(-0.15072 0.0835001 0)
(-0.14664 0.0760451 0)
(-0.14296 0.0666065 0)
(-0.13996 0.0547034 0)
(-0.137938 0.0398463 0)
(-0.137199 0.0215377 0)
(-0.138037 -0.000727287 0)
(-0.140701 -0.0274595 0)
(-0.145346 -0.0591607 0)
(-0.151949 -0.0962785 0)
(-0.160175 -0.139094 0)
(-0.169188 -0.187482 0)
(-0.177398 -0.240445 0)
(-0.182204 -0.295324 0)
(-0.179925 -0.346635 0)
(-0.166224 -0.384738 0)
(-0.137386 -0.395117 0)
(-0.0932137 -0.359871 0)
(-0.0430749 -0.263626 0)
(-0.00918828 -0.103938 0)
(-0.00435103 0.0525069 0)
(-0.02042 0.126207 0)
(-0.0457493 0.170279 0)
(-0.0715182 0.191536 0)
(-0.0936825 0.197403 0)
(-0.111273 0.193812 0)
(-0.12432 0.184973 0)
(-0.133273 0.173674 0)
(-0.138743 0.161658 0)
(-0.141334 0.149956 0)
(-0.14158 0.139136 0)
(-0.139926 0.129469 0)
(-0.136731 0.121034 0)
(-0.132288 0.113784 0)
(-0.126833 0.107583 0)
(-0.120567 0.102226 0)
(-0.11367 0.0974577 0)
(-0.106316 0.0929757 0)
(-0.0986833 0.0884395 0)
(-0.0909687 0.0834754 0)
(-0.0833936 0.0776833 0)
(-0.0762114 0.0706415 0)
(-0.0697106 0.0619118 0)
(-0.0642167 0.051042 0)
(-0.0600902 0.0375655 0)
(-0.0577218 0.0209969 0)
(-0.0575215 0.000822243 0)
(-0.0598995 -0.023513 0)
(-0.0652308 -0.0526157 0)
(-0.0737896 -0.0871423 0)
(-0.0856332 -0.127752 0)
(-0.100402 -0.174948 0)
(-0.116999 -0.228695 0)
(-0.13316 -0.287605 0)
(-0.145024 -0.347497 0)
(-0.147054 -0.399266 0)
(-0.132866 -0.426655 0)
(-0.0983339 -0.405887 0)
(-0.0498254 -0.311035 0)
(-0.0117515 -0.128637 0)
(-0.00599072 0.0647356 0)
(-0.0255219 0.150235 0)
(-0.0532322 0.196478 0)
(-0.0783121 0.214716 0)
(-0.0968864 0.215578 0)
(-0.108925 0.206717 0)
(-0.115309 0.193115 0)
(-0.117117 0.177815 0)
(-0.115391 0.162565 0)
(-0.111005 0.148303 0)
(-0.104645 0.135476 0)
(-0.0968256 0.124237 0)
(-0.0879308 0.11457 0)
(-0.0782408 0.106354 0)
(-0.067965 0.0993986 0)
(-0.0572677 0.0934689 0)
(-0.0462901 0.0882936 0)
(-0.0351693 0.0835718 0)
(-0.0240534 0.0789769 0)
(-0.0131142 0.0741602 0)
(-0.00255747 0.0687545 0)
(0.00736994 0.062377 0)
(0.0163746 0.0546321 0)
(0.0241132 0.0451114 0)
(0.0301912 0.033391 0)
(0.0341631 0.0190239 0)
(0.0355349 0.00152544 0)
(0.0337716 -0.0196492 0)
(0.0283131 -0.0451362 0)
(0.0186122 -0.0756985 0)
(0.00421437 -0.112249 0)
(-0.0150782 -0.155809 0)
(-0.038892 -0.207285 0)
(-0.0657443 -0.266809 0)
(-0.092287 -0.332248 0)
(-0.112546 -0.396438 0)
(-0.1178 -0.443194 0)
(-0.0991198 -0.443838 0)
(-0.057119 -0.35953 0)
(-0.0153014 -0.158046 0)
(-0.00892344 0.0809179 0)
(-0.0334725 0.178112 0)
(-0.0629452 0.222985 0)
(-0.0846497 0.234524 0)
(-0.0960118 0.227725 0)
(-0.0988363 0.212055 0)
(-0.0952987 0.193031 0)
(-0.0872858 0.17367 0)
(-0.0762964 0.155497 0)
(-0.063428 0.139185 0)
(-0.0494416 0.124949 0)
(-0.0348449 0.112759 0)
(-0.0199654 0.10246 0)
(-0.0050072 0.0938317 0)
(0.00990433 0.0866233 0)
(0.024688 0.0805641 0)
(0.0392801 0.0753708 0)
(0.0536131 0.0707487 0)
(0.0675992 0.0663926 0)
(0.0811171 0.0619872 0)
(0.0940017 0.0572075 0)
(0.106036 0.0517204 0)
(0.116946 0.0451843 0)
(0.126396 0.0372487 0)
(0.133983 0.0275499 0)
(0.139239 0.0157024 0)
(0.141621 0.00128321 0)
(0.140513 -0.0161949 0)
(0.135224 -0.0373245 0)
(0.124997 -0.0628641 0)
(0.109038 -0.0938172 0)
(0.0866131 -0.131508 0)
(0.0572786 -0.177567 0)
(0.0213838 -0.233593 0)
(-0.0189962 -0.299958 0)
(-0.0586216 -0.372878 0)
(-0.0875818 -0.438852 0)
(-0.0921374 -0.467126 0)
(-0.0641221 -0.405513 0)
(-0.0201635 -0.193176 0)
(-0.0140926 0.103835 0)
(-0.0454838 0.210341 0)
(-0.0738446 0.247207 0)
(-0.0864109 0.246784 0)
(-0.0844349 0.229384 0)
(-0.0727934 0.205804 0)
(-0.0552938 0.18144 0)
(-0.0345975 0.158758 0)
(-0.0124916 0.138701 0)
(0.00990814 0.12147 0)
(0.0319553 0.106928 0)
(0.0533092 0.0948023 0)
(0.073822 0.0847744 0)
(0.0934611 0.0765227 0)
(0.112256 0.069737 0)
(0.130261 0.064121 0)
(0.147528 0.0593908 0)
(0.16409 0.0552698 0)
(0.179942 0.0514859 0)
(0.195034 0.0477682 0)
(0.209257 0.0438451 0)
(0.222442 0.0394433 0)
(0.234353 0.0342868 0)
(0.24468 0.0280948 0)
(0.253038 0.0205776 0)
(0.258961 0.0114288 0)
(0.261896 0.000310925 0)
(0.261193 -0.0131699 0)
(0.256092 -0.0295051 0)
(0.245708 -0.0493518 0)
(0.229016 -0.07364 0)
(0.204865 -0.103729 0)
(0.172065 -0.141587 0)
(0.129705 -0.189858 0)
(0.0779757 -0.25132 0)
(0.0199752 -0.32655 0)
(-0.0353155 -0.40775 0)
(-0.0710065 -0.467157 0)
(-0.0678255 -0.442767 0)
(-0.0260224 -0.235183 0)
(-0.0223244 0.138636 0)
(-0.0610089 0.245343 0)
(-0.0792043 0.262175 0)
(-0.0711502 0.243383 0)
(-0.0465428 0.213493 0)
(-0.0141225 0.182619 0)
(0.0210992 0.154692 0)
(0.0563032 0.130846 0)
(0.0899853 0.111037 0)
(0.121468 0.0948122 0)
(0.150551 0.0816294 0)
(0.177293 0.0709696 0)
(0.201882 0.0623752 0)
(0.224557 0.0554531 0)
(0.245568 0.0498667 0)
(0.265143 0.0453233 0)
(0.283474 0.0415628 0)
(0.300706 0.0383481 0)
(0.316923 0.0354569 0)
(0.332151 0.032677 0)
(0.346344 0.0298018 0)
(0.359386 0.0266282 0)
(0.371087 0.0229545 0)
(0.381176 0.0185782 0)
(0.389305 0.0132927 0)
(0.395036 0.00688102 0)
(0.397841 -0.000895388 0)
(0.397084 -0.0103161 0)
(0.392005 -0.0217357 0)
(0.381685 -0.0356432 0)
(0.365005 -0.0527649 0)
(0.340577 -0.074241 0)
(0.306696 -0.101913 0)
(0.261363 -0.138724 0)
(0.202687 -0.188993 0)
(0.13041 -0.257528 0)
(0.0496091 -0.344725 0)
(-0.0239754 -0.433005 0)
(-0.0600463 -0.460684 0)
(-0.0298604 -0.285238 0)
(-0.0308971 0.193105 0)
(-0.0697381 0.273362 0)
(-0.0539922 0.250672 0)
(-0.0061197 0.209623 0)
(0.0511592 0.170268 0)
(0.108068 0.136963 0)
(0.160943 0.110304 0)
(0.208439 0.0894748 0)
(0.250385 0.0733096 0)
(0.287188 0.0607621 0)
(0.319474 0.0510016 0)
(0.347904 0.0433891 0)
(0.373097 0.0374351 0)
(0.395605 0.0327625 0)
(0.4159 0.0290755 0)
(0.43437 0.0261366 0)
(0.451324 0.0237481 0)
(0.466992 0.0217399 0)
(0.481527 0.0199605 0)
(0.495005 0.0182703 0)
(0.507431 0.0165377 0)
(0.518732 0.0146366 0)
(0.528762 0.0124439 0)
(0.537299 0.00983818 0)
(0.544041 0.00669731 0)
(0.54861 0.00289443 0)
(0.550538 -0.00170875 0)
(0.549258 -0.00727435 0)
(0.544083 -0.0140102 0)
(0.534173 -0.0222098 0)
(0.518466 -0.0323249 0)
(0.495576 -0.0451034 0)
(0.463627 -0.0618522 0)
(0.420009 -0.084935 0)
(0.36118 -0.118614 0)
(0.283152 -0.16995 0)
(0.183975 -0.247587 0)
(0.07032 -0.351406 0)
(-0.021674 -0.438314 0)
(-0.0200596 -0.336735 0)
(-0.00852297 0.251431 0)
(-0.0140035 0.259253 0)
(0.0783817 0.18846 0)
(0.182219 0.135488 0)
(0.26998 0.098909 0)
(0.341933 0.0729886 0)
(0.401004 0.0546887 0)
(0.449429 0.0417903 0)
(0.48922 0.0326017 0)
(0.52217 0.0259566 0)
(0.549746 0.0210834 0)
(0.5731 0.0174671 0)
(0.593136 0.0147562 0)
(0.610562 0.0127048 0)
(0.625927 0.0111362 0)
(0.639656 0.00991881 0)
(0.652068 0.00894995 0)
(0.663394 0.00814616 0)
(0.673787 0.00743634 0)
(0.683329 0.00675743 0)
(0.692033 0.00605166 0)
(0.699853 0.00526489 0)
(0.706679 0.0043454 0)
(0.71234 0.00324308 0)
(0.716609 0.00190835 0)
(0.719193 0.000290577 0)
(0.719737 -0.00166495 0)
(0.717811 -0.00402232 0)
(0.712896 -0.00686483 0)
(0.704354 -0.010313 0)
(0.691368 -0.0145587 0)
(0.672839 -0.0199332 0)
(0.647187 -0.0270491 0)
(0.611978 -0.037118 0)
(0.563251 -0.0526864 0)
(0.494625 -0.0792931 0)
(0.39614 -0.128332 0)
(0.255037 -0.216252 0)
(0.0967529 -0.336113 0)
(0.0453769 -0.33743 0)
(0.284078 0.140148 0)
(0.362958 0.123598 0)
(0.505759 0.0780512 0)
(0.61696 0.0486991 0)
(0.687844 0.031181 0)
(0.735289 0.0203247 0)
(0.769269 0.0135429 0)
(0.79439 0.00930397 0)
(0.81339 0.00661755 0)
(0.828133 0.00487591 0)
(0.839871 0.0037197 0)
(0.84944 0.00293532 0)
(0.85742 0.0023928 0)
(0.864218 0.00201086 0)
(0.870127 0.00173693 0)
(0.875357 0.00153548 0)
(0.880057 0.00138111 0)
(0.884328 0.00125458 0)
(0.888229 0.00114036 0)
(0.891786 0.00102526 0)
(0.894993 0.000897548 0)
(0.897816 0.000746478 0)
(0.900192 0.000562034 0)
(0.902031 0.000334719 0)
(0.903222 5.53537e-05 0)
(0.903623 -0.000285255 0)
(0.903069 -0.000696923 0)
(0.901364 -0.00119125 0)
(0.898276 -0.00178376 0)
(0.893522 -0.00249787 0)
(0.886742 -0.00337251 0)
(0.877444 -0.00447752 0)
(0.864896 -0.00594751 0)
(0.847893 -0.008064 0)
(0.824201 -0.0114738 0)
(0.789282 -0.0178141 0)
(0.732878 -0.0314566 0)
(0.627707 -0.0625704 0)
(0.454012 -0.122898 0)
(0.328805 -0.154275 0)
)
;

boundaryField
{
    movingWall
    {
        type            fixedValue;
        value           uniform (1 0 0);
    }
    fixedWalls
    {
        type            noSlip;
    }
    frontAndBack
    {
        type            empty;
    }
}


// ************************************************************************* //
