/*--------------------------------*- C++ -*----------------------------------*\
  =========                 |
  \\      /  F ield         | OpenFOAM: The Open Source CFD Toolbox
   \\    /   O peration     | Website:  https://openfoam.org
    \\  /    A nd           | Version:  6.0
     \\/     M anipulation  |
\*---------------------------------------------------------------------------*/
FoamFile
{
    version     2.0;
    format      ascii;
    class       volVectorField;
    location    "0.3";
    object      U;
}
// * * * * * * * * * * * * * * * * * * * * * * * * * * * * * * * * * * * * * //

dimensions      [0 1 -1 0 0 0 0];

internalField   nonuniform List<vector> 
200
(
(0.000310661 -0.00041915 0)
(-0.00189786 0.00136344 0)
(-0.00843878 0.00255573 0)
(-0.0169008 0.00300264 0)
(-0.0258813 0.00316057 0)
(-0.0350628 0.00330854 0)
(-0.0445648 0.00356434 0)
(-0.0546392 0.00396379 0)
(-0.0655117 0.00448906 0)
(-0.0772316 0.00505717 0)
(-0.0894807 0.00548454 0)
(-0.101333 0.00545257 0)
(-0.111026 0.00451668 0)
(-0.115895 0.00222086 0)
(-0.112744 -0.00162948 0)
(-0.0989056 -0.00655731 0)
(-0.0740024 -0.0110338 0)
(-0.0420572 -0.0124991 0)
(-0.0131576 -0.00855235 0)
(-0.000568101 -0.000641101 0)
(-0.00203786 0.00208298 0)
(-0.0118942 0.010205 0)
(-0.0303088 0.0151941 0)
(-0.0521978 0.0172164 0)
(-0.0749196 0.0179412 0)
(-0.0977966 0.0184449 0)
(-0.12084 0.0192079 0)
(-0.144262 0.0203296 0)
(-0.168159 0.0216158 0)
(-0.192181 0.0225594 0)
(-0.215219 0.0222835 0)
(-0.23513 0.0195452 0)
(-0.248621 0.0129219 0)
(-0.251479 0.00129501 0)
(-0.239325 -0.0153164 0)
(-0.208993 -0.0346689 0)
(-0.160453 -0.0513069 0)
(-0.0992976 -0.0565842 0)
(-0.0403615 -0.0421265 0)
(-0.00694715 -0.0107928 0)
(-0.00480994 0.0112113 0)
(-0.022713 0.030634 0)
(-0.0519801 0.0411588 0)
(-0.0844126 0.0451258 0)
(-0.116509 0.0461304 0)
(-0.147542 0.0464124 0)
(-0.177469 0.0469663 0)
(-0.206429 0.047927 0)
(-0.234417 0.0487529 0)
(-0.260955 0.0482612 0)
(-0.284842 0.044651 0)
(-0.303987 0.0356656 0)
(-0.315408 0.019024 0)
(-0.315435 -0.00678442 0)
(-0.300164 -0.0412921 0)
(-0.266203 -0.0804372 0)
(-0.211856 -0.114723 0)
(-0.139719 -0.128278 0)
(-0.0633902 -0.103063 0)
(-0.0131378 -0.0365977 0)
(-0.00752364 0.0265422 0)
(-0.0327456 0.0609043 0)
(-0.0706983 0.0766918 0)
(-0.109785 0.0811065 0)
(-0.145922 0.080624 0)
(-0.178686 0.0788943 0)
(-0.208256 0.0774736 0)
(-0.23497 0.0765514 0)
(-0.25909 0.0752956 0)
(-0.280569 0.0719888 0)
(-0.298894 0.0641539 0)
(-0.313015 0.0488268 0)
(-0.321295 0.0230801 0)
(-0.321467 -0.015132 0)
(-0.310519 -0.0656936 0)
(-0.284515 -0.124351 0)
(-0.238732 -0.179682 0)
(-0.170116 -0.20957 0)
(-0.0866839 -0.182147 0)
(-0.0208367 -0.0760867 0)
(-0.0104414 0.0475768 0)
(-0.042033 0.0988191 0)
(-0.0853224 0.117659 0)
(-0.125731 0.119439 0)
(-0.159462 0.114601 0)
(-0.187034 0.108376 0)
(-0.209262 0.102879 0)
(-0.226999 0.0983954 0)
(-0.241063 0.0939566 0)
(-0.252129 0.087587 0)
(-0.2607 0.0764932 0)
(-0.267094 0.0573426 0)
(-0.271363 0.0267001 0)
(-0.273041 -0.0183219 0)
(-0.27057 -0.0790121 0)
(-0.260223 -0.153031 0)
(-0.234843 -0.230271 0)
(-0.185097 -0.28563 0)
(-0.109152 -0.271827 0)
(-0.0310682 -0.131089 0)
(-0.0143584 0.0746395 0)
(-0.0516434 0.141974 0)
(-0.095376 0.159084 0)
(-0.129676 0.153769 0)
(-0.153136 0.141273 0)
(-0.168259 0.128235 0)
(-0.176891 0.117083 0)
(-0.180516 0.108094 0)
(-0.180451 0.100216 0)
(-0.177924 0.0914247 0)
(-0.174203 0.0789303 0)
(-0.170696 0.0593841 0)
(-0.168929 0.0291308 0)
(-0.170316 -0.0154962 0)
(-0.17549 -0.0776571 0)
(-0.182715 -0.158545 0)
(-0.185076 -0.253088 0)
(-0.169051 -0.339375 0)
(-0.120434 -0.359302 0)
(-0.0412563 -0.203563 0)
(-0.0206887 0.110294 0)
(-0.0630633 0.186957 0)
(-0.0983754 0.193206 0)
(-0.114817 0.17527 0)
(-0.117706 0.152549 0)
(-0.1126 0.13181 0)
(-0.102315 0.115002 0)
(-0.0886062 0.10198 0)
(-0.0727974 0.0914847 0)
(-0.0560939 0.0815326 0)
(-0.039893 0.0695888 0)
(-0.0260138 0.0526749 0)
(-0.0168087 0.0274425 0)
(-0.0151191 -0.00986662 0)
(-0.0239266 -0.0635992 0)
(-0.0450574 -0.138577 0)
(-0.0757084 -0.237668 0)
(-0.103545 -0.350626 0)
(-0.103243 -0.421761 0)
(-0.0430305 -0.289655 0)
(-0.030072 0.161885 0)
(-0.0732359 0.225361 0)
(-0.078483 0.203698 0)
(-0.0570076 0.168939 0)
(-0.0265858 0.137413 0)
(0.00570156 0.111924 0)
(0.0377699 0.0925649 0)
(0.0688205 0.0783099 0)
(0.0984825 0.0675751 0)
(0.126375 0.058507 0)
(0.151707 0.0490508 0)
(0.172983 0.0369501 0)
(0.187812 0.0197176 0)
(0.192779 -0.00553651 0)
(0.183385 -0.0426716 0)
(0.154342 -0.0978229 0)
(0.101561 -0.181012 0)
(0.0281232 -0.30056 0)
(-0.0366642 -0.423696 0)
(-0.0192079 -0.364607 0)
(-0.0235593 0.229053 0)
(-0.0367356 0.229977 0)
(0.0361574 0.165705 0)
(0.117636 0.120969 0)
(0.186106 0.0903054 0)
(0.242536 0.0682167 0)
(0.289912 0.0525827 0)
(0.330281 0.0417794 0)
(0.365178 0.0342119 0)
(0.39562 0.0284195 0)
(0.421844 0.0230525 0)
(0.443123 0.0167943 0)
(0.457625 0.00829582 0)
(0.462252 -0.00394184 0)
(0.452347 -0.0219545 0)
(0.421058 -0.0495694 0)
(0.358501 -0.0966699 0)
(0.251532 -0.185359 0)
(0.115576 -0.321555 0)
(0.069036 -0.354238 0)
(0.268759 0.136047 0)
(0.335706 0.120788 0)
(0.463087 0.0795917 0)
(0.565475 0.0524761 0)
(0.632666 0.0355067 0)
(0.678393 0.0243004 0)
(0.71179 0.0168868 0)
(0.73727 0.0120842 0)
(0.757369 0.00897793 0)
(0.773649 0.00685842 0)
(0.786792 0.00516986 0)
(0.796639 0.00344934 0)
(0.802228 0.00128217 0)
(0.801757 -0.00173848 0)
(0.792408 -0.00611488 0)
(0.769475 -0.0127652 0)
(0.724494 -0.0243233 0)
(0.637559 -0.0493907 0)
(0.475416 -0.107633 0)
(0.347272 -0.151288 0)
)
;

boundaryField
{
    movingWall
    {
        type            fixedValue;
        value           uniform (1 0 0);
    }
    fixedWalls
    {
        type            noSlip;
    }
    frontAndBack
    {
        type            empty;
    }
}


// ************************************************************************* //
