1.45 	0 	0 	-0.00489208 	-0.00279538 	3.94644e-21
2.35 	0 	0 	0.0711431 	-0.00692501 	2.44324e-21
