1.45 	0 	0 	-0.00801745 	-0.00257487 	3.7937e-21
2.35 	0 	0 	0.0615327 	-0.0066389 	2.30164e-21
