1.45 	0 	0 	-0.000677813 	-0.00324449 	3.97317e-21
2.35 	0 	0 	0.0907171 	-0.00766266 	2.238e-21
