1.275 	2.15223e-18 	-2.76991e-20 	-0.034416 	-0.000438537 	-1.9249e-22
1.825 	2.15223e-18 	-1.39322e-20 	-0.00937903 	-0.00276869 	1.70681e-21
2.375 	2.15223e-18 	-2.66896e-23 	0.115548 	-0.00325941 	-7.12144e-22
