/*--------------------------------*- C++ -*----------------------------------*\
  =========                 |
  \\      /  F ield         | OpenFOAM: The Open Source CFD Toolbox
   \\    /   O peration     | Website:  https://openfoam.org
    \\  /    A nd           | Version:  6.0
     \\/     M anipulation  |
\*---------------------------------------------------------------------------*/
FoamFile
{
    version     2.0;
    format      ascii;
    class       volScalarField;
    location    "77";
    object      p;
}
// * * * * * * * * * * * * * * * * * * * * * * * * * * * * * * * * * * * * * //

dimensions      [0 2 -2 0 0 0 0];

internalField   nonuniform List<scalar> 
34500
(
1.00611
1.00611
1.00592
1.0056
1.00513
1.00457
1.00396
1.00336
1.00279
1.00227
1.00179
1.00141
1.001
1.00086
1.00094
1.00612
1.00614
1.00601
1.00577
1.00537
1.00489
1.00434
1.00377
1.00319
1.00266
1.00213
1.00171
1.00123
1.00115
1.00115
1.00612
1.00613
1.00597
1.0057
1.00527
1.00474
1.00415
1.00354
1.00293
1.00237
1.00183
1.00141
1.00098
1.00098
1.00096
1.00612
1.00612
1.00595
1.00564
1.00519
1.00464
1.00403
1.0034
1.00279
1.00222
1.0017
1.00129
1.00089
1.00095
1.00101
1.00613
1.00613
1.00595
1.00565
1.00521
1.00467
1.00407
1.00346
1.00285
1.00229
1.00177
1.00136
1.00096
1.00102
1.00111
1.00613
1.00614
1.00597
1.00567
1.00523
1.0047
1.00412
1.0035
1.0029
1.00233
1.0018
1.00139
1.00098
1.00104
1.00113
1.00614
1.00615
1.00597
1.00568
1.00524
1.0047
1.00411
1.00349
1.00287
1.0023
1.00177
1.00135
1.00095
1.00101
1.00113
1.00615
1.00615
1.00598
1.00568
1.00523
1.0047
1.0041
1.00347
1.00285
1.00227
1.00173
1.00131
1.00092
1.00099
1.00112
1.00616
1.00617
1.00599
1.00569
1.00524
1.0047
1.00411
1.00348
1.00285
1.00227
1.00173
1.00131
1.00091
1.00097
1.00112
1.00617
1.00618
1.006
1.0057
1.00525
1.00472
1.00412
1.0035
1.00287
1.00228
1.00173
1.00131
1.00091
1.00095
1.00109
1.00618
1.00619
1.00602
1.00572
1.00527
1.00473
1.00413
1.00351
1.00288
1.00229
1.00173
1.0013
1.0009
1.00092
1.00106
1.00619
1.00621
1.00604
1.00573
1.00528
1.00474
1.00414
1.00351
1.00288
1.00229
1.00172
1.00128
1.00088
1.00089
1.00102
1.00621
1.00622
1.00605
1.00575
1.0053
1.00476
1.00415
1.00352
1.00288
1.00228
1.00171
1.00127
1.00086
1.00085
1.00097
1.00623
1.00624
1.00608
1.00578
1.00532
1.00478
1.00417
1.00353
1.00289
1.00228
1.00171
1.00125
1.00084
1.0008
1.00091
1.00624
1.00626
1.0061
1.0058
1.00535
1.00481
1.00419
1.00354
1.00289
1.00228
1.0017
1.00123
1.00082
1.00076
1.00085
1.00626
1.00628
1.00612
1.00582
1.00538
1.00483
1.00421
1.00356
1.0029
1.00228
1.00169
1.00121
1.00079
1.00071
1.00079
1.00628
1.00631
1.00614
1.00585
1.0054
1.00486
1.00424
1.00358
1.00291
1.00228
1.00168
1.00119
1.00076
1.00066
1.00072
1.00631
1.00633
1.00616
1.00587
1.00542
1.00488
1.00426
1.00359
1.00292
1.00227
1.00166
1.00116
1.00073
1.0006
1.00065
1.00633
1.00635
1.00618
1.00589
1.00544
1.00489
1.00427
1.0036
1.00292
1.00226
1.00164
1.00113
1.00069
1.00054
1.00057
1.00636
1.00638
1.0062
1.0059
1.00545
1.0049
1.00427
1.0036
1.00291
1.00225
1.00162
1.0011
1.00065
1.00048
1.00049
1.00638
1.0064
1.00623
1.00592
1.00546
1.00491
1.00428
1.0036
1.0029
1.00223
1.00159
1.00106
1.00061
1.00042
1.00042
1.00641
1.00643
1.00625
1.00594
1.00547
1.00491
1.00428
1.00359
1.00289
1.00221
1.00157
1.00103
1.00057
1.00036
1.00034
1.00644
1.00646
1.00628
1.00596
1.00549
1.00493
1.00428
1.00359
1.00288
1.0022
1.00154
1.001
1.00053
1.0003
1.00026
1.00647
1.00649
1.00631
1.00599
1.00551
1.00494
1.00429
1.0036
1.00288
1.00219
1.00152
1.00097
1.00049
1.00024
1.00018
1.0065
1.00653
1.00635
1.00603
1.00554
1.00497
1.00431
1.00361
1.00288
1.00218
1.00151
1.00094
1.00045
1.00018
1.0001
1.00653
1.00656
1.00639
1.00607
1.00558
1.005
1.00433
1.00362
1.00289
1.00218
1.00149
1.00091
1.00041
1.00011
1.00002
1.00656
1.0066
1.00643
1.00611
1.00562
1.00504
1.00436
1.00364
1.0029
1.00217
1.00148
1.00088
1.00037
1.00005
0.999933
1.0066
1.00664
1.00646
1.00615
1.00567
1.00508
1.0044
1.00367
1.00291
1.00217
1.00147
1.00085
1.00033
0.999984
0.999845
1.00663
1.00668
1.0065
1.00619
1.00571
1.00512
1.00443
1.00369
1.00292
1.00217
1.00145
1.00082
1.00028
0.999914
0.999755
1.00667
1.00672
1.00654
1.00623
1.00575
1.00515
1.00446
1.00371
1.00293
1.00216
1.00142
1.00078
1.00022
0.99984
0.999663
1.00671
1.00675
1.00658
1.00627
1.00578
1.00518
1.00448
1.00372
1.00293
1.00215
1.0014
1.00073
1.00016
0.999764
0.999571
1.00675
1.00679
1.00661
1.0063
1.00581
1.0052
1.0045
1.00373
1.00292
1.00213
1.00136
1.00069
1.0001
0.999687
0.999478
1.0068
1.00684
1.00665
1.00633
1.00583
1.00522
1.00451
1.00373
1.00291
1.00211
1.00133
1.00064
1.00004
0.999609
0.999385
1.00684
1.00688
1.00669
1.00636
1.00585
1.00524
1.00452
1.00373
1.0029
1.00208
1.00129
1.00059
0.999982
0.999531
0.999291
1.00689
1.00693
1.00672
1.00639
1.00588
1.00525
1.00453
1.00373
1.00289
1.00206
1.00126
1.00054
0.999921
0.999454
0.999198
1.00694
1.00697
1.00677
1.00642
1.0059
1.00527
1.00453
1.00373
1.00288
1.00204
1.00122
1.00049
0.999861
0.999377
0.999105
1.00699
1.00702
1.00681
1.00646
1.00593
1.00529
1.00455
1.00373
1.00287
1.00202
1.00119
1.00045
0.999802
0.999301
0.999012
1.00704
1.00708
1.00686
1.0065
1.00596
1.00531
1.00456
1.00373
1.00286
1.002
1.00116
1.0004
0.999742
0.999224
0.998918
1.0071
1.00714
1.00692
1.00655
1.006
1.00534
1.00458
1.00374
1.00286
1.00198
1.00113
1.00036
0.999684
0.999148
0.998824
1.00715
1.00719
1.00697
1.00661
1.00605
1.00538
1.0046
1.00376
1.00286
1.00197
1.00111
1.00032
0.999626
0.999071
0.998729
1.00721
1.00726
1.00704
1.00667
1.0061
1.00542
1.00464
1.00378
1.00287
1.00197
1.00108
1.00028
0.999569
0.998995
0.998633
1.00727
1.00732
1.0071
1.00673
1.00616
1.00548
1.00468
1.0038
1.00288
1.00196
1.00106
1.00024
0.999511
0.998916
0.998535
1.00733
1.00738
1.00717
1.0068
1.00623
1.00554
1.00473
1.00384
1.0029
1.00196
1.00105
1.0002
0.999452
0.998836
0.998434
1.00739
1.00745
1.00724
1.00687
1.0063
1.0056
1.00478
1.00388
1.00292
1.00197
1.00103
1.00016
0.999388
0.998751
0.99833
1.00745
1.00751
1.00731
1.00694
1.00637
1.00566
1.00483
1.00392
1.00294
1.00196
1.001
1.00011
0.999321
0.998663
0.998224
1.00751
1.00758
1.00737
1.00701
1.00643
1.00572
1.00488
1.00395
1.00296
1.00196
1.00097
1.00006
0.999247
0.99857
0.998114
1.00758
1.00764
1.00743
1.00707
1.00649
1.00577
1.00492
1.00397
1.00296
1.00194
1.00094
0.999998
0.999169
0.998475
0.998004
1.00765
1.00771
1.0075
1.00713
1.00654
1.00581
1.00495
1.00399
1.00296
1.00191
1.00089
0.999934
0.999088
0.998377
0.997891
1.00771
1.00777
1.00756
1.00718
1.00659
1.00585
1.00497
1.00399
1.00295
1.00188
1.00084
0.999868
0.999005
0.99828
0.99778
1.00778
1.00784
1.00761
1.00723
1.00663
1.00588
1.00499
1.00399
1.00293
1.00185
1.00079
0.999801
0.998923
0.998182
0.997667
1.00785
1.00791
1.00768
1.00728
1.00667
1.00591
1.005
1.00399
1.00292
1.00182
1.00074
0.999736
0.998842
0.998085
0.997554
1.00793
1.00798
1.00774
1.00734
1.00671
1.00594
1.00502
1.004
1.0029
1.00179
1.0007
0.999673
0.998762
0.997987
0.99744
1.008
1.00805
1.00781
1.0074
1.00677
1.00598
1.00505
1.00401
1.0029
1.00177
1.00066
0.999613
0.998682
0.997889
0.997325
1.00808
1.00813
1.00788
1.00746
1.00682
1.00603
1.00508
1.00403
1.0029
1.00175
1.00062
0.999552
0.998602
0.997789
0.997208
1.00816
1.0082
1.00795
1.00753
1.00688
1.00608
1.00512
1.00405
1.0029
1.00173
1.00058
0.999491
0.99852
0.997688
0.997089
1.00824
1.00829
1.00803
1.00761
1.00695
1.00613
1.00516
1.00407
1.0029
1.00171
1.00054
0.999427
0.998435
0.997583
0.996969
1.00833
1.00837
1.00811
1.00768
1.00701
1.00619
1.0052
1.00409
1.0029
1.00169
1.00049
0.999361
0.998349
0.997479
0.996849
1.00842
1.00846
1.00819
1.00776
1.00708
1.00623
1.00523
1.00411
1.0029
1.00166
1.00045
0.999293
0.998261
0.997373
0.996728
1.00851
1.00855
1.00828
1.00783
1.00714
1.00628
1.00526
1.00412
1.00289
1.00164
1.0004
0.999226
0.998176
0.99727
0.996608
1.00861
1.00865
1.00837
1.00791
1.0072
1.00633
1.00529
1.00413
1.00289
1.00161
1.00036
0.999162
0.998092
0.997167
0.996488
1.00871
1.00875
1.00847
1.008
1.00727
1.00638
1.00533
1.00415
1.00289
1.00159
1.00032
0.999103
0.998013
0.997067
0.996368
1.00881
1.00885
1.00857
1.00809
1.00735
1.00645
1.00537
1.00418
1.00289
1.00158
1.00028
0.999049
0.997937
0.996968
0.996247
1.00891
1.00896
1.00868
1.00819
1.00744
1.00652
1.00543
1.00422
1.00292
1.00158
1.00026
0.999001
0.997863
0.99687
0.996125
1.00901
1.00907
1.00879
1.0083
1.00754
1.00661
1.00551
1.00427
1.00295
1.00159
1.00024
0.998956
0.99779
0.99677
0.995999
1.00912
1.00919
1.00891
1.00842
1.00766
1.00671
1.00559
1.00434
1.00299
1.0016
1.00023
0.998911
0.997715
0.996666
0.995869
1.00923
1.0093
1.00903
1.00854
1.00778
1.00682
1.00569
1.00441
1.00304
1.00162
1.00021
0.998864
0.997635
0.996557
0.995733
1.00934
1.00942
1.00915
1.00867
1.0079
1.00694
1.00579
1.00449
1.00309
1.00164
1.0002
0.99881
0.997548
0.996441
0.995593
1.00944
1.00953
1.00927
1.00879
1.00803
1.00705
1.00589
1.00456
1.00313
1.00165
1.00017
0.998747
0.997452
0.996318
0.995446
1.00955
1.00964
1.00938
1.00891
1.00814
1.00716
1.00598
1.00462
1.00316
1.00164
1.00013
0.998673
0.997348
0.996189
0.995296
1.00966
1.00975
1.0095
1.00902
1.00825
1.00726
1.00605
1.00467
1.00318
1.00162
1.00008
0.998589
0.997236
0.996054
0.995141
1.00978
1.00986
1.0096
1.00913
1.00834
1.00734
1.00611
1.0047
1.00318
1.00159
1.00001
0.998496
0.997117
0.995915
0.994985
1.00989
1.00997
1.00971
1.00922
1.00843
1.0074
1.00615
1.00472
1.00316
1.00155
0.999939
0.998396
0.996994
0.995773
0.994827
1.01001
1.01009
1.00981
1.00931
1.0085
1.00745
1.00618
1.00472
1.00314
1.0015
0.99986
0.998293
0.996871
0.995631
0.994669
1.01013
1.0102
1.00991
1.00939
1.00856
1.0075
1.0062
1.00472
1.00311
1.00144
0.999779
0.998189
0.996747
0.99549
0.994511
1.01025
1.01031
1.01001
1.00948
1.00863
1.00754
1.00622
1.00471
1.00308
1.00138
0.9997
0.998089
0.996627
0.995351
0.994355
1.01038
1.01043
1.01012
1.00956
1.00869
1.00758
1.00624
1.00471
1.00305
1.00133
0.999626
0.997994
0.996511
0.995214
0.994199
1.01051
1.01056
1.01023
1.00966
1.00877
1.00763
1.00627
1.00471
1.00303
1.00129
0.999561
0.997905
0.9964
0.99508
0.994043
1.01064
1.01069
1.01035
1.00976
1.00885
1.00769
1.00631
1.00473
1.00302
1.00126
0.999504
0.997823
0.996292
0.994947
0.993886
1.01078
1.01083
1.01048
1.00988
1.00895
1.00777
1.00636
1.00476
1.00303
1.00124
0.999457
0.997747
0.996188
0.994816
0.993729
1.01093
1.01097
1.01062
1.01001
1.00906
1.00786
1.00643
1.0048
1.00305
1.00123
0.999416
0.997676
0.996086
0.994683
0.993569
1.01107
1.01112
1.01077
1.01014
1.00918
1.00797
1.00652
1.00486
1.00308
1.00123
0.999382
0.997607
0.995984
0.994549
0.993407
1.01122
1.01128
1.01092
1.01029
1.00932
1.00809
1.00661
1.00493
1.00312
1.00123
0.99935
0.997539
0.99588
0.994413
0.993241
1.01137
1.01143
1.01108
1.01045
1.00947
1.00822
1.00672
1.00501
1.00316
1.00124
0.99932
0.99747
0.995773
0.994273
0.993072
1.01152
1.0116
1.01124
1.01061
1.00962
1.00835
1.00683
1.00509
1.00321
1.00125
0.999287
0.997397
0.995663
0.994129
0.992898
1.01168
1.01176
1.01141
1.01077
1.00977
1.00849
1.00695
1.00517
1.00325
1.00125
0.999251
0.99732
0.995548
0.99398
0.99272
1.01184
1.01192
1.01157
1.01094
1.00993
1.00863
1.00706
1.00525
1.0033
1.00125
0.99921
0.997238
0.995427
0.993827
0.992537
1.012
1.01209
1.01174
1.0111
1.01009
1.00877
1.00717
1.00533
1.00333
1.00125
0.999163
0.997151
0.995303
0.99367
0.992352
1.01217
1.01226
1.01191
1.01127
1.01024
1.0089
1.00727
1.0054
1.00337
1.00124
0.999111
0.997058
0.995173
0.993508
0.992162
1.01233
1.01243
1.01208
1.01143
1.01039
1.00903
1.00738
1.00547
1.00339
1.00122
0.999053
0.996961
0.995039
0.993343
0.991969
1.0125
1.0126
1.01225
1.01159
1.01054
1.00916
1.00747
1.00553
1.00341
1.0012
0.998991
0.996859
0.994902
0.993174
0.991773
1.01267
1.01277
1.01242
1.01175
1.01068
1.00928
1.00757
1.00559
1.00343
1.00118
0.998926
0.996755
0.994762
0.993003
0.991574
1.01285
1.01295
1.01259
1.01191
1.01083
1.0094
1.00766
1.00564
1.00344
1.00115
0.998858
0.996648
0.994619
0.992829
0.991372
1.01303
1.01313
1.01276
1.01208
1.01097
1.00952
1.00775
1.00569
1.00346
1.00112
0.998788
0.996539
0.994475
0.992654
0.991169
1.01321
1.01331
1.01294
1.01224
1.01112
1.00964
1.00784
1.00575
1.00347
1.00109
0.998718
0.99643
0.994329
0.992476
0.990962
1.0134
1.0135
1.01312
1.01241
1.01127
1.00977
1.00793
1.0058
1.00349
1.00107
0.998648
0.99632
0.994183
0.992296
0.990753
1.01359
1.01369
1.01331
1.01258
1.01142
1.00989
1.00802
1.00586
1.0035
1.00104
0.998578
0.996209
0.994034
0.992114
0.99054
1.01378
1.01389
1.0135
1.01276
1.01158
1.01003
1.00812
1.00592
1.00352
1.00101
0.998509
0.996098
0.993885
0.99193
0.990326
1.01398
1.01409
1.01369
1.01294
1.01174
1.01016
1.00822
1.00598
1.00354
1.00099
0.998441
0.995987
0.993733
0.991743
0.990107
1.01418
1.01429
1.01389
1.01313
1.01191
1.0103
1.00833
1.00605
1.00357
1.00097
0.998373
0.995875
0.993581
0.991554
0.989886
1.01439
1.0145
1.0141
1.01333
1.01209
1.01045
1.00845
1.00613
1.00359
1.00095
0.998305
0.995761
0.993425
0.991362
0.989662
1.0146
1.01471
1.01431
1.01353
1.01227
1.01061
1.00856
1.0062
1.00362
1.00093
0.998237
0.995647
0.993268
0.991168
0.989434
1.01481
1.01493
1.01452
1.01373
1.01245
1.01076
1.00868
1.00628
1.00365
1.00091
0.998167
0.99553
0.993108
0.990969
0.989202
1.01503
1.01516
1.01474
1.01394
1.01264
1.01092
1.00881
1.00636
1.00369
1.00089
0.998098
0.995412
0.992946
0.990768
0.988967
1.01525
1.01538
1.01497
1.01415
1.01284
1.01109
1.00894
1.00644
1.00372
1.00087
0.998027
0.995291
0.99278
0.990563
0.988728
1.01548
1.01561
1.0152
1.01437
1.01304
1.01126
1.00907
1.00653
1.00375
1.00085
0.997954
0.995169
0.992611
0.990355
0.988485
1.01571
1.01585
1.01543
1.0146
1.01324
1.01143
1.00921
1.00662
1.00379
1.00083
0.99788
0.995043
0.992439
0.990143
0.988238
1.01595
1.01609
1.01567
1.01483
1.01345
1.01161
1.00934
1.00671
1.00382
1.00081
0.997804
0.994915
0.992264
0.989927
0.987987
1.01619
1.01634
1.01591
1.01506
1.01366
1.01179
1.00948
1.0068
1.00386
1.00079
0.997725
0.994783
0.992085
0.989707
0.987731
1.01643
1.01659
1.01616
1.01529
1.01387
1.01198
1.00962
1.00689
1.00389
1.00077
0.997645
0.99465
0.991903
0.989483
0.987472
1.01668
1.01684
1.01641
1.01553
1.01409
1.01216
1.00977
1.00698
1.00393
1.00074
0.997562
0.994512
0.991716
0.989255
0.987207
1.01693
1.0171
1.01666
1.01578
1.01432
1.01235
1.00991
1.00707
1.00396
1.00072
0.997478
0.994372
0.991527
0.989023
0.98694
1.01719
1.01736
1.01693
1.01603
1.01454
1.01255
1.01006
1.00717
1.004
1.00069
0.997391
0.994229
0.991334
0.988787
0.986667
1.01746
1.01763
1.01719
1.01629
1.01478
1.01274
1.01021
1.00726
1.00404
1.00066
0.997302
0.994083
0.991137
0.988547
0.98639
1.01772
1.01791
1.01746
1.01655
1.01501
1.01294
1.01037
1.00736
1.00407
1.00063
0.99721
0.993934
0.990936
0.988303
0.986108
1.018
1.01819
1.01774
1.01681
1.01525
1.01315
1.01052
1.00746
1.00411
1.0006
0.997117
0.993781
0.990731
0.988054
0.985822
1.01828
1.01848
1.01802
1.01708
1.0155
1.01336
1.01068
1.00756
1.00414
1.00057
0.997021
0.993625
0.990522
0.987801
0.98553
1.01856
1.01877
1.01831
1.01736
1.01575
1.01357
1.01085
1.00767
1.00418
1.00054
0.996923
0.993466
0.99031
0.987543
0.985235
1.01885
1.01906
1.01861
1.01764
1.01601
1.01379
1.01101
1.00777
1.00422
1.00051
0.996822
0.993304
0.990093
0.98728
0.984934
1.01915
1.01937
1.01891
1.01793
1.01627
1.01401
1.01118
1.00788
1.00425
1.00047
0.996719
0.993138
0.989872
0.987013
0.984628
1.01945
1.01968
1.01921
1.01822
1.01654
1.01424
1.01135
1.00798
1.00429
1.00044
0.996613
0.992968
0.989646
0.986741
0.984317
1.01975
1.01999
1.01953
1.01852
1.01681
1.01447
1.01153
1.00809
1.00433
1.0004
0.996505
0.992795
0.989416
0.986464
0.984001
1.02007
1.02031
1.01985
1.01883
1.01709
1.0147
1.01171
1.0082
1.00436
1.00036
0.996393
0.992617
0.989181
0.986182
0.983679
1.02038
1.02064
1.02017
1.01914
1.01737
1.01495
1.01189
1.00832
1.0044
1.00032
0.996279
0.992436
0.988942
0.985895
0.983353
1.02071
1.02098
1.0205
1.01946
1.01766
1.01519
1.01208
1.00843
1.00444
1.00028
0.996161
0.99225
0.988697
0.985602
0.98302
1.02104
1.02132
1.02084
1.01979
1.01796
1.01544
1.01227
1.00855
1.00448
1.00024
0.996041
0.99206
0.988447
0.985304
0.982682
1.02138
1.02167
1.02119
1.02012
1.01826
1.0157
1.01246
1.00867
1.00451
1.00019
0.995916
0.991865
0.988192
0.985
0.982337
1.02172
1.02202
1.02154
1.02046
1.01857
1.01596
1.01266
1.00879
1.00455
1.00014
0.995789
0.991666
0.987932
0.98469
0.981988
1.02207
1.02239
1.0219
1.02081
1.01889
1.01623
1.01286
1.00891
1.00458
1.00009
0.995657
0.991462
0.987666
0.984374
0.981631
1.02243
1.02276
1.02227
1.02116
1.01921
1.0165
1.01306
1.00903
1.00462
1.00004
0.995522
0.991253
0.987395
0.984053
0.981269
1.02279
1.02313
1.02265
1.02152
1.01954
1.01678
1.01327
1.00916
1.00466
0.999987
0.995382
0.991039
0.987117
0.983724
0.980901
1.02316
1.02352
1.02303
1.02189
1.01987
1.01706
1.01348
1.00929
1.00469
0.99993
0.995239
0.99082
0.986834
0.98339
0.980526
1.02354
1.02391
1.02342
1.02227
1.02022
1.01735
1.0137
1.00941
1.00472
0.999869
0.995091
0.990594
0.986544
0.983049
0.980144
1.02393
1.02431
1.02382
1.02266
1.02057
1.01764
1.01392
1.00954
1.00476
0.999806
0.994938
0.990363
0.986248
0.982701
0.979756
1.02432
1.02472
1.02423
1.02305
1.02092
1.01794
1.01414
1.00967
1.00479
0.999739
0.99478
0.990126
0.985945
0.982346
0.979361
1.02472
1.02514
1.02465
1.02345
1.02129
1.01825
1.01437
1.00981
1.00482
0.99967
0.994618
0.989884
0.985636
0.981985
0.978959
1.02513
1.02556
1.02507
1.02386
1.02166
1.01856
1.0146
1.00994
1.00485
0.999596
0.99445
0.989634
0.985319
0.981616
0.97855
1.02555
1.026
1.02551
1.02428
1.02204
1.01888
1.01483
1.01007
1.00488
0.99952
0.994277
0.989378
0.984995
0.98124
0.978134
1.02598
1.02644
1.02595
1.02471
1.02243
1.0192
1.01507
1.01021
1.0049
0.999438
0.994098
0.989115
0.984663
0.980855
0.97771
1.02641
1.0269
1.02641
1.02515
1.02283
1.01953
1.01531
1.01035
1.00493
0.999353
0.993913
0.988845
0.984325
0.980464
0.977279
1.02685
1.02736
1.02687
1.0256
1.02323
1.01987
1.01556
1.01048
1.00495
0.999263
0.993722
0.988568
0.983978
0.980064
0.97684
1.02731
1.02783
1.02734
1.02605
1.02365
1.02021
1.0158
1.01062
1.00497
0.999169
0.993525
0.988283
0.983623
0.979656
0.976393
1.02777
1.02831
1.02783
1.02652
1.02407
1.02056
1.01606
1.01076
1.00499
0.999069
0.99332
0.98799
0.983259
0.97924
0.975938
1.02824
1.02881
1.02832
1.027
1.0245
1.02092
1.01631
1.0109
1.005
0.998965
0.993109
0.98769
0.982888
0.978815
0.975475
1.02872
1.02931
1.02882
1.02748
1.02494
1.02128
1.01657
1.01104
1.00501
0.998855
0.99289
0.98738
0.982507
0.978381
0.975003
1.02921
1.02982
1.02934
1.02798
1.02539
1.02166
1.01684
1.01118
1.00502
0.998739
0.992664
0.987062
0.982117
0.977938
0.974524
1.02971
1.03035
1.02987
1.02849
1.02585
1.02203
1.01711
1.01132
1.00503
0.998616
0.992429
0.986735
0.981717
0.977486
0.974034
1.03022
1.03088
1.03041
1.02901
1.02632
1.02242
1.01738
1.01145
1.00503
0.998488
0.992186
0.986399
0.981309
0.977024
0.973537
1.03074
1.03143
1.03096
1.02954
1.0268
1.02281
1.01765
1.01159
1.00503
0.998352
0.991934
0.986052
0.980889
0.976552
0.973029
1.03128
1.03199
1.03152
1.03009
1.02729
1.02321
1.01793
1.01173
1.00502
0.998209
0.991674
0.985696
0.980461
0.976071
0.972513
1.03182
1.03256
1.03209
1.03064
1.02779
1.02362
1.01821
1.01187
1.00501
0.998058
0.991403
0.985329
0.98002
0.975579
0.971987
1.03237
1.03315
1.03268
1.03121
1.0283
1.02403
1.0185
1.012
1.00499
0.9979
0.991123
0.984952
0.97957
0.975077
0.971452
1.03294
1.03374
1.03328
1.03179
1.02882
1.02445
1.01878
1.01214
1.00497
0.997732
0.990832
0.984563
0.979108
0.974564
0.970905
1.03352
1.03435
1.0339
1.03239
1.02935
1.02488
1.01907
1.01227
1.00494
0.997556
0.990531
0.984164
0.978635
0.97404
0.970349
1.03411
1.03497
1.03453
1.03299
1.02989
1.02532
1.01937
1.0124
1.0049
0.99737
0.990218
0.983751
0.97815
0.973504
0.969782
1.03472
1.03561
1.03517
1.03361
1.03045
1.02576
1.01966
1.01253
1.00486
0.997175
0.989894
0.983328
0.977653
0.972958
0.969205
1.03533
1.03626
1.03583
1.03425
1.03102
1.02621
1.01996
1.01265
1.00481
0.996968
0.989558
0.98289
0.977143
0.972399
0.968616
1.03596
1.03693
1.0365
1.0349
1.0316
1.02667
1.02026
1.01277
1.00475
0.996751
0.989209
0.982441
0.976621
0.971828
0.968016
1.03661
1.03761
1.03719
1.03556
1.03219
1.02714
1.02056
1.01289
1.00469
0.996522
0.988846
0.981976
0.976085
0.971244
0.967404
1.03727
1.03831
1.0379
1.03625
1.03279
1.02762
1.02087
1.013
1.00461
0.996281
0.98847
0.981499
0.975536
0.970649
0.966781
1.03794
1.03902
1.03862
1.03694
1.03341
1.0281
1.02117
1.01311
1.00453
0.996026
0.988079
0.981006
0.974973
0.970039
0.966145
1.03863
1.03975
1.03936
1.03765
1.03404
1.02859
1.02148
1.01321
1.00443
0.995758
0.987674
0.9805
0.974396
0.969417
0.965498
1.03933
1.04049
1.04011
1.03838
1.03468
1.02909
1.02179
1.01331
1.00432
0.995476
0.987252
0.979976
0.973804
0.968781
0.964837
1.04005
1.04126
1.04089
1.03913
1.03534
1.02959
1.02209
1.01339
1.00421
0.995179
0.986816
0.979438
0.973197
0.968132
0.964164
1.04079
1.04204
1.04168
1.03989
1.03601
1.03011
1.0224
1.01348
1.00407
0.994866
0.986361
0.978882
0.972574
0.967467
0.963477
1.04154
1.04284
1.04249
1.04067
1.03669
1.03063
1.02271
1.01355
1.00393
0.994537
0.98589
0.978311
0.971937
0.966789
0.962778
1.04231
1.04366
1.04332
1.04147
1.03739
1.03115
1.02301
1.01362
1.00377
0.99419
0.9854
0.97772
0.971282
0.966095
0.962064
1.04309
1.0445
1.04418
1.04229
1.0381
1.03169
1.02331
1.01367
1.0036
0.993825
0.984892
0.977113
0.970612
0.965388
0.961337
1.0439
1.04535
1.04505
1.04313
1.03883
1.03223
1.02361
1.01371
1.0034
0.993441
0.984363
0.976486
0.969923
0.964663
0.960596
1.04472
1.04623
1.04595
1.04399
1.03957
1.03277
1.02391
1.01375
1.0032
0.993037
0.983815
0.975841
0.969218
0.963924
0.959842
1.04557
1.04713
1.04686
1.04487
1.04033
1.03333
1.0242
1.01377
1.00297
0.992612
0.983245
0.975175
0.968494
0.963168
0.959072
1.04643
1.04806
1.0478
1.04577
1.0411
1.03388
1.02449
1.01377
1.00272
0.992165
0.982654
0.97449
0.967753
0.962397
0.958289
1.04731
1.049
1.04877
1.04669
1.04189
1.03445
1.02477
1.01376
1.00246
0.991695
0.98204
0.973783
0.966992
0.961608
0.957491
1.04822
1.04997
1.04976
1.04764
1.0427
1.03502
1.02504
1.01374
1.00217
0.991201
0.981402
0.973055
0.966213
0.960803
0.956679
1.04915
1.05097
1.05077
1.04861
1.04351
1.03559
1.02531
1.01369
1.00185
0.990681
0.98074
0.972303
0.965413
0.95998
0.955851
1.0501
1.05198
1.05181
1.0496
1.04435
1.03616
1.02557
1.01363
1.00152
0.990136
0.980053
0.97153
0.964594
0.95914
0.955009
1.05107
1.05303
1.05288
1.05062
1.0452
1.03674
1.02581
1.01354
1.00115
0.989563
0.979339
0.970733
0.963753
0.958282
0.954151
1.05207
1.0541
1.05398
1.05166
1.04607
1.03732
1.02604
1.01344
1.00076
0.988961
0.978599
0.969912
0.962892
0.957407
0.953279
1.05309
1.0552
1.0551
1.05273
1.04695
1.0379
1.02626
1.01331
1.00034
0.988329
0.977831
0.969065
0.962008
0.956512
0.95239
1.05414
1.05633
1.05626
1.05382
1.04785
1.03848
1.02647
1.01315
0.999889
0.987667
0.977034
0.968194
0.961104
0.9556
0.951487
1.05521
1.05749
1.05745
1.05494
1.04876
1.03906
1.02666
1.01297
0.999405
0.986971
0.976206
0.967296
0.960176
0.954668
0.950567
1.05631
1.05868
1.05867
1.05609
1.04969
1.03964
1.02682
1.01275
0.998887
0.986242
0.975348
0.966372
0.959227
0.953718
0.949633
1.05744
1.0599
1.05992
1.05727
1.05063
1.04021
1.02697
1.01251
0.998332
0.985477
0.974458
0.965419
0.958253
0.952747
0.948681
1.0586
1.06115
1.06121
1.05847
1.05159
1.04078
1.02709
1.01222
0.997739
0.984675
0.973536
0.964439
0.957257
0.951759
0.947715
1.05979
1.06244
1.06253
1.05971
1.05256
1.04134
1.02719
1.01191
0.997105
0.983835
0.972579
0.96343
0.956236
0.950749
0.946731
1.06101
1.06377
1.06389
1.06098
1.05354
1.04189
1.02726
1.01155
0.99643
0.982956
0.971587
0.962391
0.955191
0.949721
0.945733
1.06226
1.06513
1.06529
1.06227
1.05454
1.04243
1.0273
1.01115
0.99571
0.982034
0.970559
0.961322
0.95412
0.948671
0.944717
1.06355
1.06653
1.06673
1.0636
1.05555
1.04295
1.0273
1.0107
0.994944
0.981071
0.969495
0.960223
0.953026
0.947603
0.943687
1.06487
1.06797
1.06821
1.06496
1.05656
1.04346
1.02726
1.01021
0.994129
0.980063
0.968393
0.959092
0.951905
0.946513
0.942639
1.06623
1.06946
1.06974
1.06636
1.05759
1.04395
1.02719
1.00966
0.993263
0.979009
0.967252
0.957929
0.950759
0.945404
0.941575
1.06763
1.07098
1.07131
1.06779
1.05862
1.04441
1.02706
1.00907
0.992342
0.977907
0.96607
0.956734
0.949586
0.944273
0.940494
1.06907
1.07255
1.07293
1.06925
1.05966
1.04485
1.02689
1.00841
0.991366
0.976756
0.964849
0.955506
0.948389
0.943122
0.939398
1.07054
1.07417
1.07459
1.07074
1.0607
1.04525
1.02667
1.00769
0.990331
0.975555
0.963585
0.954244
0.947163
0.941949
0.938284
1.07206
1.07584
1.07631
1.07227
1.06174
1.04563
1.02638
1.00691
0.989236
0.974301
0.962279
0.952949
0.945912
0.940757
0.937154
1.07362
1.07756
1.07808
1.07384
1.06278
1.04596
1.02603
1.00605
0.988077
0.972994
0.960929
0.951619
0.944633
0.939543
0.936006
1.07523
1.07934
1.07991
1.07543
1.06381
1.04624
1.02562
1.00513
0.986852
0.971631
0.959536
0.950256
0.943329
0.938309
0.934843
1.07689
1.08117
1.08179
1.07706
1.06484
1.04648
1.02513
1.00413
0.985558
0.970212
0.958097
0.948856
0.941996
0.937052
0.933661
1.07859
1.08306
1.08373
1.07872
1.06584
1.04666
1.02456
1.00305
0.984193
0.968735
0.956613
0.947422
0.940637
0.935777
0.932465
1.08035
1.08501
1.08573
1.08042
1.06683
1.04677
1.02391
1.00188
0.982755
0.967198
0.955082
0.945952
0.93925
0.934478
0.93125
1.08216
1.08703
1.08779
1.08214
1.0678
1.04681
1.02317
1.00062
0.98124
0.965602
0.953506
0.944448
0.937837
0.933161
0.930021
1.08403
1.08912
1.08992
1.08389
1.06873
1.04678
1.02232
0.99927
0.979647
0.963943
0.951882
0.942907
0.936396
0.931821
0.928774
1.08596
1.09128
1.09212
1.08567
1.06963
1.04665
1.02137
0.997822
0.977974
0.962222
0.950211
0.941331
0.934929
0.930462
0.927513
1.08794
1.09351
1.09439
1.08747
1.07048
1.04643
1.02031
0.996271
0.976218
0.960437
0.948492
0.939719
0.933434
0.92908
0.926234
1.08999
1.09583
1.09673
1.08928
1.07128
1.04611
1.01913
0.994615
0.974378
0.958589
0.946726
0.938072
0.931914
0.927681
0.924941
1.09211
1.09823
1.09914
1.09111
1.07201
1.04567
1.01783
0.992847
0.97245
0.956675
0.944911
0.936389
0.930365
0.926259
0.923631
1.0943
1.10072
1.10163
1.09295
1.07267
1.0451
1.01639
0.990966
0.970435
0.954696
0.94305
0.934672
0.928792
0.924819
0.922308
1.09656
1.1033
1.10419
1.0948
1.07324
1.04439
1.01481
0.988966
0.96833
0.952651
0.94114
0.932919
0.927192
0.923358
0.920968
1.0989
1.10598
1.10683
1.09663
1.07371
1.04354
1.01307
0.986846
0.966135
0.950541
0.939184
0.931134
0.925568
0.921879
0.919615
1.10132
1.10877
1.10955
1.09845
1.07407
1.04251
1.01118
0.9846
0.963847
0.948365
0.93718
0.929313
0.923917
0.92038
0.918246
1.10383
1.11167
1.11235
1.10025
1.0743
1.04132
1.00913
0.982226
0.961468
0.946125
0.935131
0.92746
0.922244
0.918864
0.916864
1.10643
1.11468
1.11523
1.10201
1.07437
1.03993
1.00691
0.979722
0.958995
0.943819
0.933036
0.925574
0.920544
0.917328
0.915468
1.10912
1.11782
1.11818
1.10372
1.07429
1.03833
1.0045
0.977087
0.956431
0.94145
0.930898
0.923657
0.918823
0.915775
0.914059
1.11192
1.1211
1.1212
1.10536
1.07401
1.03652
1.00191
0.974316
0.953774
0.939017
0.928715
0.921709
0.917077
0.914204
0.912636
1.11482
1.12451
1.12429
1.10692
1.07353
1.03447
0.999129
0.971412
0.951027
0.936523
0.926491
0.919731
0.915311
0.912617
0.911202
1.11784
1.12807
1.12744
1.10837
1.07282
1.03217
0.99615
0.968372
0.948188
0.933968
0.924225
0.917723
0.913521
0.911012
0.909755
1.12098
1.13178
1.13064
1.10969
1.07185
1.02961
0.992972
0.965199
0.945263
0.931356
0.921921
0.915689
0.911713
0.909393
0.908297
1.12425
1.13565
1.13389
1.11085
1.0706
1.02677
0.989587
0.961891
0.94225
0.928687
0.919578
0.913627
0.909883
0.907758
0.906826
1.12766
1.1397
1.13717
1.11183
1.06904
1.02364
0.985997
0.958453
0.939155
0.925964
0.9172
0.911541
0.908035
0.906109
0.905346
1.13122
1.14392
1.14046
1.11258
1.06715
1.0202
0.982198
0.954885
0.935978
0.92319
0.914788
0.90943
0.906168
0.904445
0.903855
1.13495
1.14832
1.14374
1.11309
1.06488
1.01645
0.978193
0.951193
0.932726
0.920368
0.912344
0.907298
0.904285
0.902769
0.902355
1.13885
1.15291
1.14699
1.11329
1.06222
1.01237
0.973982
0.94738
0.929399
0.917499
0.909871
0.905143
0.902385
0.901079
0.900845
1.14294
1.1577
1.15018
1.11316
1.05913
1.00796
0.969571
0.943454
0.926005
0.91459
0.907371
0.90297
0.900471
0.899378
0.899327
1.14724
1.16268
1.15328
1.11264
1.05559
1.00321
0.964963
0.939418
0.922547
0.911642
0.904846
0.900779
0.898543
0.897666
0.897801
1.15176
1.16786
1.15625
1.11169
1.05156
0.998117
0.960168
0.935283
0.919031
0.90866
0.902301
0.898572
0.896602
0.895944
0.896267
1.15652
1.17323
1.15903
1.11024
1.04701
0.992683
0.955195
0.931054
0.915461
0.905646
0.899735
0.896351
0.894649
0.894212
0.894726
1.16156
1.17879
1.16158
1.10824
1.04193
0.986913
0.950057
0.926742
0.911847
0.902608
0.897154
0.894117
0.892686
0.892472
0.893179
1.16688
1.18452
1.16384
1.10563
1.03628
0.980814
0.944766
0.922354
0.90819
0.899547
0.894558
0.891873
0.890713
0.890724
0.891625
1.17253
1.19041
1.16573
1.10235
1.03006
0.974401
0.93934
0.917904
0.904502
0.89647
0.891953
0.88962
0.888733
0.88897
0.890066
1.17852
1.19643
1.16717
1.09833
1.02324
0.967689
0.933795
0.913399
0.900785
0.89338
0.88934
0.887359
0.886746
0.887209
0.888503
1.1849
1.20255
1.16808
1.09351
1.01583
0.960703
0.928153
0.908853
0.89705
0.890283
0.886722
0.885094
0.884754
0.885444
0.886934
1.1917
1.20872
1.16836
1.08783
1.00782
0.953471
0.922431
0.904275
0.893302
0.887181
0.884102
0.882824
0.882758
0.883674
0.885361
1.19895
1.21488
1.1679
1.08122
0.999225
0.946027
0.916654
0.899677
0.889549
0.884083
0.881483
0.880554
0.880759
0.881901
0.883783
1.2067
1.22097
1.16659
1.07364
0.990068
0.938408
0.910841
0.89507
0.885798
0.88099
0.878868
0.878284
0.878759
0.880126
0.882203
1.21499
1.22689
1.16429
1.06503
0.980383
0.930659
0.905017
0.890465
0.882056
0.877908
0.876259
0.876016
0.876759
0.878349
0.880618
1.22385
1.23254
1.16087
1.05535
0.970215
0.922826
0.899202
0.885872
0.87833
0.874841
0.873659
0.873752
0.874761
0.876571
0.87903
1.23334
1.23778
1.1562
1.04459
0.959626
0.91496
0.893418
0.881303
0.874629
0.871795
0.871072
0.871495
0.872766
0.874793
0.877439
1.24349
1.24246
1.15013
1.03274
0.948689
0.907111
0.887682
0.876766
0.870957
0.868771
0.868498
0.869246
0.870775
0.873015
0.875847
1.25433
1.2464
1.1425
1.01981
0.937497
0.89933
0.882014
0.872272
0.867324
0.865776
0.865942
0.867009
0.868791
0.871238
0.874253