1.275 	2.15223e-18 	-2.76991e-20 	-0.0335548 	-0.000459752 	-2.00672e-22
1.825 	2.15223e-18 	-1.39322e-20 	-0.00789012 	-0.00283776 	1.80472e-21
2.375 	2.15223e-18 	-2.66896e-23 	0.119732 	-0.00337882 	-7.52841e-22
