/*--------------------------------*- C++ -*----------------------------------*\
  =========                 |
  \\      /  F ield         | OpenFOAM: The Open Source CFD Toolbox
   \\    /   O peration     | Website:  https://openfoam.org
    \\  /    A nd           | Version:  6.0
     \\/     M anipulation  |
\*---------------------------------------------------------------------------*/
FoamFile
{
    version     2.0;
    format      ascii;
    class       volScalarField;
    location    "21";
    object      p;
}
// * * * * * * * * * * * * * * * * * * * * * * * * * * * * * * * * * * * * * //

dimensions      [0 2 -2 0 0 0 0];

internalField   nonuniform List<scalar> 
2000
(
-0.34936
-0.355263
-0.356969
-0.356303
-0.354445
-0.351772
-0.348562
-0.345102
-0.341664
-0.337971
-0.352076
-0.357562
-0.358927
-0.35796
-0.355814
-0.352866
-0.349392
-0.345672
-0.341983
-0.338166
-0.357528
-0.362161
-0.362834
-0.361257
-0.35853
-0.355025
-0.351015
-0.346759
-0.342548
-0.338475
-0.365757
-0.36906
-0.368668
-0.366164
-0.362555
-0.358204
-0.353368
-0.34827
-0.34322
-0.33874
-0.376826
-0.378258
-0.3764
-0.372643
-0.36785
-0.362354
-0.356384
-0.350089
-0.343802
-0.338703
-0.390799
-0.38974
-0.38599
-0.380655
-0.374382
-0.367453
-0.36003
-0.352132
-0.344084
-0.338031
-0.407711
-0.403466
-0.39738
-0.390157
-0.382146
-0.373542
-0.364401
-0.354518
-0.344066
-0.336469
-0.42751
-0.419338
-0.410479
-0.401091
-0.391129
-0.380665
-0.369612
-0.357382
-0.343513
-0.332838
-0.449982
-0.437183
-0.425169
-0.413414
-0.401369
-0.388913
-0.375649
-0.360111
-0.340126
-0.322361
-0.474693
-0.456734
-0.441353
-0.427275
-0.41349
-0.399782
-0.385401
-0.367767
-0.342777
-0.318147
-0.500957
-0.477565
-0.45876
-0.442586
-0.427864
-0.414952
-0.40421
-0.396275
-0.396286
-0.415436
-0.527945
-0.499097
-0.476771
-0.458235
-0.441908
-0.428236
-0.417714
-0.41138
-0.414247
-0.431571
-0.554933
-0.520869
-0.495113
-0.474103
-0.455749
-0.440401
-0.428439
-0.420563
-0.419797
-0.427727
-0.581273
-0.54241
-0.513473
-0.490019
-0.469394
-0.451763
-0.437299
-0.426242
-0.420014
-0.418776
-0.606217
-0.563053
-0.53123
-0.50534
-0.482138
-0.461584
-0.443648
-0.4282
-0.415634
-0.406075
-0.628774
-0.581864
-0.547438
-0.51906
-0.492928
-0.468863
-0.446752
-0.426287
-0.407298
-0.390539
-0.647661
-0.597631
-0.560865
-0.529894
-0.500472
-0.472426
-0.445726
-0.420077
-0.395084
-0.372421
-0.661314
-0.608898
-0.570049
-0.536358
-0.503342
-0.471015
-0.439602
-0.40897
-0.378709
-0.351483
-0.66797
-0.614024
-0.573365
-0.536855
-0.500058
-0.463373
-0.427417
-0.392299
-0.357708
-0.327225
-0.665758
-0.611267
-0.569117
-0.529773
-0.489187
-0.448327
-0.408282
-0.369424
-0.331564
-0.299055
-0.65282
-0.598881
-0.555631
-0.51358
-0.469435
-0.424869
-0.381466
-0.339818
-0.299828
-0.266431
-0.627419
-0.575223
-0.531369
-0.486934
-0.439741
-0.392239
-0.346463
-0.303142
-0.262207
-0.22898
-0.58808
-0.538883
-0.495051
-0.448797
-0.399367
-0.349985
-0.303043
-0.259301
-0.218635
-0.186564
-0.533704
-0.488799
-0.445763
-0.398516
-0.347955
-0.298009
-0.251286
-0.208474
-0.169314
-0.139324
-0.463689
-0.424373
-0.383059
-0.335893
-0.285563
-0.236563
-0.19157
-0.151112
-0.114721
-0.0876957
-0.378034
-0.345571
-0.30703
-0.261221
-0.212652
-0.166207
-0.124498
-0.087836
-0.0554968
-0.0323126
-0.277431
-0.253
-0.218361
-0.1753
-0.130081
-0.0877875
-0.0508445
-0.0193515
0.00763166
0.0259892
-0.163323
-0.147951
-0.118338
-0.0794215
-0.0390863
-0.00244419
0.0283325
0.0532279
0.0731413
0.0851696
-0.037927
-0.0324008
-0.00881491
0.0247405
0.0589473
0.0887721
0.112186
0.128731
0.138589
0.141515
0.0957967
0.0910017
0.10779
0.135152
0.162693
0.185684
0.202157
0.210507
0.209474
0.203039
0.234266
0.218985
0.228369
0.248911
0.269686
0.286801
0.299033
0.304658
0.303541
0.316052
0.373579
0.347898
0.349302
0.362155
0.375203
0.385187
0.39129
0.392681
0.391491
0.403316
0.509792
0.474064
0.467177
0.471759
0.47644
0.478532
0.477517
0.47301
0.467192
0.471445
0.639058
0.593875
0.578703
0.574826
0.570954
0.564976
0.556681
0.545934
0.534563
0.531058
0.757719
0.70389
0.680786
0.668697
0.656554
0.642813
0.627531
0.610758
0.594001
0.583559
0.862393
0.800944
0.770609
0.750979
0.731292
0.710518
0.68895
0.666781
0.645213
0.628722
0.950068
0.882229
0.845687
0.819562
0.793418
0.766668
0.739798
0.713113
0.68752
0.665974
1.01819
0.945381
0.903927
0.87266
0.841431
0.810003
0.779007
0.748833
0.720128
0.694646
1.06476
0.988547
0.943696
0.908869
0.874137
0.839498
0.805684
0.773138
0.742313
0.714134
1.0884
1.01045
0.963866
0.927222
0.890703
0.854432
0.819189
0.785445
0.753546
0.723994
1.0884
1.01045
0.963866
0.927222
0.890703
0.854432
0.819189
0.785445
0.753546
0.723994
1.06476
0.988547
0.943696
0.908869
0.874137
0.839498
0.805684
0.773138
0.742313
0.714134
1.01819
0.945381
0.903927
0.87266
0.841431
0.810002
0.779006
0.748833
0.720127
0.694646
0.950067
0.882229
0.845686
0.819562
0.793418
0.766668
0.739797
0.713113
0.68752
0.665974
0.862393
0.800943
0.770609
0.750979
0.731291
0.710518
0.68895
0.66678
0.645212
0.628722
0.757718
0.703889
0.680785
0.668696
0.656554
0.642813
0.627531
0.610757
0.594001
0.583558
0.639057
0.593874
0.578702
0.574826
0.570953
0.564976
0.55668
0.545933
0.534563
0.531057
0.509791
0.474064
0.467176
0.471758
0.47644
0.478531
0.477517
0.47301
0.467192
0.471445
0.373578
0.347897
0.349301
0.362154
0.375203
0.385186
0.391289
0.39268
0.39149
0.403316
0.234265
0.218984
0.228368
0.24891
0.269685
0.2868
0.299032
0.304658
0.303541
0.316051
0.0957959
0.0910009
0.107789
0.135151
0.162692
0.185683
0.202156
0.210506
0.209474
0.203038
-0.0379278
-0.0324016
-0.00881573
0.0247397
0.0589465
0.0887714
0.112185
0.128731
0.138588
0.141514
-0.163324
-0.147952
-0.118339
-0.0794223
-0.0390871
-0.00244499
0.0283317
0.0532272
0.0731406
0.085169
-0.277432
-0.253001
-0.218362
-0.175301
-0.130082
-0.0877884
-0.0508453
-0.0193522
0.00763096
0.0259886
-0.378035
-0.345572
-0.307031
-0.261222
-0.212653
-0.166208
-0.124499
-0.0878368
-0.0554975
-0.0323133
-0.46369
-0.424374
-0.38306
-0.335894
-0.285564
-0.236564
-0.191571
-0.151113
-0.114722
-0.0876964
-0.533705
-0.4888
-0.445764
-0.398517
-0.347956
-0.29801
-0.251287
-0.208475
-0.169315
-0.139325
-0.588081
-0.538884
-0.495052
-0.448798
-0.399367
-0.349986
-0.303044
-0.259302
-0.218636
-0.186564
-0.62742
-0.575224
-0.53137
-0.486935
-0.439742
-0.392239
-0.346464
-0.303143
-0.262208
-0.228981
-0.652821
-0.598882
-0.555632
-0.513581
-0.469436
-0.42487
-0.381467
-0.339819
-0.299829
-0.266432
-0.665759
-0.611268
-0.569118
-0.529774
-0.489188
-0.448328
-0.408283
-0.369424
-0.331565
-0.299055
-0.667971
-0.614026
-0.573366
-0.536856
-0.500059
-0.463374
-0.427418
-0.392299
-0.357708
-0.327226
-0.661315
-0.608899
-0.57005
-0.536359
-0.503343
-0.471016
-0.439603
-0.408971
-0.37871
-0.351484
-0.647662
-0.597632
-0.560866
-0.529895
-0.500473
-0.472426
-0.445727
-0.420078
-0.395085
-0.372422
-0.628775
-0.581865
-0.547439
-0.519061
-0.492928
-0.468863
-0.446753
-0.426287
-0.407298
-0.39054
-0.606218
-0.563054
-0.531231
-0.505341
-0.482139
-0.461585
-0.443649
-0.428201
-0.415635
-0.406076
-0.581274
-0.542411
-0.513474
-0.49002
-0.469395
-0.451764
-0.4373
-0.426243
-0.420015
-0.418776
-0.554934
-0.52087
-0.495114
-0.474104
-0.45575
-0.440401
-0.42844
-0.420563
-0.419797
-0.427728
-0.527945
-0.499097
-0.476772
-0.458236
-0.441909
-0.428237
-0.417715
-0.41138
-0.414247
-0.431571
-0.500957
-0.477566
-0.458761
-0.442587
-0.427864
-0.414953
-0.40421
-0.396275
-0.396286
-0.415436
-0.474694
-0.456734
-0.441354
-0.427275
-0.413491
-0.399782
-0.385401
-0.367767
-0.342777
-0.318147
-0.449982
-0.437183
-0.42517
-0.413414
-0.40137
-0.388914
-0.37565
-0.360111
-0.340127
-0.322361
-0.42751
-0.419339
-0.410479
-0.401091
-0.391129
-0.380665
-0.369612
-0.357382
-0.343513
-0.332838
-0.407712
-0.403467
-0.397381
-0.390158
-0.382146
-0.373542
-0.364401
-0.354518
-0.344066
-0.336469
-0.390799
-0.38974
-0.38599
-0.380655
-0.374382
-0.367453
-0.36003
-0.352132
-0.344084
-0.338031
-0.376826
-0.378258
-0.3764
-0.372643
-0.36785
-0.362355
-0.356384
-0.350089
-0.343802
-0.338703
-0.365757
-0.369061
-0.368668
-0.366164
-0.362556
-0.358204
-0.353368
-0.34827
-0.34322
-0.33874
-0.357528
-0.362161
-0.362834
-0.361257
-0.35853
-0.355025
-0.351015
-0.34676
-0.342548
-0.338475
-0.352076
-0.357562
-0.358927
-0.35796
-0.355814
-0.352866
-0.349392
-0.345672
-0.341983
-0.338166
-0.34936
-0.355263
-0.356969
-0.356303
-0.354445
-0.351772
-0.348562
-0.345102
-0.341664
-0.337971
-0.292006
-0.127327
-0.0823094
-0.030981
-0.0201172
-0.00825643
-0.00506606
-0.00110411
-0.000676233
0.00227815
-0.293239
-0.127877
-0.0825831
-0.0311809
-0.0201872
-0.00831769
-0.00509798
-0.00112692
-0.000686529
0.00226001
-0.295633
-0.128963
-0.0831247
-0.0315819
-0.0203268
-0.00843996
-0.00516162
-0.00117249
-0.000707024
0.00222395
-0.299047
-0.13056
-0.0839226
-0.0321861
-0.0205354
-0.00862271
-0.00525654
-0.00124067
-0.000737455
0.0021704
-0.303238
-0.132624
-0.084951
-0.0329919
-0.0208105
-0.00886455
-0.00538191
-0.00133118
-0.000777377
0.00209995
-0.30786
-0.135085
-0.0861624
-0.0339868
-0.0211463
-0.00916189
-0.00553603
-0.00144334
-0.000826199
0.0020134
-0.312775
-0.138004
-0.0875586
-0.0351653
-0.0215422
-0.00951139
-0.00571778
-0.0015758
-0.000883861
0.0019125
-0.318374
-0.141972
-0.0893737
-0.0366164
-0.0220372
-0.00992446
-0.00593261
-0.00172849
-0.000951894
0.00180017
-0.322895
-0.147347
-0.0917731
-0.038494
-0.0226811
-0.0104287
-0.00619021
-0.00190831
-0.00102913
0.00167425
-0.315843
-0.150019
-0.0930265
-0.0402406
-0.0232114
-0.0109449
-0.00644756
-0.00212137
-0.00109469
0.00151299
-0.248059
-0.141632
-0.0893971
-0.0436109
-0.0236658
-0.0123534
-0.0071509
-0.00295819
-0.00124351
0.00078031
-0.19015
-0.133066
-0.083408
-0.0450706
-0.0253416
-0.0147776
-0.00896863
-0.00449442
-0.00200256
-0.000120455
-0.149263
-0.115397
-0.0738426
-0.0435513
-0.0266811
-0.016978
-0.0108307
-0.00607486
-0.00293168
-0.000806292
-0.109727
-0.0944463
-0.0642744
-0.0415105
-0.0276501
-0.0187604
-0.0124182
-0.00746773
-0.00380875
-0.0012624
-0.0804064
-0.0770713
-0.0574105
-0.0402385
-0.0284217
-0.0200921
-0.0136593
-0.00857779
-0.00454313
-0.00155025
-0.0601851
-0.0641346
-0.0524381
-0.0392481
-0.0287982
-0.0209212
-0.0145383
-0.00940131
-0.00511381
-0.00174197
-0.0470569
-0.0548049
-0.0485806
-0.0382931
-0.028863
-0.0213829
-0.0151342
-0.00999359
-0.00553913
-0.00188091
-0.0387379
-0.0482952
-0.045624
-0.037454
-0.0288038
-0.0216354
-0.0155282
-0.0104046
-0.00584054
-0.00198207
-0.0338703
-0.0441615
-0.0436218
-0.0368624
-0.0287403
-0.0217693
-0.0157671
-0.0106624
-0.00603316
-0.00204756
-0.0316119
-0.0421393
-0.0426133
-0.0365719
-0.0287146
-0.0218268
-0.0158794
-0.0107835
-0.00612833
-0.0020774
-0.22013
-0.248174
-0.274159
-0.298364
-0.321164
-0.34305
-0.364623
-0.38651
-0.409184
-0.433163
-0.0681168
-0.0782027
-0.0872868
-0.0956122
-0.103489
-0.111304
-0.119527
-0.128712
-0.13946
-0.153522
-0.0461563
-0.0553229
-0.0641016
-0.0724651
-0.0803746
-0.0877827
-0.0946429
-0.100924
-0.106619
-0.111831
-0.0193736
-0.0250756
-0.0305703
-0.0358766
-0.0410162
-0.0460123
-0.0508881
-0.0556656
-0.0603412
-0.0647793
-0.0139183
-0.0182713
-0.0224987
-0.0265968
-0.0305618
-0.0343895
-0.0380762
-0.0416189
-0.0449945
-0.0481588
-0.0088337
-0.0120498
-0.015207
-0.0183044
-0.0213414
-0.0243175
-0.0272322
-0.0300842
-0.0328594
-0.0355508
-0.00778224
-0.010322
-0.0128255
-0.0152889
-0.0177086
-0.0200814
-0.0224049
-0.0246767
-0.0268893
-0.029049
-0.00698864
-0.00904952
-0.0110942
-0.0131187
-0.0151192
-0.0170923
-0.0190351
-0.0209446
-0.0228163
-0.0246531
-0.0069201
-0.00869818
-0.0104686
-0.0122267
-0.0139685
-0.0156899
-0.0173876
-0.0190582
-0.0206991
-0.0223087
-0.00686611
-0.00849519
-0.0101218
-0.0117423
-0.013353
-0.0149507
-0.0165322
-0.0180947
-0.0196362
-0.0211528
0.165833
0.124807
0.079887
0.0369754
-0.00473023
-0.0455593
-0.0848961
-0.122192
-0.157198
-0.189838
0.116925
0.0910677
0.0645611
0.0418058
0.0216606
0.0029637
-0.0143501
-0.0300815
-0.0442074
-0.0568377
0.072332
0.0566276
0.0417665
0.0288757
0.0170047
0.00552174
-0.00563408
-0.0163803
-0.0266982
-0.0366157
0.0522807
0.0432499
0.0346929
0.0270154
0.0197626
0.0126833
0.00578321
-0.000880971
-0.00728941
-0.0134493
0.0367068
0.030768
0.0250559
0.019772
0.0146784
0.00965422
0.00470816
-0.000129385
-0.0048465
-0.00944272
0.0264686
0.0225891
0.0187631
0.0151327
0.0115918
0.00807807
0.00459391
0.00115527
-0.00222999
-0.00555996
0.0187472
0.0160216
0.0132755
0.0106004
0.00795217
0.0053014
0.0026505
1.02368e-05
-0.00261176
-0.00521067
0.0135618
0.0115692
0.00952972
0.00749735
0.00545813
0.00340081
0.00132808
-0.000752847
-0.00283581
-0.0049159
0.0102216
0.00862853
0.0069879
0.00532348
0.00363273
0.00191424
0.000172062
-0.00158789
-0.00336
-0.00513907
0.00862273
0.00720442
0.00574315
0.00424918
0.00272407
0.00117029
-0.000407712
-0.00200498
-0.00361677
-0.00523859
0.334194
0.333508
0.331873
0.328888
0.323786
0.315326
0.301738
0.280646
0.249426
0.204865
0.244439
0.243418
0.240766
0.236171
0.229321
0.219775
0.206957
0.190218
0.168811
0.142224
0.173707
0.172671
0.169974
0.165424
0.158938
0.150391
0.139579
0.126284
0.110091
0.0911001
0.122137
0.121322
0.119192
0.115606
0.110567
0.104088
0.0961514
0.0867676
0.0758591
0.0637745
0.0858265
0.0852342
0.0836751
0.0810443
0.0773641
0.0726769
0.0670094
0.0603985
0.0528236
0.0444985
0.0606582
0.0602323
0.059109
0.0572135
0.0545701
0.0512231
0.0472087
0.0425703
0.0373259
0.0316251
0.0435093
0.0431981
0.0423767
0.0409911
0.0390608
0.036621
0.0337015
0.0303344
0.026539
0.0224013
0.0322226
0.0319864
0.0313631
0.0303117
0.0288476
0.0269985
0.0247882
0.0222413
0.0193784
0.0162526
0.0253855
0.0251936
0.0246875
0.0238339
0.0226451
0.0211432
0.0193469
0.0172747
0.0149445
0.0123883
0.0221615
0.02199
0.0215384
0.0207769
0.0197163
0.0183758
0.0167719
0.0149206
0.0128387
0.0105497
0.484787
0.486468
0.492853
0.504015
0.519869
0.540733
0.56707
0.599401
0.638255
0.683867
0.482543
0.484201
0.490505
0.501511
0.517117
0.537605
0.563379
0.594873
0.632478
0.676306
0.478109
0.479723
0.485875
0.496579
0.511701
0.53145
0.556114
0.585959
0.62109
0.661392
0.471582
0.473144
0.479086
0.489361
0.503784
0.522461
0.545507
0.572932
0.604414
0.639528
0.463103
0.464619
0.470313
0.480053
0.493596
0.510908
0.53188
0.556183
0.582915
0.611298
0.452837
0.454331
0.459761
0.468887
0.481395
0.49709
0.515596
0.536163
0.557168
0.577433
0.440979
0.442521
0.447707
0.456174
0.467538
0.481414
0.497119
0.513406
0.527847
0.538787
0.427734
0.429506
0.434579
0.442459
0.452702
0.464707
0.47741
0.48893
0.495934
0.496123
0.413177
0.415429
0.420582
0.428005
0.437244
0.447473
0.457183
0.463664
0.462432
0.448983
0.396986
0.399443
0.404219
0.410581
0.418089
0.425792
0.431892
0.433151
0.424716
0.397316
0.396986
0.399443
0.404219
0.410581
0.418089
0.425791
0.431892
0.43315
0.424715
0.397315
0.413176
0.415429
0.420581
0.428005
0.437243
0.447472
0.457183
0.463663
0.462432
0.448983
0.427733
0.429506
0.434578
0.442458
0.452702
0.464706
0.47741
0.488929
0.495934
0.496122
0.440979
0.442521
0.447707
0.456174
0.467538
0.481414
0.497118
0.513406
0.527846
0.538787
0.452837
0.454331
0.459761
0.468886
0.481395
0.49709
0.515596
0.536163
0.557168
0.577432
0.463102
0.464618
0.470313
0.480053
0.493596
0.510907
0.53188
0.556183
0.582915
0.611297
0.471582
0.473144
0.479086
0.48936
0.503784
0.522461
0.545507
0.572932
0.604413
0.639528
0.478109
0.479723
0.485874
0.496579
0.5117
0.53145
0.556114
0.585959
0.62109
0.661392
0.482543
0.484201
0.490505
0.501511
0.517117
0.537605
0.563379
0.594873
0.632478
0.676306
0.484787
0.486468
0.492853
0.504015
0.519869
0.540733
0.56707
0.599401
0.638255
0.683867
0.0221612
0.0219897
0.0215381
0.0207767
0.019716
0.0183755
0.0167717
0.0149204
0.0128385
0.0105495
0.0253852
0.0251933
0.0246872
0.0238336
0.0226449
0.021143
0.0193466
0.0172744
0.0149442
0.0123881
0.0322224
0.0319861
0.0313628
0.0303114
0.0288473
0.0269982
0.0247879
0.022241
0.0193781
0.0162523
0.0435091
0.0431978
0.0423764
0.0409908
0.0390605
0.0366208
0.0337013
0.0303341
0.0265388
0.0224011
0.0606579
0.060232
0.0591087
0.0572132
0.0545698
0.0512228
0.0472084
0.0425701
0.0373256
0.0316249
0.0858262
0.0852339
0.0836748
0.081044
0.0773638
0.0726766
0.0670091
0.0603982
0.0528233
0.0444982
0.122136
0.121322
0.119192
0.115606
0.110567
0.104087
0.0961511
0.0867673
0.0758588
0.0637742
0.173707
0.17267
0.169974
0.165424
0.158938
0.15039
0.139578
0.126283
0.11009
0.0910997
0.244438
0.243418
0.240765
0.23617
0.229321
0.219775
0.206957
0.190217
0.168811
0.142224
0.334194
0.333508
0.331873
0.328888
0.323786
0.315326
0.301738
0.280646
0.249425
0.204865
0.00862249
0.0072042
0.00574294
0.00424898
0.00272386
0.00117009
-0.000407908
-0.00200517
-0.00361696
-0.00523877
0.0102214
0.00862832
0.00698768
0.00532327
0.00363252
0.00191404
0.000171863
-0.00158809
-0.00336019
-0.00513926
0.0135615
0.0115689
0.0095295
0.00749714
0.00545792
0.0034006
0.00132788
-0.000753045
-0.00283601
-0.0049161
0.0187469
0.0160213
0.0132752
0.0106002
0.00795193
0.00530116
0.00265027
1.0013e-05
-0.00261199
-0.0052109
0.0264684
0.0225888
0.0187628
0.0151324
0.0115915
0.00807783
0.00459368
0.00115504
-0.00223021
-0.00556018
0.0367065
0.0307678
0.0250556
0.0197718
0.0146782
0.00965398
0.00470793
-0.000129607
-0.00484671
-0.00944293
0.0522804
0.0432496
0.0346926
0.0270152
0.0197624
0.012683
0.00578294
-0.000881232
-0.00728967
-0.0134495
0.0723316
0.0566273
0.0417661
0.0288754
0.0170044
0.0055214
-0.00563441
-0.0163806
-0.0266985
-0.0366161
0.116925
0.0910673
0.0645607
0.0418054
0.0216602
0.0029633
-0.0143505
-0.0300819
-0.0442078
-0.0568381
0.165833
0.124807
0.0798865
0.0369749
-0.00473074
-0.0455598
-0.0848966
-0.122192
-0.157198
-0.189839
-0.0068663
-0.00849537
-0.010122
-0.0117425
-0.0133532
-0.0149509
-0.0165324
-0.0180949
-0.0196363
-0.021153
-0.00692029
-0.00869838
-0.0104688
-0.0122269
-0.0139687
-0.0156901
-0.0173878
-0.0190584
-0.0206993
-0.0223089
-0.00698882
-0.00904967
-0.0110944
-0.0131188
-0.0151193
-0.0170925
-0.0190353
-0.0209448
-0.0228165
-0.0246533
-0.00778243
-0.0103221
-0.0128257
-0.0152891
-0.0177087
-0.0200816
-0.0224051
-0.0246769
-0.0268895
-0.0290491
-0.00883389
-0.01205
-0.0152072
-0.0183046
-0.0213416
-0.0243176
-0.0272323
-0.0300844
-0.0328596
-0.035551
-0.0139185
-0.0182715
-0.0224989
-0.026597
-0.030562
-0.0343897
-0.0380764
-0.0416191
-0.0449947
-0.048159
-0.0193739
-0.0250758
-0.0305705
-0.0358768
-0.0410164
-0.0460125
-0.0508883
-0.0556658
-0.0603414
-0.0647795
-0.0461566
-0.0553232
-0.0641018
-0.0724654
-0.0803748
-0.087783
-0.0946431
-0.100924
-0.106619
-0.111832
-0.0681172
-0.0782031
-0.0872872
-0.0956126
-0.103489
-0.111305
-0.119528
-0.128712
-0.13946
-0.153522
-0.220131
-0.248174
-0.274159
-0.298364
-0.321164
-0.34305
-0.364624
-0.38651
-0.409184
-0.433163
-0.031612
-0.0421394
-0.0426134
-0.036572
-0.0287146
-0.0218268
-0.0158795
-0.0107836
-0.00612843
-0.00207747
-0.0338704
-0.0441616
-0.0436219
-0.0368625
-0.0287404
-0.0217694
-0.0157672
-0.0106625
-0.00603325
-0.00204763
-0.038738
-0.0482953
-0.0456241
-0.0374541
-0.0288038
-0.0216354
-0.0155283
-0.0104047
-0.00584066
-0.00198214
-0.047057
-0.054805
-0.0485807
-0.0382932
-0.028863
-0.0213829
-0.0151343
-0.00999373
-0.00553927
-0.001881
-0.0601852
-0.0641347
-0.0524382
-0.0392482
-0.0287982
-0.0209212
-0.0145384
-0.00940151
-0.005114
-0.00174208
-0.0804065
-0.0770715
-0.0574106
-0.0402385
-0.0284216
-0.0200921
-0.0136595
-0.00857806
-0.00454338
-0.00155037
-0.109728
-0.0944465
-0.0642745
-0.0415105
-0.0276499
-0.0187603
-0.0124184
-0.00746812
-0.00380909
-0.00126253
-0.149263
-0.115397
-0.0738429
-0.0435512
-0.0266807
-0.0169778
-0.0108309
-0.00607541
-0.00293216
-0.000806421
-0.19015
-0.133066
-0.0834084
-0.0450703
-0.0253409
-0.0147773
-0.00896882
-0.0044951
-0.00200316
-0.000120595
-0.248059
-0.141633
-0.0893976
-0.0436107
-0.0236651
-0.012353
-0.007151
-0.00295887
-0.00124414
0.000780168
-0.315843
-0.15002
-0.0930271
-0.0402404
-0.0232108
-0.0109445
-0.0064476
-0.00212192
-0.00109519
0.00151288
-0.322895
-0.147348
-0.0917736
-0.0384938
-0.0226806
-0.0104284
-0.00619024
-0.00190882
-0.0010296
0.00167414
-0.318374
-0.141972
-0.0893742
-0.0366163
-0.0220366
-0.00992417
-0.00593265
-0.00172896
-0.000952319
0.00180007
-0.312775
-0.138004
-0.0875591
-0.0351651
-0.0215417
-0.00951114
-0.00571781
-0.00157622
-0.000884241
0.00191241
-0.30786
-0.135085
-0.0861628
-0.0339867
-0.0211458
-0.00916167
-0.00553607
-0.00144371
-0.000826529
0.00201333
-0.303238
-0.132625
-0.0849513
-0.0329918
-0.0208101
-0.00886436
-0.00538194
-0.00133149
-0.000777653
0.00209989
-0.299047
-0.13056
-0.0839229
-0.032186
-0.020535
-0.00862256
-0.00525657
-0.00124092
-0.000737674
0.00217036
-0.295633
-0.128964
-0.0831249
-0.0315819
-0.0203266
-0.00843985
-0.00516164
-0.00117267
-0.000707183
0.00222392
-0.293239
-0.127877
-0.0825832
-0.0311808
-0.0201871
-0.00831763
-0.005098
-0.00112703
-0.000686625
0.00225999
-0.292006
-0.127327
-0.0823095
-0.030981
-0.0201172
-0.00825641
-0.00506606
-0.00110415
-0.000676266
0.00227814
)
;

boundaryField
{
    inlet
    {
        type            zeroGradient;
    }
    outlet
    {
        type            fixedValue;
        value           uniform 0;
    }
    cylinder
    {
        type            zeroGradient;
    }
    top
    {
        type            symmetryPlane;
    }
    bottom
    {
        type            symmetryPlane;
    }
    defaultFaces
    {
        type            empty;
    }
}


// ************************************************************************* //
