1.45 	0 	0 	-0.291457
2.35 	0 	0 	-0.126731
