1.45 	0 	0 	-0.292036
2.35 	0 	0 	-0.127354
