1.45 	0 	0 	-0.306728
2.35 	0 	0 	-0.131413
