1.45 	0 	0 	0.277059 	-0.0171104 	2.25988e-21
2.35 	0 	0 	0.606142 	-0.0125575 	-9.90882e-22
