/*--------------------------------*- C++ -*----------------------------------*\
  =========                 |
  \\      /  F ield         | OpenFOAM: The Open Source CFD Toolbox
   \\    /   O peration     | Website:  https://openfoam.org
    \\  /    A nd           | Version:  6.0
     \\/     M anipulation  |
\*---------------------------------------------------------------------------*/
FoamFile
{
    version     2.0;
    format      ascii;
    class       surfaceScalarField;
    location    "0.4";
    object      phi;
}
// * * * * * * * * * * * * * * * * * * * * * * * * * * * * * * * * * * * * * //

dimensions      [0 3 -1 0 0 0 0];

internalField   nonuniform List<scalar> 
1540
(
6.62058e-09
-6.62079e-09
9.83243e-09
-3.21181e-09
4.63108e-09
5.20135e-09
-8.56658e-09
1.31977e-08
-2.78502e-08
1.92836e-08
-5.13183e-08
2.3468e-08
-7.76306e-08
2.63121e-08
-1.06132e-07
2.85019e-08
-1.36774e-07
3.06419e-08
-1.69967e-07
3.3193e-08
-2.06452e-07
3.64849e-08
-2.47203e-07
4.07511e-08
-2.93367e-07
4.61639e-08
-3.46225e-07
5.28583e-08
-4.07164e-07
6.09395e-08
-4.77638e-07
7.04734e-08
-5.59096e-07
8.14583e-08
-6.52875e-07
9.37795e-08
-7.60024e-07
1.07148e-07
-8.81051e-07
1.21027e-07
-1.0156e-06
1.3455e-07
-1.16205e-06
1.46446e-07
-1.31704e-06
1.54996e-07
-1.47507e-06
1.58033e-07
-1.62812e-06
1.53048e-07
-1.76554e-06
1.37414e-07
-1.87432e-06
1.08784e-07
-1.93997e-06
6.56542e-08
-1.94805e-06
8.07193e-09
-1.88643e-06
-6.16199e-08
-1.74824e-06
-1.38185e-07
-1.53494e-06
-2.13301e-07
-1.25882e-06
-2.76118e-07
-9.43946e-07
-3.14875e-07
-6.24328e-07
-3.19618e-07
-3.3873e-07
-2.85598e-07
-1.22552e-07
-2.16179e-07
1.12964e-09
-1.23681e-07
3.00504e-08
-2.89208e-08
3.00505e-08
3.45972e-09
-1.00803e-08
-6.06923e-09
6.31719e-09
-3.4281e-08
3.34133e-08
-8.01672e-08
5.90839e-08
-1.4041e-07
7.95267e-08
-2.11522e-07
9.45803e-08
-2.90919e-07
1.05709e-07
-3.77296e-07
1.14879e-07
-4.70596e-07
1.23941e-07
-5.71794e-07
1.34391e-07
-6.82657e-07
1.47349e-07
-8.05531e-07
1.63625e-07
-9.43163e-07
1.83797e-07
-1.09856e-06
2.08258e-07
-1.27484e-06
2.37217e-07
-1.47501e-06
2.70643e-07
-1.70171e-06
3.08163e-07
-1.95684e-06
3.48903e-07
-2.24099e-06
3.91304e-07
-2.55288e-06
4.32916e-07
-2.88856e-06
4.70232e-07
-3.2407e-06
4.98585e-07
-3.59791e-06
5.12202e-07
-3.94435e-06
5.04474e-07
-4.2598e-06
4.685e-07
-4.52034e-06
3.97952e-07
-4.69979e-06
2.88233e-07
-4.772e-06
1.37865e-07
-4.7139e-06
-5.00308e-08
-4.50915e-06
-2.66369e-07
-4.15218e-06
-4.95158e-07
-3.65205e-06
-7.13431e-07
-3.0355e-06
-8.9267e-07
-2.34797e-06
-1.00241e-06
-1.65113e-06
-1.01646e-06
-1.01537e-06
-9.21358e-07
-5.06842e-07
-7.24704e-07
-1.71013e-07
-4.59511e-07
-1.64935e-08
-1.8344e-07
1.35566e-08
-6.82505e-09
-3.25533e-09
-3.97334e-08
3.92256e-08
-1.00693e-07
9.43727e-08
-1.86479e-07
1.4487e-07
-2.92252e-07
1.853e-07
-4.13486e-07
2.15814e-07
-5.46984e-07
2.39207e-07
-6.91235e-07
2.5913e-07
-8.46345e-07
2.79052e-07
-1.01378e-06
3.01823e-07
-1.19604e-06
3.2961e-07
-1.39639e-06
3.63973e-07
-1.61856e-06
4.05967e-07
-1.86649e-06
4.56194e-07
-2.14404e-06
5.14768e-07
-2.45459e-06
5.81184e-07
-2.80052e-06
6.541e-07
-3.18267e-06
7.31054e-07
-3.59953e-06
8.08159e-07
-4.04644e-06
8.79829e-07
-4.51485e-06
9.38636e-07
-4.99163e-06
9.75373e-07
-5.45888e-06
9.79444e-07
-5.89403e-06
9.39628e-07
-6.27076e-06
8.4523e-07
-6.56037e-06
6.87567e-07
-6.73382e-06
4.61685e-07
-6.76413e-06
1.68172e-07
-6.6291e-06
-1.85064e-07
-6.31428e-06
-5.81184e-07
-5.81622e-06
-9.93221e-07
-5.14587e-06
-1.38379e-06
-4.33199e-06
-1.70654e-06
-3.42367e-06
-1.91073e-06
-2.49004e-06
-1.95009e-06
-1.61474e-06
-1.79666e-06
-8.82792e-07
-1.45665e-06
-3.60492e-07
-9.81811e-07
-7.44288e-08
-4.69503e-07
-6.08719e-08
-2.02034e-08
1.69482e-08
-8.28133e-08
1.01835e-07
-1.83411e-07
1.9497e-07
-3.14868e-07
2.76328e-07
-4.70061e-07
3.40493e-07
-6.43274e-07
3.89027e-07
-8.30819e-07
4.26752e-07
-1.03112e-06
4.59436e-07
-1.2445e-06
4.92433e-07
-1.4728e-06
5.30114e-07
-1.71896e-06
5.75777e-07
-1.98673e-06
6.31736e-07
-2.2802e-06
6.99444e-07
-2.60352e-06
7.79516e-07
-2.96039e-06
8.71637e-07
-3.35355e-06
9.74343e-07
-3.78415e-06
1.0847e-06
-4.25103e-06
1.19793e-06
-4.74994e-06
1.30707e-06
-5.27289e-06
1.40278e-06
-5.8076e-06
1.47335e-06
-6.33739e-06
1.50516e-06
-6.84146e-06
1.48352e-06
-7.29572e-06
1.39389e-06
-7.67399e-06
1.2235e-06
-7.94951e-06
9.63082e-07
-8.09647e-06
6.08645e-07
-8.09152e-06
1.63224e-07
-7.91519e-06
-3.61393e-07
-7.55351e-06
-9.42868e-07
-7.0002e-06
-1.54652e-06
-6.25998e-06
-2.12401e-06
-5.35305e-06
-2.61348e-06
-4.32039e-06
-2.94338e-06
-3.22796e-06
-3.04252e-06
-2.16588e-06
-2.85874e-06
-1.23786e-06
-2.38467e-06
-5.38517e-07
-1.68116e-06
-1.24983e-07
-8.83037e-07
-1.85855e-07
-3.52701e-08
5.22183e-08
-1.31571e-07
1.98136e-07
-2.76321e-07
3.39721e-07
-4.57122e-07
4.57128e-07
-6.63768e-07
5.47139e-07
-8.88986e-07
6.14245e-07
-1.12847e-06
6.66233e-07
-1.38052e-06
7.11491e-07
-1.64557e-06
7.57482e-07
-1.92562e-06
8.10158e-07
-2.22375e-06
8.73909e-07
-2.54371e-06
9.51696e-07
-2.88944e-06
1.04518e-06
-3.26464e-06
1.15471e-06
-3.6722e-06
1.2792e-06
-4.11365e-06
1.41579e-06
-4.58848e-06
1.55953e-06
-5.0935e-06
1.70295e-06
-5.62226e-06
1.83584e-06
-6.16474e-06
1.94525e-06
-6.70723e-06
2.01584e-06
-7.23274e-06
2.03067e-06
-7.7217e-06
1.97247e-06
-8.15298e-06
1.82517e-06
-8.50497e-06
1.57549e-06
-8.75648e-06
1.21459e-06
-8.88728e-06
7.39447e-07
-8.8783e-06
1.54237e-07
-8.71163e-06
-5.28064e-07
-8.37091e-06
-1.28359e-06
-7.84263e-06
-2.0748e-06
-7.1193e-06
-2.84734e-06
-6.20511e-06
-3.52767e-06
-5.12436e-06
-4.02413e-06
-3.93116e-06
-4.23572e-06
-2.71617e-06
-4.07373e-06
-1.60227e-06
-3.49857e-06
-7.2135e-07
-2.56208e-06
-1.74679e-07
-1.42971e-06
-3.60534e-07
-5.14677e-08
1.03686e-07
-1.84001e-07
3.30668e-07
-3.75539e-07
5.31259e-07
-6.07308e-07
6.88898e-07
-8.65317e-07
8.05147e-07
-1.14034e-06
8.89263e-07
-1.42721e-06
9.5311e-07
-1.72397e-06
1.00825e-06
-2.03095e-06
1.06446e-06
-2.35006e-06
1.12927e-06
-2.6842e-06
1.20805e-06
-3.03675e-06
1.30424e-06
-3.41107e-06
1.4195e-06
-3.81002e-06
1.55367e-06
-4.23544e-06
1.70462e-06
-4.68754e-06
1.8679e-06
-5.16442e-06
2.03641e-06
-5.6616e-06
2.20012e-06
-6.17176e-06
2.346e-06
-6.68478e-06
2.45828e-06
-7.1881e-06
2.51915e-06
-7.66732e-06
2.50989e-06
-8.1071e-06
2.41225e-06
-8.49194e-06
2.21001e-06
-8.80676e-06
1.89032e-06
-9.03703e-06
1.44486e-06
-9.16829e-06
8.70709e-07
-9.18531e-06
1.71252e-07
-9.07098e-06
-6.4239e-07
-8.80564e-06
-1.54893e-06
-8.36739e-06
-2.51306e-06
-7.7345e-06
-3.48023e-06
-6.8913e-06
-4.37086e-06
-5.83863e-06
-5.0768e-06
-4.60904e-06
-5.46531e-06
-3.28322e-06
-5.39956e-06
-1.99758e-06
-4.78421e-06
-9.26712e-07
-3.63294e-06
-2.31741e-07
-2.12468e-06
-5.92275e-07
-6.85754e-08
1.72262e-07
-2.39037e-07
5.0113e-07
-4.78618e-07
7.70839e-07
-7.61209e-07
9.71488e-07
-1.06844e-06
1.11238e-06
-1.3888e-06
1.20962e-06
-1.71608e-06
1.2804e-06
-2.04787e-06
1.34004e-06
-2.38421e-06
1.4008e-06
-2.72672e-06
1.47177e-06
-3.07785e-06
1.55918e-06
-3.44039e-06
1.66678e-06
-3.81695e-06
1.79605e-06
-4.20949e-06
1.94621e-06
-4.61888e-06
2.11401e-06
-5.04444e-06
2.29345e-06
-5.48358e-06
2.47555e-06
-5.93167e-06
2.64821e-06
-6.38205e-06
2.79638e-06
-6.82633e-06
2.90256e-06
-7.25496e-06
2.94779e-06
-7.65794e-06
2.91288e-06
-8.0255e-06
2.7798e-06
-8.3485e-06
2.53301e-06
-8.61857e-06
2.16038e-06
-8.82751e-06
1.6538e-06
-8.96629e-06
1.00949e-06
-9.02355e-06
2.28509e-07
-8.98382e-06
-6.82117e-07
-8.8259e-06
-1.70684e-06
-8.52188e-06
-2.81709e-06
-8.03786e-06
-3.96424e-06
-7.33835e-06
-5.07038e-06
-6.39655e-06
-6.01861e-06
-5.21324e-06
-6.64862e-06
-3.84353e-06
-6.76927e-06
-2.42204e-06
-6.2057e-06
-1.16247e-06
-4.89251e-06
-3.01376e-07
-2.98578e-06
-8.9365e-07
-8.66084e-08
2.5887e-07
-2.96358e-07
7.1088e-07
-5.84347e-07
1.05883e-06
-9.16182e-07
1.30332e-06
-1.26865e-06
1.46485e-06
-1.62778e-06
1.56875e-06
-1.98625e-06
1.63886e-06
-2.34108e-06
1.69488e-06
-2.692e-06
1.75171e-06
-3.04018e-06
1.81996e-06
-3.38759e-06
1.90659e-06
-3.73637e-06
2.01556e-06
-4.08844e-06
2.14813e-06
-4.4451e-06
2.30287e-06
-4.80667e-06
2.47557e-06
-5.17219e-06
2.65897e-06
-5.53934e-06
2.8427e-06
-5.90443e-06
3.0133e-06
-6.26265e-06
3.1546e-06
-6.60854e-06
3.24845e-06
-6.93654e-06
3.27578e-06
-7.24154e-06
3.21788e-06
-7.51936e-06
3.05762e-06
-7.76677e-06
2.78043e-06
-7.98127e-06
2.37489e-06
-8.16027e-06
1.83279e-06
-8.29984e-06
1.14907e-06
-8.39312e-06
3.21792e-07
-8.42821e-06
-6.47032e-07
-8.38576e-06
-1.7493e-06
-8.23654e-06
-2.96631e-06
-7.93978e-06
-4.26099e-06
-7.4443e-06
-5.56586e-06
-6.69595e-06
-6.76696e-06
-5.65649e-06
-7.68807e-06
-4.33808e-06
-8.08768e-06
-2.84909e-06
-7.69468e-06
-1.42463e-06
-6.31697e-06
-3.85502e-07
-4.0249e-06
-1.27915e-06
-1.05867e-07
3.64736e-07
-3.56457e-07
9.6147e-07
-6.92809e-07
1.39518e-06
-1.0712e-06
1.68171e-06
-1.46327e-06
1.85692e-06
-1.85265e-06
1.95812e-06
-2.23103e-06
2.01725e-06
-2.59508e-06
2.05893e-06
-2.94424e-06
2.10087e-06
-3.27939e-06
2.15511e-06
-3.60208e-06
2.22928e-06
-3.91403e-06
2.32751e-06
-4.21672e-06
2.45083e-06
-4.51118e-06
2.59733e-06
-4.79771e-06
2.7621e-06
-5.07581e-06
2.93707e-06
-5.34416e-06
3.11105e-06
-5.60084e-06
3.26998e-06
-5.84364e-06
3.39739e-06
-6.07048e-06
3.47529e-06
-6.2799e-06
3.4852e-06
-6.47142e-06
3.4094e-06
-6.6457e-06
3.2319e-06
-6.80445e-06
2.93918e-06
-6.94995e-06
2.52039e-06
-7.08433e-06
1.96717e-06
-7.20848e-06
1.27321e-06
-7.32054e-06
4.33856e-07
-7.41394e-06
-5.53635e-07
-7.47454e-06
-1.68869e-06
-7.47704e-06
-2.96381e-06
-7.38077e-06
-4.35726e-06
-7.12672e-06
-5.81991e-06
-6.6394e-06
-7.25428e-06
-5.84099e-06
-8.48648e-06
-4.68747e-06
-9.24121e-06
-3.23227e-06
-9.14988e-06
-1.69842e-06
-7.85083e-06
-4.8355e-07
-5.23977e-06
-1.7627e-06
-1.27101e-07
4.91837e-07
-4.20945e-07
1.25531e-06
-8.05655e-07
1.77989e-06
-1.22694e-06
2.103e-06
-1.65128e-06
2.28126e-06
-2.06033e-06
2.36718e-06
-2.44539e-06
2.4023e-06
-2.80319e-06
2.41672e-06
-3.13328e-06
2.43097e-06
-3.43659e-06
2.45842e-06
-3.71457e-06
2.50727e-06
-3.96882e-06
2.58175e-06
-4.2008e-06
2.6828e-06
-4.41167e-06
2.80821e-06
-4.60226e-06
2.95268e-06
-4.773e-06
3.10781e-06
-4.92414e-06
3.26219e-06
-5.05592e-06
3.40176e-06
-5.16893e-06
3.51041e-06
-5.26446e-06
3.57081e-06
-5.34478e-06
3.56553e-06
-5.41335e-06
3.47798e-06
-5.47478e-06
3.29334e-06
-5.53462e-06
2.99901e-06
-5.59891e-06
2.58468e-06
-5.67362e-06
2.04188e-06
-5.76382e-06
1.36342e-06
-5.87261e-06
5.42647e-07
-5.9994e-06
-4.26851e-07
-6.13725e-06
-1.55084e-06
-6.26879e-06
-2.83227e-06
-6.36033e-06
-4.26572e-06
-6.35483e-06
-5.82541e-06
-6.16678e-06
-7.44232e-06
-5.68692e-06
-8.96634e-06
-4.81146e-06
-1.01167e-05
-3.51407e-06
-1.04473e-05
-1.96066e-06
-9.40424e-06
-5.93511e-07
-6.60692e-06
-2.35621e-06
-1.51834e-07
6.43671e-07
-4.93083e-07
1.59656e-06
-9.26486e-07
2.21329e-06
-1.38578e-06
2.5623e-06
-1.83276e-06
2.72824e-06
-2.24828e-06
2.7827e-06
-2.62429e-06
2.77832e-06
-2.95853e-06
2.75095e-06
-3.25137e-06
2.72381e-06
-3.50434e-06
2.71138e-06
-3.71928e-06
2.72221e-06
-3.8981e-06
2.76057e-06
-4.04259e-06
2.8273e-06
-4.15445e-06
2.92007e-06
-4.2353e-06
3.03353e-06
-4.28681e-06
3.15932e-06
-4.31092e-06
3.2863e-06
-4.31008e-06
3.40092e-06
-4.2875e-06
3.48783e-06
-4.24745e-06
3.53076e-06
-4.19536e-06
3.51344e-06
-4.13787e-06
3.42049e-06
-4.08267e-06
3.23814e-06
-4.03826e-06
2.9546e-06
-4.01356e-06
2.55997e-06
-4.01751e-06
2.04583e-06
-4.05854e-06
1.40445e-06
-4.1439e-06
6.28008e-07
-4.27847e-06
-2.92282e-07
-4.46271e-06
-1.3666e-06
-4.689e-06
-2.60597e-06
-4.93542e-06
-4.0193e-06
-5.15619e-06
-5.60464e-06
-5.26989e-06
-7.32862e-06
-5.1517e-06
-9.08454e-06
-4.64696e-06
-1.06214e-05
-3.63662e-06
-1.14576e-05
-2.1827e-06
-1.08582e-05
-7.12955e-07
-8.07666e-06
-3.06917e-06
-1.82948e-07
8.2662e-07
-5.78639e-07
1.99225e-06
-1.06129e-06
2.69594e-06
-1.55133e-06
3.05234e-06
-2.00748e-06
3.18438e-06
-2.41198e-06
3.1872e-06
-2.75936e-06
3.1257e-06
-3.04979e-06
3.04137e-06
-3.28556e-06
2.95959e-06
-3.46957e-06
2.89539e-06
-3.60467e-06
2.8573e-06
-3.69347e-06
2.84937e-06
-3.73842e-06
2.87224e-06
-3.74187e-06
2.92352e-06
-3.7063e-06
2.99797e-06
-3.63455e-06
3.08758e-06
-3.53006e-06
3.18181e-06
-3.39711e-06
3.26797e-06
-3.24111e-06
3.33183e-06
-3.06868e-06
3.35832e-06
-2.8877e-06
3.33246e-06
-2.70725e-06
3.24004e-06
-2.53737e-06
3.06826e-06
-2.38878e-06
2.80601e-06
-2.27258e-06
2.44377e-06
-2.19995e-06
1.97319e-06
-2.18183e-06
1.38634e-06
-2.22861e-06
6.74789e-07
-2.34947e-06
-1.71428e-07
-2.55114e-06
-1.16492e-06
-2.83541e-06
-2.32171e-06
-3.19392e-06
-3.6608e-06
-3.59844e-06
-5.20012e-06
-3.9848e-06
-6.94226e-06
-4.23279e-06
-8.83655e-06
-4.15737e-06
-1.06968e-05
-3.55048e-06
-1.20645e-05
-2.33327e-06
-1.20754e-05
-8.39614e-07
-9.57032e-06
-3.90878e-06
-2.25832e-07
1.05245e-06
-6.87237e-07
2.45366e-06
-1.21867e-06
3.22738e-06
-1.72692e-06
3.56059e-06
-2.17147e-06
3.62894e-06
-2.53989e-06
3.55562e-06
-2.83226e-06
3.41808e-06
-3.05326e-06
3.26238e-06
-3.20853e-06
3.11486e-06
-3.3033e-06
2.99016e-06
-3.34198e-06
2.89599e-06
-3.32826e-06
2.83566e-06
-3.26531e-06
2.80929e-06
-3.15607e-06
2.81428e-06
-3.00362e-06
2.84552e-06
-2.81154e-06
2.89549e-06
-2.5842e-06
2.95447e-06
-2.32709e-06
3.01087e-06
-2.04701e-06
3.05174e-06
-1.75213e-06
3.06344e-06
-1.45199e-06
3.03233e-06
-1.15735e-06
2.94539e-06
-8.79888e-07
2.7908e-06
-6.3195e-07
2.55807e-06
-4.2626e-07
2.23808e-06
-2.75689e-07
1.82262e-06
-1.93101e-07
1.30375e-06
-1.91217e-07
6.72906e-07
-2.82432e-07
-8.02127e-08
-4.78346e-07
-9.69008e-07
-7.88524e-07
-2.01153e-06
-1.21728e-06
-3.23204e-06
-1.75599e-06
-4.66141e-06
-2.36663e-06
-6.33162e-06
-2.95319e-06
-8.24999e-06
-3.32853e-06
-1.03215e-05
-3.21664e-06
-1.21764e-05
-2.37942e-06
-1.29126e-05
-9.70448e-07
-1.09793e-05
-4.87923e-06
-2.906e-07
1.34305e-06
-8.34268e-07
2.99733e-06
-1.40883e-06
3.80194e-06
-1.91091e-06
4.06266e-06
-2.309e-06
4.02703e-06
-2.6026e-06
3.84922e-06
-2.80167e-06
3.61715e-06
-2.91809e-06
3.37879e-06
-2.96244e-06
3.1592e-06
-2.94319e-06
2.97091e-06
-2.86678e-06
2.81958e-06
-2.73804e-06
2.70692e-06
-2.56067e-06
2.63192e-06
-2.33782e-06
2.59142e-06
-2.07257e-06
2.58028e-06
-1.76851e-06
2.59143e-06
-1.43008e-06
2.61604e-06
-1.06301e-06
2.64379e-06
-6.74467e-07
2.6632e-06
-2.73194e-07
2.66217e-06
1.30574e-07
2.62856e-06
5.2528e-07
2.55069e-06
8.98314e-07
2.41776e-06
1.2363e-06
2.22009e-06
1.52535e-06
1.94903e-06
1.75127e-06
1.5967e-06
1.8996e-06
1.15541e-06
1.95566e-06
6.16851e-07
1.90438e-06
-2.89292e-08
1.73027e-06
-7.94904e-07
1.41764e-06
-1.6989e-06
9.51787e-07
-2.76618e-06
3.23456e-07
-4.03308e-06
-4.58367e-07
-5.5498e-06
-1.3363e-06
-7.37206e-06
-2.15185e-06
-9.50594e-06
-2.59766e-06
-1.17306e-05
-2.28171e-06
-1.32285e-05
-1.0975e-06
-1.21635e-05
-5.97673e-06
-3.96176e-07
1.73923e-06
-1.04241e-06
3.64356e-06
-1.63767e-06
4.3972e-06
-2.08312e-06
4.50811e-06
-2.37304e-06
4.31695e-06
-2.52918e-06
4.00536e-06
-2.57702e-06
3.66499e-06
-2.53852e-06
3.34029e-06
-2.43054e-06
3.05122e-06
-2.26517e-06
2.80553e-06
-2.0507e-06
2.60512e-06
-1.79262e-06
2.44884e-06
-1.49452e-06
2.33381e-06
-1.1589e-06
2.25581e-06
-7.87983e-07
2.20936e-06
-3.84307e-07
2.18775e-06
4.86782e-08
2.18306e-06
5.06194e-07
2.18628e-06
9.81847e-07
2.18755e-06
1.4675e-06
2.17652e-06
1.95331e-06
2.14275e-06
2.42785e-06
2.07614e-06
2.87843e-06
1.96719e-06
3.29126e-06
1.80726e-06
3.65178e-06
1.58851e-06
3.94477e-06
1.30372e-06
4.15436e-06
9.45813e-07
4.26397e-06
5.07245e-07
4.25597e-06
-2.09339e-08
4.11137e-06
-6.50303e-07
3.80935e-06
-1.39687e-06
3.3271e-06
-2.28394e-06
2.64119e-06
-3.34717e-06
1.73439e-06
-4.643e-06
6.19456e-07
-6.25712e-06
-6.01071e-07
-8.28541e-06
-1.63772e-06
-1.06939e-05
-1.97859e-06
-1.28877e-05
-1.19768e-06
-1.29444e-05
-7.17441e-06
-5.75901e-07
2.31513e-06
-1.33618e-06
4.40384e-06
-1.88188e-06
4.9429e-06
-2.16452e-06
4.79075e-06
-2.23573e-06
4.38816e-06
-2.15362e-06
3.92325e-06
-1.96467e-06
3.47604e-06
-1.70235e-06
3.07797e-06
-1.3892e-06
2.73806e-06
-1.03951e-06
2.45585e-06
-6.61755e-07
2.22736e-06
-2.60411e-07
2.0475e-06
1.62588e-07
1.91081e-06
6.06731e-07
1.81167e-06
1.072e-06
1.74409e-06
1.55807e-06
1.70168e-06
2.06371e-06
1.67742e-06
2.58624e-06
1.66375e-06
3.12119e-06
1.65259e-06
3.66217e-06
1.63554e-06
4.20077e-06
1.60416e-06
4.7267e-06
1.55021e-06
5.22798e-06
1.46592e-06
5.69115e-06
1.34409e-06
6.10151e-06
1.17815e-06
6.44321e-06
9.62017e-07
6.69925e-06
6.89774e-07
6.85129e-06
3.55199e-07
6.87932e-06
-4.89581e-08
6.76102e-06
-5.32008e-07
6.47109e-06
-1.10693e-06
5.98027e-06
-1.79312e-06
5.25468e-06
-2.62158e-06
4.25702e-06
-3.64534e-06
2.95861e-06
-4.95871e-06
1.38879e-06
-6.71559e-06
-2.37237e-07
-9.0679e-06
-1.35756e-06
-1.17673e-05
-1.21004e-06
-1.30919e-05
-8.38445e-06
-8.7752e-07
3.19265e-06
-1.6958e-06
5.22213e-06
-1.99529e-06
5.24239e-06
-1.89863e-06
4.69409e-06
-1.56419e-06
4.05372e-06
-1.09741e-06
3.45647e-06
-5.63649e-07
2.94228e-06
-2.08214e-09
2.51641e-06
5.65358e-07
2.17062e-06
1.12781e-06
1.8934e-06
1.68125e-06
1.67392e-06
2.22578e-06
1.50297e-06
2.76382e-06
1.37277e-06
3.29893e-06
1.27656e-06
3.83481e-06
1.20821e-06
4.3746e-06
1.16189e-06
4.92024e-06
1.13178e-06
5.47204e-06
1.11195e-06
6.02829e-06
1.09634e-06
6.58507e-06
1.07876e-06
7.13619e-06
1.05304e-06
7.67319e-06
1.0132e-06
8.18556e-06
9.53553e-07
8.66081e-06
8.68831e-07
9.08475e-06
7.54216e-07
9.44149e-06
6.05267e-07
9.71352e-06
4.17746e-07
9.88143e-06
1.87293e-07
9.92353e-06
-9.10568e-08
9.81517e-06
-4.23652e-07
9.52774e-06
-8.19506e-07
9.02725e-06
-1.29262e-06
8.27231e-06
-1.86664e-06
7.21163e-06
-2.58467e-06
5.78409e-06
-3.53116e-06
3.94263e-06
-4.87413e-06
1.77405e-06
-6.89932e-06
-2.20866e-07
-9.77242e-06
-9.96981e-07
-1.23158e-05
-9.38143e-06
-1.31778e-06
4.51043e-06
-1.82025e-06
5.72459e-06
-1.37922e-06
4.80136e-06
-5.23596e-07
3.83847e-06
4.60375e-07
3.06974e-06
1.45273e-06
2.46411e-06
2.4011e-06
1.9939e-06
3.28402e-06
1.63349e-06
4.09677e-06
1.35787e-06
4.84335e-06
1.14682e-06
5.53178e-06
9.85491e-07
6.17166e-06
8.63083e-07
6.77296e-06
7.71477e-07
7.34515e-06
7.04365e-07
7.89676e-06
6.56603e-07
8.43489e-06
6.23755e-07
8.9649e-06
6.01768e-07
9.49008e-06
5.86773e-07
1.00114e-05
5.74975e-07
1.05276e-05
5.62631e-07
1.10345e-05
5.46075e-07
1.1526e-05
5.21777e-07
1.19931e-05
4.86416e-07
1.2425e-05
4.3694e-07
1.28086e-05
3.70587e-07
1.3129e-05
2.84867e-07
1.33693e-05
1.77477e-07
1.35104e-05
4.61362e-08
1.35311e-05
-1.11677e-07
1.34066e-05
-2.99184e-07
1.31082e-05
-5.21102e-07
1.26008e-05
-7.85203e-07
1.18397e-05
-1.10559e-06
1.07651e-05
-1.51006e-06
9.29224e-06
-2.0583e-06
7.30479e-06
-2.88667e-06
4.71629e-06
-4.31082e-06
1.79401e-06
-6.85015e-06
-2.95242e-07
-1.02266e-05
-9.67668e-06
-1.32727e-06
5.8377e-06
-4.20029e-08
4.43933e-06
2.00184e-06
2.75751e-06
3.91755e-06
1.92276e-06
5.57737e-06
1.40992e-06
6.99607e-06
1.04542e-06
8.20237e-06
7.87609e-07
9.22854e-06
6.07316e-07
1.01066e-05
4.79803e-07
1.08652e-05
3.88239e-07
1.15287e-05
3.21989e-07
1.21177e-05
2.74098e-07
1.26494e-05
2.39785e-07
1.31381e-05
2.15631e-07
1.35956e-05
1.9908e-07
1.40313e-05
1.88109e-07
1.4452e-05
1.81005e-07
1.48626e-05
1.76228e-07
1.52652e-05
1.72342e-07
1.56599e-05
1.67973e-07
1.60441e-05
1.61813e-07
1.64133e-05
1.52629e-07
1.67604e-05
1.39284e-07
1.70766e-05
1.20762e-07
1.7351e-05
9.61778e-08
1.75711e-05
6.47738e-08
1.77227e-05
2.58964e-08
1.77899e-05
-2.10545e-08
1.77549e-05
-7.6716e-08
1.75976e-05
-1.41925e-07
1.72946e-05
-2.18016e-07
1.68168e-05
-3.07392e-07
1.6126e-05
-4.14796e-07
1.51661e-05
-5.50241e-07
1.38453e-05
-7.37424e-07
1.19984e-05
-1.03983e-06
9.34631e-06
-1.65871e-06
5.64807e-06
-3.15192e-06
1.56457e-06
-6.14306e-06
-8.11211e-06
5.8377e-06
1.0277e-05
1.30345e-05
1.49573e-05
1.63672e-05
1.74126e-05
1.82002e-05
1.88076e-05
1.92874e-05
1.96756e-05
1.99976e-05
2.02717e-05
2.05115e-05
2.07271e-05
2.09262e-05
2.11143e-05
2.12953e-05
2.14715e-05
2.16439e-05
2.18118e-05
2.19737e-05
2.21263e-05
2.22656e-05
2.23863e-05
2.24825e-05
2.25473e-05
2.25732e-05
2.25521e-05
2.24754e-05
2.23335e-05
2.21155e-05
2.18081e-05
2.13933e-05
2.0843e-05
2.01056e-05
1.90658e-05
1.74071e-05
1.42552e-05
8.11211e-06
)
;

boundaryField
{
    movingWall
    {
        type            calculated;
        value           uniform 0;
    }
    fixedWalls
    {
        type            calculated;
        value           uniform 0;
    }
    frontAndBack
    {
        type            empty;
        value           nonuniform 0();
    }
}


// ************************************************************************* //
