1.45 	0 	0 	0.0054071 	-0.00399234 	3.94229e-21
2.35 	0 	0 	0.121647 	-0.00873181 	1.85777e-21
