1.45 	0 	0 	-0.258234
2.35 	0 	0 	-0.021828
