1.275 	2.15223e-18 	-2.76991e-20 	-0.0344377 	-0.000435343 	-1.91807e-22
1.825 	2.15223e-18 	-1.39322e-20 	-0.00941792 	-0.00276135 	1.69788e-21
2.375 	2.15223e-18 	-2.66896e-23 	0.115439 	-0.00325235 	-7.08331e-22
