1.275 	2.15223e-18 	-2.76991e-20 	-0.0333491 	-0.000473653 	-2.01164e-22
1.825 	2.15223e-18 	-1.39322e-20 	-0.00762325 	-0.0028614 	1.8083e-21
2.375 	2.15223e-18 	-2.66896e-23 	0.120596 	-0.00340337 	-7.54057e-22
