/*--------------------------------*- C++ -*----------------------------------*\
  =========                 |
  \\      /  F ield         | OpenFOAM: The Open Source CFD Toolbox
   \\    /   O peration     | Website:  https://openfoam.org
    \\  /    A nd           | Version:  6.0
     \\/     M anipulation  |
\*---------------------------------------------------------------------------*/
FoamFile
{
    version     2.0;
    format      ascii;
    class       volScalarField;
    location    "1";
    object      p;
}
// * * * * * * * * * * * * * * * * * * * * * * * * * * * * * * * * * * * * * //

dimensions      [0 2 -2 0 0 0 0];

internalField   nonuniform List<scalar> 
2000
(
-0.35884
-0.356729
-0.34767
-0.33381
-0.317036
-0.298767
-0.280348
-0.263028
-0.247995
-0.234994
-0.365172
-0.36242
-0.352996
-0.338902
-0.321903
-0.303349
-0.284528
-0.266625
-0.250813
-0.237259
-0.377633
-0.373607
-0.363466
-0.348909
-0.331455
-0.312331
-0.292714
-0.273667
-0.256331
-0.24168
-0.395971
-0.390064
-0.378863
-0.363613
-0.345476
-0.325491
-0.304684
-0.283947
-0.264365
-0.248076
-0.41983
-0.411457
-0.398864
-0.382699
-0.363647
-0.342509
-0.320124
-0.297171
-0.274645
-0.256159
-0.44874
-0.437347
-0.423049
-0.405752
-0.38556
-0.362988
-0.338654
-0.312988
-0.286851
-0.265569
-0.482117
-0.467196
-0.450911
-0.432284
-0.410739
-0.386472
-0.359865
-0.33107
-0.300711
-0.275924
-0.519245
-0.500364
-0.481856
-0.461724
-0.438628
-0.412418
-0.383228
-0.35088
-0.31553
-0.286135
-0.559272
-0.536116
-0.515224
-0.493469
-0.468698
-0.440394
-0.408353
-0.371798
-0.329919
-0.293759
-0.601179
-0.573604
-0.550275
-0.526914
-0.500645
-0.470751
-0.436778
-0.397373
-0.350782
-0.308396
-0.643785
-0.611829
-0.586069
-0.561122
-0.533625
-0.503106
-0.469758
-0.434231
-0.399939
-0.377042
-0.685801
-0.649669
-0.621435
-0.5946
-0.565299
-0.533177
-0.498722
-0.463326
-0.431069
-0.407185
-0.72595
-0.686
-0.655293
-0.626239
-0.594538
-0.559961
-0.523236
-0.485947
-0.451347
-0.421778
-0.762957
-0.71965
-0.686496
-0.654872
-0.620154
-0.5823
-0.542278
-0.501718
-0.463115
-0.427832
-0.795501
-0.749359
-0.713791
-0.679242
-0.640936
-0.599141
-0.555133
-0.510632
-0.46766
-0.427553
-0.822198
-0.773781
-0.735839
-0.698049
-0.655718
-0.609572
-0.561299
-0.512772
-0.465732
-0.421895
-0.841594
-0.791506
-0.75126
-0.709998
-0.663384
-0.612764
-0.560312
-0.508076
-0.457606
-0.411162
-0.8522
-0.801098
-0.75867
-0.71383
-0.662894
-0.607962
-0.551719
-0.496367
-0.443285
-0.395325
-0.852531
-0.801137
-0.756731
-0.708368
-0.653314
-0.594502
-0.535113
-0.477433
-0.422657
-0.374217
-0.841173
-0.790278
-0.744206
-0.692572
-0.633856
-0.571856
-0.510178
-0.451097
-0.395595
-0.347651
-0.816843
-0.767315
-0.720023
-0.665588
-0.603924
-0.539663
-0.476724
-0.417269
-0.362035
-0.315497
-0.778453
-0.731236
-0.683324
-0.626791
-0.563142
-0.497754
-0.434722
-0.375992
-0.322029
-0.277745
-0.725203
-0.681307
-0.633532
-0.575837
-0.511396
-0.446188
-0.384337
-0.327476
-0.275786
-0.23454
-0.656644
-0.617135
-0.570413
-0.512699
-0.448849
-0.385262
-0.325936
-0.272124
-0.223716
-0.186236
-0.572757
-0.538738
-0.494118
-0.4377
-0.375958
-0.315507
-0.260088
-0.21053
-0.166431
-0.133406
-0.474035
-0.446608
-0.405234
-0.351526
-0.293453
-0.23765
-0.187496
-0.143393
-0.104658
-0.0767754
-0.361538
-0.341763
-0.304808
-0.255236
-0.20234
-0.152593
-0.108949
-0.0714335
-0.0391698
-0.0172479
-0.236949
-0.22577
-0.194359
-0.150257
-0.103894
-0.0614478
-0.0254411
0.0043008
0.0285259
0.0430999
-0.102595
-0.100757
-0.0758484
-0.0383021
0.000515248
0.0347867
0.0622548
0.0827084
0.0960093
0.100711
0.0385625
0.0305964
0.0482996
0.0786265
0.109603
0.135945
0.155513
0.166931
0.168489
0.163343
0.183025
0.165075
0.175057
0.197739
0.221024
0.240628
0.255173
0.263055
0.264594
0.279584
0.327023
0.299143
0.300937
0.31533
0.330257
0.342205
0.350246
0.35368
0.355169
0.369656
0.466756
0.429261
0.422653
0.428365
0.434506
0.438232
0.43894
0.436342
0.433102
0.439996
0.59854
0.551976
0.537051
0.534045
0.531365
0.526813
0.52009
0.511109
0.502066
0.501033
0.718887
0.664017
0.641187
0.629819
0.61871
0.606263
0.592444
0.577295
0.562576
0.554343
0.824594
0.762396
0.732402
0.713426
0.694693
0.675139
0.654956
0.634289
0.61449
0.599902
0.912824
0.844483
0.808369
0.782894
0.757687
0.732129
0.706595
0.681324
0.657281
0.637334
0.981194
0.908072
0.867143
0.836563
0.806298
0.776067
0.746384
0.71756
0.690241
0.666097
1.02785
0.951455
0.907211
0.873127
0.839405
0.805986
0.773474
0.742236
0.712686
0.68565
1.05152
0.973468
0.927541
0.891687
0.856222
0.821191
0.787243
0.754778
0.724095
0.695585
1.05157
0.973521
0.927613
0.891784
0.85634
0.821314
0.787361
0.754886
0.724198
0.695689
1.02798
0.951615
0.907426
0.873415
0.839751
0.80635
0.773826
0.742566
0.713005
0.685969
0.98141
0.908339
0.8675
0.83703
0.806851
0.776655
0.746966
0.718126
0.6908
0.666649
0.913126
0.844859
0.808862
0.783518
0.758414
0.732911
0.707396
0.682127
0.658089
0.638124
0.824998
0.762892
0.733025
0.714182
0.695558
0.676082
0.655946
0.635307
0.615523
0.600904
0.719421
0.664649
0.641943
0.630694
0.619691
0.607337
0.593587
0.578478
0.563781
0.555504
0.599236
0.552768
0.537952
0.535043
0.532456
0.527993
0.521338
0.512397
0.50338
0.502302
0.46764
0.430234
0.423713
0.429496
0.435703
0.43949
0.440237
0.437666
0.434464
0.441315
0.328102
0.300301
0.30216
0.316595
0.33155
0.343513
0.351547
0.354982
0.356509
0.370954
0.184282
0.166401
0.176428
0.199125
0.2224
0.24197
0.256468
0.264322
0.26587
0.280772
0.0399602
0.032057
0.0497901
0.0801136
0.111054
0.137331
0.156828
0.168205
0.169697
0.164432
-0.101096
-0.0991986
-0.0742689
-0.0367377
0.00203008
0.0362288
0.0636199
0.0840287
0.0972888
0.101895
-0.235377
-0.22414
-0.192713
-0.148635
-0.102328
-0.0599497
-0.0240147
0.00567552
0.0298627
0.0443546
-0.359901
-0.340069
-0.3031
-0.253559
-0.200724
-0.151041
-0.107461
-0.0700028
-0.0377859
-0.0159369
-0.472327
-0.444845
-0.403457
-0.349784
-0.291777
-0.236039
-0.185947
-0.141907
-0.103232
-0.0754215
-0.570964
-0.536896
-0.49227
-0.435893
-0.374221
-0.313844
-0.258494
-0.209007
-0.164978
-0.132025
-0.65475
-0.615205
-0.56849
-0.510829
-0.447062
-0.383563
-0.324318
-0.270583
-0.222251
-0.184844
-0.723208
-0.679283
-0.631526
-0.573895
-0.509552
-0.444451
-0.382697
-0.325924
-0.274317
-0.233148
-0.77637
-0.729128
-0.681237
-0.624776
-0.561236
-0.495972
-0.433059
-0.374432
-0.320561
-0.276361
-0.814696
-0.765149
-0.717883
-0.663523
-0.601973
-0.537846
-0.475042
-0.415706
-0.360575
-0.314128
-0.838984
-0.788077
-0.742042
-0.690493
-0.631893
-0.570026
-0.508487
-0.449534
-0.394143
-0.346293
-0.850312
-0.798916
-0.754565
-0.706301
-0.651361
-0.592675
-0.533421
-0.475873
-0.421213
-0.372871
-0.849965
-0.798874
-0.756522
-0.711792
-0.66097
-0.606153
-0.550039
-0.494818
-0.441857
-0.393998
-0.839378
-0.789311
-0.749156
-0.70801
-0.661504
-0.610993
-0.558663
-0.506555
-0.456207
-0.409868
-0.820051
-0.771662
-0.733814
-0.696134
-0.653903
-0.607858
-0.5597
-0.511296
-0.464377
-0.420648
-0.793472
-0.747362
-0.711877
-0.677422
-0.639202
-0.597497
-0.553594
-0.509209
-0.466357
-0.426359
-0.761074
-0.717798
-0.68471
-0.653157
-0.618509
-0.580735
-0.54081
-0.50036
-0.461874
-0.426698
-0.724216
-0.684292
-0.65363
-0.624625
-0.592982
-0.558482
-0.521853
-0.484674
-0.450186
-0.420718
-0.684198
-0.648085
-0.61988
-0.593081
-0.563834
-0.531794
-0.497442
-0.462157
-0.430004
-0.406211
-0.642292
-0.610351
-0.584613
-0.559699
-0.532258
-0.501828
-0.468588
-0.43317
-0.398976
-0.376161
-0.599784
-0.572221
-0.548917
-0.525595
-0.499388
-0.469586
-0.435721
-0.396417
-0.349913
-0.307596
-0.557978
-0.534834
-0.513973
-0.492266
-0.467563
-0.439353
-0.407417
-0.370956
-0.329161
-0.293068
-0.518069
-0.4992
-0.480728
-0.460651
-0.437627
-0.411509
-0.382417
-0.350158
-0.314888
-0.285559
-0.481081
-0.466171
-0.449923
-0.431352
-0.409876
-0.385693
-0.359176
-0.330464
-0.30018
-0.275453
-0.447864
-0.436483
-0.422218
-0.404968
-0.384833
-0.362331
-0.338076
-0.312488
-0.286423
-0.265195
-0.419122
-0.410765
-0.398202
-0.38207
-0.363059
-0.341974
-0.319654
-0.296772
-0.274313
-0.255874
-0.395428
-0.389542
-0.378367
-0.363141
-0.34503
-0.325078
-0.304318
-0.283642
-0.264117
-0.247866
-0.377249
-0.373241
-0.36312
-0.348577
-0.331138
-0.312033
-0.292447
-0.273446
-0.256157
-0.241535
-0.364944
-0.362201
-0.352789
-0.338701
-0.321707
-0.303164
-0.284364
-0.266493
-0.250714
-0.237177
-0.358765
-0.356656
-0.347599
-0.333741
-0.316969
-0.298704
-0.280293
-0.262986
-0.247963
-0.234967
-0.0940192
0.0303288
-0.0040342
0.00442584
0.00047823
0.000982124
0.000655043
0.00055429
0.000351921
0.000160489
-0.0975205
0.0296441
-0.00398778
0.00434466
0.000464203
0.000985974
0.000618761
0.00054788
0.000358878
0.000147965
-0.104309
0.0282775
-0.00388066
0.00419135
0.000443855
0.000962197
0.000573618
0.000526869
0.000351979
0.000135328
-0.114
0.0261866
-0.00371959
0.00397178
0.000421017
0.000909629
0.0005335
0.000493082
0.000330323
0.00012755
-0.125958
0.0233197
-0.00352294
0.00369195
0.000394732
0.000839995
0.0004945
0.000451888
0.000301735
0.000121993
-0.139262
0.0196756
-0.00330865
0.00336168
0.000364867
0.000764469
0.000452157
0.000409202
0.00027334
0.000115647
-0.153237
0.015165
-0.00313053
0.00298304
0.000326165
0.000681637
0.000405855
0.000365069
0.00024525
0.000108749
-0.168782
0.00913554
-0.00315699
0.0025241
0.000263494
0.000586361
0.000354197
0.000319675
0.000217984
0.000101794
-0.185158
0.00104177
-0.00342521
0.00197951
0.000176828
0.000478494
0.00029662
0.000271666
0.000189942
9.44468e-05
-0.188491
-0.00521173
-0.00307289
0.00162878
0.000162038
0.00041701
0.0002664
0.000239274
0.00016745
8.73621e-05
-0.153292
-0.0112352
0.00206015
0.00200515
0.000637597
0.000506664
0.000327332
0.000220407
0.000126107
6.66237e-05
-0.115984
-0.0250013
-0.000766802
0.000495752
0.000127989
0.000273723
0.000265023
0.000198273
0.00011925
5.52639e-05
-0.0791453
-0.0255704
-0.00233243
-8.52853e-06
-7.06185e-05
0.000145597
0.000210462
0.000172545
0.000107898
4.90089e-05
-0.0494784
-0.0213916
-0.0034083
-0.000411366
-0.000189697
5.01965e-05
0.000159104
0.000148439
9.81274e-05
4.38567e-05
-0.0282669
-0.0159142
-0.00370178
-0.000692753
-0.000252605
-6.18818e-06
0.000121567
0.000129088
8.93511e-05
3.89375e-05
-0.0140043
-0.010679
-0.00337976
-0.000838418
-0.000278905
-3.20341e-05
9.67133e-05
0.000113604
8.18379e-05
3.46597e-05
-0.00456097
-0.00631246
-0.00272628
-0.000865136
-0.000282376
-3.95352e-05
8.12163e-05
0.000101569
7.59386e-05
3.11986e-05
0.0014147
-0.00305225
-0.00201999
-0.000820175
-0.000274211
-3.86649e-05
7.20173e-05
9.28832e-05
7.17993e-05
2.86036e-05
0.00492106
-0.000913728
-0.00145687
-0.000756032
-0.000263471
-3.60558e-05
6.64902e-05
8.71289e-05
6.93543e-05
2.70409e-05
0.00653385
0.000141523
-0.00115155
-0.000714841
-0.00025729
-3.49078e-05
6.32948e-05
8.39054e-05
6.80064e-05
2.63271e-05
-0.190809
-0.20764
-0.221696
-0.233395
-0.243268
-0.251894
-0.25984
-0.267604
-0.275546
-0.285097
-0.0676784
-0.076579
-0.0844432
-0.0912679
-0.0970614
-0.101854
-0.105717
-0.108794
-0.111379
-0.114935
-0.0182081
-0.0237024
-0.028806
-0.0335467
-0.0379102
-0.0418704
-0.0454266
-0.0485793
-0.0513366
-0.0541102
0.00308754
-0.000874802
-0.00460458
-0.00811105
-0.0113847
-0.0144217
-0.0172235
-0.0197863
-0.022105
-0.0243931
0.0147258
0.0118718
0.00913532
0.00655506
0.00410338
0.00175043
-0.000506344
-0.00266248
-0.00470754
-0.00676742
0.0192571
0.017102
0.0150187
0.0129962
0.0110369
0.00914843
0.00733375
0.00559689
0.00394655
0.00229383
0.0218632
0.0201887
0.0185501
0.0169477
0.0153826
0.0138571
0.0123739
0.0109375
0.00955495
0.0081668
0.0228456
0.0214697
0.0201103
0.0187703
0.0174583
0.016182
0.0149433
0.0137431
0.0125841
0.0114233
0.0233076
0.0221284
0.0209625
0.0198105
0.0186785
0.0175702
0.0164867
0.0154298
0.0144017
0.0133709
0.0234603
0.022364
0.0212852
0.0202337
0.0192014
0.0181824
0.0171782
0.0161903
0.0152222
0.0142488
0.129926
0.0909578
0.0510562
0.0131699
-0.0233974
-0.0585303
-0.0913108
-0.121122
-0.147678
-0.170889
0.0951807
0.0705348
0.0468215
0.0270663
0.00974134
-0.00626505
-0.021041
-0.0345029
-0.0466994
-0.0577324
0.070124
0.0564725
0.0443019
0.0341435
0.0250215
0.0164463
0.00840698
0.000958343
-0.00592203
-0.0122928
0.0585259
0.050782
0.0438907
0.0378747
0.0322232
0.0267483
0.0214861
0.0164874
0.0117622
0.00729861
0.0507696
0.0461032
0.041848
0.037982
0.0342817
0.0306873
0.0272174
0.0238917
0.0207098
0.0176629
0.0446713
0.0416433
0.0387931
0.0361612
0.0336123
0.0310877
0.0285987
0.0261643
0.0237938
0.0214899
0.0401806
0.038159
0.0362031
0.0343466
0.0325263
0.0307055
0.0288892
0.0270902
0.0253166
0.0235732
0.0370074
0.0355629
0.034123
0.0327102
0.0313036
0.0298888
0.0284685
0.0270494
0.025637
0.0242351
0.0350562
0.0339418
0.0328017
0.0316459
0.0304759
0.0292932
0.0281006
0.0269015
0.0257
0.0245001
0.0341075
0.0331425
0.0321428
0.0311005
0.0300321
0.0289517
0.0278623
0.0267657
0.0256643
0.0245614
0.308038
0.307191
0.305268
0.301731
0.295797
0.286251
0.271361
0.248817
0.216173
0.170055
0.226268
0.225088
0.222314
0.217505
0.210331
0.200371
0.187066
0.169787
0.147871
0.12075
0.164674
0.163593
0.161041
0.156708
0.150506
0.142358
0.132121
0.119641
0.10461
0.0871648
0.12151
0.120704
0.11879
0.115547
0.110964
0.105077
0.0978987
0.0894497
0.0796689
0.0688504
0.0922147
0.0916555
0.090321
0.0880577
0.0848797
0.0808471
0.076009
0.0704188
0.064077
0.057187
0.0725586
0.0721739
0.0712522
0.0696891
0.0675018
0.0647417
0.061453
0.057679
0.0534346
0.0488461
0.059537
0.0592687
0.0586255
0.0575328
0.0560022
0.0540723
0.0517767
0.0491464
0.0461963
0.0429977
0.0511608
0.0509638
0.0504927
0.0496944
0.0485767
0.0471656
0.045484
0.0435531
0.0413867
0.0390262
0.0461883
0.0460339
0.0456622
0.0450329
0.0441535
0.0430429
0.0417176
0.0401927
0.0384823
0.0366136
0.0438784
0.0437443
0.0434216
0.0428731
0.0421035
0.0411289
0.0399641
0.0386222
0.0371154
0.0354618
0.454328
0.456497
0.463317
0.475109
0.491803
0.51363
0.540847
0.573665
0.612281
0.656887
0.452018
0.454121
0.460801
0.472371
0.488772
0.510213
0.536905
0.568968
0.606412
0.649239
0.447472
0.449464
0.4559
0.467056
0.482869
0.503522
0.529157
0.559727
0.594873
0.634223
0.44083
0.442688
0.448797
0.459364
0.474301
0.49375
0.517767
0.546095
0.577865
0.612182
0.432279
0.434003
0.439734
0.449567
0.463366
0.4812
0.503016
0.52833
0.555685
0.583593
0.422034
0.423648
0.428979
0.437977
0.450428
0.466277
0.485308
0.506803
0.528718
0.549015
0.410319
0.411904
0.416866
0.424991
0.435973
0.449555
0.465266
0.482098
0.497499
0.50908
0.397358
0.399117
0.403873
0.411243
0.420817
0.432063
0.444102
0.455432
0.462998
0.464288
0.383194
0.3854
0.390186
0.396998
0.405351
0.414385
0.422668
0.42789
0.426188
0.41369
0.367548
0.369867
0.374208
0.379875
0.386353
0.392577
0.396716
0.395818
0.385705
0.358183
0.367353
0.369723
0.374137
0.379865
0.386386
0.392648
0.396857
0.396092
0.386196
0.359041
0.383028
0.385284
0.390139
0.39701
0.405408
0.414486
0.422852
0.428232
0.426786
0.414703
0.39724
0.399037
0.403847
0.411269
0.420893
0.4322
0.44434
0.455841
0.463675
0.465363
0.410241
0.411859
0.416866
0.425037
0.436074
0.449731
0.465552
0.482552
0.49821
0.510144
0.421987
0.423638
0.429014
0.438054
0.450559
0.466482
0.485618
0.50727
0.529417
0.550011
0.432251
0.434015
0.4398
0.449681
0.463526
0.481419
0.503324
0.528773
0.556328
0.58447
0.44081
0.442711
0.448885
0.459508
0.474483
0.49397
0.518055
0.54649
0.578414
0.612896
0.447457
0.449489
0.45599
0.467207
0.48305
0.503723
0.529403
0.560047
0.595294
0.634741
0.452009
0.45414
0.460871
0.472489
0.48891
0.510359
0.537075
0.56918
0.606677
0.64955
0.454324
0.456504
0.463344
0.475153
0.491856
0.513685
0.540908
0.573739
0.612371
0.65699
0.0430162
0.04288
0.0425516
0.0419912
0.0412021
0.0402033
0.0390124
0.0376436
0.0361092
0.0344259
0.0453757
0.0452223
0.0448479
0.0442084
0.0433119
0.0421796
0.0408303
0.039281
0.037546
0.0356513
0.0503987
0.0502007
0.0497248
0.0489209
0.0478025
0.0463965
0.044724
0.042805
0.0406529
0.038307
0.0588342
0.0585606
0.0579129
0.0568258
0.055314
0.0534114
0.0511476
0.0485524
0.0456413
0.0424861
0.0719631
0.0715785
0.0706647
0.069121
0.0669608
0.0642284
0.0609636
0.0572091
0.052979
0.0483979
0.0917263
0.0911699
0.0898485
0.0876081
0.0844552
0.0804447
0.0756228
0.0700417
0.0637034
0.0568132
0.121112
0.120306
0.118396
0.11516
0.110587
0.104711
0.0975453
0.0891108
0.079345
0.0685383
0.164358
0.163279
0.160729
0.156397
0.150196
0.142054
0.131831
0.119373
0.104377
0.0869796
0.226011
0.224831
0.222063
0.217263
0.2101
0.200152
0.186864
0.169608
0.147718
0.120623
0.307838
0.307015
0.305124
0.30162
0.29572
0.286211
0.271368
0.248887
0.216318
0.170256
0.0330432
0.0320681
0.0310853
0.0300882
0.0290779
0.0280546
0.0270215
0.0259814
0.0249376
0.0238929
0.0340844
0.0329905
0.0318906
0.0307818
0.0296636
0.0285335
0.0273935
0.0262466
0.025096
0.023945
0.0363044
0.0348816
0.0334639
0.0320668
0.0306744
0.0292764
0.0278756
0.0264772
0.0250863
0.0237067
0.0397117
0.0377175
0.0357674
0.0338976
0.0320606
0.0302316
0.0284146
0.0266181
0.0248479
0.0231072
0.0442487
0.0412631
0.0384474
0.035825
0.0332767
0.0307546
0.0282678
0.025832
0.0234551
0.0211413
0.0503918
0.0457255
0.0414859
0.0376563
0.0339826
0.0303824
0.0268814
0.0235115
0.0202845
0.0172014
0.0582434
0.0505371
0.0436683
0.0376419
0.0319565
0.0264441
0.0211506
0.0161321
0.0113992
0.00693829
0.0699709
0.0563009
0.0440703
0.0338592
0.0247153
0.0161594
0.00816626
0.000769408
-0.00607094
-0.0124237
0.0950344
0.0703283
0.0465867
0.0268799
0.00965097
-0.00624444
-0.0209151
-0.0342921
-0.0464304
-0.0574304
0.130194
0.0913734
0.0517106
0.0139644
-0.022516
-0.0575849
-0.0903227
-0.120118
-0.146681
-0.169913
0.0228501
0.0218117
0.0207801
0.0197577
0.0187464
0.0177478
0.0167635
0.0157941
0.0148408
0.0138837
0.0227963
0.021653
0.020518
0.0193945
0.0182854
0.0171937
0.0161225
0.0150746
0.014054
0.0130363
0.0223417
0.0209947
0.0196691
0.0183681
0.0170943
0.0158504
0.0146382
0.0134594
0.0123168
0.0111722
0.021399
0.0197267
0.0180936
0.0165029
0.0149575
0.0134596
0.0120107
0.0106124
0.00926685
0.00791341
0.0188945
0.016719
0.0146185
0.0125956
0.0106517
0.00878769
0.00700358
0.00530081
0.00368444
0.00206503
0.0142597
0.0114549
0.00878061
0.00622866
0.00379069
0.00145929
-0.000770861
-0.00289972
-0.00491892
-0.00695397
0.00273299
-0.0012282
-0.00495192
-0.00844092
-0.0116949
-0.0147118
-0.0174894
-0.0200234
-0.0223081
-0.0245581
-0.0183398
-0.0238448
-0.0289498
-0.0336598
-0.0379776
-0.0419045
-0.0454395
-0.0485753
-0.0513139
-0.0540654
-0.0673592
-0.0762471
-0.0841048
-0.0909337
-0.0967383
-0.101544
-0.105423
-0.108521
-0.111129
-0.114704
-0.189855
-0.206699
-0.220775
-0.232519
-0.242446
-0.251118
-0.259102
-0.266901
-0.27489
-0.284527
0.00659185
0.000279736
-0.000919024
-0.000573612
-0.000185462
7.17618e-06
7.50125e-05
8.27903e-05
6.11995e-05
1.78464e-05
0.00496835
-0.00077933
-0.00124108
-0.00062413
-0.000196717
3.03178e-06
7.65949e-05
8.22818e-05
6.22062e-05
2.158e-05
0.0014653
-0.00292828
-0.0018336
-0.000705929
-0.000217276
-5.93731e-06
7.80458e-05
8.42008e-05
6.59224e-05
2.51641e-05
-0.00449793
-0.00620367
-0.00257549
-0.000776883
-0.000238989
-1.52022e-05
8.33901e-05
8.98586e-05
6.75562e-05
2.65456e-05
-0.0139446
-0.0105939
-0.00327188
-0.00078363
-0.000252866
-1.67162e-05
9.30631e-05
9.45539e-05
6.73507e-05
2.88792e-05
-0.0282293
-0.015866
-0.00364508
-0.000674128
-0.000250541
-4.0836e-06
0.000109637
9.99379e-05
6.99264e-05
3.37257e-05
-0.0494663
-0.0213968
-0.00341909
-0.000430917
-0.00021607
3.48352e-05
0.000139755
0.000109776
7.59737e-05
4.04339e-05
-0.0791647
-0.0256353
-0.0024138
-6.6632e-05
-0.00012544
0.000112637
0.000185428
0.000124384
8.36769e-05
4.86537e-05
-0.116069
-0.0251177
-0.000893391
0.000412606
5.21732e-05
0.000224638
0.000233943
0.00014403
9.28484e-05
5.80684e-05
-0.153469
-0.01139
0.00191233
0.00191203
0.000558837
0.000451608
0.000285221
0.000163187
0.00010621
6.93441e-05
-0.18838
-0.00524036
-0.00308689
0.00163324
0.000145654
0.000365197
0.000236132
0.00019897
0.000140312
9.1726e-05
-0.184979
0.00103797
-0.00342582
0.00199589
0.000171237
0.000423209
0.000273186
0.000232896
0.000159899
0.000100907
-0.168589
0.00913745
-0.00316998
0.00253416
0.000259875
0.000522788
0.000339084
0.000278297
0.000183889
0.000111338
-0.153058
0.0151774
-0.00314869
0.00298841
0.000324916
0.000609943
0.000400372
0.000320863
0.000206448
0.000121609
-0.139096
0.0197057
-0.00331969
0.00336704
0.000367789
0.000685213
0.000458535
0.000363078
0.000229215
0.000132326
-0.125811
0.0233666
-0.00352013
0.00369863
0.000400962
0.000752219
0.000514367
0.00040396
0.000251241
0.000143152
-0.113875
0.0262485
-0.00369891
0.00398073
0.000429194
0.000812053
0.000568912
0.000443503
0.000272058
0.000154091
-0.104212
0.0283484
-0.00384569
0.00420271
0.000454174
0.000864118
0.000622086
0.000481442
0.000291331
0.000165142
-0.0974575
0.029701
-0.00395448
0.00435462
0.000472815
0.000910364
0.000660323
0.000515507
0.000311145
0.000171694
-0.0939971
0.0303491
-0.00402069
0.00442962
0.000480974
0.000953206
0.000670021
0.000542178
0.000333582
0.000169151
)
;

boundaryField
{
    inlet
    {
        type            zeroGradient;
    }
    outlet
    {
        type            fixedValue;
        value           uniform 0;
    }
    cylinder
    {
        type            zeroGradient;
    }
    top
    {
        type            symmetryPlane;
    }
    bottom
    {
        type            symmetryPlane;
    }
    defaultFaces
    {
        type            empty;
    }
}


// ************************************************************************* //
