/*--------------------------------*- C++ -*----------------------------------*\
  =========                 |
  \\      /  F ield         | OpenFOAM: The Open Source CFD Toolbox
   \\    /   O peration     | Website:  https://openfoam.org
    \\  /    A nd           | Version:  6.0
     \\/     M anipulation  |
\*---------------------------------------------------------------------------*/
FoamFile
{
    version     2.0;
    format      ascii;
    class       volVectorField;
    location    "1";
    object      U;
}
// * * * * * * * * * * * * * * * * * * * * * * * * * * * * * * * * * * * * * //

dimensions      [0 1 -1 0 0 0 0];

internalField   nonuniform List<vector> 
2000
(
(-0.00219316 0.00114094 5.91996e-20)
(-0.00422487 -4.77524e-05 6.86539e-20)
(-0.00131007 -0.00331041 -6.39614e-20)
(0.00917634 -0.00773868 -1.24358e-19)
(0.0276864 -0.0126952 -8.1572e-20)
(0.0535216 -0.0176923 1.04933e-19)
(0.0854693 -0.0223169 5.4923e-20)
(0.121967 -0.0261808 -2.40864e-20)
(0.16094 -0.0289036 -5.30613e-20)
(0.200206 -0.0300173 3.60194e-20)
(-0.0024171 0.0033403 -1.47827e-19)
(-0.00358201 -0.000213312 1.99421e-19)
(0.00117875 -0.00985537 1.32866e-20)
(0.0139637 -0.0229071 -1.06351e-19)
(0.034906 -0.0374994 4.96178e-19)
(0.0630939 -0.052205 -2.0881e-19)
(0.0971503 -0.0658117 -2.09258e-19)
(0.135402 -0.0771834 2.44577e-19)
(0.175721 -0.0851968 -2.22015e-19)
(0.215666 -0.0884923 1.14806e-19)
(-0.0027771 0.00508933 2.51116e-20)
(-0.00212218 -0.00117234 1.1998e-20)
(0.00634677 -0.0170849 5.92812e-19)
(0.0236994 -0.0383687 1.97305e-19)
(0.0494397 -0.0620346 3.64659e-20)
(0.0822404 -0.0858016 2.93913e-19)
(0.120412 -0.10774 -5.38179e-19)
(0.162069 -0.126039 1.09469e-20)
(0.204988 -0.138884 -2.93997e-19)
(0.246237 -0.144138 2.82214e-19)
(-0.0031014 0.00612344 -4.79512e-20)
(0.000506347 -0.00337876 2.69994e-19)
(0.0145852 -0.0253645 -7.66824e-19)
(0.0387129 -0.0542298 -8.83619e-20)
(0.0714914 -0.0860448 -5.14639e-19)
(0.110996 -0.117813 5.16094e-19)
(0.155092 -0.147021 -5.28442e-19)
(0.201604 -0.171302 3.58474e-19)
(0.248191 -0.188234 1.44915e-19)
(0.291246 -0.195084 -1.33887e-19)
(-0.00313786 0.00622937 -5.52538e-19)
(0.00481323 -0.00717236 1.32965e-20)
(0.0264588 -0.0349263 9.77147e-19)
(0.0594916 -0.0704658 2.65097e-19)
(0.101372 -0.109158 -8.65812e-19)
(0.149424 -0.147477 5.3549e-19)
(0.200969 -0.182502 5.41e-19)
(0.253491 -0.211476 -4.71176e-19)
(0.304543 -0.231492 3.21719e-19)
(0.349735 -0.239451 8.06204e-20)
(-0.00256998 0.00526365 7.44053e-20)
(0.0114425 -0.0127504 1.28376e-20)
(0.0426855 -0.0458293 -1.3038e-18)
(0.0866541 -0.0868844 -6.98108e-19)
(0.139479 -0.130861 8.06681e-19)
(0.197618 -0.173921 -9.17102e-19)
(0.257781 -0.212951 9.92999e-19)
(0.317098 -0.245012 -1.00844e-19)
(0.373066 -0.266876 -2.69008e-19)
(0.420511 -0.275353 -6.88649e-19)
(-0.00102853 0.0031585 -1.77089e-19)
(0.0211355 -0.0201376 -3.21817e-19)
(0.0640831 -0.0579312 -3.8567e-19)
(0.1209 -0.103104 7.91094e-19)
(0.186259 -0.150487 1.41069e-18)
(0.25568 -0.196165 -2.98552e-19)
(0.325231 -0.237071 -6.1812e-19)
(0.391707 -0.270336 1.92339e-19)
(0.452662 -0.292619 -1.0757e-18)
(0.50226 -0.300928 1.14184e-18)
(0.00188834 -6.5085e-05 1.09044e-18)
(0.0346795 -0.0291669 -6.0775e-19)
(0.0914962 -0.0708696 1.12296e-18)
(0.162922 -0.118551 -1.81108e-18)
(0.242116 -0.167232 -8.35125e-19)
(0.32363 -0.213152 -1.1226e-18)
(0.402898 -0.253516 3.43433e-19)
(0.476433 -0.285798 -7.90297e-19)
(0.542022 -0.306784 1.72893e-18)
(0.593514 -0.314022 4.22366e-19)
(0.00658789 -0.0042876 9.48561e-20)
(0.0528357 -0.0394647 9.81875e-19)
(0.125693 -0.0840646 1.94721e-18)
(0.213294 -0.132492 5.65612e-19)
(0.307314 -0.180246 1.67274e-18)
(0.401361 -0.223881 8.12251e-20)
(0.490263 -0.261006 3.82788e-20)
(0.570257 -0.289564 6.37536e-19)
(0.639493 -0.306637 4.27732e-19)
(0.692183 -0.311011 -1.41906e-18)
(0.01344 -0.00927894 -6.72316e-19)
(0.076233 -0.0504437 -1.11983e-18)
(0.167213 -0.0967446 -1.59747e-18)
(0.272299 -0.14414 4.9984e-20)
(0.381865 -0.188877 -7.79351e-19)
(0.488772 -0.22793 1.21354e-18)
(0.587446 -0.259239 -3.2233e-18)
(0.673904 -0.281004 1.43252e-18)
(0.746186 -0.290713 4.62022e-19)
(0.799565 -0.289611 1.38657e-18)
(0.022717 -0.0146859 3.38093e-19)
(0.105223 -0.0612909 -1.30706e-18)
(0.216121 -0.107941 1.16283e-18)
(0.339509 -0.152681 -4.44357e-19)
(0.464803 -0.192841 4.83091e-19)
(0.584585 -0.226012 9.97463e-19)
(0.693685 -0.250459 -1.33973e-18)
(0.789108 -0.264596 1.26212e-19)
(0.869864 -0.267333 -5.99191e-19)
(0.934774 -0.263423 8.87352e-19)
(0.0345449 -0.0200301 4.94639e-19)
(0.139785 -0.0709463 -1.21004e-18)
(0.271856 -0.116379 1.64486e-18)
(0.413462 -0.156957 -1.00603e-18)
(0.553312 -0.191495 -3.79953e-19)
(0.683848 -0.218626 2.23361e-19)
(0.800209 -0.237541 1.32731e-19)
(0.899861 -0.247777 1.37926e-18)
(0.98168 -0.249859 3.65029e-19)
(1.04354 -0.247553 1.39353e-18)
(0.0489056 -0.0247421 -4.46217e-19)
(0.179579 -0.0781451 1.57612e-18)
(0.333478 -0.120444 -1.32172e-18)
(0.492432 -0.155166 -1.53393e-18)
(0.644765 -0.182806 2.13251e-18)
(0.783001 -0.203108 -1.56241e-18)
(0.902684 -0.216151 4.16797e-19)
(1.00176 -0.222261 -2.20549e-18)
(1.07945 -0.222359 1.62134e-18)
(1.13423 -0.218597 6.2127e-20)
(0.0656553 -0.0282322 -5.8477e-19)
(0.223988 -0.0816024 -5.67055e-19)
(0.39977 -0.118545 -1.22334e-18)
(0.574594 -0.14565 1.48183e-18)
(0.736882 -0.165152 -6.99256e-20)
(0.879661 -0.177876 9.23023e-19)
(0.999272 -0.18464 1.59942e-18)
(1.09455 -0.186232 -4.93421e-19)
(1.16563 -0.18348 -1.51131e-18)
(1.21216 -0.177468 2.98973e-18)
(0.084535 -0.0299424 -3.00856e-19)
(0.272132 -0.0801491 -3.63144e-19)
(0.469225 -0.109334 6.65373e-19)
(0.65793 -0.127158 -1.22933e-18)
(0.827368 -0.137553 2.16406e-19)
(0.971593 -0.142305 1.84007e-19)
(1.0882 -0.142783 6.7873e-20)
(1.17732 -0.13999 -4.72082e-20)
(1.24032 -0.134492 -2.1217e-19)
(1.2782 -0.126728 -2.56387e-18)
(0.105175 -0.0293755 1.22461e-18)
(0.322881 -0.0728195 -8.6099e-19)
(0.540065 -0.0918193 1.00283e-20)
(0.740217 -0.0989628 -1.33181e-18)
(0.913841 -0.0997046 -4.61482e-19)
(1.05657 -0.0965877 4.44291e-19)
(1.16768 -0.0912934 3.10657e-19)
(1.24887 -0.0848141 -1.12138e-18)
(1.30293 -0.0773299 8.40859e-19)
(1.33213 -0.068852 -1.11215e-18)
(0.127098 -0.0261161 5.23293e-19)
(0.374881 -0.0589094 -4.71917e-19)
(0.610287 -0.0654431 1.98793e-18)
(0.819099 -0.0609026 2.03476e-19)
(0.993909 -0.0519546 4.64746e-19)
(1.13245 -0.0415961 2.00799e-18)
(1.23603 -0.0315328 -3.23806e-19)
(1.3081 -0.0224994 2.3617e-19)
(1.35285 -0.0141611 7.45435e-20)
(1.37371 -0.0062081 -1.43519e-19)
(0.14972 -0.0198499 3.60333e-19)
(0.426599 -0.0380172 8.90515e-19)
(0.677747 -0.0301111 -9.687e-19)
(0.89219 -0.013376 -3.25753e-19)
(1.06529 0.0047674 -3.95852e-19)
(1.19733 0.021263 6.06714e-19)
(1.29186 0.0347161 -3.02238e-19)
(1.35415 0.0449048 8.0276e-19)
(1.38967 0.0528051 2.494e-19)
(1.40286 0.0589962 -4.22661e-19)
(0.172363 -0.0103833 -3.89848e-19)
(0.476367 -0.010077 3.50134e-19)
(0.740254 0.0137938 -7.58176e-19)
(0.957196 0.0426886 3.27723e-19)
(1.12592 0.0690325 -3.39275e-19)
(1.2496 0.0901804 -4.14471e-19)
(1.33414 0.105407 -3.20514e-19)
(1.38651 0.115247 3.5289e-19)
(1.41332 0.121421 -6.38869e-19)
(1.4198 0.124745 4.00185e-19)
(0.194276 0.00233491 -1.36883e-19)
(0.522461 0.0246186 -2.74393e-19)
(0.795674 0.065418 1.3174e-19)
(1.01203 0.105884 8.25858e-21)
(1.1741 0.139007 1.09799e-19)
(1.28811 0.163066 1.46121e-19)
(1.36225 0.178356 1.30744e-19)
(1.40507 0.186379 -1.73852e-19)
(1.42403 0.189663 1.41874e-19)
(1.42498 0.189231 -2.24196e-19)
(0.214659 0.0181955 -7.80697e-20)
(0.56317 0.0654073 -2.93198e-20)
(0.842041 0.123463 1.21193e-19)
(1.05494 0.174392 -5.58665e-20)
(1.20854 0.21255 1.46626e-19)
(1.31213 0.237659 -1.88104e-19)
(1.37604 0.251347 4.47237e-20)
(1.41009 0.256237 4.61549e-20)
(1.42235 0.255677 -1.7375e-20)
(1.41911 0.250863 7.0626e-20)
(0.232698 0.0369141 -8.14876e-20)
(0.596884 0.111259 -3.87229e-19)
(0.877649 0.186226 -2.85593e-20)
(1.08456 0.246061 8.17243e-21)
(1.22842 0.287315 -5.08881e-19)
(1.32144 0.31163 6.69232e-20)
(1.37577 0.322215 -5.7388e-20)
(1.4022 0.322894 -1.34842e-19)
(1.40912 0.317799 2.75725e-19)
(1.40305 0.308264 -5.08877e-19)
(0.247603 0.0580229 -3.88154e-20)
(0.622174 0.160796 7.84185e-19)
(0.901146 0.251663 1.29416e-19)
(1.09998 0.318498 -6.99598e-19)
(1.23345 0.360844 -5.91603e-20)
(1.31629 0.382665 -6.69189e-19)
(1.36213 0.388905 4.89268e-19)
(1.38233 0.384595 -1.75759e-19)
(1.38537 0.374564 3.15333e-19)
(1.37787 0.360256 -2.3457e-19)
(0.258652 0.0808718 -2.53338e-19)
(0.637873 0.212327 2.5041e-19)
(0.911607 0.317458 -1.80514e-19)
(1.10084 0.38916 1.37644e-18)
(1.22384 0.430665 6.80804e-19)
(1.29741 0.448541 -1.56778e-19)
(1.33616 0.449524 5.40433e-19)
(1.3517 0.439776 -3.50577e-19)
(1.35236 0.424701 -9.49388e-20)
(1.34473 0.405838 6.70572e-19)
(0.265235 0.10464 -4.42872e-19)
(0.643152 0.263905 5.76658e-19)
(0.908585 0.381122 -1.15492e-18)
(1.08727 0.455458 1.65693e-19)
(1.20029 0.494375 3.76861e-19)
(1.26592 0.507186 -5.61054e-19)
(1.29924 0.502366 -6.91941e-19)
(1.31176 0.487067 3.16561e-19)
(1.31151 0.467111 -3.78941e-19)
(1.30495 0.44415 5.05617e-19)
(0.266892 0.128357 -1.10664e-19)
(0.637571 0.313406 -5.93424e-19)
(0.892134 0.440089 3.25285e-19)
(1.05992 0.514856 5.80694e-19)
(1.16395 0.549714 -3.42817e-19)
(1.22328 0.556717 -2.66632e-19)
(1.25298 0.54592 -2.08635e-19)
(1.26416 0.525265 -9.42764e-20)
(1.26437 0.500819 5.65802e-21)
(1.2599 0.474414 2.80184e-19)
(0.263356 0.150939 9.31785e-20)
(0.621122 0.358618 -5.395e-19)
(0.862815 0.49184 9.1811e-19)
(1.01989 0.564975 -5.36373e-19)
(1.11632 0.594648 1.94054e-19)
(1.17124 0.59548 -2.59174e-19)
(1.19922 0.578873 2.80667e-19)
(1.21064 0.553316 1.22895e-19)
(1.21256 0.524906 9.39527e-20)
(1.21105 0.495806 -1.56895e-19)
(0.254585 0.171241 -2.53912e-19)
(0.594255 0.397357 5.24e-19)
(0.821667 0.534023 -1.39555e-20)
(0.968681 0.603707 -1.41139e-19)
(1.05918 0.62744 -2.45396e-19)
(1.11171 0.622111 4.9022e-20)
(1.13991 0.600172 -1.10297e-19)
(1.15318 0.570377 -3.60337e-20)
(1.15802 0.538562 2.60577e-20)
(1.16037 0.507466 8.53745e-20)
(0.240792 0.188121 1.6658e-19)
(0.557878 0.427597 -1.28984e-19)
(0.770151 0.564582 -5.98964e-20)
(0.908067 0.629284 2.48062e-19)
(0.994416 0.64666 -1.47129e-19)
(1.04664 0.635459 -2.60995e-20)
(1.07708 0.608885 -1.86805e-19)
(1.09405 0.575691 -9.59109e-20)
(1.1036 0.541041 -1.30121e-19)
(1.11097 0.508703 9.15537e-20)
(0.222466 0.200533 -8.64721e-21)
(0.513329 0.447623 -5.10678e-20)
(0.710067 0.58191 5.58903e-20)
(0.839937 0.640408 -1.78441e-19)
(0.923738 0.651216 3.51854e-20)
(0.977382 0.634371 3.85014e-19)
(1.01187 0.603458 -1.19837e-19)
(1.03451 0.56695 1.31939e-19)
(1.05115 0.529288 2.14253e-19)
(1.06495 0.497111 7.99595e-19)
(0.200375 0.207633 5.43795e-19)
(0.462361 0.456206 -3.45139e-19)
(0.643532 0.585071 8.93237e-19)
(0.766277 0.636611 -1.50937e-19)
(0.848558 0.641025 8.08019e-19)
(0.904395 0.618811 5.12714e-19)
(0.943404 0.583217 -1.20045e-18)
(0.972268 0.541348 1.86131e-18)
(0.995682 0.495592 -4.01608e-19)
(1.01101 0.449076 8.05457e-19)
(0.17554 0.20884 -3.07908e-19)
(0.407115 0.452654 -2.36743e-19)
(0.573074 0.573823 2.54434e-19)
(0.689529 0.618386 -5.56221e-19)
(0.770843 0.617659 -1.75552e-18)
(0.828735 0.592164 -7.22614e-19)
(0.871289 0.554848 -6.38862e-19)
(0.904181 0.512844 3.23203e-19)
(0.930514 0.469506 2.65669e-18)
(0.947055 0.429121 -5.48978e-19)
(0.149163 0.203832 1.78888e-19)
(0.350022 0.436694 -7.43156e-19)
(0.501615 0.548216 1.60309e-19)
(0.612851 0.586099 -1.17023e-18)
(0.694092 0.581667 2.54573e-18)
(0.754646 0.554878 -3.05033e-19)
(0.801046 0.518055 1.41008e-18)
(0.837938 0.477949 -2.01795e-18)
(0.867772 0.437956 6.38147e-19)
(0.888506 0.401795 1.01474e-19)
(0.122514 0.192539 1.33767e-19)
(0.293553 0.408457 8.11384e-19)
(0.432017 0.50861 -2.41436e-18)
(0.539148 0.5402 1.16671e-18)
(0.621176 0.533372 3.81834e-21)
(0.685032 0.506894 -3.95504e-19)
(0.735794 0.472137 5.11885e-19)
(0.777236 0.435257 -4.98426e-19)
(0.811468 0.399327 -1.71904e-18)
(0.837205 0.367224 -4.81466e-19)
(0.0968505 0.175136 4.49915e-19)
(0.240083 0.368489 5.04143e-19)
(0.366937 0.455772 2.07165e-18)
(0.470988 0.481493 -1.15671e-18)
(0.554415 0.473456 2.3856e-18)
(0.621895 0.448636 -5.11776e-19)
(0.677182 0.417144 -5.3892e-19)
(0.723289 0.384382 6.45517e-19)
(0.762081 0.352978 4.22771e-19)
(0.792813 0.325032 1.52506e-18)
(0.073367 0.152047 -4.62389e-19)
(0.191808 0.317755 1.52964e-19)
(0.308775 0.39089 4.30998e-20)
(0.410619 0.411177 1.18884e-18)
(0.495769 0.402998 -2.96557e-18)
(0.566857 0.381001 5.06277e-19)
(0.626467 0.353786 1.11321e-18)
(0.676959 0.325887 -1.34555e-18)
(0.719993 0.299436 4.76041e-19)
(0.755345 0.275886 -2.20766e-18)
(0.053144 0.123928 9.90136e-20)
(0.150673 0.257608 5.32486e-19)
(0.259614 0.315552 2.07016e-19)
(0.359955 0.33082 2.8137e-19)
(0.446866 0.323425 5.36636e-19)
(0.521234 0.30524 1.59644e-18)
(0.58466 0.283154 -1.95441e-18)
(0.638958 0.260755 -1.1015e-18)
(0.685633 0.239673 1.80764e-19)
(0.72497 0.220855 1.43646e-18)
(0.037108 0.0916466 -6.00034e-19)
(0.118317 0.189745 -7.02486e-20)
(0.221179 0.231694 -5.94169e-19)
(0.320557 0.242309 8.57625e-20)
(0.409021 0.236459 -5.07503e-19)
(0.486081 0.222885 -5.80496e-19)
(0.552573 0.206612 -8.67e-19)
(0.60989 0.190231 2.33272e-18)
(0.659426 0.174889 4.02279e-19)
(0.701922 0.161151 -6.132e-19)
(0.0259928 0.056253 3.24018e-19)
(0.0960161 0.116153 4.27389e-19)
(0.194802 0.141537 1.67322e-19)
(0.29362 0.147785 -9.06064e-19)
(0.383232 0.14405 -4.21358e-19)
(0.462198 0.135677 -9.09777e-20)
(0.53083 0.12572 1.77128e-19)
(0.590234 0.115745 1.42811e-19)
(0.641737 0.106427 -1.10127e-18)
(0.686421 0.0980614 6.31882e-19)
(0.0203071 0.0189343 -1.68832e-19)
(0.0846473 0.0390337 -1.91567e-19)
(0.181389 0.0475135 1.524e-19)
(0.279952 0.0495778 1.35192e-19)
(0.370171 0.0483084 1.38544e-19)
(0.450124 0.0454988 2.11956e-19)
(0.519855 0.0421682 -1.11152e-20)
(0.580324 0.0388355 -2.77891e-19)
(0.632827 0.0357215 2.63946e-19)
(0.678631 0.0329179 -3.97027e-19)
(0.0203114 -0.0190353 -1.69895e-19)
(0.0846563 -0.0392755 -1.82468e-19)
(0.181399 -0.0478125 1.6801e-19)
(0.27996 -0.0498702 3.2872e-19)
(0.370179 -0.0485545 2.18916e-19)
(0.45013 -0.045679 -2.88507e-19)
(0.519861 -0.0422798 -1.56707e-19)
(0.580329 -0.0388904 6.83982e-20)
(0.632832 -0.035741 1.53644e-19)
(0.678637 -0.0329149 -9.14633e-20)
(0.026005 -0.0563523 4.05029e-19)
(0.0960423 -0.116392 -5.13459e-19)
(0.19483 -0.141833 -4.26157e-20)
(0.293645 -0.148076 2.84365e-19)
(0.383253 -0.144296 -1.2837e-18)
(0.462217 -0.135859 5.48387e-19)
(0.530847 -0.125836 5.65958e-19)
(0.59025 -0.115805 -6.68068e-19)
(0.641753 -0.106455 6.38562e-19)
(0.68644 -0.098064 -2.80202e-19)
(0.037127 -0.0917427 -7.01102e-20)
(0.118358 -0.189977 -8.44077e-21)
(0.221224 -0.231985 -1.38199e-18)
(0.320596 -0.242597 -4.38402e-19)
(0.409055 -0.236706 -4.47628e-20)
(0.486111 -0.223072 -7.22568e-19)
(0.5526 -0.206736 1.34639e-18)
(0.609914 -0.190304 -4.80622e-20)
(0.659452 -0.17493 7.69116e-19)
(0.701954 -0.161166 -6.76378e-19)
(0.0531684 -0.124019 1.18049e-19)
(0.150727 -0.25783 -5.41859e-19)
(0.259672 -0.315833 1.67145e-18)
(0.360007 -0.331103 2.37717e-19)
(0.446911 -0.323672 1.16197e-18)
(0.521272 -0.305434 -1.13412e-18)
(0.584693 -0.28329 1.19102e-18)
(0.63899 -0.260842 -8.60056e-19)
(0.685665 -0.23973 -3.78558e-19)
(0.72501 -0.220882 3.21505e-19)
(0.0733957 -0.152133 1.04533e-18)
(0.191871 -0.317965 3.16926e-21)
(0.308845 -0.391158 -1.7482e-18)
(0.410682 -0.411452 -5.07389e-19)
(0.495822 -0.403245 1.68753e-18)
(0.566901 -0.381204 -9.86111e-19)
(0.626506 -0.353938 -1.1461e-18)
(0.676996 -0.325994 1.03227e-18)
(0.720028 -0.29951 -7.02045e-19)
(0.75539 -0.275925 -1.51248e-19)
(0.0968825 -0.175215 -1.56637e-19)
(0.240153 -0.368683 -6.43811e-21)
(0.367014 -0.456023 1.87745e-18)
(0.471058 -0.481757 1.0793e-18)
(0.554473 -0.473704 -1.27292e-18)
(0.621942 -0.44885 1.54537e-18)
(0.677224 -0.417314 -1.67408e-18)
(0.72333 -0.38451 1.66929e-19)
(0.762116 -0.353074 5.00657e-19)
(0.792859 -0.325087 1.15735e-18)
(0.122547 -0.192609 1.72594e-19)
(0.293626 -0.408631 2.73161e-19)
(0.432096 -0.508841 2.92911e-19)
(0.53922 -0.540452 -9.82181e-19)
(0.621235 -0.533621 -1.7452e-18)
(0.68508 -0.50712 3.67798e-19)
(0.735839 -0.472326 1.08287e-18)
(0.777279 -0.435411 -3.08572e-19)
(0.811501 -0.399452 1.8589e-18)
(0.837246 -0.367304 -1.81578e-18)
(0.149196 -0.203893 -9.69331e-19)
(0.350094 -0.436846 3.54989e-19)
(0.501691 -0.548423 -9.97214e-19)
(0.61292 -0.586335 1.6104e-18)
(0.694149 -0.581912 8.09776e-19)
(0.754694 -0.55511 1.14726e-18)
(0.801088 -0.518263 -2.57688e-19)
(0.837978 -0.478129 1.06311e-18)
(0.867794 -0.438114 -2.2434e-18)
(0.888537 -0.401902 -5.89477e-19)
(0.17557 -0.208889 6.89667e-20)
(0.40718 -0.45278 -6.27252e-19)
(0.57314 -0.574002 -9.57944e-19)
(0.689589 -0.618602 -4.29717e-19)
(0.770893 -0.617894 -1.20674e-18)
(0.828778 -0.592398 -1.31405e-19)
(0.871327 -0.555069 1.21183e-19)
(0.904214 -0.513049 -4.69769e-19)
(0.930521 -0.469697 -5.4592e-19)
(0.947072 -0.429259 1.43198e-18)
(0.2004 -0.207671 2.80465e-19)
(0.462412 -0.456306 3.65326e-19)
(0.643582 -0.585221 6.8566e-19)
(0.766323 -0.636804 4.19815e-20)
(0.848599 -0.641246 4.85276e-19)
(0.904431 -0.619042 -6.47544e-19)
(0.943435 -0.583447 2.01764e-18)
(0.972291 -0.541575 -8.86729e-19)
(0.995682 -0.495823 -4.53674e-19)
(1.01102 -0.449242 -1.37065e-18)
(0.222482 -0.20056 -1.02317e-19)
(0.51336 -0.447698 1.07179e-19)
(0.710095 -0.582034 -1.23832e-19)
(0.839964 -0.640577 8.52507e-20)
(0.923765 -0.651419 -1.04634e-19)
(0.977408 -0.634595 -2.92511e-19)
(1.0119 -0.603689 3.81837e-19)
(1.03452 -0.567194 -1.54241e-19)
(1.05115 -0.529505 2.01289e-19)
(1.06491 -0.497371 -4.58769e-19)
(0.240797 -0.188138 3.86e-20)
(0.557885 -0.427648 -2.36277e-19)
(0.770151 -0.56468 1.97371e-19)
(0.908069 -0.629429 4.26103e-20)
(0.994422 -0.646846 -1.07634e-19)
(1.04665 -0.635674 4.13582e-20)
(1.07709 -0.609116 -3.43351e-21)
(1.09404 -0.575936 -2.45751e-19)
(1.10359 -0.541276 -1.41045e-19)
(1.11094 -0.508916 -4.04605e-19)
(0.254576 -0.171249 -1.41975e-19)
(0.594234 -0.397389 5.17986e-19)
(0.821636 -0.534098 -3.6279e-19)
(0.968653 -0.60383 -2.42841e-19)
(1.05916 -0.627607 2.62566e-19)
(1.1117 -0.622315 -9.0235e-20)
(1.13991 -0.600397 3.62438e-20)
(1.15317 -0.570622 7.10479e-20)
(1.158 -0.538812 -9.07287e-20)
(1.16034 -0.507707 3.58236e-21)
(0.263332 -0.15094 -3.03326e-19)
(0.621071 -0.358633 -2.14826e-19)
(0.862749 -0.491895 -5.19225e-19)
(1.01983 -0.565079 6.01006e-19)
(1.11627 -0.5948 -3.91327e-20)
(1.1712 -0.595675 2.38822e-19)
(1.19919 -0.579095 3.25053e-19)
(1.21061 -0.553561 -1.08632e-19)
(1.21253 -0.525164 -1.02331e-19)
(1.21102 -0.49607 1.68612e-19)
(0.266854 -0.128351 -1.99278e-19)
(0.637488 -0.313408 -2.60119e-19)
(0.89203 -0.440127 4.08105e-19)
(1.05982 -0.514942 -6.30539e-19)
(1.16386 -0.549851 1.11285e-19)
(1.22321 -0.556901 6.29945e-20)
(1.25293 -0.546137 1.03604e-19)
(1.26411 -0.525508 -6.90149e-20)
(1.26432 -0.501079 -9.73538e-20)
(1.25986 -0.47469 -5.24484e-19)
(0.265183 -0.104631 8.34948e-19)
(0.643038 -0.263898 -6.57744e-19)
(0.908439 -0.381146 2.76032e-20)
(1.08712 -0.455529 -8.72614e-19)
(1.20016 -0.494497 -2.57142e-19)
(1.26581 -0.507359 2.13304e-19)
(1.29915 -0.502576 1.52232e-19)
(1.31168 -0.487306 -5.17034e-19)
(1.31145 -0.467372 2.59105e-19)
(1.3049 -0.444434 -4.36269e-19)
(0.258588 -0.0808611 4.10373e-19)
(0.63773 -0.212314 -4.16779e-19)
(0.91142 -0.317472 1.51406e-18)
(1.10065 -0.389219 1.24803e-19)
(1.22366 -0.430775 3.45019e-19)
(1.29726 -0.448704 1.24086e-18)
(1.33603 -0.449729 -2.51775e-19)
(1.35159 -0.440015 7.17076e-20)
(1.35227 -0.424966 -2.53954e-20)
(1.34466 -0.406127 -6.9148e-20)
(0.247529 -0.0580132 3.16763e-19)
(0.622003 -0.160783 7.3678e-19)
(0.900919 -0.251673 -7.6183e-19)
(1.09974 -0.31855 -2.32984e-19)
(1.23323 -0.360946 -2.45472e-19)
(1.3161 -0.382819 4.7873e-19)
(1.36196 -0.389106 -2.23287e-19)
(1.38218 -0.384834 5.30757e-19)
(1.38525 -0.374831 1.3014e-19)
(1.37778 -0.36055 -2.34838e-19)
(0.232617 -0.036908 -3.44205e-19)
(0.596688 -0.111251 3.28075e-19)
(0.877383 -0.186239 -6.782e-19)
(1.08427 -0.246112 2.84576e-19)
(1.22814 -0.287413 -2.85184e-19)
(1.32118 -0.311779 -3.3571e-19)
(1.37556 -0.322412 -2.5619e-19)
(1.40201 -0.323134 2.80748e-19)
(1.40897 -0.318069 -4.81609e-19)
(1.40293 -0.308563 3.12754e-19)
(0.214574 -0.0181952 -1.29365e-19)
(0.562953 -0.0654095 -2.60989e-19)
(0.841739 -0.123485 1.2331e-19)
(1.0546 -0.174449 9.44716e-21)
(1.2082 -0.212651 9.86862e-20)
(1.31182 -0.237809 1.38945e-19)
(1.37577 -0.251545 1.15022e-19)
(1.40986 -0.256479 -1.56353e-19)
(1.42216 -0.255952 1.23859e-19)
(1.41896 -0.251168 -1.97933e-19)
(0.194189 -0.0023421 -8.34908e-20)
(0.52223 -0.024636 -3.46058e-20)
(0.795345 -0.0654568 1.2976e-19)
(1.01166 -0.105955 -5.83879e-20)
(1.17372 -0.13912 1.60597e-19)
(1.28774 -0.163224 -2.00219e-19)
(1.36192 -0.178558 5.27913e-20)
(1.40478 -0.186625 4.40453e-20)
(1.42379 -0.189943 -1.38141e-20)
(1.4248 -0.189542 6.91521e-20)
(0.172276 0.0103681 -1.008e-19)
(0.476128 0.0100418 -4.35997e-19)
(0.739904 -0.0138542 -3.74671e-20)
(0.956784 -0.0427821 1.49107e-20)
(1.12549 -0.0691653 -6.02624e-19)
(1.24918 -0.0903541 6.31116e-20)
(1.33375 -0.10562 -6.77652e-20)
(1.38617 -0.1155 -1.72503e-19)
(1.41303 -0.121706 3.6321e-19)
(1.41957 -0.12506 -6.66677e-19)
(0.149632 0.0198265 -5.83294e-20)
(0.426355 0.0379625 9.42814e-19)
(0.677385 0.030025 1.24107e-19)
(0.891754 0.0132543 -8.61584e-19)
(1.06482 -0.00492699 -1.11852e-19)
(1.19686 -0.0214592 -9.4279e-19)
(1.29142 -0.0349467 7.15758e-19)
(1.35375 -0.0451702 -2.72889e-19)
(1.38933 -0.0530976 5.17615e-19)
(1.40259 -0.0593135 -4.30808e-19)
(0.127009 0.0260845 -3.28031e-19)
(0.374634 0.0588338 3.93747e-19)
(0.609919 0.0653285 -2.74298e-19)
(0.818649 0.0607488 1.89655e-18)
(0.993413 0.0517632 9.87913e-19)
(1.13194 0.0413714 -2.47585e-19)
(1.23554 0.0312788 9.6352e-19)
(1.30765 0.0222168 -6.04135e-19)
(1.35245 0.0138579 -1.63532e-19)
(1.37338 0.00588721 1.3364e-18)
(0.105085 0.0293355 -6.12192e-19)
(0.322633 0.0727226 9.22838e-19)
(0.539697 0.0916753 -1.77035e-18)
(0.739762 0.0987751 3.06635e-19)
(0.913329 0.0994786 7.4674e-19)
(1.05603 0.0963303 -9.4196e-19)
(1.16715 0.0910107 -1.57709e-18)
(1.24838 0.0845087 8.2844e-19)
(1.30249 0.0770109 -9.98734e-19)
(1.33177 0.0685235 1.57198e-18)
(0.084444 0.0298944 -1.50658e-19)
(0.271887 0.0800319 -9.33037e-19)
(0.468864 0.109162 4.63007e-19)
(0.657478 0.126937 1.15745e-18)
(0.826851 0.137292 -6.25914e-19)
(0.971043 0.142013 -5.9854e-19)
(1.08765 0.142467 -9.53288e-19)
(1.17679 0.139657 -3.92293e-19)
(1.23984 0.134153 -5.70679e-20)
(1.2778 0.126387 1.5054e-18)
(0.0655652 0.0281773 2.53785e-19)
(0.22375 0.0814682 -1.2589e-18)
(0.39942 0.11835 2.17215e-18)
(0.574152 0.1454 -1.21256e-18)
(0.73637 0.164858 7.65599e-19)
(0.879108 0.177549 -9.40798e-19)
(0.998709 0.18429 1.03589e-18)
(1.094 0.185868 8.51914e-19)
(1.16512 0.183116 1.65076e-18)
(1.21173 0.17711 -2.71909e-18)
(0.0488188 0.0246819 -7.84974e-19)
(0.179352 0.0779982 1.58865e-18)
(0.333143 0.12023 2.16069e-20)
(0.492005 0.154892 -5.75847e-19)
(0.644265 0.182483 -3.24392e-19)
(0.782454 0.202748 2.23224e-19)
(0.902118 0.215768 -1.61427e-18)
(1.0012 0.221865 1.12117e-18)
(1.07893 0.221964 -1.45975e-18)
(1.13377 0.218214 -5.77464e-19)
(0.034464 0.0199668 1.34076e-18)
(0.139573 0.0707905 -4.23425e-19)
(0.271539 0.11615 -7.85102e-19)
(0.413055 0.156662 2.14044e-18)
(0.55283 0.191147 -2.08289e-18)
(0.683314 0.218237 1.1247e-18)
(0.799648 0.237126 1.11562e-18)
(0.899303 0.247348 2.61578e-19)
(0.981147 0.249432 2.56601e-19)
(1.04306 0.247142 -3.56889e-19)
(0.0226445 0.0146214 -1.2745e-18)
(0.105029 0.0611293 1.2059e-18)
(0.215826 0.1077 -1.06547e-18)
(0.339125 0.152369 1.32164e-18)
(0.464343 0.192471 -3.9796e-19)
(0.58407 0.225599 -1.29222e-18)
(0.693139 0.250017 3.83817e-19)
(0.788556 0.26414 -5.45558e-19)
(0.869325 0.266878 -5.75231e-19)
(0.934287 0.262985 -1.63293e-18)
(0.0133773 0.00921455 -1.55801e-18)
(0.0760588 0.0502782 1.23513e-18)
(0.166943 0.0964945 -2.38577e-18)
(0.271944 0.143814 4.23708e-19)
(0.381436 0.18849 -1.60367e-18)
(0.488286 0.227498 -9.24165e-19)
(0.586923 0.258777 2.1622e-18)
(0.673366 0.28053 -2.85085e-18)
(0.745648 0.290244 5.27043e-19)
(0.799061 0.289165 -7.46166e-19)
(0.00653538 0.00422407 7.61831e-19)
(0.0526836 0.0392962 3.03096e-19)
(0.125452 0.0838069 -6.83735e-20)
(0.212973 0.132154 8.80319e-19)
(0.306924 0.179843 2.51453e-18)
(0.400916 0.223431 8.24633e-19)
(0.48978 0.260526 8.28773e-19)
(0.569755 0.289074 -2.79914e-19)
(0.638986 0.306156 -2.36272e-18)
(0.691695 0.310559 6.17249e-19)
(0.00184545 2.56035e-06 -2.04703e-19)
(0.0345499 0.0289958 6.40491e-19)
(0.091288 0.0706053 -1.63249e-19)
(0.162642 0.118202 1.1476e-18)
(0.241773 0.166815 -2.64215e-18)
(0.323235 0.212685 1.89498e-19)
(0.402467 0.253018 -1.14775e-18)
(0.475982 0.285289 1.57926e-18)
(0.541563 0.306284 -4.62331e-19)
(0.59307 0.313556 -4.50187e-20)
(-0.00106298 -0.00322022 -1.42569e-19)
(0.0210275 0.0199639 -7.70762e-19)
(0.0639084 0.0576612 1.8477e-18)
(0.120663 0.102747 -9.8268e-19)
(0.185968 0.150056 8.95853e-20)
(0.255344 0.19568 3.05706e-19)
(0.324863 0.236553 -2.05054e-19)
(0.391322 0.269804 3.18702e-19)
(0.452269 0.292095 9.72685e-19)
(0.501877 0.300439 1.62696e-19)
(-0.00259745 -0.00532518 -3.04393e-19)
(0.0113547 0.0125734 -3.24151e-19)
(0.0425438 0.0455528 -1.42505e-18)
(0.0864619 0.0865166 7.29693e-19)
(0.139242 0.130416 -1.45598e-18)
(0.197345 0.173418 3.39083e-19)
(0.257483 0.212412 3.65718e-19)
(0.316785 0.244456 -3.14665e-19)
(0.372748 0.266324 -1.78686e-19)
(0.420203 0.274834 -8.27391e-19)
(-0.00316 -0.0062913 2.24012e-19)
(0.00474354 0.00699177 -5.34256e-20)
(0.0263478 0.0346421 9.12184e-21)
(0.0593419 0.0700858 -6.19886e-19)
(0.101188 0.108697 1.56773e-18)
(0.149213 0.146955 -2.37401e-19)
(0.20074 0.18194 -5.43696e-19)
(0.253253 0.210893 6.53822e-19)
(0.304303 0.230911 -2.01189e-19)
(0.349507 0.238902 1.06419e-18)
(-0.00311882 -0.0061855 -4.09493e-20)
(0.000453549 0.00319498 -2.31272e-19)
(0.0145025 0.0250737 -8.59304e-20)
(0.0386027 0.0538396 -1.10158e-19)
(0.0713577 0.0855694 -2.35775e-19)
(0.110844 0.117273 -6.87393e-19)
(0.154929 0.146437 8.2769e-19)
(0.201436 0.170696 4.38855e-19)
(0.248025 0.187629 -9.60401e-20)
(0.291092 0.194509 -6.30056e-19)
(-0.00278962 -0.00515362 2.30627e-19)
(-0.00215757 0.000984947 4.05567e-20)
(0.00629305 0.0167873 2.64215e-19)
(0.0236271 0.0379694 -1.72924e-20)
(0.0493519 0.0615477 2.32041e-19)
(0.0821422 0.0852465 2.43046e-19)
(0.120307 0.107139 3.2366e-19)
(0.161961 0.125413 -8.9825e-19)
(0.204884 0.138259 -1.51407e-19)
(0.246143 0.143542 2.63273e-19)
(-0.00242361 -0.00340794 -1.15773e-19)
(-0.00360091 1.95734e-05 -1.57039e-19)
(0.00115142 0.00955047 -7.05619e-20)
(0.0139277 0.0224988 3.54669e-19)
(0.0348613 0.0370025 1.66831e-19)
(0.0630427 0.0516383 3.26105e-20)
(0.0970946 0.0651965 -6.93331e-20)
(0.135345 0.0765419 -4.72743e-20)
(0.175667 0.084555 3.8566e-19)
(0.215621 0.0878812 -2.52121e-19)
(-0.00219549 -0.0012117 5.8238e-20)
(-0.00422903 -0.000151301 7.10132e-20)
(-0.00131683 0.00299974 -5.82999e-20)
(0.00916669 0.00732457 -5.22763e-20)
(0.0276738 0.0121927 -5.29251e-20)
(0.0535077 0.0171209 -7.66509e-20)
(0.0854533 0.0216969 5.69421e-21)
(0.121951 0.0255359 9.80394e-20)
(0.160924 0.0282586 -9.02458e-20)
(0.200191 0.0294028 1.52926e-19)
(0.580121 -0.0209102 5.70117e-21)
(0.793659 -0.00769093 -4.20292e-21)
(0.924674 -0.00343781 5.4767e-22)
(0.963177 -0.00125681 5.35631e-23)
(0.982795 -0.000524286 3.51729e-23)
(0.990637 -0.00024363 -7.81557e-24)
(0.994641 -0.000106319 -2.61408e-23)
(0.996735 -2.58439e-06 1.12292e-23)
(0.997771 -5.83296e-05 -1.32524e-24)
(0.99847 -3.10051e-06 1.79861e-23)
(0.590089 -0.0622417 1.97949e-20)
(0.796427 -0.0230211 6.40923e-21)
(0.925295 -0.0102223 -1.58973e-21)
(0.963392 -0.00381273 -1.29543e-21)
(0.982843 -0.00163618 -1.98214e-23)
(0.990656 -0.000740826 8.77396e-23)
(0.994652 -0.00035768 -9.0806e-23)
(0.996739 -0.00012999 -3.6101e-23)
(0.997775 -0.000126921 -1.03907e-22)
(0.998474 -3.24192e-05 -1.59087e-23)
(0.609738 -0.102502 4.67829e-22)
(0.80193 -0.0379785 3.79023e-22)
(0.92653 -0.0169004 8.7837e-22)
(0.96382 -0.00634606 1.35165e-21)
(0.982942 -0.00274014 -7.60721e-23)
(0.990694 -0.00123675 2.51989e-23)
(0.994672 -0.000599938 3.54224e-23)
(0.996749 -0.00025518 -1.25764e-23)
(0.997783 -0.000196509 7.66149e-23)
(0.99848 -5.9215e-05 -1.88709e-23)
(0.638396 -0.141015 -2.42486e-20)
(0.810078 -0.0523549 -6.0076e-21)
(0.928364 -0.0234097 3.63824e-21)
(0.964455 -0.00884865 -4.74012e-22)
(0.983093 -0.00383756 4.59011e-22)
(0.990754 -0.00173346 -3.29645e-22)
(0.994702 -0.000844368 2.44325e-23)
(0.996766 -0.000382961 -5.18245e-23)
(0.997797 -0.000267308 7.4341e-23)
(0.998491 -8.61188e-05 8.26273e-24)
(0.675048 -0.177098 5.61503e-20)
(0.820726 -0.0659425 -2.58328e-20)
(0.930775 -0.0296917 -1.35314e-21)
(0.965297 -0.011308 1.98821e-21)
(0.983302 -0.00491883 -9.0053e-23)
(0.990839 -0.00222027 -2.08702e-22)
(0.994744 -0.00108956 -2.23108e-22)
(0.996793 -0.000506627 -7.43249e-23)
(0.99782 -0.00033355 -1.75335e-22)
(0.998509 -0.00011441 -3.28425e-23)
(0.718363 -0.20993 -2.7487e-20)
(0.833676 -0.0785078 3.39637e-20)
(0.933744 -0.0356727 -1.27186e-21)
(0.966342 -0.0137081 -2.44973e-21)
(0.983577 -0.00598342 3.65476e-22)
(0.990953 -0.00270523 3.64182e-22)
(0.994803 -0.00133208 2.39097e-22)
(0.996831 -0.000631004 1.12456e-22)
(0.997853 -0.00040147 7.52545e-23)
(0.998534 -0.000141848 4.49529e-23)
(0.76676 -0.238736 7.27503e-21)
(0.848661 -0.0898565 -1.07828e-20)
(0.937243 -0.0413084 -2.63547e-21)
(0.967591 -0.0160388 5.59087e-22)
(0.983925 -0.00702749 -2.11091e-22)
(0.991102 -0.00318479 5.19014e-23)
(0.994881 -0.00157291 -1.75811e-22)
(0.996884 -0.000754827 -8.37793e-23)
(0.9979 -0.000469179 2.36307e-23)
(0.998571 -0.000169084 1.51178e-23)
(0.81846 -0.264292 4.85865e-20)
(0.865347 -0.100357 -2.72671e-21)
(0.941235 -0.046688 1.8775e-21)
(0.969043 -0.0183278 4.55422e-22)
(0.984357 -0.00805805 -3.82552e-22)
(0.991291 -0.00366038 3.89811e-22)
(0.994983 -0.00181128 2.4496e-22)
(0.996957 -0.000876414 1.26458e-22)
(0.997965 -0.000534731 1.33699e-22)
(0.998622 -0.000195422 1.84324e-23)
(0.871611 -0.287794 -1.00743e-19)
(0.88341 -0.111038 -9.13063e-22)
(0.945698 -0.0519336 -9.79419e-22)
(0.970697 -0.020616 -6.10977e-22)