/*--------------------------------*- C++ -*----------------------------------*\
  =========                 |
  \\      /  F ield         | OpenFOAM: The Open Source CFD Toolbox
   \\    /   O peration     | Website:  https://openfoam.org
    \\  /    A nd           | Version:  6.0
     \\/     M anipulation  |
\*---------------------------------------------------------------------------*/
FoamFile
{
    version     2.0;
    format      ascii;
    class       volVectorField;
    location    "13";
    object      U;
}
// * * * * * * * * * * * * * * * * * * * * * * * * * * * * * * * * * * * * * //

dimensions      [0 1 -1 0 0 0 0];

internalField   nonuniform List<vector> 
2000
(
(-0.00199225 0.00174212 5.89371e-20)
(-0.00761205 0.00330466 6.996e-20)
(-0.0152882 0.00365753 -6.66866e-20)
(-0.0222377 0.00332416 -1.36068e-19)
(-0.0275149 0.002616 -9.50544e-20)
(-0.0309693 0.00173703 1.26643e-19)
(-0.0327014 0.00083334 7.37814e-20)
(-0.0329836 1.22982e-05 -2.98415e-20)
(-0.0322516 -0.000646256 -7.45192e-20)
(-0.0308049 -0.00107808 5.433e-20)
(-0.00249002 0.00512157 -1.46056e-19)
(-0.00835618 0.00966696 2.0154e-19)
(-0.0156716 0.0106512 2.00942e-20)
(-0.0219109 0.00961871 -1.16737e-19)
(-0.0262656 0.00748528 5.58531e-19)
(-0.0286621 0.00484971 -2.45835e-19)
(-0.029249 0.00214209 -2.66008e-19)
(-0.0283252 -0.000317613 3.20869e-19)
(-0.0263427 -0.00228585 -3.16532e-19)
(-0.0236793 -0.00356894 1.59607e-19)
(-0.00343404 0.00822014 2.42623e-20)
(-0.00970255 0.0153678 8.59455e-21)
(-0.0162237 0.016795 6.03744e-19)
(-0.0209898 0.0149938 2.11764e-19)
(-0.0234675 0.0114293 4.19737e-20)
(-0.0237345 0.00705621 3.47462e-19)
(-0.0220329 0.00256305 -6.60045e-19)
(-0.0187102 -0.00152468 1.43151e-20)
(-0.0142482 -0.00478726 -3.90413e-19)
(-0.00918764 -0.00689901 4.30178e-19)
(-0.00471846 0.0108562 -4.56111e-20)
(-0.0113599 0.0199916 2.62162e-19)
(-0.0165025 0.0215793 -7.64033e-19)
(-0.0189225 0.0189317 -9.88226e-20)
(-0.0184979 0.01397 -5.62474e-19)
(-0.0155305 0.00793554 5.82584e-19)
(-0.0103966 0.00172661 -6.18041e-19)
(-0.00350675 -0.00394415 4.34091e-19)
(0.00462219 -0.00846282 1.82496e-19)
(0.0131897 -0.0113674 -2.06341e-19)
(-0.00617519 0.0128536 -5.07072e-19)
(-0.0128708 0.0231577 4.52319e-21)
(-0.0158158 0.0245743 9.40611e-19)
(-0.0148406 0.0210512 2.82139e-19)
(-0.0103695 0.0148322 -8.97033e-19)
(-0.00300002 0.00734347 5.57792e-19)
(0.00671935 -0.000388282 6.32662e-19)
(0.0183103 -0.00750521 -5.64119e-19)
(0.0312323 -0.0131847 4.0234e-19)
(0.0443143 -0.0168256 9.87413e-20)
(-0.0075626 0.0140415 6.93475e-20)
(-0.0135922 0.0245309 1.28349e-20)
(-0.0131971 0.0254529 -1.20178e-18)
(-0.00752692 0.021144 -6.72624e-19)
(0.00231712 0.0140037 8.02604e-19)
(0.015368 0.00550956 -9.40108e-19)
(0.0308609 -0.00330538 1.0778e-18)
(0.0482507 -0.011527 -9.29449e-20)
(0.0670145 -0.0181395 -3.03275e-19)
(0.0854949 -0.0224166 -8.82039e-19)
(-0.0085539 0.0142579 -1.50474e-19)
(-0.0126847 0.0238348 -2.74823e-19)
(-0.00740168 0.0240041 -3.378e-19)
(0.00459175 0.0191837 7.2119e-19)
(0.0214002 0.0117453 1.33852e-18)
(0.0416068 0.00306949 -2.76581e-19)
(0.0641645 -0.00597132 -6.74146e-19)
(0.0884463 -0.0145803 2.05587e-19)
(0.114031 -0.0216496 -1.29634e-18)
(0.138699 -0.0263799 1.42335e-18)
(-0.00873346 0.0133639 9.20083e-19)
(-0.00912837 0.0208782 -5.01886e-19)
(0.0030503 0.0201419 9.81225e-19)
(0.0233824 0.0153018 -1.60363e-18)
(0.0490907 0.00853609 -7.66766e-19)
(0.0782212 0.00100944 -1.06256e-18)
(0.109337 -0.00674615 3.08599e-19)
(0.14165 -0.0143176 -8.60991e-19)
(0.174976 -0.0207326 1.87517e-18)
(0.206633 -0.0253024 5.25381e-19)
(-0.00761213 0.0112735 6.71556e-20)
(-0.00178424 0.0155966 8.17577e-19)
(0.0197627 0.0139112 1.62527e-18)
(0.0508568 0.00971918 4.97382e-19)
(0.0878056 0.00491093 1.47213e-18)
(0.128026 0.000451672 8.07888e-20)
(0.169499 -0.00346183 -1.27166e-21)
(0.211014 -0.00687151 5.94268e-19)
(0.252638 -0.00910954 4.82548e-19)
(0.291786 -0.0105932 -1.56387e-18)
(-0.0046775 0.00799965 -5.43956e-19)
(0.0104747 0.00811285 -9.11634e-19)
(0.044261 0.00548509 -1.32654e-18)
(0.0889381 0.00257573 3.09239e-20)
(0.140038 0.000944435 -6.77126e-19)
(0.194449 0.00155666 1.06757e-18)
(0.249587 0.0047402 -2.94123e-18)
(0.303502 0.0107222 1.32121e-18)
(0.355538 0.0201111 4.98138e-19)
(0.402944 0.0287725 1.56367e-18)
(0.000507051 0.00371303 2.722e-19)
(0.028518 -0.00116672 -1.04141e-18)
(0.0775403 -0.00475236 9.304e-19)
(0.138651 -0.00612624 -3.61324e-19)
(0.20701 -0.00429254 3.93081e-19)
(0.27964 0.00167332 8.56599e-19)
(0.35469 0.0125102 -1.1501e-18)
(0.431738 0.0291657 1.49854e-19)
(0.511737 0.0509209 -5.51506e-19)
(0.596994 0.0678277 1.11525e-18)
(0.00820634 -0.00120934 3.89145e-19)
(0.0527363 -0.011395 -9.43206e-19)
(0.119601 -0.0158163 1.28641e-18)
(0.198977 -0.0156859 -8.01917e-19)
(0.285655 -0.0111263 -2.94138e-19)
(0.376564 -0.00199872 1.74193e-19)
(0.469877 0.01161 9.01616e-20)
(0.565006 0.0293939 1.22326e-18)
(0.661581 0.0486563 3.52347e-19)
(0.757278 0.0607307 1.50262e-18)
(0.0185283 -0.00620557 -3.46972e-19)
(0.0831677 -0.0212183 1.2186e-18)
(0.169966 -0.0257376 -1.01813e-18)
(0.268416 -0.0234713 -1.19545e-18)
(0.372827 -0.0159052 1.67276e-18)
(0.479689 -0.00383379 -1.27286e-18)
(0.586586 0.0118132 3.36156e-19)
(0.691945 0.0299289 -1.99354e-18)
(0.79397 0.0478472 1.49317e-18)
(0.888663 0.0602481 7.45882e-20)
(0.0314789 -0.010648 -4.51718e-19)
(0.119611 -0.02908 -4.3702e-19)
(0.227937 -0.0322272 -9.31455e-19)
(0.345544 -0.0264809 1.12913e-18)
(0.466296 -0.014773 -5.71589e-20)
(0.586217 0.00119895 7.31286e-19)
(0.702353 0.0198338 1.33487e-18)
(0.812453 0.0396375 -4.10187e-19)
(0.914143 0.0585285 -1.45081e-18)
(1.00341 0.0735122 2.88048e-18)
(0.0469876 -0.0139285 -2.33256e-19)
(0.161624 -0.033479 -2.78391e-19)
(0.292507 -0.0331771 5.02141e-19)
(0.428695 -0.0221865 -9.34086e-19)
(0.563813 -0.00490729 1.59425e-19)
(0.693639 0.016109 1.42183e-19)
(0.81504 0.0387133 6.2364e-20)
(0.92566 0.0612032 -9.90501e-21)
(1.02331 0.0820861 -1.52923e-19)
(1.1046 0.0997574 -2.43688e-18)
(0.0648945 -0.015485 9.47021e-19)
(0.208468 -0.0330916 -6.61095e-19)
(0.362235 -0.0268765 8.41618e-21)
(0.515708 -0.00878167 -1.00928e-18)
(0.662626 0.0153567 -3.61779e-19)
(0.798897 0.0422124 3.38046e-19)
(0.92168 0.0692115 2.63049e-19)
(1.02908 0.0945665 -9.37367e-19)
(1.11963 0.117321 7.66784e-19)
(1.191 0.136672 -1.00613e-18)
(0.0849188 -0.014806 4.08415e-19)
(0.259075 -0.0268289 -3.63332e-19)
(0.435216 -0.012108 1.5112e-18)
(0.603921 0.0147423 1.54513e-19)
(0.759526 0.0465655 3.54574e-19)
(0.89856 0.0794089 1.58291e-18)
(1.019 0.110453 -2.41687e-19)
(1.11991 0.137997 2.21394e-19)
(1.20098 0.161644 9.18903e-20)
(1.26113 0.181068 -1.12331e-19)
(0.106629 -0.0114415 2.85156e-19)
(0.312036 -0.0138782 6.86644e-19)
(0.509136 0.0118123 -7.36746e-19)
(0.690314 0.0486173 -2.49977e-19)
(0.851098 0.0883048 -3.08984e-19)
(0.989203 0.126551 4.78559e-19)
(1.10393 0.160561 -2.49408e-19)
(1.19576 0.188961 6.71351e-19)
(1.26573 0.212009 2.26493e-19)
(1.31422 0.229714 -3.69038e-19)
(0.129428 -0.005028 -3.0737e-19)
(0.365627 0.006249 2.73514e-19)
(0.581383 0.0450131 -5.84178e-19)
(0.771719 0.0923553 2.52274e-19)
(0.934026 0.13938 -2.61976e-19)
(1.06778 0.181772 -3.27419e-19)
(1.17406 0.217118 -2.63536e-19)
(1.25502 0.24466 2.948e-19)
(1.31319 0.265436 -5.57205e-19)
(1.35038 0.279751 3.36777e-19)
(0.152564 0.0046733 -1.0952e-19)
(0.417883 0.0336617 -2.1457e-19)
(0.649206 0.0870529 1.02194e-19)
(0.845056 0.144816 6.23918e-21)
(1.00536 0.197987 8.4983e-20)
(1.13187 0.242754 1.16913e-19)
(1.22776 0.277493 1.08668e-19)
(1.29699 0.302356 -1.44057e-19)
(1.34351 0.319274 1.23143e-19)
(1.37045 0.328853 -1.92945e-19)
(0.175153 0.0177365 -6.34391e-20)
(0.466701 0.0680396 -2.38197e-20)
(0.70989 0.136922 9.50288e-20)
(0.907549 0.20429 -4.36731e-20)
(1.06274 0.261875 1.16934e-19)
(1.17985 0.306939 -1.51094e-19)
(1.26431 0.339063 3.4964e-20)
(1.32183 0.359555 3.75365e-20)
(1.3576 0.371305 -1.59203e-20)
(1.37583 0.375228 6.00069e-20)
(0.196232 0.0340354 -6.8474e-20)
(0.509971 0.108603 -3.10301e-19)
(0.760937 0.193073 -2.16656e-20)
(0.956908 0.268601 6.48087e-21)
(1.1045 0.328503 -4.05649e-19)
(1.21092 0.371705 5.34204e-20)
(1.2838 0.399356 -4.56472e-20)
(1.33039 0.414088 -1.10928e-19)
(1.35684 0.419741 2.32768e-19)
(1.36819 0.417538 -4.25187e-19)
(0.21481 0.0532189 -3.31714e-20)
(0.545707 0.154113 6.29144e-19)
(0.800228 0.253477 1.01381e-19)
(0.991457 0.335226 -5.54974e-19)
(1.12974 0.395189 -4.51544e-20)
(1.22505 0.434495 -5.35466e-19)
(1.28699 0.456133 3.93752e-19)
(1.32403 0.464121 -1.44001e-19)
(1.34295 0.463174 2.55929e-19)
(1.34934 0.454795 -1.90013e-19)
(0.229934 0.0747024 -2.08985e-19)
(0.572191 0.202903 2.0095e-19)
(0.826161 0.315728 -1.45082e-19)
(1.01022 0.401426 1.09172e-18)
(1.1383 0.459232 5.40643e-19)
(1.22291 0.492908 -1.26032e-19)
(1.27519 0.507422 4.26787e-19)
(1.30446 0.508131 -2.81525e-19)
(1.31779 0.500486 -7.99013e-20)
(1.32109 0.486241 5.24218e-19)
(0.240758 0.0976768 -3.62431e-19)
(0.588085 0.252949 4.63419e-19)
(0.837738 0.377151 -9.12436e-19)
(1.01292 0.464383 1.29002e-19)
(1.13075 0.518029 2.90287e-19)
(1.20573 0.544757 -4.41878e-19)
(1.25011 0.551516 -5.24702e-19)
(1.2736 0.544853 2.33014e-19)
(1.28332 0.530772 -2.83424e-19)
(1.28525 0.511265 3.51126e-19)
(0.246605 0.121134 -9.14846e-20)
(0.592526 0.301965 -4.71718e-19)
(0.834611 0.43495 2.60242e-19)
(0.999972 0.521329 4.42858e-19)
(1.1082 0.569159 -2.65229e-19)
(1.17518 0.588099 -2.00248e-19)
(1.21371 0.586947 -1.20672e-19)
(1.23351 0.573212 -5.9494e-20)
(1.24148 0.553242 8.6086e-21)
(1.24355 0.529294 1.42154e-19)
(0.24702 0.143915 6.91108e-20)
(0.585192 0.34753 -4.0255e-19)
(0.817088 0.486352 6.73687e-19)
(0.972401 0.569677 -3.98069e-19)
(1.07227 0.610465 1.1836e-19)
(1.13326 0.621258 -1.65962e-19)
(1.16815 0.612464 1.79493e-19)
(1.18627 0.592267 4.62052e-20)
(1.19418 0.567129 -4.4728e-20)
(1.19768 0.539657 9.02021e-20)
(0.24182 0.164769 -1.83161e-19)
(0.566328 0.38723 3.59929e-19)
(0.786093 0.528764 -1.4673e-20)
(0.93173 0.607138 -8.13718e-20)
(1.0249 0.640124 -2.05444e-19)
(1.08213 0.64287 2.86961e-20)
(1.11565 0.627076 3.39309e-20)
(1.13409 0.60127 -1.29956e-19)
(1.14357 0.57173 1.491e-19)
(1.14971 0.541571 1.36387e-19)
(0.231128 0.182443 5.65907e-20)
(0.536745 0.418812 -8.67048e-20)
(0.743078 0.559919 1.2398e-20)
(0.879838 0.631808 4.51061e-20)
(0.968157 0.656652 4.5057e-20)
(1.02393 0.65179 -1.25079e-19)
(1.05843 0.629887 -2.8051e-19)
(1.07942 0.599506 -1.17071e-19)
(1.09261 0.566414 -1.51146e-19)
(1.10299 0.534444 1.24093e-19)
(0.215391 0.195781 9.28837e-20)
(0.497779 0.440369 -1.53769e-19)
(0.689924 0.578043 1.49434e-19)
(0.818766 0.642291 -2.93462e-19)
(0.903932 0.658919 7.00156e-20)
(0.960191 0.646853 4.92637e-19)
(0.997747 0.619308 -1.51624e-19)
(1.0236 0.584584 1.77049e-19)
(1.04312 0.547835 2.62343e-19)
(1.05941 0.514815 9.57105e-19)
(0.195379 0.203845 6.56824e-19)
(0.451251 0.450517 -4.43665e-19)
(0.62889 0.582086 1.08752e-18)
(0.750686 0.638076 -1.85748e-19)
(0.833816 0.64686 9.38016e-19)
(0.891475 0.628082 5.88493e-19)
(0.932708 0.594703 -1.38076e-18)
(0.963944 0.553793 2.10138e-18)
(0.989804 0.507766 -4.4512e-19)
(1.00664 0.460838 8.78523e-19)
(0.172153 0.205982 -3.63522e-19)
(0.399432 0.448455 -2.61997e-19)
(0.562696 0.571732 2.56799e-19)
(0.678272 0.61964 -6.25581e-19)
(0.760016 0.622107 -1.95508e-18)
(0.819049 0.599028 -7.88274e-19)
(0.863029 0.563172 -7.0761e-19)
(0.897433 0.521679 3.45103e-19)
(0.925418 0.478061 2.86307e-18)
(0.942885 0.437266 -5.94908e-19)
(0.146973 0.201817 1.9391e-19)
(0.344906 0.433827 -7.87727e-19)
(0.494485 0.546955 1.72662e-19)
(0.604945 0.587277 -1.2581e-18)
(0.68635 0.585109 2.75132e-18)
(0.747584 0.559971 -3.20082e-19)
(0.794867 0.524077 1.5014e-18)
(0.832694 0.484215 -2.14784e-18)
(0.863599 0.443889 6.75016e-19)
(0.884888 0.407381 1.047e-19)
(0.121177 0.191239 1.4322e-19)
(0.2903 0.406704 8.67656e-19)
(0.427312 0.508052 -2.5532e-18)
(0.533812 0.541356 1.241e-18)
(0.615871 0.536068 -3.00012e-21)
(0.680128 0.510659 -4.18967e-19)
(0.731441 0.476435 5.2876e-19)
(0.773464 0.439598 -5.23919e-19)
(0.808383 0.4033 -1.79909e-18)
(0.834452 0.370794 -4.9394e-19)
(0.0960918 0.174403 4.70745e-19)
(0.238136 0.367603 5.28093e-19)
(0.364004 0.455749 2.17918e-18)
(0.467598 0.482623 -1.21266e-18)
(0.551025 0.475576 2.49909e-18)
(0.618765 0.451394 -5.37978e-19)
(0.674411 0.42015 -5.67946e-19)
(0.720891 0.387285 6.71595e-19)
(0.760116 0.35548 4.37702e-19)
(0.791044 0.327073 1.5859e-18)
(0.0729751 0.151726 -4.78836e-19)
(0.19074 0.317482 1.56694e-19)
(0.307104 0.391221 4.26153e-20)
(0.408678 0.412242 1.23777e-18)
(0.493861 0.404654 -3.08912e-18)
(0.565155 0.382992 5.2525e-19)
(0.62503 0.355835 1.15766e-18)
(0.67578 0.327746 -1.3992e-18)
(0.71909 0.300889 4.92719e-19)
(0.754543 0.276863 -2.28636e-18)
(0.0529673 0.12387 1.02142e-19)
(0.150169 0.257708 5.50619e-19)
(0.258811 0.31606 2.14105e-19)
(0.35906 0.331765 2.90312e-19)
(0.446071 0.324689 5.55679e-19)
(0.520642 0.306642 1.65312e-18)
(0.584294 0.284503 -2.02331e-18)
(0.638794 0.261882 -1.13874e-18)
(0.685657 0.240429 1.88623e-19)
(0.725031 0.221173 1.48377e-18)
(0.0370452 0.0917222 -6.17939e-19)
(0.118151 0.190012 -7.32655e-20)
(0.220945 0.232223 -6.14926e-19)
(0.320382 0.243076 8.76594e-20)
(0.409018 0.237374 -5.26043e-19)
(0.486302 0.223827 -6.00529e-19)
(0.553012 0.207457 -8.94624e-19)
(0.610505 0.190872 2.40922e-18)
(0.660184 0.175227 4.15187e-19)
(0.702675 0.161137 -6.33016e-19)
(0.0259817 0.056362 3.33181e-19)
(0.0960334 0.11643 4.40146e-19)
(0.194905 0.141967 1.73104e-19)
(0.293892 0.148327 -9.35091e-19)
(0.383735 0.144641 -4.35135e-19)
(0.462949 0.136246 -9.3733e-20)
(0.531802 0.126197 1.82962e-19)
(0.591374 0.116071 1.46926e-19)
(0.642999 0.106552 -1.13462e-18)
(0.687651 0.0979543 6.51141e-19)
(0.0203128 0.0190133 -1.73529e-19)
(0.0847396 0.0392214 -1.97294e-19)
(0.181644 0.0477696 1.57159e-19)
(0.280434 0.049864 1.3949e-19)
(0.370919 0.0485906 1.42936e-19)
(0.451133 0.0457471 2.18467e-19)
(0.521089 0.0423592 -1.15512e-20)
(0.581724 0.0389544 -2.86353e-19)
(0.634343 0.0357584 2.71773e-19)
(0.680101 0.0328679 -4.08814e-19)
(0.0203126 -0.0190085 -1.74655e-19)
(0.0847392 -0.0392114 -1.87988e-19)
(0.181643 -0.0477571 1.73194e-19)
(0.280434 -0.0498505 3.38953e-19)
(0.370918 -0.0485769 2.25723e-19)
(0.451133 -0.0457335 -2.97365e-19)
(0.521088 -0.042346 -1.61431e-19)
(0.581724 -0.0389417 7.04684e-20)
(0.634343 -0.0357461 1.58203e-19)
(0.680101 -0.0328559 -9.41756e-20)
(0.0259812 -0.0563572 4.16702e-19)
(0.0960324 -0.11642 -5.29256e-19)
(0.194903 -0.141955 -4.39249e-20)
(0.293891 -0.148314 2.93097e-19)
(0.383734 -0.144627 -1.32442e-18)
(0.462947 -0.136232 5.65689e-19)
(0.5318 -0.126184 5.83562e-19)
(0.591372 -0.116059 -6.887e-19)
(0.642998 -0.106539 6.57488e-19)
(0.68765 -0.0979424 -2.88778e-19)
(0.0370443 -0.0917175 -7.20663e-20)
(0.118149 -0.190002 -9.0971e-21)
(0.220943 -0.232211 -1.42833e-18)
(0.32038 -0.243063 -4.53897e-19)
(0.409016 -0.23736 -4.73976e-20)
(0.486299 -0.223814 -7.46516e-19)
(0.553009 -0.207444 1.39051e-18)
(0.610503 -0.190859 -4.9086e-20)
(0.660182 -0.175215 7.93505e-19)
(0.702673 -0.161125 -6.97063e-19)
(0.0529661 -0.123865 1.21625e-19)
(0.150167 -0.257698 -5.62053e-19)
(0.258809 -0.316048 1.73019e-18)
(0.359057 -0.331753 2.44976e-19)
(0.446068 -0.324676 1.2027e-18)
(0.520639 -0.306629 -1.17492e-18)
(0.584292 -0.284491 1.23313e-18)
(0.638791 -0.26187 -8.89255e-19)
(0.685654 -0.240417 -3.907e-19)
(0.725029 -0.221161 3.31251e-19)
(0.0729736 -0.151722 1.0842e-18)
(0.190737 -0.317473 2.83876e-21)
(0.307101 -0.39121 -1.82082e-18)
(0.408674 -0.41223 -5.27852e-19)
(0.493857 -0.404641 1.75376e-18)
(0.565151 -0.38298 -1.02703e-18)
(0.625026 -0.355823 -1.18874e-18)
(0.675776 -0.327734 1.06962e-18)
(0.719086 -0.300877 -7.27582e-19)
(0.75454 -0.276851 -1.56974e-19)
(0.09609 -0.174399 -1.61957e-19)
(0.238133 -0.367595 -7.47478e-21)
(0.364 -0.455738 1.97264e-18)
(0.467594 -0.482611 1.13111e-18)
(0.551021 -0.475564 -1.33337e-18)
(0.61876 -0.451382 1.61489e-18)
(0.674406 -0.420138 -1.75033e-18)
(0.720887 -0.387274 1.74705e-19)
(0.760112 -0.355468 5.21686e-19)
(0.79104 -0.327062 1.20512e-18)
(0.121175 -0.191235 1.84384e-19)
(0.290296 -0.406696 2.96221e-19)
(0.427307 -0.508041 3.21219e-19)
(0.533806 -0.541345 -1.04001e-18)
(0.615865 -0.536056 -1.85054e-18)
(0.680123 -0.510647 3.89901e-19)
(0.731436 -0.476424 1.13001e-18)
(0.773459 -0.439587 -3.23187e-19)
(0.808378 -0.403289 1.94253e-18)
(0.834447 -0.370783 -1.89453e-18)
(0.146971 -0.201813 -1.04255e-18)
(0.344901 -0.43382 3.97832e-19)
(0.49448 -0.546945 -1.08031e-18)
(0.604939 -0.587266 1.74557e-18)
(0.686344 -0.585098 8.73077e-19)
(0.747577 -0.55996 1.23263e-18)
(0.794861 -0.524065 -2.83934e-19)
(0.832688 -0.484204 1.12478e-18)
(0.863593 -0.443879 -2.37987e-18)
(0.884883 -0.40737 -6.20706e-19)
(0.17215 -0.205979 6.33346e-20)
(0.399427 -0.448448 -6.96686e-19)
(0.56269 -0.571723 -1.10845e-18)
(0.678265 -0.61963 -4.72881e-19)
(0.760009 -0.622096 -1.33484e-18)
(0.819043 -0.599018 -1.37177e-19)
(0.863023 -0.563161 1.18297e-19)
(0.897427 -0.521669 -5.20415e-19)
(0.925412 -0.478051 -5.8393e-19)
(0.942879 -0.437256 1.53866e-18)
(0.195376 -0.203842 3.25316e-19)
(0.451246 -0.450511 4.50753e-19)
(0.628883 -0.582078 8.12123e-19)
(0.750679 -0.638067 3.74808e-20)
(0.833809 -0.64685 5.4533e-19)
(0.891467 -0.628072 -7.43313e-19)
(0.932701 -0.594693 2.27437e-18)
(0.963937 -0.553783 -1.00296e-18)
(0.989797 -0.507757 -4.94544e-19)
(1.00663 -0.460829 -1.4931e-18)
(0.215388 -0.195778 -1.26932e-19)
(0.497773 -0.440363 2.13841e-19)
(0.689917 -0.578036 -2.21214e-19)
(0.818759 -0.642282 1.21659e-19)
(0.903924 -0.65891 -1.444e-19)
(0.960182 -0.646844 -3.72598e-19)
(0.997739 -0.619299 4.89606e-19)
(1.0236 -0.584575 -1.64529e-19)
(1.04311 -0.547826 2.48666e-19)
(1.0594 -0.514807 -5.4391e-19)
(0.231126 -0.182441 -6.25155e-22)
(0.53674 -0.418807 -1.2359e-19)
(0.743071 -0.559912 4.5618e-20)
(0.87983 -0.6318 1.28751e-19)
(0.968149 -0.656643 -7.11893e-20)
(1.02392 -0.651782 2.10327e-20)
(1.05842 -0.629879 -1.53661e-20)
(1.07941 -0.599498 -3.57348e-19)
(1.0926 -0.566406 -1.70253e-19)
(1.10298 -0.534436 -5.25595e-19)
(0.241817 -0.164767 -1.0193e-19)
(0.566323 -0.387225 3.60749e-19)
(0.786085 -0.528758 -2.29871e-19)
(0.931722 -0.607131 -9.94842e-20)
(1.02489 -0.640117 6.69596e-20)
(1.08212 -0.642862 4.54678e-20)
(1.11564 -0.627069 -2.00937e-22)
(1.13408 -0.601262 2.50769e-19)
(1.14356 -0.571722 -2.21536e-19)
(1.1497 -0.541564 -1.76501e-21)
(0.247017 -0.143913 -2.43969e-19)
(0.585186 -0.347527 -1.55917e-19)
(0.817081 -0.486346 -3.85304e-19)
(0.972392 -0.569671 4.39643e-19)
(1.07226 -0.610458 -3.18957e-20)
(1.13325 -0.621251 1.50717e-19)
(1.16814 -0.612458 1.81127e-19)
(1.18626 -0.592261 -6.43167e-20)
(1.19417 -0.567122 2.00493e-20)
(1.19767 -0.539651 -9.25621e-20)
(0.246602 -0.121133 -1.64629e-19)
(0.59252 -0.301962 -2.11356e-19)
(0.834603 -0.434945 3.20778e-19)
(0.999963 -0.521324 -4.85684e-19)
(1.10819 -0.569154 8.50722e-20)
(1.17517 -0.588093 4.43337e-20)
(1.2137 -0.586941 9.33906e-20)
(1.2335 -0.573206 -6.04583e-20)
(1.24147 -0.553237 -7.55141e-20)
(1.24354 -0.529289 -2.94508e-19)
(0.240756 -0.0976758 6.86193e-19)
(0.588079 -0.252946 -5.36119e-19)
(0.83773 -0.377147 2.46816e-20)
(1.01291 -0.464379 -6.9164e-19)
(1.13074 -0.518024 -2.0262e-19)
(1.20571 -0.544752 1.6275e-19)
(1.2501 -0.551512 1.20147e-19)
(1.27359 -0.544848 -4.01938e-19)
(1.28331 -0.530767 1.84598e-19)
(1.28524 -0.51126 -3.27432e-19)
(0.229932 -0.0747017 3.39399e-19)
(0.572186 -0.202901 -3.35774e-19)
(0.826154 -0.315725 1.2097e-18)
(1.01021 -0.401422 9.74112e-20)
(1.13829 -0.459228 2.74994e-19)
(1.22289 -0.492904 9.88891e-19)
(1.27518 -0.507418 -2.03551e-19)
(1.30445 -0.508127 5.3577e-20)
(1.31778 -0.500483 -2.60377e-20)
(1.32108 -0.486238 -5.18006e-20)
(0.214808 -0.0532183 2.61109e-19)
(0.545702 -0.154112 5.94794e-19)
(0.800221 -0.253475 -6.07901e-19)
(0.991447 -0.335223 -1.85606e-19)
(1.12973 -0.395186 -1.97458e-19)
(1.22504 -0.434492 3.86262e-19)
(1.28698 -0.45613 -1.83209e-19)
(1.32402 -0.464118 4.34019e-19)
(1.34293 -0.463171 1.0645e-19)
(1.34933 -0.454793 -1.86687e-19)
(0.196231 -0.034035 -2.82127e-19)
(0.509966 -0.108602 2.62008e-19)
(0.76093 -0.193071 -5.38713e-19)
(0.956899 -0.268599 2.25936e-19)
(1.10449 -0.328501 -2.2679e-19)
(1.21091 -0.371703 -2.70408e-19)
(1.28379 -0.399354 -2.10616e-19)
(1.33038 -0.414086 2.32751e-19)
(1.35682 -0.41974 -4.06977e-19)
(1.36818 -0.417537 2.57514e-19)
(0.175152 -0.0177363 -1.05601e-19)
(0.466697 -0.0680389 -2.07558e-19)
(0.709883 -0.136921 9.76695e-20)
(0.90754 -0.204288 7.13452e-21)
(1.06273 -0.261873 7.79674e-20)
(1.17984 -0.306937 1.11966e-19)
(1.2643 -0.339061 9.58212e-20)
(1.32182 -0.359554 -1.29542e-19)
(1.35758 -0.371304 1.0623e-19)
(1.37581 -0.375228 -1.68044e-19)
(0.152562 -0.00467321 -6.65391e-20)
(0.417879 -0.0336613 -2.68248e-20)
(0.649199 -0.0870521 1.00251e-19)
(0.845048 -0.144815 -4.5165e-20)
(1.00535 -0.197985 1.26847e-19)
(1.13186 -0.242752 -1.60495e-19)
(1.22775 -0.277492 4.11056e-20)
(1.29697 -0.302356 3.54308e-20)
(1.3435 -0.319275 -1.2887e-20)
(1.37044 -0.328854 5.85176e-20)
(0.129427 0.00502803 -7.97854e-20)
(0.365623 -0.00624879 -3.38882e-19)
(0.581377 -0.0450126 -2.74187e-20)
(0.771711 -0.0923545 1.09397e-20)
(0.934016 -0.139379 -4.71702e-19)
(1.06776 -0.181771 4.98103e-20)
(1.17404 -0.217118 -5.27724e-20)
(1.255 -0.24466 -1.4405e-19)
(1.31317 -0.265437 3.19779e-19)
(1.35036 -0.279753 -5.82152e-19)
(0.106628 0.0114415 -4.52668e-20)
(0.312033 0.0138782 7.27049e-19)
(0.509131 -0.011812 9.72293e-20)
(0.690306 -0.0486169 -6.57641e-19)
(0.851088 -0.0883045 -7.85563e-20)
(0.98919 -0.126551 -7.435e-19)
(1.10392 -0.160561 5.78709e-19)
(1.19575 -0.188962 -2.35471e-19)
(1.26572 -0.21201 4.46167e-19)
(1.3142 -0.229716 -3.94549e-19)
(0.0849183 0.014806 -2.56108e-19)
(0.259073 0.0268289 2.98887e-19)
(0.435212 0.0121082 -2.0892e-19)
(0.603914 -0.0147421 1.44418e-18)
(0.759516 -0.0465655 7.65428e-19)
(0.898547 -0.0794092 -2.0069e-19)
(1.01898 -0.110454 7.80569e-19)
(1.1199 -0.137999 -5.11006e-19)
(1.20096 -0.161646 -1.65189e-19)
(1.26111 -0.181071 1.18946e-18)
(0.0648943 0.0154851 -4.73779e-19)
(0.208466 0.0330917 7.08145e-19)
(0.362231 0.0268767 -1.34433e-18)
(0.515702 0.00878181 2.32873e-19)
(0.662617 -0.0153568 5.81579e-19)
(0.798885 -0.042213 -7.30529e-19)
(0.921665 -0.0692128 -1.29576e-18)
(1.02906 -0.0945687 6.94771e-19)
(1.11962 -0.117324 -9.0467e-19)
(1.19098 -0.136676 1.4479e-18)
(0.0469877 0.0139287 -1.17072e-19)
(0.161623 0.0334793 -7.13034e-19)
(0.292505 0.0331775 3.51911e-19)
(0.42869 0.0221869 8.82341e-19)
(0.563805 0.0049073 -4.73869e-19)
(0.693628 -0.0161096 -4.68251e-19)
(0.815025 -0.0387148 -7.94875e-19)
(0.925643 -0.0612058 -3.6446e-19)
(1.02329 -0.0820898 -8.76517e-20)
(1.10458 -0.099762 1.44622e-18)
(0.0314792 0.0106483 1.96997e-19)
(0.119611 0.0290806 -9.69519e-19)
(0.227935 0.0322281 1.65998e-18)
(0.345539 0.0264818 -9.24311e-19)
(0.466289 0.0147734 5.99973e-19)
(0.586206 -0.0011992 -7.46619e-19)
(0.702339 -0.0198351 8.31817e-19)
(0.812436 -0.0396401 7.26801e-19)
(0.914123 -0.0585324 1.58766e-18)
(1.00339 -0.073517 -2.6248e-18)
(0.0185289 0.00620615 -6.12068e-19)
(0.083168 0.0212195 1.23054e-18)
(0.169965 0.0257392 1.67122e-20)
(0.268412 0.0234731 -4.43546e-19)
(0.372821 0.0159067 -2.35197e-19)
(0.479679 0.00383449 1.88704e-19)
(0.586573 -0.0118138 -1.33997e-18)
(0.691928 -0.029931 1.0352e-18)
(0.793951 -0.0478508 -1.33428e-18)
(0.888642 -0.0602527 -6.08419e-19)
(0.00820717 0.00121024 1.05431e-18)
(0.0527373 0.0113971 -3.28899e-19)
(0.119601 0.0158192 -6.18231e-19)
(0.198974 0.0156893 1.67952e-18)
(0.285649 0.0111296 -1.65079e-18)
(0.376555 0.0020012 9.22979e-19)
(0.469864 -0.0116088 9.83596e-19)
(0.564989 -0.0293946 2.69215e-19)
(0.661561 -0.0486587 2.79843e-19)
(0.757256 -0.0607345 -3.96308e-19)
(0.000508143 -0.00371165 -1.00901e-18)
(0.0285197 0.00117006 9.60019e-19)
(0.0775407 0.00475718 -8.50015e-19)
(0.138649 0.00613197 1.06749e-18)
(0.207005 0.00429843 -3.18902e-19)
(0.279631 -0.00166801 -1.10913e-18)
(0.354677 -0.0125062 3.18018e-19)
(0.431721 -0.0291635 -5.24485e-19)
(0.511716 -0.0509206 -6.20955e-19)
(0.596969 -0.0678293 -1.93515e-18)
(-0.00467611 -0.00799763 -1.26223e-18)
(0.010477 -0.00810786 1.00394e-18)
(0.0442622 -0.00547784 -1.96853e-18)
(0.0889369 -0.00256698 3.52217e-19)
(0.140033 -0.000935047 -1.36544e-18)
(0.194441 -0.00154747 -8.19732e-19)
(0.249574 -0.00473195 1.96266e-18)
(0.303484 -0.0107155 -2.68489e-18)
(0.355515 -0.0201063 5.1689e-19)
(0.402915 -0.0287698 -8.54979e-19)
(-0.00761044 -0.0112706 6.21975e-19)
(-0.00178131 -0.0155896 2.63799e-19)
(0.0197646 -0.0139011 -7.89331e-20)
(0.0508565 -0.00970683 7.48695e-19)
(0.0878019 -0.00489742 2.20031e-18)
(0.128018 -0.000437977 7.60124e-19)
(0.169486 0.00347488 7.8598e-19)
(0.210996 0.0068832 -2.71662e-19)
(0.252615 0.00911936 -2.54068e-18)
(0.291758 0.0106005 6.43779e-19)
(-0.00873149 -0.01336 -1.75932e-19)
(-0.00912489 -0.0208688 5.60233e-19)
(0.0030529 -0.0201284 -1.46833e-19)
(0.0233828 -0.0152855 1.03671e-18)
(0.0490878 -0.00851815 -2.39728e-18)
(0.0782143 -0.000991012 2.03899e-19)
(0.109325 0.00676405 -1.1423e-18)
(0.141634 0.0143341 1.68254e-18)
(0.174954 0.020747 -4.91493e-19)
(0.206606 0.0253139 -7.02893e-20)
(-0.00855173 -0.0142529 -1.1972e-19)
(-0.0126808 -0.0238228 -6.73661e-19)
(-0.00739857 -0.0239871 1.69565e-18)
(0.00459269 -0.0191633 -8.93881e-19)
(0.021398 -0.0117228 6.26106e-20)
(0.0416007 -0.00304635 2.86986e-19)
(0.0641541 0.00599396 -2.62911e-19)
(0.0884309 0.0146014 3.41302e-19)
(0.114011 0.0216683 1.18407e-18)
(0.138674 0.0263953 3.10204e-19)
(-0.00756035 -0.0140352 -2.68951e-19)
(-0.0135881 -0.0245162 -2.99255e-19)
(-0.0131937 -0.0254323 -1.32819e-18)
(-0.00752554 -0.0211195 7.07511e-19)
(0.0023156 -0.0139769 -1.45971e-18)
(0.0153629 -0.00548192 3.31552e-19)
(0.0308517 0.00333247 3.7297e-19)
(0.048237 0.0115524 -3.94685e-19)
(0.0669962 0.0181623 -2.55531e-19)
(0.0854718 0.0224357 -1.14792e-18)
(-0.00617301 -0.0128461 2.10383e-19)
(-0.0128669 -0.0231404 -4.9556e-20)
(-0.0158124 -0.0245503 8.97158e-22)
(-0.014839 -0.0210228 -6.38895e-19)
(-0.0103705 -0.0148013 1.61733e-18)
(-0.00300416 -0.00731176 -2.52313e-19)
(0.00671164 0.000419387 -6.29953e-19)
(0.0182986 0.00753444 7.71128e-19)
(0.0312166 0.0132111 -2.71153e-19)
(0.0442943 0.0168482 1.49851e-18)
(-0.00471652 -0.0108476 -3.95131e-20)
(-0.0113564 -0.0199719 -2.3159e-19)
(-0.0164995 -0.0215522 -9.14051e-20)
(-0.018921 -0.0188999 -1.16799e-19)
(-0.0184984 -0.0139356 -2.51036e-19)
(-0.0155337 -0.00790032 -7.88536e-19)
(-0.0104027 -0.00169209 9.865e-19)
(-0.00351611 0.00397664 5.76491e-19)
(0.00460952 0.00849231 -1.03205e-19)
(0.0131735 0.0113928 -9.19129e-19)
(-0.00343251 -0.00821068 2.2446e-19)
(-0.0096998 -0.0153462 3.9158e-20)
(-0.0162212 -0.0167655 2.65295e-19)
(-0.0209885 -0.0149593 -3.04298e-20)
(-0.0234677 -0.0113921 2.41565e-19)
(-0.0237367 -0.00701822 2.72621e-19)
(-0.0220373 -0.00252585 4.08876e-19)
(-0.018717 0.00155974 -1.15834e-18)
(-0.0142575 0.00481919 -2.13867e-19)
(-0.00919966 0.0069267 3.83206e-19)
(-0.00248903 -0.00511146 -1.13384e-19)
(-0.0083544 -0.009644 -1.61091e-19)
(-0.01567 -0.0106199 -7.74378e-20)
(-0.0219099 -0.00958234 3.7889e-19)
(-0.0262656 -0.00744617 1.83906e-19)
(-0.0286634 -0.00480981 3.77242e-20)
(-0.0292516 -0.00210302 -8.17781e-20)
(-0.0283292 0.000354449 -6.34611e-20)
(-0.0263483 0.00231947 5.44807e-19)
(-0.0236866 0.00359821 -3.70975e-19)
(-0.00199191 -0.00173169 5.78098e-20)
(-0.00761143 -0.00328101 7.18938e-20)
(-0.0152876 -0.00362543 -6.12855e-20)
(-0.0222374 -0.00328685 -5.60509e-20)
(-0.0275148 -0.00257593 -5.81177e-20)
(-0.0309696 -0.00169617 -9.27526e-20)
(-0.0327022 -0.000793346 2.96962e-21)
(-0.0329849 2.54486e-05 1.28713e-19)
(-0.0322534 0.000680761 -1.29268e-19)
(-0.0308074 0.00110818 2.35178e-19)
(-0.00633566 -0.00270473 1.70859e-20)
(0.0668092 -0.00682612 1.0561e-20)
(0.285199 -0.00693713 1.48939e-21)
(0.390471 -0.00461888 -1.00604e-21)
(0.500364 -0.00398884 -7.46142e-23)
(0.586452 -0.00302489 1.81833e-22)
(0.650308 -0.0028254 1.91093e-22)
(0.726363 -0.00219082 -2.5986e-23)
(0.756753 -0.00228769 -7.22126e-24)
(0.835866 -0.00169875 4.21944e-22)
(0.0106222 -0.00840108 2.68453e-20)
(0.0822328 -0.0201799 9.6141e-22)
(0.296832 -0.0205798 -1.89869e-20)
(0.399371 -0.0138438 1.6082e-20)
(0.507177 -0.0120847 1.05084e-21)
(0.591718 -0.00922069 -7.74085e-22)
(0.654555 -0.00849996 8.13972e-22)
(0.729502 -0.00649476 2.49344e-23)
(0.759431 -0.00661438 -5.36105e-23)
(0.837545 -0.00485722 -3.84922e-22)
(0.0442168 -0.0149834 2.7878e-20)
(0.112577 -0.0330482 -3.77908e-20)
(0.319656 -0.0337573 1.92636e-20)
(0.416848 -0.0227591 -1.34854e-20)
(0.520552 -0.0199384 1.00156e-21)
(0.602055 -0.0152484 -7.7734e-22)
(0.662879 -0.0140363 -2.93855e-22)
(0.735651 -0.0106997 -2.93354e-23)
(0.76467 -0.0108516 3.71484e-23)
(0.840829 -0.0079558 -5.58405e-22)
(0.0938142 -0.0229315 -4.25818e-20)
(0.156882 -0.0451294 -5.19079e-20)
(0.352803 -0.0461808 -2.47203e-20)
(0.442256 -0.0311752 1.36493e-20)
(0.540007 -0.0274006 -1.73748e-20)
(0.61712 -0.0210042 4.87624e-21)
(0.675031 -0.0193488 -2.42516e-22)
(0.744652 -0.0147442 4.33145e-23)
(0.77236 -0.0149435 6.06475e-24)
(0.845673 -0.0109567 2.09683e-22)
(0.158437 -0.0325165 1.18807e-19)
(0.213769 -0.0561333 7.65933e-20)
(0.395029 -0.0575831 2.78846e-20)
(0.474669 -0.0389246 -2.70505e-20)
(0.564839 -0.0343388 1.42675e-20)
(0.6364 -0.0263957 4.01494e-21)
(0.690617 -0.0243602 2.66734e-21)
(0.756238 -0.0185728 1.41622e-22)
(0.782289 -0.0188386 -7.14898e-23)
(0.851958 -0.0138251 -1.09357e-21)
(0.236751 -0.0436599 -5.29613e-20)
(0.281506 -0.0657412 3.94377e-20)
(0.444795 -0.0677063 4.97896e-21)
(0.512942 -0.0458584 3.05682e-20)
(0.594186 -0.0406384 -7.02725e-21)
(0.659268 -0.031344 -4.8119e-21)
(0.70916 -0.0290043 -2.74604e-21)
(0.770087 -0.0221384 5.98278e-23)
(0.794209 -0.0224913 -2.47853e-23)
(0.859552 -0.0165298 1.20055e-21)
(0.327071 -0.0560722 -3.96284e-20)
(0.358065 -0.0736842 -1.05566e-19)
(0.500347 -0.076343 -1.83692e-20)
(0.555775 -0.0518551 -1.65624e-20)
(0.627076 -0.0462098 8.42389e-21)
(0.68501 -0.0357864 -2.30147e-21)
(0.730113 -0.0332278 3.13182e-21)
(0.785824 -0.0254022 4.00428e-22)
(0.807827 -0.0258643 -2.83718e-24)
(0.868292 -0.0190433 4.57251e-22)