/*--------------------------------*- C++ -*----------------------------------*\
  =========                 |
  \\      /  F ield         | OpenFOAM: The Open Source CFD Toolbox
   \\    /   O peration     | Website:  https://openfoam.org
    \\  /    A nd           | Version:  6.0
     \\/     M anipulation  |
\*---------------------------------------------------------------------------*/
FoamFile
{
    version     2.0;
    format      ascii;
    class       volScalarField;
    location    "0.1";
    object      p;
}
// * * * * * * * * * * * * * * * * * * * * * * * * * * * * * * * * * * * * * //

dimensions      [0 2 -2 0 0 0 0];

internalField   nonuniform List<scalar> 
1600
(
-2.52041e-07
-0.00115472
-0.00381707
-0.00741006
-0.0112737
-0.0149159
-0.0179826
-0.0202245
-0.021476
-0.0216383
-0.0206662
-0.0185578
-0.0153466
-0.0110947
-0.00588813
0.000166659
0.00694605
0.0143122
0.0221155
0.0301971
0.0383913
0.0465273
0.0544327
0.0619365
0.0688727
0.0750847
0.0804293
0.0847822
0.0880424
0.0901391
0.0910374
0.090745
0.0893211
0.0868847
0.0836263
0.0798212
0.075845
0.0722003
0.0695481
0.0684441
0.00119345
3.7905e-05
-0.00212395
-0.00491144
-0.00788862
-0.0106938
-0.0130453
-0.0147324
-0.0156067
-0.0155734
-0.0145829
-0.0126239
-0.00971727
-0.00591065
-0.00127428
0.00410227
0.0101129
0.0166377
0.0235459
0.0306979
0.0379477
0.0451448
0.0521376
0.0587764
0.0649168
0.0704233
0.0751739
0.0790642
0.0820119
0.0839622
0.0848931
0.0848207
0.0838058
0.0819595
0.0794501
0.0765087
0.0734335
0.0705961
0.0684405
0.067342
0.00392898
0.00223893
3.92511e-05
-0.00246517
-0.00503669
-0.00740913
-0.00936147
-0.0107238
-0.0113719
-0.0112233
-0.0102324
-0.0083862
-0.00570009
-0.00221351
0.0020134
0.00690256
0.0123604
0.0182804
0.0245456
0.0310308
0.0376046
0.0441316
0.0504754
0.0565015
0.0620804
0.0670915
0.0714264
0.0749934
0.0777211
0.0795634
0.0805034
0.0805584
0.0797835
0.0782763
0.0761788
0.0736795
0.0710158
0.068466
0.066286
0.0646871
0.00766608
0.00509946
0.00250415
-7.40787e-05
-0.00257645
-0.00480662
-0.00659245
-0.00780355
-0.00834269
-0.00814399
-0.00717114
-0.005415
-0.00289057
0.000366216
0.00430107
0.00884339
0.0139083
0.019399
0.0252086
0.0312227
0.0373205
0.0433778
0.0492691
0.0548704
0.0600625
0.0647341
0.0687852
0.0721311
0.0747059
0.0764661
0.077395
0.0775051
0.076842
0.0754862
0.0735531
0.0711927
0.0685953
0.0659732
0.0634123
0.0609731
0.0118146
0.00823146
0.00507117
0.00224002
-0.000367393
-0.00261002
-0.00435695
-0.0055146
-0.00601256
-0.00580305
-0.00486137
-0.00318484
-0.000790779
0.0022858
0.00599399
0.0102684
0.0150307
0.0201916
0.0256523
0.0313067
0.037043
0.0427456
0.0482973
0.0535823
0.0584884
0.0629109
0.0667549
0.0699395
0.0724008
0.0740949
0.0750016
0.0751266
0.0745034
0.0731948
0.0712904
0.0689056
0.0661925
0.0633123
0.0601941
0.0567664
0.0159569
0.0113158
0.00749977
0.00430001
0.00146699
-0.000900345
-0.00270416
-0.00388311
-0.00439194
-0.00420084
-0.00329762
-0.00168756
0.000607963
0.00355291
0.0070977
0.0111802
0.0157265
0.0206528
0.0258667
0.0312684
0.0367529
0.0422108
0.0475313
0.052604
0.0573213
0.0615821
0.0652941
0.0683773
0.0707666
0.0724154
0.0732977
0.0734103
0.072774
0.071434
0.0694567
0.0669279
0.0639704
0.0607077
0.0569331
0.0524664
0.0197906
0.0140956
0.0095778
0.00593453
0.00279235
0.000219337
-0.00171208
-0.00296787
-0.00352519
-0.00337128
-0.00250659
-0.000944995
0.0012869
0.00415051
0.0075959
0.0115623
0.0159788
0.0207653
0.0258335
0.0310885
0.0364296
0.0417521
0.0469489
0.0519128
0.0565387
0.0607264
0.0643836
0.0674284
0.0697926
0.0714243
0.0722899
0.072376
0.0716905
0.0702623
0.068137
0.0653766
0.0620826
0.0583533
0.0538666
0.0483556
0.0230874
0.0163607
0.0111228
0.00699271
0.00348929
0.000658411
-0.00144666
-0.00281474
-0.00344255
-0.00333302
-0.00249867
-0.000962214
0.00124372
0.00407695
0.00748599
0.0114102
0.0157799
0.0205172
0.0255367
0.0307461
0.0360478
0.0413397
0.0465165
0.0514723
0.0561019
0.0603043
0.0639846
0.0670573
0.0694487
0.0710996
0.0719673
0.0720277
0.0712755
0.0697244
0.0674025
0.0643523
0.0606613
0.0564121
0.0511838
0.0446391
0.0256686
0.0179351
0.0119728
0.00733299
0.0034386
0.000319556
-0.00198535
-0.00348402
-0.00419019
-0.00412095
-0.00330028
-0.00175976
0.00046161
0.00331741
0.00675367
0.0107087
0.015113
0.0198895
0.0249542
0.0302165
0.03558
0.0409433
0.0462018
0.0512487
0.0559773
0.0602836
0.0640682
0.0672398
0.0697174
0.071433
0.0723338
0.0723836
0.0715643
0.0698754
0.0673298
0.0639546
0.0598286
0.055026
0.0490388
0.0414701
0.0273862
0.0186653
0.0119799
0.00681992
0.00251982
-0.000901833
-0.00341719
-0.00505038
-0.00583029
-0.00578687
-0.00495492
-0.00337469
-0.00109176
0.0018427
0.00537153
0.00943116
0.0139513
0.0188548
0.0240579
0.0294702
0.0349955
0.040532
0.045974
0.0512124
0.0561374
0.06064
0.064615
0.0679633
0.0705949
0.0724314
0.0734083
0.0734769
0.072606
0.0707814
0.0680025
0.0642843
0.0597007
0.0543226
0.0475625
0.0389698
0.0281086
0.0184111
0.0110047
0.00532128
0.000611156
-0.00311552
-0.00583939
-0.00759898
-0.00843691
-0.0083951
-0.00751865
-0.00585635
-0.0034605
-0.000387386
0.00330207
0.00754182
0.01226
0.0173787
0.0228134
0.0284732
0.0342608
0.0400731
0.0458019
0.0513348
0.0565573
0.0613541
0.0656122
0.0692232
0.0720864
0.0741114
0.0752206
0.0753517
0.0744595
0.0725169
0.0695105
0.0654446
0.0603915
0.0544224
0.0468735
0.0372433
0.0277115
0.0170382
0.00891121
0.00270507
-0.002412
-0.00643672
-0.00935687
-0.0112243
-0.0120945
-0.0120208
-0.0110585
-0.00926482
-0.00669902
-0.00342281
0.000498761
0.00499668
0.00999707
0.0154205
0.0211812
0.0271869
0.0333388
0.0395313
0.0456531
0.0515874
0.0572135
0.0624088
0.0670508
0.0710203
0.0742041
0.0764979
0.0778095
0.0780615
0.0771938
0.0751654
0.0719506
0.067544
0.0620176
0.0554453
0.0470872
0.0363913
0.0260698
0.014412
0.00556178
-0.00116389
-0.00667933
-0.0109875
-0.0140828
-0.0160299
-0.0168971
-0.0167491
-0.0156513
-0.0136699
-0.010871
-0.00732218
-0.00309298
0.0017443
0.00711341
0.012933
0.0191159
0.025568
0.0321883
0.0388685
0.0454933
0.0519406
0.058083
0.0637889
0.0689253
0.0733602
0.0769663
0.0796234
0.0812226
0.0816694
0.0808874
0.0788204
0.0754296
0.0706995
0.0647028
0.0575172
0.0483238
0.0365189
0.0230523
0.0103925
0.000813057
-0.00642747
-0.0123281
-0.0168984
-0.0201393
-0.0221288
-0.0229482
-0.0226742
-0.0213829
-0.0191493
-0.0160475
-0.012151
-0.00753401
-0.00227243
0.00355494
0.00986488
0.0165684
0.0235696
0.0307652
0.0380439
0.0452861
0.052364
0.0591425
0.0654801
0.071232
0.0762519
0.0803961
0.0835266
0.0855152
0.086248
0.0856299
0.0835873
0.0800664
0.0750407
0.0685832
0.0607753
0.0507149
0.0377433
0.0185175
0.00482973
-0.00548784
-0.0132373
-0.0195057
-0.0243099
-0.0276583
-0.0296432
-0.03036
-0.0298984
-0.0283459
-0.0257875
-0.0223055
-0.0179798
-0.0128897
-0.00711462
-0.000735976
0.00616119
0.0134863
0.0211421
0.0290229
0.0370147
0.0449935
0.0528257
0.0603678
0.0674682
0.0739684
0.0797066
0.0845206
0.088252
0.0907506
0.0918798
0.0915224
0.0895848
0.0859949
0.0807132
0.0738115
0.0653747
0.05441
0.0401999
0.0123106
-0.00243918
-0.0135069
-0.0217577
-0.0283718
-0.0333741
-0.0367824
-0.0387049
-0.0392531
-0.038531
-0.0366392
-0.0336737
-0.0297256
-0.0248821
-0.0192276
-0.0128452
-0.00581854
0.00176579
0.00981624
0.0182344
0.0269133
0.0357363
0.0445757
0.0532921
0.0617339
0.0697381
0.0771324
0.0837374
0.0893704
0.0938496
0.0969996
0.0986573
0.0986793
0.0969472
0.0933673
0.0878827
0.0805625
0.0714931
0.0595823
0.0440486
0.00426026
-0.011594
-0.0234266
-0.0321694
-0.0391008
-0.0442567
-0.0476659
-0.0494554
-0.0497555
-0.048687
-0.0463653
-0.0428992
-0.0383896
-0.0329315
-0.0266147
-0.0195259
-0.0117506
-0.0033762
0.00550556
0.0147962
0.0243883
0.0341639
0.0439923
0.053729
0.0632144
0.0722746
0.080722
0.0883585
0.0949787
0.100375
0.104341
0.106684
0.107229
0.105827
0.102357
0.0967401
0.0890384
0.0793377
0.0664353
0.04948
-0.00582514
-0.0228356
-0.0354511
-0.0446729
-0.0518857
-0.0571389
-0.0604756
-0.0620458
-0.062002
-0.0604852
-0.0576283
-0.0535545
-0.0483765
-0.0421975
-0.035113
-0.0272131
-0.0185845
-0.0093144
0.000506572
0.0107813
0.0214035
0.0322553
0.0432045
0.0541027
0.0647835
0.0750618
0.0847351
0.0935852
0.101382
0.107887
0.112862
0.116077
0.117318
0.116399
0.113164
0.107506
0.0994747
0.0891515
0.0752095
0.0567214
-0.0181617
-0.0363915
-0.0498106
-0.0594937
-0.0669413
-0.0722201
-0.0753927
-0.076637
-0.0761328
-0.0740457
-0.0705297
-0.0657251
-0.0597579
-0.0527406
-0.0447747
-0.0359528
-0.0263622
-0.0160883
-0.00521914
0.00615166
0.0179211
0.0299734
0.0421773
0.0543823
0.0664164
0.078085
0.0891704
0.0994337
0.108618
0.116452
0.122659
0.126964
0.129108
0.12886
0.126018
0.120436
0.112147
0.101221
0.0861908
0.066045
-0.0329949
-0.0525214
-0.0667679
-0.0768875
-0.0845084
-0.0897209
-0.0926131
-0.0933985
-0.0922911
-0.0894867
-0.0851649
-0.0794865
-0.0725928
-0.0646068
-0.0556357
-0.0457745
-0.0351091
-0.0237219
-0.0116955
0.000882345
0.0139145
0.0272907
0.0408829
0.0545416
0.0680917
0.0813307
0.0940271
0.105921
0.116727
0.126139
0.133833
0.139487
0.142784
0.143435
0.141183
0.135831
0.127382
0.115887
0.0997205
0.0777773
-0.0506067
-0.0715256
-0.0866268
-0.0971475
-0.10486
-0.109886
-0.112349
-0.112508
-0.11062
-0.10692
-0.101617
-0.0948973
-0.0869202
-0.0778197
-0.067709
-0.056684
-0.0448278
-0.0322167
-0.0189256
-0.00503302
0.00937364
0.0241929
0.0393042
0.0545624
0.0697931
0.0847887
0.099306
0.113066
0.125753
0.137021
0.146498
0.153802
0.15855
0.160382
0.158966
0.15404
0.145562
0.133556
0.116207
0.0923102
-0.0713241
-0.0937565
-0.109743
-0.120614
-0.128307
-0.132987
-0.134829
-0.134148
-0.131259
-0.126443
-0.119948
-0.111991
-0.10275
-0.0923722
-0.0809755
-0.0686551
-0.0554891
-0.0415448
-0.0268852
-0.0115757
0.00431017
0.0206846
0.0374391
0.0544379
0.0715119
0.0884528
0.105009
0.120885
0.135735
0.149173
0.160772
0.17008
0.176636
0.179991
0.179721
0.175474
0.167147
0.154713
0.136144
0.110116
-0.0955338
-0.119634
-0.13654
-0.147686
-0.155206
-0.15933
-0.160297
-0.158504
-0.154336
-0.148133
-0.140193
-0.130766
-0.120054
-0.108216
-0.0953735
-0.0816199
-0.0670238
-0.0516395
-0.0355141
-0.0186947
-0.00123559
0.0167946
0.0353053
0.0541762
0.0732497
0.0923228
0.111142
0.129396
0.146715
0.16267
0.176776
0.188502
0.197294
0.202592
0.203857
0.200617
0.192681
0.179946
0.160127
0.131766
-0.123702
-0.14967
-0.167532
-0.178841
-0.185976
-0.189256
-0.189016
-0.185757
-0.179958
-0.172035
-0.162343
-0.151172
-0.13875
-0.125247
-0.110788
-0.0954574
-0.0793117
-0.0623869
-0.0447083
-0.0262991
-0.00718807
0.0125819
0.0329452
0.0538045
0.0750212
0.0964059
0.117709
0.138614
0.158729
0.177584
0.194632
0.209258
0.220796
0.228556
0.231846
0.230041
0.222819
0.209969
0.188886
0.157957
-0.156403
-0.184501
-0.203351
-0.214657
-0.221105
-0.223149
-0.221259
-0.216076
-0.208201
-0.198144
-0.18633
-0.173094
-0.158689
-0.143296
-0.127036
-0.109983
-0.0921726
-0.0736166
-0.0543121
-0.0342514
-0.0134306
0.00814065
0.03043
0.0533718
0.0768559
0.100716
0.124719
0.148549
0.171802
0.193974
0.214455
0.23254
0.247436
0.258293
0.264231
0.26442
0.258353
0.245656
0.223321
0.189545
-0.194365
-0.224937
-0.244795
-0.25584
-0.261171
-0.261439
-0.257305
-0.249604
-0.239089
-0.22639
-0.21201
-0.196333
-0.179638
-0.162109
-0.143858
-0.124938
-0.105357
-0.0850953
-0.0641128
-0.0423631
-0.019802
0.00360294
0.0278614
0.0529495
0.078797
0.105273
0.132172
0.159197
0.185941
0.211877
0.23634
0.258529
0.277512
0.292252
0.301631
0.304549
0.300243
0.288089
0.264558
0.227599
-0.238535
-0.272034
-0.292888
-0.303273
-0.30686
-0.304598
-0.297426
-0.286432
-0.272569
-0.256605
-0.239133
-0.220588
-0.201262
-0.181337
-0.160903
-0.139981
-0.118542
-0.0965227
-0.0738381
-0.0503939
-0.0260965
-0.000862594
0.0253696
0.052629
0.0808978
0.110096
0.140061
0.170532
0.201121
0.231293
0.260342
0.287376
0.311317
0.330908
0.344744
0.35137
0.349663
0.338626
0.314027
0.273474
-0.290186
-0.327205
-0.348963
-0.358058
-0.358983
-0.35314
-0.341861
-0.326571
-0.308472
-0.288493
-0.267319
-0.245424
-0.223104
-0.200519
-0.177721
-0.154684
-0.131327
-0.107533
-0.0831596
-0.0580559
-0.0320694
-0.00505677
0.0231063
0.0525131
0.0832123
0.11519
0.148351
0.18249
0.217265
0.252159
0.286449
0.319172
0.349102
0.374743
0.39434
0.405986
0.408055
0.398994
0.373583
0.328925
-0.351075
-0.392384
-0.414794
-0.421589
-0.41849
-0.40759
-0.390769
-0.369894
-0.346464
-0.321582
-0.296014
-0.270251
-0.244567
-0.219072
-0.193758
-0.168531
-0.143241
-0.117701
-0.0917018
-0.0650244
-0.0374486
-0.00876194
0.0212322
0.0527033
0.0857811
0.120537
0.156964
0.194943
0.234211
0.274309
0.314538
0.353895
0.391029
0.424197
0.451241
0.46968
0.477198
0.471417
0.445679
0.396288
-0.423728
-0.47029
-0.492764
-0.495621
-0.486468
-0.468433
-0.444157
-0.41606
-0.385977
-0.355171
-0.324455
-0.294296
-0.2649
-0.236291
-0.208364
-0.180932
-0.153755
-0.12656
-0.0990596
-0.0709559
-0.0419531
-0.0117611
0.0198977
0.0532799
0.0886103
0.126065
0.165751
0.20767
0.251679
0.297434
0.344313
0.391341
0.437091
0.479597
0.51626
0.543901
0.559279
0.558797
0.533646
0.478776
-0.511911
-0.564837
-0.586109
-0.582343
-0.564087
-0.536009
-0.501754
-0.464398
-0.426107
-0.388254
-0.351622
-0.316577
-0.283191
-0.251345
-0.220797
-0.191235
-0.162302
-0.133626
-0.104825
-0.0755161
-0.0453207
-0.0138653
0.0192155
0.0542741
0.0916432
0.131623
0.174459
0.220313
0.269217
0.321004
0.375223
0.431018
0.486988
0.541019
0.59009
0.630218
0.656963
0.664962
0.642124
0.58099
-0.621495
-0.681795
-0.699231
-0.684403
-0.652476
-0.610313
-0.562811
-0.513737
-0.465501
-0.419446
-0.376193
-0.335886
-0.298368
-0.263304
-0.230262
-0.198765
-0.168319
-0.138434
-0.108624
-0.0784155
-0.0473434
-0.0149478
0.0192272
0.0556356
0.0947271
0.136941
0.182689
0.232333
0.286137
0.344199
0.406348
0.471995
0.539936
0.608078
0.673093
0.730171
0.773414
0.794981
0.777746
0.709847
-0.762095
-0.829842
-0.838065
-0.804831
-0.752421
-0.690656
-0.625807
-0.562187
-0.502202
-0.446902
-0.396518
-0.350799
-0.30923
-0.271173
-0.235945
-0.202868
-0.171289
-0.140583
-0.11016
-0.079451
-0.0479059
-0.0149809
0.019869
0.0571991
0.0975803
0.141601
0.189862
0.24296
0.301456
0.365807
0.436268
0.512719
0.594412
0.67959
0.764923
0.844951
0.912192
0.955531
0.950236
0.876342
-0.950395
-1.02225
-1.01034
-0.946596
-0.863728
-0.775063
-0.68798
-0.606833
-0.533483
-0.468239
-0.410604
-0.359698
-0.314494
-0.273951
-0.237081
-0.202973
-0.170796
-0.139791
-0.10926
-0.078547
-0.047023
-0.0140691
0.0209411
0.0586568
0.0997658
0.145008
0.195183
0.251154
0.313832
0.384137
0.462913
0.550766
0.647781
0.75305
0.863857
0.974687
1.07677
1.15513
1.17414
1.0991
-1.21689
-1.27932
-1.22518
-1.11124
-0.98381
-0.85916
-0.744588
-0.643298
-0.555631
-0.480466
-0.416127
-0.360824
-0.312859
-0.270702
-0.233018
-0.198646
-0.16658
-0.135933
-0.105912
-0.0757874
-0.0448673
-0.0124728
0.0220872
0.05954
0.100676
0.146373
0.197628
0.255578
0.321522
0.396928
0.483391
0.582536
0.695769
0.823785
0.965569
1.11689
1.26901
1.40366
1.47127
1.41145
-1.61753
-1.6307
-1.49128
-1.29647
-1.10569
-0.934859
-0.788214
-0.665484
-0.563943
-0.480106
-0.410597
-0.352448
-0.303163
-0.260683
-0.223317
-0.189675
-0.158595
-0.129089
-0.100296
-0.0714351
-0.0417769
-0.0106064
0.0228074
0.0592439
0.0995674
0.144767
0.196007
0.254677
0.322464
0.401418
0.49401
0.603156
0.732126
0.884202
1.06175
1.26439
1.48665
1.71025
1.8726
1.87302
-2.25426
-2.11573
-1.81331
-1.49417
-1.21727
-0.990432
-0.809383
-0.666458
-0.553652
-0.464046
-0.39209
-0.333469
-0.284863
-0.243717
-0.208046
-0.176283
-0.147166
-0.119651
-0.0928444
-0.0659534
-0.0382401
-0.00898504
0.0225504
0.0571622
0.0957481
0.13936
0.189273
0.247069
0.314759
0.394931
0.490951
0.607195
0.749281
0.92419
1.13998
1.40436
1.72101
2.07943
2.41808
2.58933
-3.35448
-2.78401
-2.17239
-1.67543
-1.2924
-1.00567
-0.794139
-0.637311
-0.519398
-0.429255
-0.359049
-0.303236
-0.257856
-0.220028
-0.187614
-0.158985
-0.132862
-0.108211
-0.0841601
-0.0599445
-0.0348577
-0.00821173
0.0207012
0.0526501
0.0885127
0.129336
0.176416
0.231411
0.296503
0.374636
0.469873
0.587915
0.73684
0.928148
1.17817
1.50845
1.94087
2.49107
3.15919
3.79328
-5.51225
-3.66697
-2.43134
-1.71344
-1.2414
-0.92161
-0.704758
-0.553945
-0.445534
-0.36529
-0.304281
-0.256656
-0.218459
-0.186933
-0.160084
-0.136426
-0.114808
-0.0943072
-0.074151
-0.053664
-0.0322238
-0.00922479
0.0159571
0.044002
0.07569
0.111959
0.15398
0.203278
0.261894
0.332672
0.419693
0.52902
0.669939
0.857239
1.11549
1.48383
2.01559
2.80619
4.13017
6.08284
-9.19476
-4.52314
-2.30658
-1.4209
-0.959043
-0.683161
-0.51254
-0.400892
-0.323242
-0.266744
-0.224204
-0.191192
-0.1648
-0.143019
-0.124397
-0.107839
-0.0924884
-0.0776511
-0.0627394
-0.0472351
-0.030658
-0.0125392
0.00760391
0.0302955
0.0561334
0.0858308
0.120272
0.160596
0.208325
0.26557
0.335394
0.422468
0.53434
0.684302
0.897982
1.22453
1.75401
2.734
5.06533
9.85722
)
;

boundaryField
{
    movingWall
    {
        type            zeroGradient;
    }
    fixedWalls
    {
        type            zeroGradient;
    }
    frontAndBack
    {
        type            empty;
    }
}


// ************************************************************************* //
