/*--------------------------------*- C++ -*----------------------------------*\
  =========                 |
  \\      /  F ield         | OpenFOAM: The Open Source CFD Toolbox
   \\    /   O peration     | Website:  https://openfoam.org
    \\  /    A nd           | Version:  6.0
     \\/     M anipulation  |
\*---------------------------------------------------------------------------*/
FoamFile
{
    version     2.0;
    format      ascii;
    class       volVectorField;
    location    "0.1";
    object      U;
}
// * * * * * * * * * * * * * * * * * * * * * * * * * * * * * * * * * * * * * //

dimensions      [0 1 -1 0 0 0 0];

internalField   nonuniform List<vector> 
1600
(
(6.01726e-05 -5.93535e-05 0)
(0.000153963 -5.58682e-05 0)
(0.000154569 -6.54924e-06 0)
(5.63276e-06 5.22143e-05 0)
(-0.000300589 0.000107052 0)
(-0.000748151 0.000153326 0)
(-0.00131288 0.000189702 0)
(-0.00196816 0.000216218 0)
(-0.00268712 0.000233437 0)
(-0.00344386 0.000242091 0)
(-0.00421398 0.000242955 0)
(-0.00497492 0.000236805 0)
(-0.00570611 0.000224403 0)
(-0.00638908 0.000206476 0)
(-0.00700743 0.000183722 0)
(-0.00754687 0.000156819 0)
(-0.00799526 0.000126441 0)
(-0.00834261 9.32658e-05 0)
(-0.00858109 5.79737e-05 0)
(-0.00870515 2.1262e-05 0)
(-0.00871154 -1.61465e-05 0)
(-0.00859939 -5.34977e-05 0)
(-0.00837033 -8.99993e-05 0)
(-0.00802859 -0.000124822 0)
(-0.00758103 -0.000157106 0)
(-0.00703727 -0.000185964 0)
(-0.00640967 -0.00021049 0)
(-0.00571331 -0.00022978 0)
(-0.00496598 -0.000242942 0)
(-0.00418796 -0.000249118 0)
(-0.00340187 -0.000247497 0)
(-0.00263231 -0.000237344 0)
(-0.00190548 -0.000218024 0)
(-0.00124853 -0.000189056 0)
(-0.000688754 -0.000150238 0)
(-0.000252117 -0.000101981 0)
(3.90601e-05 -4.61334e-05 0)
(0.000171672 1.21531e-05 0)
(0.000158346 5.93444e-05 0)
(5.96065e-05 5.93576e-05 0)
(5.83138e-05 -0.000154791 0)
(7.19628e-05 -6.77307e-05 0)
(-0.000176337 0.000180783 0)
(-0.000763453 0.000471587 0)
(-0.00170344 0.000751861 0)
(-0.00297007 0.000996866 0)
(-0.00451539 0.00119548 0)
(-0.00628078 0.00134387 0)
(-0.00820336 0.00144196 0)
(-0.0102198 0.00149161 0)
(-0.0122686 0.00149577 0)
(-0.0142918 0.00145795 0)
(-0.0162357 0.00138199 0)
(-0.0180514 0.00127188 0)
(-0.0196952 0.0011317 0)
(-0.0211289 0.000965602 0)
(-0.02232 0.000777771 0)
(-0.0232417 0.000572483 0)
(-0.0238731 0.000354103 0)
(-0.0241997 0.000127113 0)
(-0.0242129 -0.000103849 0)
(-0.0239109 -0.000333977 0)
(-0.0232985 -0.000558293 0)
(-0.0223874 -0.000771657 0)
(-0.0211965 -0.0009688 0)
(-0.0197518 -0.00114438 0)
(-0.0180862 -0.00129305 0)
(-0.0162399 -0.00140959 0)
(-0.0142596 -0.00148898 0)
(-0.0121982 -0.00152662 0)
(-0.010114 -0.00151843 0)
(-0.0080694 -0.00146115 0)
(-0.00612973 -0.0013526 0)
(-0.00436092 -0.00119221 0)
(-0.00282668 -0.000981801 0)
(-0.00158417 -0.000727307 0)
(-0.000677485 -0.000442058 0)
(-0.00012682 -0.000152803 0)
(9.03909e-05 8.67331e-05 0)
(6.09473e-05 0.000158752 0)
(1.12742e-05 -0.000160519 0)
(-0.000169777 0.000176951 0)
(-0.000793772 0.00080443 0)
(-0.00190629 0.00151728 0)
(-0.00350784 0.00221005 0)
(-0.00556284 0.00282421 0)
(-0.0080073 0.00332869 0)
(-0.0107608 0.00370933 0)
(-0.013735 0.00396208 0)
(-0.0168393 0.00408889 0)
(-0.0199841 0.00409537 0)
(-0.0230838 0.00398944 0)
(-0.0260584 0.0037804 0)
(-0.0288345 0.00347846 0)
(-0.0313462 0.00309434 0)
(-0.0335356 0.00263921 0)
(-0.0353534 0.00212453 0)
(-0.0367588 0.00156206 0)
(-0.0377205 0.000963893 0)
(-0.0382161 0.000342472 0)
(-0.0382332 -0.000289352 0)
(-0.0377693 -0.000918307 0)
(-0.0368321 -0.00153072 0)
(-0.0354397 -0.00211254 0)
(-0.033621 -0.00264951 0)
(-0.0314155 -0.00312723 0)
(-0.0288734 -0.00353151 0)
(-0.026055 -0.00384857 0)
(-0.0230304 -0.00406545 0)
(-0.0198784 -0.00417051 0)
(-0.016685 -0.00415392 0)
(-0.0135421 -0.00400844 0)
(-0.0105442 -0.00373033 0)
(-0.00778553 -0.00332073 0)
(-0.0053557 -0.00278788 0)
(-0.00333334 -0.00215076 0)
(-0.00177762 -0.00144541 0)
(-0.000716458 -0.000734688 0)
(-0.000138077 -0.000126371 0)
(1.72381e-05 0.000177523 0)
(-4.4988e-05 -2.17169e-05 0)
(-0.000458462 0.000758821 0)
(-0.00151524 0.00191726 0)
(-0.0031992 0.00318537 0)
(-0.00548127 0.00440984 0)
(-0.00831102 0.00549727 0)
(-0.0116085 0.00639351 0)
(-0.015275 0.00707095 0)
(-0.0192024 0.00751917 0)
(-0.0232788 0.00773892 0)
(-0.0273929 0.00773826 0)
(-0.0314374 0.00753007 0)
(-0.0353115 0.00713042 0)
(-0.0389222 0.00655747 0)
(-0.0421855 0.00583082 0)
(-0.0450278 0.00497106 0)
(-0.0473859 0.00399963 0)
(-0.049208 0.00293863 0)
(-0.0504537 0.00181085 0)
(-0.0510947 0.000639809 0)
(-0.0511154 -0.000550239 0)
(-0.0505126 -0.0017343 0)
(-0.0492965 -0.00288669 0)
(-0.0474905 -0.00398115 0)
(-0.0451316 -0.00499107 0)
(-0.0422705 -0.00588984 0)
(-0.0389709 -0.00665129 0)
(-0.0353097 -0.00725026 0)
(-0.0313755 -0.00766338 0)
(-0.0272676 -0.00786994 0)
(-0.0230941 -0.00785301 0)
(-0.0189697 -0.00760081 0)
(-0.0150118 -0.00710852 0)
(-0.0113368 -0.00638068 0)
(-0.00805482 -0.00543477 0)
(-0.00526281 -0.00430662 0)
(-0.00303557 -0.00305876 0)
(-0.00141483 -0.00179192 0)
(-0.000416016 -0.000663988 0)
(-3.65694e-05 5.82664e-05 0)
(-9.94112e-05 0.000274949 0)
(-0.000751346 0.00170727 0)
(-0.00225947 0.00354602 0)
(-0.00453281 0.00548386 0)
(-0.00750241 0.00733089 0)
(-0.0110971 0.00896391 0)
(-0.0152183 0.0103072 0)
(-0.0197496 0.0113194 0)
(-0.024565 0.0119829 0)
(-0.0295348 0.0122968 0)
(-0.0345302 0.0122714 0)
(-0.0394264 0.0119249 0)
(-0.0441057 0.011281 0)
(-0.0484595 0.010367 0)
(-0.0523895 0.00921293 0)
(-0.0558091 0.00785067 0)
(-0.0586442 0.00631361 0)
(-0.0608337 0.00463639 0)
(-0.0623303 0.0028548 0)
(-0.0631007 0.00100581 0)
(-0.0631266 -0.000872478 0)
(-0.0624043 -0.00274083 0)
(-0.0609457 -0.00455901 0)
(-0.0587786 -0.00628601 0)
(-0.0559464 -0.00788041 0)
(-0.0525083 -0.00930091 0)
(-0.0485392 -0.0105071 0)
(-0.0441289 -0.0114603 0)
(-0.0393808 -0.0121249 0)
(-0.0344109 -0.0124697 0)
(-0.029345 -0.0124697 0)
(-0.0243162 -0.0121082 0)
(-0.019461 -0.0113794 0)
(-0.0149148 -0.0102921 0)
(-0.010806 -0.00887406 0)
(-0.00725033 -0.00717857 0)
(-0.00434102 -0.00529388 0)
(-0.00213982 -0.0033544 0)
(-0.000699817 -0.00155799 0)
(-8.89366e-05 -0.000213357 0)
(-0.000149058 0.000722944 0)
(-0.0010324 0.00302309 0)
(-0.00298975 0.0056982 0)
(-0.00585284 0.00842043 0)
(-0.0095077 0.0109747 0)
(-0.0138576 0.013215 0)
(-0.0187826 0.0150477 0)
(-0.024147 0.0164193 0)
(-0.0298076 0.0173062 0)
(-0.0356184 0.0177059 0)
(-0.0414352 0.0176315 0)
(-0.0471187 0.0171071 0)
(-0.0525372 0.0161649 0)
(-0.0575694 0.0148425 0)
(-0.0621053 0.0131815 0)
(-0.0660482 0.0112267 0)
(-0.069315 0.00902499 0)
(-0.0718374 0.00662533 0)
(-0.0735623 0.00407836 0)
(-0.0744524 0.0014364 0)
(-0.074487 -0.00124662 0)
(-0.0736618 -0.00391525 0)
(-0.0719901 -0.00651267 0)
(-0.0695026 -0.00898107 0)
(-0.0662475 -0.0112622 0)
(-0.062291 -0.013298 0)
(-0.0577163 -0.0150319 0)
(-0.0526236 -0.0164101 0)
(-0.0471284 -0.017383 0)
(-0.04136 -0.0179075 0)
(-0.0354591 -0.0179496 0)
(-0.0295749 -0.0174867 0)
(-0.0238607 -0.0165118 0)
(-0.0184695 -0.0150374 0)
(-0.0135487 -0.0131009 0)
(-0.00923385 -0.0107721 0)
(-0.00564024 -0.00816175 0)
(-0.00285464 -0.00543212 0)
(-0.000973095 -0.00281092 0)
(-0.000136716 -0.000631746 0)
(-0.000193881 0.0013122 0)
(-0.00129749 0.00469536 0)
(-0.00369283 0.0083668 0)
(-0.00713706 0.0119903 0)
(-0.0114695 0.0153352 0)
(-0.016565 0.0182396 0)
(-0.0222793 0.0205967 0)
(-0.028456 0.0223444 0)
(-0.0349338 0.0234544 0)
(-0.0415512 0.0239245 0)
(-0.0481496 0.0237716 0)
(-0.0545767 0.0230268 0)
(-0.0606891 0.0217316 0)
(-0.0663549 0.019935 0)
(-0.0714547 0.0176917 0)
(-0.0758833 0.0150603 0)
(-0.0795508 0.0121028 0)
(-0.0823828 0.00888369 0)
(-0.0843217 0.00546992 0)
(-0.0853269 0.00193064 0)
(-0.0853754 -0.00166289 0)
(-0.0844624 -0.00523742 0)
(-0.0826016 -0.008718 0)
(-0.0798257 -0.0120284 0)
(-0.0761865 -0.0150918 0)
(-0.071755 -0.0178319 0)
(-0.0666211 -0.0201743 0)
(-0.060893 -0.0220482 0)
(-0.054696 -0.0233885 0)
(-0.0481708 -0.024139 0)
(-0.0414711 -0.0242549 0)
(-0.0347606 -0.0237068 0)
(-0.0282088 -0.022485 0)
(-0.0219864 -0.0206044 0)
(-0.0162606 -0.0181105 0)
(-0.0111894 -0.0150865 0)
(-0.00691312 -0.0116621 0)
(-0.00354696 -0.00802141 0)
(-0.00123189 -0.00441387 0)
(-0.000179817 -0.00118741 0)
(-0.00023482 0.0020333 0)
(-0.00154795 0.00671022 0)
(-0.00436799 0.0115393 0)
(-0.00838189 0.0161831 0)
(-0.0133826 0.0204026 0)
(-0.0192146 0.0240262 0)
(-0.0257076 0.0269393 0)
(-0.0326826 0.0290745 0)
(-0.0399597 0.0304023 0)
(-0.0473613 0.0309226 0)
(-0.054715 0.0306578 0)
(-0.0618565 0.0296475 0)
(-0.0686323 0.0279439 0)
(-0.0749011 0.0256088 0)
(-0.0805359 0.0227106 0)
(-0.0854248 0.0193234 0)
(-0.0894721 0.015525 0)
(-0.0925989 0.0113967 0)
(-0.0947439 0.00702278 0)
(-0.0958635 0.00249034 0)
(-0.0959329 -0.00211098 0)
(-0.0949461 -0.00668901 0)
(-0.092917 -0.0111495 0)
(-0.0898791 -0.0153964 0)
(-0.0858864 -0.0193333 0)
(-0.0810132 -0.0228639 0)
(-0.0753543 -0.0258946 0)
(-0.0690242 -0.0283361 0)
(-0.0621563 -0.0301061 0)
(-0.054901 -0.0311334 0)
(-0.047424 -0.0313608 0)
(-0.0399029 -0.0307501 0)
(-0.0325231 -0.0292869 0)
(-0.0254742 -0.0269864 0)
(-0.0189446 -0.0238994 0)
(-0.0131171 -0.0201195 0)
(-0.00815949 -0.0157908 0)
(-0.0042178 -0.0111144 0)
(-0.00147813 -0.00635571 0)
(-0.00021926 -0.00187176 0)
(-0.000273014 0.00287881 0)
(-0.00178718 0.00905512 0)
(-0.00502034 0.0152034 0)
(-0.00959339 0.0209883 0)
(-0.0152539 0.0261678 0)
(-0.021815 0.0305661 0)
(-0.0290791 0.0340653 0)
(-0.0368433 0.0365971 0)
(-0.0449079 0.0381339 0)
(-0.0530791 0.0386807 0)
(-0.0611706 0.0382677 0)
(-0.0690069 0.0369449 0)
(-0.0764248 0.0347769 0)
(-0.0832755 0.0318394 0)
(-0.0894254 0.0282161 0)
(-0.0947571 0.0239972 0)
(-0.0991707 0.0192775 0)
(-0.102583 0.0141559 0)
(-0.104931 0.00873485 0)
(-0.106168 0.0031199 0)
(-0.106266 -0.00258006 0)
(-0.10522 -0.00825323 0)
(-0.103042 -0.0137851 0)
(-0.0997647 -0.0190593 0)
(-0.0954443 -0.0239581 0)
(-0.0901566 -0.0283645 0)
(-0.0839995 -0.032164 0)
(-0.0770923 -0.0352471 0)
(-0.0695751 -0.0375127 0)
(-0.061607 -0.0388723 0)
(-0.0533647 -0.0392542 0)
(-0.0450395 -0.0386088 0)
(-0.0368336 -0.0369145 0)
(-0.0289561 -0.0341837 0)
(-0.0216186 -0.0304692 0)
(-0.0150306 -0.0258716 0)
(-0.00938988 -0.0205455 0)
(-0.00487474 -0.0147049 0)
(-0.00171611 -0.0086277 0)
(-0.00025634 -0.00267854 0)
(-0.000309516 0.00384359 0)
(-0.00201909 0.0117206 0)
(-0.0056573 0.0193493 0)
(-0.010782 0.0263975 0)
(-0.0170963 0.032624 0)
(-0.0243816 0.037853 0)
(-0.0324118 0.041968 0)
(-0.0409592 0.0449038 0)
(-0.0498036 0.0466387 0)
(-0.0587341 0.0471859 0)
(-0.0675509 0.0465863 0)
(-0.0760674 0.0449024 0)
(-0.0841119 0.0422132 0)
(-0.0915287 0.0386099 0)
(-0.0981787 0.0341928 0)
(-0.103941 0.0290692 0)
(-0.108711 0.0233518 0)
(-0.112404 0.0171575 0)
(-0.114954 0.0106073 0)
(-0.116312 0.00382586 0)
(-0.11645 -0.0030584 0)
(-0.115359 -0.00991361 0)
(-0.11305 -0.0166047 0)
(-0.109557 -0.0229938 0)
(-0.104932 -0.0289417 0)
(-0.0992546 -0.0343091 0)
(-0.0926226 -0.0389594 0)
(-0.0851593 -0.0427611 0)
(-0.0770097 -0.0455923 0)
(-0.0683409 -0.0473446 0)
(-0.05934 -0.0479292 0)
(-0.0502119 -0.0472821 0)
(-0.0411761 -0.0453711 0)
(-0.0324627 -0.0422021 0)
(-0.0243082 -0.0378266 0)
(-0.0169507 -0.0323481 0)
(-0.01062 -0.0259284 0)
(-0.00552813 -0.0187914 0)
(-0.00195091 -0.0112256 0)
(-0.000292315 -0.00360435 0)
(-0.00034522 0.00492472 0)
(-0.00224747 0.0147012 0)
(-0.00628676 0.0239711 0)
(-0.0119596 0.0324058 0)
(-0.0189249 0.0397672 0)
(-0.0269322 0.0458834 0)
(-0.0357258 0.0506433 0)
(-0.0450525 0.0539892 0)
(-0.0546706 0.0559093 0)
(-0.064352 0.0564285 0)
(-0.0738833 0.0556016 0)
(-0.0830674 0.0535065 0)
(-0.0917247 0.0502387 0)
(-0.0996934 0.0459066 0)
(-0.106831 0.0406286 0)
(-0.113012 0.0345299 0)
(-0.118131 0.0277417 0)
(-0.122101 0.0203995 0)
(-0.124854 0.0126431 0)
(-0.12634 0.00461627 0)
(-0.126528 -0.00353312 0)
(-0.125408 -0.011653 0)
(-0.122989 -0.0195875 0)
(-0.119301 -0.0271771 0)
(-0.114398 -0.0342603 0)
(-0.108355 -0.0406746 0)
(-0.101272 -0.0462597 0)
(-0.0932724 -0.0508605 0)
(-0.0845067 -0.0543318 0)
(-0.0751479 -0.0565428 0)
(-0.0653932 -0.057384 0)
(-0.0554609 -0.0567735 0)
(-0.0455885 -0.0546644 0)
(-0.036028 -0.0510524 0)
(-0.0270425 -0.0459833 0)
(-0.0189013 -0.0395598 0)
(-0.0118677 -0.0319476 0)
(-0.00618924 -0.0233783 0)
(-0.00218762 -0.0141505 0)
(-0.000328321 -0.00464865 0)
(-0.000380878 0.00612126 0)
(-0.00247574 0.017995 0)
(-0.0069163 0.0290671 0)
(-0.0131378 0.039012 0)
(-0.0207551 0.0475965 0)
(-0.0294846 0.054656 0)
(-0.0390405 0.0600886 0)
(-0.0491432 0.0638489 0)
(-0.0595291 0.0659387 0)
(-0.0699525 0.0663991 0)
(-0.0801866 0.0653021 0)
(-0.0900244 0.0627442 0)
(-0.099279 0.0588396 0)
(-0.107784 0.0537162 0)
(-0.115394 0.0475115 0)
(-0.121982 0.0403701 0)
(-0.127442 0.0324418 0)
(-0.131685 0.0238811 0)
(-0.134641 0.0148463 0)
(-0.136262 0.00550025 0)
(-0.136512 -0.00399008 0)
(-0.135381 -0.0134528 0)
(-0.132873 -0.0227113 0)
(-0.129017 -0.0315846 0)
(-0.123862 -0.0398882 0)
(-0.117482 -0.0474358 0)
(-0.109974 -0.0540421 0)
(-0.101463 -0.0595264 0)
(-0.0920998 -0.0637173 0)
(-0.082064 -0.0664589 0)
(-0.0715613 -0.067617 0)
(-0.0608238 -0.0670877 0)
(-0.0501067 -0.0648047 0)
(-0.0396855 -0.0607489 0)
(-0.0298514 -0.0549558 0)
(-0.0209067 -0.0475232 0)
(-0.013151 -0.0386177 0)
(-0.00686928 -0.0284767 0)
(-0.00243112 -0.0174091 0)
(-0.000365368 -0.00581359 0)
(-0.000417122 0.007434 0)
(-0.00270693 0.0216038 0)
(-0.00755286 0.0346398 0)
(-0.0143277 0.0462187 0)
(-0.0226009 0.0561139 0)
(-0.0320551 0.0641712 0)
(-0.0423731 0.0703022 0)
(-0.0532479 0.0744779 0)
(-0.0643937 0.0767189 0)
(-0.0755474 0.0770864 0)
(-0.086469 0.0756738 0)
(-0.0969422 0.0725992 0)
(-0.106774 0.0679989 0)
(-0.115796 0.062022 0)
(-0.12386 0.0548268 0)
(-0.130839 0.0465779 0)
(-0.136626 0.0374445 0)
(-0.141135 0.0275998 0)
(-0.144295 0.0172204 0)
(-0.146056 0.00648738 0)
(-0.146382 -0.00441377 0)
(-0.145258 -0.0152921 0)
(-0.142687 -0.0259509 0)
(-0.138693 -0.0361878 0)
(-0.133319 -0.0457954 0)
(-0.126635 -0.054563 0)
(-0.118736 -0.062279 0)
(-0.109742 -0.068735 0)
(-0.0998073 -0.0737311 0)
(-0.0891127 -0.0770819 0)
(-0.0778726 -0.078625 0)
(-0.0663314 -0.078229 0)
(-0.0547629 -0.0758035 0)
(-0.0434664 -0.0713087 0)
(-0.0327631 -0.0647649 0)
(-0.0229906 -0.0562606 0)
(-0.0144874 -0.0459599 0)
(-0.00757903 -0.0341044 0)
(-0.00268595 -0.0210136 0)
(-0.000404364 -0.00710385 0)
(-0.000454479 0.00886521 0)
(-0.00294372 0.0255327 0)
(-0.00820264 0.0406954 0)
(-0.0155391 0.0540319 0)
(-0.0244751 0.0653239 0)
(-0.0346577 0.0744306 0)
(-0.0457372 0.0812819 0)
(-0.0573784 0.0858697 0)
(-0.0692727 0.0882385 0)
(-0.0811396 0.0884746 0)
(-0.0927269 0.0866972 0)
(-0.10381 0.0830499 0)
(-0.114193 0.0776937 0)
(-0.123703 0.0708017 0)
(-0.132194 0.0625542 0)
(-0.139541 0.0531369 0)
(-0.145639 0.0427385 0)
(-0.150402 0.0315505 0)
(-0.153762 0.0197673 0)
(-0.155667 0.00758703 0)
(-0.156082 -0.00478743 0)
(-0.154988 -0.0171472 0)
(-0.152382 -0.0292766 0)
(-0.148284 -0.0409527 0)
(-0.142732 -0.0519454 0)
(-0.135787 -0.0620191 0)
(-0.127538 -0.070935 0)
(-0.118102 -0.078455 0)
(-0.107629 -0.0843475 0)
(-0.0963032 -0.0883943 0)
(-0.0843435 -0.0903992 0)
(-0.0720063 -0.0901983 0)
(-0.0595831 -0.0876707 0)
(-0.0473979 -0.0827499 0)
(-0.0358035 -0.0754347 0)
(-0.0251751 -0.0657995 0)
(-0.0158937 -0.0540018 0)
(-0.00832867 -0.0402855 0)
(-0.0029564 -0.0249812 0)
(-0.000446139 -0.0085264 0)
(-0.000493412 0.0104185 0)
(-0.00318851 0.0297896 0)
(-0.00887132 0.0472437 0)
(-0.0167809 0.0624607 0)
(-0.0263888 0.0752326 0)
(-0.0373041 0.085436 0)
(-0.049143 0.0930234 0)
(-0.0615409 0.0980136 0)
(-0.0741663 0.10048 0)
(-0.0867218 0.100541 0)
(-0.0989438 0.0983446 0)
(-0.110602 0.0940652 0)
(-0.121496 0.0878919 0)
(-0.131456 0.0800236 0)
(-0.140338 0.0706649 0)
(-0.148021 0.0600229 0)
(-0.154403 0.048306 0)
(-0.159402 0.0357233 0)
(-0.162953 0.0224859 0)
(-0.165005 0.00880749 0)
(-0.165521 -0.00509331 0)
(-0.164479 -0.0189915 0)
(-0.161873 -0.0326539 0)
(-0.157714 -0.0458383 0)
(-0.152031 -0.0582928 0)
(-0.144877 -0.0697569 0)
(-0.136333 -0.0799637 0)
(-0.126508 -0.0886436 0)
(-0.115545 -0.0955303 0)
(-0.103627 -0.100368 0)
(-0.0909772 -0.102923 0)
(-0.0778607 -0.10299 0)
(-0.0645861 -0.100413 0)
(-0.0515024 -0.0950897 0)
(-0.0389952 -0.0869913 0)
(-0.0274805 -0.0761714 0)
(-0.0173852 -0.0627763 0)
(-0.00912786 -0.04705 0)
(-0.00324654 -0.0293341 0)
(-0.00049148 -0.0100904 0)
(-0.000534364 0.0120987 0)
(-0.00344363 0.0343851 0)
(-0.0095643 0.0542973 0)
(-0.0180615 0.0715164 0)
(-0.0283518 0.0858473 0)
(-0.0400037 0.0971879 0)
(-0.0525969 0.105519 0)
(-0.0657362 0.110893 0)
(-0.079067 0.11342 0)
(-0.0922757 0.113252 0)
(-0.105089 0.110577 0)
(-0.117272 0.105602 0)
(-0.128625 0.0985485 0)
(-0.138983 0.0896439 0)
(-0.148205 0.0791184 0)
(-0.156177 0.0672014 0)
(-0.162806 0.0541204 0)
(-0.168015 0.0401015 0)
(-0.171742 0.0253705 0)
(-0.173938 0.010155 0)
(-0.174567 -0.00531307 0)
(-0.173603 -0.0207949 0)
(-0.171034 -0.0360421 0)
(-0.166863 -0.050795 0)
(-0.161109 -0.0647814 0)
(-0.153813 -0.0777164 0)
(-0.145043 -0.0893046 0)
(-0.134897 -0.0992433 0)
(-0.123509 -0.107228 0)
(-0.111056 -0.112963 0)
(-0.09776 -0.116167 0)
(-0.083894 -0.11659 0)
(-0.0697815 -0.11403 0)
(-0.0557958 -0.108342 0)
(-0.0423571 -0.0994608 0)
(-0.0299248 -0.0874106 0)
(-0.0189767 -0.0723216 0)
(-0.00998587 -0.0544337 0)
(-0.00356033 -0.0340991 0)
(-0.00054116 -0.011807 0)
(-0.000577799 0.0139117 0)
(-0.00371144 0.0393325 0)
(-0.0102871 0.061872 0)
(-0.0193889 0.0812127 0)
(-0.0303733 0.0971752 0)
(-0.0427642 0.109684 0)
(-0.0561018 0.118756 0)
(-0.0699592 0.124484 0)
(-0.0839584 0.12702 0)
(-0.0977708 0.126563 0)
(-0.111116 0.123341 0)
(-0.123757 0.117602 0)
(-0.135499 0.109603 0)
(-0.146182 0.0996029 0)
(-0.155676 0.0878594 0)
(-0.163878 0.0746242 0)
(-0.170702 0.0601436 0)
(-0.176081 0.044659 0)
(-0.179959 0.0284091 0)
(-0.182292 0.0116325 0)
(-0.183043 -0.0054284 0)
(-0.182183 -0.022524 0)
(-0.179695 -0.0393938 0)
(-0.17557 -0.0557634 0)
(-0.169817 -0.071342 0)
(-0.162461 -0.0858221 0)
(-0.153552 -0.0988798 0)
(-0.143175 -0.110178 0)
(-0.131447 -0.119372 0)
(-0.118536 -0.126118 0)
(-0.104659 -0.130085 0)
(-0.0900911 -0.13097 0)
(-0.0751683 -0.128512 0)
(-0.0602875 -0.122516 0)
(-0.045904 -0.112867 0)
(-0.0325242 -0.0995532 0)
(-0.0206817 -0.0826795 0)
(-0.0109118 -0.0624772 0)
(-0.00390175 -0.0393075 0)
(-0.000595981 -0.0136896 0)
(-0.000624247 0.0158649 0)
(-0.00399466 0.0446479 0)
(-0.0110457 0.0699864 0)
(-0.020772 0.0915646 0)
(-0.0324628 0.109223 0)
(-0.0455921 0.12292 0)
(-0.0596575 0.132715 0)
(-0.0741988 0.13875 0)
(-0.0888148 0.141231 0)
(-0.103164 0.140409 0)
(-0.11696 0.136563 0)
(-0.129971 0.129985 0)
(-0.142008 0.120973 0)
(-0.152923 0.109821 0)
(-0.162601 0.096814 0)
(-0.170951 0.0822268 0)
(-0.177902 0.0663235 0)
(-0.183398 0.0493588 0)
(-0.187392 0.0315816 0)
(-0.189846 0.0132383 0)
(-0.190724 -0.00542185 0)
(-0.189996 -0.0241424 0)
(-0.187637 -0.0426546 0)
(-0.183627 -0.0606727 0)
(-0.177959 -0.0778909 0)
(-0.170641 -0.0939805 0)
(-0.161704 -0.10859 0)
(-0.151207 -0.121348 0)
(-0.139252 -0.131867 0)
(-0.125987 -0.139751 0)
(-0.111618 -0.144612 0)
(-0.0964191 -0.146082 0)
(-0.0807331 -0.143835 0)
(-0.0649785 -0.137609 0)
(-0.0496462 -0.127229 0)
(-0.0352927 -0.112635 0)
(-0.0225136 -0.093895 0)
(-0.0119149 -0.071226 0)
(-0.00427498 -0.0449952 0)
(-0.000656806 -0.0157536 0)
(-0.000674364 0.0179671 0)
(-0.00429654 0.0503506 0)
(-0.0118475 0.0786623 0)
(-0.0222211 0.102589 0)
(-0.0346306 0.121996 0)
(-0.0484936 0.136883 0)
(-0.0632613 0.147364 0)
(-0.0784381 0.153641 0)
(-0.0936007 0.155985 0)
(-0.108397 0.154708 0)
(-0.12254 0.150147 0)
(-0.135805 0.142649 0)
(-0.148017 0.132554 0)
(-0.159044 0.120195 0)
(-0.16879 0.105886 0)
(-0.177184 0.0899244 0)
(-0.184173 0.0725902 0)
(-0.189715 0.0541494 0)
(-0.193778 0.0348574 0)
(-0.196328 0.0149645 0)
(-0.197334 -0.00527793 0)
(-0.196765 -0.0256111 0)
(-0.194587 -0.0457627 0)
(-0.19077 -0.0654405 0)
(-0.185288 -0.0843274 0)
(-0.178127 -0.102077 0)
(-0.169293 -0.118314 0)
(-0.158819 -0.132629 0)
(-0.146777 -0.144592 0)
(-0.133294 -0.153752 0)
(-0.118555 -0.159654 0)
(-0.102824 -0.161857 0)
(-0.0864477 -0.159955 0)
(-0.0698606 -0.153605 0)
(-0.053589 -0.142559 0)
(-0.0382425 -0.126688 0)
(-0.0244856 -0.106015 0)
(-0.0130048 -0.08073 0)
(-0.00468459 -0.0512024 0)
(-0.000724613 -0.0180166 0)
(-0.000729009 0.0202288 0)
(-0.00462134 0.0564638 0)
(-0.0127018 0.0879256 0)
(-0.0237492 0.114304 0)
(-0.0368893 0.135496 0)
(-0.0514756 0.151555 0)
(-0.0669078 0.16266 0)
(-0.0826539 0.169089 0)
(-0.0982695 0.171189 0)
(-0.113395 0.169348 0)
(-0.12775 0.16397 0)
(-0.141121 0.15546 0)
(-0.153355 0.144211 0)
(-0.164343 0.130594 0)
(-0.174014 0.114953 0)
(-0.182321 0.0976086 0)
(-0.189235 0.0788541 0)
(-0.194733 0.058963 0)
(-0.198798 0.0381934 0)
(-0.201409 0.0167948 0)
(-0.202538 -0.00498446 0)
(-0.202153 -0.0268892 0)
(-0.200213 -0.0486493 0)
(-0.196676 -0.0699717 0)
(-0.191495 -0.0905332 0)
(-0.184631 -0.109975 0)
(-0.17606 -0.127898 0)
(-0.165781 -0.143863 0)
(-0.153831 -0.157392 0)
(-0.140303 -0.167974 0)
(-0.125354 -0.175083 0)
(-0.109228 -0.178191 0)
(-0.0922662 -0.176801 0)
(-0.0749146 -0.17047 0)
(-0.0577322 -0.158854 0)
(-0.0413841 -0.141741 0)
(-0.026611 -0.119087 0)
(-0.0141923 -0.0910433 0)
(-0.00513584 -0.0579746 0)
(-0.000800562 -0.0204989 0)
(-0.00078935 0.0226635 0)
(-0.00497474 0.0630161 0)
(-0.0136209 0.0978067 0)
(-0.0253732 0.12673 0)
(-0.039255 0.149723 0)
(-0.0545461 0.166906 0)
(-0.0705895 0.178542 0)
(-0.0868154 0.185002 0)
(-0.102761 0.186726 0)
(-0.118065 0.184187 0)
(-0.132458 0.177872 0)
(-0.145751 0.168252 0)
(-0.157815 0.155775 0)
(-0.168576 0.140853 0)
(-0.177994 0.123863 0)
(-0.186054 0.105144 0)
(-0.192753 0.0850017 0)
(-0.198095 0.0637123 0)
(-0.20208 0.0415319 0)
(-0.204701 0.0187034 0)
(-0.205938 -0.00453408 0)
(-0.205759 -0.0279353 0)
(-0.204119 -0.0512391 0)
(-0.200957 -0.0741585 0)
(-0.196208 -0.0963713 0)
(-0.189804 -0.117512 0)
(-0.181684 -0.137163 0)
(-0.171808 -0.154857 0)
(-0.160169 -0.17007 0)
(-0.146813 -0.182229 0)
(-0.131861 -0.190729 0)
(-0.115522 -0.194946 0)
(-0.0981209 -0.19427 0)
(-0.0801077 -0.188142 0)
(-0.0620688 -0.176097 0)
(-0.0447261 -0.157813 0)
(-0.0289044 -0.133157 0)
(-0.0154897 -0.102224 0)
(-0.00563501 -0.0653625 0)
(-0.000886084 -0.0232238 0)
(-0.00085702 0.0252876 0)
(-0.00536456 0.0700429 0)
(-0.0146215 0.108343 0)
(-0.0271155 0.139888 0)
(-0.0417488 0.164671 0)
(-0.0577157 0.182895 0)
(-0.0742961 0.194929 0)
(-0.0908824 0.20126 0)
(-0.106998 0.202438 0)
(-0.122287 0.199044 0)
(-0.136502 0.191654 0)
(-0.149485 0.180815 0)
(-0.161147 0.167035 0)
(-0.171452 0.150771 0)
(-0.180402 0.132429 0)
(-0.188019 0.112366 0)
(-0.194335 0.0908939 0)
(-0.199382 0.0682888 0)
(-0.203185 0.0447982 0)
(-0.205751 0.0206523 0)
(-0.207072 -0.00392595 0)
(-0.207118 -0.0287087 0)
(-0.205836 -0.0534515 0)
(-0.203155 -0.0778815 0)
(-0.198984 -0.101685 0)
(-0.193224 -0.124498 0)
(-0.185774 -0.145894 0)
(-0.176547 -0.165378 0)
(-0.165481 -0.182385 0)
(-0.152568 -0.196282 0)
(-0.137872 -0.206374 0)
(-0.121558 -0.211932 0)
(-0.103917 -0.212217 0)
(-0.0853902 -0.206526 0)
(-0.0665838 -0.194245 0)
(-0.0482757 -0.174909 0)
(-0.0313821 -0.148268 0)
(-0.0169121 -0.114335 0)
(-0.00618995 -0.0734236 0)
(-0.000983009 -0.0262181 0)
(-0.000934324 0.0281227 0)
(-0.00580161 0.0775893 0)
(-0.0157264 0.11958 0)
(-0.0290065 0.153804 0)
(-0.0443984 0.180326 0)
(-0.0609966 0.199459 0)
(-0.0780124 0.21171 0)
(-0.0948015 0.217703 0)
(-0.11088 0.218128 0)
(-0.12591 0.21369 0)
(-0.139678 0.205068 0)
(-0.152068 0.192894 0)
(-0.163044 0.177739 0)
(-0.172619 0.160106 0)
(-0.180845 0.140428 0)
(-0.18779 0.119075 0)
(-0.193524 0.0963637 0)
(-0.198114 0.0725606 0)
(-0.201609 0.0478995 0)
(-0.20404 0.0225902 0)
(-0.205409 -0.00316757 0)
(-0.20569 -0.0291714 0)
(-0.204828 -0.0552023 0)
(-0.202735 -0.0810105 0)
(-0.1993 -0.106301 0)
(-0.19439 -0.13072 0)
(-0.18786 -0.153839 0)
(-0.179567 -0.175149 0)
(-0.169388 -0.194047 0)
(-0.157244 -0.209837 0)
(-0.14313 -0.221739 0)
(-0.127144 -0.228901 0)
(-0.109526 -0.23044 0)
(-0.0906907 -0.225479 0)
(-0.0712516 -0.213221 0)
(-0.0520378 -0.193019 0)
(-0.0340631 -0.164461 0)
(-0.018478 -0.127442 0)
(-0.00681084 -0.0822234 0)
(-0.00109376 -0.0295136 0)
(-0.00102456 0.0311967 0)
(-0.00630101 0.0857133 0)
(-0.0169668 0.131573 0)
(-0.0310862 0.168504 0)
(-0.0472389 0.196664 0)
(-0.0644026 0.216515 0)
(-0.0817148 0.228734 0)
(-0.0984991 0.234126 0)
(-0.114276 0.233544 0)
(-0.128741 0.227839 0)
(-0.141729 0.217809 0)
(-0.153186 0.204178 0)
(-0.163137 0.187583 0)
(-0.171661 0.16857 0)
(-0.178865 0.147596 0)
(-0.18487 0.125042 0)
(-0.189793 0.101216 0)
(-0.193736 0.0763726 0)
(-0.196781 0.0507236 0)
(-0.198978 0.0244512 0)
(-0.200346 -0.00227634 0)
(-0.200865 -0.0292905 0)
(-0.200478 -0.0564066 0)
(-0.199086 -0.083408 0)
(-0.196555 -0.110029 0)
(-0.192718 -0.135937 0)
(-0.187384 -0.160715 0)
(-0.180351 -0.183848 0)
(-0.171422 -0.204706 0)
(-0.160437 -0.222538 0)
(-0.147301 -0.236474 0)
(-0.132025 -0.245535 0)
(-0.114774 -0.248671 0)
(-0.0959087 -0.244804 0)
(-0.0760323 -0.232908 0)
(-0.0560145 -0.212104 0)
(-0.0369702 -0.181764 0)
(-0.0202118 -0.141618 0)
(-0.00751124 -0.0918373 0)
(-0.00122165 -0.0331482 0)
(-0.00113246 0.0345472 0)
(-0.00688393 0.0944905 0)
(-0.018385 0.144396 0)
(-0.0334077 0.184016 0)
(-0.0503139 0.213645 0)
(-0.0679456 0.233942 0)
(-0.085364 0.245805 0)
(-0.101871 0.250262 0)
(-0.117009 0.248367 0)
(-0.130527 0.241138 0)
(-0.142331 0.229508 0)
(-0.152447 0.214298 0)
(-0.160978 0.19621 0)
(-0.168077 0.17583 0)
(-0.173921 0.153634 0)
(-0.178686 0.13 0)
(-0.18254 0.105227 0)
(-0.185625 0.0795466 0)
(-0.188055 0.05314 0)
(-0.189905 0.0261545 0)
(-0.19121 -0.00128101 0)
(-0.19196 -0.0290401 0)
(-0.192097 -0.0569818 0)
(-0.191514 -0.0849325 0)
(-0.190059 -0.112667 0)
(-0.187531 -0.139888 0)
(-0.183693 -0.166204 0)
(-0.178279 -0.191108 0)
(-0.171016 -0.213957 0)
(-0.161644 -0.233956 0)
(-0.149963 -0.250149 0)
(-0.135871 -0.261427 0)
(-0.119425 -0.266556 0)
(-0.100903 -0.264224 0)
(-0.080865 -0.253128 0)
(-0.0602031 -0.232089 0)
(-0.0401316 -0.200194 0)
(-0.0221454 -0.156939 0)
(-0.00830977 -0.102355 0)
(-0.00137134 -0.0371681 0)
(-0.00126499 0.0382247 0)
(-0.00758029 0.104021 0)
(-0.020039 0.158135 0)
(-0.0360394 0.200368 0)
(-0.0536739 0.231205 0)
(-0.0716291 0.251572 0)
(-0.0888928 0.262658 0)
(-0.104763 0.265767 0)
(-0.118834 0.262196 0)
(-0.130933 0.253155 0)
(-0.141067 0.239722 0)
(-0.149361 0.222819 0)
(-0.156017 0.203209 0)
(-0.161273 0.181508 0)
(-0.165379 0.158201 0)
(-0.168576 0.133657 0)
(-0.171081 0.108152 0)
(-0.17308 0.0818857 0)
(-0.174717 0.055002 0)
(-0.176093 0.0276054 0)
(-0.177261 -0.000222322 0)
(-0.178222 -0.0284044 0)
(-0.178921 -0.056852 0)
(-0.179249 -0.0854448 0)
(-0.179037 -0.11401 0)
(-0.178057 -0.1423 0)
(-0.176029 -0.169963 0)
(-0.172624 -0.196522 0)
(-0.167484 -0.221337 0)
(-0.160248 -0.243586 0)
(-0.150585 -0.262243 0)
(-0.138253 -0.276071 0)
(-0.123167 -0.283638 0)
(-0.105476 -0.283366 0)
(-0.0856574 -0.273621 0)
(-0.0645921 -0.252846 0)
(-0.0435817 -0.219746 0)
(-0.0243222 -0.173486 0)
(-0.00923255 -0.113882 0)
(-0.00154956 -0.0416316 0)
(-0.00143252 0.0422989 0)
(-0.00843274 0.114437 0)
(-0.0220073 0.172902 0)
(-0.0390683 0.217582 0)
(-0.0573729 0.249239 0)
(-0.0754352 0.269167 0)
(-0.0921838 0.278936 0)
(-0.106946 0.280196 0)
(-0.119404 0.274529 0)
(-0.129508 0.263364 0)
(-0.137394 0.247929 0)
(-0.143315 0.229241 0)
(-0.147583 0.208115 0)
(-0.150535 0.185186 0)
(-0.152499 0.160932 0)
(-0.153781 0.135699 0)
(-0.154647 0.109728 0)
(-0.155322 0.0831801 0)
(-0.155982 0.0561518 0)
(-0.15675 0.0286979 0)
(-0.157698 0.00084723 0)
(-0.158838 -0.0273798 0)
(-0.160125 -0.0559535 0)
(-0.161449 -0.0848155 0)
(-0.162633 -0.113857 0)
(-0.163431 -0.142893 0)
(-0.163525 -0.171634 0)
(-0.162532 -0.199648 0)
(-0.160011 -0.226327 0)
(-0.155487 -0.250849 0)
(-0.14849 -0.272137 0)
(-0.138609 -0.28884 0)
(-0.125571 -0.29933 0)
(-0.109346 -0.301734 0)
(-0.0902679 -0.294024 0)
(-0.0691531 -0.274174 0)
(-0.0473612 -0.240382 0)
(-0.0268007 -0.191345 0)
(-0.0103171 -0.126551 0)
(-0.00176638 -0.0466137 0)
(-0.00165093 0.046867 0)
(-0.00950291 0.125915 0)
(-0.0243963 0.188831 0)
(-0.0425999 0.235658 0)
(-0.0614564 0.267576 0)
(-0.0793 0.286388 0)
(-0.0950334 0.294162 0)
(-0.108067 0.292977 0)
(-0.118228 0.284747 0)
(-0.125638 0.271135 0)
(-0.130603 0.253519 0)
(-0.133527 0.232999 0)
(-0.13485 0.210422 0)
(-0.135012 0.186419 0)
(-0.13442 0.161442 0)
(-0.133439 0.135801 0)
(-0.132381 0.109691 0)
(-0.131502 0.0832182 0)
(-0.131004 0.0564284 0)
(-0.131031 0.0293202 0)
(-0.131669 0.00186511 0)
(-0.132946 -0.0259768 0)
(-0.134826 -0.0542399 0)
(-0.137208 -0.0829345 0)
(-0.139916 -0.112025 0)
(-0.142696 -0.141403 0)
(-0.145207 -0.170857 0)
(-0.14702 -0.20003 0)
(-0.147624 -0.228373 0)
(-0.146435 -0.255097 0)
(-0.14283 -0.279112 0)
(-0.136205 -0.298981 0)
(-0.126057 -0.312893 0)
(-0.112111 -0.318667 0)
(-0.0944763 -0.313826 0)
(-0.0738248 -0.295762 0)
(-0.0515149 -0.262008 0)
(-0.0296612 -0.210603 0)
(-0.0116183 -0.140526 0)
(-0.00203731 -0.0522142 0)
(-0.00194534 0.0520669 0)
(-0.0108813 0.138693 0)
(-0.0273488 0.206077 0)
(-0.0467556 0.254556 0)
(-0.065939 0.285941 0)
(-0.0830699 0.302746 0)
(-0.0970928 0.307691 0)
(-0.107584 0.303375 0)
(-0.114595 0.292086 0)
(-0.118482 0.275726 0)
(-0.11976 0.255805 0)
(-0.119009 0.233478 0)
(-0.116806 0.209592 0)
(-0.11369 0.18475 0)
(-0.110143 0.159354 0)
(-0.106576 0.133656 0)
(-0.103336 0.107789 0)
(-0.1007 0.081802 0)
(-0.0988862 0.0556797 0)
(-0.0980506 0.0293623 0)
(-0.0982926 0.00276225 0)
(-0.0996531 -0.0242217 0)
(-0.102112 -0.0516893 0)
(-0.105581 -0.0797226 0)
(-0.109898 -0.108366 0)
(-0.114816 -0.137598 0)
(-0.11999 -0.167303 0)
(-0.124968 -0.197222 0)
(-0.129185 -0.226903 0)
(-0.131963 -0.255631 0)
(-0.132532 -0.282353 0)
(-0.130078 -0.305599 0)
(-0.123828 -0.32341 0)
(-0.113185 -0.333306 0)
(-0.0979343 -0.332319 0)
(-0.078483 -0.317143 0)
(-0.0560833 -0.284444 0)
(-0.0330117 -0.231336 0)
(-0.0132185 -0.156014 0)
(-0.00238725 -0.0585704 0)
(-0.00235695 0.0580988 0)
(-0.0127032 0.153084 0)
(-0.0310541 0.224808 0)
(-0.0516565 0.274148 0)
(-0.0707555 0.303887 0)
(-0.0864244 0.317537 0)