1.45 	0 	0 	-0.00813092 	-0.00256941 	3.78321e-21
2.35 	0 	0 	0.061345 	-0.00663028 	2.28595e-21
