/*--------------------------------*- C++ -*----------------------------------*\
  =========                 |
  \\      /  F ield         | OpenFOAM: The Open Source CFD Toolbox
   \\    /   O peration     | Website:  https://openfoam.org
    \\  /    A nd           | Version:  6.0
     \\/     M anipulation  |
\*---------------------------------------------------------------------------*/
FoamFile
{
    version     2.0;
    format      ascii;
    class       surfaceScalarField;
    location    "25";
    object      phi;
}
// * * * * * * * * * * * * * * * * * * * * * * * * * * * * * * * * * * * * * //

dimensions      [0 3 -1 0 0 0 0];

internalField   nonuniform List<scalar> 
68636
(
3.0204e-05
0.00310562
1.40448e-08
6.08362e-05
0.00307064
9.11088e-05
0.0030022
0.000120507
0.00290101
0.000148638
0.00276822
0.000175179
0.00260511
0.000199814
0.0024134
0.000222265
0.00219509
0.000242268
0.00195268
0.000259598
0.00168886
0.000274052
0.00140662
0.000285473
0.00110887
0.000293747
0.000799013
0.000298731
0.000479715
0.000148307
0.000298314
2.99348e-05
0.00307565
2.70586e-08
6.0303e-05
0.00304026
9.02981e-05
0.00297218
0.000119416
0.00287187
0.00014728
0.00274032
0.000173574
0.00257878
0.000197985
0.00238893
0.000220232
0.0021728
0.000240055
0.00193281
0.000257227
0.00167163
0.00027155
0.00139223
0.000282863
0.00109748
0.000291087
0.000790697
0.000295833
0.00047484
0.000148157
0.000295759
2.9671e-05
0.00304595
3.24251e-08
5.97685e-05
0.00301016
8.94826e-05
0.00294245
0.000118325
0.00284302
0.00014593
0.0027127
0.000171986
0.00255272
0.000196176
0.00236473
0.000218223
0.00215075
0.000237867
0.00191316
0.000254882
0.00165462
0.000269075
0.00137803
0.000280276
0.00108629
0.000288428
0.000782554
0.000293242
0.000470045
0.000147801
0.000293672
2.94083e-05
0.0030165
3.44542e-08
5.92304e-05
0.00298034
8.86651e-05
0.002913
0.000117238
0.00281443
0.000144592
0.00268532
0.000170413
0.00252687
0.000194386
0.00234073
0.000216235
0.00212886
0.0002357
0.00189365
0.00025256
0.00163772
0.000266623
0.00136392
0.000277713
0.00107514
0.000285776
0.000774421
0.000290594
0.000465124
0.000146922
0.000291302
2.91451e-05
0.00298733
3.04068e-08
5.869e-05
0.00295079
8.78487e-05
0.00288384
0.000116159
0.00278612
0.000143267
0.00265821
0.000168855
0.00250128
0.000192613
0.00231696
0.000214265
0.00210722
0.000233554
0.00187436
0.000250258
0.00162102
0.000264193
0.00134999
0.000275177
0.00106417
0.000283142
0.000766473
0.00028791
0.000460383
0.000146108
0.000288811
2.88813e-05
0.00295842
2.23374e-08
5.81492e-05
0.00292152
8.70363e-05
0.00285494
0.00011509
0.00275805
0.000141955
0.00263133
0.000167312
0.00247591
0.000190856
0.0022934
0.000212313
0.00208574
0.000231427
0.00185522
0.000247978
0.00160443
0.000261785
0.00133615
0.000272667
0.00105324
0.000280537
0.000758544
0.000285246
0.000455586
0.000144943
0.000286268
2.86171e-05
0.00292979
1.40457e-08
5.76101e-05
0.00289253
8.62305e-05
0.00282632
0.000114032
0.00273025
0.000140656
0.0026047
0.000165785
0.00245078
0.000189116
0.00227006
0.000210378
0.00206448
0.000229319
0.00183629
0.000245718
0.00158804
0.000259398
0.00132248
0.000270181
0.00104247
0.000277963
0.000750784
0.000282612
0.000450969
0.000143957
0.00028369
2.83533e-05
0.00290143
5.81583e-09
5.70747e-05
0.0028638
8.54328e-05
0.00279795
0.000112985
0.00270269
0.000139372
0.0025783
0.000164274
0.00242586
0.000187393
0.00224693
0.000208461
0.00204339
0.000227229
0.00181749
0.000243478
0.00157176
0.000257031
0.00130889
0.000267717
0.00103175
0.000275418
0.00074303
0.00028001
0.000446297
0.000142716
0.000281125
2.80905e-05
0.00287333
1.91266e-09
5.65444e-05
0.00283535
8.46443e-05
0.00276985
0.00011195
0.00267539
0.000138101
0.00255215
0.000162777
0.00240119
0.000185686
0.00222402
0.000206562
0.00202252
0.000225158
0.0017989
0.000241257
0.00155568
0.000254685
0.00129547
0.000265273
0.00102117
0.000272899
0.000735429
0.000277443
0.000441788
0.000141653
0.000278601
2.78296e-05
0.0028455
3.94465e-09
5.60203e-05
0.00280715
8.38653e-05
0.00274199
0.000110926
0.00264832
0.000136843
0.00252622
0.000161296
0.00237672
0.000183996
0.0022013
0.000204681
0.00200182
0.000223106
0.00178046
0.000239056
0.0015397
0.000252359
0.00128214
0.000262852
0.00101064
0.000270405
0.000727829
0.000274907
0.000437214
0.000140338
0.000276108
2.75709e-05
0.00281791
1.15921e-08
5.55028e-05
0.00277922
8.30957e-05
0.0027144
0.000109913
0.0026215
0.000135597
0.00250054
0.000159828
0.0023525
0.000182323
0.00217881
0.000202819
0.00198133
0.000221074
0.00176221
0.000236876
0.00152391
0.000250054
0.00126898
0.000260451
0.00100026
0.000267935
0.000720371
0.000272399
0.000432788
0.000139207
0.000273627
2.7315e-05
0.00279057
2.44898e-08
5.49922e-05
0.00275154
8.23355e-05
0.00268705
0.000108911
0.00259492
0.000134362
0.00247508
0.000158374
0.00232847
0.000180664
0.00215651
0.000200973
0.001961
0.00021906
0.0017441
0.000234715
0.00150823
0.00024777
0.0012559
0.000258072
0.000989926
0.000265489
0.000712911
0.000269915
0.000428295
0.000137861
0.000271154
2.70621e-05
0.00276347
3.92249e-08
5.44882e-05
0.00272412
8.15841e-05
0.00265996
0.000107918
0.00256859
0.000133138
0.00244986
0.000156933
0.00230468
0.000179021
0.00213442
0.000199144
0.00194089
0.000217064
0.00172619
0.000232573
0.00149273
0.000245506
0.00124298
0.000255714
0.000979738
0.000263065
0.000705588
0.000267456
0.000423943
0.000136711
0.000268702
2.68123e-05
0.0027366
5.24848e-08
5.39905e-05
0.00269694
8.0841e-05
0.0026331
0.000106935
0.00254249
0.000131925
0.00242486
0.000155504
0.00228109
0.000177391
0.00211252
0.000197329
0.00192094
0.000215084
0.00170842
0.00023045
0.00147734
0.000243262
0.00123014
0.000253376
0.000969591
0.000260662
0.000698261
0.00026502
0.000419523
0.000135349
0.000266281
2.65653e-05
0.00270998
6.1262e-08
5.34983e-05
0.00267
8.01055e-05
0.00260649
0.000105961
0.00251664
0.000130723
0.0024001
0.000154087
0.00225774
0.000175775
0.00209084
0.00019553
0.00190119
0.000213121
0.00169084
0.000228344
0.00146213
0.000241037
0.00121747
0.000251058
0.000959591
0.00025828
0.000691068
0.00026261
0.000415235
0.000134156
0.000263899
2.63211e-05
0.00268359
6.32436e-08
5.30111e-05
0.00264331
7.93771e-05
0.00258012
0.000104996
0.00249101
0.000129532
0.00237556
0.000152683
0.00223457
0.000174173
0.00206934
0.000193747
0.0018816
0.000211174
0.0016734
0.000226257
0.00144703
0.000238832
0.00120487
0.00024876
0.000949631
0.000255919
0.000683871
0.000260222
0.000410873
0.000132729
0.000261552
2.60794e-05
0.00265745
5.86843e-08
5.25281e-05
0.00261686
7.86552e-05
0.002554
0.00010404
0.00246563
0.000128352
0.00235125
0.000151291
0.00221164
0.000172585
0.00204805
0.000191978
0.00186222
0.000209245
0.00165614
0.000224188
0.0014321
0.000236646
0.00119243
0.000246483
0.000939815
0.000253578
0.000676806
0.000257856
0.000406637
0.000131448
0.000259231
2.584e-05
0.00263156
4.93118e-08
5.20491e-05
0.00259065
7.79394e-05
0.0025281
0.000103093
0.00244047
0.000127183
0.00232715
0.000149913
0.0021889
0.000171011
0.00202694
0.000190226
0.00184299
0.000207332
0.00163902
0.000222137
0.00141728
0.000234481
0.00118006
0.000244228
0.000930039
0.00025126
0.000669738
0.00025551
0.000402331
0.000129938
0.000256927
2.56029e-05
0.00260592
3.82788e-08
5.15739e-05
0.00256468
7.72294e-05
0.00250245
0.000102154
0.00241555
0.000126024
0.00230329
0.000148547
0.00216638
0.000169452
0.00200605
0.000188489
0.00182396
0.000205437
0.00162208
0.000220106
0.00140262
0.000232337
0.00116785
0.000241995
0.000920402
0.000248964
0.0006628
0.000253185
0.000398153
0.000128585
0.000254632
2.53678e-05
0.00258052
2.92314e-08
5.11024e-05
0.00253894
7.65253e-05
0.00247702
0.000101223
0.00239085
0.000124877
0.00227963
0.000147194
0.00214406
0.000167907
0.00198532
0.000186767
0.00180509
0.000203559
0.00160528
0.000218093
0.00138807
0.000230212
0.00115571
0.000239784
0.000910802
0.000246691
0.000655857
0.00025088
0.00039391
0.000127029
0.000252344
2.51349e-05
0.00255536
2.48205e-08
5.06348e-05
0.00251344
7.58269e-05
0.00245183
0.000100301
0.00236638
0.00012374
0.00225619
0.000145853
0.00212195
0.000166375
0.00196481
0.000185061
0.00178641
0.000201697
0.00158865
0.000216099
0.00137368
0.000228109
0.00114371
0.000237594
0.000901338
0.000244441
0.000649041
0.000248595
0.000389799
0.000125653
0.000250063
2.4904e-05
0.00253043
2.64091e-08
5.01712e-05
0.00248817
7.51345e-05
0.00242686
9.93867e-05
0.00234212
0.000122613
0.00223296
0.000144524
0.00210003
0.000164856
0.00194447
0.00018337
0.00176789
0.000199853
0.00157215
0.000214123
0.00135939
0.000226025
0.00113179
0.000235426
0.000891909
0.000242214
0.00064222
0.000246331
0.00038563
0.000124104
0.000247792
2.46752e-05
0.00250572
3.3567e-08
4.97117e-05
0.00246314
7.44481e-05
0.00240213
9.84803e-05
0.00231809
0.000121495
0.00220995
0.000143205
0.00207832
0.000163351
0.00192433
0.000181693
0.00174955
0.000198025
0.00155583
0.000212166
0.00134526
0.000223961
0.00112001
0.000233279
0.000882612
0.000240009
0.000635521
0.000244089
0.000381593
0.000122749
0.000245535
2.44485e-05
0.00248122
4.43897e-08
4.92564e-05
0.00243832
7.37677e-05
0.00237761
9.75817e-05
0.00229427
0.000120387
0.00218714
0.000141898
0.0020568
0.000161858
0.00190436
0.000180031
0.00173137
0.000196214
0.00153964
0.000210227
0.00133123
0.000221917
0.0011083
0.000231153
0.000873348
0.000237826
0.000628816
0.000241869
0.000377499
0.000121236
0.000243296
2.42239e-05
0.00245695
5.6296e-08
4.88054e-05
0.00241374
7.30934e-05
0.00235333
9.66908e-05
0.00227068
0.000119288
0.00216454
0.000140602
0.00203549
0.000160377
0.00188459
0.000178384
0.00171337
0.000194419
0.00152361
0.000208306
0.00131736
0.000219892
0.00109674
0.000229048
0.000864213
0.000235665
0.00062223
0.000239672
0.000373535
0.000119917
0.000241078
2.40015e-05
0.00243287
6.66041e-08
4.83585e-05
0.00238938
7.24251e-05
0.00232925
9.58076e-05
0.00224729
0.000118198
0.00214215
0.000139316
0.00201437
0.000158909
0.00186499
0.00017675
0.00169552
0.00019264
0.00150771
0.000206403
0.00130358
0.000217886
0.00108523
0.000226963
0.000855111
0.000233524
0.000615637
0.000237496
0.000369514
0.000118443
0.000238884
2.37812e-05
0.00240902
7.33052e-08
4.79158e-05
0.00236525
7.17628e-05
0.00230541
9.49319e-05
0.00222412
0.000117117
0.00211997
0.000138041
0.00199345
0.000157454
0.00184558
0.000175132
0.00167785
0.000190878
0.00149198
0.000204518
0.00128995
0.000215901
0.00107387
0.000224898
0.000846135
0.000231404
0.000609163
0.000235343
0.000365619
0.000117158
0.000236715
2.3563e-05
0.00238538
7.53815e-08
4.74772e-05
0.00234133
7.11064e-05
0.00228178
9.40637e-05
0.00220116
0.000116045
0.00209798
0.000136776
0.00197271
0.000156011
0.00182634
0.000173528
0.00166032
0.000189133
0.00147636
0.000202652
0.00127642
0.000213934
0.00106257
0.000222854
0.000837189
0.000229305
0.00060268
0.000233211
0.000361665
0.000115715
0.00023457
2.33469e-05
0.00236196
7.2862e-08
4.70425e-05
0.00231764
7.04557e-05
0.00225836
9.32029e-05
0.00217842
0.000114983
0.0020762
0.000135523
0.00195218
0.000154582
0.00180728
0.00017194
0.00164297
0.000187405
0.0014609
0.000200804
0.00126303
0.000211987
0.0010514
0.00022083
0.000828369
0.000227227
0.000596315
0.000231101
0.000357834
0.000114453
0.000232449
2.31328e-05
0.00233876
6.66955e-08
4.66116e-05
0.00229415
6.98107e-05
0.00223516
9.23495e-05
0.00215587
0.000113929
0.00205461
0.000134281
0.00193182
0.000153165
0.00178839
0.000170367
0.00162575
0.000185693
0.00144557
0.000198974
0.00124974
0.00021006
0.0010403
0.000218825
0.000819578
0.000225168
0.000589941
0.000229012
0.000353944
0.000113029
0.000230351
2.29207e-05
0.00231578
5.83827e-08
4.61846e-05
0.00227089
6.91713e-05
0.00221218
9.15034e-05
0.00213354
0.000112885
0.00203324
0.00013305
0.00191166
0.000151762
0.00176969
0.000168809
0.00160872
0.000183999
0.00143039
0.000197163
0.00123658
0.000208152
0.00102933
0.000216841
0.00081091
0.00022313
0.000583684
0.000226943
0.000350175
0.000111782
0.000228275
2.27104e-05
0.00229302
4.96142e-08
4.57612e-05
0.00224784
6.85374e-05
0.0021894
9.06647e-05
0.00211141
0.00011185
0.00201204
0.000131831
0.00189167
0.000150373
0.00175113
0.000167267
0.00159181
0.000182322
0.00141532
0.00019537
0.00122352
0.000206263
0.00101842
0.000214877
0.000802272
0.000221112
0.000577418
0.000224894
0.000346347
0.000110374
0.00022622
2.2502e-05
0.00227048
4.19397e-08
4.53415e-05
0.002225
6.79091e-05
0.00216683
8.98335e-05
0.00208949
0.000110825
0.00199106
0.000130623
0.00187187
0.000148998
0.00173277
0.000165741
0.00157508
0.000180663
0.00140041
0.000193596
0.0012106
0.000204393
0.00100764
0.000212932
0.000793755
0.000219113
0.000571269
0.000222866
0.000342638
0.000109139
0.000224184
2.22955e-05
0.00224814
3.64959e-08
4.49255e-05
0.00220237
6.72863e-05
0.00214446
8.90099e-05
0.00206776
0.000109809
0.00197025
0.000129427
0.00185225
0.000147637
0.00171455
0.00016423
0.00155847
0.00017902
0.00138561
0.00019184
0.00119777
0.000202543
0.000996915
0.000211007
0.000785267
0.000217134
0.000565111
0.000220856
0.000338872
0.000107748
0.000222166
2.20906e-05
0.00222602
3.39127e-08
4.45132e-05
0.00217995
6.66692e-05
0.00212231
8.8194e-05
0.00204624
0.000108804
0.00194965
0.000128244
0.00183281
0.00014629
0.00169651
0.000162735
0.00154204
0.000177395
0.00137096
0.000190102
0.00118507
0.000200711
0.000986324
0.0002091
0.0007769
0.000215175
0.000559069
0.000218865
0.000335225
0.000106529
0.000220167
2.18876e-05
0.00220409
3.42813e-08
4.41046e-05
0.00215772
6.60578e-05
0.00210035
8.73859e-05
0.00202491
0.000107808
0.00192922
0.000127072
0.00181354
0.000144957
0.00167861
0.000161256
0.00152573
0.000175786
0.00135641
0.000188381
0.00117246
0.000198897
0.00097579
0.000207213
0.00076856
0.000213234
0.000553019
0.000216893
0.000331522
0.000105158
0.000218184
2.16863e-05
0.00218237
3.72647e-08
4.36998e-05
0.00213571
6.54522e-05
0.0020786
8.65856e-05
0.00200378
0.000106822
0.00190899
0.000125913
0.00179445
0.000143637
0.0016609
0.000159792
0.00150958
0.000174194
0.00134202
0.000186678
0.00115999
0.000197101
0.000965385
0.000205343
0.00076034
0.000211311
0.000547083
0.000214939
0.000327937
0.00010396
0.000216218
2.14868e-05
0.00216084
4.22283e-08
4.32988e-05
0.0021139
6.48525e-05
0.00205705
8.57934e-05
0.00198283
0.000105847
0.00188893
0.000124766
0.00177553
0.000142332
0.00164332
0.000158344
0.00149356
0.000172619
0.00132774
0.000184993
0.0011476
0.000195323
0.000955037
0.000203492
0.000752148
0.000209407
0.00054114
0.000213002
0.0003243
0.000102616
0.000214269
2.12891e-05
0.0021395
4.84146e-08
4.29017e-05
0.00209229
6.42587e-05
0.00203569
8.50093e-05
0.00196208
0.000104881
0.00186906
0.000123631
0.00175678
0.000141041
0.00162592
0.000156911
0.0014777
0.000171059
0.0013136
0.000183323
0.00113535
0.000193563
0.000944816
0.000201658
0.000744075
0.00020752
0.00053531
0.000211083
0.00032078
0.000101444
0.000212335
2.10932e-05
0.00211835
5.50727e-08
4.25086e-05
0.00207087
6.3671e-05
0.00201452
8.42333e-05
0.00194151
0.000103926
0.00184936
0.000122508
0.00173819
0.000139763
0.00160866
0.000155492
0.00146196
0.000169515
0.00129956
0.000181671
0.00112318
0.000191818
0.000934651
0.000199842
0.000736029
0.00020565
0.000529473
0.000209181
0.000317208
0.000100129
0.000210418
2.08992e-05
0.00209739
6.15768e-08
4.21194e-05
0.00204965
6.30893e-05
0.00199356
8.34654e-05
0.00192114
0.000102981
0.00182985
0.000121397
0.00171978
0.000138498
0.00159156
0.000154088
0.00144638
0.000167987
0.00128568
0.000180034
0.00111115
0.000190091
0.000924612
0.000198042
0.0007281
0.000203797
0.000523749
0.000207295
0.000313754
9.89873e-05
0.000208517
2.07071e-05
0.00207661
6.74672e-08
4.17343e-05
0.00202862
6.25136e-05
0.00197277
8.27056e-05
0.00190094
0.000102046
0.0018105
0.000120297
0.00170152
0.000137246
0.0015746
0.000152697
0.00143091
0.000166473
0.00127189
0.000178412
0.00109919
0.000188379
0.000914629
0.000196258
0.000720199
0.000201961
0.000518019
0.000205426
0.000310249
9.77062e-05
0.000206631
2.0517e-05
0.00205603
7.24797e-08
4.13531e-05
0.00200778
6.19441e-05
0.00195219
8.19539e-05
0.00188094
0.000101121
0.00179134
0.000119209
0.00168344
0.000136007
0.00155781
0.000151321
0.00141561
0.000164973
0.00125825
0.000176806
0.00108737
0.000186683
0.00090477
0.00019449
0.000712414
0.000200141
0.0005124
0.000203572
0.000306861
9.65964e-05
0.000204761
2.03288e-05
0.00203562
7.65089e-08
4.09759e-05
0.00198713
6.13805e-05
0.00193178
8.121e-05
0.0018611
0.000100205
0.00177234
0.000118132
0.00166551
0.000134781
0.00154115
0.000149958
0.00140042
0.000163488
0.00124471
0.000175214
0.00107563
0.000185002
0.000894966
0.000192738
0.000704656
0.000198336
0.000506774
0.000201735
0.000303422
9.53499e-05
0.000202907
2.01425e-05
0.0020154
7.95854e-08
4.06026e-05
0.00196668
6.08229e-05
0.00191156
8.0474e-05
0.00184146
9.92989e-05
0.00175352
0.000117066
0.00164775
0.000133566
0.00152466
0.000148607
0.00138539
0.000162016
0.00123131
0.000173637
0.00106403
0.000183336
0.000885286
0.000191001
0.000697014
0.000196547
0.000501259
0.000199913
0.0003001
9.42727e-05
0.000201068
1.99581e-05
0.00199535
8.18148e-08
4.02333e-05
0.0019464
6.0271e-05
0.00189152
7.97455e-05
0.00182198
9.84019e-05
0.00173486
0.00011601
0.00163013
0.000132363
0.0015083
0.00014727
0.00137047
0.000160558
0.00121801
0.000172074
0.0010525
0.000181684
0.000875659
0.000189278
0.000689398
0.000194774
0.000495738
0.000198106
0.000296729
9.30613e-05
0.000199245
1.97757e-05
0.0019755
8.33511e-08
3.98678e-05
0.00192631
5.97249e-05
0.00187166
7.90245e-05
0.00180268
9.75138e-05
0.00171637
0.000114964
0.00161269
0.000131171
0.0014921
0.000145944
0.00135571
0.000159113
0.00120485
0.000170524
0.0010411
0.000180046
0.000866155
0.000187571
0.000681895
0.000193015
0.000490326
0.000196315
0.000293473
9.20165e-05
0.000197437
1.95951e-05
0.00195582
8.43484e-08
3.9506e-05
0.00190639
5.91844e-05
0.00185198
7.83107e-05
0.00178355
9.66344e-05
0.00169804
0.000113929
0.00159538
0.00012999
0.00147603
0.000144631
0.00134106
0.00015768
0.00119179
0.000168987
0.00102978
0.000178423
0.000856703
0.000185878
0.000674419
0.000191271
0.000484907
0.000194538
0.000290167
9.0839e-05
0.000195644
1.94164e-05
0.00193632
8.49545e-08
3.91479e-05
0.00188666
5.86493e-05
0.00183248
7.76039e-05
0.0017646
9.57634e-05
0.00167989
0.000112903
0.00157825
0.00012882
0.00146012
0.000143328
0.00132656
0.00015626
0.00117887
0.000167464
0.00101859
0.000176813
0.000847373
0.000184199
0.000667056
0.000189541
0.000479597
0.000192776
0.000286976
8.98254e-05
0.000193867
1.92395e-05
0.00191699
8.52852e-08
3.87934e-05
0.0018671
5.81195e-05
0.00181315
7.6904e-05
0.00174581
9.49006e-05
0.00166189
0.000111886
0.00156126
0.00012766
0.00144434
0.000142038
0.00131217
0.000154852
0.00116605
0.000165954
0.00100747
0.000175217
0.000838094
0.000182534
0.000659717
0.000187826
0.00047428
0.000191029
0.000283735
8.86806e-05
0.000192104
1.90643e-05
0.00189784
8.54356e-08
3.84423e-05
0.00184773
5.75947e-05
0.001794
7.62106e-05
0.0017272
9.40457e-05
0.00164406
0.000110879
0.00154443
0.000126511
0.00142872
0.000140758
0.00129793
0.000153455
0.00115336
0.000164456
0.000996487
0.000173634
0.000828934
0.000180883
0.00065249
0.000186126
0.000469069
0.000189297
0.000280607
8.76967e-05
0.000190357
1.88909e-05
0.00187886
8.54683e-08
3.80947e-05
0.00182852
5.7075e-05
0.00177502
7.55236e-05
0.00170874
9.31985e-05
0.00162638
0.00010988
0.00152774
0.000125371
0.00141322
0.000139489
0.00128381
0.000152071
0.00114077
0.00016297
0.000985574
0.000172064
0.000819825
0.000179246
0.000645287
0.000184439
0.000463851
0.000187579
0.00027743
8.65825e-05
0.000188625
1.87191e-05
0.00186006
8.54315e-08
3.77502e-05
0.00180949
5.656e-05
0.00175621
7.48429e-05
0.00169047
9.23588e-05
0.00160886
0.00010889
0.00151122
0.000124241
0.00139787
0.000138231
0.00126983
0.000150698
0.00112832
0.000161497
0.000974789
0.000170507
0.000810834
0.000177623
0.000638194
0.000182767
0.000458739
0.000185876
0.000274364
8.56263e-05
0.000186908
1.85489e-05
0.00184142
8.53517e-08
3.7409e-05
0.00179063
5.60497e-05
0.00173757
7.41681e-05
0.00167234
9.15263e-05
0.0015915
0.000107908
0.00149483
0.00012312
0.00138265
0.000136983
0.00125595
0.000149336
0.00111595
0.000160036
0.000964075
0.000168963
0.000801892
0.000176013
0.000631124
0.000181109
0.000453619
0.000184187
0.000271249
8.45409e-05
0.000185205
1.83803e-05
0.00182296
8.52515e-08
3.70709e-05
0.00177194
5.55439e-05
0.0017191
7.34992e-05
0.00165439
9.07009e-05
0.0015743
0.000106935
0.0014786
0.000122009
0.00136759
0.000135745
0.00124223
0.000147985
0.00110372
0.000158588
0.000953487
0.000167432
0.000793066
0.000174416
0.000624162
0.000179464
0.000448602
0.000182513
0.000268243
8.36105e-05
0.000183518
1.82133e-05
0.00180466
8.51407e-08
3.67357e-05
0.00175341
5.50425e-05
0.00170079
7.2836e-05
0.00163659
8.98824e-05
0.00155725
0.000105969
0.00146251
0.000120906
0.00135264
0.000134517
0.00122861
0.000146646
0.00109159
0.000157151
0.000942969
0.000165913
0.000784289
0.000172833
0.000617223
0.000177834
0.000443578
0.000180853
0.000265188
8.25516e-05
0.000181846
1.80477e-05
0.00178653
8.50311e-08
3.64035e-05
0.00173506
5.45454e-05
0.00168265
7.21784e-05
0.00161896
8.90707e-05
0.00154036
0.000105012
0.00144657
0.000119813
0.00133785
0.0001333
0.00121513
0.000145317
0.00107958
0.000155726
0.000932574
0.000164408
0.000775625
0.000171263
0.00061039
0.000176217
0.000438655
0.000179207
0.000262241
8.16449e-05
0.000180188
1.78836e-05
0.00176856
8.49267e-08
3.60741e-05
0.00171687
5.40525e-05
0.00166467
7.15263e-05
0.00160148
8.82657e-05
0.00152362
0.000104062
0.00143077
0.000118729
0.00132318
0.000132092
0.00120176
0.000144
0.00106766
0.000154313
0.000922249
0.000162915
0.000767008
0.000169707
0.000603579
0.000174614
0.000433724
0.000177575
0.000259245
8.06108e-05
0.000178545
1.77209e-05
0.00175075
8.48356e-08
3.57475e-05
0.00169884
5.35637e-05
0.00164685
7.08795e-05
0.00158417
8.74672e-05
0.00150704
0.00010312
0.00141512
0.000117653
0.00130865
0.000130895
0.00118852
0.000142693
0.00105588
0.000152911
0.000912045
0.000161434
0.000758504
0.000168163
0.000596872
0.000173025
0.000428894
0.000175958
0.000256355
7.97261e-05
0.000176916
1.75596e-05
0.0017331
8.47594e-08
3.54236e-05
0.00168098
5.30789e-05
0.00162919
7.0238e-05
0.00156701
8.66753e-05
0.00149059
0.000102186
0.0013996
0.000116586
0.00129424
0.000129707
0.00117539
0.000141397
0.00104418
0.000151522
0.000901908
0.000159966
0.000750045
0.000166633
0.000590186
0.00017145
0.000424054
0.000174355
0.000253416
7.87148e-05
0.000175303
1.73996e-05
0.00171562
8.47044e-08
3.51024e-05
0.00166328
5.25981e-05
0.0016117
6.96018e-05
0.00155001
8.58898e-05
0.00147431
0.000101259
0.00138424
0.000115528
0.00127998
0.000128529
0.0011624
0.000140112
0.0010326
0.000150144
0.00089189
0.000158511
0.000741696
0.000165116
0.000583602
0.000169888
0.000419313
0.000172766
0.000250581
7.78502e-05
0.000173703
1.7241e-05
0.00169829
8.46705e-08
3.47838e-05
0.00164573
5.21212e-05
0.00159436
6.89707e-05
0.00153315
8.51106e-05
0.00145817
0.00010034
0.001369
0.000114479
0.00126584
0.000127361
0.00114951
0.000138838
0.00102112
0.000148778
0.000881938
0.000157068
0.000733392
0.000163613
0.000577039
0.000168341
0.000414563
0.000171191
0.000247697
7.68602e-05
0.000172119
1.70837e-05
0.00168113
8.46624e-08
3.44678e-05
0.00162835
5.16482e-05
0.00157718
6.83447e-05
0.00151646
8.43379e-05
0.00144218
9.94286e-05
0.00135392
0.000113438
0.00125183
0.000126203
0.00113676
0.000137575
0.00100976
0.000147423
0.000872103
0.000155637
0.000725196
0.000162122
0.000570576
0.000166806
0.00040991
0.00016963
0.000244916
7.60142e-05
0.000170548
1.69277e-05
0.00166411
8.46788e-08
3.41544e-05
0.00161112
5.1179e-05
0.00156016
6.77238e-05
0.00149991
8.35714e-05
0.00142633
9.85246e-05
0.00133896
0.000112406
0.00123795
0.000125054
0.0011241
0.000136322
0.000998479
0.00014608
0.000862333
0.000154219
0.000717043
0.000160645
0.000564132
0.000165286
0.000405246
0.000168083
0.000242086
7.50438e-05
0.000168992
1.6773e-05
0.00164726
8.47223e-08
3.38436e-05
0.00159405
5.07136e-05
0.00154329
6.7108e-05
0.00148352
8.28112e-05
0.00141063
9.7628e-05
0.00132415
0.000111383
0.0012242
0.000123915
0.00111158
0.00013508
0.000987325
0.000144749
0.000852678
0.000152814
0.000708997
0.00015918
0.000557788
0.000163779
0.000400679
0.00016655
0.000239357
7.4215e-05
0.000167451
1.66196e-05
0.00163055
8.47902e-08
3.35353e-05
0.00157713
5.0252e-05
0.00152657
6.64972e-05
0.00146727
8.20573e-05
0.00139506
9.67389e-05
0.00130946
0.000110368
0.00121056
0.000122786
0.00109915
0.000133849
0.000976253
0.00014343
0.000843085
0.00015142
0.000700992
0.000157729
0.000551462
0.000162285
0.0003961
0.000165031
0.000236578
7.32632e-05
0.000165923
1.64675e-05
0.001614
8.48841e-08
3.32295e-05
0.00156037
4.97943e-05
0.00151001
6.58915e-05
0.00145118
8.13097e-05
0.00137965
9.58573e-05
0.00129492
0.000109362
0.00119706
0.000121666
0.00108685
0.000132628
0.000965302
0.000142122
0.000833605
0.00015004
0.000693092
0.00015629
0.000545234
0.000160805
0.000391617
0.000163526
0.000233899
7.24506e-05
0.00016441
1.63166e-05
0.0015976
8.50001e-08
3.29263e-05
0.00154376
4.93403e-05
0.00149359
6.52908e-05
0.00143522
8.05684e-05
0.00136437
9.49832e-05
0.0012805
0.000108365
0.00118367
0.000120557
0.00107465
0.000131419
0.000954431
0.000140825
0.000824187
0.000148671
0.000685233
0.000154865
0.000539022
0.000159338
0.000387121
0.000162034
0.000231171
7.15159e-05
0.000162911
1.61669e-05
0.00158135
8.51384e-08
3.26256e-05
0.0015273
4.88901e-05
0.00147733
6.46952e-05
0.00141942
7.98333e-05
0.00134923
9.41165e-05
0.00126622
0.000107376
0.00117042
0.000119456
0.00106258
0.000130219
0.00094368
0.00013954
0.000814879
0.000147315
0.000677477
0.000153452
0.000532907
0.000157885
0.000382719
0.000160557
0.000228542
7.07184e-05
0.000161425
1.60186e-05
0.00156524
8.52946e-08
3.23274e-05
0.00151099
4.84436e-05
0.00146121
6.41046e-05
0.00140376
7.91045e-05
0.00133423
9.32573e-05
0.00125206
0.000106396
0.00115728
0.000118366
0.0010506
0.000129031
0.000933005
0.000138267
0.000805631
0.000145971
0.00066976
0.000152052
0.000526807
0.000156445
0.000378305
0.000159092
0.000225863
6.98002e-05
0.000159954
1.58715e-05
0.00154928
8.54684e-08
3.20317e-05
0.00149483
4.80009e-05
0.00144524
6.35189e-05
0.00138824
7.8382e-05
0.00131937
9.24056e-05
0.00123804
0.000105424
0.00114427
0.000117285
0.00103875
0.000127853
0.000922449
0.000137005
0.000796493
0.000144639
0.000662144
0.000150665
0.000520803
0.000155018
0.000373983
0.000157642
0.000223281
6.9017e-05
0.000158496
1.57256e-05
0.00153347
8.56551e-08
3.17385e-05
0.00147881
4.7562e-05
0.00142941
6.29384e-05
0.00137286
7.76657e-05
0.00130464
9.15613e-05
0.00122414
0.000104461
0.00113136
0.000116214
0.00102699
0.000126686
0.000911968
0.000135755
0.000787413
0.000143319
0.000654567
0.000149291
0.000514814
0.000153605
0.000369648
0.000156205
0.00022065
6.81143e-05
0.000157052
1.5581e-05
0.00151781
8.58538e-08
3.14478e-05
0.00146295
4.71269e-05
0.00141374
6.23628e-05
0.00135763
7.69556e-05
0.00129005
9.07244e-05
0.00121038
0.000103507
0.00111858
0.000115153
0.00101535
0.000125529
0.000901604
0.000134516
0.00077844
0.000142011
0.000647089
0.000147929
0.000508918
0.000152204
0.000365404
0.000154781
0.000218114
6.73446e-05
0.000155621
1.54377e-05
0.00150228
8.60602e-08
3.11596e-05
0.00144722
4.66955e-05
0.0013982
6.17922e-05
0.00134253
7.62518e-05
0.00127558
8.9895e-05
0.00119673
0.000102561
0.00110591
0.000114101
0.0010038
0.000124383
0.000891312
0.000133288
0.000769523
0.000140716
0.000639648
0.00014658
0.000503036
0.000150817
0.000361147
0.00015337
0.00021553
6.64569e-05
0.000154204
1.52956e-05
0.0014869
8.62733e-08
3.08739e-05
0.00143165
4.62679e-05
0.00138281
6.12267e-05
0.00132757
7.55542e-05
0.00126126
8.90729e-05
0.00118322
0.000101623
0.00109337
0.000113058
0.000992378
0.000123247
0.000881135
0.000132071
0.000760713
0.000139432
0.000632305
0.000145243
0.000497247
0.000149442
0.000356979
0.000151973
0.00021304
6.57004e-05
0.0001528
1.51548e-05
0.00147165
8.6489e-08
3.05908e-05
0.00141621
4.5844e-05
0.00136755
6.06661e-05
0.00131275
7.48629e-05
0.00124706
8.82582e-05
0.00116981
0.000100694
0.00108093
0.000112025
0.000981038
0.000122121
0.00087103
0.000130866
0.000751957
0.00013816
0.000624998
0.000143919
0.00049147
0.00014808
0.000352798
0.000150589
0.0002105
6.48269e-05
0.000151409
1.50152e-05
0.00145656
8.67065e-08
3.03101e-05
0.00140091
4.54238e-05
0.00135244
6.01105e-05
0.00129806
7.41777e-05
0.001233
8.74509e-05
0.00115655
9.97737e-05
0.00106861
0.000111002
0.000969819
0.000121006
0.000861037
0.000129671
0.000743305
0.0001369
0.000617788
0.000142607
0.000485785
0.000146731
0.000348705
0.000149218
0.000208055
6.40828e-05
0.000150032
1.48768e-05
0.00144159
8.6922e-08
3.00319e-05
0.00138575
4.50074e-05
0.00133746
5.95599e-05
0.00128351
7.34987e-05
0.00121905
8.66509e-05
0.00114339
9.88615e-05
0.00105639
0.000109988
0.000958685
0.000119901
0.000851114
0.000128488
0.000734707
0.000135651
0.000610612
0.000141308
0.000480112
0.000145394
0.000344598
0.000147859
0.00020556
6.32233e-05
0.000148667
1.47397e-05
0.00142676
8.71354e-08
2.97561e-05
0.00137074
4.45948e-05
0.00132263
5.90143e-05
0.00126909
7.28258e-05
0.00120525
8.58581e-05
0.00113036
9.79577e-05
0.0010443
0.000108983
0.000947668
0.000118807
0.000841302
0.000127316
0.000726212
0.000134415
0.000603531
0.00014002
0.000474529
0.00014407
0.000340578
0.000146514
0.000203157
6.24914e-05
0.000147316
1.46038e-05
0.00141207
8.73432e-08
2.94829e-05
0.00135586
4.41858e-05
0.00130792
5.84736e-05
0.0012548
7.21591e-05
0.00119156
8.50727e-05
0.00111744
9.70623e-05
0.0010323
0.000107987
0.000936735
0.000117722
0.000831558
0.000126155
0.000717768
0.000133189
0.000596484
0.000138745
0.000468957
0.000142759
0.000336544
0.000145181
0.000200706
6.16453e-05
0.000145977
1.44692e-05
0.00139751
8.75455e-08
2.92121e-05
0.00134112
4.37805e-05
0.00129335
5.79377e-05
0.00124065
7.14984e-05
0.001178
8.42944e-05
0.00110465
9.61751e-05
0.00102043
0.000107001
0.000925918
0.000116648
0.000821922
0.000125004
0.000709426
0.000131976
0.000589531
0.000137481
0.000463474
0.00014146
0.000332596
0.000143861
0.000198345
6.09251e-05
0.00014465
1.43358e-05
0.00138309
8.77397e-08
2.89438e-05
0.00132651
4.3379e-05
0.00127891
5.74068e-05
0.00122661
7.08438e-05
0.00116456
8.35233e-05
0.00109197
9.52961e-05
0.00100865
0.000106024
0.000915182
0.000115584
0.000812353
0.000123865
0.000701134