1.45 	0 	0 	-0.290643
2.35 	0 	0 	-0.126457
