1.45 	0 	0 	-0.29875
2.35 	0 	0 	-0.132641
