/*--------------------------------*- C++ -*----------------------------------*\
  =========                 |
  \\      /  F ield         | OpenFOAM: The Open Source CFD Toolbox
   \\    /   O peration     | Website:  https://openfoam.org
    \\  /    A nd           | Version:  6.0
     \\/     M anipulation  |
\*---------------------------------------------------------------------------*/
FoamFile
{
    version     2.0;
    format      ascii;
    class       surfaceScalarField;
    location    "3";
    object      phi;
}
// * * * * * * * * * * * * * * * * * * * * * * * * * * * * * * * * * * * * * //

dimensions      [0 3 -1 0 0 0 0];

internalField   nonuniform List<scalar> 
123526
(
-0.000161218
2.62396e-05
0.000161736
-0.000160708
2.83793e-05
-0.000160138
3.06923e-05
-0.000159536
3.31954e-05
-0.000158869
3.5905e-05
-0.00015816
3.88386e-05
-0.000157378
4.20152e-05
-0.000156544
4.54558e-05
-0.000155627
4.91821e-05
-0.000154646
5.32187e-05
-0.000153573
5.75934e-05
-0.00015242
6.23349e-05
-0.000151166
6.74752e-05
-0.000149814
7.30469e-05
-0.000148346
7.90892e-05
-0.000146762
8.56488e-05
-0.00014505
9.27681e-05
-0.000143194
0.000100491
-0.000141184
0.000108881
-0.000139013
0.000118003
-0.000136654
0.000127909
-0.000134099
0.000138683
-0.000131331
0.000150413
-0.00012832
0.000163162
-0.000125052
0.00017706
-0.000121506
0.000192193
-0.000117643
0.000208682
-0.000113458
0.000226665
-0.000108889
0.000246263
-0.000103946
0.000267647
-9.8559e-05
0.000290959
-9.2722e-05
0.000316391
-8.63905e-05
0.000344102
-7.95359e-05
0.00037429
-7.21345e-05
0.000407147
-6.41382e-05
0.000442834
-5.55379e-05
0.000481566
-4.62959e-05
0.000523469
-3.63704e-05
0.000568668
-2.57289e-05
0.000617252
-1.43039e-05
0.000669203
-1.99869e-06
0.0007244
1.13344e-05
0.000782555
2.58838e-05
0.000843167
4.18492e-05
0.000905481
5.93857e-05
0.000968311
7.86026e-05
0.00102998
9.9435e-05
0.00108833
0.000121712
0.00114072
0.000145058
0.0011843
0.000169042
0.00121589
0.000193365
0.00123182
0.000217569
0.00122728
0.000241532
0.0011951
0.000264674
0.00112555
0.000286598
0.00100431
0.000306696
0.000813306
0.000327079
0.000525976
0.000306088
1.11568e-05
-0.000671278
0.000300374
-0.000160339
2.58044e-05
0.000160773
-0.000159877
2.79064e-05
-0.000159361
3.01799e-05
-0.000158813
3.26399e-05
-0.000158206
3.53025e-05
-0.00015756
3.8185e-05
-0.000156847
4.13061e-05
-0.000156086
4.46865e-05
-0.000155248
4.83467e-05
-0.00015435
5.23111e-05
-0.000153363
5.66077e-05
-0.000152302
6.12647e-05
-0.00015114
6.63137e-05
-0.000149884
7.17841e-05
-0.00014851
7.77164e-05
-0.000147026
8.41604e-05
-0.00014541
9.11554e-05
-0.000143656
9.87365e-05
-0.000141747
0.000106977
-0.000139682
0.00011594
-0.000137433
0.000125666
-0.00013499
0.000136245
-0.000132342
0.000147771
-0.000129454
0.000160279
-0.000126318
0.000173931
-0.000122906
0.000188787
-0.000119187
0.000204969
-0.000115143
0.000222627
-0.000110729
0.000241851
-0.000105928
0.00026285
-0.00010069
0.000285717
-9.49889e-05
0.000310684
-8.87754e-05
0.00033788
-8.20114e-05
0.000367513
-7.4662e-05
0.00039978
-6.66661e-05
0.000434815
-5.79993e-05
0.000472868
-4.86084e-05
0.00051404
-3.8438e-05
0.00055845
-2.74453e-05
0.000606202
-1.55635e-05
0.000657255
-2.70914e-06
0.000711469
1.12319e-05
0.000768533
2.63968e-05
0.000827917
4.29183e-05
0.000888883
6.08719e-05
0.000950284
8.02911e-05
0.00101052
0.000101058
0.00106753
0.000122993
0.00111881
0.000145753
0.0011616
0.000168977
0.00119274
0.000192449
0.0012085
0.000215778
0.00120398
0.000238913
0.00117207
0.000261299
0.001103
0.00028265
0.000982818
0.000302518
0.000793044
0.000323281
0.000504673
0.00030772
2.27709e-05
-0.000673917
0.00030863
-0.000157822
2.53917e-05
0.000158264
-0.000157376
2.74604e-05
-0.000156881
2.96981e-05
-0.000156362
3.21191e-05
-0.000155789
3.47392e-05
-0.000155184
3.75754e-05
-0.000154516
4.06463e-05
-0.000153807
4.39721e-05
-0.000153027
4.75723e-05
-0.000152194
5.14703e-05
-0.000151277
5.5695e-05
-0.000150293
6.02733e-05
-0.000149214
6.52362e-05
-0.000148048
7.06103e-05
-0.000146769
7.64367e-05
-0.000145385
8.27688e-05
-0.000143874
8.96422e-05
-0.000142229
9.70842e-05
-0.000140432
0.000105177
-0.000138481
0.000113984
-0.000136349
0.000123532
-0.000134026
0.000133917
-0.000131499
0.000145243
-0.000128736
0.000157513
-0.000125729
0.000170922
-0.000122449
0.000185504
-0.000118866
0.000201385
-0.000114962
0.00021872
-0.00011069
0.000237577
-0.000106037
0.000258188
-0.000100946
0.000280616
-9.53916e-05
0.000305115
-8.93205e-05
0.00033179
-8.26892e-05
0.00036086
-7.54564e-05
0.000392521
-6.75539e-05
0.000426882
-5.89484e-05
0.000464227
-4.95773e-05
0.000504626
-3.93762e-05
0.0005482
-2.82956e-05
0.000595066
-1.62672e-05
0.000645165
-3.21241e-06
0.000698346
1.09597e-05
0.000754291
2.63455e-05
0.000812458
4.30349e-05
0.000872128
6.10566e-05
0.000932194
8.0404e-05
0.00099112
0.000100937
0.00104694
0.000122481
0.00109725
0.000144726
0.00113934
0.000167354
0.00117006
0.000190195
0.00118566
0.000212883
0.00118109
0.0002354
0.00114946
0.000257198
0.00108085
0.000278039
0.000961696
0.000297475
0.000773033
0.000316797
0.00048479
0.000305115
3.37476e-05
-0.000674691
0.000305778
-0.0001552
2.49699e-05
0.000155605
-0.000154762
2.70053e-05
-0.000154275
2.92078e-05
-0.000153759
3.1591e-05
-0.000153192
3.41706e-05
-0.00015259
3.69633e-05
-0.000151933
3.99872e-05
-0.000151234
4.32625e-05
-0.000150472
4.68073e-05
-0.000149658
5.06447e-05
-0.000148769
5.48037e-05
-0.000147818
5.93101e-05
-0.00014678
6.41944e-05
-0.000145661
6.948e-05
-0.000144437
7.52084e-05
-0.000143116
8.14364e-05
-0.000141675
8.81958e-05
-0.000140107
9.55061e-05
-0.000138394
0.000103457
-0.000136533
0.000112114
-0.000134498
0.000121489
-0.000132276
0.000131687
-0.000129856
0.000142816
-0.000127204
0.000154853
-0.000124312
0.000168022
-0.000121151
0.000182335
-0.000117693
0.000197918
-0.000113917
0.000214936
-0.000109779
0.000233429
-0.00010526
0.000253659
-0.00010031
0.000275649
-9.48977e-05
0.000299683
-8.89697e-05
0.000325839
-8.24793e-05
0.000354344
-7.53818e-05
0.000385394
-6.76048e-05
0.000419071
-5.91098e-05
0.000455693
-4.98288e-05
0.000495301
-3.96924e-05
0.000538013
-2.86468e-05
0.000583962
-1.66226e-05
0.000633074
-3.5433e-06
0.000685192
1.06648e-05
0.000740003
2.60684e-05
0.000796967
4.27295e-05
0.000855381
6.06492e-05
0.000914179
7.97992e-05
0.000971886
0.000100029
0.00102661
0.000121177
0.00107604
0.000142952
0.00111749
0.000165072
0.00114782
0.000187386
0.00116324
0.00020955
0.00115869
0.000231545
0.00112723
0.000252837
0.00105908
0.000273199
0.000940806
0.000292119
0.000753313
0.000309714
0.000466114
0.00030227
3.70908e-05
-0.000676525
0.000302237
-0.000152476
2.45641e-05
0.000152898
-0.000152041
2.65667e-05
-0.000151562
2.87341e-05
-0.000151055
3.10795e-05
-0.000150499
3.36183e-05
-0.000149909
3.63672e-05
-0.000149264
3.93442e-05
-0.000148577
4.25692e-05
-0.000147828
4.60593e-05
-0.000147028
4.9837e-05
-0.000146156
5.39319e-05
-0.000145224
5.83687e-05
-0.000144208
6.31773e-05
-0.000143116
6.83781e-05
-0.000141924
7.4013e-05
-0.00014064
8.01419e-05
-0.000139243
8.67929e-05
-0.000137725
9.39777e-05
-0.000136069
0.000101794
-0.000134273
0.000110307
-0.000132309
0.000119516
-0.000130165
0.000129533
-0.00012783
0.000140471
-0.00012527
0.000152282
-0.000122476
0.000165218
-0.000119419
0.000179268
-0.000116071
0.000194559
-0.00011241
0.000211264
-0.000108393
0.000229401
-0.000104002
0.000249253
-9.9183e-05
0.000270812
-9.39087e-05
0.000294386
-8.81222e-05
0.000320027
-8.17761e-05
0.000347969
-7.48233e-05
0.00037841
-6.71896e-05
0.000411402
-5.88329e-05
0.000447298
-4.96819e-05
0.000486107
-3.96641e-05
0.000527947
-2.87228e-05
0.000572968
-1.67879e-05
0.000621082
-3.78395e-06
0.000672125
1.03496e-05
0.000725804
2.5657e-05
0.000781592
4.21806e-05
0.000838793
5.99044e-05
0.000896385
7.87884e-05
0.000952944
9.86786e-05
0.00100665
0.000119427
0.00105525
0.000140762
0.0010961
0.000162424
0.00112607
0.000184273
0.00114133
0.000205978
0.00113675
0.000227514
0.00110555
0.000248353
0.00103788
0.000268263
0.000920607
0.000286635
0.000734403
0.000302649
0.000449656
0.000299024
4.05458e-05
-0.000675537
0.000298154
-0.000149841
2.41533e-05
0.000150231
-0.000149414
2.61229e-05
-0.000148942
2.82552e-05
-0.000148438
3.05629e-05
-0.000147887
3.30615e-05
-0.000147298
3.57672e-05
-0.000146657
3.86981e-05
-0.000145972
4.18738e-05
-0.000145228
4.53103e-05
-0.000144432
4.90298e-05
-0.000143568
5.30625e-05
-0.000142643
5.74319e-05
-0.00014164
6.21675e-05
-0.00014056
6.72868e-05
-0.000139386
7.28321e-05
-0.000138122
7.88664e-05
-0.000136751
8.54141e-05
-0.000135263
9.2479e-05
-0.000133644
0.000100166
-0.000131891
0.000108542
-0.000129977
0.000117593
-0.00012789
0.000127435
-0.000125619
0.00013819
-0.00012313
0.000149782
-0.000120415
0.000162491
-0.000117444
0.000176285
-0.000114189
0.000191292
-0.000110629
0.000207691
-0.00010672
0.000225478
-0.000102443
0.000244961
-9.77462e-05
0.000266096
-9.26005e-05
0.000289218
-8.69499e-05
0.00031435
-8.07459e-05
0.000341736
-7.39405e-05
0.000371573
-6.64583e-05
0.000403885
-5.82555e-05
0.000439055
-4.9259e-05
0.000477067
-3.93945e-05
0.000518033
-2.86037e-05
0.000562121
-1.6816e-05
0.000609231
-3.95715e-06
0.000659194
1.00243e-05
0.000711745
2.51557e-05
0.000766373
4.14667e-05
0.000822395
5.89306e-05
0.000878819
7.75032e-05
0.000934277
9.70311e-05
0.000987005
0.000117381
0.0010348
0.000138295
0.00107506
0.000159537
0.00110466
0.000180964
0.00111972
0.00020226
0.00111514
0.00022338
0.00108408
0.000243809
0.00101689
0.00026329
0.000900477
0.00028112
0.00071566
0.000295778
0.000433743
0.000295442
3.7044e-05
-0.000675691
0.000293755
-0.000147161
2.37579e-05
0.000147563
-0.000146738
2.56952e-05
-0.000146275
2.77928e-05
-0.000145781
3.00631e-05
-0.000145241
3.25213e-05
-0.000144664
3.51836e-05
-0.000144035
3.8068e-05
-0.000143362
4.11939e-05
-0.000142629
4.45765e-05
-0.000141845
4.82375e-05
-0.000140993
5.22075e-05
-0.000140079
5.65095e-05
-0.000139088
6.11722e-05
-0.000138021
6.62104e-05
-0.000136862
7.16671e-05
-0.000135614
7.76082e-05
-0.000134263
8.40547e-05
-0.000132797
9.10027e-05
-0.000131205
9.85649e-05
-0.000129482
0.000106808
-0.000127605
0.000115705
-0.00012556
0.000125379
-0.000123338
0.000135957
-0.000120904
0.000147336
-0.000118252
0.000159826
-0.000115352
0.000173371
-0.000112175
0.000188102
-0.000108701
0.000204204
-0.000104885
0.00022165
-0.000100711
0.00024077
-9.61242e-05
0.000261491
-9.10977e-05
0.000284168
-8.55753e-05
0.000308801
-7.95083e-05
0.00033564
-7.28485e-05
0.000364881
-6.55205e-05
0.000396522
-5.74792e-05
0.000430976
-4.86511e-05
0.000468197
-3.89615e-05
0.000508298
-2.83509e-05
0.000551462
-1.6749e-05
0.000597576
-4.08208e-06
0.000646471
9.69403e-06
0.000697911
2.45955e-05
0.00075141
4.06434e-05
0.00080629
5.7806e-05
0.000861592
7.60382e-05
0.000915991
9.5191e-05
0.000967786
0.000115145
0.00101481
0.000135655
0.00105451
0.000156501
0.00108373
0.000177539
0.00109862
0.000198459
0.00109401
0.000219198
0.00106322
0.000239246
0.000996541
0.000258323
0.000881169
0.00027563
0.000697919
0.00028919
0.000419897
0.000291586
3.49746e-05
-0.000672971
0.000289182
-0.000144579
2.33601e-05
0.000144954
-0.000144165
2.52651e-05
-0.000143709
2.73282e-05
-0.00014322
2.95614e-05
-0.000142686
3.19798e-05
-0.000142113
3.45995e-05
-0.00014149
3.74382e-05
-0.000140821
4.05153e-05
-0.000140097
4.38448e-05
-0.000139318
4.74483e-05
-0.000138474
5.13568e-05
-0.000137569
5.55924e-05
-0.000136588
6.01835e-05
-0.000135531
6.51422e-05
-0.000134384
7.05119e-05
-0.000133149
7.63618e-05
-0.000131813
8.27094e-05
-0.000130365
8.95433e-05
-0.000128794
9.69836e-05
-0.000127094
0.000105098
-0.000125245
0.000113845
-0.000123233
0.000123355
-0.00012105
0.000133762
-0.000118661
0.000144935
-0.000116059
0.000157213
-0.000113217
0.000170516
-0.000110106
0.000184977
-0.000106706
0.00020079
-0.000102973
0.000217903
-9.88892e-05
0.00023667
-9.44031e-05
0.000256986
-8.94863e-05
0.000279228
-8.4084e-05
0.000303373
-7.81478e-05
0.000329676
-7.16295e-05
0.000358332
-6.44543e-05
0.000389313
-5.6577e-05
0.000423061
-4.79243e-05
0.000459502
-3.84214e-05
0.000498748
-2.8009e-05
0.000540996
-1.66169e-05
0.000586124
-4.17295e-06
0.000633958
9.36306e-06
0.0006843
2.39992e-05
0.000736689
3.97522e-05
0.000790451
5.65872e-05
0.000844653
7.44627e-05
0.000898018
9.32342e-05
0.000948882
0.000112796
0.000995142
0.000132915
0.00103425
0.000153384
0.00106308
0.000174053
0.00107774
0.000194623
0.00107311
0.000215004
0.00104246
0.000234695
0.000976272
0.000253385
0.000861788
0.000270202
0.000680147
0.000282864
0.000405894
0.000287497
2.68278e-05
-0.000671769
0.000284507
-0.000141974
2.29764e-05
0.000142359
-0.000141566
2.48499e-05
-0.000141119
2.6879e-05
-0.00014064
2.90755e-05
-0.000140117
3.14543e-05
-0.000139556
3.40315e-05
-0.000138946
3.68245e-05
-0.000138291
3.98526e-05
-0.000137578
4.3129e-05
-0.000136813
4.66748e-05
-0.000135982
5.05216e-05
-0.000135089
5.46907e-05
-0.000134121
5.92101e-05
-0.000133078
6.40893e-05
-0.000131946
6.93722e-05
-0.000130725
7.51313e-05
-0.000129406
8.13805e-05
-0.000127975
8.81015e-05
-0.000126424
9.54215e-05
-0.000124746
0.000103409
-0.000122922
0.000112009
-0.000120938
0.00012136
-0.000118787
0.000131599
-0.000116436
0.000142572
-0.000113878
0.000154642
-0.000111086
0.000167711
-0.000108032
0.00018191
-0.000104696
0.000197441
-0.000101037
0.000214229
-9.70344e-05
0.000232653
-9.26395e-05
0.000252572
-8.78242e-05
0.000274391
-8.25344e-05
0.000298058
-7.67225e-05
0.000323836
-7.03407e-05
0.00035192
-6.33153e-05
0.000382255
-5.56013e-05
0.000415312
-4.71262e-05
0.000450988
-3.78159e-05
0.000489396
-2.76116e-05
0.000530747
-1.64438e-05
0.000574909
-4.24129e-06
0.000621704
9.03262e-06
0.000670975
2.33821e-05
0.000722283
3.88207e-05
0.000774964
5.53143e-05
0.000828099
7.28241e-05
0.000880466
9.12138e-05
0.000930428
0.000110389
0.000975949
0.000130127
0.00101448
0.000150232
0.00104292
0.000170549
0.00105738
0.000190783
0.00105273
0.000210825
0.00102234
0.000230176
0.000956701
0.000248497
0.000843319
0.000264856
0.000663501
0.000276803
0.000393873
0.000283253
2.11654e-05
-0.000667771
0.000279792
-0.000139466
2.25919e-05
0.000139827
-0.000139066
2.44339e-05
-0.000138626
2.64294e-05
-0.000138153
2.85897e-05
-0.000137637
3.09296e-05
-0.000137081
3.3465e-05
-0.000136478
3.62132e-05
-0.000135829
3.91934e-05
-0.000135125
4.24177e-05
-0.000134367
4.59069e-05
-0.000133547
4.96932e-05
-0.000132664
5.3797e-05
-0.000131709
5.82459e-05
-0.000130677
6.30469e-05
-0.000129559
6.82445e-05
-0.000128352
7.39141e-05
-0.000127049
8.00666e-05
-0.000125635
8.66764e-05
-0.000124102
9.3878e-05
-0.000122445
0.00010174
-0.000120644
0.000110197
-0.000118687
0.000119391
-0.000116566
0.000129466
-0.000114248
0.000140243
-0.000111729
0.000152111
-0.000108982
0.00016495
-0.000105979
0.000178894
-0.000102702
0.00019415
-9.91086e-05
0.000210622
-9.5181e-05
0.00022871
-9.08704e-05
0.000248244
-8.61495e-05
0.000269649
-8.09657e-05
0.000292849
-7.52719e-05
0.000318115
-6.90214e-05
0.00034564
-6.21415e-05
0.000375343
-5.45882e-05
0.000407722
-4.62898e-05
0.00044265
-3.71739e-05
0.000480235
-2.71816e-05
0.000520704
-1.62456e-05
0.000563914
-4.2946e-06
0.000609688
8.70459e-06
0.000657902
2.2756e-05
0.00070815
3.78698e-05
0.000759763
5.4016e-05
0.00081185
7.11573e-05
0.000863222
8.91683e-05
0.00091228
0.000107962
0.00095704
0.000127328
0.000994969
0.000147079
0.00102299
0.000167053
0.00103719
0.000186965
0.0010325
0.000206678
0.00100224
0.000225703
0.000937111
0.000243669
0.00082466
0.000259604
0.000646617
0.000270962
0.000381155
0.000278863
1.01175e-05
-0.00066567
0.000275057
-0.000136946
2.22203e-05
0.000137315
-0.000136551
2.40318e-05
-0.00013612
2.59943e-05
-0.000135656
2.81188e-05
-0.000135152
3.04203e-05
-0.000134608
3.29142e-05
-0.000134018
3.56178e-05
-0.000133382
3.85502e-05
-0.000132692
4.17225e-05
-0.000131947
4.51552e-05
-0.000131141
4.88811e-05
-0.000130272
5.29196e-05
-0.000129331
5.72982e-05
-0.000128314
6.20212e-05
-0.000127213
6.71337e-05
-0.000126023
7.27142e-05
-0.000124737
7.87705e-05
-0.000123341
8.527e-05
-0.000121829
9.23545e-05
-0.000120193
0.000100093
-0.000118416
0.000108408
-0.000116484
0.000117448
-0.000114392
0.000127362
-0.000112107
0.000137946
-0.000109625
0.000149616
-0.000106919
0.000162231
-0.000103964
0.000175925
-0.00010074
0.000190913
-9.72085e-05
0.000207077
-9.33503e-05
0.000224837
-8.91184e-05
0.000243995
-8.44865e-05
0.000264996
-7.9403e-05
0.000287742
-7.38222e-05
0.000312508
-6.76978e-05
0.000339487
-6.09592e-05
0.000368573
-5.35629e-05
0.000400292
-4.5439e-05
0.00043449
-3.65162e-05
0.000471273
-2.67369e-05
0.000510884
-1.60347e-05
0.000553168
-4.34001e-06
0.000597947
8.37929e-06
0.000645135
2.21274e-05
0.000694354
3.69131e-05
0.000744932
5.2711e-05
0.000796001
6.94851e-05
0.000846408
8.71226e-05
0.000894588
0.000105541
0.000938605
0.000124543
0.000975947
0.000143947
0.00100355
0.000163588
0.00101753
0.000183183
0.0010128
0.000202578
0.000982801
0.000221285
0.000918248
0.000238912
0.000806951
0.000254452
0.0006309
0.000265333
0.000370346
0.000274406
2.15839e-06
-0.00066091
0.000270339
-0.000134519
2.18491e-05
0.000134866
-0.000134132
2.36302e-05
-0.000133708
2.556e-05
-0.00013325
2.76494e-05
-0.000132753
2.9913e-05
-0.000132214
3.23662e-05
-0.000131632
3.50262e-05
-0.000131002
3.79118e-05
-0.000130322
4.10333e-05
-0.000129586
4.44108e-05
-0.000128792
4.80774e-05
-0.000127933
5.2052e-05
-0.000127006
5.63616e-05
-0.000126003
6.1008e-05
-0.000124916
6.60369e-05
-0.000123742
7.15298e-05
-0.000122474
7.74913e-05
-0.000121096
8.38821e-05
-0.000119605
9.0851e-05
-0.00011799
9.84681e-05
-0.000116237
0.000106643
-0.000114331
0.000115531
-0.000112267
0.000125287
-0.000110014
0.000135681
-0.000107568
0.000147157
-0.000104902
0.000159553
-0.000101992
0.000173003
-9.88204e-05
0.000187728
-9.53467e-05
0.00020359
-9.15546e-05
0.000221031
-8.73972e-05
0.000239821
-8.28501e-05
0.000260428
-7.78625e-05
0.00028273
-7.23898e-05
0.000307009
-6.6387e-05
0.000333456
-5.97853e-05
0.00036194
-5.25418e-05
0.000393015
-4.45889e-05
0.000426499
-3.58562e-05
0.000462498
-2.62881e-05
0.000501266
-1.58189e-05
0.000542643
-4.3808e-06
0.000586445
8.05778e-06
0.000632625
2.15023e-05
0.000680828
3.59608e-05
0.000730387
5.14132e-05
0.000780446
6.78245e-05
0.00082989
8.50949e-05
0.000877178
0.000103144
0.000920431
0.000121789
0.000957153
0.000140852
0.0009843
0.000160164
0.000997989
0.00017945
0.000993197
0.000198533
0.000963333
0.000216931
0.00089929
0.000234228
0.000788957
0.000249401
0.000614769
0.000259878
0.000358468
0.000269862
-1.06697e-05
-0.000658326
0.000265637
-0.000132088
2.14898e-05
0.000132441
-0.000131706
2.32412e-05
-0.000131291
2.5139e-05
-0.000130842
2.71937e-05
-0.000130356
2.942e-05
-0.00012983
3.18329e-05
-0.000129259
3.44496e-05
-0.000128643
3.72887e-05
-0.000127975
4.03596e-05
-0.000127253
4.36821e-05
-0.000126473
4.72898e-05
-0.000125629
5.12009e-05
-0.000124717
5.54418e-05
-0.000123729
6.00121e-05
-0.00012266
6.49579e-05
-0.000121503
7.03638e-05
-0.000120254
7.62312e-05
-0.000118897
8.25145e-05
-0.000117426
8.9369e-05
-0.000115834
9.68657e-05
-0.000114106
0.000104902
-0.000112227
0.000113641
-0.000110192
0.00012324
-0.000107971
0.000133448
-0.00010556
0.000144734
-0.000102934
0.000156913
-0.000100068
0.000170124
-9.69461e-05
0.000184593
-9.35291e-05
0.00020016
-8.97998e-05
0.000217289
-8.57147e-05
0.00023572
-8.12487e-05
0.000255943
-7.63535e-05
0.000277812
-7.09851e-05
0.000301615
-6.51001e-05
0.000327543
-5.86308e-05
0.000355441
-5.15364e-05
0.000385888
-4.37502e-05
0.000418679
-3.52042e-05
0.000453915
-2.58436e-05
0.000491868
-1.56047e-05
0.000532363
-4.42065e-06
0.000575219
7.73936e-06
0.000620422
2.08835e-05
0.000667642
3.50184e-05
0.00071621
5.01308e-05
0.00076529
6.6185e-05
0.000813797
8.3096e-05
0.000860222
0.000100783
0.000902734
0.000119077
0.000938851
0.000137804
0.000965557
0.000156793
0.000978998
0.000175772
0.000974158
0.000194548
0.000944548
0.000212643
0.000881103
0.000229622
0.000771963
0.000244454
0.000599874
0.000254595
0.000348577
0.000265311
-2.00176e-05
-0.000653135
0.000260976
-0.000129743
2.11316e-05
0.000130077
-0.000129369
2.28536e-05
-0.000128962
2.47197e-05
-0.000128519
2.67403e-05
-0.000128039
2.89299e-05
-0.000127519
3.13034e-05
-0.000126956
3.38776e-05
-0.000126347
3.66713e-05
-0.00012569
3.96928e-05
-0.000124977
4.29616e-05
-0.000124208
4.65117e-05
-0.000123375
5.03605e-05
-0.000122478
5.45342e-05
-0.000121504
5.90298e-05
-0.000120451
6.38941e-05
-0.000119311
6.92145e-05
-0.00011808
7.49894e-05
-0.000116742
8.11667e-05
-0.000115294
8.79085e-05
-0.000113725
9.52865e-05
-0.000112022
0.000103187
-0.00011017
0.000111778
-0.000108165
0.000121223
-0.000105976
0.000131248
-0.000103601
0.000142346
-0.000101014
0.000154314
-9.8192e-05
0.000167289
-9.51191e-05
0.000181506
-9.17566e-05
0.000196785
-8.80898e-05
0.000213608
-8.40739e-05
0.000231689
-7.9687e-05
0.000251536
-7.48812e-05
0.000272983
-6.9614e-05
0.000296323
-6.38429e-05
0.000321744
-5.75024e-05
0.00034907
-5.05527e-05
0.000378905
-4.29291e-05
0.000411018
-3.45652e-05
0.000445509
-2.54079e-05
0.000482663
-1.5395e-05
0.000522295
-4.46079e-06
0.000564224
7.42522e-06
0.000608464
2.02738e-05
0.000654715
3.40912e-05
0.000702303
4.88701e-05
0.000750411
6.45745e-05
0.000797978
8.11343e-05
0.000843528
9.84667e-05
0.000885273
0.000116414
0.000920754
0.00013481
0.000946978
0.00015348
0.000960106
0.000172155
0.000955177
0.000190628
0.000925698
0.000208425
0.000862763
0.000225095
0.000754609
0.000239608
0.000584418
0.000249451
0.000337321
0.000260715
-3.38211e-05
-0.000650333
0.000256347
-0.0001274
2.07844e-05
0.000127739
-0.000127031
2.24777e-05
-0.000126632
2.43129e-05
-0.000126198
2.63e-05
-0.000125729
2.84534e-05
-0.00012522
3.07879e-05
-0.00012467
3.33201e-05
-0.000124073
3.60688e-05
-0.000123428
3.90412e-05
-0.000122729
4.22566e-05
-0.000121974
4.57495e-05
-0.000121156
4.95365e-05
-0.000120274
5.36434e-05
-0.000119316
5.8065e-05
-0.000118281
6.28485e-05
-0.000117159
6.80842e-05
-0.000115948
7.37676e-05
-0.000114631
7.984e-05
-0.000113205
8.64705e-05
-0.00011166
9.37313e-05
-0.000109983
0.000101498
-0.000108158
0.000109943
-0.000106183
0.000119236
-0.000104028
0.000129081
-0.000101688
0.000139994
-9.91408e-05
0.000151754
-9.63629e-05
0.000164499
-9.33382e-05
0.000178469
-9.00308e-05
0.000193464
-8.64237e-05
0.000209989
-8.24768e-05
0.000227727
-7.81669e-05
0.000247207
-7.34481e-05
0.000268241
-6.82794e-05
0.000291128
-6.26192e-05
0.000316057
-5.6404e-05
0.000342826
-4.95951e-05
0.000372066
-4.213e-05
0.00040352
-3.39438e-05
0.000437289
-2.49851e-05
0.000473668
-1.51928e-05
0.000512466
-4.50335e-06
0.000553495
7.11458e-06
0.000596807
1.96738e-05
0.000642116
3.31809e-05
0.000688758
4.76339e-05
0.00073592
6.29964e-05
0.00078258
7.92133e-05
0.00082728
9.61977e-05
0.000868279
0.000113806
0.000903145
0.000131874
0.000928908
0.000150227
0.000941765
0.0001686
0.000936775
0.000186775
0.000907542
0.000204279
0.000845215
0.000220651
0.000738271
0.000234864
0.000570227
0.000244449
0.000328098
0.000256149
-4.39799e-05
-0.000644995
0.000251773
-0.000125139
2.04391e-05
0.00012546
-0.000124777
2.21039e-05
-0.000124385
2.39084e-05
-0.000123957
2.58626e-05
-0.000123495
2.79804e-05
-0.000122992
3.02767e-05
-0.000122449
3.27679e-05
-0.00012186
3.54725e-05
-0.000121225
3.83971e-05
-0.000120535
4.15603e-05
-0.000119792
4.49973e-05
-0.000118986
4.87239e-05
-0.000118118
5.27654e-05
-0.000117175
5.71145e-05
-0.000116156
6.18187e-05
-0.000115051
6.69712e-05
-0.00011386
7.25646e-05
-0.000112563
7.8534e-05
-0.00011116
8.50549e-05
-0.000109639
9.22002e-05
-0.000107987
9.98341e-05
-0.000106191
0.000108136
-0.000104247
0.00011728
-0.000102124
0.000126947
-9.98209e-05
0.000137679
-9.73134e-05
0.000149234
-9.45791e-05
0.000161752
-9.16032e-05
0.00017548
-8.8349e-05
0.000190198
-8.48029e-05
0.00020643
-8.09226e-05
0.000223832
-7.66883e-05
0.000242954
-7.20549e-05
0.000263585
-6.69821e-05
0.000286031
-6.14301e-05
0.000310479
-5.53368e-05
0.000336704
-4.86652e-05
0.000365363
-4.13542e-05
0.000396174
-3.33411e-05
0.000429235
-2.45757e-05
0.000464857
-1.49989e-05
0.000502836
-4.54777e-06
0.000542984
6.80814e-06
0.00058538
1.90857e-05
0.000629762
3.22895e-05
0.000675463
4.64253e-05
0.000721688
6.14538e-05
0.000767431
7.73362e-05
0.000811272
9.39798e-05
0.0008515
0.000111254
0.000885718
0.000128999
0.000910977
0.000147039
0.000923499
0.000165113
0.000918399
0.00018299
0.000889288
0.000200206
0.000827465
0.000216286
0.000721508
0.000230216
0.000555348
0.000239564
0.00031729
0.000251563
-5.82851e-05
-0.000642184
0.000247239
-0.000122883
2.01038e-05
0.000123208
-0.000122526
2.1741e-05
-0.000122142
2.35156e-05
-0.000121723
2.54373e-05
-0.000121271
2.75201e-05
-0.000120778
2.97787e-05
-0.000120248
3.22293e-05
-0.00011967
3.48902e-05
-0.000119048
3.77673e-05
-0.000118371
4.08789e-05
-0.000117642
4.42604e-05
-0.000116851
4.79271e-05
-0.000115998
5.19039e-05
-0.000115071
5.61811e-05
-0.00011407
6.0807e-05
-0.000112983
6.58773e-05
-0.000111812
7.13818e-05
-0.000110536
7.72494e-05
-0.000109156
8.36621e-05
-0.000107659
9.06936e-05
-0.000106034
9.81971e-05
-0.000104266
0.000106358
-0.000102353
0.000115355
-0.000100264
0.000124847
-9.79972e-05
0.0001354
-9.55295e-05
0.000146754
-9.28393e-05
0.000159049
-8.99115e-05
0.00017254
-8.67116e-05
0.000186986
-8.32239e-05
0.000202931
-7.94107e-05
0.000220004
-7.52506e-05
0.000238776
-7.07009e-05
0.000259013
-6.57222e-05
0.000281028
-6.0276e-05
0.000305006
-5.43018e-05
0.000330702
-4.77641e-05
0.000358796
-4.06034e-05
0.000388983
-3.27589e-05
0.000421359
-2.41818e-05
0.000456247
-1.48147e-05
0.000493433
-4.59568e-06
0.00053273
6.5054e-06
0.000574242
1.85085e-05
0.000617727
3.14175e-05
0.000662517
4.52442e-05
0.000707834
5.99473e-05
0.000752691
7.55032e-05
0.000795703
9.18131e-05
0.000835186
0.000108758
0.00086878
0.000126185
0.000893565
0.000143914
0.000905797
0.00016169
0.000900624
0.000179275
0.000871749
0.000196206
0.000810538
0.000212004
0.000705795
0.000225667
0.000541798
0.000234799
0.000308662
0.000247033
-6.88679e-05
-0.00063684
0.000242764
-0.000120704
1.97709e-05
0.000121012
-0.000120354
2.13805e-05
-0.000119976
2.31255e-05
-0.000119563
2.50154e-05
-0.000119118
2.70638e-05
-0.000118632
2.92854e-05
-0.000118109
3.16963e-05
-0.000117539
3.43146e-05
-0.000116927
3.71453e-05
-0.000116259
4.02064e-05
-0.000115542
4.35338e-05
-0.000114762
4.71419e-05
-0.000113924
5.10554e-05
-0.000113011
5.52623e-05
-0.000112026
5.98113e-05
-0.000110957
6.48009e-05
-0.000109806
7.02181e-05
-0.00010855
7.59857e-05
-0.000107193
8.22921e-05
-0.00010572
8.92116e-05
-0.000104122
9.65867e-05
-0.000102383
0.000104608
-0.0001005
0.000113461
-9.84453e-05
0.000122781
-9.62151e-05
0.000133158
-9.37877e-05
0.000144314
-9.11413e-05
0.000156391
-8.82621e-05
0.000169648
-8.51149e-05
0.000183827
-8.16873e-05
0.000199491
-7.79389e-05
0.000216243
-7.38525e-05
0.000234672
-6.9385e-05
0.000254524
-6.44987e-05
0.000276117
-5.9156e-05
0.000299638
-5.32982e-05
0.000324817
-4.68909e-05
0.000352358
-3.98767e-05
0.000381934
-3.21963e-05
0.00041364
-2.38025e-05
0.000447809
-1.46392e-05
0.000484219
-4.64608e-06
0.000522679
6.20739e-06
0.00056332
1.79436e-05
0.000605917
3.0566e-05
0.000649804
4.40917e-05
0.000694215
5.84781e-05
0.000738182
7.37152e-05
0.000780354
8.96988e-05
0.000819068
0.000106321
0.000852007
0.000123432
0.000876273
0.000140854
0.000888154
0.000158335
0.000882851
0.000175629
0.00085409
0.00019228
0.00079337
0.000207801
0.000689606
0.00022121
0.000527454
0.000230135
0.000298254
0.000242501
-8.33038e-05
-0.000634119
0.00023833
-0.000118533
1.94472e-05
0.000118844
-0.000118188
2.10302e-05
-0.000117818
2.27462e-05
-0.000117413
2.46048e-05
-0.000116978
2.66194e-05
-0.000116501
2.88045e-05
-0.00011599
3.11761e-05
-0.000115432
3.37523e-05
-0.000114831
3.65371e-05
-0.000114177
3.95482e-05
-0.000113473
4.2822e-05
-0.000112707
4.63721e-05
-0.000111884
5.0223e-05
-0.000110987
5.43604e-05
-0.00011002
5.88335e-05
-0.00010897
6.37435e-05
-0.000107838
6.90745e-05
-0.000106604
7.47436e-05
-0.000105269
8.09452e-05
-0.000103821
8.77543e-05
-0.00010225
9.50031e-05
-0.000100539
0.000102888
-9.86879e-05
0.000111598
-9.66666e-05
0.000120749
-9.44733e-05
0.000130953
-9.20859e-05
0.000141915
-8.94837e-05
0.000153777
-8.66524e-05
0.000166805
-8.35592e-05
0.000180722
-8.01888e-05
0.000196112
-7.65065e-05
0.000212548
-7.24923e-05
0.000230641
-6.8106e-05
0.000250117
-6.33104e-05
0.000271299
-5.80693e-05
0.000294372
-5.23255e-05
0.000319047
-4.60458e-05
0.000346051
-3.91745e-05
0.000375035
-3.16539e-05
0.00040609
-2.34384e-05
0.000439563
-1.44734e-05
0.000475223
-4.69982e-06
0.000512875
5.91319e-06
0.000552675
1.73899e-05
0.000594413
2.97341e-05
0.000637427
4.29668e-05
0.000680963
5.70452e-05
0.000724071
7.19708e-05
0.000765433
8.76352e-05
0.000803406
0.00010394
0.000835718
0.00012074
0.0008595
0.000137858
0.000871076
0.000155046
0.000865688
0.000172052
0.000837151
0.000188426
0.000777037
0.000203679
0.000674479
0.000216847
0.000514465
0.000225578
0.000290118
0.00023804
-9.40487e-05
-0.00062889
0.000233958
-0.000116432
1.91263e-05
0.000116729
-0.000116094
2.06827e-05
-0.000115731
2.23702e-05
-0.000115332
2.4198e-05
-0.000114904
2.61795e-05
-0.000114433
2.83289e-05
-0.00011393
3.06621e-05
-0.000113379
3.31971e-05
-0.000112789
3.5937e-05
-0.000112143
3.88994e-05
-0.000111451
4.21207e-05
-0.000110697
4.56142e-05
-0.000109888
4.94038e-05
-0.000109006
5.34731e-05
-0.000108055
5.78719e-05
-0.000107022
6.27037e-05
-0.00010591
6.79502e-05
-0.000104696
7.35225e-05
-0.000103384
7.96211e-05
-0.000101961
8.63217e-05
-0.000100416
9.34463e-05
-9.87339e-05
0.000101196
-9.69139e-05
0.000109766
-9.49265e-05
0.000118751
-9.277e-05
0.000128786
-9.04228e-05
0.000139556
-8.78644e-05
0.000151208
-8.50814e-05
0.000164011
-8.20402e-05
0.000177672
-7.87295e-05
0.00019279
-7.51107e-05
0.000208919
-7.11684e-05
0.000226683
-6.68621e-05
0.000245791
-6.21557e-05
0.00026657
-5.70142e-05
0.000289207
-5.13819e-05
0.000313389
-4.52268e-05
0.000339868
-3.84949e-05
0.000368271
-3.11301e-05
0.000398689
-2.30882e-05
0.00043148
-1.43159e-05
0.000466403
-4.75561e-06
0.00050326
5.62387e-06
0.000542229
1.68486e-05
0.000583118
2.89226e-05
0.000625264
4.18702e-05
0.000667926
5.5649e-05
0.000710172
7.027e-05
0.00075071
8.56223e-05
0.000787923
0.000101615