/*--------------------------------*- C++ -*----------------------------------*\
  =========                 |
  \\      /  F ield         | OpenFOAM: The Open Source CFD Toolbox
   \\    /   O peration     | Website:  https://openfoam.org
    \\  /    A nd           | Version:  6.0
     \\/     M anipulation  |
\*---------------------------------------------------------------------------*/
FoamFile
{
    version     2.0;
    format      ascii;
    class       volVectorField;
    location    "3";
    object      U;
}
// * * * * * * * * * * * * * * * * * * * * * * * * * * * * * * * * * * * * * //

dimensions      [0 1 -1 0 0 0 0];

internalField   nonuniform List<vector> 
62000
(
(1.00112 0.0138049 -2.81916e-18)
(1.00042 0.0131461 -1.20495e-17)
(1.00004 0.0133313 1.59641e-18)
(0.99957 0.0133811 -9.32867e-20)
(0.99911 0.013445 1.30925e-17)
(0.998646 0.0135017 -1.31919e-18)
(0.998182 0.0135524 -8.84652e-18)
(0.997718 0.0135929 9.07908e-18)
(0.997257 0.0136245 -1.12018e-17)
(0.996803 0.0136442 -7.71834e-18)
(0.996356 0.0136527 4.66802e-18)
(0.995919 0.0136465 1.2891e-17)
(0.995496 0.0136273 -8.22066e-18)
(0.995088 0.0135914 8.57553e-18)
(0.9947 0.0135413 -9.06937e-18)
(0.994332 0.0134731 1.37958e-17)
(0.99399 0.0133888 -1.78205e-17)
(0.993676 0.0132846 4.44255e-18)
(0.993394 0.0131617 1.62685e-18)
(0.993146 0.013016 1.00009e-18)
(0.992937 0.0128475 -1.30131e-17)
(0.99277 0.0126522 6.93352e-18)
(0.99265 0.0124286 -5.09284e-19)
(0.992579 0.0121724 2.13156e-18)
(0.992563 0.0118811 -2.6112e-18)
(0.992604 0.0115497 -1.05711e-17)
(0.992709 0.0111752 1.13128e-17)
(0.992878 0.0107535 1.08084e-18)
(0.993119 0.0102828 1.39388e-18)
(0.993432 0.00976362 -1.03511e-17)
(0.993823 0.00919729 6.85991e-18)
(0.994289 0.00857914 -1.66991e-17)
(0.994828 0.00791237 -3.96402e-18)
(0.995436 0.00720414 1.39456e-18)
(0.996103 0.00646636 2.75484e-18)
(0.996817 0.00571349 -1.37537e-17)
(0.997553 0.00496336 3.03326e-18)
(0.998283 0.00423607 2.43872e-18)
(0.998963 0.00355094 3.08633e-18)
(0.999539 0.00292188 -4.44292e-18)
(0.999941 0.00234933 -3.35297e-18)
(1.00009 0.00181891 8.9681e-20)
(0.999875 0.00127896 -2.75288e-18)
(0.999197 0.000551003 5.29121e-18)
(0.997965 -0.000524083 8.35356e-18)
(0.996099 -0.00210423 -1.46265e-17)
(0.993558 -0.00433677 2.70867e-17)
(0.990369 -0.00730627 3.64107e-17)
(0.986656 -0.0110107 -1.43546e-17)
(0.982654 -0.0153401 4.09692e-17)
(0.97866 -0.0201292 6.21752e-17)
(0.974989 -0.0252962 8.20634e-17)
(0.97187 -0.0309225 1.45923e-17)
(0.969417 -0.0373734 1.90906e-17)
(0.967629 -0.0453271 3.02287e-17)
(0.966354 -0.0561828 6.58419e-17)
(0.965532 -0.0728261 8.79309e-18)
(0.964331 -0.104526 1.0583e-16)
(0.921251 -0.278597 -9.49997e-17)
(0.876719 -0.555146 3.57939e-17)
(1.00405 0.0200796 -6.83136e-19)
(1.00307 0.0193909 4.79463e-18)
(1.00259 0.0198627 -2.08062e-18)
(1.00197 0.0201559 2.47642e-18)
(1.00134 0.0204879 5.97157e-18)
(1.00069 0.0208305 -8.21574e-19)
(1.00002 0.0211849 -6.79761e-18)
(0.999327 0.0215466 -3.48052e-19)
(0.998623 0.021915 5.73448e-18)
(0.997909 0.0222857 -9.76683e-18)
(0.997186 0.0226566 -3.64379e-18)
(0.996459 0.0230223 1.26868e-17)
(0.995732 0.0233818 -9.35133e-18)
(0.995008 0.0237287 6.42811e-18)
(0.994294 0.0240635 -8.98046e-18)
(0.993594 0.0243794 4.89022e-18)
(0.992915 0.0246774 -2.06909e-18)
(0.992262 0.0249506 -1.54994e-18)
(0.991643 0.0251999 1.55467e-18)
(0.991063 0.0254177 -1.456e-19)
(0.990532 0.0256039 3.42647e-18)
(0.990055 0.0257505 -3.57295e-18)
(0.989643 0.0258549 -2.73927e-18)
(0.989302 0.0259084 3.41449e-18)
(0.989044 0.0259054 -9.22114e-18)
(0.988875 0.0258352 -1.6353e-18)
(0.988807 0.0256891 1.78337e-17)
(0.988847 0.0254547 -7.54869e-18)
(0.98901 0.0251248 1.58678e-17)
(0.989303 0.0246893 -1.43491e-18)
(0.989734 0.0241379 -9.60959e-18)
(0.990311 0.023448 3.18737e-18)
(0.991029 0.022598 5.68024e-19)
(0.991888 0.021574 4.97604e-18)
(0.992878 0.0203642 -1.05554e-17)
(0.993977 0.0189548 3.13394e-18)
(0.995149 0.017332 3.89174e-18)
(0.996338 0.015483 -1.91613e-18)
(0.997465 0.013395 1.20971e-18)
(0.99842 0.0110535 5.59318e-19)
(0.999063 0.00844067 4.39445e-18)
(0.999224 0.00554814 -6.10963e-19)
(0.998679 0.00232688 2.40239e-18)
(0.997234 -0.00131481 2.51557e-18)
(0.994756 -0.00548854 -1.54818e-17)
(0.99115 -0.0102584 1.09259e-17)
(0.986407 -0.0156513 -3.78811e-17)
(0.980652 -0.0216349 -2.09204e-17)
(0.974158 -0.0281269 -9.97498e-18)
(0.967343 -0.0350012 -4.90837e-18)
(0.960681 -0.0422082 -6.98722e-17)
(0.954604 -0.0498816 -8.29941e-17)
(0.9494 -0.0584832 6.96281e-18)
(0.945242 -0.0687946 -1.26879e-17)
(0.942045 -0.0820749 -3.85914e-17)
(0.939704 -0.100576 2.08723e-17)
(0.938169 -0.128821 1.34663e-17)
(0.936713 -0.179259 -8.71917e-18)
(0.91201 -0.323935 1.52421e-16)
(0.92823 -0.390397 -3.90368e-17)
(1.00544 0.0212235 6.97633e-18)
(1.00446 0.0205304 -2.07107e-18)
(1.00403 0.0210569 -1.10256e-18)
(1.00345 0.0214102 -5.06686e-19)
(1.00286 0.0218205 1.5691e-17)
(1.00223 0.0222583 -1.29953e-17)
(1.00157 0.0227257 -4.9198e-18)
(1.00088 0.0232187 3.29416e-18)
(1.00017 0.0237374 8.75301e-18)
(0.999432 0.0242779 3.69392e-18)
(0.998675 0.024838 -1.50267e-17)
(0.9979 0.0254114 -7.2733e-18)
(0.997114 0.0259967 6.88182e-18)
(0.99632 0.0265861 -2.71276e-18)
(0.995526 0.0271785 6.05641e-19)
(0.994734 0.0277651 1.21732e-17)
(0.993956 0.0283442 -1.21689e-17)
(0.993195 0.0289069 1.19948e-17)
(0.992461 0.0294511 -1.54524e-18)
(0.99176 0.0299673 8.29802e-18)
(0.991103 0.0304526 -3.95382e-18)
(0.990496 0.0308972 -6.71826e-18)
(0.989952 0.0312962 2.14415e-18)
(0.989477 0.0316386 8.63217e-18)
(0.989084 0.0319167 -6.05575e-18)
(0.988781 0.0321173 8.65191e-18)
(0.988581 0.0322286 -9.05071e-19)
(0.988493 0.0322353 -4.70518e-18)
(0.98853 0.0321251 -1.03993e-17)
(0.988705 0.0318854 1.07704e-17)
(0.989025 0.031497 1.68803e-18)
(0.989495 0.0309258 2.34511e-18)
(0.990117 0.0301406 -7.28022e-18)
(0.990888 0.0291126 8.67534e-18)
(0.991798 0.0278141 -5.42005e-19)
(0.992825 0.0262124 6.1726e-18)
(0.993929 0.0242704 -4.98223e-19)
(0.995052 0.0219513 1.64895e-18)
(0.996108 0.0192173 -3.897e-18)
(0.99698 0.0160306 8.58734e-19)
(0.997515 0.0123571 -3.26608e-18)
(0.997532 0.00819144 1.54722e-19)
(0.996783 0.00346017 -3.99564e-18)
(0.995057 -0.00180581 -1.08853e-17)
(0.992221 -0.00766204 7.30151e-18)
(0.98818 -0.0140956 -1.81969e-18)
(0.982928 -0.0210397 3.29279e-18)
(0.976594 -0.0283797 -2.02093e-17)
(0.969459 -0.0359888 -8.48187e-19)
(0.961949 -0.0437477 -1.72158e-19)
(0.954553 -0.0516817 -8.60383e-17)
(0.947719 -0.0600496 -3.36745e-17)
(0.941776 -0.0694722 4.73044e-17)
(0.936929 -0.0809073 3.94425e-17)
(0.933128 -0.095789 3.63403e-17)
(0.930341 -0.116558 -1.56908e-16)
(0.928586 -0.147947 5.38059e-17)
(0.927076 -0.20181 -7.09581e-17)
(0.909236 -0.330515 -3.87728e-16)
(0.936749 -0.409329 3.07703e-17)
(1.00639 0.0218911 4.9223e-18)
(1.00545 0.0211807 -3.37353e-18)
(1.00507 0.0216983 2.2147e-18)
(1.00454 0.0220326 3.21101e-18)
(1.00398 0.022427 -6.74463e-18)
(1.00339 0.0228533 -6.64274e-18)
(1.00276 0.0233161 5.20528e-18)
(1.00209 0.0238144 8.65839e-19)
(1.0014 0.0243501 1.77681e-18)
(1.00067 0.0249215 -6.9191e-18)
(0.999916 0.025528 -1.95565e-18)
(0.999134 0.0261653 1.50326e-18)
(0.998331 0.0268322 4.44117e-18)
(0.99751 0.027522 5.07215e-19)
(0.996677 0.0282335 6.81702e-18)
(0.995838 0.0289579 -1.28369e-17)
(0.995002 0.0296923 5.1695e-18)
(0.994174 0.0304267 5.724e-18)
(0.993365 0.0311578 -1.39132e-17)
(0.99258 0.0318734 1.43619e-17)
(0.991833 0.0325686 -1.75077e-18)
(0.991129 0.0332308 -1.36769e-17)
(0.990481 0.0338527 -3.38245e-18)
(0.989898 0.0344203 5.35476e-18)
(0.989391 0.0349233 3.10649e-19)
(0.988971 0.0353456 -7.82011e-18)
(0.988649 0.0356729 1.12177e-17)
(0.988435 0.0358864 -5.70426e-18)
(0.988344 0.0359718 1.0737e-18)
(0.988386 0.0359118 1.84923e-18)
(0.988571 0.0356823 1.16695e-18)
(0.988903 0.0352433 2.4218e-18)
(0.989382 0.0345556 9.00485e-19)
(0.990007 0.033583 -4.98426e-18)
(0.990767 0.0322872 -1.73319e-18)
(0.99164 0.0306243 1.61589e-18)
(0.992586 0.0285424 -1.13866e-17)
(0.993547 0.0259899 -2.94962e-19)
(0.994436 0.0229131 2.06676e-18)
(0.995137 0.019259 -6.45449e-18)
(0.995498 0.0149814 -1.13761e-18)
(0.995339 0.010076 -4.427e-19)
(0.99441 0.00443452 7.49542e-18)
(0.992505 -0.00180423 1.94641e-18)
(0.989491 -0.00866098 1.417e-17)
(0.985272 -0.0160827 -4.76149e-18)
(0.979839 -0.0239521 1.91203e-17)
(0.973314 -0.0321117 1.43786e-18)
(0.96596 -0.0404152 7.96181e-17)
(0.958184 -0.0487517 -1.53987e-17)
(0.950465 -0.0571885 1.58635e-16)
(0.943241 -0.0660552 1.26946e-16)
(0.936874 -0.0760544 -6.81086e-17)
(0.931593 -0.0882392 5.33871e-17)
(0.927388 -0.104126 8.03156e-17)
(0.924286 -0.126243 7.11542e-17)
(0.922328 -0.159378 2.4998e-17)
(0.920564 -0.214804 2.88003e-17)
(0.906686 -0.336839 2.39802e-16)
(0.943639 -0.414984 -4.05413e-17)
(1.00711 0.0223489 -4.77129e-18)
(1.00619 0.0215973 -9.13333e-18)
(1.00585 0.0221013 1.78544e-19)
(1.00535 0.0224148 1.54813e-18)
(1.00484 0.0227904 -7.12963e-18)
(1.00429 0.0231978 1.24851e-17)
(1.0037 0.0236418 -1.29332e-18)
(1.00308 0.0241219 6.7749e-18)
(1.00242 0.0246413 2.90094e-18)
(1.00172 0.0252 -1.5891e-17)
(1.00099 0.025799 7.33482e-18)
(1.00022 0.0264356 -6.12764e-19)
(0.999428 0.0271113 -1.38839e-19)
(0.998607 0.0278209 9.12321e-18)
(0.997766 0.0285652 -8.7792e-18)
(0.996909 0.0293367 1.78537e-18)
(0.996044 0.0301334 -2.13131e-18)
(0.995176 0.0309457 2.78302e-18)
(0.994316 0.0317702 -4.21114e-18)
(0.993472 0.0325948 6.87839e-18)
(0.992654 0.033413 -7.40238e-18)
(0.99187 0.0342113 6.38722e-18)
(0.991134 0.0349805 9.52891e-18)
(0.990454 0.0357046 -9.76936e-18)
(0.989842 0.0363709 -2.81548e-18)
(0.98931 0.036961 1.32056e-17)
(0.988868 0.0374578 -1.2471e-17)
(0.988527 0.03784 4.10369e-18)
(0.9883 0.0380902 -1.04969e-17)
(0.9882 0.0381888 1.45242e-17)
(0.988233 0.0381073 -5.94392e-18)
(0.988404 0.0378001 -7.80933e-18)
(0.988713 0.037225 -1.60459e-17)
(0.989158 0.0363388 4.82096e-18)
(0.989729 0.0350971 1.28231e-18)
(0.990403 0.0334479 -1.54342e-18)
(0.991144 0.0313291 1.07568e-17)
(0.991892 0.0286792 9.57055e-18)
(0.992564 0.0254332 -2.2646e-18)
(0.993048 0.0215266 3.8062e-18)
(0.993196 0.0169037 -1.17151e-18)
(0.992836 0.0115596 -7.50767e-19)
(0.991734 0.00534957 -6.6024e-18)
(0.989696 -0.00149601 -1.29208e-17)
(0.986582 -0.00897253 -7.76776e-18)
(0.982298 -0.017007 -1.19311e-17)
(0.976831 -0.0254554 -5.08474e-18)
(0.97029 -0.0341393 1.22891e-17)
(0.962915 -0.0429079 8.00435e-18)
(0.955085 -0.0516614 -2.39553e-17)
(0.947252 -0.0604936 -1.28248e-17)
(0.939838 -0.0697773 -6.45429e-17)
(0.933222 -0.080258 -2.72702e-18)
(0.92765 -0.0930434 -5.57201e-17)
(0.923152 -0.109695 4.72293e-17)
(0.919796 -0.132792 -2.13427e-17)
(0.917621 -0.167146 -1.11245e-17)
(0.915497 -0.22366 -1.17587e-17)
(0.904488 -0.341707 1.476e-16)
(0.948434 -0.42045 1.79333e-17)
(1.00777 0.0228608 -3.06482e-18)
(1.00688 0.0221024 3.70868e-18)
(1.00657 0.0225926 6.13437e-18)
(1.0061 0.0228787 -6.11652e-19)
(1.00562 0.0232238 -3.96608e-18)
(1.00509 0.0235973 -4.47359e-18)
(1.00453 0.024005 -1.6091e-18)
(1.00394 0.0244477 -7.74499e-18)
(1.00331 0.0249291 1.05003e-17)
(1.00264 0.0254503 9.46427e-18)
(1.00193 0.0260129 -1.16447e-17)
(1.00119 0.0266162 6.52216e-18)
(1.00041 0.0272619 -2.19746e-18)
(0.9996 0.027947 5.27674e-18)
(0.998764 0.0286732 -1.00447e-18)
(0.997903 0.0294353 -2.63307e-18)
(0.997026 0.0302324 -1.34729e-17)
(0.996138 0.0310566 2.02473e-17)
(0.995247 0.0319056 -9.83151e-18)
(0.99436 0.032768 6.33978e-18)
(0.993489 0.0336376 -9.53804e-18)
(0.992643 0.0345011 7.11092e-18)
(0.991832 0.0353483 -6.37451e-18)
(0.991068 0.0361625 -3.89895e-18)
(0.990361 0.0369293 1.88193e-19)
(0.989723 0.0376291 1.61099e-19)
(0.989166 0.0382425 5.99317e-18)
(0.988699 0.0387463 1.04485e-17)
(0.988336 0.0391213 -3.34608e-18)
(0.988088 0.0393444 4.30854e-18)
(0.987963 0.039385 -3.08339e-18)
(0.987962 0.0391942 5.03716e-19)
(0.988087 0.0387263 1.93936e-17)
(0.988334 0.0379345 -1.11561e-18)
(0.988694 0.0367697 1.2243e-17)
(0.989145 0.0351751 -7.46639e-18)
(0.98965 0.0330814 -1.72324e-17)
(0.990154 0.0304207 -9.49762e-18)
(0.990578 0.02712 -1.77532e-18)
(0.990814 0.0231064 3.28335e-19)
(0.990725 0.0183165 1.13988e-18)
(0.990149 0.0127449 3.37568e-20)
(0.988877 0.00621225 -8.84539e-19)
(0.986738 -0.000978408 1.13628e-17)
(0.983578 -0.00880424 -1.12615e-17)
(0.979302 -0.017186 1.46287e-17)
(0.973892 -0.025969 -3.52664e-18)
(0.967444 -0.0349693 -2.44389e-17)
(0.96017 -0.0440414 -4.40087e-17)
(0.952417 -0.0530994 5.63819e-17)
(0.944603 -0.0622544 -5.26478e-17)
(0.937124 -0.0719049 4.93388e-17)
(0.930371 -0.0828163 1.61881e-17)
(0.924601 -0.0961249 -1.68959e-17)
(0.919877 -0.113415 -2.65146e-16)
(0.916294 -0.137303 7.21585e-17)
(0.913868 -0.172634 -6.85897e-17)
(0.911315 -0.230127 4.75314e-17)
(0.902456 -0.345928 4.01141e-17)
(0.951824 -0.425545 -1.78254e-17)
(1.0083 0.0232421 -1.88746e-17)
(1.00741 0.0224586 1.08311e-17)
(1.00714 0.0229418 4.39562e-18)
(1.00669 0.0232144 3.62979e-18)
(1.00623 0.0235468 -8.61984e-18)
(1.00574 0.0239056 -9.66953e-18)
(1.00521 0.024296 2.07616e-17)
(1.00465 0.0247177 -2.89133e-18)
(1.00404 0.0251747 2.4109e-18)
(1.0034 0.0256683 -1.7405e-17)
(1.00272 0.0262006 1.18124e-17)
(1.00201 0.026771 -6.53214e-18)
(1.00125 0.0273828 -8.64975e-18)
(1.00046 0.0280338 1.77324e-17)
(0.99964 0.0287274 -3.22132e-18)
(0.998786 0.0294595 -6.47553e-18)
(0.997909 0.0302304 -7.68766e-18)
(0.997012 0.0310341 2.40003e-17)
(0.996103 0.0318697 -1.14247e-17)
(0.995189 0.0327272 -1.10096e-17)
(0.99428 0.0336014 1.25708e-17)
(0.993383 0.0344802 -1.01676e-18)
(0.992511 0.0353538 -8.34649e-20)
(0.991673 0.0362058 -4.84124e-18)
(0.990881 0.0370216 2.23017e-18)
(0.990146 0.0377808 -9.08359e-18)
(0.989479 0.0384633 -7.7036e-18)
(0.988891 0.0390442 2.47398e-18)
(0.988394 0.0395032 8.65653e-18)
(0.987999 0.0398155 5.75975e-18)
(0.987714 0.0399483 5.70659e-18)
(0.987538 0.0398502 -5.20646e-18)
(0.987473 0.0394746 1.96795e-18)
(0.987515 0.0387715 5.33663e-18)
(0.987654 0.0376889 -9.09889e-18)
(0.98787 0.0361675 -5.7693e-19)
(0.988127 0.0341329 -9.63098e-19)
(0.988373 0.0315136 6.68741e-18)
(0.988533 0.028231 -9.63999e-19)
(0.988509 0.0242062 3.17208e-18)
(0.988169 0.0193699 1.94815e-19)
(0.987367 0.0137156 -5.48076e-19)
(0.985926 0.00703487 5.00987e-18)
(0.983705 -0.000316993 -2.82804e-18)
(0.980526 -0.00830422 1.37122e-17)
(0.976292 -0.0168506 -4.66077e-19)
(0.970984 -0.0258021 4.74975e-17)
(0.96468 -0.0349797 2.8648e-17)
(0.957567 -0.0442503 -5.75082e-19)
(0.949956 -0.0535437 -7.35147e-17)
(0.942231 -0.0629822 9.21022e-18)
(0.93476 -0.0729793 -5.28279e-17)
(0.927939 -0.0843063 6.72544e-17)
(0.922028 -0.0981119 -1.12059e-17)
(0.917118 -0.115995 9.49927e-17)
(0.913321 -0.140603 -5.99552e-17)
(0.91062 -0.176834 -2.09279e-17)
(0.907601 -0.235355 -1.28929e-16)
(0.900459 -0.35001 -3.8469e-16)
(0.954247 -0.430496 3.14571e-17)
(1.00883 0.0237153 7.20456e-18)
(1.00796 0.0229357 1.38197e-17)
(1.00771 0.0234115 -7.61394e-18)
(1.00728 0.0236645 -9.79388e-18)
(1.00683 0.0239749 -2.8891e-18)
(1.00636 0.0243086 1.15703e-17)
(1.00585 0.0246714 4.67201e-18)
(1.0053 0.0250639 4.26272e-18)
(1.00471 0.0254896 -5.70802e-18)
(1.00409 0.0259503 4.05467e-18)
(1.00343 0.0264476 -7.03905e-18)
(1.00273 0.0269817 -1.27008e-17)
(1.002 0.0275551 1.63123e-17)
(1.00122 0.0281666 -5.90926e-18)
(1.00041 0.0288196 -4.51457e-19)
(0.999565 0.0295113 -1.47572e-17)
(0.998691 0.0302425 9.43168e-18)
(0.99779 0.0310088 3.91122e-18)
(0.99687 0.0318105 -7.44776e-18)
(0.995936 0.0326388 2.24721e-17)
(0.994998 0.0334899 -8.57463e-18)
(0.994061 0.034353 -1.80699e-17)
(0.993137 0.0352191 1.77773e-17)
(0.992237 0.0360729 -2.04178e-17)
(0.991368 0.0369 4.84763e-18)
(0.990545 0.0376806 1.15e-17)
(0.989776 0.0383942 6.60407e-19)
(0.989072 0.0390156 -7.33415e-18)
(0.988446 0.0395241 4.27347e-18)
(0.987907 0.0398928 -1.93873e-19)
(0.987463 0.0400891 -9.85705e-18)
(0.987114 0.04006 -2.80406e-18)
(0.98686 0.039758 -5.56393e-18)
(0.986696 0.0391316 -7.60054e-18)
(0.986612 0.0381272 -4.51599e-18)
(0.98659 0.0366841 1.13909e-17)
(0.986595 0.0347247 -3.65043e-19)
(0.986578 0.0321759 -5.62191e-18)
(0.986471 0.0289556 8.70382e-18)
(0.98618 0.0249805 -3.83666e-18)
(0.985585 0.0201768 1.79985e-19)
(0.98455 0.0145371 -8.89405e-19)
(0.982942 0.00782901 -1.09984e-17)
(0.980646 0.000442457 3.04517e-18)
(0.97746 -0.00757826 6.08402e-18)
(0.973282 -0.0161662 7.801e-18)
(0.968089 -0.0251755 -2.1294e-17)
(0.961946 -0.0344392 2.29794e-17)
(0.955014 -0.0438402 -7.62758e-17)
(0.947573 -0.0533263 1.73923e-17)
(0.93997 -0.0630272 3.05025e-17)
(0.932547 -0.0733647 -2.67644e-17)
(0.925696 -0.0851086 -8.7108e-17)
(0.919679 -0.0994105 3.91337e-17)
(0.914608 -0.117877 3.33885e-17)
(0.910605 -0.143191 -1.39181e-16)
(0.907615 -0.18032 -4.18815e-17)
(0.904129 -0.23996 1.47657e-16)
(0.898404 -0.354179 3.4993e-16)
(0.955908 -0.435306 -3.03746e-17)
(1.00926 0.0240807 -1.53873e-17)
(1.00839 0.0232859 1.81662e-17)
(1.00815 0.0237606 -1.01614e-17)
(1.00774 0.0240069 -1.248e-18)
(1.00732 0.0243118 5.73129e-18)
(1.00686 0.0246387 -2.97028e-18)
(1.00637 0.0249924 1.09968e-17)
(1.00584 0.0253728 5.265e-18)
(1.00528 0.0257831 -8.22785e-18)
(1.00468 0.0262249 -1.59623e-17)
(1.00404 0.0267 1.80772e-17)
(1.00335 0.0272079 1.21257e-18)
(1.00263 0.0277522 -1.08901e-18)
(1.00187 0.0283315 -2.28798e-18)
(1.00108 0.0289498 1.07205e-17)
(1.00024 0.0296046 -1.42938e-17)
(0.99937 0.0302972 1.50579e-17)
(0.99847 0.0310241 -2.41214e-17)
(0.997543 0.0317864 9.71735e-18)
(0.996594 0.0325767 -4.40703e-18)
(0.995633 0.033392 1.99324e-19)
(0.994663 0.0342232 -9.66648e-18)
(0.993696 0.0350625 2.43225e-17)
(0.99274 0.035896 -6.70036e-18)
(0.991804 0.03671 6.41643e-18)
(0.990899 0.0374858 -9.25535e-18)
(0.990036 0.0382033 -1.06138e-17)
(0.989224 0.0388376 1.04102e-17)
(0.988474 0.0393679 -2.86667e-18)
(0.987797 0.0397672 -1.65734e-18)
(0.9872 0.0400026 2.64451e-18)
(0.986682 0.0400204 7.07883e-18)
(0.986241 0.039774 -3.05976e-19)
(0.985875 0.0392104 1.3534e-17)
(0.985572 0.0382755 -1.03623e-17)
(0.985314 0.0369085 6.52728e-18)
(0.98507 0.0350298 2.86448e-18)
(0.984792 0.032566 3.34139e-18)
(0.984418 0.029433 -2.66412e-18)
(0.983861 0.0255443 5.19087e-19)
(0.98301 0.0208232 2.09728e-18)
(0.981742 0.015261 4.44065e-19)
(0.979967 0.00860723 5.11025e-18)
(0.977598 0.00127048 -3.31357e-19)
(0.974408 -0.00669891 -7.67273e-18)
(0.970285 -0.0152476 -2.06686e-19)
(0.965207 -0.0242424 -2.46134e-17)
(0.95922 -0.0335333 -2.28398e-17)
(0.952472 -0.0430213 7.68271e-17)
(0.945205 -0.0526732 -9.76395e-18)
(0.937734 -0.0626245 3.75496e-18)
(0.930377 -0.0733009 -1.36689e-17)
(0.923519 -0.0854669 3.08851e-17)
(0.917418 -0.100272 -7.87585e-17)
(0.912205 -0.119329 -2.71001e-17)
(0.908001 -0.145357 1.55842e-16)
(0.904719 -0.183401 1.03531e-17)
(0.900775 -0.244245 1.15118e-16)
(0.896285 -0.358509 -7.29991e-17)
(0.957035 -0.440093 5.58458e-17)
(1.00971 0.0245529 -7.80169e-19)
(1.00886 0.0237672 -1.43599e-17)
(1.00863 0.0242383 6.58304e-18)
(1.00822 0.0244698 -8.08922e-18)
(1.00781 0.0247582 8.56955e-18)
(1.00736 0.0250664 -4.09939e-18)
(1.00688 0.0253997 1.62104e-17)
(1.00636 0.0257585 -1.01631e-17)
(1.0058 0.026146 1.27415e-17)
(1.00521 0.026564 -6.21511e-18)
(1.00458 0.0270134 -1.64343e-18)
(1.00391 0.0274944 5.02041e-18)
(1.0032 0.0280094 -1.56141e-17)
(1.00245 0.0285572 2.75865e-17)
(1.00166 0.0291417 1.15349e-18)
(1.00083 0.0297606 -6.20217e-19)
(0.999964 0.0304151 -1.94419e-17)
(0.999061 0.0311024 1.33603e-17)
(0.998128 0.0318241 -1.69475e-17)
(0.997166 0.0325734 1.11603e-17)
(0.996185 0.0333482 1.57513e-18)
(0.995186 0.0341406 7.77725e-18)
(0.994181 0.0349437 -7.9451e-18)
(0.993176 0.035745 -1.31256e-17)
(0.992179 0.0365316 9.92791e-18)
(0.991201 0.0372864 8.07743e-18)
(0.990251 0.0379898 -8.86807e-18)
(0.989337 0.0386179 9.0896e-19)
(0.988471 0.0391507 4.55091e-18)
(0.987663 0.0395604 -1.44241e-17)
(0.986918 0.0398155 3.02949e-18)
(0.986236 0.0398626 9.1562e-19)
(0.985617 0.0396556 -1.90111e-18)
(0.985053 0.0391413 -3.03153e-18)
(0.984537 0.0382658 -3.3597e-18)
(0.98405 0.0369688 -1.26583e-18)
(0.983561 0.0351697 -1.61288e-20)
(0.983029 0.0327958 -2.33203e-18)
(0.982393 0.0297623 7.21274e-18)
(0.981574 0.0259805 -1.66716e-18)
(0.98047 0.0213713 -7.47397e-19)
(0.97897 0.0159252 1.30187e-18)
(0.977026 0.00937863 6.45023e-18)
(0.974584 0.00214597 5.16191e-18)
(0.971387 -0.00571846 -9.04269e-18)
(0.967312 -0.0141773 1.076e-17)
(0.962336 -0.0231126 -8.12722e-18)
(0.956492 -0.0323946 -3.34869e-17)
(0.949916 -0.0419427 -4.7233e-17)
(0.942814 -0.0517432 6.31677e-17)
(0.935473 -0.0619376 -5.40082e-17)
(0.928188 -0.072953 2.67829e-17)
(0.921332 -0.0855474 -1.00699e-16)
(0.915162 -0.100864 -1.17318e-17)
(0.909817 -0.120524 -4.07601e-17)
(0.905418 -0.147282 8.44226e-18)
(0.901845 -0.186269 7.24063e-17)
(0.897466 -0.248392 -1.21988e-16)
(0.894052 -0.363043 -1.53042e-16)
(0.957675 -0.444805 -7.8692e-17)
(1.01007 0.0249231 -3.05628e-18)
(1.00922 0.0241268 3.02764e-18)
(1.009 0.0246004 6.40616e-18)
(1.00861 0.0248293 5.93661e-18)
(1.00821 0.0251169 -1.08618e-17)
(1.00777 0.0254235 -4.48862e-18)
(1.0073 0.0257536 1.10399e-17)
(1.00679 0.0261069 6.94201e-18)
(1.00625 0.0264863 -1.43095e-17)
(1.00567 0.0268934 1.68753e-17)
(1.00506 0.0273292 -9.80998e-18)
(1.0044 0.0277933 -1.52551e-17)
(1.0037 0.0282887 1.18389e-17)
(1.00295 0.028814 1.21303e-18)
(1.00217 0.0293731 -1.89466e-17)
(1.00134 0.0299637 1.3059e-17)
(1.00048 0.0305871 4.45541e-18)
(0.999573 0.0312405 -1.98257e-18)
(0.998632 0.0319259 2.87855e-18)
(0.997659 0.0326372 9.5918e-18)
(0.996659 0.0333726 -2.06756e-17)
(0.995634 0.0341256 1.1343e-17)
(0.994594 0.0348897 -3.52949e-18)
(0.993544 0.035654 2.18488e-17)
(0.992492 0.0364065 -1.733e-17)
(0.991446 0.0371313 5.3345e-18)
(0.990415 0.0378103 -1.34122e-17)
(0.989407 0.0384201 8.71202e-18)
(0.988432 0.0389418 -3.37376e-18)
(0.987499 0.0393481 1.15963e-17)
(0.986615 0.0396089 5.45248e-18)
(0.985777 0.0396711 -1.36936e-17)
(0.984984 0.0394906 7.19568e-18)
(0.984232 0.039014 -2.45129e-19)
(0.983509 0.0381879 -4.8449e-18)
(0.982801 0.0369535 7.21112e-18)
(0.982076 0.0352296 9.06301e-19)
(0.981296 0.0329454 2.27728e-18)
(0.980406 0.0300154 -6.64074e-18)
(0.979331 0.0263498 2.52761e-18)
(0.977979 0.0218682 -1.50359e-18)
(0.97625 0.01656 -7.79335e-20)
(0.974138 0.0101527 -4.31234e-18)
(0.971621 0.00305666 -8.4733e-19)
(0.96841 -0.00467094 -2.47916e-18)
(0.964372 -0.01301 -1.22794e-17)
(0.959482 -0.0218595 -6.9211e-18)
(0.953763 -0.0311114 3.32674e-17)
(0.947339 -0.0407044 5.86109e-17)
(0.940387 -0.0506424 -3.01389e-17)
(0.933166 -0.0610747 4.24544e-17)
(0.925952 -0.0724284 3.38091e-17)
(0.919102 -0.0854548 5.64684e-17)
(0.91287 -0.101291 1.49271e-16)
(0.907402 -0.121565 9.28713e-17)
(0.902813 -0.149069 -1.59132e-17)
(0.898956 -0.189026 -2.31676e-16)
(0.894161 -0.252492 -6.71217e-17)
(0.891738 -0.367762 -2.52089e-17)
(0.957981 -0.449542 6.73247e-17)
(1.01046 0.0254067 9.20519e-18)
(1.00963 0.0246224 -9.63439e-18)
(1.00942 0.025095 -3.58466e-18)
(1.00903 0.0253125 2.09579e-17)
(1.00863 0.0255876 -1.59822e-17)
(1.00819 0.0258798 -7.99722e-18)
(1.00773 0.0261944 1.62441e-17)
(1.00723 0.0265318 -1.76657e-17)
(1.00669 0.0268945 1.69225e-17)
(1.00611 0.0272845 6.08173e-18)
(1.0055 0.0277021 -6.79075e-18)
(1.00484 0.0281473 -1.08847e-17)
(1.00414 0.028622 8.64807e-18)
(1.0034 0.029125 -6.60107e-18)
(1.00262 0.0296598 1.83038e-18)
(1.00179 0.0302242 -3.18801e-18)
(1.00093 0.0308188 8.02998e-18)
(1.00002 0.0314413 1.06002e-17)
(0.999068 0.0320938 -2.95556e-17)
(0.998081 0.0327701 1.92696e-17)
(0.997062 0.033469 -1.18118e-17)
(0.996013 0.0341844 -1.03813e-17)
(0.994939 0.0349104 1.27414e-17)
(0.993848 0.0356373 -4.5838e-19)
(0.992744 0.0363537 -6.61972e-18)
(0.991635 0.0370451 1.51679e-18)
(0.990529 0.0376943 1.41316e-17)
(0.989432 0.0382792 2.24734e-18)
(0.988356 0.038782 -9.60194e-18)
(0.987305 0.0391757 6.99451e-18)
(0.986288 0.0394325 -9.52801e-18)
(0.985301 0.0394998 1.07854e-17)
(0.984344 0.0393357 6.64755e-18)
(0.98341 0.0388871 3.11535e-18)
(0.982491 0.0381015 9.0455e-20)
(0.981569 0.0369222 2.65683e-18)
(0.980618 0.0352673 -6.46653e-18)
(0.979599 0.0330687 -7.20607e-18)
(0.978463 0.0302412 2.07073e-18)
(0.977141 0.0266939 2.27004e-18)
(0.975546 0.0223458 1.01208e-18)
(0.973591 0.0171855 1.11235e-19)
(0.971311 0.0109348 -9.73205e-18)
(0.968716 0.00399281 -3.03949e-18)
(0.965482 -0.00358155 4.43406e-18)
(0.961467 -0.0117859 6.42762e-18)
(0.956646 -0.0205363 3.48241e-17)
(0.951031 -0.0297476 -4.95948e-18)
(0.944738 -0.0393772 1.66491e-17)
(0.937918 -0.0494461 7.19212e-17)
(0.930803 -0.0601124 -4.81963e-18)
(0.923651 -0.0718029 -1.96136e-17)
(0.916807 -0.0852634 4.5499e-17)
(0.910516 -0.101624 2.43732e-17)
(0.90493 -0.122522 3.95304e-17)
(0.900156 -0.150787 1.32264e-16)
(0.896023 -0.191741 1.90844e-16)
(0.890831 -0.256605 2.1967e-17)
(0.889298 -0.37268 2.22422e-16)
(0.95793 -0.454235 1.53166e-17)
(1.01078 0.0257968 -1.37015e-17)
(1.00994 0.0250057 9.90658e-18)
(1.00975 0.0254837 1.14548e-17)
(1.00936 0.0257015 -4.27259e-18)
(1.00897 0.0259788 -1.35791e-17)
(1.00854 0.0262729 2.70443e-17)
(1.00809 0.026588 -3.29184e-17)
(1.00759 0.0269239 1.14272e-17)
(1.00706 0.0272831 6.01737e-18)
(1.00649 0.0276675 1.15374e-17)
(1.00588 0.0280773 -1.63333e-17)
(1.00523 0.0285121 -5.19108e-19)
(1.00453 0.0289742 -4.60784e-18)
(1.0038 0.0294624 2.58683e-17)
(1.00301 0.0299801 -1.40395e-17)
(1.00219 0.0305251 8.22324e-18)
(1.00131 0.0310976 -1.08279e-17)
(1.0004 0.0316955 1.47354e-18)
(0.99944 0.0323208 1.34066e-17)
(0.99844 0.0329675 -7.88353e-18)
(0.997402 0.0336344 -5.66482e-18)
(0.996328 0.0343162 -3.82612e-18)
(0.995223 0.0350073 1.2143e-17)
(0.994092 0.0356989 -7.10357e-18)
(0.992938 0.0363802 3.93351e-18)
(0.991771 0.037038 -6.87335e-18)
(0.990594 0.0376559 5.9429e-18)
(0.989414 0.0382129 -7.61003e-18)
(0.988241 0.0386927 1.92224e-19)
(0.98708 0.0390688 -6.52086e-18)
(0.985937 0.0393153 5.81637e-19)
(0.984809 0.039381 5.06988e-19)
(0.983696 0.039226 -4.4074e-19)
(0.98259 0.0387979 1.86482e-18)
(0.981482 0.0380456 -1.5105e-18)
(0.980356 0.0369142 6.17117e-18)
(0.979187 0.0353221 -3.55673e-18)
(0.97794 0.0332038 1.37424e-18)
(0.976567 0.0304747 1.64922e-18)
(0.975005 0.0270435 -1.95232e-18)
(0.973175 0.0228287 2.64373e-19)
(0.970998 0.0178184 -1.30098e-19)
(0.968551 0.0117316 1.16196e-17)
(0.965872 0.00495016 6.55637e-18)
(0.962608 -0.00246504 3.76962e-18)
(0.958604 -0.0105295 1.1418e-17)
(0.953833 -0.019176 -1.39723e-17)
(0.9483 -0.0283433 -3.68299e-17)
(0.942117 -0.0380062 -2.38134e-17)
(0.935408 -0.0482019 -3.18933e-17)
(0.928383 -0.0590984 -1.26587e-17)
(0.921285 -0.0711232 -4.33338e-17)
(0.914442 -0.0850169 9.67067e-17)
(0.908095 -0.101904 -1.50243e-16)
(0.902394 -0.123432 -5.37986e-17)
(0.89744 -0.152471 -1.24002e-16)
(0.893039 -0.194441 -1.07744e-16)
(0.887463 -0.260754 -1.84349e-16)
(0.886784 -0.377753 -5.47538e-17)
(0.957647 -0.458974 1.43184e-17)
(1.01114 0.0263032 1.64847e-17)
(1.01031 0.0255254 1.62308e-17)
(1.01013 0.0260043 -2.24947e-17)
(1.00974 0.026213 6.61337e-18)
(1.00934 0.0264803 2.25357e-18)
(1.00892 0.0267629 1.47765e-17)
(1.00846 0.0270659 1.24859e-18)
(1.00796 0.0273895 -2.05708e-17)
(1.00743 0.0277362 7.76409e-18)
(1.00685 0.0281081 6.46427e-18)
(1.00624 0.0285048 -7.45573e-19)
(1.00559 0.0289263 6.47974e-18)
(1.00489 0.0293741 2.26517e-18)
(1.00415 0.029847 -1.81996e-17)
(1.00337 0.030348 4.63038e-18)
(1.00253 0.0308748 8.68007e-18)
(1.00166 0.0314272 -3.28484e-18)
(1.00073 0.0320033 -1.88341e-17)
(0.999761 0.0326049 1.91964e-17)
(0.998745 0.0332259 -4.09456e-18)
(0.997687 0.0338651 -8.08033e-18)
(0.996587 0.0345175 3.10174e-18)
(0.995451 0.0351775 -1.89117e-18)
(0.994281 0.0358373 2.08463e-18)
(0.993081 0.0364861 -1.01309e-17)
(0.991857 0.0371122 1.9279e-18)
(0.990613 0.0376996 -9.10834e-18)
(0.989355 0.0382287 6.27212e-18)
(0.988091 0.0386842 7.51237e-18)
(0.986825 0.0390403 1.02979e-18)
(0.985563 0.0392733 -8.10766e-18)
(0.984302 0.039333 -5.96418e-18)
(0.983039 0.0391823 5.69125e-18)
(0.981769 0.0387691 9.35595e-18)
(0.980481 0.038044 -1.08462e-17)
(0.979161 0.0369543 3.92138e-18)
(0.977784 0.0354186 5.66783e-18)
(0.976317 0.0333743 4.4796e-18)
(0.974716 0.0307378 2.40908e-18)
(0.972924 0.0274174 2.4016e-18)
(0.970865 0.0233318 1.29484e-18)
(0.968472 0.0184683 -5.10119e-19)
(0.965857 0.0125454 2.23725e-18)
(0.963091 0.00592406 -8.14419e-18)
(0.959788 -0.00133339 -2.59707e-18)
(0.955781 -0.00925959 -3.04919e-17)
(0.951042 -0.0178037 3.00634e-17)
(0.945572 -0.0269282 5.95441e-17)
(0.939478 -0.0366246 -3.24066e-17)
(0.932858 -0.0469447 -6.33237e-17)
(0.925907 -0.0580684 -6.27973e-17)
(0.918852 -0.0704241 1.07407e-16)
(0.912005 -0.0847493 -5.52456e-17)
(0.905599 -0.102164 5.1904e-17)
(0.899786 -0.124327 3.21819e-17)
(0.894656 -0.154149 -8.14852e-17)
(0.889994 -0.197156 2.96747e-17)
(0.884044 -0.264964 2.64241e-17)
(0.884146 -0.382993 1.69656e-16)
(0.957073 -0.463684 -1.22035e-16)
(1.01144 0.026716 -1.88211e-17)
(1.0106 0.0259331 2.78398e-17)
(1.01042 0.0264192 -3.75068e-18)
(1.01004 0.0266301 -1.63972e-17)
(1.00965 0.026902 2.51535e-17)
(1.00923 0.0271891 -2.00298e-17)
(1.00877 0.0274955 8.92683e-18)
(1.00828 0.0278211 -5.59228e-18)
(1.00775 0.028168 -4.97849e-18)
(1.00718 0.0285385 1.61577e-17)
(1.00656 0.0289319 8.0343e-18)
(1.00591 0.0293482 -2.14857e-17)
(1.00521 0.0297891 1.24327e-18)
(1.00447 0.0302532 -6.92118e-18)
(1.00368 0.0307438 7.17495e-18)
(1.00284 0.0312584 3.92244e-18)
(1.00195 0.0317965 5.5403e-18)
(1.00102 0.0323562 -1.12184e-17)
(1.00003 0.0329392 9.51405e-18)
(0.999002 0.0335394 -6.84353e-18)
(0.997923 0.0341557 5.35209e-19)
(0.996798 0.0347832 1.30475e-17)
(0.995629 0.0354166 -1.1852e-17)
(0.994422 0.0360485 1.49262e-17)
(0.993175 0.0366686 -5.89897e-18)
(0.991897 0.0372658 8.58498e-18)
(0.99059 0.0378252 4.14132e-18)
(0.989257 0.0383276 -2.88345e-18)
(0.987907 0.0387596 -1.85434e-18)
(0.986541 0.0390952 -6.64821e-18)
(0.985167 0.0393134 1.33894e-17)
(0.983778 0.0393653 -3.97068e-18)
(0.982374 0.0392155 3.50301e-18)
(0.980947 0.0388134 -6.44519e-18)
(0.979489 0.0381109 -4.17177e-18)
(0.977984 0.037058 -6.86781e-18)
(0.976408 0.0355729 2.49948e-18)
(0.974731 0.0335966 3.24694e-18)
(0.972911 0.0310462 2.44296e-18)
(0.970896 0.0278301 -1.41568e-18)
(0.968616 0.0238671 -8.38158e-19)
(0.966011 0.0191442 -5.9226e-19)
(0.963229 0.0133805 -1.34487e-18)