1.45 	0 	0 	-0.29815
2.35 	0 	0 	-0.132615
