1.45 	0 	0 	-0.305004
2.35 	0 	0 	-0.134056
