1.45 	0 	0 	-0.291464
2.35 	0 	0 	-0.12674
