1.275 	2.15223e-18 	-2.76991e-20 	-0.0336318 	-0.000454737 	-2.00453e-22
1.825 	2.15223e-18 	-1.39322e-20 	-0.00800324 	-0.00282732 	1.80288e-21
2.375 	2.15223e-18 	-2.66896e-23 	0.119402 	-0.00336714 	-7.52168e-22
