1.45 	0 	0 	-0.300065
2.35 	0 	0 	-0.133387
