1.45 	0 	0 	-0.306655
2.35 	0 	0 	-0.131587
