1.45 	0 	0 	-0.00155365 	-0.00313694 	3.97288e-21
2.35 	0 	0 	0.0860874 	-0.00749056 	2.29517e-21
