1.45 	0 	0 	-0.300422
2.35 	0 	0 	-0.133574
