/*--------------------------------*- C++ -*----------------------------------*\
  =========                 |
  \\      /  F ield         | OpenFOAM: The Open Source CFD Toolbox
   \\    /   O peration     | Website:  https://openfoam.org
    \\  /    A nd           | Version:  6.0
     \\/     M anipulation  |
\*---------------------------------------------------------------------------*/
FoamFile
{
    version     2.0;
    format      ascii;
    class       volScalarField;
    location    "17";
    object      p;
}
// * * * * * * * * * * * * * * * * * * * * * * * * * * * * * * * * * * * * * //

dimensions      [0 2 -2 0 0 0 0];

internalField   nonuniform List<scalar> 
2000
(
-0.352568
-0.358465
-0.360142
-0.35946
-0.357585
-0.354892
-0.351659
-0.348181
-0.344745
-0.341029
-0.355288
-0.360765
-0.362102
-0.361118
-0.358955
-0.355987
-0.352491
-0.348751
-0.34506
-0.341225
-0.36075
-0.365367
-0.366012
-0.364418
-0.361674
-0.358149
-0.354118
-0.349841
-0.34562
-0.341541
-0.368993
-0.372269
-0.371851
-0.369331
-0.365704
-0.361334
-0.356478
-0.351356
-0.346287
-0.341818
-0.380078
-0.381469
-0.37959
-0.375816
-0.371005
-0.365491
-0.359503
-0.353181
-0.346862
-0.3418
-0.394068
-0.392954
-0.389187
-0.383835
-0.377543
-0.370598
-0.36316
-0.355233
-0.347136
-0.341157
-0.410996
-0.406678
-0.400584
-0.393344
-0.385314
-0.376695
-0.367544
-0.35763
-0.347107
-0.339629
-0.430806
-0.422545
-0.413687
-0.404284
-0.394302
-0.383826
-0.372769
-0.360501
-0.346531
-0.336065
-0.453285
-0.44038
-0.428382
-0.416612
-0.404548
-0.392083
-0.378818
-0.363229
-0.343113
-0.325777
-0.477998
-0.459918
-0.444569
-0.430477
-0.416672
-0.402953
-0.388564
-0.370869
-0.345797
-0.321793
-0.504259
-0.480733
-0.461977
-0.44579
-0.431041
-0.418104
-0.407318
-0.399321
-0.399406
-0.418879
-0.531242
-0.502247
-0.479989
-0.461442
-0.445084
-0.431374
-0.420787
-0.41438
-0.41728
-0.434489
-0.558224
-0.524001
-0.498332
-0.477313
-0.458927
-0.443537
-0.431508
-0.423557
-0.422792
-0.430547
-0.584555
-0.545522
-0.516691
-0.493229
-0.47257
-0.454896
-0.440365
-0.429232
-0.422971
-0.42157
-0.609484
-0.566142
-0.534439
-0.508544
-0.485306
-0.464707
-0.446706
-0.431179
-0.418549
-0.408859
-0.632021
-0.584924
-0.550632
-0.52225
-0.496078
-0.471967
-0.449795
-0.429251
-0.41017
-0.39332
-0.650879
-0.600658
-0.564038
-0.533061
-0.503598
-0.475506
-0.448748
-0.423022
-0.39791
-0.375199
-0.6645
-0.611888
-0.573193
-0.539496
-0.506436
-0.474064
-0.442599
-0.411889
-0.381486
-0.354256
-0.671121
-0.616975
-0.576476
-0.539959
-0.503117
-0.466389
-0.430385
-0.395189
-0.360434
-0.329995
-0.668874
-0.614179
-0.572192
-0.53284
-0.49221
-0.45131
-0.411223
-0.372285
-0.334241
-0.301828
-0.655905
-0.601759
-0.558672
-0.516612
-0.472425
-0.427822
-0.384383
-0.342652
-0.30246
-0.269221
-0.630479
-0.578073
-0.534379
-0.489937
-0.442704
-0.395169
-0.349361
-0.305955
-0.264804
-0.231805
-0.591126
-0.541717
-0.498037
-0.451777
-0.402311
-0.352902
-0.305933
-0.2621
-0.22121
-0.189445
-0.536748
-0.491631
-0.448736
-0.401485
-0.350893
-0.300924
-0.254178
-0.211269
-0.171884
-0.142283
-0.466744
-0.42722
-0.38603
-0.338863
-0.288507
-0.239487
-0.194474
-0.153913
-0.117302
-0.0907458
-0.381115
-0.348449
-0.310013
-0.264206
-0.215615
-0.169153
-0.127423
-0.0906506
-0.0580989
-0.0354583
-0.280549
-0.255927
-0.221368
-0.178312
-0.133075
-0.0907662
-0.0537975
-0.0221814
0.0050032
0.0227526
-0.166487
-0.150941
-0.121382
-0.0824729
-0.0421252
-0.00546668
0.025346
0.0503762
0.0704628
0.0818567
-0.0411413
-0.0354651
-0.0119062
0.0216382
0.0558505
0.0856921
0.109148
0.125809
0.135756
0.138137
0.0925325
0.0878566
0.104646
0.13199
0.159529
0.182534
0.199035
0.207414
0.206389
0.199668
0.230958
0.215758
0.22517
0.245689
0.266452
0.283577
0.295792
0.301282
0.300241
0.314167
0.370239
0.344595
0.346053
0.358881
0.37191
0.381892
0.387952
0.3892
0.388128
0.401059
0.506432
0.470693
0.463887
0.468444
0.473103
0.475187
0.474128
0.469511
0.463822
0.46893
0.635692
0.590445
0.57538
0.571481
0.567585
0.561599
0.553265
0.542434
0.531177
0.528339
0.754355
0.700413
0.677438
0.66533
0.653165
0.639417
0.624106
0.607269
0.5906
0.580655
0.859038
0.797428
0.767243
0.747597
0.727888
0.70711
0.685522
0.663309
0.641793
0.625638
0.946724
0.878684
0.842308
0.81617
0.790005
0.763252
0.736371
0.709658
0.684082
0.662723
1.01486
0.941814
0.90054
0.869261
0.838011
0.806582
0.775582
0.745393
0.71667
0.691254
1.06144
0.984966
0.940302
0.905466
0.870713
0.836073
0.802261
0.769708
0.738841
0.710638
1.08508
1.00687
0.96047
0.923816
0.887277
0.851006
0.815767
0.782019
0.750065
0.720444
1.08508
1.00687
0.960469
0.923815
0.887276
0.851005
0.815767
0.782018
0.750064
0.720443
1.06144
0.984964
0.9403
0.905464
0.870711
0.836072
0.802259
0.769706
0.738839
0.710637
1.01485
0.94181
0.900536
0.869257
0.838008
0.806578
0.775579
0.74539
0.716667
0.691251
0.946717
0.878678
0.842302
0.816165
0.79
0.763248
0.736367
0.709654
0.684078
0.662719
0.85903
0.79742
0.767236
0.747591
0.727882
0.707104
0.685517
0.663304
0.641788
0.625634
0.754345
0.700403
0.677429
0.665322
0.653157
0.63941
0.624099
0.607263
0.590594
0.580649
0.63568
0.590435
0.57537
0.571472
0.567576
0.561591
0.553258
0.542426
0.53117
0.528332
0.50642
0.470681
0.463875
0.468434
0.473093
0.475178
0.47412
0.469503
0.463814
0.468923
0.370225
0.344581
0.34604
0.358869
0.371899
0.381881
0.387942
0.389191
0.388119
0.40105
0.230942
0.215744
0.225155
0.245676
0.26644
0.283565
0.295781
0.301271
0.300231
0.314157
0.092516
0.0878404
0.10463
0.131976
0.159515
0.182521
0.199023
0.207403
0.206378
0.199657
-0.0411589
-0.0354824
-0.0119228
0.0216225
0.0558357
0.0856782
0.109135
0.125796
0.135744
0.138125
-0.166506
-0.150959
-0.1214
-0.0824896
-0.0421409
-0.00548153
0.0253319
0.0503629
0.0704501
0.0818444
-0.280568
-0.255946
-0.221387
-0.17833
-0.133092
-0.0907819
-0.0538124
-0.0221955
0.00498977
0.0227397
-0.381135
-0.348469
-0.310032
-0.264224
-0.215632
-0.16917
-0.127439
-0.0906654
-0.058113
-0.0354718
-0.466766
-0.42724
-0.38605
-0.338883
-0.288525
-0.239504
-0.19449
-0.153929
-0.117316
-0.0907599
-0.53677
-0.491653
-0.448756
-0.401505
-0.350912
-0.300942
-0.254195
-0.211285
-0.171899
-0.142298
-0.591148
-0.541739
-0.498058
-0.451798
-0.402331
-0.35292
-0.30595
-0.262116
-0.221226
-0.18946
-0.630502
-0.578096
-0.5344
-0.489958
-0.442724
-0.395188
-0.34938
-0.305972
-0.26482
-0.231821
-0.655928
-0.601781
-0.558694
-0.516633
-0.472446
-0.427842
-0.384402
-0.34267
-0.302477
-0.269237
-0.668897
-0.614202
-0.572214
-0.532862
-0.492231
-0.45133
-0.411242
-0.372303
-0.334258
-0.301845
-0.671144
-0.616998
-0.576499
-0.539981
-0.503138
-0.46641
-0.430405
-0.395208
-0.360452
-0.330012
-0.664523
-0.611911
-0.573215
-0.539517
-0.506457
-0.474085
-0.442619
-0.411908
-0.381504
-0.354274
-0.650902
-0.600681
-0.56406
-0.533083
-0.503619
-0.475526
-0.448768
-0.423041
-0.397929
-0.375217
-0.632043
-0.584946
-0.550654
-0.522271
-0.496099
-0.471988
-0.449815
-0.429271
-0.410189
-0.393339
-0.609506
-0.566164
-0.53446
-0.508565
-0.485327
-0.464727
-0.446726
-0.431199
-0.418569
-0.408879
-0.584576
-0.545544
-0.516711
-0.49325
-0.472591
-0.454916
-0.440385
-0.429252
-0.422991
-0.42159
-0.558245
-0.524022
-0.498353
-0.477333
-0.458947
-0.443557
-0.431528
-0.423577
-0.422812
-0.430568
-0.531263
-0.502267
-0.480009
-0.461461
-0.445103
-0.431394
-0.420807
-0.4144
-0.4173
-0.434509
-0.50428
-0.480753
-0.461996
-0.445809
-0.43106
-0.418123
-0.407337
-0.399341
-0.399427
-0.4189
-0.478019
-0.459937
-0.444587
-0.430495
-0.416691
-0.402972
-0.388583
-0.370889
-0.345819
-0.321816
-0.453305
-0.440399
-0.4284
-0.41663
-0.404565
-0.392101
-0.378837
-0.363249
-0.343134
-0.325799
-0.430825
-0.422563
-0.413704
-0.4043
-0.394319
-0.383843
-0.372786
-0.36052
-0.346551
-0.336086
-0.411014
-0.406695
-0.400599
-0.393359
-0.38533
-0.376711
-0.36756
-0.357647
-0.347126
-0.339649
-0.394084
-0.392968
-0.389201
-0.383848
-0.377557
-0.370612
-0.363175
-0.355249
-0.347153
-0.341174
-0.380092
-0.381482
-0.379602
-0.375828
-0.371017
-0.365503
-0.359515
-0.353195
-0.346877
-0.341815
-0.369005
-0.37228
-0.371861
-0.36934
-0.365714
-0.361344
-0.356488
-0.351367
-0.346299
-0.34183
-0.360758
-0.365374
-0.366019
-0.364425
-0.361681
-0.358157
-0.354125
-0.349849
-0.345629
-0.34155
-0.355294
-0.36077
-0.362106
-0.361122
-0.358959
-0.355991
-0.352495
-0.348756
-0.345065
-0.341231
-0.35257
-0.358467
-0.360144
-0.359462
-0.357587
-0.354894
-0.351661
-0.348182
-0.344746
-0.341031
-0.294548
-0.130051
-0.0845614
-0.0334582
-0.0220265
-0.0101522
-0.00663979
-0.00218377
-0.00168101
0.00273865
-0.295781
-0.130605
-0.0848411
-0.0336648
-0.0221018
-0.0102164
-0.00667621
-0.00221194
-0.00169791
0.00271403
-0.298181
-0.131696
-0.085392
-0.034077
-0.022252
-0.010346
-0.00674991
-0.00226893
-0.00173108
0.00266569
-0.301606
-0.133302
-0.0862019
-0.0346962
-0.0224761
-0.0105401
-0.00686016
-0.00235434
-0.00177996
0.00259404
-0.305809
-0.135376
-0.0872436
-0.0355196
-0.022771
-0.0107966
-0.00700525
-0.00246711
-0.00184318
0.00249987
-0.310433
-0.137842
-0.0884661
-0.0365324
-0.0231296
-0.0111111
-0.00718256
-0.00260572
-0.00191918
0.00238422
-0.315349
-0.140769
-0.0898734
-0.0377282
-0.0235511
-0.0114794
-0.00739006
-0.00276758
-0.00200704
0.00224957
-0.321078
-0.14481
-0.0917284
-0.0392073
-0.0240783
-0.0119139
-0.00763324
-0.0029513
-0.00210816
0.00209987
-0.325886
-0.150347
-0.0942113
-0.0411365
-0.0247642
-0.0124434
-0.00792174
-0.00316433
-0.00221948
0.00193054
-0.318101
-0.152749
-0.095351
-0.0428682
-0.0253078
-0.0129748
-0.00820414
-0.00341699
-0.00230894
0.00170843
-0.25158
-0.144684
-0.0917774
-0.0461931
-0.025913
-0.0144505
-0.0090071
-0.00440847
-0.00251713
0.000741111
-0.193308
-0.135592
-0.0857093
-0.0475767
-0.0276213
-0.0168589
-0.0108161
-0.00597862
-0.00325974
-0.000336798
-0.151692
-0.117598
-0.0761612
-0.0459923
-0.0288963
-0.0189603
-0.012556
-0.00747105
-0.0040353
-0.00109338
-0.111949
-0.0965699
-0.0666347
-0.0438776
-0.0297694
-0.0206092
-0.0139942
-0.00873604
-0.00470717
-0.00156367
-0.08261
-0.0791988
-0.0597531
-0.0425139
-0.0304459
-0.0218203
-0.0151099
-0.00973353
-0.00527094
-0.00184691
-0.0624471
-0.0662775
-0.0547309
-0.0414404
-0.0307494
-0.0225644
-0.0158978
-0.0104763
-0.00573299
-0.00203087
-0.0493715
-0.0569616
-0.0508233
-0.0404221
-0.0307646
-0.022974
-0.0164305
-0.0110145
-0.0061005
-0.00216315
-0.0410926
-0.0504638
-0.0478291
-0.0395388
-0.0306732
-0.0231966
-0.0167815
-0.0113899
-0.00637541
-0.00225968
-0.0362492
-0.0463384
-0.0458012
-0.0389178
-0.0305901
-0.0233151
-0.016993
-0.0116251
-0.00655789
-0.0023221
-0.0340085
-0.0443245
-0.0447805
-0.0386125
-0.0305545
-0.0233665
-0.0170914
-0.0117343
-0.00665093
-0.00234929
-0.222731
-0.250637
-0.276427
-0.300385
-0.322895
-0.344462
-0.365704
-0.387263
-0.409637
-0.433488
-0.0719479
-0.0820897
-0.0912538
-0.0996836
-0.107686
-0.115642
-0.124008
-0.133326
-0.144173
-0.158342
-0.0490791
-0.0582554
-0.0670463
-0.0754253
-0.0833549
-0.0907904
-0.0976884
-0.104022
-0.109788
-0.115107
-0.0225844
-0.0282975
-0.0338044
-0.0391241
-0.0442786
-0.0492912
-0.0541851
-0.0589824
-0.0636832
-0.0681672
-0.0168264
-0.0211752
-0.0253994
-0.0294955
-0.0334599
-0.0372885
-0.0409778
-0.0445249
-0.0479104
-0.0511029
-0.0117312
-0.0149413
-0.018092
-0.0211823
-0.0242116
-0.0271795
-0.0300855
-0.0329283
-0.0356963
-0.0383925
-0.0105776
-0.0131074
-0.0156008
-0.0180537
-0.0204626
-0.0228244
-0.0251366
-0.0273968
-0.0295991
-0.031756
-0.00975338
-0.0118042
-0.0138383
-0.0158516
-0.0178405
-0.0198013
-0.0217312
-0.0236272
-0.0254859
-0.0273139
-0.00965053
-0.0114181
-0.0131775
-0.0149243
-0.0166541
-0.0183632
-0.020048
-0.0217053
-0.0233331
-0.0249318
-0.00958671
-0.0112056
-0.0128216
-0.014431
-0.0160303
-0.0176159
-0.0191849
-0.0207344
-0.0222631
-0.0237682
0.163897
0.122902
0.0775551
0.0344861
-0.00725372
-0.0481346
-0.0875398
-0.124887
-0.159909
-0.192521
0.113505
0.0875904
0.0608053
0.0379725
0.0178565
-0.000813906
-0.0181211
-0.0338542
-0.047987
-0.0606347
0.0694528
0.0537578
0.0388131
0.0259086
0.0140636
0.00260297
-0.00854375
-0.0192888
-0.029609
-0.0395313
0.0492607
0.0401924
0.0315716
0.0238689
0.0166095
0.00952375
0.00261415
-0.00406068
-0.0104795
-0.0166496
0.0337756
0.0278292
0.0220962
0.0168126
0.0117288
0.00671432
0.001776
-0.00305477
-0.00776556
-0.0123559
0.0235575
0.0196736
0.0158347
0.0122033
0.008667
0.00515795
0.00167771
-0.00175698
-0.00513785
-0.0084629
0.0158887
0.013165
0.0104154
0.00774453
0.00510425
0.00246181
-0.000180937
-0.00281283
-0.00542602
-0.00801569
0.0107339
0.00874329
0.00670314
0.00467537
0.00264336
0.000593568
-0.00147159
-0.0035446
-0.00561911
-0.00769021
0.00742021
0.00582965
0.00419049
0.00253179
0.000848756
-0.000861699
-0.00259569
-0.00434706
-0.00611007
-0.00787956
0.00583272
0.00441646
0.00295717
0.00146903
-4.85636e-05
-0.00159454
-0.00316456
-0.00475348
-0.00635643
-0.00796894
0.331387
0.330686
0.329135
0.326258
0.32127
0.312933
0.299477
0.278507
0.247389
0.202756
0.241524
0.240407
0.237771
0.233185
0.226312
0.216724
0.203849
0.18703
0.165518
0.138758
0.170736
0.169607
0.16694
0.162415
0.155924
0.14736
0.136533
0.123229
0.10704
0.0880522
0.11917
0.118285
0.116182
0.112621
0.107582
0.101091
0.0931433
0.0837469
0.0728244
0.0607108
0.0828779
0.0822336
0.0806954
0.0780834
0.074405
0.0697126
0.0640405
0.0574268
0.0498519
0.0415245
0.0577356
0.0572725
0.0561648
0.0542841
0.0516437
0.0482947
0.0442789
0.0396403
0.0343964
0.0286937
0.0406148
0.0402767
0.0394675
0.0380939
0.0361675
0.0337285
0.0308108
0.027447
0.0236567
0.0195238
0.0293528
0.0290964
0.028483
0.0274416
0.0259819
0.0241351
0.021928
0.0193858
0.016529
0.0134094
0.0225329
0.0223249
0.0218272
0.0209827
0.0197986
0.0183
0.0165081
0.0144419
0.0121192
0.00957133
0.0193205
0.0191345
0.0186904
0.0179371
0.016881
0.015544
0.0139447
0.0120995
0.0100253
0.00774469
0.481332
0.483084
0.489417
0.500562
0.516412
0.537271
0.563603
0.595934
0.634801
0.680449
0.479091
0.480818
0.487071
0.49806
0.513661
0.534142
0.55991
0.591403
0.629022
0.672857
0.474661
0.476343
0.482442
0.493129
0.508244
0.527984
0.552641
0.582482
0.617631
0.657881
0.468143
0.469769
0.475658
0.485913
0.500327
0.518991
0.542027
0.569443
0.600949
0.635927
0.459673
0.46125
0.46689
0.476608
0.490137
0.507432
0.528389
0.552677
0.579442
0.607581
0.449422
0.450971
0.456344
0.465443
0.477932
0.493603
0.512088
0.532631
0.553681
0.573581
0.437585
0.439173
0.4443
0.452736
0.464074
0.477917
0.493592
0.509846
0.524341
0.534791
0.424369
0.426184
0.431197
0.439045
0.449257
0.461222
0.473888
0.485365
0.492425
0.492007
0.409842
0.412133
0.417225
0.424609
0.433801
0.44397
0.453616
0.460022
0.458805
0.444722
0.393643
0.396078
0.400743
0.406997
0.414373
0.421919
0.427861
0.428979
0.420505
0.392793
0.393639
0.396074
0.400739
0.406993
0.414368
0.421914
0.427856
0.428972
0.420499
0.392785
0.409838
0.412129
0.417222
0.424605
0.433796
0.443965
0.453611
0.460016
0.458799
0.444714
0.424365
0.42618
0.431194
0.439041
0.449253
0.461218
0.473884
0.48536
0.492419
0.492001
0.437582
0.43917
0.444296
0.452733
0.46407
0.477913
0.493588
0.509842
0.524336
0.534786
0.449419
0.450968
0.456341
0.46544
0.477929
0.4936
0.512084
0.532627
0.553676
0.573576
0.459671
0.461248
0.466888
0.476606
0.490135
0.507429
0.528387
0.552674
0.579439
0.607577
0.468141
0.469767
0.475656
0.485911
0.500325
0.518989
0.542025
0.569441
0.600946
0.635924
0.47466
0.476342
0.482441
0.493127
0.508243
0.527982
0.55264
0.58248
0.617629
0.657879
0.47909
0.480817
0.48707
0.498059
0.51366
0.534141
0.559909
0.591402
0.629021
0.672856
0.481332
0.483084
0.489417
0.500562
0.516412
0.53727
0.563603
0.595934
0.634801
0.680449
0.0193144
0.0191284
0.0186843
0.0179311
0.0168749
0.0155379
0.0139388
0.0120936
0.0100194
0.00773893
0.0225268
0.0223187
0.0218211
0.0209765
0.0197924
0.0182939
0.0165021
0.0144359
0.0121133
0.0095655
0.0293465
0.0290901
0.0284766
0.0274354
0.0259756
0.0241288
0.0219218
0.0193797
0.0165229
0.0134034
0.0406084
0.0402703
0.0394611
0.0380875
0.0361611
0.0337221
0.0308044
0.0274407
0.0236504
0.0195176
0.057729
0.0572659
0.0561582
0.0542775
0.0516371
0.0482881
0.0442723
0.0396337
0.0343899
0.0286872
0.0828711
0.0822269
0.0806886
0.0780766
0.0743982
0.0697059
0.0640337
0.05742
0.049845
0.0415176
0.119163
0.118278
0.116176
0.112614
0.107575
0.101084
0.0931363
0.0837398
0.0728172
0.0607035
0.170729
0.1696
0.166933
0.162408
0.155917
0.147353
0.136526
0.123221
0.107032
0.0880444
0.241518
0.240401
0.237765
0.233178
0.226306
0.216717
0.203842
0.187023
0.16551
0.13875
0.331382
0.330681
0.32913
0.326252
0.321264
0.312927
0.29947
0.2785
0.24738
0.202747
0.00582704
0.00441085
0.00295162
0.00146353
-5.4011e-05
-0.00159993
-0.0031699
-0.00475875
-0.00636165
-0.0079741
0.00741447
0.00582398
0.00418488
0.00252624
0.000843263
-0.000867134
-0.00260107
-0.00435239
-0.00611534
-0.00788476
0.010728
0.00873746
0.00669738
0.00466968
0.00263774
0.000588025
-0.00147706
-0.00355
-0.00562444
-0.00769548
0.0158825
0.0131588
0.0104094
0.00773856
0.00509837
0.00245601
-0.000186646
-0.00281845
-0.00543156
-0.00802116
0.023551
0.0196671
0.0158283
0.012197
0.0086608
0.00515184
0.0016717
-0.0017629
-0.00514368
-0.00846863
0.0337687
0.0278223
0.0220894
0.0168059
0.0117222
0.00670776
0.00176953
-0.00306116
-0.00777186
-0.0123622
0.0492533
0.040185
0.0315642
0.0238616
0.0166023
0.00951656
0.00260699
-0.00406779
-0.0104866
-0.0166566
0.0694448
0.0537497
0.0388048
0.0259003
0.0140553
0.00259469
-0.00855205
-0.0192971
-0.0296173
-0.0395396
0.113496
0.0875813
0.0607961
0.0379632
0.0178471
-0.000823414
-0.0181307
-0.0338639
-0.0479968
-0.0606446
0.163886
0.122891
0.0775439
0.0344747
-0.0072655
-0.0481467
-0.0875523
-0.1249
-0.159922
-0.192534
-0.0095918
-0.0112106
-0.0128265
-0.0144358
-0.0160348
-0.0176204
-0.0191893
-0.0207387
-0.0222673
-0.0237724
-0.00965567
-0.0114231
-0.0131824
-0.0149291
-0.0166588
-0.0183677
-0.0200524
-0.0217096
-0.0233374
-0.0249361
-0.0097586
-0.0118093
-0.0138433
-0.0158565
-0.0178452
-0.019806
-0.0217358
-0.0236317
-0.0254904
-0.0273184
-0.010583
-0.0131127
-0.015606
-0.0180588
-0.0204676
-0.0228294
-0.0251415
-0.0274016
-0.0296039
-0.0317607
-0.0117368
-0.0149469
-0.0180975
-0.0211877
-0.024217
-0.0271849
-0.0300908
-0.0329336
-0.0357015
-0.0383977
-0.0168325
-0.0211813
-0.0254054
-0.0295015
-0.0334658
-0.0372943
-0.0409836
-0.0445307
-0.0479162
-0.0511086
-0.0225913
-0.0283043
-0.0338112
-0.0391308
-0.0442852
-0.0492977
-0.0541915
-0.0589888
-0.0636895
-0.0681735
-0.0490873
-0.0582636
-0.0670545
-0.0754334
-0.083363
-0.0907984
-0.0976963
-0.10403
-0.109796
-0.115115
-0.0719579
-0.0820998
-0.0912641
-0.0996939
-0.107696
-0.115652
-0.124019
-0.133336
-0.144184
-0.158354
-0.222746
-0.250652
-0.276443
-0.300401
-0.322912
-0.34448
-0.365722
-0.387282
-0.409658
-0.433509
-0.0340117
-0.0443266
-0.0447817
-0.0386135
-0.0305577
-0.0233711
-0.0170969
-0.0117381
-0.00665327
-0.00235028
-0.0362525
-0.0463405
-0.0458022
-0.0389186
-0.0305933
-0.0233199
-0.0169988
-0.0116291
-0.00656033
-0.00232307
-0.041096
-0.0504657
-0.0478294
-0.039539
-0.0306763
-0.0232019
-0.016788
-0.0113942
-0.00637802
-0.00226061
-0.0493751
-0.0569632
-0.0508226
-0.0404214
-0.0307678
-0.0229802
-0.016438
-0.0110195
-0.00610328
-0.00216393
-0.0624512
-0.0662785
-0.0547286
-0.0414382
-0.0307529
-0.0225723
-0.0159068
-0.0104821
-0.00573578
-0.00203123
-0.0826146
-0.0791989
-0.0597481
-0.0425097
-0.0304499
-0.0218307
-0.015121
-0.00974061
-0.00527334
-0.00184631
-0.111955
-0.096568
-0.0666255
-0.0438705
-0.0297747
-0.0206239
-0.0140087
-0.00874488
-0.00470854
-0.00156125
-0.1517
-0.117593
-0.0761441
-0.0459804
-0.0289036
-0.0189813
-0.0125753
-0.00748267
-0.00403523
-0.00108829
-0.193321
-0.135584
-0.0856814
-0.0475564
-0.0276285
-0.0168861
-0.0108408
-0.0059941
-0.00325879
-0.000328945
-0.251603
-0.144679
-0.0917431
-0.0461651
-0.025916
-0.0144783
-0.00903391
-0.00442669
-0.00251649
0.000750246
-0.318124
-0.152748
-0.0953208
-0.0428437
-0.0253084
-0.0129968
-0.00822554
-0.00343309
-0.00230907
0.00171559
-0.325908
-0.150346
-0.0941823
-0.0411132
-0.0247645
-0.0124639
-0.00794163
-0.00317954
-0.0022197
0.0019371
-0.321099
-0.144809
-0.0917006
-0.0391857
-0.0240789
-0.011933
-0.00765161
-0.00296536
-0.00210841
0.00210579
-0.315368
-0.140767
-0.0898475
-0.0377085
-0.0235517
-0.011497
-0.00740679
-0.00278041
-0.00200745
0.00225477
-0.310451
-0.137841
-0.0884428
-0.0365149
-0.0231301
-0.0111266
-0.00719719
-0.00261694
-0.00191945
0.00238878
-0.305823
-0.135374
-0.0872235
-0.0355047
-0.0227714
-0.0108098
-0.00701761
-0.00247659
-0.00184339
0.0025037
-0.301617
-0.1333
-0.0861856
-0.0346841
-0.0224764
-0.0105507
-0.00687003
-0.0023619
-0.00178008
0.00259711
-0.29819
-0.131695
-0.0853799
-0.0340682
-0.0222522
-0.0103538
-0.00675715
-0.00227449
-0.0017312
0.0026679
-0.295787
-0.130604
-0.0848337
-0.0336594
-0.0221019
-0.0102212
-0.00668056
-0.00221525
-0.00169785
0.00271545
-0.294549
-0.130051
-0.0845589
-0.0334564
-0.0220265
-0.0101538
-0.00664134
-0.00218498
-0.00168111
0.00273904
)
;

boundaryField
{
    inlet
    {
        type            zeroGradient;
    }
    outlet
    {
        type            fixedValue;
        value           uniform 0;
    }
    cylinder
    {
        type            zeroGradient;
    }
    top
    {
        type            symmetryPlane;
    }
    bottom
    {
        type            symmetryPlane;
    }
    defaultFaces
    {
        type            empty;
    }
}


// ************************************************************************* //
