/*--------------------------------*- C++ -*----------------------------------*\
  =========                 |
  \\      /  F ield         | OpenFOAM: The Open Source CFD Toolbox
   \\    /   O peration     | Website:  https://openfoam.org
    \\  /    A nd           | Version:  6.0
     \\/     M anipulation  |
\*---------------------------------------------------------------------------*/
FoamFile
{
    version     2.0;
    format      ascii;
    class       surfaceScalarField;
    location    "17";
    object      phi;
}
// * * * * * * * * * * * * * * * * * * * * * * * * * * * * * * * * * * * * * //

dimensions      [0 3 -1 0 0 0 0];

internalField   nonuniform List<scalar> 
3880
(
-1.79696e-05
1.79544e-05
1.51243e-08
-5.34501e-05
3.54471e-05
3.34481e-08
-9.52644e-05
4.17698e-05
4.44679e-08
-0.000136342
4.10269e-05
5.04244e-08
-0.000172319
3.59244e-05
5.26691e-08
-0.000200784
2.84128e-05
5.20589e-08
-0.000220805
1.99721e-05
4.91559e-08
-0.000232624
1.17746e-05
4.43684e-08
-0.000237454
4.79187e-06
3.78821e-08
-2.00048e-07
2.99867e-08
-0.000237284
-1.729e-05
3.52445e-05
-5.07981e-05
6.89552e-05
-8.94856e-05
8.04574e-05
-0.000126394
7.79358e-05
-0.000157202
6.67319e-05
-0.000179463
5.06734e-05
-0.000192158
3.26671e-05
-0.000195429
1.50455e-05
-0.000190433
-2.04021e-07
-1.14397e-05
-0.000179193
-1.58952e-05
5.11396e-05
-4.53762e-05
9.84362e-05
-7.77221e-05
0.000112803
-0.000106244
0.000106458
-0.000126745
8.72329e-05
-0.000136748
6.06761e-05
-0.000135076
3.0995e-05
-0.000121662
1.63231e-06
-9.75281e-05
-2.43383e-05
-4.42199e-05
-6.47479e-05
-1.3698e-05
6.48376e-05
-3.69031e-05
0.000121641
-5.94666e-05
0.000135367
-7.52075e-05
0.000122199
-8.02289e-05
9.22543e-05
-7.21085e-05
5.25556e-05
-4.94954e-05
8.38199e-06
-1.2007e-05
-3.58561e-05
3.9606e-05
-7.59514e-05
-0.000107859
0.000103246
-1.05354e-05
7.5373e-05
-2.48622e-05
0.000135968
-3.37518e-05
0.000144256
-3.18708e-05
0.000120317
-1.59298e-05
7.63134e-05
1.61991e-05
2.04267e-05
6.59259e-05
-4.13448e-05
0.000134011
-0.000103941
0.000220171
-0.000162111
-0.000210089
0.000322401
-6.15668e-06
8.15297e-05
-8.46654e-06
0.000138278
9.56344e-07
0.000134834
2.61817e-05
9.50921e-05
6.94393e-05
3.30558e-05
0.000132094
-4.2228e-05
0.000215229
-0.00012448
0.000319851
-0.000208563
0.000446376
-0.000288636
-0.000356779
0.000593065
-2.50505e-07
8.17802e-05
1.32576e-05
0.00012477
4.66464e-05
0.000101445
0.000102334
3.94045e-05
0.00018097
-4.55804e-05
0.000282442
-0.000143699
0.000406661
-0.000248699
0.00055418
-0.000356082
0.000726072
-0.000460528
-0.000552136
0.00092143
7.46622e-06
7.4314e-05
4.11908e-05
9.10453e-05
0.000105239
3.73966e-05
0.000200207
-5.5564e-05
0.000324805
-0.000170178
0.000476657
-0.000295552
0.000653146
-0.000425188
0.000852558
-0.000555494
0.00107535
-0.00068332
-0.000801657
0.00132487
1.7101e-05
5.7213e-05
7.56449e-05
3.25014e-05
0.000177621
-6.45795e-05
0.000322116
-0.000200059
0.00050618
-0.000354242
0.000725048
-0.00051442
0.00097244
-0.000672581
0.00124154
-0.00082459
0.00152856
-0.000970344
-0.0011205
0.0018474
2.83879e-05
2.88251e-05
0.000115704
-5.48149e-05
0.000262149
-0.000211025
0.000466318
-0.000404227
0.000725415
-0.000613339
0.00103497
-0.000823974
0.00138818
-0.00102579
0.00177424
-0.00121065
0.00217745
-0.00137355
-0.00151841
0.00257535
4.05135e-05
-1.16885e-05
0.000158518
-0.00017282
0.000352394
-0.0004049
0.000620864
-0.000672698
0.000963298
-0.000955773
0.00138037
-0.00124105
0.00187532
-0.00152074
0.00245721
-0.00179254
0.00314893
-0.00206527
-0.0023772
0.00400771
5.23993e-05
-6.40878e-05
0.000200098
-0.000320518
0.0004383
-0.000643102
0.000763475
-0.000997873
0.00117292
-0.00136522
0.00166475
-0.00173288
0.00223785
-0.00209385
0.00289137
-0.00244605
0.00361976
-0.00279366
-0.00314566
0.00438822
6.35268e-05
-0.000127615
0.000238395
-0.000495386
0.000515147
-0.000919855
0.000885751
-0.00136848
0.00134241
-0.00182188
0.00187698
-0.00226744
0.00248022
-0.00269709
0.00314033
-0.00310616
0.00383874
-0.00349206
-0.00384863
0.00454171
7.39154e-05
-0.00020153
0.000273132
-0.000694603
0.000582392
-0.00122912
0.000987885
-0.00177397
0.00147571
-0.00230971
0.00203123
-0.00282296
0.00263864
-0.0033045
0.00328022
-0.00374774
0.0039347
-0.00414655
-0.0044897
0.00457577
8.37074e-05
-0.000285237
0.000304452
-0.000915347
0.000640297
-0.00156496
0.00107103
-0.00220471
0.00157661
-0.00281528
0.00213683
-0.00338318
0.00273146
-0.00389914
0.00334041
-0.00435668
0.00394355
-0.00474969
-0.00506724
0.00452108
9.28916e-05
-0.000378129
0.000332094
-0.00115455
0.000688286
-0.00192115
0.00113464
-0.00265106
0.0016454
-0.00332604
0.002196
-0.00393378
0.00276372
-0.00446685
0.00332828
-0.00492124
0.00387224
-0.00529365
-0.00557681
0.0043818
0.000101224
-0.000479353
0.000355174
-0.0014085
0.000724649
-0.00229063
0.00117631
-0.00310273
0.00167947
-0.0038292
0.00220659
-0.0044609
0.00273417
-0.00499444
0.00324339
-0.00543045
0.00372044
-0.0057707
-0.00601358
0.00415722
0.000108275
-0.000587628
0.00037235
-0.00167258
0.000746966
-0.00266524
0.00119277
-0.00354853
0.00167524
-0.00431168
0.00216544
-0.0049511
0.00264072
-0.00546971
0.00308502
-0.00587476
0.00348879
-0.00617447
-0.00637397
0.00384918
0.00011352
-0.000701148
0.000382109
-0.00194116
0.000752729
-0.00303586
0.00118094
-0.00397674
0.00162986
-0.00476061
0.00207078
-0.00539202
0.00248338
-0.00588231
0.00285535
-0.00624673
0.00318164
-0.00650076
-0.00665638
0.00346405
0.000116431
-0.000817579
0.000383039
-0.00220777
0.000739856
-0.00339268
0.00113874
-0.00437562
0.00154217
-0.00516403
0.00192326
-0.00577311
0.00226523
-0.00622428
0.0025601
-0.0065416
0.00280718
-0.00674784
-0.00686125
0.00301205
0.000116541
-0.00093412
0.000374038
-0.00246527
0.000707037
-0.00372568
0.0010655
-0.00473409
0.00141305
-0.00551158
0.00172611
-0.00608617
0.00199225
-0.00649041
0.00220792
-0.00675728
0.00237633
-0.00691624
-0.00699079
0.00250587
0.000113451
-0.00104757
0.000354341
-0.00270616
0.000653765
-0.0040251
0.000961864
-0.00504219
0.00124518
-0.0057949
0.00148457
-0.00632556
0.00167232
-0.00667816
0.00180909
-0.00689404
0.00190121
-0.00700837
-0.0070485
0.00195892
0.000106901
-0.00115447
0.000323668
-0.00292293
0.000580461
-0.0042819
0.00082981
-0.00529154
0.00104275
-0.00600785
0.0012053
-0.00648811
0.00131446
-0.00678732
0.00137447
-0.00695405
0.00139399
-0.00702788
-0.0070387
0.00138418
9.67447e-05
-0.00125122
0.000282141
-0.00310832
0.000488277
-0.00448803
0.00067224
-0.0054755
0.00081082
-0.00614643
0.000895545
-0.00657283
0.000927742
-0.00681951
0.000914482
-0.00694079
0.000865831
-0.00697923
-0.00696605
0.000793182
8.29649e-05
-0.00133418
0.000230277
-0.00325564
0.000378979
-0.00463673
0.000492678
-0.0055892
0.000554811
-0.00620856
0.000562418
-0.00658044
0.000520565
-0.00677766
0.00043827
-0.0068585
0.000326187
-0.00686715
-0.00683529
0.000195434
6.56792e-05
-0.00139986
0.000168963
-0.00335892
0.000254822
-0.00472259
0.00029501
-0.00562938
0.000280113
-0.00619366
0.000212428
-0.00651276
0.000100087
-0.00666532
-4.67791e-05
-0.00671163
-0.000217677
-0.00669625
-0.006651
-0.00040197
4.5158e-05
-0.00144502
9.9458e-05
-0.00341322
0.000118513
-0.00474165
8.33856e-05
-0.00559426
-8.0706e-06
-0.00610221
-0.000148731
-0.0063721
-0.000328009
-0.00648604
-0.00053533
-0.00650431
-0.00076097
-0.00647061
-0.00641696
-0.000995011
2.18512e-05
-0.00146687
2.34331e-05
-0.0034148
-2.6763e-05
-0.00469145
-0.000137733
-0.00548329
-0.00030463
-0.00593531
-0.000516045
-0.00616068
-0.000759404
-0.00624268
-0.00102407
-0.00623965
-0.0013016
-0.00619308
-0.00613363
-0.00158493
-3.57093e-06
-0.0014633
-5.69554e-05
-0.00336142
-0.000177218
-0.00457119
-0.000363419
-0.00529709
-0.000604463
-0.00569427
-0.000885453
-0.00587969
-0.00119216
-0.00593598
-0.00151373
-0.00591807
-0.00184315
-0.00586366
-0.00579406
-0.00218272
-3.0154e-05
-0.00143314
-0.000138887
-0.00325268
-0.000328008
-0.00438207
-0.0005873
-0.00503779
-0.000900928
-0.00538064
-0.00125228
-0.00552834
-0.00162682
-0.00556144
-0.00201415
-0.00553074
-0.0024103
-0.00546751
-0.00540663
-0.00279773
-5.66647e-05
-0.00137648
-0.000218845
-0.0030905
-0.000472725
-0.00412819
-0.000799463
-0.00471106
-0.00117992
-0.00500018
-0.00159818
-0.00511008
-0.00204294
-0.00511668
-0.00250693
-0.00506676
-0.00298925
-0.00498519
-0.00487005
-0.00352583
-8.20276e-05
-0.00129445
-0.000293784
-0.00287875
-0.000605618
-0.00381635
-0.000989791
-0.00432688
-0.00142275
-0.00456722
-0.00188645
-0.00464639
-0.00236787
-0.00463525
-0.00285805
-0.00457658
-0.00335081
-0.00449243
-0.00439091
-0.00382995
-0.000105605
-0.00118885
-0.000362326
-0.00262203
-0.000725331
-0.00345335
-0.0011586
-0.00389361
-0.00163461
-0.00409121
-0.00213365
-0.00414735
-0.00264226
-0.00412664
-0.00315146
-0.00406737
-0.00365406
-0.00398983
-0.0039045
-0.00414048
-0.000127054
-0.00106179
-0.000423883
-0.0023252
-0.000831756
-0.00304548
-0.00130748
-0.00341789
-0.00182049
-0.00357819
-0.00235034
-0.0036175
-0.00288395
-0.00359302
-0.00341317
-0.00353815
-0.00393242
-0.00347058
-0.00339979
-0.00443713
-0.000146112
-0.000915682
-0.000478022
-0.00199329
-0.000924713
-0.00259878
-0.00143699
-0.00290562
-0.00198209
-0.00303309
-0.00253941
-0.00306018
-0.00309665
-0.00303579
-0.0036468
-0.002988
-0.0041859
-0.00293148
-0.00287404
-0.00471165
-0.000162531
-0.00075315
-0.000524286
-0.00163153
-0.00100377
-0.0021193
-0.00154691
-0.00236248
-0.00211939
-0.0024606
-0.00270072
-0.00247886
-0.00327945
-0.00245706
-0.00384966
-0.00241779
-0.00440853
-0.00237261
-0.00232762
-0.00495495
-0.000176063
-0.000577088
-0.000562166
-0.00124543
-0.00106827
-0.00161319
-0.00163651
-0.00179425
-0.00223145
-0.00186566
-0.00283283
-0.00187747
-0.00342996
-0.00185993
-0.00401778
-0.00182998
-0.00459423
-0.00179616
-0.00176295
-0.00515889
-0.000186465
-0.000390623
-0.000591142
-0.000840752
-0.00111749
-0.00108684
-0.00170483
-0.00120691
-0.00231698
-0.00125351
-0.00293393
-0.00126052
-0.00354556
-0.0012483
-0.00414741
-0.00122813
-0.00473795
-0.00120562
-0.00118373
-0.00531717
-0.000193529
-0.000197094
-0.00061075
-0.00042353
-0.00115075
-0.000546845
-0.00175097
-0.000606691
-0.00237479
-0.000629691
-0.00300236
-0.000632946
-0.00362398
-0.000626683
-0.00423556
-0.000616541
-0.00483588
-0.000605304
-0.000594432
-0.00542518
-0.000197101
6.87403e-09
-0.000620646
1.4611e-08
-0.00116751
1.85807e-08
-0.00177422
2.02326e-08
-0.00240393
2.05612e-08
-0.0030369
2.01885e-08
-0.0036636
1.94718e-08
-0.00428016
1.85941e-08
-0.00488548
1.76409e-08
1.66517e-08
-0.00547993
-0.000197101
0.000197108
-0.000620646
0.00042356
-0.00116751
0.000546882
-0.00177422
0.000606731
-0.00240393
0.000629732
-0.0030369
0.000632987
-0.0036636
0.000626721
-0.00428016
0.000616578
-0.00488548
0.00060534
0.000594466
-0.00547993
-0.000193529
0.000390637
-0.00061075
0.000840781
-0.00115075
0.00108688
-0.00175097
0.00120695
-0.00237479
0.00125355
-0.00300236
0.00126056
-0.00362398
0.00124834
-0.00423556
0.00122816
-0.00483588
0.00120566
0.00118377
-0.00542518
-0.000186465
0.000577101
-0.000591141
0.00124546
-0.00111749
0.00161323
-0.00170483
0.00179429
-0.00231698
0.0018657
-0.00293393
0.00187751
-0.00354556
0.00185997
-0.00414741
0.00183002
-0.00473795
0.0017962
0.00176299
-0.00531717
-0.000176062
0.000753164
-0.000562165
0.00163156
-0.00106827
0.00211934
-0.00163651
0.00236252
-0.00223144
0.00246064
-0.00283283
0.0024789
-0.00342996
0.0024571
-0.00401777
0.00241783
-0.00459422
0.00237265
0.00232765
-0.00515889
-0.000162531
0.000915695
-0.000524285
0.00199332
-0.00100377
0.00259882
-0.00154691
0.00290566
-0.00211939
0.00303313
-0.00270072
0.00306022
-0.00327945
0.00303583
-0.00384965
0.00298804
-0.00440853
0.00293152
0.00287407
-0.00495494
-0.000146111
0.00106181
-0.000478021
0.00232522
-0.000924712
0.00304551
-0.00143698
0.00341793
-0.00198209
0.00357823
-0.00253941
0.00361754
-0.00309664
0.00359306
-0.0036468
0.00353819
-0.0041859
0.00347062
0.00339982
-0.00471165
-0.000127053
0.00118886
-0.000423882
0.00262205
-0.000831755
0.00345338
-0.00130747
0.00389365
-0.00182049
0.00409125
-0.00235034
0.00414739
-0.00288395
0.00412668
-0.00341317
0.00406741
-0.00393242
0.00398987
0.00390453
-0.00443713
-0.000105605
0.00129446
-0.000362325
0.00287877
-0.00072533
0.00381639
-0.0011586
0.00432692
-0.00163461
0.00456726
-0.00213365
0.00464642
-0.00264226
0.00463529
-0.00315146
0.00457661
-0.00365406
0.00449247
0.00439094
-0.00414047
-8.20273e-05
0.00137649
-0.000293783
0.00309053
-0.000605617
0.00412822
-0.00098979
0.0047111
-0.00142275
0.00500022
-0.00188644
0.00511012
-0.00236787
0.00511672
-0.00285805
0.00506679
-0.00335081
0.00498523
0.00487008
-0.00382995
-5.66644e-05
0.00143316
-0.000218844
0.00325271
-0.000472724
0.0043821
-0.000799462
0.00503783
-0.00117992
0.00538068
-0.00159818
0.00552838
-0.00204294
0.00556148
-0.00250693
0.00553078
-0.00298925
0.00546755
0.00540666
-0.00352583
-3.01537e-05
0.00146331
-0.000138887
0.00336144
-0.000328008
0.00457122
-0.000587299
0.00529712
-0.000900928
0.00569431
-0.00125228
0.00587973
-0.00162682
0.00593602
-0.00201415
0.00591811
-0.0024103
0.0058637
0.00579409
-0.00279773
-3.57068e-06
0.00146688
-5.69549e-05
0.00341483
-0.000177218
0.00469149
-0.000363418
0.00548333
-0.000604463
0.00593535
-0.000885453
0.00616072
-0.00119216
0.00624272
-0.00151373
0.00623968
-0.00184315
0.00619311
0.00613367
-0.00218272
2.18515e-05
0.00144503
2.34335e-05
0.00341325
-2.67625e-05
0.00474168
-0.000137733
0.0055943
-0.00030463
0.00610225
-0.000516046
0.00637214
-0.000759405
0.00648608
-0.00102407
0.00650435
-0.0013016
0.00647065
0.00641699
-0.00158493
4.51582e-05
0.00139987
9.94585e-05
0.00335895
0.000118513
0.00472263
8.33858e-05
0.00562942
-8.07072e-06
0.0061937
-0.000148731
0.0065128
-0.00032801
0.00666536
-0.000535331
0.00671167
-0.000760971
0.00669629
0.00665103
-0.000995013
6.56794e-05
0.00133419
0.000168963
0.00325566
0.000254823
0.00463677
0.00029501
0.00558924
0.000280113
0.0062086
0.000212427
0.00658048
0.000100086
0.0067777
-4.67806e-05
0.00685854
-0.000217678
0.00686718
0.00683533
-0.000401972
8.29652e-05
0.00125123
0.000230278
0.00310835
0.00037898
0.00448807
0.000492678
0.00547554
0.000554811
0.00614647
0.000562418
0.00657288
0.000520564
0.00681955
0.000438268
0.00694083
0.000326185
0.00697927
0.00696608
0.000195431
9.67449e-05
0.00115448
0.000282142
0.00292295
0.000488278
0.00428193
0.00067224
0.00529158
0.00081082
0.00600789
0.000895544
0.00648815
0.00092774
0.00678736
0.000914479
0.00695409
0.000865828
0.00702792
0.00703873
0.000793178
0.000106901
0.00104758
0.000323669
0.00270618
0.000580462
0.00402514
0.00082981
0.00504223
0.00104275
0.00579494
0.0012053
0.0063256
0.00131446
0.0066782
0.00137447
0.00689408
0.00139399
0.0070084
0.00704854
0.00138418
0.000113451
0.000934129
0.000354342
0.00246529
0.000653766
0.00372571
0.000961865
0.00473413
0.00124518
0.00551163
0.00148457
0.00608621
0.00167232
0.00649046
0.00180908
0.00675732
0.00190121
0.00691628
0.00699083
0.00195892
0.000116541
0.000817588
0.000374039
0.0022078
0.000707039
0.00339271
0.0010655
0.00437567
0.00141305
0.00516408
0.00172611
0.00577315
0.00199225
0.00622432
0.00220792
0.00654164
0.00237633
0.00674787
0.00686129
0.00250587
0.000116431
0.000701156
0.000383041
0.00194119
0.000739858
0.0030359
0.00113875
0.00397678
0.00154217
0.00476065
0.00192326
0.00539206
0.00226523
0.00588235
0.0025601
0.00624677
0.00280718
0.0065008
0.00665642
0.00301205
0.000113521
0.000587635
0.00038211
0.0016726
0.000752731
0.00266527
0.00118094
0.00354857
0.00162987
0.00431172
0.00207078
0.00495115
0.00248338
0.00546976
0.00285535
0.0058748
0.00318164
0.00617451
0.00637401
0.00346404
0.000108275
0.00047936
0.000372352
0.00140852
0.000746969
0.00229066
0.00119277
0.00310277
0.00167525
0.00382925
0.00216545
0.00446095
0.00264072
0.00499448
0.00308502
0.0054305
0.00348879
0.00577074
0.00601362
0.00384918
0.000101225
0.000378135
0.000355176
0.00115457
0.000724653
0.00192118
0.00117632
0.0026511
0.00167948
0.00332609
0.0022066
0.00393382
0.00273418
0.0044669
0.0032434
0.00492129
0.00372045
0.00529369
0.00557685
0.00415722
9.28923e-05
0.000285243
0.000332096
0.000915364
0.000688291
0.00156499
0.00113465
0.00220474
0.00164541
0.00281533
0.00219601
0.00338322
0.00276373
0.00389918
0.00332828
0.00435673
0.00387224
0.00474974
0.00506728
0.00438181
8.37083e-05
0.000201535
0.000304455
0.000694617
0.000640303
0.00122914
0.00107104
0.001774
0.00157662
0.00230975
0.00213684
0.00282301
0.00273148
0.00330455
0.00334042
0.00374779
0.00394356
0.0041466
0.00448975
0.00452109
7.39164e-05
0.000127618
0.000273136
0.000495398
0.0005824
0.000919874
0.000987897
0.0013685
0.00147572
0.00182192
0.00203125
0.00226748
0.00263866
0.00269714
0.00328024
0.00310621
0.00393472
0.00349212
0.00384868
0.00457579
6.35281e-05
6.40903e-05
0.000238399
0.000320526
0.000515157
0.000643117
0.000885765
0.000997895
0.00134243
0.00136525
0.001877
0.00173291
0.00248025
0.00209389
0.00314036
0.0024461
0.00383877
0.00279371
0.00314571
0.00454174
5.24009e-05
1.16894e-05
0.000200104
0.000172824
0.000438312
0.000404909
0.000763494
0.000672713
0.00117295
0.000955796
0.00166478
0.00124108
0.00223789
0.00152078
0.00289141
0.00179259
0.0036198
0.00206532
0.00237725
0.00438826
4.05157e-05
-2.88263e-05
0.000158526
5.48134e-05
0.000352409
0.000211026
0.000620889
0.000404233
0.000963332
0.000613352
0.00138042
0.000823995
0.00187537
0.00102582
0.00245726
0.00121069
0.00314899
0.0013736
0.00151847
0.00400777
2.83906e-05
-5.72169e-05
0.000115713
-3.25095e-05
0.000262168
6.45711e-05
0.000466348
0.000200053
0.000725458
0.000354243
0.00103503
0.000514427
0.00138825
0.000672597
0.00177433
0.000824617
0.00217754
0.000970382
0.00112055
0.00257546
1.71043e-05
-7.43212e-05
7.56559e-05
-9.10612e-05
0.000177643
-3.74159e-05
0.000322151
5.55453e-05
0.00050623
0.000170163
0.000725114
0.000295544
0.000972522
0.000425189
0.00124163
0.000555505
0.00152867
0.000683344
0.000801697
0.00184753
7.46992e-06
-8.17911e-05
4.1203e-05
-0.000124794
0.000105263
-0.000101476
0.000200246
-3.94375e-05
0.00032486
4.55496e-05
0.000476729
0.000143674
0.000653235
0.000248683
0.000852664
0.000356076
0.00107547
0.000460536
0.00055216
0.00132501
-2.46566e-07
-8.15446e-05
1.32705e-05
-0.000138311
4.66715e-05
-0.000134877
0.000102374
-9.51398e-05
0.000181026
-3.31028e-05
0.000282515
4.21855e-05
0.000406752
0.000124446
0.000554289
0.000208539
0.000726198
0.000288626
0.000356787
0.000921572
-6.15275e-06
-7.53919e-05
-8.45386e-06
-0.00013601
9.81e-07
-0.000144312
2.62205e-05
-0.000120379
6.94938e-05
-7.6376e-05
0.000132165
-2.04857e-05
0.000215317
4.12932e-05
0.000319956
0.0001039
0.000446498
0.000162084
0.00021008
0.000593204
-1.05317e-05
-6.48601e-05
-2.48505e-05
-0.000121692
-3.37291e-05
-0.000135433
-3.18353e-05
-0.000122273
-1.58802e-05
-9.23311e-05
1.62637e-05
-5.26296e-05
6.60059e-05
-8.44904e-06
0.000134107
3.57995e-05
0.000220282
7.59087e-05
0.000107834
0.000322529
-1.36948e-05
-5.11653e-05
-3.6893e-05
-9.84933e-05
-5.94473e-05
-0.000112879
-7.51773e-05
-0.000106543
-8.01869e-05
-8.73216e-05
-7.20539e-05
-6.07627e-05
-4.94278e-05
-3.10751e-05
-1.1926e-05
-1.70227e-06
3.97007e-05
2.42819e-05
4.41801e-05
0.000103355
-1.58927e-05
-3.52726e-05
-4.53684e-05
-6.90175e-05
-7.77073e-05
-8.05403e-05
-0.000106221
-7.80296e-05
-0.000126713
-6.68296e-05
-0.000136706
-5.07695e-05
-0.000135024
-3.2757e-05
-0.000121601
-1.51257e-05
-9.74559e-05
1.37094e-07
1.1389e-05
-6.46647e-05
-1.72884e-05
-1.79842e-05
-5.07932e-05
-3.55128e-05
-8.94762e-05
-4.18572e-05
-0.00012638
-4.1126e-05
-0.000157182
-3.60277e-05
-0.000179436
-2.85148e-05
-0.000192125
-2.00682e-05
-0.00019539
-1.18612e-05
-0.000190387
-4.86543e-06
1.42378e-07
-0.000179141
-1.7969e-05
-5.34484e-05
-9.52611e-05
-0.000136337
-0.000172312
-0.000200774
-0.000220794
-0.00023261
-0.000237438
-0.000237266
0.000191726
-0.000427955
-1.05408e-06
0.0013359
-0.00113997
-4.21191e-06
0.00251157
-0.00117454
-1.12859e-06
0.00326907
-0.000761362
3.86602e-06
0.00391189
-0.000650021
7.1993e-06
0.00435525
-0.000447212
3.85104e-06
0.0047363
-0.000379954
-1.08986e-06
0.00500208
-0.000260203
-5.58426e-06
0.00527135
-0.000259381
-9.88894e-06
-0.000188909
-3.3176e-06
0.000303612
-0.00091076
0.00141854
-0.00225489
0.00256782
-0.00232382
0.00330871
-0.00150225
0.00393978
-0.00128109
0.00437645
-0.000883883
0.00475316
-0.000756668
0.00501708
-0.000524115
0.00528546
-0.000527771
-0.000382021
0.00052018
-0.00149569
0.00157803
-0.00331275
0.00267597
-0.00342176
0.00338491
-0.00221119
0.00399341
-0.00188959
0.00441735
-0.00130782
0.00478583
-0.00112515
0.00504625
-0.000784531
0.00531301
-0.000794534
-0.000576977
0.000827487
-0.00221993
0.0018034
-0.00428866
0.00282789
-0.00444625
0.00349191
-0.00287521
0.00406882
-0.0024665
0.00447522
-0.00171422
0.00483249
-0.00148242
0.00508846
-0.00104051
0.0053534
-0.00105947
-0.000775056
0.00120584
-0.00310337
0.00207922
-0.00516203
0.00301217
-0.00537921
0.00362161
-0.00348464
0.00416029
-0.00300518
0.004546
-0.00209994
0.00489029
-0.00182671
0.00514172
-0.00129193
0.00540523
-0.00132298
-0.000977901
0.00163105
-0.00414135
0.00238679
-0.00591777
0.00321506
-0.00620748
0.00376419
-0.00403378
0.00426095
-0.00350193
0.00462482
-0.00246381
0.00495585
-0.00215773
0.00520365
-0.00153973
0.00546696
-0.0015863
-0.00118763
0.00207495
-0.00529487
0.00270482
-0.00654765
0.00342125
-0.00692391
0.00390883
-0.00452136
0.00436314
-0.00395625
0.00470621
-0.00280688
0.00502528
-0.00247681
0.00527152
-0.00178597
0.00553672
-0.00185149
-0.00140685
0.00250713
-0.00647712
0.00301018
-0.0070507
0.0036147
-0.00752843
0.00404423
-0.00495089
0.00445895
-0.00437098
0.00478444
-0.00313237
0.00509451
-0.00278688
0.00534239
-0.00203384
0.00561242
-0.00212153
-0.00163873
0.00290997
-0.00753969
0.0032839
-0.00742462
0.00378135
-0.00802588
0.00415991
-0.00532945
0.00454085
-0.00475192
0.00485394
-0.00344545
0.00515946
-0.0030924
0.00541324
-0.00228763
0.00569192
-0.0024002
-0.00188689
0.00328828
-0.00825262
0.00352434
-0.00766068
0.00391039
-0.00841192
0.00424859
-0.00566766
0.00460209
-0.00510541
0.00490984
-0.0037532
0.00521603
-0.0033986
0.00548148
-0.00255308
0.00577255
-0.00269127
-0.00215622
0.0433398
-0.00100366
-0.0505888
0.0391626
-0.00348344
0.0371353
-0.00638463
0.0370085
-0.00554086
0.0369517
-0.00504857
0.0372201
-0.00402164
0.0375411
-0.00371959
0.0379718
-0.00298374
0.0383976
-0.00311712
-0.00272859
0.0523546
0.00321805
-0.0565763
0.0501784
-0.00130719
0.0476118
-0.00381813
0.0461044
-0.0040334
0.0449423
-0.00388654
0.0441903
-0.00326958
0.0436101
-0.00313943
0.0432894
-0.00266299
0.0430059
-0.00283369
-0.00268269
0.0538941
0.00443662
-0.0551126
0.0526096
-2.2763e-05
0.0509899
-0.00219835
0.049684
-0.00272758
0.0485826
-0.00278507
0.0477473
-0.00243428
0.0469981
-0.00239024
0.0464404
-0.00210533
0.0458953
-0.00228856
-0.00232075
0.0520408
0.00429945
-0.0519037
0.0516196
0.000398453
0.0507634
-0.00134215
0.0499074
-0.00187158
0.0491279
-0.00200557
0.0485081
-0.00181446
0.0479099
-0.00179206
0.0474089
-0.00160427
0.0468929
-0.00177265
-0.00189093
0.0499848
0.00362986
-0.0493152
0.0498426
0.000540654
0.0493894
-0.00088901
0.0488608
-0.00134296
0.0483377
-0.00148246
0.0479091
-0.00138589
0.0474836
-0.00136654
0.0471003
-0.00122099
0.0466936
-0.00136595
-0.0014982
0.0482853
0.00284272
-0.0474982
0.0482953
0.00053066
0.0480138
-0.000607503
0.0476534
-0.00098249
0.0472734
-0.00110247
0.0469487
-0.00106119
0.0466282
-0.00104611
0.046332
-0.000924747
0.0460118
-0.00104572
-0.00115721
0.0470772
0.00206592
-0.0463004
0.0471553
0.000452592
0.0469534
-0.000405691
0.0466713
-0.000700308
0.0463614
-0.000792634
0.046081
-0.000780802
0.0458072
-0.000772247
0.0455574
-0.000675024
0.0452824
-0.0007707
-0.000851382
0.0462633
0.00133915
-0.0455366
0.046391
0.000324917
0.0462336
-0.000248231
0.045986
-0.000452715
0.0457081
-0.000514807
0.0454435
-0.000516151
0.0451844
-0.000513144
0.0449546
-0.00044525
0.0446958
-0.000511885
-0.000562932
0.0457672
0.000657361
-0.0450854
0.0459262
0.000165911
0.045797
-0.00011901
0.045565
-0.000220765
0.0453015
-0.000251225
0.045042
-0.000256703
0.0447852
-0.000256381
0.0445626
-0.00022264
0.0443062
-0.000255448
-0.000281188
0.0455329
-0.0448755
0.0456988
0.0455798
0.045359
0.0451078
0.0448511
0.0445947
0.0443721
0.0441166
0.0567836
0.00229849
-0.05607
0.0573393
0.00290831
0.0576887
0.00349976
0.0577821
0.00406382
0.0575727
0.00459126
0.0570205
0.00507328
0.0560941
0.00550218
0.0547639
0.00587184
0.0529748
0.0061774
0.00639371
0.0513991
0.0016898
-0.0507905
0.0520529
0.00225455
0.0527377
0.00281494
0.0534357
0.00336589
0.0541252
0.0039017
0.0547823
0.00441617
0.0553817
0.00490284
0.0558981
0.00535538
0.0563075
0.00576804
0.00612488
0.0480899
0.00121521
-0.0476153
0.0486454
0.00169898
0.0492788
0.00218159
0.0499845
0.00266015
0.0507547
0.00313151
0.0515787
0.00359222
0.0524431
0.00403845
0.0533324
0.00446603
0.05423
0.00487045
0.00524225
0.045491
0.000889006
-0.0451648
0.0458974
0.00129265
0.0463844
0.00169455
0.0469521
0.00209247
0.0475994
0.00248414
0.0483244
0.00286722
0.0491236
0.00323933
0.0499916
0.00359796
0.0509218
0.0039403
0.00426036
0.0439017
0.000649587
-0.0436622
0.0442152
0.000979165
0.0446029
0.00130686
0.0450645
0.0016308
0.0455995
0.00194914
0.0462068
0.00225999
0.0468846
0.0025615
0.0476308
0.00285178
0.0484423
0.00312874
0.00338749
0.0428055
0.000467822
-0.0426238
0.0430573
0.000727448
0.0433788
0.0009853
0.0437698
0.00123986
0.0442293
0.00148963
0.0447562
0.0017331
0.0453488
0.00196882
0.0460053
0.00219531
0.0467231
0.00241096
0.00261238
0.0421115
0.00032345
-0.0419672
0.0423228
0.000516205
0.0426005
0.000707542
0.0429441
0.000896307
0.0433524
0.00108136
0.0438239
0.00126156
0.0443569
0.00143581
0.0449492
0.00160299
0.0455983
0.0017619
0.00191026
0.0416595
0.000203231
-0.0415393
0.0418448
0.000330884
0.0420948
0.000457577
0.0424086
0.000582536
0.0427849
0.000704995
0.0432223
0.000824192
0.0437187
0.000939381
0.0442719
0.00104982
0.0448791
0.00115473
0.00125275
0.0413948
9.77799e-05
-0.0412893
0.0415643
0.0001614
0.0417973
0.000224557
0.042093
0.000286863
0.04245
0.000347932
0.0428668
0.00040738
0.0433414
0.00046483
0.0438713
0.00051991
0.0444538
0.000572229
0.000621146
0.0412693
-0.0411715
0.0414307
0.0416553
0.0419421
0.04229
0.0426974
0.0431623
0.0436822
0.0442544
0.0481131
-0.00335495
-0.0475559
0.0488267
-0.00289629
0.0496496
-0.00240779
0.0505419
-0.00188739
0.051476
-0.00133607
0.0524332
-0.000761726
0.0533952
-0.000168862
0.0543406
0.000438835
0.0552429
0.00105663
0.00167874
0.0479868
-0.00340806
-0.0479337
0.0480831
-0.00299259
0.0482222
-0.00254681
0.0484098
-0.00207501
0.048652
-0.00157834
0.0489532
-0.00106287
0.0493167
-0.000532353
0.0497446
1.08921e-05
0.0502369
0.00056438
0.00112515
0.0468973
-0.00314864
-0.0471567
0.0466933
-0.00278858
0.0465498
-0.00240339
0.0464723
-0.00199747
0.0464669
-0.00157289
0.0465371
-0.00113307
0.0466852
-0.000680517
0.0469134
-0.000217247
0.0472231
0.00025466
0.000732945
0.045581
-0.00277239
-0.0459573
0.0452626
-0.00247019
0.0450056
-0.00214634
0.0448134
-0.00180528
0.0446894
-0.0014489
0.044636
-0.00107962
0.044655
-0.000699524
0.0447483
-0.000310567
0.0449177
8.52447e-05
0.000485819
0.0446586
-0.00235048
-0.0450805
0.0442905
-0.00210207
0.0439807
-0.00183653
0.0437323
-0.00155693
0.0435483
-0.00126487
0.0434309
-0.000962198
0.043382
-0.000650659
0.0434034
-0.000331945
0.0434964
-7.79824e-06
0.00031999
0.043988
-0.00190103
-0.0444375
0.0435905
-0.00170458
0.0432488
-0.00149482
0.0429659
-0.00127402
0.0427444
-0.00104339
0.0425866
-0.000804349
0.0424942
-0.000558287
0.0424688
-0.000306593
0.0425117
-5.06943e-05
0.000207943
0.0435572
-0.00143649
-0.0440217
0.043143
-0.00129041
0.0427828
-0.00113463
0.0424794
-0.000970627
0.0422354
-0.000799324
0.0420527
-0.000621736
0.0419334
-0.000438899
0.0418786
-0.000251866
0.0418896
-6.172e-05
0.00013043
0.0432782
-0.000961841
-0.0437529
0.042853
-0.000865174
0.0424805
-0.000762121
0.0421635
-0.000653613
0.0419044
-0.000540254
0.0417054
-0.000422707
0.0415682
-0.000301655
0.0414941
-0.000177802
0.0414842
-5.18728e-05
7.53915e-05
0.0431173
-0.000481732
-0.0435974
0.0426858
-0.000433722
0.0423062
-0.000382543
0.0419813
-0.000328635
0.0417133
-0.000272296
0.0415044
-0.000213849
0.0413564
-0.000153632
0.0412706
-9.19947e-05
0.041248
-2.92981e-05
3.40867e-05
0.0430434
-0.0435251
0.0426097
0.0422271
0.0418985
0.0416262
0.0414124
0.0412587
0.0411667
0.0411374
0.0429475
0.000174561
-0.000193124
0.0429915
0.000521064
-0.000565063
0.0430661
0.00087231
-0.000946886
0.0431888
0.00123648
-0.0013592
0.0433897
0.00161892
-0.00181983
0.0437124
0.00202388
-0.00234656
0.0442157
0.00245345
-0.00295675
0.0449715
0.00291008
-0.00366589
0.0460739
0.00336976
-0.00447217
0.00392188
-0.00540391
0.0429657
0.000137797
0.043073
0.00041378
0.0432542
0.000691115
0.0435197
0.000970981
0.0438844
0.00125419
0.0443673
0.00154097
0.0449904
0.00183039
0.0457779
0.00212252
0.0467459
0.00240181
0.00273404
0.0429665
0.000100186
0.0430779
0.000302452
0.0432627
0.000506255
0.0435251
0.00070858
0.0438708
0.000908528
0.044307
0.0011048
0.044842
0.00129531
0.0454862
0.00147835
0.0462441
0.00164394
0.00182144
0.0429586
7.04776e-05
0.0430476
0.0002135
0.043196
0.00035788
0.0434045
0.000500024
0.0436743
0.000638725
0.0440064
0.000772688
0.0444014
0.000900339
0.0448593
0.00102047
0.0453751
0.00112808
0.00123931
0.0429506
4.88237e-05
0.043016
0.000148057
0.0431257
0.000248214
0.0432793
0.000346402
0.0434765
0.000441558
0.0437165
0.000532632
0.0439984
0.000618481
0.0443207
0.000698175
0.0446799
0.000768922
0.00083866
0.0429445
3.32479e-05
0.0429917
0.000100835
0.0430709
0.00016902
0.0431816
0.00023575
0.0433229
0.000300249
0.0434937
0.000361776
0.0436926
0.00041959
0.0439177
0.000473095
0.0441658
0.000520819
0.000567021
0.0429403
2.18713e-05
0.0429748
6.63221e-05
0.0430327
0.000111146
0.0431135
0.000154985
0.0432164
0.000197315
0.0433405
0.000237647
0.0434846
0.000275502
0.0436472
0.000310492
0.0438262
0.000341787
0.000371546
0.0429376
1.32458e-05
0.0429637
4.01535e-05
0.0430076
6.72742e-05
0.0430688
9.37987e-05
0.0431467
0.000119412
0.0432405
0.000143824
0.0433493
0.000166757
0.0434718
0.000187985
0.0436065
0.000207074
0.000225124
0.0429359
6.24561e-06
0.0429571
1.89338e-05
0.0429927
3.17117e-05
0.0430423
4.42093e-05
0.0431054
5.628e-05
0.0431815