/*--------------------------------*- C++ -*----------------------------------*\
  =========                 |
  \\      /  F ield         | OpenFOAM: The Open Source CFD Toolbox
   \\    /   O peration     | Website:  https://openfoam.org
    \\  /    A nd           | Version:  6.0
     \\/     M anipulation  |
\*---------------------------------------------------------------------------*/
FoamFile
{
    version     2.0;
    format      ascii;
    class       volVectorField;
    location    "17";
    object      U;
}
// * * * * * * * * * * * * * * * * * * * * * * * * * * * * * * * * * * * * * //

dimensions      [0 1 -1 0 0 0 0];

internalField   nonuniform List<vector> 
2000
(
(-0.00199125 0.0017347 5.80315e-20)
(-0.00761749 0.00329232 6.89066e-20)
(-0.0153145 0.00364575 -6.5688e-20)
(-0.0222986 0.00331629 -1.34037e-19)
(-0.0276224 0.00261419 -9.36356e-20)
(-0.0311339 0.0017426 1.24749e-19)
(-0.0329316 0.000846974 7.26722e-20)
(-0.0332857 3.41031e-05 -2.9395e-20)
(-0.0326304 -0.00061678 -7.3395e-20)
(-0.0312602 -0.00104163 5.35143e-20)
(-0.00248919 0.00511637 -1.43828e-19)
(-0.00836449 0.00966814 1.98514e-19)
(-0.0157055 0.0106671 1.97972e-20)
(-0.021985 0.00965396 -1.1499e-19)
(-0.0263927 0.0075423 5.50213e-19)
(-0.0288531 0.00492933 -2.42167e-19)
(-0.0295127 0.00224381 -2.62022e-19)
(-0.0286682 -0.000195556 3.16049e-19)
(-0.0267699 -0.00214661 -3.11744e-19)
(-0.0241904 -0.00341635 1.57237e-19)
(-0.0034343 0.0082184 2.38893e-20)
(-0.0097179 0.0153847 8.47914e-21)
(-0.0162738 0.0168411 5.94823e-19)
(-0.0210909 0.0150745 2.08652e-19)
(-0.0236333 0.0115473 4.13715e-20)
(-0.0239769 0.00721179 3.42292e-19)
(-0.022361 0.00275462 -6.50185e-19)
(-0.019131 -0.00130067 1.41019e-20)
(-0.0147668 -0.00453654 -3.84535e-19)
(-0.00980313 -0.00662846 4.23669e-19)
(-0.00472113 0.0108595 -4.49245e-20)
(-0.0113871 0.0200273 2.58351e-19)
(-0.0165779 0.0216587 -7.52822e-19)
(-0.0190644 0.0190608 -9.73429e-20)
(-0.0187215 0.0141514 -5.54178e-19)
(-0.0158483 0.00816904 5.73971e-19)
(-0.0108184 0.00200961 -6.08858e-19)
(-0.00403978 -0.00361679 4.27619e-19)
(0.00397299 -0.00809931 1.79777e-19)
(0.0124265 -0.0109775 -2.03215e-19)
(-0.006182 0.0128638 -4.99739e-19)
(-0.0129152 0.0232153 4.48128e-21)
(-0.0159259 0.0246903 9.27098e-19)
(-0.0150371 0.0212315 2.7802e-19)
(-0.0106691 0.015079 -8.83961e-19)
(-0.00341606 0.00765606 5.49667e-19)
(0.00617687 -1.34634e-05 6.23251e-19)
(0.0176344 -0.00707474 -5.55705e-19)
(0.0304186 -0.012709 3.96279e-19)
(0.0433675 -0.0163171 9.72928e-20)
(-0.00757569 0.0140602 6.83269e-20)
(-0.0136599 0.024613 1.26614e-20)
(-0.0133518 0.0256081 -1.18491e-18)
(-0.00779175 0.0213773 -6.63043e-19)
(0.00192417 0.0143168 7.91066e-19)
(0.014833 0.00590079 -9.26484e-19)
(0.030174 -0.00284054 1.06192e-18)
(0.0474059 -0.0109965 -9.16503e-20)
(0.0660091 -0.017556 -2.98783e-19)
(0.0843375 -0.0217943 -8.68725e-19)
(-0.00857572 0.0142864 -1.48479e-19)
(-0.0127821 0.0239434 -2.71185e-19)
(-0.00761066 0.0241998 -3.33249e-19)
(0.00424598 0.0194704 7.11176e-19)
(0.0208986 0.0121236 1.31959e-18)
(0.0409353 0.00353686 -2.72704e-19)
(0.0633141 -0.00542083 -6.64204e-19)
(0.0874129 -0.0139562 2.02569e-19)
(0.112815 -0.0209667 -1.27649e-18)
(0.137315 -0.0256544 1.40193e-18)
(-0.00876653 0.0134026 9.08002e-19)
(-0.00926171 0.0210134 -4.95476e-19)
(0.00277817 0.0203774 9.67984e-19)
(0.022945 0.01564 -1.58173e-18)
(0.0484686 0.00897656 -7.56033e-19)
(0.0774009 0.00154827 -1.04744e-18)
(0.108311 -0.00611653 3.04259e-19)
(0.140418 -0.0136091 -8.47989e-19)
(0.173543 -0.0199631 1.84673e-18)
(0.20502 -0.02449 5.17196e-19)
(-0.00765885 0.0113222 6.65764e-20)
(-0.00195917 0.0157567 8.07113e-19)
(0.0194202 0.0141833 1.6042e-18)
(0.0503203 0.0101041 4.90557e-19)
(0.0870566 0.00540755 1.45195e-18)
(0.127052 0.00105547 7.96318e-20)
(0.168297 -0.00275971 -9.78081e-22)
(0.209587 -0.00608541 5.85735e-19)
(0.250997 -0.0082619 4.74647e-19)
(0.289961 -0.00970539 -1.53952e-18)
(-0.00473994 0.00805708 -5.37371e-19)
(0.0102536 0.00829411 -9.00301e-19)
(0.0438433 0.00578715 -1.3093e-18)
(0.0882994 0.00299846 3.074e-20)
(0.139163 0.00148712 -6.67882e-19)
(0.193331 0.00221609 1.05283e-18)
(0.248225 0.00550945 -2.89955e-18)
(0.301907 0.0115886 1.3021e-18)
(0.353726 0.021052 4.90158e-19)
(0.400953 0.0297608 1.53822e-18)
(0.000427162 0.00377721 2.68856e-19)
(0.0282475 -0.000970414 -1.02894e-18)
(0.077045 -0.00443058 9.18988e-19)
(0.137913 -0.0056802 -3.56706e-19)
(0.20602 -0.00372199 3.88025e-19)
(0.278402 0.00236805 8.45167e-19)
(0.353218 0.0133272 -1.13474e-18)
(0.430058 0.0300989 1.47648e-19)
(0.509894 0.051952 -5.43958e-19)
(0.595064 0.0689225 1.10215e-18)
(0.00810741 -0.00114086 3.84817e-19)
(0.0524135 -0.0111913 -9.32424e-19)
(0.119028 -0.0154883 1.27102e-18)
(0.198142 -0.0152366 -7.91917e-19)
(0.284562 -0.010556 -2.90491e-19)
(0.375229 -0.00130707 1.72007e-19)
(0.468329 0.0124222 8.89651e-20)
(0.563288 0.030322 1.20713e-18)
(0.659751 0.0496824 3.4761e-19)
(0.755417 0.0618176 1.48453e-18)
(0.0184087 -0.00613538 -3.43311e-19)
(0.0827909 -0.0210155 1.20516e-18)
(0.169314 -0.0254174 -1.00619e-18)
(0.26749 -0.023039 -1.1807e-18)
(0.371643 -0.0153622 1.65203e-18)
(0.478276 -0.00318037 -1.2566e-18)
(0.584986 0.0125762 3.31893e-19)
(0.690211 0.030797 -1.96802e-18)
(0.792168 0.048805 1.47414e-18)
(0.886868 0.0612638 7.36593e-20)
(0.0313371 -0.0105786 -4.47204e-19)
(0.11918 -0.028886 -4.32241e-19)
(0.227211 -0.0319274 -9.20814e-19)
(0.344536 -0.0260822 1.11618e-18)
(0.465036 -0.0142771 -5.64394e-20)
(0.584747 0.00179193 7.22227e-19)
(0.700726 0.0205237 1.31796e-18)
(0.810729 0.0404216 -4.05004e-19)
(0.912388 0.0593953 -1.43266e-18)
(1.00169 0.0744376 2.84445e-18)
(0.0468227 -0.0138627 -2.31052e-19)
(0.161138 -0.033301 -2.75672e-19)
(0.291712 -0.032908 4.96618e-19)
(0.427618 -0.0218332 -9.23421e-19)
(0.562498 -0.0044704 1.57684e-19)
(0.692139 0.0166309 1.4047e-19)
(0.813417 0.0393221 6.16238e-20)
(0.923979 0.0618985 -9.85326e-21)
(1.02163 0.0828606 -1.50975e-19)
(1.10299 0.100594 -2.40554e-18)
(0.0647065 -0.0154256 9.37982e-19)
(0.207933 -0.0329364 -6.54691e-19)
(0.361381 -0.0266464 8.35661e-21)
(0.51458 -0.00848139 -9.98195e-19)
(0.66128 0.0157291 -3.57452e-19)
(0.797398 0.0426614 3.34108e-19)
(0.920095 0.0697414 2.59735e-19)
(1.02747 0.0951797 -9.25542e-19)
(1.11807 0.118014 7.5684e-19)
(1.18952 0.137433 -9.92702e-19)
(0.0847091 -0.014756 4.04695e-19)
(0.258498 -0.0267027 -3.59831e-19)
(0.434318 -0.0119231 1.49551e-18)
(0.602763 0.0149852 1.52678e-19)
(0.758177 0.0468727 3.50645e-19)
(0.897092 0.0797884 1.56405e-18)
(1.01748 0.110912 -2.38977e-19)
(1.11841 0.13854 2.18332e-19)
(1.19954 0.162268 9.05258e-20)
(1.2598 0.181767 -1.1102e-19)
(0.1064 -0.0114038 2.8266e-19)
(0.311425 -0.0137862 6.80053e-19)
(0.508211 0.0119477 -7.29037e-19)
(0.689149 0.0488015 -2.47067e-19)
(0.849773 0.0885492 -3.05291e-19)
(0.987795 0.126867 4.72958e-19)
(1.10251 0.160959 -2.46246e-19)
(1.19438 0.189445 6.62661e-19)
(1.26444 0.212577 2.23278e-19)
(1.31304 0.230361 -3.63903e-19)
(0.129184 -0.00500525 -3.04637e-19)
(0.364995 0.0063029 2.70917e-19)
(0.580449 0.0450969 -5.78331e-19)
(0.770571 0.092482 2.49597e-19)
(0.93275 0.139566 -2.59086e-19)
(1.06645 0.182033 -3.23571e-19)
(1.17274 0.217463 -2.60133e-19)
(1.25376 0.245094 2.90853e-19)
(1.31203 0.265957 -5.49048e-19)
(1.34933 0.280353 3.31818e-19)
(0.152309 0.0046792 -1.08571e-19)
(0.417242 0.0336754 -2.12529e-19)
(0.648282 0.0870854 1.01212e-19)
(0.843946 0.144888 6.21153e-21)
(1.00416 0.198121 8.40668e-20)
(1.13064 0.242966 1.15488e-19)
(1.22656 0.277794 1.07183e-19)
(1.29586 0.302748 -1.4211e-19)
(1.34248 0.319753 1.21225e-19)
(1.36953 0.329412 -1.8982e-19)
(0.174895 0.0177245 -6.28691e-20)
(0.466067 0.0680132 -2.35945e-20)
(0.708993 0.136906 9.39979e-20)
(0.906494 0.204313 -4.32383e-20)
(1.06162 0.261963 1.15494e-19)
(1.17873 0.30711 -1.49175e-19)
(1.26323 0.339325 3.4548e-20)
(1.32083 0.359909 3.70799e-20)
(1.35669 0.371744 -1.56317e-20)
(1.37501 0.375743 5.90312e-20)
(0.195975 0.0340054 -6.7844e-20)
(0.509355 0.108539 -3.07197e-19)
(0.760083 0.193012 -2.13569e-20)
(0.955922 0.268582 6.36735e-21)
(1.10347 0.328553 -4.00511e-19)
(1.2099 0.371841 5.28501e-20)
(1.28284 0.399584 -4.50729e-20)
(1.32951 0.414405 -1.0911e-19)
(1.35603 0.42014 2.28189e-19)
(1.36747 0.418009 -4.16422e-19)
(0.21456 0.053172 -3.28147e-20)
(0.545121 0.154015 6.22491e-19)
(0.799431 0.253379 1.00299e-19)
(0.990551 0.335171 -5.48527e-19)
(1.1288 0.395206 -4.45515e-20)
(1.22414 0.434601 -5.27359e-19)
(1.28614 0.45633 3.87152e-19)
(1.32325 0.464403 -1.41006e-19)
(1.34224 0.463533 2.5036e-19)
(1.3487 0.455219 -1.84348e-19)
(0.229696 0.0746405 -2.06826e-19)
(0.571645 0.202776 1.98164e-19)
(0.825429 0.315599 -1.4305e-19)
(1.0094 0.401343 1.07735e-18)
(1.13747 0.459223 5.32573e-19)
(1.2221 0.492987 -1.23802e-19)
(1.27443 0.50759 4.18102e-19)
(1.30377 0.508379 -2.75447e-19)
(1.31717 0.500804 -7.74338e-20)
(1.32053 0.486619 5.07996e-19)
(0.240537 0.0976024 -3.58317e-19)
(0.587585 0.252799 4.57004e-19)
(0.837076 0.376999 -8.9944e-19)
(1.01218 0.464279 1.26717e-19)
(1.13001 0.518 2.84111e-19)
(1.20501 0.544814 -4.34159e-19)
(1.24944 0.551656 -5.10284e-19)
(1.27299 0.545068 2.2525e-19)
(1.28277 0.53105 -2.72577e-19)
(1.28475 0.511597 3.32329e-19)
(0.246404 0.121051 -9.04936e-20)
(0.592078 0.3018 -4.65091e-19)
(0.834023 0.434783 2.56965e-19)
(0.999326 0.521211 4.33922e-19)
(1.10755 0.569114 -2.60438e-19)
(1.17456 0.588135 -1.95271e-19)
(1.21313 0.587062 -1.11911e-19)
(1.23297 0.573395 -5.52598e-20)
(1.24099 0.553482 9.75801e-21)
(1.24311 0.529582 1.23701e-19)
(0.246841 0.143825 6.73326e-20)
(0.584797 0.347357 -3.93384e-19)
(0.816575 0.486176 6.57179e-19)
(0.971838 0.56955 -3.88869e-19)
(1.07171 0.610408 1.11978e-19)
(1.13272 0.621277 -1.57957e-19)
(1.16764 0.612556 1.70437e-19)
(1.1858 0.59242 3.81611e-20)
(1.19375 0.567332 -6.24419e-20)
(1.19729 0.539903 1.22818e-19)
(0.241664 0.164677 -1.77694e-19)
(0.565988 0.387054 3.48109e-19)
(0.78565 0.528587 -1.4951e-20)
(0.931246 0.607007 -7.69791e-20)
(1.02441 0.640059 -2.03186e-19)
(1.08166 0.642875 2.66161e-20)
(1.11521 0.627146 4.86715e-20)
(1.13368 0.601395 -1.41428e-19)
(1.14319 0.5719 1.6393e-19)
(1.14936 0.541778 1.43777e-19)
(0.230995 0.182352 4.68413e-20)
(0.536456 0.418639 -8.35875e-20)
(0.742702 0.559746 1.87496e-20)
(0.879426 0.631677 2.75902e-20)
(0.967742 0.656582 6.2678e-20)
(1.02352 0.651783 -1.35212e-19)
(1.05805 0.629938 -2.91591e-19)
(1.07907 0.599606 -1.20173e-19)
(1.09228 0.566553 -1.54306e-19)
(1.10268 0.534616 1.28875e-19)
(0.21528 0.195693 1.02471e-19)
(0.497538 0.440204 -1.63377e-19)
(0.68961 0.577878 1.58162e-19)
(0.81842 0.642164 -3.04871e-19)
(0.90358 0.658846 7.34176e-20)
(0.959849 0.646836 5.05161e-19)
(0.997423 0.619342 -1.55172e-19)
(1.0233 0.584661 1.82949e-19)
(1.04284 0.547947 2.69295e-19)
(1.05915 0.514957 9.80814e-19)
(0.195289 0.203763 6.69411e-19)
(0.451055 0.450363 -4.53983e-19)
(0.62863 0.581931 1.10845e-18)
(0.750398 0.637956 -1.89597e-19)
(0.833522 0.646787 9.53285e-19)
(0.891187 0.628057 5.98062e-19)
(0.932434 0.594722 -1.40419e-18)
(0.963686 0.553849 2.13427e-18)
(0.989564 0.507853 -4.51517e-19)
(1.00642 0.460949 8.89663e-19)
(0.172082 0.205907 -3.69821e-19)
(0.399275 0.448315 -2.64973e-19)
(0.562485 0.57159 2.5784e-19)
(0.678035 0.619528 -6.33771e-19)
(0.759771 0.622036 -1.98003e-18)
(0.818808 0.598998 -7.97226e-19)
(0.862797 0.563179 -7.17205e-19)
(0.897212 0.521717 3.48334e-19)
(0.92521 0.478124 2.89695e-18)
(0.942692 0.437348 -6.02307e-19)
(0.146918 0.20175 1.95831e-19)
(0.344782 0.433702 -7.93908e-19)
(0.494316 0.546828 1.74339e-19)
(0.604752 0.587175 -1.26993e-18)
(0.686148 0.585041 2.77891e-18)
(0.747383 0.559938 -3.22633e-19)
(0.794671 0.524074 1.51525e-18)
(0.832507 0.484239 -2.16921e-18)
(0.863421 0.443934 6.81093e-19)
(0.884722 0.407442 1.0549e-19)
(0.121136 0.191181 1.44489e-19)
(0.290205 0.406596 8.75098e-19)
(0.427178 0.50794 -2.5726e-18)
(0.533656 0.541264 1.25119e-18)
(0.615706 0.536005 -3.62053e-21)
(0.679962 0.510624 -4.22302e-19)
(0.731277 0.476426 5.32159e-19)
(0.773306 0.439611 -5.28143e-19)
(0.808232 0.40333 -1.81459e-18)
(0.834311 0.370838 -4.97646e-19)
(0.0960616 0.174354 4.73767e-19)
(0.238064 0.367511 5.31534e-19)
(0.3639 0.455653 2.19449e-18)
(0.467474 0.482543 -1.22098e-18)
(0.550891 0.475519 2.5165e-18)
(0.618627 0.45136 -5.41903e-19)
(0.674274 0.420137 -5.72473e-19)
(0.720759 0.38729 6.76707e-19)
(0.759988 0.355499 4.41126e-19)
(0.790923 0.327103 1.5989e-18)
(0.0729538 0.151686 -4.81319e-19)
(0.190687 0.317406 1.57295e-19)
(0.307024 0.391142 4.26496e-20)
(0.408579 0.412174 1.24544e-18)
(0.493751 0.404604 -3.10856e-18)
(0.565041 0.38296 5.28301e-19)
(0.624915 0.35582 1.16554e-18)
(0.675668 0.327744 -1.40891e-18)
(0.718982 0.300898 4.96249e-19)
(0.75444 0.276881 -2.30294e-18)
(0.0529529 0.123838 1.02618e-19)
(0.15013 0.257648 5.53403e-19)
(0.258749 0.315996 2.15213e-19)
(0.35898 0.33171 2.91734e-19)
(0.445981 0.324646 5.58724e-19)
(0.520547 0.306614 1.66288e-18)
(0.584198 0.284487 -2.03564e-18)
(0.638698 0.261877 -1.14613e-18)
(0.685564 0.240432 1.89895e-19)
(0.724943 0.221183 1.49387e-18)
(0.0370357 0.0916988 -6.20672e-19)
(0.118123 0.189967 -7.37213e-20)
(0.220896 0.232175 -6.18106e-19)
(0.320317 0.243033 8.80664e-20)
(0.408943 0.23734 -5.2896e-19)
(0.486221 0.223803 -6.03881e-19)
(0.552928 0.207441 -8.99786e-19)
(0.610422 0.190864 2.42395e-18)
(0.660103 0.175226 4.17973e-19)
(0.702597 0.16114 -6.3719e-19)
(0.0259755 0.0563466 3.34577e-19)
(0.0960122 0.1164 4.4212e-19)
(0.194865 0.141934 1.74044e-19)
(0.293837 0.148297 -9.39715e-19)
(0.38367 0.144616 -4.37389e-19)
(0.462877 0.136227 -9.42004e-20)
(0.531727 0.126183 1.83979e-19)
(0.591299 0.116062 1.47734e-19)
(0.642926 0.106546 -1.14167e-18)
(0.687581 0.0979521 6.55148e-19)
(0.0203083 0.0190057 -1.74244e-19)
(0.084722 0.0392061 -1.98174e-19)
(0.181609 0.047752 1.57906e-19)
(0.280385 0.0498467 1.40175e-19)
(0.370859 0.0485749 1.43649e-19)
(0.451067 0.0457334 2.19626e-19)
(0.521019 0.0423475 -1.15779e-20)
(0.581654 0.0389445 -2.87989e-19)
(0.634274 0.0357501 2.73449e-19)
(0.680035 0.0328608 -4.11377e-19)
(0.0203084 -0.0190084 -1.75383e-19)
(0.0847223 -0.039212 -1.88841e-19)
(0.181609 -0.0477594 1.74007e-19)
(0.280385 -0.0498548 3.40621e-19)
(0.370859 -0.0485831 2.26901e-19)
(0.451067 -0.0457415 -2.98946e-19)
(0.52102 -0.0423553 -1.62372e-19)
(0.581654 -0.038952 7.08423e-20)
(0.634275 -0.0357571 1.59164e-19)
(0.680035 -0.0328675 -9.47646e-20)
(0.0259758 -0.0563493 4.18493e-19)
(0.0960128 -0.116406 -5.31705e-19)
(0.194866 -0.141942 -4.41796e-20)
(0.293838 -0.148305 2.94532e-19)
(0.383671 -0.144624 -1.33129e-18)
(0.462878 -0.136235 5.68743e-19)
(0.531728 -0.126191 5.86921e-19)
(0.5913 -0.116069 -6.92782e-19)
(0.642927 -0.106553 6.6159e-19)
(0.687581 -0.0979587 -2.90473e-19)
(0.0370362 -0.0917015 -7.23644e-20)
(0.118124 -0.189973 -9.18653e-21)
(0.220897 -0.232182 -1.4356e-18)
(0.320318 -0.243041 -4.56464e-19)
(0.408944 -0.237348 -4.79109e-20)
(0.486222 -0.223811 -7.50837e-19)
(0.55293 -0.207449 1.3988e-18)
(0.610423 -0.190871 -4.92612e-20)
(0.660104 -0.175233 7.98504e-19)
(0.702598 -0.161147 -7.01801e-19)
(0.0529536 -0.123841 1.22174e-19)
(0.150132 -0.257653 -5.65146e-19)
(0.258751 -0.316003 1.73931e-18)
(0.358983 -0.331718 2.46194e-19)
(0.445983 -0.324654 1.20956e-18)
(0.520549 -0.306621 -1.1821e-18)
(0.5842 -0.284495 1.24083e-18)
(0.6387 -0.261884 -8.94695e-19)
(0.685565 -0.240439 -3.92993e-19)
(0.724944 -0.221189 3.33543e-19)
(0.0729547 -0.151688 1.09008e-18)
(0.190689 -0.317412 2.82067e-21)
(0.307026 -0.391148 -1.83183e-18)
(0.408581 -0.412182 -5.31271e-19)
(0.493754 -0.404612 1.76454e-18)
(0.565043 -0.382968 -1.03376e-18)
(0.624918 -0.355827 -1.19665e-18)
(0.67567 -0.327751 1.07671e-18)
(0.718984 -0.300905 -7.32732e-19)
(0.754442 -0.276888 -1.58026e-19)
(0.0960627 -0.174357 -1.62775e-19)
(0.238067 -0.367517 -7.62341e-21)
(0.363903 -0.45566 1.98639e-18)
(0.467477 -0.48255 1.13898e-18)
(0.550894 -0.475526 -1.3429e-18)
(0.61863 -0.451367 1.62619e-18)
(0.674277 -0.420144 -1.76365e-18)
(0.720761 -0.387296 1.75754e-19)
(0.759991 -0.355505 5.25468e-19)
(0.790926 -0.327109 1.21493e-18)
(0.121137 -0.191183 1.85995e-19)
(0.290207 -0.4066 2.99192e-19)
(0.427182 -0.507946 3.2498e-19)
(0.53366 -0.541271 -1.04821e-18)
(0.615709 -0.536012 -1.86621e-18)
(0.679965 -0.510631 3.93094e-19)
(0.731281 -0.476433 1.13834e-18)
(0.77331 -0.439617 -3.25716e-19)
(0.808235 -0.403336 1.95945e-18)
(0.834314 -0.370844 -1.91044e-18)
(0.14692 -0.201752 -1.05232e-18)
(0.344785 -0.433707 4.03069e-19)
(0.49432 -0.546834 -1.0912e-18)
(0.604756 -0.587181 1.76365e-18)
(0.686152 -0.585048 8.81993e-19)
(0.747387 -0.559944 1.24524e-18)
(0.794675 -0.524081 -2.87555e-19)
(0.832511 -0.484245 1.13581e-18)
(0.863425 -0.44394 -2.40403e-18)
(0.884725 -0.407447 -6.26859e-19)
(0.172083 -0.205909 6.2864e-20)
(0.399278 -0.44832 -7.05232e-19)
(0.56249 -0.571596 -1.12591e-18)
(0.678039 -0.619534 -4.78546e-19)
(0.759776 -0.622042 -1.35162e-18)
(0.818813 -0.599005 -1.38131e-19)
(0.862801 -0.563185 1.18568e-19)
(0.897217 -0.521723 -5.27594e-19)
(0.925214 -0.478129 -5.90701e-19)
(0.942696 -0.437353 1.55722e-18)
(0.195291 -0.203764 3.30669e-19)
(0.451059 -0.450367 4.6013e-19)
(0.628635 -0.581936 8.26455e-19)
(0.750403 -0.637962 3.73309e-20)
(0.833527 -0.646793 5.53029e-19)
(0.891192 -0.628063 -7.55675e-19)
(0.932439 -0.594728 2.30945e-18)
(0.963691 -0.553854 -1.01909e-18)
(0.989568 -0.507858 -5.01407e-19)
(1.00642 -0.460954 -1.51279e-18)
(0.215282 -0.195694 -1.29683e-19)
(0.497542 -0.440208 2.24264e-19)
(0.689615 -0.577882 -2.30782e-19)
(0.818425 -0.642169 1.25532e-19)
(0.903586 -0.658852 -1.48639e-19)
(0.959855 -0.646842 -3.82245e-19)
(0.997429 -0.619347 5.02576e-19)
(1.02331 -0.584666 -1.66433e-19)
(1.04284 -0.547952 2.55123e-19)
(1.05915 -0.514961 -5.5725e-19)
(0.230997 -0.182353 -4.24034e-21)
(0.536461 -0.418643 -1.14411e-19)
(0.742708 -0.55975 3.25443e-20)
(0.879432 -0.631682 1.37181e-19)
(0.967748 -0.656587 -6.80532e-20)
(1.02353 -0.651788 1.91661e-20)
(1.05806 -0.629943 -1.63419e-20)
(1.07908 -0.59961 -3.71139e-19)
(1.09229 -0.566558 -1.74325e-19)
(1.10269 -0.53462 -5.43754e-19)
(0.241666 -0.164679 -9.88132e-20)
(0.565992 -0.387057 3.4918e-19)
(0.785656 -0.528591 -2.19611e-19)
(0.931252 -0.607011 -8.69037e-20)
(1.02442 -0.640064 4.93062e-20)
(1.08167 -0.64288 5.93454e-20)
(1.11521 -0.627151 -3.83677e-21)
(1.13369 -0.601399 2.72895e-19)
(1.1432 -0.571903 -2.38077e-19)
(1.14936 -0.541782 -2.72436e-21)
(0.246842 -0.143826 -2.40043e-19)
(0.584802 -0.347359 -1.51781e-19)
(0.816581 -0.48618 -3.76033e-19)
(0.971845 -0.569554 4.28376e-19)
(1.07171 -0.610412 -3.12552e-20)
(1.13273 -0.621281 1.42897e-19)
(1.16764 -0.612559 1.66436e-19)
(1.18581 -0.592424 -5.98103e-20)
(1.19376 -0.567335 3.62131e-20)
(1.19729 -0.539906 -1.28278e-19)
(0.246406 -0.121052 -1.62666e-19)
(0.592082 -0.301802 -2.0889e-19)
(0.83403 -0.434786 3.15829e-19)
(0.999333 -0.521214 -4.76271e-19)
(1.10756 -0.569118 8.35481e-20)
(1.17457 -0.588139 4.28527e-20)
(1.21314 -0.587065 9.26259e-20)
(1.23298 -0.573398 -6.04461e-20)
(1.241 -0.553485 -7.38481e-20)
(1.24312 -0.529584 -2.63341e-19)
(0.240539 -0.0976032 6.78088e-19)
(0.58759 -0.252801 -5.30247e-19)
(0.837083 -0.377002 2.46036e-20)
(1.01219 -0.464282 -6.81622e-19)
(1.13001 -0.518003 -1.98739e-19)
(1.20502 -0.544816 1.59296e-19)
(1.24945 -0.551659 1.17141e-19)
(1.273 -0.54507 -3.91278e-19)
(1.28278 -0.531052 1.75581e-19)
(1.28476 -0.511599 -3.14092e-19)
(0.229698 -0.0746411 3.35981e-19)
(0.571649 -0.202777 -3.32446e-19)
(0.825436 -0.315601 1.19521e-18)
(1.0094 -0.401345 9.57508e-20)
(1.13747 -0.459226 2.71359e-19)
(1.2221 -0.49299 9.71735e-19)
(1.27444 -0.507592 -2.01047e-19)
(1.30378 -0.508381 5.07765e-20)
(1.31717 -0.500806 -2.72967e-20)
(1.32054 -0.486621 -5.05772e-20)
(0.214562 -0.0531724 2.58743e-19)
(0.545126 -0.154016 5.88618e-19)
(0.799438 -0.253381 -6.00727e-19)
(0.990559 -0.335173 -1.82919e-19)
(1.12881 -0.395208 -1.94112e-19)
(1.22415 -0.434602 3.80976e-19)
(1.28614 -0.456331 -1.80221e-19)
(1.32326 -0.464405 4.25889e-19)
(1.34224 -0.463534 1.03431e-19)
(1.34871 -0.45522 -1.8165e-19)
(0.195977 -0.0340057 -2.79529e-19)
(0.509359 -0.10854 2.59481e-19)
(0.76009 -0.193013 -5.33095e-19)
(0.95593 -0.268583 2.23376e-19)
(1.10348 -0.328554 -2.24041e-19)
(1.20991 -0.371842 -2.66754e-19)
(1.28285 -0.399585 -2.07359e-19)
(1.32951 -0.414406 2.2896e-19)
(1.35604 -0.420141 -3.99115e-19)
(1.36748 -0.418009 2.52596e-19)
(0.174896 -0.0177246 -1.04677e-19)
(0.466071 -0.0680136 -2.0556e-19)
(0.709 -0.136907 9.67135e-20)
(0.906502 -0.204314 7.10423e-21)
(1.06163 -0.261964 7.70817e-20)
(1.17873 -0.30711 1.10562e-19)
(1.26324 -0.339325 9.43734e-20)
(1.32084 -0.359909 -1.27637e-19)
(1.35669 -0.371743 1.04348e-19)
(1.37502 -0.375743 -1.64944e-19)
(0.152311 -0.00467918 -6.59555e-20)
(0.417247 -0.0336754 -2.65859e-20)
(0.648288 -0.0870855 9.92007e-20)
(0.843954 -0.144889 -4.47247e-20)
(1.00416 -0.198121 1.25376e-19)
(1.13065 -0.242966 -1.58554e-19)
(1.22657 -0.277794 4.0672e-20)
(1.29587 -0.302748 3.49788e-20)
(1.34249 -0.319753 -1.26064e-20)
(1.36954 -0.329411 5.75546e-20)
(0.129186 0.00500539 -7.91043e-20)
(0.364999 -0.0063026 -3.35656e-19)
(0.580455 -0.0450965 -2.70897e-20)
(0.770579 -0.0924816 1.08105e-20)
(0.932759 -0.139566 -4.66353e-19)
(1.06646 -0.182032 4.92478e-20)
(1.17275 -0.217463 -5.21743e-20)
(1.25377 -0.245093 -1.42161e-19)
(1.31204 -0.265956 3.15064e-19)
(1.34934 -0.280352 -5.73374e-19)
(0.106401 0.011404 -4.48608e-20)
(0.311429 0.0137867 7.20012e-19)
(0.508217 -0.011947 9.61562e-20)
(0.689157 -0.0488007 -6.50811e-19)
(0.849782 -0.0885483 -7.78315e-20)
(0.987804 -0.126866 -7.34803e-19)
(1.10252 -0.160957 5.71645e-19)
(1.19439 -0.189443 -2.32306e-19)
(1.26444 -0.212575 4.40246e-19)
(1.31304 -0.230359 -3.88853e-19)
(0.0847104 0.0147563 -2.53768e-19)
(0.258501 0.0267034 2.95783e-19)
(0.434324 0.0119241 -2.06675e-19)
(0.602771 -0.014984 1.42864e-18)
(0.758185 -0.0468714 7.56689e-19)
(0.897102 -0.079787 -1.98271e-19)
(1.01749 -0.110911 7.7105e-19)
(1.11842 -0.138538 -5.04465e-19)
(1.19955 -0.162266 -1.62662e-19)
(1.2598 -0.181764 1.1732e-18)
(0.0647077 0.0154259 -4.69273e-19)
(0.207936 0.0329373 7.00995e-19)
(0.361387 0.0266476 -1.33002e-18)
(0.514587 0.00848281 2.30301e-19)
(0.661289 -0.0157275 5.74664e-19)
(0.797407 -0.0426596 -7.22012e-19)
(0.920105 -0.0697395 -1.27971e-18)
(1.02748 -0.0951776 6.861e-19)
(1.11808 -0.118011 -8.92878e-19)
(1.18953 -0.13743 1.42898e-18)
(0.0468237 0.013863 -1.15985e-19)
(0.161141 0.033302 -7.05693e-19)
(0.291717 0.0329093 3.48326e-19)
(0.427625 0.0218347 8.72274e-19)
(0.562506 0.00447209 -4.68504e-19)
(0.692148 -0.016629 -4.62638e-19)
(0.813426 -0.03932 -7.84862e-19)
(0.923988 -0.0618962 -3.59786e-19)
(1.02164 -0.0828581 -8.64954e-20)
(1.103 -0.100592 1.42775e-18)
(0.0313379 0.010579 1.94937e-19)
(0.119182 0.0288869 -9.5906e-19)
(0.227215 0.0319285 1.64119e-18)
(0.344542 0.0260836 -9.1386e-19)
(0.465044 0.0142786 5.92611e-19)
(0.584756 -0.00179015 -7.37428e-19)
(0.700735 -0.0205216 8.21446e-19)
(0.810739 -0.0404192 7.17597e-19)
(0.912398 -0.0593926 1.56787e-18)
(1.0017 -0.0744346 -2.59211e-18)
(0.0184093 0.00613565 -6.05694e-19)
(0.0827929 0.0210162 1.21693e-18)
(0.169318 0.0254182 1.63741e-20)
(0.267496 0.02304 -4.38469e-19)
(0.371651 0.0153633 -2.32683e-19)
(0.478285 0.00318169 1.86323e-19)
(0.584996 -0.0125745 -1.32289e-18)
(0.690222 -0.0307949 1.02212e-18)
(0.792179 -0.0488025 -1.31736e-18)
(0.886878 -0.0612607 -6.01096e-19)
(0.00810778 0.00114098 1.04277e-18)
(0.052415 0.0111916 -3.25295e-19)
(0.119031 0.0154884 -6.10792e-19)
(0.198147 0.0152367 1.65908e-18)
(0.284569 0.0105562 -1.6302e-18)
(0.375238 0.00130746 9.1114e-19)
(0.468339 -0.0124214 9.70717e-19)
(0.563299 -0.0303207 2.65684e-19)
(0.659763 -0.0496804 2.76263e-19)
(0.755429 -0.0618148 -3.91603e-19)
(0.000427287 -0.00377736 -9.9759e-19)
(0.0282483 0.000969922 9.48646e-19)
(0.0770473 0.00442964 -8.39718e-19)
(0.137917 0.00567896 1.05403e-18)
(0.206026 0.00372067 -3.14892e-19)
(0.27841 -0.00236922 -1.09439e-18)
(0.353228 -0.013328 3.13811e-19)
(0.43007 -0.0300991 -5.17719e-19)
(0.509907 -0.0519513 -6.1312e-19)
(0.595078 -0.0689208 -1.91193e-18)
(-0.00474009 -0.00805762 -1.247e-18)
(0.0102539 -0.00829559 9.91598e-19)
(0.0438449 -0.00578953 -1.94355e-18)
(0.0883028 -0.00300147 3.4764e-19)
(0.139169 -0.00149046 -1.34726e-18)
(0.193339 -0.00221945 -8.08411e-19)
(0.248236 -0.00551254 1.93508e-18)
(0.301919 -0.0115912 -2.64635e-18)
(0.353741 -0.0210536 5.09425e-19)
(0.40097 -0.0297608 -8.40658e-19)
(-0.00765929 -0.0113233 6.14357e-19)
(-0.00195951 -0.0157595 2.6024e-19)
(0.019421 -0.0141875 -7.76255e-20)
(0.050323 -0.0101092 7.38866e-19)
(0.0870616 -0.00541329 2.1705e-18)
(0.12706 -0.00106136 7.49473e-19)
(0.168307 0.00275403 7.74689e-19)
(0.2096 0.00608032 -2.67814e-19)
(0.251012 0.00825793 -2.50137e-18)
(0.289978 0.00970316 6.34139e-19)
(-0.00876724 -0.0134044 -1.73598e-19)
(-0.00926261 -0.0210176 5.52656e-19)
(0.00277838 -0.0203836 -1.44813e-19)
(0.022947 -0.0156476 1.02248e-18)
(0.0484729 -0.00898487 -2.36421e-18)
(0.0774077 -0.0015568 2.00879e-19)
(0.10832 0.00610827 -1.12586e-18)
(0.140431 0.0136016 1.6575e-18)
(0.173558 0.019957 -4.84332e-19)
(0.205038 0.024486 -6.92364e-20)
(-0.00857664 -0.0142888 -1.18156e-19)
(-0.0127834 -0.0239493 -6.64597e-19)
(-0.00761103 -0.0242082 1.6721e-18)
(0.00424735 -0.0194805 -8.81552e-19)
(0.0209022 -0.0121345 6.18545e-20)
(0.0409412 -0.00354799 2.82966e-19)
(0.0633227 0.00541011 -2.58917e-19)
(0.0874242 0.0139465 3.36306e-19)
(0.112829 0.0209587 1.16606e-18)
(0.137332 0.0256487 3.0531e-19)
(-0.00757675 -0.0140634 -2.65214e-19)
(-0.0136615 -0.0246206 -2.95047e-19)
(-0.0133526 -0.0256187 -1.30958e-18)
(-0.00779095 -0.0213898 6.97453e-19)
(0.00192699 -0.0143302 -1.43877e-18)
(0.0148381 -0.00591438 3.26828e-19)
(0.0301815 0.00282752 3.67578e-19)
(0.047416 0.0109847 -3.88727e-19)
(0.0660218 0.0175461 -2.51591e-19)
(0.0843529 0.0217871 -1.13048e-18)
(-0.00618309 -0.0128678 2.07314e-19)
(-0.0129169 -0.0232245 -4.87949e-20)
(-0.0159269 -0.024703 9.39195e-22)
(-0.0150367 -0.0212462 -6.29637e-19)
(-0.010667 -0.0150948 1.5939e-18)
(-0.00341188 -0.00767187 -2.48633e-19)
(0.00618323 -1.61679e-06 -6.20635e-19)
(0.017643 0.0070611 7.59679e-19)
(0.0304296 0.0126975 -2.67051e-19)
(0.0433809 0.0163084 1.47601e-18)
(-0.00472214 -0.0108643 -3.89233e-20)
(-0.0113887 -0.020038 -2.28176e-19)
(-0.0165789 -0.0216733 -9.00576e-20)
(-0.0190643 -0.0190776 -1.15063e-19)
(-0.0187199 -0.0141691 -2.4735e-19)
(-0.0158451 -0.00818676 -7.76881e-19)
(-0.0108133 -0.00202645 9.7186e-19)
(-0.00403282 0.00360157 5.67839e-19)
(0.00398189 0.00808642 -1.01686e-19)
(0.0124375 0.0109675 -9.05342e-19)
(-0.00343512 -0.00822377 2.21068e-19)
(-0.00971923 -0.0153967 3.86022e-20)
(-0.0162747 -0.0168572 2.61402e-19)
(-0.0210909 -0.0150929 -2.99521e-20)
(-0.0236322 -0.0115666 2.38028e-19)
(-0.0239745 -0.00723101 2.68593e-19)
(-0.0223572 -0.00277284 4.02763e-19)
(-0.0191259 0.00128421 -1.141e-18)
(-0.0147602 0.00452253 -2.10636e-19)
(-0.00979501 0.0066175 3.7747e-19)
(-0.00248971 -0.00512218 -1.11647e-19)
(-0.00836534 -0.00968104 -1.58659e-19)
(-0.0157061 -0.0106843 -7.63017e-20)
(-0.021985 -0.00967352 3.73255e-19)
(-0.026392 -0.00756277 1.81177e-19)
(-0.0288516 -0.0049496 3.71599e-20)
(-0.0295104 -0.00226297 -8.05621e-20)
(-0.028665 0.000178247 -6.25067e-20)
(-0.0267658 0.00213184 5.3659e-19)
(-0.0241853 0.0034047 -3.6543e-19)
(-0.00199143 -0.00174074 5.692e-20)
(-0.00761779 -0.00330569 7.08081e-20)
(-0.0153147 -0.00366353 -6.03702e-20)
(-0.0222986 -0.00333645 -5.52166e-20)
(-0.0276221 -0.00263525 -5.72523e-20)
(-0.0311334 -0.00176342 -9.13652e-20)
(-0.0329307 -0.000866632 2.9289e-21)
(-0.0332846 -5.18462e-05 1.26781e-19)
(-0.032629 0.000601627 -1.27316e-19)
(-0.0312585 0.00102964 2.3164e-19)
(-0.00746101 -0.00260912 1.67911e-20)
(0.0635291 -0.00661581 1.0255e-20)
(0.279843 -0.00676614 1.42424e-21)
(0.381517 -0.00449241 -9.58609e-22)
(0.484837 -0.00389323 -6.93095e-23)
(0.564408 -0.00276974 1.73886e-22)
(0.615432 -0.00238231 2.5354e-22)
(0.681636 -0.00171644 -6.45292e-23)
(0.702589 -0.00169487 -2.42157e-25)
(0.772485 -0.00136805 3.05097e-22)
(0.00937847 -0.00815496 2.64796e-20)
(0.0788255 -0.0197788 1.06405e-21)
(0.291395 -0.0201679 -1.83208e-20)
(0.390313 -0.0132888 1.52665e-20)
(0.491614 -0.0114409 1.00566e-21)
(0.569638 -0.00817122 -8.02224e-22)
(0.619757 -0.00713055 1.03467e-21)
(0.68495 -0.00524495 1.563e-22)
(0.705533 -0.00528079 4.95678e-22)
(0.774607 -0.00416203 -2.81526e-22)
(0.0427631 -0.0145827 2.73368e-20)
(0.10894 -0.0324606 -3.69604e-20)
(0.314051 -0.0331082 1.86356e-20)
(0.40757 -0.0217829 -1.27597e-20)
(0.504913 -0.0187568 9.65919e-22)
(0.579924 -0.013419 -7.71532e-22)
(0.628271 -0.0117588 -4.07008e-22)
(0.691476 -0.00868871 2.84215e-23)
(0.711325 -0.00879485 -3.86647e-22)
(0.778766 -0.00690728 -4.12643e-22)
(0.0920824 -0.0223707 -4.1998e-20)
(0.15294 -0.0443612 -5.09633e-20)
(0.346971 -0.0453005 -2.39969e-20)
(0.432678 -0.0297906 1.3039e-20)
(0.524275 -0.0256989 -1.66579e-20)
(0.594942 -0.0184186 4.8161e-21)
(0.640733 -0.0161922 -3.29503e-22)
(0.701062 -0.0119944 2.93052e-22)
(0.719857 -0.0121913 -4.21056e-22)
(0.784922 -0.00957273 1.51586e-22)
(0.156392 -0.0317914 1.16819e-19)
(0.209486 -0.0551923 7.45561e-20)
(0.388949 -0.0564794 2.70147e-20)
(0.464752 -0.0371489 -2.55986e-20)
(0.549032 -0.0321412 1.3664e-20)
(0.614214 -0.0230863 3.9243e-21)
(0.656765 -0.0203636 3.32584e-21)
(0.713443 -0.0151144 5.30372e-22)
(0.730909 -0.0154282 1.0545e-21)
(0.792932 -0.0121293 -8.09862e-22)
(0.234394 -0.0427702 -5.1916e-20)
(0.276885 -0.0646377 3.90653e-20)
(0.438485 -0.0663899 4.89123e-21)
(0.502697 -0.0437136 2.88658e-20)
(0.578362 -0.0379748 -6.68567e-21)
(0.63715 -0.0273507 -4.74444e-21)
(0.675911 -0.024215 -3.4179e-21)
(0.728302 -0.0180073 -4.64957e-22)
(0.744224 -0.0184677 -4.86322e-22)
(0.802641 -0.0145505 8.39119e-22)
(0.324444 -0.0550243 -3.90153e-20)
(0.35315 -0.0724315 -1.03194e-19)
(0.493864 -0.0748276 -1.77518e-20)
(0.545264 -0.0493676 -1.57584e-20)
(0.611326 -0.0431152 8.01933e-21)
(0.66307 -0.0311556 -2.36805e-21)
(0.697639 -0.0276995 3.397e-21)
(0.745265 -0.0206389 8.55222e-22)
(0.759497 -0.0212783 -1.41586e-22)
(0.813857 -0.0168127 3.25098e-22)