/*--------------------------------*- C++ -*----------------------------------*\
  =========                 |
  \\      /  F ield         | OpenFOAM: The Open Source CFD Toolbox
   \\    /   O peration     | Website:  https://openfoam.org
    \\  /    A nd           | Version:  6.0
     \\/     M anipulation  |
\*---------------------------------------------------------------------------*/
FoamFile
{
    version     2.0;
    format      ascii;
    class       volScalarField;
    location    "0.7";
    object      p;
}
// * * * * * * * * * * * * * * * * * * * * * * * * * * * * * * * * * * * * * //

dimensions      [0 2 -2 0 0 0 0];

internalField   nonuniform List<scalar> 
24000
(
1.00648
1.00621
1.00565
1.00485
1.00394
1.00303
1.00222
1.0015
1.0009
1.00042
1.00006
0.999829
1.00649
1.00627
1.00579
1.00508
1.00423
1.00335
1.00252
1.00175
1.00106
1.00049
1.00001
0.999701
1.00649
1.00625
1.00574
1.005
1.00411
1.00319
1.00234
1.00156
1.00089
1.00036
0.999899
0.999628
1.00649
1.00623
1.00571
1.00495
1.00405
1.00312
1.00226
1.00149
1.00083
1.00032
0.999868
0.999601
1.00649
1.00624
1.00573
1.00499
1.00411
1.0032
1.00235
1.00158
1.00091
1.00038
0.999884
0.999578
1.0065
1.00625
1.00574
1.00503
1.00417
1.00327
1.00243
1.00165
1.00097
1.0004
0.999871
0.999528
1.0065
1.00625
1.00574
1.00503
1.00418
1.00327
1.00242
1.00164
1.00094
1.00036
0.999816
0.999458
1.00651
1.00625
1.00574
1.00502
1.00416
1.00325
1.00239
1.0016
1.00089
1.00031
0.999754
0.999391
1.00652
1.00626
1.00574
1.00501
1.00415
1.00324
1.00238
1.00157
1.00086
1.00027
0.999705
0.999334
1.00653
1.00627
1.00575
1.00502
1.00416
1.00325
1.00239
1.00157
1.00085
1.00025
0.999671
0.999286
1.00654
1.00628
1.00576
1.00503
1.00417
1.00327
1.0024
1.00158
1.00085
1.00023
0.999641
0.999239
1.00655
1.0063
1.00578
1.00504
1.00418
1.00328
1.00241
1.00159
1.00085
1.00022
0.999609
0.999191
1.00656
1.00632
1.00579
1.00506
1.0042
1.00329
1.00242
1.00159
1.00084
1.00019
0.999575
0.999144
1.00657
1.00634
1.00582
1.00508
1.00421
1.0033
1.00242
1.00159
1.00083
1.00017
0.999541
0.999097
1.00658
1.00636
1.00584
1.00511
1.00424
1.00332
1.00243
1.00159
1.00082
1.00015
0.999508
0.999053
1.0066
1.00638
1.00587
1.00513
1.00427
1.00334
1.00245
1.00159
1.00081
1.00013
0.999477
0.999009
1.00661
1.0064
1.00589
1.00516
1.0043
1.00337
1.00247
1.0016
1.00081
1.00012
0.999446
0.998966
1.00663
1.00642
1.00591
1.00519
1.00432
1.00339
1.00249
1.00161
1.0008
1.0001
0.999415
0.998922
1.00664
1.00644
1.00593
1.00521
1.00435
1.00342
1.0025
1.00161
1.00079
1.00007
0.999382
0.998879
1.00666
1.00646
1.00595
1.00523
1.00437
1.00343
1.00251
1.00162
1.00078
1.00005
0.999349
0.998837
1.00667
1.00648
1.00597
1.00526
1.00439
1.00345
1.00252
1.00162
1.00077
1.00003
0.999316
0.998795
1.00669
1.00649
1.00599
1.00528
1.00441
1.00347
1.00253
1.00162
1.00076
1.00001
0.999284
0.998753
1.00671
1.00651
1.00601
1.0053
1.00443
1.00348
1.00254
1.00162
1.00075
0.999983
0.999251
0.998712
1.00673
1.00653
1.00603
1.00532
1.00445
1.0035
1.00255
1.00162
1.00074
0.99996
0.999218
0.99867
1.00675
1.00656
1.00605
1.00534
1.00447
1.00352
1.00256
1.00162
1.00073
0.999936
0.999184
0.998627
1.00677
1.00658
1.00607
1.00536
1.00449
1.00353
1.00257
1.00162
1.00072
0.99991
0.999149
0.998584
1.0068
1.0066
1.00609
1.00538
1.00451
1.00355
1.00258
1.00161
1.0007
0.999882
0.999112
0.998541
1.00682
1.00662
1.00611
1.0054
1.00453
1.00356
1.00258
1.00161
1.00069
0.999854
0.999075
0.998497
1.00685
1.00665
1.00614
1.00542
1.00455
1.00358
1.00259
1.0016
1.00067
0.999825
0.999038
0.998454
1.00687
1.00668
1.00616
1.00545
1.00457
1.00359
1.00259
1.0016
1.00065
0.999796
0.999
0.99841
1.0069
1.0067
1.00618
1.00547
1.00458
1.0036
1.0026
1.00159
1.00064
0.999767
0.998963
0.998367
1.00693
1.00673
1.00621
1.00549
1.0046
1.00361
1.0026
1.00159
1.00062
0.999738
0.998926
0.998323
1.00696
1.00676
1.00624
1.00552
1.00462
1.00363
1.00261
1.00158
1.0006
0.99971
0.998888
0.99828
1.00699
1.0068
1.00628
1.00555
1.00465
1.00365
1.00262
1.00158
1.00059
0.999682
0.998851
0.998236
1.00703
1.00683
1.00631
1.00558
1.00468
1.00366
1.00262
1.00158
1.00057
0.999654
0.998814
0.998192
1.00706
1.00687
1.00635
1.00561
1.0047
1.00369
1.00264
1.00158
1.00056
0.999627
0.998776
0.998148
1.0071
1.0069
1.00638
1.00565
1.00473
1.00371
1.00265
1.00158
1.00055
0.999599
0.998738
0.998102
1.00713
1.00694
1.00642
1.00569
1.00477
1.00373
1.00266
1.00158
1.00053
0.999571
0.998699
0.998057
1.00717
1.00698
1.00646
1.00572
1.0048
1.00375
1.00267
1.00157
1.00052
0.999541
0.998659
0.998011
1.00721
1.00702
1.0065
1.00576
1.00483
1.00378
1.00268
1.00157
1.0005
0.999512
0.998619
0.997964
1.00724
1.00706
1.00653
1.00579
1.00486
1.0038
1.00269
1.00157
1.00048
0.999481
0.998578
0.997917
1.00728
1.0071
1.00657
1.00583
1.00489
1.00382
1.0027
1.00157
1.00047
0.999449
0.998536
0.997869
1.00732
1.00714
1.00661
1.00586
1.00492
1.00384
1.00271
1.00156
1.00045
0.999417
0.998493
0.997821
1.00736
1.00718
1.00665
1.0059
1.00495
1.00386
1.00272
1.00156
1.00043
0.999385
0.99845
0.997772
1.00741
1.00722
1.00669
1.00593
1.00497
1.00388
1.00273
1.00155
1.00041
0.999351
0.998406
0.997722
1.00745
1.00726
1.00673
1.00597
1.005
1.0039
1.00274
1.00155
1.00039
0.999318
0.998362
0.997672
1.00749
1.0073
1.00677
1.00601
1.00503
1.00392
1.00275
1.00154
1.00037
0.999283
0.998316
0.997621
1.00754
1.00735
1.00681
1.00605
1.00507
1.00394
1.00276
1.00154
1.00035
0.999249
0.99827
0.997571
1.00758
1.0074
1.00686
1.00609
1.0051
1.00396
1.00276
1.00153
1.00033
0.999213
0.998223
0.997518
1.00763
1.00745
1.0069
1.00613
1.00513
1.00398
1.00277
1.00152
1.00031
0.999178
0.998177
0.997466
1.00768
1.0075
1.00695
1.00617
1.00516
1.00401
1.00278
1.00152
1.00029
0.999141
0.998129
0.997413
1.00773
1.00755
1.00699
1.00621
1.0052
1.00403
1.00279
1.00151
1.00026
0.999105
0.998082
0.997359
1.00778
1.0076
1.00704
1.00626
1.00523
1.00405
1.0028
1.0015
1.00024
0.999069
0.998034
0.997304
1.00784
1.00766
1.0071
1.0063
1.00527
1.00408
1.00281
1.0015
1.00022
0.999033
0.997987
0.997248
1.00789
1.00771
1.00715
1.00635
1.00531
1.0041
1.00282
1.00149
1.0002
0.998997
0.997939
0.997192
1.00795
1.00777
1.0072
1.0064
1.00535
1.00413
1.00283
1.00149
1.00018
0.998961
0.997891
0.997134
1.008
1.00783
1.00726
1.00645
1.00539
1.00416
1.00285
1.00149
1.00016
0.998924
0.997842
0.997075
1.00806
1.00789
1.00732
1.0065
1.00543
1.00419
1.00286
1.00148
1.00014
0.998887
0.997792
0.997016
1.00812
1.00795
1.00738
1.00656
1.00547
1.00422
1.00287
1.00148
1.00012
0.998849
0.997742
0.996955
1.00818
1.00802
1.00744
1.00661
1.00552
1.00425
1.00289
1.00147
1.0001
0.998812
0.997691
0.996894
1.00824
1.00808
1.0075
1.00667
1.00556
1.00428
1.0029
1.00147
1.00007
0.998773
0.997639
0.996831
1.0083
1.00814
1.00756
1.00672
1.00561
1.00431
1.00292
1.00147
1.00005
0.998734
0.997587
0.996767
1.00837
1.00821
1.00762
1.00678
1.00565
1.00434
1.00293
1.00146
1.00003
0.998693
0.997533
0.996703
1.00843
1.00828
1.00768
1.00684
1.0057
1.00437
1.00294
1.00146
1.00001
0.998653
0.997479
0.996638
1.0085
1.00835
1.00775
1.00689
1.00574
1.00441
1.00296
1.00145
0.999981
0.998612
0.997423
0.996572
1.00857
1.00842
1.00781
1.00695
1.00579
1.00444
1.00297
1.00145
0.999958
0.998571
0.997367
0.996505
1.00864
1.00849
1.00788
1.00701
1.00584
1.00447
1.00299
1.00144
0.999933
0.998529
0.99731
0.996437
1.00872
1.00856
1.00795
1.00707
1.00589
1.0045
1.003
1.00144
0.999909
0.998487
0.997253
0.996368
1.00879
1.00864
1.00802
1.00714
1.00594
1.00454
1.00302
1.00143
0.999885
0.998444
0.997195
0.996298
1.00887
1.00872
1.00809
1.0072
1.00599
1.00457
1.00303
1.00143
0.999861
0.998402
0.997136
0.996227
1.00894
1.00879
1.00816
1.00727
1.00604
1.00461
1.00305
1.00142
0.999836
0.998358
0.997077
0.996154
1.00902
1.00888
1.00824
1.00734
1.0061
1.00465
1.00307
1.00142
0.999813
0.998315
0.997017
0.99608
1.00911
1.00896
1.00831
1.0074
1.00615
1.00469
1.00308
1.00142
0.999788
0.998271
0.996957
0.996004
1.00919
1.00904
1.00839
1.00748
1.00621
1.00473
1.0031
1.00141
0.999765
0.998228
0.996896
0.995927
1.00927
1.00913
1.00847
1.00755
1.00627
1.00477
1.00312
1.00141
0.999741
0.998183
0.996833
0.995847
1.00936
1.00922
1.00856
1.00763
1.00633
1.00481
1.00314
1.00141
0.999718
0.998138
0.99677
0.995766
1.00945
1.00931
1.00864
1.0077
1.00639
1.00485
1.00317
1.00141
0.999694
0.998092
0.996706
0.995683
1.00954
1.0094
1.00873
1.00778
1.00645
1.0049
1.00319
1.00141
0.99967
0.998046
0.99664
0.995599
1.00963
1.00949
1.00882
1.00786
1.00652
1.00494
1.00321
1.00141
0.999646
0.997999
0.996573
0.995512
1.00973
1.00959
1.00891
1.00794
1.00658
1.00499
1.00324
1.00141
0.999622
0.997951
0.996505
0.995423
1.00982
1.00968
1.009
1.00803
1.00665
1.00504
1.00326
1.00141
0.999597
0.997902
0.996434
0.995332
1.00992
1.00978
1.00909
1.00811
1.00672
1.00509
1.00329
1.00141
0.999573
0.997853
0.996363
0.99524
1.01002
1.00988
1.00918
1.0082
1.00679
1.00514
1.00332
1.00141
0.999547
0.997801
0.996289
0.995145
1.01012
1.00999
1.00928
1.00829
1.00686
1.0052
1.00334
1.00142
0.999521
0.997749
0.996215
0.995049
1.01022
1.01009
1.00938
1.00838
1.00694
1.00525
1.00337
1.00142
0.999494
0.997695
0.996137
0.99495
1.01033
1.0102
1.00948
1.00847
1.00701
1.0053
1.0034
1.00142
0.999467
0.997641
0.996059
0.99485
1.01043
1.01031
1.00958
1.00856
1.00709
1.00536
1.00343
1.00142
0.999439
0.997585
0.995978
0.994746
1.01054
1.01042
1.00969
1.00866
1.00717
1.00541
1.00346
1.00142
0.99941
0.997528
0.995896
0.994642
1.01065
1.01053
1.00979
1.00876
1.00724
1.00547
1.00349
1.00142
0.999381
0.997469
0.995812
0.994534
1.01077
1.01065
1.0099
1.00886
1.00733
1.00553
1.00352
1.00142
0.999351
0.99741
0.995726
0.994425
1.01088
1.01077
1.01001
1.00896
1.00741
1.00559
1.00355
1.00142
0.999321
0.997349
0.995638
0.994313
1.011
1.01089
1.01013
1.00906
1.0075
1.00566
1.00358
1.00143
0.99929
0.997287
0.995548
0.9942
1.01112
1.01101
1.01024
1.00917
1.00758
1.00572
1.00362
1.00143
0.999258
0.997223
0.995456
0.994083
1.01124
1.01113
1.01036
1.00928
1.00767
1.00579
1.00365
1.00143
0.999226
0.997159
0.995363
0.993964
1.01136
1.01126
1.01048
1.00939
1.00777
1.00585
1.00369
1.00143
0.999193
0.997092
0.995267
0.993843
1.01149
1.01139
1.01061
1.00951
1.00786
1.00592
1.00373
1.00143
0.999159
0.997024
0.995169
0.993719
1.01162
1.01153
1.01073
1.00962
1.00796
1.00599
1.00376
1.00143
0.999124
0.996954
0.995068
0.993593
1.01175
1.01166
1.01086
1.00974
1.00805
1.00606
1.0038
1.00144
0.999089
0.996883
0.994966
0.993464
1.01188
1.0118
1.01099
1.00986
1.00815
1.00613
1.00384
1.00144
0.999053
0.99681
0.994861
0.993332
1.01202
1.01194
1.01113
1.00999
1.00826
1.00621
1.00388
1.00144
0.999016
0.996736
0.994755
0.993198
1.01216
1.01209
1.01127
1.01011
1.00836
1.00628
1.00392
1.00144
0.998977
0.996659
0.994645
0.993061
1.0123
1.01223
1.01141
1.01024
1.00847
1.00636
1.00396
1.00144
0.998937
0.996581
0.994533
0.992921
1.01244
1.01238
1.01155
1.01037
1.00857
1.00644
1.004
1.00144
0.998896
0.996501
0.994419
0.992778
1.01259
1.01253
1.01169
1.0105
1.00868
1.00652
1.00404
1.00144
0.998854
0.996419
0.994302
0.992633
1.01274
1.01269
1.01184
1.01064
1.00879
1.0066
1.00408
1.00144
0.998811
0.996335
0.994182
0.992484
1.01289
1.01284
1.01199
1.01077
1.00891
1.00668
1.00412
1.00144
0.998766
0.996249
0.994061
0.992333
1.01305
1.013
1.01214
1.01091
1.00902
1.00676
1.00416
1.00144
0.99872
0.996161
0.993935
0.992178
1.01321
1.01317
1.0123
1.01105
1.00914
1.00684
1.00421
1.00143
0.998673
0.996071
0.993809
0.99202
1.01337
1.01333
1.01245
1.0112
1.00926
1.00693
1.00425
1.00143
0.998624
0.995978
0.993678
0.991859
1.01353
1.0135
1.01262
1.01135
1.00938
1.00701
1.00429
1.00143
0.998575
0.995884
0.993546
0.991696
1.0137
1.01367
1.01278
1.01149
1.0095
1.0071
1.00434
1.00143
0.998523
0.995788
0.99341
0.991528
1.01387
1.01385
1.01295
1.01165
1.00963
1.00719
1.00438
1.00142
0.998471
0.995689
0.993272
0.991359
1.01405
1.01403
1.01312
1.0118
1.00975
1.00728
1.00443
1.00142
0.998417
0.995588
0.99313
0.991185
1.01423
1.01421
1.01329
1.01196
1.00988
1.00738
1.00447
1.00141
0.998362
0.995486
0.992986
0.991008
1.01441
1.0144
1.01347
1.01212
1.01002
1.00747
1.00452
1.00141
0.998304
0.99538
0.992839
0.990828
1.01459
1.01459
1.01365
1.01229
1.01015
1.00757
1.00457
1.0014
0.998246
0.995273
0.992689
0.990644
1.01478
1.01478
1.01384
1.01246
1.01029
1.00766
1.00462
1.0014
0.998185
0.995162
0.992535
0.990456
1.01497
1.01497
1.01402
1.01263
1.01043
1.00776
1.00466
1.00139
0.998124
0.99505
0.992379
0.990266
1.01517
1.01517
1.01421
1.0128
1.01057
1.00787
1.00471
1.00139
0.99806
0.994934
0.992218
0.990071
1.01537
1.01538
1.01441
1.01298
1.01072
1.00797
1.00476
1.00138
0.997995
0.994816
0.992055
0.989873
1.01557
1.01559
1.01461
1.01316
1.01087
1.00807
1.00481
1.00137
0.997927
0.994695
0.991888
0.98967
1.01578
1.0158
1.01481
1.01335
1.01102
1.00818
1.00486
1.00136
0.997859
0.994571
0.991718
0.989464
1.01599
1.01601
1.01502
1.01354
1.01117
1.00829
1.00491
1.00135
0.997787
0.994444
0.991544
0.989253
1.0162
1.01623
1.01523
1.01373
1.01133
1.0084
1.00496
1.00134
0.997714
0.994315
0.991366
0.989039
1.01642
1.01646
1.01544
1.01392
1.01149
1.00851
1.00502
1.00133
0.997638
0.994182
0.991184
0.98882
1.01664
1.01669
1.01566
1.01412
1.01165
1.00862
1.00507
1.00132
0.997561
0.994046
0.990999
0.988597
1.01687
1.01692
1.01589
1.01433
1.01182
1.00874
1.00512
1.0013
0.997481
0.993906
0.990809
0.988369
1.0171
1.01716
1.01612
1.01454
1.01199
1.00886
1.00517
1.00129
0.997399
0.993764
0.990616
0.988137
1.01734
1.0174
1.01635
1.01475
1.01216
1.00897
1.00523
1.00127
0.997314
0.993618
0.990418
0.9879
1.01758
1.01765
1.01659
1.01496
1.01233
1.0091
1.00528
1.00125
0.997227
0.993469
0.990217
0.987659
1.01782
1.0179
1.01683
1.01518
1.01251
1.00922
1.00533
1.00124
0.997137
0.993315
0.99001
0.987412
1.01807
1.01816
1.01708
1.01541
1.01269
1.00934
1.00539
1.00122
0.997046
0.993159
0.989799
0.987161
1.01833
1.01842
1.01733
1.01564
1.01288
1.00947
1.00544
1.0012
0.996951
0.992997
0.989583
0.986904
1.01859
1.01869
1.01759
1.01587
1.01307
1.0096
1.0055
1.00118
0.996854
0.992833
0.989363
0.986643
1.01885
1.01896
1.01785
1.01611
1.01326
1.00973
1.00556
1.00115
0.996753
0.992664
0.989138
0.986375
1.01912
1.01924
1.01812
1.01635
1.01346
1.00987
1.00561
1.00113
0.99665
0.992491
0.988908
0.986102
1.0194
1.01952
1.01839
1.0166
1.01366
1.01
1.00567
1.0011
0.996543
0.992313
0.988672
0.985823
1.01968
1.01981
1.01867
1.01686
1.01386
1.01014
1.00573
1.00108
0.996433
0.992132
0.988431
0.985539
1.01996
1.02011
1.01896
1.01712
1.01407
1.01028
1.00579
1.00105
0.99632
0.991944
0.988184
0.985248
1.02026
1.02041
1.01925
1.01738
1.01428
1.01043
1.00584
1.00102
0.996203
0.991753
0.987932
0.984951
1.02056
1.02072
1.01955
1.01765
1.0145
1.01057
1.0059
1.00098
0.996082
0.991556
0.987673
0.984648
1.02086
1.02104
1.01985
1.01793
1.01472
1.01072
1.00596
1.00095
0.995958
0.991355
0.98741
0.984338
1.02117
1.02136
1.02016
1.01821
1.01495
1.01087
1.00602
1.00091
0.995829
0.991147
0.987138
0.984021
1.02149
1.02169
1.02048
1.0185
1.01518
1.01102
1.00608
1.00087
0.995697
0.990934
0.986862
0.983698
1.02182
1.02203
1.02081
1.01879
1.01542
1.01118
1.00614
1.00083
0.99556
0.990715
0.986578
0.983367
1.02215
1.02237
1.02114
1.01909
1.01566
1.01134
1.00619
1.00079
0.995419
0.990491
0.986288
0.98303
1.02249
1.02272
1.02148
1.0194
1.0159
1.0115
1.00625
1.00074
0.995272
0.99026
0.985989
0.982684
1.02283
1.02308
1.02182
1.01972
1.01615
1.01166
1.00631
1.00069
0.995121
0.990023
0.985685
0.982332
1.02319
1.02345
1.02218
1.02004
1.01641
1.01183
1.00637
1.00064
0.994964
0.989778
0.985372
0.98197
1.02355
1.02382
1.02254
1.02036
1.01667
1.01199
1.00642
1.00058
0.994803
0.989528
0.985053
0.981602
1.02392
1.02421
1.02291
1.0207
1.01693
1.01216
1.00648
1.00052
0.994636
0.98927
0.984724
0.981224
1.0243
1.0246
1.02329
1.02104
1.0172
1.01234
1.00654
1.00046
0.994463
0.989005
0.984388
0.980838
1.02468
1.025
1.02368
1.02139
1.01748
1.01251
1.00659
1.00039
0.994284
0.988732
0.984043
0.980442
1.02508
1.02541
1.02408
1.02175
1.01776
1.01269
1.00665
1.00032
0.994099
0.988452
0.98369
0.980039
1.02548
1.02583
1.02448
1.02212
1.01805
1.01287
1.0067
1.00025
0.993907
0.988163
0.983327
0.979625
1.02589
1.02626
1.0249
1.02249
1.01835
1.01305
1.00675
1.00017
0.993709
0.987866
0.982955
0.979202
1.02631
1.02669
1.02532
1.02288
1.01865
1.01324
1.0068
1.00008
0.993502
0.987559
0.982573
0.978769
1.02675
1.02714
1.02576
1.02327
1.01895
1.01343
1.00685
0.999994
0.993289
0.987245
0.982182
0.978326
1.02719
1.0276
1.02621
1.02367
1.01927
1.01362
1.0069
0.9999
0.993067
0.986919
0.98178
0.977872
1.02764
1.02807
1.02666
1.02408
1.01959
1.01381
1.00695
0.999801
0.992839
0.986585
0.981368
0.977408
1.0281
1.02855
1.02713
1.0245
1.01991
1.01401
1.00699
0.999695
0.9926
0.98624
0.980944
0.976932
1.02857
1.02905
1.02761
1.02493
1.02025
1.01421
1.00704
0.999583
0.992353
0.985885
0.98051
0.976445
1.02905
1.02955
1.0281
1.02537
1.02059
1.01441
1.00707
0.999464
0.992096
0.985519
0.980063
0.975946
1.02955
1.03007
1.02861
1.02582
1.02093
1.01461
1.00711
0.99934
0.991831
0.985141
0.979605
0.975436
1.03005
1.0306
1.02912
1.02628
1.02129
1.01481
1.00714
0.999206
0.991554
0.984751
0.979134
0.974912
1.03057
1.03114
1.02965
1.02676
1.02165
1.01502
1.00717
0.999066
0.991267
0.98435
0.978651
0.974376
1.0311
1.0317
1.03019
1.02724
1.02202
1.01522
1.0072
0.998916
0.990968
0.983935
0.978154
0.973826
1.03165
1.03227
1.03075
1.02774
1.02239
1.01543
1.00722
0.998759
0.990658
0.983508
0.977643
0.973264
1.0322
1.03285
1.03132
1.02825
1.02278
1.01564
1.00724
0.998591
0.990335
0.983066
0.977118
0.972687
1.03277
1.03345
1.03191
1.02877
1.02317
1.01586
1.00725
0.998415
0.990001
0.982611
0.976579
0.972096
1.03336
1.03407
1.03251
1.0293
1.02357
1.01607
1.00726
0.998226
0.989651
0.98214
0.976025
0.97149
1.03396
1.0347
1.03312
1.02985
1.02397
1.01628
1.00726
0.998028
0.989289
0.981654
0.975455
0.97087
1.03457
1.03535
1.03376
1.03041
1.02439
1.0165
1.00725
0.997817
0.988911
0.981152
0.974869
0.970233
1.0352
1.03601
1.03441
1.03098
1.02481
1.01671
1.00724
0.997595
0.988518
0.980634
0.974266
0.969581
1.03585
1.03669
1.03507
1.03157
1.02524
1.01692
1.00722
0.997358
0.988109
0.980098
0.973646
0.968911
1.03651
1.0374
1.03576
1.03218
1.02568
1.01714
1.00719
0.997108
0.987683
0.979545
0.973009
0.968226
1.03719
1.03812
1.03647
1.0328
1.02613
1.01735
1.00715
0.996842
0.987239
0.978972
0.972353
0.967522
1.03789
1.03886
1.03719
1.03343
1.02658
1.01756
1.0071
0.996562
0.986777
0.978381
0.971679
0.966801
1.0386
1.03962
1.03794
1.03409
1.02705
1.01777
1.00704
0.996264
0.986295
0.97777
0.970984
0.966061
1.03934
1.0404
1.0387
1.03475
1.02752
1.01797
1.00696
0.995949
0.985793
0.977138
0.97027
0.965302
1.04009
1.0412
1.03949
1.03544
1.028
1.01817
1.00688
0.995614
0.98527
0.976484
0.969535
0.964524
1.04087
1.04203
1.0403
1.03614
1.02848
1.01837
1.00678
0.99526
0.984724
0.975808
0.968779
0.963726
1.04167
1.04288
1.04113
1.03687
1.02898
1.01856
1.00667
0.994885
0.984155
0.975108
0.968
0.962906
1.04249
1.04376
1.04199
1.03761
1.02948
1.01875
1.00654
0.994487
0.983562
0.974385
0.967199
0.962066
1.04333
1.04466
1.04288
1.03837
1.02999
1.01893
1.00639
0.994065
0.982942
0.973636
0.966374
0.961204
1.0442
1.04559
1.04379
1.03915
1.03051
1.0191
1.00622
0.993619
0.982297
0.972862
0.965525
0.96032
1.0451
1.04654
1.04473
1.03995
1.03103
1.01926
1.00603
0.993145
0.981623
0.97206
0.964651
0.959412
1.04602
1.04753
1.0457
1.04077
1.03156
1.01942
1.00582
0.992644
0.98092
0.971231
0.963751
0.958482
1.04696
1.04855
1.0467
1.04161
1.03209
1.01956
1.00558
0.992112
0.980185
0.970372
0.962824
0.957526
1.04794
1.0496
1.04773
1.04248
1.03263
1.01968
1.00532
0.991549
0.97942
0.969484
0.961871
0.956546
1.04894
1.05068
1.04879
1.04337
1.03317
1.01979
1.00503
0.990952
0.97862
0.968564
0.960889
0.955541
1.04998
1.0518
1.04989
1.04428
1.03371
1.01988
1.00471
0.99032
0.977785
0.967612
0.959878
0.954509
1.05105
1.05295
1.05102
1.04521
1.03426
1.01996
1.00436
0.98965
0.976914
0.966626
0.958836
0.95345
1.05215
1.05414
1.05219
1.04617
1.0348
1.02001
1.00397
0.98894
0.976004
0.965606
0.957765
0.952364
1.05329
1.05537
1.0534
1.04715
1.03535
1.02003
1.00354
0.988188
0.975054
0.96455
0.956661
0.951249
1.05446
1.05665
1.05464
1.04815
1.03589
1.02003
1.00307
0.987391
0.974062
0.963457
0.955525
0.950106
1.05567
1.05797
1.05594
1.04918
1.03642
1.02
1.00256
0.986547
0.973027
0.962325
0.954356
0.948932
1.05692
1.05933
1.05727
1.05023
1.03695
1.01993
1.00199
0.985653
0.971946
0.961154
0.953152
0.947728
1.05821
1.06075
1.05865
1.05131
1.03747
1.01982
1.00138
0.984707
0.970818
0.959942
0.951912
0.946493
1.05955
1.06221
1.06008
1.05241
1.03798
1.01967
1.00071
0.983705
0.96964
0.958688
0.950637
0.945227
1.06094
1.06373
1.06156
1.05353
1.03846
1.01948
0.999981
0.982645
0.968411
0.95739
0.949325
0.943927
1.06237
1.06531
1.06309
1.05467
1.03893
1.01923
0.999188
0.981523
0.967129
0.956047
0.947974
0.942595
1.06385
1.06695
1.06468
1.05584
1.03938
1.01892
0.998325
0.980337
0.96579
0.954658
0.946584
0.941228
1.06538
1.06865
1.06632
1.05702
1.03979
1.01855
0.997389
0.979082
0.964395
0.953221
0.945155
0.939826
1.06698
1.07042
1.06802
1.05822
1.04017
1.01811
0.996374
0.977755
0.962939
0.951735
0.943685
0.938389
1.06863
1.07226
1.06978
1.05944
1.04051
1.01759
0.995274
0.976353
0.961422
0.9502
0.942173
0.936916
1.07034
1.07418
1.07161
1.06067
1.04079
1.01699
0.994084
0.974872
0.95984
0.948612
0.940619
0.935405
1.07212
1.07617
1.0735
1.0619
1.04102
1.01629
0.992797
0.973309
0.958193
0.946973
0.939021
0.933857
1.07397
1.07826
1.07546
1.06314
1.04119
1.01549
0.991408
0.97166
0.956477
0.945279
0.93738
0.93227
1.07589
1.08043
1.07748
1.06438
1.04128
1.01458
0.989909
0.969921
0.954691
0.94353
0.935693
0.930645
1.07789
1.0827
1.07958
1.06561
1.04128
1.01355
0.988294
0.968088
0.952833
0.941725
0.933961
0.92898
1.07998
1.08508
1.08175
1.06683
1.04118
1.01238
0.986556
0.966158
0.950901
0.939863
0.932183
0.927274
1.08215
1.08757
1.08399
1.06802
1.04097
1.01106
0.984688
0.964126
0.948893
0.937943
0.930358
0.925528
1.08442
1.09017
1.08631
1.06917
1.04062
1.00959
0.982682
0.961991
0.946808
0.935964
0.928486
0.923739
1.08679
1.0929
1.0887
1.07027
1.04013
1.00794
0.980532
0.959748
0.944644
0.933925
0.926566
0.921909
1.08927
1.09577
1.09115
1.07131
1.03947
1.00611
0.97823
0.957394
0.942399
0.931827
0.924598
0.920036
1.09186
1.09878
1.09368
1.07227
1.03863
1.00408
0.975769
0.954927
0.940074
0.929668
0.922581
0.91812
1.09458
1.10194
1.09626
1.07312
1.03757
1.00183
0.973142
0.952344
0.937667
0.927449
0.920516
0.91616
1.09744
1.10526
1.0989
1.07385
1.03628
0.999355
0.970342
0.949643
0.935177
0.925168
0.918403
0.914157
1.10044
1.10876
1.10159
1.07443
1.03472
0.996627
0.967365
0.946822
0.932604
0.922828
0.916241
0.912111
1.1036
1.11244
1.1043
1.07482
1.03286
0.993636
0.964205
0.943882
0.92995
0.920427
0.91403
0.910021
1.10693
1.11631
1.10704
1.07498
1.03068
0.990366
0.960857
0.940821
0.927213
0.917967
0.91177
0.907887
1.11045
1.12039
1.10976
1.07489
1.02814
0.986801
0.957318
0.937639
0.924395
0.915447
0.909463
0.905708
1.11418
1.12467
1.11246
1.07448
1.02521
0.982927
0.953588
0.934339
0.921498
0.912871
0.907109
0.903486
1.11813
1.12918
1.11509
1.07371
1.02184
0.978732
0.949664
0.930922
0.918524
0.910238
0.904707
0.901219
1.12234
1.13392
1.11761
1.07251
1.01799
0.974204
0.94555
0.927391
0.915475
0.907551
0.90226
0.898908
1.12681
1.13889
1.11997
1.07083
1.01364
0.969335
0.941248
0.923751
0.912353
0.904812
0.899767
0.896552
1.13159
1.14408
1.12212
1.06858
1.00873
0.964122
0.936765
0.920006
0.909164
0.902023
0.897229
0.894152
1.13671
1.1495
1.12398
1.06569
1.00323
0.958562
0.932109
0.916163
0.90591
0.899187
0.894649
0.891708
1.1422
1.15512
1.12546
1.06207
0.997114
0.952661
0.927291
0.91223
0.902597
0.896306
0.892026
0.889219
1.14811
1.16093
1.12646
1.05763
0.990342
0.94643
0.922326
0.908214
0.89923
0.893384
0.889362
0.886686
1.15448
1.16688
1.12685
1.05226
0.982896
0.939885
0.917229
0.904125
0.895816
0.890424
0.886658
0.88411
1.16137
1.17293
1.12651
1.04587
0.974762
0.933052
0.912021
0.899973
0.892359
0.887431
0.883915
0.88149
1.16883
1.17899
1.12526
1.03836
0.965938
0.925964
0.906723
0.89577
0.888869
0.884407
0.881135
0.878826
1.17693
1.18496
1.12292
1.02963
0.95644
0.918662
0.901359
0.891529
0.885351
0.881357
0.878319
0.87612
1.18573
1.19072
1.11928
1.01958
0.946302
0.911199
0.895956
0.88726
0.881815
0.878284
0.875467
0.873371
1.1953
1.19608
1.11411
1.00813
0.935579
0.903632
0.89054
0.882979
0.878267
0.875193
0.872581
0.870582
1.2057
1.20083
1.10716
0.995251
0.924357
0.896029
0.885138
0.878698
0.874717
0.872087
0.869662
0.867753
1.21701
1.20468
1.09816
0.980906
0.912744
0.888462
0.879779
0.87443
0.871173
0.86897
0.866712
0.864887
1.22927
1.20728
1.08682
0.965127
0.900885
0.881004
0.874487
0.870191
0.867642
0.865845
0.863733
0.861986
1.2425
1.2082
1.07285
0.948004
0.888947
0.873731
0.869286
0.865991
0.864134
0.862718
0.860732
0.859055
1.2567
1.20689
1.05598
0.929708
0.877129
0.866712
0.864197
0.861844
0.860651
0.859587
0.857706
0.85609
1.2718
1.2027
1.03598
0.910504
0.865636
0.86
0.859232
0.857766
0.857221
0.856492
0.854709
0.85314
1.28762
1.19482
1.0127
0.890782
0.854702
0.853653
0.85439
0.853716
0.853763
0.853311
0.85161
0.850089
1.30383
1.18228
0.986118
0.871002
0.844474
0.847686
0.849769
0.849904
0.850583
0.850422
0.848759
0.847165
1.31994
1.16395
0.956574
0.851948
0.835241
0.841914
0.844858
0.845597
0.846806
0.847009
0.845484
0.843906
1.33495
1.1384
0.924508
0.833876
0.827468
0.837564
0.841439
0.842806
0.844385
0.844651
0.842939
0.84105
1.34772
1.10477
0.89299
0.817124
0.818266
0.830308
0.83503
0.837524
0.840209
0.841151
0.839632
0.83759
1.35462
1.05868
0.866217
0.810478
0.818127
0.82979
0.833293
0.835372
0.838133
0.839207
0.837685
0.835539
1.35715
0.986195
0.815538
0.785775
0.807022
0.824317
0.830331
0.833809
0.837354
0.838824
0.83753
0.835507
0.997054
0.996911
0.997314
0.99787
0.998166
0.998063
0.997722
0.997395
0.99723
0.997221
0.997281
0.997338
0.997311
0.997162
0.997462
0.99789
0.998112
0.99801
0.997707
0.997409
0.997251
0.997235
0.997288
0.997342
0.997653
0.997459
0.997594
0.997845
0.997987
0.997913
0.997681
0.997434
0.997286
0.997257
0.997297
0.99735
0.997932
0.997657
0.997632
0.99775
0.997855
0.997833
0.997678
0.997478
0.997333
0.997285
0.997309
0.997357
0.998077
0.99774
0.997625
0.997681
0.997783
0.997805
0.997701
0.997527
0.997379
0.997312
0.997321
0.997363
0.998123
0.997778
0.997637
0.997671
0.997765
0.997797
0.997712
0.997551
0.997402
0.997326
0.997325
0.997362
0.998145
0.997823
0.997681
0.997693
0.99776
0.997779
0.997701
0.997556
0.997417
0.99734
0.997332
0.997363
0.998181
0.997883
0.997735
0.997716
0.99775
0.997755
0.997685
0.997559
0.997434
0.997358
0.997342
0.997365
0.998223
0.997939
0.997779
0.997731
0.997739
0.997733
0.997672
0.997563
0.997448
0.997371
0.997347
0.997363
0.998257
0.99798
0.99781
0.997742
0.997731
0.997718
0.997661
0.997562
0.997454
0.997378
0.997349
0.997361
0.998276
0.998007
0.997833
0.997753
0.997727
0.997705
0.997649
0.997556
0.997455
0.997381
0.997351
0.997359
0.998284
0.998026
0.997853
0.997764
0.997724
0.997691
0.997633
0.997547
0.997454
0.997383
0.997351
0.997355
0.998288
0.998042
0.997869
0.997771
0.997718
0.997676
0.997617
0.997536
0.99745
0.997383
0.997348
0.997346
0.99829
0.998053
0.99788
0.997774
0.99771
0.997661
0.997601
0.997524
0.997443
0.997377
0.997341
0.997333
0.998288
0.998059
0.997885
0.997772
0.997701
0.997646
0.997586
0.997511
0.997432
0.997367
0.997328
0.997316
0.998282
0.998059
0.997886
0.997768
0.997691
0.997631
0.997568
0.997494
0.997417
0.997352
0.997311
0.997297
0.998272
0.998054
0.997882
0.997762
0.997679
0.997615
0.997549
0.997474
0.997398
0.997334
0.997292
0.997276
0.998259
0.998047
0.997877
0.997753
0.997666
0.997596
0.997527
0.997451
0.997375
0.997312
0.997271
0.997254
0.998244
0.998038
0.997869
0.997742
0.997649
0.997574
0.997502
0.997425
0.997351
0.997289
0.997248
0.997231
0.998228
0.998026
0.997857
0.997727
0.997629
0.997549
0.997475
0.997398
0.997324
0.997264
0.997224
0.997208
0.99821
0.998011
0.997841
0.997708
0.997606
0.997523
0.997446
0.997369
0.997297
0.997238
0.9972
0.997184
0.998189
0.997993
0.997822
0.997686
0.997581
0.997495
0.997417
0.99734
0.997269
0.997212
0.997175
0.997159
0.998164
0.997971
0.997799
0.997661
0.997554
0.997466
0.997387
0.99731
0.997241
0.997185
0.997149
0.997132
0.998137
0.997945
0.997774
0.997634
0.997525
0.997436
0.997357
0.997281
0.997212
0.997157
0.997121
0.997104
0.998106
0.997917
0.997747
0.997606
0.997496
0.997406
0.997326
0.997251
0.997182
0.997128
0.997091
0.997074
0.998074
0.997888
0.997718
0.997577
0.997466
0.997376
0.997296
0.99722
0.997152
0.997097
0.99706
0.997043
0.99804
0.997856
0.997688
0.997547
0.997436
0.997345
0.997264
0.997188
0.997119
0.997065
0.997027
0.997009
0.998005
0.997824
0.997657
0.997516
0.997404
0.997313
0.997231
0.997154
0.997086
0.997031
0.996993
0.996974
0.997969
0.997791
0.997625
0.997485
0.997372
0.997279
0.997196
0.997119
0.99705
0.996995
0.996956
0.996937
0.997932
0.997758
0.997593
0.997452
0.997338
0.997244
0.99716
0.997082
0.997013
0.996957
0.996918
0.996899
0.997895
0.997724
0.99756
0.997418
0.997302
0.997206
0.997122
0.997044
0.996973
0.996918
0.996879
0.99686
0.997859
0.997689
0.997525
0.997382
0.997264
0.997167
0.997081
0.997003
0.996932
0.996877
0.996837
0.996819
0.997821
0.997653
0.997489
0.997344
0.997224
0.997126
0.997039
0.99696
0.99689
0.996834
0.996794
0.996776
0.997783
0.997616
0.997451
0.997304
0.997182
0.997082
0.996995
0.996916
0.996845
0.996789
0.99675
0.996732
0.997744
0.997578
0.997412
0.997262
0.997138
0.997037
0.996949
0.99687
0.996799
0.996743
0.996704
0.996686
0.997705
0.997539
0.997371
0.997219
0.997092
0.996989
0.996901
0.996822
0.996751
0.996695
0.996656
0.996639
0.997664
0.997498
0.997328
0.997173
0.997044
0.99694
0.996851
0.996771
0.996701
0.996645
0.996607
0.996591
0.997623
0.997456
0.997284
0.997126
0.996995
0.996889
0.996799
0.99672
0.996649
0.996594
0.996556
0.996541
0.997582
0.997413
0.997238
0.997078
0.996944
0.996837
0.996746
0.996666
0.996596
0.996541
0.996505
0.996491
0.997539
0.997369
0.997192
0.997028
0.996892
0.996783
0.996691
0.996611
0.996541
0.996487
0.996452
0.996439
0.997496
0.997324
0.997143
0.996976
0.996838
0.996727
0.996635
0.996554
0.996485
0.996431
0.996397
0.996386
0.997452
0.997277
0.997094
0.996923
0.996783
0.99667
0.996578
0.996497
0.996428
0.996375
0.996342
0.996331