/*--------------------------------*- C++ -*----------------------------------*\
  =========                 |
  \\      /  F ield         | OpenFOAM: The Open Source CFD Toolbox
   \\    /   O peration     | Website:  https://openfoam.org
    \\  /    A nd           | Version:  6.0
     \\/     M anipulation  |
\*---------------------------------------------------------------------------*/
FoamFile
{
    version     2.0;
    format      ascii;
    class       volVectorField;
    location    "0.7";
    object      U;
}
// * * * * * * * * * * * * * * * * * * * * * * * * * * * * * * * * * * * * * //

dimensions      [0 1 -1 0 0 0 0];

internalField   nonuniform List<vector> 
24000
(
(0.999995 -4.85691e-06 -7.95902e-17)
(0.999952 -2.20283e-05 1.08362e-16)
(0.999879 -6.24899e-05 -1.90523e-16)
(0.999799 -0.000129958 2.10233e-16)
(0.999736 -0.000214699 -1.03714e-15)
(0.999707 -0.0003013 -6.14828e-16)
(0.999711 -0.000378403 6.29518e-16)
(0.999755 -0.000425292 -1.39491e-15)
(0.999827 -0.000421489 4.37907e-16)
(0.999919 -0.000342945 -3.21983e-16)
(1 -9.33805e-05 -3.11563e-16)
(1.00085 0.000834474 -4.63805e-16)
(0.99999 -1.09559e-05 1.16676e-16)
(0.999915 -4.89939e-05 -1.60346e-16)
(0.999787 -0.000131809 3.56007e-16)
(0.99965 -0.000257512 -8.88875e-17)
(0.999548 -0.000407066 4.61595e-16)
(0.999505 -0.000555804 6.2177e-16)
(0.999525 -0.000684309 -3.50215e-16)
(0.999612 -0.000755756 1.48174e-15)
(0.999751 -0.000733598 -3.10946e-16)
(0.999925 -0.000579782 1.5967e-17)
(1.00004 -0.000134474 8.13802e-17)
(1.0015 0.00125968 1.54371e-16)
(0.99999 -1.66756e-05 -8.88684e-17)
(0.999926 -6.74318e-05 2.16053e-16)
(0.999818 -0.000161092 -1.23389e-16)
(0.999704 -0.00028491 4.51172e-16)
(0.99963 -0.000418009 2.51381e-16)
(0.999613 -0.00053899 2.31222e-16)
(0.999652 -0.0006339 5.17902e-16)
(0.999749 -0.00067032 -6.58663e-16)
(0.999888 -0.000616198 -3.67593e-16)
(1.00006 -0.000451556 -1.2976e-16)
(1.00012 -1.55896e-05 -2.90381e-17)
(1.00161 0.00117733 4.88098e-16)
(0.99999 -2.35165e-05 -3.79462e-17)
(0.999939 -8.78803e-05 -2.04418e-16)
(0.999852 -0.000191308 -3.15643e-16)
(0.99976 -0.000313056 -2.23671e-16)
(0.999706 -0.000433811 -1.31e-16)
(0.999705 -0.000536993 -9.05061e-16)
(0.999753 -0.000613898 -1.43391e-15)
(0.99985 -0.00063699 1.63842e-16)
(0.999984 -0.000578013 4.69205e-17)
(1.00015 -0.000432 6.44979e-16)
(1.00018 -5.37358e-05 -4.1174e-16)
(1.00152 0.000906566 -5.70733e-16)
(0.999987 -3.13165e-05 6.76015e-17)
(0.99994 -0.000111508 3.30004e-17)
(0.999857 -0.000230723 1.59961e-16)
(0.999766 -0.000364089 -7.56088e-17)
(0.999712 -0.00049494 2.07753e-16)
(0.999711 -0.000609486 1.86987e-16)
(0.99976 -0.000699979 1.45063e-15)
(0.999862 -0.000738552 -9.47803e-17)
(1 -0.000694997 -2.79664e-16)
(1.00019 -0.000562774 7.60125e-17)
(1.00023 -0.000215828 2.84139e-16)
(1.00142 0.000637789 -1.51079e-16)
(0.999984 -3.97514e-05 3.91196e-18)
(0.999939 -0.000135637 -1.89878e-17)
(0.999858 -0.000269959 -2.13496e-17)
(0.999766 -0.000415213 -3.86539e-18)
(0.999712 -0.000557333 -8.62198e-16)
(0.999712 -0.000683935 1.05511e-15)
(0.999766 -0.000786805 2.92935e-17)
(0.999876 -0.000836556 1.4612e-16)
(1.00003 -0.000800778 6.91185e-16)
(1.00024 -0.000662285 -3.40205e-16)
(1.00031 -0.000316134 5.15604e-16)
(1.00138 0.000522914 3.45971e-16)
(0.99998 -4.87277e-05 -3.5402e-18)
(0.99994 -0.000159132 2.04765e-16)
(0.999868 -0.000304689 -2.07652e-16)
(0.999784 -0.000455629 -1.01244e-16)
(0.999738 -0.000600329 4.4309e-16)
(0.999748 -0.000727137 -2.17972e-16)
(0.999813 -0.000827432 -6.03703e-16)
(0.999933 -0.000871779 -3.13215e-16)
(1.0001 -0.000828374 1.22076e-16)
(1.00032 -0.000670745 6.01667e-16)
(1.00041 -0.000316107 -1.21707e-15)
(1.0014 0.000524751 3.17135e-16)
(0.999976 -5.81425e-05 -5.22902e-17)
(0.999942 -0.000182291 7.92711e-17)
(0.999881 -0.000336992 2.39279e-16)
(0.999809 -0.000490804 4.52943e-16)
(0.999777 -0.000634846 2.41128e-16)
(0.999799 -0.000757564 -2.6757e-16)
(0.999876 -0.000849315 -2.90933e-16)
(1.00001 -0.000881402 -1.39453e-16)
(1.00018 -0.000824257 4.81689e-17)
(1.00041 -0.000647525 -1.30355e-16)
(1.00052 -0.000288928 1.04201e-15)
(1.00144 0.000528929 -5.48148e-16)
(0.999971 -6.77889e-05 2.05882e-17)
(0.999942 -0.000205344 -1.94668e-16)
(0.999892 -0.000369079 1.46033e-17)
(0.999831 -0.000526629 -7.22873e-17)
(0.999809 -0.00067249 7.29358e-17)
(0.999843 -0.000794801 -6.10809e-17)
(0.999932 -0.00088188 5.11819e-17)
(1.00008 -0.000905304 5.58429e-16)
(1.00026 -0.000837491 -6.92175e-17)
(1.0005 -0.000647919 -7.89398e-16)
(1.00063 -0.000290981 -8.78987e-16)
(1.00148 0.000484237 9.74966e-16)
(0.999965 -7.73972e-05 7.3171e-17)
(0.99994 -0.000228081 4.86593e-18)
(0.999898 -0.000401184 1.84369e-16)
(0.999847 -0.000563775 -4.83322e-16)
(0.999835 -0.000714273 -1.15345e-16)
(0.999877 -0.000840529 5.21996e-16)
(0.999976 -0.000928486 -4.43411e-16)
(1.00013 -0.000949197 -6.68753e-16)
(1.00033 -0.000876163 2.04818e-16)
(1.00058 -0.000679077 2.05378e-16)
(1.00073 -0.000325164 6.53589e-16)
(1.00153 0.000409352 -1.37854e-16)
(0.999958 -8.67187e-05 -1.0036e-16)
(0.999936 -0.000250223 -2.31039e-17)
(0.999901 -0.000432852 -2.1973e-16)
(0.999861 -0.000600956 3.65577e-17)
(0.999858 -0.000756882 1.67113e-16)
(0.999908 -0.000888433 -3.60251e-16)
(1.00002 -0.000979739 2.70657e-16)
(1.00018 -0.00100088 7.53506e-16)
(1.00039 -0.000925824 -5.61847e-16)
(1.00065 -0.000723008 2.24105e-16)
(1.00082 -0.000370006 -8.46635e-16)
(1.00159 0.00033693 -9.0306e-16)
(0.99995 -9.55306e-05 6.51548e-18)
(0.999931 -0.000271625 1.91909e-16)
(0.999902 -0.000463965 -1.92452e-16)
(0.999874 -0.000637801 1.48817e-16)
(0.999882 -0.000798753 -4.57296e-16)
(0.999942 -0.000934653 -2.03744e-16)
(1.00006 -0.0010288 6.63439e-17)
(1.00024 -0.00105031 -3.02617e-16)
(1.00045 -0.000973521 -3.9393e-16)
(1.00073 -0.000764371 3.62671e-16)
(1.00092 -0.000409569 2.85408e-16)
(1.00165 0.000279665 1.00634e-17)
(0.999941 -0.00010365 2.45151e-17)
(0.999924 -0.000292248 -1.91773e-17)
(0.999902 -0.000494737 5.30284e-16)
(0.999885 -0.000674977 1.52955e-16)
(0.999905 -0.000840758 2.61395e-16)
(0.999976 -0.000979746 -2.92169e-16)
(1.00011 -0.00107523 -1.47753e-16)
(1.00029 -0.00109572 1.20476e-16)
(1.00052 -0.00101612 4.65268e-16)
(1.00081 -0.000799844 -1.21847e-15)
(1.00102 -0.000441965 -4.86123e-16)
(1.00172 0.00023191 5.41244e-16)
(0.999932 -0.00011092 -7.57137e-17)
(0.999915 -0.000312068 -6.73792e-17)
(0.999899 -0.000525345 -4.19098e-16)
(0.999894 -0.000713206 -3.31124e-16)
(0.999926 -0.000884434 -2.32042e-16)
(1.00001 -0.00102618 3.64704e-16)
(1.00015 -0.00112214 2.50801e-16)
(1.00035 -0.00114063 -2.76295e-16)
(1.00059 -0.00105738 -3.70766e-16)
(1.00089 -0.000834084 -1.32801e-16)
(1.00112 -0.000473153 6.90374e-16)
(1.00179 0.000184454 -4.80834e-16)
(0.999921 -0.000117234 4.07548e-17)
(0.999905 -0.000331055 3.2212e-17)
(0.999894 -0.000555781 4.95047e-17)
(0.999899 -0.000752683 7.89759e-17)
(0.999943 -0.000930568 8.21073e-17)
(1.00004 -0.00107576 -1.48128e-16)
(1.0002 -0.00117241 7.76667e-18)
(1.00041 -0.00118888 -3.82683e-16)
(1.00066 -0.00110186 3.62336e-16)
(1.00097 -0.000872156 1.38115e-15)
(1.00122 -0.000508123 -2.05265e-16)
(1.00187 0.000134025 6.69548e-16)
(0.99991 -0.00012252 -3.93516e-17)
(0.999894 -0.000349184 1.48637e-18)
(0.999888 -0.000585881 1.47744e-16)
(0.999902 -0.000793022 2.08898e-16)
(0.999958 -0.000978798 2.31057e-16)
(1.00007 -0.00112854 -1.50116e-16)
(1.00024 -0.00122663 -2.41734e-16)
(1.00046 -0.00124162 5.91155e-16)
(1.00073 -0.00115098 1.43153e-16)
(1.00105 -0.000915092 -1.48858e-15)
(1.00131 -0.000546933 2.35302e-16)
(1.00194 8.33779e-05 2.21891e-17)
(0.999898 -0.00012676 9.00381e-17)
(0.999882 -0.000366467 3.30756e-17)
(0.999882 -0.000615464 -3.19346e-16)
(0.999904 -0.000833578 1.37803e-16)
(0.999971 -0.00102803 -5.60852e-17)
(1.00009 -0.00118317 3.67074e-16)
(1.00028 -0.00128334 6.24973e-16)
(1.00052 -0.00129719 1.05229e-16)
(1.0008 -0.00120284 5.10263e-16)
(1.00113 -0.000960398 1.23753e-15)
(1.00141 -0.00058655 1.43142e-15)
(1.00202 3.5909e-05 -5.34021e-16)
(0.999885 -0.000129967 3.46066e-17)
(0.99987 -0.000382949 -2.74319e-17)
(0.999876 -0.00064443 3.03745e-16)
(0.999906 -0.000873797 -2.77031e-16)
(0.999984 -0.00107718 3.92111e-16)
(1.00012 -0.00123803 4.02913e-18)
(1.00032 -0.00134048 -4.06297e-16)
(1.00057 -0.00135318 1.28106e-16)
(1.00087 -0.00125474 -4.41814e-16)
(1.00121 -0.00100519 -2.16252e-16)
(1.00151 -0.00062451 -5.74141e-16)
(1.0021 -7.56541e-06 -1.05985e-16)
(0.99987 -0.000132188 -4.1502e-17)
(0.999858 -0.000398716 -2.30991e-16)
(0.99987 -0.000672824 -1.2642e-16)
(0.999909 -0.000913464 1.55146e-16)
(0.999999 -0.00112569 -2.81763e-17)
(1.00015 -0.00129219 -2.61811e-16)
(1.00036 -0.00139686 -5.46007e-17)
(1.00063 -0.00140823 -3.37454e-17)
(1.00094 -0.00130537 -5.30329e-16)
(1.00129 -0.00104856 -3.89043e-16)
(1.0016 -0.000660882 -1.72126e-15)
(1.00219 -4.90438e-05 1.01984e-15)
(0.999855 -0.000133478 -3.95436e-17)
(0.999845 -0.000413863 2.40478e-16)
(0.999864 -0.000700779 -1.71642e-16)
(0.999912 -0.000952679 7.66012e-17)
(1.00001 -0.00117361 -1.88047e-16)
(1.00018 -0.00134568 -4.25994e-16)
(1.0004 -0.00145253 5.40477e-17)
(1.00068 -0.00146259 -6.90137e-17)
(1.00101 -0.00135531 2.87089e-16)
(1.00138 -0.00109161 4.46206e-16)
(1.0017 -0.000697388 1.54031e-15)
(1.00227 -9.06304e-05 -9.86075e-16)
(0.999838 -0.000133906 2.8443e-17)
(0.999832 -0.000428482 -1.11961e-17)
(0.999858 -0.000728465 2.72217e-17)
(0.999916 -0.000991717 -6.35323e-17)
(1.00003 -0.00122138 -2.36287e-16)
(1.0002 -0.00139906 -9.44768e-18)
(1.00044 -0.00150828 -1.25341e-16)
(1.00074 -0.00151731 -6.69602e-16)
(1.00108 -0.00140594 4.0348e-16)
(1.00146 -0.00113594 2.1851e-16)
(1.0018 -0.000735588 6.51582e-17)
(1.00236 -0.000133299 2.21668e-16)
(0.99982 -0.000133536 3.25339e-17)
(0.999817 -0.000442638 -2.63826e-16)
(0.99985 -0.000755995 5.16542e-16)
(0.999918 -0.00103082 4.91497e-17)
(1.00004 -0.00126943 1.43328e-16)
(1.00023 -0.00145294 8.68897e-16)
(1.00049 -0.00156485 7.14648e-16)
(1.0008 -0.00157329 3.61722e-16)
(1.00115 -0.00145823 -9.5854e-16)
(1.00154 -0.00118229 -2.79558e-16)
(1.00189 -0.000775662 9.24366e-17)
(1.00245 -0.000176087 -3.30851e-17)
(0.999801 -0.000132434 -6.09695e-17)
(0.999802 -0.00045638 1.05098e-16)
(0.999842 -0.000783418 -6.96496e-17)
(0.99992 -0.00107012 -8.84438e-17)
(1.00006 -0.00131801 -2.54982e-16)
(1.00026 -0.00150764 -5.04528e-16)
(1.00053 -0.00162255 -2.74254e-16)
(1.00085 -0.00163071 -2.17523e-17)
(1.00122 -0.00151218 2.77808e-16)
(1.00163 -0.00123029 -2.64926e-16)
(1.00199 -0.000816668 -1.56259e-15)
(1.00254 -0.000217873 7.90172e-16)
(0.99978 -0.000130661 4.4516e-17)
(0.999786 -0.000469732 6.3418e-18)
(0.999833 -0.000810705 -1.89532e-16)
(0.99992 -0.0011096 -1.44948e-16)
(1.00007 -0.00136714 -8.04326e-17)
(1.00029 -0.00156316 -1.18897e-16)
(1.00057 -0.00168125 -2.16915e-16)
(1.00091 -0.00168925 -2.31432e-16)
(1.00129 -0.00156715 -6.74606e-17)
(1.00171 -0.00127893 -2.45789e-16)
(1.00209 -0.00085735 9.278e-17)
(1.00263 -0.00025742 -1.57221e-16)
(0.999759 -0.000128278 1.52589e-17)
(0.999769 -0.000482717 1.49332e-16)
(0.999822 -0.000837811 4.08733e-17)
(0.999919 -0.00114918 -1.56949e-17)
(1.00008 -0.0014167 9.87797e-17)
(1.00031 -0.00161935 2.77597e-16)
(1.00061 -0.0017407 1.06865e-16)
(1.00096 -0.00174841 2.6731e-16)
(1.00136 -0.00162246 3.13393e-16)
(1.00179 -0.00132738 -3.05824e-16)
(1.00218 -0.000896955 1.0035e-15)
(1.00272 -0.000294465 -6.20224e-16)
(0.999736 -0.000125344 -2.06915e-17)
(0.999751 -0.000495361 -1.9538e-17)
(0.999811 -0.00086468 -1.47675e-16)
(0.999918 -0.00118871 -9.71877e-17)
(1.00009 -0.0014665 -3.48361e-17)
(1.00034 -0.001676 -1.7879e-16)
(1.00065 -0.0018006 1.04059e-17)
(1.00102 -0.00180783 -3.1115e-16)
(1.00143 -0.00167763 -2.70304e-17)
(1.00188 -0.0013752 1.05099e-15)
(1.00228 -0.00093529 4.95561e-16)
(1.00282 -0.000329285 5.29111e-17)
(0.999712 -0.000121924 -9.84437e-18)
(0.999732 -0.000507703 -1.14625e-16)
(0.999799 -0.0008913 -5.05067e-17)
(0.999916 -0.00122811 -7.54557e-17)
(1.0001 -0.00151637 5.57102e-16)
(1.00036 -0.00173292 -1.29075e-16)
(1.00069 -0.00186079 1.5367e-16)
(1.00108 -0.00186734 -1.59673e-16)
(1.0015 -0.00173258 -2.55134e-16)
(1.00196 -0.00142244 -2.65017e-16)
(1.00238 -0.000972659 -1.9628e-17)
(1.00291 -0.000362703 -2.00464e-16)
(0.999686 -0.000118081 3.40873e-17)
(0.999712 -0.000519794 -4.08397e-17)
(0.999787 -0.000917697 1.71544e-16)
(0.999914 -0.00126732 3.46304e-16)
(1.00011 -0.00156618 -5.26772e-16)
(1.00038 -0.00178995 4.98604e-16)
(1.00073 -0.00192114 -2.75753e-16)
(1.00113 -0.00192691 -1.43987e-16)
(1.00158 -0.00178736 -1.93994e-16)
(1.00205 -0.00146935 -3.54812e-16)
(1.00247 -0.0010095 -1.50551e-16)
(1.00301 -0.00039523 -1.20257e-16)
(0.99966 -0.000113885 -5.82244e-18)
(0.999691 -0.000531703 -1.56627e-17)
(0.999773 -0.000943965 -1.57747e-17)
(0.999911 -0.00130641 -3.35219e-16)
(1.00012 -0.00161591 -1.43916e-16)
(1.00041 -0.00184703 -1.30449e-17)
(1.00077 -0.00198164 -3.89436e-16)
(1.00119 -0.00198661 7.17845e-16)
(1.00165 -0.00184221 -5.84145e-18)
(1.00213 -0.0015163 2.50648e-16)
(1.00257 -0.00104639 1.77517e-16)
(1.0031 -0.000427503 -5.39558e-18)
(0.999632 -0.000109401 -1.88905e-17)
(0.999669 -0.000543502 1.07848e-16)
(0.999759 -0.000970226 3.21156e-17)
(0.999907 -0.0013455 4.60737e-16)
(1.00013 -0.00166565 2.51442e-16)
(1.00043 -0.00190424 -4.21845e-16)
(1.00081 -0.00204236 1.91574e-16)
(1.00125 -0.00204658 -3.7819e-16)
(1.00172 -0.00189737 1.30956e-15)
(1.00222 -0.0015637 -1.01806e-16)
(1.00267 -0.00108381 2.23717e-17)
(1.0032 -0.00045999 -1.40151e-16)
(0.999604 -0.000104705 -1.97114e-17)
(0.999645 -0.00055527 7.53434e-17)
(0.999743 -0.000996641 -9.05014e-17)
(0.999902 -0.00138482 -4.47158e-16)
(1.00014 -0.00171566 4.63022e-16)
(1.00046 -0.00196178 2.70869e-16)
(1.00085 -0.00210352 3.42629e-16)
(1.00131 -0.00210711 1.53336e-16)
(1.0018 -0.00195323 -1.08794e-16)
(1.0023 -0.00161198 5.4621e-16)
(1.00276 -0.00112226 -9.9044e-16)
(1.0033 -0.000493095 1.11567e-15)
(0.999574 -9.98624e-05 2.74665e-17)
(0.99962 -0.000567077 -1.44201e-16)
(0.999726 -0.00102336 -8.41851e-17)
(0.999897 -0.00142463 -2.68154e-17)
(1.00015 -0.00176626 -1.77095e-16)
(1.00048 -0.00202 -5.03214e-18)
(1.00089 -0.00216546 -2.81634e-16)
(1.00136 -0.00216855 -2.13181e-16)
(1.00187 -0.00201016 -1.2028e-15)
(1.00239 -0.0016615 -3.97024e-16)
(1.00286 -0.00116203 -2.55162e-16)
(1.0034 -0.000526968 -2.99181e-17)
(0.999542 -9.49475e-05 1.05335e-17)
(0.999594 -0.000578984 -1.18553e-17)
(0.999707 -0.00105051 -4.25953e-17)
(0.999889 -0.00146517 3.25305e-16)
(1.00016 -0.00181779 -5.52308e-16)
(1.00051 -0.00207929 -4.09885e-16)
(1.00093 -0.00222857 3.52198e-16)
(1.00142 -0.00223128 -2.33037e-17)
(1.00194 -0.0020685 7.28942e-17)
(1.00247 -0.00171254 4.20745e-16)
(1.00295 -0.00120328 -1.681e-16)
(1.00349 -0.000561659 3.02364e-16)
(0.99951 -9.00275e-05 -1.51736e-17)
(0.999567 -0.000591037 1.70032e-16)
(0.999687 -0.00107817 2.88397e-16)
(0.99988 -0.0015066 -9.60778e-17)
(1.00016 -0.00187052 4.35248e-17)
(1.00053 -0.00213996 1.82114e-16)
(1.00097 -0.00229316 -4.2047e-16)
(1.00147 -0.00229553 4.42777e-16)
(1.00201 -0.0021284 3.44307e-16)
(1.00256 -0.0017651 -2.83692e-16)
(1.00305 -0.00124584 3.24667e-18)
(1.00359 -0.000596848 -1.89636e-17)
(0.999477 -8.51753e-05 -4.29446e-18)
(0.999538 -0.000603272 -2.47013e-16)
(0.999665 -0.00110637 -4.84779e-17)
(0.999869 -0.001549 5.79027e-17)
(1.00016 -0.00192459 6.51567e-16)
(1.00055 -0.00220217 5.20257e-17)
(1.00101 -0.00235937 3.90404e-16)
(1.00153 -0.00236141 -7.23176e-16)
(1.00208 -0.00218985 3.63222e-16)
(1.00264 -0.00181905 -4.36319e-16)
(1.00314 -0.00128947 9.35731e-16)
(1.00369 -0.000632083 -4.63703e-16)
(0.999443 -8.04584e-05 2.14664e-17)
(0.999507 -0.000615719 1.09514e-16)
(0.999641 -0.0011351 -1.16293e-16)
(0.999857 -0.00159235 4.78679e-17)
(1.00017 -0.00197998 -3.91948e-16)
(1.00057 -0.00226592 -1.37999e-16)
(1.00105 -0.00242715 2.26555e-17)
(1.00158 -0.00242878 5.18211e-16)
(1.00215 -0.00225263 3.12794e-16)
(1.00273 -0.00187406 -2.15896e-17)
(1.00324 -0.00133375 1.2328e-15)
(1.00378 -0.000667129 -6.06521e-16)
(0.999408 -7.59492e-05 1.44311e-18)
(0.999476 -0.000628409 1.1953e-16)
(0.999617 -0.00116432 1.19402e-16)
(0.999843 -0.00163655 -1.43916e-17)
(1.00017 -0.00203656 2.8664e-16)
(1.00058 -0.00233104 3.70665e-16)
(1.00108 -0.00249632 -1.13119e-16)
(1.00164 -0.00249743 5.20546e-16)
(1.00222 -0.00231647 -1.19457e-15)
(1.00281 -0.00192984 -1.32504e-16)
(1.00333 -0.00137844 -1.77459e-15)
(1.00388 -0.000702084 1.39932e-16)
(0.999373 -7.17149e-05 -6.22599e-17)
(0.999444 -0.000641375 7.43709e-17)
(0.999591 -0.001194 -2.12503e-17)
(0.999828 -0.00168147 1.54994e-16)
(1.00017 -0.00209412 -2.13422e-16)
(1.0006 -0.00239729 -5.20154e-16)
(1.00112 -0.0025666 -4.00148e-17)
(1.00169 -0.00256704 -3.71035e-16)
(1.00229 -0.00238105 1.27245e-15)
(1.00289 -0.0019861 -4.28551e-17)
(1.00343 -0.00142327 3.80815e-16)
(1.00397 -0.000736808 6.99238e-16)
(0.999337 -6.78254e-05 1.54829e-17)
(0.999411 -0.00065466 -3.18849e-16)
(0.999565 -0.00122411 1.0988e-16)
(0.999813 -0.00172701 -5.09564e-16)
(1.00017 -0.00215247 2.54941e-16)
(1.00062 -0.0024644 8.44113e-16)
(1.00115 -0.0026377 -2.1888e-16)
(1.00174 -0.00263735 -5.18325e-16)
(1.00236 -0.00244615 -4.04934e-16)
(1.00298 -0.00204269 -8.00467e-17)
(1.00352 -0.00146824 3.94676e-16)
(1.00407 -0.000771413 -6.39308e-16)
(0.9993 -6.43431e-05 3.55082e-17)
(0.999377 -0.000668316 9.26361e-17)
(0.999538 -0.00125467 -3.33688e-16)
(0.999797 -0.00177308 4.62112e-16)
(1.00016 -0.00221142 -6.94778e-16)
(1.00063 -0.00253214 -6.94039e-16)
(1.00118 -0.0027094 2.64604e-16)
(1.00179 -0.00270816 9.30599e-16)
(1.00243 -0.00251162 -5.24228e-16)
(1.00306 -0.00209953 2.10937e-16)
(1.00362 -0.00151329 -1.70314e-16)
(1.00417 -0.000805939 5.98796e-17)
(0.999262 -6.13301e-05 -6.04837e-18)
(0.999342 -0.0006824 1.99927e-16)
(0.99951 -0.00128572 2.66229e-16)
(0.99978 -0.00181968 -3.16859e-16)
(1.00016 -0.00227091 1.54152e-16)
(1.00065 -0.0026004 4.27528e-16)
(1.00122 -0.00278157 1.43777e-16)
(1.00185 -0.00277938 -9.64624e-17)
(1.0025 -0.00257745 7.34824e-16)
(1.00315 -0.00215669 3.73877e-16)
(1.00371 -0.00155854 7.02632e-17)
(1.00426 -0.000840685 6.31688e-17)
(0.999224 -5.88375e-05 1.35971e-17)
(0.999307 -0.000696969 -2.2303e-16)
(0.999482 -0.0013173 -5.89143e-17)
(0.999763 -0.00186682 1.24093e-16)
(1.00016 -0.00233092 7.50155e-16)
(1.00066 -0.00266914 -3.8477e-16)
(1.00125 -0.00285418 -3.27827e-16)
(1.0019 -0.00285101 -7.45123e-17)
(1.00257 -0.00264366 -7.2677e-16)
(1.00323 -0.0022142 4.22501e-16)
(1.00381 -0.00160398 -5.87559e-17)
(1.00436 -0.000875604 3.75682e-16)
(0.999185 -5.69133e-05 -1.07891e-17)
(0.99927 -0.000712079 1.39649e-16)
(0.999453 -0.00134949 -9.63428e-17)
(0.999745 -0.00191457 3.61471e-16)
(1.00016 -0.0023915 -7.04715e-16)
(1.00068 -0.00273841 4.95134e-16)
(1.00128 -0.00292726 -4.81671e-17)
(1.00195 -0.0029231 -5.03342e-17)
(1.00264 -0.00271033 7.51992e-16)
(1.00331 -0.00227215 -2.89875e-16)
(1.0039 -0.00164974 -2.37062e-16)
(1.00446 -0.0009109 -9.48849e-17)
(0.999146 -5.55919e-05 1.51863e-18)
(0.999233 -0.000727773 -2.60287e-17)
(0.999424 -0.00138235 1.17395e-16)
(0.999727 -0.00196301 -4.00939e-16)
(1.00015 -0.00245274 3.4793e-16)
(1.00069 -0.00280827 1.16403e-16)
(1.00132 -0.00300089 1.67674e-16)
(1.002 -0.00299571 -8.75424e-16)
(1.00271 -0.00277751 -3.67289e-16)
(1.0034 -0.00233056 -1.32072e-15)
(1.004 -0.00169583 -6.8988e-16)
(1.00456 -0.000946361 -7.05805e-16)
(0.999106 -5.49017e-05 -1.9715e-17)
(0.999195 -0.000744092 1.80429e-17)
(0.999393 -0.00141594 -2.19982e-16)
(0.999708 -0.00201219 1.44611e-17)
(1.00015 -0.0025147 -8.83901e-17)
(1.0007 -0.00287881 5.2467e-18)
(1.00135 -0.00307516 3.09736e-16)
(1.00205 -0.00306893 1.18349e-15)
(1.00278 -0.00284525 1.02882e-16)
(1.00348 -0.00238947 8.24268e-16)
(1.00409 -0.00174215 -1.20821e-16)
(1.00465 -0.000982222 1.28075e-15)
(0.999065 -5.48567e-05 1.89686e-17)
(0.999156 -0.000761059 1.09542e-17)
(0.999362 -0.00145027 2.97289e-16)
(0.999688 -0.00206216 -1.73846e-16)
(1.00015 -0.00257742 -2.03547e-16)
(1.00072 -0.00295007 -2.35092e-16)
(1.00138 -0.0031501 -1.42599e-16)
(1.0021 -0.00314276 -4.7452e-16)
(1.00284 -0.00291355 8.53932e-17)
(1.00356 -0.00244884 8.1889e-16)
(1.00419 -0.00178875 7.94252e-16)
(1.00475 -0.00101803 -1.13725e-15)
(0.999023 -5.54639e-05 -1.93657e-17)
(0.999116 -0.000778692 -2.39509e-16)
(0.999329 -0.00148537 -1.27485e-16)
(0.999668 -0.00211292 2.92011e-17)
(1.00014 -0.00264093 5.10262e-16)
(1.00073 -0.00302207 -4.04592e-16)
(1.00141 -0.00322571 -3.61076e-16)
(1.00215 -0.00321722 -4.46343e-16)
(1.00291 -0.00298241 -5.35063e-16)
(1.00364 -0.00250867 -1.76922e-15)
(1.00429 -0.00183595 -5.9109e-16)
(1.00485 -0.0010541 5.76481e-16)
(0.998981 -5.67151e-05 9.69194e-18)
(0.999074 -0.000796999 2.00032e-16)
(0.999296 -0.00152123 6.03186e-17)
(0.999646 -0.00216447 3.72085e-16)
(1.00013 -0.0027052 -5.88942e-16)
(1.00074 -0.00309477 5.74054e-16)
(1.00144 -0.00330197 -6.83791e-18)
(1.0022 -0.00329227 1.05179e-15)
(1.00298 -0.00305178 3.79708e-16)
(1.00373 -0.00256893 2.30714e-15)
(1.00438 -0.00188374 3.28692e-16)
(1.00495 -0.00109017 5.37162e-16)
(0.998938 -5.85949e-05 -1.97874e-17)
(0.999032 -0.000815987 4.29696e-17)
(0.999261 -0.00155787 9.35655e-17)
(0.999623 -0.00221679 -1.45514e-16)
(1.00013 -0.0027702 5.03206e-16)
(1.00075 -0.00316816 -6.05648e-16)
(1.00147 -0.00337887 5.52944e-16)
(1.00225 -0.00336793 -1.41948e-16)
(1.00305 -0.00312173 2.31634e-16)
(1.00381 -0.00262972 -1.68241e-15)
(1.00448 -0.00193218 9.98637e-16)
(1.00505 -0.00112626 -1.1986e-15)
(0.998895 -6.10744e-05 2.12834e-17)
(0.998988 -0.000835654 -1.18951e-16)
(0.999226 -0.00159527 -1.72904e-16)
(0.9996 -0.00226988 -1.7091e-16)
(1.00012 -0.00283592 5.21192e-17)
(1.00076 -0.00324221 -1.59438e-16)
(1.0015 -0.0034564 -3.0118e-16)
(1.0023 -0.0034442 -6.68302e-16)
(1.00311 -0.00319229 -2.39333e-16)
(1.00389 -0.00269112 3.93197e-16)
(1.00457 -0.00198137 -9.80908e-16)
(1.00516 -0.00116227 6.9287e-16)
(0.99885 -6.4119e-05 5.12828e-17)
(0.998944 -0.000855997 1.44645e-17)
(0.999189 -0.00163345 -4.60096e-17)
(0.999575 -0.00232374 1.24201e-16)
(1.00011 -0.00290237 -6.87129e-16)
(1.00077 -0.00331695 1.16306e-16)
(1.00153 -0.00353462 5.03933e-16)
(1.00235 -0.00352118 -2.81304e-16)
(1.00318 -0.0032636 9.4488e-17)
(1.00398 -0.00275331 -1.23756e-16)
(1.00466 -0.00203174 2.23885e-16)
(1.00526 -0.00119878 -5.22044e-16)
(0.998805 -6.76831e-05 -3.34766e-17)
(0.998898 -0.000877004 7.3517e-17)
(0.999151 -0.00167238 -1.34496e-16)
(0.999549 -0.00237838 -8.05596e-17)
(1.0001 -0.00296958 5.1117e-16)
(1.00078 -0.00339244 2.11397e-16)
(1.00156 -0.0036136 -2.23127e-16)
(1.0024 -0.00359899 4.57621e-16)
(1.00325 -0.00333579 1.50611e-16)
(1.00406 -0.00281643 2.97054e-16)
(1.00476 -0.00208331 -3.05678e-16)
(1.00536 -0.00123571 -1.09561e-17)
(0.998758 -7.17181e-05 -5.12676e-17)
(0.998851 -0.00089866 -2.66821e-17)
(0.999111 -0.00171209 1.38651e-16)
(0.999522 -0.00243383 1.22536e-16)
(1.00009 -0.00303762 1.59352e-16)
(1.00079 -0.00346878 4.30989e-16)
(1.00159 -0.00369349 -1.93402e-16)
(1.00244 -0.00367778 -8.62413e-17)
(1.00331 -0.00340905 -1.8273e-16)
(1.00414 -0.00288068 -6.67726e-18)
(1.00485 -0.00213624 6.62811e-18)
(1.00546 -0.00127299 3.8203e-16)
(0.99871 -7.61691e-05 8.62504e-17)
(0.998802 -0.00092094 -1.39843e-17)
(0.999071 -0.00175256 1.60266e-16)
(0.999494 -0.00249012 -7.32038e-17)
(1.00008 -0.00310655 -1.40302e-16)
(1.00079 -0.00354607 -5.6742e-16)
(1.00161 -0.0037744 -3.43587e-16)
(1.00249 -0.0037577 2.23686e-16)
(1.00338 -0.0034835 3.52183e-17)
(1.00422 -0.00294613 5.35199e-17)
(1.00495 -0.00219038 8.27269e-17)
(1.00557 -0.0013108 3.41356e-17)
(0.998661 -8.09821e-05 -8.60263e-17)
(0.998752 -0.00094381 1.31624e-16)
(0.999029 -0.00179376 -2.35951e-16)
(0.999464 -0.00254726 1.62337e-16)
(1.00006 -0.00317641 -3.76942e-18)
(1.0008 -0.00362439 3.85198e-16)
(1.00164 -0.00385645 3.35321e-16)
(1.00253 -0.00383886 -2.23901e-16)
(1.00344 -0.00355924 3.68221e-16)
(1.00431 -0.00301287 -2.38501e-16)
(1.00505 -0.00224565 7.1132e-16)
(1.00567 -0.00134894 7.14953e-16)
(0.998611 -8.6101e-05 6.59261e-17)
(0.998702 -0.000967229 -9.52801e-17)
(0.998985 -0.00183566 -4.0029e-17)
(0.999433 -0.00260521 1.20841e-16)
(1.00005 -0.00324723 -1.51661e-16)
(1.0008 -0.00370379 -2.35861e-16)
(1.00166 -0.00393969 3.60182e-16)
(1.00258 -0.00392129 -2.10916e-16)
(1.00351 -0.00363628 -4.4837e-16)
(1.00439 -0.00308083 2.4103e-16)
(1.00514 -0.00230186 -4.08262e-16)
(1.00578 -0.0013878 -5.60062e-16)
(0.99856 -9.14725e-05 2.74076e-17)
(0.998649 -0.00099115 -1.0133e-16)
(0.998941 -0.0018782 4.14031e-16)
(0.999401 -0.00266394 -2.02315e-16)
(1.00003 -0.00331898 8.267e-17)
(1.0008 -0.00378427 -1.91745e-16)
(1.00169 -0.00402414 -4.73348e-16)
(1.00262 -0.00400501 4.11053e-16)
(1.00357 -0.00371462 4.73511e-16)
(1.00447 -0.00314999 -5.97263e-16)
(1.00524 -0.00235893 -2.32719e-16)
(1.00588 -0.00142767 -1.75561e-16)
(0.998507 -9.70447e-05 -7.85583e-17)
(0.998596 -0.00101552 3.06045e-17)
(0.998895 -0.00192133 -1.87403e-16)
(0.999367 -0.00272338 2.56376e-17)
(1.00001 -0.00339159 1.14096e-16)
(1.00081 -0.00386578 4.65844e-16)
(1.00171 -0.00410973 5.03845e-18)
(1.00267 -0.00408995 -2.43227e-17)
(1.00364 -0.00379415 -6.51076e-16)
(1.00455 -0.00322021 9.55184e-17)
(1.00533 -0.00241668 -1.3426e-16)
(1.00599 -0.00146859 7.15512e-17)
(0.998452 -0.000102771 -1.26846e-17)
(0.998541 -0.00104029 -2.33469e-17)
(0.998847 -0.00196497 -2.73482e-16)
(0.999332 -0.00278346 -4.99656e-17)
(0.999995 -0.003465 -1.79576e-16)
(1.00081 -0.00394824 -1.29929e-16)
(1.00173 -0.00419641 -1.32481e-16)
(1.00271 -0.00417602 1.62744e-16)
(1.0037 -0.0038748 1.83111e-16)
(1.00463 -0.00329144 3.13069e-16)
(1.00543 -0.00247495 4.40546e-16)
(1.00609 -0.00151044 -2.26285e-16)
(0.998396 -0.000108605 3.06752e-17)
(0.998486 -0.00106541 1.5941e-17)
(0.998799 -0.00200907 2.61107e-16)
(0.999295 -0.00284408 -5.24496e-17)
(0.999975 -0.0035391 -9.67561e-17)
(1.00081 -0.00403155 -1.49079e-16)
(1.00175 -0.00428405 4.42054e-16)
(1.00275 -0.00426312 -2.96397e-16)
(1.00377 -0.00395647 1.04672e-16)
(1.00472 -0.00336358 4.07726e-16)
(1.00553 -0.00253368 -2.58926e-16)
(1.0062 -0.00155334 -4.02553e-17)
(0.998338 -0.000114505 -4.19421e-17)
(0.998429 -0.00109084 4.33891e-17)
(0.998749 -0.00205358 8.89907e-17)
(0.999258 -0.0029052 1.89569e-16)
(0.999954 -0.00361382 3.41564e-16)
(1.0008 -0.00411564 -2.54209e-16)
(1.00177 -0.0043726 -1.68587e-16)
(1.0028 -0.00435121 1.7771e-17)
(1.00383 -0.00403913 -3.1067e-16)
(1.0048 -0.00343665 -4.46824e-16)
(1.00563 -0.0025929 5.94298e-16)
(1.0063 -0.00159738 2.47317e-16)
(0.998279 -0.000120433 6.75053e-17)
(0.99837 -0.00111653 8.2464e-17)
(0.998699 -0.00209844 -8.45327e-17)
(0.999219 -0.00296676 -1.71905e-16)
(0.999932 -0.00368912 4.46982e-17)
(1.0008 -0.00420046 4.16222e-16)
(1.00179 -0.004462 -2.97082e-16)
(1.00284 -0.00444024 -1.07317e-17)
(1.00389 -0.00412277 3.96455e-16)
(1.00488 -0.00351065 -3.88299e-16)
(1.00573 -0.00265275 -5.04613e-16)
(1.00641 -0.00164265 -1.28362e-16)
(0.998217 -0.000126351 8.35168e-18)
(0.998311 -0.00114246 8.44289e-18)
(0.998647 -0.00214365 -2.78136e-16)
(0.99918 -0.00302875 -2.26828e-16)
(0.999909 -0.00376497 -3.81609e-16)
(1.0008 -0.004286 5.19641e-17)
(1.00181 -0.00455227 8.52065e-17)
(1.00288 -0.00453025 -5.92748e-17)
(1.00396 -0.00420743 -3.25673e-16)
(1.00496 -0.00358565 7.29273e-16)
(1.00583 -0.00271314 3.77033e-16)
(1.00652 -0.00168946 -1.15469e-16)
(0.998154 -0.000132226 -3.9653e-17)
(0.99825 -0.00116861 -7.72784e-17)
(0.998594 -0.00218919 3.70779e-16)
(0.999139 -0.00309116 3.37657e-16)
(0.999885 -0.00384139 -7.42125e-18)
(1.00079 -0.00437227 7.22216e-17)
(1.00183 -0.00464344 -1.12118e-16)
(1.00292 -0.00462128 8.23695e-17)
(1.00402 -0.00429318 3.46675e-16)
(1.00505 -0.00366172 -1.80056e-16)
(1.00593 -0.00277433 1.28033e-16)
(1.00663 -0.00173733 2.14442e-16)
(0.99809 -0.000138026 -2.48118e-18)
(0.998188 -0.00119494 5.34682e-17)
(0.99854 -0.00223506 -1.62331e-16)
(0.999098 -0.00315404 -3.19123e-16)
(0.99986 -0.00391843 1.9324e-16)
(1.00079 -0.00445935 -4.43122e-16)
(1.00185 -0.00473558 1.30929e-16)
(1.00296 -0.00471343 -1.944e-16)
(1.00409 -0.00438011 3.07191e-17)
(1.00513 -0.00373896 1.84664e-16)
(1.00603 -0.00283677 -1.58831e-16)
(1.00674 -0.00178638 -4.77825e-16)
(0.998023 -0.00014372 2.29221e-17)
(0.998125 -0.00122143 -1.48457e-16)
(0.998484 -0.00228126 1.6656e-16)
(0.999055 -0.0032174 2.79719e-16)
(0.999835 -0.00399614 -3.59706e-16)
(1.00078 -0.0045473 -3.04323e-17)
(1.00186 -0.00482879 2.18903e-16)
(1.003 -0.00480678 -2.64137e-16)
(1.00415 -0.00446831 -3.19935e-16)
(1.00522 -0.00381745 9.04239e-17)
(1.00613 -0.00290057 -2.76697e-16)
(1.00685 -0.00183621 4.20785e-16)
(0.997955 -0.000149283 1.50633e-17)
(0.99806 -0.00124807 7.82451e-17)
(0.998428 -0.00232781 -7.72824e-17)
(0.999011 -0.0032813 2.3571e-16)
(0.999808 -0.00407458 1.74809e-16)
(1.00078 -0.00463622 1.47192e-16)
(1.00188 -0.00492315 -2.47516e-16)
(1.00304 -0.00490143 3.77137e-16)
(1.00421 -0.00455788 -3.35154e-18)
(1.0053 -0.00389726 -7.16855e-16)
(1.00623 -0.00296566 1.36866e-16)
(1.00697 -0.00188643 -2.64805e-17)
(0.997884 -0.000154694 -2.40131e-17)
(0.997993 -0.00127484 8.08269e-17)
(0.998369 -0.00237469 -2.69227e-16)
(0.998965 -0.00334575 -1.97477e-16)
(0.999779 -0.00415381 4.01943e-17)
(1.00077 -0.00472617 1.54765e-16)
(1.0019 -0.00501876 2.58528e-16)
(1.00308 -0.00499747 3.52761e-17)
(1.00428 -0.00464888 2.79397e-17)
(1.00539 -0.00397843 4.77328e-16)
(1.00634 -0.0030321 1.44975e-16)
(1.00708 -0.00193683 -2.29675e-16)
(0.997812 -0.000159932 -1.89808e-17)
(0.997925 -0.00130171 -2.2428e-17)
(0.998309 -0.00242193 2.85358e-16)
(0.998918 -0.0034108 4.55715e-18)
(0.99975 -0.0042339 2.45783e-16)
(1.00076 -0.00481723 -2.31676e-16)
(1.00191 -0.00511569 -1.51629e-16)
(1.00312 -0.00509498 -4.50341e-17)
(1.00434 -0.00474139 5.42754e-18)
(1.00547 -0.00406105 2.89932e-16)
(1.00644 -0.0031002 -4.51134e-16)
(1.0072 -0.00198772 -2.64048e-16)
(0.997738 -0.000164984 5.17591e-18)
(0.997856 -0.00132868 -7.87864e-17)
(0.998248 -0.00246952 -2.7603e-16)
(0.998869 -0.00347648 4.92009e-17)
(0.999719 -0.00431489 2.29772e-17)
(1.00075 -0.00490946 2.92444e-18)
(1.00193 -0.00521401 -8.01133e-17)
(1.00316 -0.00519402 3.48239e-16)
(1.00441 -0.00483548 3.81679e-16)
(1.00556 -0.00414514 -2.53676e-16)
(1.00655 -0.00316982 6.83314e-16)