1.275 	2.15223e-18 	-2.76991e-20 	0.144591 	-0.00868131 	-1.39224e-22
1.825 	2.15223e-18 	-1.39322e-20 	0.429038 	-0.0100292 	2.62279e-23
2.375 	2.15223e-18 	-2.66896e-23 	0.697021 	-0.00684701 	-2.63169e-23
