1.45 	0 	0 	-0.308266
2.35 	0 	0 	-0.124094
