/*--------------------------------*- C++ -*----------------------------------*\
  =========                 |
  \\      /  F ield         | OpenFOAM: The Open Source CFD Toolbox
   \\    /   O peration     | Website:  https://openfoam.org
    \\  /    A nd           | Version:  6.0
     \\/     M anipulation  |
\*---------------------------------------------------------------------------*/
FoamFile
{
    version     2.0;
    format      ascii;
    class       volScalarField;
    location    "0.4";
    object      p;
}
// * * * * * * * * * * * * * * * * * * * * * * * * * * * * * * * * * * * * * //

dimensions      [0 2 -2 0 0 0 0];

internalField   nonuniform List<scalar> 
800
(
-1.38929e-09
-5.32597e-05
-0.000202372
-0.000419569
-0.000678857
-0.000969916
-0.00129178
-0.00164806
-0.00204377
-0.00248356
-0.00297094
-0.00350811
-0.00409594
-0.00473389
-0.00541974
-0.00614879
-0.00691233
-0.00769496
-0.00847031
-0.00919504
-0.009801
-0.0101864
-0.0102077
-0.00967618
-0.00836313
-0.0060201
-0.00241733
0.00259931
0.00903863
0.0166948
0.0250996
0.0335257
0.0410757
0.0468712
0.0503161
0.0513342
0.0504452
0.0486032
0.0468739
0.0460337
4.76423e-05
-1.10561e-05
-0.000145313
-0.00033662
-0.000569897
-0.000839019
-0.00114315
-0.00148399
-0.00186387
-0.00228461
-0.002747
-0.0032506
-0.00379362
-0.0043728
-0.00498325
-0.00561783
-0.00626623
-0.00691308
-0.00753519
-0.00809724
-0.00854601
-0.00880304
-0.00875664
-0.0082551
-0.00710516
-0.00508158
-0.00195467
0.00245941
0.00822772
0.0152215
0.0230529
0.0310626
0.0383948
0.0441815
0.0478092
0.0491665
0.0487245
0.0473578
0.0459818
0.0452079
0.00020191
0.000109547
-3.22744e-05
-0.000214394
-0.000432864
-0.000686019
-0.000974678
-0.00130058
-0.00166499
-0.00206807
-0.0025087
-0.00298449
-0.00349188
-0.00402623
-0.00458199
-0.00515283
-0.00573163
-0.00631014
-0.00687765
-0.00741826
-0.00790513
-0.00829101
-0.00849437
-0.00838367
-0.00776595
-0.00638974
-0.00397227
-0.000255805
0.00491137
0.0114842
0.0191444
0.0272704
0.0349923
0.0413608
0.0456217
0.0475071
0.0473832
0.0461064
0.0446063
0.0435121
0.000441147
0.000290768
0.000124688
-5.94518e-05
-0.000271031
-0.000513265
-0.000789487
-0.00110256
-0.0014536
-0.00184189
-0.00226514
-0.00271987
-0.00320195
-0.00370727
-0.00423263
-0.00477715
-0.00534385
-0.00594113
-0.00658294
-0.00728595
-0.00806086
-0.00889568
-0.00973112
-0.0104335
-0.0107762
-0.0104438
-0.00906775
-0.00629312
-0.00186821
0.00426047
0.0118654
0.0203901
0.0289687
0.0365502
0.0421501
0.0451862
0.0457509
0.0446033
0.0427682
0.0410999
0.000726069
0.000502381
0.000303289
0.000112107
-9.65007e-05
-0.000331145
-0.000597877
-0.000900875
-0.00124134
-0.00161798
-0.00202782
-0.00246718
-0.00293281
-0.00342343
-0.003942
-0.00449876
-0.0051149
-0.00582577
-0.00668164
-0.00774233
-0.00906192
-0.0106612
-0.0124906
-0.0143944
-0.0160911
-0.0171854
-0.0172145
-0.015723
-0.0123523
-0.00693021
0.000448094
0.00935624
0.019009
0.0283082
0.0360173
0.0410976
0.0431281
0.0425463
0.0404142
0.0380037
0.00101503
0.00070922
0.000472823
0.000272149
6.38139e-05
-0.000166397
-0.000427017
-0.000723273
-0.00105632
-0.00142443
-0.00182445
-0.00225347
-0.0027108
-0.00320079
-0.00373677
-0.00434611
-0.00507594
-0.00599744
-0.00720531
-0.00880739
-0.0108999
-0.0135277
-0.0166371
-0.0200358
-0.0233787
-0.0261903
-0.0279207
-0.0280235
-0.026039
-0.0216711
-0.0148574
-0.00583666
0.00478411
0.0159825
0.0263609
0.0343876
0.0388986
0.0396563
0.0374911
0.0341982
0.00126247
0.000869331
0.000594099
0.000383302
0.000173703
-5.44716e-05
-0.000311666
-0.000603575
-0.000930948
-0.00129161
-0.00168268
-0.00210294
-0.00255601
-0.00305455
-0.00362615
-0.00432038
-0.00521605
-0.00642536
-0.00809024
-0.0103649
-0.0133804
-0.0171946
-0.0217375
-0.0267727
-0.0318909
-0.0365436
-0.040107
-0.0419625
-0.041572
-0.0385408
-0.0326659
-0.0239865
-0.0128608
-8.36297e-05
0.012996
0.0245095
0.0324796
0.0356079
0.0339725
0.0297259
0.00141743
0.000933333
0.000619579
0.000399898
0.000189393
-3.70701e-05
-0.000291049
-0.000577925
-0.00089753
-0.00124711
-0.00162433
-0.00203053
-0.00247503
-0.00298094
-0.00359286
-0.00438557
-0.0054719
-0.00700549
-0.00917249
-0.0121662
-0.016142
-0.0211587
-0.0271216
-0.0337466
-0.0405638
-0.0469604
-0.0522548
-0.0557799
-0.0569563
-0.0553408
-0.050648
-0.0427652
-0.0318014
-0.0182221
-0.00308432
0.0117439
0.0236872
0.0301843
0.0299161
0.0248088
0.00142272
0.000843899
0.000493469
0.000268742
6.09753e-05
-0.000160119
-0.000406322
-0.000681832
-0.000984983
-0.00131224
-0.00166203
-0.00203884
-0.0024587
-0.00295646
-0.00359488
-0.00447438
-0.00574047
-0.00758397
-0.0102274
-0.0138923
-0.0187461
-0.0248389
-0.0320456
-0.0400356
-0.0482841
-0.0561255
-0.0628366
-0.0677266
-0.0702113
-0.0698512
-0.0663485
-0.0595215
-0.0493026
-0.0358335
-0.0197305
-0.00249645
0.0131597
0.0235793
0.0255684
0.0199792
0.00121331
0.000534401
0.000151317
-7.00536e-05
-0.000265686
-0.000471078
-0.000697388
-0.000946786
-0.00121554
-0.00149914
-0.00179692
-0.00211699
-0.00248271
-0.00294107
-0.0035727
-0.00450166
-0.00590168
-0.00799304
-0.0110239
-0.0152316
-0.0207848
-0.0277177
-0.0358745
-0.0448837
-0.0541769
-0.0630502
-0.0707555
-0.0765973
-0.0800095
-0.0805878
-0.0780703
-0.0722806
-0.0630749
-0.0503706
-0.0343566
-0.0159604
0.00246793
0.0166741
0.0215572
0.0162352
0.000713008
-7.41701e-05
-0.000481425
-0.000682586
-0.000846991
-0.00101614
-0.00119985
-0.00139748
-0.0016027
-0.00180986
-0.00201937
-0.00224339
-0.00251298
-0.00288716
-0.00346298
-0.00438462
-0.00584755
-0.00809202
-0.0113802
-0.0159536
-0.0219732
-0.0294547
-0.0382158
-0.0478555
-0.057778
-0.0672589
-0.0755409
-0.0819348
-0.0858977
-0.0870639
-0.0852192
-0.0802272
-0.0719441
-0.0601868
-0.0448493
-0.0262994
-0.00623906
0.0110802
0.0191223
0.0151332
-0.000172629
-0.00107945
-0.00149242
-0.00164091
-0.00173928
-0.001837
-0.00194185
-0.00204948
-0.00215035
-0.00223741
-0.00231237
-0.00239185
-0.00251494
-0.00275229
-0.00321552
-0.00406475
-0.00551018
-0.00780239
-0.0112066
-0.0159585
-0.0222055
-0.0299449
-0.0389755
-0.0488818
-0.059059
-0.0687807
-0.077294
-0.0839199
-0.0881309
-0.0895827
-0.0880888
-0.0835454
-0.0758344
-0.0647563
-0.050066
-0.0317423
-0.0108246
0.00888433
0.0201697
0.0187052
-0.00157097
-0.00260941
-0.00298719
-0.00302185
-0.00299458
-0.00296574
-0.00293949
-0.00290612
-0.00285179
-0.00276754
-0.00265626
-0.00253932
-0.0024641
-0.00251248
-0.00280887
-0.00352543
-0.0048807
-0.00712717
-0.0105239
-0.0152928
-0.0215637
-0.0293169
-0.0383409
-0.0482192
-0.0583552
-0.0680367
-0.0765256
-0.0831523
-0.087391
-0.0888912
-0.0874581
-0.0829845
-0.0753581
-0.0643852
-0.0497858
-0.0313515
-0.00963201
0.0122149
0.0270065
0.0292451
-0.00367317
-0.00484345
-0.00509445
-0.00490166
-0.00465094
-0.00441439
-0.00418741
-0.00395128
-0.00368541
-0.00337745
-0.00303079
-0.00267123
-0.00235425
-0.00217237
-0.00226117
-0.00280168
-0.00401588
-0.00615181
-0.00945552
-0.0141297
-0.0202833
-0.0278812
-0.0367074
-0.0463541
-0.0562453
-0.0656939
-0.0739819
-0.0804466
-0.0845484
-0.0859026
-0.084266
-0.0794795
-0.0713894
-0.0597797
-0.0443649
-0.0248955
-0.00165909
0.02282
0.0418786
0.0491242
-0.00680166
-0.00805006
-0.00796669
-0.00733766
-0.00670906
-0.0061515
-0.00563723
-0.00513032
-0.00459854
-0.00402307
-0.00340572
-0.00277531
-0.00219412
-0.00176383
-0.0016292
-0.00197741
-0.00303037
-0.00502761
-0.00819821
-0.0127223
-0.0186862
-0.0260397
-0.0345647
-0.0438666
-0.053395
-0.062492
-0.0704615
-0.0766423
-0.0804676
-0.0814942
-0.0793929
-0.0739027
-0.0647677
-0.0516894
-0.0343463
-0.0125105
0.0135815
0.0418873
0.0665792
0.0806453
-0.0115636
-0.0126502
-0.0117536
-0.0103152
-0.0090788
-0.0080522
-0.00715099
-0.00630681
-0.00546722
-0.00460149
-0.00370601
-0.00280939
-0.00197765
-0.00131845
-0.000982332
-0.00115916
-0.00206757
-0.00393599
-0.00697471
-0.0113404
-0.0170968
-0.0241784
-0.0323651
-0.0412751
-0.050383
-0.059059
-0.0666257
-0.0724181
-0.0758319
-0.0763467
-0.0735164
-0.0669286
-0.0561564
-0.040732
-0.0202118
0.00563995
0.0364775
0.0704439
0.10272
0.126294
-0.0192593
-0.0193175
-0.0165185
-0.0136568
-0.0115018
-0.00982825
-0.00843608
-0.00720132
-0.00603871
-0.00489673
-0.00375948
-0.00264968
-0.0016319
-0.000814479
-0.000348428
-0.000421173
-0.0012438
-0.00303081
-0.00597276
-0.0102034
-0.0157653
-0.0225789
-0.0304218
-0.0389237
-0.0475805
-0.0557866
-0.0628794
-0.068186
-0.0710597
-0.0708926
-0.067102
-0.0590852
-0.0461743
-0.0276139
-0.00266682
0.0291216
0.0673665
0.110141
0.153582
0.191258
-0.0333036
-0.0290687
-0.0221189
-0.0169059
-0.0133964
-0.0108649
-0.00890179
-0.007279
-0.00584783
-0.00451626
-0.00324422
-0.00204092
-0.000963363
-0.00011485
0.000358971
0.000278637
-0.000554766
-0.00233893
-0.00524399
-0.00938238
-0.0147783
-0.0213412
-0.0288484
-0.0369405
-0.0451331
-0.0528418
-0.0594168
-0.0641775
-0.0664377
-0.0655069
-0.0606693
-0.0511266
-0.0359386
-0.0139594
0.0160918
0.0554161
0.104411
0.161892
0.225643
0.289307
-0.0642079
-0.0420015
-0.0258479
-0.017102
-0.0121795
-0.00899265
-0.00677357
-0.00512694
-0.00378075
-0.0025768
-0.00144988
-0.000400676
0.000517854
0.0012059
0.00152283
0.00129722
0.000341942
-0.00152563
-0.00445892
-0.00855465
-0.0138255
-0.0201767
-0.0273903
-0.0351211
-0.042905
-0.0501787
-0.056307
-0.0606072
-0.0623662
-0.0608337
-0.0551967
-0.0445109
-0.0276275
-0.0030521
0.0311316
0.0774546
0.138868
0.218586
0.320188
0.439363
-0.144798
-0.0507652
-0.0151068
-0.00640429
-0.00309991
-0.00098662
0.000214832
0.000847178
0.00129157
0.00174191
0.00224438
0.00277094
0.00324808
0.00356254
0.0035659
0.00308391
0.00193067
-7.26323e-05
-0.00307501
-0.0071704
-0.0123725
-0.0185928
-0.0256259
-0.0331444
-0.0407051
-0.0477651
-0.0537041
-0.0578444
-0.0594634
-0.0577836
-0.0519477
-0.0409479
-0.0235551
0.00187643
0.037575
0.0871604
0.156515
0.257709
0.407399
0.615779
)
;

boundaryField
{
    movingWall
    {
        type            zeroGradient;
    }
    fixedWalls
    {
        type            zeroGradient;
    }
    frontAndBack
    {
        type            empty;
    }
}


// ************************************************************************* //
