/*--------------------------------*- C++ -*----------------------------------*\
  =========                 |
  \\      /  F ield         | OpenFOAM: The Open Source CFD Toolbox
   \\    /   O peration     | Website:  https://openfoam.org
    \\  /    A nd           | Version:  6.0
     \\/     M anipulation  |
\*---------------------------------------------------------------------------*/
FoamFile
{
    version     2.0;
    format      ascii;
    class       volScalarField;
    location    "150";
    object      p;
}
// * * * * * * * * * * * * * * * * * * * * * * * * * * * * * * * * * * * * * //

dimensions      [0 2 -2 0 0 0 0];

internalField   nonuniform List<scalar> 
34500
(
1.0062
1.00638
1.00636
1.00617
1.00584
1.00541
1.00491
1.00436
1.0038
1.00326
1.00273
1.0023
1.00176
1.0016
1.00167
1.00621
1.00641
1.00646
1.00636
1.00613
1.0058
1.00539
1.00492
1.00441
1.00389
1.00335
1.0029
1.00229
1.00225
1.0022
1.00621
1.0064
1.00643
1.00629
1.00602
1.00564
1.00518
1.00467
1.00412
1.00358
1.00303
1.00258
1.00202
1.00213
1.00206
1.00621
1.0064
1.0064
1.00623
1.00593
1.00552
1.00503
1.00449
1.00393
1.00339
1.00285
1.00243
1.00193
1.00214
1.00224
1.00622
1.00641
1.00641
1.00625
1.00596
1.00555
1.00507
1.00455
1.004
1.00346
1.00293
1.00253
1.00205
1.00231
1.00249
1.00622
1.00642
1.00643
1.00629
1.006
1.0056
1.00514
1.00462
1.00407
1.00354
1.00301
1.00261
1.00214
1.00242
1.00264
1.00623
1.00643
1.00645
1.0063
1.00602
1.00563
1.00516
1.00463
1.00409
1.00356
1.00303
1.00263
1.00218
1.00248
1.00274
1.00624
1.00644
1.00646
1.00632
1.00603
1.00564
1.00517
1.00464
1.00409
1.00356
1.00304
1.00264
1.00222
1.00253
1.00284
1.00625
1.00645
1.00647
1.00633
1.00605
1.00566
1.00519
1.00467
1.00412
1.00359
1.00307
1.00268
1.00227
1.00258
1.00291
1.00627
1.00646
1.00648
1.00635
1.00608
1.00569
1.00522
1.0047
1.00415
1.00362
1.0031
1.00272
1.00232
1.00261
1.00297
1.00628
1.00648
1.0065
1.00637
1.0061
1.00572
1.00525
1.00473
1.00418
1.00365
1.00313
1.00274
1.00236
1.00264
1.003
1.00629
1.00649
1.00652
1.00639
1.00612
1.00574
1.00528
1.00476
1.00421
1.00367
1.00315
1.00277
1.00239
1.00265
1.00302
1.00631
1.00651
1.00653
1.00641
1.00614
1.00576
1.0053
1.00478
1.00423
1.00369
1.00317
1.00279
1.00242
1.00266
1.00303
1.00633
1.00653
1.00655
1.00642
1.00616
1.00578
1.00532
1.00479
1.00424
1.00371
1.00318
1.0028
1.00244
1.00267
1.00303
1.00635
1.00655
1.00657
1.00644
1.00618
1.0058
1.00533
1.00481
1.00426
1.00372
1.0032
1.00282
1.00246
1.00267
1.00302
1.00637
1.00657
1.00659
1.00647
1.0062
1.00582
1.00535
1.00483
1.00427
1.00374
1.00321
1.00283
1.00248
1.00266
1.00301
1.00639
1.00659
1.00661
1.00649
1.00622
1.00584
1.00537
1.00485
1.00429
1.00375
1.00323
1.00285
1.0025
1.00266
1.00299
1.00641
1.00662
1.00664
1.00652
1.00624
1.00587
1.0054
1.00487
1.00431
1.00377
1.00325
1.00286
1.00252
1.00265
1.00297
1.00643
1.00664
1.00667
1.00654
1.00627
1.00589
1.00542
1.00489
1.00434
1.00379
1.00327
1.00288
1.00254
1.00265
1.00294
1.00646
1.00667
1.00669
1.00657
1.0063
1.00593
1.00545
1.00492
1.00436
1.00382
1.00329
1.00289
1.00256
1.00264
1.0029
1.00648
1.0067
1.00672
1.00661
1.00634
1.00596
1.00548
1.00495
1.00439
1.00384
1.0033
1.00291
1.00257
1.00262
1.00287
1.00651
1.00673
1.00675
1.00664
1.00637
1.00599
1.00551
1.00498
1.00441
1.00386
1.00332
1.00292
1.00258
1.0026
1.00283
1.00654
1.00676
1.00679
1.00667
1.0064
1.00602
1.00555
1.00501
1.00444
1.00388
1.00334
1.00293
1.00258
1.00259
1.00279
1.00657
1.00679
1.00682
1.00671
1.00644
1.00606
1.00558
1.00504
1.00446
1.0039
1.00335
1.00293
1.00259
1.00256
1.00274
1.0066
1.00683
1.00685
1.00674
1.00647
1.00609
1.00561
1.00506
1.00448
1.00391
1.00336
1.00294
1.00259
1.00254
1.0027
1.00663
1.00686
1.00689
1.00678
1.00651
1.00612
1.00564
1.00509
1.0045
1.00393
1.00337
1.00294
1.00258
1.00252
1.00265
1.00667
1.0069
1.00692
1.00681
1.00654
1.00616
1.00567
1.00512
1.00453
1.00395
1.00338
1.00294
1.00258
1.00249
1.0026
1.0067
1.00694
1.00696
1.00685
1.00658
1.00619
1.0057
1.00514
1.00455
1.00396
1.00339
1.00294
1.00258
1.00246
1.00255
1.00674
1.00698
1.007
1.00689
1.00661
1.00623
1.00573
1.00517
1.00457
1.00398
1.0034
1.00294
1.00257
1.00244
1.0025
1.00678
1.00702
1.00704
1.00693
1.00665
1.00626
1.00576
1.0052
1.00459
1.00399
1.00341
1.00294
1.00256
1.00241
1.00245
1.00682
1.00706
1.00708
1.00697
1.00669
1.0063
1.00579
1.00522
1.00461
1.004
1.00342
1.00294
1.00255
1.00238
1.00239
1.00686
1.0071
1.00713
1.00702
1.00673
1.00634
1.00583
1.00525
1.00463
1.00402
1.00342
1.00294
1.00254
1.00234
1.00234
1.0069
1.00715
1.00717
1.00706
1.00678
1.00638
1.00586
1.00528
1.00465
1.00403
1.00343
1.00293
1.00252
1.00231
1.00229
1.00695
1.0072
1.00722
1.00711
1.00682
1.00642
1.0059
1.00531
1.00468
1.00405
1.00344
1.00293
1.00251
1.00228
1.00223
1.00699
1.00725
1.00727
1.00716
1.00687
1.00646
1.00594
1.00534
1.0047
1.00407
1.00345
1.00292
1.0025
1.00224
1.00218
1.00704
1.0073
1.00732
1.00721
1.00692
1.00651
1.00598
1.00538
1.00473
1.00408
1.00345
1.00292
1.00248
1.00221
1.00212
1.00709
1.00735
1.00737
1.00726
1.00697
1.00656
1.00602
1.00541
1.00475
1.0041
1.00346
1.00291
1.00246
1.00217
1.00206
1.00714
1.0074
1.00742
1.00731
1.00702
1.0066
1.00606
1.00544
1.00478
1.00411
1.00346
1.0029
1.00244
1.00213
1.00201
1.00719
1.00745
1.00748
1.00737
1.00707
1.00665
1.0061
1.00548
1.0048
1.00412
1.00346
1.00289
1.00242
1.00209
1.00195
1.00724
1.00751
1.00753
1.00742
1.00712
1.00669
1.00614
1.00551
1.00482
1.00414
1.00346
1.00288
1.00239
1.00205
1.00189
1.0073
1.00757
1.00759
1.00748
1.00717
1.00674
1.00618
1.00554
1.00485
1.00415
1.00346
1.00287
1.00237
1.00201
1.00183
1.00735
1.00763
1.00765
1.00753
1.00722
1.00679
1.00622
1.00557
1.00487
1.00416
1.00346
1.00285
1.00234
1.00197
1.00177
1.00741
1.00769
1.00771
1.00759
1.00728
1.00684
1.00626
1.0056
1.00489
1.00417
1.00346
1.00284
1.00231
1.00192
1.00171
1.00747
1.00775
1.00777
1.00765
1.00733
1.00689
1.0063
1.00564
1.00491
1.00418
1.00346
1.00283
1.00229
1.00188
1.00164
1.00753
1.00781
1.00783
1.00771
1.00739
1.00694
1.00634
1.00567
1.00493
1.00419
1.00346
1.00281
1.00226
1.00183
1.00158
1.0076
1.00788
1.0079
1.00778
1.00745
1.00699
1.00639
1.0057
1.00496
1.0042
1.00346
1.00279
1.00223
1.00178
1.00152
1.00766
1.00795
1.00796
1.00784
1.00751
1.00704
1.00644
1.00574
1.00498
1.00421
1.00346
1.00278
1.00219
1.00174
1.00146
1.00773
1.00802
1.00803
1.00791
1.00757
1.0071
1.00648
1.00578
1.00501
1.00422
1.00345
1.00276
1.00216
1.00169
1.00139
1.0078
1.00809
1.0081
1.00798
1.00764
1.00716
1.00653
1.00582
1.00503
1.00424
1.00345
1.00274
1.00213
1.00164
1.00132
1.00787
1.00816
1.00818
1.00805
1.0077
1.00722
1.00658
1.00586
1.00506
1.00425
1.00345
1.00272
1.0021
1.00159
1.00126
1.00794
1.00824
1.00825
1.00812
1.00777
1.00728
1.00664
1.0059
1.00509
1.00426
1.00345
1.0027
1.00206
1.00154
1.00119
1.00801
1.00831
1.00833
1.0082
1.00784
1.00734
1.00669
1.00594
1.00511
1.00427
1.00344
1.00268
1.00202
1.00148
1.00112
1.00809
1.00839
1.0084
1.00827
1.00791
1.00741
1.00674
1.00598
1.00514
1.00428
1.00344
1.00266
1.00198
1.00143
1.00105
1.00816
1.00847
1.00848
1.00835
1.00798
1.00747
1.00679
1.00602
1.00517
1.00429
1.00343
1.00264
1.00195
1.00137
1.00098
1.00824
1.00855
1.00856
1.00843
1.00806
1.00753
1.00685
1.00606
1.00519
1.0043
1.00342
1.00261
1.0019
1.00132
1.00091
1.00833
1.00864
1.00865
1.00851
1.00813
1.0076
1.0069
1.0061
1.00522
1.00431
1.00342
1.00259
1.00186
1.00126
1.00083
1.00841
1.00872
1.00873
1.00859
1.00821
1.00767
1.00696
1.00614
1.00524
1.00432
1.00341
1.00256
1.00182
1.0012
1.00076
1.00849
1.00881
1.00882
1.00867
1.00828
1.00774
1.00702
1.00618
1.00527
1.00433
1.0034
1.00253
1.00177
1.00114
1.00068
1.00858
1.0089
1.0089
1.00876
1.00836
1.00781
1.00707
1.00623
1.0053
1.00434
1.00339
1.00251
1.00173
1.00107
1.00061
1.00867
1.00899
1.00899
1.00885
1.00844
1.00788
1.00713
1.00627
1.00532
1.00435
1.00338
1.00248
1.00168
1.00101
1.00053
1.00876
1.00909
1.00909
1.00894
1.00853
1.00795
1.00719
1.00631
1.00535
1.00436
1.00337
1.00245
1.00163
1.00095
1.00045
1.00885
1.00918
1.00918
1.00903
1.00861
1.00802
1.00725
1.00636
1.00538
1.00436
1.00336
1.00242
1.00158
1.00088
1.00037
1.00895
1.00928
1.00928
1.00912
1.0087
1.0081
1.00732
1.00641
1.00541
1.00437
1.00335
1.00239
1.00153
1.00081
1.00029
1.00904
1.00938
1.00938
1.00922
1.00879
1.00818
1.00738
1.00646
1.00544
1.00438
1.00334
1.00236
1.00148
1.00074
1.0002
1.00914
1.00948
1.00948
1.00931
1.00888
1.00826
1.00745
1.0065
1.00547
1.00439
1.00332
1.00232
1.00143
1.00067
1.00012
1.00925
1.00959
1.00958
1.00941
1.00897
1.00834
1.00751
1.00656
1.0055
1.0044
1.00331
1.00229
1.00138
1.0006
1.00003
1.00935
1.00969
1.00969
1.00952
1.00906
1.00842
1.00758
1.00661
1.00553
1.00441
1.0033
1.00225
1.00132
1.00053
0.999941
1.00945
1.0098
1.0098
1.00962
1.00916
1.00851
1.00765
1.00666
1.00556
1.00442
1.00329
1.00222
1.00126
1.00045
0.99985
1.00956
1.00991
1.00991
1.00973
1.00926
1.0086
1.00773
1.00671
1.00559
1.00443
1.00327
1.00218
1.00121
1.00038
0.999757
1.00967
1.01003
1.01002
1.00984
1.00936
1.00869
1.0078
1.00677
1.00563
1.00444
1.00326
1.00214
1.00115
1.0003
0.999663
1.00979
1.01014
1.01013
1.00995
1.00946
1.00878
1.00787
1.00682
1.00566
1.00445
1.00324
1.0021
1.00108
1.00022
0.999566
1.0099
1.01026
1.01025
1.01006
1.00957
1.00887
1.00795
1.00687
1.00569
1.00445
1.00322
1.00206
1.00102
1.00013
0.999468
1.01002
1.01038
1.01037
1.01018
1.00967
1.00896
1.00802
1.00693
1.00572
1.00446
1.00321
1.00202
1.00095
1.00005
0.999368
1.01014
1.0105
1.01049
1.01029
1.00978
1.00905
1.0081
1.00699
1.00575
1.00447
1.00319
1.00198
1.00089
0.999963
0.999266
1.01026
1.01063
1.01062
1.01041
1.00989
1.00915
1.00818
1.00704
1.00579
1.00448
1.00317
1.00193
1.00082
0.999876
0.999162
1.01038
1.01076
1.01074
1.01054
1.01
1.00925
1.00826
1.0071
1.00582
1.00448
1.00315
1.00189
1.00075
0.999786
0.999056
1.01051
1.01089
1.01087
1.01066
1.01012
1.00935
1.00834
1.00716
1.00585
1.00449
1.00313
1.00184
1.00068
0.999695
0.998948
1.01064
1.01102
1.011
1.01079
1.01024
1.00945
1.00842
1.00722
1.00589
1.0045
1.00311
1.00179
1.00061
0.999601
0.998837
1.01077
1.01116
1.01114
1.01092
1.01036
1.00956
1.00851
1.00728
1.00592
1.0045
1.00309
1.00174
1.00054
0.999506
0.998724
1.01091
1.0113
1.01128
1.01105
1.01048
1.00967
1.0086
1.00735
1.00596
1.00451
1.00307
1.00169
1.00046
0.999408
0.998608
1.01104
1.01144
1.01142
1.01119
1.0106
1.00978
1.00869
1.00741
1.006
1.00452
1.00304
1.00164
1.00038
0.999308
0.99849
1.01118
1.01158
1.01156
1.01133
1.01073
1.00989
1.00878
1.00748
1.00604
1.00453
1.00302
1.00159
1.0003
0.999206
0.99837
1.01133
1.01173
1.01171
1.01147
1.01086
1.01
1.00887
1.00754
1.00607
1.00453
1.003
1.00154
1.00022
0.999101
0.998247
1.01147
1.01188
1.01186
1.01161
1.011
1.01012
1.00897
1.00761
1.00611
1.00454
1.00297
1.00148
1.00014
0.998994
0.998121
1.01162
1.01204
1.01201
1.01176
1.01113
1.01024
1.00906
1.00768
1.00615
1.00455
1.00294
1.00142
1.00005
0.998884
0.997992
1.01177
1.01219
1.01216
1.01191
1.01127
1.01036
1.00916
1.00775
1.00619
1.00455
1.00292
1.00136
0.999962
0.998772
0.997861
1.01193
1.01235
1.01232
1.01206
1.01141
1.01048
1.00926
1.00782
1.00623
1.00456
1.00289
1.0013
0.999872
0.998658
0.997727
1.01208
1.01252
1.01248
1.01222
1.01155
1.01061
1.00936
1.00789
1.00627
1.00456
1.00286
1.00124
0.99978
0.998541
0.99759
1.01225
1.01268
1.01265
1.01238
1.0117
1.01073
1.00946
1.00797
1.00631
1.00457
1.00283
1.00118
0.999686
0.998421
0.997451
1.01241
1.01285
1.01282
1.01254
1.01185
1.01086
1.00957
1.00804
1.00635
1.00457
1.0028
1.00111
0.99959
0.998299
0.997308
1.01258
1.01302
1.01299
1.0127
1.012
1.011
1.00967
1.00812
1.00639
1.00458
1.00276
1.00104
0.999491
0.998175
0.997162
1.01275
1.0132
1.01316
1.01287
1.01216
1.01113
1.00978
1.00819
1.00643
1.00458
1.00273
1.00098
0.999391
0.998047
0.997013
1.01292
1.01338
1.01334
1.01305
1.01232
1.01127
1.0099
1.00827
1.00647
1.00458
1.0027
1.00091
0.999288
0.997917
0.996861
1.0131
1.01356
1.01352
1.01322
1.01248
1.01141
1.01001
1.00835
1.00652
1.00459
1.00266
1.00083
0.999182
0.997783
0.996705
1.01328
1.01375
1.01371
1.0134
1.01264
1.01156
1.01013
1.00844
1.00656
1.00459
1.00263
1.00076
0.999074
0.997646
0.996546
1.01346
1.01394
1.0139
1.01358
1.01281
1.0117
1.01024
1.00852
1.00661
1.0046
1.00259
1.00068
0.998963
0.997506
0.996383
1.01365
1.01413
1.01409
1.01377
1.01298
1.01185
1.01037
1.00861
1.00665
1.0046
1.00255
1.00061
0.998849
0.997363
0.996216
1.01384
1.01433
1.01429
1.01396
1.01316
1.01201
1.01049
1.00869
1.0067
1.0046
1.00251
1.00052
0.998731
0.997216
0.996046
1.01404
1.01453
1.01449
1.01415
1.01334
1.01216
1.01061
1.00878
1.00674
1.0046
1.00247
1.00044
0.998611
0.997066
0.995872
1.01424
1.01474
1.01469
1.01435
1.01352
1.01232
1.01074
1.00887
1.00679
1.0046
1.00242
1.00035
0.998489
0.996912
0.995694
1.01444
1.01495
1.0149
1.01455
1.0137
1.01248
1.01087
1.00896
1.00683
1.0046
1.00238
1.00027
0.998363
0.996755
0.995513
1.01465
1.01516
1.01512
1.01476
1.01389
1.01264
1.011
1.00905
1.00688
1.0046
1.00233
1.00018
0.998235
0.996595
0.995328
1.01486
1.01538
1.01533
1.01497
1.01409
1.01281
1.01113
1.00914
1.00693
1.0046
1.00228
1.00009
0.998103
0.996431
0.995139
1.01507
1.0156
1.01555
1.01518
1.01428
1.01298
1.01127
1.00923
1.00698
1.0046
1.00223
0.999991
0.997969
0.996264
0.994945
1.01529
1.01583
1.01578
1.0154
1.01448
1.01316
1.01141
1.00933
1.00702
1.0046
1.00218
0.999895
0.997832
0.996093
0.994748
1.01552
1.01606
1.01601
1.01562
1.01469
1.01333
1.01155
1.00943
1.00707
1.0046
1.00213
0.999797
0.997692
0.995919
0.994546
1.01575
1.0163
1.01625
1.01585
1.0149
1.01352
1.01169
1.00953
1.00712
1.0046
1.00208
0.999695
0.997548
0.99574
0.994339
1.01598
1.01654
1.01649
1.01608
1.01511
1.0137
1.01184
1.00963
1.00718
1.0046
1.00202
0.999592
0.997401
0.995556
0.994128
1.01622
1.01678
1.01673
1.01632
1.01533
1.01389
1.01199
1.00974
1.00723
1.00459
1.00197
0.999485
0.997249
0.995369
0.993912
1.01646
1.01703
1.01698
1.01656
1.01555
1.01409
1.01215
1.00984
1.00728
1.00459
1.00191
0.999374
0.997094
0.995177
0.993691
1.0167
1.01729
1.01723
1.01681
1.01578
1.01428
1.0123
1.00995
1.00733
1.00458
1.00185
0.999261
0.996935
0.99498
0.993466
1.01696
1.01755
1.01749
1.01706
1.01601
1.01448
1.01246
1.01006
1.00738
1.00458
1.00178
0.999144
0.996771
0.994779
0.993235
1.01721
1.01781
1.01776
1.01731
1.01625
1.01469
1.01263
1.01017
1.00744
1.00457
1.00172
0.999023
0.996604
0.994573
0.993
1.01747
1.01808
1.01803
1.01757
1.01649
1.0149
1.01279
1.01028
1.00749
1.00456
1.00165
0.9989
0.996432
0.994362
0.992759
1.01774
1.01836
1.01831
1.01784
1.01673
1.01511
1.01296
1.01039
1.00754
1.00455
1.00158
0.998773
0.996257
0.994147
0.992513
1.01801
1.01864
1.01859
1.01811
1.01699
1.01532
1.01313
1.01051
1.00759
1.00454
1.0015
0.998642
0.996077
0.993927
0.992262
1.01829
1.01892
1.01887
1.01839
1.01724
1.01555
1.0133
1.01062
1.00765
1.00453
1.00143
0.998509
0.995893
0.993702
0.992005
1.01857
1.01922
1.01917
1.01867
1.0175
1.01577
1.01348
1.01074
1.0077
1.00451
1.00135
0.998371
0.995704
0.993472
0.991743
1.01886
1.01951
1.01946
1.01896
1.01777
1.016
1.01366
1.01086
1.00775
1.0045
1.00127
0.99823
0.995511
0.993236
0.991475
1.01916
1.01982
1.01977
1.01926
1.01804
1.01623
1.01384
1.01098
1.00781
1.00448
1.00118
0.998085
0.995312
0.992995
0.991201
1.01945
1.02013
1.02008
1.01956
1.01831
1.01647
1.01403
1.01111
1.00786
1.00446
1.0011
0.997936
0.995109
0.992748
0.990921
1.01976
1.02044
1.0204
1.01986
1.0186
1.01672
1.01422
1.01123
1.00791
1.00444
1.00101
0.997782
0.9949
0.992496
0.990635
1.02007
1.02076
1.02072
1.02018
1.01889
1.01696
1.01441
1.01136
1.00797
1.00442
1.00091
0.997624
0.994687
0.992237
0.990343
1.02039
1.02109
1.02105
1.0205
1.01918
1.01722
1.01461
1.01149
1.00802
1.0044
1.00082
0.997461
0.994467
0.991973
0.990045
1.02071
1.02143
1.02139
1.02082
1.01948
1.01748
1.01481
1.01162
1.00807
1.00437
1.00072
0.997293
0.994243
0.991703
0.98974
1.02104
1.02177
1.02173
1.02116
1.01979
1.01774
1.01501
1.01175
1.00813
1.00435
1.00061
0.997121
0.994013
0.991427
0.989429
1.02138
1.02212
1.02208
1.0215
1.0201
1.01801
1.01522
1.01188
1.00818
1.00432
1.00051
0.996945
0.993777
0.991144
0.989111
1.02172
1.02248
1.02244
1.02185
1.02042
1.01828
1.01543
1.01202
1.00823
1.00429
1.0004
0.996763
0.993536
0.990855
0.988787
1.02207
1.02284
1.02281
1.0222
1.02075
1.01856
1.01564
1.01216
1.00828
1.00425
1.00028
0.996576
0.993288
0.99056
0.988455
1.02243
1.02321
1.02318
1.02256
1.02108
1.01884
1.01586
1.01229
1.00834
1.00422
1.00016
0.996385
0.993035
0.990258
0.988116
1.02279
1.02359
1.02356
1.02293
1.02142
1.01914
1.01609
1.01244
1.00839
1.00418
1.00004
0.996187
0.992775
0.989948
0.98777
1.02316
1.02397
1.02395
1.02331
1.02177
1.01943
1.01631
1.01258
1.00844
1.00414
0.999913
0.995984
0.992508
0.989631
0.987416
1.02354
1.02437
1.02435
1.0237
1.02212
1.01973
1.01654
1.01272
1.00849
1.00409
0.999781
0.995774
0.992233
0.989307
0.987055
1.02393
1.02477
1.02475
1.02409
1.02248
1.02004
1.01678
1.01287
1.00854
1.00405
0.999643
0.995558
0.991952
0.988974
0.986685
1.02432
1.02518
1.02517
1.02449
1.02285
1.02036
1.01702
1.01301
1.00859
1.00399
0.9995
0.995335
0.991663
0.988634
0.986308
1.02472
1.0256
1.02559
1.0249
1.02323
1.02068
1.01726
1.01316
1.00863
1.00394
0.999351
0.995104
0.991365
0.988286
0.985922
1.02513
1.02603
1.02602
1.02532
1.02361
1.021
1.0175
1.01331
1.00868
1.00388
0.999195
0.994866
0.99106
0.987929
0.985528
1.02555
1.02646
1.02646
1.02575
1.024
1.02133
1.01775
1.01346
1.00872
1.00382
0.999034
0.994621
0.990747
0.987564
0.985125
1.02597
1.02691
1.02691
1.02619
1.0244
1.02167
1.018
1.01361
1.00876
1.00375
0.998866
0.994369
0.990426
0.987191
0.984715
1.02641
1.02736
1.02737
1.02663
1.02481
1.02202
1.01826
1.01376
1.00879
1.00367
0.998692
0.994108
0.990096
0.986809
0.984295
1.02685
1.02783
1.02784
1.02709
1.02523
1.02237
1.01852
1.01391
1.00883
1.00359
0.998511
0.99384
0.989759
0.986418
0.983867
1.0273
1.0283
1.02832
1.02756
1.02566
1.02273
1.01878
1.01406
1.00886
1.00351
0.998323
0.993565
0.989413
0.986019
0.983431
1.02776
1.02878
1.02881
1.02803
1.02609
1.02309
1.01905
1.01421
1.00889
1.00342
0.998129
0.993281
0.989058
0.985611
0.982985
1.02823
1.02928
1.02931
1.02852
1.02654
1.02346
1.01932
1.01437
1.00892
1.00333
0.997928
0.992989
0.988694
0.985193
0.98253
1.02871
1.02978
1.02982
1.02902
1.02699
1.02384
1.0196
1.01452
1.00895
1.00323
0.997719
0.992688
0.988321
0.984766
0.982065
1.0292
1.0303
1.03034
1.02953
1.02745
1.02423
1.01988
1.01468
1.00897
1.00313
0.997503
0.992379
0.987938
0.984329
0.981591
1.0297
1.03083
1.03088
1.03005
1.02793
1.02462
1.02016
1.01483
1.00899
1.00302
0.997278
0.99206
0.987545
0.983882
0.981106
1.03021
1.03137
1.03142
1.03058
1.02841
1.02502
1.02045
1.01499
1.009
1.0029
0.997045
0.991731
0.987142
0.983424
0.980611
1.03073
1.03192
1.03198
1.03112
1.02891
1.02543
1.02074
1.01514
1.00901
1.00278
0.996802
0.991391
0.986728
0.982956
0.980106
1.03127
1.03248
1.03255
1.03168
1.02941
1.02585
1.02104
1.01529
1.00902
1.00265
0.99655
0.991041
0.986302
0.982477
0.97959
1.03181
1.03306
1.03314
1.03225
1.02993
1.02627
1.02134
1.01545
1.00902
1.00251
0.996288
0.99068
0.985865
0.981986
0.979063
1.03236
1.03364
1.03374
1.03283
1.03045
1.02671
1.02164
1.0156
1.00902
1.00236
0.996015
0.990306
0.985417
0.981483
0.978525
1.03293
1.03424
1.03435
1.03342
1.03099
1.02715
1.02195
1.01575
1.00901
1.0022
0.99573
0.989921
0.984956
0.980969
0.977976
1.03351
1.03486
1.03497
1.03403
1.03154
1.02759
1.02225
1.0159
1.00899
1.00203
0.995434
0.989523
0.984482
0.980443
0.977416
1.0341
1.03549
1.03561
1.03465
1.0321
1.02805
1.02257
1.01604
1.00897
1.00185
0.995126
0.989112
0.983996
0.979904
0.976844
1.0347
1.03613
1.03626
1.03529
1.03268
1.02851
1.02288
1.01618
1.00894
1.00166
0.994805
0.988689
0.983497
0.979353
0.97626
1.03532
1.03679
1.03693
1.03594
1.03326
1.02898
1.0232
1.01632
1.0089
1.00147
0.994472
0.988251
0.982984
0.97879
0.975665
1.03595
1.03746
1.03762
1.03661
1.03386
1.02946
1.02351
1.01646
1.00885
1.00125
0.994125
0.9878
0.982458
0.978213
0.975057
1.0366
1.03815
1.03832
1.03729
1.03447
1.02995
1.02383
1.01659
1.0088
1.00103
0.993765
0.987335
0.981918
0.977624
0.974438
1.03726
1.03885
1.03903
1.03798
1.03509
1.03045
1.02416
1.01672
1.00873
1.0008
0.99339
0.986855
0.981364
0.977021
0.973805
1.03793
1.03957
1.03977
1.0387
1.03573
1.03095
1.02448
1.01684
1.00866
1.00055
0.993001
0.98636
0.980796
0.976405
0.973161
1.03862
1.04031
1.04052
1.03943
1.03638
1.03146
1.02481
1.01696
1.00857
1.00028
0.992596
0.98585
0.980212
0.975774
0.972503
1.03932
1.04106
1.04129
1.04018
1.03705
1.03198
1.02513
1.01707
1.00848
1.00001
0.992175
0.985323
0.979613
0.97513
0.971833
1.04004
1.04183
1.04208
1.04094
1.03773
1.03251
1.02546
1.01717
1.00837
0.999715
0.991737
0.984779
0.978998
0.97447
0.971148
1.04078
1.04262
1.04289
1.04173
1.03842
1.03305
1.02579
1.01727
1.00825
0.999406
0.991282
0.984219
0.978367
0.973796
0.970451
1.04154
1.04343
1.04371
1.04253
1.03913
1.03359
1.02612
1.01736
1.00811
0.99908
0.990809
0.98364
0.977719
0.973106
0.969739
1.04231
1.04426
1.04456
1.04335
1.03986
1.03414
1.02644
1.01744
1.00796
0.998737
0.990317
0.983043
0.977054
0.972401
0.969014
1.0431
1.04511
1.04543
1.0442
1.0406
1.0347
1.02677
1.01751
1.00779
0.998375
0.989806
0.982427
0.976371
0.971679
0.968274
1.04391
1.04598
1.04632
1.04506
1.04135
1.03527
1.02709
1.01757
1.00761
0.997993
0.989274
0.981792
0.97567
0.970942
0.96752
1.04473
1.04687
1.04724
1.04594
1.04212
1.03585
1.02741
1.01762
1.00741
0.99759
0.98872
0.981136
0.974951
0.970188
0.966751
1.04558
1.04779
1.04818
1.04685
1.04291
1.03643
1.02772
1.01765
1.00719
0.997166
0.988145
0.980459
0.974212
0.969417
0.965967
1.04645
1.04872
1.04914
1.04778
1.04371
1.03701
1.02803
1.01767
1.00695
0.996719
0.987547
0.979761
0.973455
0.968628
0.965167
1.04734
1.04968
1.05012
1.04873
1.04453
1.03761
1.02833
1.01768
1.00669
0.996248
0.986925
0.979041
0.972677
0.967823
0.964353
1.04825
1.05067
1.05114
1.04971
1.04537
1.0382
1.02863
1.01767
1.00641
0.995752
0.986279
0.978298
0.971879
0.966999
0.963522
1.04918
1.05168
1.05218
1.05071
1.04622
1.03881
1.02892
1.01764
1.0061
0.995231
0.985608
0.977532
0.971061
0.966157
0.962677
1.05014
1.05271
1.05324
1.05173
1.0471
1.03942
1.0292
1.01759
1.00577
0.994682
0.98491
0.976742
0.970221
0.965297
0.961814
1.05112
1.05378
1.05434
1.05279
1.04798
1.04003
1.02947
1.01752
1.00541
0.994105
0.984185
0.975927
0.969359
0.964418
0.960936
1.05212
1.05487
1.05546
1.05386
1.04889
1.04064
1.02973
1.01743
1.00502
0.993499
0.983432
0.975087
0.968476
0.963519
0.960041
1.05316
1.05599
1.05662
1.05497
1.04981
1.04125
1.02997
1.01731
1.00461
0.992862
0.982651
0.974221
0.96757
0.962602
0.95913
1.05421
1.05714
1.05781
1.05611
1.05075
1.04187
1.0302
1.01716
1.00416
0.992193
0.981839
0.973329
0.966641
0.961665
0.958201
1.0553
1.05832
1.05903
1.05727
1.05171
1.04249
1.03041
1.01699
1.00368
0.99149
0.980996
0.972409
0.965688
0.960707
0.957256
1.05641
1.05953
1.06028
1.05846
1.05268
1.0431
1.0306
1.01679
1.00316
0.990752
0.980122
0.971461
0.964712
0.95973
0.956294
1.05755
1.06078
1.06157
1.05969
1.05367
1.04371
1.03077
1.01655
1.00261
0.989978
0.979214
0.970485
0.963711
0.958732
0.955314
1.05872
1.06206
1.0629
1.06094
1.05467
1.04431
1.03092
1.01628
1.00201
0.989167
0.978273
0.96948
0.962686
0.957713
0.954317
1.05993
1.06338
1.06426
1.06223
1.05569
1.04491
1.03104
1.01597
1.00138
0.988316
0.977296
0.968445
0.961636
0.956674
0.953302
1.06116
1.06473
1.06567
1.06355
1.05673
1.0455
1.03113
1.01563
1.0007
0.987424
0.976284
0.967379
0.96056
0.955613
0.952269
1.06243
1.06613
1.06712
1.0649
1.05777
1.04607
1.03119
1.01523
0.999977
0.98649
0.975235
0.966282
0.959458
0.954531
0.951219
1.06374
1.06756
1.06861
1.06629
1.05884
1.04664
1.03121
1.0148
0.999206
0.985512
0.974148
0.965153
0.95833
0.953427
0.95015
1.06508
1.06904
1.07014
1.06771
1.05991
1.04718
1.0312
1.01431
0.998386
0.984488
0.973021
0.963992
0.957175
0.952301
0.949064
1.06645
1.07056
1.07172
1.06917
1.06099
1.04771
1.03114
1.01377
0.997513
0.983418
0.971855
0.962798
0.955994
0.951153
0.947959
1.06787
1.07213
1.07335
1.07067
1.06208
1.04821
1.03104
1.01317
0.996585
0.982299
0.970648
0.96157
0.954785
0.949983
0.946836
1.06933
1.07374
1.07503
1.0722
1.06318
1.04869
1.03088
1.01252
0.995601
0.98113
0.969399
0.960309
0.953549
0.948791
0.945694
1.07083
1.0754
1.07676
1.07377
1.06428
1.04913
1.03067
1.0118
0.994556
0.979909
0.968108
0.959013
0.952285
0.947576
0.944535
1.07237
1.07712
1.07855
1.07538
1.06538
1.04954
1.0304
1.01102
0.99345
0.978635
0.966772
0.957682
0.950993
0.946338
0.943356
1.07396
1.07889
1.08039
1.07702
1.06648
1.0499
1.03007
1.01016
0.992278
0.977306
0.965393
0.956315
0.949673
0.945079
0.94216
1.0756
1.08072
1.0823
1.0787
1.06758
1.05022
1.02966
1.00924
0.99104
0.975921
0.963968
0.954913
0.948325
0.943796
0.940944
1.07728
1.08261
1.08426
1.08041
1.06867
1.05049
1.02918
1.00823
0.989732
0.974478
0.962498
0.953475
0.946948
0.942491
0.93971
1.07902
1.08457
1.08629
1.08216
1.06974
1.0507
1.02862
1.00714
0.988351
0.972976
0.960981
0.952001
0.945543
0.941163
0.938458
1.08081
1.08658
1.08838
1.08395
1.07079
1.05084
1.02797
1.00596
0.986896
0.971415
0.959417
0.95049
0.94411
0.939812
0.937187
1.08265
1.08867
1.09055
1.08577
1.07182
1.05091
1.02723
1.0047
0.985364
0.969791
0.957805
0.948943
0.942648
0.938439
0.935898
1.08456
1.09084
1.09278
1.08762
1.07281
1.05089
1.02638
1.00333
0.983753
0.968106
0.956145
0.947359
0.941157
0.937043
0.934591
1.08652
1.09308
1.09509
1.08949
1.07377
1.05079
1.02543
1.00187
0.98206
0.966357
0.954437
0.945738
0.939638
0.935625
0.933265
1.08855
1.0954
1.09747
1.0914
1.07468
1.05058
1.02436
1.00031
0.980283
0.964543
0.952681
0.94408
0.938091
0.934184
0.931921
1.09065
1.09781
1.09993
1.09332
1.07553
1.05026
1.02317
0.998633
0.978421
0.962664
0.950875
0.942385
0.936516
0.932722
0.930559
1.09281
1.10031
1.10248
1.09526
1.07631
1.04983
1.02185
0.996848
0.976471
0.96072
0.949021
0.940655
0.934912
0.931237
0.929179
1.09505
1.1029
1.1051
1.0972
1.07701
1.04926
1.02039
0.994947
0.974433
0.95871
0.947118
0.938888
0.933281
0.929731
0.927782
1.09737
1.1056
1.10781
1.09915
1.07762
1.04854
1.01879
0.992926
0.972304
0.956633
0.945166
0.937085
0.931623
0.928204
0.926367
1.09976
1.10841
1.1106
1.1011
1.07813
1.04767
1.01703
0.990783
0.970085
0.95449
0.943167
0.935246
0.929938
0.926655
0.924935
1.10225
1.11133
1.11348
1.10302
1.07851
1.04662
1.01511
0.988514
0.967773
0.95228
0.94112
0.933373
0.928227
0.925085
0.923485
1.10482
1.11437
1.11644
1.10492
1.07875
1.0454
1.01303
0.986117
0.965368
0.950005
0.939025
0.931466
0.92649
0.923495
0.922019
1.10749
1.11755
1.11949
1.10678
1.07884
1.04397
1.01077
0.983589
0.962871
0.947664
0.936885
0.929525
0.924727
0.921885
0.920537
1.11026
1.12086
1.12261
1.10858
1.07875
1.04233
1.00832
0.980929
0.960281
0.945259
0.934698
0.927551
0.92294
0.920256
0.919038
1.11314
1.12431
1.12582
1.11031
1.07846
1.04046
1.00569
0.978135
0.957599
0.94279
0.932468
0.925546
0.921128
0.918607
0.917524
1.11613
1.12792
1.12909
1.11194
1.07795
1.03835
1.00287
0.975208
0.954826
0.940258
0.930195
0.923509
0.919294
0.91694
0.915995
1.11924
1.13168
1.13243
1.11345
1.07719
1.03598
0.999848
0.972146
0.951963
0.937666
0.927879
0.921444
0.917436
0.915254
0.91445
1.12249
1.13562
1.13583
1.11482
1.07616
1.03334
0.996624
0.968951
0.949013
0.935015
0.925524
0.919349
0.915557
0.913552
0.912891
1.12588
1.13974
1.13927
1.11602
1.07483
1.03041
0.993197
0.965625
0.945976
0.932307
0.92313
0.917227
0.913657
0.911832
0.911318
1.12942
1.14404
1.14273
1.11701
1.07317
1.02718
0.989563
0.962169
0.942856
0.929544
0.9207
0.91508
0.911738
0.910096
0.909732
1.13312
1.14854
1.1462
1.11776
1.07115
1.02365
0.985725
0.958588
0.939656
0.92673
0.918236
0.912908
0.909799
0.908345
0.908132
1.137
1.15324
1.14966
1.11822
1.06875
1.01979
0.981683
0.954884
0.93638
0.923866
0.915739
0.910713
0.907843
0.906578
0.906519
1.14107
1.15814
1.15308
1.11837
1.06592
1.0156
0.97744
0.951064
0.933031
0.920956
0.913212
0.908497
0.905869
0.904798
0.904895
1.14534
1.16326
1.15642
1.11814
1.06265
1.01108
0.973002
0.947133
0.929614
0.918003
0.910658
0.906261
0.903881
0.903004
0.903258
1.14985
1.16858
1.15964
1.11748
1.05891
1.00622
0.968377
0.943098
0.926132
0.915012
0.908079
0.904008
0.901877
0.901198
0.901611
1.1546
1.17412
1.16271
1.11635
1.05465
1.00102
0.963573
0.938965
0.922593
0.911984
0.905477
0.901739
0.899861
0.89938
0.899953
1.15963
1.17986
1.16556
1.11469
1.04987
0.995486
0.958602
0.934744
0.919
0.908926
0.902857
0.899455
0.897832
0.897551
0.898284
1.16495
1.1858
1.16813
1.11243
1.04453
0.989626
0.953476
0.930442
0.91536
0.905841
0.900221
0.89716
0.895793
0.895712
0.896607
1.1706
1.19192
1.17036
1.10951
1.03862
0.983452
0.948212
0.92607
0.911678
0.902733
0.897571
0.894854
0.893745
0.893864
0.894921
1.17661
1.19819
1.17218
1.10587
1.03212
0.976979
0.942825
0.921635
0.907961
0.899607
0.894912
0.89254
0.891688
0.892008
0.893227
1.18301
1.20458
1.17348
1.10144
1.02503
0.970232
0.937334
0.917149
0.904216
0.896468
0.892245
0.89022
0.889625
0.890145
0.891526
1.18985
1.21106
1.17417
1.09616
1.01734
0.963236
0.931758
0.912621
0.900449
0.893322
0.889576
0.887896
0.887556
0.888275
0.889818
1.19715
1.21756
1.17415
1.08997
1.00908
0.956025
0.926117
0.908062
0.896667
0.890172
0.886906
0.88557
0.885483
0.886401
0.888105
1.20497
1.22401
1.1733
1.08281
1.00025
0.948636
0.920433
0.903481
0.892877
0.887024
0.884238
0.883243
0.883408
0.884522
0.886387
1.21336
1.23034
1.1715
1.07464
0.990892
0.941111
0.914725
0.898888
0.889087
0.883884
0.881577
0.880918
0.881331
0.88264
0.884665
1.22235
1.23642
1.1686
1.06541
0.98105
0.933494
0.909013
0.894292
0.885304
0.880756
0.878925
0.878598
0.879256
0.880757
0.882939
1.232
1.24214
1.16447
1.0551
0.970783
0.925835
0.903316
0.889705
0.881536
0.877646
0.876286
0.876283
0.877182
0.878874
0.881212
1.24235
1.24735
1.15896
1.0437
0.960163
0.918182
0.897652
0.885133
0.87779
0.87456
0.873662
0.873977
0.875112
0.876992
0.879483
1.25345
1.25185
1.15192
1.03123
0.949279
0.910583
0.892035
0.880588
0.874076
0.871502
0.871057
0.87168
0.873048
0.875112
0.877753
1.26531
1.25544
1.14321
1.01772
0.938231
0.903086
0.886477
0.876078
0.870401
0.868478
0.868473
0.869397
0.870992
0.873236
0.876025
1.27796
1.25787
1.13267
1.00326
0.92713
0.895731
0.880991
0.871614
0.866775
0.865492
0.865914
0.867129
0.868946
0.871367
0.874298
1.2914
1.25885
1.12018
0.987935
0.916096