/*--------------------------------*- C++ -*----------------------------------*\
  =========                 |
  \\      /  F ield         | OpenFOAM: The Open Source CFD Toolbox
   \\    /   O peration     | Website:  https://openfoam.org
    \\  /    A nd           | Version:  6.0
     \\/     M anipulation  |
\*---------------------------------------------------------------------------*/
FoamFile
{
    version     2.0;
    format      ascii;
    class       surfaceScalarField;
    location    "20";
    object      phi;
}
// * * * * * * * * * * * * * * * * * * * * * * * * * * * * * * * * * * * * * //

dimensions      [0 3 -1 0 0 0 0];

internalField   nonuniform List<scalar> 
3880
(
-1.7983e-05
1.79828e-05
1.0227e-10
-5.35259e-05
3.55427e-05
2.41712e-10
-9.54476e-05
4.19212e-05
3.91136e-10
-0.000136676
4.12276e-05
5.37424e-10
-0.000172845
3.61686e-05
6.72783e-10
-0.000201541
2.86955e-05
7.92468e-10
-0.000221833
2.02904e-05
8.95451e-10
-0.000233961
1.21276e-05
9.8258e-10
-0.000239138
5.17606e-06
1.05141e-09
2.01995e-07
1.11682e-09
-0.000239341
-1.73074e-05
3.52902e-05
-5.08866e-05
6.9122e-05
-8.96932e-05
8.07279e-05
-0.000126767
7.83014e-05
-0.000157783
6.71842e-05
-0.000180292
5.12046e-05
-0.000193274
3.32726e-05
-0.000196871
1.57249e-05
-0.000192239
5.43848e-07
-1.06484e-05
-0.000181389
-1.59207e-05
5.12109e-05
-4.54904e-05
9.86918e-05
-7.79796e-05
0.000113217
-0.000106696
0.000107018
-0.000127438
8.79265e-05
-0.000137725
6.14912e-05
-0.000136376
3.19239e-05
-0.000123325
2.67369e-06
-9.95882e-05
-2.31927e-05
-4.30068e-05
-6.72298e-05
-1.37349e-05
6.49458e-05
-3.70535e-05
0.00012201
-5.97945e-05
0.000135958
-7.57721e-05
0.000122995
-8.1084e-05
9.32384e-05
-7.33009e-05
5.37082e-05
-5.10663e-05
9.68927e-06
-1.39935e-05
-3.43991e-05
3.71715e-05
-7.43577e-05
-0.000106179
0.000100344
-1.05855e-05
7.55313e-05
-2.50543e-05
0.000136479
-3.41617e-05
0.000145065
-3.25692e-05
0.000121403
-1.69808e-05
7.76501e-05
1.4741e-05
2.19865e-05
6.40162e-05
-3.9586e-05
0.000131614
-0.000101997
0.000217261
-0.000160004
-0.000207889
0.00031897
-6.21959e-06
8.17509e-05
-8.69885e-06
0.000138958
4.65975e-07
0.000135901
2.53487e-05
9.65199e-05
6.8185e-05
3.48138e-05
0.000130351
-4.01795e-05
0.000212946
-0.000122181
0.000316992
-0.000206043
0.000442929
-0.000285941
-0.000353999
0.000589039
-3.23041e-07
8.20739e-05
1.29956e-05
0.00012564
4.60952e-05
0.000102801
0.000101395
4.12204e-05
0.000179546
-4.33379e-05
0.000280447
-0.00014108
0.000404027
-0.000245761
0.000550866
-0.000352883
0.000722083
-0.000457158
-0.000548725
0.000916808
7.39011e-06
7.46838e-05
4.09195e-05
9.21103e-05
0.000104668
3.90527e-05
0.000199228
-5.33397e-05
0.000323304
-0.000167414
0.000474524
-0.0002923
0.000650283
-0.000421519
0.000848902
-0.000551502
0.00107089
-0.000679148
-0.000797595
0.00131976
1.70295e-05
5.76543e-05
7.53928e-05
3.37471e-05
0.00017709
-6.26443e-05
0.0003212
-0.00019745
0.000504765
-0.000350979
0.000723004
-0.000510539
0.000969637
-0.000668153
0.00123788
-0.000819748
0.00152403
-0.000965296
-0.00111574
0.00184218
2.83303e-05
2.9324e-05
0.000115503
-5.34256e-05
0.000261729
-0.00020887
0.0004656
-0.000401322
0.000724313
-0.000609692
0.00103338
-0.000819603
0.00138598
-0.00102075
0.00177134
-0.00120511
0.00217385
-0.0013678
-0.00151246
0.00257056
4.04764e-05
-1.11524e-05
0.000158392
-0.000171341
0.000352142
-0.00040262
0.000620464
-0.000669644
0.00096274
-0.000951967
0.00137966
-0.00123653
0.00187448
-0.00151557
0.00245624
-0.00178686
0.00314765
-0.00205921
-0.00237073
0.00400592
5.23817e-05
-6.35341e-05
0.000200047
-0.000319006
0.000438221
-0.000640794
0.000763399
-0.000994823
0.00117291
-0.00136148
0.00166491
-0.00172852
0.00223832
-0.00208899
0.0028923
-0.00244084
0.00362137
-0.00278828
-0.00314062
0.00439125
6.35245e-05
-0.000127059
0.000238408
-0.000493889
0.000515214
-0.000917601
0.00088594
-0.00136555
0.00134283
-0.00181837
0.00187776
-0.00226345
0.00248153
-0.00269276
0.00314234
-0.00310165
0.00384165
-0.00348759
-0.00384466
0.00454569
7.39255e-05
-0.000200984
0.000273198
-0.000693162
0.000582579
-0.00122698
0.000988286
-0.00177125
0.00147644
-0.00230653
0.00203244
-0.00281944
0.00264047
-0.00330079
0.00328281
-0.00374399
0.00393816
-0.00414294
-0.00448664
0.00458014
8.37294e-05
-0.000284714
0.000304567
-0.000913999
0.000640592
-0.00156301
0.00107162
-0.00220228
0.00157761
-0.00281252
0.00213837
-0.00338021
0.00273368
-0.0038961
0.0033434
-0.00435371
0.00394736
-0.00474691
-0.00506497
0.00452569
9.29271e-05
-0.000377641
0.000332259
-0.00115333
0.000688686
-0.00191943
0.0011354
-0.00264899
0.00164663
-0.00332376
0.00219784
-0.00393141
0.00276626
-0.00446452
0.00333158
-0.00491903
0.00387633
-0.00529166
-0.00557526
0.00438662
0.000101275
-0.000478916
0.000355393
-0.00140745
0.000725154
-0.00228919
0.00117723
-0.00310107
0.00168092
-0.00382744
0.00220868
-0.00445917
0.00273697
-0.00499282
0.00324695
-0.00542901
0.00372475
-0.00576947
-0.0060127
0.00416219
0.000108343
-0.000587259
0.000372623
-0.00167173
0.00074757
-0.00266414
0.00119382
-0.00354732
0.00167687
-0.00431049
0.00216772
-0.00495002
0.0026437
-0.0054688
0.00308872
-0.00587403
0.0034932
-0.00617394
-0.00637371
0.00385421
0.000113606
-0.000700865
0.000382432
-0.00194055
0.000753417
-0.00303513
0.0011821
-0.00397601
0.0016316
-0.00475998
0.00207316
-0.00539157
0.00248642
-0.00588207
0.00285907
-0.00624668
0.00318601
-0.00650088
-0.00665668
0.00346898
0.000116532
-0.000817397
0.000383402
-0.00220743
0.000740603
-0.00339233
0.00113997
-0.00437538
0.00154395
-0.00516396
0.00192563
-0.00577326
0.00226821
-0.00622465
0.00256369
-0.00654215
0.00281134
-0.00674853
-0.00686207
0.00301673
0.000116653
-0.00093405
0.000374425
-0.0024652
0.000707809
-0.00372571
0.00106673
-0.0047343
0.00141479
-0.00551202
0.00172838
-0.00608684
0.00199503
-0.0064913
0.00221122
-0.00675834
0.00238012
-0.00691744
-0.00699206
0.00251012
0.000113568
-0.00104762
0.000354734
-0.00270636
0.000654522
-0.0040255
0.000963037
-0.00504282
0.00124679
-0.00579577
0.00148662
-0.00632666
0.00167479
-0.00667947
0.00181196
-0.00689551
0.00190449
-0.00700997
-0.00705016
0.00196259
0.000107017
-0.00115464
0.000324044
-0.00292339
0.000581162
-0.00428262
0.000830865
-0.00529252
0.00104416
-0.00600907
0.00120704
-0.00648955
0.00131651
-0.00678894
0.00137682
-0.00695582
0.00139664
-0.00702979
-0.00704066
0.00138714
9.68523e-05
-0.00125149
0.000282478
-0.00310901
0.000488885
-0.00448903
0.000673124
-0.00547676
0.000811961
-0.00614791
0.000896911
-0.0065745
0.000929302
-0.00682133
0.000916225
-0.00694275
0.000867771
-0.00698133
-0.00696824
0.000795344
8.30568e-05
-0.00133454
0.000230556
-0.00325651
0.000379461
-0.00463793
0.00049335
-0.00559065
0.000555643
-0.0062102
0.00056337
-0.00658222
0.000521604
-0.00677956
0.000439381
-0.00686052
0.000327383
-0.00686933
-0.0068376
0.00019675
6.57487e-05
-0.00140029
0.000169165
-0.00335993
0.000255154
-0.00472392
0.000295443
-0.00563093
0.00028061
-0.00619537
0.000212948
-0.00651456
0.000100597
-0.00666721
-4.62987e-05
-0.00671363
-0.000217224
-0.00669841
-0.00665332
-0.000401511
4.52e-05
-0.00144549
9.95725e-05
-0.0034143
0.000118677
-0.00474302
8.35629e-05
-0.00559582
-7.91878e-06
-0.00610389
-0.000148642
-0.00637384
-0.000328015
-0.00648784
-0.000535455
-0.00650619
-0.000761237
-0.00647263
-0.00641913
-0.000995429
2.18628e-05
-0.00146736
2.34534e-05
-0.00341589
-2.67722e-05
-0.0046928
-0.000137815
-0.00548478
-0.000304823
-0.00593688
-0.000516385
-0.00616228
-0.000759919
-0.0062443
-0.0010248
-0.00624131
-0.00130262
-0.00619481
-0.00613542
-0.00158632
-3.59001e-06
-0.00146377
-5.70264e-05
-0.00336246
-0.000177392
-0.00457243
-0.000363743
-0.00529843
-0.000604984
-0.00569564
-0.000886207
-0.00588105
-0.00119318
-0.00593733
-0.0015151
-0.00591939
-0.00184512
-0.00586479
-0.00579546
-0.00218508
-3.02004e-05
-0.00143357
-0.000139036
-0.00325362
-0.000328317
-0.00438315
-0.000587821
-0.00503892
-0.000901712
-0.00538175
-0.00125337
-0.00552939
-0.00162826
-0.00556245
-0.00201596
-0.00553169
-0.00241275
-0.005468
-0.0054044
-0.0028038
-5.67307e-05
-0.00137683
-0.000219046
-0.00309131
-0.000473119
-0.00412908
-0.000800102
-0.00471194
-0.00118085
-0.005001
-0.00159945
-0.0051108
-0.00204462
-0.00511728
-0.00250917
-0.00506714
-0.0029919
-0.00498527
-0.0048705
-0.0035258
-8.21013e-05
-0.00129473
-0.000294004
-0.0028794
-0.000606033
-0.00381705
-0.000990439
-0.00432753
-0.00142367
-0.00456777
-0.00188767
-0.0046468
-0.00236945
-0.00463549
-0.00285999
-0.0045766
-0.00335296
-0.0044923
-0.00439068
-0.00383278
-0.000105676
-0.00118906
-0.000362536
-0.00262254
-0.000725714
-0.00345387
-0.00115918
-0.00389407
-0.00163539
-0.00409155
-0.00213464
-0.00414755
-0.00264346
-0.00412667
-0.00315283
-0.00406723
-0.00365556
-0.00398957
-0.00390411
-0.00414214
-0.000127115
-0.00106194
-0.000424066
-0.00232559
-0.00083208
-0.00304586
-0.00130794
-0.00341821
-0.0018211
-0.0035784
-0.00235107
-0.00361758
-0.00288478
-0.00359296
-0.00341406
-0.00353795
-0.00393332
-0.00347031
-0.0033994
-0.00443803
-0.00014616
-0.000915782
-0.000478171
-0.00199358
-0.000924971
-0.00259906
-0.00143735
-0.00290583
-0.00198254
-0.00303321
-0.00253992
-0.0030602
-0.00309718
-0.00303569
-0.00364732
-0.00298781
-0.00418638
-0.00293126
-0.00287372
-0.00471205
-0.000162567
-0.000753215
-0.000524402
-0.00163174
-0.00100397
-0.0021195
-0.00154718
-0.00236262
-0.00211971
-0.00246068
-0.00270106
-0.00247885
-0.00327978
-0.00245697
-0.00384994
-0.00241765
-0.00440874
-0.00237246
-0.0023274
-0.00495507
-0.000176087
-0.000577128
-0.000562254
-0.00124558
-0.00106842
-0.00161333
-0.0016367
-0.00179434
-0.00223167
-0.00186571
-0.00283305
-0.00187746
-0.00343016
-0.00185987
-0.00401793
-0.00182988
-0.00459431
-0.00179607
-0.00176282
-0.00515889
-0.000186481
-0.000390647
-0.000591209
-0.00084085
-0.00111761
-0.00108693
-0.00170497
-0.00120697
-0.00231714
-0.00125354
-0.00293408
-0.00126052
-0.00354568
-0.00124826
-0.00414749
-0.00122808
-0.00473798
-0.00120558
-0.00118366
-0.00531713
-0.000193539
-0.000197108
-0.000610804
-0.000423585
-0.00115084
-0.000546896
-0.00175108
-0.000606731
-0.00237491
-0.000629716
-0.00300247
-0.000632956
-0.00362406
-0.000626677
-0.00423561
-0.000616527
-0.0048359
-0.000605298
-0.000594411
-0.00542515
-0.000197108
-1.015e-11
-0.000620693
-4.00323e-11
-0.00116759
-3.55509e-11
-0.00177432
-1.7213e-11
-0.00240404
8.12756e-12
-0.00303699
3.76468e-11
-0.00366367
7.01167e-11
-0.0042802
1.04953e-10
-0.00488549
1.40562e-10
1.82484e-10
-0.0054799
-0.000197108
0.000197108
-0.000620693
0.000423585
-0.00116759
0.000546896
-0.00177432
0.000606731
-0.00240404
0.000629716
-0.00303699
0.000632956
-0.00366367
0.000626677
-0.0042802
0.000616527
-0.00488549
0.000605298
0.000594411
-0.0054799
-0.000193539
0.000390647
-0.000610804
0.00084085
-0.00115084
0.00108693
-0.00175108
0.00120697
-0.00237491
0.00125354
-0.00300247
0.00126052
-0.00362406
0.00124827
-0.00423561
0.00122808
-0.0048359
0.00120558
0.00118366
-0.00542515
-0.000186481
0.000577128
-0.000591209
0.00124558
-0.00111761
0.00161333
-0.00170497
0.00179434
-0.00231714
0.00186571
-0.00293408
0.00187746
-0.00354568
0.00185987
-0.00414749
0.00182988
-0.00473798
0.00179607
0.00176282
-0.00531713
-0.000176087
0.000753215
-0.000562254
0.00163174
-0.00106842
0.0021195
-0.0016367
0.00236262
-0.00223167
0.00246068
-0.00283305
0.00247885
-0.00343016
0.00245698
-0.00401793
0.00241765
-0.00459431
0.00237246
0.0023274
-0.00515889
-0.000162567
0.000915782
-0.000524402
0.00199358
-0.00100397
0.00259906
-0.00154718
0.00290583
-0.00211971
0.00303321
-0.00270106
0.0030602
-0.00327978
0.00303569
-0.00384994
0.00298781
-0.00440874
0.00293126
0.00287372
-0.00495507
-0.00014616
0.00106194
-0.000478171
0.00232559
-0.000924971
0.00304586
-0.00143735
0.00341821
-0.00198254
0.0035784
-0.00253992
0.00361758
-0.00309718
0.00359296
-0.00364732
0.00353795
-0.00418638
0.00347031
0.0033994
-0.00471205
-0.000127115
0.00118906
-0.000424066
0.00262254
-0.00083208
0.00345387
-0.00130794
0.00389407
-0.0018211
0.00409155
-0.00235107
0.00414755
-0.00288478
0.00412667
-0.00341406
0.00406723
-0.00393332
0.00398957
0.00390411
-0.00443803
-0.000105676
0.00129473
-0.000362536
0.0028794
-0.000725714
0.00381705
-0.00115918
0.00432753
-0.00163539
0.00456777
-0.00213464
0.0046468
-0.00264346
0.00463549
-0.00315283
0.0045766
-0.00365556
0.0044923
0.00439068
-0.00414214
-8.21013e-05
0.00137683
-0.000294004
0.00309131
-0.000606033
0.00412908
-0.000990439
0.00471194
-0.00142367
0.00500099
-0.00188767
0.0051108
-0.00236945
0.00511728
-0.00285999
0.00506714
-0.00335296
0.00498527
0.00487051
-0.00383278
-5.67307e-05
0.00143357
-0.000219046
0.00325362
-0.000473119
0.00438315
-0.000800102
0.00503892
-0.00118085
0.00538175
-0.00159945
0.00552939
-0.00204462
0.00556245
-0.00250917
0.00553169
-0.0029919
0.005468
0.0054044
-0.0035258
-3.02004e-05
0.00146377
-0.000139036
0.00336246
-0.000328317
0.00457243
-0.000587821
0.00529843
-0.000901712
0.00569564
-0.00125337
0.00588105
-0.00162826
0.00593733
-0.00201596
0.00591939
-0.00241275
0.00586479
0.00579546
-0.0028038
-3.59002e-06
0.00146736
-5.70265e-05
0.00341589
-0.000177392
0.0046928
-0.000363743
0.00548478
-0.000604984
0.00593688
-0.000886207
0.00616228
-0.00119318
0.0062443
-0.0015151
0.00624131
-0.00184512
0.00619481
0.00613542
-0.00218508
2.18627e-05
0.00144549
2.34534e-05
0.0034143
-2.67723e-05
0.00474302
-0.000137815
0.00559582
-0.000304823
0.00610389
-0.000516385
0.00637384
-0.000759919
0.00648784
-0.0010248
0.00650619
-0.00130262
0.00647263
0.00641913
-0.00158632
4.52e-05
0.00140029
9.95725e-05
0.00335993
0.000118677
0.00472392
8.35628e-05
0.00563093
-7.91895e-06
0.00619537
-0.000148642
0.00651456
-0.000328015
0.00666721
-0.000535456
0.00671363
-0.000761237
0.00669841
0.00665332
-0.000995429
6.57487e-05
0.00133454
0.000169165
0.00325651
0.000255154
0.00463793
0.000295443
0.00559065
0.00028061
0.0062102
0.000212948
0.00658222
0.000100597
0.00677956
-4.6299e-05
0.00686052
-0.000217224
0.00686934
0.0068376
-0.000401512
8.30567e-05
0.00125149
0.000230556
0.00310901
0.000379461
0.00448903
0.00049335
0.00547676
0.000555642
0.00614791
0.00056337
0.0065745
0.000521603
0.00682133
0.000439381
0.00694275
0.000327383
0.00698133
0.00696824
0.00019675
9.68523e-05
0.00115464
0.000282478
0.00292339
0.000488885
0.00428262
0.000673124
0.00529252
0.000811961
0.00600907
0.000896911
0.00648955
0.000929302
0.00678894
0.000916225
0.00695582
0.000867771
0.00702979
0.00704066
0.000795343
0.000107017
0.00104762
0.000324043
0.00270636
0.000581162
0.0040255
0.000830864
0.00504282
0.00104416
0.00579577
0.00120704
0.00632666
0.00131651
0.00667947
0.00137682
0.00689551
0.00139664
0.00700997
0.00705016
0.00138714
0.000113568
0.00093405
0.000354734
0.0024652
0.000654522
0.00372571
0.000963037
0.0047343
0.00124679
0.00551202
0.00148662
0.00608684
0.00167479
0.0064913
0.00181196
0.00675834
0.00190449
0.00691744
0.00699206
0.00196259
0.000116653
0.000817397
0.000374425
0.00220743
0.000707809
0.00339233
0.00106673
0.00437538
0.00141479
0.00516396
0.00172838
0.00577326
0.00199503
0.00622465
0.00221122
0.00654215
0.00238012
0.00674853
0.00686207
0.00251012
0.000116532
0.000700865
0.000383402
0.00194055
0.000740603
0.00303513
0.00113997
0.00397601
0.00154395
0.00475998
0.00192563
0.00539157
0.00226821
0.00588207
0.00256369
0.00624668
0.00281134
0.00650088
0.00665668
0.00301672
0.000113606
0.000587259
0.000382432
0.00167173
0.000753417
0.00266414
0.0011821
0.00354732
0.0016316
0.00431049
0.00207316
0.00495002
0.00248642
0.0054688
0.00285907
0.00587403
0.00318601
0.00617394
0.00637371
0.00346898
0.000108343
0.000478916
0.000372623
0.00140745
0.00074757
0.0022892
0.00119382
0.00310107
0.00167687
0.00382745
0.00216772
0.00445917
0.0026437
0.00499282
0.00308872
0.00542901
0.0034932
0.00576947
0.0060127
0.00385421
0.000101275
0.000377641
0.000355393
0.00115333
0.000725153
0.00191943
0.00117723
0.00264899
0.00168092
0.00332376
0.00220868
0.00393141
0.00273697
0.00446452
0.00324695
0.00491903
0.00372475
0.00529166
0.00557526
0.00416219
9.29271e-05
0.000284714
0.000332259
0.000914
0.000688686
0.00156301
0.0011354
0.00220228
0.00164663
0.00281252
0.00219784
0.00338021
0.00276626
0.0038961
0.00333158
0.00435371
0.00387633
0.00474691
0.00506497
0.00438662
8.37294e-05
0.000200984
0.000304567
0.000693162
0.000640592
0.00122698
0.00107162
0.00177126
0.00157761
0.00230653
0.00213837
0.00281944
0.00273368
0.00330079
0.0033434
0.00374399
0.00394736
0.00414294
0.00448664
0.00452569
7.39255e-05
0.000127059
0.000273198
0.00049389
0.000582579
0.000917601
0.000988286
0.00136555
0.00147644
0.00181837
0.00203244
0.00226345
0.00264047
0.00269276
0.00328281
0.00310165
0.00393816
0.00348759
0.00384466
0.00458014
6.35245e-05
6.35342e-05
0.000238408
0.000319006
0.000515214
0.000640795
0.00088594
0.000994823
0.00134283
0.00136148
0.00187776
0.00172852
0.00248153
0.00208899
0.00314234
0.00244084
0.00384165
0.00278828
0.00314062
0.00454569
5.23817e-05
1.11526e-05
0.000200047
0.000171341
0.000438221
0.000402621
0.000763399
0.000669645
0.00117291
0.000951968
0.00166491
0.00123653
0.00223832
0.00151557
0.0028923
0.00178687
0.00362137
0.00205922
0.00237073
0.00439126
4.04764e-05
-2.93239e-05
0.000158392
5.34258e-05
0.000352142
0.000208871
0.000620464
0.000401322
0.00096274
0.000609692
0.00137966
0.000819604
0.00187448
0.00102075
0.00245624
0.00120511
0.00314765
0.0013678
0.00151246
0.00400592
2.83303e-05
-5.76542e-05
0.000115503
-3.37469e-05
0.000261729
6.26445e-05
0.000465601
0.000197451
0.000724314
0.000350979
0.00103338
0.000510539
0.00138598
0.000668153
0.00177134
0.000819748
0.00217385
0.000965296
0.00111574
0.00257056
1.70296e-05
-7.46837e-05
7.53929e-05
-9.21102e-05
0.00017709
-3.90526e-05
0.000321201
5.33398e-05
0.000504765
0.000167414
0.000723005
0.0002923
0.000969638
0.000421519
0.00123788
0.000551501
0.00152403
0.000679148
0.000797595
0.00184218
7.39013e-06
-8.20739e-05
4.09196e-05
-0.00012564
0.000104668
-0.000102801
0.000199228
-4.12204e-05
0.000323305
4.33377e-05
0.000474525
0.000141079
0.000650284
0.00024576
0.000848903
0.000352883
0.00107089
0.000457157
0.000548724
0.00131976
-3.23008e-07
-8.17509e-05
1.29957e-05
-0.000138958
4.60955e-05
-0.000135901
0.000101395
-9.65202e-05
0.000179547
-3.48142e-05
0.000280447
4.0179e-05
0.000404028
0.00012218
0.000550868
0.000206043
0.000722084
0.00028594
0.000353998
0.000916811
-6.21955e-06
-7.55313e-05
-8.69871e-06
-0.000136479
4.6626e-07
-0.000145066
2.53492e-05
-0.000121403
6.81857e-05
-7.76507e-05
0.000130352
-2.19873e-05
0.000212947
3.95851e-05
0.000316993
0.000101996
0.000442931
0.000160003
0.000207887
0.000589041
-1.05855e-05
-6.49458e-05
-2.50541e-05
-0.000122011
-3.41614e-05
-0.000135959
-3.25687e-05
-0.000122996
-1.69801e-05
-9.32393e-05
1.47419e-05
-5.37092e-05
6.40175e-05
-9.69048e-06
0.000131616
3.43977e-05
0.000217263
7.43562e-05
0.000106178
0.000318972
-1.37348e-05
-5.1211e-05
-3.70533e-05
-9.86921e-05
-5.97942e-05
-0.000113218
-7.57716e-05
-0.000107018
-8.10834e-05
-8.79276e-05
-7.33001e-05
-6.14925e-05
-5.10652e-05
-3.19254e-05
-1.39922e-05
-2.67529e-06
3.71731e-05
2.3191e-05
4.3005e-05
0.000100346
-1.59206e-05
-3.52904e-05
-4.54903e-05
-6.91224e-05
-7.79794e-05
-8.07286e-05
-0.000106695
-7.83023e-05
-0.000127438
-6.71854e-05
-0.000137724
-5.12061e-05
-0.000136375
-3.32743e-05
-0.000123324
-1.57267e-05
-9.95869e-05
-5.45774e-07
1.06464e-05
-6.72283e-05
-1.73074e-05
-1.7983e-05
-5.08865e-05
-3.55432e-05
-8.96931e-05
-4.1922e-05
-0.000126767
-4.12286e-05
-0.000157782
-3.61699e-05
-0.000180291
-2.86971e-05
-0.000193273
-2.02922e-05
-0.000196871
-1.21296e-05
-0.000192238
-5.17811e-06
-2.04178e-07
-0.000181388
-1.79829e-05
-5.35259e-05
-9.54475e-05
-0.000136676
-0.000172845
-0.000201541
-0.000221832
-0.000233961
-0.000239138
-0.000239341
0.00018167
-0.000421037
2.52778e-08
0.00132193
-0.00114023
-3.27252e-08
0.00249408
-0.00117205
-1.05102e-07
0.00324099
-0.000746845
-5.74294e-08
0.00387199
-0.000631118
1.1846e-07
0.00430423
-0.000432402
1.62134e-07
0.00466261
-0.00035851
1.28344e-07
0.00490635
-0.000243729
-1.51031e-08
0.00512789
-0.000221327
-2.17379e-07
-0.000149635
-1.30983e-07
0.000293462
-0.000895888
0.00140448
-0.00225124
0.00255024
-0.00231781
0.00328059
-0.0014772
0.00389996
-0.00125049
0.00432553
-0.000857966
0.00467973
-0.000712714
0.00492169
-0.000485691
0.00514249
-0.000442126
-0.00030042
0.00050987
-0.00147299
0.00156389
-0.00330527
0.00265833
-0.00341224
0.00335682
-0.00217569
0.00395384
-0.00184751
0.00436669
-0.00127081
0.00471299
-0.00105902
0.0049517
-0.000724405
0.00517125
-0.000661669
-0.000453376
0.000817008
-0.00218965
0.00178922
-0.00427747
0.00281026
-0.00443329
0.00346397
-0.0028294
0.00402964
-0.00241318
0.00442492
-0.0016661
0.00476046
-0.00139455
0.00499507
-0.000959014
0.0052133
-0.000879901
-0.000609917
0.00119525
-0.00306594
0.00206511
-0.00514733
0.00299471
-0.00536289
0.00359399
-0.00342869
0.00412173
-0.00294092
0.0044963
-0.00204066
0.00481942
-0.00171767
0.00504991
-0.00118951
0.00526741
-0.00109741
-0.000771825
0.00162048
-0.00409737
0.00237291
-0.00589976
0.00319797
-0.00618795
0.00373717
-0.00396789
0.0042233
-0.00342705
0.00457598
-0.00239334
0.00488648
-0.00202817
0.00511387
-0.0014169
0.00533201
-0.00131555
-0.000941329
0.00206469
-0.00524525
0.00269144
-0.00652651
0.00340484
-0.00690135
0.00388274
-0.00444578
0.00432675
-0.00387106
0.00465857
-0.00272517
0.00495782
-0.00232742
0.00518426
-0.00164334
0.00540525
-0.00153654
-0.00112116
0.00249788
-0.00642337
0.00299774
-0.00702637
0.00359936
-0.00750297
0.00401948
-0.00486591
0.0044242
-0.00427578
0.00473841
-0.00303938
0.00502941
-0.00261841
0.00525817
-0.0018721
0.00548512
-0.00176349
-0.00131454
0.00290164
-0.00748283
0.00327254
-0.00739727
0.00376737
-0.0079978
0.0041369
-0.00523544
0.00450815
-0.00464703
0.00480995
-0.00334119
0.00509719
-0.00290565
0.00533262
-0.00210753
0.00556948
-0.00200035
-0.00152521
0.00328024
-0.00819251
0.00351417
-0.0076312
0.00389784
-0.00838147
0.00422772
-0.00556532
0.00457177
-0.00499108
0.00486834
-0.00363775
0.00515706
-0.00319437
0.00540494
-0.0023554
0.00565576
-0.00225118
-0.00175771
0.0433944
-0.000949567
-0.0506373
0.0391022
-0.00333906
0.0370291
-0.00630838
0.0368665
-0.00540266
0.0367464
-0.00487102
0.0369515
-0.00384285
0.0371863
-0.00342918
0.0375336
-0.00270265
0.0377874
-0.00250505
-0.00216209
0.0523154
0.00328147
-0.0565464
0.0501566
-0.00118031
0.0475691
-0.00372083
0.0460441
-0.00387768
0.0448471
-0.00367401
0.0440453
-0.00304111
0.0434178
-0.00280166
0.0430738
-0.00235863
0.0427041
-0.00213534
-0.00203311
0.0538827
0.00449389
-0.0550951
0.0526148
8.75942e-05
0.0510006
-0.00210666
0.049698
-0.00257505
0.0485962
-0.00257224
0.047739
-0.00218393
0.0469814
-0.00204404
0.0464569
-0.00183415
0.0459129
-0.00159133
-0.0016623
0.0520327
0.00435402
-0.0518928
0.0516385
0.000481761
0.0508023
-0.0012704
0.049962
-0.00173478
0.0492061
-0.00181635
0.0485916
-0.00156939
0.0480164
-0.00146888
0.0475815
-0.00139922
0.047134
-0.00114379
-0.00128095
0.0499906
0.00367855
-0.0493152
0.0498665
0.000605919
0.049436
-0.000839941
0.0489288
-0.00122758
0.0484397
-0.0013272
0.0480353
-0.00116504
0.0476532
-0.00108679
0.0473414
-0.00108739
0.047039
-0.0008414
-0.000973177
0.0482983
0.00288423
-0.0475039
0.0483232
0.000580935
0.0480604
-0.000577129
0.0477226
-0.000889739
0.0473777
-0.000982335
0.0470886
-0.000875898
0.0468221
-0.000820252
0.0465845
-0.000849825
0.0463787
-0.000635585
-0.000734721
0.0470954
0.0020983
-0.0463095
0.0471861
0.000490242
0.0469975
-0.000388552
0.0467381
-0.000630316
0.0464612
-0.000705406
0.046223
-0.000637711
0.0460067
-0.000603925
0.0457965
-0.000639689
0.0456326
-0.000471644
-0.000536608
0.046284
0.0013613
-0.045547
0.0464242
0.000350108
0.0462751
-0.000239469
0.0460504
-0.000405636
0.045803
-0.000457975
0.0455844
-0.00041916
0.0453827
-0.000402236
0.0451751
-0.000432004
0.0450205
-0.000317084
-0.000355103
0.0457893
0.000668437
-0.0450964
0.0459608
0.000178594
0.0458366
-0.000115233
0.0456279
-0.000196955
0.045393
-0.000223109
0.0451819
-0.000208038
0.044981
-0.000201365
0.0447682
-0.000219208
0.0446106
-0.000159453
-0.00017797
0.045555
-0.0448865
0.0457336
0.0456183
0.0454214
0.0451983
0.0449902
0.0447889
0.0445697
0.0444102
0.0567866
0.0022992
-0.0560691
0.057347
0.00290857
0.0577017
0.00349953
0.0578008
0.00406307
0.0575974
0.00459001
0.0570515
0.00507162
0.0561314
0.00550022
0.0548074
0.00586975
0.0530233
0.00617538
0.00639186
0.0513883
0.00169147
-0.0507805
0.0520406
0.00225629
0.0527234
0.00281668
0.0534189
0.00336756
0.0541057
0.00390319
0.05476
0.00441736
0.0553566
0.0049036
0.0558708
0.00535558
0.0562786
0.00576756
0.00612406
0.0480848
0.00121721
-0.0476106
0.04864
0.00170108
0.0492729
0.00218378
0.0499781
0.00266241
0.0507474
0.00313383
0.0515702
0.00359456
0.0524331
0.00404077
0.0533204
0.00446829
0.0542153
0.00487257
0.0052443
0.0454855
0.00089114
-0.0451594
0.0458916
0.00129494
0.0463784
0.00169699
0.0469458
0.00209506
0.0475927
0.00248686
0.0483172
0.00287007
0.0491157
0.00324229
0.049983
0.003601
0.0509121
0.00394341
0.00426361
0.0439022
0.000651618
-0.0436627
0.0442158
0.000981358
0.0446036
0.00130922
0.0450653
0.00163333
0.0456003
0.00195184
0.0462075
0.00226286
0.0468853
0.00256454
0.0476313
0.00285499
0.0484426
0.00313211
0.00339103
0.0428075
0.000469536
-0.0426254
0.0430595
0.000729294
0.0433815
0.000987285
0.0437728
0.00124199
0.0442327
0.00149191
0.0447601
0.00173554
0.0453532
0.00197141
0.0460101
0.00219806
0.0467284
0.00241387
0.00261546
0.0421156
0.000324762
-0.0419709
0.0423273
0.00051762
0.0426055
0.000709064
0.0429496
0.000897943
0.0433584
0.00108311
0.0438305
0.00126344
0.0443641
0.00143781
0.044957
0.00160512
0.0456067
0.00176417
0.00191267
0.0416643
0.000204105
-0.0415436
0.04185
0.000331824
0.0421005
0.000458586
0.0424148
0.00058362
0.0427918
0.000706156
0.0432298
0.000825435
0.0437269
0.00094071
0.0442808
0.00105124
0.0448887
0.00115624
0.00125435
0.0414001
9.82126e-05
-0.0412942
0.0415701
0.000161864
0.0418036
0.000225056
0.0420998
0.000287399
0.0424575
0.000348506
0.0428749
0.000407995
0.0433501
0.000465489
0.0438808
0.000520615
0.044464
0.000572981
0.000621947
0.0412747
-0.0411765
0.0414366
0.0416616
0.041949
0.0422975
0.0427055
0.043171
0.0436916
0.0442646
0.0481187
-0.00335372
-0.0475688
0.0488284
-0.00289478
0.0496477
-0.00240565
0.0505371
-0.00188481
0.0514692
-0.00133363
0.0524255
-0.000759547
0.0533877
-0.0001669
0.0543343
0.000440569
0.0552388
0.00105808
0.00167986
0.0479687
-0.00340756
-0.0479149
0.0480663
-0.00299242
0.048207
-0.0025463
0.0483963
-0.00207414
0.0486401
-0.00157738
0.0489424
-0.00106186
0.0493067
-0.00053123
0.0497351
1.21621e-05
0.0502274
0.0005658
0.0011267
0.0468959
-0.00314815
-0.0471553
0.0466914
-0.00278799
0.0465477
-0.00240253
0.0464698
-0.00199633
0.046464
-0.00157159
0.0465338
-0.00113165
0.0466816
-0.00067898
0.0469093
-0.000215587
0.0472187
0.000256438
0.000734836
0.0455765
-0.00277157
-0.0459531
0.0452578
-0.00246929
0.0450005
-0.00214527
0.0448083
-0.00180406
0.0446842
-0.00144756
0.0446308
-0.00107817
0.0446497
-0.000697955
0.044743
-0.000308866
0.0449124
8.70842e-05
0.000487804
0.0446581
-0.00234972
-0.0450799
0.04429
-0.00210123
0.0439803
-0.00183556
0.0437321
-0.00155584
0.0435482
-0.00126366
0.0434309
-0.000960871
0.0433821
-0.000649206
0.0434036
-0.000330358
0.0434968
-6.07033e-06
0.000321866
0.043988
-0.00190031
-0.0444374
0.0435906
-0.00170379
0.043249
-0.00149395
0.0429662
-0.00127305
0.0427449
-0.00104233
0.0425872
-0.000803197
0.042495
-0.000557036
0.0424699
-0.000305236
0.042513
-4.9225e-05
0.000209531
0.0435585
-0.00143592
-0.0440229
0.0431445
-0.00128978
0.0427845
-0.00113394
0.0424813
-0.000969872
0.0422375
-0.000798504
0.0420551
-0.000620847
0.041936
-0.000437936
0.0418816
-0.000250824
0.041893
-6.05937e-05
0.000131647
0.04328
-0.000961433
-0.0437545
0.0428549
-0.000864734
0.0424826
-0.000761641
0.0421658
-0.000653092
0.041907
-0.000539693
0.0417083
-0.000422102
0.0415714
-0.000301003
0.0414976
-0.000177101
0.0414882
-5.11173e-05
7.62043e-05
0.0431194
-0.000481521
-0.0435993
0.0426882
-0.000433496
0.0423088
-0.000382298
0.0419841
-0.00032837
0.0417164
-0.000272012
0.0415079
-0.000213544
0.0413602
-0.000153305
0.0412747
-9.16444e-05
0.0412525
-2.89224e-05
3.44899e-05
0.0430456
-0.0435271
0.0426121
0.0422298
0.0419014
0.0416294
0.0414159
0.0412626
0.0411709
0.041142
0.0429487
0.000174208
-0.00019398
0.0429948
0.000520121
-0.000566217
0.0430721
0.000871355
-0.00094865
0.0431979
0.0012355
-0.0013613
0.0434019
0.00161783
-0.00182188
0.0437275
0.00202253
-0.00234805
0.0442328
0.00245169
-0.00295704
0.0449893
0.00290772
-0.00366419
0.0460906
0.0033666
-0.00446793
0.00391639
-0.00539451
0.0429655
0.000137688
0.043072
0.000413528
0.0432526
0.000690775
0.0435175
0.000970599
0.0438816
0.0012538
0.0443634
0.00154063
0.044985
0.00183018
0.0457701
0.0021226
0.0467343
0.00240236
0.00273584
0.0429664
0.000100188
0.0430774
0.000302525
0.0432619
0.000506336
0.0435238
0.000708671
0.043869
0.00090865
0.0443046
0.00110498
0.0448392
0.00129555
0.0454832
0.00147865
0.0462413
0.00164428
0.00182185
0.0429586
7.05003e-05
0.0430475
0.000213652
0.0431957
0.000358129
0.043404
0.000500357
0.0436735
0.000639157
0.0440052
0.000773246
0.0443997
0.000901053
0.044857
0.00102138
0.045372
0.00112923
0.00124083
0.0429506
4.88638e-05
0.043016
0.000148243
0.0431256
0.000248528
0.0432791
0.000346827
0.0434762
0.000442102
0.0437161
0.000533311
0.0439978
0.000619314
0.04432
0.000699178
0.0446792
0.000770105
0.000840062
0.0429445
3.32942e-05
0.0429917
0.00010102
0.0430709
0.00016933
0.0431816
0.000236176
0.0433229
0.000300796
0.0434937
0.000362458
0.0436926
0.000420422
0.0439177
0.000474096
0.0441658
0.000522004
0.000568436
0.0429403
2.19128e-05
0.0429749
6.6477e-05
0.0430328
0.000111407
0.0431136
0.000155345
0.0432166
0.000197778
0.0433409
0.000238221
0.0434851
0.000276197
0.0436479
0.000311318
0.0438271
0.000342752
0.000372672
0.0429376
1.32748e-05
0.0429638
4.02608e-05
0.0430077
6.74578e-05
0.043069
9.40549e-05
0.0431471
0.000119743
0.043241
0.000144236
0.04335
0.000167255
0.0434727
0.000188577
0.0436077
0.000207766
0.000225932
0.0429359
6.26036e-06
0.0429572
1.89825e-05
0.0429929
3.18011e-05
0.0430426
4.43374e-05
0.0431059