1.45 	0 	0 	-0.293942
2.35 	0 	0 	-0.129003
