1.45 	0 	0 	-0.293417
2.35 	0 	0 	-0.128552
