1.45 	0 	0 	-0.00819679 	-0.00256728 	3.77906e-21
2.35 	0 	0 	0.0613193 	-0.00662611 	2.27809e-21
