1.275 	2.15223e-18 	-2.76991e-20 	-0.0330008 	-0.000624693 	-2.06959e-22
1.825 	2.15223e-18 	-1.39322e-20 	0.00242994 	-0.00386735 	1.71624e-21
2.375 	2.15223e-18 	-2.66896e-23 	0.180942 	-0.00533727 	-6.76062e-22
