1.45 	0 	0 	0.00325891 	-0.00373625 	3.95717e-21
2.35 	0 	0 	0.111246 	-0.00838809 	1.98308e-21
