1.45 	0 	0 	-0.290482
2.35 	0 	0 	-0.126323
