/*--------------------------------*- C++ -*----------------------------------*\
  =========                 |
  \\      /  F ield         | OpenFOAM: The Open Source CFD Toolbox
   \\    /   O peration     | Website:  https://openfoam.org
    \\  /    A nd           | Version:  6.0
     \\/     M anipulation  |
\*---------------------------------------------------------------------------*/
FoamFile
{
    version     2.0;
    format      ascii;
    class       volScalarField;
    location    "5.5";
    object      p;
}
// * * * * * * * * * * * * * * * * * * * * * * * * * * * * * * * * * * * * * //

dimensions      [0 2 -2 0 0 0 0];

internalField   nonuniform List<scalar> 
29500
(
1.00636
1.00614
1.00568
1.00513
1.00447
1.00377
1.00303
1.00229
1.00159
1.00097
1.00045
1.00001
0.999757
0.999456
0.999133
1.00637
1.00618
1.00577
1.00529
1.00469
1.00405
1.00334
1.0026
1.00187
1.00117
1.00057
1.00001
0.999677
0.9992
0.998813
1.00637
1.00617
1.00574
1.00523
1.00461
1.00395
1.00324
1.0025
1.00178
1.00111
1.00054
1.00002
0.999707
0.999191
0.998895
1.00637
1.00616
1.00573
1.00519
1.00455
1.00387
1.00315
1.00243
1.00173
1.00108
1.00054
1.00004
0.999723
0.999166
0.998836
1.00638
1.00617
1.00575
1.00522
1.00457
1.0039
1.00318
1.00246
1.00176
1.00111
1.00056
1.00004
0.999695
0.999083
0.998688
1.00639
1.00619
1.00577
1.00525
1.00461
1.00394
1.00322
1.0025
1.00179
1.00113
1.00056
1.00002
0.999643
0.998988
0.998557
1.00639
1.0062
1.00579
1.00528
1.00464
1.00396
1.00323
1.0025
1.00179
1.00112
1.00053
0.99998
0.99959
0.998906
0.99845
1.0064
1.00621
1.00581
1.00529
1.00466
1.00397
1.00324
1.0025
1.00178
1.00111
1.00051
0.999949
0.999543
0.998838
0.998352
1.00641
1.00622
1.00582
1.00532
1.00468
1.004
1.00326
1.00252
1.00179
1.00111
1.0005
0.999927
0.999504
0.998778
0.998262
1.00642
1.00623
1.00584
1.00534
1.00471
1.00403
1.00329
1.00254
1.00181
1.00111
1.0005
0.999909
0.999467
0.998723
0.99818
1.00643
1.00624
1.00585
1.00535
1.00473
1.00405
1.00331
1.00256
1.00182
1.00112
1.00049
0.99989
0.999431
0.998673
0.998105
1.00645
1.00625
1.00587
1.00537
1.00475
1.00407
1.00333
1.00257
1.00183
1.00112
1.00048
0.999871
0.999396
0.998627
0.998037
1.00646
1.00627
1.00588
1.00538
1.00476
1.00408
1.00334
1.00258
1.00184
1.00112
1.00048
0.999853
0.999364
0.998586
0.997977
1.00647
1.00628
1.00589
1.00539
1.00478
1.0041
1.00336
1.0026
1.00185
1.00112
1.00047
0.999839
0.999335
0.998549
0.997921
1.00649
1.0063
1.00591
1.00541
1.00479
1.00411
1.00337
1.00261
1.00186
1.00113
1.00047
0.999828
0.999307
0.998514
0.997869
1.0065
1.00631
1.00593
1.00543
1.00481
1.00413
1.00339
1.00263
1.00187
1.00114
1.00047
0.999817
0.99928
0.998479
0.997819
1.00652
1.00633
1.00595
1.00546
1.00484
1.00415
1.00341
1.00265
1.00189
1.00115
1.00047
0.999804
0.999249
0.998443
0.997771
1.00654
1.00635
1.00598
1.00548
1.00486
1.00417
1.00343
1.00266
1.0019
1.00115
1.00047
0.999787
0.999216
0.998407
0.997724
1.00656
1.00638
1.006
1.00551
1.00489
1.0042
1.00345
1.00268
1.00191
1.00115
1.00046
0.999767
0.999182
0.99837
0.99768
1.00658
1.0064
1.00603
1.00554
1.00492
1.00423
1.00347
1.00269
1.00192
1.00115
1.00045
0.999746
0.999146
0.998333
0.997638
1.0066
1.00642
1.00606
1.00557
1.00495
1.00425
1.0035
1.00271
1.00193
1.00115
1.00044
0.999725
0.999112
0.998298
0.997598
1.00662
1.00644
1.00608
1.0056
1.00498
1.00428
1.00352
1.00273
1.00194
1.00115
1.00043
0.999704
0.999078
0.998265
0.99756
1.00664
1.00647
1.00611
1.00562
1.00501
1.00431
1.00354
1.00275
1.00194
1.00115
1.00042
0.999684
0.999046
0.998232
0.997524
1.00667
1.00649
1.00613
1.00565
1.00503
1.00433
1.00357
1.00276
1.00195
1.00115
1.00041
0.999664
0.999014
0.9982
0.997489
1.00669
1.00651
1.00616
1.00567
1.00506
1.00435
1.00359
1.00278
1.00196
1.00116
1.0004
0.999646
0.998983
0.99817
0.997456
1.00672
1.00654
1.00618
1.00569
1.00508
1.00437
1.0036
1.00279
1.00197
1.00116
1.00039
0.999628
0.998954
0.998139
0.997423
1.00675
1.00657
1.00621
1.00572
1.0051
1.00439
1.00362
1.0028
1.00198
1.00116
1.00038
0.99961
0.998925
0.99811
0.997391
1.00677
1.0066
1.00623
1.00574
1.00512
1.00441
1.00364
1.00282
1.00199
1.00116
1.00037
0.999594
0.998896
0.99808
0.997358
1.0068
1.00663
1.00626
1.00577
1.00515
1.00444
1.00366
1.00283
1.002
1.00116
1.00037
0.999577
0.998867
0.99805
0.997326
1.00683
1.00666
1.0063
1.0058
1.00518
1.00446
1.00368
1.00285
1.00201
1.00116
1.00036
0.999559
0.998838
0.998019
0.997294
1.00686
1.00669
1.00633
1.00584
1.00521
1.00449
1.0037
1.00287
1.00202
1.00116
1.00035
0.999541
0.998808
0.997988
0.997261
1.0069
1.00672
1.00637
1.00587
1.00525
1.00452
1.00373
1.00289
1.00203
1.00117
1.00034
0.999522
0.998778
0.997956
0.997229
1.00693
1.00676
1.00641
1.00591
1.00528
1.00456
1.00376
1.00291
1.00204
1.00117
1.00033
0.999503
0.998747
0.997923
0.997196
1.00697
1.0068
1.00645
1.00595
1.00532
1.00459
1.00379
1.00293
1.00205
1.00117
1.00032
0.999482
0.998715
0.99789
0.997164
1.007
1.00683
1.00648
1.00599
1.00536
1.00463
1.00381
1.00295
1.00206
1.00117
1.00031
0.999461
0.998684
0.997857
0.997131
1.00704
1.00687
1.00652
1.00603
1.0054
1.00466
1.00384
1.00297
1.00207
1.00117
1.0003
0.99944
0.998652
0.997824
0.997098
1.00708
1.00691
1.00656
1.00607
1.00543
1.00469
1.00387
1.00299
1.00208
1.00117
1.00029
0.999419
0.998621
0.997791
0.997065
1.00712
1.00695
1.0066
1.0061
1.00547
1.00472
1.00389
1.003
1.00209
1.00117
1.00028
0.999398
0.99859
0.997757
0.997032
1.00716
1.00699
1.00664
1.00614
1.0055
1.00475
1.00392
1.00302
1.0021
1.00117
1.00026
0.999377
0.998558
0.997723
0.996998
1.0072
1.00703
1.00668
1.00618
1.00553
1.00478
1.00394
1.00304
1.00211
1.00116
1.00025
0.999355
0.998527
0.997689
0.996964
1.00724
1.00707
1.00672
1.00621
1.00557
1.00481
1.00397
1.00306
1.00212
1.00116
1.00024
0.999334
0.998495
0.997654
0.996929
1.00729
1.00711
1.00676
1.00625
1.0056
1.00484
1.00399
1.00307
1.00212
1.00116
1.00023
0.999313
0.998464
0.997619
0.996893
1.00733
1.00716
1.00681
1.0063
1.00564
1.00488
1.00402
1.00309
1.00213
1.00116
1.00022
0.999291
0.998432
0.997583
0.996856
1.00738
1.0072
1.00685
1.00634
1.00568
1.00491
1.00405
1.00311
1.00214
1.00116
1.00021
0.999269
0.998399
0.997546
0.996818
1.00743
1.00725
1.0069
1.00639
1.00573
1.00495
1.00407
1.00313
1.00215
1.00116
1.00019
0.999247
0.998366
0.997508
0.996779
1.00748
1.0073
1.00695
1.00643
1.00577
1.00499
1.00411
1.00315
1.00217
1.00116
1.00018
0.999224
0.998333
0.997469
0.996739
1.00753
1.00735
1.007
1.00648
1.00582
1.00503
1.00414
1.00318
1.00218
1.00116
1.00017
0.999201
0.998299
0.99743
0.996698
1.00758
1.0074
1.00706
1.00653
1.00586
1.00507
1.00417
1.0032
1.00219
1.00116
1.00016
0.999177
0.998264
0.99739
0.996656
1.00763
1.00745
1.00711
1.00658
1.00591
1.00511
1.0042
1.00322
1.0022
1.00116
1.00014
0.999153
0.998229
0.997348
0.996613
1.00768
1.00751
1.00716
1.00664
1.00596
1.00515
1.00424
1.00324
1.00221
1.00116
1.00013
0.999128
0.998193
0.997306
0.996569
1.00774
1.00756
1.00721
1.00669
1.006
1.00519
1.00427
1.00327
1.00222
1.00116
1.00012
0.999103
0.998157
0.997263
0.996524
1.00779
1.00762
1.00727
1.00674
1.00605
1.00523
1.0043
1.00329
1.00223
1.00116
1.0001
0.999077
0.99812
0.99722
0.996477
1.00785
1.00767
1.00732
1.00679
1.00609
1.00527
1.00433
1.00331
1.00224
1.00116
1.00009
0.99905
0.998083
0.997176
0.99643
1.00791
1.00773
1.00738
1.00684
1.00614
1.00531
1.00436
1.00333
1.00225
1.00115
1.00007
0.999024
0.998046
0.997131
0.996381
1.00797
1.00779
1.00744
1.00689
1.00619
1.00535
1.00439
1.00335
1.00226
1.00115
1.00006
0.998997
0.998007
0.997085
0.996331
1.00803
1.00785
1.00749
1.00695
1.00624
1.00539
1.00443
1.00337
1.00227
1.00115
1.00004
0.99897
0.997969
0.997038
0.996281
1.00809
1.00791
1.00755
1.007
1.00629
1.00543
1.00446
1.0034
1.00228
1.00115
1.00003
0.998942
0.997929
0.996991
0.996229
1.00815
1.00797
1.00761
1.00706
1.00634
1.00548
1.00449
1.00342
1.0023
1.00115
1.00001
0.998913
0.997889
0.996943
0.996175
1.00821
1.00804
1.00768
1.00712
1.00639
1.00552
1.00453
1.00345
1.00231
1.00115
0.999995
0.998885
0.997848
0.996894
0.996121
1.00828
1.0081
1.00774
1.00718
1.00645
1.00557
1.00457
1.00347
1.00232
1.00114
0.999979
0.998855
0.997806
0.996844
0.996065
1.00835
1.00817
1.00781
1.00724
1.0065
1.00562
1.00461
1.0035
1.00233
1.00114
0.999963
0.998825
0.997764
0.996794
0.996009
1.00842
1.00824
1.00787
1.0073
1.00656
1.00567
1.00465
1.00353
1.00235
1.00114
0.999946
0.998795
0.997721
0.996742
0.99595
1.00849
1.00831
1.00794
1.00737
1.00662
1.00572
1.00468
1.00355
1.00236
1.00114
0.999928
0.998763
0.997677
0.996689
0.995891
1.00856
1.00838
1.00801
1.00743
1.00668
1.00577
1.00472
1.00358
1.00237
1.00114
0.999911
0.998732
0.997633
0.996635
0.99583
1.00863
1.00845
1.00808
1.0075
1.00674
1.00582
1.00476
1.00361
1.00238
1.00113
0.999893
0.998699
0.997587
0.996581
0.995768
1.0087
1.00853
1.00815
1.00757
1.0068
1.00587
1.00481
1.00363
1.0024
1.00113
0.999874
0.998666
0.997541
0.996524
0.995704
1.00878
1.0086
1.00822
1.00763
1.00686
1.00592
1.00485
1.00366
1.00241
1.00113
0.999855
0.998632
0.997494
0.996467
0.995638
1.00885
1.00868
1.0083
1.0077
1.00692
1.00598
1.00489
1.00369
1.00242
1.00112
0.999836
0.998598
0.997445
0.996408
0.995571
1.00893
1.00876
1.00837
1.00777
1.00699
1.00603
1.00493
1.00372
1.00244
1.00112
0.999816
0.998563
0.997396
0.996348
0.995503
1.00901
1.00884
1.00845
1.00785
1.00705
1.00609
1.00497
1.00375
1.00245
1.00112
0.999796
0.998527
0.997346
0.996286
0.995433
1.00909
1.00892
1.00853
1.00792
1.00712
1.00615
1.00502
1.00378
1.00246
1.00112
0.999776
0.998491
0.997295
0.996223
0.995361
1.00918
1.009
1.00861
1.008
1.00719
1.0062
1.00507
1.00381
1.00248
1.00111
0.999755
0.998454
0.997242
0.996158
0.995288
1.00926
1.00909
1.00869
1.00807
1.00726
1.00626
1.00511
1.00384
1.00249
1.00111
0.999733
0.998415
0.997189
0.996092
0.995212
1.00935
1.00917
1.00877
1.00815
1.00733
1.00632
1.00516
1.00387
1.00251
1.0011
0.999711
0.998376
0.997134
0.996024
0.995135
1.00943
1.00926
1.00886
1.00823
1.0074
1.00639
1.00521
1.0039
1.00252
1.0011
0.999688
0.998336
0.997078
0.995955
0.995056
1.00952
1.00935
1.00894
1.00831
1.00747
1.00645
1.00525
1.00394
1.00254
1.0011
0.999665
0.998295
0.99702
0.995885
0.994976
1.00961
1.00944
1.00903
1.0084
1.00755
1.00651
1.0053
1.00397
1.00255
1.00109
0.999641
0.998253
0.996962
0.995812
0.994893
1.00971
1.00953
1.00912
1.00848
1.00762
1.00658
1.00535
1.004
1.00256
1.00109
0.999617
0.99821
0.996902
0.995739
0.994809
1.0098
1.00963
1.00921
1.00857
1.0077
1.00664
1.0054
1.00404
1.00258
1.00108
0.999592
0.998167
0.996841
0.995664
0.994723
1.0099
1.00972
1.00931
1.00865
1.00778
1.00671
1.00546
1.00407
1.00259
1.00108
0.999567
0.998122
0.996778
0.995587
0.994635
1.01
1.00982
1.0094
1.00874
1.00786
1.00678
1.00551
1.0041
1.00261
1.00107
0.999541
0.998076
0.996714
0.995509
0.994545
1.01009
1.00992
1.0095
1.00883
1.00794
1.00684
1.00556
1.00414
1.00263
1.00107
0.999514
0.998029
0.996649
0.995429
0.994454
1.0102
1.01002
1.00959
1.00893
1.00802
1.00692
1.00562
1.00418
1.00264
1.00106
0.999487
0.997981
0.996582
0.995347
0.99436
1.0103
1.01012
1.00969
1.00902
1.00811
1.00699
1.00567
1.00421
1.00266
1.00106
0.999459
0.997932
0.996513
0.995264
0.994264
1.0104
1.01023
1.0098
1.00912
1.0082
1.00706
1.00573
1.00425
1.00267
1.00105
0.99943
0.997882
0.996443
0.995178
0.994166
1.01051
1.01034
1.0099
1.00921
1.00829
1.00714
1.00579
1.00429
1.00269
1.00104
0.9994
0.99783
0.996371
0.99509
0.994065
1.01062
1.01044
1.01001
1.00931
1.00837
1.00721
1.00585
1.00433
1.00271
1.00104
0.999369
0.997776
0.996297
0.995001
0.993963
1.01073
1.01056
1.01011
1.00942
1.00847
1.00729
1.00591
1.00437
1.00272
1.00103
0.999338
0.997721
0.996222
0.994909
0.993858
1.01084
1.01067
1.01022
1.00952
1.00856
1.00737
1.00597
1.00441
1.00274
1.00102
0.999305
0.997665
0.996144
0.994815
0.993751
1.01096
1.01078
1.01033
1.00962
1.00865
1.00745
1.00603
1.00445
1.00276
1.00101
0.999271
0.997607
0.996065
0.994719
0.993642
1.01107
1.0109
1.01045
1.00973
1.00875
1.00753
1.00609
1.00449
1.00277
1.001
0.999236
0.997548
0.995985
0.99462
0.99353
1.01119
1.01102
1.01056
1.00984
1.00885
1.00761
1.00615
1.00453
1.00279
1.00099
0.9992
0.997488
0.995902
0.99452
0.993416
1.01131
1.01114
1.01068
1.00995
1.00895
1.00769
1.00622
1.00457
1.00281
1.00098
0.999163
0.997426
0.995818
0.994417
0.993299
1.01144
1.01127
1.0108
1.01006
1.00905
1.00778
1.00628
1.00461
1.00282
1.00097
0.999125
0.997363
0.995732
0.994312
0.99318
1.01156
1.01139
1.01092
1.01018
1.00915
1.00787
1.00635
1.00466
1.00284
1.00096
0.999086
0.997298
0.995644
0.994204
0.993058
1.01169
1.01152
1.01105
1.01029
1.00926
1.00796
1.00642
1.0047
1.00286
1.00095
0.999046
0.997231
0.995554
0.994094
0.992933
1.01182
1.01165
1.01117
1.01041
1.00936
1.00805
1.00649
1.00474
1.00287
1.00094
0.999006
0.997164
0.995462
0.993982
0.992806
1.01195
1.01178
1.0113
1.01053
1.00947
1.00814
1.00656
1.00479
1.00289
1.00092
0.998964
0.997094
0.995368
0.993868
0.992675
1.01209
1.01192
1.01144
1.01066
1.00959
1.00823
1.00663
1.00483
1.00291
1.00091
0.998921
0.997023
0.995272
0.993751
0.992542
1.01222
1.01206
1.01157
1.01078
1.0097
1.00833
1.0067
1.00488
1.00292
1.0009
0.998876
0.996951
0.995174
0.993632
0.992405
1.01236
1.0122
1.01171
1.01091
1.00982
1.00843
1.00678
1.00493
1.00294
1.00088
0.998831
0.996876
0.995074
0.99351
0.992266
1.01251
1.01234
1.01184
1.01104
1.00993
1.00853
1.00685
1.00498
1.00296
1.00087
0.998784
0.9968
0.994971
0.993386
0.992124
1.01265
1.01249
1.01199
1.01118
1.01005
1.00863
1.00693
1.00502
1.00297
1.00085
0.998736
0.996723
0.994867
0.993259
0.991979
1.0128
1.01264
1.01213
1.01131
1.01018
1.00873
1.00701
1.00507
1.00299
1.00083
0.998687
0.996643
0.99476
0.993129
0.99183
1.01295
1.01279
1.01228
1.01145
1.0103
1.00883
1.00708
1.00512
1.00301
1.00082
0.998637
0.996562
0.994651
0.992997
0.991678
1.0131
1.01294
1.01243
1.01159
1.01043
1.00894
1.00716
1.00517
1.00302
1.0008
0.998585
0.996478
0.994539
0.992861
0.991523
1.01326
1.0131
1.01258
1.01174
1.01056
1.00905
1.00724
1.00522
1.00304
1.00078
0.998533
0.996393
0.994425
0.992723
0.991365
1.01342
1.01326
1.01273
1.01188
1.01069
1.00916
1.00733
1.00527
1.00305
1.00076
0.998479
0.996306
0.994309
0.992581
0.991203
1.01358
1.01342
1.01289
1.01203
1.01082
1.00927
1.00741
1.00532
1.00307
1.00074
0.998423
0.996217
0.99419
0.992436
0.991037
1.01375
1.01359
1.01305
1.01219
1.01096
1.00938
1.0075
1.00537
1.00309
1.00072
0.998366
0.996126
0.994068
0.992288
0.990868
1.01392
1.01375
1.01322
1.01234
1.0111
1.0095
1.00758
1.00543
1.0031
1.0007
0.998308
0.996033
0.993943
0.992136
0.990695
1.01409
1.01393
1.01338
1.0125
1.01124
1.00961
1.00767
1.00548
1.00312
1.00068
0.998248
0.995938
0.993816
0.991981
0.990518
1.01426
1.0141
1.01355
1.01266
1.01138
1.00973
1.00776
1.00554
1.00314
1.00066
0.998187
0.99584
0.993685
0.991822
0.990337
1.01444
1.01428
1.01373
1.01283
1.01153
1.00985
1.00785
1.00559
1.00315
1.00063
0.998125
0.99574
0.993552
0.99166
0.990151
1.01462
1.01446
1.0139
1.01299
1.01168
1.00998
1.00794
1.00565
1.00317
1.00061
0.99806
0.995638
0.993416
0.991494
0.989962
1.0148
1.01465
1.01408
1.01316
1.01183
1.0101
1.00804
1.00571
1.00319
1.00058
0.997994
0.995533
0.993276
0.991324
0.989768
1.01499
1.01484
1.01427
1.01334
1.01199
1.01023
1.00813
1.00576
1.00321
1.00056
0.997926
0.995426
0.993133
0.991151
0.98957
1.01518
1.01503
1.01445
1.01352
1.01214
1.01036
1.00823
1.00582
1.00322
1.00053
0.997857
0.995316
0.992986
0.990974
0.989367
1.01538
1.01523
1.01465
1.0137
1.0123
1.01049
1.00833
1.00588
1.00324
1.0005
0.997785
0.995203
0.992836
0.990793
0.98916
1.01557
1.01542
1.01484
1.01388
1.01247
1.01063
1.00843
1.00595
1.00326
1.00047
0.997712
0.995087
0.992683
0.990607
0.988948
1.01578
1.01563
1.01504
1.01407
1.01263
1.01077
1.00853
1.00601
1.00327
1.00045
0.997636
0.994969
0.992525
0.990418
0.988732
1.01598
1.01584
1.01524
1.01426
1.0128
1.01091
1.00864
1.00607
1.00329
1.00041
0.997559
0.994847
0.992364
0.990224
0.98851
1.01619
1.01605
1.01545
1.01446
1.01298
1.01105
1.00875
1.00613
1.00331
1.00038
0.997479
0.994722
0.992199
0.990026
0.988285
1.0164
1.01626
1.01566
1.01465
1.01315
1.0112
1.00886
1.0062
1.00332
1.00035
0.997396
0.994594
0.99203
0.989823
0.988054
1.01662
1.01648
1.01587
1.01486
1.01333
1.01135
1.00897
1.00627
1.00334
1.00032
0.997312
0.994462
0.991856
0.989616
0.987818
1.01684
1.01671
1.01609
1.01506
1.01352
1.0115
1.00908
1.00633
1.00336
1.00028
0.997224
0.994327
0.991679
0.989404
0.987577
1.01707
1.01694
1.01631
1.01527
1.0137
1.01166
1.0092
1.0064
1.00337
1.00024
0.997134
0.994188
0.991497
0.989187
0.987331
1.0173
1.01717
1.01654
1.01549
1.0139
1.01181
1.00931
1.00647
1.00339
1.0002
0.997041
0.994045
0.99131
0.988964
0.987079
1.01753
1.01741
1.01677
1.01571
1.01409
1.01198
1.00943
1.00654
1.00341
1.00016
0.996946
0.993898
0.991119
0.988737
0.986823
1.01777
1.01765
1.01701
1.01593
1.01429
1.01214
1.00955
1.00661
1.00342
1.00012
0.996847
0.993748
0.990923
0.988505
0.98656
1.01802
1.0179
1.01725
1.01616
1.01449
1.01231
1.00968
1.00668
1.00344
1.00008
0.996745
0.993593
0.990723
0.988267
0.986291
1.01827
1.01815
1.0175
1.01639
1.0147
1.01248
1.00981
1.00676
1.00345
1.00003
0.99664
0.993435
0.990517
0.988023
0.986017
1.01852
1.01841
1.01775
1.01663
1.01491
1.01265
1.00993
1.00683
1.00346
0.999981
0.996532
0.993272
0.990307
0.987774
0.985736
1.01878
1.01867
1.018
1.01687
1.01512
1.01283
1.01007
1.00691
1.00348
0.99993
0.996421
0.993105
0.990092
0.98752
0.98545
1.01904
1.01893
1.01826
1.01712
1.01534
1.01301
1.0102
1.00698
1.00349
0.999878
0.996306
0.992933
0.989871
0.987259
0.985157
1.01931
1.01921
1.01853
1.01737
1.01557
1.0132
1.01034
1.00706
1.0035
0.999823
0.996187
0.992757
0.989645
0.986992
0.984857
1.01959
1.01949
1.0188
1.01763
1.0158
1.01339
1.01047
1.00714
1.00351
0.999766
0.996065
0.992576
0.989414
0.98672
0.984551
1.01987
1.01977
1.01908
1.01789
1.01603
1.01358
1.01062
1.00722
1.00352
0.999706
0.99594
0.99239
0.989177
0.98644
0.984238
1.02015
1.02006
1.01937
1.01816
1.01627
1.01378
1.01076
1.00729
1.00353
0.999644
0.99581
0.9922
0.988934
0.986154
0.983918
1.02045
1.02036
1.01966
1.01843
1.01651
1.01398
1.01091
1.00737
1.00354
0.999579
0.995676
0.992004
0.988685
0.985861
0.98359
1.02074
1.02066
1.01995
1.01872
1.01676
1.01419
1.01105
1.00745
1.00354
0.999512
0.995539
0.991803
0.988429
0.985562
0.983256
1.02105
1.02097
1.02026
1.019
1.01702
1.0144
1.01121
1.00754
1.00355
0.999442
0.995397
0.991597
0.988168
0.985255
0.982914
1.02136
1.02128
1.02057
1.01929
1.01728
1.01461
1.01136
1.00762
1.00355
0.999369
0.995251
0.991385
0.987899
0.984941
0.982563
1.02168
1.0216
1.02088
1.01959
1.01754
1.01483
1.01152
1.0077
1.00356
0.999293
0.9951
0.991167
0.987624
0.984619
0.982205
1.022
1.02193
1.0212
1.0199
1.01781
1.01505
1.01168
1.00778
1.00356
0.999214
0.994944
0.990943
0.987342
0.984289
0.981838
1.02233
1.02227
1.02153
1.02021
1.01809
1.01528
1.01184
1.00787
1.00356
0.999131
0.994784
0.990713
0.987053
0.983951
0.981463
1.02267
1.02261
1.02187
1.02053
1.01837
1.01551
1.012
1.00795
1.00356
0.999046
0.994619
0.990477
0.986756
0.983605
0.981079
1.02301
1.02296
1.02222
1.02085
1.01866
1.01575
1.01217
1.00804
1.00356
0.998956
0.994448
0.990234
0.986451
0.98325
0.980685
1.02336
1.02332
1.02257
1.02119
1.01896
1.01599
1.01234
1.00812
1.00355
0.998864
0.994273
0.989984
0.986138
0.982886
0.980282
1.02372
1.02368
1.02293
1.02153
1.01926
1.01624
1.01251
1.00821
1.00355
0.998767
0.994091
0.989727
0.985817
0.982513
0.97987
1.02409
1.02406
1.0233
1.02187
1.01957
1.01649
1.01269
1.00829
1.00354
0.998666
0.993904
0.989462
0.985487
0.98213
0.979447
1.02446
1.02444
1.02367
1.02223
1.01988
1.01675
1.01287
1.00838
1.00353
0.998562
0.99371
0.989189
0.985148
0.981738
0.979014
1.02485
1.02483
1.02406
1.02259
1.02021
1.01701
1.01305
1.00847
1.00352
0.998452
0.99351
0.988909
0.9848
0.981335
0.978571
1.02524
1.02523
1.02445
1.02297
1.02054
1.01728
1.01323
1.00856
1.0035
0.998338
0.993303
0.98862
0.984442
0.980922
0.978116
1.02564
1.02564
1.02485
1.02335
1.02087
1.01755
1.01342
1.00864
1.00349
0.99822
0.993089
0.988322
0.984074
0.980499
0.977651
1.02605
1.02606
1.02526
1.02374
1.02122
1.01783
1.01361
1.00873
1.00347
0.998095
0.992867
0.988015
0.983696
0.980064
0.977174
1.02646
1.02648
1.02569
1.02414
1.02157
1.01811
1.0138
1.00882
1.00345
0.997966
0.992638
0.987699
0.983307
0.979619
0.976686
1.02689
1.02692
1.02612
1.02455
1.02193
1.0184
1.014
1.00891
1.00342
0.997831
0.992401
0.987372
0.982907
0.979161
0.976186
1.02733
1.02737
1.02656
1.02496
1.0223
1.0187
1.0142
1.009
1.00339
0.997689
0.992155
0.987036
0.982497
0.978692
0.975674
1.02778
1.02783
1.02701
1.02539
1.02268
1.019
1.0144
1.00908
1.00336
0.997541
0.9919
0.986689
0.982074
0.978211
0.97515
1.02823
1.02829
1.02748
1.02583
1.02307
1.01931
1.01461
1.00917
1.00333
0.997387
0.991636
0.986331
0.981639
0.977717
0.974613
1.0287
1.02877
1.02795
1.02628
1.02346
1.01963
1.01482
1.00926
1.00329
0.997225
0.991363
0.985961
0.981192
0.97721
0.974062
1.02918
1.02927
1.02844
1.02674
1.02387
1.01995
1.01503
1.00935
1.00324
0.997055
0.991079
0.98558
0.980732
0.97669
0.973499
1.02967
1.02977
1.02893
1.02721
1.02428
1.02028
1.01524
1.00943
1.0032
0.996877
0.990784
0.985187
0.980259
0.976156
0.972922
1.03017
1.03028
1.02944
1.02769
1.02471
1.02061
1.01546
1.00952
1.00314
0.996691
0.990479
0.984781
0.979773
0.975609
0.972331
1.03068
1.03081
1.02997
1.02818
1.02514
1.02095
1.01568
1.0096
1.00308
0.996496
0.990162
0.984361
0.979272
0.975047
0.971726
1.03121
1.03135
1.0305
1.02869
1.02558
1.0213
1.01591
1.00968
1.00302
0.996292
0.989833
0.983929
0.978757
0.974471
0.971106
1.03175
1.03191
1.03105
1.02921
1.02604
1.02166
1.01613
1.00976
1.00295
0.996077
0.989491
0.983482
0.978227
0.973879
0.970471
1.0323
1.03248
1.03162
1.02974
1.02651
1.02202
1.01636
1.00984
1.00287
0.995852
0.989136
0.98302
0.977683
0.973273
0.969822
1.03287
1.03306
1.03219
1.03029
1.02698
1.02239
1.01659
1.00991
1.00278
0.995615
0.988767
0.982543
0.977121
0.97265
0.969156
1.03345
1.03366
1.03279
1.03085
1.02747
1.02277
1.01683
1.00999
1.00269
0.995367
0.988385
0.982051
0.976545
0.972011
0.968475
1.03404
1.03427
1.0334
1.03143
1.02797
1.02316
1.01707
1.01006
1.00259
0.995106
0.987986
0.981542
0.97595
0.971355
0.967776
1.03465
1.0349
1.03402
1.03202
1.02849
1.02355
1.0173
1.01012
1.00248
0.994833
0.987573
0.981017
0.97534
0.970682
0.967062
1.03527
1.03554
1.03466
1.03262
1.02901
1.02395
1.01754
1.01018
1.00235
0.994545
0.987144
0.980474
0.97471
0.969991
0.96633
1.03591
1.03621
1.03532
1.03324
1.02955
1.02436
1.01779
1.01024
1.00222
0.994244
0.986697
0.979914
0.974063
0.969282
0.965581
1.03657
1.03689
1.036
1.03388
1.03011
1.02478
1.01803
1.01029
1.00208
0.993926
0.986233
0.979333
0.973396
0.968555
0.964813
1.03725
1.03758
1.03669
1.03454
1.03067
1.02521
1.01827
1.01033
1.00193
0.993593
0.985751
0.978735
0.972711
0.967808
0.964027
1.03794
1.0383
1.03741
1.03521
1.03125
1.02564
1.01852
1.01037
1.00176
0.993243
0.985248
0.978115
0.972004
0.967041
0.963221
1.03865
1.03904
1.03814
1.0359
1.03185
1.02608
1.01876
1.0104
1.00158
0.992875
0.984727
0.977475
0.971278
0.966255
0.962397
1.03938
1.0398
1.0389
1.03661
1.03246
1.02653
1.01901
1.01042
1.00138
0.992488
0.984183
0.976812
0.970529
0.965447
0.961552
1.04013
1.04058
1.03967
1.03734
1.03308
1.02699
1.01925
1.01043
1.00117
0.992081
0.983619
0.976128
0.969758
0.964618
0.960687
1.0409
1.04138
1.04047
1.03809
1.03372
1.02746
1.0195
1.01043
1.00094
0.991653
0.98303
0.975419
0.968964
0.963767
0.9598
1.04169
1.0422
1.04129
1.03887
1.03438
1.02793
1.01974
1.01043
1.00069
0.991203
0.982418
0.974686
0.968146
0.962893
0.958893
1.0425
1.04305
1.04214
1.03966
1.03505
1.02841
1.01997
1.0104
1.00043
0.990729
0.981781
0.973928
0.967304
0.961995
0.957962
1.04334
1.04392
1.04301
1.04048
1.03574
1.0289
1.02021
1.01037
1.00014
0.990231
0.981117
0.973144
0.966436
0.961074
0.95701
1.0442
1.04482
1.04391
1.04132
1.03645
1.02939
1.02044
1.01032
0.999834
0.989706
0.980426
0.972332
0.965542
0.960127
0.956034
1.04509
1.04575
1.04483
1.04218
1.03717
1.02989
1.02066
1.01025
0.999502
0.989154
0.979706
0.971492
0.964621
0.959155
0.955034
1.046
1.0467
1.04579
1.04308
1.03791
1.0304
1.02088
1.01017
0.999144
0.988573
0.978955
0.970621
0.963672
0.958157
0.95401
1.04694
1.04768
1.04677
1.04399
1.03867
1.03091
1.02109
1.01007
0.99876
0.987961
0.978174
0.969721
0.962694
0.957132
0.95296
1.04791
1.0487
1.04778
1.04494
1.03945
1.03143
1.02129
1.00994
0.998346
0.987316
0.977358
0.968789
0.961686
0.956079
0.951885
1.0489
1.04974
1.04883
1.04591
1.04025
1.03196
1.02148
1.0098
0.997902
0.986637
0.976509
0.967823
0.960647
0.954998
0.950783
1.04993
1.05082
1.04991
1.04691
1.04107
1.03248
1.02166
1.00962
0.997424
0.985921
0.975623
0.966823
0.959577
0.953886
0.949654
1.05099
1.05193
1.05102
1.04795
1.0419
1.03301
1.02182
1.00942
0.996911
0.985168
0.9747
0.965788
0.958473
0.952746
0.948498
1.05208
1.05308
1.05217
1.04901
1.04276
1.03354
1.02197
1.00919
0.996359
0.984373
0.973736
0.964716
0.957336
0.951573
0.947312
1.05321
1.05427
1.05336
1.05011
1.04363
1.03407
1.02209
1.00892
0.995767
0.983536
0.972732
0.963605
0.956164
0.95037
0.946098
1.05437
1.0555
1.05459
1.05124
1.04453
1.0346
1.0222
1.00862
0.995131
0.982654
0.971684
0.962454
0.954955
0.949133
0.944853
1.05558
1.05676
1.05586
1.05241
1.04544
1.03513
1.02228
1.00828
0.994449
0.981725
0.970591
0.961263
0.953709
0.947863
0.943579
1.05682
1.05808
1.05718
1.05361
1.04637
1.03565
1.02233
1.0079
0.993716
0.980744
0.969451
0.960028
0.952425
0.946557
0.942272
1.0581
1.05944
1.05854
1.05485
1.04732
1.03616
1.02235
1.00746
0.992931
0.979712
0.968263
0.95875
0.951102
0.945218
0.940934
1.05943
1.06084
1.05995
1.05613
1.04829
1.03667
1.02233
1.00698
0.992088
0.978623
0.967022
0.957426
0.949738
0.943841
0.939562
1.06081
1.0623
1.06142
1.05746
1.04927
1.03715
1.02228
1.00644
0.991186
0.977477
0.965729
0.956054
0.948333
0.942427
0.938157
1.06223
1.06381
1.06293
1.05882
1.05027
1.03763
1.02218
1.00584
0.990218
0.976268
0.96438
0.954634
0.946884
0.940975
0.936717
1.06371
1.06537
1.0645
1.06023
1.05129
1.03808
1.02203
1.00518
0.989182
0.974995
0.962974
0.953164
0.945392
0.939485
0.935242
1.06523
1.067
1.06613
1.06167
1.05231
1.0385
1.02182
1.00444
0.988072
0.973654
0.961508
0.951641
0.943854
0.937954
0.933731
1.06682
1.06869
1.06783
1.06317
1.05335
1.03889
1.02155
1.00363
0.986886
0.972242
0.959979
0.950065
0.94227
0.936382
0.932183
1.06846
1.07044
1.06958
1.06471
1.05439
1.03925
1.02121
1.00274
0.985615
0.970755
0.958386
0.948434
0.940638
0.934769
0.930597
1.07017
1.07227
1.07141
1.0663
1.05544
1.03956
1.02079
1.00175
0.984258
0.969191
0.956727
0.946746
0.938958
0.933113
0.928973
1.07195
1.07416
1.07331
1.06793
1.05648
1.03982
1.02029
1.00066
0.982807
0.967544
0.954997
0.945
0.937228
0.931414
0.927309
1.07379
1.07614
1.07529
1.06962
1.05752
1.04002
1.01969
0.999475
0.981259
0.965813
0.953197
0.943195
0.935448
0.92967
0.925605
1.07571
1.0782
1.07734
1.07134
1.05855
1.04014
1.01899
0.998172
0.979606
0.963993
0.951323
0.941328
0.933616
0.927881
0.92386
1.07771
1.08035
1.07948
1.07312
1.05956
1.04019
1.01816
0.996748
0.977844
0.962081
0.949374
0.939399
0.931732
0.926046
0.922073
1.07979
1.08259
1.08171
1.07494
1.06054
1.04014
1.01721
0.995192
0.975967
0.960073
0.947347
0.937406
0.929793
0.924164
0.920244
1.08196
1.08493
1.08404
1.07681
1.06148
1.03998
1.01612
0.993497
0.973969
0.957967
0.94524
0.935349
0.9278
0.922235
0.918371
1.08422
1.08739
1.08646
1.07871
1.06238
1.0397
1.01487
0.991653
0.971845
0.955759
0.943051
0.933225
0.925752
0.920257
0.916455
1.08659
1.08995
1.08898
1.08065
1.0632
1.03927
1.01345
0.989649
0.969589
0.953445
0.940779
0.931035
0.923648
0.91823
0.914494
1.08906
1.09264
1.09161
1.08261
1.06395
1.03869
1.01184
0.987476
0.967194
0.951023
0.938422
0.928776
0.921488
0.916154
0.912487
1.09165
1.09546
1.09436
1.0846
1.0646
1.03791
1.01003
0.985125
0.964658
0.94849
0.93598
0.92645
0.91927
0.914027
0.910434
1.09436
1.09843
1.09721
1.0866
1.06513
1.03693
1.008
0.982584
0.961973
0.945844
0.93345
0.924054
0.916995
0.91185
0.908335
1.0972
1.10155
1.10019
1.08859
1.06551
1.03572
1.00573
0.979845
0.959136
0.943084
0.930832
0.921589
0.914663
0.909621
0.906188
1.10019
1.10483
1.10329
1.09057
1.06571
1.03424
1.0032
0.976898
0.956143
0.940206
0.928126
0.919055
0.912273
0.907341
0.903993
1.10332
1.10829
1.1065
1.0925
1.06569
1.03247
1.0004
0.973735
0.952991
0.937211
0.925332
0.916452
0.909825
0.905009
0.901749
1.10663
1.11194
1.10984
1.09437
1.06543
1.03037
0.997298
0.970347
0.949677
0.934097
0.922449
0.91378
0.907319
0.902625
0.899456
1.11011
1.1158
1.1133
1.09614
1.06488
1.02791
0.993884
0.966729
0.946199
0.930866
0.91948
0.911041
0.904756
0.900189
0.897113
1.11378
1.11989
1.11686
1.09778
1.06397
1.02505
0.990137
0.962876
0.942557
0.927517
0.916424
0.908234
0.902136
0.8977
0.894719
1.11767
1.12421
1.12053
1.09923
1.06267
1.02175
0.986043
0.958783
0.938752
0.924053
0.913284
0.905363
0.899461
0.895159
0.892274
1.1218
1.1288
1.12427
1.10045
1.0609
1.01797
0.981588
0.95445
0.934785
0.920474
0.910061
0.902427
0.89673
0.892565
0.889778
1.12617
1.13366
1.12807
1.10136
1.05861
1.01368
0.976761
0.949879
0.930659
0.916786
0.90676
0.89943
0.893945
0.88992
0.887229
1.13084
1.13882
1.13189
1.10189
1.0557
1.00883
0.971554
0.945071
0.926379
0.912991
0.903382
0.896373
0.891108
0.887223
0.884628
1.13581
1.14429
1.13569
1.10194
1.05211
1.00339
0.965967
0.940036
0.921952
0.909095
0.899933
0.893261
0.888219
0.884474
0.881973
1.14113
1.15008
1.13939
1.10141
1.04775
0.997323
0.960002
0.934782
0.917384
0.905104
0.896417
0.890095
0.885281
0.881674
0.879264
1.14685
1.15621
1.14294
1.10018
1.04252
0.990616
0.95367
0.929323
0.912684
0.901024
0.892839
0.88688
0.882295
0.878824
0.876501
1.153
1.16268
1.14621
1.0981
1.03636
0.983251
0.946989
0.923675
0.907864
0.896862
0.889205
0.883619
0.879264
0.875924
0.873683
1.15964
1.16948
1.14908
1.09501
1.02916
0.975227
0.939984
0.917857
0.902934
0.892629
0.885523
0.880317
0.87619
0.872974
0.870809
1.16684
1.17658
1.1514
1.09073
1.02085
0.966559
0.932691
0.911891
0.897908
0.888334
0.881798
0.876979
0.873076
0.869976
0.867879
1.17467
1.18394
1.15295
1.08509
1.01137
0.957278
0.925152
0.905802
0.8928
0.883987
0.87804
0.87361
0.869925
0.866931
0.864891
1.1832
1.19149
1.15351
1.07787
1.00068
0.94744
0.917419
0.899615
0.887624
0.8796
0.874256
0.870216
0.866741
0.863839
0.861845
1.19255
1.19909
1.15279
1.06887
0.988764
0.937123
0.909549