/*--------------------------------*- C++ -*----------------------------------*\
  =========                 |
  \\      /  F ield         | OpenFOAM: The Open Source CFD Toolbox
   \\    /   O peration     | Website:  https://openfoam.org
    \\  /    A nd           | Version:  6.0
     \\/     M anipulation  |
\*---------------------------------------------------------------------------*/
FoamFile
{
    version     2.0;
    format      ascii;
    class       surfaceScalarField;
    location    "0.1";
    object      phi;
}
// * * * * * * * * * * * * * * * * * * * * * * * * * * * * * * * * * * * * * //

dimensions      [0 3 -1 0 0 0 0];

internalField   nonuniform List<scalar> 
370
(
-4.81443e-08
4.81431e-08
-3.62354e-07
3.1421e-07
-8.11049e-07
4.48694e-07
-1.28402e-06
4.7297e-07
-1.73464e-06
4.50625e-07
-2.14934e-06
4.14695e-07
-2.52767e-06
3.78331e-07
-2.87368e-06
3.46012e-07
-3.19182e-06
3.18138e-07
-3.48351e-06
2.91692e-07
-3.74239e-06
2.58879e-07
-3.94768e-06
2.0529e-07
-4.05699e-06
1.09311e-07
-4.00256e-06
-5.4434e-08
-3.69907e-06
-3.03485e-07
-3.07474e-06
-6.24335e-07
-2.13451e-06
-9.40229e-07
-1.0475e-06
-1.087e-06
-1.98295e-07
-8.49207e-07
-1.98295e-07
-3.69188e-07
4.17332e-07
-1.22266e-06
1.16768e-06
-2.29211e-06
1.51815e-06
-3.38938e-06
1.57024e-06
-4.41951e-06
1.48075e-06
-5.34741e-06
1.3426e-06
-6.16791e-06
1.19883e-06
-6.88798e-06
1.06608e-06
-7.51631e-06
9.46464e-07
-8.05496e-06
8.30345e-07
-8.49035e-06
6.94268e-07
-8.78309e-06
4.98034e-07
-8.859e-06
1.85217e-07
-8.60691e-06
-3.06519e-07
-7.89381e-06
-1.01658e-06
-6.61168e-06
-1.90647e-06
-4.77e-06
-2.78191e-06
-2.62754e-06
-3.22947e-06
-7.81593e-07
-2.69515e-06
-9.79888e-07
-6.58616e-07
1.07595e-06
-1.96871e-06
2.47778e-06
-3.49377e-06
3.0432e-06
-4.99138e-06
3.06786e-06
-6.35166e-06
2.84103e-06
-7.53911e-06
2.53005e-06
-8.55464e-06
2.21436e-06
-9.41413e-06
1.92557e-06
-1.01356e-05
1.66795e-06
-1.07296e-05
1.42435e-06
-1.11896e-05
1.15422e-06
-1.14813e-05
7.89795e-07
-1.15328e-05
2.3666e-07
-1.12273e-05
-6.12024e-07
-1.04096e-05
-1.83424e-06
-8.92117e-06
-3.39492e-06
-6.69194e-06
-5.01114e-06
-3.9166e-06
-6.00481e-06
-1.28028e-06
-5.33147e-06
-2.26016e-06
-9.08292e-07
1.98424e-06
-2.58806e-06
4.15755e-06
-4.4242e-06
4.87934e-06
-6.13299e-06
4.77664e-06
-7.61394e-06
4.32198e-06
-8.85094e-06
3.76705e-06
-9.86376e-06
3.22718e-06
-1.06851e-05
2.74694e-06
-1.13486e-05
2.33143e-06
-1.18806e-05
1.95635e-06
-1.22929e-05
1.56655e-06
-1.25736e-05
1.07048e-06
-1.26742e-05
3.3728e-07
-1.24941e-05
-7.92193e-07
-1.18659e-05
-2.46237e-06
-1.05613e-05
-4.69953e-06
-8.35865e-06
-7.21383e-06
-5.25319e-06
-9.11026e-06
-1.88214e-06
-8.70252e-06
-4.14231e-06
-1.16647e-06
3.15071e-06
-3.14166e-06
6.13273e-06
-5.12769e-06
6.86538e-06
-6.83861e-06
6.48756e-06
-8.21914e-06
5.70251e-06
-9.29439e-06
4.84229e-06
-1.01145e-05
4.04733e-06
-1.07341e-05
3.36651e-06
-1.12035e-05
2.80081e-06
-1.15654e-05
2.3183e-06
-1.18527e-05
1.85385e-06
-1.20832e-05
1.30093e-06
-1.22478e-05
5.01921e-07
-1.22877e-05
-7.52296e-07
-1.20578e-05
-2.69225e-06
-1.12887e-05
-5.46869e-06
-9.59123e-06
-8.91127e-06
-6.62983e-06
-1.20717e-05
-2.71103e-06
-1.26213e-05
-6.85334e-06
-1.49749e-06
4.6482e-06
-3.67497e-06
8.31021e-06
-5.55725e-06
8.74765e-06
-6.95941e-06
7.88973e-06
-7.93666e-06
6.67976e-06
-8.58299e-06
5.48862e-06
-8.98725e-06
4.45159e-06
-9.22371e-06
3.60297e-06
-9.35186e-06
2.92896e-06
-9.42058e-06
2.38701e-06
-9.47352e-06
1.90679e-06
-9.55256e-06
1.37996e-06
-9.69383e-06
6.43193e-07
-9.90795e-06
-5.38178e-07
-1.01331e-05
-2.46709e-06
-1.01534e-05
-5.44838e-06
-9.49925e-06
-9.56544e-06
-7.456e-06
-1.41149e-05
-3.62926e-06
-1.64481e-05
-1.04826e-05
-1.98191e-06
6.63011e-06
-4.11819e-06
1.04465e-05
-5.37678e-06
1.00062e-05
-5.9303e-06
8.44325e-06
-6.04735e-06
6.79681e-06
-5.91097e-06
5.35224e-06
-5.63898e-06
4.1796e-06
-5.30623e-06
3.27022e-06
-4.9597e-06
2.58243e-06
-4.6323e-06
2.05961e-06
-4.35654e-06
1.63104e-06
-4.17754e-06
1.20096e-06
-4.16276e-06
6.28413e-07
-4.40063e-06
-3.00308e-07
-4.96904e-06
-1.89868e-06
-5.83964e-06
-4.57779e-06
-6.67042e-06
-8.73465e-06
-6.52328e-06
-1.42621e-05
-4.06273e-06
-1.89086e-05
-1.45453e-05
-2.66176e-06
9.29187e-06
-3.88563e-06
1.16704e-05
-3.40983e-06
9.53044e-06
-2.25162e-06
7.28505e-06
-9.39322e-07
5.48451e-06
3.24287e-07
4.08863e-06
1.46262e-06
3.04126e-06
2.45346e-06
2.27938e-06
3.30114e-06
1.73475e-06
4.01739e-06
1.34336e-06
4.60487e-06
1.04357e-06
5.04039e-06
7.65445e-07
5.25478e-06
4.1402e-07
5.11045e-06
-1.55977e-07
4.39011e-06
-1.17834e-06
2.84268e-06
-3.03035e-06
4.06271e-07
-6.29825e-06
-2.22093e-06
-1.16348e-05
-2.93487e-06
-1.81947e-05
-1.74802e-05
-2.51056e-06
1.18024e-05
1.29945e-07
9.02986e-06
4.10092e-06
5.55946e-06
7.62899e-06
3.75698e-06
1.04938e-05
2.61965e-06
1.2769e-05
1.81351e-06
1.4554e-05
1.25626e-06
1.59493e-05
8.84053e-07
1.70458e-05
6.38218e-07
1.79151e-05
4.74039e-07
1.86019e-05
3.5678e-07
1.91137e-05
2.53683e-07
1.94023e-05
1.25377e-07
1.93316e-05
-8.52342e-08
1.86261e-05
-4.72797e-07
1.68144e-05
-1.21867e-06
1.3268e-05
-2.75188e-06
7.6631e-06
-6.02994e-06
1.50254e-06
-1.20341e-05
-1.59777e-05
1.18024e-05
2.08323e-05
2.63917e-05
3.01487e-05
3.27684e-05
3.45819e-05
3.58382e-05
3.67222e-05
3.73604e-05
3.78345e-05
3.81912e-05
3.84449e-05
3.85703e-05
3.84851e-05
3.80123e-05
3.67936e-05
3.40417e-05
2.80118e-05
1.59777e-05
)
;

boundaryField
{
    movingWall
    {
        type            calculated;
        value           uniform 0;
    }
    fixedWalls
    {
        type            calculated;
        value           uniform 0;
    }
    frontAndBack
    {
        type            empty;
        value           nonuniform 0();
    }
}


// ************************************************************************* //
