/*--------------------------------*- C++ -*----------------------------------*\
  =========                 |
  \\      /  F ield         | OpenFOAM: The Open Source CFD Toolbox
   \\    /   O peration     | Website:  https://openfoam.org
    \\  /    A nd           | Version:  6.0
     \\/     M anipulation  |
\*---------------------------------------------------------------------------*/
FoamFile
{
    version     2.0;
    format      ascii;
    class       volScalarField;
    location    "0.2";
    object      p;
}
// * * * * * * * * * * * * * * * * * * * * * * * * * * * * * * * * * * * * * //

dimensions      [0 2 -2 0 0 0 0];

internalField   nonuniform List<scalar> 
200
(
3.45036e-09
-0.000682674
-0.00133567
-0.00184654
-0.00224941
-0.00253046
-0.00262952
-0.00245393
-0.00187403
-0.000705735
0.00131337
0.00454409
0.00944271
0.0164887
0.0259393
0.0372969
0.0486572
0.0567739
0.0589302
0.0563251
0.000703051
-3.13075e-05
-0.000575232
-0.00100616
-0.00139722
-0.00169982
-0.00182975
-0.00168752
-0.00115124
-6.38939e-05
0.00178236
0.0046648
0.00895496
0.0151275
0.023621
0.0343123
0.0456508
0.0543674
0.0570892
0.053999
0.00126498
0.000311443
-0.000244647
-0.000676897
-0.00112494
-0.00152116
-0.0017696
-0.00177749
-0.00145048
-0.000685492
0.000641802
0.00270685
0.00581176
0.0105146
0.0176568
0.0278674
0.0402887
0.0513783
0.0559375
0.0523067
0.0011023
-8.62721e-05
-0.000695102
-0.00117452
-0.00171674
-0.00223504
-0.0026309
-0.00283327
-0.00279887
-0.00251454
-0.00198988
-0.00121524
-2.87706e-05
0.00216434
0.00669577
0.0153764
0.028866
0.044028
0.0533885
0.0520201
-0.000292142
-0.00164881
-0.00223907
-0.00271146
-0.00329686
-0.00387802
-0.00435624
-0.00469265
-0.00491442
-0.00513036
-0.00553497
-0.00636264
-0.00770592
-0.00907427
-0.00873329
-0.00349002
0.00966427
0.0295233
0.0476115
0.0543465
-0.00347564
-0.00483002
-0.00513969
-0.00539371
-0.00585318
-0.00633755
-0.00673782
-0.00704676
-0.0073667
-0.00793826
-0.00915599
-0.0115193
-0.015407
-0.0205012
-0.0248375
-0.0241193
-0.0129719
0.0105982
0.0399052
0.0610025
-0.00930163
-0.0101152
-0.00943454
-0.00902826
-0.00907144
-0.0092216
-0.00932832
-0.00940074
-0.00960023
-0.0102718
-0.0119599
-0.0153389
-0.0209341
-0.0284491
-0.0357
-0.0377141
-0.0276134
-0.000470717
0.0406716
0.080244
-0.0197081
-0.0179668
-0.0146917
-0.0129049
-0.0121231
-0.0116796
-0.0113242
-0.0110462
-0.0110244
-0.0116411
-0.0134795
-0.0172054
-0.0232266
-0.0309405
-0.0376833
-0.0377586
-0.0232188
0.012999
0.0712757
0.136352
-0.0404006
-0.0280109
-0.0187067
-0.0143184
-0.0124831
-0.0115175
-0.0109009
-0.0105502
-0.0105928
-0.0113652
-0.0133826
-0.017139
-0.0227165
-0.0289518
-0.0324532
-0.0263953
-0.000988297
0.0543933
0.144534
0.256164
-0.0987712
-0.0334944
-0.0103361
-0.0063372
-0.00583559
-0.00567912
-0.00581216
-0.00625609
-0.00706828
-0.00852465
-0.0110743
-0.015049
-0.0202646
-0.0251185
-0.0257638
-0.0144066
0.0207193
0.0970551
0.2287
0.410738
)
;

boundaryField
{
    movingWall
    {
        type            zeroGradient;
    }
    fixedWalls
    {
        type            zeroGradient;
    }
    frontAndBack
    {
        type            empty;
    }
}


// ************************************************************************* //
