/*--------------------------------*- C++ -*----------------------------------*\
  =========                 |
  \\      /  F ield         | OpenFOAM: The Open Source CFD Toolbox
   \\    /   O peration     | Website:  https://openfoam.org
    \\  /    A nd           | Version:  6.0
     \\/     M anipulation  |
\*---------------------------------------------------------------------------*/
FoamFile
{
    version     2.0;
    format      ascii;
    class       volVectorField;
    location    "0.2";
    object      U;
}
// * * * * * * * * * * * * * * * * * * * * * * * * * * * * * * * * * * * * * //

dimensions      [0 1 -1 0 0 0 0];

internalField   nonuniform List<vector> 
200
(
(0.000208584 -0.000308072 0)
(-0.00122411 0.000879331 0)
(-0.00539276 0.00159257 0)
(-0.0105835 0.00182948 0)
(-0.0159688 0.00193679 0)
(-0.0214707 0.00206908 0)
(-0.0272176 0.00227068 0)
(-0.0333949 0.00256736 0)
(-0.0402494 0.00299478 0)
(-0.0480883 0.00358907 0)
(-0.0572112 0.00434872 0)
(-0.067717 0.0051613 0)
(-0.0791157 0.00568918 0)
(-0.0897147 0.00526298 0)
(-0.0960475 0.00296953 0)
(-0.0931975 -0.00177192 0)
(-0.0770723 -0.00807867 0)
(-0.0485398 -0.0125887 0)
(-0.0175336 -0.0104728 0)
(-0.00160356 -0.00161485 0)
(-0.0015126 0.00149132 0)
(-0.00826241 0.00681918 0)
(-0.0202978 0.00967663 0)
(-0.0340367 0.010616 0)
(-0.0478845 0.010918 0)
(-0.0616205 0.0112114 0)
(-0.0753686 0.0117268 0)
(-0.08939 0.0125911 0)
(-0.104056 0.0139127 0)
(-0.119772 0.0157215 0)
(-0.136795 0.0178064 0)
(-0.154864 0.0194696 0)
(-0.172639 0.0192549 0)
(-0.186985 0.014863 0)
(-0.192566 0.0037362 0)
(-0.182667 -0.015112 0)
(-0.152077 -0.0380224 0)
(-0.101709 -0.0539203 0)
(-0.0443064 -0.0466424 0)
(-0.00771814 -0.0128459 0)
(-0.0033746 0.00787113 0)
(-0.0153448 0.0203661 0)
(-0.034183 0.0261628 0)
(-0.0543573 0.0277592 0)
(-0.0738585 0.0278644 0)
(-0.0925152 0.0278195 0)
(-0.11046 0.0281647 0)
(-0.127976 0.0291853 0)
(-0.145485 0.0310574 0)
(-0.163456 0.0337157 0)
(-0.182219 0.0365508 0)
(-0.201622 0.0380184 0)
(-0.220515 0.0352996 0)
(-0.236034 0.0243344 0)
(-0.242984 0.000848615 0)
(-0.23412 -0.0367941 0)
(-0.202371 -0.0825854 0)
(-0.145339 -0.117426 0)
(-0.072499 -0.109593 0)
(-0.0152825 -0.0397852 0)
(-0.00503591 0.0181948 0)
(-0.0214382 0.0399042 0)
(-0.0455482 0.0483812 0)
(-0.0699137 0.0497836 0)
(-0.0923477 0.0487783 0)
(-0.112905 0.047509 0)
(-0.131795 0.0468343 0)
(-0.14934 0.0472144 0)
(-0.166024 0.0489296 0)
(-0.182445 0.0518894 0)
(-0.19922 0.0552094 0)
(-0.216752 0.0566692 0)
(-0.234794 0.0522376 0)
(-0.251668 0.0360624 0)
(-0.263145 0.00167952 0)
(-0.26181 -0.0544274 0)
(-0.238468 -0.126131 0)
(-0.18652 -0.189013 0)
(-0.108745 -0.194389 0)
(-0.0281402 -0.0857242 0)
(-0.00677896 0.0319611 0)
(-0.0271222 0.0640691 0)
(-0.05503 0.074163 0)
(-0.0813466 0.0739792 0)
(-0.104106 0.0706581 0)
(-0.123816 0.0671125 0)
(-0.140833 0.0644413 0)
(-0.155513 0.0632567 0)
(-0.168337 0.0639841 0)
(-0.179937 0.0666397 0)
(-0.191122 0.0703095 0)
(-0.202837 0.0724236 0)
(-0.215921 0.0680332 0)
(-0.230376 0.0495907 0)
(-0.243915 0.00816466 0)
(-0.250517 -0.0626842 0)
(-0.240929 -0.159431 0)
(-0.205937 -0.257437 0)
(-0.139803 -0.295074 0)
(-0.0442464 -0.160804 0)
(-0.0092438 0.0495577 0)
(-0.0337264 0.0921408 0)
(-0.0639379 0.101628 0)
(-0.0893765 0.0978836 0)
(-0.109171 0.0908385 0)
(-0.124732 0.0839133 0)
(-0.136688 0.0782565 0)
(-0.145453 0.0745219 0)
(-0.151418 0.0732285 0)
(-0.15501 0.0745487 0)
(-0.156857 0.0777665 0)
(-0.157995 0.0804302 0)
(-0.160009 0.077372 0)
(-0.164711 0.0601537 0)
(-0.172838 0.0180202 0)
(-0.182082 -0.0586192 0)
(-0.186408 -0.171539 0)
(-0.176757 -0.303341 0)
(-0.139333 -0.391159 0)
(-0.0504303 -0.269968 0)
(-0.0137256 0.0729945 0)
(-0.0433444 0.123576 0)
(-0.0730345 0.127958 0)
(-0.0919594 0.117715 0)
(-0.102729 0.105297 0)
(-0.108561 0.0940126 0)
(-0.110611 0.0846783 0)
(-0.109469 0.0777263 0)
(-0.105448 0.0735447 0)
(-0.0986537 0.0723209 0)
(-0.0892167 0.0736054 0)
(-0.0777005 0.0755279 0)
(-0.0656594 0.0737597 0)
(-0.0559483 0.0606173 0)
(-0.0522303 0.0253856 0)
(-0.0570665 -0.0435098 0)
(-0.0705807 -0.154145 0)
(-0.087671 -0.303298 0)
(-0.0904702 -0.444476 0)
(-0.0291103 -0.385503 0)
(-0.0234698 0.108061 0)
(-0.0592564 0.156052 0)
(-0.077893 0.144941 0)
(-0.0748638 0.123586 0)
(-0.0637925 0.104996 0)
(-0.0500389 0.0898263 0)
(-0.0348048 0.0776696 0)
(-0.0185817 0.0683712 0)
(-0.00146884 0.0618833 0)
(0.0168117 0.0581436 0)
(0.0366663 0.0568261 0)
(0.0582448 0.0567678 0)
(0.0806447 0.0551981 0)
(0.101339 0.0467526 0)
(0.115318 0.0233029 0)
(0.116744 -0.0256986 0)
(0.0982887 -0.111534 0)
(0.0577212 -0.246254 0)
(0.00829705 -0.414962 0)
(0.0294842 -0.44105 0)
(-0.0564812 0.181766 0)
(-0.0700266 0.1727 0)
(-0.019128 0.124563 0)
(0.0350726 0.0968825 0)
(0.0827001 0.0783784 0)
(0.124016 0.0640869 0)
(0.160501 0.0529043 0)
(0.193108 0.0444308 0)
(0.222655 0.0382948 0)
(0.250129 0.034167 0)
(0.276431 0.0317302 0)
(0.302348 0.0303362 0)
(0.327423 0.0287129 0)
(0.350256 0.0241916 0)
(0.365365 0.012768 0)
(0.366702 -0.0119349 0)
(0.340226 -0.0575264 0)
(0.278605 -0.141641 0)
(0.174866 -0.284511 0)
(0.140854 -0.36777 0)
(0.231762 0.124521 0)
(0.280638 0.110451 0)
(0.379611 0.07837 0)
(0.464097 0.0571452 0)
(0.525294 0.0432671 0)
(0.570978 0.033302 0)
(0.607013 0.0258719 0)
(0.636395 0.0203431 0)
(0.660901 0.0162903 0)
(0.682055 0.0133792 0)
(0.700865 0.0113685 0)
(0.718386 0.00996614 0)
(0.733974 0.00880649 0)
(0.747428 0.00719612 0)
(0.753051 0.00407446 0)
(0.748437 -0.00196661 0)
(0.715124 -0.0138207 0)
(0.652715 -0.0341994 0)
(0.50704 -0.0786089 0)
(0.381204 -0.13311 0)
)
;

boundaryField
{
    movingWall
    {
        type            fixedValue;
        value           uniform (1 0 0);
    }
    fixedWalls
    {
        type            noSlip;
    }
    frontAndBack
    {
        type            empty;
    }
}


// ************************************************************************* //
