1.275 	2.15223e-18 	-2.76991e-20 	0.217295 	-0.0101732 	-1.20005e-22
1.825 	2.15223e-18 	-1.39322e-20 	0.514297 	-0.00976449 	-1.26088e-22
2.375 	2.15223e-18 	-2.66896e-23 	0.757256 	-0.00597326 	-4.01564e-24
