/*--------------------------------*- C++ -*----------------------------------*\
  =========                 |
  \\      /  F ield         | OpenFOAM: The Open Source CFD Toolbox
   \\    /   O peration     | Website:  https://openfoam.org
    \\  /    A nd           | Version:  6.0
     \\/     M anipulation  |
\*---------------------------------------------------------------------------*/
FoamFile
{
    version     2.0;
    format      ascii;
    class       volVectorField;
    location    "0.4";
    object      U;
}
// * * * * * * * * * * * * * * * * * * * * * * * * * * * * * * * * * * * * * //

dimensions      [0 1 -1 0 0 0 0];

internalField   nonuniform List<vector> 
200
(
(0.00046563 -0.000547811 0)
(0.000463445 -4.58229e-05 0)
(-0.00100926 0.000363784 0)
(-0.00318042 0.000516526 0)
(-0.00564448 0.000607361 0)
(-0.00849454 0.000767331 0)
(-0.0121062 0.00108746 0)
(-0.0171156 0.00169759 0)
(-0.0245294 0.00283823 0)
(-0.0358409 0.00490308 0)
(-0.0529077 0.00829999 0)
(-0.0771166 0.0128843 0)
(-0.107385 0.0170967 0)
(-0.137554 0.0178666 0)
(-0.156369 0.0124327 0)
(-0.152884 0.000927781 0)
(-0.123279 -0.0127354 0)
(-0.0739856 -0.0211779 0)
(-0.022686 -0.015668 0)
(0.000782845 0.00047428 0)
(-0.000426975 -0.000351173 0)
(-0.00346974 0.00233457 0)
(-0.00979319 0.00418867 0)
(-0.0175925 0.00508753 0)
(-0.0262286 0.00584852 0)
(-0.0361138 0.00708834 0)
(-0.0482409 0.0093139 0)
(-0.0641321 0.0131331 0)
(-0.0857843 0.0193076 0)
(-0.115264 0.0284247 0)
(-0.153531 0.0398078 0)
(-0.198299 0.0499328 0)
(-0.242315 0.0523616 0)
(-0.274589 0.0409336 0)
(-0.284698 0.0138864 0)
(-0.266607 -0.0247376 0)
(-0.219571 -0.0650575 0)
(-0.14839 -0.0892067 0)
(-0.0665827 -0.071975 0)
(-0.00951324 -0.0111868 0)
(-0.00191609 0.0028809 0)
(-0.00920665 0.010057 0)
(-0.0212646 0.014208 0)
(-0.0348605 0.0163428 0)
(-0.0492086 0.0183989 0)
(-0.0650088 0.0217965 0)
(-0.0835091 0.0276688 0)
(-0.10633 0.0370306 0)
(-0.135085 0.0504078 0)
(-0.17057 0.0668066 0)
(-0.211588 0.0823476 0)
(-0.253879 0.0899272 0)
(-0.290399 0.0814735 0)
(-0.313836 0.0519576 0)
(-0.319302 0.00173619 0)
(-0.303995 -0.0638719 0)
(-0.265201 -0.133363 0)
(-0.200939 -0.182677 0)
(-0.114247 -0.168518 0)
(-0.0259083 -0.0509331 0)
(-0.00359438 0.00969228 0)
(-0.0153655 0.0233615 0)
(-0.0329113 0.0298404 0)
(-0.0512284 0.0328241 0)
(-0.069301 0.0358418 0)
(-0.0878696 0.0411354 0)
(-0.10791 0.0502585 0)
(-0.13046 0.0641698 0)
(-0.156265 0.0825273 0)
(-0.185239 0.102528 0)
(-0.21591 0.11812 0)
(-0.245109 0.120913 0)
(-0.268793 0.103327 0)
(-0.284115 0.0619021 0)
(-0.290152 -0.0024117 0)
(-0.285342 -0.0861299 0)
(-0.264915 -0.181278 0)
(-0.221677 -0.265134 0)
(-0.148957 -0.281188 0)
(-0.0447484 -0.127565 0)
(-0.00544784 0.020222 0)
(-0.0216027 0.0418073 0)
(-0.0437123 0.0497721 0)
(-0.0648509 0.0522761 0)
(-0.0838075 0.0548008 0)
(-0.101186 0.0602065 0)
(-0.117374 0.0701846 0)
(-0.13267 0.0854732 0)
(-0.147276 0.105067 0)
(-0.161209 0.125222 0)
(-0.174131 0.139236 0)
(-0.185135 0.138989 0)
(-0.19325 0.118043 0)
(-0.198815 0.073916 0)
(-0.203479 0.00697323 0)
(-0.207449 -0.0825581 0)
(-0.206571 -0.193527 0)
(-0.191294 -0.312134 0)
(-0.146717 -0.380559 0)
(-0.0504 -0.241811 0)
(-0.00779431 0.0348264 0)
(-0.0284533 0.0648674 0)
(-0.0539808 0.0723548 0)
(-0.0756004 0.0721776 0)
(-0.0924233 0.0719399 0)
(-0.10514 0.074741 0)
(-0.113615 0.0821962 0)
(-0.117577 0.0949591 0)
(-0.117006 0.111967 0)
(-0.112452 0.129569 0)
(-0.105124 0.141531 0)
(-0.0965351 0.140628 0)
(-0.0883431 0.121366 0)
(-0.0829004 0.0815868 0)
(-0.0832978 0.0209249 0)
(-0.091498 -0.0629253 0)
(-0.10578 -0.175424 0)
(-0.117308 -0.316121 0)
(-0.106624 -0.440286 0)
(-0.0307505 -0.36191 0)
(-0.0115121 0.0547465 0)
(-0.0375289 0.0920141 0)
(-0.0649742 0.0954214 0)
(-0.0835864 0.0897923 0)
(-0.0945448 0.0843447 0)
(-0.0995635 0.0819206 0)
(-0.0984427 0.0838192 0)
(-0.0906492 0.0906785 0)
(-0.0759608 0.101827 0)
(-0.0550767 0.114481 0)
(-0.0300543 0.123693 0)
(-0.00409414 0.123506 0)
(0.0190198 0.109081 0)
(0.0353554 0.0778725 0)
(0.0408919 0.0286051 0)
(0.0329712 -0.04244 0)
(0.0106007 -0.144096 0)
(-0.02026 -0.287343 0)
(-0.0423166 -0.449615 0)
(0.0103563 -0.446749 0)
(-0.0189446 0.0832446 0)
(-0.0516408 0.123756 0)
(-0.0773927 0.115606 0)
(-0.0819028 0.0987992 0)
(-0.0776119 0.0860986 0)
(-0.0686087 0.0775178 0)
(-0.0548728 0.0729732 0)
(-0.0357768 0.0727773 0)
(-0.0107115 0.0766312 0)
(0.0203262 0.0828702 0)
(0.0558717 0.0883398 0)
(0.0930035 0.0888166 0)
(0.127211 0.08053 0)
(0.153973 0.0606222 0)
(0.167606 0.0271561 0)
(0.165186 -0.0244003 0)
(0.141209 -0.103135 0)
(0.099161 -0.226284 0)
(0.0459661 -0.396037 0)
(0.0717176 -0.459735 0)
(-0.0755021 0.156887 0)
(-0.0833828 0.142293 0)
(-0.0436234 0.101176 0)
(-0.0038599 0.0799893 0)
(0.0326148 0.0662484 0)
(0.0657838 0.0559326 0)
(0.0972109 0.0484995 0)
(0.128462 0.0440425 0)
(0.160857 0.0424588 0)
(0.195809 0.0430134 0)
(0.233117 0.0444209 0)
(0.272285 0.0445069 0)
(0.309085 0.0413367 0)
(0.341195 0.0326433 0)
(0.3597 0.0170662 0)
(0.363332 -0.00914964 0)
(0.336673 -0.0522616 0)
(0.285733 -0.128067 0)
(0.193891 -0.261393 0)
(0.174585 -0.357076 0)
(0.20838 0.117484 0)
(0.252723 0.10363 0)
(0.337644 0.0758467 0)
(0.410503 0.0571545 0)
(0.465078 0.0446165 0)
(0.507324 0.035444 0)
(0.541939 0.0285249 0)
(0.572053 0.0233721 0)
(0.59928 0.019739 0)
(0.625886 0.0172656 0)
(0.651623 0.0156766 0)
(0.678231 0.0143471 0)
(0.70133 0.0128764 0)
(0.722666 0.010462 0)
(0.730825 0.00671148 0)
(0.730639 0.000424583 0)
(0.696372 -0.0102183 0)
(0.642704 -0.0294939 0)
(0.506008 -0.0661998 0)
(0.388111 -0.119801 0)
)
;

boundaryField
{
    movingWall
    {
        type            fixedValue;
        value           uniform (1 0 0);
    }
    fixedWalls
    {
        type            noSlip;
    }
    frontAndBack
    {
        type            empty;
    }
}


// ************************************************************************* //
