1.45 	0 	0 	0.0193203 	-0.00540334 	3.82542e-21
2.35 	0 	0 	0.177549 	-0.0103159 	1.24353e-21
