/*--------------------------------*- C++ -*----------------------------------*\
  =========                 |
  \\      /  F ield         | OpenFOAM: The Open Source CFD Toolbox
   \\    /   O peration     | Website:  https://openfoam.org
    \\  /    A nd           | Version:  6.0
     \\/     M anipulation  |
\*---------------------------------------------------------------------------*/
FoamFile
{
    version     2.0;
    format      ascii;
    class       volScalarField;
    location    "199";
    object      p;
}
// * * * * * * * * * * * * * * * * * * * * * * * * * * * * * * * * * * * * * //

dimensions      [0 2 -2 0 0 0 0];

internalField   nonuniform List<scalar> 
34500
(
1.00565
1.00577
1.0057
1.00547
1.00509
1.0046
1.00404
1.00345
1.00287
1.00231
1.0018
1.00136
1.00094
1.00069
1.00059
1.00566
1.00581
1.00579
1.00564
1.00534
1.00494
1.00445
1.0039
1.00333
1.00277
1.00221
1.00172
1.00122
1.00096
1.00077
1.00566
1.0058
1.00576
1.00557
1.00524
1.0048
1.00428
1.00371
1.00313
1.00256
1.00201
1.00154
1.00108
1.00088
1.00069
1.00566
1.00579
1.00573
1.00552
1.00516
1.0047
1.00415
1.00357
1.00299
1.00242
1.00189
1.00144
1.00102
1.00086
1.00073
1.00567
1.00579
1.00574
1.00554
1.00518
1.00473
1.00419
1.00362
1.00304
1.00247
1.00194
1.00149
1.00107
1.00092
1.0008
1.00568
1.00581
1.00576
1.00556
1.00522
1.00478
1.00425
1.00369
1.00311
1.00254
1.00201
1.00155
1.00112
1.00096
1.00084
1.00568
1.00581
1.00577
1.00558
1.00524
1.0048
1.00428
1.00371
1.00313
1.00257
1.00203
1.00156
1.00113
1.00098
1.00086
1.00569
1.00582
1.00578
1.00559
1.00526
1.00481
1.00429
1.00372
1.00314
1.00257
1.00203
1.00157
1.00114
1.00098
1.00087
1.0057
1.00584
1.0058
1.00561
1.00527
1.00483
1.0043
1.00374
1.00315
1.00258
1.00204
1.00157
1.00115
1.00099
1.00089
1.00571
1.00585
1.00581
1.00562
1.00529
1.00485
1.00432
1.00376
1.00317
1.0026
1.00205
1.00159
1.00116
1.00099
1.00089
1.00573
1.00586
1.00582
1.00564
1.00531
1.00487
1.00434
1.00378
1.00319
1.00261
1.00206
1.0016
1.00117
1.001
1.0009
1.00574
1.00588
1.00584
1.00566
1.00533
1.00489
1.00436
1.00379
1.0032
1.00263
1.00208
1.00161
1.00118
1.001
1.00089
1.00576
1.00589
1.00586
1.00567
1.00535
1.00491
1.00439
1.00382
1.00322
1.00264
1.00209
1.00162
1.00119
1.001
1.00089
1.00577
1.00591
1.00587
1.00569
1.00537
1.00493
1.00441
1.00384
1.00324
1.00266
1.00211
1.00163
1.0012
1.001
1.00088
1.00579
1.00593
1.00589
1.00571
1.00539
1.00495
1.00443
1.00386
1.00327
1.00268
1.00212
1.00164
1.00121
1.00099
1.00087
1.00581
1.00595
1.00591
1.00573
1.00541
1.00498
1.00446
1.00388
1.00329
1.0027
1.00214
1.00165
1.00121
1.00099
1.00086
1.00583
1.00597
1.00594
1.00576
1.00544
1.005
1.00448
1.00391
1.00331
1.00272
1.00215
1.00166
1.00122
1.00098
1.00084
1.00585
1.00599
1.00596
1.00578
1.00546
1.00503
1.0045
1.00393
1.00333
1.00273
1.00216
1.00166
1.00122
1.00097
1.00082
1.00587
1.00602
1.00599
1.00581
1.00549
1.00505
1.00453
1.00395
1.00335
1.00275
1.00217
1.00167
1.00122
1.00096
1.0008
1.0059
1.00604
1.00601
1.00584
1.00552
1.00508
1.00456
1.00397
1.00336
1.00276
1.00218
1.00167
1.00122
1.00095
1.00078
1.00592
1.00607
1.00604
1.00587
1.00555
1.00511
1.00458
1.004
1.00338
1.00278
1.00219
1.00168
1.00122
1.00094
1.00076
1.00595
1.0061
1.00607
1.0059
1.00558
1.00514
1.00461
1.00402
1.00341
1.00279
1.0022
1.00168
1.00122
1.00093
1.00074
1.00598
1.00613
1.0061
1.00593
1.00561
1.00517
1.00464
1.00405
1.00343
1.00281
1.00221
1.00168
1.00122
1.00091
1.00071
1.00601
1.00616
1.00613
1.00596
1.00564
1.0052
1.00467
1.00408
1.00345
1.00283
1.00222
1.00169
1.00122
1.0009
1.00069
1.00604
1.00619
1.00617
1.006
1.00568
1.00523
1.0047
1.0041
1.00347
1.00284
1.00223
1.00169
1.00121
1.00088
1.00066
1.00607
1.00622
1.0062
1.00603
1.00571
1.00527
1.00473
1.00413
1.00349
1.00286
1.00224
1.00169
1.0012
1.00086
1.00063
1.0061
1.00626
1.00624
1.00607
1.00574
1.0053
1.00476
1.00415
1.00351
1.00287
1.00224
1.00169
1.0012
1.00084
1.0006
1.00614
1.00629
1.00627
1.0061
1.00578
1.00533
1.00479
1.00418
1.00353
1.00288
1.00225
1.00169
1.00119
1.00082
1.00057
1.00617
1.00633
1.00631
1.00614
1.00582
1.00537
1.00482
1.0042
1.00355
1.00289
1.00226
1.00168
1.00118
1.0008
1.00054
1.00621
1.00637
1.00635
1.00618
1.00585
1.0054
1.00485
1.00423
1.00357
1.00291
1.00226
1.00168
1.00117
1.00078
1.00051
1.00625
1.00641
1.00639
1.00622
1.00589
1.00544
1.00488
1.00426
1.00359
1.00292
1.00227
1.00168
1.00116
1.00076
1.00048
1.00629
1.00645
1.00643
1.00626
1.00593
1.00548
1.00492
1.00429
1.00361
1.00294
1.00228
1.00168
1.00115
1.00074
1.00045
1.00633
1.00649
1.00648
1.00631
1.00598
1.00552
1.00495
1.00432
1.00364
1.00295
1.00228
1.00167
1.00114
1.00072
1.00041
1.00637
1.00654
1.00652
1.00635
1.00602
1.00556
1.00499
1.00435
1.00366
1.00297
1.00229
1.00167
1.00112
1.00069
1.00038
1.00641
1.00658
1.00657
1.0064
1.00607
1.0056
1.00503
1.00438
1.00368
1.00298
1.00229
1.00166
1.00111
1.00067
1.00034
1.00646
1.00663
1.00662
1.00645
1.00611
1.00564
1.00506
1.00441
1.00371
1.00299
1.0023
1.00166
1.00109
1.00064
1.00031
1.00651
1.00668
1.00667
1.0065
1.00616
1.00568
1.0051
1.00444
1.00373
1.00301
1.0023
1.00165
1.00107
1.00061
1.00027
1.00655
1.00673
1.00672
1.00654
1.00621
1.00573
1.00514
1.00447
1.00375
1.00302
1.0023
1.00164
1.00106
1.00058
1.00023
1.0066
1.00678
1.00677
1.0066
1.00625
1.00577
1.00518
1.0045
1.00377
1.00303
1.0023
1.00163
1.00104
1.00055
1.00019
1.00665
1.00684
1.00682
1.00665
1.0063
1.00582
1.00521
1.00453
1.00379
1.00304
1.0023
1.00162
1.00102
1.00052
1.00015
1.00671
1.00689
1.00688
1.0067
1.00635
1.00586
1.00525
1.00456
1.00381
1.00305
1.0023
1.00161
1.001
1.00049
1.00011
1.00676
1.00695
1.00693
1.00676
1.0064
1.00591
1.00529
1.00459
1.00383
1.00306
1.0023
1.0016
1.00097
1.00046
1.00007
1.00682
1.007
1.00699
1.00681
1.00646
1.00596
1.00533
1.00462
1.00386
1.00307
1.0023
1.00159
1.00095
1.00042
1.00002
1.00687
1.00706
1.00705
1.00687
1.00651
1.006
1.00538
1.00466
1.00388
1.00309
1.0023
1.00158
1.00093
1.00039
0.999978
1.00693
1.00712
1.00711
1.00693
1.00657
1.00606
1.00542
1.00469
1.0039
1.0031
1.0023
1.00156
1.0009
1.00035
0.999932
1.00699
1.00719
1.00718
1.00699
1.00663
1.00611
1.00546
1.00473
1.00393
1.00311
1.0023
1.00155
1.00088
1.00032
0.999886
1.00706
1.00725
1.00724
1.00706
1.00669
1.00616
1.00551
1.00476
1.00395
1.00312
1.0023
1.00154
1.00085
1.00028
0.999838
1.00712
1.00732
1.00731
1.00712
1.00675
1.00622
1.00556
1.0048
1.00398
1.00313
1.0023
1.00152
1.00083
1.00024
0.999789
1.00718
1.00738
1.00737
1.00719
1.00681
1.00627
1.0056
1.00483
1.004
1.00314
1.0023
1.00151
1.0008
1.0002
0.999739
1.00725
1.00745
1.00744
1.00725
1.00687
1.00633
1.00565
1.00487
1.00403
1.00316
1.0023
1.00149
1.00077
1.00016
0.999688
1.00732
1.00752
1.00751
1.00732
1.00694
1.00639
1.0057
1.00491
1.00405
1.00317
1.00229
1.00147
1.00074
1.00012
0.999635
1.00739
1.0076
1.00759
1.00739
1.007
1.00645
1.00575
1.00495
1.00408
1.00318
1.00229
1.00146
1.00071
1.00007
0.999581
1.00746
1.00767
1.00766
1.00747
1.00707
1.00651
1.0058
1.00499
1.0041
1.00319
1.00229
1.00144
1.00067
1.00003
0.999525
1.00753
1.00775
1.00774
1.00754
1.00714
1.00657
1.00585
1.00503
1.00413
1.0032
1.00228
1.00142
1.00064
0.999982
0.999468
1.00761
1.00782
1.00781
1.00762
1.00721
1.00663
1.00591
1.00507
1.00415
1.00321
1.00228
1.0014
1.0006
0.999934
0.99941
1.00769
1.0079
1.00789
1.00769
1.00728
1.00669
1.00596
1.00511
1.00418
1.00322
1.00227
1.00137
1.00057
0.999885
0.99935
1.00777
1.00799
1.00797
1.00777
1.00735
1.00676
1.00601
1.00515
1.0042
1.00323
1.00226
1.00135
1.00053
0.999834
0.999289
1.00785
1.00807
1.00806
1.00785
1.00743
1.00683
1.00607
1.00519
1.00423
1.00324
1.00226
1.00133
1.00049
0.999783
0.999227
1.00793
1.00815
1.00814
1.00793
1.00751
1.00689
1.00612
1.00523
1.00426
1.00325
1.00225
1.0013
1.00045
0.99973
0.999163
1.00801
1.00824
1.00823
1.00802
1.00758
1.00696
1.00618
1.00527
1.00428
1.00326
1.00224
1.00128
1.00041
0.999676
0.999097
1.0081
1.00833
1.00832
1.0081
1.00766
1.00703
1.00624
1.00532
1.00431
1.00327
1.00223
1.00125
1.00037
0.99962
0.99903
1.00819
1.00842
1.00841
1.00819
1.00774
1.0071
1.0063
1.00536
1.00434
1.00328
1.00222
1.00123
1.00033
0.999564
0.998962
1.00828
1.00852
1.0085
1.00828
1.00783
1.00718
1.00636
1.00541
1.00437
1.00329
1.00222
1.0012
1.00028
0.999505
0.998891
1.00837
1.00861
1.0086
1.00838
1.00791
1.00725
1.00642
1.00546
1.0044
1.0033
1.00221
1.00117
1.00024
0.999445
0.998819
1.00846
1.00871
1.00869
1.00847
1.008
1.00733
1.00649
1.0055
1.00443
1.00331
1.0022
1.00114
1.00019
0.999383
0.998745
1.00856
1.00881
1.00879
1.00857
1.00809
1.00741
1.00655
1.00555
1.00446
1.00332
1.00219
1.00112
1.00014
0.99932
0.99867
1.00866
1.00891
1.00889
1.00866
1.00818
1.00749
1.00662
1.0056
1.00449
1.00333
1.00218
1.00108
1.00009
0.999255
0.998592
1.00876
1.00901
1.009
1.00876
1.00828
1.00757
1.00669
1.00565
1.00452
1.00334
1.00216
1.00105
1.00004
0.999188
0.998512
1.00886
1.00912
1.0091
1.00887
1.00837
1.00766
1.00675
1.0057
1.00455
1.00335
1.00215
1.00102
0.999991
0.999119
0.998431
1.00897
1.00923
1.00921
1.00897
1.00847
1.00774
1.00682
1.00575
1.00458
1.00336
1.00214
1.00098
0.999937
0.999049
0.998347
1.00907
1.00934
1.00932
1.00908
1.00857
1.00783
1.0069
1.00581
1.00461
1.00336
1.00212
1.00095
0.999882
0.998976
0.998262
1.00918
1.00945
1.00943
1.00919
1.00867
1.00792
1.00697
1.00586
1.00464
1.00337
1.00211
1.00091
0.999825
0.998902
0.998174
1.00929
1.00957
1.00955
1.0093
1.00877
1.00801
1.00704
1.00591
1.00467
1.00338
1.00209
1.00087
0.999766
0.998826
0.998084
1.00941
1.00969
1.00966
1.00941
1.00887
1.0081
1.00712
1.00597
1.00471
1.00339
1.00208
1.00083
0.999706
0.998749
0.997993
1.00952
1.00981
1.00978
1.00953
1.00898
1.00819
1.00719
1.00602
1.00474
1.0034
1.00206
1.00079
0.999644
0.998669
0.997899
1.00964
1.00993
1.00991
1.00964
1.00909
1.00829
1.00727
1.00608
1.00477
1.00341
1.00204
1.00075
0.999581
0.998588
0.997803
1.00976
1.01005
1.01003
1.00977
1.0092
1.00839
1.00735
1.00614
1.0048
1.00341
1.00203
1.00071
0.999516
0.998504
0.997704
1.00989
1.01018
1.01016
1.00989
1.00931
1.00849
1.00743
1.0062
1.00484
1.00342
1.00201
1.00067
0.99945
0.998418
0.997603
1.01001
1.01031
1.01029
1.01001
1.00943
1.00859
1.00751
1.00626
1.00487
1.00343
1.00199
1.00062
0.999381
0.99833
0.9975
1.01014
1.01045
1.01042
1.01014
1.00955
1.00869
1.0076
1.00632
1.00491
1.00344
1.00197
1.00057
0.999311
0.99824
0.997394
1.01027
1.01058
1.01055
1.01027
1.00967
1.0088
1.00768
1.00638
1.00494
1.00344
1.00195
1.00053
0.999238
0.998148
0.997285
1.01041
1.01072
1.01069
1.01041
1.00979
1.0089
1.00777
1.00644
1.00498
1.00345
1.00192
1.00048
0.999164
0.998053
0.997174
1.01054
1.01086
1.01083
1.01054
1.00992
1.00901
1.00786
1.00651
1.00502
1.00346
1.0019
1.00043
0.999088
0.997956
0.99706
1.01068
1.01101
1.01097
1.01068
1.01004
1.00913
1.00795
1.00657
1.00505
1.00346
1.00188
1.00037
0.99901
0.997856
0.996944
1.01082
1.01115
1.01112
1.01082
1.01017
1.00924
1.00804
1.00664
1.00509
1.00347
1.00185
1.00032
0.998929
0.997754
0.996825
1.01097
1.0113
1.01127
1.01097
1.01031
1.00936
1.00814
1.00671
1.00513
1.00348
1.00183
1.00026
0.998847
0.99765
0.996703
1.01112
1.01146
1.01142
1.01111
1.01044
1.00947
1.00823
1.00677
1.00516
1.00348
1.0018
1.00021
0.998763
0.997542
0.996578
1.01127
1.01161
1.01158
1.01126
1.01058
1.0096
1.00833
1.00684
1.0052
1.00349
1.00177
1.00015
0.998676
0.997433
0.996451
1.01142
1.01177
1.01174
1.01142
1.01072
1.00972
1.00843
1.00691
1.00524
1.00349
1.00174
1.00009
0.998587
0.99732
0.99632
1.01158
1.01194
1.0119
1.01157
1.01087
1.00984
1.00853
1.00699
1.00528
1.00349
1.00171
1.00003
0.998496
0.997205
0.996186
1.01174
1.0121
1.01206
1.01173
1.01101
1.00997
1.00863
1.00706
1.00532
1.0035
1.00168
0.999961
0.998403
0.997087
0.996049
1.0119
1.01227
1.01223
1.0119
1.01116
1.0101
1.00874
1.00713
1.00536
1.0035
1.00165
0.999896
0.998307
0.996967
0.995909
1.01207
1.01245
1.0124
1.01206
1.01132
1.01024
1.00885
1.00721
1.0054
1.00351
1.00162
0.999828
0.998208
0.996843
0.995765
1.01224
1.01262
1.01258
1.01223
1.01147
1.01037
1.00896
1.00729
1.00544
1.00351
1.00158
0.999759
0.998108
0.996716
0.995618
1.01241
1.0128
1.01276
1.01241
1.01163
1.01051
1.00907
1.00737
1.00548
1.00351
1.00155
0.999687
0.998004
0.996586
0.995467
1.01259
1.01299
1.01294
1.01258
1.01179
1.01065
1.00918
1.00745
1.00552
1.00352
1.00151
0.999614
0.997898
0.996453
0.995314
1.01277
1.01317
1.01312
1.01276
1.01196
1.0108
1.0093
1.00753
1.00557
1.00352
1.00147
0.999538
0.997788
0.996317
0.995156
1.01295
1.01336
1.01331
1.01295
1.01213
1.01094
1.00941
1.00761
1.00561
1.00352
1.00143
0.99946
0.997677
0.996177
0.994995
1.01314
1.01356
1.01351
1.01313
1.0123
1.01109
1.00953
1.00769
1.00565
1.00352
1.00139
0.999379
0.997561
0.996034
0.994829
1.01333
1.01376
1.0137
1.01332
1.01248
1.01125
1.00965
1.00778
1.00569
1.00352
1.00135
0.999297
0.997444
0.995887
0.994661
1.01353
1.01396
1.0139
1.01352
1.01265
1.0114
1.00978
1.00786
1.00574
1.00352
1.0013
0.999211
0.997323
0.995737
0.994488
1.01372
1.01417
1.01411
1.01372
1.01284
1.01156
1.0099
1.00795
1.00578
1.00352
1.00126
0.999124
0.997199
0.995583
0.994311
1.01393
1.01438
1.01432
1.01392
1.01302
1.01172
1.01003
1.00804
1.00583
1.00351
1.00121
0.999034
0.997071
0.995425
0.99413
1.01413
1.01459
1.01453
1.01413
1.01321
1.01189
1.01016
1.00813
1.00587
1.00351
1.00116
0.998941
0.996941
0.995264
0.993945
1.01434
1.01481
1.01475
1.01434
1.01341
1.01205
1.0103
1.00822
1.00592
1.00351
1.00111
0.998846
0.996807
0.995099
0.993755
1.01456
1.01503
1.01497
1.01455
1.01361
1.01223
1.01043
1.00831
1.00596
1.0035
1.00106
0.998748
0.99667
0.99493
0.993562
1.01478
1.01526
1.0152
1.01477
1.01381
1.0124
1.01057
1.00841
1.00601
1.0035
1.001
0.998647
0.996529
0.994757
0.993363
1.015
1.01549
1.01543
1.015
1.01401
1.01258
1.01071
1.0085
1.00605
1.00349
1.00094
0.998544
0.996385
0.994579
0.993161
1.01523
1.01573
1.01567
1.01523
1.01422
1.01276
1.01086
1.0086
1.0061
1.00348
1.00088
0.998437
0.996237
0.994397
0.992953
1.01546
1.01597
1.01591
1.01546
1.01444
1.01295
1.011
1.0087
1.00614
1.00348
1.00082
0.998328
0.996085
0.994212
0.992741
1.0157
1.01622
1.01615
1.0157
1.01466
1.01314
1.01115
1.0088
1.00619
1.00347
1.00076
0.998215
0.995929
0.994021
0.992523
1.01594
1.01647
1.0164
1.01594
1.01488
1.01333
1.0113
1.0089
1.00624
1.00346
1.00069
0.998099
0.995769
0.993826
0.992301
1.01618
1.01673
1.01666
1.01619
1.01511
1.01352
1.01146
1.009
1.00628
1.00344
1.00063
0.997979
0.995605
0.993625
0.992074
1.01643
1.01699
1.01692
1.01644
1.01534
1.01372
1.01161
1.00911
1.00633
1.00343
1.00056
0.997857
0.995437
0.993421
0.991841
1.01669
1.01726
1.01719
1.0167
1.01558
1.01393
1.01177
1.00922
1.00638
1.00342
1.00048
0.99773
0.995264
0.993211
0.991603
1.01695
1.01753
1.01746
1.01696
1.01582
1.01414
1.01194
1.00932
1.00642
1.0034
1.00041
0.997599
0.995087
0.992996
0.99136
1.01722
1.01781
1.01774
1.01723
1.01607
1.01435
1.0121
1.00943
1.00647
1.00338
1.00033
0.997465
0.994904
0.992776
0.991111
1.01749
1.01809
1.01802
1.01751
1.01632
1.01457
1.01227
1.00954
1.00652
1.00337
1.00025
0.997327
0.994718
0.992551
0.990857
1.01777
1.01838
1.01831
1.01779
1.01657
1.01479
1.01244
1.00965
1.00656
1.00335
1.00016
0.997185
0.994526
0.99232
0.990597
1.01805
1.01868
1.0186
1.01807
1.01684
1.01501
1.01261
1.00977
1.00661
1.00332
1.00008
0.997039
0.99433
0.992084
0.990331
1.01834
1.01898
1.0189
1.01837
1.0171
1.01524
1.01279
1.00988
1.00666
1.0033
0.999985
0.996888
0.994128
0.991842
0.990058
1.01863
1.01929
1.01921
1.01866
1.01738
1.01547
1.01297
1.01
1.0067
1.00327
0.999891
0.996733
0.993922
0.991594
0.98978
1.01893
1.0196
1.01952
1.01897
1.01766
1.01571
1.01316
1.01012
1.00675
1.00325
0.999793
0.996573
0.993709
0.99134
0.989496
1.01924
1.01992
1.01984
1.01928
1.01794
1.01596
1.01334
1.01024
1.00679
1.00322
0.999693
0.996409
0.993492
0.991081
0.989205
1.01955
1.02025
1.02017
1.0196
1.01823
1.0162
1.01353
1.01036
1.00684
1.00318
0.999588
0.99624
0.993268
0.990814
0.988907
1.01987
1.02058
1.0205
1.01992
1.01853
1.01646
1.01373
1.01048
1.00688
1.00315
0.99948
0.996066
0.993039
0.990542
0.988603
1.02019
1.02092
1.02084
1.02025
1.01883
1.01671
1.01392
1.0106
1.00693
1.00311
0.999367
0.995886
0.992803
0.990263
0.988292
1.02052
1.02127
1.02119
1.02059
1.01914
1.01698
1.01412
1.01073
1.00697
1.00307
0.99925
0.995701
0.992562
0.989977
0.987974
1.02086
1.02162
1.02155
1.02093
1.01945
1.01724
1.01433
1.01085
1.00701
1.00303
0.999129
0.99551
0.992314
0.989684
0.987649
1.02121
1.02199
1.02191
1.02128
1.01977
1.01752
1.01453
1.01098
1.00705
1.00299
0.999003
0.995314
0.992059
0.989385
0.987317
1.02156
1.02235
1.02228
1.02164
1.0201
1.0178
1.01474
1.01111
1.00709
1.00294
0.998872
0.995111
0.991798
0.989078
0.986977
1.02192
1.02273
1.02266
1.02201
1.02044
1.01808
1.01496
1.01124
1.00713
1.00289
0.998737
0.994903
0.99153
0.988764
0.98663
1.02229
1.02312
1.02304
1.02238
1.02078
1.01837
1.01518
1.01137
1.00717
1.00283
0.998596
0.994688
0.991254
0.988442
0.986274
1.02266
1.02351
1.02344
1.02277
1.02113
1.01866
1.0154
1.0115
1.00721
1.00277
0.998451
0.994467
0.990972
0.988113
0.985912
1.02304
1.02391
1.02384
1.02316
1.02149
1.01897
1.01562
1.01164
1.00724
1.00271
0.998299
0.994239
0.990681
0.987776
0.985541
1.02343
1.02432
1.02425
1.02356
1.02185
1.01927
1.01585
1.01177
1.00727
1.00264
0.998142
0.994004
0.990384
0.987431
0.985162
1.02383
1.02474
1.02467
1.02397
1.02222
1.01958
1.01608
1.0119
1.00731
1.00257
0.997979
0.993762
0.990078
0.987077
0.984774
1.02424
1.02517
1.0251
1.02438
1.0226
1.0199
1.01631
1.01204
1.00733
1.0025
0.99781
0.993513
0.989764
0.986715
0.984379
1.02465
1.0256
1.02554
1.02481
1.02299
1.02023
1.01655
1.01218
1.00736
1.00242
0.997634
0.993255
0.989442
0.986344
0.983974
1.02507
1.02605
1.02599
1.02524
1.02339
1.02056
1.01679
1.01231
1.00739
1.00234
0.997452
0.99299
0.989111
0.985965
0.983561
1.02551
1.0265
1.02645
1.02569
1.02379
1.0209
1.01704
1.01245
1.00741
1.00225
0.997262
0.992716
0.988771
0.985576
0.983138
1.02595
1.02697
1.02692
1.02614
1.0242
1.02124
1.01729
1.01259
1.00743
1.00215
0.997065
0.992435
0.988422
0.985178
0.982707
1.0264
1.02744
1.02739
1.02661
1.02462
1.02159
1.01754
1.01272
1.00744
1.00205
0.99686
0.992143
0.988064
0.98477
0.982266
1.02686
1.02793
1.02788
1.02708
1.02506
1.02195
1.0178
1.01286
1.00746
1.00194
0.996648
0.991844
0.987696
0.984353
0.981815
1.02733
1.02842
1.02838
1.02757
1.0255
1.02231
1.01806
1.013
1.00746
1.00183
0.996427
0.991534
0.987318
0.983926
0.981355
1.02781
1.02893
1.0289
1.02806
1.02594
1.02268
1.01832
1.01313
1.00747
1.00171
0.996198
0.991215
0.986931
0.983489
0.980885
1.0283
1.02945
1.02942
1.02857
1.0264
1.02306
1.01859
1.01327
1.00747
1.00158
0.99596
0.990886
0.986532
0.983041
0.980405
1.0288
1.02998
1.02995
1.02909
1.02687
1.02344
1.01886
1.01341
1.00747
1.00145
0.995712
0.990547
0.986123
0.982583
0.979915
1.02931
1.03052
1.0305
1.02962
1.02735
1.02383
1.01913
1.01354
1.00746
1.00131
0.995455
0.990197
0.985703
0.982114
0.979414
1.02983
1.03107
1.03106
1.03016
1.02784
1.02423
1.0194
1.01367
1.00745
1.00116
0.995188
0.989836
0.985272
0.981634
0.978902
1.03037
1.03164
1.03163
1.03072
1.02834
1.02464
1.01968
1.0138
1.00743
1.001
0.99491
0.989463
0.984829
0.981142
0.97838
1.03091
1.03222
1.03222
1.03128
1.02885
1.02505
1.01996
1.01393
1.0074
1.00083
0.994622
0.989079
0.984374
0.980639
0.977847
1.03147
1.03281
1.03281
1.03186
1.02937
1.02547
1.02025
1.01406
1.00737
1.00065
0.994322
0.988683
0.983907
0.980124
0.977302
1.03204
1.03341
1.03343
1.03246
1.0299
1.0259
1.02053
1.01419
1.00733
1.00047
0.99401
0.988274
0.983427
0.979597
0.976746
1.03262
1.03403
1.03405
1.03306
1.03045
1.02633
1.02082
1.01431
1.00729
1.00027
0.993686
0.987851
0.982934
0.979057
0.976178
1.03322
1.03466
1.03469
1.03369
1.031
1.02678
1.02112
1.01443
1.00723
1.00006
0.993349
0.987416
0.982428
0.978505
0.975599
1.03383
1.03531
1.03535
1.03432
1.03157
1.02723
1.02141
1.01454
1.00717
0.999843
0.992998
0.986966
0.981908
0.977939
0.975007
1.03445
1.03597
1.03602
1.03497
1.03215
1.02768
1.0217
1.01466
1.0071
0.999611
0.992635
0.986502
0.981375
0.977361
0.974404
1.03509
1.03665
1.03671
1.03564
1.03274
1.02815
1.022
1.01476
1.00702
0.999366
0.992256
0.986024
0.980827
0.976768
0.973787
1.03574
1.03734
1.03742
1.03632
1.03334
1.02862
1.0223
1.01486
1.00693
0.999108
0.991863
0.98553
0.980264
0.976163
0.973159
1.03641
1.03805
1.03814
1.03702
1.03396
1.0291
1.0226
1.01496
1.00683
0.998835
0.991453
0.98502
0.979686
0.975543
0.972517
1.03709
1.03878
1.03888
1.03773
1.03459
1.02959
1.0229
1.01505
1.00672
0.998548
0.991028
0.984494
0.979093
0.974909
0.971862
1.03778
1.03952
1.03963
1.03846
1.03524
1.03009
1.02319
1.01513
1.0066
0.998246
0.990586
0.983951
0.978483
0.974259
0.971194
1.0385
1.04029
1.04041
1.03921
1.0359
1.03059
1.02349
1.01521
1.00646
0.997927
0.990127
0.983391
0.977857
0.973596
0.970513
1.03923
1.04107
1.0412
1.03998
1.03657
1.0311
1.02379
1.01527
1.00631
0.997591
0.989649
0.982813
0.977215
0.972916
0.969817
1.03997
1.04187
1.04202
1.04076
1.03725
1.03162
1.02409
1.01533
1.00614
0.997238
0.989153
0.982217
0.976555
0.972222
0.969108
1.04074
1.04268
1.04285
1.04157
1.03796
1.03214
1.02438
1.01538
1.00596
0.996865
0.988636
0.981602
0.975878
0.971511
0.968385
1.04152
1.04352
1.04371
1.04239
1.03867
1.03267
1.02467
1.01542
1.00576
0.996474
0.9881
0.980967
0.975183
0.970785
0.967648
1.04232
1.04438
1.04458
1.04324
1.0394
1.03321
1.02496
1.01544
1.00554
0.996061
0.987542
0.980312
0.97447
0.970042
0.966895
1.04314
1.04526
1.04548
1.0441
1.04015
1.03375
1.02524
1.01545
1.00531
0.995627
0.986963
0.979637
0.973738
0.969282
0.966129
1.04398
1.04617
1.04641
1.04499
1.04091
1.0343
1.02552
1.01545
1.00505
0.995171
0.986361
0.97894
0.972986
0.968505
0.965347
1.04484
1.04709
1.04735
1.0459
1.04169
1.03486
1.0258
1.01543
1.00478
0.994691
0.985736
0.978221
0.972216
0.967712
0.96455
1.04573
1.04804
1.04833
1.04683
1.04248
1.03541
1.02606
1.0154
1.00448
0.994186
0.985086
0.97748
0.971424
0.9669
0.963738
1.04663
1.04902
1.04932
1.04778
1.04329
1.03598
1.02632
1.01534
1.00416
0.993656
0.984411
0.976715
0.970613
0.966071
0.96291
1.04756
1.05001
1.05035
1.04876
1.04411
1.03654
1.02657
1.01527
1.00381
0.993098
0.98371
0.975927
0.96978
0.965223
0.962066
1.04851
1.05104
1.0514
1.04976
1.04495
1.03711
1.02681
1.01518
1.00344
0.992513
0.982982
0.975115
0.968927
0.964358
0.961207
1.04948
1.05209
1.05248
1.05079
1.04581
1.03769
1.02703
1.01507
1.00304
0.991898
0.982226
0.974277
0.968051
0.963473
0.960331
1.05048
1.05317
1.05358
1.05184
1.04668
1.03826
1.02724
1.01493
1.0026
0.991252
0.981442
0.973414
0.967154
0.962569
0.959439
1.0515
1.05428
1.05472
1.05292
1.04757
1.03883
1.02744
1.01476
1.00214
0.990575
0.980627
0.972525
0.966233
0.961646
0.95853
1.05255
1.05542
1.05589
1.05403
1.04847
1.0394
1.02762
1.01457
1.00165
0.989864
0.979782
0.971609
0.96529
0.960703
0.957605
1.05363
1.05659
1.0571
1.05517
1.04939
1.03997
1.02778
1.01434
1.00112
0.989119
0.978905
0.970665
0.964323
0.95974
0.956663
1.05474
1.05779
1.05833
1.05633
1.05032
1.04054
1.02792
1.01409
1.00055
0.988338
0.977996
0.969693
0.963333
0.958758
0.955703
1.05587
1.05902
1.0596
1.05753
1.05127
1.0411
1.02804
1.0138
0.999942
0.98752
0.977054
0.968692
0.962317
0.957754
0.954727
1.05704
1.06029
1.06091
1.05875
1.05223
1.04165
1.02813
1.01347
0.999296
0.986662
0.976077
0.967662
0.961278
0.956731
0.953733
1.05824
1.0616
1.06226
1.06001
1.05321
1.0422
1.02819
1.0131
0.998607
0.985765
0.975064
0.966601
0.960213
0.955686
0.952721
1.05947
1.06294
1.06364
1.0613
1.0542
1.04273
1.02822
1.01269
0.997874
0.984825
0.974015
0.965511
0.959123
0.95462
0.951692
1.06073
1.06432
1.06507
1.06262
1.0552
1.04325
1.02822
1.01224
0.997093
0.983843
0.972928
0.964388
0.958007
0.953533
0.950644
1.06203
1.06575
1.06653
1.06397
1.05622
1.04375
1.02817
1.01174
0.996264
0.982815
0.971803
0.963234
0.956865
0.952424
0.94958
1.06336
1.06721
1.06805
1.06536
1.05724
1.04424
1.02809
1.01118
0.995382
0.981741
0.970639
0.962047
0.955696
0.951294
0.948496
1.06473
1.06872
1.0696
1.06678
1.05827
1.0447
1.02796
1.01057
0.994448
0.98062
0.969434
0.960828
0.954501
0.950141
0.947395
1.06615
1.07027
1.07121
1.06823
1.0593
1.04513
1.02779
1.00991
0.993457
0.979449
0.968188
0.959575
0.953278
0.948967
0.946276
1.0676
1.07187
1.07286
1.06972
1.06034
1.04554
1.02756
1.00918
0.992407
0.978227
0.966901
0.958288
0.952028
0.947771
0.945139
1.06909
1.07352
1.07457
1.07125
1.06138
1.04591
1.02727
1.00839
0.991297
0.976952
0.96557
0.956966
0.95075
0.946552
0.943983
1.07063
1.07522
1.07633
1.0728
1.06242
1.04624
1.02692
1.00753
0.990123
0.975624
0.964195
0.95561
0.949446
0.945311
0.942809
1.07221
1.07698
1.07814
1.0744
1.06345
1.04652
1.0265
1.00659
0.988882
0.97424
0.962776
0.954218
0.948112
0.944047
0.941616
1.07384
1.07879
1.08001
1.07603
1.06448
1.04676
1.02601
1.00558
0.987574
0.9728
0.961312
0.952791
0.946751
0.942762
0.940405
1.07553
1.08066
1.08194
1.07769
1.06549
1.04694
1.02544
1.00449
0.986194
0.971301
0.959801
0.951328
0.945362
0.941453
0.939176
1.07726
1.0826
1.08394
1.07938
1.06648
1.04706
1.02479
1.00332
0.984741
0.969743
0.958244
0.949829
0.943945
0.940123
0.937929
1.07904
1.0846
1.086
1.08111
1.06746
1.04711
1.02404
1.00205
0.983213
0.968124
0.95664
0.948293
0.942499
0.93877
0.936664
1.08088
1.08667
1.08812
1.08286
1.0684
1.04707
1.0232
1.0007
0.981606
0.966444
0.954989
0.946722
0.941026
0.937395
0.93538
1.08278
1.08882
1.09032
1.08465
1.0693
1.04696
1.02225
0.999244
0.979919
0.9647
0.953289
0.945113
0.939524
0.935998
0.934078
1.08474
1.09104
1.09258
1.08645
1.07016
1.04675
1.02119
0.997689
0.978149
0.962893
0.951542
0.943469
0.937995
0.934579
0.932759
1.08677
1.09334
1.09492
1.08828
1.07097
1.04643
1.02002
0.996028
0.976295
0.961021
0.949745
0.941788
0.936438
0.933138
0.931422
1.08886
1.09572
1.09733
1.09012
1.07172
1.046
1.01872
0.994258
0.974355
0.959085
0.947901
0.940072
0.934854
0.931676
0.930067
1.09102
1.0982
1.09983
1.09197
1.07239
1.04544
1.01728
0.992374
0.972326
0.957082
0.946008
0.938319
0.933242
0.930193
0.928694
1.09326
1.10077
1.1024
1.09383
1.07298
1.04475
1.01571
0.990373
0.970208
0.955014
0.944068
0.936531
0.931604
0.928688
0.927305
1.09557
1.10344
1.10505
1.09569
1.07347
1.04391
1.01398
0.988251
0.968
0.952879
0.942079
0.934708
0.929939
0.927163
0.925898
1.09797
1.10622
1.10778
1.09753
1.07385
1.0429
1.01211
0.986006
0.9657
0.950678
0.940043
0.932851
0.928248
0.925618
0.924475
1.10045
1.10911
1.11059
1.09935
1.0741
1.04172
1.01006
0.983633
0.963307
0.948411
0.93796
0.93096
0.926532
0.924052
0.923036
1.10302
1.11212
1.11348
1.10114
1.07421
1.04035
1.00785
0.981131
0.960822
0.946079
0.935831
0.929036
0.924791
0.922467
0.92158
1.10568
1.11526
1.11645
1.10287
1.07415
1.03878
1.00546
0.978497
0.958244
0.943682
0.933657
0.927079
0.923026
0.920863
0.920109
1.10845
1.11853
1.11949
1.10455
1.07391
1.03699
1.00288
0.97573
0.955574
0.941222
0.931439
0.925092
0.921238
0.91924
0.918622
1.11133
1.12194
1.12261
1.10614
1.07346
1.03496
1.00012
0.972828
0.952812
0.938699
0.929178
0.923074
0.919427
0.917599
0.91712
1.11432
1.1255
1.12579
1.10763
1.07278
1.03269
0.99716
0.969793
0.949959
0.936115
0.926875
0.921027
0.917594
0.915941
0.915603
1.11744
1.12922
1.12903
1.10899
1.07185
1.03016
0.994
0.966622
0.947017
0.933471
0.924533
0.918951
0.91574
0.914265
0.914072
1.12069
1.13311
1.13231
1.1102
1.07064
1.02735
0.990638
0.963319
0.943989
0.93077
0.922153
0.916849
0.913866
0.912574
0.912527
1.12407
1.13716
1.13563
1.11123
1.06912
1.02425
0.98707
0.959884
0.940875
0.928014
0.919736
0.914722
0.911973
0.910867
0.910968
1.12761
1.1414
1.13897
1.11204
1.06727
1.02085
0.983295
0.956321
0.93768
0.925205
0.917286
0.912572
0.910062
0.909145
0.909396
1.13132
1.14583
1.14231
1.1126
1.06505
1.01713
0.979315
0.952632
0.934406
0.922347
0.914803
0.910399
0.908133
0.907408
0.907812
1.1352
1.15045
1.14562
1.11286
1.06244
1.01309
0.975131
0.948823
0.931058
0.919442
0.912291
0.908206
0.90619
0.905658
0.906215
1.13927
1.15527
1.14888
1.11279
1.0594
1.00872
0.970747
0.944898
0.927639
0.916493
0.909752
0.905994
0.904231
0.903896
0.904606
1.14355
1.16029
1.15205
1.11234
1.05591
1.00401
0.966168
0.940863
0.924154
0.913505
0.907189
0.903766
0.902259
0.902121
0.902986
1.14806
1.16552
1.15509
1.11145
1.05193
0.998959
0.961402
0.936726
0.920608
0.910481
0.904604
0.901522
0.900275
0.900336
0.901355
1.15281
1.17094
1.15796
1.11008
1.04744
0.993571
0.956459
0.932493
0.917007
0.907426
0.902002
0.899266
0.898281
0.89854
0.899714
1.15783
1.17656
1.1606
1.10815
1.04241
0.987847
0.951351
0.928175
0.913356
0.904344
0.899384
0.897
0.896277
0.896735
0.898062
1.16315
1.18236
1.16295
1.10562
1.03682
0.981798
0.94609
0.923779
0.909662
0.901239
0.896754
0.894724
0.894265
0.894921
0.896401
1.1688
1.18833
1.16494
1.10242
1.03066
0.975434
0.940693
0.919315
0.905931
0.898117
0.894115
0.892443
0.892246
0.893099
0.894731
1.1748
1.19444
1.16649
1.09848
1.0239
0.968776
0.935176
0.914793
0.902169
0.894982
0.891471
0.890157
0.890221
0.891271
0.893052
1.18118
1.20065
1.16751
1.09374
1.01655
0.961844
0.929559
0.910224
0.898384
0.89184
0.888826
0.887868
0.888193
0.889436
0.891365
1.18799
1.20693
1.1679
1.08814
1.00861
0.954669
0.923862
0.905618
0.894584
0.888696
0.886182
0.88558
0.886162
0.887596
0.88967
1.19527
1.21321
1.16756
1.08161
1.00008
0.947283
0.918104
0.900986
0.890775
0.885555
0.883543
0.883294
0.88413
0.885751
0.887968
1.20305
1.21942
1.16637
1.07411
0.99099
0.939724
0.912307
0.896338
0.886966
0.882424
0.880913
0.881013
0.882098
0.883903
0.886258
1.21138
1.22548
1.1642
1.06558
0.981376
0.932036
0.906492
0.891686
0.883165
0.879308
0.878295
0.878738
0.880067
0.882051
0.884542
1.2203
1.23127
1.16091
1.05599
0.971283
0.924264
0.90068
0.887039
0.879379
0.876213
0.875692
0.876471
0.878039
0.880197
0.882819
1.22986
1.23668
1.15637
1.04531
0.960771
0.916457
0.894889
0.882408
0.875618
0.873144
0.873109
0.874215
0.876014
0.878341
0.881089
1.24009
1.24153
1.15043
1.03354
0.949916
0.908665
0.889138
0.877803
0.871891
0.870107
0.870548
0.871971
0.873994
0.876483
0.879354
1.25103
1.24565
1.14293
1.0207
0.938808
0.900937
0.883443
0.873236
0.868206
0.867108
0.868012
0.869741
0.871979
0.874624
0.877613
1.2627
1.24882
1.13373
1.00682
0.92755
0.893321
0.877817
0.868717
0.864573
0.864153
0.865504
0.867527
0.869971
0.872765
0.875866
1.27512
1.25078
1.12269
0.991986
0.916256
0.885859
0.872274
0.864258
0.861
0.861246
0.863027
0.865331
0.867971