/*--------------------------------*- C++ -*----------------------------------*\
  =========                 |
  \\      /  F ield         | OpenFOAM: The Open Source CFD Toolbox
   \\    /   O peration     | Website:  https://openfoam.org
    \\  /    A nd           | Version:  6.0
     \\/     M anipulation  |
\*---------------------------------------------------------------------------*/
FoamFile
{
    version     2.0;
    format      ascii;
    class       volVectorField;
    location    "5";
    object      U;
}
// * * * * * * * * * * * * * * * * * * * * * * * * * * * * * * * * * * * * * //

dimensions      [0 1 -1 0 0 0 0];

internalField   nonuniform List<vector> 
8000
(
(-0.000439079 0.000486713 -1.49883e-21)
(-0.00229191 0.00116504 8.73424e-21)
(-0.00559411 0.001603 -1.08929e-20)
(-0.00950792 0.00185931 8.46765e-21)
(-0.0136022 0.00197583 4.20099e-21)
(-0.0176328 0.00198464 -1.28183e-20)
(-0.0214253 0.00191163 -1.14411e-21)
(-0.0248642 0.00177772 -3.99743e-22)
(-0.0278815 0.00160001 -6.86599e-21)
(-0.0304436 0.00139268 -3.73674e-21)
(-0.0325419 0.00116772 2.84367e-21)
(-0.0341867 0.000935333 1.07628e-20)
(-0.0354021 0.000704328 -8.56438e-22)
(-0.036223 0.000482311 1.13111e-21)
(-0.0366912 0.000275825 -1.09716e-20)
(-0.0368553 9.04122e-05 6.77931e-21)
(-0.036767 -6.93664e-05 -9.68374e-21)
(-0.036469 -0.000199676 1.47262e-20)
(-0.0359896 -0.000297043 -1.68904e-23)
(-0.0354633 -0.000360493 3.66913e-21)
(-0.000511896 0.00144978 4.97384e-21)
(-0.00245198 0.00346687 -2.77704e-20)
(-0.00578327 0.00476589 -1.96923e-20)
(-0.00968285 0.00552238 -1.36554e-20)
(-0.013729 0.00586151 -1.7883e-20)
(-0.0176842 0.00587921 3.98621e-21)
(-0.0213795 0.00565275 -2.12108e-20)
(-0.0247037 0.00524459 -4.78134e-21)
(-0.027592 0.00470574 1.60367e-21)
(-0.0300131 0.00407855 1.63415e-20)
(-0.0319602 0.00339877 -1.79092e-20)
(-0.0334452 0.00269693 2.50725e-20)
(-0.0344933 0.00199938 -1.88556e-20)
(-0.0351404 0.00132892 -2.23997e-20)
(-0.0354293 0.000705238 -3.08296e-20)
(-0.0354096 0.000145015 1.99811e-20)
(-0.0351342 -0.000337974 -6.32065e-21)
(-0.0346463 -0.000732101 -2.32581e-20)
(-0.0339743 -0.00102676 2.21217e-20)
(-0.033257 -0.0012192 -1.90444e-20)
(-0.000655673 0.00239114 4.86548e-20)
(-0.00276693 0.00571179 2.77144e-20)
(-0.00615354 0.00784548 3.18613e-20)
(-0.0100222 0.00908266 2.72221e-21)
(-0.01397 0.00963042 1.82953e-20)
(-0.017773 0.00964734 2.30485e-20)
(-0.0212729 0.00926099 -4.27456e-20)
(-0.0243671 0.00857434 -2.27651e-20)
(-0.026997 0.00767146 -2.99347e-20)
(-0.0291362 0.00662219 3.22303e-20)
(-0.0307816 0.00548549 -2.48025e-20)
(-0.0319477 0.00431187 -3.20547e-20)
(-0.0326623 0.00314505 -1.17766e-20)
(-0.032963 0.00202304 1.12248e-20)
(-0.0328948 0.000978772 -2.95267e-21)
(-0.0325089 4.03482e-05 4.6233e-21)
(-0.0318607 -0.000768926 5.1991e-20)
(-0.0309948 -0.00142917 -7.59419e-21)
(-0.0299395 -0.00192203 -5.29693e-20)
(-0.0288428 -0.00224334 8.09257e-20)
(-0.000866739 0.00329664 1.71373e-20)
(-0.00322653 0.00786259 -2.6139e-20)
(-0.00668897 0.0107875 -6.80852e-21)
(-0.0105052 0.0124734 1.30009e-20)
(-0.0143004 0.013207 3.73374e-20)
(-0.0178712 0.0132078 8.2869e-20)
(-0.0210754 0.0126515 8.20101e-20)
(-0.023823 0.0116801 6.88255e-21)
(-0.0260649 0.0104092 5.12729e-20)
(-0.0277818 0.00893485 7.91055e-20)
(-0.0289758 0.00733842 -6.33284e-20)
(-0.0296657 0.00568976 9.4861e-20)
(-0.0298826 0.00404962 -2.12637e-20)
(-0.0296668 0.00247118 5.62835e-21)
(-0.0290662 0.00100088 2.24015e-20)
(-0.028135 -0.000321349 2.97034e-20)
(-0.0269316 -0.0014621 -4.75288e-20)
(-0.0255027 -0.00239242 -3.95186e-20)
(-0.0238773 -0.00308519 -6.96785e-20)
(-0.022217 -0.00353539 1.1783e-19)
(-0.0011396 0.00415245 -8.8622e-21)
(-0.00381535 0.00988303 -1.00198e-19)
(-0.00736539 0.0135391 -3.04174e-20)
(-0.0111001 0.0156301 -7.54885e-20)
(-0.0146826 0.0165192 2.91726e-20)
(-0.0179365 0.0164836 -4.63922e-20)
(-0.0207413 0.015745 1.63393e-20)
(-0.0230237 0.0144816 -1.00535e-19)
(-0.0247471 0.0128387 5.37236e-20)
(-0.0259014 0.0109369 -6.43788e-20)
(-0.026496 0.0088783 -5.75211e-20)
(-0.0265548 0.00675134 -6.47169e-20)
(-0.0261128 0.00463326 5.89228e-20)
(-0.0252142 0.00259232 -5.30811e-20)
(-0.0239102 0.000688778 7.42473e-20)
(-0.0222587 -0.00102501 2.13152e-20)
(-0.0203223 -0.00250465 5.28104e-20)
(-0.0181505 -0.00371091 2.295e-20)
(-0.0157732 -0.00460635 -9.21506e-20)
(-0.0133723 -0.00518593 1.73631e-19)
(-0.00146687 0.00494521 3.98485e-20)
(-0.00451258 0.011738 3.02237e-21)
(-0.00815005 0.0160498 1.83854e-20)
(-0.011764 0.0184917 6.51973e-20)
(-0.0150651 0.0194992 -9.8431e-21)
(-0.0179107 0.0194038 1.09332e-19)
(-0.0202076 0.0184696 4.92544e-20)
(-0.021903 0.016908 4.28748e-21)
(-0.0229761 0.0148909 1.28548e-19)
(-0.0234283 0.0125612 4.22202e-20)
(-0.023277 0.0100402 2.02376e-20)
(-0.0225525 0.00743315 6.45431e-20)
(-0.0212947 0.00483317 5.92939e-20)
(-0.0195517 0.00232337 1.08234e-19)
(-0.0173786 -2.18557e-05 -9.74797e-20)
(-0.0148378 -0.00213688 1.36973e-19)
(-0.0119969 -0.00396516 1.02488e-21)
(-0.00890892 -0.00545542 -1.75654e-19)
(-0.00560541 -0.00655774 2.27682e-19)
(-0.00229537 -0.00726821 1.087e-19)
(-0.00183923 0.00566197 -2.33484e-20)
(-0.00529174 0.0133939 -4.7104e-20)
(-0.00900116 0.0182715 -9.99375e-20)
(-0.012442 0.021001 -3.06109e-21)
(-0.0153819 0.0220849 1.78859e-20)
(-0.0177191 0.0219048 -1.33797e-19)
(-0.0193929 0.0207628 -1.00355e-19)
(-0.0203755 0.0188996 -1.45987e-20)
(-0.0206644 0.0165105 -1.29199e-19)
(-0.0202743 0.0137572 -8.98906e-20)
(-0.0192326 0.0107777 -2.6383e-20)
(-0.0175763 0.00769245 -8.5395e-20)
(-0.0153505 0.00460909 -1.65624e-21)
(-0.0126075 0.00162517 -1.14121e-19)
(-0.0094066 -0.00117046 4.76203e-20)
(-0.00581498 -0.00369794 -5.49207e-20)
(-0.00190604 -0.00588696 4.1499e-20)
(0.00226341 -0.00767183 -5.41587e-20)
(0.0066587 -0.00898727 -1.52686e-19)
(0.0110352 -0.00983185 -5.36875e-20)
(-0.0022453 0.00629016 -9.1766e-21)
(-0.00612042 0.0148183 -1.08495e-20)
(-0.00986737 0.0201588 8.41709e-20)
(-0.0130661 0.0231049 -1.40125e-19)
(-0.0155513 0.0242205 2.08289e-20)
(-0.0172689 0.0239315 -8.36168e-20)
(-0.0181962 0.0225731 3.95984e-20)
(-0.018334 0.0204108 1.8013e-19)
(-0.0177013 0.0176586 -1.21226e-20)
(-0.0163283 0.0144936 -1.36392e-19)
(-0.0142532 0.0110671 2.48421e-20)
(-0.0115202 0.00751217 5.10989e-21)
(-0.00817996 0.0039491 -2.78106e-20)
(-0.00428867 0.000489059 3.57281e-21)
(9.05729e-05 -0.0027645 2.49118e-19)
(0.00488555 -0.00571637 -3.60218e-20)
(0.0100167 -0.0082805 -6.93179e-20)
(0.0154229 -0.0103736 -1.23557e-19)
(0.0210649 -0.0119111 1.26988e-19)
(0.0266525 -0.0128957 6.32717e-20)
(-0.00267141 0.00681746 4.44576e-20)
(-0.00695979 0.0159801 -6.40314e-20)
(-0.0106872 0.0216693 9.25446e-20)
(-0.0135552 0.0247555 9.53293e-20)
(-0.0154754 0.0258568 8.90579e-20)
(-0.0164485 0.0254379 1.82265e-19)
(-0.0164946 0.023861 1.18878e-19)
(-0.015648 0.0214108 -2.58006e-19)
(-0.0139515 0.0183152 1.32967e-19)
(-0.0114529 0.014762 1.04724e-19)
(-0.00820214 0.0109115 -1.90645e-21)
(-0.00425152 0.00690589 1.18085e-19)
(0.00034356 0.00287566 9.15737e-20)
(0.00552335 -0.00105604 -5.07498e-20)
(0.0112216 -0.00477145 1.69437e-19)
(0.0173617 -0.00815894 -2.11364e-19)
(0.0238578 -0.0111143 8.4289e-20)
(0.0306443 -0.0135325 1.08086e-19)
(0.037676 -0.0153047 -2.5022e-20)
(0.0446045 -0.016439 2.52052e-19)
(-0.00310145 0.00723175 9.1438e-20)
(-0.0077642 0.0168496 5.51633e-21)
(-0.0113884 0.0227633 -3.62625e-20)
(-0.0138139 0.0259095 -3.875e-20)
(-0.0150391 0.026952 -1.8349e-19)
(-0.015126 0.0263876 2.71028e-20)
(-0.0141432 0.0245994 7.5116e-20)
(-0.0121618 0.021885 -3.70644e-20)
(-0.00925224 0.0184803 3.06645e-20)
(-0.00548148 0.0145783 -8.21806e-21)
(-0.000912702 0.0103435 -4.01392e-20)
(0.00439361 0.00592229 3.86119e-20)
(0.0103775 0.00145158 -1.64945e-19)
(0.0169768 -0.00293614 1.59938e-19)
(0.0241236 -0.00710989 -1.37529e-19)
(0.0317378 -0.010941 4.30071e-20)
(0.0397282 -0.0143045 9.6518e-20)
(0.0480248 -0.0170683 -2.06226e-20)
(0.056575 -0.0190922 -6.68802e-20)
(0.0649584 -0.0203912 -5.27685e-20)
(-0.00351655 0.00752104 -1.15713e-19)
(-0.0084808 0.0173984 -8.27101e-21)
(-0.0118879 0.0234047 2.71167e-20)
(-0.0137328 0.0265288 7.04067e-20)
(-0.0141101 0.0274715 -1.00921e-19)
(-0.0131495 0.0267542 -8.88494e-20)
(-0.0109733 0.0247737 2.08615e-19)
(-0.00769371 0.0218344 -1.17391e-19)
(-0.00341156 0.0181739 -7.58868e-20)
(0.0017843 0.0139841 -1.08913e-19)
(0.00781603 0.00942734 7.24324e-20)
(0.0146144 0.00464852 -2.62821e-21)
(0.0221153 -0.000214665 -1.36559e-19)
(0.0302556 -0.00502468 -2.21525e-19)
(0.0389676 -0.00963995 1.69867e-19)
(0.0481702 -0.0139151 -1.36338e-19)
(0.0577682 -0.0177018 1.94056e-19)
(0.0676888 -0.0208348 -5.49974e-20)
(0.0778707 -0.0231332 1.12114e-19)
(0.0878051 -0.024619 -4.49155e-19)
(-0.0038949 0.00767357 -2.39762e-19)
(-0.00904924 0.0176001 1.7077e-19)
(-0.0120917 0.0235606 2.32315e-20)
(-0.0131884 0.0265808 4.76469e-21)
(-0.0125393 0.0273878 -1.0908e-19)
(-0.0103474 0.0265198 1.62587e-19)
(-0.00679373 0.0243806 1.71543e-20)
(-0.00203546 0.0212745 -3.35889e-20)
(0.00379256 0.0174345 -1.0913e-19)
(0.0105767 0.0130449 1.18574e-19)
(0.0182224 0.00825852 3.00235e-19)
(0.0266503 0.00321143 -6.70396e-20)
(0.0357924 -0.00196529 1.50675e-19)
(0.0455859 -0.00713588 -1.77151e-19)
(0.0559661 -0.0121534 -1.69176e-19)
(0.0668542 -0.0168581 1.02645e-19)
(0.0781545 -0.021077 1.66913e-19)
(0.0897941 -0.0246043 -5.43262e-19)
(0.101703 -0.0272062 6.51953e-20)
(0.113266 -0.0289096 1.01131e-19)
(-0.00421156 0.00767806 1.79074e-19)
(-0.00940187 0.0174302 6.69231e-20)
(-0.0118953 0.0232026 3.39749e-19)
(-0.0120446 0.0260385 1.77725e-20)
(-0.0101625 0.02668 -3.81502e-20)
(-0.00653056 0.0256745 -1.84515e-19)
(-0.00139226 0.0234257 1.59578e-19)
(0.005046 0.0202318 2.87854e-19)
(0.0126117 0.0163151 1.90969e-19)
(0.0211628 0.0118456 1.39192e-19)
(0.0305848 0.00695936 1.2006e-19)
(0.0407861 0.00177485 -2.15695e-19)
(0.0516933 -0.00359316 -6.64955e-20)
(0.0632453 -0.00902072 -4.95353e-20)
(0.075383 -0.0143645 5.30551e-19)
(0.0880349 -0.0194571 -3.50563e-21)
(0.10111 -0.0241022 -1.31188e-19)
(0.114541 -0.0280466 -3.87936e-20)
(0.128254 -0.0309871 3.76764e-19)
(0.141503 -0.0329495 5.80653e-20)
(-0.00443857 0.00752422 -7.05223e-21)
(-0.00946431 0.0168681 -1.85179e-19)
(-0.0111858 0.0223075 -2.7999e-19)
(-0.0101553 0.0248811 -7.90245e-20)
(-0.00680407 0.025334 4.51298e-20)
(-0.00149585 0.0242146 1.01601e-20)
(0.00545998 0.0219205 2.56422e-19)
(0.0138045 0.0187385 -3.20806e-19)
(0.0233235 0.0148756 -1.22984e-19)
(0.0338426 0.0104817 -2.47147e-19)
(0.0452225 0.00566948 -2.10105e-19)
(0.0573553 0.000530528 -1.86172e-19)
(0.0701594 -0.00484822 4.7018e-20)
(0.0835739 -0.0103684 -6.06932e-20)
(0.097548 -0.0159052 2.57393e-19)
(0.112023 -0.0212964 -1.42954e-19)
(0.12692 -0.0263303 -4.40003e-19)
(0.14219 -0.0307028 -8.55596e-20)
(0.157762 -0.0340204 2.16074e-19)
(0.172737 -0.0362943 -2.18674e-19)
(-0.00454527 0.00720353 -2.78793e-20)
(-0.00915677 0.015898 2.32992e-19)
(-0.00984395 0.0208589 -3.00124e-19)
(-0.00736765 0.0230954 6.99105e-20)
(-0.0022815 0.0233421 -1.44636e-19)
(0.00496725 0.022141 3.28033e-19)
(0.0140014 0.0198783 -2.35128e-19)
(0.0245069 0.016826 2.69319e-19)
(0.0362247 0.0131726 -2.58198e-19)
(0.048943 0.00904535 1.08936e-19)
(0.0624924 0.00452847 -5.41811e-20)
(0.0767419 -0.000320801 -1.3455e-19)
(0.0915954 -0.00545531 -1.65027e-19)
(0.106988 -0.0108192 1.64311e-19)
(0.122876 -0.0163274 -1.3718e-19)
(0.139218 -0.0218466 -2.96621e-19)
(0.15596 -0.0271701 3.09025e-19)
(0.173085 -0.0319479 -3.91402e-19)
(0.190547 -0.0356728 1.7525e-19)
(0.207272 -0.0383178 4.48033e-21)
(-0.00449898 0.00671023 -2.75355e-19)
(-0.00839617 0.0145111 -3.19665e-19)
(-0.00774781 0.0188496 3.66916e-20)
(-0.00352795 0.0206772 -3.14055e-19)
(0.00358737 0.020704 -2.81408e-20)
(0.013068 0.0194582 -2.33775e-19)
(0.0244692 0.0173105 -5.41959e-20)
(0.0374212 0.0145164 -1.58711e-19)
(0.0516176 0.0112463 5.15738e-22)
(0.0668054 0.00760536 -7.04383e-20)
(0.0827787 0.00364919 3.41609e-21)
(0.099375 -0.000602395 -2.01291e-19)
(0.116474 -0.00515046 2.18938e-19)
(0.133996 -0.00999818 -3.13314e-19)
(0.151898 -0.0151267 1.08983e-19)
(0.170153 -0.0204681 2.72679e-21)
(0.188741 -0.0258615 -1.73149e-19)
(0.207707 -0.0309396 4.24154e-19)
(0.227075 -0.0350663 -1.01658e-19)
(0.24557 -0.038142 -7.64646e-20)
(-0.00426609 0.00604252 3.13273e-19)
(-0.007099 0.0127082 1.81672e-19)
(-0.00477765 0.0162843 1.69559e-19)
(0.00151228 0.0176341 2.50243e-20)
(0.0109757 0.0174284 2.35634e-19)
(0.0230032 0.0161744 3.40012e-19)
(0.0370854 0.0142239 2.80461e-19)
(0.0527984 0.0118161 2.31432e-20)
(0.0697894 0.00910653 2.05002e-19)
(0.0877624 0.00618372 3.18432e-19)
(0.10647 0.00308139 -8.32185e-20)
(0.125711 -0.000212404 1.39461e-19)
(0.145327 -0.00374572 1.13803e-19)
(0.165208 -0.00758897 1.14737e-19)
(0.185293 -0.0118136 6.65065e-19)
(0.205561 -0.016463 -2.49933e-19)
(0.22602 -0.0214944 -1.50446e-20)
(0.246807 -0.0266039 2.80204e-19)
(0.268103 -0.0310524 -1.57916e-19)
(0.288433 -0.0346181 9.25649e-20)
(-0.00381354 0.00520374 -2.58291e-19)
(-0.00518491 0.0105019 2.00887e-20)
(-0.000821112 0.0131824 -2.23432e-19)
(0.00788874 0.0139889 -2.75542e-20)
(0.0200377 0.013537 1.66751e-19)
(0.0349437 0.0123049 -4.96014e-19)
(0.0520384 0.0106222 3.23008e-21)
(0.0708497 0.00871287 2.322e-19)
(0.0909825 0.00672265 2.18902e-19)
(0.112101 0.00473346 -9.69197e-20)
(0.133918 0.00277139 3.12327e-20)
(0.156188 0.000810621 7.44343e-20)
(0.178705 -0.00122507 -3.56209e-20)
(0.201311 -0.00345948 -3.8895e-19)
(0.223902 -0.00605617 9.95907e-20)
(0.246424 -0.00920676 2.65167e-19)
(0.268886 -0.0130859 -3.75857e-19)
(0.291524 -0.0176127 1.83893e-19)
(0.314817 -0.0220426 4.71273e-20)
(0.337191 -0.0259709 2.82136e-19)
(-0.00311045 0.00420345 -3.99723e-20)
(-0.00258051 0.00791875 -1.96196e-19)
(0.00422119 0.0095818 8.9011e-20)
(0.015717 0.00978408 -2.45558e-21)
(0.0308987 0.00906933 -4.02517e-19)
(0.0490207 0.00787803 6.36414e-20)
(0.0694647 0.0065125 -1.09985e-20)
(0.0917192 0.00518096 8.17353e-20)
(0.115357 0.00402425 -3.76097e-19)
(0.140012 0.00312843 -2.40667e-20)
(0.165368 0.00253112 -8.62949e-20)
(0.191143 0.00222234 8.08427e-20)
(0.217088 0.0021401 2.64752e-19)
(0.242985 0.00216235 -4.15009e-20)
(0.268654 0.00209452 1.47845e-20)
(0.293948 0.00164069 1.04337e-19)
(0.318772 0.000391939 -2.49771e-20)
(0.343357 -0.00188782 1.93401e-19)
(0.368609 -0.00453141 -1.23056e-19)
(0.393241 -0.00730241 -2.08183e-19)
(-0.00212979 0.00305808 3.61923e-20)
(0.000776989 0.00500146 8.23985e-21)
(0.0104308 0.00554146 8.09557e-20)
(0.0250861 0.00508634 1.983e-19)
(0.0436468 0.0040907 1.10947e-19)
(0.0653143 0.00294591 1.11393e-20)
(0.0894311 0.0019194 -1.34362e-19)
(0.115458 0.00119909 3.53696e-20)
(0.14295 0.000920195 1.81063e-19)
(0.17153 0.00117773 -3.09293e-19)
(0.200876 0.00203432 2.34194e-19)
(0.230705 0.00352368 -1.76192e-19)
(0.260761 0.00564964 1.49354e-19)
(0.290816 0.00838088 -3.21168e-19)
(0.320658 0.0116346 3.49901e-19)
(0.350069 0.0152265 -3.75603e-19)
(0.378816 0.0188297 -9.46966e-20)
(0.40695 0.0222832 2.88014e-19)
(0.435467 0.0262099 -1.04149e-19)
(0.463409 0.0288557 4.49932e-20)
(-0.000849836 0.00179102 -2.85336e-20)
(0.00493694 0.00180899 2.82607e-19)
(0.0178679 0.00114356 -3.51387e-21)
(0.0360547 -8.85801e-06 -1.77623e-19)
(0.0583279 -0.0013005 -1.19178e-19)
(0.0838465 -0.00240239 2.21015e-19)
(0.111924 -0.00309363 -8.84754e-20)
(0.142005 -0.00321737 -1.15239e-20)
(0.173639 -0.00265462 1.82064e-19)
(0.206462 -0.00131205 -2.30235e-19)
(0.240176 0.000887479 2.44547e-20)
(0.274546 0.0040128 -2.99327e-19)
(0.309404 0.00813121 1.57307e-19)
(0.344658 0.0133148 -4.52258e-19)
(0.380327 0.0196391 7.20455e-19)
(0.416602 0.0271643 -1.30918e-19)
(0.454023 0.0359531 1.36952e-19)
(0.493963 0.0461874 -3.6198e-19)
(0.539273 0.0573298 5.29017e-21)
(0.594383 0.0635441 5.05527e-19)
(0.000745067 0.00043204 -8.83921e-20)
(0.00993357 -0.00158388 8.04961e-20)
(0.0265698 -0.00350613 -2.93986e-19)
(0.0486501 -0.00537477 4.37769e-19)
(0.0749458 -0.00696598 -3.17825e-19)
(0.104583 -0.00802765 1.58322e-20)
(0.136852 -0.00839974 -3.43627e-19)
(0.171188 -0.00797213 2.47152e-19)
(0.207141 -0.00666114 -3.69159e-20)
(0.244362 -0.00440062 -2.19943e-19)
(0.282585 -0.0011356 -1.27247e-19)
(0.321628 0.00318168 1.34681e-19)
(0.361404 0.00859193 8.96012e-20)
(0.40194 0.0151221 -4.01972e-19)
(0.443419 0.0227612 1.4681e-19)
(0.486245 0.0314132 -2.1537e-19)
(0.531186 0.0408638 2.36045e-20)
(0.579586 0.0506671 -1.88654e-19)
(0.63306 0.0590294 8.58685e-20)
(0.692232 0.0605421 -3.47166e-19)
(0.00266424 -0.000983864 2.48992e-19)
(0.0157858 -0.00508863 -1.58684e-19)
(0.0365516 -0.00827996 1.31529e-19)
(0.0628704 -0.0108539 -1.66298e-19)
(0.0934681 -0.0127258 2.83555e-19)
(0.127444 -0.0137342 -6.13552e-21)
(0.164069 -0.0137938 -3.46527e-20)
(0.202767 -0.0128567 -2.57932e-20)
(0.243086 -0.0108924 1.59177e-19)
(0.284679 -0.00788465 2.70131e-19)
(0.327295 -0.00382938 -1.62608e-19)
(0.370769 0.00126299 1.56657e-19)
(0.415034 0.00736025 2.87629e-19)
(0.460131 0.0143915 -2.04756e-19)
(0.506226 0.022213 -4.17768e-19)
(0.553633 0.0305583 7.68155e-19)
(0.602874 0.0390023 -1.39248e-19)
(0.654688 0.046836 -4.66394e-20)
(0.70954 0.0522711 5.02806e-19)
(0.766677 0.0516984 -1.28993e-19)
(0.00491118 -0.00241817 -4.10023e-19)
(0.0224982 -0.00860648 -2.90608e-19)
(0.0478079 -0.0130327 -1.11649e-19)
(0.078689 -0.0162629 2.1629e-19)
(0.113834 -0.018364 -4.90208e-19)
(0.15232 -0.0192764 2.53276e-19)
(0.193399 -0.019001 3.20681e-20)
(0.23648 -0.0175633 3.10766e-20)
(0.281099 -0.0149985 -3.37331e-19)
(0.326899 -0.0113521 -1.20414e-19)
(0.373614 -0.00668314 -2.11899e-19)
(0.421064 -0.00106947 2.04767e-19)
(0.469149 0.00538185 5.80623e-20)
(0.51785 0.0125168 9.88887e-21)
(0.567224 0.0201053 2.72244e-19)
(0.6174 0.0278078 -2.77726e-19)
(0.668587 0.0351641 -1.18558e-20)
(0.721025 0.0415113 6.13498e-21)
(0.774565 0.0454262 3.77692e-20)
(0.828234 0.0445597 2.69953e-19)
(0.00748441 -0.00383062 1.3206e-19)
(0.0300629 -0.0120325 3.60672e-19)
(0.0603159 -0.0176075 2.89773e-19)
(0.0960584 -0.0214007 -9.98128e-20)
(0.135961 -0.0236393 3.47041e-19)
(0.179081 -0.0243742 -2.98738e-20)
(0.224655 -0.0237 -4.18523e-20)
(0.27207 -0.0217227 2.49168e-20)
(0.320843 -0.0185483 3.42743e-19)
(0.370593 -0.0142877 2.01382e-19)
(0.421026 -0.00906272 5.8721e-20)
(0.471921 -0.00301208 3.6571e-21)
(0.523122 0.00369863 -3.96849e-19)
(0.574526 0.0108633 3.46827e-19)
(0.626073 0.0182163 6.02507e-20)
(0.677727 0.0254166 -9.94412e-20)
(0.729474 0.0320585 -4.35825e-19)
(0.781274 0.0376177 -3.77145e-20)
(0.832728 0.0410087 1.75853e-19)
(0.882973 0.0406686 -4.08078e-20)
(0.0103786 -0.00518083 -3.3424e-19)
(0.0384612 -0.0152596 1.48939e-19)
(0.0740376 -0.0218424 -7.28031e-19)
(0.114913 -0.0260576 2.98724e-19)
(0.159748 -0.0282987 -2.40124e-19)
(0.207586 -0.0287325 1.78229e-19)
(0.257645 -0.0275516 -2.77024e-19)
(0.309292 -0.0249452 2.62584e-20)
(0.362019 -0.0210908 -1.38015e-20)
(0.415415 -0.0161628 7.47056e-20)
(0.469151 -0.0103389 1.08633e-19)
(0.522959 -0.00380692 -2.07948e-19)
(0.576625 0.00322819 1.10241e-19)
(0.629972 0.0105354 1.01953e-19)
(0.682845 0.0178469 4.43376e-19)
(0.735096 0.0248552 -1.94174e-19)
(0.786581 0.0312342 -1.30323e-19)
(0.837123 0.0365925 2.20802e-19)
(0.886254 0.0400902 1.20422e-19)
(0.933273 0.0406776 -2.80271e-19)
(0.0135853 -0.00642952 2.94103e-19)
(0.0476652 -0.0181822 3.00954e-19)
(0.0889209 -0.0255765 8.74404e-20)
(0.135172 -0.0300251 3.68506e-19)
(0.185079 -0.0320911 1.79839e-19)
(0.237678 -0.03206 -3.29483e-19)
(0.292172 -0.0302241 5.00219e-19)
(0.347907 -0.026856 -2.48404e-19)
(0.404351 -0.0222029 2.47921e-19)
(0.461066 -0.0164976 3.21479e-19)
(0.517687 -0.00996614 -1.85101e-19)
(0.573906 -0.00283383 3.54525e-20)
(0.629463 0.00466977 1.97915e-19)
(0.684124 0.0123056 1.40085e-19)
(0.737675 0.0198202 3.24542e-19)
(0.789903 0.0269487 -1.30919e-19)
(0.840604 0.0334387 -1.62825e-20)
(0.88954 0.0390016 2.09152e-19)
(0.93625 0.0429716 -4.50364e-20)
(0.980175 0.0446579 9.44651e-22)
(0.0170938 -0.00753919 -1.5304e-19)
(0.0576389 -0.0206989 -5.92847e-19)
(0.104901 -0.0286549 1.39924e-19)
(0.156738 -0.0331035 -1.07768e-19)
(0.211821 -0.0347781 -2.47712e-19)
(0.269185 -0.0340839 -1.76387e-19)
(0.328025 -0.0314133 -1.08828e-19)
(0.387671 -0.0271205 2.69861e-19)
(0.447572 -0.0215193 -1.61309e-19)
(0.507265 -0.0148958 -1.65764e-19)
(0.566359 -0.00751756 -2.1025e-19)
(0.62452 0.000361265 -3.50163e-20)
(0.681455 0.00849591 -2.435e-20)
(0.7369 0.0166479 -4.93042e-19)
(0.79061 0.0245825 2.40076e-19)
(0.842349 0.0320748 -3.1841e-19)
(0.891888 0.0389314 1.00366e-19)
(0.938982 0.0449376 -7.70137e-19)
(0.983204 0.0495573 2.33409e-19)
(1.02411 0.0523638 3.55406e-19)
(0.020891 -0.00847452 -3.75644e-20)
(0.0683387 -0.0227141 2.89112e-19)
(0.121902 -0.0309328 1.91328e-20)
(0.179496 -0.0351078 4.47927e-20)
(0.23982 -0.0361424 -9.15154e-20)
(0.301917 -0.0345614 -1.90793e-21)
(0.364978 -0.0308554 -1.65912e-21)
(0.428327 -0.0254585 -5.49485e-20)
(0.4914 -0.0187474 2.00267e-19)
(0.553721 -0.0110571 7.79046e-20)
(0.614884 -0.00269092 3.53707e-19)
(0.674542 0.00607391 -9.76734e-20)
(0.732389 0.0149828 6.8058e-20)
(0.788153 0.0238011 -8.74134e-21)
(0.841584 0.0323126 1.9076e-19)
(0.892448 0.0403257 1.17327e-19)
(0.940525 0.0476912 2.84127e-19)
(0.985583 0.0542481 -4.62125e-19)
(1.02725 0.059563 5.85046e-19)
(1.06517 0.063409 -2.24283e-19)
(0.0249618 -0.00920236 -3.49491e-19)
(0.0797131 -0.024139 -1.14799e-19)
(0.139831 -0.0322775 9.26509e-20)
(0.203316 -0.0358719 5.8673e-20)
(0.268906 -0.0359934 6.05197e-20)
(0.335662 -0.0332851 5.99979e-20)
(0.402784 -0.0283339 -1.54145e-19)
(0.469598 -0.0216506 -6.26842e-20)
(0.535537 -0.0136714 2.06765e-20)
(0.600125 -0.0047762 -1.90684e-19)
(0.662956 0.00470044 -8.62485e-20)
(0.723683 0.0144626 5.2719e-19)
(0.782007 0.0242489 -1.3729e-19)
(0.837668 0.0338298 -1.89776e-19)
(0.890432 0.0430059 -9.03045e-20)
(0.940086 0.0516126 6.32823e-20)
(0.98644 0.0595341 7.71113e-20)
(1.02929 0.0666495 -3.72098e-19)
(1.06833 0.0726126 5.41038e-19)
(1.1033 0.0773474 -5.65466e-19)
(0.0292882 -0.00969165 -3.85355e-20)
(0.0917021 -0.0248921 1.15825e-20)
(0.158586 -0.0325702 -1.52152e-20)
(0.228049 -0.0352508 2.24859e-19)
(0.298885 -0.0341702 1.26293e-20)
(0.370187 -0.0300872 8.31036e-20)
(0.441173 -0.023682 -1.762e-19)
(0.511183 -0.015539 -6.1253e-21)
(0.579663 -0.00615007 2.47187e-19)
(0.646146 0.0040644 3.43833e-20)
(0.710243 0.0147425 -2.18117e-19)
(0.771624 0.0255732 -1.9277e-20)
(0.830014 0.0362911 -1.81057e-19)
(0.88518 0.0466728 1.82246e-19)
(0.936923 0.0565342 2.54035e-19)
(0.98507 0.0657337 -2.8212e-20)
(1.02947 0.0741821 -3.43136e-20)
(1.06997 0.0817905 1.05449e-19)
(1.10632 0.0882903 -3.39915e-19)
(1.13834 0.0937177 3.61632e-19)
(0.033849 -0.00991336 3.89936e-20)
(0.104237 -0.0248997 -2.69115e-19)
(0.178048 -0.0317065 7.37024e-20)
(0.253529 -0.0331218 -2.25197e-19)
(0.329547 -0.0305426 7.90797e-20)
(0.405237 -0.0248394 -2.91459e-19)
(0.479853 -0.0167824 1.18732e-19)
(0.552762 -0.00702492 -3.85809e-20)
(0.623435 0.0038898 -1.58829e-21)
(0.691433 0.0155053 3.94198e-20)
(0.756395 0.0274367 -1.44736e-19)
(0.818026 0.0393619 -2.08294e-19)
(0.876089 0.0510146 -4.29003e-20)
(0.930397 0.0621792 -1.94204e-20)
(0.980797 0.0726871 -4.97011e-20)
(1.02717 0.0824179 -1.62707e-20)
(1.06941 0.0913051 -4.8992e-20)
(1.10743 0.0992885 -4.26809e-20)
(1.14106 0.10617 -1.27082e-19)
(1.17015 0.112067 2.37824e-19)
(0.0386193 -0.00984054 9.32276e-20)
(0.117239 -0.024096 -1.09345e-19)
(0.198086 -0.0295974 2.35642e-19)
(0.279573 -0.0293855 -1.03555e-19)
(0.360658 -0.0250115 2.78281e-19)
(0.440538 -0.0174531 5.14475e-21)
(0.518515 -0.00756492 1.41481e-19)
(0.593998 0.00393581 -3.90926e-20)
(0.6665 0.01646 1.61144e-19)
(0.735622 0.0295205 1.13744e-20)
(0.801051 0.0427149 3.9057e-19)
(0.862539 0.0557147 -2.7213e-19)
(0.919906 0.0682566 3.70746e-20)
(0.973018 0.080136 7.13088e-20)
(1.02179 0.0912015 3.7494e-19)
(1.06615 0.101354 -1.35769e-19)
(1.10607 0.110549 -2.69729e-20)
(1.14152 0.118753 -1.42854e-19)
(1.17239 0.125835 -1.4685e-20)
(1.1986 0.131966 8.49091e-20)
(0.0435703 -0.00944847 -4.24068e-20)
(0.130619 -0.0224235 1.33644e-19)
(0.218553 -0.0261695 -1.38825e-19)
(0.305979 -0.0239657 5.43683e-20)
(0.39197 -0.0175089 -6.73226e-20)
(0.475799 -0.00787763 2.46459e-19)
(0.556834 0.00399589 -3.56885e-20)
(0.634542 0.0173373 8.53591e-20)
(0.708493 0.0315182 -5.17526e-20)
(0.778347 0.0460278 -1.85961e-21)
(0.843851 0.0604523 5.96204e-20)
(0.904821 0.0744628 -4.69933e-20)
(0.961144 0.0878044 1.22851e-19)
(1.01276 0.100288 -6.1903e-20)
(1.05964 0.111781 -2.741e-19)
(1.1018 0.122209 2.74344e-19)
(1.13926 0.13155 -1.23937e-19)
(1.17207 0.139798 9.95518e-20)
(1.20019 0.146886 1.7259e-19)
(1.22359 0.153016 8.35895e-20)
(0.0486683 -0.00871502 1.06057e-19)
(0.144278 -0.019834 -2.34147e-19)
(0.239288 -0.0213658 4.39624e-20)
(0.332533 -0.0168098 -3.29547e-20)
(0.423219 -0.00799741 -1.35729e-19)
(0.510717 0.00390096 -1.06738e-19)
(0.594476 0.0178838 -2.16375e-20)
(0.67404 0.0331282 -1.95e-19)
(0.749052 0.048975 -1.25254e-20)
(0.819247 0.0648974 -3.72764e-20)
(0.884445 0.0804785 -1.02271e-19)
(0.944544 0.095396 -2.29282e-20)
(0.999505 0.10941 -7.99842e-20)
(1.04935 0.12235 -1.34863e-19)
(1.09412 0.134112 1.39186e-19)
(1.13392 0.144645 1.90497e-20)
(1.16884 0.153951 3.804e-20)
(1.19898 0.162056 -1.62806e-19)
(1.22438 0.168951 -4.60334e-21)
(1.24508 0.174853 -2.94423e-19)
(0.0538755 -0.00762114 1.12878e-19)
(0.158107 -0.0162891 8.05145e-20)
(0.26012 -0.0151466 -1.32071e-19)
(0.359006 -0.00788952 2.07988e-19)
(0.45413 0.00353033 -2.35183e-20)
(0.544979 0.0178614 7.9379e-20)
(0.631103 0.0340439 2.80754e-20)
(0.712139 0.0512164 1.00583e-19)
(0.787821 0.0686994 -7.99228e-20)
(0.857973 0.0859599 2.7285e-20)
(0.922506 0.102587 -2.63054e-20)
(0.981405 0.118273 -1.16207e-20)
(1.03472 0.132799 2.26773e-20)
(1.08256 0.146025 -4.21427e-20)
(1.12506 0.157873 -1.30542e-20)
(1.16238 0.168323 -4.0143e-20)
(1.1947 0.177406 -6.54969e-20)
(1.22218 0.185177 4.26922e-20)
(1.24494 0.191687 -5.79071e-20)
(1.26304 0.197152 2.94033e-19)
(0.0591495 -0.00615141 -5.4927e-20)
(0.171987 -0.0117618 -1.67184e-19)
(0.280863 -0.00749035 -2.14558e-20)
(0.385159 0.00279906 -7.08671e-21)
(0.484422 0.0170517 -7.74596e-20)
(0.578272 0.0339486 -1.29484e-19)
(0.66638 0.0523847 4.30199e-20)
(0.748496 0.0714729 -6.00917e-20)
(0.82446 0.0905248 -6.84435e-20)
(0.8942 0.109013 3.90218e-20)
(0.957728 0.126541 -2.98405e-20)
(1.01513 0.142828 -6.15866e-20)
(1.06656 0.157685 -2.26985e-21)
(1.11221 0.171004 4.27967e-20)
(1.1523 0.182744 -4.40697e-20)
(1.18707 0.192917 6.17321e-20)
(1.21678 0.201586 1.68843e-20)
(1.24165 0.208839 4.2264e-20)
(1.26186 0.214785 8.18254e-20)
(1.27752 0.219623 -8.16333e-20)
(0.0644439 -0.00429463 5.13549e-20)
(0.185793 -0.00623708 -3.94771e-21)
(0.301327 0.00160532 2.57979e-20)
(0.410747 0.0152346 -3.44149e-20)
(0.513806 0.0325145 3.62745e-21)
(0.61028 0.0520751 1.23996e-19)
(0.699978 0.0727813 -8.22497e-20)
(0.782781 0.0937354 3.61142e-20)
(0.858648 0.114254 3.27297e-20)
(0.927627 0.133826 -9.21732e-20)
(0.989844 0.152085 8.8443e-20)
(1.04549 0.168783 1.03627e-21)
(1.09483 0.18377 -6.43711e-20)
(1.13814 0.196979 7.84628e-20)
(1.17573 0.20841 -3.13708e-20)
(1.20794 0.218113 2.41768e-20)
(1.23507 0.226183 -2.73789e-20)
(1.25741 0.232747 -1.11241e-20)
(1.27519 0.237963 -9.53169e-20)
(1.28859 0.242012 3.38969e-20)
(0.0697085 -0.00204443 -1.6339e-20)
(0.19939 0.000286747 4.87611e-20)
(0.32131 0.0121225 7.97831e-21)
(0.43552 0.0293704 3.25055e-20)
(0.541998 0.0498374 1.6041e-20)
(0.640696 0.0721221 7.66657e-21)
(0.731583 0.0950778 4.39735e-20)
(0.814682 0.117812 -5.16917e-21)
(0.890091 0.139662 2.04794e-20)
(0.957987 0.160148 3.34188e-20)
(1.01862 0.178944 1.65554e-20)
(1.0723 0.195846 1.21314e-20)
(1.11938 0.210753 4.97467e-20)
(1.16025 0.223646 -4.84994e-20)
(1.19532 0.234568 1.0546e-20)
(1.22497 0.243614 -9.88526e-21)
(1.24958 0.250914 1.55324e-20)
(1.26951 0.25663 1.30733e-20)
(1.28502 0.260974 2.7115e-20)
(1.29633 0.264096 1.27609e-21)
(0.0748904 0.000600189 9.92807e-21)
(0.21264 0.00779705 9.41507e-21)
(0.340612 0.0240223 -1.32336e-20)
(0.459229 0.0451338 8.39897e-21)
(0.568717 0.0689105 4.88826e-21)
(0.669225 0.0939417 -1.55407e-20)
(0.760896 0.119089 5.27596e-21)
(0.843913 0.143485 1.05381e-21)
(0.918525 0.166503 9.54882e-21)
(0.985048 0.187711 -2.63721e-20)
(1.04386 0.206834 -1.59086e-22)
(1.09539 0.223724 7.62199e-21)
(1.14011 0.238337 -6.12734e-21)
(1.1785 0.250707 6.34241e-21)
(1.21103 0.26093 1.67247e-20)
(1.23818 0.269144 -9.56389e-21)
(1.26039 0.275516 2.71951e-21)
(1.27804 0.280247 1.0548e-20)
(1.29146 0.283597 -1.74084e-20)
(1.30089 0.285682 9.75905e-21)
(0.0799351 0.0036344 2.5626e-20)
(0.225404 0.0162663 -1.51547e-20)
(0.359029 0.0372446 1.81315e-20)
(0.481627 0.0624269 -1.37358e-20)
(0.593693 0.0895964 -6.37176e-21)
(0.695587 0.117358 1.9971e-21)
(0.787643 0.144605 -6.61574e-21)
(0.870219 0.170515 2.4364e-20)
(0.943723 0.194514 -2.0954e-20)
(1.00862 0.216233 5.0856e-21)
(1.06542 0.235463 -3.78635e-21)
(1.11467 0.252121 -2.57548e-20)
(1.15696 0.266228 2.53795e-20)
(1.19285 0.277878 9.82536e-21)
(1.2229 0.287221 -9.87978e-21)
(1.24764 0.294444 2.33411e-20)
(1.26757 0.29975 -3.83492e-22)
(1.28312 0.303381 -2.27804e-20)
(1.29464 0.30564 1.68781e-20)
(1.30241 0.306606 6.0218e-21)
(0.0847863 0.00704732 -9.20498e-21)
(0.23754 0.0256516 2.68978e-20)
(0.376361 0.0517075 3.18692e-20)
(0.502478 0.0811265 -1.56498e-20)
(0.616669 0.111731 2.74319e-20)
(0.719522 0.14217 4.53625e-20)
(0.811576 0.171393 -2.75736e-21)
(0.893374 0.198641 -8.74598e-21)
(0.96549 0.223416 4.2463e-20)
(1.02854 0.245426 2.13878e-20)
(1.08318 0.264537 -4.15253e-21)
(1.13007 0.280745 3.35063e-20)
(1.1699 0.294142 -3.69642e-20)
(1.20332 0.304886 5.79002e-20)
(1.23097 0.313187 -9.80151e-21)
(1.25344 0.319278 2.8186e-20)
(1.27126 0.323402 5.02701e-21)
(1.28489 0.325839 2.02356e-20)
(1.29471 0.326932 -1.93905e-20)
(1.30103 0.326722 5.33058e-21)
(0.0893869 0.0108215 -1.35543e-20)
(0.248907 0.0358943 3.25956e-20)
(0.392414 0.0673079 2.44346e-20)
(0.521555 0.101085 -3.88381e-21)
(0.637405 0.135127 4.15944e-20)
(0.740795 0.168154 -3.38562e-20)
(0.832478 0.199198 -3.45456e-21)
(0.913188 0.22759 3.04516e-20)
(0.983675 0.252922 9.41949e-21)
(1.04471 0.274994 1.47464e-20)