1.45 	0 	0 	-0.00429766 	-0.00284503 	3.95496e-21
2.35 	0 	0 	0.0733019 	-0.00700391 	2.43113e-21
