1.275 	2.15223e-18 	-2.76991e-20 	-0.0344513 	-0.000434368 	-1.9136e-22
1.825 	2.15223e-18 	-1.39322e-20 	-0.00944244 	-0.0027566 	1.69202e-21
2.375 	2.15223e-18 	-2.66896e-23 	0.115371 	-0.00324542 	-7.05828e-22
