1.275 	2.15223e-18 	-2.76991e-20 	-0.0324328 	-0.000481144 	-2.04124e-22
1.825 	2.15223e-18 	-1.39322e-20 	-0.00743383 	-0.00297611 	1.81362e-21
2.375 	2.15223e-18 	-2.66896e-23 	0.131047 	-0.00377713 	-7.49376e-22
