1.45 	0 	0 	-0.00780878 	-0.00258488 	3.81608e-21
2.35 	0 	0 	0.0620199 	-0.00665299 	2.33248e-21
