/*--------------------------------*- C++ -*----------------------------------*\
  =========                 |
  \\      /  F ield         | OpenFOAM: The Open Source CFD Toolbox
   \\    /   O peration     | Website:  https://openfoam.org
    \\  /    A nd           | Version:  6.0
     \\/     M anipulation  |
\*---------------------------------------------------------------------------*/
FoamFile
{
    version     2.0;
    format      ascii;
    class       surfaceScalarField;
    location    "0.4";
    object      phi;
}
// * * * * * * * * * * * * * * * * * * * * * * * * * * * * * * * * * * * * * //

dimensions      [0 3 -1 0 0 0 0];

internalField   nonuniform List<scalar> 
3120
(
2.53292e-09
-2.55029e-09
4.09549e-09
-1.56257e-09
2.25334e-09
1.84211e-09
-3.55413e-09
5.8074e-09
-1.31366e-08
9.58248e-09
-2.59853e-08
1.28487e-08
-4.14607e-08
1.54755e-08
-5.88864e-08
1.74258e-08
-7.75948e-08
1.87084e-08
-9.69491e-08
1.93542e-08
-1.16355e-07
1.94058e-08
-1.35266e-07
1.89113e-08
-1.53188e-07
1.79221e-08
-1.69679e-07
1.64905e-08
-1.84349e-07
1.46702e-08
-1.96864e-07
1.25148e-08
-2.06942e-07
1.00786e-08
-2.14359e-07
7.41661e-09
-2.18944e-07
4.58511e-09
-2.20586e-07
1.64187e-09
-2.19233e-07
-1.35323e-09
-2.14894e-07
-4.33808e-09
-2.07646e-07
-7.24823e-09
-1.97629e-07
-1.00171e-08
-1.85053e-07
-1.25762e-08
-1.70197e-07
-1.48561e-08
-1.5341e-07
-1.67872e-08
-1.35109e-07
-1.83012e-08
-1.15776e-07
-1.93325e-08
-9.59564e-08
-1.98199e-08
-7.62472e-08
-1.97093e-08
-5.72914e-08
-1.89559e-08
-3.97636e-08
-1.75279e-08
-2.43514e-08
-1.54122e-08
-1.17269e-08
-1.26244e-08
-2.49601e-09
-9.23086e-09
2.89737e-09
-5.39339e-09
4.35757e-09
-1.46033e-09
2.56088e-09
1.7965e-09
2.56078e-09
1.61422e-09
-4.16452e-09
-1.17169e-09
1.2234e-09
-1.17156e-08
1.23861e-08
-3.10745e-08
2.51663e-08
-5.90476e-08
3.75555e-08
-9.46912e-08
4.84922e-08
-1.36656e-07
5.74401e-08
-1.83402e-07
6.41719e-08
-2.33329e-07
6.8636e-08
-2.84857e-07
7.08821e-08
-3.36471e-07
7.10196e-08
-3.86754e-07
6.9194e-08
-4.34404e-07
6.55724e-08
-4.78248e-07
6.03348e-08
-5.17248e-07
5.367e-08
-5.50506e-07
4.57724e-08
-5.77268e-07
3.68413e-08
-5.96932e-07
2.70806e-08
-6.09047e-07
1.67e-08
-6.13321e-07
5.91525e-09
-6.09623e-07
-5.05091e-09
-5.97993e-07
-1.59681e-08
-5.78642e-07
-2.65987e-08
-5.51961e-07
-3.66986e-08
-5.18518e-07
-4.60189e-08
-4.79065e-07
-5.43092e-08
-4.34532e-07
-6.13211e-08
-3.86019e-07
-6.68134e-08
-3.34793e-07
-7.05589e-08
-2.82262e-07
-7.23514e-08
-2.29955e-07
-7.20156e-08
-1.79492e-07
-6.94187e-08
-1.32534e-07
-6.44866e-08
-9.07192e-08
-5.72269e-08
-5.55762e-08
-4.77676e-08
-2.83816e-08
-3.64254e-08
-9.94618e-09
-2.38287e-08
-2.87606e-10
-1.11187e-08
1.85454e-09
-3.45503e-10
4.41517e-09
-1.66818e-09
-2.4964e-09
-1.21187e-08
1.16739e-08
-3.4093e-08
3.43605e-08
-6.8455e-08
5.95283e-08
-1.14791e-07
8.38917e-08
-1.71816e-07
1.05517e-07
-2.37695e-07
1.2332e-07
-3.10293e-07
1.36769e-07
-3.87339e-07
1.45682e-07
-4.6655e-07
1.50093e-07
-5.45704e-07
1.50174e-07
-6.22701e-07
1.46191e-07
-6.95593e-07
1.38464e-07
-7.62613e-07
1.27355e-07
-8.22192e-07
1.13249e-07
-8.72967e-07
9.6548e-08
-9.13797e-07
7.76715e-08
-9.43767e-07
5.705e-08
-9.62195e-07
3.51277e-08
-9.68642e-07
1.23626e-08
-9.6292e-07
-1.07731e-08
-9.45096e-07
-3.3792e-08
-9.15501e-07
-5.61932e-08
-8.74736e-07
-7.74641e-08
-8.2367e-07
-9.7085e-08
-7.63444e-07
-1.14535e-07
-6.95462e-07
-1.29303e-07
-6.21382e-07
-1.40894e-07
-5.43091e-07
-1.4885e-07
-4.62682e-07
-1.5276e-07
-3.82408e-07
-1.52289e-07
-3.0463e-07
-1.47197e-07
-2.31738e-07
-1.37378e-07
-1.66059e-07
-1.22907e-07
-1.09715e-07
-1.04111e-07
-6.44515e-08
-8.16894e-08
-3.13842e-08
-5.6896e-08
-1.06921e-08
-3.18106e-08
-1.23787e-09
-9.7996e-09
3.17721e-09
-5.57006e-09
3.07364e-09
-2.49814e-08
3.10852e-08
-5.96922e-08
6.90713e-08
-1.09879e-07
1.09715e-07
-1.7465e-07
1.48663e-07
-2.523e-07
1.83167e-07
-3.40556e-07
2.11575e-07
-4.368e-07
2.33013e-07
-5.38242e-07
2.47124e-07
-6.42053e-07
2.53904e-07
-7.45462e-07
2.53584e-07
-8.4583e-07
2.46558e-07
-9.40694e-07
2.33329e-07
-1.02781e-06
2.14474e-07
-1.10519e-06
1.90621e-07
-1.17108e-06
1.62437e-07
-1.22402e-06
1.30618e-07
-1.26286e-06
9.58846e-08
-1.28671e-06
5.89818e-08
-1.29503e-06
2.06789e-08
-1.28757e-06
-1.82312e-08
-1.26443e-06
-5.69317e-08
-1.22604e-06
-9.4585e-08
-1.17316e-06
-1.30337e-07
-1.10693e-06
-1.63323e-07
-1.02878e-06
-1.92683e-07
-9.40508e-07
-2.17574e-07
-8.44215e-07
-2.37187e-07
-7.42285e-07
-2.50779e-07
-6.37351e-07
-2.57695e-07
-5.32234e-07
-2.57407e-07
-4.29873e-07
-2.49558e-07
-3.33229e-07
-2.34021e-07
-2.45167e-07
-2.10969e-07
-1.683e-07
-1.80978e-07
-1.04806e-07
-1.45184e-07
-5.62021e-08
-1.055e-07
-2.31028e-08
-6.491e-08
-4.98693e-09
-2.79153e-08
-1.8097e-09
-9.47016e-09
1.25438e-08
-3.81796e-08
5.97945e-08
-8.60875e-08
1.16979e-07
-1.52408e-07
1.76035e-07
-2.35571e-07
2.31827e-07
-3.33339e-07
2.80935e-07
-4.42974e-07
3.2121e-07
-5.61408e-07
3.51447e-07
-6.85405e-07
3.71121e-07
-8.11686e-07
3.80185e-07
-9.37035e-07
3.78933e-07
-1.05838e-06
3.67902e-07
-1.17285e-06
3.47795e-07
-1.27781e-06
3.19437e-07
-1.37092e-06
2.83737e-07
-1.45015e-06
2.41666e-07
-1.51378e-06
1.94245e-07
-1.56043e-06
1.42535e-07
-1.58908e-06
8.76352e-08
-1.59909e-06
3.06813e-08
-1.59016e-06
-2.71563e-08
-1.56242e-06
-8.46737e-08
-1.51637e-06
-1.40638e-07
-1.45291e-06
-1.93793e-07
-1.37336e-06
-2.42875e-07
-1.27942e-06
-2.86625e-07
-1.17318e-06
-3.23814e-07
-1.05709e-06
-3.53272e-07
-9.33946e-07
-3.73924e-07
-8.06805e-07
-3.84835e-07
-6.78951e-07
-3.85261e-07
-5.53797e-07
-3.74713e-07
-4.34782e-07
-3.53036e-07
-3.25244e-07
-3.20507e-07
-2.28261e-07
-2.7796e-07
-1.46485e-07
-2.2696e-07
-8.19524e-08
-1.70033e-07
-3.59194e-08
-1.10943e-07
-8.75705e-09
-5.50776e-08
-1.05667e-08
-1.31646e-08
2.57085e-08
-5.10349e-08
9.76648e-08
-1.12109e-07
1.78053e-07
-1.94526e-07
2.58453e-07
-2.95914e-07
3.33214e-07
-4.13405e-07
3.98426e-07
-5.4374e-07
4.51546e-07
-6.83396e-07
4.91103e-07
-8.28713e-07
5.16438e-07
-9.76013e-07
5.27484e-07
-1.1217e-06
5.2462e-07
-1.26234e-06
5.08541e-07
-1.39472e-06
4.8018e-07
-1.51592e-06
4.40634e-07
-1.62331e-06
3.91124e-07
-1.7146e-06
3.32961e-07
-1.78788e-06
2.67528e-07
-1.84162e-06
1.96267e-07
-1.87465e-06
1.20673e-07
-1.88626e-06
4.22901e-08
-1.87613e-06
-3.72891e-08
-1.84437e-06
-1.16428e-07
-1.79156e-06
-1.93454e-07
-1.71869e-06
-2.66663e-07
-1.62722e-06
-3.34342e-07
-1.51906e-06
-3.94788e-07
-1.39653e-06
-4.46344e-07
-1.26237e-06
-4.87432e-07
-1.11968e-06
-5.16609e-07
-9.719e-07
-5.3262e-07
-8.22685e-07
-5.34476e-07
-6.75869e-07
-5.21529e-07
-5.35327e-07
-4.93578e-07
-4.04854e-07
-4.5098e-07
-2.88017e-07
-3.94797e-07
-1.88002e-07
-3.26974e-07
-1.07473e-07
-2.50563e-07
-4.84588e-08
-1.69957e-07
-1.23379e-08
-9.11986e-08
-2.29045e-08
-1.66134e-08
4.23219e-08
-6.3321e-08
1.44372e-07
-1.37293e-07
2.52024e-07
-2.35584e-07
3.56744e-07
-3.54951e-07
4.52581e-07
-4.91829e-07
5.35304e-07
-6.42386e-07
6.02103e-07
-8.02613e-07
6.5133e-07
-9.68425e-07
6.8225e-07
-1.13577e-06
6.94826e-07
-1.3007e-06
6.89552e-07
-1.45948e-06
6.67319e-07
-1.60861e-06
6.29313e-07
-1.74491e-06
5.76935e-07
-1.86553e-06
5.11747e-07
-1.968e-06
4.35431e-07
-2.05024e-06
3.49762e-07
-2.11057e-06
2.56594e-07
-2.14774e-06
1.57848e-07
-2.16096e-06
5.55119e-08
-2.14988e-06
-4.83693e-08
-2.11462e-06
-1.51693e-07
-2.05576e-06
-2.52308e-07
-1.9744e-06
-3.4803e-07
-1.87208e-06
-4.36658e-07
-1.75086e-06
-5.16009e-07
-1.61325e-06
-5.83953e-07
-1.46222e-06
-6.38467e-07
-1.30113e-06
-6.77696e-07
-1.13372e-06
-7.00029e-07
-9.64005e-07
-7.0419e-07
-7.96199e-07
-6.89335e-07
-6.34606e-07
-6.55171e-07
-4.83493e-07
-6.02094e-07
-3.46955e-07
-5.31336e-07
-2.28781e-07
-4.45148e-07
-1.3234e-07
-3.47003e-07
-6.05091e-08
-2.41788e-07
-1.56911e-08
-1.36017e-07
-3.85956e-08
-1.98454e-08
6.21672e-08
-7.50418e-08
1.99569e-07
-1.61575e-07
3.38558e-07
-2.7545e-07
4.70618e-07
-4.12531e-07
5.89662e-07
-5.68511e-07
6.91284e-07
-7.3894e-07
7.72532e-07
-9.19293e-07
8.31683e-07
-1.10505e-06
8.68005e-07
-1.29178e-06
8.81553e-07
-1.47521e-06
8.72989e-07
-1.65133e-06
8.43441e-07
-1.81641e-06
7.94384e-07
-1.96703e-06
7.27557e-07
-2.10017e-06
6.44893e-07
-2.21321e-06
5.48469e-07
-2.30393e-06
4.40481e-07
-2.37055e-06
3.23216e-07
-2.41175e-06
1.99047e-07
-2.42667e-06
7.04255e-08
-2.41491e-06
-6.01262e-08
-2.37659e-06
-1.90015e-07
-2.3123e-06
-3.1659e-07
-2.22318e-06
-4.37154e-07
-2.11085e-06
-5.48992e-07
-1.97745e-06
-6.49404e-07
-1.82565e-06
-7.35752e-07
-1.65859e-06
-8.05527e-07
-1.47987e-06
-8.56419e-07
-1.29348e-06
-8.86414e-07
-1.10378e-06
-8.93895e-07
-9.15345e-07
-8.77768e-07
-7.32923e-07
-8.37593e-07
-5.6128e-07
-7.73736e-07
-4.0509e-07
-6.87526e-07
-2.68803e-07
-5.81434e-07
-1.56556e-07
-4.59251e-07
-7.21047e-08
-3.26239e-07
-1.88535e-08
-1.89268e-07
-5.74491e-08
-2.29128e-08
8.50798e-08
-8.63028e-08
2.62959e-07
-1.85091e-07
4.37346e-07
-3.14276e-07
5.99804e-07
-4.68832e-07
7.44217e-07
-6.43682e-07
8.66134e-07
-8.33727e-07
9.62577e-07
-1.0339e-06
1.03185e-06
-1.23921e-06
1.07332e-06
-1.44488e-06
1.08722e-06
-1.6463e-06
1.07442e-06
-1.83921e-06
1.03635e-06
-2.01965e-06
9.74822e-07
-2.18404e-06
8.91948e-07
-2.32921e-06
7.90059e-07
-2.4524e-06
6.71659e-07
-2.5513e-06
5.3938e-07
-2.62405e-06
3.95965e-07
-2.66925e-06
2.44251e-07
-2.68599e-06
8.71682e-08
-2.67385e-06
-7.22698e-08
-2.6329e-06
-2.30966e-07
-2.56374e-06
-3.8575e-07
-2.4675e-06
-5.33396e-07
-2.34584e-06
-6.70648e-07
-2.20099e-06
-7.94259e-07
-2.03569e-06
-9.01052e-07
-1.85323e-06
-9.87985e-07
-1.6574e-06
-1.05225e-06
-1.45246e-06
-1.09136e-06
-1.24304e-06
-1.10331e-06
-1.03413e-06
-1.08668e-06
-8.30918e-07
-1.04081e-06
-6.3871e-07
-9.65944e-07
-4.62803e-07
-8.63434e-07
-3.08365e-07
-7.35871e-07
-1.80343e-07
-5.87273e-07
-8.33941e-08
-4.23188e-07
-2.18893e-08
-2.50773e-07
-7.93384e-08
-2.58715e-08
1.10951e-07
-9.72452e-08
3.34333e-07
-2.0806e-07
5.4816e-07
-3.52348e-07
7.44093e-07
-5.24197e-07
9.16065e-07
-7.17744e-07
1.05968e-06
-9.27217e-07
1.17205e-06
-1.14698e-06
1.25161e-06
-1.37158e-06
1.29793e-06
-1.59584e-06
1.31148e-06
-1.81487e-06
1.29345e-06
-2.02415e-06
1.24562e-06
-2.21952e-06
1.17019e-06
-2.39725e-06
1.06968e-06
-2.55406e-06
9.46871e-07
-2.6871e-06
8.04697e-07
-2.79398e-06
6.46256e-07
-2.87277e-06
4.74755e-07
-2.92202e-06
2.93506e-07
-2.94078e-06
1.05923e-07
-2.92856e-06
-8.44841e-08
-2.88542e-06
-2.74109e-07
-2.81192e-06
-4.59254e-07
-2.70916e-06
-6.36151e-07
-2.57882e-06
-8.00985e-07
-2.42314e-06
-9.4994e-07
-2.24494e-06
-1.07926e-06
-2.0476e-06
-1.18532e-06
-1.83508e-06
-1.26477e-06
-1.61185e-06
-1.31458e-06
-1.38288e-06
-1.33229e-06
-1.15351e-06
-1.31605e-06
-9.29415e-07
-1.2649e-06
-7.16479e-07
-1.17888e-06
-5.20668e-07
-1.05925e-06
-3.47918e-07
-9.08621e-07
-2.04027e-07
-7.31165e-07
-9.45709e-08
-5.32643e-07
-2.48695e-08
-3.20474e-07
-1.04208e-07
-2.87735e-08
1.39725e-07
-1.08016e-07
4.13575e-07
-2.30728e-07
6.70872e-07
-3.9e-07
9.03365e-07
-5.79031e-07
1.1051e-06
-7.91163e-07
1.27181e-06
-1.01993e-06
1.40081e-06
-1.2591e-06
1.49079e-06
-1.50276e-06
1.54159e-06
-1.74533e-06
1.55404e-06
-1.98162e-06
1.52974e-06
-2.20688e-06
1.47088e-06
-2.41678e-06
1.3801e-06
-2.60749e-06
1.26039e-06
-2.77561e-06
1.11499e-06
-2.91824e-06
9.47322e-07
-3.03293e-06
7.60943e-07
-3.11771e-06
5.59538e-07
-3.1711e-06
3.46895e-07
-3.19208e-06
1.26907e-07
-3.18014e-06
-9.64222e-08
-3.13527e-06
-3.1898e-07
-3.05798e-06
-5.36544e-07
-2.94934e-06
-7.44798e-07
-2.81097e-06
-9.39354e-07
-2.6451e-06
-1.1158e-06
-2.45458e-06
-1.26978e-06
-2.24287e-06
-1.39704e-06
-2.01404e-06
-1.4936e-06
-1.77278e-06
-1.55585e-06
-1.52433e-06
-1.58073e-06
-1.27445e-06
-1.56593e-06
-1.0293e-06
-1.51005e-06
-7.9537e-07
-1.41281e-06
-5.79346e-07
-1.27527e-06
-3.87982e-07
-1.09999e-06
-2.27972e-07
-8.91175e-07
-1.05841e-07
-6.54774e-07
-2.78636e-08
-3.98451e-07
-1.32071e-07
-3.16652e-08
1.7139e-07
-1.18753e-07
5.00662e-07
-2.53337e-07
8.05456e-07
-4.27568e-07
1.0776e-06
-6.33747e-07
1.31128e-06
-8.64401e-07
1.50247e-06
-1.11235e-06
1.64876e-06
-1.37077e-06
1.7492e-06
-1.63324e-06
1.80406e-06
-1.8938e-06
1.81461e-06
-2.14699e-06
1.78293e-06
-2.38782e-06
1.71171e-06
-2.61184e-06
1.60412e-06
-2.8151e-06
1.46366e-06
-2.99417e-06
1.29406e-06
-3.1461e-06
1.09925e-06
-3.26841e-06
8.83261e-07
-3.35914e-06
6.50261e-07
-3.41675e-06
4.04505e-07
-3.4402e-06
1.50356e-07
-3.42891e-06
-1.07705e-07
-3.38282e-06
-3.6507e-07
-3.30236e-06
-6.17003e-07
-3.18852e-06
-8.58642e-07
-3.04285e-06
-1.08502e-06
-2.86752e-06
-1.29113e-06
-2.66536e-06
-1.47194e-06
-2.43985e-06
-1.62255e-06
-2.19516e-06
-1.73829e-06
-1.93615e-06
-1.81486e-06
-1.66834e-06
-1.84854e-06
-1.39788e-06
-1.8364e-06
-1.13144e-06
-1.77648e-06
-8.76174e-07
-1.66808e-06
-6.39514e-07
-1.51193e-06
-4.29089e-07
-1.31041e-06
-2.52546e-07
-1.06772e-06
-1.17408e-07
-7.89912e-07
-3.09368e-08
-4.84922e-07
-1.63008e-07
-3.45868e-08
2.05977e-07
-1.29582e-07
5.95657e-07
-2.76113e-07
9.51988e-07
-4.65368e-07
1.26685e-06
-6.88728e-07
1.53464e-06
-9.37879e-07
1.75162e-06
-1.20491e-06
1.91579e-06
-1.48237e-06
2.02667e-06
-1.76336e-06
2.08505e-06
-2.04153e-06
2.09278e-06
-2.31113e-06
2.05253e-06
-2.56702e-06
1.9676e-06
-2.80462e-06
1.84172e-06
-3.01992e-06
1.67896e-06
-3.20946e-06
1.48361e-06
-3.37031e-06
1.26009e-06
-3.50001e-06
1.01296e-06
-3.59657e-06
7.46821e-07
-3.65846e-06
4.664e-07
-3.68461e-06
1.76509e-07
-3.6744e-06
-1.17919e-07
-3.62766e-06
-4.11808e-07
-3.54474e-06
-6.99925e-07
-3.4265e-06
-9.76878e-07
-3.2744e-06
-1.23713e-06
-3.09048e-06
-1.47504e-06
-2.87751e-06
-1.68492e-06
-2.63893e-06
-1.86113e-06
-2.37896e-06
-1.99825e-06
-2.1026e-06
-2.09121e-06
-1.81563e-06
-2.13551e-06
-1.52458e-06
-2.12745e-06
-1.23665e-06
-2.06441e-06
-9.59642e-07
-1.94508e-06
-7.01827e-07
-1.76974e-06
-4.71759e-07
-1.54048e-06
-2.78108e-07
-1.26137e-06
-1.29465e-07
-9.38556e-07
-3.41493e-08
-5.80238e-07
-1.97157e-07
-3.75735e-08
2.4355e-07
-1.40616e-07
6.98699e-07
-2.9926e-07
1.11063e-06
-5.03686e-07
1.47128e-06
-7.44313e-07
1.77526e-06
-1.01195e-06
2.01926e-06
-1.29793e-06
2.20176e-06
-1.59416e-06
2.3229e-06
-1.89326e-06
2.38414e-06
-2.18851e-06
2.38803e-06
-2.4739e-06
2.33793e-06
-2.74414e-06
2.23783e-06
-2.99458e-06
2.09216e-06
-3.22121e-06
1.90559e-06
-3.4206e-06
1.68299e-06
-3.58983e-06
1.42933e-06
-3.72653e-06
1.14965e-06
-3.82872e-06
8.49017e-07
-3.89491e-06
5.32586e-07
-3.92399e-06
2.05588e-07
-3.91528e-06
-1.26626e-07
-3.86854e-06
-4.58549e-07
-3.78398e-06
-7.84487e-07
-3.66231e-06
-1.09854e-06
-3.50482e-06
-1.39462e-06
-3.31341e-06
-1.66645e-06
-3.09068e-06
-1.90764e-06
-2.84e-06
-2.11181e-06
-2.56558e-06
-2.27268e-06
-2.27249e-06
-2.3843e-06
-1.96672e-06
-2.44127e-06
-1.65517e-06
-2.439e-06
-1.34558e-06
-2.37401e-06
-1.04645e-06
-2.24422e-06
-7.66891e-07
-2.0493e-06
-5.16481e-07
-1.79089e-06
-3.04996e-07
-1.47285e-06
-1.42194e-07
-1.10136e-06
-3.75576e-08
-6.84874e-07
-2.34715e-07
-4.06573e-08
2.84207e-07
-1.51958e-07
8.1e-07
-3.22965e-07
1.28164e-06
-5.42778e-07
1.69109e-06
-8.00796e-07
2.03328e-06
-1.0869e-06
2.30537e-06
-1.39163e-06
2.50649e-06
-1.70626e-06
2.63753e-06
-2.02289e-06
2.70077e-06
-2.33447e-06
2.6996e-06
-2.63478e-06
2.63824e-06
-2.91841e-06
2.52146e-06
-3.1807e-06
2.35445e-06
-3.41768e-06
2.14257e-06
-3.626e-06
1.89132e-06
-3.80288e-06
1.60621e-06
-3.946e-06
1.29276e-06
-4.05349e-06
9.56505e-07
-4.12387e-06
6.02975e-07
-4.15606e-06
2.37778e-07
-4.14932e-06
-1.33367e-07
-4.1033e-06
-5.04571e-07
-4.01806e-06
-8.69729e-07
-3.89412e-06
-1.22248e-06
-3.73255e-06
-1.5562e-06
-3.53501e-06
-1.86399e-06
-3.3039e-06
-2.13875e-06
-3.04242e-06
-2.37329e-06
-2.75467e-06
-2.56043e-06
-2.44575e-06
-2.69322e-06
-2.12181e-06
-2.76521e-06
-1.79007e-06
-2.77075e-06
-1.45878e-06
-2.7053e-06
-1.13716e-06
-2.56584e-06
-8.3525e-07
-2.3512e-06
-5.63707e-07
-2.06243e-06
-3.33529e-07
-1.70303e-06
-1.55771e-07
-1.27912e-06
-4.12152e-08
-7.9943e-07
-2.7593e-07
-4.38687e-08
3.28076e-07
-1.63707e-07
9.29838e-07
-3.47403e-07
1.46533e-06
-5.82882e-07
1.92657e-06
-8.58431e-07
2.30883e-06
-1.16295e-06
2.60988e-06
-1.48613e-06
2.82967e-06
-1.81859e-06
2.96999e-06
-2.15195e-06
3.03413e-06
-2.47883e-06
3.02649e-06
-2.79285e-06
2.95226e-06
-3.08855e-06
2.81717e-06
-3.36134e-06
2.62723e-06
-3.60735e-06
2.38858e-06
-3.8234e-06
2.10737e-06
-4.00686e-06
1.78967e-06
-4.15558e-06
1.44149e-06
-4.26782e-06
1.06875e-06
-4.34219e-06
6.77342e-07
-4.37761e-06
2.73195e-07
-4.3733e-06
-1.37675e-07
-4.3288e-06
-5.49069e-07
-4.244e-06
-9.54534e-07
-4.11917e-06
-1.3473e-06
-3.95511e-06
-1.72026e-06
-3.75317e-06
-2.06592e-06
-3.51544e-06
-2.37648e-06
-3.24486e-06
-2.64387e-06
-2.94534e-06
-2.85995e-06
-2.6219e-06
-3.01666e-06
-2.28076e-06
-3.10636e-06
-1.92939e-06
-3.12211e-06
-1.57657e-06
-3.05813e-06
-1.23222e-06
-2.91018e-06
-9.07376e-07
-2.67605e-06
-6.13853e-07
-2.35595e-06
-3.64011e-07
-1.95287e-06
-1.70362e-07
-1.47276e-06
-4.51744e-08
-9.24618e-07
-3.21104e-07
-4.72395e-08
3.75315e-07
-1.75966e-07
1.05856e-06
-3.72755e-07
1.66212e-06
-6.24225e-07
2.17804e-06
-9.17446e-07
2.60205e-06
-1.24024e-06
2.93268e-06
-1.58142e-06
3.17085e-06
-1.93092e-06
3.31949e-06
-2.27988e-06
3.3831e-06
-2.62067e-06
3.36727e-06
-2.94679e-06
3.27838e-06
-3.25281e-06
3.1232e-06
-3.53429e-06
2.9087e-06
-3.78756e-06
2.64186e-06
-4.0097e-06
2.3295e-06
-4.19832e-06
1.97829e-06
-4.3515e-06
1.59467e-06
-4.4677e-06
1.18494e-06
-4.54564e-06
7.55282e-07
-4.5843e-06
3.11856e-07
-4.58288e-06
-1.39099e-07
-4.54078e-06
-5.9116e-07
-4.4577e-06
-1.03761e-06
-4.33364e-06
-1.47137e-06
-4.16902e-06
-1.88488e-06
-3.96481e-06
-2.27012e-06
-3.72271e-06
-2.61858e-06
-3.44526e-06
-2.92133e-06
-3.13604e-06
-3.16916e-06
-2.79988e-06
-3.35282e-06
-2.44297e-06
-3.46327e-06
-2.07297e-06
-3.49211e-06
-1.69908e-06
-3.43202e-06
-1.33197e-06
-3.27729e-06
-9.83668e-07
-3.02435e-06
-6.67301e-07
-2.67232e-06
-3.96732e-07
-2.22344e-06
-1.86134e-07
-1.68336e-06
-4.94878e-08
-1.06126e-06
-3.70592e-07
-5.08053e-08
4.26121e-07
-1.88846e-07
1.19661e-06
-3.99213e-07
1.87249e-06
-6.67048e-07
2.44587e-06
-9.78057e-07
2.91306e-06
-1.31888e-06
3.2735e-06
-1.67739e-06
3.52935e-06
-2.04282e-06
3.68492e-06
-2.40588e-06
3.74615e-06
-2.7587e-06
3.72009e-06
-3.09478e-06
3.61445e-06
-3.40883e-06
3.43725e-06
-3.69663e-06
3.19651e-06
-3.95487e-06
2.9001e-06
-4.18095e-06
2.55558e-06
-4.37284e-06
2.17018e-06
-4.52895e-06
1.75078e-06
-4.64799e-06
1.30397e-06
-4.72886e-06
8.36157e-07
-4.77065e-06
3.53639e-07
-4.77252e-06
-1.37224e-07
-4.73379e-06
-6.29893e-07
-4.6539e-06
-1.11751e-06
-4.53252e-06
-1.59275e-06
-4.36966e-06
-2.04774e-06
-4.16582e-06
-2.47397e-06
-3.92213e-06
-2.86226e-06
-3.64064e-06
-3.20283e-06
-3.32445e-06
-3.48535e-06
-2.97803e-06
-3.69924e-06
-2.60738e-06
-3.83391e-06
-2.22025e-06
-3.87925e-06
-1.82617e-06
-3.82609e-06
-1.43654e-06
-3.66692e-06
-1.06444e-06
-3.39645e-06
-7.24399e-07
-3.01236e-06
-4.31979e-07
-2.51586e-06
-2.03257e-07
-1.91209e-06
-5.42108e-08
-1.21031e-06
-4.24803e-07
-5.46098e-08
4.80731e-07
-2.02486e-07
1.34448e-06
-4.27008e-07
2.09701e-06
-7.11625e-07
2.73049e-06
-1.04049e-06
3.24193e-06
-1.39895e-06
3.63196e-06
-1.77384e-06
3.90424e-06
-2.1537e-06
4.06478e-06
-2.52883e-06
4.12128e-06
-2.89122e-06
4.08249e-06
-3.23448e-06
3.95771e-06
-3.55358e-06
3.75634e-06
-3.84468e-06
3.48761e-06
-4.10493e-06
3.16035e-06
-4.33221e-06
2.78286e-06
-4.52496e-06
2.36293e-06
-4.68199e-06
1.90782e-06
-4.80237e-06
1.42435e-06
-4.88525e-06
9.19043e-07
-4.92986e-06
3.98244e-07
-4.93538e-06
-1.317e-07
-4.90101e-06
-6.64266e-07
-4.82595e-06
-1.19257e-06
-4.70949e-06
-1.70921e-06
-4.55115e-06
-2.20608e-06
-4.35082e-06
-2.6743e-06
-4.109e-06
-3.10409e-06
-3.82702e-06
-3.48481e-06
-3.50735e-06
-3.80502e-06
-3.1539e-06
-4.05268e-06
-2.77232e-06
-4.21549e-06
-2.37023e-06
-4.28134e-06
-1.95742e-06
-4.2389e-06
-1.54593e-06
-4.07841e-06
-1.14993e-06
-3.79245e-06
-7.85475e-07
-3.37682e-06
-4.70044e-07
-2.83129e-06
-2.21912e-07
-2.16022e-06
-5.94042e-08
-1.37282e-06
-4.84207e-07
-5.87092e-08
5.3944e-07
-2.1706e-07
1.50283e-06
-4.56429e-07
2.33638e-06
-7.58291e-07
3.03235e-06
-1.10502e-06
3.58866e-06
-1.48049e-06
4.00743e-06
-1.87044e-06
4.2942e-06
-2.26271e-06
4.45705e-06
-2.64726e-06
4.50582e-06
-3.01606e-06
4.45129e-06
-3.36294e-06
4.30459e-06
-3.68332e-06
4.07672e-06
-3.97391e-06
3.7782e-06
-4.23246e-06
3.4189e-06
-4.45749e-06
3.00789e-06
-4.64803e-06
2.55347e-06
-4.80344e-06
2.06323e-06
-4.92322e-06
1.54412e-06
-5.00685e-06
1.00267e-06
-5.05374e-06
4.4514e-07
-5.06316e-06
-1.22286e-07
-5.03418e-06
-6.93246e-07
-4.96575e-06
-1.261e-06
-4.85675e-06
-1.8182e-06
-4.70613e-06
-2.3567e-06
-4.51308e-06
-2.86735e-06
-4.27728e-06
-3.33989e-06
-3.99921e-06
-3.76288e-06
-3.68047e-06
-4.12376e-06
-3.32419e-06
-4.40897e-06
-2.9354e-06
-4.60429e-06
-2.52139e-06
-4.69534e-06
-2.09204e-06
-4.66826e-06
-1.65991e-06
-4.51054e-06
-1.24028e-06
-4.21209e-06
-8.50837e-07
-3.76626e-06
-5.11236e-07
-3.17089e-06
-2.42302e-07
-2.42915e-06
-6.51381e-08
-1.54998e-06
-5.49345e-07
-6.31791e-08
6.02619e-07
-2.32798e-07
1.67245e-06
-4.87854e-07
2.59144e-06
-8.07479e-07
3.35198e-06
-1.17198e-06
3.95316e-06
-1.56355e-06
4.39901e-06
-1.96678e-06
4.69742e-06
-2.36879e-06
4.85906e-06
-2.7593e-06
4.89634e-06
-3.13045e-06
4.82244e-06
-3.47647e-06
4.65062e-06
-3.79342e-06
4.39366e-06
-4.07875e-06
4.06354e-06
-4.33103e-06
3.67118e-06
-4.54957e-06
3.22643e-06
-4.73414e-06
2.73805e-06
-4.88477e-06
2.21385e-06
-5.00149e-06
1.66084e-06
-5.0842e-06
1.08539e-06
-5.13259e-06
4.93524e-07
-5.14599e-06
-1.0888e-07
-5.12343e-06
-7.1581e-07
-5.06358e-06
-1.32085e-06
-4.96488e-06
-1.9169e-06
-4.82565e-06
-2.49593e-06
-4.64427e-06
-3.04873e-06
-4.41946e-06
-3.56469e-06
-4.15064e-06
-4.0317e-06
-3.83829e-06
-4.4361e-06
-3.48449e-06
-4.76277e-06
-3.09335e-06
-4.99542e-06
-2.67156e-06
-5.11713e-06
-2.2288e-06
-5.11102e-06
-1.77801e-06
-4.96133e-06
-1.33551e-06
-4.65458e-06
-9.20787e-07
-4.18098e-06
-5.55898e-07
-3.53578e-06
-2.64663e-07
-2.72039e-06
-7.14964e-08
-1.74315e-06
-6.20842e-07
-6.8123e-08
6.70742e-07
-2.50014e-07
1.85434e-06
-5.21787e-07
2.86321e-06
-8.59756e-07
3.68995e-06
-1.24178e-06
4.33518e-06
-1.64817e-06
4.8054e-06
-2.06225e-06
5.11149e-06
-2.47051e-06
5.26732e-06
-2.86258e-06
5.28841e-06
-3.23094e-06
5.1908e-06
-3.57051e-06
4.99019e-06
-3.87822e-06
4.70137e-06
-4.15251e-06
4.33783e-06
-4.39297e-06
3.91164e-06
-4.59988e-06
3.43334e-06
-4.77394e-06
2.91211e-06
-4.91595e-06
2.35586e-06
-5.0266e-06
1.77149e-06
-5.1063e-06
1.16509e-06
-5.15506e-06
5.42278e-07
-5.17236e-06
-9.15724e-08
-5.15719e-06
-7.30981e-07
-5.10798e-06
-1.37006e-06
-5.0227e-06
-2.00218e-06
-4.89899e-06
-2.61965e-06
-4.73431e-06
-3.2134e-06
-4.52631e-06
-3.7727e-06
-4.2731e-06
-4.28491e-06
-3.97382e-06
-4.73539e-06
-3.62912e-06
-5.10746e-06
-3.24187e-06
-5.38268e-06
-2.81775e-06
-5.54125e-06
-2.36591e-06
-5.56286e-06
-1.89943e-06
-5.42781e-06
-1.43557e-06
-5.11845e-06
-9.95626e-07
-4.62092e-06
-6.04428e-07
-3.92698e-06
-2.89283e-07
-3.03553e-06
-7.85843e-08
-1.95385e-06
-6.99426e-07
-7.36841e-08
7.44426e-07
-2.69135e-07
2.04979e-06
-5.58907e-07
3.15298e-06
-9.15866e-07
4.0469e-06
-1.31496e-06
4.73428e-06
-1.73436e-06
5.2248e-06
-2.15605e-06
5.53318e-06
-2.56602e-06
5.67729e-06
-2.95402e-06
5.67642e-06
-3.31318e-06
5.54996e-06
-3.63941e-06
5.31641e-06
-3.9308e-06
4.99276e-06
-4.18709e-06
4.59412e-06
-4.4091e-06
4.13365e-06
-4.59832e-06
3.62256e-06
-4.7565e-06
3.07029e-06
-4.88536e-06
2.48472e-06
-4.98635e-06
1.87248e-06
-5.06047e-06
1.23921e-06
-5.10812e-06
5.89927e-07
-5.12901e-06
-7.06819e-08
-5.12211e-06
-7.3788e-07
-5.08564e-06
-1.40653e-06
-5.01712e-06
-2.0707e-06
-4.91345e-06
-2.72331e-06
-4.77116e-06
-3.35569e-06
-4.58663e-06
-3.95723e-06
-4.35652e-06
-4.51502e-06
-4.07828e-06
-5.01362e-06
-3.75084e-06
-5.43491e-06
-3.37532e-06
-5.75819e-06
-2.95596e-06
-5.9606e-06
-2.50091e-06
-6.01791e-06
-2.023e-06
-5.90573e-06
-1.54019e-06
-5.60126e-06
-1.07567e-06
-5.08545e-06
-6.57308e-07
-4.34534e-06
-3.16528e-07
-3.37631e-06
-8.65382e-08
-2.18384e-06
-7.85964e-07
-8.00627e-08
8.24489e-07
-2.90747e-07
2.26048e-06
-6.00124e-07
3.46236e-06
-9.76778e-07
4.42356e-06
-1.39217e-06
5.14966e-06
-1.82202e-06
5.65465e-06
-2.24702e-06
5.95818e-06
-2.65281e-06
6.08308e-06
-3.02963e-06
6.05324e-06
-3.37163e-06
5.89196e-06
-3.6761e-06
5.62088e-06
-3.9427e-06
5.25936e-06
-4.17274e-06
4.82417e-06
-4.36857e-06
4.32948e-06
-4.53304e-06
3.78704e-06
-4.66914e-06
3.20638e-06
-4.77962e-06
2.5952e-06
-4.86678e-06
1.95964e-06
-4.93228e-06
1.30471e-06
-4.97698e-06
6.3463e-07
-5.00087e-06
-4.67967e-08
-5.00296e-06
-7.35786e-07
-4.98131e-06
-1.42818e-06
-4.93302e-06
-2.119e-06
-4.85428e-06
-2.80205e-06
-4.74062e-06
-3.46936e-06
-4.58707e-06
-4.11078e-06
-4.38865e-06
-4.71345e-06
-4.14086e-06
-5.26141e-06
-3.84048e-06
-5.73529e-06
-3.48643e-06
-6.11224e-06
-3.08089e-06
-6.36615e-06
-2.6304e-06
-6.4684e-06
-2.14697e-06
-6.38915e-06
-1.64893e-06
-6.0993e-06
-1.16124e-06
-5.57313e-06
-7.15139e-07
-4.79144e-06
-3.46875e-07
-3.74458e-06
-9.55406e-08
-2.43517e-06
-8.81505e-07
-8.75403e-08
9.12029e-07
-3.15658e-07
2.48859e-06
-6.46652e-07
3.79336e-06
-1.04372e-06
4.82063e-06
-1.47412e-06
5.58006e-06
-1.91087e-06
6.09141e-06
-2.33342e-06
6.38073e-06
-2.72743e-06
6.47709e-06
-3.0841e-06
6.40991e-06
-3.39914e-06
6.207e-06
-3.67172e-06
5.89347e-06
-3.9035e-06
5.49114e-06
-4.09771e-06
5.01837e-06
-4.25847e-06
4.49024e-06
-4.39021e-06
3.91878e-06
-4.49726e-06
3.31343e-06
-4.5835e-06
2.68144e-06
-4.65214e-06
2.02828e-06
-4.70555e-06
1.35812e-06
-4.7451e-06
6.74181e-07
-4.77109e-06
-2.07987e-08
-4.78269e-06
-7.24194e-07
-4.77782e-06
-1.43304e-06
-4.75324e-06
-2.14359e-06
-4.7045e-06
-2.85078e-06
-4.62612e-06
-3.54773e-06
-4.51179e-06
-4.22511e-06
-4.35472e-06
-4.87052e-06
-4.14824e-06
-5.46789e-06
-3.88656e-06
-5.99697e-06
-3.56585e-06
-6.43295e-06
-3.18551e-06
-6.74649e-06
-2.7497e-06
-6.90421e-06
-2.26885e-06
-6.87e-06
-1.76102e-06
-6.60714e-06
-1.25268e-06
-6.08147e-06
-7.78689e-07
-5.26543e-06
-3.80965e-07
-4.1423e-06
-1.05843e-07
-2.71029e-06
-9.87347e-07
-9.65167e-08
1.00855e-06
-3.44975e-07
2.73705e-06
-7.00096e-07
4.14848e-06
-1.11822e-06
5.23875e-06
-1.56154e-06
6.02338e-06
-2.00015e-06
6.53002e-06
-2.41253e-06
6.79311e-06
-2.78494e-06
6.8495e-06
-3.11023e-06
6.73519e-06
-3.38636e-06
6.48313e-06
-3.61502e-06
6.12213e-06
-3.80032e-06
5.67643e-06
-3.94777e-06
5.16583e-06
-4.06353e-06
4.606e-06
-4.15374e-06
4.00899e-06
-4.22415e-06
3.38384e-06
-4.2798e-06
2.73709e-06
-4.32483e-06
2.07331e-06
-4.36233e-06
1.39561e-06
-4.39421e-06
7.06062e-07
-4.42114e-06
6.13177e-09
-4.44246e-06
-7.02877e-07
-4.4561e-06
-1.4194e-06
-4.45856e-06
-2.14113e-06
-4.44488e-06
-2.86447e-06
-4.40867e-06
-3.58394e-06
-4.3423e-06
-4.29148e-06
-4.23716e-06
-4.97565e-06
-4.08421e-06
-5.62085e-06
-3.87474e-06
-6.20644e-06
-3.60158e-06
-6.70611e-06
-3.26056e-06
-7.0875e-06
-2.85246e-06
-7.31231e-06
-2.38505e-06
-7.33741e-06
-1.87517e-06
-7.11702e-06
-1.35029e-06
-6.60636e-06
-8.48947e-07
-5.76677e-06
-4.19674e-07
-4.57157e-06
-1.17799e-07
-3.01217e-06
-1.10515e-06
-1.07567e-07
1.11611e-06
-3.80235e-07
3.00972e-06
-7.62557e-07
4.5308e-06
-1.20205e-06
5.67825e-06
-1.6549e-06
6.47623e-06
-2.08821e-06
6.96332e-06
-2.48005e-06
7.18495e-06
-2.8182e-06
7.18765e-06
-3.09813e-06
7.01512e-06
-3.32096e-06
6.70596e-06
-3.49159e-06
6.29275e-06
-3.61712e-06
5.80197e-06
-3.70571e-06
5.25442e-06
-3.76568e-06
4.66597e-06
-3.80498e-06
4.04829e-06
-3.8308e-06
3.40965e-06
-3.84928e-06
2.75557e-06
-3.86543e-06
2.08947e-06
-3.88303e-06
1.41321e-06
-3.90451e-06
7.27539e-07
-3.93092e-06
3.25413e-08
-3.96185e-06
-6.71945e-07
-3.99535e-06
-1.3859e-06
-4.02782e-06
-2.10865e-06
-4.05396e-06
-2.83833e-06
-4.06668e-06
-3.57122e-06
-4.05719e-06
-4.30097e-06
-4.01515e-06
-5.01769e-06
-3.92908e-06
-5.70691e-06
-3.78714e-06
-6.34839e-06
-3.57822e-06
-6.91503e-06
-3.29373e-06
-7.37198e-06
-2.92986e-06
-7.67618e-06
-2.49031e-06
-7.77696e-06
-1.98931e-06
-7.61802e-06
-1.45425e-06
-7.14142e-06
-9.27189e-07
-6.29383e-06
-4.64224e-07
-5.03454e-06
-1.31923e-07
-3.34447e-06
-1.23707e-06
-1.21532e-07
1.23764e-06
-4.23566e-07
3.31175e-06
-8.36734e-07
4.94397e-06
-1.29716e-06
6.13868e-06
-1.75402e-06
6.93309e-06
-2.17173e-06
7.38104e-06
-2.52908e-06
7.54229e-06
-2.81668e-06
7.47526e-06
-3.03401e-06
7.23245e-06
-3.18644e-06
6.85839e-06
-3.28288e-06
6.38919e-06
-3.33393e-06
5.85302e-06
-3.35062e-06
5.27111e-06
-3.34357e-06
4.65892e-06
-3.32247e-06
4.02719e-06
-3.29578e-06
3.38296e-06
-3.27065e-06
2.73044e-06
-3.25281e-06
2.07164e-06
-3.2466e-06
1.40699e-06
-3.25489e-06
7.3583e-07
-3.27912e-06
5.67694e-08
-3.31918e-06
-6.31877e-07
-3.37337e-06
-1.33172e-06
-3.43819e-06
-2.04383e-06
-3.50824e-06
-2.76828e-06
-3.57607e-06
-3.50339e-06
-3.63203e-06
-4.24501e-06
-3.66432e-06
-4.9854e-06
-3.65921e-06
-5.71203e-06
-3.60157e-06
-6.40603e-06
-3.47601e-06
-7.04059e-06
-3.26862e-06
-7.57936e-06
-2.96964e-06
-7.97517e-06
-2.57687e-06
-8.16973e-06
-2.09993e-06
-8.09496e-06
-1.56439e-06
-7.67695e-06
-1.01502e-06
-6.8432e-06
-5.16333e-07
-5.53323e-06
-1.48977e-07
-3.71182e-06
-1.38605e-06
-1.39672e-07
1.37732e-06
-4.77938e-07
3.65002e-06
-9.25995e-07
5.39203e-06
-1.40528e-06
6.61797e-06
-1.85719e-06
7.385e-06
-2.24448e-06
7.76832e-06
-2.5485e-06
7.84631e-06
-2.76479e-06
7.69155e-06
-2.89853e-06
7.36619e-06
-2.96065e-06
6.92052e-06
-2.96489e-06
6.39343e-06
-2.92575e-06
5.81387e-06
-2.85723e-06
5.20259e-06
-2.77211e-06
4.5738e-06
-2.68159e-06
3.93667e-06
-2.59518e-06
3.29655e-06
-2.52069e-06
2.65595e-06
-2.46434e-06
2.01529e-06
-2.43081e-06
1.37347e-06
-2.42332e-06
7.28338e-07
-2.44362e-06
7.70645e-08
-2.49195e-06
-5.83543e-07
-2.56697e-06
-1.2567e-06
-2.66553e-06
-1.94527e-06
-2.78249e-06
-2.65131e-06
-2.91043e-06
-3.37546e-06
-3.03935e-06
-4.11608e-06
-3.15651e-06
-4.86825e-06
-3.2463e-06
-5.62223e-06
-3.29061e-06
-6.36172e-06
-3.26956e-06
-7.06164e-06
-3.16326e-06
-7.68567e-06
-2.95452e-06
-8.18391e-06
-2.6331e-06
-8.49116e-06
-2.20117e-06
-8.52689e-06
-1.67972e-06
-8.1984e-06
-1.11437e-06
-7.40855e-06
-5.78436e-07
-6.06916e-06
-1.7013e-07
-4.12013e-06
-1.55618e-06
-1.63929e-07
1.54125e-06
-5.47501e-07
4.03359e-06
-1.03432e-06
5.87885e-06
-1.52717e-06
7.11081e-06
-1.95963e-06
7.81746e-06
-2.29508e-06
8.10378e-06
-2.52054e-06
8.07177e-06
-2.63932e-06
7.81033e-06
-2.66448e-06
7.39135e-06
-2.61386e-06
6.8699e-06
-2.50669e-06
6.28625e-06
-2.36151e-06
5.66869e-06
-2.19511e-06
5.03619e-06
-2.02204e-06
4.40073e-06
-1.85454e-06
3.76917e-06