/*--------------------------------*- C++ -*----------------------------------*\
  =========                 |
  \\      /  F ield         | OpenFOAM: The Open Source CFD Toolbox
   \\    /   O peration     | Website:  https://openfoam.org
    \\  /    A nd           | Version:  6.0
     \\/     M anipulation  |
\*---------------------------------------------------------------------------*/
FoamFile
{
    version     2.0;
    format      ascii;
    class       volScalarField;
    location    "0.2";
    object      p;
}
// * * * * * * * * * * * * * * * * * * * * * * * * * * * * * * * * * * * * * //

dimensions      [0 2 -2 0 0 0 0];

internalField   nonuniform List<scalar> 
800
(
-8.39051e-09
-0.000764035
-0.00196572
-0.00324037
-0.00435204
-0.00519322
-0.00573365
-0.00598071
-0.00595388
-0.00567083
-0.00514093
-0.00436319
-0.00332598
-0.00200753
-0.000376447
0.00160812
0.00399662
0.00684939
0.0102367
0.0142381
0.0189401
0.0244327
0.0308025
0.0381231
0.0464411
0.0557583
0.0660108
0.0770461
0.0886031
0.1003
0.111641
0.122041
0.130886
0.137622
0.14186
0.143487
0.142757
0.140325
0.137249
0.134918
0.000766744
-2.81901e-05
-0.00100139
-0.00196664
-0.00280758
-0.00344916
-0.00386003
-0.00403397
-0.00397308
-0.00367894
-0.00314827
-0.00237108
-0.00133008
-6.96714e-07
0.00164877
0.00365715
0.00607054
0.00894243
0.0123336
0.0163111
0.0209466
0.0263129
0.032478
0.0394974
0.0474021
0.0561845
0.06578
0.0760489
0.0867585
0.0975736
0.10806
0.117711
0.125994
0.132435
0.136707
0.138726
0.138719
0.137219
0.134912
0.132611
0.00203707
0.000905724
-0.000109393
-0.000966049
-0.00167256
-0.00219511
-0.00251738
-0.00263634
-0.00254963
-0.00225128
-0.00173036
-0.000970601
4.9478e-05
0.00135637
0.00298151
0.00496135
0.00733765
0.0101577
0.0134745
0.0173459
0.0218338
0.0270012
0.0329084
0.0396061
0.0471262
0.0554688
0.0645858
0.0743624
0.0845985
0.0949956
0.105155
0.114599
0.122811
0.129315
0.133765
0.136039
0.136312
0.135027
0.132595
0.129491
0.00343665
0.00181763
0.000608957
-0.000265191
-0.000932791
-0.00140164
-0.0016769
-0.00176692
-0.00167204
-0.00138398
-0.000887743
-0.000163261
0.000813364
0.00206914
0.003634
0.00554096
0.00782664
0.0105318
0.0137018
0.0173871
0.0216426
0.0265269
0.0320996
0.0384167
0.0455231
0.0534402
0.0621504
0.0715759
0.0815572
0.0918328
0.10203
0.111673
0.120222
0.127146
0.132014
0.134608
0.135021
0.13362
0.130641
0.126427
0.00462504
0.0024776
0.00102378
8.10766e-05
-0.000593437
-0.00104695
-0.00130594
-0.00139112
-0.00130691
-0.00104427
-0.000585812
9.06916e-05
0.00100986
0.00219749
0.00368017
0.0054857
0.00764377
0.010187
0.0131523
0.0165818
0.0205243
0.0250358
0.030179
0.0360206
0.0426255
0.0500461
0.0583059
0.0673767
0.0771515
0.0874171
0.097833
0.107927
0.117124
0.124806
0.130416
0.133586
0.134279
0.132773
0.129181
0.123827
0.00531918
0.00264325
0.000928393
-0.000107041
-0.000815443
-0.00128021
-0.00154659
-0.00164594
-0.00158603
-0.00135739
-0.000941227
-0.000314786
0.000545365
0.00166164
0.00305511
0.004746
0.00675492
0.00910442
0.0118211
0.0149382
0.0184981
0.022555
0.0271764
0.0324433
0.0384454
0.0452724
0.0529976
0.0616531
0.0711985
0.0814849
0.0922206
0.102951
0.113067
0.121853
0.12859
0.132706
0.133968
0.132528
0.128375
0.121881
0.00526858
0.002079
0.000105846
-0.00102767
-0.00177959
-0.00226673
-0.00255003
-0.00266882
-0.00263269
-0.00243152
-0.00204604
-0.00145459
-0.000637052
0.000423243
0.00173933
0.00332151
0.00517898
0.00732225
0.00976619
0.0125338
0.0156605
0.0191988
0.0232219
0.0278257
0.0331272
0.0392565
0.0463416
0.0544837
0.0637215
0.0739884
0.0850653
0.0965403
0.107792
0.118013
0.126299
0.131819
0.13407
0.132997
0.128416
0.120759
0.00424024
0.000553528
-0.00166234
-0.00287947
-0.00366192
-0.00415902
-0.00444499
-0.00456472
-0.00452823
-0.0043246
-0.00393508
-0.00334085
-0.00252732
-0.00148591
-0.000213939
0.00128677
0.00301217
0.00495916
0.00712968
0.00953574
0.0122053
0.0151886
0.0185638
0.0224416
0.0269648
0.0323037
0.0386423
0.0461541
0.0549665
0.065112
0.0764703
0.0887074
0.101227
0.113161
0.123421
0.130873
0.134657
0.13439
0.129603
0.120748
0.0020071
-0.00216902
-0.00460064
-0.00586166
-0.00663016
-0.00709065
-0.00733026
-0.00739837
-0.00730489
-0.00703847
-0.00658216
-0.00592178
-0.00505031
-0.0039692
-0.00268784
-0.00122155
0.000411368
0.00219366
0.0041141
0.00617371
0.00839289
0.0108192
0.0135351
0.0166633
0.0203701
0.0248622
0.0303755
0.0371546
0.045418
0.0553086
0.0668279
0.0797577
0.0935798
0.107416
0.120033
0.129977
0.135944
0.137072
0.132414
0.122348
-0.00166666
-0.00634223
-0.0089454
-0.0101709
-0.0108331
-0.0111608
-0.0112569
-0.0111762
-0.0109292
-0.010505
-0.00988973
-0.00907533
-0.00806362
-0.00686712
-0.00550784
-0.00401468
-0.00241973
-0.00075358
0.000960563
0.00271392
0.00452035
0.00642515
0.00851385
0.0109196
0.0138277
0.0174752
0.0221432
0.0281398
0.0357696
0.0452871
0.0568292
0.0703258
0.0853912
0.101214
0.116485
0.129464
0.138343
0.141615
0.137582
0.126359
-0.00705199
-0.0122617
-0.0149565
-0.0159986
-0.0163872
-0.0164144
-0.0162059
-0.015825
-0.0152837
-0.0145722
-0.01368
-0.0126054
-0.0113588
-0.00996321
-0.00845195
-0.00686573
-0.00524824
-0.00364082
-0.00207593
-0.000569466
0.000888116
0.00234129
0.00387896
0.00564295
0.00783386
0.0107129
0.0145973
0.0198477
0.0268432
0.0359406
0.0474117
0.0613512
0.0775521
0.0953502
0.113466
0.129961
0.142528
0.148857
0.146162
0.133966
-0.0145074
-0.0203085
-0.0229363
-0.0235264
-0.023357
-0.0228155
-0.0220608
-0.021167
-0.0201471
-0.0189906
-0.0176879
-0.0162411
-0.0146664
-0.0129937
-0.0112643
-0.0095267
-0.00783208
-0.00622824
-0.00475265
-0.00342431
-0.00223451
-0.00113698
-3.79761e-05
0.00121269
0.0028286
0.00509007
0.00834242
0.012987
0.0194626
0.0282118
0.0396274
0.053967
0.0712265
0.0909571
0.11203
0.132454
0.149508
0.159986
0.159639
0.146895
-0.0245869
-0.0310264
-0.0332561
-0.0329134
-0.031722
-0.0302083
-0.0285705
-0.0268901
-0.0251736
-0.0234015
-0.0215576
-0.0196402
-0.0176641
-0.0156599
-0.0136703
-0.0117457
-0.00993873
-0.00829814
-0.00686109
-0.00564477
-0.00463703
-0.00378631
-0.00299161
-0.00209318
-0.000865038
0.00098957
0.00383843
0.00811474
0.0143033
0.022915
0.0344431
0.0492917
0.0676597
0.0893558
0.113513
0.138271
0.160673
0.176627
0.180078
0.167661
-0.0382713
-0.0452543
-0.0463786
-0.0442576
-0.0413175
-0.0382576
-0.0353001
-0.0325123
-0.0298715
-0.0273287
-0.024844
-0.0223974
-0.0199906
-0.0176444
-0.015394
-0.0132839
-0.0113617
-0.00967065
-0.00824205
-0.0070864
-0.00618381
-0.00547382
-0.00484538
-0.0041273
-0.00308034
-0.00139183
0.00132623
0.00553409
0.0117547
0.0205548
0.0325113
0.0481552
0.0678762
0.0917564
0.119278
0.148907
0.177723
0.200898
0.210344
0.200055
-0.0574753
-0.0643403
-0.0628347
-0.0574834
-0.0517135
-0.0463471
-0.0415578
-0.0373375
-0.0335833
-0.0301767
-0.0270237
-0.0240635
-0.0212674
-0.0186331
-0.0161785
-0.0139341
-0.0119356
-0.0102154
-0.00879437
-0.00767251
-0.00681887
-0.00616149
-0.00557712
-0.00488161
-0.00382144
-0.0020675
0.000788318
0.00523256
0.0118245
0.0211832
0.033964
0.0508178
0.072319
0.0988335
0.130261
0.1656
0.202336
0.235256
0.254291
0.249908
-0.0860881
-0.0904378
-0.0830821
-0.0721163
-0.0620182
-0.0534384
-0.0463103
-0.0404194
-0.0354862
-0.0312555
-0.0275335
-0.0241887
-0.0211421
-0.0183554
-0.0158203
-0.0135474
-0.0115562
-0.00986542
-0.00848337
-0.00739777
-0.00656565
-0.0059029
-0.00527387
-0.00448146
-0.00325818
-0.00125881
0.00194476
0.00686586
0.0141018
0.0243282
0.0382864
0.0567598
0.0805298
0.110285
0.14643
0.188727
0.23555
0.281956
0.31657
0.325781
-0.132154
-0.126791
-0.107262
-0.0871039
-0.0707728
-0.0580394
-0.0482285
-0.0406654
-0.0347279
-0.0299258
-0.0259109
-0.0224505
-0.0193996
-0.0166769
-0.0142449
-0.0120938
-0.0102277
-0.00865297
-0.0073666
-0.00634601
-0.00553814
-0.00484891
-0.00413264
-0.00318192
-0.0017181
0.000617282
0.00426965
0.00977719
0.0177753
0.0290001
0.0442911
0.064592
0.0909457
0.124465
0.166241
0.217141
0.277056
0.342358
0.402428
0.440212
-0.215147
-0.177466
-0.133608
-0.0996979
-0.0752788
-0.0578748
-0.0456088
-0.0369081
-0.0305641
-0.0257512
-0.0219324
-0.0187673
-0.0160491
-0.0136618
-0.0115481
-0.00968655
-0.00807355
-0.00670964
-0.00558703
-0.0046784
-0.00392607
-0.00323135
-0.00244403
-0.00135211
0.000328131
0.00296165
0.00700371
0.013009
0.021642
0.0336905
0.0500871
0.0719435
0.100607
0.137743
0.185437
0.246272
0.322753
0.414901
0.519418
0.61969
-0.390362
-0.243225
-0.148062
-0.0974215
-0.0665829
-0.0468186
-0.0344208
-0.0265845
-0.0213996
-0.0177511
-0.0150008
-0.0127765
-0.0108681
-0.00916836
-0.00763272
-0.00625227
-0.00503468
-0.00398976
-0.00311748
-0.00239708
-0.00177667
-0.00116299
-0.000411367
0.00068445
0.0024022
0.00510102
0.00923149
0.0153466
0.0241153
0.0363431
0.0530053
0.0753097
0.104813
0.143645
0.194934
0.263559
0.35676
0.484777
0.672251
0.92558
-0.730947
-0.304078
-0.120708
-0.0609507
-0.0338004
-0.0188884
-0.0114205
-0.00797119
-0.00635265
-0.00550476
-0.00493976
-0.0044239
-0.00385636
-0.00321344
-0.00251405
-0.00179736
-0.0011081
-0.000485454
4.64141e-05
0.000487388
0.000870417
0.00127069
0.001815
0.00269123
0.00415802
0.00655431
0.0103092
0.0159525
0.0241281
0.035613
0.0513498
0.0725082
0.100607
0.137773
0.187348
0.255448
0.354838
0.514592
0.81712
1.3637
)
;

boundaryField
{
    movingWall
    {
        type            zeroGradient;
    }
    fixedWalls
    {
        type            zeroGradient;
    }
    frontAndBack
    {
        type            empty;
    }
}


// ************************************************************************* //
