1.275 	2.15223e-18 	-2.76991e-20 	-0.0340436 	-0.000442388 	-1.98474e-22
1.825 	2.15223e-18 	-1.39322e-20 	-0.00870122 	-0.00277181 	1.78223e-21
2.375 	2.15223e-18 	-2.66896e-23 	0.117477 	-0.00327735 	-7.43952e-22
