/*--------------------------------*- C++ -*----------------------------------*\
  =========                 |
  \\      /  F ield         | OpenFOAM: The Open Source CFD Toolbox
   \\    /   O peration     | Website:  https://openfoam.org
    \\  /    A nd           | Version:  6.0
     \\/     M anipulation  |
\*---------------------------------------------------------------------------*/
FoamFile
{
    version     2.0;
    format      ascii;
    class       surfaceScalarField;
    location    "4.5";
    object      phi;
}
// * * * * * * * * * * * * * * * * * * * * * * * * * * * * * * * * * * * * * //

dimensions      [0 3 -1 0 0 0 0];

internalField   nonuniform List<scalar> 
47678
(
2.98103e-05
0.00388594
1.48097e-09
5.9844e-05
0.00381847
8.91103e-05
0.00368584
0.00011696
0.00349004
0.000142852
0.00323442
0.000166312
0.00292348
0.000186916
0.0025627
0.000204298
0.0021583
0.000218148
0.00171733
0.000228224
0.00124715
0.000234337
0.000756319
0.000255599
0.000236762
2.96177e-05
0.00385632
5.26319e-09
5.94616e-05
0.00378862
8.85432e-05
0.00365676
0.000116216
0.00346236
0.000141945
0.00320869
0.000165255
0.00290017
0.000185727
0.00254223
0.000202997
0.00214103
0.00021676
0.00170357
0.000226767
0.00123714
0.000232921
0.000750155
0.000253061
0.000235444
2.94265e-05
0.00382689
8.87452e-09
5.90821e-05
0.00375897
8.79805e-05
0.00362786
0.000115479
0.00343487
0.000141045
0.00318313
0.000164207
0.00287701
0.000184548
0.00252188
0.000201708
0.00212387
0.000215383
0.00168989
0.000225319
0.0012272
0.000231447
0.000744029
0.000250567
0.000233949
2.92369e-05
0.00379764
1.22515e-08
5.87055e-05
0.0037295
8.74218e-05
0.00359914
0.000114747
0.00340754
0.000140151
0.00315772
0.000163166
0.00285399
0.000183377
0.00250167
0.000200426
0.00210681
0.000214015
0.0016763
0.000223883
0.00121733
0.000229958
0.000737946
0.000248107
0.000232405
2.90489e-05
0.00376857
1.53691e-08
5.83317e-05
0.00370022
8.68668e-05
0.00357061
0.00011402
0.00338039
0.000139263
0.00313248
0.000162131
0.00283112
0.000182213
0.00248159
0.000199153
0.00208987
0.000212656
0.0016628
0.000222459
0.00120753
0.000228478
0.000731928
0.000245727
0.000230867
2.88626e-05
0.00373969
1.81871e-08
5.79607e-05
0.00367112
8.63155e-05
0.00354225
0.000113296
0.0033534
0.00013838
0.00310739
0.000161102
0.0028084
0.000181056
0.00246163
0.000197887
0.00207304
0.000211304
0.00164937
0.000221046
0.00119778
0.000227016
0.000725952
0.000243384
0.000229345
2.86777e-05
0.003711
2.06774e-08
5.75922e-05
0.00364221
8.57678e-05
0.00351407
0.000112578
0.00332659
0.000137502
0.00308247
0.00016008
0.00278582
0.000179906
0.00244181
0.000196629
0.00205632
0.000209962
0.00163604
0.000219645
0.0011881
0.000225568
0.000720031
0.000241117
0.000227843
2.84942e-05
0.00368248
2.28111e-08
5.72262e-05
0.00361348
8.52235e-05
0.00348608
0.000111864
0.00329995
0.000136629
0.0030577
0.000159063
0.00276338
0.000178763
0.0024221
0.000195379
0.0020397
0.000208627
0.00162279
0.000218253
0.00117847
0.000224135
0.000714143
0.000238877
0.000226362
2.83122e-05
0.00365414
2.45721e-08
5.68627e-05
0.00358493
8.46827e-05
0.00345826
0.000111154
0.00327348
0.000135762
0.00303309
0.000158053
0.00274109
0.000177627
0.00240253
0.000194137
0.00202319
0.000207301
0.00160963
0.000216869
0.00116891
0.000222713
0.000708303
0.000236693
0.000224902
2.81314e-05
0.00362599
2.5951e-08
5.65015e-05
0.00355656
8.41454e-05
0.00343061
0.000110449
0.00324718
0.000134901
0.00300864
0.000157049
0.00271894
0.000176498
0.00238308
0.000192902
0.00200678
0.000205983
0.00159654
0.000215495
0.00115939
0.000221301
0.000702491
0.000234522
0.00022346
2.79519e-05
0.00359801
2.69562e-08
5.61426e-05
0.00352837
8.36113e-05
0.00340314
0.000109748
0.00322104
0.000134044
0.00298435
0.000156052
0.00269693
0.000175376
0.00236376
0.000191676
0.00199048
0.000204673
0.00158355
0.000214129
0.00114994
0.0002199
0.000696723
0.000232397
0.000222032
2.77737e-05
0.00357021
2.76225e-08
5.57859e-05
0.00350035
8.30806e-05
0.00337585
0.000109051
0.00319507
0.000133193
0.0029602
0.00015506
0.00267507
0.000174261
0.00234455
0.000190457
0.00197429
0.000203372
0.00157063
0.000212771
0.00114053
0.000218509
0.000690979
0.000230279
0.000220615
2.75967e-05
0.00354258
2.79923e-08
5.54315e-05
0.00347252
8.25532e-05
0.00334873
0.000108359
0.00316926
0.000132347
0.00293621
0.000154075
0.00265334
0.000173154
0.00232548
0.000189246
0.00195819
0.000202079
0.0015578
0.000211421
0.00113119
0.000217126
0.000685279
0.000228203
0.000219208
2.74209e-05
0.00351513
2.81214e-08
5.50794e-05
0.00344486
8.2029e-05
0.00332178
0.000107671
0.00314362
0.000131506
0.00291238
0.000153096
0.00263175
0.000172053
0.00230652
0.000188042
0.0019422
0.000200794
0.00154504
0.00021008
0.00112191
0.000215751
0.000679603
0.000226134
0.00021781
2.72463e-05
0.00348786
2.80708e-08
5.47295e-05
0.00341738
8.15081e-05
0.003295
0.000106987
0.00311814
0.000130671
0.00288869
0.000152123
0.0026103
0.000170959
0.00228768
0.000186847
0.00192632
0.000199517
0.00153237
0.000208746
0.00111268
0.000214384
0.000673969
0.000224105
0.000216422
2.70728e-05
0.00346076
2.78928e-08
5.43818e-05
0.00339007
8.09904e-05
0.00326839
0.000106308
0.00309282
0.00012984
0.00286516
0.000151155
0.00258898
0.000169871
0.00226896
0.000185659
0.00191053
0.000198248
0.00151978
0.000207421
0.0011035
0.000213026
0.000668361
0.00022208
0.000215044
2.69006e-05
0.00343383
2.76272e-08
5.40362e-05
0.00336293
8.04759e-05
0.00324195
0.000105632
0.00306767
0.000129015
0.00284178
0.000150194
0.0025678
0.000168791
0.00225037
0.000184478
0.00189484
0.000196988
0.00150727
0.000206105
0.00109439
0.000211675
0.000662794
0.000220091
0.000213674
2.67295e-05
0.00340707
2.73011e-08
5.36929e-05
0.00333597
7.99645e-05
0.00321568
0.000104961
0.00304267
0.000128195
0.00281854
0.000149239
0.00254676
0.000167717
0.00223189
0.000183305
0.00187925
0.000195736
0.00149484
0.000204796
0.00108532
0.000210333
0.000657253
0.000218104
0.000212315
2.65595e-05
0.00338049
2.69281e-08
5.33517e-05
0.00330918
7.94563e-05
0.00318957
0.000104293
0.00301784
0.000127379
0.00279546
0.00014829
0.00252585
0.000166651
0.00221353
0.000182139
0.00186377
0.000194491
0.00148249
0.000203496
0.00107632
0.000209
0.000651754
0.000216152
0.000210964
2.63906e-05
0.00335407
2.65142e-08
5.30126e-05
0.00328255
7.89512e-05
0.00316363
0.00010363
0.00299316
0.000126569
0.00277252
0.000147346
0.00250507
0.000165591
0.00219528
0.000180981
0.00184837
0.000193255
0.00147021
0.000202204
0.00106737
0.000207674
0.000646279
0.0002142
0.000209622
2.62227e-05
0.00332782
2.6066e-08
5.26756e-05
0.0032561
7.84492e-05
0.00313786
0.000102971
0.00296863
0.000125764
0.00274973
0.000146409
0.00248442
0.000164537
0.00217716
0.00017983
0.00183308
0.000192027
0.00145802
0.00020092
0.00105848
0.000206357
0.000640846
0.000212281
0.000208289
2.6056e-05
0.00330174
2.55984e-08
5.23407e-05
0.00322982
7.79503e-05
0.00311225
0.000102316
0.00294427
0.000124963
0.00272708
0.000145477
0.00246391
0.00016349
0.00215914
0.000178687
0.00181788
0.000190806
0.0014459
0.000199645
0.00104964
0.000205049
0.000635438
0.000210359
0.000206966
2.58903e-05
0.00327583
2.51424e-08
5.20078e-05
0.0032037
7.74544e-05
0.00308681
0.000101665
0.00292006
0.000124168
0.00270458
0.000144551
0.00244353
0.00016245
0.00214124
0.000177551
0.00180278
0.000189594
0.00143386
0.000198377
0.00104086
0.000203748
0.000630071
0.000208469
0.000205651
2.57256e-05
0.00325008
2.47465e-08
5.16769e-05
0.00317775
7.69616e-05
0.00306152
0.000101018
0.002896
0.000123378
0.00268221
0.000143631
0.00242327
0.000161417
0.00212346
0.000176422
0.00178778
0.000188389
0.00142189
0.000197118
0.00103213
0.000202456
0.000624729
0.000206575
0.000204345
2.55618e-05
0.00322449
2.44758e-08
5.1348e-05
0.00315196
7.64717e-05
0.0030364
0.000100375
0.0028721
0.000122592
0.00266
0.000142717
0.00240315
0.00016039
0.00210578
0.0001753
0.00177287
0.000187192
0.00141
0.000195867
0.00102346
0.000201172
0.000619428
0.000204711
0.000203047
2.53991e-05
0.00319907
2.44014e-08
5.10212e-05
0.00312634
7.59849e-05
0.00301143
9.97356e-05
0.00284835
0.000121812
0.00263792
0.000141809
0.00238315
0.00015937
0.00208822
0.000174186
0.00175805
0.000186003
0.00139818
0.000194623
0.00101483
0.000199896
0.000614151
0.000202842
0.000201758
2.52373e-05
0.0031738
2.45914e-08
5.06962e-05
0.00310088
7.5501e-05
0.00298663
9.91004e-05
0.00282475
0.000121036
0.00261599
0.000140906
0.00236328
0.000158356
0.00207077
0.000173079
0.00174333
0.000184822
0.00138644
0.000193388
0.00100627
0.000198629
0.000608915
0.000201005
0.000200477
2.50765e-05
0.0031487
2.50963e-08
5.03733e-05
0.00307558
7.502e-05
0.00296198
9.84692e-05
0.0028013
0.000120265
0.00259419
0.000140009
0.00234354
0.000157349
0.00205343
0.000171979
0.0017287
0.000183648
0.00137477
0.000192161
0.000997755
0.000197369
0.000603702
0.000199161
0.000199204
2.49165e-05
0.00312376
2.59421e-08
5.00522e-05
0.00305045
7.4542e-05
0.00293749
9.78419e-05
0.002778
0.0001195
0.00257253
0.000139118
0.00232392
0.000156348
0.00203621
0.000170886
0.00171416
0.000182481
0.00136317
0.000190941
0.000989298
0.000196118
0.000598531
0.000197347
0.00019794
2.47575e-05
0.00309898
2.71237e-08
4.97331e-05
0.00302547
7.4067e-05
0.00291316
9.72185e-05
0.00275485
0.000118738
0.00255101
0.000138233
0.00230442
0.000155353
0.00201908
0.0001698
0.00169971
0.000181323
0.00135165
0.00018973
0.000980888
0.000194874
0.000593382
0.000195527
0.000196684
2.45994e-05
0.00307435
2.86095e-08
4.9416e-05
0.00300066
7.35948e-05
0.00288898
9.6599e-05
0.00273184
0.000117982
0.00252963
0.000137353
0.00228505
0.000154365
0.00200207
0.000168721
0.00168536
0.000180171
0.0013402
0.000188526
0.000972536
0.000193639
0.000588275
0.000193737
0.000195436
2.44421e-05
0.00304988
3.03459e-08
4.91007e-05
0.002976
7.31256e-05
0.00286496
9.59833e-05
0.00270899
0.000117231
0.00250838
0.000136479
0.00226581
0.000153383
0.00198517
0.000167649
0.00167109
0.000179028
0.00132882
0.00018733
0.000964232
0.000192411
0.00058319
0.000191942
0.000194196
2.42857e-05
0.00302556
3.22707e-08
4.87873e-05
0.0029515
7.26592e-05
0.00284108
9.53715e-05
0.00268627
0.000116484
0.00248727
0.00013561
0.00224668
0.000152408
0.00196837
0.000166584
0.00165692
0.000177891
0.00131752
0.000186142
0.000955984
0.000191191
0.000578145
0.000190176
0.000192964
2.41302e-05
0.0030014
3.43209e-08
4.84758e-05
0.00292715
7.21957e-05
0.00281736
9.47636e-05
0.00266371
0.000115742
0.00246629
0.000134747
0.00222767
0.000151439
0.00195168
0.000165525
0.00164283
0.000176762
0.00130628
0.000184961
0.000947783
0.000189979
0.000573124
0.000188407
0.00019174
2.39756e-05
0.00297738
3.6445e-08
4.81662e-05
0.00290296
7.17351e-05
0.0027938
9.41595e-05
0.00264128
0.000115005
0.00244545
0.000133889
0.00220879
0.000150476
0.00193509
0.000164474
0.00162883
0.00017564
0.00129511
0.000183788
0.000939638
0.000188775
0.000568141
0.000186666
0.000190523
2.38218e-05
0.00295352
3.86045e-08
4.78584e-05
0.00287892
7.12773e-05
0.00277038
9.35591e-05
0.002619
0.000114272
0.00242473
0.000133037
0.00219003
0.000149519
0.00191861
0.000163429
0.00161492
0.000174525
0.00128402
0.000182622
0.000931538
0.000187578
0.000563182
0.000184922
0.000189315
2.36689e-05
0.00292981
4.07789e-08
4.75525e-05
0.00285504
7.08224e-05
0.00274711
9.29626e-05
0.00259686
0.000113544
0.00240415
0.000132191
0.00217138
0.000148568
0.00190223
0.000162391
0.0016011
0.000173418
0.00127299
0.000181464
0.000923495
0.000186389
0.000558262
0.000183207
0.000188114
2.35169e-05
0.00290625
4.29586e-08
4.72485e-05
0.00283131
7.03703e-05
0.00272399
9.23698e-05
0.00257486
0.000112821
0.0023837
0.000131349
0.00215285
0.000147624
0.00188596
0.00016136
0.00158737
0.000172317
0.00126203
0.000180313
0.000915497
0.000185208
0.000553364
0.000181488
0.000186921
2.33657e-05
0.00288284
4.51442e-08
4.69463e-05
0.00280773
6.9921e-05
0.00270101
9.17807e-05
0.002553
0.000112102
0.00236338
0.000130513
0.00213444
0.000146685
0.00186979
0.000160335
0.00157372
0.000171224
0.00125114
0.00017917
0.000907554
0.000184034
0.000548505
0.000179797
0.000185736
2.32153e-05
0.00285958
4.73362e-08
4.66459e-05
0.0027843
6.94745e-05
0.00267818
9.11953e-05
0.00253128
0.000111388
0.00234319
0.000129683
0.00211614
0.000145753
0.00185372
0.000159317
0.00156015
0.000170137
0.00124032
0.000178034
0.000899655
0.000182868
0.000543669
0.000178102
0.000184558
2.30659e-05
0.00283647
4.95342e-08
4.63474e-05
0.00276102
6.90308e-05
0.0026555
9.06137e-05
0.0025097
0.000110678
0.00232312
0.000128858
0.00209797
0.000144826
0.00183775
0.000158305
0.00154668
0.000169058
0.00122957
0.000176905
0.000891812
0.000181709
0.00053887
0.000176435
0.000183388
2.29172e-05
0.0028135
5.17289e-08
4.60507e-05
0.00273788
6.85898e-05
0.00263296
9.00357e-05
0.00248825
0.000109973
0.00230318
0.000128038
0.0020799
0.000143906
0.00182188
0.0001573
0.00153328
0.000167985
0.00121888
0.000175784
0.000884011
0.000180557
0.000534094
0.000174764
0.000182226
2.27695e-05
0.00279067
5.39054e-08
4.57558e-05
0.0027149
6.81516e-05
0.00261057
8.94613e-05
0.00246694
0.000109273
0.00228337
0.000127223
0.00206195
0.000142991
0.00180611
0.000156301
0.00151997
0.00016692
0.00120827
0.000174669
0.000876266
0.000179413
0.000529356
0.000173119
0.000181071
2.26226e-05
0.002768
5.60398e-08
4.54627e-05
0.00269206
6.77162e-05
0.00258831
8.88906e-05
0.00244577
0.000108576
0.00226369
0.000126414
0.00204411
0.000142082
0.00179044
0.000155309
0.00150675
0.000165861
0.00119771
0.000173562
0.000868563
0.000178276
0.000524639
0.00017147
0.000179924
2.24766e-05
0.00274546
5.81065e-08
4.51714e-05
0.00266936
6.72835e-05
0.0025662
8.83236e-05
0.00242473
0.000107885
0.00224413
0.000125609
0.00202639
0.000141179
0.00177488
0.000154323
0.00149361
0.000164809
0.00118723
0.000172462
0.000860914
0.000177147
0.000519959
0.000169846
0.000178783
2.23314e-05
0.00272307
6.00771e-08
4.4882e-05
0.00264681
6.68535e-05
0.00254423
8.77601e-05
0.00240382
0.000107197
0.00222469
0.00012481
0.00200878
0.000140282
0.0017594
0.000153343
0.00148054
0.000163764
0.00117681
0.000171368
0.000853307
0.000176024
0.000515302
0.000168218
0.000177651
2.21872e-05
0.00270082
6.19288e-08
4.45943e-05
0.0026244
6.64262e-05
0.0025224
8.72002e-05
0.00238305
0.000106515
0.00220537
0.000124016
0.00199128
0.000139391
0.00174403
0.00015237
0.00146757
0.000162725
0.00116645
0.000170282
0.000845753
0.000174909
0.000510682
0.000166615
0.000176525
2.20438e-05
0.00267872
6.36433e-08
4.43084e-05
0.00260214
6.60017e-05
0.0025007
8.66439e-05
0.0023624
0.000105836
0.00218618
0.000123227
0.00197389
0.000138505
0.00172875
0.000151402
0.00145467
0.000161693
0.00115616
0.000169203
0.000838241
0.000173801
0.000506083
0.000165006
0.000175407
2.19013e-05
0.00265675
6.52125e-08
4.40244e-05
0.00258001
6.55798e-05
0.00247915
8.60911e-05
0.00234189
0.000105162
0.00216711
0.000122443
0.00195661
0.000137625
0.00171357
0.000150441
0.00144185
0.000160668
0.00114594
0.000168131
0.000830782
0.0001727
0.00050152
0.000163421
0.000174295
2.17597e-05
0.00263492
6.66345e-08
4.37421e-05
0.00255803
6.51606e-05
0.00245773
8.55418e-05
0.00232151
0.000104492
0.00214816
0.000121664
0.00193943
0.000136751
0.00169848
0.000149487
0.00142912
0.000159649
0.00113577
0.000167065
0.000823364
0.000171606
0.000496979
0.000161831
0.000173191
2.16189e-05
0.00261324
6.79165e-08
4.34616e-05
0.00253619
6.4744e-05
0.00243645
8.49961e-05
0.00230126
0.000103826
0.00212933
0.00012089
0.00192237
0.000135882
0.00168349
0.000148538
0.00141646
0.000158637
0.00112568
0.000166007
0.000815998
0.000170519
0.000492474
0.000160266
0.000172094
2.14791e-05
0.00259169
6.90682e-08
4.31829e-05
0.00251449
6.43302e-05
0.0024153
8.44539e-05
0.00228113
0.000103165
0.00211062
0.000120122
0.00190541
0.000135019
0.0016686
0.000147595
0.00140389
0.000157631
0.00111564
0.000164955
0.000808672
0.000169439
0.000487989
0.000158695
0.000171003
2.13402e-05
0.00257028
7.0103e-08
4.29059e-05
0.00249292
6.3919e-05
0.00239429
8.39151e-05
0.00226114
0.000102508
0.00209203
0.000119358
0.00188857
0.000134161
0.00165379
0.000146659
0.00139139
0.000156631
0.00110567
0.000163909
0.000801398
0.000168365
0.00048354
0.000157148
0.00016992
2.12022e-05
0.00254901
7.10313e-08
4.26308e-05
0.00247149
6.35104e-05
0.00237341
8.33798e-05
0.00224127
0.000101855
0.00207355
0.000118598
0.00187182
0.000133309
0.00163908
0.000145728
0.00137897
0.000155638
0.00109576
0.000162871
0.000794164
0.000167299
0.000479111
0.000155596
0.000168843
2.10651e-05
0.00252787
7.18631e-08
4.23574e-05
0.0024502
6.31045e-05
0.00235266
8.2848e-05
0.00222152
0.000101207
0.00205519
0.000117844
0.00185519
0.000132462
0.00162447
0.000144804
0.00136663
0.000154652
0.00108591
0.000161839
0.000786981
0.000166239
0.000474717
0.000154068
0.000167774
2.0929e-05
0.00250687
7.26046e-08
4.20858e-05
0.00242904
6.27012e-05
0.00233205
8.23196e-05
0.00220191
0.000100562
0.00203695
0.000117095
0.00183865
0.000131621
0.00160994
0.000143885
0.00135437
0.000153671
0.00107613
0.000160814
0.000779837
0.000165186
0.000470343
0.000152537
0.000166711
2.07937e-05
0.002486
7.32623e-08
4.18159e-05
0.00240802
6.23004e-05
0.00231156
8.17946e-05
0.00218241
9.99219e-05
0.00201882
0.00011635
0.00182222
0.000130785
0.00159551
0.000142972
0.00134218
0.000152697
0.0010664
0.000159795
0.000772744
0.00016414
0.000466004
0.000151031
0.000165655
2.06593e-05
0.00246527
7.38426e-08
4.15479e-05
0.00238713
6.19023e-05
0.00229121
8.1273e-05
0.00216304
9.92858e-05
0.00200081
0.000115611
0.0018059
0.000129954
0.00158116
0.000142065
0.00133007
0.000151729
0.00105674
0.000158782
0.000765689
0.0001631
0.000461684
0.000149521
0.000164605
2.05259e-05
0.00244467
7.43573e-08
4.12815e-05
0.00236637
6.15068e-05
0.00227098
8.07548e-05
0.00214379
9.86537e-05
0.00198291
0.000114876
0.00178968
0.000129129
0.00156691
0.000141164
0.00131804
0.000150768
0.00104714
0.000157777
0.000758685
0.000162068
0.000457399
0.000148035
0.000163563
2.03933e-05
0.0024242
7.48229e-08
4.10169e-05
0.00234575
6.11138e-05
0.00225089
8.02399e-05
0.00212467
9.80257e-05
0.00196513
0.000114145
0.00177356
0.000128309
0.00155275
0.000140268
0.00130608
0.000149812
0.00103759
0.000156777
0.000751719
0.000161041
0.000453133
0.000146546
0.000162527
2.02617e-05
0.00240387
7.52641e-08
4.07541e-05
0.00232526
6.07234e-05
0.00223092
7.97284e-05
0.00210566
9.74018e-05
0.00194745
0.00011342
0.00175754
0.000127495
0.00153867
0.000139379
0.0012942
0.000148863
0.00102811
0.000155784
0.000744801
0.000160022
0.000448901
0.000145081
0.000161497
2.0131e-05
0.00238366
7.57104e-08
4.0493e-05
0.0023049
6.03356e-05
0.00221107
7.92201e-05
0.00208678
9.67818e-05
0.00192989
0.000112699
0.00174162
0.000126685
0.00152468
0.000138495
0.00128239
0.000147919
0.00101868
0.000154797
0.000737922
0.000159008
0.000444689
0.000143613
0.000160475
2.00011e-05
0.00236358
7.61964e-08
4.02336e-05
0.00228466
5.99502e-05
0.00219136
7.87152e-05
0.00206801
9.61659e-05
0.00191244
0.000111983
0.00172581
0.000125881
0.00151079
0.000137616
0.00127065
0.000146982
0.00100932
0.000153817
0.000731091
0.000158002
0.00044051
0.000142167
0.000159459
1.98722e-05
0.00234364
7.67556e-08
3.99759e-05
0.00226456
5.95674e-05
0.00217177
7.82135e-05
0.00204936
9.55539e-05
0.0018951
0.000111271
0.00171009
0.000125082
0.00149698
0.000136743
0.00125899
0.000146051
0.00100001
0.000152843
0.000724298
0.000157001
0.000436352
0.000140718
0.000158449
1.97441e-05
0.00232382
7.7419e-08
3.97199e-05
0.00224458
5.91871e-05
0.0021523
7.77151e-05
0.00203084
9.49459e-05
0.00187787
0.000110564
0.00169447
0.000124288
0.00148325
0.000135876
0.0012474
0.000145125
0.000990767
0.000151875
0.000717553
0.000156007
0.000432225
0.000139291
0.000157446
1.96169e-05
0.00230412
7.82084e-08
3.94656e-05
0.00222473
5.88092e-05
0.00213296
7.72199e-05
0.00201243
9.43418e-05
0.00186075
0.000109861
0.00167895
0.000123499
0.00146962
0.000135015
0.00123589
0.000144206
0.000981576
0.000150913
0.000710845
0.00015502
0.000428119
0.000137861
0.00015645
1.94906e-05
0.00228455
7.91371e-08
3.9213e-05
0.00220501
5.84338e-05
0.00211373
7.67279e-05
0.00199413
9.37416e-05
0.00184373
0.000109163
0.00166353
0.000122715
0.00145607
0.000134158
0.00122445
0.000143292
0.000972445
0.000149958
0.000704183
0.000154039
0.000424044
0.00013645
0.000155459
1.93651e-05
0.00226511
8.02055e-08
3.8962e-05
0.00218541
5.80608e-05
0.00209464
7.6239e-05
0.00197595
9.31452e-05
0.00182683
0.00010847
0.00164821
0.000121936
0.0014426
0.000133308
0.00121307
0.000142384
0.000963368
0.000149008
0.000697559
0.000153064
0.00041999
0.000135037
0.000154475
1.92405e-05
0.00224579
8.14053e-08
3.87127e-05
0.00216594
5.76903e-05
0.00207566
7.57534e-05
0.00195789
9.25527e-05
0.00181003
0.00010778
0.00163298
0.000121162
0.00142922
0.000132463
0.00120178
0.000141482
0.000954352
0.000148065
0.00069098
0.000152095
0.000415966
0.000133644
0.000153498
1.91167e-05
0.00222659
8.27182e-08
3.84651e-05
0.00214659
5.73222e-05
0.0020568
7.52708e-05
0.00193994
9.1964e-05
0.00179333
0.000107096
0.00161785
0.000120393
0.00141592
0.000131623
0.00119055
0.000140586
0.000945388
0.000147128
0.000684439
0.000151133
0.000411962
0.000132248
0.000152526
1.89938e-05
0.00220751
8.41226e-08
3.8219e-05
0.00212737
5.69564e-05
0.00203806
7.47914e-05
0.00192211
9.13791e-05
0.00177675
0.000106415
0.00160281
0.000119629
0.00140271
0.000130788
0.00117939
0.000139696
0.000936484
0.000146196
0.000677942
0.000150176
0.000407989
0.000130872
0.000151561
1.88716e-05
0.00218856
8.55934e-08
3.79746e-05
0.00210826
5.65931e-05
0.00201944
7.4315e-05
0.00190438
9.07979e-05
0.00176026
0.000105739
0.00158787
0.00011887
0.00138958
0.000129959
0.0011683
0.000138811
0.000927633
0.000145271
0.000671482
0.000149226
0.000404034
0.000129493
0.000150601
1.87503e-05
0.00216972
8.71088e-08
3.77318e-05
0.00208928
5.62321e-05
0.00200094
7.38418e-05
0.00188677
9.02204e-05
0.00174388
0.000105068
0.00157302
0.000118116
0.00137653
0.000129136
0.00115728
0.000137932
0.00091884
0.000144352
0.000665066
0.000148282
0.00040011
0.000128134
0.000149648
1.86298e-05
0.002151
8.86487e-08
3.74906e-05
0.00207042
5.58734e-05
0.00198256
7.33715e-05
0.00186927
8.96467e-05
0.00172761
0.0001044
0.00155827
0.000117367
0.00136356
0.000128317
0.00114633
0.000137058
0.000910099
0.000143438
0.000658686
0.000147344
0.000396204
0.000126772
0.000148702
1.85101e-05
0.0021324
9.01993e-08
3.7251e-05
0.00205168
5.5517e-05
0.00196429
7.29043e-05
0.00185189
8.90767e-05
0.00171144
0.000103737
0.00154361
0.000116622
0.00135068
0.000127504
0.00113545
0.000136191
0.000901415
0.000142531
0.00065235
0.000146412
0.000392328
0.000125431
0.000147761
1.83911e-05
0.00211392
9.17491e-08
3.70129e-05
0.00203306
5.5163e-05
0.00194614
7.24401e-05
0.00183461
8.85103e-05
0.00169537
0.000103079
0.00152904
0.000115883
0.00133787
0.000126696
0.00112464
0.000135328
0.000892783
0.000141629
0.000646049
0.000145486
0.000388471
0.000124088
0.000146826
1.82729e-05
0.00209555
9.32923e-08
3.67763e-05
0.00201455
5.48112e-05
0.00192811
7.19789e-05
0.00181744
8.79475e-05
0.0016794
0.000102424
0.00151457
0.000115148
0.00132515
0.000125893
0.0011139
0.000134472
0.000884207
0.000140733
0.000639791
0.000144566
0.000384643
0.000122765
0.000145897
1.81555e-05
0.00207731
9.48221e-08
3.65413e-05
0.00199617
5.44617e-05
0.00191019
7.15206e-05
0.00180038
8.73883e-05
0.00166353
0.000101774
0.00150018
0.000114417
0.00131251
0.000125096
0.00110322
0.000133621
0.000875683
0.000139843
0.000633569
0.000143652
0.000380834
0.000121439
0.000144975
1.80389e-05
0.00205917
9.6335e-08
3.63078e-05
0.0019779
5.41144e-05
0.00189238
7.10653e-05
0.00178343
8.68328e-05
0.00164776
0.000101127
0.00148589
0.000113692
0.00129994
0.000124303
0.00109261
0.000132775
0.000867214
0.000138959
0.000627389
0.000142744
0.000377053
0.000120134
0.000144058
1.7923e-05
0.00204115
9.78233e-08
3.60758e-05
0.00195974
5.37694e-05
0.00187469
7.06129e-05
0.00176659
8.62808e-05
0.00163209
0.000100485
0.00147168
0.000112971
0.00128746
0.000123516
0.00108206
0.000131935
0.000858796
0.00013808
0.000621244
0.000141842
0.000373291
0.000118826
0.000143148
1.78078e-05
0.00202325
9.92811e-08
3.58453e-05
0.0019417
5.34265e-05
0.00185711
7.01634e-05
0.00174985
8.57323e-05
0.00161652
9.98476e-05
0.00145756
0.000112254
0.00127505
0.000122734
0.00107158
0.0001311
0.000850432
0.000137207
0.00061514
0.000140946
0.000369557
0.000117538
0.000142243
1.76933e-05
0.00200545
1.00698e-07
3.56163e-05
0.00192378
5.30859e-05
0.00183963
6.97168e-05
0.00173322
8.51874e-05
0.00160105
9.92137e-05
0.00144354
0.000111543
0.00126272
0.000121957
0.00106117
0.000130271
0.000842118
0.00013634
0.000609071
0.000140056
0.000365841
0.000116247
0.000141345
1.75796e-05
0.00198777
1.02065e-07
3.53887e-05
0.00190597
5.27475e-05
0.00182228
6.9273e-05
0.00171669
8.46459e-05
0.00158568
9.8584e-05
0.0014296
0.000110836
0.00125047
0.000121184
0.00105082
0.000129447
0.000833858
0.000135478
0.000603043
0.000139171
0.000362153
0.000114975
0.000140452
1.74666e-05
0.0019702
1.03372e-07
3.51625e-05
0.00188827
5.24112e-05
0.00180503
6.88321e-05
0.00170027
8.4108e-05
0.0015704
9.79583e-05
0.00141575
0.000110133
0.0012383
0.000120417
0.00104054
0.000128628
0.000825647
0.000134622
0.00059705
0.000138292
0.000358483
0.0001137
0.000139565
1.73542e-05
0.00195275
1.04612e-07
3.49378e-05
0.00187069
5.2077e-05
0.00178789
6.8394e-05
0.00168395
8.35734e-05
0.00155522
9.73367e-05
0.00140199
0.000109435
0.0012262
0.000119655
0.00103032
0.000127815
0.00081749
0.000133772
0.000591096
0.000137419
0.00035484
0.000112445
0.000138684
1.72426e-05
0.0019354
1.05778e-07
3.47145e-05
0.00185322
5.1745e-05
0.00177085
6.79587e-05
0.00166773
8.30424e-05
0.00154014
9.6719e-05
0.00138831
0.000108742
0.00121418
0.000118898
0.00102017
0.000127007
0.000809381
0.000132927
0.000585176
0.000136551
0.000351215
0.000111186
0.000137809
1.71317e-05
0.00191816
1.06867e-07
3.44927e-05
0.00183585
5.14151e-05
0.00175393
6.75262e-05
0.00165162
8.25147e-05
0.00152515
9.61054e-05
0.00137472
0.000108053
0.00120223
0.000118145
0.00101008
0.000126204
0.000801325
0.000132087
0.000579296
0.00013569
0.000347617
0.000109946
0.00013694
1.70214e-05
0.00190103
1.07879e-07
3.42722e-05
0.0018186
5.10873e-05
0.00173711
6.70964e-05
0.00163561
8.19905e-05
0.00151025
9.54957e-05
0.00136121
0.000107368
0.00119036
0.000117398
0.00100005
0.000125406
0.000793317
0.000131253
0.000573449
0.000134833
0.000344036
0.000108702
0.000136076
1.69119e-05
0.00188401
1.08817e-07
3.40531e-05
0.00180146
5.07616e-05
0.0017204
6.66694e-05
0.0016197
8.14696e-05
0.00149545
9.489e-05
0.00134779
0.000106688
0.00117856
0.000116655
0.000990081
0.000124614
0.00078536
0.000130425
0.000567642
0.000133983
0.000340483
0.000107477
0.000135218
1.6803e-05
0.0018671
1.09682e-07
3.38353e-05
0.00178443
5.04379e-05
0.0017038
6.62451e-05
0.0016039
8.0952e-05
0.00148074
9.42881e-05
0.00133446
0.000106013
0.00116684
0.000115917
0.000980177
0.000123827
0.000777451
0.000129602
0.000561867
0.000133138
0.000336946
0.000106248
0.000134365
1.66947e-05
0.0018503
1.1048e-07
3.3619e-05
0.0017675
5.01163e-05
0.0016873
6.58236e-05
0.00158819
8.04379e-05
0.00146613
9.36902e-05
0.0013212
0.000105341
0.00115518
0.000115184
0.000970335
0.000123045
0.000769593
0.000128784
0.000556131
0.000132298
0.000333436
0.000105038
0.000133518
1.65872e-05
0.0018336
1.11215e-07
3.3404e-05
0.00175068
4.97968e-05
0.00167091
6.54048e-05
0.00157258
7.9927e-05
0.00145161
9.30961e-05
0.00130803
0.000104674
0.00114361
0.000114456
0.000960553
0.000122268
0.000761781
0.000127971
0.000550427
0.000131464
0.000329942
0.000103823
0.000132677
1.64803e-05
0.00181701
1.11894e-07
3.31903e-05
0.00173397
4.94793e-05
0.00165462
6.49886e-05
0.00155707
7.94194e-05
0.00143717
9.25059e-05
0.00129495
0.000104012
0.0011321
0.000113733
0.000950834
0.000121496
0.00075402
0.000127164
0.000544762
0.000130636
0.000326474
0.000102627
0.000131841
1.63741e-05
0.00180052
1.1252e-07
3.2978e-05
0.00171737
4.91638e-05
0.00163843
6.45751e-05
0.00154165
7.89152e-05
0.00142283
9.19195e-05
0.00128194
0.000103354
0.00112067
0.000113014
0.000941174
0.000120729
0.000746305
0.000126362
0.000539128
0.000129813
0.000323023
0.000101427
0.000131011
1.62685e-05
0.00178414
1.13101e-07
3.2767e-05
0.00170087
4.88503e-05
0.00162235
6.41643e-05
0.00152634
7.84142e-05
0.00140858
9.1337e-05
0.00126902
0.0001027
0.0011093
0.0001123
0.000931575
0.000119967
0.00073864
0.000125566
0.000533532
0.000128995
0.000319598
0.000100245
0.000130187
1.61635e-05
0.00176787
1.13644e-07
3.25573e-05
0.00168447
4.85389e-05
0.00160636
6.37561e-05
0.00151112
7.79164e-05
0.00139442
9.07582e-05
0.00125618
0.00010205
0.00109801
0.000111591
0.000922034
0.000119211
0.000731019
0.000124775
0.000527968
0.000128183
0.000316188
9.90589e-05
0.000129367
1.60593e-05
0.0017517
1.14162e-07
3.2349e-05
0.00166818
4.82294e-05
0.00159048
6.33506e-05
0.001496
7.74219e-05
0.00138035
9.01832e-05
0.00124341
0.000101405
0.00108679
0.000110886
0.000912555
0.000118459
0.000723449
0.000123988
0.000522441
0.000127376
0.000312805
9.7891e-05
0.000128554
1.59556e-05
0.00173563
1.14667e-07
3.2142e-05
0.00165199
4.79219e-05
0.0015747
6.29477e-05
0.00148097
7.69306e-05
0.00136637
8.9612e-05
0.00123073
0.000100764
0.00107564
0.000110186
0.000903132
0.000117712
0.000715922
0.000123208
0.000516945
0.000126575
0.000309437
9.67181e-05
0.000127745
1.58526e-05
0.00171966
1.15177e-07
3.19362e-05
0.00163591
4.76164e-05
0.00155902
6.25474e-05
0.00146604
7.64425e-05
0.00135247
8.90445e-05
0.00121813
0.000100127
0.00106456
0.00010949
0.000893769
0.00011697
0.000708445
0.000122432
0.000511485
0.000125778
0.000306095
9.55637e-05
0.000126942
1.57503e-05
0.0017038
1.15709e-07
3.17318e-05
0.00161992
4.73128e-05
0.00154344
6.21496e-05
0.0014512
7.59576e-05
0.00133866
8.84807e-05
0.00120561
9.94939e-05
0.00105354
0.000108799
0.000884463
0.000116233
0.000701011
0.000121661
0.000506056
0.000124987
0.000302767
9.44041e-05
0.000126144
1.56486e-05
0.00168803
1.16285e-07
3.15287e-05
0.00160404
4.70112e-05
0.00152795
6.17545e-05
0.00143645
7.54758e-05
0.00132494
8.79206e-05
0.00119316
9.88653e-05
0.0010426
0.000108113
0.000875216
0.000115501
0.000693626
0.000120896
0.000500663
0.000124202
0.000299465
9.3263e-05
0.000125352
1.55475e-05
0.00167237
1.16922e-07
3.13269e-05
0.00158826
4.67115e-05
0.00151257
6.13619e-05
0.0014218
7.49972e-05
0.0013113
8.73641e-05
0.00118079
9.82409e-05