1.45 	0 	0 	-0.00812395 	-0.0025697 	3.78374e-21
2.35 	0 	0 	0.0613512 	-0.00663083 	2.28684e-21
