1.45 	0 	0 	-0.00395882 	-0.00287564 	3.95893e-21
2.35 	0 	0 	0.0746426 	-0.00705454 	2.42072e-21
