1.45 	0 	0 	-0.00589905 	-0.00272042 	3.92581e-21
2.35 	0 	0 	0.0679247 	-0.00682112 	2.44474e-21
