/*--------------------------------*- C++ -*----------------------------------*\
  =========                 |
  \\      /  F ield         | OpenFOAM: The Open Source CFD Toolbox
   \\    /   O peration     | Website:  https://openfoam.org
    \\  /    A nd           | Version:  6.0
     \\/     M anipulation  |
\*---------------------------------------------------------------------------*/
FoamFile
{
    version     2.0;
    format      ascii;
    class       volVectorField;
    location    "0.1";
    object      U;
}
// * * * * * * * * * * * * * * * * * * * * * * * * * * * * * * * * * * * * * //

dimensions      [0 1 -1 0 0 0 0];

internalField   nonuniform List<vector> 
200
(
(-0.000162066 6.94382e-05 0)
(-0.00620496 0.00391343 0)
(-0.020677 0.00610972 0)
(-0.0379198 0.00639538 0)
(-0.0540935 0.00564545 0)
(-0.0676163 0.00452389 0)
(-0.0781159 0.00339969 0)
(-0.0858116 0.00243099 0)
(-0.091124 0.00163821 0)
(-0.0944156 0.000960881 0)
(-0.0958419 0.000294675 0)
(-0.0952772 -0.000484738 0)
(-0.0922979 -0.00149795 0)
(-0.0862395 -0.00282377 0)
(-0.0763728 -0.00443474 0)
(-0.062256 -0.00610655 0)
(-0.0442791 -0.00732288 0)
(-0.0244485 -0.00721047 0)
(-0.00752624 -0.00472303 0)
(-0.000300604 -0.000225221 0)
(-0.00440033 0.00617094 0)
(-0.0238555 0.0223215 0)
(-0.058378 0.0307761 0)
(-0.096905 0.0316537 0)
(-0.132536 0.0281371 0)
(-0.162427 0.0228444 0)
(-0.185809 0.0173665 0)
(-0.203016 0.0124435 0)
(-0.214805 0.00821539 0)
(-0.221847 0.00445084 0)
(-0.224437 0.000713944 0)
(-0.222341 -0.00351347 0)
(-0.214786 -0.00871043 0)
(-0.200582 -0.0151455 0)
(-0.178467 -0.0226167 0)
(-0.147744 -0.0301112 0)
(-0.109173 -0.0354837 0)
(-0.066195 -0.0353517 0)
(-0.0271351 -0.0259114 0)
(-0.00500939 -0.00728538 0)
(-0.00835086 0.0228712 0)
(-0.0391213 0.0589592 0)
(-0.0882296 0.0755326 0)
(-0.139705 0.075901 0)
(-0.185361 0.0669476 0)
(-0.222629 0.0542285 0)
(-0.251213 0.0411648 0)
(-0.271898 0.029352 0)
(-0.285809 0.019087 0)
(-0.293876 0.00985798 0)
(-0.29653 0.000710969 0)
(-0.293568 -0.00947586 0)
(-0.284131 -0.0217255 0)
(-0.266811 -0.0366038 0)
(-0.23997 -0.0536918 0)
(-0.202362 -0.0708928 0)
(-0.154049 -0.0837497 0)
(-0.097922 -0.0852079 0)
(-0.0435257 -0.0670196 0)
(-0.00926652 -0.0259126 0)
(-0.0118968 0.0477645 0)
(-0.0516612 0.108255 0)
(-0.109994 0.131435 0)
(-0.166626 0.128114 0)
(-0.213503 0.110759 0)
(-0.249655 0.0884262 0)
(-0.276113 0.0663532 0)
(-0.294511 0.0467953 0)
(-0.30646 0.0300068 0)
(-0.313147 0.0150485 0)
(-0.315162 0.000348852 0)
(-0.312427 -0.0159034 0)
(-0.304166 -0.0353928 0)
(-0.288921 -0.0591836 0)
(-0.264682 -0.0869554 0)
(-0.229272 -0.115905 0)
(-0.181058 -0.139457 0)
(-0.120719 -0.146329 0)
(-0.0571415 -0.121547 0)
(-0.0132032 -0.0533458 0)
(-0.0159466 0.0797219 0)
(-0.0629795 0.165621 0)
(-0.123982 0.190635 0)
(-0.176431 0.178709 0)
(-0.214795 0.149902 0)
(-0.241152 0.116831 0)
(-0.25848 0.0859715 0)
(-0.269391 0.0596441 0)
(-0.275872 0.0376697 0)
(-0.27922 0.0185062 0)
(-0.280105 -6.77063e-05 0)
(-0.278613 -0.0205389 0)
(-0.274224 -0.0453066 0)
(-0.265688 -0.0761791 0)
(-0.250867 -0.113492 0)
(-0.22665 -0.154625 0)
(-0.189119 -0.191839 0)
(-0.135097 -0.209801 0)
(-0.0698486 -0.184472 0)
(-0.0179251 -0.0886492 0)
(-0.0214772 0.11951 0)
(-0.0739444 0.226487 0)
(-0.128003 0.244202 0)
(-0.163926 0.217468 0)
(-0.182629 0.174997 0)
(-0.190563 0.131841 0)
(-0.192662 0.09438 0)
(-0.192067 0.0640448 0)
(-0.190631 0.0397464 0)
(-0.189365 0.0192265 0)
(-0.188791 -0.000286555 0)
(-0.18913 -0.021781 0)
(-0.190301 -0.0482612 0)
(-0.19169 -0.0824068 0)
(-0.191676 -0.125791 0)
(-0.186927 -0.17722 0)
(-0.171554 -0.22965 0)
(-0.137398 -0.265433 0)
(-0.0817516 -0.250556 0)
(-0.0242544 -0.132953 0)
(-0.0284978 0.170133 0)
(-0.0818536 0.283264 0)
(-0.112694 0.278455 0)
(-0.115617 0.231067 0)
(-0.103075 0.175777 0)
(-0.0857002 0.126511 0)
(-0.0689927 0.087283 0)
(-0.0553145 0.0575387 0)
(-0.0454211 0.0349579 0)
(-0.0394207 0.0166868 0)
(-0.0373534 -0.000259411 0)
(-0.0394694 -0.0189484 0)
(-0.0462644 -0.0425888 0)
(-0.0582456 -0.0745062 0)
(-0.0753015 -0.117756 0)
(-0.0954671 -0.173769 0)
(-0.112881 -0.238953 0)
(-0.115446 -0.297916 0)
(-0.0877993 -0.310465 0)
(-0.0313084 -0.189082 0)
(-0.0311616 0.234608 0)
(-0.0717231 0.318716 0)
(-0.0514151 0.271512 0)
(-0.00227305 0.203379 0)
(0.0489869 0.143194 0)
(0.0924977 0.0968953 0)
(0.125965 0.0636291 0)
(0.149908 0.0403682 0)
(0.165766 0.0238635 0)
(0.174866 0.0112214 0)
(0.177903 -0.000134454 0)
(0.174739 -0.0126945 0)
(0.164336 -0.0291529 0)
(0.144843 -0.0527141 0)
(0.114021 -0.0872945 0)
(0.0703847 -0.137139 0)
(0.0154947 -0.20468 0)
(-0.0408371 -0.284412 0)
(-0.0695069 -0.343403 0)
(-0.0309641 -0.257134 0)
(0.00874888 0.281278 0)
(0.0155217 0.289471 0)
(0.121858 0.199876 0)
(0.230825 0.128652 0)
(0.311771 0.080892 0)
(0.368272 0.0499874 0)
(0.406612 0.0304815 0)
(0.431685 0.0182373 0)
(0.447243 0.0103249 0)
(0.455794 0.00471577 0)
(0.458574 -0.000105766 0)
(0.45561 -0.00548339 0)
(0.445682 -0.0129086 0)
(0.42617 -0.0244147 0)
(0.392892 -0.043142 0)
(0.340091 -0.0740517 0)
(0.260133 -0.124443 0)
(0.14728 -0.202836 0)
(0.032163 -0.302137 0)
(0.0179036 -0.296367 0)
(0.301182 0.14645 0)
(0.397183 0.126774 0)
(0.552942 0.0741343 0)
(0.662823 0.0409149 0)
(0.723661 0.0224231 0)
(0.758102 0.0122028 0)
(0.77839 0.00661179 0)
(0.790303 0.003559 0)
(0.797097 0.00184272 0)
(0.8006 0.000774498 0)
(0.801635 -7.56088e-05 0)
(0.800255 -0.0010456 0)
(0.795766 -0.00251401 0)
(0.786516 -0.00506747 0)
(0.769409 -0.00979481 0)
(0.738781 -0.0188334 0)
(0.682354 -0.0363604 0)
(0.574976 -0.0700526 0)
(0.414129 -0.126031 0)
(0.30974 -0.149047 0)
)
;

boundaryField
{
    movingWall
    {
        type            fixedValue;
        value           uniform (1 0 0);
    }
    fixedWalls
    {
        type            noSlip;
    }
    frontAndBack
    {
        type            empty;
    }
}


// ************************************************************************* //
