1.45 	0 	0 	-0.291381
2.35 	0 	0 	-0.126624
