/*--------------------------------*- C++ -*----------------------------------*\
  =========                 |
  \\      /  F ield         | OpenFOAM: The Open Source CFD Toolbox
   \\    /   O peration     | Website:  https://openfoam.org
    \\  /    A nd           | Version:  6.0
     \\/     M anipulation  |
\*---------------------------------------------------------------------------*/
FoamFile
{
    version     2.0;
    format      ascii;
    class       volScalarField;
    location    "4";
    object      p;
}
// * * * * * * * * * * * * * * * * * * * * * * * * * * * * * * * * * * * * * //

dimensions      [0 2 -2 0 0 0 0];

internalField   nonuniform List<scalar> 
47000
(
0.00749992
0.00847084
0.0102609
0.0126242
0.01523
0.0177054
0.0197714
0.0211905
0.0219036
0.0218821
0.0212655
0.0201451
0.0187273
0.017105
0.0154469
0.0137955
0.0122514
0.0108119
0.00952415
0.00836384
0.0073473
0.00644621
0.00566236
0.00497168
0.00436995
0.00384056
0.0033778
0.00297811
0.00267467
0.00282938
0.00739875
0.00837499
0.0101894
0.0126122
0.0153311
0.0179878
0.0203035
0.0220281
0.0230786
0.0233966
0.0230944
0.022238
0.0210227
0.0195309
0.017938
0.0162865
0.0146929
0.0131567
0.0117417
0.0104241
0.00923332
0.00813908
0.00715149
0.00624269
0.00541222
0.00463937
0.00391855
0.00325047
0.00267007
0.00234135
0.00719273
0.00811084
0.00982576
0.0121293
0.0147371
0.0173189
0.0196141
0.0213789
0.0225238
0.0229745
0.0228234
0.0221162
0.0210326
0.0196428
0.0181186
0.0164995
0.0149068
0.0133418
0.0118758
0.0104871
0.00921213
0.00802156
0.00693068
0.00591209
0.00496956
0.00408435
0.00325731
0.00250138
0.0018346
0.00138651
0.00688916
0.00771995
0.00928107
0.0113877
0.013787
0.0161832
0.0183399
0.0200286
0.0211598
0.0216516
0.0215797
0.0209731
0.0199947
0.0187022
0.0172596
0.0157016
0.01415
0.0126059
0.0111453
0.00974746
0.00845434
0.00723746
0.00611714
0.00506692
0.00409519
0.00318593
0.00234487
0.00159159
0.000919249
0.000426664
0.00649423
0.00723225
0.00862915
0.0105227
0.0126906
0.0148696
0.0168493
0.0184181
0.0194911
0.0199821
0.0199548
0.0194233
0.0185356
0.0173369
0.0159826
0.014501
0.0130126
0.0115173
0.0100934
0.00872131
0.00744645
0.00624167
0.00513085
0.00408892
0.0031275
0.00223226
0.00141106
0.000683602
1.76648e-05
-0.000490336
0.00601134
0.00665921
0.00789753
0.00958374
0.0115228
0.0134819
0.0152745
0.0167071
0.0177005
0.0181678
0.0181626
0.017688
0.0168777
0.0157662
0.0144992
0.0130995
0.0116843
0.0102516
0.00888114
0.00755325
0.00631615
0.00514339
0.00406165
0.00304665
0.00211212
0.00124446
0.000451285
-0.000249281
-0.000907695
-0.0014354
0.00544845
0.0060125
0.00710438
0.00859892
0.0103251
0.0120766
0.0136892
0.0149858
0.0158945
0.0163286
0.0163348
0.0159063
0.015165
0.0141351
0.0129535
0.0116367
0.0102985
0.00893476
0.00762513
0.00635009
0.00515951
0.00402765
0.00298309
0.00200223
0.00110021
0.000263518
-0.000500872
-0.00117725
-0.00182962
-0.00235996
0.00481031
0.00529598
0.00625579
0.00757707
0.00910947
0.0106702
0.0121143
0.0132807
0.0141041
0.0145
0.0145087
0.0141168
0.0134348
0.0124786
0.0113763
0.0101391
0.00887643
0.00758211
0.00633505
0.00511558
0.00397455
0.00288665
0.00188182
0.000936888
6.77899e-05
-0.000738926
-0.0014777
-0.0021342
-0.00278085
-0.00332076
0.00410276
0.00451715
0.00535911
0.00652587
0.00788513
0.00927409
0.0105652
0.0116113
0.0123543
0.0127116
0.0127196
0.0123583
0.0117294
0.0108409
0.00981298
0.00865152
0.00746189
0.00623557
0.00505049
0.00388654
0.00279517
0.00175138
0.00078613
-0.000123399
-0.000960641
-0.00173925
-0.0024546
-0.00309368
-0.00373525
-0.00427203
0.00332699
0.00367643
0.00441355
0.00544274
0.00664713
0.00788166
0.00903361
0.0099689
0.0106354
0.010954
0.0109569
0.0106203
0.0100369
0.0092087
0.00824821
0.00715697
0.00603571
0.00487412
0.00374846
0.00263834
0.00159525
0.000594479
-0.000332395
-0.00120788
-0.00201518
-0.00276787
-0.00346269
-0.00408679
-0.00472268
-0.00526365
0.00248868
0.00277984
0.00342338
0.00433018
0.00539678
0.00649321
0.00752012
0.0083547
0.00895109
0.00923283
0.00922989
0.00891421
0.00837187
0.00759879
0.00670105
0.00567555
0.00461919
0.00351936
0.00245089
0.00139274
0.000396443
-0.000562649
-0.00145241
-0.00229516
-0.00307379
-0.00380204
-0.00447739
-0.00508729
-0.00571745
-0.00625218
0.0015882
0.00182603
0.00238574
0.00318299
0.00412587
0.00509794
0.00601121
0.00675349
0.00728412
0.00753008
0.00751887
0.00722005
0.00671293
0.00598913
0.00514802
0.00418315
0.00318701
0.00214537
0.00113108
0.000122689
-0.000828676
-0.00174752
-0.00260154
-0.00341279
-0.0041642
-0.00486937
-0.00552687
-0.00612354
-0.00674699
-0.00728269
0.000630408
0.000820382
0.0013046
0.00200339
0.00283527
0.00369541
0.00450619
0.00516452
0.00563506
0.00584754
0.00582824
0.00554406
0.00506923
0.00439076
0.00360271
0.00269481
0.001756
0.000769938
-0.000192119
-0.00115239
-0.00206005
-0.00293969
-0.00375879
-0.00453932
-0.00526407
-0.00594676
-0.0065865
-0.0071698
-0.00778631
-0.00831397
-0.00038571
-0.00023947
0.00017626
0.000785867
0.00151703
0.00227548
0.00299248
0.00357356
0.00398774
0.0041681
0.0041393
0.00386699
0.00342012
0.00278256
0.00204273
0.00118769
0.000302362
-0.000631064
-0.00154341
-0.00245735
-0.00332278
-0.00416425
-0.00494936
-0.00569987
-0.0063988
-0.00705963
-0.00768239
-0.00825257
-0.00886108
-0.00938762
-0.00145508
-0.00134803
-0.000994932
-0.000466459
0.000173315
0.000839355
0.00147113
0.00198158
0.00234419
0.00249468
0.00245711
0.00219545
0.00177475
0.00117534
0.000481271
-0.000323596
-0.0011575
-0.00204021
-0.00290416
-0.0037729
-0.00459681
-0.00540069
-0.0061521
-0.00687287
-0.00754598
-0.00818499
-0.00879033
-0.00934688
-0.0099472
-0.0104646
-0.0025792
-0.0025085
-0.00221304
-0.00175903
-0.00120315
-0.000621907
-6.87507e-05
0.000376324
0.000690453
0.000812446
0.000765318
0.000512467
0.00011475
-0.000449764
-0.00110178
-0.00185961
-0.00264513
-0.00347938
-0.0042969
-0.00512175
-0.0059052
-0.00667212
-0.00739041
-0.00808176
-0.00872948
-0.00934685
-0.00993513
-0.010478
-0.0110691
-0.0115838
-0.00375294
-0.00371533
-0.00347313
-0.00308775
-0.00260885
-0.0021054
-0.00162424
-0.00123926
-0.000969565
-0.000873938
-0.000929589
-0.00117418
-0.00154985
-0.0020813
-0.00269287
-0.00340554
-0.00414401
-0.00493113
-0.00570302
-0.00648467
-0.00722797
-0.00795817
-0.00864329
-0.00930517
-0.00992717
-0.0105227
-0.0110932
-0.0116217
-0.0122034
-0.0127081
-0.00497858
-0.00497233
-0.0047798
-0.00445816
-0.00405068
-0.00361928
-0.00320504
-0.00287598
-0.00264817
-0.0025776
-0.00264216
-0.00287966
-0.00323563
-0.0037364
-0.00431035
-0.00498025
-0.00567403
-0.00641573
-0.00714351
-0.00788291
-0.00858683
-0.00928068
-0.00993298
-0.0105655
-0.011162
-0.0117355
-0.0122884
-0.0128023
-0.0133737
-0.0138744
-0.00625106
-0.00627353
-0.00612765
-0.00586538
-0.00552408
-0.00515934
-0.00480678
-0.00452937
-0.00434
-0.0042925
-0.00436477
-0.00459526
-0.00493188
-0.00540312
-0.00594041
-0.00656879
-0.00721872
-0.00791586
-0.00859996
-0.00929748
-0.00996206
-0.0106196
-0.0112388
-0.0118417
-0.0124121
-0.0129633
-0.0134978
-0.0139965
-0.0145574
-0.0150472
-0.00757324
-0.00762352
-0.00752173
-0.00731521
-0.00703594
-0.00673343
-0.00643863
-0.00620951
-0.00605645
-0.00603079
-0.00611091
-0.00633511
-0.00665408
-0.00709752
-0.00760033
-0.00818899
-0.00879691
-0.00945082
-0.0100924
-0.0107487
-0.0113745
-0.0119959
-0.0125822
-0.0131554
-0.0137
-0.0142286
-0.0147447
-0.0152278
-0.0157771
-0.0162619
-0.00893986
-0.00901618
-0.00895608
-0.00880212
-0.00858084
-0.00833639
-0.00809514
-0.00791082
-0.00779113
-0.00778549
-0.00787216
-0.00808985
-0.00839112
-0.00880742
-0.00927622
-0.00982597
-0.0103923
-0.0110035
-0.0116027
-0.012218
-0.0128049
-0.01339
-0.013943
-0.0144862
-0.0150041
-0.0155097
-0.0160066
-0.0164736
-0.0170113
-0.0174843
-0.0103545
-0.0104566
-0.0104365
-0.0103324
-0.010166
-0.00997615
-0.00978537
-0.00964314
-0.00955505
-0.00956829
-0.00966151
-0.00987307
-0.0101579
-0.0105483
-0.0109848
-0.0114969
-0.0120231
-0.0125926
-0.0131503
-0.0137251
-0.0142734
-0.0148223
-0.0153421
-0.0158551
-0.0163465
-0.0168287
-0.0173063
-0.0177566
-0.0182817
-0.0187484
-0.011812
-0.0119383
-0.0119565
-0.0118999
-0.0117852
-0.0116468
-0.0115031
-0.0114001
-0.011341
-0.0113715
-0.01147
-0.011675
-0.011943
-0.0123078
-0.0127121
-0.0131871
-0.0136733
-0.0142013
-0.0147175
-0.0152516
-0.0157611
-0.0162735
-0.0167596
-0.017242
-0.0177061
-0.0181645
-0.0186218
-0.019055
-0.0195674
-0.0200216
-0.0133163
-0.0134672
-0.0135225
-0.0135114
-0.0134462
-0.0133565
-0.0132575
-0.0131915
-0.0131601
-0.0132068
-0.0133104
-0.013509
-0.0137611
-0.0141012
-0.0144745
-0.0149134
-0.0153607
-0.0158479
-0.0163233
-0.0168171
-0.017288
-0.0177639
-0.0182162
-0.0186678
-0.0191044
-0.0195385
-0.0199755
-0.020391
-0.0208897
-0.0213366
-0.014862
-0.0150363
-0.0151276
-0.0151603
-0.0151422
-0.0150987
-0.0150417
-0.0150104
-0.0150044
-0.0150659
-0.0151733
-0.015365
-0.0156007
-0.015916
-0.0162582
-0.0166611
-0.0170693
-0.0175158
-0.0179501
-0.0184035
-0.0188353
-0.0192743
-0.0196923
-0.0201124
-0.0205209
-0.0209302
-0.021346
-0.0217432
-0.0222282
-0.0226617
-0.0164539
-0.0166523
-0.0167789
-0.016854
-0.0168814
-0.0168821
-0.0168653
-0.0168669
-0.0168852
-0.0169605
-0.0170715
-0.0172563
-0.0174762
-0.0177674
-0.0180794
-0.0184471
-0.0188171
-0.0192232
-0.0196168
-0.0200299
-0.0204228
-0.0208247
-0.0212083
-0.0215967
-0.0219768
-0.0223608
-0.0227551
-0.0231334
-0.0236037
-0.0240287
-0.0180862
-0.0183077
-0.018469
-0.0185854
-0.0186565
-0.0186996
-0.0187208
-0.0187534
-0.0187941
-0.0188819
-0.0189954
-0.0191726
-0.019376
-0.0196428
-0.0199243
-0.0202565
-0.020588
-0.0209537
-0.0213062
-0.0216786
-0.022032
-0.0223964
-0.0227448
-0.0231009
-0.0234518
-0.0238099
-0.0241819
-0.0245407
-0.0249962
-0.025407
-0.0197643
-0.0200099
-0.0202056
-0.0203625
-0.0204762
-0.0205602
-0.0206181
-0.0206804
-0.0207426
-0.0208421
-0.0209579
-0.0211274
-0.0213147
-0.0215575
-0.0218091
-0.0221063
-0.0223998
-0.0227253
-0.023037
-0.0233686
-0.0236826
-0.0240091
-0.0243222
-0.0246456
-0.0249669
-0.0252986
-0.0256478
-0.0259866
-0.0264262
-0.0268273
-0.0214821
-0.0217513
-0.0219809
-0.0221777
-0.0223328
-0.0224563
-0.0225492
-0.0226398
-0.0227218
-0.0228319
-0.0229487
-0.0231098
-0.0232804
-0.0234987
-0.0237198
-0.0239818
-0.0242367
-0.0245216
-0.0247919
-0.0250824
-0.0253561
-0.0256443
-0.0259212
-0.0262111
-0.0265021
-0.0268067
-0.0271323
-0.0274504
-0.0278741
-0.0282601
-0.0232456
-0.0235395
-0.0238033
-0.0240395
-0.0242355
-0.0243976
-0.0245246
-0.0246423
-0.0247436
-0.0248637
-0.0249813
-0.0251339
-0.0252878
-0.0254819
-0.0256729
-0.0258998
-0.0261164
-0.0263608
-0.0265898
-0.0268389
-0.0270723
-0.0273216
-0.027562
-0.0278181
-0.0280782
-0.028355
-0.0286566
-0.0289534
-0.0293599
-0.0297351
-0.0250485
-0.0253665
-0.0256645
-0.02594
-0.0261761
-0.0263758
-0.0265357
-0.0266795
-0.0267987
-0.0269276
-0.0270451
-0.0271883
-0.0273247
-0.027494
-0.0276542
-0.0278455
-0.0280232
-0.0282265
-0.0284134
-0.0286205
-0.0288128
-0.0290226
-0.0292256
-0.029447
-0.0296755
-0.0299238
-0.0302004
-0.0304752
-0.0308645
-0.0312235
-0.0268973
-0.0272409
-0.0275735
-0.0278883
-0.0281644
-0.0284013
-0.0285935
-0.0287626
-0.0288993
-0.0290366
-0.0291537
-0.0292874
-0.0294064
-0.0295507
-0.0296803
-0.029836
-0.0299749
-0.030137
-0.0302817
-0.0304465
-0.0305972
-0.030767
-0.0309323
-0.0311183
-0.0313145
-0.0315336
-0.0317847
-0.0320367
-0.0324076
-0.0327545
-0.0287851
-0.029154
-0.0295216
-0.0298758
-0.0301916
-0.0304651
-0.0306889
-0.0308825
-0.0310355
-0.0311804
-0.031296
-0.0314194
-0.0315201
-0.0316389
-0.031737
-0.0318564
-0.0319556
-0.0320758
-0.0321774
-0.0322991
-0.0324074
-0.0325364
-0.0326628
-0.0328127
-0.0329758
-0.0331649
-0.0333895
-0.0336181
-0.0339705
-0.0343
-0.0307192
-0.0311152
-0.0315183
-0.0319125
-0.0322682
-0.0325783
-0.0328335
-0.0330511
-0.0332203
-0.0333723
-0.0334863
-0.033599
-0.0336814
-0.0337744
-0.033841
-0.033924
-0.0339834
-0.0340612
-0.0341196
-0.0341975
-0.034263
-0.0343505
-0.0344376
-0.0345506
-0.0346798
-0.0348381
-0.0350356
-0.0352398
-0.0355724
-0.0358884
-0.0326923
-0.0331149
-0.0335546
-0.0339891
-0.0343848
-0.0347315
-0.0350175
-0.0352587
-0.0354431
-0.0356015
-0.0357129
-0.0358143
-0.0358773
-0.0359438
-0.0359779
-0.0360236
-0.0360422
-0.0360769
-0.0360908
-0.0361242
-0.0361458
-0.0361908
-0.0362375
-0.0363127
-0.036407
-0.0365337
-0.0367031
-0.0368823
-0.037195
-0.0374924
-0.0347123
-0.0351635
-0.0356406
-0.0361163
-0.0365527
-0.0369361
-0.0372531
-0.0375177
-0.0377173
-0.0378818
-0.0379905
-0.0380802
-0.0381237
-0.0381633
-0.0381648
-0.0381728
-0.0381502
-0.0381412
-0.0381103
-0.0380985
-0.0380756
-0.0380774
-0.038083
-0.0381195
-0.0381781
-0.0382723
-0.0384127
-0.0385659
-0.0388573
-0.0391396
-0.0367712
-0.0372511
-0.0377664
-0.0382843
-0.0387619
-0.0391823
-0.0395302
-0.0398179
-0.0400321
-0.040202
-0.0403071
-0.0403843
-0.0404073
-0.0404192
-0.0403869
-0.0403562
-0.0402913
-0.0402376
-0.0401607
-0.0401027
-0.040034
-0.0399916
-0.0399549
-0.0399517
-0.0399736
-0.0400343
-0.0401449
-0.0402714
-0.0405413
-0.0408035
-0.0388776
-0.0393883
-0.0399433
-0.0405044
-0.0410242
-0.0414822
-0.0418614
-0.0421724
-0.0424012
-0.0425764
-0.0426778
-0.0427422
-0.0427443
-0.042728
-0.0426616
-0.0425916
-0.042484
-0.0423849
-0.0422613
-0.0421562
-0.042041
-0.0419534
-0.0418736
-0.0418298
-0.0418141
-0.0418402
-0.04192
-0.0420187
-0.0422655
-0.042511
-0.0410234
-0.0415646
-0.0421606
-0.0427662
-0.0433291
-0.0438253
-0.044236
-0.0445702
-0.0448132
-0.0449933
-0.0450901
-0.0451409
-0.0451212
-0.0450756
-0.0449738
-0.0448636
-0.0447118
-0.0445662
-0.0443946
-0.0442412
-0.0440783
-0.0439444
-0.0438202
-0.0437347
-0.0436801
-0.0436708
-0.0437188
-0.0437888
-0.0440125
-0.0442365
-0.0432173
-0.0437916
-0.0444303
-0.0450818
-0.0456891
-0.0462245
-0.0466674
-0.0470252
-0.0472827
-0.0474674
-0.0475596
-0.0475963
-0.0475545
-0.0474791
-0.0473415
-0.0471901
-0.0469936
-0.0468005
-0.0465801
-0.0463775
-0.0461658
-0.0459845
-0.045815
-0.0456866
-0.0455923
-0.0455464
-0.0455614
-0.0456017
-0.0458004
-0.0460059
-0.0454506
-0.0460583
-0.046741
-0.0474402
-0.048093
-0.0486685
-0.0491441
-0.0495258
-0.0497975
-0.0499866
-0.0500733
-0.0500953
-0.0500302
-0.049924
-0.0497491
-0.0495554
-0.0493127
-0.0490709
-0.0488002
-0.048547
-0.0482853
-0.0480553
-0.0478391
-0.0476667
-0.0475313
-0.0474477
-0.0474289
-0.0474384
-0.0476122
-0.0477944
-0.047733
-0.0483767
-0.0491054
-0.049854
-0.0505542
-0.0511711
-0.0516804
-0.0520864
-0.0523727
-0.0525662
-0.0526475
-0.0526543
-0.0525654
-0.0524277
-0.0522149
-0.051978
-0.0516882
-0.0513966
-0.0510746
-0.0507697
-0.0504568
-0.050177
-0.049913
-0.0496953
-0.0495177
-0.0493952
-0.0493411
-0.0493188
-0.0494656
-0.0496273
-0.0500552
-0.050735
-0.0515117
-0.0523117
-0.0530608
-0.0537203
-0.0542641
-0.054695
-0.0549959
-0.0551935
-0.0552686
-0.0552594
-0.0551456
-0.0549752
-0.0547231
-0.0544416
-0.0541032
-0.0537603
-0.0533855
-0.0530275
-0.0526618
-0.0523308
-0.0520175
-0.0517533
-0.0515322
-0.0513697
-0.0512794
-0.0512242
-0.051344
-0.0514806
-0.0524273
-0.0531462
-0.0539732
-0.0548267
-0.0556267
-0.0563306
-0.0569101
-0.0573666
-0.0576826
-0.0578845
-0.0579534
-0.0579277
-0.0577886
-0.0575847
-0.0572924
-0.0569653
-0.0565772
-0.0561818
-0.0557529
-0.0553404
-0.0549208
-0.0545372
-0.0541734
-0.0538613
-0.0535954
-0.0533915
-0.0532636
-0.0531741
-0.0532648
-0.0533787
-0.0548393
-0.0555979
-0.0564772
-0.0573866
-0.0582396
-0.0589893
-0.0596057
-0.0600886
-0.0604198
-0.0606258
-0.0606878
-0.060645
-0.0604793
-0.0602406
-0.0599066
-0.0595323
-0.0590929
-0.0586434
-0.0581588
-0.0576903
-0.057215
-0.0567773
-0.0563615
-0.0560001
-0.055688
-0.0554416
-0.0552749
-0.0551503
-0.0552117
-0.0552985
-0.0573022
-0.0581037
-0.0590379
-0.0600059
-0.0609141
-0.0617116
-0.0623664
-0.0628767
-0.0632239
-0.0634341
-0.0634893
-0.0634288
-0.0632359
-0.0629615
-0.0625849
-0.0621622
-0.0616701
-0.0611652
-0.0606235
-0.0600974
-0.0595651
-0.0590718
-0.0586025
-0.0581905
-0.0578308
-0.0575403
-0.0573333
-0.0571719
-0.0572019
-0.0572637
-0.0598055
-0.0606503
-0.0616422
-0.0626712
-0.063637
-0.0644843
-0.0651789
-0.0657174
-0.066081
-0.0662955
-0.0663432
-0.0662642
-0.0660429
-0.0657315
-0.0653106
-0.0648379
-0.0642914
-0.0637293
-0.0631286
-0.0625434
-0.0619522
-0.0614018
-0.0608773
-0.0604131
-0.0600043
-0.0596685
-0.0594202
-0.059221
-0.0592192
-0.0592517
-0.0623603
-0.0632523
-0.0643047
-0.0653978
-0.066424
-0.0673233
-0.0680594
-0.0686276
-0.0690082
-0.0692273
-0.0692675
-0.0691696
-0.0689192
-0.0685697
-0.0681034
-0.0675793
-0.066977
-0.0663561
-0.0656949
-0.0650488
-0.0643972
-0.063788
-0.0632069
-0.0626888
-0.0622295
-0.0618467
-0.0615552
-0.0613165
-0.0612808
-0.0612858
-0.0649557
-0.0658957
-0.0670114
-0.0681717
-0.069261
-0.0702147
-0.070994
-0.0715929
-0.0719912
-0.0722149
-0.0722471
-0.0721294
-0.0718487
-0.0714598
-0.0709462
-0.070369
-0.0697089
-0.0690274
-0.0683037
-0.0675949
-0.0668811
-0.0662113
-0.0655718
-0.0649984
-0.0644869
-0.0640558
-0.0637201
-0.0634409
-0.0633709
-0.0633441
-0.0676037
-0.0685958
-0.0697781
-0.071009
-0.0721644
-0.073175
-0.0739998
-0.0746309
-0.0750477
-0.0752765
-0.0753007
-0.0751627
-0.0748509
-0.0744213
-0.0738593
-0.0732273
-0.0725079
-0.0717639
-0.0709761
-0.0702027
-0.0694249
-0.0686928
-0.0679932
-0.0673627
-0.0667974
-0.0663163
-0.0659343
-0.0656128
-0.0655061
-0.0654492
-0.0702928
-0.0713376
-0.07259
-0.0738947
-0.0751196
-0.0761897
-0.0770618
-0.0777265
-0.0781627
-0.0783967
-0.0784124
-0.0782534
-0.0779091
-0.0774373
-0.076825
-0.0761364
-0.0753556
-0.0745472
-0.0736931
-0.0728533
-0.0720095
-0.0712132
-0.0704517
-0.0697624
-0.0691416
-0.0686091
-0.0681797
-0.0678147
-0.067671
-0.0675797
-0.0730349
-0.0741372
-0.0754634
-0.0768459
-0.0781436
-0.0792763
-0.0801982
-0.0808982
-0.0813548
-0.0815944
-0.0816018
-0.081421
-0.0810434
-0.0805282
-0.0798641
-0.0791172
-0.0782731
-0.0773984
-0.0764761
-0.0755679
-0.0746562
-0.0737938
-0.0729685
-0.0722186
-0.0715406
-0.0709547
-0.0704759
-0.0700655
-0.0698821
-0.0697578
-0.0758186
-0.0769794
-0.0783827
-0.0798468
-0.0812209
-0.0824192
-0.0833932
-0.0841302
-0.0846081
-0.0848538
-0.0848523
-0.084649
-0.0842367
-0.0836765
-0.0829587
-0.0821514
-0.0812419
-0.0802987
-0.079306
-0.0783272
-0.0773455
-0.0764151
-0.0755241
-0.0747117
-0.0739747
-0.073334
-0.0728046
-0.0723475
-0.0721241
-0.0719627
-0.0786571
-0.0798808
-0.0813652
-0.0829151
-0.0843696
-0.0856368
-0.0866657
-0.0874416
-0.0879422
-0.0881943
-0.088184
-0.0879577
-0.0875098
-0.0869031
-0.0861299
-0.0852604
-0.0842835
-0.0832697
-0.0822045
-0.081153
-0.0800992
-0.0790987
-0.07814
-0.0772632
-0.0764653
-0.0757677
-0.0751854
-0.0746796
-0.0744134
-0.0742163
-0.0815374
-0.0828248
-0.0843945
-0.0860344
-0.0875733
-0.0889129
-0.0899992
-0.0908161
-0.0913403
-0.0915994
-0.0915799
-0.0913297
-0.0908447
-0.0901899
-0.0893593
-0.0884254
-0.0873787
-0.086292
-0.085152
-0.0840256
-0.0828975
-0.0818248
-0.0807964
-0.0798534
-0.0789927
-0.0782366
-0.0776001
-0.0770444
-0.076735
-0.0764982
-0.0844728
-0.0858291
-0.0874884
-0.0892231
-0.090851
-0.0922667
-0.0934136
-0.0942735
-0.0948229
-0.0950896
-0.095061
-0.0947862
-0.094263
-0.0935585
-0.0926687
-0.0916683
-0.0905497
-0.0893879
-0.0881707
-0.0869671
-0.0857625
-0.0846154
-0.0835151
-0.0825037
-0.0815782
-0.0807615
-0.0800684
-0.0794604
-0.0791051
-0.0788293
-0.0874495
-0.0888761
-0.0906294
-0.0924639
-0.0941852
-0.095681
-0.0968914
-0.0977967
-0.0983724
-0.0986473
-0.0986092
-0.098309
-0.0977462
-0.0969902
-0.096039
-0.0949699
-0.093777
-0.0925375
-0.0912408
-0.0899576
-0.0886741
-0.0874504
-0.0862761
-0.0851944
-0.0842021
-0.083323
-0.082572
-0.0819104
-0.0815086
-0.0811907
-0.090482
-0.091984
-0.0938364
-0.0957761
-0.0975958
-0.0991759
-0.100453
-0.101406
-0.10201
-0.102294
-0.102247
-0.10192
-0.101317
-0.100507
-0.0994928
-0.0983528
-0.097083
-0.0957636
-0.0943848
-0.0930196
-0.0916548
-0.0903522
-0.0891016
-0.0879472
-0.0868859
-0.0859422
-0.0851306
-0.084413
-0.0839617
-0.0836012
-0.0935551
-0.095134
-0.097091
-0.0991414
-0.101065
-0.102733
-0.104081
-0.105085
-0.105718
-0.106011
-0.105954
-0.105601
-0.104955
-0.104091
-0.10301
-0.101797
-0.100448
-0.0990458
-0.0975823
-0.0961326
-0.0946842
-0.0933003
-0.0919712
-0.0907421
-0.0896098
-0.0885997
-0.0877261
-0.0869509
-0.0864492
-0.0860436
-0.0966836
-0.0983451
-0.100413
-0.10258
-0.104612
-0.106375
-0.107797
-0.108853
-0.109518
-0.109822
-0.109755
-0.109374
-0.108684
-0.107763
-0.106615
-0.105326
-0.103895
-0.102407
-0.100857
-0.0993198
-0.0977851
-0.0963175
-0.0949075
-0.0936012
-0.0923955
-0.0913166
-0.0903782
-0.0895428
-0.0889873
-0.0885334
-0.0998509
-0.101598
-0.103782
-0.106072
-0.10822
-0.11008
-0.111581
-0.112693
-0.113391
-0.113706
-0.113629
-0.113219
-0.112484
-0.111504
-0.110286
-0.108918
-0.107403
-0.105827
-0.104187
-0.10256
-0.100937
-0.0993831
-0.0978897
-0.0965042
-0.095223
-0.0940733
-0.0930685
-0.0921712
-0.0915607
-0.0910559
-0.103073
-0.104911
-0.107219
-0.10964
-0.111908
-0.113873
-0.115455
-0.116627
-0.11736
-0.117687
-0.1176
-0.117161
-0.11638
-0.115339
-0.114048
-0.112599
-0.110996
-0.10933
-0.107596
-0.105878
-0.104162
-0.10252
-0.100941
-0.0994735
-0.0981143
-0.0968912
-0.0958172
-0.0948552
-0.0941859
-0.0936273
-0.106333
-0.108266
-0.110704
-0.113262
-0.115658
-0.117732
-0.119401
-0.120635
-0.121405
-0.121745
-0.121649
-0.121179
-0.120349
-0.119245
-0.117879
-0.116347
-0.114653
-0.112894
-0.111064
-0.10925
-0.107441
-0.105707
-0.10404
-0.102489
-0.101049
-0.0997507
-0.0986057
-0.0975772
-0.0968478
-0.0962318
-0.109647
-0.111682
-0.114258
-0.116961
-0.119492
-0.12168
-0.123442
-0.124741
-0.12555
-0.125904
-0.125798
-0.125297
-0.124417
-0.123248
-0.121805
-0.120185
-0.118399
-0.116543
-0.114615
-0.112703
-0.110796
-0.108969
-0.10721
-0.105572
-0.10405
-0.102673
-0.101454
-0.100356
-0.0995633
-0.0988889
-0.112998
-0.115138
-0.117859
-0.120715
-0.123388
-0.125698
-0.127555
-0.128923
-0.129774
-0.130143
-0.130027
-0.129494
-0.128563
-0.127326
-0.125802
-0.124094
-0.122211
-0.120255
-0.118226
-0.116213
-0.114207
-0.112282
-0.11043
-0.108703
-0.107096
-0.105639
-0.104344
-0.103175
-0.102317
-0.10158
-0.116402
-0.118656
-0.121531
-0.124548
-0.127371
-0.129808
-0.131767
-0.133208
-0.134103
-0.134488
-0.134362
-0.133796
-0.132811
-0.131505
-0.129898
-0.128097
-0.126115
-0.124057
-0.121922
-0.119805
-0.117696
-0.115673
-0.113724
-0.111905
-0.11021
-0.10867
-0.107296
-0.106053
-0.105126
-0.104327
-0.119842
-0.122214
-0.12525
-0.128437
-0.131417
-0.133989
-0.136054
-0.137572
-0.138513
-0.138916
-0.13878
-0.13818
-0.13714
-0.135761
-0.134069
-0.132173
-0.130088
-0.127924
-0.125682
-0.123458
-0.121243
-0.119117
-0.11707
-0.115157
-0.113371
-0.111746
-0.110291
-0.108971
-0.107975
-0.107109
-0.123336
-0.125833
-0.12904
-0.132406
-0.135552
-0.138265
-0.140443
-0.142042
-0.143032
-0.143454
-0.143308
-0.142673
-0.141575
-0.140123
-0.138341
-0.136347
-0.134156
-0.131883
-0.12953
-0.127195
-0.124872
-0.122641
-0.120492
-0.118481
-0.116602
-0.114889
-0.11335
-0.111951
-0.110881
-0.109948
-0.126863
-0.129492
-0.132878
-0.136432
-0.139752
-0.142614
-0.14491
-0.146595
-0.147636
-0.148078
-0.147922
-0.147251
-0.146095
-0.144565
-0.142692
-0.140595
-0.138296
-0.13591
-0.133443
-0.130995
-0.12856
-0.126221
-0.123968
-0.121858
-0.119883
-0.118079
-0.116454
-0.114973
-0.113829
-0.112824
-0.130444
-0.133212
-0.136787
-0.140539
-0.144043
-0.147061
-0.149483
-0.151257
-0.152353
-0.152816
-0.15265
-0.151942
-0.150725
-0.149115
-0.147147
-0.144946
-0.142534
-0.140033
-0.137447
-0.134884
-0.132334
-0.129884
-0.127522
-0.125309
-0.123236
-0.121339
-0.119624
-0.118058
-0.116835
-0.115759
-0.134057
-0.136969
-0.140742
-0.144703
-0.1484
-0.151583
-0.154135
-0.156004
-0.157158
-0.157644
-0.157468
-0.156721
-0.155441
-0.15375
-0.151684
-0.149374
-0.146847
-0.144226
-0.14152
-0.138836
-0.136169
-0.133605
-0.131133
-0.128815
-0.12664
-0.124647
-0.12284
-0.121188
-0.119885
-0.118732
-0.137723
-0.140789
-0.14477
-0.148949
-0.15285
-0.156206
-0.158897
-0.160865
-0.162079
-0.162589
-0.162404
-0.161618
-0.160273
-0.158496
-0.15633
-0.153908
-0.151261
-0.148517
-0.145687
-0.14288
-0.140091
-0.13741
-0.134825
-0.132398
-0.130119
-0.128027
-0.126125
-0.124382
-0.122995
-0.121765
-0.141418
-0.144643
-0.148844
-0.153253
-0.157367
-0.160906
-0.163741
-0.165814
-0.167092
-0.167628
-0.167433
-0.166606
-0.165194
-0.16333
-0.161059
-0.158522
-0.155752
-0.152882
-0.149924
-0.146991
-0.144078
-0.141277
-0.138575
-0.136038
-0.133651
-0.131457
-0.129458
-0.127622
-0.126149
-0.124837
-0.145164
-0.148558
-0.152989
-0.15764
-0.161978
-0.165709
-0.168696
-0.170879
-0.172225
-0.172789
-0.172585
-0.171715
-0.170234
-0.168279
-0.1659
-0.163245
-0.160348
-0.157348
-0.154258
-0.151196
-0.148155
-0.145231
-0.14241
-0.139757
-0.13726
-0.134961
-0.132861
-0.130929
-0.129366
-0.127972
-0.148937
-0.152505
-0.157179
-0.162084
-0.166658
-0.17059
-0.173737
-0.176036
-0.177453
-0.178046
-0.177832
-0.17692
-0.175366
-0.173318
-0.170828
-0.168051
-0.165023
-0.16189
-0.158665
-0.15547
-0.152298
-0.149248
-0.146304
-0.143535
-0.140925
-0.138518
-0.136314
-0.134283
-0.132629
-0.131146
-0.152758
-0.156512
-0.16144
-0.166613
-0.171434
-0.175578
-0.178893
-0.181313
-0.182805
-0.183428
-0.183205
-0.182249
-0.180621
-0.178476
-0.175872
-0.172968
-0.169807
-0.166537
-0.163173
-0.159842
-0.156535
-0.153355
-0.150286
-0.147396
-0.144669
-0.142151
-0.139839
-0.137706
-0.135955
-0.134384
-0.156602
-0.160548
-0.165743
-0.171197
-0.176279
-0.180644
-0.184136
-0.186684
-0.188254
-0.18891
-0.188677
-0.187675
-0.185972
-0.183727
-0.181005
-0.177972
-0.174672
-0.171261
-0.167756
-0.164284
-0.16084
-0.157528
-0.15433
-0.151317
-0.148471
-0.145839
-0.143417
-0.141179
-0.139329
-0.137663
-0.160491
-0.164641
-0.170117
-0.175866
-0.181221
-0.185819
-0.189497
-0.192178
-0.193831
-0.194522
-0.19428
-0.193231
-0.191449
-0.189101
-0.186257
-0.18309
-0.179649
-0.176093
-0.172442
-0.168827
-0.165242
-0.161794
-0.158464
-0.155324
-0.152355
-0.149606
-0.147069
-0.144721
-0.142769
-0.141006
-0.164399
-0.168761
-0.174531
-0.18059
-0.186232
-0.191075
-0.194946
-0.197768
-0.199507
-0.200235
-0.199984
-0.198887
-0.197023
-0.194569
-0.191601
-0.188296
-0.184709
-0.181006
-0.177205
-0.173444
-0.169715
-0.166128
-0.162663
-0.159394
-0.156299
-0.153429
-0.150775
-0.148316
-0.146257
-0.144391
-0.168348
-0.172934
-0.179014
-0.185398
-0.191341
-0.196441
-0.200516
-0.203486
-0.205316
-0.206082
-0.205822
-0.204675
-0.202727
-0.200164
-0.197066
-0.193621
-0.189884
-0.186029
-0.182075
-0.178164
-0.174287
-0.170558
-0.166954
-0.163552
-0.160327
-0.157333
-0.154558
-0.151982
-0.149813
-0.147841
-0.172311
-0.177129
-0.183534
-0.19026
-0.196519
-0.201888
-0.206177
-0.209301
-0.211226
-0.212033
-0.211764
-0.210566
-0.208532
-0.205856
-0.202626
-0.199036
-0.195146
-0.191135
-0.187025
-0.18296
-0.178932
-0.175058
-0.171312
-0.167775
-0.164417
-0.161296
-0.158397
-0.155702
-0.153419
-0.151334
-0.176311
-0.181375
-0.188121
-0.195206
-0.201796
-0.207447
-0.21196
-0.215246
-0.217271
-0.218121
-0.217843
-0.216592
-0.214469
-0.211678
-0.208311
-0.204572
-0.200524
-0.196354
-0.192084
-0.187863
-0.18368
-0.179657
-0.175766
-0.172088
-0.168595
-0.165342
-0.162315
-0.159496
-0.157095
-0.154896
-0.180319
-0.185638
-0.192743
-0.200203
-0.207141
-0.213088
-0.217835
-0.22129
-0.22342
-0.224315
-0.224028
-0.222723
-0.220509
-0.217598
-0.214092
-0.2102
-0.205991
-0.201658
-0.197225
-0.192843
-0.188503
-0.184328
-0.18029
-0.17647
-0.172836
-0.16945
-0.166291
-0.163345
-0.160823
-0.158501
-0.184359
-0.189948
-0.197428
-0.205284
-0.212586
-0.218842
-0.223835
-0.227467
-0.229707
-0.230649
-0.230353
-0.228993
-0.226684
-0.223651
-0.22
-0.215952
-0.211578
-0.207079
-0.202478
-0.197933
-0.193431
-0.189101
-0.184911
-0.180945
-0.177167
-0.173643
-0.170348
-0.16727
-0.164622
-0.162175
-0.1884
-0.194269
-0.202144
-0.210413
-0.218097
-0.224678
-0.229928
-0.233745
-0.236099
-0.237091
-0.236787
-0.235369
-0.232963
-0.229804
-0.226006
-0.221797
-0.217255
-0.212586
-0.207816
-0.203103
-0.198437
-0.19395
-0.189606
-0.18549
-0.181565
-0.177899
-0.174466
-0.171253
-0.168474
-0.165893
-0.192468
-0.198633
-0.206921
-0.215624
-0.223708
-0.230629
-0.236147
-0.240158
-0.242631
-0.243676
-0.243363
-0.241886
-0.23938
-0.236092
-0.232143
-0.22777
-0.223054
-0.218212
-0.213269
-0.208386
-0.203551
-0.198903
-0.194401
-0.190131
-0.186055
-0.182244
-0.178667
-0.175314
-0.172399
-0.16968
-0.196532
-0.203003
-0.211724
-0.220882
-0.229385
-0.236661
-0.242459
-0.246672
-0.249271
-0.25037
-0.250048
-0.24851
-0.245903
-0.242483
-0.238379
-0.233837
-0.228945
-0.223928
-0.218808
-0.213751
-0.208746
-0.203934
-0.199271
-0.194845
-0.190614
-0.186654
-0.182931
-0.179435
-0.17638
-0.173512
-0.200615
-0.20741
-0.216585
-0.226218
-0.23516
-0.242807
-0.248899
-0.253322
-0.256052
-0.257209
-0.256878
-0.255278
-0.252565
-0.24901
-0.244748
-0.240033
-0.234962
-0.229765
-0.224465
-0.219231
-0.214051
-0.209072
-0.204245
-0.199658
-0.195268
-0.191155
-0.18728
-0.183636
-0.180436
-0.177416
-0.204686
-0.211816
-0.221467
-0.231598
-0.240998
-0.249034
-0.255431
-0.260075
-0.262942
-0.264158
-0.263819
-0.262154
-0.259334
-0.255641
-0.251216
-0.246326
-0.241072
-0.235693
-0.23021
-0.224796
-0.219439
-0.214291
-0.209297
-0.204546
-0.199993
-0.195724
-0.191695
-0.187899
-0.184551
-0.18137
-0.20877
-0.216254
-0.226402
-0.237054
-0.246934
-0.255376
-0.262092
-0.266965
-0.269974
-0.271253
-0.270905
-0.269175
-0.266245
-0.26241
-0.257819
-0.252749
-0.247309
-0.241745
-0.236076
-0.230479
-0.224942
-0.219621
-0.214455
-0.209536
-0.204816
-0.200386
-0.196197
-0.192244
-0.188743
-0.185401
-0.212834
-0.220684
-0.231353
-0.24255
-0.252931
-0.261797
-0.268846
-0.273957
-0.277114
-0.278458
-0.278101
-0.276303
-0.273262
-0.269282
-0.264522
-0.25927
-0.253641
-0.24789
-0.242032
-0.236249
-0.23053
-0.225033
-0.219693
-0.214603
-0.209713
-0.205119
-0.200766
-0.196653
-0.192994
-0.189483
-0.216903
-0.225139
-0.236353
-0.248118
-0.259023
-0.268331
-0.275727
-0.281087
-0.284398
-0.285809
-0.285444
-0.283577
-0.280421
-0.276293
-0.27136
-0.265923
-0.260103
-0.25416
-0.248111
-0.24214
-0.236235
-0.230559
-0.225041
-0.219775
-0.214711
-0.209948
-0.205426
-0.201146
-0.197326
-0.193643
-0.220943
-0.229579
-0.241362
-0.253721
-0.265173
-0.274941
-0.282699