/*--------------------------------*- C++ -*----------------------------------*\
  =========                 |
  \\      /  F ield         | OpenFOAM: The Open Source CFD Toolbox
   \\    /   O peration     | Website:  https://openfoam.org
    \\  /    A nd           | Version:  6.0
     \\/     M anipulation  |
\*---------------------------------------------------------------------------*/
FoamFile
{
    version     2.0;
    format      ascii;
    class       surfaceScalarField;
    location    "4";
    object      phi;
}
// * * * * * * * * * * * * * * * * * * * * * * * * * * * * * * * * * * * * * //

dimensions      [0 3 -1 0 0 0 0];

internalField   nonuniform List<scalar> 
93586
(
2.70465e-05
0.00154312
-7.90891e-08
5.43791e-05
0.00153853
8.19087e-05
0.00152987
0.000109458
0.00151711
0.000136897
0.00150018
0.00016411
0.00147903
0.000191009
0.00145366
0.000217479
0.00142413
0.000243432
0.00139054
0.000268749
0.00135304
0.000293351
0.00131178
0.000317132
0.00126695
0.000340034
0.0012187
0.00036197
0.00116722
0.000382896
0.00111264
0.000402738
0.00105513
0.000421462
0.000994816
0.000439003
0.000931866
0.000455329
0.000866416
0.000470385
0.000798644
0.00048414
0.000728702
0.00049655
0.000656783
0.000507586
0.000583059
0.000517211
0.000507736
0.000525403
0.000431002
0.000532134
0.000353071
0.000537381
0.000274144
0.000541166
0.000194375
0.000542903
0.000114344
3.28996e-05
0.000541423
2.64391e-05
0.0015167
-2.4319e-08
5.32408e-05
0.00151173
8.02741e-05
0.00150282
0.000107367
0.00148999
0.000134383
0.00147313
0.000161198
0.00145216
0.000187705
0.00142709
0.000213781
0.00139798
0.00023933
0.00136491
0.000264231
0.00132803
0.000288408
0.0012875
0.00031176
0.00124347
0.000334235
0.00119611
0.00035575
0.00114557
0.000376269
0.001092
0.00039572
0.00103555
0.000414073
0.00097635
0.000431264
0.000914556
0.000447266
0.00085031
0.000462022
0.00078378
0.000475504
0.000715124
0.000487667
0.000644522
0.000498484
0.000572152
0.000507917
0.000498209
0.000515946
0.000422884
0.00052254
0.000346382
0.000527675
0.000268905
0.000531319
0.000190616
0.000533267
0.000112282
3.26979e-05
0.000533259
2.60013e-05
0.00149069
1.28512e-08
5.24011e-05
0.00148532
7.90294e-05
0.00147619
0.000105712
0.0014633
0.000132308
0.00144651
0.000158691
0.00142576
0.000184753
0.001401
0.00021037
0.00137232
0.000235453
0.00133979
0.000259884
0.00130356
0.000283594
0.00126375
0.000306488
0.00122054
0.000328518
0.00117405
0.000349604
0.00112445
0.000369713
0.00107187
0.000388776
0.00101646
0.000406764
0.000958347
0.000423613
0.000897687
0.000439297
0.000834619
0.00045376
0.000769308
0.000466977
0.000701909
0.000478898
0.0006326
0.000489501
0.000561557
0.000498746
0.000488971
0.000506614
0.000415032
0.000513072
0.00033994
0.000518095
0.000263904
0.000521638
0.000187106
0.000523661
0.000110301
3.2352e-05
0.000524149
2.55925e-05
0.00146506
3.70475e-08
5.15995e-05
0.00145932
7.7824e-05
0.00144996
0.000104089
0.00143702
0.000130255
0.00142034
0.000156191
0.0013998
0.000181794
0.00137538
0.000206945
0.00134714
0.000231556
0.00131514
0.00025552
0.00127955
0.00027877
0.00124046
0.000301215
0.00119803
0.000322812
0.0011524
0.000343483
0.00110371
0.000363198
0.0010521
0.000381886
0.000997704
0.000399522
0.000940656
0.000416042
0.000881103
0.000431421
0.000819187
0.000445601
0.000755066
0.00045856
0.000688897
0.000470248
0.000620853
0.000480644
0.000551109
0.000489706
0.00047985
0.000497417
0.000407265
0.000503743
0.000333553
0.000508658
0.000258921
0.000512125
0.000183567
0.000514152
0.000108211
3.16268e-05
0.000514752
2.51875e-05
0.00143982
5.30771e-08
5.0796e-05
0.00143371
7.66097e-05
0.00142414
0.000102451
0.00141118
0.000128178
0.0013946
0.000153664
0.0013743
0.000178807
0.00135022
0.000203494
0.00132244
0.000227641
0.00129099
0.000251146
0.00125602
0.000273946
0.00121765
0.000295957
0.00117601
0.000317135
0.00113122
0.000337406
0.00108343
0.000356739
0.00103277
0.000375067
0.000979372
0.000392363
0.000923369
0.000408565
0.000864903
0.000423648
0.000804117
0.000437556
0.000741166
0.000450266
0.000676205
0.000461728
0.000609404
0.000471923
0.000540936
0.00048081
0.000470984
0.000488368
0.000399734
0.000494568
0.000327384
0.000499382
0.000254142
0.000502785
0.000180212
0.000504793
0.000106267
3.11334e-05
0.000505435
2.4784e-05
0.00141497
6.48593e-08
4.99893e-05
0.0014085
7.53869e-05
0.00139874
0.000100799
0.00138576
0.000126084
0.00136931
0.000151119
0.00134926
0.000175805
0.00132553
0.000200031
0.00129819
0.000223722
0.00126728
0.000246778
0.00123294
0.000269142
0.00119527
0.00029073
0.00115439
0.000311502
0.00111042
0.000331385
0.00106351
0.00035035
0.00101378
0.000368328
0.000961352
0.000385296
0.000906369
0.000401191
0.000848966
0.000415988
0.000789286
0.000429632
0.000727479
0.0004421
0.0006637
0.000453345
0.000598115
0.000463345
0.000530898
0.000472061
0.000462224
0.000479473
0.000392279
0.000485552
0.000321259
0.000490272
0.000249368
0.000493616
0.000176815
0.000495602
0.000104237
3.04112e-05
0.000496232
2.43788e-05
0.00139051
8.22449e-08
4.91758e-05
0.0013837
7.41524e-05
0.00137376
9.91316e-05
0.00136078
0.000123974
0.00134447
0.000148559
0.00132467
0.000172791
0.00130129
0.000196566
0.00127441
0.000219809
0.00124404
0.000242428
0.00121031
0.000264365
0.00117333
0.000285543
0.0011332
0.000305922
0.00109005
0.00032543
0.001044
0.000344037
0.000995179
0.000361678
0.000943712
0.000378328
0.000889733
0.000393924
0.000833377
0.000408444
0.000774783
0.000421832
0.000714102
0.000434066
0.000651487
0.000445099
0.000587099
0.000454911
0.000521111
0.000463462
0.000453696
0.000470733
0.000385038
0.000476696
0.000315329
0.000481326
0.000244775
0.000484612
0.000173579
0.000486565
0.00010235
2.99203e-05
0.000487193
2.3972e-05
0.00136645
8.61342e-08
4.83557e-05
0.00135932
7.29078e-05
0.00134921
9.74528e-05
0.00133623
0.000121854
0.00132006
0.000145992
0.00130052
0.000169777
0.0012775
0.000193107
0.00125107
0.000215913
0.00122122
0.000238105
0.0011881
0.000259629
0.00115179
0.000280409
0.0011124
0.000300405
0.00107004
0.000319548
0.00102483
0.000337809
0.000976897
0.000355122
0.000926368
0.000371462
0.000873369
0.000386769
0.000818036
0.00040102
0.000760507
0.000414159
0.000700928
0.000426166
0.000639451
0.000436994
0.000576235
0.000446622
0.000511451
0.000455013
0.000445268
0.000462148
0.000377868
0.000467998
0.000309439
0.000472542
0.000240185
0.000475771
0.000170306
0.000477694
0.000100391
2.92397e-05
0.000478299
2.35639e-05
0.0013428
8.49558e-08
4.75311e-05
0.00133535
7.1657e-05
0.00132508
9.57681e-05
0.00131212
0.00011973
0.0012961
0.000143427
0.00127682
0.000166771
0.00125415
0.000189666
0.00122817
0.000212044
0.00119884
0.00023382
0.00116632
0.000254941
0.00113067
0.000275333
0.001092
0.000294958
0.00105042
0.000313747
0.00100604
0.000331671
0.000958984
0.000348664
0.000909377
0.000364704
0.000857345
0.000379729
0.000803018
0.000393718
0.000746536
0.000406615
0.000688042
0.000418401
0.000627686
0.000429028
0.000565624
0.000438478
0.000502025
0.000446713
0.000437056
0.000453715
0.000370896
0.000459456
0.000303731
0.000463917
0.000235761
0.00046709
0.000167183
0.000468976
9.85668e-05
2.87662e-05
0.000469574
2.31554e-05
0.00131956
8.30615e-08
4.67048e-05
0.0013118
7.04046e-05
0.00130138
9.40839e-05
0.00128843
0.00011761
0.00127257
0.000140872
0.00125355
0.000163783
0.00123124
0.000186252
0.00120569
0.000208212
0.00117687
0.000229583
0.00114494
0.000250311
0.00110994
0.000270325
0.00107197
0.000289588
0.00103114
0.000308031
0.000987572
0.000325626
0.000941374
0.000342309
0.000892667
0.000358056
0.000841579
0.000372806
0.000788239
0.000386539
0.000732782
0.0003992
0.000675351
0.00041077
0.000616093
0.000421202
0.00055516
0.000430478
0.000492722
0.000438561
0.000428941
0.000445434
0.000363992
0.00045107
0.000298061
0.000455449
0.000231342
0.000458566
0.000164029
0.000460421
9.66799e-05
2.81245e-05
0.000460996
2.27478e-05
0.00129674
8.09806e-08
4.588e-05
0.00128867
6.91555e-05
0.0012781
9.24062e-05
0.00126518
0.000115502
0.00124947
0.000138335
0.00123072
0.000160822
0.00120875
0.000182872
0.00118364
0.000204425
0.00115532
0.000225398
0.00112396
0.000245743
0.00108959
0.000265389
0.00105232
0.000284299
0.00101224
0.000302405
0.000969465
0.000319679
0.000924111
0.000336059
0.000876291
0.000351519
0.000826134
0.000366001
0.000773764
0.000379484
0.000719317
0.000391914
0.000662931
0.000403273
0.000604754
0.000413515
0.000544934
0.000422621
0.000483639
0.000430556
0.000421028
0.000437302
0.000357275
0.000442835
0.00029256
0.000447135
0.000227078
0.000450196
0.000161016
0.000452015
9.49189e-05
2.76683e-05
0.000452584
2.23424e-05
0.00127432
7.73385e-08
4.50592e-05
0.00126595
6.79137e-05
0.00125525
9.07404e-05
0.00124235
0.000113412
0.0012268
0.000135823
0.0012083
0.000157893
0.00118668
0.000179535
0.00116199
0.000200687
0.00113416
0.000221274
0.00110336
0.000241244
0.00106962
0.00026053
0.00103302
0.000279094
0.000993666
0.000296871
0.000951669
0.000313831
0.000907137
0.000329914
0.000860187
0.000345094
0.000810939
0.000359314
0.000759519
0.000372552
0.00070606
0.000384757
0.0006507
0.000395909
0.000593581
0.000405965
0.000534851
0.000414905
0.000474675
0.000422695
0.000413209
0.000429318
0.000350625
0.00043475
0.000287099
0.000438972
0.000222821
0.000441979
0.000157977
0.000443767
9.31021e-05
2.70598e-05
0.000444316
2.19401e-05
0.0012523
7.37748e-08
4.4245e-05
0.00124365
6.66827e-05
0.00123281
8.90908e-05
0.00121994
0.000111345
0.00120454
0.000133341
0.0011863
0.000155002
0.00116502
0.000176243
0.00114074
0.000197004
0.0011134
0.000217212
0.00108315
0.000236816
0.00105002
0.000255749
0.00101408
0.000273975
0.000975448
0.00029143
0.000934215
0.000308083
0.000890495
0.000323875
0.000844398
0.000338781
0.000796047
0.000352744
0.000745563
0.000365743
0.000693078
0.000377727
0.000638726
0.000388678
0.00058265
0.00039855
0.000524994
0.000407328
0.00046592
0.000414976
0.000405583
0.000421479
0.00034415
0.000426812
0.000281797
0.000430958
0.00021871
0.000433911
0.00015507
0.000435664
9.14029e-05
2.6619e-05
0.000436208
2.15418e-05
0.00123069
7.13321e-08
4.34393e-05
0.00122175
6.54655e-05
0.00121078
8.7461e-05
0.00119795
0.000109304
0.0011827
0.000130893
0.00116471
0.000152153
0.00114375
0.000173001
0.00111989
0.00019338
0.00109302
0.000213216
0.0010633
0.000232461
0.00103076
0.00025105
0.000995479
0.000268944
0.000957545
0.000286083
0.000917059
0.000302435
0.000874132
0.000317943
0.000828872
0.00033258
0.000781397
0.000346291
0.00073183
0.000359056
0.000680298
0.000370823
0.000626935
0.000381576
0.00057188
0.00039127
0.000515274
0.000399889
0.00045728
0.000407398
0.000398047
0.000413783
0.000337742
0.000419019
0.000276534
0.00042309
0.000214607
0.000425991
0.000152141
0.000427714
8.96531e-05
2.60387e-05
0.00042824
2.11484e-05
0.00120947
6.91279e-08
4.26437e-05
0.00120026
6.42642e-05
0.00118916
8.58535e-05
0.00117636
0.000107292
0.00116126
0.000128482
0.00114352
0.000149348
0.00112289
0.000169811
0.00109942
0.000189815
0.00107302
0.000209287
0.00104383
0.000228181
0.00101188
0.000246431
0.000977227
0.000264002
0.000939982
0.000280831
0.000900232
0.000296888
0.000858085
0.000312116
0.000813648
0.000326489
0.000767037
0.000339954
0.000718372
0.000352488
0.000667779
0.000364044
0.00061539
0.000374602
0.00056134
0.000384121
0.00050577
0.000392584
0.000448839
0.000399958
0.000390695
0.000406227
0.0003315
0.000411369
0.000271423
0.000415366
0.000210643
0.000418215
0.000149337
0.000419905
8.80136e-05
2.56119e-05
0.000420426
2.07603e-05
0.00118865
6.70184e-08
4.18594e-05
0.00117916
6.30804e-05
0.00116794
8.42703e-05
0.00115517
0.000105312
0.00114021
0.00012611
0.00112272
0.00014659
0.0011024
0.000166676
0.00107933
0.000186311
0.00105338
0.000205427
0.0010247
0.000223976
0.000993321
0.000241895
0.000959296
0.000259147
0.000922722
0.000275672
0.000883692
0.00029144
0.000842308
0.000306394
0.000798677
0.000320508
0.000752912
0.000333731
0.00070513
0.00034604
0.000655457
0.000357387
0.000604021
0.000367755
0.000550956
0.000377102
0.0004964
0.000385413
0.00044051
0.000392653
0.000383431
0.000398809
0.000325323
0.000403858
0.00026635
0.000407783
0.000206689
0.000410581
0.000146514
0.000412242
8.63278e-05
2.50564e-05
0.000412748
2.03782e-05
0.0011682
6.49435e-08
4.10871e-05
0.00115845
6.19153e-05
0.00114711
8.27126e-05
0.00113437
0.000103365
0.00111956
0.000123777
0.00110231
0.000143879
0.0010823
0.000163595
0.00105961
0.00018287
0.0010341
0.000201636
0.00100594
0.000219847
0.000975114
0.00023744
0.000941702
0.00025438
0.00090579
0.000270607
0.000867467
0.000286091
0.000826835
0.000300775
0.000783996
0.000314636
0.000739064
0.000327621
0.000692152
0.000339708
0.000643385
0.000350852
0.000592888
0.000361033
0.000540793
0.000370211
0.000487236
0.000378372
0.000432372
0.000385481
0.000376342
0.000391526
0.000319305
0.000396484
0.000261422
0.000400339
0.000202866
0.000403087
0.00014381
0.000404716
8.47456e-05
2.46424e-05
0.000405217
2.00023e-05
0.00114814
6.29844e-08
4.03276e-05
0.00113812
6.07696e-05
0.00112667
8.11815e-05
0.00111396
0.000101451
0.00109929
0.000121486
0.00108227
0.000141216
0.00106257
0.000160569
0.00104026
0.000179491
0.00101518
0.000197914
0.000987506
0.000215793
0.000957231
0.000233067
0.000924417
0.0002497
0.000889151
0.000265634
0.00085152
0.000280839
0.000811622
0.000295259
0.00076956
0.000308871
0.000725443
0.000321622
0.000679383
0.000333492
0.000631503
0.000344435
0.000581925
0.000354433
0.000530781
0.000363446
0.000478202
0.000371459
0.000424342
0.000378441
0.00036934
0.000384377
0.000313349
0.000389246
0.000256531
0.000393031
0.000199054
0.00039573
0.000141088
0.000397332
8.31208e-05
2.41092e-05
0.000397818
1.96328e-05
0.00112845
6.0926e-08
3.95811e-05
0.00111818
5.96439e-05
0.0011066
7.96772e-05
0.00109392
9.95709e-05
0.0010794
0.000119235
0.0010626
0.000138602
0.0010432
0.000157599
0.00102126
0.000176173
0.000996606
0.000194259
0.000969419
0.000211813
0.000939682
0.000228774
0.000907456
0.000245106
0.000872826
0.000260752
0.000835875
0.000275683
0.000796702
0.000289844
0.000755403
0.000303211
0.000712089
0.000315733
0.000666868
0.000327389
0.000619861
0.000338136
0.000571189
0.000347954
0.000520981
0.000356805
0.000469365
0.000364673
0.000416494
0.000371529
0.000362504
0.000377358
0.000307547
0.00038214
0.000251779
0.000385857
0.000195368
0.000388508
0.00013848
0.000390079
8.15939e-05
2.37078e-05
0.000390561
1.92699e-05
0.00110912
5.87574e-08
3.88479e-05
0.0010986
5.85384e-05
0.00108691
7.82002e-05
0.00107426
9.77254e-05
0.00105987
0.000117026
0.0010433
0.000136036
0.00102419
0.000154683
0.00100261
0.000172917
0.000978368
0.000190673
0.000951656
0.000207907
0.000922444
0.00022456
0.000890793
0.000240596
0.000856784
0.00025596
0.000820499
0.000270622
0.000782033
0.000284528
0.000741483
0.000297654
0.000698954
0.000309951
0.000654555
0.000321398
0.000608403
0.000331951
0.000560618
0.000341593
0.000511326
0.000350284
0.000460654
0.000358012
0.000408751
0.000364744
0.000355752
0.000370468
0.000301805
0.000375164
0.000247064
0.000378815
0.000191693
0.000381419
0.000135856
0.000382963
8.00274e-05
2.31953e-05
0.000383432
1.89136e-05
0.00109015
5.65226e-08
3.81281e-05
0.00107938
5.74531e-05
0.00106759
7.67504e-05
0.00105496
9.5914e-05
0.00104071
0.000114858
0.00102436
0.000133517
0.00100553
0.000151822
0.000984302
0.000169721
0.000960471
0.000187153
0.000934224
0.000204073
0.000905529
0.000220424
0.000874443
0.00023617
0.000841045
0.000251257
0.000805415
0.000265654
0.000767646
0.000279309
0.000727831
0.000292199
0.000686076
0.000304275
0.000642486
0.000315517
0.000597177
0.00032588
0.000550265
0.000335348
0.000501876
0.000343884
0.000452133
0.000351472
0.000401184
0.000358083
0.000349161
0.000363704
0.000296209
0.000368316
0.000242481
0.000371902
0.000188137
0.000374459
0.00013334
0.000375974
7.85538e-05
2.28062e-05
0.000376439
1.85639e-05
0.00107153
5.41762e-08
3.74216e-05
0.00106052
5.6388e-05
0.00104862
7.53276e-05
0.00103602
9.41365e-05
0.0010219
0.000112731
0.00100576
0.000131046
0.000987217
0.000149014
0.000966329
0.000166586
0.000942896
0.000183699
0.000917103
0.000200311
0.000888913
0.000216365
0.00085838
0.000231826
0.000825579
0.00024664
0.00079059
0.000260777
0.000753502
0.000274187
0.000714408
0.000286845
0.00067341
0.000298704
0.000630612
0.000309743
0.000586128
0.00031992
0.000540071
0.000329218
0.000492566
0.0003376
0.000443733
0.000345052
0.000393718
0.000351545
0.00034265
0.000357065
0.000290672
0.000361594
0.000237934
0.000365115
0.000184593
0.000367627
0.00013081
0.000369116
7.70433e-05
2.23132e-05
0.000369569
1.82208e-05
0.00105326
5.17853e-08
3.67284e-05
0.00104202
5.5343e-05
0.00103001
7.39316e-05
0.00101744
9.23925e-05
0.00100344
0.000110643
0.000987508
0.000128621
0.000969241
0.000146259
0.000948691
0.000163509
0.00092565
0.00018031
0.000900303
0.000196619
0.000872608
0.000212382
0.000842618
0.000227563
0.000810406
0.000242109
0.000776047
0.000255991
0.00073963
0.000269159
0.000701245
0.000281589
0.000660992
0.000293235
0.000618974
0.000304076
0.000575301
0.00031407
0.000530087
0.0003232
0.000483452
0.000331432
0.000435515
0.00033875
0.00038642
0.000345126
0.000336293
0.000350547
0.000285276
0.000354995
0.000233514
0.000358453
0.000181164
0.000360921
0.000128382
0.000362382
7.5621e-05
2.1936e-05
0.00036283
1.78842e-05
0.00103533
4.93186e-08
3.60484e-05
0.00102385
5.43177e-05
0.00101174
7.25621e-05
0.000999189
9.06815e-05
0.000985315
0.000108596
0.000969591
0.000126242
0.000951592
0.000143557
0.000931372
0.00016049
0.000908713
0.000176985
0.000883802
0.000192997
0.000856593
0.000208473
0.000827133
0.000223379
0.000795495
0.000237662
0.000761753
0.000251293
0.000725992
0.000264224
0.000688302
0.000276431
0.000648778
0.000287867
0.000607524
0.000298512
0.000564646
0.000308327
0.000520257
0.000317293
0.000474474
0.000325377
0.000427415
0.000332563
0.00037922
0.000338825
0.000330015
0.000344149
0.000279936
0.000348517
0.000229129
0.000351914
0.000177746
0.000354337
0.000125942
0.000355774
7.41641e-05
2.14612e-05
0.00035621
1.75541e-05
0.00101773
4.68446e-08
3.53812e-05
0.00100603
5.33119e-05
0.000993807
7.12185e-05
0.000981284
8.9003e-05
0.000967532
0.000106587
0.000952008
0.000123908
0.000934272
0.000140905
0.000914376
0.000157528
0.000892092
0.000173721
0.00086761
0.000189442
0.000840877
0.000204637
0.00081194
0.000219272
0.000780867
0.000233297
0.000747731
0.000246683
0.000712617
0.00025938
0.000675609
0.000271367
0.000636804
0.000282597
0.000596301
0.000293051
0.000554206
0.000302689
0.000510629
0.000311494
0.000465686
0.000319433
0.00041949
0.00032649
0.000372183
0.00033264
0.000323885
0.000337868
0.000274732
0.000342159
0.000224867
0.000345494
0.000174438
0.000347875
0.0001236
0.000349285
7.27911e-05
2.10955e-05
0.000349717
1.72303e-05
0.00100045
4.43237e-08
3.47269e-05
0.000988529
5.23253e-05
0.000976207
6.99006e-05
0.000963708
8.73565e-05
0.000950074
0.000104616
0.000934746
0.000121619
0.000917267
0.000138303
0.000897688
0.000154622
0.00087577
0.00017052
0.000851707
0.000185954
0.000825439
0.000200873
0.000797013
0.000215243
0.000766493
0.000229014
0.000733951
0.000242157
0.000699468
0.000254626
0.000663128
0.000266396
0.000625027
0.000277424
0.00058526
0.00028769
0.000543931
0.000297155
0.00050115
0.000305802
0.000457028
0.000313598
0.000411678
0.000320529
0.000365239
0.000326568
0.00031783
0.000331703
0.000269583
0.000335917
0.000220638
0.000339193
0.000171141
0.000341531
0.000121247
0.000342917
7.13855e-05
2.06377e-05
0.000343339
1.69127e-05
0.000983499
4.18244e-08
3.4085e-05
0.000971358
5.13576e-05
0.000958935
6.86078e-05
0.000946459
8.57413e-05
0.000932942
0.000102683
0.000917806
0.000119373
0.000900579
0.000135751
0.00088131
0.000151771
0.000859753
0.000167378
0.000836101
0.000182531
0.000810292
0.000197179
0.000782367
0.000211288
0.000752391
0.00022481
0.000720432
0.000237716
0.000686571
0.000249959
0.00065089
0.000261517
0.00061348
0.000272347
0.000574437
0.000282428
0.000533864
0.000291723
0.000491865
0.000300215
0.000448552
0.000307871
0.000404035
0.000314677
0.000358452
0.000320608
0.000311918
0.000325651
0.000264564
0.000329789
0.000216526
0.000333007
0.000167951
0.000335304
0.000118987
0.000336665
7.006e-05
2.02831e-05
0.000337083
1.66012e-05
0.000966858
3.93117e-08
3.34555e-05
0.000954502
5.04083e-05
0.000941981
6.73397e-05
0.000929526
8.41569e-05
0.000916123
0.000100786
0.000901175
0.000117169
0.000884193
0.000133247
0.000865229
0.000148974
0.000844023
0.000164296
0.000820773
0.000179172
0.000795412
0.000193554
0.000767978
0.000207407
0.000738533
0.000220684
0.000707146
0.000233356
0.000673893
0.000245379
0.000638856
0.000256729
0.000602124
0.000267363
0.00056379
0.000277263
0.000523956
0.000286391
0.000482724
0.00029473
0.000440203
0.000302249
0.000396502
0.000308933
0.000351756
0.000314758
0.000306078
0.00031971
0.000259597
0.000323775
0.000212447
0.000326936
0.000164771
0.000329192
0.000116717
0.000330529
6.87035e-05
1.98414e-05
0.000330937
1.62957e-05
0.000950527
3.68458e-08
3.28379e-05
0.000937961
4.94772e-05
0.000925343
6.60957e-05
0.00091291
8.26026e-05
0.000899618
9.89254e-05
0.000884853
0.000115007
0.000868114
0.00013079
0.000849448
0.000146229
0.000828587
0.000161271
0.000805733
0.000175876
0.000780811
0.000189996
0.000753859
0.000203598
0.000724939
0.000216635
0.000694113
0.000229078
0.000661459
0.000240884
0.000627055
0.000252029
0.00059099
0.000262472
0.000553355
0.000272193
0.000514247
0.000281157
0.00047377
0.000289346
0.000432029
0.00029673
0.000389132
0.000303294
0.000345211
0.000309015
0.000300377
0.000313879
0.000254756
0.000317871
0.000208482
0.000320976
0.000161693
0.000323192
0.000114536
0.000324505
6.74236e-05
1.94972e-05
0.000324909
1.5996e-05
0.000934497
3.43814e-08
3.22323e-05
0.000921724
4.85639e-05
0.000909009
6.48755e-05
0.000896597
8.10779e-05
0.000883413
9.71001e-05
0.000868829
0.000112886
0.000852325
0.000128379
0.000833951
0.000143536
0.000813428
0.000158303
0.00079096
0.000172642
0.000766469
0.000186505
0.000739989
0.00019986
0.00071158
0.00021266
0.000681304
0.000224879
0.000649236
0.000236471
0.000615453
0.000247415
0.00058004
0.00025767
0.000543088
0.000267217
0.000504693
0.000276019
0.000464954
0.000284062
0.000423978
0.000291313
0.000381866
0.00029776
0.000338753
0.000303378
0.000294744
0.000308155
0.000249966
0.000312076
0.000204547
0.000315125
0.000158625
0.000317303
0.000112346
0.000318594
6.61143e-05
1.90706e-05
0.000318988
1.57021e-05
0.000918765
3.19759e-08
3.16382e-05
0.000905789
4.7668e-05
0.000892981
6.36785e-05
0.000880588
7.95821e-05
0.000867511
9.53094e-05
0.000853103
0.000110805
0.000836831
0.000126014
0.000818743
0.000140893
0.000798552
0.000155391
0.000776465
0.000169468
0.000752396
0.00018308
0.00072638
0.000196192
0.000698474
0.00020876
0.000668739
0.000220757
0.000637248
0.000232141
0.000604074
0.000242887
0.000569304
0.000252957
0.000533025
0.000262332
0.000495331
0.000270976
0.00045632
0.000278874
0.000416095
0.000285996
0.000374758
0.000292327
0.00033244
0.000297844
0.000289245
0.000302536
0.000245297
0.000306388
0.000200722
0.000309383
0.000155656
0.000311522
0.000110242
0.000312789
6.48783e-05
1.87365e-05
0.00031318
1.54138e-05
0.000903321
2.95927e-08
3.10554e-05
0.000890146
4.67892e-05
0.000877245
6.25043e-05
0.000864872
7.81148e-05
0.000851899
9.35526e-05
0.000837663
0.000108764
0.000821618
0.000123694
0.00080381
0.0001383
0.000783943
0.000152533
0.000762227
0.000166354
0.000738572
0.000179718
0.00071301
0.000192592
0.000685596
0.000204932
0.000656391
0.000216712
0.000625463
0.00022789
0.000592887
0.000238443
0.000558746
0.000248331
0.000523125
0.000257538
0.000486117
0.000266027
0.000447818
0.000273783
0.00040833
0.000280776
0.000367751
0.000286994
0.000326211
0.000292413
0.000283813
0.000297021
0.000240676
0.000300804
0.000196926
0.000303746
0.000152696
0.000305848
0.000108128
0.000307094
6.36143e-05
1.83242e-05
0.000307476
1.5131e-05
0.000888165
2.72778e-08
3.04837e-05
0.000874794
4.59271e-05
0.000861803
6.13523e-05
0.000849449
7.66752e-05
0.000836578
9.1829e-05
0.000822511
0.000106761
0.000806688
0.000121417
0.000789155
0.000135756
0.000769607
0.000149729
0.000748256
0.000163298
0.000725008
0.000176418
0.000699892
0.000189059
0.000672963
0.000201176
0.000644278
0.000212742
0.000613905
0.000223718
0.000581917
0.00023408
0.000548394
0.000243791
0.000513421
0.000252832
0.000477089
0.000261168
0.000439492
0.000268785
0.000400728
0.000275653
0.000360896
0.00028176
0.000320123
0.000287082
0.000278509
0.000291608
0.000236172
0.000295323
0.000193236
0.000298213
0.000149831
0.000300278
0.000106097
0.000301502
6.24204e-05
1.79996e-05
0.00030188
1.48536e-05
0.000873286
2.4988e-08
2.9923e-05
0.000859724
4.50813e-05
0.000846643
6.02223e-05
0.000834306
7.52629e-05
0.000821535
9.01381e-05
0.000807634
0.000104796
0.000792028
0.000119183
0.000774764
0.00013326
0.000755528
0.000146977
0.000734534
0.000160299
0.000711683
0.000173181
0.000687004
0.000185591
0.000660549
0.000197489
0.000632373
0.000208846
0.000602543
0.000219623
0.00057113
0.000229799
0.000538213
0.000239335
0.000503875
0.000248212
0.000468204
0.000256399
0.000431293
0.000263879
0.00039324
0.000270624
0.000354138
0.000276622
0.000314115
0.000281849
0.000273269
0.000286294
0.000231715
0.000289944
0.000189574
0.000292783
0.000146976
0.000294811
0.000104057
0.000296014
6.11998e-05
1.76009e-05
0.000296385
1.45815e-05
0.000858684
2.27665e-08
2.93729e-05
0.000844934
4.42517e-05
0.000831766
5.91136e-05
0.000819447
7.38773e-05
0.000806773
8.8479e-05
0.000793034
0.000102867
0.000777642
0.000116991
0.000760642
0.00013081
0.000741712
0.000144277
0.000721069
0.000157356
0.000698609
0.000170003
0.00067436
0.000182188
0.00064837
0.00019387
0.000620695
0.000205022
0.0005914
0.000215605
0.000560553
0.000225596
0.000528232
0.00023496
0.000494518
0.000243678
0.000459498
0.000251718
0.000423263
0.000259064
0.000385908
0.000265688
0.000347527
0.000271578
0.000308243
0.000276712
0.000268152
0.000281078
0.00022737
0.000284663
0.000186014
0.000287452
0.000144211
0.000289445
0.000102097
0.000290627
6.00463e-05
1.72854e-05
0.000290994
1.43146e-05
0.000844349
2.05834e-08
2.88332e-05
0.000830414
4.34377e-05
0.00081716
5.80259e-05
0.000804857
7.25179e-05
0.000792279
8.68511e-05
0.000778699
0.000100975
0.000763516
0.00011484
0.000746774
0.000128407
0.000728143
0.000141628
0.000707843
0.000154468
0.000685766
0.000166885
0.000661936
0.000178849
0.000636403
0.000190319
0.000609218
0.000201269
0.000580445
0.00021166
0.000550153
0.000221471
0.000518415
0.000230667
0.000485313
0.000239228
0.00045093
0.000247124
0.000415357
0.000254338
0.000378686
0.000260844
0.000341009
0.000266628
0.000302448
0.000271671
0.000263098
0.000275959
0.00022307
0.00027948
0.000182482
0.00028222
0.000141456
0.000284178
0.000100129
0.00028534
5.88674e-05
1.68994e-05
0.0002857
1.40527e-05
0.000830279
1.84696e-08
2.83038e-05
0.000816164
4.26392e-05
0.000802826
5.69588e-05
0.00079054
7.11841e-05
0.000778056
8.5254e-05
0.000764631
9.91189e-05
0.000749653
0.00011273
0.000733165
0.000126048
0.000714829
0.000139027
0.000694866
0.000151633
0.000673165
0.000163825
0.000649748
0.000175571
0.000624663
0.000186833
0.00059796
0.000197585
0.000569702
0.000207789
0.000539954
0.000217423
0.000508791
0.000226453
0.00047629
0.00023486
0.000442535
0.000242614
0.000407613
0.000249699
0.000371615
0.000256088
0.000334632
0.000261769
0.000296784
0.000266722
0.000258163
0.000270934
0.000218879
0.000274393
0.000179047
0.000277084
0.000138788
0.000279008
9.82364e-05
0.00028015
5.77529e-05
1.65926e-05
0.000280506
1.37958e-05
0.000816467
1.63902e-08
2.77844e-05
0.000802174
4.18558e-05
0.000788752
5.59118e-05
0.000776483
6.98755e-05
0.00076409
8.36868e-05
0.000750818
9.72974e-05
0.00073604
0.000110659
0.000719801
0.000123733
0.000701752
0.000136476
0.000682119
0.000148852
0.000660786
0.000160822
0.000637773
0.000172355
0.000613126
0.000183412
0.000586895
0.000193969
0.00055914
0.000203989
0.000529926
0.00021345
0.000499325
0.000222317
0.000467413
0.000230573
0.000434272
0.000238187
0.000399987
0.000245145
0.000364649
0.000251421
0.000328345
0.000257
0.000291194
0.000261865
0.000253287
0.000266002
0.00021473
0.0002694
0.000175638
0.000272044
0.000136129
0.000273934
9.63359e-05
0.000275057
5.66139e-05
1.62188e-05
0.000275406
1.35437e-05
0.000802911
1.43747e-08
2.72748e-05
0.000788444
4.10871e-05
0.000774941
5.48845e-05
0.000762688
6.85914e-05
0.000750385
8.21491e-05
0.000737263
9.55099e-05
0.000722682
0.000108627
0.000706686
0.000121462
0.000688921
0.000133972
0.000669612
0.000146122
0.00064864
0.000157874
0.000626024
0.000169198
0.000601809
0.000180055
0.000576042
0.000190421
0.000548783
0.00020026
0.000520094
0.000209549
0.000490046
0.000218257
0.000458713
0.000226365
0.000426176
0.000233843
0.000392519
0.000240676
0.00035783
0.000246839
0.000322195
0.000252319
0.000285731
0.000257097
0.000248526
0.000261161
0.000210687
0.000264499
0.000172324
0.000267096
0.000133554
0.000268954
9.45092e-05
0.000270057
5.55368e-05
1.59201e-05
0.000270403
1.32964e-05
0.000789602
1.2404e-08
2.67749e-05
0.000774964
4.0333e-05
0.000761381
5.38766e-05
0.000749143
6.73315e-05
0.000736928
8.06403e-05
0.000723952
9.3756e-05
0.000709564
0.000106633
0.000693806
0.000119233
0.000676318
0.000131515
0.000657326
0.000143444
0.000636708
0.000154982
0.000614481
0.000166099
0.000590687
0.00017676
0.000565375
0.000186938
0.0005386
0.000196599
0.000510425
0.000205722
0.000480918
0.000214273
0.000450153
0.000222235
0.000418207
0.000229579
0.000385165
0.000236289
0.000351111
0.000242342
0.000316131
0.000247725
0.000280339
0.000252418
0.000243822
0.000256409
0.000206684
0.000259688
0.000169035
0.00026224
0.000130988
0.000264066
9.26743e-05
0.000265151
5.44363e-05
1.55579e-05
0.00026549
1.30538e-05
0.00077654
1.04949e-08
2.62844e-05
0.000761735
3.95931e-05
0.000748074
5.28877e-05
0.000735851
6.60953e-05
0.000723723
7.91597e-05
0.00071089
9.20349e-05
0.000696691
0.000104676
0.000681168
0.000117046
0.000663951
0.000129103
0.000645272
0.000140815
0.000625001
0.000152143
0.000603156
0.000163059
0.000579778
0.000173526
0.000554912
0.00018352
0.000528614
0.000193007
0.000500944
0.000201965
0.00047197
0.000210362
0.000441763
0.000218181
0.0004104
0.000225393
0.000377962
0.000231984
0.000344534
0.000237929
0.000310198
0.000243215
0.000275069
0.000247825
0.00023923