/*--------------------------------*- C++ -*----------------------------------*\
  =========                 |
  \\      /  F ield         | OpenFOAM: The Open Source CFD Toolbox
   \\    /   O peration     | Website:  https://openfoam.org
    \\  /    A nd           | Version:  6.0
     \\/     M anipulation  |
\*---------------------------------------------------------------------------*/
FoamFile
{
    version     2.0;
    format      ascii;
    class       surfaceScalarField;
    location    "4";
    object      phi;
}
// * * * * * * * * * * * * * * * * * * * * * * * * * * * * * * * * * * * * * //

dimensions      [0 3 -1 0 0 0 0];

internalField   nonuniform List<scalar> 
93586
(
1.73826e-05
0.00102947
-1.20968e-07
3.50281e-05
0.00102632
5.29141e-05
0.00102052
7.09012e-05
0.00101201
8.88851e-05
0.00100069
0.000106794
0.000986485
0.000124554
0.000969355
0.000142088
0.000949343
0.000159313
0.000926525
0.000176147
0.000901041
0.000192508
0.000873038
0.000208334
0.00084267
0.000223563
0.000810086
0.00023815
0.000775413
0.000252052
0.000738765
0.000265235
0.000700239
0.000277665
0.000659928
0.000289312
0.000617917
0.000300145
0.000574301
0.00031014
0.000529172
0.000319268
0.000482635
0.000327506
0.000434796
0.00033483
0.000385775
0.000341221
0.000335691
0.000346658
0.000284674
0.000351124
0.000232854
0.000354601
0.000180358
0.000357099
0.000127271
0.000358082
7.39757e-05
1.92103e-05
0.000356109
1.69132e-05
0.00101262
-5.97511e-08
3.41818e-05
0.00100906
5.17401e-05
0.00100296
6.94528e-05
0.000994303
8.72064e-05
0.000982942
0.000104912
0.000968787
0.000122474
0.000951797
0.000139801
0.000932021
0.0001568
0.000909528
0.000173386
0.000884457
0.000189481
0.000856942
0.000205026
0.000827124
0.000219968
0.000795139
0.000234267
0.000761108
0.000247886
0.000725136
0.000260796
0.000687319
0.000272965
0.000647744
0.000284367
0.000606499
0.000294972
0.000563675
0.000304757
0.000519365
0.000313693
0.000473672
0.000321759
0.000426702
0.000328929
0.000378572
0.000335185
0.000329402
0.000340507
0.000279317
0.000344875
0.000228446
0.00034827
0.000176921
0.000350656
0.000124838
0.000351803
7.27817e-05
1.96746e-05
0.000351261
1.66467e-05
0.000995987
-1.40928e-08
3.36968e-05
0.000992008
5.10371e-05
0.000985618
6.85276e-05
0.000976815
8.60483e-05
0.00096542
0.000103504
0.000951334
0.000120796
0.000934502
0.000137833
0.000914984
0.000154525
0.000892833
0.000170794
0.000868187
0.000186568
0.000841164
0.000201794
0.000811895
0.000216423
0.000780506
0.000230421
0.000747107
0.000243751
0.000711802
0.000256388
0.000674679
0.000268299
0.000635829
0.000279461
0.000595336
0.000289844
0.00055329
0.000299424
0.000509785
0.000308173
0.000464923
0.000316071
0.000418807
0.000323091
0.000371555
0.000329215
0.000323283
0.000334422
0.000274117
0.000338692
0.000224184
0.000342002
0.000173622
0.000344305
0.00012255
0.000345515
7.15873e-05
1.97012e-05
0.000345532
1.64156e-05
0.000979557
1.59083e-08
3.32575e-05
0.00097517
5.03786e-05
0.000968499
6.76347e-05
0.000959563
8.49026e-05
0.000948154
0.000102085
0.000934156
0.000119085
0.000917504
0.000135816
0.000898259
0.000152191
0.000876458
0.000168141
0.000852241
0.000183596
0.000825709
0.000198511
0.000796983
0.000212838
0.000766177
0.000226547
0.000733398
0.000239602
0.000698743
0.000251979
0.000662299
0.000263646
0.000624155
0.00027458
0.000584395
0.00028475
0.000543109
0.000294135
0.00050039
0.000302706
0.000456337
0.000310441
0.000411055
0.000317317
0.00036466
0.000323313
0.000317266
0.000328408
0.000268998
0.000332584
0.000219984
0.000335813
0.000170365
0.000338054
0.000120277
0.000339283
7.03281e-05
1.94413e-05
0.000339487
1.6187e-05
0.000963334
3.6097e-08
3.28114e-05
0.000958546
4.97013e-05
0.000951608
6.67096e-05
0.000942556
8.37117e-05
0.00093115
0.000100611
0.000917258
0.000117312
0.000900799
0.000133734
0.000881837
0.000149795
0.000860392
0.000165431
0.000836604
0.000180577
0.000810559
0.000195192
0.000782366
0.00020923
0.000752135
0.000222663
0.000719964
0.000235456
0.000685947
0.000247585
0.000650171
0.000259019
0.000612721
0.000269735
0.000573681
0.000279703
0.000533143
0.000288901
0.000491196
0.000297301
0.000447942
0.000304882
0.000403481
0.000311619
0.000357931
0.000317493
0.000311402
0.000322482
0.00026402
0.000326568
0.000215913
0.000329724
0.000167225
0.00033192
0.000118101
0.000333152
6.91179e-05
1.92103e-05
0.000333431
1.59576e-05
0.000947327
5.1102e-08
3.23556e-05
0.000942152
4.90039e-05
0.000934961
6.57539e-05
0.00092581
8.24812e-05
0.000914424
9.90902e-05
0.000900654
0.00011549
0.0008844
0.000131604
0.000865728
0.000147355
0.000844643
0.000162684
0.000821279
0.000177531
0.000795713
0.000191856
0.000768044
0.000205617
0.000738374
0.000218785
0.000706797
0.000231327
0.000673404
0.000243219
0.000638278
0.000254431
0.000601506
0.000264938
0.000563171
0.000274712
0.000523362
0.000283732
0.00048217
0.000291967
0.000439695
0.0002994
0.000396037
0.000306004
0.000351311
0.000311762
0.000305629
0.00031665
0.000259113
0.000320652
0.000211892
0.000323743
0.000164111
0.000325899
0.000115919
0.000327127
6.7865e-05
1.88617e-05
0.000327429
1.57231e-05
0.000931529
7.37835e-08
3.18847e-05
0.000925991
4.82814e-05
0.000918562
6.47645e-05
0.000909327
8.12106e-05
0.000897975
9.75265e-05
0.000884337
0.000113626
0.000868297
0.000129434
0.000849918
0.000144882
0.000829189
0.000159913
0.000806246
0.00017447
0.000781151
0.000188516
0.000753996
0.00020201
0.000724876
0.000214925
0.000693882
0.000227226
0.0006611
0.000238891
0.000626614
0.000249888
0.000590509
0.000260196
0.000552866
0.000269784
0.000513776
0.000278631
0.000473328
0.00028671
0.000431621
0.000294
0.000388754
0.000300477
0.000344843
0.000306123
0.000299994
0.000310916
0.000254333
0.000314837
0.000207985
0.000317867
0.000161098
0.000319987
0.000113819
0.000321203
6.66716e-05
1.85948e-05
0.000321516
1.54829e-05
0.000915969
7.91634e-08
3.13983e-05
0.000910079
4.75348e-05
0.000902427
6.37445e-05
0.000893121
7.99059e-05
0.000881815
9.59281e-05
0.00086832
0.000111729
0.000852498
0.000127238
0.000834414
0.000142389
0.00081404
0.00015713
0.00079151
0.000171407
0.000766876
0.000185185
0.000740222
0.000198422
0.00071164
0.000211092
0.000681214
0.000223162
0.00064903
0.000234608
0.000615169
0.0002454
0.000579714
0.000255515
0.000542749
0.000264924
0.000504361
0.000273606
0.000464641
0.000281533
0.000423685
0.000288686
0.000381592
0.00029504
0.000338475
0.000300578
0.000294443
0.000305279
0.000249616
0.000309125
0.000204122
0.000312098
0.000158104
0.000314182
0.000111712
0.000315384
6.54467e-05
1.82422e-05
0.000315693
1.52376e-05
0.000900652
7.79161e-08
3.08985e-05
0.000894418
4.67685e-05
0.000886555
6.27007e-05
0.000877188
7.85758e-05
0.000865936
9.43057e-05
0.000852588
0.000109811
0.000836987
0.000125027
0.000819196
0.00013989
0.000799171
0.00015435
0.000777047
0.000168356
0.000752865
0.000181873
0.000726703
0.000194862
0.000698647
0.000207296
0.000668779
0.000219143
0.000637182
0.000230378
0.000603935
0.00024097
0.000569121
0.0002509
0.000532822
0.000260135
0.000495128
0.000268657
0.000456124
0.000276437
0.000415909
0.000283458
0.000374578
0.000289694
0.000332247
0.000295129
0.000289019
0.000299741
0.000245016
0.000303514
0.000200363
0.000306432
0.000155203
0.000308481
0.000109683
0.000309666
6.42842e-05
1.79763e-05
0.000309974
1.49878e-05
0.00088559
7.55852e-08
3.03885e-05
0.000879021
4.59878e-05
0.000870957
6.16404e-05
0.00086154
7.72295e-05
0.00085035
9.26697e-05
0.000837153
0.000107885
0.000821774
0.000122814
0.000804273
0.000137395
0.000784592
0.000151583
0.000762865
0.000165325
0.000739124
0.000178591
0.000713442
0.000191339
0.0006859
0.000203545
0.000656576
0.000215175
0.000625552
0.000226205
0.000592906
0.000236605
0.000558719
0.000246354
0.000523073
0.000255421
0.000486055
0.000263788
0.000447753
0.000271426
0.000408262
0.000278319
0.000367678
0.00028444
0.000326114
0.000289774
0.000283673
0.0002943
0.000240474
0.000298004
0.000196643
0.000300869
0.000152319
0.000302883
0.000107647
0.000304051
6.30949e-05
1.76335e-05
0.000304352
1.4735e-05
0.000870781
7.27832e-08
2.98718e-05
0.000863883
4.5198e-05
0.000855628
6.05708e-05
0.000846166
7.58757e-05
0.00083504
9.10299e-05
0.000821996
0.000105961
0.000806838
0.000120608
0.000789623
0.000134916
0.000770278
0.000148837
0.000748941
0.000162324
0.000725632
0.000175345
0.000700419
0.00018786
0.00067338
0.000199844
0.000644591
0.000211263
0.000614131
0.000222094
0.000582075
0.000232307
0.000548506
0.000241881
0.000513502
0.000250784
0.000477153
0.000259
0.000439542
0.0002665
0.000400767
0.000273268
0.000360918
0.000279277
0.000320111
0.000284514
0.000278447
0.000288957
0.000236043
0.000292593
0.000193021
0.000295406
0.000149523
0.000297387
0.000105687
0.000298535
6.19679e-05
1.73752e-05
0.000298834
1.44806e-05
0.000856234
6.80804e-08
2.93515e-05
0.000849016
4.44044e-05
0.000840577
5.94983e-05
0.000831076
7.45217e-05
0.000820019
8.93941e-05
0.000807129
0.000104046
0.000792189
0.000118419
0.000775256
0.000132459
0.000756241
0.000146121
0.000735284
0.000159359
0.000712396
0.000172142
0.000687641
0.000184429
0.000661094
0.000196197
0.000632827
0.000207411
0.000602917
0.000218048
0.00057144
0.000228078
0.000538474
0.000237481
0.0005041
0.000246225
0.000468404
0.000254294
0.00043147
0.000261659
0.000393394
0.000268305
0.000354266
0.000274205
0.000314199
0.000279347
0.000273294
0.00028371
0.000231666
0.00028728
0.000189436
0.000290043
0.000146741
0.00029199
0.00010372
0.00029312
6.08162e-05
1.70432e-05
0.000293412
1.42258e-05
0.000841943
6.33857e-08
2.88307e-05
0.00083441
4.3611e-05
0.000825793
5.84284e-05
0.000816257
7.31739e-05
0.000805269
8.7769e-05
0.000792531
0.000102147
0.000777805
0.000116251
0.000761147
0.00013003
0.000742455
0.00014344
0.00072187
0.000156435
0.000699395
0.000168985
0.000675089
0.000181051
0.000649024
0.000192607
0.000621269
0.00020362
0.000591901
0.000214069
0.000560992
0.00022392
0.000528622
0.000233155
0.000494868
0.000241744
0.000459816
0.000249669
0.00042355
0.000256903
0.000386164
0.000263429
0.000347747
0.000269224
0.000308411
0.000274273
0.000268255
0.000278557
0.000227393
0.000282064
0.000185944
0.000284777
0.000144043
0.000286691
0.000101826
0.000287802
5.97258e-05
1.67931e-05
0.000288092
1.39717e-05
0.000827914
6.0162e-08
2.83117e-05
0.000820074
4.28215e-05
0.000811286
5.73653e-05
0.000801717
7.18369e-05
0.000790801
8.61597e-05
0.000778213
0.000100269
0.000763699
0.000114111
0.000747312
0.000127634
0.000728936
0.000140797
0.000708713
0.000153555
0.00068664
0.000165878
0.000662772
0.000177726
0.000637177
0.000189076
0.000609924
0.000199893
0.000581085
0.000210156
0.000550732
0.000219833
0.000518944
0.000228905
0.000485797
0.000237341
0.000451375
0.000245126
0.000415763
0.00025223
0.000379052
0.000258641
0.000341331
0.000264332
0.000302709
0.000269291
0.000263286
0.000273498
0.000223172
0.000276942
0.000182486
0.000279608
0.000141359
0.000281489
9.99257e-05
0.000282582
5.86112e-05
1.64707e-05
0.000282865
1.37193e-05
0.000814135
5.72004e-08
2.77965e-05
0.000805995
4.20387e-05
0.00079704
5.63126e-05
0.000787441
7.05146e-05
0.000776593
8.45701e-05
0.000764154
9.84162e-05
0.000749847
0.000112001
0.000733723
0.000125274
0.000715655
0.000138196
0.000695787
0.000150722
0.000674108
0.000162822
0.000650669
0.000174458
0.000625536
0.000185606
0.000598775
0.000196231
0.000570457
0.000206312
0.000540651
0.000215818
0.000509437
0.000224729
0.000476888
0.000233016
0.000443089
0.000240663
0.000408121
0.000247641
0.000372076
0.000253938
0.000335041
0.000259528
0.000297126
0.000264398
0.000258425
0.000268531
0.00021905
0.000271914
0.000179117
0.000274533
0.000138755
0.000276381
9.80964e-05
0.000277456
5.75568e-05
1.62284e-05
0.000277737
1.34692e-05
0.000800614
5.44925e-08
2.72866e-05
0.000792181
4.12647e-05
0.000783065
5.52727e-05
0.000773437
6.92097e-05
0.00076266
8.30029e-05
0.000750366
9.65912e-05
0.000736262
0.000109924
0.000720397
0.000122953
0.00070263
0.000135638
0.000683109
0.000147936
0.000661813
0.000159818
0.000638793
0.000171246
0.000614111
0.000182196
0.00058783
0.000192632
0.000560021
0.000202535
0.000530752
0.000211873
0.000500098
0.000220628
0.000468135
0.000228768
0.000434944
0.00023628
0.000400608
0.000243135
0.000365214
0.00024932
0.000328851
0.00025481
0.000291625
0.000259595
0.000253631
0.000263654
0.000214978
0.000266978
0.00017578
0.000269551
0.000136164
0.000271368
9.62605e-05
0.000272425
5.64781e-05
1.59141e-05
0.000272699
1.32222e-05
0.000787337
5.18089e-08
2.67832e-05
0.000778618
4.0501e-05
0.000769342
5.42476e-05
0.000759687
6.79244e-05
0.000748977
8.14602e-05
0.000736826
9.47958e-05
0.00072292
0.000107882
0.000707307
0.000120671
0.000689834
0.000133125
0.00067065
0.0001452
0.000649731
0.000156868
0.000627121
0.000168092
0.000602882
0.000178846
0.000577074
0.000189098
0.000549766
0.000198826
0.000521023
0.000207999
0.000490923
0.0002166
0.000459537
0.000224597
0.000426947
0.000231977
0.000393233
0.00023871
0.000358483
0.000244786
0.000322782
0.000250179
0.000286238
0.000254879
0.000248941
0.000258866
0.000211001
0.000262131
0.000172529
0.000264659
0.000133651
0.000266445
9.44937e-05
0.000267484
5.54587e-05
1.56789e-05
0.000267758
1.29787e-05
0.000774311
4.93988e-08
2.62871e-05
0.000765314
3.97489e-05
0.000755884
5.32385e-05
0.000746202
6.66599e-05
0.00073556
7.99433e-05
0.000723549
9.30313e-05
0.000709836
0.000105875
0.00069447
0.000118429
0.000677284
0.000130656
0.000658431
0.000142513
0.000637879
0.000153972
0.00061567
0.000164994
0.000591862
0.000175558
0.000566516
0.000185628
0.000539697
0.000195185
0.000511471
0.000204196
0.000481911
0.000212645
0.00045109
0.000220501
0.000419087
0.000227751
0.000385982
0.000234365
0.000351861
0.000240334
0.000316808
0.000245632
0.000280929
0.000250249
0.000244315
0.000254166
0.000207071
0.000257374
0.000169308
0.000259858
0.000131149
0.000261614
9.27194e-05
0.000262636
5.44143e-05
1.53715e-05
0.000262904
1.2739e-05
0.000761522
4.68469e-08
2.5799e-05
0.000752251
3.90091e-05
0.000742669
5.22465e-05
0.000732961
6.54172e-05
0.000722383
7.84532e-05
0.000710508
9.12982e-05
0.000696984
0.000103905
0.000681858
0.000116229
0.000664953
0.000128233
0.000646423
0.000139875
0.00062623
0.000151128
0.000604414
0.000161953
0.000581031
0.000172329
0.000556138
0.000182221
0.000529801
0.000191609
0.000502083
0.000200461
0.000473056
0.000208761
0.000442791
0.000216479
0.000411369
0.000223602
0.000378864
0.0002301
0.000345365
0.000235963
0.000310951
0.000241168
0.00027573
0.000245703
0.000239789
0.000249551
0.000203233
0.000252703
0.00016617
0.000255144
0.000128722
0.00025687
9.10127e-05
0.000257875
5.34287e-05
1.5143e-05
0.000258142
1.25034e-05
0.000748978
4.42701e-08
2.53191e-05
0.00073944
3.82821e-05
0.000729709
5.12718e-05
0.000719976
6.41968e-05
0.000709463
7.699e-05
0.000697721
8.9597e-05
0.000684382
0.000101971
0.000669492
0.000114069
0.00065286
0.000125855
0.000634645
0.000137286
0.000614803
0.000148337
0.00059337
0.000158969
0.000570402
0.00016916
0.000545953
0.000178876
0.000520086
0.000188099
0.000492865
0.000196795
0.000464359
0.000204949
0.00043464
0.000212531
0.000403783
0.000219528
0.000371867
0.000225912
0.000338974
0.000231672
0.000305186
0.000236785
0.000270607
0.000241241
0.000235325
0.000245021
0.00019944
0.000248119
0.000163061
0.000250518
0.000126305
0.000252214
8.92976e-05
0.000253204
5.2417e-05
1.48414e-05
0.000253465
1.22719e-05
0.000736661
4.15784e-08
2.48479e-05
0.00072686
3.75682e-05
0.000716984
5.03151e-05
0.000707225
6.29989e-05
0.000696773
7.55542e-05
0.000685161
8.79277e-05
0.000672002
0.000100074
0.00065734
0.00011195
0.000640975
0.000123521
0.000623069
0.000134746
0.000603571
0.000145598
0.000582515
0.00015604
0.000559954
0.00016605
0.000535941
0.000175594
0.000510538
0.000184653
0.000483805
0.000193196
0.000455814
0.000201207
0.000426631
0.000208655
0.000396334
0.000215529
0.000364997
0.0002218
0.000332704
0.00022746
0.000299533
0.000232482
0.00026559
0.000236861
0.000230956
0.000240575
0.000195735
0.000243618
0.000160031
0.000245976
0.000123962
0.000247644
8.76488e-05
0.000248616
5.14638e-05
1.46193e-05
0.000248877
1.20447e-05
0.00072458
3.8847e-08
2.43853e-05
0.000714524
3.68677e-05
0.000704505
4.93762e-05
0.000694721
6.18236e-05
0.000684331
7.41455e-05
0.000672846
8.62901e-05
0.000659863
9.82128e-05
0.000645425
0.000109872
0.000629322
0.000121232
0.000611717
0.000132254
0.000592554
0.000142911
0.000571866
0.000153165
0.000549703
0.000162997
0.000526116
0.000172372
0.000501165
0.000181271
0.000474911
0.000189663
0.000447421
0.000197533
0.000418764
0.00020485
0.000389013
0.000211604
0.000358243
0.000217764
0.000326536
0.000223325
0.000293969
0.000228259
0.000260645
0.000232561
0.000226647
0.00023621
0.000192073
0.000239201
0.000157029
0.000241517
0.000121627
0.000243157
8.59904e-05
0.000244115
5.04834e-05
1.43225e-05
0.00024437
1.18218e-05
0.000712719
3.60225e-08
2.39315e-05
0.000702411
3.61804e-05
0.000692251
4.84552e-05
0.000682441
6.06708e-05
0.000672109
7.27638e-05
0.000660747
8.46838e-05
0.000647935
9.63871e-05
0.000633716
0.000107833
0.000617869
0.000118987
0.000600558
0.000129808
0.000581725
0.000140274
0.000561397
0.000150345
0.000539625
0.000160002
0.000516456
0.00016921
0.000491952
0.000177952
0.000466169
0.000186195
0.000439175
0.000193927
0.000411034
0.000201115
0.000381823
0.00020775
0.000351613
0.000213802
0.000320485
0.000219265
0.000288513
0.000224113
0.000255801
0.000228339
0.000222429
0.000231925
0.000188497
0.000234864
0.000154103
0.000237141
0.000119365
0.000238753
8.43973e-05
0.000239695
4.95615e-05
1.41066e-05
0.00023995
1.16032e-05
0.000701085
3.3183e-08
2.34864e-05
0.000690532
3.55063e-05
0.000680235
4.75519e-05
0.000670401
5.95402e-05
0.000660127
7.14088e-05
0.000648886
8.31085e-05
0.000636242
9.45966e-05
0.000622237
0.000105833
0.000606638
0.000116784
0.000589617
0.00012741
0.000571104
0.000137687
0.000551129
0.000147577
0.000529737
0.000157062
0.000506979
0.000166106
0.000482909
0.000174694
0.000457587
0.000182792
0.000431076
0.000190387
0.000403443
0.000197448
0.000374758
0.000203967
0.000345095
0.000209913
0.000314531
0.00021528
0.000283142
0.000220043
0.000251029
0.000224196
0.00021827
0.000227719
0.000184961
0.000230608
0.000151204
0.000232845
0.000117108
0.000234431
8.27934e-05
0.000235358
4.86107e-05
1.38139e-05
0.000235608
1.13889e-05
0.000689662
3.02917e-08
2.30499e-05
0.000678867
3.48454e-05
0.000668434
4.66662e-05
0.000658574
5.84315e-05
0.000648355
7.00801e-05
0.000637231
8.15638e-05
0.000624751
9.28406e-05
0.000610954
0.000103871
0.0005956
0.000114623
0.00057886
0.000125057
0.000560662
0.000135149
0.000541033
0.000144862
0.000520017
0.000154178
0.000497661
0.000163061
0.00047402
0.000171496
0.000449151
0.000179451
0.000423118
0.000186912
0.000395983
0.00019385
0.000367819
0.000200254
0.000338695
0.000206095
0.00030869
0.000211368
0.000277875
0.000216048
0.000246353
0.000220128
0.000214198
0.00022359
0.000181508
0.000226429
0.000148379
0.000228628
0.000114923
0.000230188
8.12538e-05
0.000231099
4.77189e-05
1.36042e-05
0.000231349
1.11787e-05
0.000678459
2.74215e-08
2.26219e-05
0.000667428
3.41973e-05
0.000656863
4.57977e-05
0.000646979
5.73445e-05
0.000636815
6.87771e-05
0.000625807
8.00489e-05
0.000613486
9.11186e-05
0.000599894
0.000101947
0.000584777
0.000112504
0.000568313
0.000122748
0.000550423
0.000132658
0.000531131
0.000142198
0.000510481
0.000151347
0.000488519
0.000160072
0.000465297
0.000168358
0.000440871
0.000176172
0.000415303
0.000183502
0.000388657
0.000190317
0.000361001
0.000196609
0.000332404
0.000202348
0.000302944
0.000207529
0.000272691
0.000212126
0.000241746
0.000216136
0.000210182
0.000219537
0.000178094
0.000222328
0.000145578
0.000224489
0.000112742
0.000226023
7.97021e-05
0.000226921
4.67966e-05
1.33148e-05
0.000227166
1.09727e-05
0.000667458
2.45454e-08
2.22024e-05
0.000656194
3.35619e-05
0.000645497
4.49463e-05
0.000635588
5.62786e-05
0.000625476
6.74996e-05
0.000614579
7.85634e-05
0.000602414
8.94297e-05
0.000589021
0.000100061
0.000574138
0.000110425
0.000557943
0.000120484
0.000540355
0.000130215
0.000521395
0.000139583
0.000501106
0.00014857
0.00047953
0.000157139
0.000456721
0.000165279
0.000432731
0.000172954
0.000407624
0.000180155
0.000381457
0.00018685
0.000354303
0.000193031
0.000326227
0.000198669
0.000297306
0.00020376
0.000267607
0.000208277
0.000237232
0.000212217
0.000206251
0.000215559
0.00017476
0.000218302
0.00014285
0.000220427
0.000110631
0.000221935
7.82141e-05
0.000222818
4.59336e-05
1.31112e-05
0.000223064
1.07707e-05
0.000656669
2.17241e-08
2.1791e-05
0.000645178
3.2939e-05
0.000634354
4.41115e-05
0.000624421
5.52336e-05
0.000614361
6.62468e-05
0.000603574
7.71067e-05
0.000591562
8.77735e-05
0.000578364
9.82099e-05
0.000563709
0.000108385
0.000547778
0.000118262
0.000530484
0.000127819
0.000511848
0.000137019
0.00049191
0.000145844
0.000470712
0.000154261
0.000448305
0.000162256
0.000424743
0.000169796
0.000400083
0.00017687
0.000374388
0.000183447
0.000347723
0.00018952
0.000320156
0.000195059
0.00029176
0.000200061
0.000262603
0.000204499
0.000232784
0.00020837
0.000202373
0.000211655
0.000171463
0.000214351
0.000140144
0.000216439
0.000108523
0.000217923
7.67125e-05
0.000218792
4.50385e-05
1.28246e-05
0.000219033
1.05728e-05
0.000646073
1.89404e-08
2.13878e-05
0.000634358
3.23283e-05
0.000623407
4.32931e-05
0.00061345
5.4209e-05
0.000603438
6.50185e-05
0.000592758
7.56783e-05
0.000580894
8.61492e-05
0.000567887
9.63948e-05
0.000553454
0.000106385
0.000537782
0.000116083
0.000520778
0.000125467
0.000502459
0.000134502
0.000482867
0.00014317
0.000462041
0.000151437
0.000440032
0.00015929
0.000416888
0.000166696
0.000392672
0.000173646
0.00036744
0.000180107
0.000341259
0.000186073
0.000314193
0.000191515
0.000286317
0.000196429
0.000257694
0.00020079
0.000228426
0.000204595
0.000198577
0.000207822
0.000168242
0.000210472
0.000137509
0.000212525
0.000106483
0.000213985
7.52741e-05
0.000214839
4.42032e-05
1.26271e-05
0.000215081
1.03787e-05
0.000635681
1.6213e-08
2.09925e-05
0.000623749
3.17296e-05
0.000612675
4.24906e-05
0.000602695
5.32043e-05
0.000592733
6.3814e-05
0.000582157
7.42774e-05
0.000570439
8.45563e-05
0.000557618
9.46145e-05
0.000543404
0.000104423
0.000527984
0.000113945
0.000511261
0.00012316
0.000493254
0.000132033
0.000473999
0.000140546
0.000453536
0.000148666
0.000431914
0.000156379
0.000409182
0.000163654
0.000385397
0.000170481
0.000360618
0.000176828
0.000334909
0.00018269
0.000308334
0.000188037
0.000280963
0.000192865
0.000252864
0.00019715
0.000224131
0.000200889
0.000194833
0.000204061
0.000165058
0.000206666
0.000134895
0.000208684
0.000104446
0.00021012
7.38207e-05
0.000210962
4.33343e-05
1.2343e-05
0.000211199
1.01884e-05
0.000625475
1.35539e-08
2.06051e-05
0.000613327
3.11427e-05
0.000602131
4.17039e-05
0.000592126
5.22192e-05
0.00058221
6.26329e-05
0.000571736
7.29037e-05
0.00056016
8.29939e-05
0.000547521
9.28684e-05
0.00053352
0.000102499
0.000518347
0.000111848
0.000501903
0.000120897
0.0004842
0.00012961
0.000465278
0.000137971
0.000445172
0.000145946
0.000423932
0.000153523
0.000401603
0.000160669
0.000378246
0.000167375
0.000353912
0.000173611
0.00032867
0.00017937
0.000302578
0.000184623
0.000275709
0.000189367
0.000248125
0.000193577
0.000219923
0.000197251
0.000191168
0.000200369
0.000161948
0.000202929
0.000132349
0.000204913
0.000102474
0.000206326
7.24299e-05
0.000207154
4.25253e-05
1.21515e-05
0.000207392
1.00018e-05
0.000615466
1.09587e-08
2.02251e-05
0.000603109
3.05672e-05
0.000591795
4.09325e-05
0.000581767
5.12533e-05
0.000571899
6.14746e-05
0.000561524
7.15564e-05
0.000550088
8.14616e-05
0.000537627
9.11556e-05
0.000523834
0.000100611
0.000508903
0.000109791
0.000492729
0.000118677
0.000475325
0.000127233
0.000456726
0.000135444
0.000436969
0.000143277
0.000416101
0.00015072
0.000394168
0.000157739
0.000371226
0.000164327
0.000347329
0.000170453
0.000322541
0.000176111
0.000296922
0.000181272
0.000270542
0.000185934
0.000243462
0.00019007
0.000215777
0.000193681
0.000187552
0.000196745
0.000158872
0.000199263
0.000129823
0.000201213
0.000100504
0.000202602
7.10228e-05
0.000203419
4.16816e-05
1.18698e-05
0.000203652
9.81895e-06
0.000605635
8.44649e-09
1.98527e-05
0.00059307
3.0003e-05
0.000581637
4.01762e-05
0.000571586
5.03061e-05
0.000561762
6.03388e-05
0.000551484
7.0235e-05
0.000540183
7.99586e-05
0.000527896
8.94755e-05
0.000514307
9.87586e-05
0.000499614
0.000107772
0.000483706
0.000116498
0.000466594
0.0001249
0.000448315
0.000132965
0.000428901
0.000140658
0.0004084
0.000147968
0.000386856
0.000154863
0.000364325
0.000161336
0.000340858
0.000167353
0.000316519
0.000172913
0.000291366
0.000177983
0.000265469
0.000182564
0.000238886
0.000186628
0.000211713
0.000190177
0.000184012
0.000193188
0.000155868
0.000195663
0.000127363
0.000197581
9.85988e-05
0.000198948
6.96776e-05
0.00019975
4.08975e-05
1.16838e-05
0.000199985
9.63952e-06
0.000595993
5.96416e-09
1.94874e-05
0.000583228
2.94498e-05
0.000571682
3.94344e-05
0.000561608
4.93772e-05
0.000551828
5.92248e-05
0.000541646
6.89391e-05
0.000530478
7.84844e-05
0.000518362
8.78275e-05
0.000504973
9.69418e-05
0.000490511
0.000105792
0.000474862
0.00011436
0.000458037
0.000122611
0.000440068
0.000130532
0.00042099
0.000138088
0.000400847
0.000145269
0.000379683
0.000152042
0.000357552
0.0001584
0.000334506
0.000164312
0.000310604
0.000169774
0.000285908
0.000174755
0.000260481
0.000179257
0.000234384
0.00018325
0.00020771
0.000186738
0.00018052
0.000189697
0.000152897
0.000192131
0.000124923
0.000194016
9.66932e-05
0.000195361
6.83151e-05
0.000196153
4.00784e-05
1.14057e-05
0.000196383
9.46373e-06
0.000586522
3.57639e-09
1.91294e-05
0.000573557
2.89073e-05
0.000561898
3.87071e-05
0.000551801
4.84662e-05
0.000542062
5.81323e-05
0.000531972
6.7668e-05
0.000520934
7.70384e-05
0.000508984
8.62108e-05
0.000495791
9.51594e-05
0.000481556
0.000103849
0.000466162
0.000112263
0.000449618
0.000120366
0.000431955
0.000128145
0.000413207
0.000135566
0.000393417
0.000142619
0.000372627
0.000149272
0.000350892
0.000155519
0.000328259
0.000161326
0.000304792
0.000166693
0.000280544
0.000171587
0.000255583
0.00017601
0.000229965
0.000179935
0.000203786
0.000183363
0.0001771
0.000186271
0.000149994
0.000188664
0.000122545
0.000190517
9.48516e-05
0.000191841
6.70135e-05
0.000192619
3.93181e-05
1.12225e-05
0.000192851
9.29124e-06
0.000577234
1.19591e-09
1.87782e-05
0.000564077
2.83754e-05
0.000552308
3.79938e-05
0.000542189
4.75728e-05
0.000532493
5.70607e-05
0.000522494
6.64212e-05
0.000511583
7.562e-05
0.000499797
8.46249e-05
0.000486795
9.34108e-05
0.000472782
0.000101943
0.000457637
0.000110205
0.000441367
0.000118162
0.000424003
0.000125802
0.000405577
0.000133091
0.000386131
0.00014002
0.000365708
0.000146555
0.000344357
0.000152691
0.00032213
0.000158397
0.000299084
0.000163669
0.000275275
0.000168478
0.000250768
0.000172825
0.00022562
0.000176681
0.000199921
0.00018005
0.000173729
0.000182909
0.000147124
0.000185261
0.000120186
0.000187083
9.30084e-05
0.000188386
6.56939e-05
0.000189154
3.85223e-05
1.0949e-05
0.000189382
9.12224e-06
0.00056811
-1.08972e-09
1.8434e-05
0.00055476
2.78538e-05
0.000542882
3.72944e-05
0.000532741
4.66966e-05
0.000523084
5.60097e-05
0.000513173
6.51983e-05
0.000502386
7.42286e-05
0.000490759
8.30691e-05
0.000477944
9.16953e-05
0.000464149
0.000100073
0.000449248
0.000108186
0.000433248
0.000116
0.000416179
0.000123504
0.00039807
0.000130662
0.000378963
0.000137468
0.0003589
0.000143888
0.00033793
0.000149916
0.000316101
0.000155521
0.000293472
0.000160702
0.000270097
0.000165427
0.000246038
0.000169698
0.000221352
0.000173487
0.00019613
0.000176799
0.000170425
0.000179608
0.00014432
0.000181921
0.000117888
0.000183713
9.1228e-05
0.000184995
6.44344e-05
0.000185751
3.77846e-05
1.07644e-05
0.000185981
8.95639e-06
0.000559161
-3.37816e-09
1.80962e-05
0.000545627
2.73422e-05
0.000533645
3.66083e-05
0.000523482
4.58372e-05
0.000513866
5.49788e-05
0.000504042
6.39986e-05
0.000493377
7.28637e-05
0.000481906
8.15428e-05
0.000469274
9.00124e-05
0.000455692
9.82383e-05
0.00044103
0.000106205
0.000425293
0.000113879
0.00040851
0.000121248
0.000390711
0.000128279
0.000371936
0.000134965
0.000352224
0.00014127
0.000331625
0.000147193
0.000310186
0.000152699
0.000287964
0.000157789
0.000265012
0.000162432
0.000241391
0.000166629
0.000217157
0.000170353
0.000192398
0.000173608
0.000167169
0.000176369
0.000141547
0.000178644
0.000115609
0.000180405
8.94449e-05
0.000181667
6.31561e-05
0.000182414
3.70106e-05
1.04917e-05
0.000182641
8.7939e-06
0.000550369
-5.549e-09
1.77651e-05
0.000536651
2.68405e-05
0.000524563
3.59355e-05
0.000514379
4.49943e-05
0.0005048
5.39677e-05
0.00049506
6.28219e-05
0.000484513
7.15247e-05
0.000473195
8.00455e-05
0.000460742
8.83611e-05
0.000447369
9.64381e-05
0.000432941
0.000104262
0.000417463
0.000111797
0.000400963
0.000119035
0.000383469
0.000125941
0.00036502
0.000132508
0.000345654
0.000138702
0.000325422
0.00014452
0.000304367
0.00014993
0.000282546
0.000154931
0.000260011
0.000159493
0.000236823
0.000163617
0.000213034
0.000167277
0.000188736
0.000170476
0.000163976
0.00017319
0.000138837
0.000175427
0.000113388
0.000177159
8.77236e-05
0.000178401
6.19372e-05
0.000179136
3.62944e-05
1.03037e-05
0.000179366
8.63441e-06
0.000541746
-7.72604e-09
1.74403e-05
0.000527852
2.63484e-05
0.000515664
3.52754e-05
0.000505459
4.41675e-05
0.000495919
5.29757e-05
0.000486263
6.16675e-05
0.000475833
7.02111e-05
0.000464664
7.85765e-05
0.000452387
8.67411e-05
0.000439217
9.46718e-05
0.000425018
0.000102354
0.000409794
0.000109755
0.000393568
0.000116863
0.000376372
0.000123646
0.000358241
0.000130097
0.000339214
0.000136181
0.000319338
0.000141898
0.000298659
0.000147212
0.00027723
0.000152126
0.000255103
0.000156608
0.000232337
0.000160662
0.000208984
0.000164258
0.000185132
0.000167403
0.000160832
0.000170071
0.000136158
0.00017227
0.000111185
0.000173973
8.59984e-05
0.000175195
6.06988e-05
0.00017592
3.55416e-05
1.0033e-05
0.000176146
8.47814e-06
0.000533274
-9.774e-09
1.71218e-05
0.000519203
2.58658e-05
0.000506914
3.46282e-05
0.000496689
4.33566e-05
0.000487184
5.20028e-05
0.000477608
6.05351e-05
0.000467291
6.89224e-05
0.000456268
7.71352e-05
0.000444163
8.51516e-05
0.000431193
9.29387e-05
0.000417219