/*--------------------------------*- C++ -*----------------------------------*\
  =========                 |
  \\      /  F ield         | OpenFOAM: The Open Source CFD Toolbox
   \\    /   O peration     | Website:  https://openfoam.org
    \\  /    A nd           | Version:  6.0
     \\/     M anipulation  |
\*---------------------------------------------------------------------------*/
FoamFile
{
    version     2.0;
    format      ascii;
    class       volVectorField;
    location    "4";
    object      U;
}
// * * * * * * * * * * * * * * * * * * * * * * * * * * * * * * * * * * * * * //

dimensions      [0 1 -1 0 0 0 0];

internalField   nonuniform List<vector> 
47000
(
(1.00003 0.000123396 3.09721e-18)
(1.00001 0.000394751 5.85721e-18)
(0.999973 0.000610891 -4.28323e-17)
(0.999898 0.000736416 -7.82809e-17)
(0.999781 0.000744495 5.9494e-17)
(0.999618 0.000628556 -3.76419e-17)
(0.999417 0.000398434 1.65368e-16)
(0.999195 8.03764e-05 -1.8326e-18)
(0.99897 -0.000291729 2.39929e-17)
(0.998761 -0.00068264 -2.74103e-16)
(0.998582 -0.00106297 1.93253e-16)
(0.998446 -0.00141154 7.71038e-17)
(0.998353 -0.00171761 1.27887e-16)
(0.998304 -0.00197752 1.67984e-16)
(0.998292 -0.00219546 -1.62568e-16)
(0.998315 -0.00237637 -1.01442e-16)
(0.998362 -0.00252934 -8.65369e-18)
(0.998431 -0.00266099 -1.26767e-16)
(0.998513 -0.00278077 -7.92564e-17)
(0.998607 -0.00289406 -4.79556e-18)
(0.998709 -0.00300936 -3.85765e-16)
(0.998816 -0.00313214 -1.88889e-16)
(0.998928 -0.00327193 -1.67867e-16)
(0.999045 -0.00343735 -4.39468e-18)
(0.999166 -0.00364411 1.8294e-16)
(0.999291 -0.00391404 -8.8944e-17)
(0.999429 -0.00429166 2.15012e-16)
(0.999467 -0.00484205 -1.76906e-16)
(1.00048 -0.00561156 7.95227e-17)
(0.991184 -0.0102529 -3.58478e-17)
(1.00015 0.000327254 -6.66576e-18)
(1.00008 0.000717203 -2.02596e-17)
(0.99992 0.000948217 -8.53417e-19)
(0.999675 0.000959755 9.94178e-17)
(0.999347 0.000727563 -4.93639e-17)
(0.998949 0.000272548 1.33143e-16)
(0.998509 -0.000352816 -1.06341e-16)
(0.998061 -0.00107995 2.89927e-17)
(0.997636 -0.0018379 -1.87456e-16)
(0.997267 -0.00256926 -1.13221e-17)
(0.99697 -0.0032332 -3.79457e-17)
(0.996756 -0.00380945 6.74908e-17)
(0.996624 -0.00429288 -1.61059e-16)
(0.996569 -0.00469095 9.44445e-18)
(0.996579 -0.00501722 6.36804e-17)
(0.996644 -0.00528776 -2.2267e-17)
(0.996751 -0.00551857 1.39181e-16)
(0.996891 -0.00572437 -8.6662e-17)
(0.997056 -0.00591839 -2.38912e-16)
(0.997239 -0.00611165 3.25707e-16)
(0.997436 -0.00631496 1.41831e-16)
(0.997644 -0.00653801 4.21233e-17)
(0.997861 -0.00679237 1.23264e-16)
(0.998088 -0.00708999 1.25023e-16)
(0.998324 -0.0074479 -7.53084e-17)
(0.998569 -0.00788729 -6.80439e-18)
(0.998833 -0.008444 -7.41417e-17)
(0.998968 -0.00918039 -1.42437e-16)
(0.999795 -0.00986956 1.41255e-16)
(0.995369 -0.0127468 4.71848e-17)
(1.00026 0.000343715 7.77622e-18)
(1.00016 0.000571234 1.7965e-18)
(0.99997 0.000623465 -2.52384e-18)
(0.999682 0.000446231 -1.71816e-16)
(0.99931 2.66868e-05 1.57694e-17)
(0.99887 -0.000601526 -1.15152e-16)
(0.998394 -0.00137314 1.04247e-16)
(0.997915 -0.00221318 -8.72328e-17)
(0.997466 -0.00304761 1.80096e-16)
(0.997077 -0.00382228 1.18272e-16)
(0.996766 -0.00450132 -4.96286e-17)
(0.996542 -0.00507172 -4.16409e-17)
(0.996405 -0.00553445 2.48607e-16)
(0.996347 -0.00590304 -7.85426e-17)
(0.996359 -0.00619469 5.66014e-17)
(0.99643 -0.00642879 3.62711e-17)
(0.996548 -0.00662255 -1.41417e-16)
(0.996702 -0.00679184 2.13536e-16)
(0.996884 -0.00694928 1.36653e-16)
(0.997089 -0.0071055 -1.27356e-17)
(0.99731 -0.00726936 2.79129e-16)
(0.997544 -0.0074486 2.80537e-16)
(0.997791 -0.0076509 2.2373e-16)
(0.998047 -0.00788329 6.36885e-17)
(0.998314 -0.00815436 -1.03216e-16)
(0.998588 -0.00847286 2.51112e-17)
(0.998871 -0.00885248 -1.78741e-16)
(0.999027 -0.00933556 1.86907e-16)
(0.999491 -0.00955755 -4.9011e-17)
(0.997766 -0.0111145 -6.34876e-17)
(1.00032 0.000320356 -1.09039e-17)
(1.00023 0.000372013 4.62905e-18)
(1.00005 0.00025748 4.29853e-17)
(0.999785 -6.63813e-05 1.28767e-16)
(0.999443 -0.000603774 1.16521e-17)
(0.999037 -0.0013166 1.55002e-17)
(0.998592 -0.00213832 -1.16127e-16)
(0.99814 -0.00299747 -5.08499e-18)
(0.997712 -0.00382511 -9.43693e-17)
(0.997335 -0.0045739 -3.55224e-17)
(0.997028 -0.00521423 5.33224e-17)
(0.996801 -0.00573848 -3.44617e-17)
(0.996656 -0.00615167 -1.04645e-16)
(0.996587 -0.00646996 6.57711e-17)
(0.996587 -0.00671226 4.36829e-18)
(0.996645 -0.00689849 1.75122e-16)
(0.996751 -0.00704613 -5.11775e-17)
(0.996896 -0.00717056 -9.73456e-17)
(0.99707 -0.00728388 -1.37048e-16)
(0.997268 -0.00739563 -4.00649e-16)
(0.997485 -0.00751359 -8.93637e-17)
(0.997716 -0.00764399 -2.56586e-16)
(0.99796 -0.0077928 -2.39968e-16)
(0.998214 -0.00796509 -1.9909e-16)
(0.998476 -0.00816711 2.80075e-16)
(0.998741 -0.00840548 -1.7084e-16)
(0.999002 -0.00869103 1.0667e-16)
(0.999148 -0.0090659 1.24651e-16)
(0.999404 -0.0091507 -1.23912e-16)
(0.998741 -0.0103684 3.50963e-17)
(1.00034 0.000287645 2.04428e-18)
(1.00025 0.00017863 -5.60516e-18)
(1.00009 -7.98444e-05 -4.16633e-18)
(0.999861 -0.000520163 -2.54159e-18)
(0.999561 -0.00114013 -6.9591e-17)
(0.9992 -0.00190053 1.70683e-17)
(0.998801 -0.00273749 -3.7472e-17)
(0.998389 -0.00358588 -5.90466e-17)
(0.997992 -0.00438393 1.19761e-16)
(0.997638 -0.0050915 -3.18341e-17)
(0.997343 -0.00568485 1.31824e-16)
(0.997119 -0.00616064 1.4063e-16)
(0.996969 -0.0065266 -1.25099e-16)
(0.996891 -0.00680026 -1.29011e-16)
(0.996877 -0.00700114 -2.00555e-16)
(0.99692 -0.00714902 -1.74211e-16)
(0.997011 -0.00726111 3.69077e-17)
(0.99714 -0.0073522 -6.53998e-17)
(0.9973 -0.0074339 3.55522e-16)
(0.997485 -0.00751513 8.44068e-17)
(0.997689 -0.00760305 -2.90261e-16)
(0.997909 -0.00770345 -1.0112e-16)
(0.998141 -0.00782176 6.04502e-17)
(0.998382 -0.00796294 8.89577e-17)
(0.99863 -0.00813309 -1.86087e-16)
(0.998877 -0.00833922 1.50708e-16)
(0.999112 -0.00859121 4.74414e-17)
(0.99925 -0.00892507 -2.36872e-16)
(0.999403 -0.00895809 5.62567e-17)
(0.999263 -0.0100017 1.00564e-17)
(1.00031 0.000249706 -2.2579e-18)
(1.00023 -4.21971e-06 8.61188e-18)
(1.00009 -0.000386551 -7.01865e-17)
(0.999893 -0.000920203 -2.82905e-17)
(0.999635 -0.00159838 4.4076e-17)
(0.999321 -0.00238294 1.27498e-16)
(0.998969 -0.00321494 1.32139e-16)
(0.9986 -0.00403697 8.96514e-18)
(0.99824 -0.00479525 1.62903e-17)
(0.997912 -0.00545667 1.18278e-16)
(0.997634 -0.00600288 -1.04218e-16)
(0.997418 -0.00643378 -1.66952e-16)
(0.997267 -0.00675898 5.02281e-17)
(0.997182 -0.00699636 2.09435e-16)
(0.997158 -0.00716546 4.34041e-16)
(0.997187 -0.00728532 -1.11904e-18)
(0.997262 -0.00737268 7.25467e-17)
(0.997376 -0.00744154 2.73042e-16)
(0.99752 -0.00750308 -2.91384e-16)
(0.99769 -0.00756569 2.02438e-16)
(0.99788 -0.00763629 2.68711e-16)
(0.998086 -0.0077204 1.63303e-16)
(0.998304 -0.00782339 1.29059e-16)
(0.998532 -0.00795031 -1.22093e-17)
(0.998764 -0.00810728 -4.6678e-17)
(0.998993 -0.00830103 1.69405e-16)
(0.999206 -0.00853903 7.91401e-17)
(0.999339 -0.00884837 1.19484e-16)
(0.999443 -0.00884791 5.53794e-17)
(0.999579 -0.00979826 -4.48712e-17)
(1.00024 0.000212946 3.24511e-18)
(1.00017 -0.000166045 1.52185e-17)
(1.00005 -0.000650514 3.66256e-17)
(0.999882 -0.00125639 3.45853e-17)
(0.999662 -0.00197391 1.09692e-16)
(0.999391 -0.00276726 -7.54656e-17)
(0.999083 -0.00358344 -1.00102e-16)
(0.998756 -0.00437298 6.34398e-17)
(0.998432 -0.00508993 -1.19889e-16)
(0.998132 -0.0057075 -4.44274e-17)
(0.997873 -0.00621194 -2.41892e-16)
(0.997667 -0.00660553 1.65782e-16)
(0.99752 -0.00689893 8.39389e-17)
(0.997431 -0.0071098 1.17302e-17)
(0.997399 -0.00725719 -2.46989e-16)
(0.997417 -0.00735916 4.16262e-17)
(0.99748 -0.00743172 -8.42813e-17)
(0.99758 -0.00748809 -3.28622e-16)
(0.997711 -0.007539 -4.72048e-18)
(0.997867 -0.00759241 -3.1165e-16)
(0.998044 -0.00765503 -3.05727e-16)
(0.998237 -0.00773225 -1.35312e-16)
(0.998442 -0.00782938 -1.09012e-16)
(0.998656 -0.00795148 -1.21456e-16)
(0.998875 -0.00810435 -6.76468e-17)
(0.999089 -0.00829383 -3.96467e-16)
(0.999285 -0.00852431 1.44629e-17)
(0.999421 -0.00881496 1.43498e-16)
(0.999502 -0.00879021 1.60081e-17)
(0.999802 -0.00969032 4.49988e-17)
(1.00014 0.000180111 1.24783e-17)
(1.00007 -0.000303121 -3.0193e-17)
(0.999972 -0.000868634 -4.39227e-17)
(0.999829 -0.00152866 -2.74299e-17)
(0.999641 -0.00227137 -3.185e-17)
(0.999407 -0.00306392 -4.05113e-17)
(0.999139 -0.00385947 7.36501e-17)
(0.99885 -0.00461596 -1.64228e-16)
(0.99856 -0.00529464 -6.73929e-17)
(0.998287 -0.00587413 1.3401e-16)
(0.998048 -0.0063444 2.01263e-16)
(0.997855 -0.00670937 -8.98571e-17)
(0.997714 -0.00698018 -2.45161e-16)
(0.997625 -0.00717381 -1.03148e-16)
(0.997589 -0.00730856 5.42439e-18)
(0.9976 -0.00740131 9.83118e-18)
(0.997653 -0.00746732 3.90636e-17)
(0.997743 -0.00751893 -5.1673e-17)
(0.997864 -0.00756649 2.48844e-16)
(0.99801 -0.00761753 2.09795e-16)
(0.998176 -0.00767859 1.95462e-16)
(0.998359 -0.0077549 5.47364e-17)
(0.998554 -0.0078517 -1.21447e-16)
(0.998758 -0.00797386 -6.30135e-17)
(0.998966 -0.00812666 1.48809e-16)
(0.999169 -0.00831471 2.58161e-16)
(0.999355 -0.00853944 -2.52513e-16)
(0.999496 -0.00881431 -2.24959e-16)
(0.99957 -0.00877079 3.3041e-17)
(0.99996 -0.009645 -2.29122e-17)
(1.00001 0.000153007 3.61055e-19)
(0.999952 -0.00041474 1.16417e-17)
(0.999863 -0.0010424 5.21654e-17)
(0.999739 -0.00174146 -8.81617e-19)
(0.999578 -0.00249881 -4.9497e-17)
(0.999376 -0.00328472 -6.1214e-18)
(0.999142 -0.00405824 -5.82224e-17)
(0.998887 -0.00478397 8.79664e-17)
(0.998627 -0.00542945 1.14178e-17)
(0.998381 -0.00597774 -1.3919e-16)
(0.998163 -0.00642176 -2.22789e-16)
(0.997984 -0.00676643 -1.18126e-16)
(0.997851 -0.00702291 2.08274e-16)
(0.997766 -0.00720729 1.6934e-16)
(0.997729 -0.00733688 -1.22994e-16)
(0.997737 -0.00742737 -2.81958e-16)
(0.997785 -0.00749317 4.12848e-17)
(0.997868 -0.00754581 2.45785e-16)
(0.997982 -0.00759523 -2.53947e-16)
(0.998121 -0.00764855 1.58727e-16)
(0.99828 -0.00771216 -1.49672e-16)
(0.998456 -0.00779111 -2.83e-17)
(0.998644 -0.00789049 9.4535e-17)
(0.998841 -0.0080149 1.48187e-16)
(0.999042 -0.00816899 -2.73049e-17)
(0.999238 -0.00835609 -1.62061e-16)
(0.999419 -0.00857517 -3.32777e-17)
(0.999569 -0.00883602 7.23165e-18)
(0.999645 -0.00877737 -8.12529e-18)
(1.00009 -0.00963758 -1.1806e-17)
(0.999861 0.000131786 -2.69399e-18)
(0.999808 -0.000502583 7.02267e-18)
(0.999729 -0.00117624 -1.76644e-17)
(0.99962 -0.00190212 -8.00469e-18)
(0.99948 -0.00266637 -5.47417e-17)
(0.999304 -0.00344228 -1.56415e-17)
(0.999099 -0.00419429 8.06137e-18)
(0.998874 -0.00489278 -6.44251e-17)
(0.998642 -0.00551062 -3.50023e-17)
(0.998421 -0.00603445 2.30836e-17)
(0.998223 -0.00645945 5.26922e-17)
(0.99806 -0.00679103 1.18042e-16)
(0.997937 -0.0070401 8.03485e-18)
(0.997859 -0.00722165 -3.3374e-16)
(0.997825 -0.00735196 -6.66256e-17)
(0.997833 -0.00744548 4.3229e-17)
(0.997879 -0.0075158 1.7017e-16)
(0.99796 -0.00757364 -6.48531e-17)
(0.99807 -0.00762855 1.3789e-16)
(0.998205 -0.00768726 1.77112e-16)
(0.99836 -0.00775601 1.07403e-16)
(0.998532 -0.00783964 -6.04504e-17)
(0.998716 -0.00794309 -1.33703e-16)
(0.998909 -0.00807064 1.15572e-16)
(0.999106 -0.00822631 -1.07151e-16)
(0.999299 -0.00841231 2.95404e-16)
(0.999478 -0.00862572 -3.63914e-17)
(0.99964 -0.00887438 2.67132e-17)
(0.999722 -0.00880361 -9.46136e-17)
(1.00019 -0.00965794 1.23293e-17)
(0.999698 0.000116277 -1.22893e-17)
(0.999648 -0.000569077 -5.16669e-18)
(0.999576 -0.00127541 -2.4058e-18)
(0.999479 -0.00201842 3.6879e-17)
(0.999355 -0.00278394 8.93752e-17)
(0.999201 -0.0035481 1.07528e-16)
(0.99902 -0.00428011 9.54821e-17)
(0.998821 -0.00495524 2.24469e-19)
(0.998615 -0.00555081 1.21457e-16)
(0.998417 -0.00605626 -3.222e-17)
(0.99824 -0.00646845 -2.27323e-18)
(0.998093 -0.00679294 1.78429e-16)
(0.997982 -0.00704014 2.06341e-16)
(0.997913 -0.00722389 5.00965e-17)
(0.997884 -0.00735936 1.42905e-16)
(0.997895 -0.00745985 2.71945e-17)
(0.997943 -0.00753808 -9.35467e-17)
(0.998024 -0.00760403 1.56367e-16)
(0.998133 -0.00766687 5.42041e-17)
(0.998268 -0.00773297 -3.80006e-16)
(0.998422 -0.00780839 6.37817e-17)
(0.998592 -0.00789781 9.26429e-17)
(0.998775 -0.00800597 1.34946e-17)
(0.998967 -0.00813686 -1.8057e-16)
(0.999163 -0.00829391 7.60927e-17)
(0.999356 -0.0084784 -2.49352e-16)
(0.999536 -0.00868613 1.39608e-16)
(0.99971 -0.00892411 -7.30503e-17)
(0.999801 -0.00884328 -2.89894e-17)
(1.00029 -0.00969485 1.67153e-18)
(0.999524 0.000105531 8.81613e-18)
(0.999474 -0.000617455 -1.22726e-17)
(0.999407 -0.00134564 2.88301e-17)
(0.99932 -0.00209832 -2.40318e-17)
(0.999209 -0.00286118 -8.63629e-17)
(0.999073 -0.00361292 -4.22249e-17)
(0.998913 -0.00432689 -1.91906e-16)
(0.998736 -0.00498241 1.01644e-16)
(0.998554 -0.00556051 -1.41806e-17)
(0.998378 -0.00605277 1.19618e-17)
(0.99822 -0.00645725 3.06214e-17)
(0.99809 -0.00677941 -2.40292e-16)
(0.997993 -0.00702903 -1.73738e-16)
(0.997934 -0.00721874 2.06522e-16)
(0.997913 -0.00736265 2.96586e-17)
(0.99793 -0.00747291 8.50404e-17)
(0.997982 -0.00756143 -1.7451e-16)
(0.998066 -0.00763749 -1.33158e-16)
(0.998178 -0.00770988 1.00562e-16)
(0.998313 -0.00778464 1.21475e-16)
(0.998469 -0.00786768 -1.622e-16)
(0.998641 -0.00796348 -9.03105e-17)
(0.998825 -0.00807663 1.30613e-16)
(0.999017 -0.00821083 6.01189e-17)
(0.999214 -0.00836906 8.98405e-17)
(0.999409 -0.00855187 4.51088e-17)
(0.999592 -0.00875423 4.0685e-17)
(0.99978 -0.00898317 1.73778e-16)
(0.999881 -0.0088942 -5.20299e-17)
(1.00037 -0.00974608 -2.33075e-17)
(0.999341 9.88617e-05 -2.64245e-18)
(0.999292 -0.00065054 3.95114e-17)
(0.999229 -0.00139213 2.66669e-17)
(0.999148 -0.0021488 -2.57685e-18)
(0.999048 -0.00290631 -6.5042e-18)
(0.998926 -0.00364562 6.39534e-17)
(0.998784 -0.00434361 7.82333e-17)
(0.998628 -0.00498297 -7.17178e-17)
(0.998466 -0.00554773 -8.19502e-17)
(0.998312 -0.00603111 -3.0575e-17)
(0.998173 -0.00643198 -1.39586e-17)
(0.99806 -0.00675553 1.56892e-16)
(0.997977 -0.00701079 -2.81488e-16)
(0.99793 -0.00720925 -4.5037e-17)
(0.997919 -0.00736394 -4.54655e-17)
(0.997944 -0.00748594 7.04562e-17)
(0.998002 -0.00758637 1.7062e-16)
(0.998091 -0.00767387 2.79103e-16)
(0.998206 -0.00775683 -3.53822e-16)
(0.998346 -0.00784102 2.27213e-17)
(0.998505 -0.00793219 1.88559e-16)
(0.99868 -0.00803464 1.38311e-16)
(0.998866 -0.00815282 2.58914e-18)
(0.999062 -0.00829018 5.01299e-17)
(0.999261 -0.00844932 1.65801e-16)
(0.99946 -0.00863031 1.30755e-16)
(0.999649 -0.00882763 2.39514e-16)
(0.99985 -0.00904878 -1.65271e-17)
(0.999962 -0.00895278 8.60789e-17)
(1.00045 -0.00980519 2.00576e-17)
(0.999153 9.5283e-05 -4.4323e-18)
(0.999102 -0.000671321 -2.24464e-17)
(0.999042 -0.00141974 -3.84616e-17)
(0.998967 -0.00217623 4.13324e-18)
(0.998876 -0.00292669 6.0607e-17)
(0.998766 -0.003654 2.64348e-17)
(0.99864 -0.00433805 -6.19479e-18)
(0.998502 -0.0049643 3.78998e-17)
(0.998359 -0.00551919 6.81878e-17)
(0.998224 -0.00599716 3.80897e-17)
(0.998104 -0.00639763 4.12682e-17)
(0.998007 -0.00672537 -3.79097e-19)
(0.99794 -0.00698866 8.31219e-17)
(0.997906 -0.00719784 4.47038e-17)
(0.997905 -0.00736492 9.59493e-17)
(0.99794 -0.00749998 -6.09719e-17)
(0.998006 -0.00761338 1.69551e-18)
(0.998101 -0.00771316 -1.26871e-16)
(0.998223 -0.00780735 -7.15112e-17)
(0.998368 -0.00790144 -4.11407e-18)
(0.998532 -0.00800102 5.56672e-17)
(0.998711 -0.00811025 -1.29442e-16)
(0.998903 -0.00823344 -4.77219e-17)
(0.999102 -0.00837386 -7.01475e-17)
(0.999306 -0.00853383 -1.52408e-16)
(0.99951 -0.00871306 -6.27654e-17)
(0.999706 -0.00890588 -3.68655e-16)
(0.99992 -0.00912055 -1.55667e-16)
(1.00004 -0.00901871 -2.00576e-17)
(1.00051 -0.00987291 2.58075e-17)
(0.998961 9.41932e-05 -3.49581e-18)
(0.998909 -0.000682106 -1.94782e-17)
(0.998851 -0.00143243 -2.93108e-18)
(0.99878 -0.00218573 -4.77398e-17)
(0.998696 -0.00292811 4.89802e-18)
(0.998597 -0.0036441 -6.59152e-18)
(0.998484 -0.00431613 1.71175e-17)
(0.998362 -0.00493188 3.77702e-17)
(0.998238 -0.00547978 -6.26884e-17)
(0.998121 -0.00595511 3.2195e-17)
(0.998018 -0.00635767 6.41941e-17)
(0.997939 -0.00669172 -4.52391e-17)
(0.997886 -0.00696475 1.61139e-16)
(0.997866 -0.00718603 -1.49115e-17)
(0.997877 -0.00736658 -2.26168e-16)
(0.997922 -0.00751555 -1.38651e-16)
(0.997997 -0.0076426 -5.94989e-17)
(0.998101 -0.00775515 -6.58073e-17)
(0.998231 -0.00786093 1.85935e-16)
(0.998382 -0.00796515 -1.2433e-17)
(0.998553 -0.00807326 -2.17007e-16)
(0.998738 -0.00818927 1.8559e-16)
(0.998935 -0.00831738 1.84643e-16)
(0.99914 -0.00846072 7.39356e-17)
(0.99935 -0.0086214 -9.31576e-17)
(0.99956 -0.00879895 -7.59468e-18)
(0.999763 -0.00898767 2.94093e-16)
(0.999991 -0.00919672 2.05418e-16)
(1.00012 -0.00908952 -1.70129e-17)
(1.00059 -0.00994468 -2.57764e-17)
(0.998766 9.48072e-05 4.51329e-18)
(0.998713 -0.000685242 3.42985e-17)
(0.998658 -0.00143373 -2.11797e-17)
(0.998589 -0.00218177 4.00325e-17)
(0.998512 -0.0029156 -1.4158e-17)
(0.998422 -0.00362112 -1.22706e-16)
(0.998321 -0.00428289 2.03296e-17)
(0.998213 -0.00489038 -1.16458e-16)
(0.998105 -0.00543364 -3.91674e-17)
(0.998005 -0.00590854 -6.76916e-17)
(0.99792 -0.00631508 -1.5518e-16)
(0.997857 -0.00665697 -3.64346e-17)
(0.99782 -0.00694094 3.2672e-17)
(0.997813 -0.00717523 -4.38425e-17)
(0.997837 -0.00736994 3.23304e-16)
(0.997893 -0.00753333 2.52399e-17)
(0.997979 -0.00767439 4.03136e-17)
(0.998092 -0.0078 9.30793e-17)
(0.99823 -0.00791755 -2.89134e-17)
(0.99839 -0.008032 1.61952e-16)
(0.998568 -0.00814868 7.36473e-17)
(0.99876 -0.00827145 7.89272e-17)
(0.998964 -0.00840443 -1.88975e-16)
(0.999176 -0.00855063 3.46162e-17)
(0.999392 -0.00871204 2.59505e-17)
(0.99961 -0.0088881 -1.50335e-16)
(0.999822 -0.00907326 -7.41354e-17)
(1.00006 -0.00927761 -4.32502e-17)
(1.00021 -0.00916572 3.86901e-17)
(1.00065 -0.0100224 -1.97584e-18)
(0.998571 9.67631e-05 -6.29785e-18)
(0.998516 -0.000682313 -1.18188e-17)
(0.998462 -0.00142632 5.3472e-17)
(0.998397 -0.00216772 -6.08607e-17)
(0.998324 -0.00289287 -2.28515e-17)
(0.998242 -0.00358882 6.32918e-17)
(0.998152 -0.00424191 -7.34913e-17)
(0.998058 -0.00484305 1.03235e-16)
(0.997965 -0.00538359 1.34749e-16)
(0.997881 -0.00585981 1.12827e-17)
(0.997812 -0.00627176 1.08695e-16)
(0.997765 -0.00662263 -8.44155e-17)
(0.997743 -0.00691836 -1.22662e-16)
(0.997751 -0.00716624 -5.37338e-17)
(0.997788 -0.0073755 -4.55272e-17)
(0.997856 -0.00755359 1.68313e-16)
(0.997953 -0.00770883 -6.68772e-17)
(0.998076 -0.0078476 -1.73657e-16)
(0.998224 -0.00797697 3.92322e-17)
(0.998393 -0.00810167 -2.6801e-16)
(0.998579 -0.00822686 4.15339e-18)
(0.998779 -0.00835632 -2.58643e-16)
(0.998991 -0.00849406 2.17357e-16)
(0.99921 -0.00864303 -1.22346e-16)
(0.999434 -0.00880514 -4.13287e-17)
(0.99966 -0.00897981 6.90643e-17)
(0.99988 -0.00916174 -3.05536e-17)
(1.00014 -0.00936189 -1.23864e-16)
(1.00029 -0.00924536 1.32926e-17)
(1.00072 -0.0101024 5.04962e-18)
(0.998375 9.95231e-05 4.85995e-18)
(0.998319 -0.000674983 -1.54921e-17)
(0.998267 -0.00141256 1.56012e-19)
(0.998204 -0.00214648 9.93448e-17)
(0.998135 -0.00286313 6.42806e-17)
(0.99806 -0.00355045 -5.58513e-18)
(0.99798 -0.00419629 1.74381e-16)
(0.997897 -0.00479272 -5.91141e-17)
(0.997818 -0.00533212 -1.16354e-16)
(0.99775 -0.00581103 -4.16672e-17)
(0.997696 -0.00622949 -6.65858e-17)
(0.997665 -0.00659013 -7.85903e-17)
(0.997658 -0.00689815 9.23961e-17)
(0.99768 -0.00715997 1.63599e-16)
(0.997731 -0.00738397 -3.23985e-17)
(0.997812 -0.00757685 2.29344e-17)
(0.99792 -0.00774631 -4.59958e-17)
(0.998055 -0.00789824 1.13633e-16)
(0.998212 -0.00803941 -1.00762e-16)
(0.998391 -0.0081743 1.33068e-16)
(0.998586 -0.00830796 -3.92018e-17)
(0.998796 -0.00844404 -1.56548e-17)
(0.999016 -0.00858648 -6.38813e-17)
(0.999243 -0.00873819 8.81488e-17)
(0.999476 -0.00890106 6.99729e-17)
(0.99971 -0.00907457 6.73197e-17)
(0.99994 -0.00925367 -3.41114e-17)
(1.00021 -0.00945022 7.26459e-17)
(1.00037 -0.00932942 2.45591e-17)
(1.00078 -0.0101872 5.98132e-18)
(0.99818 0.000102934 -4.43169e-18)
(0.998123 -0.00066421 -1.17197e-17)
(0.998072 -0.00139409 -1.65029e-17)
(0.998011 -0.0021201 -5.38294e-17)
(0.997946 -0.00282858 -2.65591e-18)
(0.997877 -0.0035082 6.4649e-17)
(0.997805 -0.00414807 -1.24665e-16)
(0.997734 -0.00474116 3.27706e-17)
(0.997668 -0.00528073 7.87946e-17)
(0.997614 -0.00576341 7.25221e-17)
(0.997575 -0.00618921 6.42846e-17)
(0.997559 -0.00656019 -2.999e-18)
(0.997567 -0.00688087 1.99474e-17)
(0.997603 -0.00715679 -1.60187e-16)
(0.997668 -0.0073956 1.78156e-16)
(0.997761 -0.00760325 -7.2872e-17)
(0.997882 -0.00778687 -7.16759e-18)
(0.998028 -0.00795189 -6.23359e-17)
(0.998197 -0.00810476 8.55503e-17)
(0.998386 -0.00824976 -1.03426e-16)
(0.998591 -0.00839178 -9.61062e-17)
(0.99881 -0.00853437 7.19477e-17)
(0.999039 -0.0086814 -2.05488e-16)
(0.999276 -0.00883579 -1.38055e-16)
(0.999517 -0.0089994 6.01007e-17)
(0.999761 -0.00917182 -1.20536e-16)
(1 -0.00934829 -4.44126e-17)
(1.00028 -0.00954144 1.3196e-17)
(1.00045 -0.00941614 -4.47157e-18)
(1.00085 -0.0102732 -2.68773e-17)
(0.997986 0.000106644 1.41593e-18)
(0.997928 -0.000651126 2.39032e-17)
(0.997878 -0.00137241 -4.57135e-17)
(0.997819 -0.00209039 4.92563e-17)
(0.997757 -0.00279117 -1.4099e-17)
(0.997694 -0.00346402 -1.24844e-16)
(0.99763 -0.00409906 4.13731e-17)
(0.997569 -0.00469003 -2.7399e-17)
(0.997515 -0.00523084 -3.44483e-17)
(0.997474 -0.00571818 -3.17383e-17)
(0.99745 -0.00615196 3.39337e-17)
(0.997448 -0.00653368 1.4412e-16)
(0.99747 -0.00686721 -8.05651e-17)
(0.997521 -0.0071573 9.56674e-17)
(0.997599 -0.00741087 -1.73507e-16)
(0.997706 -0.00763322 -7.16446e-17)
(0.997839 -0.0078309 1.05548e-16)
(0.997997 -0.00800888 9.18725e-17)
(0.998177 -0.00817334 -5.60688e-17)
(0.998377 -0.00832833 2.55758e-16)
(0.998593 -0.00847862 2.57617e-16)
(0.998822 -0.00862764 -1.24479e-16)
(0.999061 -0.00877921 1.70557e-16)
(0.999308 -0.00893625 6.9594e-17)
(0.999559 -0.00910066 -1.31348e-16)
(0.999813 -0.00927215 9.32288e-17)
(1.00006 -0.00944627 1.8266e-16)
(1.00036 -0.00963638 3.70613e-17)
(1.00054 -0.00950676 -2.38748e-17)
(1.00091 -0.0103634 1.88488e-17)
(0.997794 0.000110639 1.20588e-17)
(0.997735 -0.000636224 3.31134e-18)
(0.997686 -0.00134846 3.37803e-17)
(0.997628 -0.00205847 -4.54056e-17)
(0.997569 -0.00275211 2.86486e-17)
(0.997511 -0.00341905 -1.69297e-17)
(0.997454 -0.0040503 6.89791e-17)
(0.997402 -0.00464017 -2.43741e-17)
(0.99736 -0.00518315 -3.32912e-17)
(0.997331 -0.00567588 -4.08841e-17)
(0.997321 -0.00611812 -1.30868e-16)
(0.997333 -0.00651087 4.41822e-17)
(0.997369 -0.00685738 2.58288e-17)
(0.997434 -0.00716163 4.60717e-17)
(0.997526 -0.00742988 -1.98704e-17)
(0.997645 -0.0076668 6.84453e-17)
(0.997791 -0.00787838 -1.5418e-16)
(0.997962 -0.00806919 -1.69622e-16)
(0.998154 -0.00824509 2.6112e-18)
(0.998366 -0.00840995 -1.69911e-16)
(0.998593 -0.00856838 3.33732e-18)
(0.998833 -0.00872371 1.17007e-16)
(0.999083 -0.00887971 -8.33311e-17)
(0.999339 -0.00903933 8.92151e-18)
(0.999601 -0.00920449 5.89634e-17)
(0.999865 -0.00937508 -3.30156e-17)
(1.00012 -0.0095469 -1.89695e-16)
(1.00043 -0.00973395 -9.37782e-17)
(1.00062 -0.00959962 2.69463e-17)
(1.00098 -0.0104545 2.05738e-17)
(0.997603 0.000114686 -8.61354e-18)
(0.997544 -0.000620265 9.31112e-18)
(0.997496 -0.00132315 -1.29406e-17)
(0.997438 -0.00202543 2.98457e-17)
(0.997382 -0.00271254 -3.63805e-17)
(0.997328 -0.00337443 -2.30411e-17)
(0.997278 -0.00400284 -9.2602e-17)
(0.997235 -0.00459254 1.05194e-16)
(0.997203 -0.00513847 1.46757e-16)
(0.997186 -0.00563718 3.47173e-17)
(0.997188 -0.00608829 2.50541e-17)
(0.997214 -0.00649228 -1.66742e-17)
(0.997265 -0.00685182 2.17606e-17)
(0.997343 -0.00717019 -7.30316e-18)
(0.997448 -0.00745301 1.146e-16)
(0.997581 -0.00770434 4.63114e-17)
(0.997741 -0.00792967 5.8704e-17)
(0.997924 -0.00813315 9.91218e-18)
(0.998128 -0.00832037 1.38023e-16)
(0.998352 -0.00849497 8.5136e-17)
(0.998591 -0.00866143 -1.2786e-16)
(0.998842 -0.00882298 -9.29835e-17)
(0.999103 -0.00898336 6.66957e-17)
(0.999371 -0.00914552 1.58373e-17)
(0.999643 -0.00931147 1.27477e-17)
(0.999918 -0.00948124 -1.20035e-17)
(1.00019 -0.00965092 1.08321e-16)
(1.00051 -0.0098351 4.8272e-17)
(1.00071 -0.00969612 -1.25356e-16)
(1.00104 -0.0105495 -2.87923e-18)
(0.997415 0.000118856 3.93633e-18)
(0.997355 -0.000603426 3.48601e-18)
(0.997307 -0.00129697 2.88765e-17)
(0.997251 -0.00199185 -1.41484e-17)
(0.997197 -0.00267304 -5.60028e-17)
(0.997147 -0.00333068 5.82189e-18)
(0.997102 -0.00395711 -9.70197e-17)
(0.997067 -0.00454744 2.42416e-17)
(0.997045 -0.00509701 -1.09676e-16)
(0.997039 -0.00560222 -3.53749e-17)
(0.997054 -0.00606253 -2.53835e-17)
(0.997092 -0.00647793 3.7873e-17)
(0.997156 -0.00685054 -2.81186e-17)
(0.997248 -0.00718295 5.09973e-18)
(0.997367 -0.00748022 -2.95903e-17)
(0.997514 -0.00774581 -1.14745e-16)
(0.997686 -0.00798474 -1.01748e-17)
(0.997883 -0.00820073 8.28846e-17)
(0.9981 -0.00839911 -9.57244e-17)
(0.998336 -0.00858331 6.9982e-17)
(0.998587 -0.00875767 -1.72184e-16)
(0.998851 -0.00892533 9.92441e-17)
(0.999123 -0.00908997 -1.40197e-16)
(0.999402 -0.00925458 4.82874e-17)
(0.999685 -0.00942125 -4.00835e-17)
(0.999971 -0.00959016 8.57987e-19)
(1.00025 -0.00975764 -6.31862e-17)
(1.00058 -0.00993876 -6.26976e-17)
(1.00079 -0.00979466 6.17578e-17)
(1.00111 -0.0106451 6.31853e-18)
(0.997229 0.000122985 -1.02934e-17)
(0.997168 -0.000586231 -3.73814e-17)
(0.99712 -0.00127045 -3.03462e-17)
(0.997064 -0.00195836 1.35031e-17)
(0.997012 -0.00263427 1.60077e-17)
(0.996966 -0.00328843 9.00106e-17)
(0.996927 -0.00391368 1.49356e-16)
(0.996899 -0.0045054 -1.73022e-16)
(0.996885 -0.00505923 2.64047e-17)
(0.996891 -0.00557139 -2.01393e-17)
(0.996917 -0.00604119 1.7198e-16)
(0.996968 -0.00646814 -6.43388e-17)
(0.997045 -0.00685383 -1.85512e-17)
(0.99715 -0.00720022 1.24561e-17)
(0.997283 -0.00751182 -1.47143e-16)
(0.997443 -0.00779152 4.4375e-17)
(0.997629 -0.0080439 3.22123e-17)
(0.997839 -0.00827226 2.16542e-17)
(0.998069 -0.00848167 3.54219e-17)
(0.998318 -0.00867535 -4.07087e-17)
(0.998582 -0.00885752 4.80789e-17)
(0.998858 -0.00903119 -8.3646e-17)
(0.999142 -0.00920002 1.213e-16)
(0.999433 -0.00936704 1.09359e-16)
(0.999728 -0.00953442 1.47338e-16)
(1.00003 -0.00970249 -8.19094e-18)
(1.00032 -0.00986783 2.35243e-17)
(1.00066 -0.010046 8.3251e-18)
(1.00088 -0.00989672 -2.25161e-17)
(1.00118 -0.0107445 -1.62063e-17)
(0.997046 0.000127187 8.76512e-18)
(0.996983 -0.000568657 2.31697e-17)
(0.996936 -0.0012438 -3.17238e-18)
(0.99688 -0.00192518 8.59272e-18)
(0.99683 -0.00259644 -3.0776e-18)
(0.996786 -0.00324784 -5.84774e-17)
(0.996752 -0.00387264 -2.95544e-18)
(0.996731 -0.00446642 6.65044e-17)
(0.996726 -0.00502506 8.99553e-17)
(0.996741 -0.00554459 1.63769e-16)
(0.996778 -0.00602414 5.45219e-17)
(0.996841 -0.00646277 5.62702e-17)
(0.996931 -0.00686157 -5.22714e-17)
(0.997049 -0.00722189 -8.59161e-17)
(0.997196 -0.0075477 2.20869e-16)
(0.99737 -0.0078414 1.08836e-16)
(0.997569 -0.00810707 -2.01929e-16)
(0.997792 -0.00834766 -1.11892e-16)
(0.998036 -0.00856797 -2.00095e-16)
(0.998299 -0.00877101 -8.71313e-17)
(0.998576 -0.00896085 9.8438e-17)
(0.998864 -0.00914042 1.63012e-16)
(0.999161 -0.00931332 -2.33671e-16)
(0.999465 -0.00948264 -4.5166e-17)
(0.999771 -0.00965062 -1.24601e-16)
(1.00008 -0.00981774 3.98059e-17)
(1.00038 -0.00998079 -8.02969e-17)
(1.00074 -0.0101556 -7.50324e-17)
(1.00097 -0.0100007 2.77259e-17)
(1.00125 -0.0108445 -1.00292e-17)
(0.996865 0.000131336 1.41654e-18)
(0.9968 -0.000551082 1.64719e-17)
(0.996753 -0.00121734 2.08585e-17)
(0.996698 -0.00189267 -3.57267e-17)
(0.996648 -0.00255992 2.1699e-17)
(0.996607 -0.00320926 3.23943e-17)
(0.996577 -0.00383431 -4.93017e-17)
(0.996562 -0.00443078 4.91851e-17)
(0.996565 -0.00499476 7.67135e-18)
(0.996589 -0.00552205 -1.80331e-16)
(0.996637 -0.00601161 -7.2254e-17)
(0.996712 -0.00646204 -8.58173e-17)
(0.996815 -0.00687398 1.2956e-17)
(0.996946 -0.00724819 6.63385e-17)
(0.997105 -0.00758813 -1.22202e-16)
(0.997293 -0.00789571 -5.54662e-17)
(0.997506 -0.00817457 1.79033e-16)
(0.997743 -0.00842728 1.84771e-16)
(0.998001 -0.00865837 2.84443e-17)
(0.998278 -0.00887066 1.44929e-16)
(0.998568 -0.00906809 -7.91655e-17)
(0.99887 -0.00925347 7.78448e-18)
(0.99918 -0.00943037 3.35872e-16)
(0.999496 -0.00960192 -1.20192e-16)
(0.999815 -0.00977046 -2.66682e-17)
(1.00014 -0.0099366 -5.04529e-17)
(1.00045 -0.0100973 -1.02772e-17)
(1.00082 -0.0102689 1.97596e-16)
(1.00106 -0.0101082 3.42831e-17)
(1.00132 -0.0109483 1.82044e-17)
(0.996686 0.000135566 -2.48377e-18)
(0.99662 -0.000533362 -2.44402e-17)
(0.996572 -0.00119109 8.66292e-20)
(0.996517 -0.00186087 -1.27616e-17)
(0.996468 -0.00252471 -1.43412e-17)
(0.996429 -0.00317265 -4.17937e-17)
(0.996403 -0.00379859 -6.96445e-18)
(0.996394 -0.00439833 -7.34516e-17)
(0.996404 -0.00496814 -1.30464e-16)
(0.996437 -0.00550355 9.94946e-17)
(0.996495 -0.00600337 -2.00624e-16)
(0.996581 -0.00646575 2.60912e-17)
(0.996696 -0.00689088 2.199e-17)
(0.99684 -0.00727895 5.38245e-17)
(0.997012 -0.00763297 -4.28603e-17)
(0.997214 -0.00795434 -1.7681e-17)
(0.997441 -0.00824629 2.03433e-17)
(0.997692 -0.00851101 -1.88627e-16)
(0.997964 -0.00875278 1.26169e-16)
(0.998255 -0.00897421 -1.60861e-17)
(0.998559 -0.00917911 5.3199e-17)
(0.998875 -0.00937019 1.37369e-16)
(0.999199 -0.00955097 -2.17869e-16)
(0.999528 -0.00972462 1.0896e-17)
(0.99986 -0.00989358 3.99708e-17)
(1.00019 -0.0100586 -4.51316e-17)
(1.00052 -0.0102168 1.96493e-16)
(1.0009 -0.0103846 8.22638e-19)
(1.00115 -0.0102177 -3.19937e-17)
(1.0014 -0.0110526 -9.68276e-18)
(0.996509 0.00013977 -5.96145e-18)
(0.996441 -0.000515793 3.15363e-19)
(0.996393 -0.00116523 1.32508e-17)
(0.996337 -0.00182998 -7.53609e-18)
(0.996289 -0.00249101 -2.71847e-18)
(0.996252 -0.00313819 -2.71794e-17)
(0.99623 -0.00376565 3.6133e-17)
(0.996225 -0.00436923 4.05022e-17)
(0.996242 -0.00494534 -4.734e-17)
(0.996283 -0.00548924 3.59948e-17)
(0.996351 -0.00599957 2.73744e-16)
(0.996448 -0.00647406 6.36311e-17)
(0.996574 -0.00691244 -1.45826e-16)
(0.996731 -0.0073144 -4.21185e-17)
(0.996917 -0.00768245 8.94723e-17)
(0.997132 -0.00801756 3.01944e-17)
(0.997374 -0.00832252 9.47605e-17)
(0.997639 -0.00859918 1.2766e-16)
(0.997926 -0.00885155 1.00714e-16)
(0.99823 -0.00908205 -1.06738e-16)
(0.998549 -0.00929434 -1.3292e-16)
(0.99888 -0.00949103 -1.92854e-16)
(0.999217 -0.0096756 1.61894e-17)
(0.99956 -0.00985128 9.53452e-17)
(0.999906 -0.0100206 1.08369e-16)
(1.00025 -0.0101843 4.78681e-18)