/*--------------------------------*- C++ -*----------------------------------*\
  =========                 |
  \\      /  F ield         | OpenFOAM: The Open Source CFD Toolbox
   \\    /   O peration     | Website:  https://openfoam.org
    \\  /    A nd           | Version:  6.0
     \\/     M anipulation  |
\*---------------------------------------------------------------------------*/
FoamFile
{
    version     2.0;
    format      ascii;
    class       volVectorField;
    location    "4";
    object      U;
}
// * * * * * * * * * * * * * * * * * * * * * * * * * * * * * * * * * * * * * //

dimensions      [0 1 -1 0 0 0 0];

internalField   nonuniform List<vector> 
47000
(
(1.00002 0.000123005 2.3401e-20)
(1.00001 0.000397838 5.24661e-20)
(0.999973 0.000620029 -4.83711e-19)
(0.9999 0.00075536 -1.10393e-18)
(0.999785 0.00077691 1.00637e-18)
(0.999627 0.000676969 -7.81068e-19)
(0.999432 0.000463841 3.63261e-18)
(0.999215 0.000160776 1.18054e-19)
(0.998992 -0.000200019 7.47662e-19)
(0.998784 -0.000585354 -6.33763e-18)
(0.998604 -0.000966083 4.3375e-18)
(0.998462 -0.00132101 1.51837e-18)
(0.998361 -0.00163841 2.30412e-18)
(0.998303 -0.00191366 2.82338e-18)
(0.998281 -0.00214991 -2.65047e-18)
(0.998291 -0.00235163 -1.28161e-18)
(0.998327 -0.00252763 -1.46147e-19)
(0.998383 -0.00268481 -1.49419e-18)
(0.998453 -0.00283304 -1.71776e-19)
(0.998534 -0.00297889 -4.21045e-19)
(0.998622 -0.00313207 -2.6156e-18)
(0.998716 -0.00330038 -9.83102e-19)
(0.998813 -0.0034962 -1.05656e-18)
(0.998912 -0.00373286 -1.54772e-19)
(0.999015 -0.00403259 6.53653e-19)
(0.999119 -0.00442804 -2.2796e-19)
(0.999225 -0.0049767 6.06589e-19)
(0.999321 -0.00579429 -3.88087e-19)
(0.999644 -0.00684392 8.14226e-20)
(0.994888 -0.0111808 -6.67725e-20)
(1.00015 0.000338413 -5.24518e-20)
(1.00006 0.000747273 -1.80303e-19)
(0.999899 0.000997732 -1.97682e-21)
(0.999646 0.00103191 1.38418e-18)
(0.999314 0.000822633 -8.40252e-19)
(0.998918 0.00039055 2.67759e-18)
(0.998485 -0.000214657 -2.37278e-18)
(0.998047 -0.000925915 7.29842e-19)
(0.997635 -0.00167378 -4.66587e-18)
(0.997278 -0.00240112 -3.47678e-19)
(0.99699 -0.00306697 -8.48387e-19)
(0.996785 -0.00364943 1.58797e-18)
(0.996658 -0.00414277 -3.51774e-18)
(0.996605 -0.00455176 2.77272e-19)
(0.996614 -0.00489095 9.71033e-19)
(0.996677 -0.00517364 -4.3672e-19)
(0.996779 -0.00541728 2.03683e-18)
(0.996915 -0.0056341 -1.2914e-18)
(0.997073 -0.00583968 -2.65449e-18)
(0.997251 -0.0060427 3.21941e-18)
(0.997441 -0.00625564 1.0846e-18)
(0.997642 -0.00648623 2.79017e-19)
(0.997852 -0.00674697 7.25709e-19)
(0.99807 -0.00704724 7.00649e-19)
(0.998297 -0.00740171 -3.44115e-19)
(0.998535 -0.00782463 -3.12054e-20)
(0.998783 -0.00833379 -2.56592e-19)
(0.999023 -0.00896207 -3.86013e-19)
(0.999365 -0.00941997 3.12827e-19)
(0.997656 -0.0108719 9.92522e-20)
(1.00025 0.000357718 5.91018e-20)
(1.00014 0.000604236 1.86916e-20)
(0.999939 0.000675829 -3.10626e-20)
(0.99964 0.00052303 -2.32216e-18)
(0.999262 0.000128292 2.88764e-19)
(0.998823 -0.000474219 -2.24707e-18)
(0.998354 -0.00122323 2.25247e-18)
(0.997889 -0.00204487 -2.17173e-18)
(0.997457 -0.00286684 4.43209e-18)
(0.997087 -0.00363512 2.98491e-18)
(0.996792 -0.0043133 -1.24348e-18)
(0.996583 -0.0048868 -9.99525e-19)
(0.996456 -0.00535544 5.43197e-18)
(0.996407 -0.00573014 -1.60103e-18)
(0.996423 -0.00602898 1.03452e-18)
(0.996497 -0.00626879 6.01342e-19)
(0.996615 -0.00646763 -2.09883e-18)
(0.99677 -0.00663885 2.81626e-18)
(0.99695 -0.00679693 1.58603e-18)
(0.997154 -0.00695007 -1.80997e-19)
(0.997372 -0.0071079 2.46442e-18)
(0.997604 -0.00727569 2.12132e-18)
(0.997847 -0.00746078 1.47406e-18)
(0.998101 -0.00766661 3.10725e-19)
(0.998365 -0.00789761 -4.45747e-19)
(0.998638 -0.00815425 9.1555e-20)
(0.998917 -0.00843366 -5.11714e-19)
(0.999184 -0.00874566 5.24259e-19)
(0.999412 -0.00874625 -1.56195e-19)
(0.999045 -0.00955555 -8.16623e-20)
(1.00031 0.000336502 -7.91891e-20)
(1.00021 0.000407493 3.96864e-20)
(1.00002 0.000312315 4.28843e-19)
(0.999741 1.38447e-05 1.68066e-18)
(0.999393 -0.000497877 2.05752e-19)
(0.998987 -0.00118377 3.54206e-19)
(0.998551 -0.00198191 -2.42978e-18)
(0.998112 -0.00282183 -1.75976e-19)
(0.997701 -0.00363628 -2.32657e-18)
(0.997344 -0.0043782 -8.06502e-19)
(0.997054 -0.00501695 1.18465e-18)
(0.996844 -0.00554375 -7.87132e-19)
(0.99671 -0.00596173 -2.27253e-18)
(0.996652 -0.006285 1.28123e-18)
(0.996658 -0.00653268 7.95029e-20)
(0.996722 -0.00672297 2.71265e-18)
(0.99683 -0.00687332 -7.18045e-19)
(0.996977 -0.00699726 -1.20554e-18)
(0.997151 -0.00710801 -1.48042e-18)
(0.99735 -0.00721341 -3.8734e-18)
(0.997566 -0.00732131 -8.71273e-19)
(0.997797 -0.00743598 -1.96793e-18)
(0.99804 -0.00756268 -1.50454e-18)
(0.998293 -0.00770349 -1.0326e-18)
(0.998555 -0.0078609 1.11289e-18)
(0.998824 -0.00803499 -4.85808e-19)
(0.999091 -0.00822455 3.39718e-19)
(0.999347 -0.00844695 1.32718e-19)
(0.999502 -0.0083696 -1.08272e-19)
(0.999572 -0.00915494 3.33809e-20)
(1.00033 0.000305247 1.66634e-20)
(1.00023 0.000215252 -4.26075e-20)
(1.00006 -2.45405e-05 -6.18668e-20)
(0.999819 -0.000439588 -4.76103e-20)
(0.999513 -0.00103408 -9.55264e-19)
(0.999151 -0.00176747 3.41252e-19)
(0.998759 -0.00258078 -6.44671e-19)
(0.99836 -0.00340982 -1.25507e-18)
(0.99798 -0.00419439 2.44811e-18)
(0.997644 -0.00489484 -6.00687e-19)
(0.997367 -0.00548603 2.65881e-18)
(0.997159 -0.00596388 2.88114e-18)
(0.997023 -0.00633375 -2.42673e-18)
(0.996956 -0.00661156 -2.33502e-18)
(0.99695 -0.0068166 -3.19446e-18)
(0.997 -0.00696755 -2.70634e-18)
(0.997094 -0.00708098 5.23518e-19)
(0.997227 -0.00717034 -6.34355e-19)
(0.997388 -0.00724784 3.59972e-18)
(0.997575 -0.00732121 9.15424e-19)
(0.99778 -0.00739733 -2.12658e-18)
(0.998001 -0.00748034 -5.9632e-19)
(0.998233 -0.00757487 3.48763e-19)
(0.998477 -0.00768332 3.66681e-19)
(0.998727 -0.00780848 -6.25223e-19)
(0.998983 -0.007952 3.8606e-19)
(0.999233 -0.00811476 9.54654e-20)
(0.999478 -0.00831562 -1.73259e-19)
(0.999597 -0.00822312 3.45043e-20)
(0.999856 -0.00900017 -1.12183e-20)
(1.0003 0.000268287 -1.18369e-20)
(1.00021 3.28357e-05 6.30921e-20)
(1.00007 -0.0003317 -6.18033e-19)
(0.999856 -0.000840705 -3.24286e-19)
(0.999592 -0.00149412 6.49959e-19)
(0.999276 -0.00225214 1.95638e-18)
(0.998931 -0.00306085 2.37425e-18)
(0.998573 -0.0038637 2.16876e-19)
(0.998228 -0.00460836 -9.32386e-21)
(0.997918 -0.0052624 2.46741e-18)
(0.997657 -0.00580582 -2.39272e-18)
(0.997457 -0.00623821 -3.29692e-18)
(0.99732 -0.00656639 1.04481e-18)
(0.997246 -0.00680714 3.52441e-18)
(0.99723 -0.0069793 6.66116e-18)
(0.997267 -0.00710143 1.30495e-20)
(0.997348 -0.00718908 8.48689e-19)
(0.997465 -0.00725536 2.87592e-18)
(0.997613 -0.00731164 -2.74789e-18)
(0.997785 -0.00736555 1.5987e-18)
(0.997977 -0.00742339 1.77875e-18)
(0.998185 -0.00748938 8.24693e-19)
(0.998406 -0.00756796 4.74348e-19)
(0.998637 -0.00766202 -9.75407e-20)
(0.998874 -0.00777475 -3.98451e-20)
(0.999116 -0.00790855 1.1537e-19)
(0.999351 -0.0080644 1.76406e-20)
(0.999588 -0.00825908 5.00325e-21)
(0.999692 -0.00816104 -6.93352e-20)
(1.00003 -0.00894171 6.90073e-20)
(1.00024 0.000232346 2.30879e-20)
(1.00016 -0.0001288 9.53785e-20)
(1.00003 -0.000596365 3.13855e-19)
(0.99985 -0.00117845 3.32105e-19)
(0.999624 -0.00187215 1.30191e-18)
(0.999351 -0.00263975 -1.16649e-18)
(0.99905 -0.00343328 -1.61399e-18)
(0.998732 -0.00420397 1.06533e-18)
(0.998422 -0.00490728 -2.46625e-18)
(0.998138 -0.00551724 -8.4857e-19)
(0.997896 -0.00601826 -4.47062e-18)
(0.997706 -0.0064127 2.89997e-18)
(0.997572 -0.00670817 1.40648e-18)
(0.997495 -0.00692161 1.62463e-21)
(0.997471 -0.00707109 -3.60136e-18)
(0.997498 -0.00717461 5.13439e-19)
(0.997566 -0.00724663 -9.01711e-19)
(0.997671 -0.0072998 -3.05239e-18)
(0.997805 -0.00734473 2.21999e-20)
(0.997965 -0.00738894 -1.92885e-18)
(0.998145 -0.00743831 -1.53758e-18)
(0.998341 -0.00749714 -5.86617e-19)
(0.99855 -0.00756979 -3.9818e-19)
(0.99877 -0.00765946 -2.28572e-19)
(0.998996 -0.00776942 4.4373e-20)
(0.999227 -0.00790211 -1.1214e-19)
(0.99945 -0.00805757 -7.89003e-20)
(0.999683 -0.00825018 -2.44184e-19)
(0.999781 -0.00814925 -8.21712e-20)
(1.00016 -0.00893739 -9.65615e-20)
(1.00014 0.000200128 6.63602e-20)
(1.00007 -0.000265813 -1.83248e-19)
(0.999958 -0.00081519 -2.97022e-19)
(0.999803 -0.00145231 -2.55227e-19)
(0.99961 -0.00217225 -4.34171e-19)
(0.999374 -0.00294 -5.20381e-19)
(0.999111 -0.00371365 1.08617e-18)
(0.998831 -0.00445177 -2.58335e-18)
(0.998554 -0.00511689 -1.19578e-18)
(0.998296 -0.00568857 2.16925e-18)
(0.998072 -0.00615487 3.38419e-18)
(0.997894 -0.00652003 -1.5392e-18)
(0.997765 -0.00679204 -3.57075e-18)
(0.997688 -0.00698748 -1.52024e-18)
(0.997661 -0.00712342 8.3587e-20)
(0.99768 -0.00721707 6.35542e-20)
(0.99774 -0.00728183 4.35611e-19)
(0.997835 -0.00732975 -1.36535e-19)
(0.99796 -0.00737079 1.5423e-18)
(0.99811 -0.00741231 1.30896e-18)
(0.99828 -0.00745985 9.47954e-19)
(0.998467 -0.00751773 1.98506e-19)
(0.998667 -0.00759021 -1.7563e-19)
(0.998878 -0.00768063 5.77508e-20)
(0.999096 -0.0077921 1.12157e-19)
(0.999319 -0.00792668 -1.07305e-19)
(0.999535 -0.00808325 3.96467e-19)
(0.999768 -0.0082744 4.38591e-19)
(0.999866 -0.00817093 -1.74275e-19)
(1.00025 -0.0089665 6.99974e-20)
(1.00001 0.000173563 -4.2786e-21)
(0.999951 -0.000377333 6.72678e-20)
(0.999854 -0.000989495 3.50691e-19)
(0.99972 -0.00166654 -1.1359e-20)
(0.999554 -0.00240214 -5.27432e-19)
(0.99935 -0.00316427 -4.18643e-20)
(0.99912 -0.00391674 -7.75744e-19)
(0.998872 -0.00462465 1.33663e-18)
(0.998625 -0.00525673 1.56442e-19)
(0.998392 -0.00579708 -2.20432e-18)
(0.998188 -0.00623662 -3.2963e-18)
(0.998023 -0.00658086 -1.58956e-18)
(0.997903 -0.00683774 2.94969e-18)
(0.997829 -0.00702318 1.93902e-18)
(0.997801 -0.00715315 -1.26609e-18)
(0.997817 -0.00724392 -2.5616e-18)
(0.997872 -0.00730786 3.70034e-19)
(0.997961 -0.00735638 1.86679e-18)
(0.998079 -0.00739885 -1.51082e-18)
(0.998223 -0.00744243 6.39242e-19)
(0.998387 -0.00749237 -3.5485e-19)
(0.998568 -0.00755298 -3.31392e-20)
(0.998762 -0.00762838 1.46086e-19)
(0.998967 -0.00772189 9.16757e-20)
(0.99918 -0.00783635 6.5351e-20)
(0.999397 -0.00797334 2.93736e-19)
(0.99961 -0.00813067 2.50169e-19)
(0.999845 -0.00831996 4.40493e-20)
(0.999946 -0.00821334 -7.56048e-20)
(1.00034 -0.00901435 6.16007e-20)
(0.999871 0.000152766 -1.74965e-20)
(0.999812 -0.00046507 3.17557e-20)
(0.999726 -0.00112371 -9.58057e-20)
(0.999608 -0.0018284 -4.70566e-20)
(0.999464 -0.00257188 -4.4141e-19)
(0.999285 -0.00332503 -1.10193e-19)
(0.999084 -0.00405686 1.07479e-19)
(0.998865 -0.00473811 -7.13133e-19)
(0.998645 -0.00534279 -4.57244e-19)
(0.998435 -0.0058586 3.1816e-19)
(0.998251 -0.00627871 8.59104e-19)
(0.998101 -0.0066093 1.5958e-18)
(0.99799 -0.00685805 6.07191e-20)
(0.997922 -0.00703997 -3.54989e-18)
(0.997897 -0.00716993 -3.97824e-19)
(0.997913 -0.00726318 6.23645e-19)
(0.997966 -0.00733108 1.03556e-18)
(0.998053 -0.00738442 -2.43224e-19)
(0.998168 -0.00743203 5.47568e-19)
(0.998309 -0.00748084 3.21896e-19)
(0.998469 -0.00753585 3.04221e-19)
(0.998647 -0.00760131 3.8423e-20)
(0.998838 -0.00768119 9.15018e-20)
(0.999041 -0.00777877 -1.68153e-19)
(0.999251 -0.00789657 3.21078e-19)
(0.999466 -0.00803571 -8.41906e-19)
(0.999678 -0.00819319 3.32379e-19)
(0.999918 -0.00838028 -5.26801e-20)
(1.00002 -0.00827018 3.80416e-19)
(1.0004 -0.00907534 -5.2366e-20)
(0.999713 0.000137658 -4.19649e-20)
(0.999657 -0.00053138 -1.91218e-20)
(0.999578 -0.00122306 -2.62075e-22)
(0.999473 -0.00194562 1.97227e-19)
(0.999346 -0.0026913 6.30489e-19)
(0.999189 -0.00343369 9.06563e-19)
(0.999012 -0.0041464 8.74542e-19)
(0.998817 -0.00480489 1.45541e-19)
(0.998622 -0.0053876 1.32622e-18)
(0.998435 -0.00588501 -3.54559e-19)
(0.99827 -0.00629199 8.43196e-20)
(0.998135 -0.00661499 1.81288e-18)
(0.998036 -0.00686123 1.88981e-18)
(0.997976 -0.00704471 7.21067e-19)
(0.997956 -0.00717918 1.31813e-18)
(0.997976 -0.00727886 3.8801e-19)
(0.998031 -0.00735418 -6.86496e-19)
(0.998118 -0.0074153 6.73011e-19)
(0.998233 -0.00747054 -8.15002e-21)
(0.998373 -0.00752661 -7.67872e-19)
(0.998533 -0.00758829 3.78766e-20)
(0.99871 -0.00765976 3.16565e-20)
(0.998901 -0.00774484 1.2366e-19)
(0.999103 -0.00784672 3.90411e-19)
(0.999313 -0.00796768 -8.49412e-20)
(0.999529 -0.00810842 8.60985e-19)
(0.999742 -0.00826543 -4.54814e-19)
(0.999988 -0.00845001 4.46439e-19)
(1.0001 -0.0083359 1.69522e-19)
(1.00047 -0.00914321 -5.94707e-21)
(0.999542 0.000127208 2.07412e-20)
(0.999488 -0.000579571 -2.56175e-20)
(0.999415 -0.00129335 9.8037e-20)
(0.99932 -0.00202624 -1.25911e-19)
(0.999207 -0.0027701 -5.2153e-19)
(0.999067 -0.003501 -3.61698e-19)
(0.998911 -0.0041965 -1.58427e-18)
(0.998738 -0.00483601 9.83467e-19)
(0.998565 -0.00540157 -2.7051e-19)
(0.998399 -0.00588581 1.45078e-19)
(0.998252 -0.00628486 3.7816e-19)
(0.998133 -0.0066051 -2.32892e-18)
(0.998047 -0.0068532 -1.72393e-18)
(0.997998 -0.00704208 1.63417e-18)
(0.997986 -0.00718441 2.63202e-19)
(0.998011 -0.00729338 5.57832e-19)
(0.99807 -0.00737855 -6.7153e-19)
(0.99816 -0.00744947 -3.87692e-19)
(0.998277 -0.00751401 -9.65243e-20)
(0.99842 -0.00757866 1.75371e-19)
(0.998581 -0.00764799 1.35442e-19)
(0.99876 -0.00772609 1.95569e-19)
(0.998953 -0.00781668 -2.37162e-19)
(0.999157 -0.00792287 -9.9607e-20)
(0.999369 -0.00804672 -3.13359e-19)
(0.999587 -0.00818865 -1.56815e-19)
(0.999803 -0.00834484 -1.45961e-19)
(1.00006 -0.00852688 -1.02363e-18)
(1.00017 -0.00840865 3.99976e-19)
(1.00053 -0.00921739 1.78309e-19)
(0.999364 0.00012082 -7.31646e-21)
(0.99931 -0.000612407 6.75472e-20)
(0.999242 -0.00133976 3.29544e-20)
(0.999154 -0.00207722 -1.06295e-20)
(0.999052 -0.0028165 1.82647e-20)
(0.998927 -0.00353585 3.00401e-19)
(0.998788 -0.00421618 6.35056e-19)
(0.998635 -0.00484013 -5.25025e-19)
(0.998482 -0.00539272 -7.0196e-19)
(0.998336 -0.00586814 -2.05362e-19)
(0.998208 -0.00626342 -6.60597e-20)
(0.998105 -0.00658468 1.16897e-18)
(0.998033 -0.00683795 -1.82027e-18)
(0.997994 -0.00703508 -3.22623e-19)
(0.997992 -0.00718766 -1.29691e-19)
(0.998025 -0.00730793 2.3842e-19)
(0.99809 -0.00740463 4.85569e-19)
(0.998185 -0.0074867 3.22579e-19)
(0.998307 -0.00756161 -2.85529e-19)
(0.998453 -0.00763563 1.54462e-20)
(0.998619 -0.00771314 -2.6106e-19)
(0.998802 -0.00779818 -3.32319e-19)
(0.998997 -0.00789434 -2.56795e-20)
(0.999205 -0.00800468 -1.80044e-19)
(0.99942 -0.00813111 -9.34351e-19)
(0.999642 -0.00827386 -7.97734e-19)
(0.999862 -0.00842893 -1.61374e-18)
(1.00012 -0.00860836 4.89447e-20)
(1.00025 -0.00848566 -6.10774e-19)
(1.00059 -0.00929429 -1.52456e-19)
(0.999181 0.000117421 -3.31622e-21)
(0.999126 -0.000632957 -3.47747e-20)
(0.999061 -0.00136722 -8.02227e-20)
(0.998979 -0.00210501 4.45394e-22)
(0.998886 -0.00283792 2.15088e-19)
(0.998774 -0.00354607 -3.14857e-20)
(0.998649 -0.00421323 1.08341e-20)
(0.998514 -0.00482463 2.62398e-19)
(0.998379 -0.00536773 4.26521e-19)
(0.998251 -0.00583784 2.90168e-19)
(0.998141 -0.00623261 2.77015e-19)
(0.998054 -0.00655777 -1.57058e-19)
(0.997997 -0.00681867 7.30099e-19)
(0.997971 -0.00702607 1.56935e-19)
(0.997979 -0.00719061 3.97683e-19)
(0.998021 -0.00732354 -1.75782e-19)
(0.998094 -0.00743287 -1.09184e-19)
(0.998197 -0.00752697 -2.46378e-19)
(0.998325 -0.00761294 1.98676e-19)
(0.998477 -0.00769681 1.56044e-20)
(0.998648 -0.00778283 -2.54518e-19)
(0.998835 -0.00787494 5.0987e-19)
(0.999036 -0.00797667 2.2475e-19)
(0.999248 -0.00809103 4.29456e-19)
(0.999468 -0.00821983 8.48499e-19)
(0.999695 -0.0083632 3.47084e-19)
(0.99992 -0.0085171 2.76151e-18)
(1.00019 -0.00869404 1.28103e-18)
(1.00032 -0.00856688 1.9445e-19)
(1.00065 -0.00937519 -2.47767e-19)
(0.998993 0.000116502 4.25432e-21)
(0.998937 -0.000643469 1.01075e-20)
(0.998876 -0.00137968 1.23668e-21)
(0.998798 -0.00211473 -3.67141e-20)
(0.998712 -0.00284017 -1.68646e-20)
(0.99861 -0.00353774 -1.76756e-19)
(0.998499 -0.00419358 9.73742e-20)
(0.99838 -0.00479505 1.4643e-19)
(0.998262 -0.00533152 -2.96442e-19)
(0.998151 -0.00579914 1.31874e-19)
(0.998058 -0.00619595 2.16766e-19)
(0.997987 -0.00652717 -3.26905e-19)
(0.997944 -0.00679748 6.69039e-19)
(0.997932 -0.00701658 -8.09718e-20)
(0.997951 -0.0071942 -2.48484e-19)
(0.998004 -0.00734069 -1.58085e-21)
(0.998086 -0.00746336 -4.32563e-20)
(0.998197 -0.00757003 -4.48289e-20)
(0.998333 -0.00766744 -3.3462e-19)
(0.998492 -0.00776142 6.08205e-20)
(0.99867 -0.00785608 8.80272e-19)
(0.998864 -0.00795528 -9.26643e-19)
(0.99907 -0.00806249 -1.14181e-18)
(0.999288 -0.00818071 -4.49151e-19)
(0.999514 -0.00831167 7.21847e-19)
(0.999747 -0.00845547 4.38386e-21)
(0.999978 -0.00860808 -2.47244e-18)
(1.00026 -0.0087825 -1.88471e-18)
(1.0004 -0.00865059 1.97188e-19)
(1.00071 -0.00945734 2.56685e-19)
(0.998803 0.0001172 -3.82005e-21)
(0.998746 -0.000646363 -4.45655e-20)
(0.998687 -0.00138073 3.45509e-20)
(0.998614 -0.0021109 8.71543e-21)
(0.998533 -0.00282832 -2.6048e-20)
(0.99844 -0.00351609 -2.4375e-19)
(0.998341 -0.00416231 4.9573e-20)
(0.998235 -0.00475604 -2.71306e-19)
(0.998133 -0.00528825 -3.1489e-20)
(0.998039 -0.00575559 -2.08331e-19)
(0.997962 -0.00615637 -4.93691e-19)
(0.997907 -0.00649524 -1.69436e-19)
(0.997879 -0.00677622 -3.32385e-20)
(0.99788 -0.007008 -5.30667e-20)
(0.997912 -0.00719944 2.74165e-19)
(0.997976 -0.00736004 1.77278e-19)
(0.998069 -0.00749645 -1.00529e-19)
(0.998189 -0.00761599 -3.72988e-19)
(0.998333 -0.00772506 5.65593e-20)
(0.998501 -0.00782928 -7.76365e-19)
(0.998686 -0.00793264 -3.20194e-19)
(0.998888 -0.00803892 -6.53172e-19)
(0.999101 -0.00815154 1.26066e-18)
(0.999326 -0.0082735 -2.90327e-19)
(0.999559 -0.00840652 -1.28487e-19)
(0.999798 -0.00855068 1.38999e-18)
(1.00004 -0.00870204 6.48081e-19)
(1.00032 -0.00887407 3.53395e-19)
(1.00047 -0.00873744 -4.09494e-19)
(1.00076 -0.0095427 3.06487e-20)
(0.998612 0.000119237 1.92337e-20)
(0.998555 -0.000643157 1.65282e-20)
(0.998497 -0.00137301 -1.1429e-19)
(0.998427 -0.00209687 1.1699e-19)
(0.998352 -0.0028061 2.46901e-20)
(0.998266 -0.0034849 -2.79443e-20)
(0.998178 -0.00412304 -3.48177e-21)
(0.998085 -0.00471091 1.7787e-19)
(0.997996 -0.00524077 2.19754e-19)
(0.997918 -0.00570959 6.70468e-20)
(0.997857 -0.00611583 1.88222e-19)
(0.997817 -0.00646351 -6.55087e-20)
(0.997804 -0.00675604 -9.20655e-20)
(0.997819 -0.00700112 1.01321e-19)
(0.997863 -0.00720683 7.89785e-21)
(0.997939 -0.00738185 -2.78794e-19)
(0.998043 -0.00753222 1.40362e-19)
(0.998173 -0.00766475 6.14553e-19)
(0.998328 -0.00778555 -2.47874e-19)
(0.998504 -0.00790003 1.56764e-18)
(0.998698 -0.00801205 -3.76331e-21)
(0.998908 -0.00812534 1.87636e-18)
(0.99913 -0.00824326 -1.86649e-18)
(0.999362 -0.00836882 1.11156e-18)
(0.999602 -0.00850375 4.89259e-19)
(0.999849 -0.00864816 -6.30695e-19)
(1.00009 -0.0087982 3.33742e-19)
(1.00039 -0.00896777 1.41095e-18)
(1.00054 -0.00882612 -1.83501e-19)
(1.00082 -0.00962878 -5.78469e-20)
(0.998421 0.000122008 -1.27024e-20)
(0.998363 -0.000635584 6.04324e-20)
(0.998307 -0.00135891 -3.82493e-20)
(0.998239 -0.0020756 -2.74979e-19)
(0.998168 -0.00277673 -1.57933e-19)
(0.99809 -0.00344745 -6.35595e-20)
(0.99801 -0.00407888 -1.97527e-19)
(0.997929 -0.00466249 4.84198e-20)
(0.997854 -0.00519157 4.8589e-20)
(0.99779 -0.00566325 5.30168e-20)
(0.997744 -0.00607606 5.33711e-20)
(0.997719 -0.0064334 2.00343e-19)
(0.99772 -0.00673805 -1.41784e-19)
(0.997749 -0.00699683 -3.23366e-19)
(0.997807 -0.00721705 1.0412e-19)
(0.997895 -0.00740662 -1.46178e-19)
(0.998011 -0.00757101 1.92886e-19)
(0.998152 -0.00771657 -6.36728e-19)
(0.998317 -0.00784911 6.16756e-19)
(0.998503 -0.00797382 -8.23557e-19)
(0.998707 -0.00809446 3.25334e-19)
(0.998926 -0.00821468 2.84263e-19)
(0.999156 -0.00833782 4.12584e-19)
(0.999397 -0.0084669 -8.40195e-19)
(0.999645 -0.00860368 -6.73582e-19)
(0.999899 -0.00874831 -7.79585e-19)
(1.00015 -0.00889707 4.5762e-19)
(1.00046 -0.00906424 -8.68763e-19)
(1.00062 -0.0089176 -3.72341e-19)
(1.00088 -0.00971789 -8.33663e-20)
(0.998231 0.000125434 2.62989e-20)
(0.998172 -0.000624533 7.83793e-20)
(0.998117 -0.00134008 4.70878e-20)
(0.998051 -0.00204911 1.89713e-19)
(0.997984 -0.00274243 -5.07033e-20)
(0.997912 -0.00340595 -3.22656e-19)
(0.997841 -0.0040319 2.44377e-19)
(0.99777 -0.0046126 -3.18977e-20)
(0.997707 -0.00514218 -7.87244e-20)
(0.997657 -0.00561782 -1.37775e-19)
(0.997625 -0.00603807 -8.28266e-20)
(0.997615 -0.00640567 2.10985e-19)
(0.997631 -0.00672284 -1.74858e-19)
(0.997673 -0.00699552 5.8237e-19)
(0.997745 -0.00723035 -8.54758e-19)
(0.997845 -0.00743449 3.54323e-19)
(0.997973 -0.00761289 4.08279e-20)
(0.998126 -0.00777142 3.56823e-19)
(0.998301 -0.00791562 -6.65766e-19)
(0.998499 -0.00805049 1.00212e-18)
(0.998712 -0.00817965 9.90231e-19)
(0.998941 -0.00830669 -5.9928e-19)
(0.999181 -0.00843493 2.17582e-18)
(0.99943 -0.0085674 1.64415e-18)
(0.999687 -0.0087059 -7.19191e-19)
(0.99995 -0.00885065 1.52544e-18)
(1.00021 -0.00899804 6.84693e-19)
(1.00053 -0.00916269 -1.82062e-19)
(1.0007 -0.00901072 3.9825e-21)
(1.00094 -0.00980759 4.01956e-19)
(0.998042 0.000129103 -1.46215e-21)
(0.997982 -0.000611201 -1.29478e-19)
(0.997929 -0.00131802 2.81337e-19)
(0.997864 -0.00201921 -3.02564e-19)
(0.9978 -0.00270516 2.83734e-20)
(0.997734 -0.00336235 4.85986e-19)
(0.99767 -0.00398392 -1.72083e-19)
(0.997609 -0.00456288 1.33033e-19)
(0.997558 -0.00509404 1.57787e-19)
(0.99752 -0.00557453 7.14623e-20)
(0.997502 -0.00600286 -1.56076e-19)
(0.997506 -0.00638115 -5.09724e-19)
(0.997536 -0.00671109 2.6854e-19)
(0.997592 -0.00699778 -4.07999e-19)
(0.997677 -0.00724722 9.36085e-19)
(0.997791 -0.00746588 5.77496e-19)
(0.997931 -0.00765821 -8.70014e-19)
(0.998095 -0.00782962 -8.61224e-19)
(0.998283 -0.00798539 4.71279e-19)
(0.998491 -0.00813032 -2.49045e-18)
(0.998715 -0.00826791 -2.74639e-18)
(0.998954 -0.00840169 1.56963e-18)
(0.999204 -0.00853493 -2.03095e-18)
(0.999463 -0.00867072 -7.44771e-19)
(0.999729 -0.00881088 1.78406e-18)
(1 -0.00895571 -1.27071e-18)
(1.00027 -0.00910174 -2.60464e-18)
(1.0006 -0.00926388 -5.81074e-19)
(1.00077 -0.00910658 3.29708e-19)
(1.001 -0.00990034 -2.90055e-19)
(0.997855 0.000133069 -8.91549e-20)
(0.997794 -0.000596007 -2.52815e-20)
(0.997741 -0.00129366 -2.25102e-19)
(0.997678 -0.00198707 2.8624e-19)
(0.997617 -0.00266614 -2.51953e-19)
(0.997555 -0.00331782 1.26852e-19)
(0.997498 -0.00393601 -4.87024e-19)
(0.997446 -0.00451424 1.92456e-19)
(0.997406 -0.00504788 2.7164e-19)
(0.99738 -0.00553393 2.37932e-19)
(0.997375 -0.00597086 7.78082e-19)
(0.997393 -0.00636017 -3.08178e-19)
(0.997436 -0.00670303 -2.37224e-19)
(0.997506 -0.00700375 -3.46593e-19)
(0.997604 -0.00726775 2.2107e-19)
(0.997731 -0.00750084 -4.75109e-19)
(0.997884 -0.00770696 1.34929e-18)
(0.998061 -0.00789113 1.61779e-18)
(0.99826 -0.00805835 -4.50954e-20)
(0.99848 -0.00821321 1.90253e-18)
(0.998716 -0.00835912 -2.49165e-19)
(0.998966 -0.00849951 -1.31285e-18)
(0.999226 -0.00863763 1.05453e-18)
(0.999495 -0.0087766 -2.04008e-20)
(0.999771 -0.0089183 -7.6494e-19)
(1.00005 -0.00906309 4.78392e-19)
(1.00033 -0.00920762 2.95974e-18)
(1.00067 -0.00936705 1.50604e-18)
(1.00085 -0.00920405 -4.89146e-19)
(1.00106 -0.00999369 -3.64786e-19)
(0.99767 0.000137046 7.10805e-20)
(0.997607 -0.000579777 -9.16765e-20)
(0.997556 -0.00126791 1.17959e-19)
(0.997494 -0.00195374 -2.68087e-19)
(0.997435 -0.00262651 2.22619e-19)
(0.997377 -0.00327349 2.50171e-19)
(0.997327 -0.0038892 6.14064e-19)
(0.997283 -0.0044676 -7.74379e-19)
(0.997252 -0.00500449 -1.04362e-18)
(0.997238 -0.00549672 -2.15771e-19)
(0.997245 -0.00594265 -4.41072e-20)
(0.997276 -0.00634321 7.40342e-20)
(0.997333 -0.00669908 -2.91409e-19)
(0.997416 -0.00701382 -3.66453e-21)
(0.997528 -0.0072923 -1.06473e-18)
(0.997668 -0.0075397 -4.36957e-19)
(0.997834 -0.0077595 -6.12006e-19)
(0.998024 -0.00795629 -2.10766e-20)
(0.998235 -0.00813484 -1.77981e-18)
(0.998467 -0.00829953 -1.04794e-18)
(0.998715 -0.00845365 1.59337e-18)
(0.998976 -0.00860055 1.46774e-18)
(0.999247 -0.00874346 -1.02169e-18)
(0.999527 -0.00888552 -1.49072e-19)
(0.999813 -0.00902869 -1.58447e-19)
(1.0001 -0.00917339 2.1836e-19)
(1.00039 -0.00931638 -1.76361e-18)
(1.00074 -0.00947306 -8.08386e-19)
(1.00093 -0.00930435 2.25499e-18)
(1.00112 -0.0100902 3.17032e-20)
(0.997487 0.000141164 -3.93465e-20)
(0.997423 -0.000562616 -5.60805e-20)
(0.997372 -0.00124126 -2.99167e-19)
(0.997311 -0.00191981 1.18109e-19)
(0.997255 -0.00258686 5.38694e-19)
(0.9972 -0.0032299 3.95211e-20)
(0.997155 -0.00384396 9.61334e-19)
(0.997119 -0.00442331 -3.46691e-19)
(0.997098 -0.00496413 9.25731e-19)
(0.997094 -0.00546305 3.59307e-19)
(0.997113 -0.00591834 3.6743e-19)
(0.997156 -0.00633034 -4.18132e-19)
(0.997226 -0.00669927 1.55394e-19)
(0.997323 -0.007028 -1.06799e-19)
(0.997448 -0.00732087 2.2523e-19)
(0.997601 -0.00758244 1.40029e-18)
(0.99778 -0.00781578 9.15314e-20)
(0.997983 -0.00802506 -1.06601e-18)
(0.998207 -0.00821481 1.16409e-18)
(0.998452 -0.00838919 -1.08224e-18)
(0.998712 -0.00855139 2.64872e-18)
(0.998985 -0.00870468 -1.38e-18)
(0.999267 -0.00885224 2.26656e-18)
(0.999559 -0.00899727 -7.47298e-19)
(0.999855 -0.00914175 7.45867e-19)
(1.00016 -0.00928621 1.74925e-20)
(1.00045 -0.00942747 1.17161e-18)
(1.00081 -0.00958116 1.20543e-18)
(1.00101 -0.00940635 -1.12577e-18)
(1.00119 -0.0101874 -1.45213e-19)
(0.997306 0.000145213 1.21699e-19)
(0.997241 -0.00054511 4.36547e-19)
(0.997191 -0.00121423 3.43126e-19)
(0.99713 -0.0018859 -1.74258e-19)
(0.997075 -0.00254783 -1.52199e-19)
(0.997024 -0.00318768 -9.82554e-19)
(0.996984 -0.00380085 -1.59463e-18)
(0.996954 -0.00438187 1.86316e-18)
(0.996942 -0.00492723 -2.58416e-19)
(0.996948 -0.00543329 3.25239e-19)
(0.996978 -0.00589825 -1.86915e-18)
(0.997034 -0.00632184 6.74582e-19)
(0.997116 -0.00670389 1.28615e-19)
(0.997226 -0.00704657 -2.06349e-19)
(0.997364 -0.00735373 1.89696e-18)
(0.997531 -0.00762936 -4.58587e-19)
(0.997724 -0.00787612 -4.69842e-19)
(0.99794 -0.00809775 -4.07324e-19)
(0.998177 -0.00829858 -6.26615e-19)
(0.998435 -0.00848255 5.29928e-19)
(0.998707 -0.00865273 -5.87889e-19)
(0.998992 -0.0088123 1.54595e-18)
(0.999287 -0.00896442 -2.08608e-18)
(0.99959 -0.00911232 -2.0106e-18)
(0.999897 -0.00925803 -2.71392e-18)
(1.00021 -0.00940217 1.91624e-19)
(1.00052 -0.00954163 -4.02465e-19)
(1.00088 -0.00969224 -8.15951e-20)
(1.0011 -0.00951127 4.84759e-19)
(1.00126 -0.010288 3.24275e-19)
(0.997128 0.000149359 -1.07244e-19)
(0.997062 -0.000527163 -2.88195e-19)
(0.997011 -0.00118702 6.12454e-20)
(0.996951 -0.00185224 -1.54043e-19)
(0.996897 -0.00250966 6.1737e-20)
(0.996849 -0.003147 7.27543e-19)
(0.996813 -0.00375999 -6.34689e-20)
(0.99679 -0.00434333 -7.11454e-19)
(0.996785 -0.00489378 -1.21563e-18)
(0.996801 -0.0054074 -2.0733e-18)
(0.996842 -0.00588229 -9.01244e-19)
(0.996909 -0.00631763 -7.65166e-19)
(0.997004 -0.00671283 6.83738e-19)
(0.997126 -0.00706942 1.20871e-18)
(0.997278 -0.0073908 -3.21317e-18)
(0.997458 -0.00768039 -1.62955e-18)
(0.997664 -0.00794044 3.23362e-18)
(0.997894 -0.00817431 1.79012e-18)
(0.998145 -0.0083861 3.37192e-18)
(0.998415 -0.00857953 1.4812e-18)
(0.998701 -0.00875757 -1.66565e-18)
(0.998999 -0.0089233 -2.89258e-18)
(0.999306 -0.00907984 4.49423e-18)
(0.999621 -0.00923045 7.74315e-19)
(0.99994 -0.00937724 2.45632e-18)
(1.00026 -0.00952086 -7.97794e-19)
(1.00058 -0.0096583 1.76385e-18)
(1.00096 -0.00980553 1.72755e-18)
(1.00118 -0.00961799 -5.83928e-19)
(1.00133 -0.0103892 2.26413e-19)
(0.996952 0.000153435 -2.21741e-20)
(0.996884 -0.000509219 -2.5813e-19)
(0.996833 -0.00115995 -2.9579e-19)
(0.996773 -0.00181918 4.9773e-19)
(0.99672 -0.00247269 -3.04424e-19)
(0.996674 -0.00310819 -4.76745e-19)
(0.996642 -0.00372168 6.59027e-19)
(0.996625 -0.00430796 -6.86807e-19)
(0.996627 -0.004864 -3.0391e-19)
(0.996652 -0.00538557 2.58977e-18)
(0.996703 -0.00587066 8.65727e-19)
(0.996781 -0.0063179 1.26467e-18)
(0.996888 -0.00672631 -1.62868e-19)
(0.997024 -0.0070968 -1.01358e-18)
(0.997189 -0.00743234 1.84381e-18)
(0.997382 -0.00773579 8.85261e-19)
(0.997602 -0.00800904 -2.95676e-18)
(0.997846 -0.00825505 -3.3479e-18)
(0.99811 -0.0084777 -3.25407e-19)
(0.998395 -0.00868051 -2.79856e-18)
(0.998693 -0.0088663 1.60307e-18)
(0.999005 -0.0090381 -1.79889e-19)
(0.999325 -0.00919896 -6.79444e-18)
(0.999652 -0.00935219 2.52462e-18)
(0.999983 -0.00949994 6.60559e-19)
(1.00032 -0.00964293 1.10132e-18)
(1.00065 -0.00977824 3.94102e-19)
(1.00104 -0.00992197 -4.39587e-18)
(1.00127 -0.00972779 -8.13929e-19)
(1.0014 -0.010494 -4.26805e-19)
(0.996778 0.000157621 3.88691e-20)
(0.996709 -0.000491057 3.79635e-19)
(0.996657 -0.00113304 -2.18062e-21)
(0.996597 -0.00178676 2.19372e-19)
(0.996544 -0.00243695 2.4012e-19)
(0.996501 -0.00307124 6.74816e-19)
(0.996472 -0.00368583 1.16716e-19)
(0.99646 -0.00427562 1.23234e-18)
(0.996469 -0.00483774 2.0271e-18)
(0.996502 -0.00536762 -1.56001e-18)
(0.996563 -0.00586317 3.38423e-18)
(0.996652 -0.00632246 -3.89887e-19)
(0.996771 -0.00674416 -3.71249e-19)
(0.996919 -0.00712855 -1.04079e-18)
(0.997097 -0.0074782 7.97596e-19)
(0.997304 -0.00779546 3.43764e-19)
(0.997537 -0.00808182 -4.32349e-19)
(0.997795 -0.00833989 3.58463e-18)
(0.998074 -0.0085733 -2.43582e-18)
(0.998372 -0.00878537 1.33976e-19)
(0.998685 -0.00897882 -1.00815e-18)
(0.99901 -0.00915656 -3.09057e-18)
(0.999343 -0.00932161 4.69289e-18)
(0.999684 -0.00947728 -1.3024e-19)
(1.00003 -0.00962582 -8.1126e-19)
(1.00037 -0.00976797 1.10826e-18)
(1.00071 -0.00990089 -4.56096e-18)
(1.00112 -0.0100408 -1.12254e-19)
(1.00136 -0.00983953 7.58974e-19)
(1.00147 -0.0105995 2.36522e-19)
(0.996606 0.000161774 1.11299e-19)
(0.996535 -0.000473041 -3.07848e-21)
(0.996483 -0.00110647 -2.4664e-19)
(0.996422 -0.00175517 1.64122e-19)
(0.996369 -0.0024026 6.82418e-20)
(0.996327 -0.00303631 5.40078e-19)
(0.996302 -0.00365261 -6.67651e-19)
(0.996294 -0.00424646 -6.45351e-19)
(0.99631 -0.00481512 9.36987e-19)
(0.996351 -0.00535369 -7.3486e-19)
(0.996421 -0.00585996 -5.03854e-18)
(0.996521 -0.00633147 -1.20743e-18)
(0.996651 -0.00676654 2.88388e-18)
(0.996811 -0.00716487 6.97171e-19)
(0.997002 -0.00752863 -1.76992e-18)
(0.997223 -0.00785966 -6.19715e-19)
(0.99747 -0.00815908 -2.09581e-18)
(0.997742 -0.00842913 -2.72773e-18)
(0.998035 -0.00867324 -2.27314e-18)
(0.998348 -0.0088945 2.23284e-18)
(0.998675 -0.00909552 3.16867e-18)
(0.999014 -0.00927911 4.28697e-18)
(0.999361 -0.00944824 -2.78352e-19)
(0.999715 -0.00960626 -2.21895e-18)
(1.00007 -0.00975545 -2.63469e-18)
(1.00043 -0.00989663 -2.84337e-20)