/*--------------------------------*- C++ -*----------------------------------*\
  =========                 |
  \\      /  F ield         | OpenFOAM: The Open Source CFD Toolbox
   \\    /   O peration     | Website:  https://openfoam.org
    \\  /    A nd           | Version:  6.0
     \\/     M anipulation  |
\*---------------------------------------------------------------------------*/
FoamFile
{
    version     2.0;
    format      ascii;
    class       volVectorField;
    location    "18";
    object      U;
}
// * * * * * * * * * * * * * * * * * * * * * * * * * * * * * * * * * * * * * //

dimensions      [0 1 -1 0 0 0 0];

internalField   nonuniform List<vector> 
2000
(
(-0.00199168 0.00173845 3.38759e-20)
(-0.00761927 0.00330324 3.59837e-20)
(-0.0153267 0.00366154 -3.30124e-20)
(-0.0223305 0.0033354 -6.51309e-20)
(-0.0276747 0.00263566 -4.41732e-20)
(-0.0312075 0.00176567 5.73407e-20)
(-0.0330288 0.000871128 3.26482e-20)
(-0.0334075 5.9189e-05 -1.29417e-20)
(-0.0327655 -0.000590619 -3.17392e-20)
(-0.0314 -0.00101532 1.86643e-20)
(-0.00249002 0.005122 -8.3962e-20)
(-0.00836943 0.00968825 1.03669e-19)
(-0.0157243 0.0106973 9.95175e-21)
(-0.0220263 0.00969172 -5.58752e-20)
(-0.0264571 0.00758606 2.59569e-19)
(-0.0289414 0.0049779 -1.11313e-19)
(-0.0296267 0.0022965 -1.17715e-19)
(-0.0288089 -0.000138522 1.39147e-19)
(-0.0269279 -0.00208439 -1.34813e-19)
(-0.0243552 -0.00335097 5.48885e-20)
(-0.00343594 0.00822704 1.39452e-20)
(-0.00972918 0.0154157 4.4298e-21)
(-0.0163059 0.0168874 2.98957e-19)
(-0.0211513 0.0151322 1.01396e-19)
(-0.0237226 0.0116142 1.95219e-20)
(-0.0240952 0.00728597 1.57341e-19)
(-0.0225094 0.00283516 -2.92106e-19)
(-0.0193107 -0.00121339 6.20689e-21)
(-0.0149718 -0.0044417 -1.66302e-19)
(-0.0100194 -0.00652858 1.48165e-19)
(-0.00472435 0.0108729 -2.62263e-20)
(-0.0114084 0.0200719 1.34939e-19)
(-0.0166302 0.0217235 -3.78378e-19)
(-0.0191536 0.0191407 -4.7301e-20)
(-0.0188479 0.0142429 -2.61456e-19)
(-0.0160118 0.00826937 2.63846e-19)
(-0.0110187 0.00211723 -2.73547e-19)
(-0.00427818 -0.00350178 1.88279e-19)
(0.00369719 -0.00797742 7.77554e-20)
(0.0121332 -0.0108507 -7.12442e-20)
(-0.00618803 0.0128841 -2.91787e-19)
(-0.0129508 0.0232768 2.34082e-21)
(-0.0160056 0.0247767 4.66018e-19)
(-0.0151645 0.0213365 1.35114e-19)
(-0.0108447 0.0151978 -4.1707e-19)
(-0.00363915 0.00778394 2.52692e-19)
(0.00590804 0.000121027 2.80021e-19)
(0.0173183 -0.00693467 -2.44682e-19)
(0.0300492 -0.0125673 1.71403e-19)
(0.0429732 -0.0161737 3.42235e-20)
(-0.00758613 0.0140896 3.9892e-20)
(-0.0137142 0.0246945 6.61626e-21)
(-0.0134656 0.0257191 -5.95675e-19)
(-0.00796575 0.0215111 -3.22262e-19)
(0.00168902 0.0144663 3.7327e-19)
(0.0145376 0.00605918 -4.25942e-19)
(0.0298219 -0.00267771 4.77136e-19)
(0.0469955 -0.0108328 -4.03546e-20)
(0.065526 -0.0174023 -1.29263e-19)
(0.0838219 -0.0216473 -3.06811e-19)
(-0.00859234 0.0143266 -8.67228e-20)
(-0.0128593 0.0240471 -1.41709e-19)
(-0.0077639 0.0243378 -1.67563e-19)
(0.00401932 0.0196367 3.45696e-19)
(0.0205967 0.0123089 6.22719e-19)
(0.0405589 0.00373132 -1.25395e-19)
(0.0628685 -0.00522447 -2.98449e-19)
(0.0868962 -0.0137667 8.92032e-20)
(0.112203 -0.0208086 -5.52075e-19)
(0.136665 -0.0255224 4.97599e-19)
(-0.00879089 0.0134545 5.30368e-19)
(-0.00936466 0.0211396 -2.58932e-19)
(0.00258285 0.0205432 4.86717e-19)
(0.0226638 0.0158419 -7.68952e-19)
(0.0480984 0.00920376 -3.5681e-19)
(0.0769418 0.0017882 -4.81622e-19)
(0.10777 -0.00587429 1.36746e-19)
(0.139791 -0.0133827 -3.73464e-19)
(0.172792 -0.0198044 7.98945e-19)
(0.204229 -0.0243911 1.84538e-19)
(-0.00769184 0.0113853 3.89146e-20)
(-0.00208846 0.0159035 4.218e-19)
(0.0191841 0.0143751 8.06768e-19)
(0.0499886 0.0103429 2.38488e-19)
(0.0866252 0.00568297 6.85337e-19)
(0.12652 0.00135478 3.66179e-20)
(0.167671 -0.0024486 -4.08531e-22)
(0.208861 -0.00579552 2.57992e-19)
(0.250113 -0.00808471 2.04967e-19)
(0.289035 -0.00959736 -5.53496e-19)
(-0.00478134 0.00812952 -3.13949e-19)
(0.0101004 0.00845645 -4.70568e-19)
(0.043573 0.00599948 -6.58455e-19)
(0.0879291 0.00327109 1.49751e-20)
(0.138689 0.00181331 -3.15271e-19)
(0.192752 0.00258751 4.84228e-19)
(0.247547 0.00591539 -1.30337e-18)
(0.301125 0.0119848 5.73616e-19)
(0.352799 0.0213422 2.11918e-19)
(0.400003 0.0300751 5.57717e-19)
(0.000378789 0.00385597 1.57099e-19)
(0.0280759 -0.000800135 -5.37903e-19)
(0.076752 -0.0042081 4.62309e-19)
(0.137523 -0.00538486 -1.7348e-19)
(0.205536 -0.00335532 1.83219e-19)
(0.277826 0.00280397 3.88837e-19)
(0.352556 0.0138244 -5.10296e-19)
(0.429317 0.0306242 6.50082e-20)
(0.509121 0.0525058 -2.35613e-19)
(0.594456 0.0697113 4.16369e-19)
(0.00805413 -0.00105914 2.24913e-19)
(0.0522306 -0.0110221 -4.87584e-19)
(0.118725 -0.0152695 6.39469e-19)
(0.197753 -0.0149378 -3.8519e-19)
(0.284096 -0.0101758 -1.37205e-19)
(0.374698 -0.000844822 7.91584e-20)
(0.467748 0.0129631 3.99913e-20)
(0.562679 0.0309329 5.32204e-19)
(0.659193 0.0504212 1.50496e-19)
(0.755051 0.062781 5.6374e-19)
(0.0183525 -0.00605347 -2.00698e-19)
(0.0826037 -0.0208552 6.3031e-19)
(0.169013 -0.025215 -5.06268e-19)
(0.267117 -0.022755 -5.74348e-19)
(0.371213 -0.0149953 7.80268e-19)
(0.477808 -0.00273145 -5.78321e-19)
(0.584501 0.0131035 1.49308e-19)
(0.68974 0.0313984 -8.67811e-19)
(0.791784 0.0495285 6.38573e-19)
(0.886694 0.0621416 2.81438e-20)
(0.0312798 -0.0104984 -2.61482e-19)
(0.118996 -0.0287396 -2.26094e-19)
(0.226923 -0.0317491 -4.63375e-19)
(0.344191 -0.0258236 5.43106e-19)
(0.464655 -0.0139378 -2.66644e-20)
(0.58435 0.00220927 3.32438e-19)
(0.700337 0.0210155 5.9301e-19)
(0.810376 0.0409836 -1.78604e-19)
(0.912123 0.0600563 -6.20773e-19)
(1.00161 0.0752069 1.0844e-18)
(0.0467662 -0.0137852 -1.35117e-19)
(0.160964 -0.0331707 -1.4426e-19)
(0.291449 -0.0327563 2.49933e-19)
(0.427316 -0.021603 -4.49345e-19)
(0.562177 -0.00416189 7.45035e-20)
(0.691822 0.0170139 6.4663e-20)
(0.813126 0.0397769 2.7747e-20)
(0.923735 0.0624208 -4.34057e-21)
(1.02146 0.0834581 -6.53863e-20)
(1.10297 0.101264 -9.17167e-19)
(0.0646532 -0.0153512 5.48554e-19)
(0.207777 -0.0328217 -3.42543e-19)
(0.361156 -0.0265193 4.22693e-21)
(0.514332 -0.00827672 -4.85808e-19)
(0.661033 0.0160109 -1.68886e-19)
(0.79717 0.0430157 1.5382e-19)
(0.919905 0.070167 1.16884e-19)
(1.02734 0.0956718 -4.08198e-19)
(1.11799 0.118558 3.27921e-19)
(1.18955 0.138018 -3.78032e-19)
(0.0846616 -0.0146845 2.36701e-19)
(0.258368 -0.026601 -1.88292e-19)
(0.434141 -0.0118156 7.52881e-19)
(0.602582 0.0151708 7.42881e-20)
(0.758011 0.0471353 1.65704e-19)
(0.896959 0.0801227 7.20108e-19)
(1.01739 0.111318 -1.07556e-19)
(1.11837 0.139012 9.62929e-20)
(1.19955 0.162771 3.9217e-20)
(1.25988 0.182282 -4.21981e-20)
(0.106362 -0.0113344 1.6534e-19)
(0.311329 -0.0136935 3.5589e-19)
(0.50809 0.0120425 -3.67e-19)
(0.689042 0.0489759 -1.20231e-19)
(0.849695 0.0888009 -1.44245e-19)
(0.987758 0.12719 2.17773e-19)
(1.10252 0.161352 -1.10811e-19)
(1.19444 0.189903 2.92245e-19)
(1.26453 0.213043 9.67322e-20)
(1.31317 0.230817 -1.37805e-19)
(0.129158 -0.00493667 -1.78202e-19)
(0.364939 0.00639187 1.41769e-19)
(0.580393 0.0451868 -2.91201e-19)
(0.770542 0.0926529 1.21498e-19)
(0.93276 0.139814 -1.22443e-19)
(1.0665 0.182349 -1.48985e-19)
(1.17284 0.217849 -1.17047e-19)
(1.2539 0.24554 1.28255e-19)
(1.31219 0.266387 -2.37814e-19)
(1.34952 0.280755 1.25111e-19)
(0.152298 0.0047489 -6.35112e-20)
(0.417231 0.0337667 -1.11226e-19)
(0.648292 0.0871783 5.09714e-20)
(0.843995 0.145063 3.02838e-21)
(1.00425 0.198369 3.97319e-20)
(1.13078 0.243278 5.31696e-20)
(1.22674 0.278171 4.82176e-20)
(1.29608 0.303177 -6.2656e-20)
(1.34271 0.320142 5.24968e-20)
(1.36977 0.329763 -7.11708e-20)
(0.174899 0.0177975 -3.67763e-20)
(0.466101 0.0681129 -1.23565e-20)
(0.70907 0.137009 4.73141e-20)
(0.906617 0.204495 -2.10514e-20)
(1.06179 0.262214 5.45656e-20)
(1.17894 0.307417 -6.86681e-20)
(1.26348 0.33969 1.55439e-20)
(1.3211 0.360315 1.63497e-20)
(1.35697 0.372086 -6.75762e-21)
(1.37531 0.376046 2.20078e-20)
(0.195997 0.0340839 -3.96723e-20)
(0.509433 0.108653 -1.60744e-19)
(0.760221 0.193131 -1.07278e-20)
(0.95611 0.268774 3.09314e-21)
(1.1037 0.328806 -1.89198e-19)
(1.21017 0.372141 2.43394e-20)
(1.28314 0.399931 -2.02737e-20)
(1.32983 0.414781 -4.80749e-20)
(1.35638 0.42043 9.86857e-20)
(1.36781 0.418268 -1.53997e-19)
(0.214597 0.0532577 -1.9178e-20)
(0.545239 0.154146 3.2572e-19)
(0.799622 0.253516 5.04885e-20)
(0.990792 0.335373 -2.66934e-19)
(1.12908 0.395458 -2.10345e-20)
(1.22445 0.434888 -2.42565e-19)
(1.28648 0.456654 1.73974e-19)
(1.32361 0.464742 -6.20812e-20)
(1.34263 0.463767 1.0829e-19)
(1.34909 0.45544 -6.74295e-20)
(0.229747 0.0747345 -1.20932e-19)
(0.571796 0.202928 1.03572e-19)
(0.825661 0.315755 -7.19623e-20)
(1.00968 0.401553 5.24037e-19)
(1.13779 0.45947 2.51401e-19)
(1.22244 0.493257 -5.69029e-20)
(1.2748 0.507885 1.87696e-19)
(1.30415 0.508674 -1.2121e-19)
(1.3176 0.500983 -3.33525e-20)
(1.32096 0.486808 1.84525e-19)
(0.240599 0.0977045 -2.09474e-19)
(0.58776 0.252971 2.38838e-19)
(0.837338 0.377173 -4.52326e-19)
(1.01249 0.464492 6.15533e-20)
(1.13035 0.518235 1.33864e-19)
(1.20538 0.54506 -1.9953e-19)
(1.24982 0.551917 -2.28602e-19)
(1.27339 0.545315 9.87643e-20)
(1.28324 0.531175 -1.17276e-19)
(1.28522 0.51176 1.1892e-19)
(0.246472 0.121159 -5.29033e-20)
(0.592266 0.301988 -2.431e-19)
(0.834301 0.43497 1.29293e-19)
(0.999649 0.521421 2.10612e-19)
(1.1079 0.569332 -1.228e-19)
(1.17493 0.588352 -8.95423e-20)
(1.21351 0.587282 -4.94571e-20)
(1.23338 0.573592 -2.40677e-20)
(1.24149 0.553556 4.43874e-21)
(1.24359 0.529724 4.27434e-20)
(0.246911 0.143938 3.91725e-20)
(0.584989 0.347556 -2.05068e-19)
(0.816855 0.48637 3.29447e-19)
(0.972165 0.569749 -1.88557e-19)
(1.07206 0.610602 5.22202e-20)
(1.13309 0.621461 -7.19116e-20)
(1.16802 0.612733 7.57636e-20)
(1.18621 0.592565 1.59613e-20)
(1.19426 0.567359 -2.91776e-20)
(1.19777 0.540024 4.72661e-20)
(0.241733 0.164789 -1.03202e-19)
(0.566173 0.387256 1.80921e-19)
(0.785922 0.528779 -7.59187e-21)
(0.931565 0.607189 -3.69488e-20)
(1.02476 0.640223 -9.59946e-20)
(1.08203 0.643019 1.20382e-20)
(1.11558 0.627274 2.37932e-20)
(1.1341 0.601483 -6.36699e-20)
(1.1437 0.571883 7.26814e-20)
(1.14982 0.541871 5.19462e-20)
(0.231059 0.182458 2.56506e-20)
(0.536627 0.418836 -4.34023e-20)
(0.742955 0.559927 1.0397e-20)
(0.879729 0.631834 1.09881e-20)
(0.968076 0.656709 3.21096e-20)
(1.02388 0.651879 -6.37547e-20)
(1.05842 0.630006 -1.32917e-19)
(1.07948 0.599626 -5.34618e-20)
(1.09275 0.566476 -6.74505e-20)
(1.10306 0.534623 4.58425e-20)
(0.215337 0.195789 6.18724e-20)
(0.497688 0.440387 -8.72138e-20)
(0.689834 0.578042 8.11398e-20)
(0.818696 0.642291 -1.50447e-19)
(0.903889 0.658934 3.52623e-20)
(0.960182 0.646881 2.34885e-19)
(0.997779 0.619344 -7.04865e-20)
(1.02367 0.584615 8.15521e-20)
(1.04319 0.547782 1.17828e-19)
(1.05941 0.514678 3.45456e-19)
(0.195337 0.203844 3.94934e-19)
(0.451181 0.450526 -2.39801e-19)
(0.628819 0.582074 5.627e-19)
(0.750638 0.638053 -9.30973e-20)
(0.833794 0.646837 4.53847e-19)
(0.891485 0.628056 2.774e-19)
(0.932753 0.59467 -6.36769e-19)
(0.963971 0.553778 9.48176e-19)
(0.989769 0.507733 -1.97326e-19)
(1.00696 0.460349 3.48293e-19)
(0.172122 0.205972 -2.1806e-19)
(0.399375 0.448453 -1.39471e-19)
(0.562635 0.571711 1.3033e-19)
(0.678233 0.6196 -3.10487e-19)
(0.759997 0.622059 -9.4166e-19)
(0.819053 0.59897 -3.69243e-19)
(0.86305 0.563099 -3.24929e-19)
(0.897421 0.521617 1.5444e-19)
(0.925398 0.477992 1.2616e-18)
(0.943276 0.43688 -2.35989e-19)
(0.146954 0.201797 1.15205e-19)
(0.34486 0.433815 -4.17482e-19)
(0.494427 0.546928 8.82656e-20)
(0.604908 0.587228 -6.21472e-19)
(0.686325 0.58505 1.32044e-18)
(0.747569 0.559901 -1.49289e-19)
(0.794852 0.523994 6.85431e-19)
(0.832637 0.484141 -9.61945e-19)
(0.863539 0.443808 2.96581e-19)
(0.885168 0.407066 4.14498e-20)
(0.12117 0.191212 8.49646e-20)
(0.290264 0.406684 4.60269e-19)
(0.427254 0.508022 -1.30144e-18)
(0.533774 0.541305 6.12029e-19)
(0.61584 0.536008 -1.80471e-21)
(0.680099 0.510591 -1.95354e-19)
(0.731402 0.47636 2.40522e-19)
(0.773384 0.439532 -2.34021e-19)
(0.8083 0.403234 -7.8934e-19)
(0.83464 0.370565 -1.94825e-19)
(0.0960975 0.174372 2.78365e-19)
(0.238111 0.367579 2.79382e-19)
(0.363946 0.45572 1.1099e-18)
(0.46756 0.482575 -5.96994e-19)
(0.55099 0.475521 1.19451e-18)
(0.618725 0.451334 -2.50625e-19)
(0.674359 0.420087 -2.58812e-19)
(0.720803 0.387231 2.99796e-19)
(0.760022 0.355431 1.91777e-19)
(0.791152 0.326921 6.26535e-19)
(0.0729937 0.151694 -2.8269e-19)
(0.190725 0.317456 8.2598e-20)
(0.307047 0.391194 2.15471e-20)
(0.40864 0.4122 6.0882e-19)
(0.493824 0.404607 -1.47515e-18)
(0.56511 0.382943 2.44201e-19)
(0.624972 0.355785 5.2674e-19)
(0.675694 0.327703 -6.23985e-19)
(0.718995 0.300857 2.15766e-19)
(0.754581 0.276774 -9.02975e-19)
(0.0529979 0.12384 6.0257e-20)
(0.150164 0.257683 2.90722e-19)
(0.258755 0.316037 1.0875e-19)
(0.359023 0.33173 1.42539e-19)
(0.446034 0.32465 2.65058e-19)
(0.520596 0.306604 7.68665e-19)
(0.584237 0.284465 -9.19665e-19)
(0.638717 0.261849 -5.075e-19)
(0.685567 0.240409 8.26216e-20)
(0.725008 0.221129 5.85878e-19)
(0.0370858 0.0916977 -3.64408e-19)
(0.118154 0.189991 -3.87473e-20)
(0.220889 0.232204 -3.12412e-19)
(0.320347 0.243049 4.30298e-20)
(0.408983 0.237345 -2.50936e-19)
(0.486256 0.223798 -2.79102e-19)
(0.552957 0.207428 -4.06447e-19)
(0.610439 0.190847 1.0731e-18)
(0.660101 0.175215 1.81791e-19)
(0.702602 0.16112 -2.49937e-19)
(0.0260297 0.0563453 1.96407e-19)
(0.096043 0.116414 2.32207e-19)
(0.194851 0.141953 8.79633e-20)
(0.293859 0.148308 -4.59134e-19)
(0.383702 0.144621 -2.07469e-19)
(0.462904 0.136226 -4.35276e-20)
(0.531751 0.126178 8.30964e-20)
(0.591317 0.116055 6.53855e-20)
(0.642923 0.106543 -4.96475e-19)
(0.687542 0.0979483 2.57036e-19)
(0.0203646 0.019006 -1.02287e-19)
(0.0847526 0.0392127 -1.04093e-19)
(0.18159 0.0477606 7.97999e-20)
(0.280402 0.049853 6.84863e-20)
(0.370886 0.0485793 6.8132e-20)
(0.45109 0.0457361 1.01495e-19)
(0.52104 0.0423486 -5.2227e-21)
(0.581673 0.0389447 -1.27469e-19)
(0.63427 0.0357518 1.18915e-19)
(0.679973 0.032863 -1.6142e-19)
(0.0203646 -0.019006 -1.02961e-19)
(0.0847526 -0.0392128 -9.9196e-20)
(0.18159 -0.0477607 8.7937e-20)
(0.280402 -0.0498531 1.66423e-19)
(0.370886 -0.0485794 1.07629e-19)
(0.45109 -0.0457362 -1.38152e-19)
(0.52104 -0.0423487 -7.3345e-20)
(0.581673 -0.0389448 3.13505e-20)
(0.63427 -0.0357519 6.92108e-20)
(0.679973 -0.0328631 -3.71855e-20)
(0.0260297 -0.0563454 2.457e-19)
(0.096043 -0.116414 -2.79278e-19)
(0.194851 -0.141953 -2.23211e-20)
(0.293859 -0.148308 1.43905e-19)
(0.383702 -0.144621 -6.31482e-19)
(0.462904 -0.136226 2.62842e-19)
(0.531751 -0.126178 2.65114e-19)
(0.591317 -0.116055 -3.06673e-19)
(0.642923 -0.106543 2.8771e-19)
(0.687542 -0.0979484 -1.13947e-19)
(0.0370858 -0.0916978 -4.24765e-20)
(0.118154 -0.189991 -4.83382e-21)
(0.220889 -0.232204 -7.25607e-19)
(0.320347 -0.243049 -2.23089e-19)
(0.408983 -0.237345 -2.27765e-20)
(0.486256 -0.223798 -3.47053e-19)
(0.552957 -0.207429 6.31906e-19)
(0.610439 -0.190848 -2.17834e-20)
(0.660101 -0.175215 3.47255e-19)
(0.702602 -0.16112 -2.75312e-19)
(0.0529979 -0.12384 7.17299e-20)
(0.150164 -0.257683 -2.9694e-19)
(0.258755 -0.316037 8.79205e-19)
(0.359023 -0.33173 1.20295e-19)
(0.446034 -0.32465 5.73872e-19)
(0.520596 -0.306604 -5.46469e-19)
(0.584237 -0.284465 5.60619e-19)
(0.638717 -0.26185 -3.96106e-19)
(0.685567 -0.240409 -1.70914e-19)
(0.725008 -0.221129 1.30787e-19)
(0.0729937 -0.151694 6.40276e-19)
(0.190725 -0.317456 1.48524e-21)
(0.307047 -0.391194 -9.26216e-19)
(0.40864 -0.4122 -2.59744e-19)
(0.493824 -0.404607 8.37321e-19)
(0.56511 -0.382943 -4.77979e-19)
(0.624972 -0.355785 -5.40777e-19)
(0.675694 -0.327703 4.76795e-19)
(0.718995 -0.300857 -3.1879e-19)
(0.754581 -0.276774 -6.18905e-20)
(0.0960976 -0.174372 -9.55935e-20)
(0.238111 -0.367579 -4.01271e-21)
(0.363946 -0.45572 1.00468e-18)
(0.46756 -0.482575 5.56931e-19)
(0.55099 -0.475521 -6.37488e-19)
(0.618725 -0.451334 7.52043e-19)
(0.674359 -0.420087 -7.97318e-19)
(0.720803 -0.387231 7.78286e-20)
(0.760022 -0.355431 2.28785e-19)
(0.791152 -0.326922 4.75902e-19)
(0.12117 -0.191212 1.09377e-19)
(0.290264 -0.406684 1.57454e-19)
(0.427254 -0.508022 1.64639e-19)
(0.533774 -0.541305 -5.12699e-19)
(0.61584 -0.536008 -8.86329e-19)
(0.680099 -0.510591 1.8186e-19)
(0.731402 -0.47636 5.14611e-19)
(0.773384 -0.439532 -1.44312e-19)
(0.8083 -0.403234 8.52439e-19)
(0.83464 -0.370565 -7.48187e-19)
(0.146954 -0.201797 -6.1895e-19)
(0.34486 -0.433815 2.12296e-19)
(0.494427 -0.546928 -5.5247e-19)
(0.604908 -0.587228 8.63362e-19)
(0.686325 -0.58505 4.19143e-19)
(0.747569 -0.559901 5.76549e-19)
(0.794852 -0.523995 -1.3022e-19)
(0.832637 -0.484141 5.03624e-19)
(0.86354 -0.443809 -1.04712e-18)
(0.885168 -0.407066 -2.45423e-19)
(0.172122 -0.205972 3.67589e-20)
(0.399375 -0.448453 -3.71382e-19)
(0.562635 -0.571711 -5.71026e-19)
(0.678233 -0.6196 -2.344e-19)
(0.759997 -0.622059 -6.42796e-19)
(0.819053 -0.59897 -6.38875e-20)
(0.86305 -0.563099 5.36028e-20)
(0.897421 -0.521617 -2.34273e-19)
(0.925398 -0.477992 -2.5652e-19)
(0.943276 -0.43688 6.09194e-19)
(0.195337 -0.203844 1.94958e-19)
(0.451181 -0.450526 2.42904e-19)
(0.628819 -0.582074 4.19378e-19)
(0.750639 -0.638053 1.82085e-20)
(0.833794 -0.646837 2.63143e-19)
(0.891485 -0.628056 -3.50558e-19)
(0.932753 -0.59467 1.04684e-18)
(0.963971 -0.553778 -4.52786e-19)
(0.989769 -0.507733 -2.18282e-19)
(1.00696 -0.460349 -5.91661e-19)
(0.215337 -0.195789 -7.65603e-20)
(0.497688 -0.440387 1.19315e-19)
(0.689834 -0.578042 -1.1795e-19)
(0.818696 -0.642291 6.18375e-20)
(0.903889 -0.658934 -7.10354e-20)
(0.960182 -0.646881 -1.77768e-19)
(0.997779 -0.619344 2.28458e-19)
(1.02367 -0.584615 -7.38911e-20)
(1.04319 -0.547782 1.11462e-19)
(1.05941 -0.514678 -1.96256e-19)
(0.231059 -0.182458 -3.17038e-21)
(0.536627 -0.418836 -5.86312e-20)
(0.742955 -0.559928 1.44878e-20)
(0.879729 -0.631834 6.81822e-20)
(0.968076 -0.656709 -3.18267e-20)
(1.02388 -0.651879 8.59928e-21)
(1.05842 -0.630006 -7.55065e-21)
(1.07948 -0.599626 -1.65754e-19)
(1.09275 -0.566476 -7.61676e-20)
(1.10306 -0.534623 -1.93719e-19)
(0.241733 -0.164789 -5.73765e-20)
(0.566173 -0.387256 1.81479e-19)
(0.785922 -0.528779 -1.09364e-19)
(0.931565 -0.607189 -4.06278e-20)
(1.02476 -0.640223 2.09223e-20)
(1.08203 -0.643019 2.92232e-20)
(1.11558 -0.627274 -2.19198e-21)
(1.1341 -0.601483 1.23015e-19)
(1.1437 -0.571883 -1.05095e-19)
(1.14982 -0.541871 -1.05696e-21)
(0.246911 -0.143938 -1.40071e-19)
(0.584989 -0.347556 -7.9041e-20)
(0.816855 -0.48637 -1.88513e-19)
(0.972165 -0.569749 2.07527e-19)
(1.07206 -0.610602 -1.47339e-20)
(1.13309 -0.621461 6.4965e-20)
(1.16802 -0.612733 7.33166e-20)
(1.18621 -0.592565 -2.5914e-20)
(1.19426 -0.567359 1.76669e-20)
(1.19777 -0.540024 -4.96344e-20)
(0.246472 -0.121159 -9.50469e-20)
(0.592266 -0.301988 -1.09264e-19)
(0.834301 -0.43497 1.58743e-19)
(0.999649 -0.521421 -2.31201e-19)
(1.1079 -0.569332 3.93848e-20)
(1.17493 -0.588353 1.9595e-20)
(1.21351 -0.587283 4.17402e-20)
(1.23338 -0.573592 -2.66384e-20)
(1.24149 -0.553556 -3.2028e-20)
(1.24359 -0.529724 -9.16289e-20)
(0.240599 -0.0977045 3.96285e-19)
(0.58776 -0.252971 -2.77344e-19)
(0.837338 -0.377173 1.2426e-20)
(1.01249 -0.464492 -3.31386e-19)
(1.13035 -0.518235 -9.3693e-20)
(1.20538 -0.54506 7.31166e-20)
(1.24982 -0.551917 5.25362e-20)
(1.27339 -0.545315 -1.71863e-19)
(1.28324 -0.531175 7.52828e-20)
(1.28522 -0.51176 -1.12917e-19)
(0.229747 -0.0747345 1.96451e-19)
(0.571796 -0.202928 -1.73956e-19)
(0.825662 -0.315755 6.01444e-19)
(1.00968 -0.401553 4.65171e-20)
(1.13779 -0.45947 1.28144e-19)
(1.22244 -0.493257 4.4662e-19)
(1.2748 -0.507885 -9.04143e-20)
(1.30415 -0.508674 2.22273e-20)
(1.3176 -0.500983 -1.20433e-20)
(1.32096 -0.486808 -1.85251e-20)
(0.214597 -0.0532577 1.51333e-19)
(0.54524 -0.154146 3.07992e-19)
(0.799622 -0.253516 -3.02303e-19)
(0.990792 -0.335373 -8.89414e-20)
(1.12908 -0.395458 -9.15818e-20)
(1.22445 -0.434888 1.75294e-19)
(1.28648 -0.456654 -8.10092e-20)
(1.32361 -0.464742 1.8751e-19)
(1.34263 -0.463767 4.46747e-20)
(1.34909 -0.45544 -6.65418e-20)
(0.195997 -0.0340839 -1.63498e-19)
(0.509433 -0.108653 1.35777e-19)
(0.760222 -0.193131 -2.68392e-19)
(0.95611 -0.268774 1.0871e-19)
(1.1037 -0.328806 -1.05842e-19)
(1.21017 -0.372141 -1.22751e-19)
(1.28314 -0.399931 -9.32216e-20)
(1.32983 -0.414781 1.00873e-19)
(1.35638 -0.42043 -1.72652e-19)
(1.36781 -0.418268 9.34666e-20)
(0.174899 -0.0177975 -6.12293e-20)
(0.466101 -0.0681129 -1.07574e-19)
(0.70907 -0.137009 4.87028e-20)
(0.906617 -0.204495 3.46359e-21)
(1.06179 -0.262214 3.64236e-20)
(1.17894 -0.307417 5.08928e-20)
(1.26348 -0.33969 4.24354e-20)
(1.3211 -0.360315 -5.62521e-20)
(1.35697 -0.372086 4.51638e-20)
(1.37531 -0.376046 -6.14304e-20)
(0.152298 -0.0047489 -3.85814e-20)
(0.417231 -0.0337667 -1.39218e-20)
(0.648293 -0.0871783 4.99337e-20)
(0.843995 -0.145063 -2.17749e-20)
(1.00425 -0.198369 5.92423e-20)
(1.13078 -0.243278 -7.2994e-20)
(1.22674 -0.278171 1.8306e-20)
(1.29608 -0.303177 1.54216e-20)
(1.34271 -0.320142 -5.44797e-21)
(1.36977 -0.329763 2.1581e-20)
(0.129158 0.00493667 -4.6264e-20)
(0.364939 -0.00639186 -1.75637e-19)
(0.580393 -0.0451868 -1.36171e-20)
(0.770542 -0.0926529 5.25906e-21)
(0.93276 -0.139814 -2.20371e-19)
(1.0665 -0.182349 2.26778e-20)
(1.17284 -0.217849 -2.34796e-20)
(1.2539 -0.24554 -6.2689e-20)
(1.31219 -0.266387 1.36445e-19)
(1.34952 -0.280755 -2.16157e-19)
(0.106362 0.0113344 -2.62323e-20)
(0.311329 0.0136935 3.76776e-19)
(0.508091 -0.0120425 4.83965e-20)
(0.689042 -0.0489759 -3.16791e-19)
(0.849695 -0.0888009 -3.67872e-20)
(0.987758 -0.12719 -3.38314e-19)
(1.10252 -0.161352 2.57234e-19)
(1.19444 -0.189903 -1.02446e-19)
(1.26453 -0.213043 1.90728e-19)
(1.31317 -0.230817 -1.47236e-19)
(0.0846616 0.0146846 -1.48417e-19)
(0.258368 0.026601 1.54715e-19)
(0.434141 0.0118156 -1.04042e-19)
(0.602582 -0.0151708 6.95322e-19)
(0.758011 -0.0471353 3.57544e-19)
(0.896959 -0.0801227 -9.12823e-20)
(1.01739 -0.111318 3.46968e-19)
(1.11837 -0.139012 -2.22481e-19)
(1.19955 -0.162771 -7.04681e-20)
(1.25988 -0.182282 4.4572e-19)
(0.0646532 0.0153512 -2.7445e-19)
(0.207777 0.0328217 3.66693e-19)
(0.361156 0.0265193 -6.69452e-19)
(0.514332 0.00827675 1.12074e-19)
(0.661033 -0.0160109 2.71491e-19)
(0.79717 -0.0430156 -3.32409e-19)
(0.919906 -0.070167 -5.75831e-19)
(1.02734 -0.0956717 3.02581e-19)
(1.11799 -0.118558 -3.86848e-19)
(1.18955 -0.138018 5.44164e-19)
(0.0467663 0.0137852 -6.78309e-20)
(0.160965 0.0331707 -3.69172e-19)
(0.29145 0.0327563 1.75357e-19)
(0.427316 0.021603 4.24433e-19)
(0.562178 0.00416192 -2.2135e-19)
(0.691823 -0.0170139 -2.12969e-19)
(0.813126 -0.0397769 -3.53136e-19)
(0.923735 -0.0624207 -1.58675e-19)
(1.02146 -0.0834581 -3.75015e-20)
(1.10297 -0.101264 5.444e-19)
(0.0312798 0.0104984 1.1396e-19)
(0.118996 0.0287396 -5.01608e-19)
(0.226923 0.0317491 8.25853e-19)
(0.344192 0.0258236 -4.44657e-19)
(0.464655 0.0139378 2.79911e-19)
(0.58435 -0.00220924 -3.39422e-19)
(0.700337 -0.0210155 3.69574e-19)
(0.810376 -0.0409835 3.1644e-19)
(0.912123 -0.0600562 6.79312e-19)
(1.00161 -0.0752069 -9.88158e-19)
(0.0183525 0.00605348 -3.54065e-19)
(0.0826037 0.0208552 6.36432e-19)
(0.169013 0.025215 8.21464e-21)
(0.267117 0.022755 -2.13318e-19)
(0.371213 0.0149953 -1.09943e-19)
(0.477808 0.00273146 8.57652e-20)
(0.584502 -0.0131035 -5.95114e-19)
(0.68974 -0.0313984 4.50686e-19)
(0.791784 -0.0495284 -5.70646e-19)
(0.886694 -0.0621416 -2.28938e-19)
(0.00805414 0.00105914 6.09455e-19)
(0.0522306 0.0110221 -1.70137e-19)
(0.118725 0.0152695 -3.07279e-19)
(0.197754 0.0149378 8.07009e-19)
(0.284096 0.0101758 -7.69869e-19)
(0.374698 0.00084482 4.19267e-19)
(0.467748 -0.0129631 4.36629e-19)
(0.56268 -0.0309329 1.17126e-19)
(0.659193 -0.0504211 1.19605e-19)
(0.755052 -0.0627809 -1.48927e-19)
(0.000378795 -0.00385597 -5.83004e-19)
(0.0280759 0.000800121 4.95917e-19)
(0.076752 0.00420807 -4.22428e-19)
(0.137523 0.00538483 5.12605e-19)
(0.205536 0.00335529 -1.48691e-19)
(0.277826 -0.002804 -5.03469e-19)
(0.352557 -0.0138245 1.41103e-19)
(0.429318 -0.0306242 -2.28205e-19)
(0.509121 -0.0525058 -2.65344e-19)
(0.594456 -0.0697112 -7.21868e-19)
(-0.00478134 -0.00812953 -7.28569e-19)
(0.0101005 -0.00845648 5.18285e-19)
(0.0435731 -0.00599953 -9.77484e-19)
(0.0879291 -0.00327116 1.6904e-19)
(0.138689 -0.00181338 -6.35987e-19)
(0.192753 -0.00258758 -3.71785e-19)
(0.247548 -0.00591545 8.69831e-19)
(0.301125 -0.0119848 -1.16576e-18)
(0.352799 -0.0213422 2.20636e-19)
(0.400003 -0.0300751 -3.04647e-19)
(-0.00769184 -0.0113853 3.58936e-19)
(-0.00208846 -0.0159035 1.35997e-19)
(0.0191841 -0.0143752 -3.89952e-20)
(0.0499887 -0.010343 3.59237e-19)
(0.0866253 -0.00568309 1.02448e-18)
(0.12652 -0.0013549 3.44633e-19)
(0.167671 0.00244849 3.48145e-19)
(0.208861 0.00579544 -1.17936e-19)
(0.250113 0.00808467 -1.08184e-18)
(0.289036 0.00959737 2.28265e-19)
(-0.0087909 -0.0134546 -1.01404e-19)
(-0.00936468 -0.0211397 2.88716e-19)
(0.00258286 -0.0205433 -7.28057e-20)
(0.0226638 -0.015842 4.97027e-19)
(0.0480985 -0.00920392 -1.11577e-18)
(0.076942 -0.00178836 9.23392e-20)
(0.10777 0.00587415 -5.05919e-19)
(0.139792 0.0133826 7.29921e-19)
(0.172792 0.0198043 -2.09491e-19)
(0.204229 0.0243911 -2.47321e-20)
(-0.00859236 -0.0143266 -6.90067e-20)
(-0.0128593 -0.0240472 -3.47229e-19)
(-0.0077639 -0.0243379 8.40596e-19)
(0.00401935 -0.0196369 -4.28503e-19)
(0.0205968 -0.0123091 2.92071e-20)
(0.040559 -0.00373152 1.30107e-19)
(0.0628687 0.00522429 -1.16321e-19)
(0.0868965 0.0137665 1.48088e-19)
(0.112204 0.0208086 5.04271e-19)
(0.136665 0.0255223 1.08252e-19)
(-0.00758615 -0.0140897 -1.54864e-19)
(-0.0137143 -0.0246947 -1.54121e-19)
(-0.0134656 -0.0257193 -6.58318e-19)
(-0.00796573 -0.0215114 3.38971e-19)
(0.00168907 -0.0144666 -6.78863e-19)
(0.0145377 -0.00605942 1.50257e-19)
(0.0298221 0.00267749 1.65155e-19)
(0.0469957 0.0108327 -1.71159e-19)
(0.0655263 0.0174022 -1.0879e-19)
(0.0838222 0.0216473 -3.99203e-19)
(-0.00618805 -0.0128842 1.21038e-19)
(-0.0129508 -0.023277 -2.54734e-20)
(-0.0160056 -0.0247769 4.79985e-22)
(-0.0151645 -0.0213368 -3.05987e-19)
(-0.0108447 -0.0151981 7.52016e-19)
(-0.00363906 -0.00778421 -1.14295e-19)
(0.00590817 -0.00012127 -2.78836e-19)
(0.0173185 0.00693447 3.34481e-19)
(0.0300495 0.0125672 -1.15476e-19)
(0.0429734 0.0161736 5.1923e-19)
(-0.00472437 -0.010873 -2.27232e-20)
(-0.0114084 -0.0200721 -1.19166e-19)
(-0.0166302 -0.0217238 -4.52645e-20)
(-0.0191536 -0.019141 -5.59115e-20)
(-0.0188478 -0.0142432 -1.16694e-19)
(-0.0160117 -0.00826968 -3.57107e-19)
(-0.0110186 -0.0021175 4.36622e-19)
(-0.00427804 0.00350157 2.50005e-19)
(0.00369737 0.00797727 -4.39853e-20)
(0.0121334 0.0108506 -3.17423e-19)
(-0.00343596 -0.00822714 1.29052e-19)
(-0.00972921 -0.015416 2.01634e-20)
(-0.0163059 -0.0168877 1.3138e-19)
(-0.0211513 -0.0151326 -1.45524e-20)
(-0.0237225 -0.0116145 1.12296e-19)
(-0.0240951 -0.0072863 1.23461e-19)
(-0.0225093 -0.00283545 1.80943e-19)
(-0.0193106 0.00121316 -5.02348e-19)
(-0.0149717 0.00444154 -9.10882e-20)
(-0.0100193 0.00652852 1.32e-19)
(-0.00249003 -0.00512211 -6.51728e-20)
(-0.00836945 -0.0096885 -8.28525e-20)
(-0.0157243 -0.0106977 -3.83509e-20)
(-0.0220263 -0.00969208 1.8137e-19)
(-0.0264571 -0.00758643 8.54715e-20)
(-0.0289414 -0.00497824 1.70802e-20)
(-0.0296267 -0.0022968 -3.61926e-20)
(-0.0288089 0.000138279 -2.75188e-20)
(-0.0269278 0.00208422 2.32044e-19)
(-0.0243551 0.00335089 -1.27567e-19)
(-0.00199169 -0.00173856 3.32264e-20)
(-0.00761927 -0.0033035 3.69756e-20)
(-0.0153267 -0.00366188 -3.03401e-20)
(-0.0223305 -0.00333577 -2.68305e-20)
(-0.0276747 -0.00263603 -2.70086e-20)
(-0.0312075 -0.00176602 -4.19956e-20)
(-0.0330288 -0.000871436 1.31569e-21)
(-0.0334075 -5.94374e-05 5.58173e-20)
(-0.0327655 0.000590448 -5.50562e-20)
(-0.0314 0.00101525 8.0792e-20)
(-0.0078378 -0.00258342 3.81282e-21)
(0.0619505 -0.00665087 2.32796e-21)
(0.278856 -0.00677018 3.25276e-22)
(0.379584 -0.00441552 -2.20187e-22)
(0.48211 -0.00378971 -1.54259e-23)
(0.561314 -0.00268734 3.93841e-23)
(0.610771 -0.00231663 5.44441e-23)
(0.674826 -0.00167639 -1.32639e-23)
(0.693023 -0.00165706 -8.97417e-26)
(0.758345 -0.0013086 7.02195e-23)
(0.00897942 -0.00805601 6.04184e-21)
(0.077241 -0.0197917 2.64197e-22)
(0.29039 -0.0201543 -4.20895e-21)
(0.388351 -0.013141 3.49092e-21)
(0.488868 -0.0112875 2.30649e-22)
(0.566532 -0.00801069 -1.72577e-22)
(0.615091 -0.00691323 2.23765e-22)
(0.678161 -0.00500711 2.99367e-23)
(0.695983 -0.00495151 1.11356e-22)
(0.760524 -0.00390967 -6.48212e-23)
(0.0423175 -0.0144121 6.26906e-21)
(0.107344 -0.0324515 -8.51303e-21)
(0.313026 -0.0330768 4.31267e-21)
(0.405569 -0.0215651 -2.92472e-21)
(0.502146 -0.0185547 2.18836e-22)
(0.5768 -0.0131816 -1.76113e-22)
(0.623602 -0.011393 -8.81423e-23)
(0.684742 -0.00825562 3.08521e-24)
(0.70183 -0.0081777 -8.87927e-23)
(0.764836 -0.00646549 -9.49712e-23)
(0.091571 -0.0221307 -9.75291e-21)
(0.15133 -0.0443305 -1.18738e-20)
(0.345923 -0.0452506 -5.60189e-21)
(0.430628 -0.029504 3.03724e-21)
(0.521481 -0.0254495 -3.8487e-21)
(0.591789 -0.0181063 1.07813e-21)
(0.636051 -0.015683 -7.16347e-23)
(0.694395 -0.0113706 5.80347e-23)
(0.710426 -0.0112924 -9.43372e-23)
(0.771196 -0.0089471 3.49867e-23)
(0.155804 -0.0314861 2.74044e-20)
(0.207862 -0.0551412 1.74825e-20)
(0.387881 -0.056411 6.38397e-21)
(0.462653 -0.0367951 -6.0021e-21)
(0.546213 -0.031846 3.19775e-21)
(0.611031 -0.0227013 8.89893e-22)
(0.652073 -0.0197178 7.31448e-22)
(0.706867 -0.0143055 1.07093e-22)
(0.721567 -0.0142556 2.40992e-22)
(0.779477 -0.0113273 -1.86239e-22)
(0.233727 -0.042418 -1.2327e-20)
(0.275255 -0.0645739 9.43026e-21)
(0.437408 -0.0663061 1.18091e-21)
(0.500557 -0.0432956 6.84285e-21)
(0.575524 -0.0376359 -1.58692e-21)
(0.633941 -0.0268962 -1.0693e-21)
(0.671216 -0.0234408 -7.58283e-22)
(0.721842 -0.0170206 -8.72669e-23)
(0.734997 -0.0170316 -1.1135e-22)
(0.789516 -0.0135813 1.93496e-22)
(0.323704 -0.0546582 -9.57176e-21)
(0.351526 -0.0723667 -2.51688e-20)
(0.492791 -0.0747335 -4.34723e-21)
(0.543096 -0.0488902 -3.82841e-21)
(0.608482 -0.042735 1.92046e-21)
(0.659846 -0.0306349 -5.63545e-22)
(0.692956 -0.0268064 7.73443e-22)
(0.738951 -0.0194829 1.80204e-22)
(0.750418 -0.0195903 -3.13742e-23)
(0.80112 -0.0156864 7.48592e-23)
(0.423792 -0.0683832 2.85463e-20)