1.275 	2.15223e-18 	-2.76991e-20 	-0.0328626 	-0.000511935 	-2.0636e-22
1.825 	2.15223e-18 	-1.39322e-20 	-0.00385858 	-0.00344016 	1.76885e-21
2.375 	2.15223e-18 	-2.66896e-23 	0.157991 	-0.0047164 	-7.1182e-22
