/*--------------------------------*- C++ -*----------------------------------*\
  =========                 |
  \\      /  F ield         | OpenFOAM: The Open Source CFD Toolbox
   \\    /   O peration     | Website:  https://openfoam.org
    \\  /    A nd           | Version:  6.0
     \\/     M anipulation  |
\*---------------------------------------------------------------------------*/
FoamFile
{
    version     2.0;
    format      ascii;
    class       surfaceScalarField;
    location    "0.1";
    object      phi;
}
// * * * * * * * * * * * * * * * * * * * * * * * * * * * * * * * * * * * * * //

dimensions      [0 3 -1 0 0 0 0];

internalField   nonuniform List<scalar> 
370
(
-1.39755e-07
1.39755e-07
-4.26841e-07
2.87086e-07
-7.34472e-07
3.07632e-07
-1.02435e-06
2.89881e-07
-1.28921e-06
2.64857e-07
-1.5271e-06
2.37893e-07
-1.73732e-06
2.10212e-07
-1.91978e-06
1.82469e-07
-2.07464e-06
1.54855e-07
-2.20149e-06
1.26848e-07
-2.29835e-06
9.6863e-08
-2.36021e-06
6.18548e-08
-2.37707e-06
1.68591e-08
-2.33175e-06
-4.53173e-08
-2.19817e-06
-1.33575e-07
-1.94262e-06
-2.55555e-07
-1.53358e-06
-4.09034e-07
-9.71602e-07
-5.61981e-07
-3.57821e-07
-6.13781e-07
-3.57821e-07
-3.26992e-07
4.66747e-07
-8.56452e-07
8.16546e-07
-1.40183e-06
8.53006e-07
-1.9062e-06
7.94253e-07
-2.35483e-06
7.13491e-07
-2.74473e-06
6.27794e-07
-3.07677e-06
5.42247e-07
-3.35332e-06
4.59022e-07
-3.57687e-06
3.7841e-07
-3.74867e-06
2.98644e-07
-3.86721e-06
2.15407e-07
-3.92644e-06
1.21085e-07
-3.91339e-06
3.80691e-09
-3.80534e-06
-1.53364e-07
-3.56717e-06
-3.71748e-07
-3.1516e-06
-6.71124e-07
-2.5107e-06
-1.04994e-06
-1.63602e-06
-1.43666e-06
-6.53347e-07
-1.59645e-06
-1.01117e-06
-4.03582e-07
8.70329e-07
-1.03515e-06
1.44811e-06
-1.66846e-06
1.48632e-06
-2.24116e-06
1.36696e-06
-2.74039e-06
1.21271e-06
-3.16591e-06
1.05332e-06
-3.52162e-06
8.97956e-07
-3.81295e-06
7.50354e-07
-4.04536e-06
6.10818e-07
-4.22303e-06
4.76313e-07
-4.34756e-06
3.39936e-07
-4.4163e-06
1.89824e-07
-4.41986e-06
7.36759e-09
-4.3381e-06
-2.35127e-07
-4.13387e-06
-5.75975e-07
-3.74582e-06
-1.05917e-06
-3.09057e-06
-1.70519e-06
-2.10495e-06
-2.42228e-06
-8.84345e-07
-2.81706e-06
-1.89551e-06
-4.60202e-07
1.33053e-06
-1.16644e-06
2.15435e-06
-1.85381e-06
2.17368e-06
-2.45753e-06
1.97068e-06
-2.9711e-06
1.72629e-06
-3.39995e-06
1.48216e-06
-3.75249e-06
1.2505e-06
-4.03816e-06
1.03602e-06
-4.26624e-06
8.38906e-07
-4.4451e-06
6.55169e-07
-4.58135e-06
4.76183e-07
-4.67883e-06
2.87304e-07
-4.7364e-06
6.494e-08
-4.74283e-06
-2.287e-07
-4.66533e-06
-6.53467e-07
-4.42786e-06
-1.29665e-06
-3.88756e-06
-2.24549e-06
-2.86036e-06
-3.44948e-06
-1.31897e-06
-4.35845e-06
-3.21448e-06
-5.41518e-07
1.87205e-06
-1.34226e-06
2.9551e-06
-2.08642e-06
2.91783e-06
-2.71257e-06
2.59683e-06
-3.22747e-06
2.24118e-06
-3.64553e-06
1.90023e-06
-3.98142e-06
1.58638e-06
-4.24954e-06
1.30414e-06
-4.46385e-06
1.05322e-06
-4.63768e-06
8.29006e-07
-4.78398e-06
6.22477e-07
-4.91558e-06
4.18905e-07
-5.04477e-06
1.94131e-07
-5.179e-06
-9.44663e-08
-5.30536e-06
-5.27112e-07
-5.34764e-06
-1.25437e-06
-5.08936e-06
-2.50377e-06
-4.13142e-06
-4.40742e-06
-2.14516e-06
-6.34471e-06
-5.35964e-06
-6.76944e-07
2.54899e-06
-1.61776e-06
3.89591e-06
-2.42472e-06
3.7248e-06
-3.05886e-06
3.23098e-06
-3.55442e-06
2.73674e-06
-3.93949e-06
2.2853e-06
-4.23653e-06
1.88343e-06
-4.46581e-06
1.53341e-06
-4.64625e-06
1.23366e-06
-4.796e-06
9.78757e-07
-4.93381e-06
7.60289e-07
-5.08157e-06
5.66664e-07
-5.26743e-06
3.79989e-07
-5.52542e-06
1.63523e-07
-5.87973e-06
-1.72797e-07
-6.27896e-06
-8.55145e-07
-6.44417e-06
-2.33855e-06
-5.70681e-06
-5.14478e-06
-3.30801e-06
-8.74351e-06
-8.66765e-06
-9.10143e-07
3.45914e-06
-2.06283e-06
5.0486e-06
-2.90071e-06
4.56267e-06
-3.47847e-06
3.80874e-06
-3.88459e-06
3.14286e-06
-4.16869e-06
2.5694e-06
-4.36374e-06
2.07847e-06
-4.49694e-06
1.66662e-06
-4.59183e-06
1.32855e-06
-4.6688e-06
1.05573e-06
-4.74777e-06
8.39256e-07
-4.85247e-06
6.7137e-07
-5.01775e-06
5.45268e-07
-5.29378e-06
4.39555e-07
-5.73832e-06
2.71742e-07
-6.34268e-06
-2.50784e-07
-6.83986e-06
-1.84138e-06
-6.43582e-06
-5.54882e-06
-4.11664e-06
-1.10627e-05
-1.27843e-05
-1.29383e-06
4.75297e-06
-2.72257e-06
6.47734e-06
-3.37869e-06
5.21879e-06
-3.57669e-06
4.00674e-06
-3.59195e-06
3.15811e-06
-3.52561e-06
2.50306e-06
-3.4167e-06
1.96956e-06
-3.29267e-06
1.54259e-06
-3.17316e-06
1.20903e-06
-3.07006e-06
9.52631e-07
-2.99204e-06
7.61233e-07
-2.94786e-06
6.27186e-07
-2.95648e-06
5.53887e-07
-3.04997e-06
5.33052e-07
-3.29117e-06
5.12936e-07
-3.72156e-06
1.79604e-07
-4.25222e-06
-1.31072e-06
-4.36434e-06
-5.43669e-06
-3.26134e-06
-1.21657e-05
-1.60456e-05
-4.01614e-06
8.76911e-06
-3.27189e-06
5.73309e-06
-1.47228e-06
3.41918e-06
-5.01448e-08
2.58461e-06
1.07445e-06
2.03352e-06
2.00989e-06
1.56762e-06
2.78548e-06
1.19397e-06
3.41743e-06
9.10639e-07
3.92659e-06
6.99876e-07
4.33625e-06
5.42971e-07
4.66653e-06
4.30958e-07
4.938e-06
3.55711e-07
5.16011e-06
3.31783e-07
5.34216e-06
3.50999e-07
5.44385e-06
4.11252e-07
5.38558e-06
2.37872e-07
4.89892e-06
-8.24057e-07
3.59355e-06
-4.13132e-06
1.19876e-06
-9.77091e-06
-1.48469e-05
8.76911e-06
1.45022e-05
1.79214e-05
2.0506e-05
2.25395e-05
2.41071e-05
2.53011e-05
2.62117e-05
2.69116e-05
2.74546e-05
2.78855e-05
2.82412e-05
2.8573e-05
2.8924e-05
2.93353e-05
2.95732e-05
2.87491e-05
2.46178e-05
1.48469e-05
)
;

boundaryField
{
    movingWall
    {
        type            calculated;
        value           uniform 0;
    }
    fixedWalls
    {
        type            calculated;
        value           uniform 0;
    }
    frontAndBack
    {
        type            empty;
        value           nonuniform 0();
    }
}


// ************************************************************************* //
