/*--------------------------------*- C++ -*----------------------------------*\
  =========                 |
  \\      /  F ield         | OpenFOAM: The Open Source CFD Toolbox
   \\    /   O peration     | Website:  https://openfoam.org
    \\  /    A nd           | Version:  6.0
     \\/     M anipulation  |
\*---------------------------------------------------------------------------*/
FoamFile
{
    version     2.0;
    format      ascii;
    class       volVectorField;
    location    "0.2";
    object      U;
}
// * * * * * * * * * * * * * * * * * * * * * * * * * * * * * * * * * * * * * //

dimensions      [0 1 -1 0 0 0 0];

internalField   nonuniform List<vector> 
800
(
(0.000363653 -0.000362653 0)
(0.000376913 3.66482e-05 0)
(-0.00106747 0.000603452 0)
(-0.00383097 0.0010487 0)
(-0.00754596 0.001335 0)
(-0.0118316 0.00148016 0)
(-0.0163596 0.00151477 0)
(-0.0208746 0.00147045 0)
(-0.0251939 0.00137457 0)
(-0.0291982 0.00124884 0)
(-0.0328198 0.00110952 0)
(-0.0360299 0.000968159 0)
(-0.0388276 0.00083237 0)
(-0.0412303 0.000706646 0)
(-0.0432661 0.000593056 0)
(-0.0449672 0.000491832 0)
(-0.0463655 0.000401845 0)
(-0.0474888 0.00032096 0)
(-0.0483579 0.000246304 0)
(-0.0489851 0.000174468 0)
(-0.0493725 0.000101654 0)
(-0.0495111 2.38256e-05 0)
(-0.0493806 -6.31462e-05 0)
(-0.0489494 -0.000163273 0)
(-0.0481759 -0.000280168 0)
(-0.04701 -0.000416651 0)
(-0.0453968 -0.000574219 0)
(-0.0432811 -0.000752375 0)
(-0.0406147 -0.000947823 0)
(-0.0373653 -0.00115359 0)
(-0.0335276 -0.00135812 0)
(-0.0291365 -0.00154456 0)
(-0.0242811 -0.00169028 0)
(-0.0191188 -0.00176694 0)
(-0.0138859 -0.00174128 0)
(-0.00890405 -0.00157775 0)
(-0.00457269 -0.00124497 0)
(-0.00134004 -0.000727953 0)
(0.000371076 -7.28713e-05 0)
(0.000399157 0.000396116 0)
(-1.83392e-05 -0.000395809 0)
(-0.0017158 0.00172654 0)
(-0.00660605 0.00427556 0)
(-0.0142135 0.00635238 0)
(-0.0238238 0.00776373 0)
(-0.0347019 0.00853147 0)
(-0.0461572 0.00875741 0)
(-0.0576139 0.00856927 0)
(-0.0686368 0.0080909 0)
(-0.0789256 0.00742922 0)
(-0.0882963 0.00666991 0)
(-0.0966583 0.00587738 0)
(-0.10399 0.0050967 0)
(-0.110319 0.00435641 0)
(-0.1157 0.00367155 0)
(-0.120203 0.00304649 0)
(-0.123898 0.00247737 0)
(-0.126849 0.00195414 0)
(-0.129101 0.00146216 0)
(-0.130684 0.000983496 0)
(-0.1316 0.000498023 0)
(-0.131827 -1.55876e-05 0)
(-0.131317 -0.000578751 0)
(-0.129995 -0.00121165 0)
(-0.127763 -0.0019315 0)
(-0.124509 -0.00275034 0)
(-0.12011 -0.00367221 0)
(-0.114448 -0.00468973 0)
(-0.107424 -0.00578022 0)
(-0.0989832 -0.00690174 0)
(-0.0891368 -0.00798949 0)
(-0.0779926 -0.00895343 0)
(-0.0657832 -0.00967829 0)
(-0.0528916 -0.0100271 0)
(-0.0398675 -0.0098502 0)
(-0.0274249 -0.00900433 0)
(-0.0163997 -0.00738734 0)
(-0.00766006 -0.00499576 0)
(-0.00202824 -0.00206622 0)
(-4.39768e-05 0.00039131 0)
(-0.000595557 0.001027 0)
(-0.00439258 0.00663842 0)
(-0.0128837 0.012564 0)
(-0.0249802 0.0174 0)
(-0.0396328 0.0207436 0)
(-0.055886 0.0225973 0)
(-0.072833 0.0231552 0)
(-0.089703 0.0226911 0)
(-0.105904 0.0214879 0)
(-0.121023 0.0198017 0)
(-0.134801 0.0178444 0)
(-0.147108 0.0157802 0)
(-0.15791 0.0137265 0)
(-0.167241 0.01176 0)
(-0.175175 0.00992292 0)
(-0.181808 0.00822957 0)
(-0.187236 0.0066727 0)
(-0.191548 0.00522852 0)
(-0.194808 0.00386099 0)
(-0.197056 0.00252539 0)
(-0.198297 0.00117131 0)
(-0.198501 -0.000254432 0)
(-0.1976 -0.00180479 0)
(-0.195492 -0.00352886 0)
(-0.192047 -0.0054674 0)
(-0.187109 -0.00764712 0)
(-0.180513 -0.0100738 0)
(-0.172101 -0.0127237 0)
(-0.161743 -0.0155352 0)
(-0.149369 -0.0183986 0)
(-0.134999 -0.0211496 0)
(-0.118785 -0.0235646 0)
(-0.101043 -0.0253635 0)
(-0.0822907 -0.0262218 0)
(-0.0632628 -0.0257988 0)
(-0.0449046 -0.0237864 0)
(-0.0283091 -0.0199921 0)
(-0.0146038 -0.0144586 0)
(-0.00498955 -0.00768525 0)
(-0.000683219 -0.00125734 0)
(-0.00111203 0.00389561 0)
(-0.00690542 0.0146148 0)
(-0.0188427 0.0248826 0)
(-0.0350734 0.0330744 0)
(-0.0541441 0.0386822 0)
(-0.0748903 0.0417396 0)
(-0.096244 0.0425701 0)
(-0.117311 0.0416289 0)
(-0.137415 0.0393946 0)
(-0.156089 0.0363066 0)
(-0.173048 0.0327342 0)
(-0.188155 0.0289657 0)
(-0.201383 0.0252095 0)
(-0.212785 0.0216029 0)
(-0.222458 0.0182219 0)
(-0.230521 0.0150935 0)
(-0.237096 0.0122057 0)
(-0.24229 0.00951708 0)
(-0.246183 0.00696427 0)
(-0.248826 0.0044684 0)
(-0.250226 0.00194072 0)
(-0.25035 -0.000712235 0)
(-0.249122 -0.00358307 0)
(-0.246425 -0.00675715 0)
(-0.242105 -0.0103046 0)
(-0.235981 -0.0142708 0)
(-0.227859 -0.0186636 0)
(-0.217548 -0.0234401 0)
(-0.204889 -0.0284907 0)
(-0.189786 -0.033624 0)
(-0.172243 -0.0385539 0)
(-0.152411 -0.042894 0)
(-0.13063 -0.0461626 0)
(-0.10747 -0.0478063 0)
(-0.083758 -0.0472485 0)
(-0.0605803 -0.0439736 0)
(-0.0392163 -0.0376557 0)
(-0.0210364 -0.0283309 0)
(-0.00769413 -0.0166539 0)
(-0.00123603 -0.0044835 0)
(-0.00154358 0.00803061 0)
(-0.00912267 0.0253704 0)
(-0.0242109 0.0407944 0)
(-0.0441625 0.0527084 0)
(-0.0670674 0.0606573 0)
(-0.0915314 0.0648079 0)
(-0.116344 0.0656811 0)
(-0.140531 0.063961 0)
(-0.163383 0.0603561 0)
(-0.184433 0.0555142 0)
(-0.203415 0.0499789 0)
(-0.22022 0.0441742 0)
(-0.234857 0.0384065 0)
(-0.247411 0.0328759 0)
(-0.258013 0.027693 0)
(-0.266809 0.0228953 0)
(-0.273945 0.018463 0)
(-0.279548 0.014333 0)
(-0.283714 0.0104101 0)
(-0.286502 0.00657651 0)
(-0.287927 0.00270008 0)
(-0.287957 -0.00135786 0)
(-0.286515 -0.0057346 0)
(-0.283475 -0.0105567 0)
(-0.278674 -0.0159288 0)
(-0.271912 -0.0219192 0)
(-0.262972 -0.0285427 0)
(-0.251633 -0.0357406 0)
(-0.237699 -0.0433577 0)
(-0.221029 -0.0511198 0)
(-0.201581 -0.0586152 0)
(-0.179459 -0.0652837 0)
(-0.154965 -0.0704231 0)
(-0.128655 -0.0732213 0)
(-0.101379 -0.072823 0)
(-0.0743071 -0.0684462 0)
(-0.0488806 -0.0595505 0)
(-0.026735 -0.0460515 0)
(-0.0100341 -0.0285927 0)
(-0.00168576 -0.00905204 0)
(-0.00190924 0.0132542 0)
(-0.0110716 0.0386226 0)
(-0.0289866 0.0599494 0)
(-0.0522186 0.0758417 0)
(-0.0783684 0.0860592 0)
(-0.105793 0.0910324 0)
(-0.133149 0.0915767 0)
(-0.159417 0.0886716 0)
(-0.183902 0.0832981 0)
(-0.206184 0.0763369 0)
(-0.22606 0.0685178 0)
(-0.243487 0.0604034 0)
(-0.258535 0.0523956 0)
(-0.27134 0.044753 0)
(-0.282075 0.0376141 0)
(-0.290922 0.0310208 0)
(-0.298051 0.02494 0)
(-0.303609 0.0192818 0)
(-0.307706 0.0139148 0)
(-0.310414 0.00867858 0)
(-0.311756 0.00339444 0)
(-0.311705 -0.00212479 0)
(-0.310189 -0.00806457 0)
(-0.307082 -0.0145969 0)
(-0.302216 -0.0218661 0)
(-0.295383 -0.0299705 0)
(-0.286345 -0.0389405 0)
(-0.274849 -0.0487115 0)
(-0.260654 -0.0590943 0)
(-0.243556 -0.0697433 0)
(-0.223432 -0.0801288 0)
(-0.200296 -0.0895183 0)
(-0.174356 -0.0969787 0)
(-0.146087 -0.10141 0)
(-0.116302 -0.101625 0)
(-0.0862081 -0.0964913 0)
(-0.0573925 -0.0851377 0)
(-0.0317781 -0.0672103 0)
(-0.0120792 -0.0431708 0)
(-0.00206346 -0.0147563 0)
(-0.00223631 0.019433 0)
(-0.0128324 0.0541077 0)
(-0.0332855 0.0819774 0)
(-0.0593611 0.101971 0)
(-0.0881455 0.114226 0)
(-0.117738 0.119591 0)
(-0.146685 0.119297 0)
(-0.173962 0.114703 0)
(-0.198939 0.107112 0)
(-0.221295 0.0976602 0)
(-0.240934 0.08727 0)
(-0.257913 0.076637 0)
(-0.272388 0.0662474 0)
(-0.284562 0.0564052 0)
(-0.294661 0.0472649 0)
(-0.302902 0.0388623 0)
(-0.309483 0.0311423 0)
(-0.314568 0.0239824 0)
(-0.318283 0.0172107 0)
(-0.320709 0.0106218 0)
(-0.321879 0.00398856 0)
(-0.321776 -0.00292615 0)
(-0.320335 -0.010358 0)
(-0.31744 -0.0185278 0)
(-0.312925 -0.027625 0)
(-0.306579 -0.0377868 0)
(-0.298148 -0.0490713 0)
(-0.287352 -0.0614249 0)
(-0.273893 -0.0746442 0)
(-0.257492 -0.0883343 0)
(-0.237918 -0.101868 0)
(-0.215051 -0.114355 0)
(-0.188947 -0.12463 0)
(-0.159938 -0.131278 0)
(-0.12873 -0.132718 0)
(-0.0965092 -0.127363 0)
(-0.0649795 -0.113862 0)
(-0.0363593 -0.0914121 0)
(-0.0139507 -0.0601146 0)
(-0.00240734 -0.0214596 0)
(-0.00255551 0.0264915 0)
(-0.0145118 0.0716287 0)
(-0.037284 0.106534 0)
(-0.0657834 0.130567 0)
(-0.0965508 0.144432 0)
(-0.127439 0.149577 0)
(-0.156927 0.147793 0)
(-0.184047 0.140915 0)
(-0.208299 0.130621 0)
(-0.229518 0.118322 0)
(-0.247762 0.105126 0)
(-0.263219 0.0918478 0)
(-0.276151 0.0790353 0)
(-0.286841 0.0670175 0)
(-0.295569 0.0559461 0)
(-0.302588 0.0458363 0)
(-0.30812 0.0366009 0)
(-0.312343 0.0280779 0)
(-0.315393 0.0200518 0)
(-0.317358 0.0122705 0)
(-0.318281 0.00445888 0)
(-0.318159 -0.00366969 0)
(-0.316938 -0.0124011 0)
(-0.314516 -0.0220069 0)
(-0.310739 -0.0327268 0)
(-0.305402 -0.0447459 0)
(-0.298246 -0.0581649 0)
(-0.288966 -0.0729626 0)
(-0.277214 -0.0889493 0)
(-0.262623 -0.105714 0)
(-0.244836 -0.122566 0)
(-0.223563 -0.138486 0)
(-0.198656 -0.15209 0)
(-0.170227 -0.161631 0)
(-0.138792 -0.165074 0)
(-0.105433 -0.160254 0)
(-0.0719073 -0.145158 0)
(-0.0407143 -0.118313 0)
(-0.0157881 -0.0792498 0)
(-0.00275687 -0.0291054 0)
(-0.0029028 0.034422 0)
(-0.0162399 0.0910836 0)
(-0.0411982 0.133326 0)
(-0.0717081 0.161085 0)
(-0.103726 0.175873 0)
(-0.134898 0.179968 0)
(-0.163717 0.175892 0)
(-0.189366 0.166059 0)
(-0.211559 0.152568 0)
(-0.230353 0.137109 0)
(-0.246005 0.120959 0)
(-0.258865 0.105016 0)
(-0.26931 0.0898598 0)
(-0.277706 0.0758144 0)
(-0.284383 0.0630046 0)
(-0.289623 0.0514075 0)
(-0.29366 0.0408921 0)
(-0.29668 0.0312507 0)
(-0.29882 0.0222219 0)
(-0.300172 0.0135078 0)
(-0.300788 0.00478782 0)
(-0.300674 -0.00427086 0)
(-0.299795 -0.0140018 0)
(-0.29807 -0.0247266 0)
(-0.295366 -0.0367382 0)
(-0.291498 -0.0502778 0)
(-0.286214 -0.0655043 0)
(-0.279199 -0.0824527 0)
(-0.270067 -0.100981 0)
(-0.258371 -0.120704 0)
(-0.243619 -0.140919 0)
(-0.225326 -0.160526 0)
(-0.203091 -0.177957 0)
(-0.176726 -0.19114 0)
(-0.146446 -0.19753 0)
(-0.11311 -0.194259 0)
(-0.0784168 -0.178437 0)
(-0.0450881 -0.147634 0)
(-0.0177422 -0.100519 0)
(-0.00315433 -0.0377202 0)
(-0.00332659 0.0432988 0)
(-0.0181824 0.112483 0)
(-0.0452811 0.162104 0)
(-0.0773538 0.192922 0)
(-0.109735 0.207605 0)
(-0.139955 0.20956 0)
(-0.166662 0.202238 0)
(-0.189323 0.188732 0)
(-0.207974 0.171586 0)
(-0.222969 0.152749 0)
(-0.234806 0.133622 0)
(-0.24401 0.11514 0)
(-0.251077 0.0978664 0)
(-0.256443 0.0820817 0)
(-0.260471 0.0678557 0)
(-0.263458 0.0551083 0)
(-0.265634 0.0436537 0)
(-0.267175 0.0332338 0)
(-0.268212 0.0235413 0)
(-0.268832 0.0142366 0)
(-0.269089 0.00495919 0)
(-0.269001 -0.00466319 0)
(-0.268554 -0.0150056 0)
(-0.267693 -0.0264353 0)
(-0.266321 -0.0392979 0)
(-0.264284 -0.0538959 0)
(-0.261363 -0.070459 0)
(-0.257256 -0.0891024 0)
(-0.251562 -0.109768 0)
(-0.243776 -0.132149 0)
(-0.233288 -0.155595 0)
(-0.219411 -0.178996 0)
(-0.201452 -0.200671 0)
(-0.178844 -0.218262 0)
(-0.151374 -0.228699 0)
(-0.119499 -0.228289 0)
(-0.0846772 -0.213018 0)
(-0.0497265 -0.179124 0)
(-0.0199873 -0.123984 0)
(-0.00365246 -0.0474217 0)
(-0.00390156 0.053308 0)
(-0.020568 0.135968 0)
(-0.049828 0.19263 0)
(-0.0828885 0.225338 0)
(-0.114461 0.238445 0)
(-0.14215 0.236874 0)
(-0.164976 0.225222 0)
(-0.18288 0.207335 0)
(-0.196349 0.186186 0)
(-0.206105 0.163918 0)
(-0.212911 0.141981 0)
(-0.217467 0.121273 0)
(-0.220365 0.102282 0)
(-0.222084 0.0852012 0)
(-0.222992 0.0700143 0)
(-0.22337 0.0565657 0)
(-0.223423 0.0446064 0)
(-0.2233 0.0338266 0)
(-0.223106 0.0238772 0)
(-0.222916 0.0143842 0)
(-0.222779 0.00495681 0)
(-0.222723 -0.00480581 0)
(-0.222754 -0.0153096 0)
(-0.222854 -0.0269588 0)
(-0.22297 -0.0401452 0)
(-0.223002 -0.0552319 0)
(-0.222787 -0.0725274 0)
(-0.222067 -0.0922456 0)
(-0.220472 -0.114448 0)
(-0.21748 -0.138961 0)
(-0.212401 -0.165262 0)
(-0.204375 -0.192334 0)
(-0.192406 -0.218491 0)
(-0.175485 -0.241188 0)
(-0.152827 -0.25687 0)
(-0.124262 -0.260947 0)
(-0.0907237 -0.248018 0)
(-0.0548727 -0.2125 0)
(-0.0227467 -0.149821 0)
(-0.00432912 -0.0584426 0)
(-0.0047533 0.0648045 0)
(-0.0237279 0.161821 0)
(-0.0551651 0.224591 0)
(-0.0883288 0.257308 0)
(-0.117428 0.266812 0)
(-0.14049 0.260033 0)
(-0.157247 0.242912 0)
(-0.168349 0.220056 0)
(-0.174868 0.194775 0)
(-0.177942 0.169285 0)
(-0.178592 0.144965 0)
(-0.177654 0.12258 0)
(-0.175771 0.102474 0)
(-0.173412 0.0847034 0)
(-0.170909 0.0691394 0)
(-0.168487 0.0555375 0)
(-0.166297 0.0435823 0)
(-0.164436 0.0329164 0)
(-0.16297 0.0231579 0)
(-0.161946 0.0139103 0)
(-0.161402 0.0047668 0)
(-0.161371 -0.00468729 0)
(-0.161881 -0.0148735 0)
(-0.162953 -0.0262181 0)
(-0.164593 -0.0391469 0)
(-0.166773 -0.054075 0)
(-0.169411 -0.0713875 0)
(-0.17234 -0.0914069 0)
(-0.175267 -0.11434 0)
(-0.177724 -0.140198 0)
(-0.179014 -0.168669 0)
(-0.17817 -0.198951 0)
(-0.173938 -0.22951 0)
(-0.164846 -0.257788 0)
(-0.149413 -0.279892 0)
(-0.126577 -0.290357 0)
(-0.0963372 -0.282167 0)
(-0.060743 -0.247321 0)
(-0.0263308 -0.178309 0)
(-0.00531282 -0.071181 0)
(-0.00610182 0.0784146 0)
(-0.0281478 0.190457 0)
(-0.0615812 0.257422 0)
(-0.0933109 0.287266 0)
(-0.117454 0.290502 0)
(-0.133077 0.276617 0)
(-0.14109 0.253 0)
(-0.143111 0.224892 0)
(-0.140892 0.195733 0)
(-0.135973 0.167612 0)
(-0.12957 0.141674 0)
(-0.122568 0.11844 0)
(-0.115576 0.0980344 0)
(-0.108983 0.0803375 0)
(-0.103025 0.0650902 0)
(-0.0978289 0.0519554 0)
(-0.0934543 0.0405571 0)
(-0.0899252 0.0305018 0)
(-0.0872497 0.0213896 0)
(-0.0854361 0.0128183 0)
(-0.0845022 0.00438305 0)
(-0.0844813 -0.00432556 0)
(-0.0854231 -0.0137252 0)
(-0.0873911 -0.0242442 0)
(-0.0904545 -0.0363227 0)
(-0.0946738 -0.0504098 0)
(-0.100078 -0.0669531 0)
(-0.106628 -0.0863779 0)
(-0.114174 -0.109047 0)
(-0.122382 -0.135188 0)
(-0.130658 -0.164778 0)
(-0.138051 -0.197356 0)
(-0.143169 -0.23174 0)
(-0.144148 -0.265625 0)
(-0.138758 -0.295067 0)
(-0.124793 -0.313933 0)
(-0.10079 -0.313518 0)
(-0.0674327 -0.282757 0)
(-0.0311809 -0.209785 0)
(-0.00682663 -0.0862981 0)
(-0.00833096 0.0952067 0)
(-0.034502 0.22232 0)
(-0.0690905 0.289917 0)
(-0.0965845 0.312679 0)
(-0.112028 0.306383 0)
(-0.116505 0.283535 0)
(-0.112654 0.252827 0)
(-0.103262 0.219774 0)
(-0.0907346 0.187584 0)
(-0.0768912 0.157932 0)
(-0.0629826 0.131544 0)
(-0.0498001 0.10858 0)
(-0.0377965 0.0888897 0)
(-0.027192 0.0721564 0)
(-0.0180576 0.0579895 0)
(-0.0103772 0.0459716 0)
(-0.00409159 0.0356837 0)
(0.000870485 0.0267165 0)
(0.00457151 0.0186729 0)
(0.00705127 0.0111663 0)
(0.00831794 0.00381488 0)
(0.008343 -0.00376401 0)
(0.00705935 -0.0119616 0)
(0.00436285 -0.0211845 0)
(0.000117847 -0.0318615 0)
(-0.00583157 -0.044448 0)
(-0.0136422 -0.0594266 0)
(-0.0234403 -0.0772999 0)
(-0.0352729 -0.098569 0)
(-0.0490358 -0.123685 0)
(-0.0643698 -0.152955 0)
(-0.0805223 -0.186371 0)
(-0.0961782 -0.223311 0)
(-0.10929 -0.262064 0)
(-0.117004 -0.299106 0)
(-0.115841 -0.328131 0)
(-0.102315 -0.339011 0)
(-0.0746335 -0.317152 0)
(-0.0378793 -0.244479 0)
(-0.00925423 -0.104876 0)
(-0.0120555 0.11692 0)
(-0.043525 0.257499 0)
(-0.0767378 0.319499 0)
(-0.09493 0.329418 0)
(-0.0961896 0.310095 0)
(-0.084934 0.277037 0)
(-0.0659808 0.239601 0)
(-0.0432365 0.202878 0)
(-0.0195 0.169313 0)
(0.00343694 0.139839 0)
(0.0245534 0.114579 0)
(0.0433573 0.0932594 0)
(0.0596943 0.0754357 0)
(0.0736095 0.0606096 0)
(0.0852535 0.0482863 0)
(0.09482 0.0379993 0)
(0.102506 0.0293181 0)
(0.108488 0.021846 0)
(0.112902 0.0152147 0)
(0.115839 0.00907643 0)
(0.117336 0.00309477 0)
(0.117374 -0.00306452 0)
(0.115873 -0.00974335 0)
(0.112695 -0.0173015 0)
(0.107645 -0.0261273 0)
(0.100477 -0.0366482 0)
(0.0909032 -0.0493413 0)
(0.0786195 -0.0647406 0)
(0.0633408 -0.083438 0)
(0.0448664 -0.106066 0)
(0.0231843 -0.133248 0)
(-0.00136727 -0.165474 0)
(-0.027862 -0.20285 0)
(-0.0544685 -0.244616 0)
(-0.0781093 -0.28829 0)
(-0.0942488 -0.328278 0)
(-0.0970467 -0.353907 0)
(-0.0808677 -0.347234 0)
(-0.0469546 -0.282045 0)
(-0.0131874 -0.128612 0)
(-0.0179803 0.14629 0)
(-0.0551776 0.294733 0)
(-0.0807186 0.340851 0)
(-0.0809506 0.330962 0)
(-0.0606726 0.295946 0)
(-0.0288443 0.253094 0)
(0.00766924 0.210985 0)
(0.0444346 0.17323 0)
(0.0788943 0.140899 0)
(0.109797 0.113894 0)
(0.136709 0.0916497 0)
(0.159665 0.0734686 0)
(0.178938 0.0586654 0)
(0.194907 0.046622 0)
(0.207971 0.0367999 0)
(0.218509 0.0287359 0)
(0.226852 0.0220297 0)
(0.233269 0.0163316 0)
(0.237965 0.0113295 0)
(0.241072 0.00673727 0)
(0.242653 0.00228347 0)
(0.2427 -0.00229888 0)
(0.241129 -0.00728295 0)
(0.237779 -0.0129592 0)
(0.232414 -0.0196475 0)
(0.224717 -0.0277117 0)
(0.214293 -0.0375759 0)
(0.200675 -0.049744 0)
(0.183343 -0.0648198 0)
(0.161761 -0.0835254 0)
(0.135452 -0.106703 0)
(0.104146 -0.135275 0)
(0.0680226 -0.170104 0)
(0.0281302 -0.211626 0)
(-0.0130093 -0.259048 0)
(-0.0506343 -0.308711 0)
(-0.0769748 -0.35117 0)
(-0.0815592 -0.366792 0)
(-0.0578986 -0.320447 0)
(-0.0192156 -0.160076 0)
(-0.0257787 0.187796 0)
(-0.0656646 0.328995 0)
(-0.0698421 0.343338 0)
(-0.0389257 0.307336 0)
(0.0108242 0.257198 0)
(0.0663122 0.208311 0)
(0.120194 0.166127 0)
(0.16894 0.131588 0)
(0.211266 0.103954 0)
(0.2471 0.0820552 0)
(0.276938 0.06475 0)
(0.301496 0.0510687 0)
(0.321526 0.0402275 0)
(0.337732 0.0316042 0)
(0.350735 0.0247054 0)
(0.361057 0.0191353 0)
(0.369122 0.0145712 0)
(0.375261 0.0107433 0)
(0.379718 0.00741925 0)
(0.382651 0.00439185 0)
(0.384138 0.00146818 0)
(0.38418 -0.00153971 0)
(0.382696 -0.00482396 0)
(0.379522 -0.00859062 0)
(0.374405 -0.0130709 0)
(0.366999 -0.0185347 0)
(0.356848 -0.0253092 0)
(0.343384 -0.0338019 0)
(0.32591 -0.0445336 0)
(0.303608 -0.0581796 0)
(0.275551 -0.0756212 0)
(0.240781 -0.0979948 0)
(0.198469 -0.126706 0)
(0.148289 -0.163314 0)
(0.0911266 -0.209051 0)
(0.0303304 -0.263411 0)
(-0.0263893 -0.320846 0)
(-0.0647222 -0.36438 0)
(-0.0660046 -0.3535 0)
(-0.0266269 -0.203327 0)
(-0.028961 0.245052 0)
(-0.058621 0.344629 0)
(-0.0158128 0.307665 0)
(0.0620064 0.245658 0)
(0.144872 0.188403 0)
(0.220837 0.142477 0)
(0.286056 0.107676 0)
(0.340089 0.0817905 0)
(0.38401 0.0625316 0)
(0.419355 0.0480957 0)
(0.44764 0.0371704 0)
(0.47019 0.0288218 0)
(0.488114 0.0223844 0)
(0.502313 0.0173779 0)
(0.513506 0.0134482 0)
(0.522262 0.0103278 0)
(0.529023 0.00780841 0)
(0.534119 0.00572255 0)
(0.53779 0.00393046 0)
(0.540191 0.00231034 0)
(0.541398 0.000750726 0)
(0.541417 -0.000855987 0)
(0.540177 -0.00261971 0)
(0.537533 -0.00465912 0)
(0.533253 -0.00710936 0)
(0.527013 -0.010132 0)
(0.518374 -0.0139286 0)
(0.506763 -0.0187609 0)
(0.491443 -0.0249807 0)
(0.471472 -0.0330754 0)
(0.445659 -0.0437374 0)
(0.412524 -0.0579675 0)
(0.370293 -0.0772194 0)
(0.317014 -0.103567 0)
(0.251022 -0.139769 0)
(0.17209 -0.188743 0)
(0.0836014 -0.251386 0)
(-0.00236399 -0.320808 0)
(-0.0537755 -0.363996 0)
(-0.0279691 -0.260461 0)
(0.0116421 0.28518 0)
(0.0258419 0.299239 0)
(0.147608 0.21329 0)
(0.276381 0.144272 0)
(0.379253 0.0978173 0)
(0.458442 0.0673008 0)
(0.519104 0.0473289 0)
(0.565394 0.0340638 0)
(0.600779 0.025013 0)
(0.627965 0.0186564 0)
(0.648956 0.0140757 0)
(0.665225 0.0107041 0)
(0.677863 0.00817979 0)
(0.687687 0.00626334 0)
(0.69531 0.00478976 0)
(0.701195 0.0036408 0)
(0.705688 0.00272823 0)
(0.709044 0.00198349 0)
(0.711442 0.0013509 0)
(0.712996 0.000782922 0)
(0.713765 0.000236687 0)
(0.713753 -0.000328866 0)
(0.712909 -0.000955649 0)
(0.711126 -0.00168921 0)
(0.708238 -0.00258207 0)
(0.704003 -0.00369825 0)
(0.69809 -0.00511977 0)
(0.690058 -0.00695676 0)
(0.679314 -0.00936399 0)
(0.665063 -0.0125686 0)
(0.646226 -0.0169191 0)
(0.621317 -0.0229724 0)
(0.588265 -0.0316533 0)
(0.544175 -0.0445385 0)
(0.485169 -0.0643162 0)
(0.406398 -0.0953381 0)
(0.301745 -0.143946 0)
(0.167737 -0.217508 0)
(0.0378053 -0.308728 0)
(0.0171135 -0.294638 0)
(0.302759 0.146482 0)
(0.40176 0.127463 0)
(0.563672 0.0753723 0)
(0.680874 0.0428526 0)
(0.75011 0.0249569 0)
(0.793625 0.0150589 0)
(0.822976 0.00949854 0)
(0.843476 0.00627594 0)
(0.85818 0.00431679 0)
(0.868974 0.003062 0)
(0.877031 0.00222005 0)
(0.883114 0.00163363 0)
(0.887739 0.00121351 0)
(0.891268 0.000906139 0)
(0.893963 0.000677441 0)
(0.896016 0.000504482 0)
(0.897564 0.000370986 0)
(0.898707 0.000264793 0)
(0.899516 0.00017633 0)
(0.900033 9.76238e-05 0)
(0.90028 2.1596e-05 0)
(0.900255 -5.84827e-05 0)
(0.899939 -0.000149488 0)
(0.899289 -0.000258961 0)
(0.898237 -0.000395742 0)
(0.896688 -0.000570853 0)
(0.89451 -0.000798844 0)
(0.891523 -0.00110003 0)
(0.887481 -0.00150441 0)
(0.882044 -0.00205905 0)
(0.874727 -0.00284253 0)
(0.864812 -0.00399466 0)
(0.851185 -0.00577939 0)
(0.832022 -0.00871811 0)
(0.804277 -0.0138578 0)
(0.762549 -0.0232626 0)
(0.695042 -0.0408908 0)
(0.577987 -0.0739381 0)
(0.411894 -0.127855 0)
(0.307417 -0.148222 0)
)
;

boundaryField
{
    movingWall
    {
        type            fixedValue;
        value           uniform (1 0 0);
    }
    fixedWalls
    {
        type            noSlip;
    }
    frontAndBack
    {
        type            empty;
    }
}


// ************************************************************************* //
