1.45 	0 	0 	0.0961258 	-0.0103798 	3.26942e-21
2.35 	0 	0 	0.369528 	-0.0132257 	-2.44663e-22
