1.45 	0 	0 	-0.145679
2.35 	0 	0 	0.00677227
