/*--------------------------------*- C++ -*----------------------------------*\
  =========                 |
  \\      /  F ield         | OpenFOAM: The Open Source CFD Toolbox
   \\    /   O peration     | Website:  https://openfoam.org
    \\  /    A nd           | Version:  6.0
     \\/     M anipulation  |
\*---------------------------------------------------------------------------*/
FoamFile
{
    version     2.0;
    format      ascii;
    class       volScalarField;
    location    "0.5";
    object      p;
}
// * * * * * * * * * * * * * * * * * * * * * * * * * * * * * * * * * * * * * //

dimensions      [0 2 -2 0 0 0 0];

internalField   nonuniform List<scalar> 
800
(
-1.4567e-06
-0.00218355
-0.00534241
-0.00843151
-0.0107889
-0.0120977
-0.0122575
-0.0112859
-0.0092534
-0.00624424
-0.00233601
0.00240942
0.00794885
0.0142575
0.0213275
0.0291663
0.0377944
0.0472436
0.0575543
0.0687717
0.0809405
0.0940978
0.108264
0.123428
0.139537
0.156473
0.17404
0.191944
0.209782
0.227042
0.243112
0.257317
0.268979
0.2775
0.282472
0.283793
0.281797
0.277362
0.272013
0.267943
0.00216901
-7.51709e-05
-0.00257342
-0.00480278
-0.00643468
-0.00723969
-0.00711609
-0.00604707
-0.00405648
-0.00118342
0.00253179
0.00705514
0.0123623
0.0184394
0.0252831
0.0328997
0.0413044
0.0505191
0.0605711
0.071489
0.083299
0.0960177
0.109645
0.124151
0.139469
0.155474
0.171975
0.188698
0.205281
0.221271
0.236139
0.249314
0.260233
0.268415
0.273552
0.275595
0.274853
0.272012
0.267967
0.263901
0.00544834
0.0023219
-0.000267962
-0.00220341
-0.00349116
-0.00400905
-0.00369447
-0.0025392
-0.000555299
0.00223872
0.00582401
0.010185
0.0153109
0.0211965
0.0278424
0.0352546
0.0434444
0.0524274
0.062222
0.0728473
0.0843186
0.0966433
0.109813
0.123795
0.138522
0.153877
0.169687
0.185702
0.201592
0.216948
0.231284
0.244074
0.254794
0.262987
0.268347
0.270793
0.27056
0.268163
0.263957
0.258459
0.00879394
0.00443108
0.0013495
-0.00063551
-0.00183296
-0.00222453
-0.00180166
-0.00058586
0.00140292
0.00415116
0.0076501
0.0118947
0.0168826
0.0226142
0.0290918
0.0363205
0.044308
0.0530648
0.0626034
0.0729367
0.084076
0.0960261
0.108781
0.122313
0.13657
0.151454
0.166817
0.182442
0.198033
0.21321
0.227512
0.24042
0.251395
0.259943
0.265689
0.268459
0.268381
0.265828
0.26076
0.253329
0.0113608
0.00571342
0.00202591
-0.000133551
-0.0013454
-0.00168522
-0.00119772
6.2256e-05
0.00206143
0.00478534
0.0082298
0.0123954
0.0172843
0.0228987
0.0292401
0.0363105
0.0441127
0.0526514
0.0619333
0.0719672
0.0827621
0.0943248
0.106656
0.119743
0.133553
0.148018
0.163026
0.178399
0.193882
0.20913
0.2237
0.237068
0.248658
0.257903
0.264314
0.267581
0.267696
0.264898
0.258845
0.2495
0.0125025
0.00562048
0.00131014
-0.00106794
-0.00233675
-0.00265522
-0.00211629
-0.000806341
0.00122699
0.0039655
0.00740562
0.0115493
0.0163988
0.0219542
0.028213
0.035171
0.0428242
0.0511703
0.06021
0.0699482
0.0803937
0.0915581
0.103453
0.116085
0.129449
0.143513
0.15821
0.173413
0.188917
0.204418
0.2195
0.233632
0.246192
0.256514
0.263962
0.268045
0.26858
0.265656
0.258682
0.247535
0.0116946
0.00365405
-0.00124719
-0.00383104
-0.00514374
-0.00542098
-0.00479957
-0.00339477
-0.00126819
0.0015564
0.00507282
0.00928034
0.014177
0.0197568
0.0260095
0.0329223
0.040482
0.0486783
0.0575054
0.0669649
0.0770665
0.0878286
0.0992768
0.111441
0.124347
0.138008
0.152408
0.167481
0.183083
0.198967
0.214754
0.229919
0.243793
0.255603
0.264537
0.269876
0.27121
0.268437
0.260704
0.247839
0.00847982
-0.000650376
-0.00607688
-0.00879524
-0.0100724
-0.010222
-0.0094244
-0.0078228
-0.0054931
-0.00246633
0.00124577
0.00563612
0.0106949
0.0164064
0.0227501
0.0297023
0.0372396
0.0453429
0.0540002
0.0632102
0.0729848
0.0833505
0.0943488
0.106034
0.118469
0.131712
0.145807
0.160753
0.176484
0.192824
0.209452
0.225868
0.241376
0.255098
0.26603
0.273181
0.275847
0.273652
0.265404
0.250857
0.00242317
-0.00775942
-0.0136155
-0.016327
-0.0174041
-0.0172521
-0.0161013
-0.0141259
-0.0114183
-0.0080191
-0.00394815
0.000778449
0.00614044
0.0121109
0.0186575
0.0257453
0.0333411
0.0414175
0.0499576
0.0589585
0.0684355
0.0784246
0.0889839
0.100194
0.112152
0.124966
0.138739
0.153548
0.169407
0.186231
0.203782
0.221616
0.239041
0.255098
0.26859
0.27822
0.282906
0.281882
0.273461
0.257234
-0.00693943
-0.0181863
-0.0243303
-0.0267897
-0.0273815
-0.0266344
-0.0248444
-0.0222252
-0.0188895
-0.0148894
-0.0102539
-0.00500862
0.000815935
0.00718242
0.0140483
0.0213695
0.0291052
0.0372227
0.0457025
0.0545426
0.0637634
0.0734115
0.0835619
0.0943197
0.105818
0.11821
0.131661
0.146321
0.162298
0.17961
0.198127
0.217497
0.23708
0.255881
0.272538
0.285424
0.292998
0.293949
0.285846
0.267932
-0.0201801
-0.0325605
-0.0387568
-0.0405471
-0.0401864
-0.0383851
-0.0355312
-0.0318894
-0.0275956
-0.0227122
-0.0172744
-0.0113133
-0.0048647
0.00202855
0.00931899
0.0169587
0.0249043
0.0331224
0.0415949
0.0503243
0.0593385
0.0686956
0.0784878
0.0888437
0.0999281
0.111938
0.125094
0.139621
0.155719
0.173521
0.193027
0.214019
0.235964
0.257901
0.278361
0.295403
0.306959
0.310979
0.303935
0.284389
-0.0381215
-0.0517416
-0.0575524
-0.0579626
-0.0559064
-0.0523659
-0.0478535
-0.0426929
-0.0370386
-0.0309532
-0.0244661
-0.0176016
-0.0103897
-0.00286788
0.0049213
0.0129346
0.0211338
0.0294912
0.0379957
0.0466579
0.0555163
0.0646422
0.0741444
0.0841732
0.0949218
0.106625
0.119555
0.134003
0.150262
0.168583
0.189112
0.211804
0.236297
0.261755
0.286701
0.308949
0.325873
0.334487
0.329673
0.308736
-0.0621132
-0.0770079
-0.081564
-0.0793805
-0.0744738
-0.0682124
-0.0612537
-0.0539693
-0.0465068
-0.0388999
-0.0311451
-0.0232362
-0.0151765
-0.00698096
0.00132686
0.00972013
0.0181751
0.0266773
0.0352281
0.0438509
0.052597
0.0615521
0.0708415
0.080635
0.0911508
0.102657
0.115467
0.129938
0.146445
0.165357
0.186982
0.211475
0.238713
0.268094
0.298283
0.326987
0.351081
0.366467
0.365815
0.344213
-0.0946012
-0.110365
-0.111882
-0.105047
-0.0955448
-0.0852185
-0.0748371
-0.0647578
-0.055053
-0.0456662
-0.0365112
-0.0275114
-0.0186133
-0.00978616
-0.00101705
0.00769652
0.0163548
0.0249634
0.0335411
0.0421269
0.0507869
0.0596214
0.0687712
0.0784239
0.0888187
0.100251
0.113075
0.127699
0.144579
0.1642
0.187033
0.213468
0.243682
0.277435
0.313729
0.350422
0.384082
0.409445
0.416297
0.395979
-0.140328
-0.155019
-0.149783
-0.134866
-0.118244
-0.102135
-0.0872416
-0.0737387
-0.0614818
-0.0502155
-0.0396916
-0.0297086
-0.0201176
-0.0108166
-0.00173935
0.00715716
0.0159041
0.0245313
0.033077
0.0415965
0.0501703
0.058912
0.067976
0.0775643
0.0879344
0.0994051
0.112363
0.127265
0.144643
0.165093
0.18926
0.217787
0.251222
0.289822
0.333189
0.379734
0.426182
0.466355
0.486701
0.472637
-0.208602
-0.215935
-0.196417
-0.167941
-0.140782
-0.116919
-0.0965166
-0.0792146
-0.0643976
-0.0514441
-0.0398397
-0.0291938
-0.0192255
-0.00974113
-0.000610392
0.00825439
0.0169162
0.0254279
0.0338449
0.0422357
0.0506918
0.0593365
0.0683333
0.0778951
0.0882924
0.0998626
0.11302
0.128265
0.146198
0.167526
0.193071
0.223759
0.260573
0.304424
0.355839
0.414393
0.477845
0.539971
0.584409
0.588342
-0.317621
-0.300156
-0.252222
-0.202222
-0.160315
-0.126767
-0.100304
-0.0793766
-0.0624977
-0.0484639
-0.0363845
-0.0256285
-0.0157633
-0.00649956
0.00235277
0.010919
0.0192858
0.0275209
0.0356891
0.0438651
0.0521442
0.0606531
0.0695586
0.0790778
0.0894881
0.101138
0.114463
0.129997
0.148401
0.170486
0.19725
0.229922
0.269994
0.319211
0.379443
0.452298
0.537939
0.631911
0.718349
0.766138
-0.509698
-0.416404
-0.313266
-0.231929
-0.171501
-0.127454
-0.0956596
-0.0723747
-0.054734
-0.0407698
-0.0291704
-0.0190716
-0.00991354
-0.00134036
0.00687133
0.0148617
0.022722
0.0305194
0.038315
0.0461783
0.0541993
0.0624988
0.0712384
0.080631
0.0909515
0.102549
0.115866
0.131454
0.150012
0.172425
0.199838
0.233758
0.276202
0.329902
0.398564
0.486985
0.599795
0.738511
0.900545
1.05524
-0.900361
-0.568574
-0.351693
-0.232097
-0.156807
-0.107463
-0.0753347
-0.0537913
-0.0384758
-0.0268271
-0.0173259
-0.00904843
-0.00143692
0.00583824
0.012967
0.0200561
0.0271663
0.034337
0.0416048
0.049017
0.0566432
0.0645853
0.0729869
0.0820429
0.0920107
0.103222
0.116101
0.131182
0.149152
0.170892
0.197574
0.230802
0.272871
0.327233
0.399366
0.498052
0.635664
0.831571
1.13902
1.5765
-1.60887
-0.714144
-0.31096
-0.165758
-0.0955497
-0.0559081
-0.0337656
-0.0208595
-0.0124193
-0.00608984
-0.000686046
0.00442342
0.00956988
0.0149126
0.020514
0.0263842
0.0325088
0.0388677
0.0454485
0.0522568
0.059325
0.0667211
0.0745556
0.0829906
0.0922482
0.102621
0.114486
0.128322
0.144736
0.164505
0.188647
0.218547
0.256214
0.304808
0.369921
0.462401
0.603775
0.847078
1.36696
2.38057
)
;

boundaryField
{
    movingWall
    {
        type            zeroGradient;
    }
    fixedWalls
    {
        type            zeroGradient;
    }
    frontAndBack
    {
        type            empty;
    }
}


// ************************************************************************* //
