1.45 	0 	0 	-0.291763
2.35 	0 	0 	-0.127088
