1.45 	0 	0 	-0.291405
2.35 	0 	0 	-0.126658
