/*--------------------------------*- C++ -*----------------------------------*\
  =========                 |
  \\      /  F ield         | OpenFOAM: The Open Source CFD Toolbox
   \\    /   O peration     | Website:  https://openfoam.org
    \\  /    A nd           | Version:  6.0
     \\/     M anipulation  |
\*---------------------------------------------------------------------------*/
FoamFile
{
    version     2.0;
    format      ascii;
    class       surfaceScalarField;
    location    "15";
    object      phi;
}
// * * * * * * * * * * * * * * * * * * * * * * * * * * * * * * * * * * * * * //

dimensions      [0 3 -1 0 0 0 0];

internalField   nonuniform List<scalar> 
123526
(
-0.000157044
2.63637e-05
0.000157525
-0.000156498
2.85337e-05
-0.00015592
3.08844e-05
-0.000155292
3.34345e-05
-0.000154629
3.61992e-05
-0.000153913
3.91967e-05
-0.000153159
4.24468e-05
-0.00015235
4.59708e-05
-0.000151497
4.97908e-05
-0.000150579
5.39318e-05
-0.000149608
5.84217e-05
-0.000148563
6.32899e-05
-0.00014745
6.85685e-05
-0.000146244
7.42905e-05
-0.00014495
8.04957e-05
-0.000143546
8.72307e-05
-0.000142034
9.45385e-05
-0.000140383
0.000102462
-0.000138596
0.000111067
-0.000136649
0.000120414
-0.000134533
0.000130555
-0.00013222
0.000141572
-0.000129714
0.00015355
-0.000126966
0.000166546
-0.000123985
0.000180686
-0.000120728
0.000196046
-0.000117181
0.00021274
-0.000113313
0.000230896
-0.000109094
0.000250616
-0.000104488
0.000272073
-9.94605e-05
0.000295373
-9.39785e-05
0.00032071
-8.799e-05
0.000348227
-8.14464e-05
0.000378111
-7.42974e-05
0.000410552
-6.64657e-05
0.000445712
-5.79049e-05
0.000483817
-4.85388e-05
0.00052502
-3.8288e-05
0.000569485
-2.70925e-05
0.000617359
-1.48811e-05
0.000668708
-1.58145e-06
0.000723527
1.28463e-05
0.000781738
2.84195e-05
0.000843131
4.51126e-05
0.000907358
6.28563e-05
0.000973916
8.15141e-05
0.00104208
0.000100989
0.00111071
0.000121219
0.00117799
0.00014241
0.00124083
0.000164774
0.00129473
0.000188352
0.00133406
0.000212779
0.0013526
0.000237286
0.00134423
0.000261119
0.00130149
0.000283138
0.00121536
0.000302352
0.00106982
0.000321499
0.000831463
0.000267305
0.000511016
-0.000209803
8.51597e-05
-0.000155477
2.59121e-05
0.000155938
-0.00015496
2.80307e-05
-0.000154402
3.03273e-05
-0.000153777
3.28186e-05
-0.000153099
3.55211e-05
-0.000152347
3.84536e-05
-0.000151536
4.16364e-05
-0.000150649
4.50914e-05
-0.000149697
4.88402e-05
-0.000148666
5.29081e-05
-0.000147566
5.73237e-05
-0.000146386
6.21155e-05
-0.000145132
6.7315e-05
-0.00014379
7.29516e-05
-0.000142362
7.90656e-05
-0.000140837
8.57063e-05
-0.000139216
9.29125e-05
-0.000137473
0.000100718
-0.000135609
0.000109196
-0.000133608
0.000118409
-0.000131454
0.000128394
-0.000129124
0.000139238
-0.000126617
0.000151035
-0.00012389
0.000163814
-0.000120943
0.00017773
-0.000117741
0.000192838
-0.000114263
0.000209252
-0.000110486
0.00022711
-0.000106367
0.00024649
-0.000101887
0.000267586
-9.6992e-05
0.000290478
-9.16621e-05
0.000315378
-8.5843e-05
0.000342404
-7.9486e-05
0.000371752
-7.25423e-05
0.000403609
-6.49328e-05
0.000438107
-5.66104e-05
0.000475504
-4.7497e-05
0.000515922
-3.75128e-05
0.000559523
-2.65977e-05
0.000606474
-1.4683e-05
0.000656832
-1.70134e-06
0.000710592
1.23679e-05
0.00076772
2.75098e-05
0.000828042
4.36764e-05
0.000891235
6.07986e-05
0.000956828
7.87835e-05
0.00102409
9.76314e-05
0.00109183
0.000117404
0.00115809
0.00013839
0.0012197
0.000160765
0.00127217
0.000184447
0.0013101
0.0002089
0.00132777
0.00023326
0.00131933
0.000256812
0.00127764
0.000278485
0.00119313
0.000297464
0.00104982
0.000313598
0.000813719
0.0003376
0.000487922
-0.000248471
0.000378845
-0.000152883
2.55514e-05
0.000153252
-0.000152472
2.76305e-05
-0.000152028
2.98855e-05
-0.000151529
3.23261e-05
-0.000150978
3.49705e-05
-0.000150355
3.78373e-05
-0.000149667
4.09473e-05
-0.000148894
4.4323e-05
-0.00014804
4.79861e-05
-0.00014709
5.19623e-05
-0.000146049
5.62823e-05
-0.000144903
6.09746e-05
-0.000143661
6.60713e-05
-0.000142305
7.15998e-05
-0.000140842
7.76015e-05
-0.000139261
8.41295e-05
-0.000137569
9.12189e-05
-0.000135743
9.88956e-05
-0.000133788
0.00010724
-0.000131692
0.000116315
-0.000129445
0.000126144
-0.000127025
0.00013682
-0.000124436
0.000148443
-0.000121636
0.000161014
-0.000118627
0.000174718
-0.000115379
0.000189587
-0.000111867
0.000205737
-0.000108074
0.000223313
-0.000103958
0.00024237
-9.94949e-05
0.000263129
-9.46418e-05
0.000285629
-8.93738e-05
0.000310115
-8.36419e-05
0.000336676
-7.74003e-05
0.000365515
-7.0602e-05
0.000396818
-6.31717e-05
0.000430688
-5.50646e-05
0.000467413
-4.62056e-05
0.000507084
-3.65176e-05
0.000549861
-2.59427e-05
0.000595931
-1.44136e-05
0.000645341
-1.86396e-06
0.000698086
1.17196e-05
0.000754184
2.63144e-05
0.000813496
4.18899e-05
0.000875707
5.84204e-05
0.000940343
7.58875e-05
0.00100665
9.43794e-05
0.00107336
0.000114015
0.00113841
0.000135064
0.00119861
0.000157573
0.0012496
0.000181305
0.00128635
0.000205604
0.00130342
0.000229636
0.0012952
0.000252779
0.0012546
0.000274145
0.00117187
0.000292798
0.00103146
0.000309329
0.00079748
0.0003232
0.000474494
-0.000196752
0.000271486
-0.000150464
2.51747e-05
0.000150838
-0.000150053
2.7231e-05
-0.000149632
2.94617e-05
-0.000149168
3.18715e-05
-0.000148677
3.44778e-05
-0.000148128
3.72984e-05
-0.000147533
4.03533e-05
-0.000146864
4.36643e-05
-0.000146127
4.72522e-05
-0.000145297
5.11427e-05
-0.000144379
5.53679e-05
-0.00014335
5.99561e-05
-0.000142216
6.49406e-05
-0.000140954
7.03471e-05
-0.000139569
7.62191e-05
-0.000138047
8.26146e-05
-0.000136392
8.95659e-05
-0.000134583
9.70926e-05
-0.000132626
0.000105284
-0.000130509
0.000114203
-0.000128224
0.00012386
-0.000125756
0.000134356
-0.000123108
0.000145797
-0.000120246
0.000158154
-0.000117171
0.000171645
-0.000113858
0.000186276
-0.000110286
0.000202165
-0.000106441
0.000219466
-0.000102279
0.000238211
-9.77882e-05
0.000258641
-9.29176e-05
0.00028077
-8.76534e-05
0.000304861
-8.19476e-05
0.000330979
-7.57589e-05
0.000359337
-6.90449e-05
0.000390116
-6.17352e-05
0.000423393
-5.379e-05
0.000459485
-4.5139e-05
0.000498454
-3.57096e-05
0.000540458
-2.54462e-05
0.000585699
-1.42824e-05
0.000634215
-2.15034e-06
0.000685998
1.09684e-05
0.000741114
2.50657e-05
0.000799452
4.01445e-05
0.000860679
5.62313e-05
0.000924306
7.33693e-05
0.000989537
9.16969e-05
0.00105505
0.000111329
0.00111873
0.000132464
0.00117744
0.000155013
0.00122702
0.000178617
0.00126268
0.000202576
0.00127938
0.000226132
0.00127151
0.000248789
0.00123203
0.000269795
0.00115082
0.000288158
0.00101277
0.000303685
0.000781206
0.000319428
0.000459922
-0.000184664
0.000310438
-0.00014891
2.47244e-05
0.000149372
-0.000148427
2.67603e-05
-0.000147932
2.89696e-05
-0.000147407
3.13561e-05
-0.000146864
3.39356e-05
-0.000146282
3.67246e-05
-0.000145669
3.97415e-05
-0.000145004
4.30069e-05
-0.00014429
4.65394e-05
-0.000143503
5.03637e-05
-0.000142646
5.45119e-05
-0.000141693
5.90115e-05
-0.000140647
6.38955e-05
-0.00013948
6.91878e-05
-0.000138193
7.49334e-05
-0.000136767
8.11949e-05
-0.000135202
8.80029e-05
-0.000133473
9.53704e-05
-0.000131583
0.000103396
-0.00012952
0.000112145
-0.000127273
0.000121616
-0.000124828
0.000131917
-0.000122189
0.00014316
-0.000119322
0.000155292
-0.000116232
0.000168559
-0.000112896
0.000182944
-0.000109295
0.000198567
-0.000105417
0.00021559
-0.000101224
0.000234021
-9.6701e-05
0.000254129
-9.18096e-05
0.000275889
-8.65326e-05
0.000299597
-8.08292e-05
0.000325288
-7.46621e-05
0.000353182
-6.79939e-05
0.000383462
-6.07599e-05
0.000416175
-5.29257e-05
0.000451671
-4.44271e-05
0.000489978
-3.51963e-05
0.000531254
-2.51809e-05
0.000575715
-1.43155e-05
0.000623385
-2.53178e-06
0.000674253
1.02025e-05
0.000728423
2.39048e-05
0.000785794
3.86123e-05
0.000846017
5.4392e-05
0.000908572
7.13264e-05
0.000972637
8.95686e-05
0.00103684
0.000109198
0.00109908
0.000130335
0.00115631
0.000152772
0.00120458
0.00017608
0.00123942
0.000199565
0.00125595
0.000222555
0.00124853
0.000244683
0.00121011
0.000265284
0.00113044
0.000283433
0.000995027
0.000298164
0.00076685
0.000312101
0.000446404
-0.000175471
0.000302564
-0.000147914
2.42127e-05
0.000148421
-0.000147363
2.62198e-05
-0.000146796
2.83992e-05
-0.000146188
3.07572e-05
-0.000145562
3.3308e-05
-0.000144894
3.60674e-05
-0.000144204
3.90525e-05
-0.000143469
4.22826e-05
-0.0001427
4.57737e-05
-0.000141874
4.95488e-05
-0.000140997
5.36391e-05
-0.000140045
5.80703e-05
-0.000139019
6.28741e-05
-0.000137892
6.80711e-05
-0.000136662
7.3707e-05
-0.000135307
7.98483e-05
-0.000133824
8.65226e-05
-0.000132183
9.37369e-05
-0.000130383
0.000101599
-0.000128407
0.000110177
-0.000126243
0.000119456
-0.000123874
0.000129554
-0.0001213
0.000140591
-0.000118488
0.000152486
-0.000115443
0.000165518
-0.00011214
0.000179646
-0.000108562
0.000194994
-0.000104699
0.000211731
-0.000100513
0.000229842
-9.59973e-05
0.00024962
-9.11078e-05
0.000271015
-8.58363e-05
0.000294339
-8.01434e-05
0.000319608
-7.39962e-05
0.000347048
-6.7362e-05
0.000376843
-6.01816e-05
0.000409012
-5.2426e-05
0.000443935
-4.40365e-05
0.000481611
-3.49506e-05
0.000522194
-2.51198e-05
0.000565914
-1.44807e-05
0.000612781
-2.96542e-06
0.000662779
9.47368e-06
0.000716029
2.2883e-05
0.000772435
3.73253e-05
0.000831625
5.28933e-05
0.000893058
6.9686e-05
0.000955882
8.78503e-05
0.00101872
0.000107419
0.0010795
0.000128439
0.00113531
0.000150628
0.00118242
0.000173515
0.00121656
0.000196453
0.00123304
0.000218855
0.00122614
0.000240467
0.00118872
0.000260683
0.00111038
0.000278665
0.000976966
0.00029279
0.000752303
0.000304806
0.000435663
-0.000169012
0.000301407
-0.000146929
2.3697e-05
0.000147454
-0.000146362
2.56651e-05
-0.000145764
2.78035e-05
-0.000145119
3.01214e-05
-0.000144443
3.26328e-05
-0.00014372
3.53533e-05
-0.000142966
3.82996e-05
-0.000142165
4.14903e-05
-0.000141329
4.49395e-05
-0.000140439
4.86688e-05
-0.000139507
5.27087e-05
-0.00013851
5.70825e-05
-0.000137453
6.18203e-05
-0.000136312
6.69388e-05
-0.000135086
7.24832e-05
-0.000133752
7.85228e-05
-0.000132308
8.50814e-05
-0.000130722
9.21586e-05
-0.00012899
9.98706e-05
-0.000127093
0.000108287
-0.000125015
0.000117382
-0.000122736
0.000127281
-0.000120252
0.000138112
-0.000117528
0.000149769
-0.000114565
0.000162561
-0.000111339
0.000176427
-0.000107831
0.000191491
-0.000104029
0.000207934
-9.98988e-05
0.000225718
-9.54284e-05
0.000245163
-9.05828e-05
0.000266183
-8.53496e-05
0.000289122
-7.96938e-05
0.000313967
-7.35853e-05
0.000340954
-6.69948e-05
0.000370269
-5.98674e-05
0.000401903
-5.21787e-05
0.000436266
-4.3875e-05
0.000473331
-3.48988e-05
0.000513244
-2.52055e-05
0.00055625
-1.47349e-05
0.000602343
-3.42036e-06
0.000651499
8.79923e-06
0.000703848
2.19947e-05
0.000759279
3.62464e-05
0.000817414
5.16578e-05
0.000877688
6.83289e-05
0.000939244
8.63865e-05
0.0010007
0.000105817
0.00106005
0.000126614
0.00111454
0.000148445
0.00116062
0.00017084
0.00119423
0.00019321
0.00121074
0.00021505
0.00120432
0.000236195
0.00116779
0.000256073
0.00109072
0.000273922
0.000959501
0.000287727
0.000738811
0.000298173
0.000425571
-0.0001674
0.000295919
-0.000145787
2.32015e-05
0.00014628
-0.000145235
2.51249e-05
-0.00014465
2.72153e-05
-0.000144004
2.94849e-05
-0.00014332
3.19478e-05
-0.000142576
3.46199e-05
-0.000141794
3.75182e-05
-0.000140954
4.06612e-05
-0.000140073
4.40618e-05
-0.000139134
4.77406e-05
-0.000138149
5.1728e-05
-0.000137101
5.60455e-05
-0.000135998
6.07216e-05
-0.000134817
6.57689e-05
-0.000133562
7.12323e-05
-0.000132213
7.71829e-05
-0.000130768
8.36404e-05
-0.000129198
9.05965e-05
-0.000127498
9.81745e-05
-0.000125648
0.000106445
-0.000123631
0.00011537
-0.000121425
0.000125082
-0.000119023
0.000135716
-0.000116388
0.000147142
-0.000113518
0.000159697
-0.000110386
0.000173302
-0.000106971
0.000188083
-0.00010326
0.000204229
-9.92168e-05
0.000221682
-9.48311e-05
0.000240787
-9.00623e-05
0.00026143
-8.49024e-05
0.000283977
-7.93153e-05
0.000308394
-7.32725e-05
0.000334926
-6.67469e-05
0.000363759
-5.96861e-05
0.00039486
-5.20691e-05
0.000428669
-4.38458e-05
0.00046513
-3.49631e-05
0.000504386
-2.53799e-05
0.000546695
-1.50396e-05
0.000592035
-3.87694e-06
0.000640374
8.17773e-06
0.000691835
2.12134e-05
0.00074629
3.53183e-05
0.000803357
5.05975e-05
0.000862463
6.7139e-05
0.000922744
8.50462e-05
0.000982852
0.000104263
0.00104085
0.000124748
0.00109411
0.00014615
0.00113929
0.000168016
0.00117243
0.000189831
0.001189
0.000211163
0.00118307
0.000231904
0.00114734
0.000251498
0.00107137
0.000269233
0.000941787
0.000282903
0.000724853
0.000292233
0.000417562
-0.000161592
0.000289387
-0.000144386
2.27431e-05
0.000144853
-0.000143869
2.46206e-05
-0.000143313
2.66607e-05
-0.000142696
2.88777e-05
-0.000142034
3.12861e-05
-0.000141307
3.39025e-05
-0.000140532
3.67443e-05
-0.000139692
3.98304e-05
-0.000138801
4.31733e-05
-0.000137844
4.67932e-05
-0.000136834
5.07208e-05
-0.000135755
5.49765e-05
-0.000134619
5.95877e-05
-0.000133404
6.45635e-05
-0.000132117
6.99483e-05
-0.00013074
7.58153e-05
-0.000129276
8.21799e-05
-0.000127697
8.90254e-05
-0.000126
9.64818e-05
-0.000124168
0.00010462
-0.000122182
0.000113389
-0.00012002
0.000122928
-0.000117677
0.000133378
-0.000115113
0.000144585
-0.000112323
0.000156914
-0.000109281
0.000170266
-0.000105961
0.000184769
-0.000102349
0.000200623
-9.84072e-05
0.000217747
-9.41216e-05
0.000236515
-8.94544e-05
0.000256777
-8.43921e-05
0.000278931
-7.88997e-05
0.000302916
-7.2948e-05
0.00032899
-6.65103e-05
0.000357337
-5.95354e-05
0.000387902
-5.20037e-05
0.000421157
-4.38675e-05
0.000457015
-3.50765e-05
0.000495619
-2.55928e-05
0.000537238
-1.53626e-05
0.000581834
-4.32267e-06
0.000629365
7.60076e-06
0.000679945
2.05058e-05
0.00073342
3.4483e-05
0.000789414
4.96298e-05
0.000847353
6.60184e-05
0.000906381
8.37254e-05
0.000965181
0.000102664
0.00102189
0.000122772
0.00107403
0.0001437
0.00111839
0.000165035
0.00115116
0.000186329
0.00116777
0.000207209
0.00116219
0.000227608
0.00112713
0.000246958
0.0010522
0.000264589
0.000924454
0.000278257
0.00071138
0.000287002
0.000409059
-0.00015816
0.000282601
-0.000142802
2.23155e-05
0.000143229
-0.000142319
2.41486e-05
-0.0001418
2.61397e-05
-0.000141217
2.83042e-05
-0.000140589
3.06569e-05
-0.000139891
3.32149e-05
-0.000139142
3.59962e-05
-0.000138322
3.90204e-05
-0.000137445
4.22994e-05
-0.000136494
4.58536e-05
-0.000135485
4.97145e-05
-0.000134399
5.39019e-05
-0.00013325
5.84424e-05
-0.000132018
6.33423e-05
-0.000130712
6.86459e-05
-0.000129316
7.44287e-05
-0.000127834
8.07019e-05
-0.000126241
8.74408e-05
-0.000124537
9.47821e-05
-0.000122705
0.000102797
-0.000120731
0.000111419
-0.000118593
0.000120797
-0.000116285
0.000131076
-0.000113769
0.000142077
-0.00011104
0.000154193
-0.00010807
0.000167302
-0.000104832
0.000181539
-0.000101312
0.000197109
-9.74682e-05
0.000213913
-9.32883e-05
0.000232345
-8.87284e-05
0.000252233
-8.37761e-05
0.000273994
-7.83935e-05
0.000297549
-7.25505e-05
0.000323162
-6.62192e-05
0.000351022
-5.93482e-05
0.000381049
-5.19176e-05
0.000413745
-4.38809e-05
0.000449
-3.51892e-05
0.000486951
-2.58064e-05
0.000527882
-1.56811e-05
0.00057174
-4.75174e-06
0.000618471
7.05522e-06
0.000668178
1.98391e-05
0.00072068
3.36877e-05
0.000775612
4.86865e-05
0.000832407
6.48905e-05
0.000890224
8.23506e-05
0.000947787
0.000100961
0.0010033
0.00012065
0.00105441
0.00014109
0.00109804
0.000161907
0.00113042
0.000182724
0.00114705
0.000203213
0.00114181
0.000223322
0.00110733
0.000242463
0.00103334
0.000259983
0.000906996
0.000273659
0.000697462
0.000282264
0.000401768
-0.000149378
0.000276292
-0.000141038
2.19191e-05
0.000141443
-0.000140588
2.3711e-05
-0.000140103
2.56558e-05
-0.000139559
2.77697e-05
-0.000138969
3.00675e-05
-0.000138312
3.25668e-05
-0.0001376
3.5286e-05
-0.000136816
3.82451e-05
-0.000135971
4.14561e-05
-0.000135046
4.49394e-05
-0.000134057
4.87277e-05
-0.000132986
5.28405e-05
-0.000131845
5.73043e-05
-0.000130616
6.21228e-05
-0.000129307
6.73407e-05
-0.000127906
7.3036e-05
-0.000126416
7.92161e-05
-0.000124816
8.58488e-05
-0.000123107
9.3077e-05
-0.000121274
0.000100972
-0.000119304
0.000109455
-0.000117178
0.000118679
-0.000114891
0.000128796
-0.000112407
0.0001396
-0.000109721
0.000151514
-0.000106805
0.000164394
-0.000103633
0.000178375
-0.00010019
0.000193672
-9.64343e-05
0.000210165
-9.23498e-05
0.000228273
-8.7895e-05
0.000247792
-8.30528e-05
0.000269167
-7.77845e-05
0.000292295
-7.20583e-05
0.00031745
-6.58443e-05
0.000344823
-5.90901e-05
0.000374312
-5.17744e-05
0.000406448
-4.38504e-05
0.000441096
-3.52694e-05
0.000478392
-2.59962e-05
0.000518633
-1.59806e-05
0.000561751
-5.16251e-06
0.000607681
6.5281e-06
0.000656518
1.91855e-05
0.000708053
3.28919e-05
0.000761938
4.77183e-05
0.000817612
6.37049e-05
0.000874263
8.08796e-05
0.000930643
9.91282e-05
0.00098503
0.00011838
0.00103518
0.000138336
0.00107811
0.000158668
0.00111014
0.000179059
0.00112671
0.000199209
0.00112164
0.000219071
0.00108763
0.000238024
0.00101453
0.000255419
0.00088983
0.000269093
0.00068389
0.000277713
0.000393301
-0.000143534
0.000270653
-0.000139181
2.15431e-05
0.000139556
-0.000138756
2.32971e-05
-0.000138302
2.51993e-05
-0.000137789
2.7266e-05
-0.000137234
2.95122e-05
-0.000136613
3.19553e-05
-0.00013594
3.46138e-05
-0.000135194
3.75084e-05
-0.000134386
4.06506e-05
-0.000133497
4.40611e-05
-0.00013254
4.77737e-05
-0.000131496
5.18078e-05
-0.000130379
5.61901e-05
-0.000129168
6.09223e-05
-0.000127873
6.60495e-05
-0.000126481
7.16529e-05
-0.000124997
7.77364e-05
-0.0001234
8.42606e-05
-0.000121694
9.13749e-05
-0.000119865
9.91502e-05
-0.000117901
0.000107496
-0.000115785
0.000116571
-0.000113514
0.000126531
-0.000111054
0.000137147
-0.000108399
0.000148866
-0.000105524
0.000161526
-0.000102405
0.000175263
-9.90236e-05
0.000190298
-9.53414e-05
0.000206491
-9.13422e-05
0.000224285
-8.69814e-05
0.000243447
-8.22428e-05
0.000264444
-7.70855e-05
0.000287152
-7.14761e-05
0.000311855
-6.53831e-05
0.000338746
-5.87525e-05
0.000367697
-5.1561e-05
0.000399275
-4.37607e-05
0.000433316
-3.53023e-05
0.000469956
-2.61502e-05
0.000509506
-1.62548e-05
0.000551884
-5.55712e-06
0.000597016
6.00747e-06
0.00064499
1.85245e-05
0.000695578
3.20678e-05
0.000748441
4.66959e-05
0.000803037
6.24359e-05
0.000858575
7.92974e-05
0.000913847
9.71677e-05
0.000967193
0.000115983
0.00101645
0.000135477
0.00105872
0.000155364
0.00109034
0.000175379
0.00110681
0.000195238
0.00110192
0.000214886
0.0010683
0.000233668
0.000996053
0.000250916
0.000872667
0.000264511
0.000670076
0.000273261
0.000385859
-0.000133393
0.000265758
-0.000137224
2.11873e-05
0.000137588
-0.000136822
2.29066e-05
-0.000136391
2.47698e-05
-0.000135908
2.67929e-05
-0.000135386
2.89906e-05
-0.000134802
3.13803e-05
-0.000134168
3.39806e-05
-0.000133463
3.68122e-05
-0.000132697
3.98862e-05
-0.000131849
4.32234e-05
-0.000130932
4.6859e-05
-0.000129927
5.0812e-05
-0.000128843
5.51096e-05
-0.000127663
5.97516e-05
-0.000126395
6.47841e-05
-0.000125024
7.02914e-05
-0.000123559
7.62745e-05
-0.000121977
8.26872e-05
-0.000120284
8.96854e-05
-0.000118466
9.73404e-05
-0.000116514
0.00010555
-0.000114412
0.000114477
-0.000112157
0.000124283
-0.000109718
0.000134715
-0.000107091
0.000146246
-0.00010425
0.000158693
-0.000101173
0.000172193
-9.78433e-05
0.000186975
-9.42237e-05
0.000202879
-9.02962e-05
0.00022037
-8.60194e-05
0.000239184
-8.13742e-05
0.000259814
-7.63203e-05
0.000282113
-7.08229e-05
0.000306372
-6.4849e-05
0.000332787
-5.83432e-05
0.000361208
-5.12806e-05
0.00039223
-4.36113e-05
0.000425666
-3.52851e-05
0.000461651
-2.62655e-05
0.000500509
-1.65028e-05
0.000542146
-5.93849e-06
0.000586477
5.48577e-06
0.000633594
1.78443e-05
0.000683247
3.12031e-05
0.000735112
4.56087e-05
0.00078866
6.10804e-05
0.000843129
7.76128e-05
0.000897338
9.51026e-05
0.000949678
0.000113497
0.000998069
0.000132561
0.00103967
0.00015205
0.00107088
0.000171737
0.00108715
0.000191345
0.00108226
0.000210801
0.00104898
0.000229416
0.000977543
0.000246491
0.000855748
0.000259961
0.000656609
0.000268706
0.000377172
-0.000127485
0.000261368
-0.000135236
2.08427e-05
0.00013558
-0.00013485
2.25299e-05
-0.000134439
2.43573e-05
-0.000133978
2.63405e-05
-0.000133481
2.84937e-05
-0.000132926
3.08339e-05
-0.000132324
3.33798e-05
-0.000131655
3.61519e-05
-0.000130927
3.91607e-05
-0.000130121
4.24269e-05
-0.000129245
4.59863e-05
-0.000128281
4.98583e-05
-0.000127239
5.40701e-05
-0.000126097
5.86199e-05
-0.000124864
6.35549e-05
-0.000123527
6.89626e-05
-0.00012209
7.48417e-05
-0.000120534
8.11396e-05
-0.000118863
8.80188e-05
-0.000117066
9.55511e-05
-0.000115134
0.000103622
-0.000113051
0.000112401
-0.000110817
0.000122055
-0.000108401
0.000132306
-0.0001058
0.000143652
-0.000102992
0.000155891
-9.99526e-05
0.000169161
-9.66686e-05
0.000183698
-9.31023e-05
0.000199322
-8.9239e-05
0.000216517
-8.50352e-05
0.000234995
-8.04741e-05
0.000255267
-7.55147e-05
0.000277167
-7.0122e-05
0.000300993
-6.4262e-05
0.000326942
-5.78788e-05
0.00035484
-5.09454e-05
0.000385314
-4.34108e-05
0.00041815
-3.52235e-05
0.000453484
-2.63459e-05
0.000491655
-1.67275e-05
0.000532554
-6.31036e-06
0.000576091
4.95792e-06
0.000622362
1.71403e-05
0.000671106
3.0295e-05
0.000722004
4.44597e-05
0.000774547
5.96495e-05
0.000827998
7.58475e-05
0.000881199
9.29668e-05
0.000932597
0.000110965
0.000980158
0.000129638
0.0010211
0.000148775
0.00105184
0.000168175
0.00106787
0.000187563
0.00106301
0.000206842
0.00103002
0.000225291
0.000959408
0.000242166
0.000838964
0.000255438
0.000643118
0.000264166
0.000369722
-0.000118256
0.000257383
-0.000133197
2.05107e-05
0.000133537
-0.000132825
2.21683e-05
-0.000132428
2.39626e-05
-0.000131988
2.59086e-05
-0.000131514
2.80205e-05
-0.000130986
3.03147e-05
-0.000130414
3.28095e-05
-0.000129779
3.55253e-05
-0.000129089
3.84718e-05
-0.000128322
4.16695e-05
-0.000127489
4.5155e-05
-0.000126568
4.89473e-05
-0.00012557
5.30737e-05
-0.000124471
5.7531e-05
-0.000123281
6.23673e-05
-0.000121983
6.76736e-05
-0.000120584
7.34461e-05
-0.000119063
7.96265e-05
-0.000117424
8.6384e-05
-0.000115656
9.37911e-05
-0.000113752
0.000101723
-0.000111696
0.000110353
-0.000109488
0.000119853
-0.0001071
0.000129924
-0.000104528
0.000141088
-0.000101753
0.000153122
-9.87505e-05
0.000166166
-9.55091e-05
0.000180464
-9.19927e-05
0.000195813
-8.81861e-05
0.000212722
-8.40491e-05
0.000230871
-7.95641e-05
0.000250796
-7.4691e-05
0.000272308
-6.93954e-05
0.000295711
-6.3643e-05
0.000321204
-5.73776e-05
0.00034859
-5.05712e-05
0.000378524
-4.31719e-05
0.000410769
-3.51269e-05
0.000445459
-2.63975e-05
0.000482947
-1.69329e-05
0.000523112
-6.67486e-06
0.000565858
4.42346e-06
0.000611289
1.64149e-05
0.000659141
2.93506e-05
0.000709096
4.32627e-05
0.000760662
5.81651e-05
0.00081312
7.40335e-05
0.000865344
9.07999e-05
0.000915807
0.000108432
0.000962536
0.000126754
0.0010028
0.00014558
0.00103303
0.000164729
0.00104873
0.000183918
0.00104376
0.000203026
0.00101102
0.000221298
0.000941212
0.00023795
0.000822414
0.000251
0.000629998
0.000259514
0.000361197
-0.000113789
0.000253481
-0.000131163
2.01845e-05
0.000131489
-0.0001308
2.18141e-05
-0.000130416
2.35775e-05
-0.000129989
2.54891e-05
-0.000129531
2.75627e-05
-0.000129023
2.98144e-05
-0.000128474
3.2262e-05
-0.000127866
3.49257e-05
-0.000127206
3.78141e-05
-0.000126474
4.09472e-05
-0.000125679
4.43622e-05
-0.0001248
4.80777e-05
-0.000123844
5.2121e-05
-0.000122791
5.6487e-05
-0.000121646
6.1225e-05
-0.000120393
6.64293e-05
-0.000119037
7.2094e-05
-0.000117558
7.81552e-05
-0.000115959
8.47888e-05
-0.000114229
9.20686e-05
-0.000112359
9.98582e-05
-0.000110337
0.000108338
-0.000108163
0.000117685
-0.000105808
0.000127576
-0.000103271
0.000138558
-0.00010053
0.000150389
-9.75674e-05
0.00016321
-9.43688e-05
0.000177272
-9.09003e-05
0.000192352
-8.71484e-05
0.000208981
-8.30733e-05
0.00022681
-7.86587e-05
0.000246395
-7.38659e-05
0.000267528
-6.86607e-05
0.000290519
-6.30097e-05
0.000315566
-5.68567e-05
0.000342452
-5.01734e-05
0.000371857
-4.29075e-05
0.000403521
-3.50057e-05
0.000437577
-2.64281e-05
0.000474391
-1.71234e-05
0.000513833
-7.03388e-06
0.000555797
3.88379e-06
0.000600407
1.56731e-05
0.000647391
2.83809e-05
0.000696436
4.20351e-05
0.000747058
5.66523e-05
0.000798566
7.22017e-05
0.000849844
8.86384e-05
0.000899414
0.000105937
0.000945328
0.000123945
0.000984893
0.000142496
0.00101457
0.000161419
0.00102993
0.000180424
0.0010249
0.000199358
0.000992402
0.000217445
0.000923445
0.00023385
0.000806107
0.000246633
0.000616999
0.000254924
0.000354167
-0.00010624
0.000249652
-0.000129105
1.98671e-05
0.000129431
-0.000128751
2.14701e-05
-0.000128376
2.32043e-05
-0.000127962
2.50834e-05
-0.000127519
2.7121e-05
-0.00012703
2.93327e-05
-0.000126502
3.1736e-05
-0.000125919
3.43506e-05
-0.000125288
3.71841e-05
-0.000124588
4.0256e-05
-0.000123828
4.36041e-05
-0.000122987
4.7246e-05
-0.000122073
5.12091e-05
-0.000121064
5.54863e-05
-0.000119964
6.01279e-05
-0.000118758
6.52314e-05
-0.000117449
7.07886e-05
-0.000116016
7.67301e-05
-0.000114462
8.32389e-05
-0.000112776
9.03898e-05
-0.00011095
9.80361e-05
-0.000108969
0.000106364
-0.000106834
0.000115556
-0.000104518
0.000125266
-0.00010202
0.000136067
-9.93208e-05
0.000147696
-9.64e-05
0.000160297
-9.32463e-05
0.000174125
-8.9827e-05
0.000188941
-8.61287e-05
0.000205293
-8.21139e-05
0.000222808
-7.77668e-05
0.000242062
-7.30499e-05
0.000262824
-6.79303e-05
0.000285412
-6.23751e-05
0.000310025
-5.63293e-05
0.000336421
-4.97647e-05
0.000365308
-4.26289e-05
0.000396402
-3.48687e-05
0.000429835
-2.64436e-05
0.000465986
-1.73021e-05
0.000504713
-7.38672e-06
0.000545904
3.34332e-06
0.000589701
1.49244e-05
0.000635833
2.74007e-05
0.000683986
4.07979e-05
0.000733682
5.51375e-05
0.000784253
7.03844e-05
0.000834594
8.6516e-05
0.000883263
0.000103512
0.000928337
0.000121239
0.000967175
0.000139543
0.000996265
0.000158259
0.0010112
0.000177083
0.00100599
0.000195836
0.000973737
0.000213719
0.000905609
0.00022986
0.000790011
0.000242373
0.000604339
0.000250286
0.000346173
-0.000103285
0.000245668
-0.00012707
1.95532e-05
0.000127384
-0.000126722
2.11304e-05
-0.000126355
2.28366e-05
-0.00012595
2.4685e-05
-0.000125517
2.66887e-05
-0.00012504
2.8863e-05
-0.000124528
3.1225e-05
-0.000123963
3.37939e-05
-0.000123354
3.65764e-05
-0.00012268
3.95911e-05
-0.00012195
4.28762e-05
-0.000121143
4.64485e-05
-0.000120267
5.03351e-05
-0.000119299
5.45269e-05
-0.000118243
5.90749e-05
-0.000117083
6.40797e-05
-0.000115822
6.95308e-05
-0.000114438
7.53536e-05
-0.000112933
8.17377e-05
-0.000111296
8.87594e-05
-0.000109517
9.62617e-05
-0.000107583
0.000104437
-0.000105494
0.000113473
-0.000103223
0.000123002
-0.000100771
0.000133621
-9.81167e-05
0.000145048
-9.52425e-05
0.000157429
-9.21374e-05
0.000171027
-8.87692e-05
0.00018558
-8.51265e-05
0.000201661
-8.11718e-05
0.000218866
-7.68913e-05
0.000237794
-7.22481e-05
0.000258193
-6.72107e-05
0.000280387
-6.17474e-05
0.000304574
-5.58043e-05
0.000330492
-4.93538e-05
0.000358872
-4.23444e-05
0.000389409
-3.47229e-05
0.000422232
-2.64491e-05
0.000457733
-1.74711e-05
0.000495759
-7.73244e-06
0.000536193
2.80673e-06
0.000579195
1.41777e-05
0.000624499
2.64237e-05
0.000671786
3.95699e-05
0.000720584
5.36431e-05
0.000770242
6.86058e-05
0.00081967
8.44566e-05
0.00086746
0.000101178
0.000911705
0.000118651
0.000949802
0.000136729
0.000978282
0.000155247
0.000992801
0.000173888
0.000987493
0.000192449
0.000955481
0.000210114
0.000888263
0.000225973
0.00077425
0.000238187
0.0005919
0.000245752
0.000339837
-9.70695e-05
0.000241651
-0.000125026
1.92462e-05
0.000125341
-0.000124685
2.07986e-05
-0.000124324
2.24778e-05
-0.000123928
2.42966e-05
-0.000123506
2.62678e-05
-0.000123042
2.84063e-05
-0.000122545
3.07288e-05
-0.000121998
3.32544e-05
-0.000121409
3.59883e-05
-0.000120758
3.89489e-05
-0.000120055
4.21743e-05
-0.000119279
4.56807e-05
-0.000118436
4.94946e-05
-0.000117505
5.36047e-05
-0.000116491
5.80627e-05
-0.000115375
6.29719e-05
-0.000114161
6.83197e-05
-0.000112826
7.40258e-05
-0.000111371
8.02867e-05
-0.000109785
8.71798e-05
-0.000108057
9.45386e-05
-0.000106174
0.000102561
-0.000104136
0.00011144
-0.000101916
0.000120789
-9.95144e-05
0.000131225
-9.69108e-05
0.000142451
-9.4088e-05
0.000154614
-9.10354e-05
0.000167981
-8.77223e-05
0.000182275
-8.41372e-05
0.000198086
-8.02447e-05
0.000214986
-7.6031e-05
0.000233593
-7.14611e-05
0.000253635
-6.65042e-05
0.000275442
-6.113e-05
0.000299213
-5.52862e-05
0.000324662
-4.89459e-05
0.000352547
-4.20587e-05
0.000382537
-3.45723e-05
0.000414762
-2.64467e-05
0.000449625
-1.76306e-05
0.000486962
-8.06798e-06
0.000526651
2.28049e-06
0.000568868
1.34435e-05
0.000613357
2.54642e-05
0.000659789
3.83686e-05
0.000707697
5.21891e-05
0.000756445
6.68871e-05
0.000804954
8.24796e-05
0.00085185
9.89497e-05
0.000895237
0.000116188
0.000932566
0.000134053
0.0009604
0.000152377
0.000974457
0.000170828
0.00096895
0.000189181
0.000937198
0.000206607
0.000870862
0.000222173
0.000758688
0.000234094
0.000579774
0.00024121
0.000332593
-9.50195e-05
0.000237441
-0.000123019
1.89414e-05
0.000123323
-0.000122682
2.04694e-05
-0.000122328
2.21224e-05
-0.000121938
2.39125e-05
-0.000121523
2.58525e-05
-0.000121067
2.7957e-05
-0.00012058
3.02422e-05
-0.000120045
3.27268e-05
-0.00011947
3.54152e-05
-0.000118838
3.83248e-05
-0.000118156
4.1494e-05
-0.000117405
4.49382e-05
-0.000116592
4.86832e-05
-0.000115694
5.27156e-05
-0.000114717
5.70875e-05
-0.000113642
6.19049e-05
-0.000112472
6.71526e-05
-0.000111184
7.27452e-05
-0.000109779
7.88854e-05
-0.000108245
8.56517e-05
-0.00010657
9.28682e-05
-0.000104741
0.000100739
-0.000102757
0.000109462
-0.000100592
0.000118629
-9.82448e-05
0.000128883
-9.56963e-05
0.000139909
-9.29294e-05
0.000151853
-8.99337e-05
0.000164992
-8.66791e-05
0.000179028
-8.31553e-05
0.000194572
-7.93271e-05
0.00021117
-7.51821e-05
0.00022946
-7.06859e-05
0.00024915
-6.58092e-05
0.000270577
-6.05227e-05
0.000293938
-5.47757e-05
0.000318928
-4.85425e-05
0.000346328
-4.17739e-05
0.000375784
-3.44186e-05
0.000407424
-2.64375e-05
0.000441664
-1.778e-05
0.000478326
-8.39071e-06
0.000517287
1.76987e-06
0.000558738
1.27295e-05
0.000602432
2.45325e-05
0.00064803
3.72065e-05
0.000695068
5.07885e-05
0.000742923
6.52402e-05
0.000790534
8.05936e-05
0.000836546
9.68312e-05
0.000879088
0.00011385
0.000915644