/*--------------------------------*- C++ -*----------------------------------*\
  =========                 |
  \\      /  F ield         | OpenFOAM: The Open Source CFD Toolbox
   \\    /   O peration     | Website:  https://openfoam.org
    \\  /    A nd           | Version:  6.0
     \\/     M anipulation  |
\*---------------------------------------------------------------------------*/
FoamFile
{
    version     2.0;
    format      ascii;
    class       volScalarField;
    location    "0.4";
    object      p;
}
// * * * * * * * * * * * * * * * * * * * * * * * * * * * * * * * * * * * * * //

dimensions      [0 2 -2 0 0 0 0];

internalField   nonuniform List<scalar> 
34500
(
1.00573
1.00571
1.00553
1.00522
1.00479
1.00429
1.00372
1.00313
1.00253
1.00196
1.00144
1.00099
1.00061
1.00034
1.00018
1.00573
1.00574
1.00561
1.00537
1.00501
1.00458
1.00408
1.00352
1.00292
1.00233
1.00176
1.00124
1.00077
1.00044
1.0002
1.00573
1.00573
1.00557
1.00529
1.0049
1.00442
1.00388
1.0033
1.0027
1.00211
1.00155
1.00106
1.00062
1.00034
1.00011
1.00574
1.00572
1.00554
1.00523
1.0048
1.0043
1.00373
1.00313
1.00252
1.00194
1.0014
1.00093
1.00053
1.00028
1.00008
1.00574
1.00573
1.00555
1.00524
1.00482
1.00431
1.00374
1.00314
1.00254
1.00195
1.00141
1.00094
1.00054
1.00028
1.00009
1.00575
1.00574
1.00557
1.00527
1.00486
1.00436
1.00379
1.0032
1.00259
1.002
1.00145
1.00097
1.00056
1.00028
1.00007
1.00576
1.00575
1.00559
1.00529
1.00488
1.00439
1.00382
1.00322
1.00261
1.00202
1.00146
1.00098
1.00056
1.00028
1.00006
1.00577
1.00576
1.0056
1.00531
1.0049
1.00441
1.00384
1.00324
1.00262
1.00203
1.00147
1.00098
1.00055
1.00026
1.00003
1.00578
1.00578
1.00562
1.00533
1.00492
1.00443
1.00386
1.00326
1.00264
1.00204
1.00147
1.00098
1.00054
1.00024
1.00001
1.00579
1.00579
1.00563
1.00534
1.00494
1.00445
1.00388
1.00328
1.00266
1.00205
1.00147
1.00097
1.00053
1.00022
0.999977
1.0058
1.0058
1.00565
1.00536
1.00495
1.00446
1.00389
1.00329
1.00266
1.00205
1.00147
1.00095
1.00051
1.00019
0.999944
1.00582
1.00582
1.00566
1.00537
1.00496
1.00447
1.0039
1.00329
1.00266
1.00204
1.00145
1.00093
1.00048
1.00016
0.999912
1.00583
1.00584
1.00568
1.00538
1.00497
1.00447
1.0039
1.00329
1.00265
1.00203
1.00144
1.00092
1.00046
1.00013
0.999881
1.00585
1.00585
1.00569
1.0054
1.00499
1.00448
1.00391
1.00329
1.00265
1.00202
1.00143
1.0009
1.00044
1.00011
0.999849
1.00587
1.00587
1.00571
1.00542
1.005
1.0045
1.00392
1.00329
1.00265
1.00202
1.00142
1.00089
1.00042
1.00008
0.999818
1.00589
1.00589
1.00573
1.00544
1.00502
1.00452
1.00393
1.0033
1.00266
1.00202
1.00142
1.00088
1.00041
1.00006
0.999784
1.00591
1.00592
1.00576
1.00546
1.00505
1.00454
1.00395
1.00332
1.00267
1.00202
1.00142
1.00087
1.00039
1.00003
0.999749
1.00593
1.00594
1.00578
1.00549
1.00507
1.00456
1.00397
1.00334
1.00268
1.00203
1.00141
1.00086
1.00037
1
0.999711
1.00595
1.00596
1.00581
1.00551
1.0051
1.00459
1.00399
1.00335
1.00269
1.00203
1.00141
1.00084
1.00035
0.999968
0.999672
1.00598
1.00599
1.00583
1.00554
1.00512
1.00461
1.00401
1.00336
1.00269
1.00203
1.0014
1.00082
1.00032
0.999934
0.999632
1.006
1.00602
1.00586
1.00556
1.00514
1.00463
1.00402
1.00337
1.00269
1.00202
1.00138
1.0008
1.0003
0.999899
0.999592
1.00603
1.00604
1.00589
1.00559
1.00517
1.00464
1.00404
1.00338
1.00269
1.00201
1.00137
1.00078
1.00027
0.999864
0.999551
1.00606
1.00607
1.00591
1.00561
1.00519
1.00466
1.00405
1.00338
1.00269
1.00201
1.00135
1.00076
1.00024
0.999829
0.99951
1.00609
1.0061
1.00594
1.00564
1.00521
1.00468
1.00406
1.00339
1.00269
1.002
1.00134
1.00074
1.00021
0.999795
0.999468
1.00612
1.00613
1.00597
1.00567
1.00524
1.0047
1.00408
1.0034
1.0027
1.002
1.00133
1.00072
1.00019
0.999759
0.999426
1.00615
1.00616
1.006
1.0057
1.00527
1.00473
1.0041
1.00341
1.0027
1.002
1.00132
1.0007
1.00016
0.999723
0.999382
1.00619
1.0062
1.00604
1.00573
1.0053
1.00475
1.00412
1.00343
1.00271
1.00199
1.00131
1.00068
1.00013
0.999685
0.999337
1.00622
1.00623
1.00607
1.00577
1.00533
1.00478
1.00414
1.00344
1.00272
1.00199
1.00129
1.00066
1.0001
0.999645
0.99929
1.00626
1.00627
1.00611
1.0058
1.00536
1.0048
1.00416
1.00346
1.00272
1.00199
1.00128
1.00064
1.00006
0.999604
0.999243
1.00629
1.00631
1.00615
1.00583
1.00539
1.00483
1.00418
1.00347
1.00272
1.00198
1.00126
1.00061
1.00003
0.999563
0.999194
1.00633
1.00635
1.00618
1.00587
1.00542
1.00486
1.0042
1.00348
1.00273
1.00197
1.00125
1.00058
0.999996
0.99952
0.999145
1.00637
1.00639
1.00622
1.00591
1.00545
1.00488
1.00422
1.00349
1.00273
1.00196
1.00123
1.00056
0.999961
0.999477
0.999095
1.00641
1.00643
1.00626
1.00594
1.00549
1.00491
1.00424
1.0035
1.00273
1.00196
1.00121
1.00053
0.999925
0.999433
0.999044
1.00645
1.00647
1.0063
1.00598
1.00552
1.00494
1.00426
1.00351
1.00273
1.00195
1.0012
1.0005
0.999889
0.999388
0.998992
1.0065
1.00652
1.00635
1.00602
1.00556
1.00497
1.00428
1.00353
1.00274
1.00194
1.00118
1.00048
0.999852
0.999342
0.998939
1.00654
1.00656
1.00639
1.00606
1.0056
1.005
1.00431
1.00354
1.00274
1.00194
1.00116
1.00045
0.999813
0.999295
0.998884
1.00659
1.00661
1.00644
1.00611
1.00563
1.00503
1.00433
1.00356
1.00275
1.00193
1.00114
1.00042
0.999773
0.999246
0.998828
1.00664
1.00666
1.00649
1.00615
1.00567
1.00507
1.00436
1.00357
1.00275
1.00192
1.00113
1.00039
0.999732
0.999195
0.99877
1.00669
1.00671
1.00653
1.0062
1.00572
1.0051
1.00438
1.00359
1.00276
1.00192
1.00111
1.00036
0.999689
0.999144
0.998712
1.00674
1.00676
1.00658
1.00624
1.00576
1.00514
1.00441
1.0036
1.00276
1.00191
1.00108
1.00032
0.999646
0.999091
0.998652
1.00679
1.00681
1.00664
1.00629
1.0058
1.00517
1.00443
1.00362
1.00276
1.0019
1.00106
1.00029
0.999601
0.999037
0.99859
1.00685
1.00687
1.00669
1.00634
1.00584
1.00521
1.00446
1.00363
1.00277
1.00189
1.00104
1.00025
0.999555
0.998983
0.998528
1.0069
1.00692
1.00674
1.00639
1.00589
1.00524
1.00449
1.00365
1.00277
1.00188
1.00102
1.00022
0.999509
0.998927
0.998464
1.00696
1.00698
1.0068
1.00644
1.00593
1.00528
1.00451
1.00366
1.00277
1.00187
1.00099
1.00018
0.999461
0.998869
0.998399
1.00702
1.00704
1.00685
1.0065
1.00598
1.00532
1.00454
1.00368
1.00278
1.00186
1.00097
1.00015
0.999413
0.998811
0.998332
1.00708
1.0071
1.00691
1.00655
1.00603
1.00536
1.00457
1.0037
1.00278
1.00185
1.00095
1.00011
0.999363
0.99875
0.998264
1.00714
1.00716
1.00697
1.00661
1.00608
1.0054
1.0046
1.00372
1.00278
1.00184
1.00092
1.00007
0.999311
0.998689
0.998194
1.0072
1.00723
1.00703
1.00666
1.00613
1.00544
1.00463
1.00374
1.00279
1.00183
1.0009
1.00003
0.999259
0.998626
0.998123
1.00727
1.00729
1.0071
1.00672
1.00618
1.00548
1.00466
1.00375
1.00279
1.00182
1.00087
0.99999
0.999205
0.998561
0.99805
1.00734
1.00736
1.00716
1.00678
1.00623
1.00553
1.0047
1.00377
1.0028
1.00181
1.00084
0.999949
0.99915
0.998495
0.997975
1.0074
1.00743
1.00723
1.00685
1.00629
1.00557
1.00473
1.00379
1.0028
1.00179
1.00082
0.999906
0.999094
0.998428
0.997899
1.00747
1.0075
1.0073
1.00691
1.00634
1.00562
1.00476
1.00381
1.00281
1.00178
1.00079
0.999863
0.999037
0.998359
0.997821
1.00755
1.00757
1.00737
1.00697
1.0064
1.00567
1.0048
1.00383
1.00281
1.00177
1.00076
0.999818
0.998978
0.998289
0.997742
1.00762
1.00765
1.00744
1.00704
1.00646
1.00572
1.00484
1.00385
1.00282
1.00176
1.00073
0.999773
0.998918
0.998217
0.99766
1.00769
1.00772
1.00751
1.00711
1.00652
1.00577
1.00487
1.00388
1.00282
1.00175
1.0007
0.999726
0.998856
0.998143
0.997577
1.00777
1.0078
1.00759
1.00718
1.00658
1.00582
1.00491
1.0039
1.00283
1.00173
1.00067
0.999678
0.998793
0.998067
0.997491
1.00785
1.00788
1.00766
1.00725
1.00665
1.00587
1.00495
1.00392
1.00283
1.00172
1.00064
0.999629
0.998728
0.99799
0.997404
1.00793
1.00796
1.00774
1.00732
1.00671
1.00592
1.00499
1.00394
1.00284
1.00171
1.00061
0.999579
0.998662
0.997911
0.997315
1.00801
1.00804
1.00782
1.0074
1.00678
1.00598
1.00503
1.00397
1.00284
1.00169
1.00057
0.999527
0.998594
0.99783
0.997224
1.0081
1.00813
1.0079
1.00747
1.00685
1.00603
1.00507
1.00399
1.00284
1.00168
1.00054
0.999475
0.998525
0.997747
0.99713
1.00818
1.00821
1.00799
1.00755
1.00691
1.00609
1.00511
1.00401
1.00285
1.00166
1.0005
0.999421
0.998454
0.997662
0.997035
1.00827
1.0083
1.00807
1.00763
1.00699
1.00615
1.00515
1.00404
1.00285
1.00165
1.00047
0.999366
0.998382
0.997576
0.996938
1.00836
1.00839
1.00816
1.00771
1.00706
1.00621
1.0052
1.00406
1.00286
1.00163
1.00043
0.99931
0.998308
0.997488
0.996838
1.00845
1.00849
1.00825
1.0078
1.00713
1.00627
1.00524
1.00409
1.00286
1.00161
1.00039
0.999252
0.998232
0.997397
0.996736
1.00855
1.00858
1.00834
1.00788
1.00721
1.00633
1.00529
1.00412
1.00287
1.0016
1.00035
0.999194
0.998155
0.997305
0.996633
1.00864
1.00868
1.00843
1.00797
1.00728
1.00639
1.00533
1.00414
1.00288
1.00158
1.00032
0.999133
0.998076
0.997211
0.996526
1.00874
1.00878
1.00853
1.00806
1.00736
1.00646
1.00538
1.00417
1.00288
1.00156
1.00028
0.999072
0.997996
0.997114
0.996417
1.00884
1.00888
1.00863
1.00815
1.00744
1.00653
1.00543
1.0042
1.00289
1.00155
1.00023
0.999009
0.997913
0.997016
0.996306
1.00894
1.00898
1.00873
1.00824
1.00753
1.00659
1.00548
1.00423
1.00289
1.00153
1.00019
0.998945
0.997829
0.996915
0.996193
1.00905
1.00909
1.00883
1.00834
1.00761
1.00666
1.00553
1.00426
1.0029
1.00151
1.00015
0.998879
0.997743
0.996812
0.996077
1.00915
1.0092
1.00893
1.00844
1.0077
1.00673
1.00558
1.00429
1.00291
1.00149
1.00011
0.998812
0.997654
0.996706
0.995958
1.00926
1.00931
1.00904
1.00854
1.00778
1.00681
1.00564
1.00432
1.00291
1.00147
1.00006
0.998744
0.997564
0.996599
0.995837
1.00937
1.00942
1.00915
1.00864
1.00788
1.00688
1.00569
1.00435
1.00292
1.00145
1.00002
0.998674
0.997472
0.996489
0.995713
1.00948
1.00953
1.00926
1.00874
1.00797
1.00696
1.00575
1.00438
1.00293
1.00143
0.99997
0.998602
0.997378
0.996376
0.995586
1.0096
1.00965
1.00937
1.00885
1.00806
1.00704
1.0058
1.00442
1.00293
1.00141
0.999922
0.998529
0.997282
0.996261
0.995457
1.00972
1.00977
1.00949
1.00895
1.00816
1.00711
1.00586
1.00445
1.00294
1.00139
0.999873
0.998454
0.997184
0.996144
0.995324
1.00984
1.00989
1.00961
1.00907
1.00826
1.0072
1.00592
1.00449
1.00295
1.00137
0.999824
0.998377
0.997083
0.996023
0.995189
1.00996
1.01002
1.00973
1.00918
1.00836
1.00728
1.00598
1.00452
1.00295
1.00135
0.999772
0.998299
0.99698
0.995901
0.995051
1.01009
1.01014
1.00985
1.00929
1.00846
1.00736
1.00604
1.00456
1.00296
1.00132
0.99972
0.998219
0.996876
0.995775
0.99491
1.01022
1.01027
1.00997
1.00941
1.00856
1.00745
1.00611
1.00459
1.00297
1.0013
0.999667
0.998137
0.996768
0.995647
0.994765
1.01035
1.01041
1.0101
1.00953
1.00867
1.00754
1.00617
1.00463
1.00298
1.00128
0.999612
0.998053
0.996659
0.995516
0.994618
1.01048
1.01054
1.01023
1.00965
1.00878
1.00763
1.00624
1.00467
1.00298
1.00125
0.999556
0.997968
0.996547
0.995382
0.994467
1.01062
1.01068
1.01037
1.00978
1.00889
1.00772
1.00631
1.00471
1.00299
1.00123
0.999499
0.99788
0.996432
0.995245
0.994313
1.01076
1.01082
1.0105
1.00991
1.009
1.00781
1.00638
1.00475
1.003
1.0012
0.999441
0.997791
0.996315
0.995106
0.994156
1.0109
1.01096
1.01064
1.01004
1.00912
1.00791
1.00645
1.00479
1.00301
1.00118
0.999381
0.9977
0.996195
0.994963
0.993995
1.01104
1.01111
1.01079
1.01017
1.00924
1.00801
1.00652
1.00483
1.00302
1.00115
0.99932
0.997606
0.996073
0.994817
0.993831
1.01119
1.01126
1.01093
1.01031
1.00936
1.00811
1.00659
1.00487
1.00302
1.00112
0.999257
0.997511
0.995948
0.994668
0.993663
1.01134
1.01141
1.01108
1.01045
1.00948
1.00821
1.00667
1.00492
1.00303
1.0011
0.999193
0.997413
0.995821
0.994515
0.993491
1.01149
1.01157
1.01123
1.01059
1.00961
1.00832
1.00674
1.00496
1.00304
1.00107
0.999127
0.997313
0.99569
0.99436
0.993316
1.01165
1.01173
1.01138
1.01074
1.00974
1.00842
1.00682
1.00501
1.00305
1.00104
0.99906
0.997211
0.995557
0.9942
0.993137
1.01181
1.01189
1.01154
1.01088
1.00987
1.00853
1.0069
1.00505
1.00306
1.00101
0.998992
0.997106
0.995421
0.994038
0.992955
1.01197
1.01205
1.0117
1.01103
1.01001
1.00864
1.00698
1.0051
1.00307
1.00098
0.998921
0.997
0.995281
0.993872
0.992768
1.01214
1.01222
1.01187
1.01119
1.01014
1.00876
1.00707
1.00515
1.00307
1.00094
0.99885
0.99689
0.995139
0.993702
0.992577
1.01231
1.0124
1.01203
1.01135
1.01028
1.00887
1.00715
1.0052
1.00308
1.00091
0.998776
0.996779
0.994994
0.993529
0.992383
1.01248
1.01257
1.01221
1.01151
1.01043
1.00899
1.00724
1.00524
1.00309
1.00088
0.998701
0.996665
0.994845
0.993352
0.992184
1.01266
1.01275
1.01238
1.01167
1.01057
1.00911
1.00733
1.0053
1.0031
1.00084
0.998623
0.996548
0.994693
0.993171
0.991981
1.01284
1.01293
1.01256
1.01184
1.01072
1.00924
1.00742
1.00535
1.00311
1.00081
0.998544
0.996428
0.994538
0.992987
0.991773
1.01302
1.01312
1.01274
1.01201
1.01087
1.00936
1.00751
1.0054
1.00312
1.00077
0.998463
0.996306
0.994379
0.992798
0.991561
1.01321
1.01331
1.01292
1.01219
1.01103
1.00949
1.0076
1.00545
1.00313
1.00073
0.998381
0.996181
0.994217
0.992605
0.991345
1.0134
1.0135
1.01311
1.01236
1.01119
1.00962
1.0077
1.00551
1.00314
1.00069
0.998296
0.996053
0.994052
0.992408
0.991124
1.01359
1.0137
1.01331
1.01255
1.01135
1.00976
1.0078
1.00556
1.00314
1.00066
0.998209
0.995923
0.993882
0.992207
0.990899
1.01379
1.0139
1.0135
1.01273
1.01152
1.00989
1.0079
1.00562
1.00315
1.00061
0.99812
0.995789
0.993709
0.992001
0.990668
1.01399
1.01411
1.0137
1.01292
1.01169
1.01003
1.008
1.00568
1.00316
1.00057
0.998029
0.995652
0.993532
0.991792
0.990433
1.0142
1.01432
1.01391
1.01311
1.01186
1.01017
1.0081
1.00574
1.00317
1.00053
0.997935
0.995512
0.993351
0.991577
0.990193
1.01441
1.01453
1.01412
1.01331
1.01204
1.01032
1.00821
1.0058
1.00318
1.00049
0.99784
0.995369
0.993167
0.991358
0.989948
1.01462
1.01475
1.01433
1.01351
1.01222
1.01047
1.00832
1.00586
1.00319
1.00044
0.997741
0.995222
0.992978
0.991134
0.989698
1.01484
1.01498
1.01455
1.01372
1.0124
1.01062
1.00843
1.00592
1.0032
1.00039
0.997641
0.995072
0.992785
0.990906
0.989442
1.01506
1.0152
1.01477
1.01393
1.01259
1.01078
1.00854
1.00598
1.0032
1.00034
0.997537
0.994919
0.992587
0.990673
0.989181
1.01529
1.01544
1.015
1.01415
1.01278
1.01093
1.00866
1.00604
1.00321
1.00029
0.997432
0.994762
0.992385
0.990434
0.988915
1.01552
1.01567
1.01523
1.01436
1.01297
1.0111
1.00877
1.00611
1.00322
1.00024
0.997323
0.994601
0.992179
0.990191
0.988643
1.01576
1.01591
1.01547
1.01459
1.01317
1.01126
1.00889
1.00617
1.00323
1.00019
0.997212
0.994436
0.991968
0.989942
0.988366
1.016
1.01616
1.01571
1.01482
1.01338
1.01143
1.00901
1.00624
1.00323
1.00013
0.997097
0.994267
0.991753
0.989688
0.988082
1.01624
1.01641
1.01596
1.01505
1.01359
1.0116
1.00914
1.00631
1.00324
1.00008
0.99698
0.994095
0.991532
0.989429
0.987793
1.01649
1.01667
1.01621
1.01529
1.0138
1.01178
1.00926
1.00638
1.00324
1.00002
0.99686
0.993918
0.991307
0.989164
0.987498
1.01675
1.01693
1.01646
1.01553
1.01402
1.01195
1.00939
1.00645
1.00325
0.99996
0.996737
0.993737
0.991076
0.988893
0.987197
1.01701
1.0172
1.01673
1.01578
1.01424
1.01214
1.00952
1.00652
1.00326
0.999898
0.99661
0.993552
0.990841
0.988616
0.98689
1.01727
1.01747
1.01699
1.01603
1.01446
1.01232
1.00966
1.00659
1.00326
0.999834
0.99648
0.993362
0.9906
0.988334
0.986576
1.01754
1.01775
1.01727
1.01629
1.01469
1.01251
1.00979
1.00666
1.00326
0.999767
0.996346
0.993168
0.990354
0.988046
0.986256
1.01782
1.01803
1.01755
1.01656
1.01493
1.01271
1.00993
1.00674
1.00327
0.999699
0.996209
0.992969
0.990102
0.987751
0.985929
1.0181
1.01832
1.01783
1.01683
1.01517
1.0129
1.01008
1.00681
1.00327
0.999628
0.996068
0.992765
0.989844
0.98745
0.985596
1.01839
1.01861
1.01812
1.0171
1.01542
1.01311
1.01022
1.00689
1.00327
0.999555
0.995924
0.992556
0.989581
0.987143
0.985255
1.01868
1.01891
1.01842
1.01738
1.01567
1.01331
1.01037
1.00697
1.00327
0.999479
0.995775
0.992342
0.989311
0.986829
0.984908
1.01898
1.01922
1.01872
1.01767
1.01593
1.01352
1.01052
1.00704
1.00327
0.9994
0.995622
0.992123
0.989036
0.986509
0.984554
1.01929
1.01954
1.01903
1.01796
1.01619
1.01374
1.01067
1.00712
1.00327
0.999319
0.995465
0.991898
0.988754
0.986181
0.984193
1.0196
1.01986
1.01934
1.01826
1.01645
1.01396
1.01082
1.0072
1.00327
0.999235
0.995303
0.991667
0.988465
0.985847
0.983824
1.01992
1.02018
1.01967
1.01857
1.01673
1.01418
1.01098
1.00728
1.00327
0.999147
0.995137
0.991431
0.98817
0.985505
0.983448
1.02024
1.02052
1.02
1.01888
1.01701
1.01441
1.01114
1.00736
1.00326
0.999057
0.994966
0.991189
0.987869
0.985156
0.983064
1.02057
1.02086
1.02033
1.0192
1.01729
1.01464
1.01131
1.00745
1.00326
0.998963
0.99479
0.990941
0.98756
0.9848
0.982673
1.02091
1.0212
1.02068
1.01953
1.01758
1.01488
1.01147
1.00753
1.00325
0.998866
0.994609
0.990686
0.987244
0.984436
0.982273
1.02125
1.02156
1.02103
1.01986
1.01788
1.01512
1.01164
1.00761
1.00324
0.998766
0.994423
0.990425
0.986921
0.984064
0.981866
1.0216
1.02192
1.02138
1.0202
1.01818
1.01537
1.01181
1.0077
1.00323
0.998661
0.994231
0.990157
0.986591
0.983684
0.98145
1.02196
1.02229
1.02175
1.02055
1.01849
1.01562
1.01199
1.00778
1.00322
0.998553
0.994034
0.989883
0.986252
0.983297
0.981026
1.02232
1.02267
1.02212
1.02091
1.01881
1.01588
1.01217
1.00787
1.0032
0.99844
0.993831
0.989601
0.985906
0.9829
0.980594
1.0227
1.02305
1.02251
1.02127
1.01913
1.01614
1.01235
1.00795
1.00319
0.998323
0.993622
0.989312
0.985552
0.982496
0.980153
1.02308
1.02345
1.0229
1.02164
1.01946
1.0164
1.01253
1.00804
1.00317
0.998202
0.993406
0.989015
0.98519
0.982082
0.979703
1.02347
1.02385
1.02329
1.02202
1.0198
1.01668
1.01272
1.00812
1.00315
0.998075
0.993184
0.988711
0.984818
0.98166
0.979244
1.02386
1.02426
1.0237
1.02241
1.02015
1.01696
1.01291
1.00821
1.00312
0.997944
0.992955
0.988399
0.984439
0.981229
0.978776
1.02427
1.02468
1.02412
1.0228
1.0205
1.01724
1.0131
1.00829
1.0031
0.997808
0.992719
0.988078
0.98405
0.980788
0.978299
1.02468
1.02511
1.02454
1.02321
1.02086
1.01753
1.01329
1.00838
1.00307
0.997666
0.992476
0.987749
0.983652
0.980338
0.977812
1.0251
1.02555
1.02498
1.02362
1.02123
1.01782
1.01349
1.00847
1.00303
0.997518
0.992225
0.98741
0.983244
0.979879
0.977316
1.02553
1.02599
1.02542
1.02405
1.0216
1.01812
1.01369
1.00855
1.003
0.997365
0.991966
0.987063
0.982828
0.979409
0.97681
1.02597
1.02645
1.02587
1.02448
1.02199
1.01843
1.0139
1.00864
1.00296
0.997205
0.991699
0.986707
0.9824
0.97893
0.976294
1.02642
1.02692
1.02634
1.02492
1.02238
1.01874
1.0141
1.00872
1.00291
0.997038
0.991424
0.986341
0.981963
0.97844
0.975768
1.02688
1.02739
1.02681
1.02537
1.02278
1.01906
1.01431
1.0088
1.00286
0.996865
0.99114
0.985965
0.981516
0.97794
0.975232
1.02735
1.02788
1.0273
1.02584
1.02319
1.01938
1.01453
1.00889
1.00281
0.996684
0.990847
0.985579
0.981057
0.977429
0.974685
1.02782
1.02838
1.02779
1.02631
1.0236
1.01972
1.01474
1.00897
1.00275
0.996496
0.990544
0.985182
0.980588
0.976906
0.974127
1.02831
1.02889
1.0283
1.02679
1.02403
1.02005
1.01496
1.00905
1.00269
0.9963
0.990231
0.984774
0.980108
0.976373
0.973559
1.02881
1.02941
1.02882
1.02729
1.02447
1.02039
1.01518
1.00912
1.00262
0.996096
0.989908
0.984355
0.979615
0.975828
0.972979
1.02932
1.02994
1.02935
1.02779
1.02491
1.02074
1.0154
1.0092
1.00255
0.995883
0.989575
0.983924
0.979111
0.975272
0.972389
1.02984
1.03048
1.02989
1.02831
1.02537
1.0211
1.01562
1.00927
1.00247
0.99566
0.98923
0.983482
0.978595
0.974703
0.971786
1.03037
1.03104
1.03045
1.02884
1.02583
1.02146
1.01585
1.00934
1.00239
0.995429
0.988874
0.983027
0.978066
0.974123
0.971173
1.03092
1.0316
1.03102
1.02938
1.02631
1.02183
1.01608
1.00941
1.00229
0.995187
0.988506
0.982559
0.977524
0.97353
0.970547
1.03147
1.03219
1.0316
1.02993
1.02679
1.02221
1.01631
1.00948
1.00219
0.994934
0.988126
0.982078
0.97697
0.972924
0.969909
1.03204
1.03278
1.03219
1.0305
1.02729
1.02259
1.01654
1.00954
1.00208
0.994671
0.987733
0.981584
0.976401
0.972305
0.969259
1.03262
1.03339
1.0328
1.03108
1.0278
1.02298
1.01677
1.0096
1.00197
0.994396
0.987326
0.981075
0.975819
0.971673
0.968597
1.03321
1.03401
1.03342
1.03167
1.02831
1.02337
1.01701
1.00965
1.00184
0.994109
0.986906
0.980552
0.975223
0.971027
0.967921
1.03382
1.03465
1.03406
1.03228
1.02884
1.02377
1.01724
1.0097
1.0017
0.993809
0.986471
0.980015
0.974612
0.970368
0.967233
1.03444
1.0353
1.03472
1.0329
1.02938
1.02418
1.01748
1.00974
1.00156
0.993496
0.986022
0.979462
0.973986
0.969694
0.966532
1.03507
1.03596
1.03538
1.03354
1.02994
1.0246
1.01771
1.00978
1.0014
0.99317
0.985557
0.978893
0.973344
0.969006
0.965817
1.03572
1.03665
1.03607
1.03419
1.0305
1.02502
1.01795
1.00981
1.00124
0.992828
0.985075
0.978308
0.972687
0.968303
0.965089
1.03638
1.03734
1.03677
1.03486
1.03108
1.02545
1.01819
1.00984
1.00106
0.992471
0.984578
0.977706
0.972014
0.967586
0.964348
1.03706
1.03806
1.03749
1.03554
1.03166
1.02588
1.01842
1.00985
1.00086
0.992099
0.984062
0.977086
0.971325
0.966853
0.963592
1.03775
1.03879
1.03822
1.03624
1.03226
1.02632
1.01865
1.00986
1.00066
0.991709
0.983529
0.976449
0.970618
0.966104
0.962822
1.03846
1.03954
1.03898
1.03695
1.03288
1.02677
1.01888
1.00986
1.00044
0.991302
0.982978
0.975794
0.969895
0.96534
0.962038
1.03919
1.04031
1.03975
1.03769
1.0335
1.02722
1.01911
1.00985
1.0002
0.990877
0.982407
0.975119
0.969153
0.964559
0.961239
1.03993
1.04109
1.04054
1.03844
1.03414
1.02768
1.01934
1.00983
0.999949
0.990433
0.981815
0.974425
0.968394
0.963762
0.960425
1.0407
1.0419
1.04135
1.03921
1.0348
1.02814
1.01956
1.0098
0.99968
0.989968
0.981204
0.973711
0.967616
0.962949
0.959597
1.04147
1.04272
1.04219
1.04
1.03546
1.02861
1.01978
1.00975
0.999393
0.989483
0.98057
0.972977
0.966818
0.962118
0.958754
1.04227
1.04357
1.04304
1.0408
1.03614
1.02909
1.02
1.00969
0.999087
0.988976
0.979914
0.972221
0.966002
0.96127
0.957895
1.04309
1.04443
1.04391
1.04163
1.03684
1.02956
1.0202
1.00962
0.99876
0.988445
0.979235
0.971443
0.965165
0.960404
0.957021
1.04393
1.04532
1.04481
1.04248
1.03755
1.03005
1.0204
1.00953
0.998412
0.987891
0.978532
0.970643
0.964309
0.959521
0.956132
1.04478
1.04623
1.04573
1.04334
1.03827
1.03053
1.0206
1.00942
0.998041
0.987312
0.977804
0.969819
0.963431
0.958619
0.955227
1.04566
1.04717
1.04668
1.04423
1.03901
1.03102
1.02078
1.0093
0.997646
0.986707
0.977051
0.968972
0.962533
0.9577
0.954306
1.04656
1.04813
1.04765
1.04515
1.03976
1.03151
1.02095
1.00915
0.997225
0.986074
0.976271
0.968101
0.961613
0.956761
0.953369
1.04748
1.04911
1.04864
1.04608
1.04052
1.03201
1.02112
1.00899
0.996778
0.985413
0.975464
0.967204
0.960671
0.955804
0.952416
1.04843
1.05012
1.04966
1.04704
1.0413
1.0325
1.02127
1.0088
0.996302
0.984722
0.974628
0.966282
0.959707
0.954827
0.951447
1.0494
1.05115
1.05071
1.04802
1.04209
1.03299
1.0214
1.00858
0.995797
0.984
0.973763
0.965334
0.95872
0.953831
0.950461
1.05039
1.05222
1.05179
1.04903
1.0429
1.03349
1.02152
1.00834
0.99526
0.983245
0.972867
0.964358
0.957709
0.952816
0.949459
1.05141
1.05331
1.0529
1.05006
1.04372
1.03398
1.02163
1.00808
0.99469
0.982458
0.97194
0.963355
0.956676
0.95178
0.94844
1.05246
1.05443
1.05404
1.05112
1.04456
1.03446
1.02171
1.00778
0.994085
0.981635
0.970981
0.962324
0.955618
0.950725
0.947404
1.05353
1.05558
1.0552
1.0522
1.04541
1.03495
1.02177
1.00745
0.993443
0.980776
0.969989
0.961264
0.954536
0.949649
0.946352
1.05463
1.05676
1.05641
1.05331
1.04627
1.03542
1.02181
1.00708
0.992762
0.979879
0.968962
0.960175
0.953429
0.948553
0.945282
1.05576
1.05798
1.05764
1.05445
1.04714
1.03589
1.02182
1.00668
0.992041
0.978943
0.967901
0.959056
0.952297
0.947436
0.944195
1.05693
1.05922
1.05891
1.05562
1.04803
1.03635
1.0218
1.00624
0.991276
0.977965
0.966803
0.957905
0.95114
0.946298
0.943091
1.05812
1.06051
1.06022
1.05682
1.04892
1.0368
1.02175
1.00575
0.990467
0.976946
0.965669
0.956724
0.949957
0.945139
0.941969
1.05934
1.06183
1.06157
1.05804
1.04983
1.03723
1.02167
1.00522
0.989611
0.975883
0.964496
0.955511
0.948748
0.943959
0.94083
1.0606
1.06319
1.06295
1.0593
1.05074
1.03764
1.02155
1.00465
0.988706
0.974775
0.963284
0.954266
0.947513
0.942757
0.939674
1.0619
1.06459
1.06438
1.06058
1.05167
1.03804
1.02139
1.00402
0.987748
0.973619
0.962033
0.952988
0.94625
0.941534
0.9385
1.06323
1.06603
1.06584
1.0619
1.0526
1.03841
1.02119
1.00334
0.986738
0.972416
0.96074
0.951676
0.944961
0.940289
0.937308
1.06459
1.06751
1.06736
1.06325
1.05353
1.03876
1.02093
1.0026
0.98567
0.971162
0.959406
0.95033
0.943645
0.939022
0.936098
1.066
1.06904
1.06891
1.06463
1.05446
1.03907
1.02062
1.0018
0.984544
0.969857
0.958029
0.948951
0.942301
0.937733
0.934871
1.06745
1.07062
1.07052
1.06604
1.0554
1.03935
1.02026
1.00093
0.983357
0.968499
0.956608
0.947536
0.94093
0.936422
0.933626
1.06894
1.07224
1.07217
1.06749
1.05633
1.0396
1.01984
0.999998
0.982106
0.967087
0.955144
0.946086
0.939531
0.935089
0.932363
1.07047
1.07391
1.07388
1.06896
1.05726
1.0398
1.01934
0.998993
0.980789
0.965619
0.953634
0.9446
0.938104
0.933734
0.931083
1.07205
1.07564
1.07564
1.07047
1.05817
1.03995
1.01878
0.997912
0.979404
0.964094
0.952079
0.943079
0.936648
0.932356
0.929785
1.07367
1.07743
1.07745
1.07201
1.05908
1.04004
1.01814
0.996752
0.977947
0.96251
0.950477
0.941521
0.935165
0.930957
0.928469
1.07535
1.07927
1.07932
1.07357
1.05996
1.04008
1.01742
0.995507
0.976417
0.960866
0.948828
0.939927
0.933653
0.929535
0.927135
1.07708
1.08117
1.08125
1.07517
1.06083
1.04004
1.0166
0.994174
0.974811
0.959161
0.947131
0.938297
0.932114
0.928091
0.925784
1.07886
1.08314
1.08324
1.07679
1.06166
1.03993
1.01569
0.99275
0.973127
0.957394
0.945387
0.93663
0.930546
0.926626
0.924416
1.08069
1.08518
1.0853
1.07843
1.06246
1.03974
1.01468
0.991228
0.971362
0.955563
0.943593
0.934926
0.92895
0.925139
0.92303
1.08259
1.08728
1.08742
1.0801
1.06321
1.03945
1.01356
0.989607
0.969515
0.953669
0.941752
0.933185
0.927326
0.92363
0.921627
1.08454
1.08947
1.0896
1.08178
1.06392
1.03907
1.01233
0.98788
0.967582
0.951708
0.93986
0.931407
0.925674
0.922099
0.920207
1.08657
1.09173
1.09186
1.08348
1.06456
1.03857
1.01097
0.986045
0.965564
0.949682
0.937921
0.929594
0.923995
0.920548
0.91877
1.08865
1.09407
1.09419
1.08519
1.06513
1.03795
1.00948
0.984096
0.963456
0.94759
0.935931
0.927743
0.922288
0.918975
0.917317
1.09081
1.0965
1.09659
1.0869
1.06563
1.0372
1.00786
0.982032
0.961259
0.945431
0.933894
0.925857
0.920555
0.917382
0.915847
1.09304
1.09903
1.09906
1.0886
1.06603
1.0363
1.00608
0.979846
0.958971
0.943204
0.931807
0.923936
0.918795
0.915768
0.914362
1.09536
1.10165
1.10161
1.0903
1.06632
1.03525
1.00416
0.977538
0.95659
0.94091
0.929672
0.921979
0.917009
0.914135
0.912861
1.09775
1.10438
1.10423
1.09197
1.06649
1.03403
1.00207
0.975102
0.954116
0.938549
0.927488
0.919988
0.915197
0.912482
0.911344
1.10023
1.10721
1.10692
1.09362
1.06653
1.03263
0.99982
0.972537
0.951548
0.936122
0.925258
0.917963
0.913361
0.91081
0.909813
1.1028
1.11016
1.10968
1.09522
1.06641
1.03103
0.997391
0.96984
0.948885
0.933628
0.922982
0.915905
0.9115
0.90912
0.908267
1.10546
1.11324
1.11252
1.09675
1.06612
1.02922
0.994782
0.967009
0.946129
0.931069
0.92066
0.913815
0.909616
0.907411
0.906706
1.10823
1.11644
1.11542
1.09822
1.06563
1.02718
0.991984
0.964043
0.943279
0.928445
0.918294
0.911693
0.907709
0.905685
0.905132
1.11111
1.11977
1.11838
1.09959
1.06492
1.02491
0.988993
0.960941
0.940337
0.925758
0.915884
0.909542
0.90578
0.903942
0.903545
1.1141
1.12326
1.1214
1.10084
1.06398
1.02238
0.985803
0.957703
0.937302
0.92301
0.913434
0.907361
0.903829
0.902183
0.901945
1.11721
1.12689
1.12446
1.10196
1.06277
1.01958
0.982411
0.954329
0.934179
0.920202
0.910943
0.905154
0.901859
0.900408
0.900332
1.12046
1.13068
1.12755
1.1029
1.06127
1.0165
0.978813
0.950821
0.930967
0.917336
0.908414
0.90292
0.899869
0.898618
0.898707
1.12385
1.13463
1.13067
1.10365
1.05945
1.01312
0.975007
0.947181
0.92767
0.914415
0.905849
0.900661
0.897862
0.896815
0.897071
1.12739
1.13876
1.13379
1.10417
1.05729
1.00944
0.970993
0.943411
0.92429
0.91144
0.903251
0.898379
0.895837
0.894998
0.895425
1.1311
1.14306
1.13689
1.10442
1.05475
1.00543
0.966772
0.939515
0.920832
0.908417
0.90062
0.896076
0.893797
0.893169
0.893768
1.13498
1.14754
1.13995
1.10436
1.0518
1.0011
0.962346
0.935498
0.917299
0.905346
0.89796
0.893753
0.891742
0.891328
0.892101
1.13905
1.15222
1.14294
1.10395
1.04841
0.996435
0.95772
0.931366
0.913695
0.902232
0.895274
0.891412
0.889675
0.889477
0.890425
1.14333
1.15707
1.14582
1.10313
1.04456
0.991428
0.952899
0.927123
0.910025
0.899079
0.892564
0.889055
0.887595
0.887616
0.888741
1.14783
1.16212
1.14855
1.10187
1.04022
0.986079
0.947892
0.922779
0.906295
0.89589
0.889833
0.886685
0.885505
0.885747
0.887049
1.15258
1.16735
1.15108
1.10009
1.03536
0.98039
0.942708
0.91834
0.902508
0.89267
0.887085
0.884303
0.883406
0.88387
0.88535
1.15759
1.17275
1.15336
1.09775
1.02995
0.974365
0.937361
0.913815
0.898673
0.889423
0.884322
0.881911
0.8813
0.881986
0.883645
1.1629
1.17832
1.15533
1.09479
1.02397
0.968016
0.931863
0.909213
0.894793
0.886154
0.881547
0.879512
0.879188
0.880097
0.881933
1.16852
1.18402
1.15691
1.09113
1.01741
0.961355
0.92623
0.904544
0.890878
0.882868
0.878765
0.877108
0.877071
0.878203
0.880216
1.17449
1.18984
1.15802
1.08672
1.01026
0.954402
0.920481
0.899817
0.886932
0.87957
0.875979
0.874702
0.874952
0.876306
0.878494
1.18084
1.19574
1.15858
1.08149
1.00251
0.947181
0.914634
0.895043
0.882963
0.876266
0.873192
0.872296
0.872832
0.874407
0.876769
1.18761
1.20167
1.15847
1.07538
0.994163
0.939721
0.908708
0.890232
0.878979
0.87296
0.870408
0.869892
0.870714
0.872508
0.87504
1.19481
1.20757
1.15761
1.06834
0.985238
0.932057
0.902724
0.885396
0.874987
0.86966
0.867631
0.867493
0.868597
0.870608
0.873308
1.20251
1.21336
1.15585
1.0603
0.975757
0.924228
0.896704
0.880543
0.870996
0.866369
0.864864
0.865101
0.866486
0.868709
0.871573
1.21073
1.21896
1.15309
1.05123
0.965757
0.916276
0.890667
0.875686
0.867012
0.863096
0.862112
0.86272
0.86438
0.866813
0.869837
1.21951
1.22426
1.14918
1.04109
0.955287
0.908249
0.884633
0.870834
0.863046
0.859845
0.859379
0.860351
0.862283
0.864921
0.868098
1.22889
1.22911
1.14398
1.02985
0.944413
0.900195
0.878622
0.865997
0.859106
0.856622
0.856667
0.857999
0.860195
0.863032
0.866359
1.2389
1.23337
1.13734
1.01753
0.933211
0.892164
0.87265
0.861187
0.855201
0.853435
0.853983
0.855664
0.85812
0.86115
0.864618
1.24957
1.23684
1.12912
1.00413
0.921775
0.884203
0.866732
0.856413
0.85134
0.850288
0.851328
0.853351