/*--------------------------------*- C++ -*----------------------------------*\
  =========                 |
  \\      /  F ield         | OpenFOAM: The Open Source CFD Toolbox
   \\    /   O peration     | Website:  https://openfoam.org
    \\  /    A nd           | Version:  6.0
     \\/     M anipulation  |
\*---------------------------------------------------------------------------*/
FoamFile
{
    version     2.0;
    format      ascii;
    class       volScalarField;
    location    "0.4";
    object      p;
}
// * * * * * * * * * * * * * * * * * * * * * * * * * * * * * * * * * * * * * //

dimensions      [0 2 -2 0 0 0 0];

internalField   nonuniform List<scalar> 
24000
(
1.00634
1.00607
1.00551
1.00471
1.00381
1.00293
1.00214
1.00144
1.00085
1.00038
1.00002
0.999798
1.00634
1.00612
1.00564
1.00493
1.00409
1.00323
1.00243
1.00167
1.00099
1.00043
0.999955
0.999652
1.00634
1.0061
1.00559
1.00485
1.00396
1.00306
1.00223
1.00146
1.0008
1.00028
0.999834
0.999575
1.00634
1.00609
1.00556
1.0048
1.0039
1.00298
1.00214
1.00138
1.00074
1.00024
0.999798
0.999545
1.00635
1.00609
1.00557
1.00484
1.00396
1.00306
1.00223
1.00148
1.00082
1.0003
0.999813
0.99952
1.00635
1.0061
1.00559
1.00488
1.00402
1.00314
1.00231
1.00155
1.00088
1.00033
0.999802
0.999471
1.00635
1.0061
1.00559
1.00488
1.00403
1.00314
1.00231
1.00154
1.00086
1.00029
0.999749
0.9994
1.00636
1.0061
1.00558
1.00486
1.00401
1.00312
1.00228
1.0015
1.00081
1.00024
0.999685
0.99933
1.00637
1.0061
1.00557
1.00486
1.004
1.00311
1.00226
1.00147
1.00077
1.00019
0.999632
0.99927
1.00637
1.00611
1.00558
1.00486
1.00401
1.00311
1.00226
1.00146
1.00075
1.00016
0.999593
0.999217
1.00638
1.00612
1.00558
1.00486
1.00401
1.00312
1.00227
1.00147
1.00075
1.00014
0.999558
0.999166
1.00639
1.00613
1.00559
1.00487
1.00402
1.00313
1.00228
1.00147
1.00074
1.00012
0.999522
0.999115
1.0064
1.00615
1.00561
1.00488
1.00402
1.00313
1.00228
1.00146
1.00072
1.0001
0.999484
0.999063
1.00641
1.00616
1.00563
1.00489
1.00403
1.00314
1.00227
1.00145
1.00071
1.00007
0.999445
0.999013
1.00642
1.00618
1.00565
1.00491
1.00405
1.00315
1.00228
1.00145
1.00069
1.00004
0.999409
0.998965
1.00643
1.0062
1.00567
1.00493
1.00407
1.00316
1.00229
1.00145
1.00068
1.00002
0.999374
0.998919
1.00645
1.00622
1.00569
1.00496
1.0041
1.00318
1.0023
1.00145
1.00067
0.999996
0.99934
0.998872
1.00646
1.00624
1.00571
1.00498
1.00412
1.0032
1.00231
1.00145
1.00066
0.999973
0.999304
0.998826
1.00648
1.00625
1.00573
1.005
1.00414
1.00322
1.00232
1.00145
1.00065
0.999947
0.999268
0.998779
1.00649
1.00627
1.00574
1.00502
1.00416
1.00324
1.00233
1.00145
1.00063
0.99992
0.999232
0.998734
1.00651
1.00629
1.00576
1.00504
1.00417
1.00325
1.00233
1.00144
1.00062
0.999893
0.999196
0.998689
1.00652
1.0063
1.00578
1.00506
1.00419
1.00326
1.00234
1.00144
1.00061
0.999866
0.99916
0.998644
1.00654
1.00632
1.00579
1.00507
1.00421
1.00327
1.00234
1.00144
1.00059
0.99984
0.999125
0.9986
1.00656
1.00634
1.00581
1.00509
1.00422
1.00329
1.00235
1.00143
1.00058
0.999813
0.999089
0.998555
1.00658
1.00636
1.00583
1.00511
1.00424
1.0033
1.00236
1.00143
1.00056
0.999786
0.999052
0.99851
1.00659
1.00638
1.00585
1.00513
1.00426
1.00331
1.00236
1.00143
1.00055
0.999757
0.999014
0.998465
1.00662
1.0064
1.00587
1.00515
1.00428
1.00332
1.00237
1.00142
1.00053
0.999726
0.998975
0.998418
1.00664
1.00642
1.00589
1.00517
1.00429
1.00333
1.00237
1.00141
1.00051
0.999694
0.998935
0.998372
1.00666
1.00644
1.0059
1.00518
1.00431
1.00334
1.00237
1.0014
1.00049
0.99966
0.998894
0.998324
1.00668
1.00646
1.00592
1.0052
1.00432
1.00335
1.00237
1.00139
1.00047
0.999627
0.998852
0.998278
1.00671
1.00648
1.00594
1.00522
1.00433
1.00336
1.00237
1.00138
1.00044
0.999592
0.99881
0.99823
1.00674
1.00651
1.00596
1.00524
1.00435
1.00337
1.00237
1.00137
1.00042
0.999558
0.998769
0.998183
1.00676
1.00654
1.00599
1.00526
1.00436
1.00337
1.00237
1.00136
1.0004
0.999524
0.998727
0.998136
1.00679
1.00656
1.00601
1.00528
1.00438
1.00338
1.00237
1.00135
1.00038
0.999491
0.998685
0.998088
1.00682
1.00659
1.00604
1.0053
1.00439
1.00339
1.00237
1.00134
1.00036
0.999457
0.998643
0.99804
1.00685
1.00663
1.00607
1.00533
1.00442
1.00341
1.00237
1.00133
1.00034
0.999424
0.998601
0.997992
1.00689
1.00666
1.00611
1.00536
1.00444
1.00342
1.00238
1.00132
1.00032
0.999391
0.998559
0.997943
1.00692
1.00669
1.00614
1.00539
1.00446
1.00344
1.00238
1.00132
1.0003
0.999357
0.998516
0.997894
1.00695
1.00673
1.00617
1.00542
1.00449
1.00345
1.00239
1.00131
1.00027
0.999323
0.998471
0.997844
1.00699
1.00676
1.00621
1.00545
1.00451
1.00347
1.00239
1.0013
1.00025
0.999288
0.998427
0.997794
1.00702
1.0068
1.00624
1.00548
1.00454
1.00349
1.0024
1.00129
1.00023
0.999252
0.998382
0.997742
1.00706
1.00683
1.00628
1.00551
1.00456
1.0035
1.0024
1.00129
1.00021
0.999216
0.998336
0.997691
1.0071
1.00687
1.00631
1.00555
1.00459
1.00352
1.00241
1.00128
1.00019
0.999179
0.998289
0.997638
1.00714
1.00691
1.00634
1.00558
1.00461
1.00353
1.00241
1.00127
1.00016
0.999142
0.998241
0.997585
1.00717
1.00695
1.00638
1.00561
1.00464
1.00355
1.00241
1.00126
1.00014
0.999103
0.998193
0.997531
1.00721
1.00699
1.00642
1.00564
1.00466
1.00357
1.00242
1.00125
1.00011
0.999065
0.998144
0.997477
1.00725
1.00703
1.00645
1.00567
1.00469
1.00358
1.00242
1.00123
1.00009
0.999025
0.998093
0.997421
1.0073
1.00707
1.00649
1.00571
1.00471
1.0036
1.00242
1.00122
1.00006
0.998985
0.998043
0.997365
1.00734
1.00711
1.00653
1.00574
1.00474
1.00361
1.00243
1.00121
1.00003
0.998944
0.997991
0.997308
1.00738
1.00715
1.00657
1.00577
1.00477
1.00363
1.00243
1.0012
1.00001
0.998902
0.997939
0.997251
1.00743
1.0072
1.00661
1.00581
1.00479
1.00364
1.00243
1.00118
0.999978
0.99886
0.997886
0.997192
1.00748
1.00724
1.00665
1.00584
1.00482
1.00366
1.00243
1.00117
0.99995
0.998817
0.997833
0.997133
1.00752
1.00729
1.00669
1.00588
1.00485
1.00367
1.00243
1.00116
0.999921
0.998774
0.997779
0.997072
1.00757
1.00734
1.00674
1.00592
1.00488
1.00369
1.00244
1.00114
0.999893
0.998732
0.997725
0.997011
1.00762
1.00739
1.00679
1.00596
1.00491
1.00371
1.00244
1.00113
0.999865
0.998688
0.997671
0.996949
1.00767
1.00745
1.00683
1.006
1.00494
1.00373
1.00244
1.00112
0.999837
0.998646
0.997617
0.996886
1.00773
1.0075
1.00688
1.00605
1.00497
1.00375
1.00245
1.00111
0.999808
0.998602
0.997562
0.996822
1.00778
1.00756
1.00694
1.00609
1.00501
1.00377
1.00245
1.0011
0.999781
0.998558
0.997506
0.996757
1.00784
1.00761
1.00699
1.00614
1.00504
1.00379
1.00246
1.00109
0.999752
0.998514
0.99745
0.996691
1.00789
1.00767
1.00704
1.00619
1.00508
1.00381
1.00247
1.00107
0.999724
0.99847
0.997393
0.996624
1.00795
1.00773
1.0071
1.00624
1.00512
1.00384
1.00247
1.00106
0.999695
0.998424
0.997335
0.996555
1.00801
1.00779
1.00715
1.00629
1.00516
1.00386
1.00248
1.00105
0.999666
0.998379
0.997276
0.996487
1.00807
1.00785
1.00721
1.00634
1.00519
1.00389
1.00249
1.00104
0.999635
0.998332
0.997216
0.996416
1.00813
1.00792
1.00727
1.00639
1.00523
1.00391
1.00249
1.00103
0.999605
0.998285
0.997156
0.996346
1.0082
1.00798
1.00733
1.00644
1.00527
1.00393
1.0025
1.00102
0.999575
0.998237
0.997094
0.996273
1.00826
1.00805
1.00739
1.00649
1.00531
1.00396
1.00251
1.001
0.999544
0.998189
0.997032
0.996201
1.00833
1.00811
1.00745
1.00655
1.00536
1.00398
1.00251
1.00099
0.999512
0.99814
0.996968
0.996127
1.0084
1.00818
1.00751
1.0066
1.0054
1.00401
1.00252
1.00098
0.999481
0.998091
0.996904
0.996052
1.00847
1.00825
1.00757
1.00666
1.00544
1.00404
1.00253
1.00097
0.999448
0.998041
0.996839
0.995975
1.00854
1.00833
1.00764
1.00671
1.00548
1.00406
1.00254
1.00095
0.999417
0.997991
0.996774
0.995898
1.00862
1.0084
1.0077
1.00677
1.00553
1.00409
1.00255
1.00094
0.999384
0.99794
0.996707
0.995819
1.00869
1.00847
1.00777
1.00683
1.00557
1.00412
1.00255
1.00093
0.999352
0.997889
0.99664
0.995738
1.00877
1.00855
1.00784
1.00689
1.00562
1.00415
1.00256
1.00092
0.999319
0.997837
0.996572
0.995656
1.00885
1.00863
1.00791
1.00696
1.00567
1.00418
1.00257
1.00091
0.999287
0.997785
0.996504
0.995572
1.00893
1.00871
1.00799
1.00702
1.00572
1.00421
1.00258
1.00089
0.999255
0.997732
0.996434
0.995486
1.00901
1.00879
1.00806
1.00709
1.00577
1.00425
1.0026
1.00088
0.999223
0.99768
0.996363
0.995399
1.0091
1.00888
1.00814
1.00716
1.00583
1.00428
1.00261
1.00088
0.99919
0.997626
0.996291
0.99531
1.00918
1.00896
1.00822
1.00723
1.00588
1.00432
1.00262
1.00087
0.999159
0.997572
0.996219
0.995219
1.00927
1.00905
1.0083
1.0073
1.00594
1.00436
1.00264
1.00086
0.999126
0.997517
0.996144
0.995126
1.00936
1.00914
1.00838
1.00738
1.006
1.0044
1.00265
1.00085
0.999094
0.997461
0.996068
0.995031
1.00945
1.00923
1.00847
1.00745
1.00606
1.00444
1.00267
1.00084
0.999061
0.997404
0.995991
0.994934
1.00955
1.00932
1.00855
1.00753
1.00612
1.00448
1.00269
1.00084
0.999028
0.997347
0.995912
0.994835
1.00964
1.00942
1.00864
1.00761
1.00618
1.00452
1.00271
1.00083
0.998994
0.997288
0.99583
0.994734
1.00974
1.00952
1.00873
1.00769
1.00625
1.00457
1.00273
1.00082
0.99896
0.997228
0.995748
0.99463
1.00984
1.00962
1.00882
1.00778
1.00631
1.00461
1.00275
1.00081
0.998925
0.997167
0.995663
0.994525
1.00994
1.00972
1.00892
1.00786
1.00638
1.00466
1.00277
1.00081
0.99889
0.997104
0.995577
0.994417
1.01004
1.00982
1.00901
1.00795
1.00645
1.00471
1.00279
1.0008
0.998854
0.99704
0.995488
0.994306
1.01015
1.00993
1.00911
1.00804
1.00652
1.00476
1.00281
1.00079
0.998817
0.996975
0.995398
0.994194
1.01025
1.01003
1.00921
1.00813
1.00659
1.00481
1.00283
1.00079
0.99878
0.996909
0.995306
0.994079
1.01036
1.01014
1.00931
1.00822
1.00666
1.00486
1.00286
1.00078
0.998742
0.996841
0.995211
0.993962
1.01047
1.01026
1.00942
1.00831
1.00674
1.00491
1.00288
1.00077
0.998703
0.996771
0.995115
0.993841
1.01059
1.01037
1.00952
1.00841
1.00682
1.00497
1.0029
1.00077
0.998663
0.996701
0.995016
0.993719
1.0107
1.01049
1.00963
1.00851
1.0069
1.00502
1.00293
1.00076
0.998623
0.996628
0.994915
0.993594
1.01082
1.01061
1.00975
1.00861
1.00698
1.00508
1.00296
1.00076
0.998582
0.996554
0.994813
0.993467
1.01094
1.01073
1.00986
1.00872
1.00707
1.00514
1.00298
1.00075
0.99854
0.996479
0.994707
0.993336
1.01106
1.01085
1.00998
1.00883
1.00715
1.0052
1.00301
1.00074
0.998497
0.996402
0.994601
0.993204
1.01118
1.01098
1.0101
1.00894
1.00724
1.00526
1.00304
1.00073
0.998454
0.996323
0.994491
0.993068
1.01131
1.01111
1.01022
1.00905
1.00733
1.00533
1.00307
1.00073
0.99841
0.996243
0.994379
0.99293
1.01144
1.01124
1.01034
1.00916
1.00743
1.00539
1.0031
1.00072
0.998364
0.996161
0.994265
0.992788
1.01157
1.01138
1.01047
1.00928
1.00752
1.00546
1.00313
1.00071
0.998318
0.996078
0.994148
0.992644
1.01171
1.01152
1.0106
1.0094
1.00762
1.00553
1.00316
1.00071
0.99827
0.995992
0.994029
0.992497
1.01185
1.01166
1.01074
1.00952
1.00772
1.0056
1.0032
1.0007
0.998222
0.995905
0.993907
0.992347
1.01199
1.0118
1.01087
1.00965
1.00782
1.00567
1.00323
1.00069
0.998172
0.995815
0.993782
0.992193
1.01213
1.01195
1.01101
1.00977
1.00792
1.00574
1.00326
1.00068
0.998122
0.995724
0.993656
0.992037
1.01228
1.0121
1.01115
1.0099
1.00803
1.00581
1.0033
1.00067
0.998069
0.99563
0.993526
0.991877
1.01242
1.01225
1.0113
1.01003
1.00814
1.00589
1.00333
1.00067
0.998016
0.995534
0.993393
0.991715
1.01258
1.01241
1.01145
1.01017
1.00825
1.00596
1.00337
1.00066
0.997961
0.995436
0.993258
0.991549
1.01273
1.01257
1.0116
1.0103
1.00836
1.00604
1.0034
1.00065
0.997905
0.995337
0.99312
0.99138
1.01289
1.01273
1.01175
1.01044
1.00847
1.00612
1.00344
1.00063
0.997847
0.995234
0.992979
0.991208
1.01305
1.01289
1.01191
1.01059
1.00859
1.0062
1.00347
1.00062
0.997789
0.99513
0.992835
0.991033
1.01322
1.01306
1.01207
1.01073
1.0087
1.00628
1.00351
1.00061
0.997728
0.995024
0.992688
0.990853
1.01338
1.01323
1.01223
1.01088
1.00882
1.00636
1.00355
1.0006
0.997666
0.994915
0.992539
0.990671
1.01356
1.0134
1.01239
1.01103
1.00894
1.00645
1.00359
1.00059
0.997603
0.994804
0.992386
0.990485
1.01373
1.01358
1.01256
1.01118
1.00907
1.00653
1.00362
1.00058
0.997538
0.99469
0.99223
0.990296
1.01391
1.01376
1.01274
1.01134
1.0092
1.00662
1.00366
1.00056
0.997472
0.994574
0.992071
0.990103
1.01409
1.01395
1.01291
1.0115
1.00933
1.00671
1.0037
1.00055
0.997404
0.994456
0.991909
0.989907
1.01427
1.01414
1.01309
1.01166
1.00946
1.0068
1.00374
1.00053
0.997334
0.994335
0.991744
0.989706
1.01446
1.01433
1.01327
1.01183
1.00959
1.0069
1.00378
1.00052
0.997263
0.994212
0.991575
0.989502
1.01466
1.01452
1.01346
1.012
1.00973
1.00699
1.00382
1.0005
0.99719
0.994085
0.991403
0.989294
1.01485
1.01472
1.01365
1.01217
1.00987
1.00709
1.00387
1.00049
0.997115
0.993957
0.991228
0.989082
1.01505
1.01493
1.01385
1.01235
1.01001
1.00718
1.00391
1.00047
0.997038
0.993825
0.991048
0.988866
1.01525
1.01513
1.01404
1.01253
1.01016
1.00728
1.00395
1.00045
0.99696
0.99369
0.990866
0.988646
1.01546
1.01535
1.01425
1.01271
1.01031
1.00739
1.00399
1.00043
0.996879
0.993552
0.990679
0.988422
1.01567
1.01556
1.01445
1.0129
1.01046
1.00749
1.00404
1.00042
0.996796
0.993411
0.990489
0.988193
1.01589
1.01578
1.01466
1.01309
1.01061
1.00759
1.00408
1.00039
0.996711
0.993267
0.990294
0.98796
1.01611
1.01601
1.01488
1.01328
1.01077
1.0077
1.00413
1.00037
0.996624
0.99312
0.990096
0.987723
1.01633
1.01624
1.0151
1.01348
1.01093
1.00781
1.00417
1.00035
0.996533
0.992969
0.989893
0.987481
1.01656
1.01647
1.01532
1.01368
1.01109
1.00792
1.00422
1.00033
0.996442
0.992815
0.989687
0.987234
1.01679
1.01671
1.01555
1.01389
1.01126
1.00803
1.00426
1.0003
0.996347
0.992657
0.989476
0.986982
1.01703
1.01695
1.01578
1.0141
1.01143
1.00815
1.00431
1.00028
0.99625
0.992496
0.989261
0.986726
1.01727
1.0172
1.01602
1.01432
1.0116
1.00826
1.00435
1.00025
0.99615
0.992331
0.98904
0.986465
1.01752
1.01746
1.01626
1.01454
1.01178
1.00838
1.0044
1.00022
0.996048
0.992162
0.988816
0.986199
1.01777
1.01771
1.01651
1.01476
1.01196
1.0085
1.00445
1.00019
0.995943
0.991989
0.988587
0.985926
1.01803
1.01798
1.01676
1.01499
1.01214
1.00862
1.0045
1.00016
0.995836
0.991813
0.988353
0.98565
1.01829
1.01825
1.01702
1.01523
1.01233
1.00875
1.00454
1.00013
0.995724
0.991631
0.988113
0.985366
1.01856
1.01852
1.01729
1.01546
1.01252
1.00888
1.00459
1.0001
0.995611
0.991446
0.987869
0.985078
1.01883
1.01881
1.01755
1.01571
1.01271
1.00901
1.00464
1.00006
0.995493
0.991256
0.987619
0.984784
1.01911
1.01909
1.01783
1.01596
1.01291
1.00914
1.00469
1.00003
0.995373
0.991062
0.987365
0.984484
1.0194
1.01939
1.01811
1.01621
1.01311
1.00927
1.00474
0.999986
0.995249
0.990863
0.987103
0.984177
1.01969
1.01969
1.0184
1.01647
1.01332
1.00941
1.00479
0.999946
0.995122
0.990659
0.986837
0.983865
1.01998
1.01999
1.01869
1.01674
1.01353
1.00955
1.00484
0.999904
0.99499
0.990449
0.986564
0.983546
1.02029
1.0203
1.01899
1.01701
1.01375
1.00969
1.00489
0.99986
0.994855
0.990235
0.986286
0.98322
1.0206
1.02062
1.0193
1.01729
1.01397
1.00983
1.00494
0.999812
0.994715
0.990015
0.986001
0.982887
1.02091
1.02095
1.01961
1.01757
1.01419
1.00998
1.00499
0.999764
0.994572
0.98979
0.985709
0.982548
1.02123
1.02128
1.01993
1.01786
1.01442
1.01012
1.00504
0.999712
0.994424
0.989558
0.985411
0.982201
1.02156
1.02162
1.02026
1.01815
1.01466
1.01027
1.00509
0.999658
0.994272
0.989321
0.985106
0.981848
1.0219
1.02197
1.0206
1.01846
1.0149
1.01043
1.00514
0.999601
0.994114
0.989077
0.984793
0.981486
1.02225
1.02233
1.02094
1.01877
1.01514
1.01058
1.00519
0.999542
0.993952
0.988827
0.984474
0.981117
1.0226
1.02269
1.02129
1.01908
1.01539
1.01074
1.00524
0.999479
0.993784
0.98857
0.984147
0.980739
1.02296
1.02306
1.02165
1.0194
1.01565
1.0109
1.00529
0.999413
0.993612
0.988306
0.983812
0.980354
1.02332
1.02344
1.02202
1.01973
1.0159
1.01106
1.00533
0.999343
0.993433
0.988035
0.983469
0.97996
1.0237
1.02383
1.02239
1.02007
1.01617
1.01123
1.00538
0.999271
0.993249
0.987757
0.983118
0.979558
1.02408
1.02423
1.02277
1.02042
1.01644
1.0114
1.00543
0.999193
0.993058
0.987471
0.982758
0.979146
1.02448
1.02463
1.02317
1.02077
1.01672
1.01157
1.00547
0.999113
0.992861
0.987178
0.98239
0.978726
1.02488
1.02505
1.02357
1.02113
1.017
1.01174
1.00552
0.999027
0.992657
0.986875
0.982011
0.978296
1.02529
1.02548
1.02398
1.0215
1.01729
1.01192
1.00556
0.998938
0.992448
0.986565
0.981625
0.977857
1.02571
1.02591
1.0244
1.02188
1.01758
1.01209
1.0056
0.998844
0.992229
0.986245
0.981228
0.977407
1.02614
1.02636
1.02483
1.02227
1.01788
1.01228
1.00565
0.998745
0.992005
0.985917
0.980822
0.976948
1.02658
1.02681
1.02528
1.02266
1.01819
1.01246
1.00568
0.99864
0.991771
0.985579
0.980405
0.976477
1.02703
1.02728
1.02573
1.02307
1.0185
1.01264
1.00572
0.99853
0.99153
0.985231
0.979978
0.975997
1.02748
1.02776
1.02619
1.02348
1.01882
1.01283
1.00576
0.998414
0.99128
0.984873
0.979539
0.975504
1.02796
1.02825
1.02667
1.02391
1.01915
1.01302
1.00579
0.998292
0.991021
0.984504
0.97909
0.975001
1.02844
1.02875
1.02715
1.02434
1.01948
1.01321
1.00582
0.998162
0.990752
0.984124
0.978628
0.974486
1.02893
1.02926
1.02765
1.02479
1.01982
1.01341
1.00585
0.998026
0.990475
0.983733
0.978155
0.973959
1.02943
1.02979
1.02817
1.02525
1.02017
1.0136
1.00587
0.997882
0.990185
0.98333
0.977669
0.973419
1.02995
1.03033
1.02869
1.02571
1.02052
1.0138
1.00589
0.997731
0.989886
0.982915
0.97717
0.972868
1.03048
1.03088
1.02923
1.02619
1.02089
1.014
1.00591
0.997571
0.989575
0.982487
0.976658
0.972302
1.03102
1.03145
1.02978
1.02668
1.02126
1.0142
1.00592
0.997402
0.989253
0.982046
0.976133
0.971724
1.03157
1.03203
1.03035
1.02719
1.02163
1.0144
1.00593
0.997224
0.988918
0.98159
0.975593
0.971131
1.03214
1.03263
1.03093
1.0277
1.02202
1.01461
1.00593
0.997036
0.988571
0.981122
0.975039
0.970524
1.03273
1.03324
1.03152
1.02823
1.02241
1.01481
1.00592
0.996837
0.988209
0.980637
0.974469
0.969902
1.03332
1.03387
1.03214
1.02877
1.02281
1.01501
1.00592
0.996627
0.987834
0.980138
0.973885
0.969266
1.03393
1.03452
1.03276
1.02933
1.02322
1.01522
1.0059
0.996405
0.987444
0.979622
0.973283
0.968613
1.03456
1.03518
1.03341
1.02989
1.02363
1.01542
1.00588
0.996171
0.987038
0.97909
0.972666
0.967946
1.03521
1.03586
1.03407
1.03048
1.02406
1.01563
1.00584
0.995923
0.986616
0.978541
0.972031
0.967261
1.03587
1.03656
1.03475
1.03108
1.02449
1.01583
1.0058
0.995662
0.986178
0.977974
0.971379
0.96656
1.03655
1.03727
1.03546
1.03169
1.02493
1.01604
1.00575
0.995384
0.985721
0.977388
0.970708
0.965841
1.03724
1.03801
1.03618
1.03232
1.02538
1.01624
1.0057
0.995092
0.985246
0.976783
0.97002
0.965105
1.03796
1.03877
1.03692
1.03297
1.02583
1.01644
1.00562
0.994782
0.984751
0.976158
0.96931
0.964349
1.03869
1.03955
1.03768
1.03363
1.0263
1.01663
1.00554
0.994456
0.984237
0.975512
0.968582
0.963576
1.03945
1.04035
1.03846
1.03431
1.02677
1.01683
1.00545
0.994109
0.9837
0.974845
0.967832
0.962782
1.04022
1.04117
1.03927
1.03501
1.02725
1.01702
1.00534
0.993744
0.983141
0.974155
0.967062
0.96197
1.04102
1.04202
1.0401
1.03572
1.02774
1.0172
1.00521
0.993356
0.982559
0.973442
0.966268
0.961136
1.04184
1.04289
1.04095
1.03646
1.02823
1.01738
1.00507
0.992947
0.981953
0.972705
0.965453
0.960281
1.04268
1.04379
1.04183
1.03721
1.02873
1.01755
1.00491
0.992513
0.98132
0.971942
0.964613
0.959404
1.04355
1.04472
1.04274
1.03799
1.02924
1.01771
1.00473
0.992054
0.980661
0.971154
0.96375
0.958506
1.04444
1.04567
1.04367
1.03878
1.02975
1.01786
1.00453
0.991568
0.979973
0.970338
0.962861
0.957584
1.04536
1.04666
1.04464
1.0396
1.03028
1.01801
1.00431
0.991055
0.979257
0.969495
0.961948
0.95664
1.04631
1.04767
1.04563
1.04044
1.0308
1.01814
1.00407
0.99051
0.978509
0.968622
0.961007
0.95567
1.04728
1.04872
1.04666
1.04129
1.03133
1.01825
1.00379
0.989935
0.97773
0.96772
0.960039
0.954677
1.04828
1.0498
1.04772
1.04218
1.03186
1.01835
1.00349
0.989325
0.976916
0.966786
0.959042
0.953657
1.04932
1.05091
1.04881
1.04308
1.0324
1.01844
1.00316
0.98868
0.976068
0.96582
0.958017
0.952612
1.05039
1.05206
1.04994
1.04401
1.03294
1.0185
1.00279
0.987997
0.975182
0.96482
0.956962
0.95154
1.05149
1.05325
1.0511
1.04496
1.03347
1.01854
1.00239
0.987274
0.974258
0.963786
0.955876
0.95044
1.05262
1.05448
1.0523
1.04593
1.03401
1.01856
1.00195
0.986508
0.973294
0.962715
0.954758
0.949312
1.05379
1.05575
1.05355
1.04693
1.03454
1.01854
1.00147
0.985699
0.972288
0.961608
0.953609
0.948156
1.055
1.05707
1.05483
1.04795
1.03507
1.0185
1.00095
0.984841
0.971238
0.960462
0.952425
0.946969
1.05625
1.05843
1.05616
1.04899
1.03559
1.01842
1.00037
0.983934
0.970143
0.959277
0.951207
0.945753
1.05755
1.05984
1.05754
1.05006
1.0361
1.01831
0.999746
0.982974
0.968999
0.958049
0.949953
0.944505
1.05888
1.0613
1.05896
1.05116
1.0366
1.01815
0.999064
0.981958
0.967807
0.956781
0.948664
0.943226
1.06026
1.06282
1.06044
1.05227
1.03708
1.01794
0.998322
0.980884
0.966563
0.955467
0.947337
0.941914
1.06169
1.06439
1.06196
1.05341
1.03754
1.01768
0.997516
0.979748
0.965265
0.95411
0.945973
0.940569
1.06318
1.06603
1.06354
1.05456
1.03797
1.01736
0.996641
0.978546
0.963911
0.952705
0.944569
0.939189
1.06471
1.06773
1.06518
1.05574
1.03838
1.01698
0.995692
0.977277
0.9625
0.951254
0.943126
0.937776
1.0663
1.06949
1.06688
1.05694
1.03875
1.01653
0.994663
0.975935
0.961028
0.949752
0.941641
0.936326
1.06795
1.07133
1.06863
1.05815
1.03907
1.016
0.99355
0.974518
0.959495
0.948201
0.940115
0.934841
1.06966
1.07324
1.07045
1.05937
1.03935
1.01539
0.992346
0.973021
0.957897
0.946598
0.938546
0.933318
1.07144
1.07524
1.07234
1.0606
1.03957
1.01468
0.991045
0.971442
0.956232
0.944942
0.936934
0.931758
1.07329
1.07732
1.07429
1.06183
1.03973
1.01387
0.989642
0.969777
0.954499
0.943232
0.935278
0.93016
1.07521
1.07949
1.07631
1.06306
1.03981
1.01294
0.988129
0.968021
0.952696
0.941467
0.933577
0.928522
1.07721
1.08176
1.07841
1.06428
1.0398
1.0119
0.986499
0.966171
0.95082
0.939645
0.93183
0.926845
1.07929
1.08413
1.08057
1.06549
1.03969
1.01072
0.984746
0.964223
0.94887
0.937766
0.930037
0.925128
1.08146
1.08661
1.08281
1.06667
1.03947
1.00939
0.982862
0.962174
0.946843
0.935829
0.928197
0.923369
1.08373
1.08922
1.08512
1.06781
1.03911
1.0079
0.98084
0.96002
0.944739
0.933832
0.92631
0.92157
1.0861
1.09194
1.0875
1.06891
1.03861
1.00624
0.978673
0.957758
0.942556
0.931776
0.924375
0.919727
1.08858
1.0948
1.08995
1.06994
1.03794
1.0044
0.976354
0.955385
0.940292
0.92966
0.922391
0.917843
1.09117
1.09781
1.09247
1.07089
1.03708
1.00235
0.973875
0.952898
0.937946
0.927482
0.920359
0.915914
1.09389
1.10096
1.09504
1.07173
1.03601
1.00009
0.97123
0.950294
0.935518
0.925244
0.918279
0.913943
1.09674
1.10428
1.09768
1.07245
1.03471
0.997596
0.968412
0.947572
0.933006
0.922945
0.916149
0.911928
1.09974
1.10777
1.10036
1.07302
1.03314
0.994853
0.965415
0.944729
0.930412
0.920585
0.913971
0.909869
1.1029
1.11145
1.10306
1.0734
1.03127
0.991846
0.962234
0.941766
0.927734
0.918164
0.911744
0.907767
1.10623
1.11532
1.10579
1.07355
1.02908
0.988558
0.958865
0.938681
0.924974
0.915684
0.909469
0.90562
1.10974
1.11939
1.10851
1.07344
1.02652
0.984975
0.955304
0.935475
0.922133
0.913145
0.907145
0.903429
1.11347
1.12367
1.11119
1.07303
1.02357
0.981083
0.95155
0.932149
0.919212
0.910548
0.904774
0.901194
1.11742
1.12818
1.11381
1.07224
1.02019
0.976868
0.947602
0.928705
0.916212
0.907894
0.902356
0.898914
1.12162
1.13291
1.11633
1.07104
1.01633
0.972319
0.943462
0.925146
0.913137
0.905186
0.899891
0.896589
1.12609
1.13787
1.11868
1.06934
1.01196
0.967429
0.939133
0.921477
0.90999
0.902425
0.897381
0.89422
1.13087
1.14306
1.12082
1.06708
1.00703
0.962192
0.934622
0.917702
0.906773
0.899615
0.894827
0.891806
1.13598
1.14846
1.12267
1.06418
1.00152
0.956608
0.929936
0.913828
0.903492
0.896757
0.892229
0.889347
1.14147
1.15408
1.12414
1.06054
0.995378
0.950681
0.925086
0.909862
0.900151
0.893854
0.889589
0.886844
1.14738
1.15988
1.12512
1.05608
0.988586
0.944421
0.920086
0.905812
0.896757
0.890911
0.886908
0.884296
1.15374
1.16582
1.12551
1.0507
0.981117
0.937846
0.914954
0.901688
0.893314
0.88793
0.884187
0.881703
1.16063
1.17186
1.12515
1.0443
0.972958
0.93098
0.909707
0.897501
0.889829
0.884916
0.881427
0.879066
1.16808
1.17791
1.12389
1.03677
0.964108
0.923856
0.904368
0.893261
0.886311
0.881872
0.87863
0.876384
1.17617
1.18387
1.12153
1.02801
0.954581
0.916515
0.898962
0.888982
0.882767
0.878802
0.875796
0.873659
1.18496
1.18962
1.11788
1.01794
0.94441
0.909009
0.893513
0.884676
0.879205
0.875711
0.872926
0.870891
1.19453
1.19497
1.1127
1.00648
0.933652
0.901396
0.88805
0.880357
0.875633
0.872602
0.870023
0.86808
1.20493
1.19971
1.10573
0.993567
0.922388
0.893742
0.882599
0.87604
0.872061
0.86948
0.867085
0.865228
1.21623
1.20355
1.09671
0.979192
0.910729
0.886119
0.877189
0.871737
0.868498
0.866348
0.864116
0.862338
1.22847
1.20614
1.08535
0.963379
0.898817
0.8786
0.871845
0.867466
0.864952
0.86321
0.861117
0.859411
1.2417
1.20704
1.07137
0.946217
0.886819
0.87126
0.866591
0.863238
0.861432
0.860071
0.858096
0.856455
1.25589
1.20572
1.05448
0.927875
0.874931
0.86417
0.861451
0.859067
0.857942
0.856927
0.855046
0.853464
1.27097
1.20151
1.03446
0.908618
0.863359
0.85738
0.856436
0.854971
0.854509
0.853822
0.852024
0.850488
1.28678
1.19361
1.01115
0.888833
0.852337
0.850953
0.851547
0.850909
0.85105
0.850625
0.848892
0.847405
1.30298
1.18106
0.984533
0.868983
0.842014
0.844907
0.846887
0.847091
0.847869
0.847715
0.846
0.844441
1.31906
1.1627
0.954951
0.84985
0.832685
0.839061
0.841945
0.842782
0.844087
0.84427
0.842675
0.841132
1.33405
1.13712
0.922841
0.831709
0.824837
0.834664
0.838514
0.839992
0.841649
0.841858
0.840066
0.838222
1.3468
1.10344
0.891257
0.8149
0.815612
0.82743
0.832158
0.834758
0.837478
0.838318
0.836713
0.834735
1.35368
1.05727
0.864377
0.808181
0.815469
0.826985
0.83054
0.832721
0.835464
0.836378
0.834753
0.832683
1.35619
0.984687
0.81355
0.783341
0.804265
0.821466
0.827577
0.831173
0.834688
0.835984
0.83459
0.832645
0.996676
0.996562
0.99703
0.997662
0.998055
0.998051
0.997775
0.997464
0.997281
0.997241
0.997277
0.997316
0.996978
0.996845
0.997203
0.997702
0.998012
0.997997
0.997752
0.997471
0.997297
0.997253
0.997282
0.997321
0.997368
0.997181
0.997368
0.997683
0.997896
0.997892
0.997709
0.99748
0.997322
0.99727
0.99729
0.997327
0.997691
0.99742
0.99744
0.997608
0.997766
0.997798
0.997686
0.997507
0.997359
0.997295
0.997301
0.997336
0.997876
0.997541
0.997456
0.997548
0.997689
0.997755
0.997692
0.997543
0.997397
0.997319
0.997314
0.997344
0.997954
0.997603
0.997481
0.997541
0.997667
0.997738
0.997693
0.997558
0.997416
0.997333
0.997319
0.997345
0.997995
0.997663
0.997533
0.997566
0.997661
0.997716
0.997675
0.997556
0.997426
0.997345
0.997326
0.997347
0.99804
0.997733
0.997594
0.997594
0.997653
0.997689
0.997653
0.997552
0.997438
0.99736
0.997335
0.99735
0.99809
0.997797
0.997645
0.997614
0.997643
0.997666
0.997636
0.99755
0.997447
0.99737
0.99734
0.997349
0.99813
0.997846
0.997682
0.997629
0.997638
0.99765
0.997621
0.997545
0.99745
0.997375
0.997342
0.997348
0.998154
0.99788
0.997711
0.997644
0.997636
0.997637
0.997606
0.997535
0.997447
0.997377
0.997344
0.997348
0.998167
0.997905
0.997736
0.997659
0.997636
0.997624
0.99759
0.997523
0.997442
0.997377
0.997345
0.997347
0.998175
0.997925
0.997758
0.99767
0.997633
0.99761
0.997572
0.99751
0.997437
0.997376
0.997344
0.997341
0.99818
0.997941
0.997773
0.997676
0.997627
0.997596
0.997556
0.997497
0.997429
0.997371
0.997338
0.997331
0.998181
0.99795
0.997782
0.997678
0.99762
0.997582
0.99754
0.997483
0.997418
0.997362
0.997327
0.997317
0.998177
0.997954
0.997786
0.997677
0.997612
0.997569
0.997524
0.997467
0.997404
0.997348
0.997311
0.997298
0.998168
0.997952
0.997786
0.997674
0.997603
0.997554
0.997506
0.997448
0.997385
0.997329
0.997292
0.997278
0.998156
0.997947
0.997783
0.997669
0.997593
0.997538
0.997486
0.997426
0.997363
0.997308
0.997271
0.997255
0.998142
0.99794
0.997778
0.99766
0.997579
0.997519
0.997462
0.997401
0.997338
0.997284
0.997247
0.997232
0.998127
0.997931
0.997769
0.997649
0.997563
0.997497
0.997437
0.997374
0.997311
0.997258
0.997223
0.997207
0.99811
0.997918
0.997757
0.997633
0.997542
0.997472
0.997409
0.997345
0.997283
0.997231
0.997197
0.997183
0.99809
0.997901
0.99774
0.997614
0.997519
0.997445
0.99738
0.997315
0.997254
0.997204
0.997171
0.997157
0.998066
0.997881
0.99772
0.997591
0.997493
0.997417
0.99735
0.997285
0.997225
0.997176
0.997144
0.99713
0.998039
0.997857
0.997696
0.997565
0.997466
0.997387
0.997319
0.997254
0.997195
0.997147
0.997115
0.997102
0.998009
0.997829
0.997669
0.997537
0.997436
0.997357
0.997288
0.997224
0.997165
0.997117
0.997086
0.997072
0.997976
0.997799
0.997639
0.997508
0.997406
0.997326
0.997257
0.997192
0.997134
0.997086
0.997054
0.99704
0.99794
0.997767
0.997609
0.997477
0.997375
0.997294
0.997225
0.99716
0.997101
0.997053
0.997022
0.997007
0.997903
0.997734
0.997577
0.997445
0.997342
0.997261
0.997191
0.997126
0.997067
0.997019
0.996987
0.996972
0.997865
0.997699
0.997543
0.997412
0.997309
0.997227
0.997156
0.99709
0.997031
0.996983
0.996951
0.996936
0.997826
0.997664
0.99751
0.997378
0.997274
0.997191
0.997119
0.997053
0.996994
0.996946
0.996913
0.996898
0.997787
0.997627
0.997475
0.997343
0.997237
0.997153
0.997081
0.997014
0.996954
0.996907
0.996874
0.996859
0.997747
0.997591
0.997439
0.997306
0.997199
0.997114
0.99704
0.996973
0.996913
0.996866
0.996833
0.996819
0.997707
0.997553
0.997401
0.997267
0.997158
0.997072
0.996997
0.996931
0.996871
0.996823
0.99679
0.996776
0.997667
0.997514
0.997362
0.997227
0.997116
0.997028
0.996953
0.996886
0.996826
0.996779
0.996746
0.996732
0.997626
0.997474
0.997322
0.997185
0.997071
0.996982
0.996907
0.99684
0.99678
0.996732
0.9967
0.996686
0.997584
0.997433
0.99728
0.997141
0.997025
0.996935
0.996859
0.996791
0.996731
0.996684
0.996652
0.996639
0.997541
0.997391
0.997237
0.997095
0.996978
0.996886
0.996809
0.996741
0.996681
0.996634
0.996602
0.99659
0.997498
0.997348
0.997192
0.997048
0.996928
0.996835
0.996757
0.996689
0.996629
0.996582
0.99655
0.996539
0.997454
0.997303
0.997146
0.996999
0.996877
0.996782
0.996703
0.996635
0.996575
0.996528
0.996498
0.996487
0.997409
0.997258
0.997098
0.996949
0.996825
0.996728
0.996648
0.996579
0.996519
0.996473
0.996443
0.996434
0.997363
0.997211
0.997049
0.996897
0.996771
0.996672
0.996591
0.996522
0.996462
0.996416
0.996388
0.99638
0.997316
0.997163
0.996999
0.996844
0.996715
0.996614