/*--------------------------------*- C++ -*----------------------------------*\
  =========                 |
  \\      /  F ield         | OpenFOAM: The Open Source CFD Toolbox
   \\    /   O peration     | Website:  https://openfoam.org
    \\  /    A nd           | Version:  6.0
     \\/     M anipulation  |
\*---------------------------------------------------------------------------*/
FoamFile
{
    version     2.0;
    format      ascii;
    class       volVectorField;
    location    "0.4";
    object      U;
}
// * * * * * * * * * * * * * * * * * * * * * * * * * * * * * * * * * * * * * //

dimensions      [0 1 -1 0 0 0 0];

internalField   nonuniform List<vector> 
34500
(
(0.999997 2.08668e-06 -4.63281e-17)
(0.999972 -9.77995e-06 -8.13388e-18)
(0.999925 -3.28154e-05 1.4218e-16)
(0.999863 -7.22301e-05 -1.07623e-16)
(0.999795 -0.000131046 3.35348e-17)
(0.99973 -0.000209351 -1.01425e-16)
(0.999679 -0.000302768 -1.00945e-16)
(0.999648 -0.000404296 8.64823e-17)
(0.999644 -0.000503059 1.072e-16)
(0.999667 -0.000589788 -6.82612e-16)
(0.999715 -0.000654409 -1.03932e-15)
(0.99978 -0.000696763 1.2662e-16)
(0.999858 -0.000697951 4.3319e-16)
(0.999984 -0.000712879 -2.06604e-16)
(0.999201 -0.0010291 7.56337e-17)
(0.999993 8.19491e-06 3.24447e-17)
(0.999948 -1.90061e-05 9.76163e-17)
(0.999865 -6.66528e-05 7.17321e-17)
(0.999755 -0.000143978 -3.02076e-16)
(0.999636 -0.000256193 -5.05644e-16)
(0.999523 -0.000402912 -5.50091e-17)
(0.999436 -0.000576038 2.55382e-16)
(0.999388 -0.000761169 -6.76881e-16)
(0.99939 -0.000938081 -1.78507e-16)
(0.999442 -0.00108877 6.80852e-16)
(0.999539 -0.00119486 1.26072e-15)
(0.999669 -0.00125552 -6.28162e-16)
(0.999808 -0.00123405 -9.82095e-16)
(1.0001 -0.00120417 -3.9343e-16)
(0.999305 -0.00140766 5.16427e-16)
(0.999991 1.51616e-05 1.04669e-17)
(0.999952 -2.31743e-05 -1.2289e-16)
(0.999884 -7.91298e-05 -1.25125e-16)
(0.999796 -0.000159526 4.55466e-16)
(0.999701 -0.000268368 -2.85941e-17)
(0.999613 -0.000405084 -1.63918e-16)
(0.999549 -0.000562811 9.77528e-17)
(0.99952 -0.000727936 3.84328e-16)
(0.999536 -0.000881082 2.45659e-19)
(0.999596 -0.00100526 -3.92556e-16)
(0.999694 -0.00108295 -7.2708e-16)
(0.999825 -0.00111454 4.12965e-16)
(0.99994 -0.00106706 2.24275e-16)
(1.00025 -0.000990378 1.63886e-16)
(0.999828 -0.000915865 -2.42661e-16)
(0.999988 2.22223e-05 -1.73536e-17)
(0.999957 -2.83581e-05 -9.02169e-18)
(0.999905 -9.31388e-05 4.83042e-17)
(0.999842 -0.000176185 -3.05245e-16)
(0.999774 -0.000280157 3.72019e-16)
(0.999715 -0.000404222 3.29726e-16)
(0.999675 -0.000543296 -3.9919e-16)
(0.999664 -0.000685714 -4.19572e-16)
(0.999691 -0.000814538 4.34568e-16)
(0.999754 -0.000915148 -4.69972e-16)
(0.999848 -0.00097232 -2.44068e-16)
(0.999971 -0.000988463 -3.84618e-16)
(1.00006 -0.000940851 5.40946e-16)
(1.00034 -0.000858075 -4.78448e-17)
(1.00011 -0.000770409 2.13334e-17)
(0.999983 2.95919e-05 -1.70424e-17)
(0.999953 -3.49587e-05 1.53283e-16)
(0.999906 -0.000113214 6.95307e-17)
(0.99985 -0.000208094 1.69676e-16)
(0.999792 -0.000321553 4.67188e-17)
(0.999743 -0.000451963 -1.5814e-16)
(0.999715 -0.000594606 1.02449e-16)
(0.999715 -0.000738065 2.6609e-16)
(0.99975 -0.000866277 -4.17283e-16)
(0.99982 -0.000965325 -2.30704e-16)
(0.99992 -0.00102072 1.0051e-15)
(1.00005 -0.00103532 6.33059e-16)
(1.00014 -0.000993845 -2.88964e-16)
(1.00038 -0.000908824 5.90372e-16)
(1.00025 -0.000831445 -5.84585e-16)
(0.999976 3.75276e-05 1.83508e-17)
(0.999946 -4.15044e-05 -9.47903e-17)
(0.999899 -0.000134649 -1.86277e-16)
(0.999844 -0.00024434 -5.2913e-17)
(0.99979 -0.000371986 1.09371e-16)
(0.999748 -0.000514804 -1.08772e-16)
(0.999728 -0.000667549 1.48068e-16)
(0.999738 -0.00081821 1.31084e-16)
(0.999783 -0.000951015 2.90745e-16)
(0.999863 -0.00105229 -1.00134e-16)
(0.999972 -0.00110786 2.86411e-18)
(1.00011 -0.00111953 -3.88574e-16)
(1.00021 -0.00107717 1.82704e-17)
(1.00043 -0.000979668 -4.67449e-16)
(1.00036 -0.00085589 7.38278e-17)
(0.999969 4.60389e-05 3.25524e-18)
(0.999938 -4.74708e-05 -3.55802e-17)
(0.999893 -0.000154972 -2.901e-17)
(0.999843 -0.000278422 1.75666e-16)
(0.999794 -0.000418673 -2.20341e-16)
(0.99976 -0.000571821 2.75291e-16)
(0.999751 -0.00073195 -6.18827e-16)
(0.999771 -0.00088644 -3.69568e-16)
(0.999827 -0.00102013 -1.51464e-16)
(0.999918 -0.00111998 6.70652e-16)
(1.00004 -0.00117272 -7.67323e-16)
(1.00019 -0.00117867 2.97585e-16)
(1.00029 -0.00113223 4.55212e-16)
(1.00049 -0.00102136 -9.55943e-17)
(1.00047 -0.000851315 -1.20222e-16)
(0.99996 5.50622e-05 1.51152e-17)
(0.99993 -5.30377e-05 3.22795e-17)
(0.999888 -0.000174585 2.50203e-17)
(0.999843 -0.000311113 -1.50803e-16)
(0.999802 -0.000462994 3.28703e-16)
(0.999777 -0.000625426 -1.39513e-16)
(0.999778 -0.000791849 2.01411e-16)
(0.99981 -0.000949025 -1.46169e-16)
(0.999877 -0.00108247 3.97248e-16)
(0.999978 -0.00117988 1.77585e-16)
(1.0001 -0.00122913 2.44477e-16)
(1.00026 -0.00122897 -5.64326e-17)
(1.00038 -0.00117741 -5.03625e-16)
(1.00056 -0.00105447 1.13547e-15)
(1.00059 -0.000849215 1.85772e-16)
(0.999949 6.45668e-05 -1.1215e-17)
(0.99992 -5.8338e-05 9.89316e-17)
(0.999881 -0.000194042 1.50747e-16)
(0.999842 -0.00034378 1.11871e-16)
(0.999808 -0.000507516 -4.88429e-16)
(0.999792 -0.000679757 1.40889e-16)
(0.999803 -0.000853283 3.20518e-16)
(0.999846 -0.00101412 7.71974e-16)
(0.999923 -0.00114817 -3.85116e-16)
(1.00003 -0.0012435 8.99669e-17)
(1.00017 -0.00128895 4.48601e-16)
(1.00034 -0.00128153 -3.23312e-16)
(1.00047 -0.00122179 -1.53763e-16)
(1.00064 -0.00108459 -3.7997e-16)
(1.00071 -0.000844804 8.37039e-17)
(0.999937 7.45154e-05 4.06818e-17)
(0.999909 -6.33575e-05 -8.97148e-17)
(0.999873 -0.000213295 8.84942e-18)
(0.99984 -0.000376247 -1.10133e-16)
(0.999813 -0.000551735 4.10438e-16)
(0.999806 -0.000733714 7.95686e-17)
(0.999827 -0.000914338 2.70085e-16)
(0.999881 -0.00107893 -5.72722e-16)
(0.999969 -0.00121349 4.15596e-17)
(1.00009 -0.00130615 -7.86235e-17)
(1.00024 -0.00134644 -1.39541e-16)
(1.00041 -0.0013298 4.40806e-17)
(1.00056 -0.00125874 5.91314e-16)
(1.00073 -0.00110563 -8.02602e-16)
(1.00083 -0.000835337 -2.68348e-16)
(0.999923 8.48462e-05 -2.62194e-17)
(0.999896 -6.80967e-05 3.52411e-17)
(0.999865 -0.000232214 -1.47476e-16)
(0.999838 -0.000408083 2.49848e-16)
(0.99982 -0.000594653 -3.61404e-16)
(0.999823 -0.000785418 -3.02928e-16)
(0.999854 -0.000972011 -3.38677e-16)
(0.999919 -0.00113931 3.90956e-17)
(1.00002 -0.00127334 -8.13591e-17)
(1.00015 -0.00136227 -4.24187e-16)
(1.00031 -0.0013962 -7.20486e-16)
(1.00049 -0.00136941 2.85505e-16)
(1.00065 -0.0012865 -3.27892e-16)
(1.00082 -0.00111945 9.05215e-16)
(1.00095 -0.000828644 5.35347e-17)
(0.999908 9.5472e-05 -2.45511e-17)
(0.999883 -7.26253e-05 -1.04207e-16)
(0.999856 -0.000250899 1.50686e-16)
(0.999836 -0.00043943 -2.34068e-16)
(0.999828 -0.000636457 7.68386e-17)
(0.999841 -0.000835037 4.5398e-16)
(0.999884 -0.0010264 5.53664e-17)
(0.99996 -0.00119533 -6.73089e-17)
(1.00007 -0.00132801 1.81439e-16)
(1.00022 -0.00141272 -1.56798e-16)
(1.00038 -0.00144022 -9.49915e-17)
(1.00057 -0.00140404 -6.67157e-17)
(1.00074 -0.00131094 -2.86741e-16)
(1.00092 -0.00113392 -6.20211e-16)
(1.00106 -0.000831524 1.23768e-17)
(0.999891 0.000106304 -2.17631e-18)
(0.999868 -7.70327e-05 1.40461e-16)
(0.999845 -0.00026955 -2.21445e-16)
(0.999833 -0.000470748 8.33758e-17)
(0.999835 -0.00067804 -9.35229e-17)
(0.99986 -0.000884021 -1.54692e-16)
(0.999914 -0.00107959 -3.88774e-17)
(1 -0.00124971 3.64873e-16)
(1.00013 -0.00138087 -6.29908e-16)
(1.00028 -0.00146171 4.20016e-16)
(1.00045 -0.00148365 2.20353e-16)
(1.00066 -0.00143977 1.83897e-16)
(1.00084 -0.00133864 7.48536e-16)
(1.00101 -0.00115502 7.28721e-16)
(1.00116 -0.000845239 5.46729e-16)
(0.999873 0.000117256 8.302e-18)
(0.999852 -8.13891e-05 5.28629e-17)
(0.999833 -0.000288323 1.76006e-16)
(0.999828 -0.000502416 5.57489e-17)
(0.99984 -0.000720186 1.70573e-16)
(0.999876 -0.000933715 1.67984e-16)
(0.999943 -0.00113357 -1.18424e-17)
(1.00004 -0.00130507 4.92709e-17)
(1.00018 -0.00143514 9.37232e-16)
(1.00034 -0.00151288 -1.13843e-16)
(1.00053 -0.00153044 5.4179e-16)
(1.00073 -0.0014805 -7.38385e-16)
(1.00092 -0.00137278 1.36801e-16)
(1.0011 -0.00118406 -1.34243e-15)
(1.00126 -0.000866873 -6.14399e-16)
(0.999854 0.000128248 9.93822e-18)
(0.999834 -8.57375e-05 -1.17651e-16)
(0.99982 -0.000307275 1.54741e-16)
(0.999821 -0.000534582 -2.2402e-16)
(0.999842 -0.000763264 1.56774e-16)
(0.999889 -0.000984845 2.07089e-17)
(0.999968 -0.00118951 1.94929e-16)
(1.00008 -0.00136297 -2.59882e-16)
(1.00023 -0.00149264 -8.38601e-16)
(1.0004 -0.00156812 2.49121e-16)
(1.00059 -0.00158224 -5.59812e-16)
(1.00081 -0.00152726 1.12731e-16)
(1.00101 -0.00141323 -4.89691e-16)
(1.0012 -0.00121902 2.65248e-16)
(1.00136 -0.00089204 -1.08146e-16)
(0.999833 0.000139208 3.32333e-17)
(0.999814 -9.0103e-05 7.18679e-17)
(0.999804 -0.000326393 -3.58839e-16)
(0.999812 -0.000567208 2.88274e-16)
(0.999841 -0.000807255 -2.79842e-16)
(0.999899 -0.00103748 -3.72808e-16)
(0.999989 -0.00124765 -3.82757e-16)
(1.00011 -0.00142379 3.37431e-16)
(1.00027 -0.00155373 7.18483e-16)
(1.00046 -0.00162756 1.6292e-16)
(1.00066 -0.00163864 9.46417e-17)
(1.00089 -0.00157877 7.003e-17)
(1.0011 -0.00145767 -7.32101e-16)
(1.00129 -0.00125633 6.42942e-17)
(1.00147 -0.000916661 6.30611e-16)
(0.999811 0.000150076 -8.96457e-17)
(0.999793 -9.45005e-05 -9.23721e-17)
(0.999786 -0.000345619 3.42739e-17)
(0.9998 -0.000600122 -2.64239e-16)
(0.999838 -0.000851843 -1.7959e-17)
(0.999906 -0.00109119 4.81435e-16)
(1.00001 -0.00130745 5.50454e-17)
(1.00014 -0.00148684 3.03925e-16)
(1.00031 -0.00161753 -6.02523e-16)
(1.00051 -0.00168992 -3.09472e-16)
(1.00073 -0.00169779 4.44269e-16)
(1.00096 -0.00163249 -1.48929e-16)
(1.00118 -0.00150297 4.83143e-16)
(1.00139 -0.00129256 7.4827e-16)
(1.00157 -0.000938431 -5.96444e-17)
(0.999788 0.000160797 2.80839e-17)
(0.999771 -9.89428e-05 1.14724e-17)
(0.999767 -0.000364884 1.15581e-16)
(0.999787 -0.000633098 2.25797e-18)
(0.999832 -0.000896575 9.88197e-17)
(0.99991 -0.00114522 -2.89498e-16)
(1.00002 -0.00136788 5.97939e-16)
(1.00017 -0.00155081 -1.53402e-16)
(1.00035 -0.00168239 6.52091e-16)
(1.00056 -0.0017532 -3.41103e-16)
(1.00079 -0.00175731 -5.43053e-16)
(1.00103 -0.00168568 5.24026e-16)
(1.00127 -0.00154651 -8.83227e-16)
(1.00148 -0.00132568 -1.30017e-15)
(1.00168 -0.000957184 -3.28438e-16)
(0.999763 0.000171332 3.12685e-18)
(0.999747 -0.000103446 1.94932e-17)
(0.999747 -0.000384131 -3.12046e-17)
(0.999772 -0.000665941 1.58604e-16)
(0.999826 -0.000941025 1.08775e-16)
(0.999914 -0.00119887 -4.26514e-17)
(1.00004 -0.00142787 -3.60416e-16)
(1.0002 -0.00161432 -3.47413e-16)
(1.00039 -0.00174666 -2.3481e-16)
(1.00062 -0.00181555 4.3265e-16)
(1.00086 -0.00181528 3.35187e-16)
(1.00111 -0.00173661 -4.92712e-16)
(1.00135 -0.00158714 1.09413e-15)
(1.00158 -0.00135562 1.36998e-15)
(1.00179 -0.000974548 4.62074e-17)
(0.999738 0.000181653 3.57549e-17)
(0.999722 -0.000108032 -4.75847e-17)
(0.999726 -0.000403349 2.29358e-16)
(0.999757 -0.000698554 -4.56766e-17)
(0.99982 -0.000984959 -1.7432e-16)
(0.999918 -0.00125169 7.38981e-17)
(1.00005 -0.00148678 -1.29638e-16)
(1.00023 -0.00167651 2.9332e-16)
(1.00043 -0.00180935 7.70972e-17)
(1.00067 -0.00187602 5.38886e-17)
(1.00092 -0.00187098 -2.57061e-16)
(1.00119 -0.00178503 3.41154e-16)
(1.00144 -0.00162541 1.73819e-16)
(1.00167 -0.0013839 1.5519e-16)
(1.0019 -0.000992779 3.92449e-16)
(0.999711 0.000191746 -1.83811e-17)
(0.999696 -0.000112725 2.72397e-17)
(0.999703 -0.000422558 -3.71787e-16)
(0.999741 -0.000730956 -2.37846e-16)
(0.999813 -0.00102838 3.29163e-16)
(0.999922 -0.00130367 -8.91064e-17)
(1.00007 -0.00154452 5.20473e-16)
(1.00026 -0.00173728 -1.41302e-16)
(1.00048 -0.00187045 -7.50701e-18)
(1.00073 -0.0019348 -1.49852e-16)
(1.00099 -0.00192499 3.8471e-16)
(1.00127 -0.00183204 -2.42425e-16)
(1.00153 -0.00166302 -7.96623e-16)
(1.00177 -0.00141273 -1.89477e-16)
(1.002 -0.00101374 -4.48293e-16)
(0.999683 0.000201614 2.47436e-17)
(0.999668 -0.000117549 1.1254e-16)
(0.99968 -0.000441815 3.35095e-16)
(0.999725 -0.000763263 2.60049e-16)
(0.999806 -0.00107152 -3.20542e-17)
(0.999926 -0.00135513 -1.30199e-16)
(1.00009 -0.00160156 -5.76183e-16)
(1.00029 -0.00179725 -6.69856e-17)
(1.00052 -0.00193075 -3.42171e-16)
(1.00078 -0.00199294 1.10806e-16)
(1.00106 -0.0019787 -7.05135e-16)
(1.00134 -0.0018794 3.40064e-16)
(1.00162 -0.00170191 1.14762e-15)
(1.00187 -0.0014439 -8.84084e-16)
(1.00211 -0.00103809 5.2259e-16)
(0.999654 0.000211273 -1.99519e-17)
(0.999639 -0.000122517 -1.58348e-16)
(0.999655 -0.000461176 -1.91783e-16)
(0.999707 -0.000795624 -9.56451e-17)
(0.999797 -0.00111467 -6.12509e-17)
(0.999928 -0.0014066 8.40829e-17)
(1.0001 -0.00165864 -3.21951e-17)
(1.00031 -0.00185737 -4.4218e-16)
(1.00056 -0.00199145 -1.30131e-16)
(1.00084 -0.00205184 -3.27632e-17)
(1.00112 -0.00203368 6.41804e-16)
(1.00142 -0.00192871 1.07314e-16)
(1.00171 -0.00174345 -9.54132e-16)
(1.00197 -0.00147819 5.05904e-16)
(1.00221 -0.00106534 -1.01159e-16)
(0.999624 0.000220752 1.80231e-17)
(0.999609 -0.000127631 9.31034e-17)
(0.999629 -0.000480685 9.23051e-17)
(0.999687 -0.000828173 1.79498e-16)
(0.999787 -0.00115812 -9.77903e-17)
(0.99993 -0.00145856 -2.75034e-17)
(1.00012 -0.00171647 1.98705e-16)
(1.00034 -0.00191856 2.96895e-16)
(1.0006 -0.00205359 -2.1389e-17)
(1.00089 -0.00211262 -3.58341e-16)
(1.00119 -0.00209099 -2.75397e-16)
(1.0015 -0.00198078 -4.83957e-16)
(1.00179 -0.00178799 2.02984e-17)
(1.00206 -0.00151524 2.61945e-16)
(1.00231 -0.0010942 -1.58136e-16)
(0.999593 0.000230092 -9.63686e-18)
(0.999578 -0.000132881 -5.50961e-17)
(0.999601 -0.000500356 1.40182e-16)
(0.999666 -0.000860977 1.47003e-17)
(0.999775 -0.00120204 -1.24483e-16)
(0.999929 -0.0015113 1.00376e-16)
(1.00013 -0.00177548 -4.7945e-17)
(1.00037 -0.00198136 2.7374e-16)
(1.00064 -0.00211774 5.0572e-16)
(1.00094 -0.00217577 7.85262e-17)
(1.00126 -0.00215091 2.37652e-16)
(1.00158 -0.00203552 2.4182e-16)
(1.00188 -0.00183493 5.96658e-17)
(1.00216 -0.00155394 -5.39061e-16)
(1.00241 -0.0011233 1.30368e-16)
(0.999561 0.000239339 1.29086e-17)
(0.999545 -0.000138244 1.16042e-17)
(0.999572 -0.000520177 -2.86388e-16)
(0.999643 -0.000894039 -1.25103e-16)
(0.999761 -0.00124645 1.7587e-16)
(0.999926 -0.00156487 -2.74507e-17)
(1.00014 -0.00183572 1.83575e-16)
(1.00039 -0.00204578 -2.43799e-16)
(1.00068 -0.00218384 1.38957e-16)
(1.00099 -0.00224106 1.15554e-16)
(1.00132 -0.00221294 1.21942e-16)
(1.00165 -0.00209208 1.55119e-16)
(1.00197 -0.00188316 2.15513e-16)
(1.00226 -0.00159302 3.03072e-17)
(1.00252 -0.00115172 7.6683e-17)
(0.999527 0.000248539 -3.97165e-17)
(0.99951 -0.000143694 1.05082e-16)
(0.999541 -0.000540115 1.64438e-16)
(0.999619 -0.000927302 -1.0525e-16)
(0.999745 -0.00129125 -6.84183e-17)
(0.999921 -0.0016191 3.89379e-17)
(1.00014 -0.00189695 -1.9999e-16)
(1.00041 -0.00211148 -1.30843e-16)
(1.00071 -0.0022514 -1.71841e-16)
(1.00104 -0.0023078 2.73066e-16)
(1.00138 -0.00227619 -3.78733e-16)
(1.00173 -0.00214943 2.95706e-16)
(1.00206 -0.00193161 1.44745e-16)
(1.00236 -0.00163163 5.41188e-16)
(1.00263 -0.00117932 -4.93974e-16)
(0.999492 0.000257739 1.67588e-17)
(0.999475 -0.000149203 -7.90931e-17)
(0.999509 -0.000560136 5.79039e-17)
(0.999593 -0.000960697 1.28056e-16)
(0.999728 -0.00133629 -8.87716e-17)
(0.999915 -0.00167373 -1.50013e-16)
(1.00015 -0.00195877 -7.10183e-17)
(1.00043 -0.00217792 9.78585e-17)
(1.00075 -0.00231972 -4.47558e-16)
(1.00109 -0.00237519 6.60216e-17)
(1.00145 -0.0023398 2.51638e-16)
(1.00181 -0.00220676 -7.03032e-16)
(1.00214 -0.0019797 1.41863e-16)
(1.00246 -0.00166961 2.17031e-17)
(1.00273 -0.00120656 3.6425e-16)
(0.999455 0.000266981 -6.37111e-18)
(0.999437 -0.000154746 9.69362e-17)
(0.999476 -0.000580212 -9.3644e-17)
(0.999566 -0.000994167 -5.81165e-17)
(0.99971 -0.00138146 -9.26797e-17)
(0.999907 -0.00172857 -4.90061e-17)
(1.00016 -0.00202086 -1.05657e-16)
(1.00045 -0.00224466 7.5425e-17)
(1.00078 -0.0023883 2.90061e-17)
(1.00114 -0.00244271 -3.09855e-16)
(1.00151 -0.00240334 -3.6954e-16)
(1.00188 -0.00226381 4.0978e-16)
(1.00223 -0.00202749 -3.57469e-16)
(1.00256 -0.00170742 -1.13708e-16)
(1.00284 -0.00123427 -1.11584e-17)
(0.999417 0.0002763 -1.92786e-17)
(0.999399 -0.000160305 -4.478e-17)
(0.999441 -0.000600336 3.16238e-17)
(0.999537 -0.0010277 2.25323e-16)
(0.999691 -0.00142672 3.76253e-16)
(0.9999 -0.00178351 3.07131e-16)
(1.00016 -0.00208308 3.35524e-16)
(1.00047 -0.00231151 -2.14023e-16)
(1.00082 -0.00245695 7.17345e-20)
(1.00119 -0.00251024 2.32043e-16)
(1.00158 -0.00246685 4.56823e-17)
(1.00196 -0.00232086 2.51784e-16)
(1.00232 -0.00207553 2.02203e-16)
(1.00266 -0.00174583 -5.29242e-16)
(1.00294 -0.00126313 -3.46432e-16)
(0.999377 0.000285725 9.91905e-18)
(0.999359 -0.000165867 -8.09354e-17)
(0.999405 -0.000620513 -1.61876e-16)
(0.999508 -0.00106133 -1.5888e-16)
(0.99967 -0.00147212 1.45997e-17)
(0.999891 -0.00183864 -1.73394e-16)
(1.00017 -0.00214552 -3.77486e-16)
(1.00049 -0.00237861 2.88081e-16)
(1.00085 -0.00252588 2.34261e-16)
(1.00124 -0.0025781 -5.16429e-16)
(1.00164 -0.0025308 4.23507e-16)
(1.00204 -0.00237857 -3.08612e-16)
(1.00241 -0.00212455 -1.42165e-16)
(1.00276 -0.00178555 -1.24174e-16)
(1.00305 -0.00129346 1.476e-16)
(0.999336 0.000295279 3.77579e-17)
(0.999318 -0.000171421 1.73664e-17)
(0.999367 -0.000640766 8.75523e-17)
(0.999477 -0.00109511 4.0665e-17)
(0.999649 -0.00151779 4.78369e-17)
(0.999881 -0.00189414 2.99879e-16)
(1.00017 -0.00220844 -1.35478e-16)
(1.00051 -0.00244629 1.48018e-16)
(1.00089 -0.00259552 8.49732e-17)
(1.00129 -0.00264683 5.92092e-17)
(1.0017 -0.00259582 1.9718e-16)
(1.00212 -0.00243759 -4.20229e-17)
(1.0025 -0.00217514 9.334e-18)
(1.00286 -0.00182693 8.66143e-16)
(1.00315 -0.00132514 2.74639e-18)
(0.999293 0.000304978 -3.66495e-17)
(0.999275 -0.000176959 -1.26563e-17)
(0.999328 -0.000661117 5.72405e-17)
(0.999444 -0.00112913 -1.74504e-16)
(0.999626 -0.00156386 -2.79478e-16)
(0.99987 -0.00195024 -2.67749e-16)
(1.00017 -0.00227216 2.26834e-16)
(1.00053 -0.00251497 -8.29517e-17)
(1.00092 -0.00266634 9.67019e-18)
(1.00134 -0.00271694 -5.00572e-18)
(1.00177 -0.00266242 -2.72369e-16)
(1.00219 -0.00249835 -2.4605e-16)
(1.00259 -0.00222752 -1.58566e-16)
(1.00296 -0.00186991 2.40335e-17)
(1.00326 -0.00135773 -5.40689e-17)
(0.999248 0.000314834 -1.82966e-17)
(0.999231 -0.000182471 4.84188e-17)
(0.999288 -0.000681586 4.76321e-17)
(0.99941 -0.00116345 7.75052e-17)
(0.999602 -0.00161046 1.05998e-16)
(0.999858 -0.00200713 1.67483e-18)
(1.00017 -0.00233694 2.26728e-16)
(1.00054 -0.00258496 -5.05483e-16)
(1.00095 -0.00273868 2.57716e-16)
(1.00139 -0.00278874 2.62782e-16)
(1.00183 -0.00273081 -3.7583e-16)
(1.00227 -0.00256087 7.01599e-16)
(1.00268 -0.0022815 3.69095e-16)
(1.00306 -0.00191407 -6.87071e-16)
(1.00337 -0.00139067 -2.03878e-16)
(0.999202 0.000324853 3.78361e-17)
(0.999186 -0.000187951 2.93759e-17)
(0.999246 -0.000702183 4.58645e-18)
(0.999375 -0.0011981 -3.47439e-17)
(0.999576 -0.00165766 2.01518e-17)
(0.999844 -0.0020649 2.84299e-16)
(1.00017 -0.00240289 -4.58206e-17)
(1.00056 -0.00265636 3.24381e-16)
(1.00098 -0.00281262 -4.79939e-17)
(1.00143 -0.00286223 -2.90658e-16)
(1.00189 -0.00280086 6.01246e-16)
(1.00235 -0.00262488 -3.60678e-16)
(1.00277 -0.00233666 -4.87971e-16)
(1.00316 -0.00195888 2.06063e-16)
(1.00347 -0.00142355 3.43623e-16)
(0.999154 0.000335034 -3.14639e-17)
(0.999139 -0.00019339 -1.32628e-17)
(0.999202 -0.000722909 -1.72927e-16)
(0.999338 -0.00123308 -8.45016e-17)
(0.999548 -0.00170545 5.20341e-17)
(0.999828 -0.00212354 -2.87008e-16)
(1.00017 -0.00246996 -8.43589e-17)
(1.00057 -0.00272908 2.82709e-16)
(1.00101 -0.002888 -2.39051e-16)
(1.00148 -0.00293717 7.00895e-17)
(1.00196 -0.00287223 -3.34796e-16)
(1.00242 -0.00268993 1.05265e-17)
(1.00286 -0.00239251 2.64118e-16)
(1.00326 -0.00200393 1.38831e-16)
(1.00358 -0.00145621 -5.39617e-17)
(0.999104 0.000345376 3.00156e-17)
(0.99909 -0.000198786 -9.7375e-17)
(0.999157 -0.000743761 8.17311e-17)
(0.999299 -0.00126839 5.34876e-17)
(0.999519 -0.00175378 -4.03248e-17)
(0.999811 -0.00218296 -1.72398e-16)
(1.00017 -0.00253801 5.22641e-17)
(1.00058 -0.00280293 -1.29613e-16)
(1.00104 -0.00296454 -2.18492e-16)
(1.00153 -0.00301319 -2.72978e-17)
(1.00202 -0.00294451 -4.83815e-16)
(1.0025 -0.00275564 4.94925e-16)
(1.00295 -0.00244874 3.84445e-17)
(1.00336 -0.00204909 -7.92594e-17)
(1.00369 -0.00148885 -7.69136e-18)
(0.999053 0.000355871 -3.68152e-17)
(0.99904 -0.000204137 1.00241e-16)
(0.99911 -0.000764739 -2.30245e-17)
(0.999259 -0.00130401 -2.09718e-16)
(0.999488 -0.00180261 -9.99134e-17)
(0.999792 -0.00224304 1.16053e-16)
(1.00017 -0.00260687 -1.70264e-16)
(1.0006 -0.00287764 -1.9069e-16)
(1.00107 -0.00304194 3.24457e-16)
(1.00157 -0.00309 1.12875e-16)
(1.00208 -0.00301743 5.07655e-16)
(1.00258 -0.0028218 -3.81672e-16)
(1.00304 -0.0025053 1.37064e-16)
(1.00346 -0.00209448 -1.54175e-16)
(1.0038 -0.00152177 5.12754e-18)
(0.999001 0.000366508 2.27865e-17)
(0.998988 -0.000209452 -5.80075e-17)
(0.999062 -0.000785846 7.2047e-17)
(0.999217 -0.00133991 3.12477e-16)
(0.999456 -0.00185189 1.32588e-16)
(0.999772 -0.00230369 8.22476e-17)
(1.00016 -0.00267639 3.38179e-16)
(1.00061 -0.00295307 1.60684e-16)
(1.0011 -0.00312005 -2.64608e-16)
(1.00162 -0.00316746 4.50752e-16)
(1.00214 -0.00309093 2.5059e-16)
(1.00265 -0.00288846 -2.12004e-16)
(1.00313 -0.00256237 -4.05267e-16)
(1.00356 -0.00214041 -1.57334e-16)
(1.0039 -0.00155533 6.05915e-17)
(0.998947 0.000377278 4.67871e-18)
(0.998935 -0.000214743 -1.23584e-16)
(0.999012 -0.000807099 -9.17046e-17)
(0.999174 -0.00137612 -2.15155e-16)
(0.999423 -0.00190161 3.4556e-17)
(0.999752 -0.0023649 -3.34004e-16)
(1.00015 -0.00274655 -3.59025e-16)
(1.00062 -0.00302918 -1.44392e-16)
(1.00113 -0.00319886 3.07549e-16)
(1.00166 -0.00324562 -3.26607e-16)
(1.0022 -0.00316514 1.15445e-16)
(1.00273 -0.00295587 2.14536e-16)
(1.00322 -0.00262026 3.25501e-16)
(1.00366 -0.00218722 1.9845e-16)
(1.00401 -0.00158975 1.6808e-17)
(0.998892 0.000388166 3.28869e-17)
(0.99888 -0.000220027 2.01988e-16)
(0.998961 -0.00082852 9.39982e-17)
(0.99913 -0.00141267 1.80622e-16)
(0.999388 -0.00195182 1.08207e-16)
(0.99973 -0.00242672 4.56139e-17)
(1.00015 -0.00281741 5.2608e-17)
(1.00063 -0.00310607 -1.20845e-16)
(1.00115 -0.00327851 -1.22521e-16)
(1.00171 -0.00332469 1.43544e-17)
(1.00226 -0.00324034 -7.88888e-16)
(1.00281 -0.00302435 -3.07978e-16)
(1.00331 -0.00267929 3.23653e-16)
(1.00376 -0.00223515 -7.21149e-17)
(1.00412 -0.00162512 -1.99237e-16)
(0.998836 0.000399163 -4.42016e-17)
(0.998824 -0.000225328 -1.29438e-16)
(0.998909 -0.000850141 -1.85873e-16)
(0.999084 -0.00144959 6.10549e-17)
(0.999353 -0.00200257 -2.05292e-16)
(0.999707 -0.00248923 3.82384e-17)
(1.00014 -0.0028891 -4.73198e-17)
(1.00064 -0.00318391 -8.63483e-18)
(1.00118 -0.00335923 -1.46401e-16)
(1.00175 -0.00340494 -7.6744e-17)
(1.00232 -0.00331681 2.71729e-17)
(1.00288 -0.00309416 2.67458e-16)
(1.0034 -0.00273965 -1.34731e-16)
(1.00387 -0.00228427 2.65728e-16)
(1.00423 -0.00166131 9.36883e-17)
(0.998778 0.000410256 2.36242e-17)
(0.998766 -0.000230668 1.24e-16)
(0.998854 -0.000871995 2.36145e-16)
(0.999037 -0.00148694 -6.82253e-17)
(0.999315 -0.00205394 -1.65505e-17)
(0.999683 -0.00255254 2.50557e-16)
(1.00013 -0.00296177 2.1302e-16)
(1.00064 -0.00326289 -1.4593e-16)
(1.0012 -0.00344122 3.90883e-16)
(1.00179 -0.00348658 3.5453e-16)
(1.00238 -0.00339474 3.76874e-16)
(1.00296 -0.00316542 -1.73976e-17)
(1.00349 -0.00280137 -2.98672e-16)
(1.00397 -0.00233449 -3.13404e-16)
(1.00434 -0.00169814 -3.01286e-17)
(0.998719 0.000421436 -2.02432e-17)
(0.998707 -0.000236073 -6.54813e-17)
(0.998799 -0.000894115 -1.95727e-16)
(0.998988 -0.00152477 1.25947e-16)
(0.999277 -0.002106 1.20835e-16)
(0.999657 -0.00261676 -1.67762e-16)
(1.00012 -0.00303554 -8.46814e-17)
(1.00065 -0.00334314 8.37371e-18)
(1.00123 -0.00352463 -1.73719e-16)
(1.00184 -0.00356971 -3.03762e-16)
(1.00244 -0.0034742 -5.60298e-16)
(1.00304 -0.00323812 6.04847e-17)
(1.00358 -0.00286433 3.64647e-16)
(1.00407 -0.00238564 3.29877e-16)
(1.00445 -0.00173544 -6.92221e-17)
(0.998658 0.000432694 -1.61088e-17)
(0.998646 -0.000241566 -1.31715e-17)
(0.998741 -0.000916528 1.71279e-16)
(0.998937 -0.0015631 -1.61588e-16)
(0.999236 -0.00215879 -3.19272e-16)
(0.999629 -0.00268192 1.54923e-16)
(1.00011 -0.00311045 8.78981e-17)
(1.00066 -0.0034247 4.06948e-16)
(1.00125 -0.00360947 5.81703e-17)
(1.00188 -0.00365435 2.82829e-16)
(1.0025 -0.00355512 8.3959e-16)
(1.00311 -0.00331215 -2.30243e-16)
(1.00367 -0.00292841 -9.76687e-17)
(1.00417 -0.00243758 -1.15199e-17)
(1.00456 -0.00177315 -2.75685e-17)
(0.998596 0.000444021 4.50513e-17)
(0.998583 -0.00024717 4.92096e-17)
(0.998682 -0.000939257 -1.47308e-16)
(0.998885 -0.00160197 1.36825e-16)
(0.999194 -0.00221234 -9.20801e-17)
(0.999601 -0.00274805 -2.96415e-16)
(1.00009 -0.00318653 1.30232e-17)
(1.00066 -0.00350758 -3.5004e-17)
(1.00127 -0.00369572 -2.15744e-16)
(1.00192 -0.0037404 1.81808e-16)
(1.00256 -0.00363738 -7.83686e-16)
(1.00319 -0.00338737 -1.42568e-17)
(1.00376 -0.00299346 -1.74452e-16)
(1.00428 -0.00249022 3.25515e-17)
(1.00467 -0.00181128 -8.16665e-17)
(0.998532 0.000455409 -1.14962e-17)
(0.998519 -0.000252905 -1.17253e-17)
(0.998621 -0.00096232 2.03836e-17)
(0.998831 -0.00164138 -1.52155e-16)
(0.99915 -0.00226665 -2.73118e-17)
(0.99957 -0.00281514 3.61935e-16)
(1.00008 -0.00326373 -2.63734e-16)
(1.00066 -0.00359171 -3.26601e-16)
(1.0013 -0.00378329 3.49634e-16)
(1.00196 -0.00382777 -3.16262e-16)
(1.00262 -0.0037209 4.0014e-16)
(1.00326 -0.00346371 3.78398e-16)
(1.00385 -0.00305945 2.72377e-16)
(1.00438 -0.0025436 -1.81073e-16)
(1.00478 -0.00184995 -6.1554e-17)
(0.998467 0.000466851 -1.23981e-17)
(0.998453 -0.000258792 -7.19456e-17)
(0.998558 -0.000985735 -9.68661e-17)
(0.998776 -0.00168134 7.10848e-17)
(0.999105 -0.00232171 1.80138e-16)
(0.999538 -0.00288317 6.31734e-17)
(1.00006 -0.00334203 2.45101e-16)
(1.00066 -0.00367705 5.35645e-17)
(1.00132 -0.00387213 -4.59689e-16)
(1.002 -0.00391641 1.60816e-16)
(1.00268 -0.00380564 -2.27253e-16)
(1.00334 -0.00354116 -1.8868e-16)
(1.00394 -0.00312645 -2.5399e-16)
(1.00448 -0.00259784 4.00989e-17)
(1.00489 -0.0018893 1.48669e-16)
(0.9984 0.000478336 -1.903e-17)
(0.998385 -0.000264848 3.42681e-17)
(0.998494 -0.00100952 4.13674e-17)
(0.998718 -0.00172186 -1.42477e-16)
(0.999058 -0.00237754 6.95222e-17)
(0.999505 -0.00295215 -2.10906e-16)
(1.00005 -0.00342143 -2.58326e-17)
(1.00067 -0.0037636 3.171e-16)
(1.00134 -0.00396224 -2.02216e-16)
(1.00204 -0.00400636 -2.67247e-16)
(1.00274 -0.00389166 2.29474e-16)
(1.00342 -0.00361984 -6.80916e-17)
(1.00404 -0.00319458 -7.19684e-16)
(1.00459 -0.00265308 7.33645e-17)
(1.005 -0.00192943 1.06946e-16)
(0.998332 0.000489858 -9.79504e-18)
(0.998315 -0.00027109 3.34252e-17)
(0.998428 -0.00103368 1.25915e-17)
(0.998659 -0.00176296 1.89932e-17)
(0.99901 -0.00243414 1.1997e-16)
(0.99947 -0.00302208 6.66554e-17)
(1.00003 -0.00350194 -2.19502e-16)
(1.00067 -0.00385139 -2.00419e-17)
(1.00136 -0.00405369 6.05674e-16)
(1.00208 -0.00409769 -1.94217e-16)
(1.0028 -0.00397909 -5.70969e-18)
(1.00349 -0.00369988 2.87044e-17)
(1.00413 -0.00326399 2.7712e-17)
(1.00469 -0.00270942 -5.07992e-17)
(1.00512 -0.00197035 1.68815e-17)
(0.998261 0.000501408 2.58121e-17)
(0.998244 -0.000277532 -6.81811e-17)
(0.99836 -0.00105824 -7.78689e-17)
(0.998599 -0.00180467 1.49858e-19)
(0.99896 -0.00249156 -1.81151e-16)
(0.999434 -0.00309303 -2.89244e-17)
(1.00001 -0.00358364 4.26218e-17)
(1.00066 -0.00394052 -4.82548e-17)
(1.00138 -0.00414659 -4.10055e-16)
(1.00212 -0.00419053 5.45858e-16)
(1.00286 -0.00406804 -3.11446e-17)
(1.00357 -0.00378141 -5.70091e-17)
(1.00422 -0.00333476 3.35859e-16)
(1.0048 -0.0027669 -3.7634e-16)
(1.00523 -0.00201203 7.92747e-18)
(0.998189 0.000512978 2.73876e-18)
(0.998171 -0.000284184 8.17936e-17)
(0.998291 -0.00108322 2.19791e-16)
(0.998536 -0.001847 -5.54196e-17)
(0.998908 -0.00254982 1.17727e-16)
(0.999397 -0.00316503 -1.82911e-16)
(0.999988 -0.0036666 -2.1902e-16)
(1.00066 -0.00403108 5.25836e-18)
(1.00139 -0.00424104 2.38748e-16)
(1.00216 -0.004285 -4.76422e-16)
(1.00292 -0.00415863 1.18641e-16)
(1.00365 -0.0038645 -2.06147e-17)
(1.00431 -0.00340692 2.59454e-16)
(1.00491 -0.00282549 8.01115e-17)
(1.00535 -0.00205435 -1.24457e-16)
(0.998115 0.000524559 1.05246e-18)
(0.998097 -0.000291056 -8.87733e-17)
(0.99822 -0.00110863 -1.25441e-16)
(0.998472 -0.00188997 2.07591e-17)
(0.998855 -0.00260895 -2.18717e-17)
(0.999358 -0.00323814 1.66032e-16)
(0.999966 -0.00375088 3.596e-16)
(1.00066 -0.00412314 -3.18927e-16)
(1.00141 -0.00433713 3.62718e-16)
(1.00219 -0.00438117 3.20587e-17)
(1.00297 -0.0042509 7.11246e-17)
(1.00372 -0.00394915 -1.37325e-16)
(1.00441 -0.00348043 2.64999e-16)
(1.00501 -0.0028851 1.50064e-16)
(1.00546 -0.00209727 1.95516e-16)
(0.998039 0.000536146 -8.6075e-18)
(0.99802 -0.000298152 8.46804e-17)
(0.998147 -0.00113447 1.54507e-16)
(0.998407 -0.00193361 5.33758e-17)
(0.9988 -0.002669 1.56097e-16)
(0.999317 -0.0033124 1.19869e-16)
(0.999942 -0.00383653 -3.22924e-16)
(1.00065 -0.00421675 6.46887e-16)
(1.00143 -0.00443488 -2.03458e-16)
(1.00223 -0.00447906 -6.76684e-17)
(1.00303 -0.00434484 -2.44875e-16)
(1.0038 -0.00403531 -1.07504e-16)
(1.0045 -0.00355521 -2.94912e-16)
(1.00512 -0.00294565 -1.08571e-16)
(1.00558 -0.00214071 4.70221e-17)
(0.99796 0.000547733 -3.05676e-17)
(0.997942 -0.000305475 -9.05586e-17)
(0.998072 -0.00116077 -1.0836e-17)
(0.998339 -0.00197793 1.06182e-16)
(0.998743 -0.00272997 -1.42059e-16)
(0.999274 -0.00338783 -1.04302e-16)
(0.999917 -0.00392357 4.04096e-16)
(1.00065 -0.00431192 -1.2068e-16)
(1.00144 -0.00453431 -5.15486e-16)
(1.00227 -0.00457864 7.0934e-17)
(1.00309 -0.00444039 -1.24329e-16)
(1.00388 -0.00412293 2.29957e-16)
(1.0046 -0.0036312 3.6816e-16)
(1.00523 -0.00300711 3.27702e-16)
(1.0057 -0.00218471 -2.7403e-16)
(0.99788 0.000559315 1.8333e-18)
(0.997862 -0.000313023 -1.74678e-17)
(0.997995 -0.00118751 -7.22986e-17)
(0.998269 -0.00202294 4.50595e-17)
(0.998685 -0.00279187 -7.87686e-17)
(0.999231 -0.00346444 1.34327e-16)
(0.999891 -0.004012 -1.16116e-16)
(1.00064 -0.00440864 3.98392e-17)
(1.00146 -0.00463538 -1.08041e-16)
(1.0023 -0.00467987 2.74837e-16)
(1.00315 -0.00453753 3.36203e-16)
(1.00396 -0.00421197 1.94227e-18)
(1.00469 -0.00370839 -5.85931e-16)
(1.00534 -0.00306949 -3.98443e-16)