1.45 	0 	0 	-0.00812112 	-0.00258526 	1.65396e-20
2.35 	0 	0 	0.0622463 	-0.00662115 	9.89375e-21
