1.45 	0 	0 	-0.291742
2.35 	0 	0 	-0.127067
