1.45 	0 	0 	0.286927 	-0.0173748 	2.21174e-21
2.35 	0 	0 	0.615168 	-0.0124343 	-9.99233e-22
