/*--------------------------------*- C++ -*----------------------------------*\
  =========                 |
  \\      /  F ield         | OpenFOAM: The Open Source CFD Toolbox
   \\    /   O peration     | Website:  https://openfoam.org
    \\  /    A nd           | Version:  6.0
     \\/     M anipulation  |
\*---------------------------------------------------------------------------*/
FoamFile
{
    version     2.0;
    format      ascii;
    class       surfaceScalarField;
    location    "26";
    object      phi;
}
// * * * * * * * * * * * * * * * * * * * * * * * * * * * * * * * * * * * * * //

dimensions      [0 3 -1 0 0 0 0];

internalField   nonuniform List<scalar> 
3880
(
-1.79773e-05
1.79711e-05
6.23623e-09
-5.34956e-05
3.55049e-05
1.34816e-08
-9.5386e-05
4.18728e-05
1.75176e-08
-0.000136582
4.11769e-05
1.9399e-08
-0.000172723
3.61212e-05
1.9757e-08
-0.000201397
2.86549e-05
1.90054e-08
-0.000221671
2.02563e-05
1.74099e-08
-0.000233782
1.20959e-05
1.51368e-08
-0.000238937
5.14306e-06
1.23254e-08
1.72475e-07
9.03163e-09
-0.000239119
-1.72986e-05
3.52697e-05
-5.08467e-05
6.90529e-05
-8.96137e-05
8.06398e-05
-0.000126646
7.82093e-05
-0.000157624
6.70989e-05
-0.000180101
5.11326e-05
-0.000193059
3.32137e-05
-0.000196634
1.56711e-05
-0.000191979
4.87803e-07
-1.0698e-05
-0.000181108
-1.59058e-05
5.11755e-05
-4.54317e-05
9.85789e-05
-7.78645e-05
0.000113073
-0.00010652
0.000106865
-0.000127204
8.77827e-05
-0.000137439
6.13683e-05
-0.00013605
3.18237e-05
-0.000122965
2.58613e-06
-9.91996e-05
-2.32773e-05
-4.30757e-05
-6.68218e-05
-1.37116e-05
6.48871e-05
-3.69689e-05
0.000121836
-5.96301e-05
0.000135734
-7.55188e-05
0.000122753
-8.07411e-05
9.3005e-05
-7.28756e-05
5.35028e-05
-5.05711e-05
9.51925e-06
-1.34424e-05
-3.45426e-05
3.77647e-05
-7.44844e-05
-0.000106271
0.00010096
-1.05528e-05
7.544e-05
-2.49406e-05
0.000136224
-3.3941e-05
0.000144734
-3.22251e-05
0.000121038
-1.65063e-05
7.72862e-05
1.53423e-05
2.16542e-05
6.4731e-05
-3.98695e-05
0.000132423
-0.000102234
0.000218138
-0.0001602
-0.000208014
0.000319881
-6.17826e-06
8.16182e-05
-8.55881e-06
0.000138604
7.38945e-07
0.000135437
2.57807e-05
9.59957e-05
6.87938e-05
3.42731e-05
0.000131142
-4.06941e-05
0.00021391
-0.000122638
0.000318107
-0.000206431
0.000444155
-0.000286247
-0.000354183
0.000590324
-2.76213e-07
8.18944e-05
1.31517e-05
0.000125176
4.64016e-05
0.000102187
0.000101888
4.05092e-05
0.000180259
-4.40978e-05
0.000281401
-0.000141836
0.000405228
-0.000246465
0.000552298
-0.000353501
0.000723692
-0.000457641
-0.000549003
0.000918511
7.43685e-06
7.44576e-05
4.10731e-05
9.15403e-05
0.000104971
3.82885e-05
0.000199725
-5.42451e-05
0.000324043
-0.000168416
0.000475551
-0.000293343
0.000651633
-0.000422547
0.000850582
-0.000552451
0.00107287
-0.000679927
-0.00079799
0.00132186
1.70688e-05
5.73887e-05
7.55188e-05
3.30903e-05
0.000177339
-6.35314e-05
0.000321615
-0.000198521
0.000505397
-0.000352198
0.000723922
-0.000511868
0.000970913
-0.000669538
0.00123956
-0.000821094
0.00152609
-0.00096646
-0.00111633
0.00184443
2.83539e-05
2.90348e-05
0.000115574
-5.41297e-05
0.000261864
-0.000209821
0.000465821
-0.000402478
0.000724655
-0.000611033
0.0010339
-0.000821112
0.00138676
-0.0010224
0.00177244
-0.00120677
0.00217523
-0.00136925
-0.00151382
0.00257271
4.04784e-05
-1.14436e-05
0.000158387
-0.000172039
0.000352114
-0.000403548
0.000620395
-0.000670759
0.000962611
-0.000953248
0.00137945
-0.00123796
0.00187418
-0.00151712
0.00245587
-0.00178846
0.00314747
-0.00206085
-0.00237263
0.00400627
5.23627e-05
-6.38064e-05
0.000199966
-0.000319642
0.00043803
-0.000641612
0.00076304
-0.000995769
0.00117231
-0.00136252
0.00166399
-0.00172963
0.00223698
-0.00209012
0.00289045
-0.00244193
0.00361888
-0.00278928
-0.0031412
0.00438745
6.34883e-05
-0.000127295
0.000238262
-0.000494416
0.000514886
-0.000918235
0.000885347
-0.00136623
0.00134188
-0.00181906
0.00187635
-0.0022641
0.00247957
-0.00269333
0.00313972
-0.00310209
0.00383826
-0.00348782
-0.00384437
0.00454144
7.38749e-05
-0.00020117
0.000272999
-0.000693541
0.000582142
-0.00122738
0.000987516
-0.0017716
0.00147525
-0.00230679
0.00203073
-0.00281958
0.00263818
-0.00330078
0.00327988
-0.00374379
0.00393457
-0.0041425
-0.00448572
0.00457591
8.36661e-05
-0.000284836
0.000304324
-0.000914198
0.000640066
-0.00156312
0.00107071
-0.00220225
0.00157624
-0.00281232
0.00213648
-0.00337982
0.00273121
-0.00389551
0.00334034
-0.00435292
0.00394375
-0.00474591
-0.00506358
0.00452161
9.28514e-05
-0.000377687
0.000331976
-0.00115332
0.000688087
-0.00191923
0.00113439
-0.00264856
0.00164515
-0.00332308
0.00219583
-0.00393049
0.00276371
-0.00446339
0.0033285
-0.00491772
0.00387278
-0.00529019
-0.00557351
0.00438271
0.000101187
-0.000478874
0.000355074
-0.00140721
0.000724495
-0.00228865
0.00117615
-0.00310021
0.00167936
-0.00382629
0.00220661
-0.00445775
0.0027344
-0.00499118
0.00324391
-0.00542722
0.00372131
-0.00576759
-0.00601066
0.00415847
0.000108244
-0.000587118
0.000372274
-0.00167124
0.000746868
-0.00266325
0.0011927
-0.00354604
0.00167528
-0.00430887
0.00216566
-0.00494813
0.00264119
-0.00546671
0.00308581
-0.00587184
0.00348994
-0.00617172
-0.00637144
0.00385072
0.000113497
-0.000700615
0.000382063
-0.0019398
0.000752694
-0.00303388
0.00118098
-0.00397432
0.00163005
-0.00475794
0.00207119
-0.00538927
0.00248407
-0.00587959
0.00285637
-0.00624414
0.00318302
-0.00649837
-0.00665422
0.00346579
0.000116417
-0.000817032
0.000383025
-0.00220641
0.000739888
-0.00339074
0.00113889
-0.00437332
0.00154249
-0.00516155
0.00192383
-0.0057706
0.0022661
-0.00622186
0.00256131
-0.00653935
0.00280873
-0.00674579
-0.00685942
0.00301393
0.000116537
-0.000933569
0.000374057
-0.00246393
0.000707133
-0.00372382
0.00106574
-0.00473193
0.0014135
-0.00550931
0.00172682
-0.00608393
0.00199325
-0.0064883
0.00220924
-0.00675534
0.00237797
-0.00691451
-0.00698927
0.00250781
0.000113456
-0.00104702
0.000354392
-0.00270487
0.000653919
-0.00402334
0.000962185
-0.00504019
0.00124573
-0.00579285
0.00148538
-0.00632358
0.00167341
-0.00667633
0.00181047
-0.0068924
0.00190288
-0.00700692
-0.00704725
0.00196086
0.000106915
-0.00115394
0.000323747
-0.0029217
0.000580664
-0.00428026
0.000830195
-0.00528972
0.00104337
-0.00600602
0.00120617
-0.00648638
0.00131559
-0.00678575
0.00137587
-0.00695267
0.00139564
-0.00702669
-0.00703768
0.00138606
9.67679e-05
-0.00125071
0.000282244
-0.00310718
0.000488519
-0.00448654
0.00067267
-0.00547387
0.000811475
-0.00614483
0.00089644
-0.00657135
0.000928879
-0.00681819
0.000915853
-0.00693965
0.000867419
-0.00697825
-0.00696522
0.000794968
8.29953e-05
-0.0013337
0.000230399
-0.00325458
0.000379248
-0.00463538
0.000493135
-0.00558776
0.000555482
-0.00620717
0.000563311
-0.00657918
0.000521675
-0.00677656
0.000439583
-0.00685756
0.000327686
-0.00686636
-0.00683464
0.000197099
6.57153e-05
-0.00139942
0.000169098
-0.00335796
0.000255107
-0.00472139
0.000295477
-0.00562813
0.00028078
-0.00619247
0.000213294
-0.00651169
0.000101144
-0.00666441
-4.55466e-05
-0.00671086
-0.000216287
-0.00669562
-0.00665048
-0.00040044
4.51981e-05
-0.00144462
9.96007e-05
-0.00341237
0.000118803
-0.0047406
8.38487e-05
-0.00559318
-7.42584e-06
-0.0061012
-0.000147909
-0.00637121
-0.000327022
-0.00648529
-0.000534193
-0.00650369
-0.000759699
-0.00647011
-0.00641656
-0.000993625
2.18937e-05
-0.00146651
2.35782e-05
-0.00341405
-2.64765e-05
-0.00469054
-0.000137287
-0.00548237
-0.00030402
-0.00593447
-0.000515281
-0.00615995
-0.000758498
-0.00624208
-0.00102304
-0.00623915
-0.00130046
-0.00619269
-0.00613333
-0.00158369
-3.52773e-06
-0.00146298
-5.68124e-05
-0.00336077
-0.000176943
-0.00457041
-0.000362998
-0.00529631
-0.000603899
-0.00569357
-0.000884754
-0.00587909
-0.00119134
-0.00593549
-0.00151281
-0.00591769
-0.00184213
-0.00586337
-0.00579384
-0.00218162
-3.01114e-05
-0.00143287
-0.00013875
-0.00325213
-0.000327749
-0.00438141
-0.000586911
-0.00503715
-0.000900415
-0.00538006
-0.00125165
-0.00552786
-0.00162609
-0.00556105
-0.00201334
-0.00553045
-0.00240941
-0.00546729
-0.00540648
-0.00279677
-5.66239e-05
-0.00137625
-0.000218716
-0.00309004
-0.000472486
-0.00412764
-0.000799111
-0.00471053
-0.00117946
-0.00499971
-0.00159763
-0.00510969
-0.0020423
-0.00511637
-0.00250622
-0.00506652
-0.00298849
-0.00498502
-0.00486994
-0.00352503
-8.19894e-05
-0.00129426
-0.000293666
-0.00287836
-0.000605403
-0.0038159
-0.000989476
-0.00432645
-0.00142235
-0.00456684
-0.00188596
-0.00464608
-0.00236732
-0.00463501
-0.00285745
-0.0045764
-0.00335016
-0.00449231
-0.00439084
-0.00382926
-0.00010557
-0.00118869
-0.000362219
-0.00262171
-0.000725138
-0.00345298
-0.00115832
-0.00389327
-0.00163426
-0.00409091
-0.00213323
-0.00414711
-0.00264178
-0.00412646
-0.00315094
-0.00406724
-0.00365351
-0.00398974
-0.00390445
-0.00413989
-0.000127022
-0.00106167
-0.000423788
-0.00232494
-0.000831586
-0.00304519
-0.00130723
-0.00341762
-0.00182018
-0.00357796
-0.00234997
-0.00361732
-0.00288354
-0.00359289
-0.00341273
-0.00353806
-0.00393195
-0.00347052
-0.00339976
-0.00443664
-0.000146083
-0.000915582
-0.000477938
-0.00199309
-0.000924563
-0.00259856
-0.00143677
-0.00290541
-0.00198183
-0.00303291
-0.0025391
-0.00306005
-0.0030963
-0.00303569
-0.00364642
-0.00298793
-0.0041855
-0.00293144
-0.00287402
-0.00471124
-0.000162506
-0.000753075
-0.000524212
-0.00163138
-0.00100364
-0.00211914
-0.00154672
-0.00236232
-0.00211916
-0.00246047
-0.00270045
-0.00247876
-0.00327915
-0.00245699
-0.00384933
-0.00241774
-0.00440819
-0.00237259
-0.00232761
-0.0049546
-0.00017604
-0.000577035
-0.0005621
-0.00124533
-0.00106816
-0.00161308
-0.00163634
-0.00179414
-0.00223124
-0.00186558
-0.00283259
-0.0018774
-0.0034297
-0.00185988
-0.0040175
-0.00182995
-0.00459394
-0.00179615
-0.00176295
-0.00515859
-0.000186445
-0.00039059
-0.000591082
-0.000840688
-0.00111739
-0.00108677
-0.00170468
-0.00120685
-0.0023168
-0.00125346
-0.00293372
-0.00126048
-0.00354533
-0.00124827
-0.00414717
-0.00122811
-0.00473769
-0.00120562
-0.00118374
-0.00531691
-0.00019351
-0.00019708
-0.000610695
-0.000423503
-0.00115065
-0.000546815
-0.00175083
-0.000606665
-0.00237462
-0.000629671
-0.00300217
-0.000632933
-0.00362377
-0.000626675
-0.00423534
-0.000616539
-0.00483565
-0.000605307
-0.000594439
-0.00542495
-0.000197083
3.2368e-09
-0.000620593
6.79529e-09
-0.00116742
8.59137e-09
-0.00177409
9.36223e-09
-0.00240377
9.57092e-09
-0.00303671
9.48962e-09
-0.0036634
9.26353e-09
-0.00427995
8.96588e-09
-0.00488526
8.63551e-09
8.29145e-09
-0.00547971
-0.000197083
0.000197087
-0.000620593
0.000423517
-0.00116742
0.000546833
-0.00177409
0.000606683
-0.00240377
0.00062969
-0.00303671
0.000632952
-0.0036634
0.000626694
-0.00427995
0.000616557
-0.00488526
0.000605324
0.000594456
-0.00547971
-0.00019351
0.000390597
-0.000610695
0.000840702
-0.00115065
0.00108679
-0.00175083
0.00120686
-0.00237462
0.00125348
-0.00300217
0.0012605
-0.00362376
0.00124829
-0.00423534
0.00122813
-0.00483565
0.00120564
0.00118375
-0.00542495
-0.000186445
0.000577041
-0.000591082
0.00124534
-0.00111739
0.00161309
-0.00170468
0.00179416
-0.0023168
0.00186559
-0.00293372
0.00187742
-0.00354533
0.0018599
-0.00414717
0.00182997
-0.00473769
0.00179616
0.00176297
-0.00531691
-0.00017604
0.000753082
-0.0005621
0.0016314
-0.00106816
0.00211915
-0.00163634
0.00236234
-0.00223124
0.00246049
-0.00283259
0.00247877
-0.0034297
0.00245701
-0.0040175
0.00241776
-0.00459393
0.0023726
0.00232763
-0.00515859
-0.000162506
0.000915588
-0.000524211
0.0019931
-0.00100364
0.00259858
-0.00154672
0.00290543
-0.00211916
0.00303293
-0.00270045
0.00306006
-0.00327915
0.0030357
-0.00384933
0.00298795
-0.00440819
0.00293146
0.00287404
-0.00495459
-0.000146083
0.00106167
-0.000477937
0.00232496
-0.000924563
0.0030452
-0.00143677
0.00341764
-0.00198182
0.00357798
-0.0025391
0.00361734
-0.00309629
0.0035929
-0.00364642
0.00353807
-0.0041855
0.00347054
0.00339977
-0.00471124
-0.000127022
0.00118869
-0.000423787
0.00262172
-0.000831585
0.003453
-0.00130723
0.00389328
-0.00182018
0.00409093
-0.00234997
0.00414713
-0.00288354
0.00412647
-0.00341273
0.00406726
-0.00393195
0.00398976
0.00390447
-0.00443664
-0.00010557
0.00129426
-0.000362219
0.00287837
-0.000725138
0.00381592
-0.00115832
0.00432647
-0.00163426
0.00456686
-0.00213322
0.0046461
-0.00264178
0.00463503
-0.00315094
0.00457641
-0.00365351
0.00449233
0.00439085
-0.00413989
-8.19893e-05
0.00137625
-0.000293666
0.00309005
-0.000605402
0.00412766
-0.000989475
0.00471054
-0.00142235
0.00499973
-0.00188596
0.00510971
-0.00236732
0.00511639
-0.00285745
0.00506654
-0.00335016
0.00498504
0.00486995
-0.00382926
-5.66238e-05
0.00143288
-0.000218716
0.00325214
-0.000472486
0.00438143
-0.00079911
0.00503717
-0.00117946
0.00538008
-0.00159762
0.00552787
-0.0020423
0.00556107
-0.00250622
0.00553046
-0.00298849
0.00546731
0.00540649
-0.00352503
-3.01113e-05
0.00146299
-0.00013875
0.00336078
-0.000327749
0.00457043
-0.000586911
0.00529633
-0.000900414
0.00569358
-0.00125165
0.00587911
-0.00162609
0.00593551
-0.00201334
0.0059177
-0.00240941
0.00586338
0.00579385
-0.00279677
-3.52757e-06
0.00146652
-5.6812e-05
0.00341406
-0.000176942
0.00469056
-0.000362998
0.00548238
-0.000603898
0.00593448
-0.000884754
0.00615997
-0.00119134
0.00624209
-0.00151281
0.00623917
-0.00184213
0.00619271
0.00613335
-0.00218162
2.18938e-05
0.00144462
2.35786e-05
0.00341238
-2.6476e-05
0.00474061
-0.000137286
0.00559319
-0.00030402
0.00610122
-0.00051528
0.00637123
-0.000758498
0.00648531
-0.00102304
0.00650371
-0.00130046
0.00647013
0.00641658
-0.00158369
4.51982e-05
0.00139942
9.96011e-05
0.00335798
0.000118803
0.00472141
8.38492e-05
0.00562815
-7.42539e-06
0.00619249
-0.000147908
0.00651171
-0.000327022
0.00666442
-0.000534193
0.00671088
-0.000759699
0.00669563
0.0066505
-0.000993625
6.57154e-05
0.00133371
0.000169098
0.00325459
0.000255107
0.0046354
0.000295478
0.00558778
0.00028078
0.00620719
0.000213295
0.0065792
0.000101144
0.00677657
-4.55466e-05
0.00685757
-0.000216287
0.00686637
0.00683465
-0.00040044
8.29955e-05
0.00125071
0.0002304
0.00310719
0.000379248
0.00448655
0.000493136
0.00547389
0.000555483
0.00614484
0.000563312
0.00657137
0.000521675
0.00681821
0.000439583
0.00693967
0.000327685
0.00697827
0.00696524
0.000197099
9.67681e-05
0.00115394
0.000282245
0.00292171
0.000488519
0.00428028
0.000672671
0.00528974
0.000811475
0.00600604
0.000896441
0.0064864
0.000928879
0.00678577
0.000915853
0.00695269
0.000867418
0.00702671
0.00703769
0.000794967
0.000106916
0.00104703
0.000323748
0.00270488
0.000580665
0.00402336
0.000830195
0.00504021
0.00104337
0.00579287
0.00120617
0.0063236
0.00131559
0.00667635
0.00137587
0.00689241
0.00139564
0.00700694
0.00704727
0.00138606
0.000113456
0.000933572
0.000354393
0.00246394
0.00065392
0.00372383
0.000962185
0.00473194
0.00124573
0.00550933
0.00148538
0.00608395
0.00167341
0.00648832
0.00181047
0.00675536
0.00190288
0.00691453
0.00698929
0.00196086
0.000116537
0.000817036
0.000374058
0.00220642
0.000707134
0.00339075
0.00106574
0.00437334
0.0014135
0.00516157
0.00172682
0.00577062
0.00199325
0.00622189
0.00220924
0.00653937
0.00237797
0.00674581
0.00685944
0.00250781
0.000116417
0.000700619
0.000383026
0.00193981
0.000739889
0.00303389
0.00113889
0.00397434
0.0015425
0.00475796
0.00192383
0.00538929
0.0022661
0.00587962
0.0025613
0.00624417
0.00280872
0.00649839
0.00665423
0.00301393
0.000113498
0.000587121
0.000382063
0.00167125
0.000752696
0.00266326
0.00118098
0.00354606
0.00163005
0.00430889
0.00207119
0.00494815
0.00248407
0.00546674
0.00285637
0.00587186
0.00318302
0.00617174
0.00637146
0.00346579
0.000108244
0.000478877
0.000372275
0.00140722
0.00074687
0.00228866
0.0011927
0.00310022
0.00167528
0.00382631
0.00216566
0.00445777
0.00264119
0.0049912
0.00308581
0.00542724
0.00348994
0.00576761
0.00601069
0.00385072
0.000101188
0.000377689
0.000355075
0.00115333
0.000724497
0.00191924
0.00117615
0.00264857
0.00167936
0.0033231
0.00220661
0.00393051
0.00273441
0.00446341
0.00324391
0.00491774
0.00372131
0.00529021
0.00557353
0.00415847
9.28518e-05
0.000284838
0.000331977
0.000914204
0.000688089
0.00156313
0.00113439
0.00220227
0.00164515
0.00281234
0.00219583
0.00337984
0.00276371
0.00389553
0.00332851
0.00435294
0.00387278
0.00474594
0.0050636
0.00438271
8.36665e-05
0.000201171
0.000304325
0.000693546
0.000640069
0.00122739
0.00107072
0.00177162
0.00157625
0.00230681
0.00213648
0.0028196
0.00273122
0.0033008
0.00334035
0.00374381
0.00394376
0.00414253
0.00448574
0.00452161
7.38754e-05
0.000127296
0.000273001
0.00049442
0.000582145
0.000918242
0.000987522
0.00136624
0.00147526
0.00181907
0.00203074
0.00226412
0.00263819
0.00269335
0.00327989
0.00310211
0.00393457
0.00348784
0.0038444
0.00457592
6.34889e-05
6.38068e-05
0.000238264
0.000319644
0.00051489
0.000641617
0.000885353
0.000995777
0.00134189
0.00136253
0.00187636
0.00172964
0.00247958
0.00209013
0.00313974
0.00244195
0.00383828
0.0027893
0.00314123
0.00454145
5.23635e-05
1.14433e-05
0.000199969
0.000172039
0.000438035
0.000403551
0.000763048
0.000670764
0.00117233
0.000953257
0.001664
0.00123797
0.002237
0.00151714
0.00289047
0.00178849
0.0036189
0.00206087
0.00237265
0.00438747
4.04793e-05
-2.90361e-05
0.00015839
5.41277e-05
0.000352121
0.00020982
0.000620406
0.00040248
0.000962625
0.000611037
0.00137947
0.000821121
0.0018742
0.00102241
0.00245589
0.00120679
0.00314749
0.00136927
0.00151385
0.0040063
2.83551e-05
-5.73912e-05
0.000115578
-3.3095e-05
0.000261871
6.35265e-05
0.000465834
0.000198518
0.000724673
0.000352198
0.00103392
0.000511872
0.00138679
0.000669546
0.00177247
0.000821107
0.00217526
0.000966479
0.00111636
0.00257275
1.70702e-05
-7.44614e-05
7.55233e-05
-9.15482e-05
0.000177348
-3.82977e-05
0.000321629
5.42366e-05
0.000505417
0.000168409
0.000723948
0.000293341
0.000970945
0.000422549
0.00123959
0.000552458
0.00152613
0.00067994
0.000798011
0.00184448
7.43833e-06
-8.18997e-05
4.10779e-05
-0.000125188
0.000104981
-0.000102201
0.000199741
-4.05232e-05
0.000324064
4.40855e-05
0.000475579
0.000141827
0.000651667
0.00024646
0.000850623
0.000353501
0.00107292
0.000457648
0.000549017
0.00132191
-2.74682e-07
-8.1625e-05
1.31566e-05
-0.000138619
4.64112e-05
-0.000135455
0.000101903
-9.60153e-05
0.00018028
-3.42916e-05
0.000281429
4.06785e-05
0.000405263
0.000122626
0.000552339
0.000206425
0.00072374
0.000286248
0.000354191
0.000918566
-6.17677e-06
-7.54483e-05
-8.55403e-06
-0.000136242
7.48175e-07
-0.000144757
2.57952e-05
-0.000121062
6.8814e-05
-7.73104e-05
0.000131168
-2.1676e-05
0.000213943
3.98517e-05
0.000318146
0.000102222
0.000444201
0.000160193
0.000208015
0.000590376
-1.05515e-05
-6.48968e-05
-2.49363e-05
-0.000121857
-3.39327e-05
-0.000135761
-3.22121e-05
-0.000122783
-1.64882e-05
-9.30344e-05
1.53658e-05
-5.353e-05
6.47602e-05
-9.54274e-06
0.000132458
3.45242e-05
0.000218179
7.44722e-05
0.000106266
0.000319929
-1.37105e-05
-5.11864e-05
-3.69652e-05
-9.86023e-05
-5.96231e-05
-0.000113103
-7.55079e-05
-0.000106898
-8.07259e-05
-8.78164e-05
-7.28559e-05
-6.14e-05
-5.05467e-05
-3.1852e-05
-1.3413e-05
-2.60949e-06
3.77992e-05
2.32599e-05
4.30654e-05
0.000101
-1.59049e-05
-3.52814e-05
-4.54289e-05
-6.90783e-05
-7.78592e-05
-8.06727e-05
-0.000106512
-7.82456e-05
-0.000127192
-6.71357e-05
-0.000137425
-5.11678e-05
-0.000136031
-3.32455e-05
-0.000122943
-1.56982e-05
-9.91735e-05
-5.09132e-07
1.06834e-05
-6.67916e-05
-1.72981e-05
-1.79834e-05
-5.0845e-05
-3.55314e-05
-8.96104e-05
-4.19073e-05
-0.000126641
-4.1215e-05
-0.000157617
-3.616e-05
-0.000180092
-2.86922e-05
-0.000193047
-2.02903e-05
-0.00019662
-1.21253e-05
-0.000191963
-5.16688e-06
-1.89653e-07
-0.000181089
-1.79771e-05
-5.34951e-05
-9.53849e-05
-0.000136581
-0.000172721
-0.000201394
-0.000221667
-0.000233777
-0.000238932
-0.000239112
0.000184931
-0.000423549
-5.00557e-07
0.0013224
-0.00113598
-1.48742e-06
0.00248886
-0.00116517
-1.28852e-06
0.00323568
-0.000748737
1.91156e-06
0.00385725
-0.000625233
3.66154e-06
0.00428748
-0.000432061
1.8317e-06
0.00463322
-0.000345656
-8.04593e-08
0.00486845
-0.000230914
-4.31646e-06
0.00508108
-0.00020791
-4.72224e-06
-0.000129313
-5.67946e-07
0.000296609
-0.000901266
0.00140484
-0.00224421
0.002545
-0.00230533
0.00327525
-0.00147898
0.00388524
-0.00123523
0.0043088
-0.00085562
0.00465038
-0.000687238
0.00488385
-0.00046438
0.00509573
-0.000419789
-0.000260246
0.000512806
-0.00148089
0.00156404
-0.00329544
0.00265304
-0.00339433
0.00335138
-0.00217733
0.00393915
-0.001823
0.00435001
-0.00126648
0.00468373
-0.00102096
0.00491396
-0.000694602
0.00512453
-0.000630368
-0.000393393
0.000819663
-0.0021996
0.00178907
-0.00426485
0.0028049
-0.00441015
0.00345841
-0.00283084
0.00401503
-0.00237962
0.00440836
-0.00165981
0.0047314
-0.001344
0.00495752
-0.000920718
0.00516671
-0.000839566
-0.000530197
0.0011976
-0.00307732
0.00206466
-0.00513191
0.0029893
-0.00533479
0.00358833
-0.00342987
0.00410729
-0.00289858
0.00447994
-0.00203246
0.00479067
-0.00165473
0.00501265
-0.0011427
0.00522102
-0.00104794
-0.00067246
0.00162255
-0.00410955
0.0023722
-0.00588156
0.00319257
-0.00615516
0.00373146
-0.00396876
0.00420912
-0.00337624
0.00455994
-0.00238328
0.00485819
-0.00195298
0.00507704
-0.00136155
0.00528593
-0.00125683
-0.00082244
0.00206646
-0.0052575
0.00269051
-0.00650561
0.0033995
-0.00686415
0.00387705
-0.00444631
0.00431297
-0.00381216
0.00464299
-0.0027133
0.00493019
-0.00224017
0.00514802
-0.00157938
0.00535964
-0.00146845
-0.00098289
0.002499
-0.00643464
0.00299651
-0.00700312
0.0035941
-0.00746174
0.00401391
-0.00486612
0.00441096
-0.00420921
0.00472343
-0.00302576
0.00500262
-0.00251937
0.00522269
-0.00179945
0.00544014
-0.00168591
-0.00115708
0.00290257
-0.00749277
0.00327127
-0.00737183
0.00376233
-0.0079528
0.00413157
-0.00523537
0.0044956
-0.00457324
0.00479573
-0.00332589
0.00507146
-0.0027951
0.0052981
-0.00202609
0.00552534
-0.00191315
-0.00134877
0.00328194
-0.008202
0.00351316
-0.00760305
0.0038933
-0.00833294
0.00422277
-0.00556483
0.00456016
-0.00491062
0.00485497
-0.00362071
0.0051327
-0.00307284
0.00537153
-0.00226492
0.00561275
-0.00215437
-0.00156272
0.0432861
-0.000927208
-0.0505609
0.0390748
-0.00339174
0.0369966
-0.00625474
0.0368226
-0.00539084
0.0366733
-0.00476129
0.0368517
-0.00379913
0.0370482
-0.0032693
0.0373189
-0.00253563
0.0375434
-0.0023789
-0.00187599
0.0523406
0.00329995
-0.0565677
0.0501496
-0.00120078
0.0475512
-0.00365631
0.0460213
-0.00386099
0.0448098
-0.00354977
0.0439917
-0.00298103
0.0433492
-0.00262677
0.042942
-0.00212841
0.0425499
-0.00198681
-0.00169755
0.0539023
0.00451188
-0.0551142
0.052624
7.74675e-05
0.0510015
-0.00203374
0.0496979
-0.00255737
0.0485955
-0.00244747
0.047737
-0.00212244
0.0469864
-0.00187623
0.0464275
-0.00156951
0.0458738
-0.00143306
-0.00131932
0.0520575
0.00436428
-0.0519099
0.051651
0.000484027
0.0508122
-0.00119495
0.0499737
-0.00171886
0.0492275
-0.00170131
0.0486225
-0.00151745
0.0480699
-0.00132356
0.0476312
-0.00113089
0.0471891
-0.000990945
-0.000964044
0.0500042
0.00368339
-0.0493233
0.0498775
0.000610689
0.0494507
-0.000768141
0.0489455
-0.00121365
0.0484719
-0.0012277
0.0480809
-0.00112648
0.0477272
-0.000969826
0.0474359
-0.000839609
0.0471507
-0.00070568
-0.000703229
0.0483055
0.00288496
-0.0475071
0.04833
0.00058623
0.0480763
-0.000514504
0.0477407
-0.000878064
0.0474145
-0.000901472
0.0471379
-0.000849846
0.0468991
-0.000731078
0.0466982
-0.000638653
0.0465165
-0.000523973
-0.000520811
0.0470974
0.00209712
-0.0463095
0.0471892
0.000494358
0.0470136
-0.000338901
0.0467567
-0.000621175
0.0464998
-0.000644493
0.0462713
-0.000621408
0.04608
-0.000539711
0.0459163
-0.000474949
0.0457797
-0.000387385
-0.000379899
0.0462832
0.00135971
-0.0455458
0.0464246
0.000352951
0.046291
-0.000205313
0.0460693
-0.000399431
0.0458423
-0.000417442
0.0456306
-0.000409806
0.0454515
-0.000360575
0.045296
-0.000319431
0.0451698
-0.000261183
-0.000253139
0.0457867
0.000667665
-0.0450947
0.0459597
0.000180012
0.0458524
-9.807e-05
0.045647
-0.000194008
0.0454325
-0.000202959
0.0452263
-0.000203575
0.0450468
-0.000181038
0.0448892
-0.000161834
0.04476
-0.000132004
-0.000127732
0.0455525
-0.0448848
0.0457325
0.0456344
0.0454404
0.0452375
0.0450339
0.0448529
0.044691
0.044559
0.0567757
0.00230134
-0.0560632
0.0573303
0.00291128
0.0576782
0.00350281
0.0577697
0.00406689
0.0575582
0.00459428
0.0570036
0.00507618
0.0560746
0.00550488
0.0547418
0.00587424
0.0529499
0.00617941
0.00639525
0.0513978
0.00169268
-0.0507891
0.0520514
0.0022576
0.0527361
0.00281817
0.0534337
0.00336927
0.0541228
0.00390521
0.0547792
0.00441975
0.0553776
0.00490647
0.0558929
0.00535898
0.0563007
0.00577155
0.00612826
0.0480914
0.00121783
-0.0476165
0.0486472
0.00170178
0.0492808
0.00218457
0.0499868
0.00266331
0.0507571
0.00313485
0.0515812
0.00359571
0.0524456
0.00404207
0.0533348
0.00446976
0.0542321
0.00487425
0.00524611
0.0454941
0.000891263
-0.0451675
0.0459008
0.00129507
0.0463882
0.00169714
0.0469563
0.00209523
0.0476041
0.00248706
0.0483295
0.00287031
0.049129
0.00324258
0.0499974
0.00360135
0.0509278
0.00394383
0.00426402
0.0439055
0.000651463
-0.0436657
0.0442194
0.000981177
0.0446075
0.00130901
0.0450696
0.0016331
0.0456051
0.00195158
0.0462128
0.00226258
0.0468912
0.00256423
0.0476379
0.00285466
0.0484499
0.00313176
0.00339065
0.0428098
0.000469311
-0.0426276
0.0430619
0.000729044
0.0433839
0.000987008
0.0437753
0.00124169
0.0442354
0.00149157
0.0447628
0.00173517
0.045356
0.00197101
0.046013
0.00219763
0.0467314
0.0024134
0.00261495
0.042116
0.000324555
-0.0419712
0.0423276
0.00051739
0.0426058
0.00070881
0.0429499
0.000897664
0.0433586
0.00108281
0.0438307
0.00126311
0.0443642
0.00143745
0.0449571
0.00160473
0.0456068
0.00176375
0.00191221
0.0416641
0.00020396
-0.0415435
0.0418498
0.000331665
0.0421002
0.000458414
0.0424144
0.000583433
0.0427913
0.000705954
0.0432292
0.000825217
0.0437261
0.000940475
0.0442799
0.00105099
0.0448877
0.00115597
0.00125406
0.0413994
9.81399e-05
-0.0412936
0.0415693
0.000161786
0.0418027
0.000224971
0.0420989
0.000287308
0.0424564
0.000348409
0.0428737
0.000407891
0.0433488
0.000465377
0.0438793
0.000520495
0.0444624
0.000572853
0.000621813
0.0412739
-0.0411758
0.0414357
0.0416607
0.041948
0.0422964
0.0427043
0.0431697
0.0436902
0.044263
0.0481096
-0.00335383
-0.0475526
0.048823
-0.002895
0.0496457
-0.00240634
0.0505378
-0.00188578
0.0514717
-0.00133428
0.0524285
-0.000759759
0.0533902
-0.000166706
0.0543351
0.000441181
0.0552368
0.00105916
0.00168145
0.0479852
-0.00340692
-0.0479321
0.0480815
-0.00299129
0.0482205
-0.00254536
0.0484082
-0.00207341
0.0486505
-0.00157658
0.0489516
-0.00106094
0.0493152
-0.000530246
0.0497432
1.31858e-05
0.0502355
0.000566865
0.00112783
0.046897
-0.00314756
-0.0471563
0.0466931
-0.00278738
0.0465498
-0.00240206
0.0464723
-0.00199601
0.046467
-0.00157128
0.0465374
-0.00113131
0.0466858
-0.000678605
0.0469141
-0.000215169
0.0472241
0.000256911
0.000735375
0.0455817
-0.00277143
-0.0459578
0.0452634
-0.00246912
0.0450065
-0.00214516
0.0448145
-0.001804
0.0446907
-0.0014475
0.0446375
-0.00107809
0.0446568
-0.000697864
0.0447504
-0.000308767
0.0449201
8.71908e-05
0.000487918
0.0446598
-0.00234964
-0.0450816
0.0442918
-0.00210116
0.0439822
-0.00183553
0.043734
-0.00155584
0.0435502
-0.00126368
0.043433
-0.000960915
0.0433844
-0.000649269
0.0434061
-0.000330442
0.0434995
-6.17691e-06
0.000321736
0.0439895
-0.00190034
-0.0444388
0.0435922
-0.00170383
0.0432507
-0.00149401
0.042968
-0.00127314
0.0427467
-0.00104244
0.0425892
-0.000803321
0.0424971
-0.000557177
0.042472
-0.000305395
0.0425152
-4.94051e-05
0.000209329
0.0435589
-0.00143596
-0.0440233
0.0431449
-0.00128983
0.0427849
-0.00113401
0.0424817
-0.000969961
0.0422379
-0.000798607
0.0420555
-0.000620964
0.0419364
-0.000438069
0.041882
-0.000250973
0.0418934
-6.07608e-05
0.00013146
0.0432801
-0.000961477
-0.0437546
0.042855
-0.000864784
0.0424827
-0.000761704
0.0421659
-0.000653166
0.0419071
-0.000539775
0.0417083
-0.000422193
0.0415714
-0.000301104
0.0414976
-0.000177212
0.0414881
-5.12392e-05
7.6071e-05
0.0431192
-0.000481545
-0.0435991
0.0426879
-0.000433524
0.0423085
-0.000382332
0.0419838
-0.00032841
0.0417161
-0.000272056
0.0415075
-0.000213593
0.0413597
-0.000153358
0.0412742
-9.17019e-05
0.0412519
-2.89846e-05
3.44226e-05
0.0430453
-0.0435269
0.0426118
0.0422295
0.0419011
0.041629
0.0414154
0.0412621
0.0411704
0.0411414
0.0429475
0.000174625
-0.000193165
0.0429914
0.00052126
-0.000565187
0.0430659
0.000872643
-0.000947097
0.0431884
0.00123696
-0.0013595
0.0433891
0.00161955
-0.00182022
0.0437114
0.00202468
-0.00234705
0.0442143
0.00245444
-0.00295734
0.0449696
0.00291127
-0.00366657
0.0460714
0.00337119
-0.00447295
0.00392353
-0.00540471
0.0429657
0.000137876
0.0430729
0.000414018
0.043254
0.000691519
0.0435194
0.00097156
0.043884
0.00125496
0.0443668
0.00154194
0.0449896
0.00183158
0.045777
0.00212396
0.0467446
0.00240351
0.00273603
0.0429665
0.000100268
0.0430779
0.000302701
0.0432627
0.000506678
0.0435251
0.000709187
0.0438707
0.000909332
0.0443068
0.00110582
0.0448418
0.00129655
0.045486
0.00147983
0.0462438
0.00164569
0.00182349
0.0429586
7.05553e-05
0.0430476
0.000213738
0.043196
0.000358284
0.0434046
0.000500603
0.0436744
0.000639491
0.0440066
0.000773651
0.0444016
0.000901514
0.0448596
0.00102187
0.0453756
0.00112972
0.00124122
0.0429506
4.88929e-05
0.0430161
0.000148268
0.0431258
0.000248575
0.0432795
0.000346918
0.0434767
0.000442239
0.0437169
0.000533487
0.0439989
0.000619522
0.0443213
0.000699413
0.0446807
0.00077037
0.000840338
0.0429445
3.33056e-05
0.0429918
0.000101012
0.043071
0.000169321
0.0431818
0.000236181
0.0433232
0.000300816
0.0434942
0.000362488
0.0436933
0.000420453
0.0439186
0.000474119
0.0441669
0.000522013
0.000568401
0.0429403
2.19157e-05
0.0429749
6.64581e-05
0.0430328
0.000111378
0.0431137
0.000155317
0.0432167
0.000197752
0.043341
0.000238193
0.0434853
0.000276165
0.0436482
0.000311276
0.0438275
0.0003427
0.000372599
0.0429376
1.32758e-05
0.0429638
4.02457e-05
0.0430077
6.74311e-05
0.043069
9.40232e-05
0.0431471
0.000119708
0.0432411
0.000144194
0.04335
0.000167204
0.0434728
0.000188514
0.0436078
0.000207689
0.000225832
0.0429359
6.26077e-06
0.0429572
1.89803e-05
0.0429929
3.17908e-05
0.0430426