/*--------------------------------*- C++ -*----------------------------------*\
  =========                 |
  \\      /  F ield         | OpenFOAM: The Open Source CFD Toolbox
   \\    /   O peration     | Website:  https://openfoam.org
    \\  /    A nd           | Version:  6.0
     \\/     M anipulation  |
\*---------------------------------------------------------------------------*/
FoamFile
{
    version     2.0;
    format      ascii;
    class       volVectorField;
    location    "26";
    object      U;
}
// * * * * * * * * * * * * * * * * * * * * * * * * * * * * * * * * * * * * * //

dimensions      [0 1 -1 0 0 0 0];

internalField   nonuniform List<vector> 
2000
(
(-0.0019914 0.00173723 5.73555e-20)
(-0.00762195 0.00329989 6.81193e-20)
(-0.0153303 0.00365809 -6.49406e-20)
(-0.0223319 0.00333303 -1.32513e-19)
(-0.0276785 0.00263489 -9.25675e-20)
(-0.0312174 0.00176674 1.2332e-19)
(-0.033046 0.000873931 7.18309e-20)
(-0.0334336 6.31474e-05 -2.90577e-20)
(-0.0328127 -0.000586506 -7.25397e-20)
(-0.0314775 -0.00101111 5.2891e-20)
(-0.0024898 0.00512045 -1.42167e-19)
(-0.0083708 0.00968291 1.96255e-19)
(-0.0157249 0.0106933 1.95705e-20)
(-0.0220238 0.00969171 -1.13679e-19)
(-0.0264565 0.00759115 5.43964e-19)
(-0.0289466 0.00498843 -2.39406e-19)
(-0.0296394 0.0023119 -2.59008e-19)
(-0.0288308 -0.000120162 3.12398e-19)
(-0.0269693 -0.00206602 -3.081e-19)
(-0.0244269 -0.00333313 1.55431e-19)
(-0.00343579 0.00822423 2.36116e-20)
(-0.00972784 0.015407 8.39624e-21)
(-0.0163004 0.0168815 5.88163e-19)
(-0.0211411 0.0151334 2.06322e-19)
(-0.0237129 0.0116243 4.09192e-20)
(-0.0240906 0.00730584 3.38399e-19)
(-0.0225127 0.0028638 -6.42747e-19)
(-0.0193233 -0.00117893 1.39401e-20)
(-0.0150007 -0.00440558 -3.8008e-19)
(-0.0100785 -0.00649237 4.18705e-19)
(-0.00472399 0.0108675 -4.44146e-20)
(-0.0114026 0.0200576 2.55516e-19)
(-0.0166155 0.0217137 -7.44465e-19)
(-0.0191317 0.0191412 -9.62319e-20)
(-0.0188246 0.0142566 -5.47958e-19)
(-0.0159924 0.00829785 5.67502e-19)
(-0.0110072 0.00215959 -6.01946e-19)
(-0.00427603 -0.00344904 4.2274e-19)
(0.00368845 -0.00791826 1.77722e-19)
(0.0120946 -0.0107887 -2.00826e-19)
(-0.00618687 0.0128743 -4.94313e-19)
(-0.0129384 0.0232543 4.45816e-21)
(-0.0159784 0.0247604 9.1705e-19)
(-0.0151273 0.0213334 2.74935e-19)
(-0.0108036 0.0152123 -8.74192e-19)
(-0.00360004 0.00781903 5.43591e-19)
(0.00593943 0.000176376 6.16168e-19)
(0.017341 -0.00686213 -5.49364e-19)
(0.0300689 -0.0124792 3.91698e-19)
(0.0429635 -0.0160768 9.61876e-20)
(-0.00758336 0.0140736 6.75707e-20)
(-0.0136933 0.0246613 1.25315e-20)
(-0.0134233 0.0256936 -1.17241e-18)
(-0.00791053 0.0215007 -6.55914e-19)
(0.00175101 0.0144773 7.8246e-19)
(0.0146 0.00609657 -9.16303e-19)
(0.0298775 -0.00261276 1.05001e-18)
(0.0470439 -0.0107415 -9.06914e-20)
(0.0655819 -0.0172801 -2.95405e-19)
(0.0838492 -0.0215056 -8.58608e-19)
(-0.00858708 0.0143031 -1.47014e-19)
(-0.012828 0.0240013 -2.68509e-19)
(-0.00770512 0.0243005 -3.29885e-19)
(0.00409317 0.0196144 7.03756e-19)
(0.02068 0.01231 1.3055e-18)
(0.0406454 0.0037633 -2.69825e-19)
(0.0629497 -0.00515812 -6.56747e-19)
(0.086973 -0.0136627 2.00308e-19)
(0.112301 -0.0206497 -1.26152e-18)
(0.136734 -0.0253226 1.38566e-18)
(-0.00878255 0.0134228 8.99137e-19)
(-0.0093228 0.0210807 -4.90779e-19)
(0.00265708 0.0204927 9.58206e-19)
(0.0227535 0.0158033 -1.56554e-18)
(0.0481992 0.00918667 -7.48061e-19)
(0.0770485 0.00180244 -1.03618e-18)
(0.107873 -0.0058227 3.01036e-19)
(0.139895 -0.0132819 -8.38219e-19)
(0.172938 -0.0196113 1.82537e-18)
(0.204344 -0.0241229 5.10994e-19)
(-0.00768047 0.0113457 6.61695e-20)
(-0.00203765 0.0158328 7.99441e-19)
(0.0192694 0.0143115 1.5887e-18)
(0.0500869 0.0102842 4.85503e-19)
(0.0867333 0.00563832 1.43701e-18)
(0.126635 0.00133395 7.87691e-20)
(0.167784 -0.00243833 -7.32941e-22)
(0.208981 -0.00572843 5.79377e-19)
(0.250303 -0.00787961 4.6869e-19)
(0.289194 -0.00930838 -1.52108e-18)
(-0.00476802 0.00808361 -5.32569e-19)
(0.0101559 0.00837738 -8.92001e-19)
(0.0436608 0.00592568 -1.29662e-18)
(0.0880226 0.00319169 3.06223e-20)
(0.138786 0.00173407 -6.6104e-19)
(0.192851 0.00251462 1.04189e-18)
(0.247644 0.00585572 -2.86853e-18)
(0.301228 0.0119763 1.28787e-18)
(0.352959 0.021471 4.84142e-19)
(0.400114 0.0301984 1.51901e-18)
(0.00039187 0.00380602 2.66413e-19)
(0.028129 -0.00088226 -1.01983e-18)
(0.0768298 -0.00428593 9.10635e-19)
(0.137593 -0.00547988 -3.53311e-19)
(0.205594 -0.00346645 3.84308e-19)
(0.277871 0.00267805 8.367e-19)
(0.352589 0.0136902 -1.12337e-18)
(0.429344 0.0305116 1.45974e-19)
(0.509112 0.0524062 -5.38321e-19)
(0.594249 0.0694025 1.09209e-18)
(0.00806418 -0.00111066 3.81672e-19)
(0.0522732 -0.0111013 -9.24575e-19)
(0.118779 -0.0153429 1.25978e-18)
(0.197783 -0.0150374 -7.84585e-19)
(0.284093 -0.0103035 -2.87819e-19)
(0.374658 -0.00100159 1.70405e-19)
(0.467669 0.0127798 8.81055e-20)
(0.562558 0.030729 1.19512e-18)
(0.658976 0.0501308 3.4406e-19)
(0.754632 0.0622906 1.47076e-18)
(0.0183568 -0.00610475 -3.40659e-19)
(0.0826278 -0.0209268 1.19539e-18)
(0.169033 -0.0252768 -9.97492e-19)
(0.267092 -0.0228491 -1.16991e-18)
(0.371136 -0.0151237 1.63684e-18)
(0.477672 -0.00289381 -1.2446e-18)
(0.584303 0.0129099 3.28754e-19)
(0.689474 0.0311756 -1.94895e-18)
(0.791404 0.0492214 1.45989e-18)
(0.88611 0.0617037 7.29418e-20)
(0.0312759 -0.0105486 -4.43942e-19)
(0.118994 -0.0288016 -4.28771e-19)
(0.226898 -0.0317966 -9.1307e-19)
(0.344103 -0.025908 1.10676e-18)
(0.464496 -0.0140604 -5.59067e-20)
(0.584118 0.0020507 7.15572e-19)
(0.700032 0.0208241 1.30544e-18)
(0.809996 0.0407622 -4.01166e-19)
(0.911644 0.0597708 -1.41895e-18)
(1.00097 0.0748372 2.81716e-18)
(0.0467517 -0.0138342 -2.29461e-19)
(0.16093 -0.033224 -2.73708e-19)
(0.291371 -0.0327911 4.92606e-19)
(0.427156 -0.0216794 -9.15653e-19)
(0.561935 -0.00428021 1.56427e-19)
(0.691499 0.0168579 1.39218e-19)
(0.812725 0.0395864 6.10558e-20)
(0.923264 0.0621997 -9.85849e-21)
(1.02092 0.0831953 -1.49565e-19)
(1.10232 0.100955 -2.38172e-18)
(0.0646258 -0.0154 9.31455e-19)
(0.207703 -0.0328694 -6.5006e-19)
(0.361015 -0.0265467 8.31211e-21)
(0.514097 -0.00835102 -9.90135e-19)
(0.660705 0.0158909 -3.54271e-19)
(0.796759 0.0428563 3.31238e-19)
(0.919421 0.0699711 2.57259e-19)
(1.02679 0.0954449 -9.16729e-19)
(1.11741 0.118312 7.49326e-19)
(1.1889 0.13776 -9.82505e-19)
(0.0846191 -0.0147345 4.02008e-19)
(0.25825 -0.0266483 -3.57293e-19)
(0.433934 -0.0118431 1.48413e-18)
(0.602268 0.0150906 1.51335e-19)
(0.757601 0.047006 3.47776e-19)
(0.896467 0.079953 1.55016e-18)
(1.01684 0.111111 -2.37006e-19)
(1.11777 0.138774 2.15999e-19)
(1.19893 0.162537 8.94521e-20)
(1.25924 0.182067 -1.10063e-19)
(0.106302 -0.0113876 2.80854e-19)
(0.311164 -0.0137465 6.75279e-19)
(0.507815 0.0120064 -7.23434e-19)
(0.688652 0.0488816 -2.44932e-19)
(0.849208 0.0886554 -3.02575e-19)
(0.987196 0.127004 4.68818e-19)
(1.1019 0.161131 -2.43877e-19)
(1.19379 0.189654 6.56138e-19)
(1.26389 0.212822 2.20823e-19)
(1.31254 0.230639 -3.6e-19)
(0.12908 -0.00499546 -3.02658e-19)
(0.364725 0.00632624 2.69027e-19)
(0.58005 0.0451334 -5.74074e-19)
(0.770081 0.0925373 2.47639e-19)
(0.932206 0.139647 -2.56966e-19)
(1.06588 0.182146 -3.20724e-19)
(1.17218 0.217613 -2.57579e-19)
(1.25323 0.245282 2.87874e-19)
(1.31154 0.266182 -5.42814e-19)
(1.34889 0.280612 3.28041e-19)
(0.152201 0.00468178 -1.07882e-19)
(0.416969 0.0336816 -2.11042e-19)
(0.647888 0.0871 1.00498e-19)
(0.843473 0.144921 6.19355e-21)
(1.00364 0.198179 8.33951e-20)
(1.13011 0.243059 1.14424e-19)
(1.22605 0.277924 1.0606e-19)
(1.29539 0.302917 -1.40638e-19)
(1.34205 0.31996 1.19751e-19)
(1.36914 0.329652 -1.87414e-19)
(0.174784 0.0177194 -6.24502e-20)
(0.465796 0.0680023 -2.34279e-20)
(0.708611 0.1369 9.32362e-20)
(0.906045 0.204324 -4.29195e-20)
(1.06114 0.262002 1.14415e-19)
(1.17825 0.307184 -1.47735e-19)
(1.26278 0.339439 3.42385e-20)
(1.32041 0.360062 3.67382e-20)
(1.3563 0.371933 -1.54066e-20)
(1.37467 0.375965 5.82806e-20)
(0.195866 0.0339928 -6.7374e-20)
(0.509092 0.108512 -3.04902e-19)
(0.759721 0.192987 -2.11251e-20)
(0.955503 0.268575 6.28008e-21)
(1.10303 0.328576 -3.96651e-19)
(1.20947 0.371901 5.24288e-20)
(1.28243 0.399683 -4.46425e-20)
(1.32913 0.414543 -1.07714e-19)
(1.3557 0.420313 2.24627e-19)
(1.36717 0.418212 -4.09596e-19)
(0.214453 0.0531521 -3.25437e-20)
(0.544872 0.153973 6.17544e-19)
(0.799092 0.253338 9.95026e-20)
(0.990166 0.335149 -5.43711e-19)
(1.1284 0.395216 -4.40964e-20)
(1.22375 0.434647 -5.2118e-19)
(1.28577 0.456416 3.82087e-19)
(1.32292 0.464526 -1.38676e-19)
(1.34194 0.463688 2.46024e-19)
(1.34844 0.455403 -1.79883e-19)
(0.229595 0.0746143 -2.0521e-19)
(0.571412 0.202722 1.96046e-19)
(0.825118 0.315545 -1.41505e-19)
(1.00905 0.401309 1.06651e-18)
(1.13711 0.459222 5.26433e-19)
(1.22175 0.493023 -1.22083e-19)
(1.27412 0.507663 4.1138e-19)
(1.30348 0.508488 -2.7072e-19)
(1.3169 0.500943 -7.54806e-20)
(1.32029 0.486783 4.95235e-19)
(0.240444 0.097571 -3.55221e-19)
(0.587373 0.252736 4.52129e-19)
(0.836796 0.376936 -8.89584e-19)
(1.01187 0.464236 1.24965e-19)
(1.12969 0.51799 2.79335e-19)
(1.20471 0.54484 -4.28235e-19)
(1.24916 0.551719 -4.99026e-19)
(1.27274 0.545162 2.1916e-19)
(1.28254 0.531172 -2.64015e-19)
(1.28454 0.511741 3.17423e-19)
(0.246319 0.121015 -8.9748e-20)
(0.591888 0.30173 -4.60062e-19)
(0.833775 0.434713 2.54495e-19)
(0.999052 0.521162 4.27044e-19)
(1.10728 0.569098 -2.56765e-19)
(1.1743 0.588153 -1.91408e-19)
(1.21289 0.587113 -1.04989e-19)
(1.23275 0.573476 -5.1897e-20)
(1.24079 0.553588 1.06923e-20)
(1.24292 0.529707 1.08977e-19)
(0.246765 0.143788 6.59549e-20)
(0.584631 0.347284 -3.86318e-19)
(0.816358 0.486103 6.44429e-19)
(0.971601 0.569498 -3.81771e-19)
(1.07147 0.610387 1.06974e-19)
(1.13249 0.621288 -1.51677e-19)
(1.16742 0.612597 1.63322e-19)
(1.1856 0.592489 3.17822e-20)
(1.19357 0.567422 -7.66031e-20)
(1.19712 0.540011 1.48922e-19)
(0.241598 0.164639 -1.73447e-19)
(0.565844 0.38698 3.38942e-19)
(0.785463 0.528514 -1.51803e-20)
(0.931042 0.606953 -7.35618e-20)
(1.02421 0.640035 -2.01477e-19)
(1.08147 0.642881 2.49691e-20)
(1.11502 0.627179 6.03689e-20)
(1.13351 0.601452 -1.50607e-19)
(1.14304 0.571975 1.75788e-19)
(1.14921 0.54187 1.49733e-19)
(0.23094 0.182313 3.9188e-20)
(0.536335 0.418567 -8.11676e-20)
(0.742544 0.559674 2.37497e-20)
(0.879253 0.631624 1.38132e-20)
(0.967567 0.656555 7.65917e-20)
(1.02336 0.651784 -1.43266e-19)
(1.05789 0.629963 -3.00467e-19)
(1.07892 0.599652 -1.2268e-19)
(1.09215 0.566616 -1.56869e-19)
(1.10256 0.534693 1.32742e-19)
(0.215234 0.195656 1.10035e-19)
(0.497438 0.440135 -1.70968e-19)
(0.689478 0.57781 1.65061e-19)
(0.818274 0.642113 -3.13932e-19)
(0.903433 0.658819 7.61166e-20)
(0.959707 0.646833 5.15201e-19)
(0.997288 0.61936 -1.58011e-19)
(1.02317 0.584698 1.87697e-19)
(1.04272 0.547999 2.74917e-19)
(1.05904 0.515021 1.00006e-18)
(0.195252 0.203728 6.79461e-19)
(0.450973 0.4503 -4.62201e-19)
(0.628522 0.581868 1.12516e-18)
(0.750278 0.637908 -1.92676e-19)
(0.833399 0.64676 9.65549e-19)
(0.891066 0.628051 6.05775e-19)
(0.932319 0.594735 -1.42309e-18)
(0.963579 0.553877 2.16086e-18)
(0.989464 0.507894 -4.56696e-19)
(1.00633 0.461001 8.98765e-19)
(0.172052 0.205876 -3.74858e-19)
(0.399209 0.448258 -2.67368e-19)
(0.562398 0.571533 2.58716e-19)
(0.677936 0.619484 -6.40355e-19)
(0.759669 0.62201 -2.00015e-18)
(0.818707 0.59899 -8.04474e-19)
(0.8627 0.563186 -7.24972e-19)
(0.89712 0.521738 3.50959e-19)
(0.925123 0.478155 2.9245e-18)
(0.942611 0.437387 -6.08306e-19)
(0.146896 0.201723 1.97383e-19)
(0.344731 0.433652 -7.98927e-19)
(0.494246 0.546777 1.75697e-19)
(0.604672 0.587135 -1.27951e-18)
(0.686064 0.585017 2.80125e-18)
(0.747299 0.559928 -3.24716e-19)
(0.79459 0.524078 1.52652e-18)
(0.832429 0.484254 -2.1866e-18)
(0.863347 0.443958 6.86042e-19)
(0.884653 0.407473 1.06141e-19)
(0.121119 0.191157 1.45517e-19)
(0.290166 0.406553 8.81125e-19)
(0.427123 0.507897 -2.58837e-18)
(0.533592 0.54123 1.25946e-18)
(0.615637 0.535983 -4.11195e-21)
(0.679892 0.510615 -4.25015e-19)
(0.731209 0.476428 5.34946e-19)
(0.77324 0.439621 -5.31588e-19)
(0.808169 0.403348 -1.82724e-18)
(0.834251 0.370862 -5.00698e-19)
(0.0960494 0.174335 4.76233e-19)
(0.238035 0.367476 5.34341e-19)
(0.363857 0.455617 2.20697e-18)
(0.467423 0.482514 -1.22776e-18)
(0.550835 0.4755 2.53071e-18)
(0.61857 0.451351 -5.45104e-19)
(0.674217 0.420137 -5.76163e-19)
(0.720703 0.387297 6.80886e-19)
(0.759935 0.355512 4.43927e-19)
(0.790873 0.327122 1.60953e-18)
(0.0729453 0.151671 -4.83355e-19)
(0.190666 0.317378 1.57792e-19)
(0.306991 0.391113 4.26833e-20)
(0.408538 0.412151 1.25172e-18)
(0.493706 0.404588 -3.12447e-18)
(0.564993 0.382953 5.30801e-19)
(0.624868 0.355819 1.17198e-18)
(0.675621 0.327749 -1.41685e-18)
(0.718936 0.300908 4.99139e-19)
(0.754397 0.276895 -2.31652e-18)
(0.0529472 0.123827 1.0301e-19)
(0.150115 0.257626 5.5569e-19)
(0.258724 0.315974 2.16124e-19)
(0.358948 0.331692 2.92904e-19)
(0.445943 0.324634 5.61222e-19)
(0.520507 0.306608 1.67088e-18)
(0.584157 0.284486 -2.04575e-18)
(0.638658 0.26188 -1.15219e-18)
(0.685525 0.240439 1.90935e-19)
(0.724906 0.221193 1.50215e-18)
(0.037032 0.0916909 -6.22924e-19)
(0.118112 0.189953 -7.40939e-20)
(0.220876 0.23216 -6.20717e-19)
(0.32029 0.243021 8.84027e-20)
(0.408911 0.237332 -5.31353e-19)
(0.486186 0.223799 -6.06632e-19)
(0.552893 0.207441 -9.04023e-19)
(0.610386 0.190866 2.43603e-18)
(0.660069 0.175231 4.20255e-19)
(0.702564 0.161147 -6.40611e-19)
(0.025973 0.0563422 3.3573e-19)
(0.0960035 0.116392 4.43748e-19)
(0.194848 0.141926 1.74816e-19)
(0.293814 0.148291 -9.43519e-19)
(0.383642 0.144612 -4.39242e-19)
(0.462847 0.136225 -9.45851e-20)
(0.531696 0.126183 1.84813e-19)
(0.591267 0.116064 1.48397e-19)
(0.642895 0.10655 -1.14745e-18)
(0.687551 0.0979567 6.58435e-19)
(0.0203064 0.0190047 -1.74835e-19)
(0.0847146 0.0392045 -1.98899e-19)
(0.181594 0.0477506 1.58522e-19)
(0.280363 0.0498461 1.40738e-19)
(0.370833 0.048575 1.44236e-19)
(0.451038 0.0457343 2.20579e-19)
(0.520989 0.042349 -1.16001e-20)
(0.581624 0.0389465 -2.89331e-19)
(0.634244 0.0357524 2.74823e-19)
(0.680006 0.0328635 -4.1348e-19)
(0.0203064 -0.019006 -1.75984e-19)
(0.0847147 -0.0392072 -1.89545e-19)
(0.181594 -0.047754 1.74677e-19)
(0.280363 -0.0498498 3.41995e-19)
(0.370833 -0.0485789 2.2787e-19)
(0.451038 -0.0457381 -3.00247e-19)
(0.520989 -0.0423527 -1.63144e-19)
(0.581624 -0.0389501 7.11496e-20)
(0.634245 -0.0357559 1.59953e-19)
(0.680006 -0.0328668 -9.52482e-20)
(0.0259732 -0.0563435 4.19972e-19)
(0.0960038 -0.116394 -5.33725e-19)
(0.194849 -0.14193 -4.43885e-20)
(0.293814 -0.148295 2.95714e-19)
(0.383643 -0.144616 -1.33695e-18)
(0.462847 -0.136229 5.71254e-19)
(0.531696 -0.126187 5.8968e-19)
(0.591267 -0.116068 -6.96135e-19)
(0.642895 -0.106553 6.64958e-19)
(0.687551 -0.09796 -2.91865e-19)
(0.0370322 -0.0916922 -7.26109e-20)
(0.118112 -0.189955 -9.25957e-21)
(0.220876 -0.232163 -1.44158e-18)
(0.320291 -0.243025 -4.58573e-19)
(0.408912 -0.237336 -4.83296e-20)
(0.486187 -0.223802 -7.54387e-19)
(0.552894 -0.207444 1.4056e-18)
(0.610387 -0.19087 -4.94063e-20)
(0.660069 -0.175234 8.02607e-19)
(0.702565 -0.16115 -7.05691e-19)
(0.0529475 -0.123828 1.22627e-19)
(0.150115 -0.257629 -5.67689e-19)
(0.258724 -0.315978 1.74681e-18)
(0.358949 -0.331696 2.47198e-19)
(0.445944 -0.324638 1.2152e-18)
(0.520508 -0.306611 -1.18799e-18)
(0.584158 -0.28449 1.24714e-18)
(0.638659 -0.261884 -8.99161e-19)
(0.685526 -0.240442 -3.94875e-19)
(0.724906 -0.221196 3.35425e-19)
(0.0729458 -0.151672 1.09492e-18)
(0.190666 -0.31738 2.80649e-21)
(0.306992 -0.391116 -1.84087e-18)
(0.408539 -0.412155 -5.34075e-19)
(0.493707 -0.404592 1.77339e-18)
(0.564994 -0.382956 -1.03928e-18)
(0.624869 -0.355822 -1.20314e-18)
(0.675622 -0.327752 1.08252e-18)
(0.718937 -0.300911 -7.36954e-19)
(0.754398 -0.276898 -1.58887e-19)
(0.0960499 -0.174336 -1.63449e-19)
(0.238036 -0.367478 -7.74371e-21)
(0.363859 -0.45562 1.99764e-18)
(0.467424 -0.482517 1.14542e-18)
(0.550836 -0.475503 -1.35071e-18)
(0.618571 -0.451355 1.63545e-18)
(0.674219 -0.420141 -1.77455e-18)
(0.720704 -0.3873 1.76614e-19)
(0.759936 -0.355515 5.28566e-19)
(0.790874 -0.327125 1.22296e-18)
(0.12112 -0.191158 1.87306e-19)
(0.290167 -0.406555 3.01602e-19)
(0.427125 -0.507899 3.2803e-19)
(0.533594 -0.541233 -1.05491e-18)
(0.615639 -0.535986 -1.879e-18)
(0.679894 -0.510618 3.95701e-19)
(0.731211 -0.476431 1.14516e-18)
(0.773242 -0.439624 -3.27786e-19)
(0.808171 -0.403351 1.9733e-18)
(0.834253 -0.370865 -1.92347e-18)
(0.146896 -0.201724 -1.06026e-18)
(0.344732 -0.433654 4.07299e-19)
(0.494248 -0.54678 -1.10004e-18)
(0.604674 -0.587138 1.77833e-18)
(0.686066 -0.58502 8.89247e-19)
(0.747301 -0.559931 1.25552e-18)
(0.794592 -0.524081 -2.90496e-19)
(0.832431 -0.484257 1.14482e-18)
(0.863349 -0.443961 -2.42375e-18)
(0.884654 -0.407476 -6.319e-19)
(0.172053 -0.205877 6.24996e-20)
(0.399211 -0.44826 -7.12141e-19)
(0.562399 -0.571536 -1.13998e-18)
(0.677938 -0.619487 -4.8314e-19)
(0.759671 -0.622013 -1.36521e-18)
(0.818709 -0.598993 -1.38913e-19)
(0.862702 -0.563189 1.18808e-19)
(0.897122 -0.52174 -5.33428e-19)
(0.925125 -0.478158 -5.96238e-19)
(0.942613 -0.43739 1.57237e-18)
(0.195252 -0.203729 3.34982e-19)
(0.450975 -0.450302 4.67654e-19)
(0.628524 -0.581871 8.37987e-19)
(0.75028 -0.637911 3.72267e-20)
(0.833401 -0.646762 5.59261e-19)
(0.891069 -0.628054 -7.65678e-19)
(0.932321 -0.594737 2.3379e-18)
(0.963581 -0.553879 -1.03218e-18)
(0.989466 -0.507897 -5.07005e-19)
(1.00633 -0.461003 -1.5289e-18)
(0.215235 -0.195657 -1.31891e-19)
(0.497439 -0.440137 2.32564e-19)
(0.68948 -0.577812 -2.38408e-19)
(0.818277 -0.642116 1.28633e-19)
(0.903436 -0.658822 -1.52035e-19)
(0.959709 -0.646836 -3.90017e-19)
(0.997291 -0.619363 5.13025e-19)
(1.02318 -0.5847 -1.67996e-19)
(1.04272 -0.548002 2.60344e-19)
(1.05904 -0.515023 -5.68155e-19)
(0.23094 -0.182314 -7.10283e-21)
(0.536337 -0.418569 -1.07191e-19)
(0.742547 -0.559676 2.22151e-20)
(0.879255 -0.631627 1.43895e-19)
(0.96757 -0.656558 -6.55808e-20)
(1.02336 -0.651786 1.76888e-20)
(1.05789 -0.629966 -1.71118e-20)
(1.07893 -0.599654 -3.82244e-19)
(1.09215 -0.566619 -1.77626e-19)
(1.10256 -0.534695 -5.58499e-19)
(0.241599 -0.164639 -9.63747e-20)
(0.565846 -0.386981 3.40146e-19)
(0.785466 -0.528515 -2.11566e-19)
(0.931045 -0.606956 -7.6958e-20)
(1.02421 -0.640037 3.5324e-20)
(1.08147 -0.642883 7.04051e-20)
(1.11502 -0.627181 -6.73082e-21)
(1.13351 -0.601453 2.90668e-19)
(1.14304 -0.571977 -2.51381e-19)
(1.14922 -0.541871 -3.50212e-21)
(0.246766 -0.143788 -2.3701e-19)
(0.584633 -0.347285 -1.48563e-19)
(0.81636 -0.486105 -3.68823e-19)
(0.971604 -0.569499 4.19606e-19)
(1.07147 -0.610388 -3.07527e-20)
(1.1325 -0.62129 1.36724e-19)
(1.16743 -0.612599 1.54768e-19)
(1.18561 -0.59249 -5.6233e-20)
(1.19358 -0.567424 4.91898e-20)
(1.19713 -0.540012 -1.56993e-19)
(0.246319 -0.121016 -1.61168e-19)
(0.59189 -0.301731 -2.0702e-19)
(0.833778 -0.434714 3.12037e-19)
(0.999055 -0.521164 -4.68989e-19)
(1.10728 -0.569099 8.23755e-20)
(1.1743 -0.588155 4.16907e-20)
(1.21289 -0.587115 9.20448e-20)
(1.23275 -0.573477 -6.04701e-20)
(1.24079 -0.553589 -7.25513e-20)
(1.24293 -0.529709 -2.38388e-19)
(0.240444 -0.0975713 6.71918e-19)
(0.587375 -0.252737 -5.25815e-19)
(0.836799 -0.376937 2.45514e-20)
(1.01188 -0.464238 -6.73966e-19)
(1.12969 -0.517991 -1.95729e-19)
(1.20471 -0.544841 1.56614e-19)
(1.24916 -0.55172 1.14781e-19)
(1.27274 -0.545164 -3.82906e-19)
(1.28254 -0.531173 1.68408e-19)
(1.28455 -0.511742 -3.03495e-19)
(0.229596 -0.0746145 3.33406e-19)
(0.571415 -0.202723 -3.29967e-19)
(0.825121 -0.315546 1.18426e-18)
(1.00905 -0.40131 9.44745e-20)
(1.13711 -0.459223 2.68599e-19)
(1.22176 -0.493024 9.58484e-19)
(1.27412 -0.507664 -1.99152e-19)
(1.30348 -0.508489 4.85396e-20)
(1.31691 -0.500944 -2.83339e-20)
(1.3203 -0.486784 -4.96245e-20)
(0.214454 -0.0531523 2.56982e-19)
(0.544874 -0.153974 5.83992e-19)
(0.799095 -0.253339 -5.95319e-19)
(0.99017 -0.33515 -1.80867e-19)
(1.12841 -0.395216 -1.91527e-19)
(1.22376 -0.434648 3.76948e-19)
(1.28578 -0.456416 -1.77914e-19)
(1.32292 -0.464527 4.19568e-19)
(1.34194 -0.463689 1.01044e-19)
(1.34844 -0.455403 -1.77684e-19)
(0.195867 -0.0339929 -2.77596e-19)
(0.509094 -0.108512 2.5761e-19)
(0.759723 -0.192988 -5.28911e-19)
(0.955507 -0.268575 2.21458e-19)
(1.10303 -0.328577 -2.2197e-19)
(1.20947 -0.371901 -2.63975e-19)
(1.28243 -0.399683 -2.04853e-19)
(1.32913 -0.414543 2.26033e-19)
(1.3557 -0.420313 -3.92975e-19)
(1.36717 -0.418212 2.48771e-19)
(0.174785 -0.0177195 -1.03994e-19)
(0.465798 -0.0680024 -2.04083e-19)
(0.708614 -0.1369 9.60063e-20)
(0.906049 -0.204325 7.08499e-21)
(1.06114 -0.262003 7.64195e-20)
(1.17825 -0.307185 1.09503e-19)
(1.26278 -0.339439 9.32608e-20)
(1.32041 -0.360062 -1.26176e-19)
(1.35631 -0.371933 1.02883e-19)
(1.37468 -0.375965 -1.62528e-19)
(0.152202 -0.00468178 -6.55286e-20)
(0.416971 -0.0336817 -2.64126e-20)
(0.64789 -0.0871001 9.84269e-20)
(0.843476 -0.144921 -4.44019e-20)
(1.00365 -0.19818 1.2428e-19)
(1.13012 -0.243059 -1.57097e-19)
(1.22606 -0.277924 4.03535e-20)
(1.29539 -0.302917 3.46375e-20)
(1.34205 -0.31996 -1.23838e-20)
(1.36914 -0.329652 5.68095e-20)
(0.129081 0.00499551 -7.86103e-20)
(0.364727 -0.00632616 -3.33297e-19)
(0.580053 -0.0451333 -2.68483e-20)
(0.770085 -0.0925372 1.07162e-20)
(0.93221 -0.139647 -4.62387e-19)
(1.06589 -0.182146 4.88278e-20)
(1.17219 -0.217613 -5.17318e-20)
(1.25324 -0.245282 -1.40729e-19)
(1.31154 -0.266181 3.11433e-19)
(1.34889 -0.280611 -5.66609e-19)
(0.106303 0.0113877 -4.45677e-20)
(0.311166 0.0137467 7.14878e-19)
(0.507818 -0.0120062 9.53591e-20)
(0.688655 -0.0488813 -6.45811e-19)
(0.849212 -0.0886551 -7.73227e-20)
(0.9872 -0.127004 -7.28349e-19)
(1.10191 -0.16113 5.66365e-19)
(1.1938 -0.189653 -2.29898e-19)
(1.26389 -0.212821 4.35749e-19)
(1.31254 -0.230638 -3.84458e-19)
(0.0846196 0.0147346 -2.52066e-19)
(0.258252 0.0266485 2.93523e-19)
(0.433936 0.0118434 -2.05033e-19)
(0.602271 -0.0150902 1.41725e-18)
(0.757605 -0.0470056 7.5024e-19)
(0.896471 -0.0799525 -1.96467e-19)
(1.01684 -0.11111 7.63952e-19)
(1.11778 -0.138774 -4.99528e-19)
(1.19894 -0.162536 -1.6068e-19)
(1.25924 -0.182066 1.16075e-18)
(0.0646262 0.0154001 -4.65994e-19)
(0.207705 0.0328697 6.95787e-19)
(0.361018 0.0265471 -1.31956e-18)
(0.5141 0.00835151 2.2842e-19)
(0.660709 -0.0158903 5.69559e-19)
(0.796763 -0.0428556 -7.15728e-19)
(0.919425 -0.0699703 -1.26772e-18)
(1.0268 -0.0954439 6.79611e-19)
(1.11741 -0.118311 -8.839e-19)
(1.1889 -0.137759 1.41453e-18)
(0.0467521 0.0138344 -1.15195e-19)
(0.160931 0.0332243 -7.00341e-19)
(0.291372 0.0327915 3.45714e-19)
(0.427159 0.0216799 8.64891e-19)
(0.561938 0.00428082 -4.64574e-19)
(0.691503 -0.0168572 -4.58492e-19)
(0.81273 -0.0395855 -7.77395e-19)
(0.923269 -0.0621987 -3.56233e-19)
(1.02092 -0.083194 -8.55594e-20)
(1.10232 -0.100954 1.41362e-18)
(0.0312761 0.0105487 1.93434e-19)
(0.118995 0.0288018 -9.51417e-19)
(0.2269 0.0317969 1.62742e-18)
(0.344105 0.0259084 -9.06205e-19)
(0.4645 0.0140609 5.87176e-19)
(0.584122 -0.00205 -7.30628e-19)
(0.700036 -0.0208232 8.13755e-19)
(0.810001 -0.0407611 7.10716e-19)
(0.911649 -0.0597694 1.55283e-18)
(1.00097 -0.0748357 -2.56718e-18)
(0.018357 0.00610479 -6.01045e-19)
(0.0826285 0.0209269 1.20697e-18)
(0.169035 0.025277 1.61192e-20)
(0.267094 0.0228493 -4.34749e-19)
(0.371139 0.015124 -2.30857e-19)
(0.477675 0.00289433 1.84545e-19)
(0.584307 -0.0129092 -1.31018e-18)
(0.689479 -0.0311745 1.01225e-18)
(0.791409 -0.04922 -1.3046e-18)
(0.886115 -0.0617021 -5.95475e-19)
(0.00806424 0.00111062 1.03432e-18)
(0.0522736 0.0111012 -3.2266e-19)
(0.11878 0.0153427 -6.05316e-19)
(0.197785 0.0150373 1.64403e-18)
(0.284096 0.0103034 -1.615e-18)
(0.374661 0.00100174 9.02347e-19)
(0.467673 -0.0127794 9.61069e-19)
(0.562563 -0.0307282 2.62995e-19)
(0.658982 -0.0501296 2.73525e-19)
(0.754638 -0.0622891 -3.87985e-19)
(0.000391819 -0.00380619 -9.89223e-19)
(0.0281291 0.000881853 9.40282e-19)
(0.0768306 0.00428532 -8.32133e-19)
(0.137595 0.00547919 1.04407e-18)
(0.205597 0.00346581 -3.11929e-19)
(0.277875 -0.00267852 -1.0834e-18)
(0.352594 -0.0136903 3.10687e-19)
(0.429349 -0.0305113 -5.12603e-19)
(0.509119 -0.0524055 -6.07128e-19)
(0.594256 -0.0694013 -1.894e-18)
(-0.00476818 -0.00808395 -1.2358e-18)
(0.0101558 -0.00837821 9.82499e-19)
(0.0436612 -0.00592688 -1.92508e-18)
(0.0880239 -0.00319309 3.44246e-19)
(0.138789 -0.00173551 -1.33374e-18)
(0.192855 -0.00251592 -7.99946e-19)
(0.247649 -0.00585677 1.91441e-18)
(0.301234 -0.011977 -2.61735e-18)
(0.352966 -0.0214711 5.0379e-19)
(0.400122 -0.0301978 -8.29749e-19)
(-0.00768075 -0.0113463 6.08744e-19)
(-0.00203797 -0.0158341 2.57593e-19)
(0.0192696 -0.0143135 -7.66368e-20)
(0.0500878 -0.0102865 7.31573e-19)
(0.0867353 -0.00564067 2.14829e-18)
(0.126638 -0.0013362 7.41498e-19)
(0.167788 0.00243634 7.66198e-19)
(0.208987 0.00572686 -2.64926e-19)
(0.25031 0.00787865 -2.47151e-18)
(0.289202 0.00930828 6.26785e-19)
(-0.00878293 -0.0134237 -1.71868e-19)
(-0.00932334 -0.0210826 5.47033e-19)
(0.00265698 -0.0204954 -1.43307e-19)
(0.0227542 -0.0158065 1.01185e-18)
(0.0482008 -0.00918997 -2.33951e-18)
(0.0770512 -0.00180566 1.98596e-19)
(0.107877 0.00581978 -1.11349e-18)
(0.1399 0.0132795 1.63855e-18)
(0.172945 0.0196096 -4.78923e-19)
(0.204351 0.0241223 -6.8435e-20)
(-0.00858754 -0.0143042 -1.17e-19)
(-0.0128287 -0.0240039 -6.57868e-19)
(-0.00770544 -0.0243041 1.65455e-18)
(0.00409355 -0.0196185 -8.72361e-19)
(0.0206813 -0.0123143 6.13038e-20)
(0.0406477 -0.00376745 2.79961e-19)
(0.0629531 0.00515434 -2.55878e-19)
(0.0869776 0.0136595 3.32534e-19)
(0.112307 0.0206474 1.15234e-18)
(0.136741 0.0253213 3.01546e-19)
(-0.00758386 -0.0140751 -2.62439e-19)
(-0.0136941 -0.0246646 -2.9191e-19)
(-0.0134238 -0.0256979 -1.29569e-18)
(-0.00791038 -0.0215056 6.89923e-19)
(0.00175198 -0.0144825 -1.42306e-18)
(0.0146019 -0.0061016 3.23286e-19)
(0.0298804 0.00260817 3.6352e-19)
(0.0470478 0.0107376 -3.84189e-19)
(0.0655869 0.0172772 -2.48571e-19)
(0.0838553 0.0215038 -1.11711e-18)
(-0.00618737 -0.012876 2.05024e-19)
(-0.0129393 -0.0232582 -4.82283e-20)
(-0.015979 -0.0247655 9.75559e-22)
(-0.0151273 -0.0213392 -6.22684e-19)
(-0.0108029 -0.0152183 1.5763e-18)
(-0.00359853 -0.00782484 -2.45865e-19)
(0.00594182 -0.000181695 -6.13582e-19)
(0.0173443 0.00685757 7.51001e-19)
(0.0300731 0.0124756 -2.63922e-19)
(0.0429688 0.0160745 1.45878e-18)
(-0.00472444 -0.0108695 -3.84827e-20)
(-0.0114033 -0.020062 -2.2562e-19)
(-0.0166161 -0.0217195 -8.90458e-20)
(-0.0191318 -0.0191477 -1.13761e-19)
(-0.0188241 -0.0142634 -2.4458e-19)
(-0.0159912 -0.00830435 -7.68081e-19)
(-0.0110053 -0.00216553 9.60781e-19)
(-0.00427341 0.00344392 5.61253e-19)
(0.00369184 0.00791419 -1.00541e-19)
(0.0120988 0.0107859 -8.94778e-19)
(-0.00343614 -0.00822648 2.18534e-19)
(-0.00972844 -0.0154119 3.81866e-20)
(-0.0163009 -0.0168879 2.58487e-19)
(-0.0211412 -0.0151406 -2.95873e-20)
(-0.0237126 -0.0116316 2.35371e-19)
(-0.0240898 -0.00731287 2.65557e-19)
(-0.0225113 -0.00287024 3.98129e-19)
(-0.0193214 0.00117336 -1.12784e-18)
(-0.0149982 0.00440109 -2.08167e-19)
(-0.0100754 0.00648917 3.73076e-19)
(-0.00249003 -0.00512286 -1.10349e-19)
(-0.00837118 -0.00968813 -1.56837e-19)
(-0.0157252 -0.0107001 -7.54471e-20)
(-0.0220239 -0.00969925 3.69025e-19)
(-0.0264563 -0.00759884 1.79125e-19)
(-0.0289461 -0.00499584 3.67349e-20)
(-0.0296386 -0.00231868 -7.96442e-20)
(-0.0288296 0.000114277 -6.17825e-20)
(-0.0269678 0.00206125 5.30323e-19)
(-0.024425 0.00332966 -3.61188e-19)
(-0.00199148 -0.00173972 5.62548e-20)
(-0.00762208 -0.00330528 6.99956e-20)
(-0.0153304 -0.0036651 -5.9684e-20)
(-0.0223319 -0.00334079 -5.45902e-20)
(-0.0276784 -0.00264279 -5.66019e-20)
(-0.0312172 -0.00177434 -9.03177e-20)
(-0.0330457 -0.00088089 2.90058e-21)
(-0.0334332 -6.91989e-05 1.25316e-19)
(-0.0328122 0.000581576 -1.25828e-19)
(-0.0314769 0.0010075 2.28933e-19)
(-0.00804715 -0.00258672 1.65549e-20)
(0.0623704 -0.00660741 9.91908e-21)
(0.277471 -0.00671153 1.34749e-21)
(0.377948 -0.00440939 -9.05541e-22)
(0.479524 -0.00373275 -6.25058e-23)
(0.555069 -0.00266998 1.5067e-22)
(0.606436 -0.00219285 1.7442e-22)
(0.662368 -0.00155183 -3.72978e-23)
(0.684936 -0.00142945 -2.16214e-24)
(0.736811 -0.00103614 2.43935e-22)
(0.00875638 -0.00807477 2.62425e-20)
(0.0776213 -0.019693 1.23439e-21)
(0.288978 -0.0200082 -1.7568e-20)
(0.386706 -0.0130837 1.41249e-20)
(0.486243 -0.0110395 9.00831e-22)
(0.560299 -0.00791744 -6.11578e-22)
(0.610707 -0.00654117 7.19844e-22)
(0.665721 -0.00472441 8.00483e-23)
(0.68787 -0.00437148 1.74987e-22)
(0.739032 -0.00310787 -2.23756e-22)
(0.0420703 -0.014443 2.68922e-20)
(0.10765 -0.0322982 -3.61715e-20)
(0.311558 -0.0328455 1.79509e-20)
(0.4039 -0.0214568 -1.17065e-20)
(0.499445 -0.0181186 8.40255e-22)
(0.57059 -0.0130128 -6.58435e-22)
(0.619127 -0.0107745 -2.7023e-22)
(0.672338 -0.00781717 4.982e-24)
(0.693665 -0.0072475 -1.33798e-22)
(0.74342 -0.00513933 -3.26604e-22)
(0.091292 -0.0221693 -4.16544e-20)
(0.151534 -0.0441238 -5.01672e-20)
(0.344379 -0.0449381 -2.31933e-20)
(0.428928 -0.0293453 1.21999e-20)
(0.518677 -0.0248301 -1.47667e-20)
(0.585623 -0.0178623 3.93198e-21)
(0.631453 -0.0148211 -2.19612e-22)
(0.682056 -0.0107797 1.40316e-22)
(0.702193 -0.0100159 -1.57617e-22)
(0.749905 -0.00710501 1.21148e-22)
(0.155488 -0.0315265 1.15265e-19)
(0.207949 -0.0548824 7.24188e-20)
(0.38625 -0.0560219 2.60786e-20)
(0.460919 -0.0365869 -2.36943e-20)
(0.543289 -0.0310499 1.21366e-20)
(0.604928 -0.022383 3.22965e-21)
(0.647331 -0.0186166 2.30801e-21)
(0.694624 -0.0135671 2.71497e-22)
(0.71326 -0.0126381 3.61162e-22)
(0.758361 -0.00898067 -6.42002e-22)
(0.233376 -0.0424417 -5.09228e-20)
(0.275218 -0.0642588 3.89965e-20)
(0.435685 -0.0658433 4.82389e-21)
(0.498795 -0.0430385 2.64566e-20)
(0.572477 -0.0366712 -6.01443e-21)
(0.627927 -0.0265041 -3.77355e-21)
(0.666323 -0.0221057 -2.38368e-21)
(0.709731 -0.01614 -1.85919e-22)
(0.726621 -0.0150801 -1.86866e-22)
(0.768637 -0.0107444 6.85802e-22)
(0.323324 -0.0546344 -3.86894e-20)
(0.351371 -0.0719884 -1.0098e-19)
(0.490984 -0.0741989 -1.71475e-20)
(0.54132 -0.0485843 -1.47224e-20)
(0.605325 -0.0416111 7.07772e-21)
(0.653952 -0.0301703 -1.98534e-21)
(0.687918 -0.0252442 2.53584e-21)
(0.727013 -0.0184666 4.92519e-22)
(0.741989 -0.0173135 -5.62367e-23)