1.45 	0 	0 	-0.306469
2.35 	0 	0 	-0.10508
