# Probe 0 (1 0 0)
# Probe 1 (7 0 0)
#       Probe             0             1
#        Time
         0.01      -22.0147     -0.223192
         0.02     -0.175394    -0.0126798
         0.03     -0.120865    -0.0111597
         0.04    -0.0722708    -0.0101617
         0.05    -0.0420111   -0.00811133
         0.06    -0.0244254   -0.00684376
         0.07    -0.0143669   -0.00580958
         0.08   -0.00841733   -0.00500146
         0.09   -0.00500799   -0.00435743
          0.1   -0.00289089   -0.00384291
         0.11   -0.00144208   -0.00342615
         0.12  -0.000321965   -0.00308509
         0.13   0.000641154   -0.00280311
         0.14    0.00152219   -0.00256754
         0.15    0.00234089   -0.00236872
         0.16     0.0030875   -0.00219911
         0.17    0.00373899   -0.00205289
         0.18    0.00426755   -0.00192559
         0.19    0.00464559    -0.0018136
          0.2    0.00483827     -0.001715
         0.21    0.00484664   -0.00162594
         0.22    0.00464308   -0.00154534
         0.23    0.00421468   -0.00147189
         0.24    0.00355378   -0.00140442
         0.25    0.00265635   -0.00134205
         0.26    0.00152149   -0.00128405
         0.27   0.000149235   -0.00123093
         0.28   -0.00145015   -0.00117994
         0.29   -0.00327296   -0.00113191
          0.3   -0.00531265   -0.00108641
         0.31   -0.00756013   -0.00104329
         0.32    -0.0100049   -0.00100226
         0.33    -0.0126364  -0.000962906
         0.34    -0.0154426  -0.000925599
         0.35    -0.0184123  -0.000889863
         0.36    -0.0215334  -0.000855652
         0.37    -0.0248045  -0.000821828
         0.38     -0.028195  -0.000790425
         0.39    -0.0316927  -0.000760739
          0.4    -0.0353155  -0.000730962
         0.41    -0.0390244  -0.000703197
         0.42    -0.0428175  -0.000676368
         0.43    -0.0466739  -0.000651126
         0.44    -0.0506068  -0.000626221
         0.45    -0.0545961  -0.000602405
         0.46    -0.0586249    -0.0005794
         0.47    -0.0626783   -0.00055526
         0.48    -0.0667921  -0.000532985
         0.49    -0.0709331  -0.000512979
          0.5    -0.0750902   -0.00049377
         0.51    -0.0792584  -0.000475294
         0.52    -0.0834318  -0.000457511
         0.53    -0.0876052  -0.000440379
         0.54    -0.0917734  -0.000423864
         0.55     -0.095932   -0.00040793
         0.56     -0.100077  -0.000392546
         0.57     -0.104204  -0.000377682
         0.58     -0.108309  -0.000363308
         0.59      -0.11239  -0.000349399
          0.6     -0.116443  -0.000335928
         0.61     -0.120466  -0.000322872
         0.62     -0.124455  -0.000310205
         0.63      -0.12841  -0.000297906
         0.64     -0.132328  -0.000285954
         0.65     -0.136207  -0.000274328
         0.66     -0.140046  -0.000263008
         0.67     -0.143843  -0.000251975
         0.68     -0.147597  -0.000241212
         0.69     -0.151306  -0.000230702
          0.7     -0.154495  -0.000217938
         0.71     -0.158155  -0.000221261
         0.72     -0.161707  -0.000213395
         0.73      -0.16523  -0.000203418
         0.74     -0.168706  -0.000193645
         0.75     -0.172135  -0.000183998
         0.76     -0.175517  -0.000174369
         0.77     -0.178849  -0.000164936
         0.78     -0.182134  -0.000155766
         0.79     -0.185371  -0.000146727
          0.8      -0.18856  -0.000137811
         0.81     -0.191702  -0.000129006
         0.82     -0.194796  -0.000120302
         0.83      -0.19785  -0.000110373
         0.84     -0.200849  -0.000101745
         0.85     -0.203803  -9.33308e-05
         0.86     -0.206714  -8.29022e-05
         0.87     -0.209575  -7.45818e-05
         0.88     -0.212391  -6.64132e-05
         0.89     -0.215162  -5.83176e-05
          0.9     -0.217889  -5.02192e-05
         0.91     -0.220572  -4.21772e-05
         0.92     -0.223212  -3.41651e-05
         0.93     -0.225808  -2.61757e-05
         0.94     -0.228362  -1.82039e-05
         0.95     -0.230874   -1.0245e-05
         0.96     -0.233345  -2.29432e-06
         0.97     -0.235775   5.65244e-06
         0.98     -0.238165   1.35994e-05
         0.99     -0.240515   2.15505e-05
            1     -0.242826   2.95093e-05
         1.01     -0.245098   3.74796e-05
         1.02     -0.247333   4.54644e-05
         1.03      -0.24953   5.34669e-05
         1.04     -0.251686   6.32743e-05
         1.05     -0.253819   6.76538e-05
         1.06     -0.255902   7.79551e-05
         1.07     -0.257957   8.54307e-05
         1.08     -0.259973   9.46337e-05
         1.09     -0.261962   0.000101137
          1.1     -0.263911   0.000110393
         1.11     -0.265828   0.000119372
         1.12      -0.26772   0.000125517
         1.13     -0.269572   0.000134747
         1.14     -0.271393   0.000143932
         1.15     -0.273185   0.000152365
         1.16     -0.274949   0.000160526
         1.17     -0.276683   0.000168567
         1.18     -0.278387   0.000176849
         1.19     -0.280062   0.000185462
          1.2     -0.281708    0.00019422
         1.21     -0.283327   0.000203034
         1.22     -0.284919   0.000211875
         1.23     -0.286483    0.00022072
         1.24     -0.288022   0.000229596
         1.25     -0.289535   0.000238495
         1.26     -0.291023   0.000247427
         1.27     -0.292485   0.000256445
         1.28     -0.293909   0.000266999
         1.29     -0.295324   0.000277252
          1.3     -0.296715    0.00028646
         1.31     -0.298082   0.000295752
         1.32     -0.299426   0.000306401
         1.33     -0.300748   0.000314384
         1.34     -0.302048   0.000325264
         1.35     -0.303326   0.000334633
         1.36     -0.304582   0.000344255
         1.37     -0.305817    0.00035381
         1.38     -0.307032   0.000363504
         1.39     -0.308226   0.000372303
          1.4       -0.3094   0.000383084
         1.41     -0.310554   0.000391947
         1.42     -0.311689   0.000402819
         1.43     -0.312805   0.000411979
         1.44     -0.313902   0.000421956
         1.45     -0.314981   0.000432068
         1.46     -0.316042    0.00044229
         1.47     -0.317084   0.000452499
         1.48     -0.318109   0.000462818
         1.49     -0.319117   0.000473166
          1.5     -0.320107   0.000483607
         1.51     -0.321081   0.000494111
         1.52     -0.322038   0.000504678
         1.53     -0.322936   0.000516637
         1.54     -0.323859    0.00052773
         1.55     -0.324765   0.000538349
         1.56     -0.325657   0.000549096
         1.57     -0.326533   0.000559906
         1.58     -0.327394   0.000570785
         1.59     -0.328241   0.000581734
          1.6     -0.329073   0.000592752
         1.61     -0.329891   0.000603839
         1.62     -0.330694   0.000614995
         1.63     -0.331484    0.00062622
         1.64      -0.33226   0.000637513
         1.65     -0.333023   0.000648875
         1.66     -0.333772   0.000660306
         1.67     -0.334508   0.000671805
         1.68     -0.335231   0.000683372
         1.69     -0.335942   0.000695009
          1.7      -0.33664   0.000706715
         1.71     -0.337325   0.000718487
         1.72     -0.337999   0.000730326
         1.73      -0.33866   0.000742233
         1.74     -0.339309   0.000754208
         1.75     -0.339947    0.00076625
         1.76     -0.340575   0.000778958
         1.77      -0.34119   0.000791144
         1.78     -0.341794   0.000803397
         1.79     -0.342386   0.000815715
          1.8     -0.342968   0.000828101
         1.81     -0.343538   0.000840553
         1.82     -0.344099   0.000853072
         1.83     -0.344648   0.000865658
         1.84     -0.345188    0.00087831
         1.85     -0.345717    0.00089103
         1.86     -0.346236   0.000903815
         1.87     -0.346745   0.000916714
         1.88     -0.347245   0.000929592
         1.89     -0.347735   0.000942577
          1.9     -0.348215   0.000955628
         1.91     -0.348686   0.000968746
         1.92     -0.349152   0.000982557
         1.93     -0.349604   0.000995812
         1.94     -0.350048    0.00100913
         1.95     -0.350483    0.00102252
         1.96     -0.350909    0.00103597
         1.97     -0.351326    0.00104949
         1.98     -0.351735    0.00106307
         1.99     -0.352136    0.00107672
            2     -0.352528    0.00109043
         2.01     -0.352912    0.00110421
         2.02     -0.353289    0.00111806
         2.03     -0.353657    0.00113197
         2.04     -0.354017    0.00114595
         2.05      -0.35437    0.00115999
         2.06     -0.354716     0.0011741
         2.07     -0.355053    0.00118828
         2.08     -0.355384    0.00120252
         2.09     -0.355707    0.00121683
          2.1     -0.356023     0.0012312
         2.11     -0.356332    0.00124564
         2.12     -0.356635    0.00126015
         2.13      -0.35693    0.00127472
         2.14     -0.357219    0.00128935
         2.15     -0.357501    0.00130405
         2.16     -0.357776    0.00131882
         2.17     -0.358046    0.00133365
         2.18     -0.358309    0.00134855
         2.19     -0.358565    0.00136351
          2.2     -0.358816    0.00137854
         2.21     -0.359061    0.00139358
         2.22       -0.3593    0.00140878
         2.23     -0.359533      0.001424
         2.24      -0.35976    0.00143929
         2.25     -0.359982    0.00145465
         2.26     -0.360199    0.00147006
         2.27      -0.36041    0.00148555
         2.28     -0.360615    0.00150109
         2.29     -0.360816    0.00151671
          2.3     -0.361011    0.00153238
         2.31     -0.361202    0.00154812
         2.32     -0.361387    0.00156392
         2.33     -0.361568    0.00157979
         2.34     -0.361744    0.00159572
         2.35     -0.361915    0.00161164
         2.36     -0.362082    0.00162776
         2.37     -0.362244    0.00164388
         2.38     -0.362402    0.00166007
         2.39     -0.362556    0.00167631
          2.4     -0.362705    0.00169262
         2.41      -0.36285    0.00170899
         2.42     -0.362992    0.00172542
         2.43     -0.363129    0.00174192
         2.44     -0.363262    0.00175847
         2.45     -0.363392    0.00177509
         2.46     -0.363518    0.00179171
         2.47     -0.363641    0.00180849
         2.48     -0.363759    0.00182531
         2.49     -0.363875    0.00184214
          2.5     -0.363987    0.00185906
         2.51     -0.364096    0.00187604
         2.52     -0.364201    0.00189308
         2.53     -0.364304    0.00191018
         2.54     -0.364403    0.00192733
         2.55     -0.364499    0.00194454
         2.56     -0.364593    0.00196181
         2.57     -0.364683    0.00197914
         2.58     -0.364771    0.00199696
         2.59     -0.364856    0.00201399
          2.6     -0.364938    0.00203151
         2.61     -0.365018    0.00204905
         2.62     -0.365095    0.00206666
         2.63      -0.36517    0.00208432
         2.64     -0.365242    0.00210204
         2.65     -0.365312    0.00211982
         2.66      -0.36538    0.00213765
         2.67     -0.365446    0.00215553
         2.68     -0.365509    0.00217346
         2.69      -0.36557    0.00219145
          2.7      -0.36563    0.00220949
         2.71     -0.365687    0.00222788
         2.72     -0.365743    0.00224542
         2.73     -0.365792    0.00226514
         2.74     -0.365852    0.00228079
         2.75     -0.365896    0.00230076
         2.76     -0.365946    0.00231864
         2.77     -0.365989    0.00233811
         2.78      -0.36604    0.00235463
         2.79      -0.36608    0.00237431
          2.8     -0.366119     0.0023937
         2.81     -0.366166    0.00241001
         2.82     -0.366202    0.00242964
         2.83     -0.366237    0.00244922
         2.84     -0.366272    0.00246816
         2.85     -0.366313    0.00248481
         2.86     -0.366345    0.00250427
         2.87     -0.366375    0.00252391
         2.88     -0.366405    0.00254314
         2.89     -0.366435    0.00256204
          2.9     -0.366464    0.00258076
         2.91     -0.366493    0.00259947
         2.92      -0.36652    0.00261829
         2.93     -0.366546     0.0026373
         2.94     -0.366571    0.00265647
         2.95     -0.366594    0.00267578
         2.96     -0.366616    0.00269513
         2.97     -0.366637    0.00271452
         2.98     -0.366658    0.00273389
         2.99     -0.366677    0.00275343
            3     -0.366697    0.00277271
         3.01      -0.36671      0.002794
         3.02     -0.366732    0.00281181
         3.03     -0.366751     0.0028304
         3.04     -0.366763    0.00285159
         3.05     -0.366782    0.00286956
         3.06     -0.366792    0.00289087
         3.07      -0.36681    0.00290872
         3.08     -0.366818    0.00293033
         3.09     -0.366836     0.0029482
          3.1     -0.366843    0.00296982
         3.11     -0.366859    0.00298759
         3.12     -0.366864    0.00300966
         3.13      -0.36688    0.00302727
         3.14     -0.366883    0.00304945
         3.15     -0.366899    0.00306695
         3.16       -0.3669    0.00308952
         3.17     -0.366915    0.00310688
         3.18     -0.366915    0.00312959
         3.19     -0.366929    0.00314684
          3.2     -0.366927    0.00316989
         3.21     -0.366941    0.00318701
         3.22     -0.366938    0.00321023
         3.23     -0.366952    0.00322724
         3.24     -0.366947    0.00325075
         3.25      -0.36696    0.00326764
         3.26     -0.366954    0.00329134
         3.27     -0.366967    0.00330812
         3.28      -0.36696    0.00333208
         3.29     -0.366972    0.00334874
          3.3     -0.366963    0.00337283
         3.31     -0.366975    0.00338946
         3.32     -0.366965    0.00341381
         3.33     -0.366976    0.00343041
         3.34     -0.366966    0.00345471
         3.35     -0.366977    0.00347125
         3.36     -0.366964      0.003496
         3.37     -0.366975     0.0035124
         3.38     -0.366962    0.00353716
         3.39     -0.366973    0.00355349
          3.4     -0.366958     0.0035786
         3.41     -0.366968    0.00359482
         3.42     -0.366953       0.00362
         3.43     -0.366957    0.00363839
         3.44     -0.366952    0.00365927
         3.45     -0.366949       0.00368
         3.46     -0.366945    0.00370084
         3.47      -0.36694    0.00372166
         3.48     -0.366935    0.00374251
         3.49      -0.36693    0.00376338
          3.5     -0.366925    0.00378428
         3.51     -0.366919    0.00380519
         3.52     -0.366913    0.00382613
         3.53     -0.366906    0.00384709
         3.54       -0.3669    0.00386808
         3.55     -0.366892    0.00388917
         3.56     -0.366885    0.00391012
         3.57     -0.366877    0.00393116
         3.58     -0.366869    0.00395223
         3.59     -0.366861    0.00397331
          3.6     -0.366852    0.00399442
         3.61     -0.366843    0.00401554
         3.62     -0.366833    0.00403669
         3.63     -0.366824    0.00405786
         3.64     -0.366814    0.00407904
         3.65     -0.366803    0.00410024
         3.66     -0.366793    0.00412147
         3.67     -0.366782    0.00414271
         3.68      -0.36677    0.00416397
         3.69     -0.366759     0.0041853
          3.7     -0.366747    0.00420654
         3.71     -0.366735    0.00422785
         3.72     -0.366722    0.00424918
         3.73     -0.366709    0.00427053
         3.74     -0.366696    0.00429189
         3.75     -0.366683    0.00431327
         3.76     -0.366669    0.00433466
         3.77     -0.366655    0.00435607
         3.78     -0.366641     0.0043775
         3.79     -0.366626    0.00439894
          3.8     -0.366611    0.00442039
         3.81     -0.366596    0.00444186
         3.82      -0.36658    0.00446335
         3.83     -0.366564    0.00448484
         3.84     -0.366548    0.00450636
         3.85     -0.366532    0.00452788
         3.86     -0.366515    0.00454942
         3.87     -0.366498    0.00457097
         3.88      -0.36648    0.00459254
         3.89     -0.366463     0.0046141
          3.9     -0.366445     0.0046357
         3.91     -0.366427     0.0046573
         3.92     -0.366408     0.0046789
         3.93     -0.366389    0.00470053
         3.94      -0.36637    0.00472216
         3.95     -0.366351     0.0047438
         3.96     -0.366331    0.00476545
         3.97     -0.366311    0.00478711
         3.98     -0.366291    0.00480878
         3.99     -0.366271    0.00483046
            4      -0.36625    0.00485214
         4.01     -0.366229    0.00487384
         4.02     -0.366208    0.00489554
         4.03     -0.366186    0.00491724
         4.04     -0.366164    0.00493896
         4.05     -0.366142    0.00496068
         4.06      -0.36612    0.00498241
         4.07     -0.366097    0.00500414
         4.08     -0.366074    0.00502587
         4.09     -0.366051    0.00504762
          4.1     -0.366028    0.00506936
         4.11     -0.366004    0.00509111
         4.12      -0.36598    0.00511286
         4.13     -0.365956    0.00513462
         4.14     -0.365932    0.00515637
         4.15     -0.365907    0.00517813
         4.16     -0.365882    0.00519989
         4.17     -0.365857    0.00522165
         4.18     -0.365832    0.00524341
         4.19     -0.365806    0.00526517
          4.2     -0.365781    0.00528693
         4.21     -0.365755    0.00530869
         4.22     -0.365728    0.00533045
         4.23     -0.365702     0.0053522
         4.24     -0.365675    0.00537395
         4.25     -0.365648     0.0053957
         4.26     -0.365621    0.00541744
         4.27     -0.365594    0.00543918
         4.28     -0.365566    0.00546092
         4.29     -0.365539    0.00548265
          4.3     -0.365511    0.00550437
         4.31     -0.365483    0.00552609
         4.32     -0.365454     0.0055478
         4.33     -0.365426     0.0055695
         4.34     -0.365397    0.00559119
         4.35     -0.365368    0.00561287
         4.36     -0.365339    0.00563455
         4.37      -0.36531    0.00565621
         4.38      -0.36528    0.00567786
         4.39     -0.365251    0.00569951
          4.4     -0.365221    0.00572114
         4.41     -0.365191    0.00574275
         4.42     -0.365161    0.00576435
         4.43      -0.36513    0.00578594
         4.44       -0.3651    0.00580751
         4.45     -0.365069    0.00582907
         4.46     -0.365038    0.00585061
         4.47     -0.365007    0.00587214
         4.48     -0.364976    0.00589365
         4.49     -0.364945    0.00591514
          4.5     -0.364914    0.00593661
         4.51     -0.364882    0.00595806
         4.52      -0.36485    0.00597949
         4.53     -0.364819     0.0060009
         4.54     -0.364787    0.00602229
         4.55     -0.364755    0.00604365
         4.56     -0.364722      0.006065
         4.57      -0.36469    0.00608631
         4.58     -0.364658    0.00610761
         4.59     -0.364625    0.00612888
          4.6     -0.364592    0.00615012
         4.61      -0.36456    0.00617133
         4.62     -0.364527    0.00619247
         4.63     -0.364494    0.00621368
         4.64      -0.36446    0.00623485
         4.65     -0.364427    0.00625585
         4.66     -0.364394    0.00627703
         4.67      -0.36436    0.00629801
         4.68     -0.364327    0.00631895
         4.69     -0.364293    0.00634004
          4.7      -0.36426    0.00636092
         4.71     -0.364226    0.00638182
         4.72     -0.364192    0.00640269
         4.73     -0.364158    0.00642346
         4.74     -0.364124    0.00644437
         4.75      -0.36409    0.00646506
         4.76     -0.364055    0.00648572
         4.77     -0.364021    0.00650646
         4.78     -0.363987    0.00652707
         4.79     -0.363952    0.00654767
          4.8     -0.363918    0.00656822
         4.81     -0.363883    0.00658873
         4.82     -0.363849    0.00660919
         4.83     -0.363814    0.00662961
         4.84     -0.363779    0.00664997
         4.85     -0.363744     0.0066703
         4.86      -0.36371    0.00669057
         4.87     -0.363675    0.00671074
         4.88      -0.36364    0.00673103
         4.89     -0.363605    0.00675105
          4.9      -0.36357    0.00677123
         4.91     -0.363535    0.00679114
         4.92       -0.3635    0.00681122
         4.93     -0.363465    0.00683103
         4.94     -0.363429    0.00685094
         4.95     -0.363394    0.00687079
         4.96     -0.363359    0.00689037
         4.97     -0.363324    0.00691017
         4.98     -0.363288    0.00692974
         4.99     -0.363253     0.0069493
            5     -0.363218    0.00696888
         5.01     -0.363182    0.00698826
         5.02     -0.363147    0.00700765
         5.03     -0.363112    0.00702703
         5.04     -0.363076    0.00704623
         5.05     -0.363041    0.00706542
         5.06     -0.363005    0.00708454
         5.07      -0.36297     0.0071036
         5.08     -0.362934    0.00712259
         5.09     -0.362899    0.00714151
          5.1     -0.362864    0.00716036
         5.11     -0.362828    0.00717914
         5.12     -0.362793    0.00719784
         5.13     -0.362757    0.00721648
         5.14     -0.362722    0.00723504
         5.15     -0.362686    0.00725352
         5.16     -0.362651    0.00727193
         5.17     -0.362615    0.00729026
         5.18      -0.36258    0.00730851
         5.19     -0.362544    0.00732669
          5.2     -0.362509    0.00734478
         5.21     -0.362474     0.0073628
         5.22     -0.362438    0.00738072
         5.23     -0.362403    0.00739857
         5.24     -0.362367    0.00741634
         5.25     -0.362332    0.00743402
         5.26     -0.362297    0.00745161
         5.27     -0.362261    0.00746912
         5.28     -0.362226    0.00748653
         5.29     -0.362191    0.00750386
          5.3     -0.362156     0.0075211
         5.31      -0.36212    0.00753825
         5.32     -0.362085    0.00755531
         5.33      -0.36205    0.00757227
         5.34     -0.362015    0.00758914
         5.35      -0.36198    0.00760592
         5.36     -0.361945    0.00762259
         5.37      -0.36191    0.00763918
         5.38     -0.361875    0.00765566
         5.39      -0.36184    0.00767205
          5.4     -0.361805    0.00768833
         5.41      -0.36177    0.00770452
         5.42     -0.361735     0.0077206
         5.43       -0.3617    0.00773658
         5.44     -0.361666    0.00775246
         5.45     -0.361631    0.00776823
         5.46     -0.361596     0.0077839
         5.47     -0.361561    0.00779946
         5.48     -0.361527    0.00781491
         5.49     -0.361492    0.00783026
          5.5     -0.361458    0.00784549
         5.51     -0.361423    0.00786062
         5.52     -0.361389    0.00787563
         5.53     -0.361354    0.00789053
         5.54      -0.36132    0.00790532
         5.55     -0.361286    0.00791997
         5.56     -0.361251    0.00793455
         5.57     -0.361217    0.00794899
         5.58     -0.361183    0.00796331
         5.59     -0.361149    0.00797752
          5.6     -0.361115     0.0079916
         5.61     -0.361081    0.00800557
         5.62     -0.361047    0.00801942
         5.63     -0.361013    0.00803314
         5.64     -0.360979    0.00804674
         5.65     -0.360946    0.00806022
         5.66     -0.360912    0.00807358
         5.67     -0.360878     0.0080868
         5.68     -0.360845     0.0080999
         5.69     -0.360811    0.00811288
          5.7     -0.360778    0.00812573
         5.71     -0.360744    0.00813844
         5.72     -0.360711    0.00815103
         5.73     -0.360677    0.00816349
         5.74     -0.360644    0.00817581
         5.75     -0.360611      0.008188
         5.76     -0.360578    0.00820006
         5.77     -0.360545    0.00821198
         5.78     -0.360512    0.00822377
         5.79     -0.360479    0.00823542
          5.8     -0.360446    0.00824694
         5.81     -0.360413    0.00825832
         5.82     -0.360382    0.00826938
         5.83     -0.360349    0.00828036
         5.84     -0.360316    0.00829132
         5.85     -0.360284    0.00830217
         5.86     -0.360251    0.00831283
         5.87     -0.360219    0.00832334
         5.88     -0.360187    0.00833377
         5.89     -0.360154    0.00834401
          5.9     -0.360122    0.00835411
         5.91      -0.36009    0.00836407
         5.92     -0.360058    0.00837388
         5.93     -0.360026    0.00838354
         5.94     -0.359994    0.00839305
         5.95     -0.359962    0.00840242
         5.96      -0.35993    0.00841163
         5.97     -0.359898     0.0084207
         5.98     -0.359866    0.00842961
         5.99     -0.359835    0.00843837
            6     -0.359803    0.00844698
         6.01     -0.359772    0.00845544
         6.02      -0.35974     0.0084638
         6.03     -0.359709    0.00847183
         6.04     -0.359677    0.00847994
         6.05     -0.359646    0.00848773
         6.06     -0.359615    0.00849539
         6.07     -0.359584    0.00850291
         6.08     -0.359553    0.00851028
         6.09     -0.359522    0.00851748
          6.1     -0.359491    0.00852452
         6.11      -0.35946     0.0085314
         6.12     -0.359429    0.00853812
         6.13     -0.359399    0.00854468
         6.14     -0.359368    0.00855109
         6.15     -0.359338    0.00855731
         6.16     -0.359307    0.00856339
         6.17     -0.359277    0.00856929
         6.18     -0.359246    0.00857504
         6.19     -0.359216    0.00858061
          6.2     -0.359186    0.00858602
         6.21     -0.359156    0.00859127
         6.22     -0.359126    0.00859635
         6.23     -0.359096    0.00860126
         6.24     -0.359066      0.008606
         6.25     -0.359036    0.00861058
         6.26     -0.359006    0.00861499
         6.27     -0.358976    0.00861922
         6.28     -0.358947     0.0086233
         6.29     -0.358917    0.00862719
          6.3     -0.358888    0.00863091
         6.31     -0.358858    0.00863447
         6.32     -0.358829    0.00863785
         6.33       -0.3588    0.00864107
         6.34     -0.358771     0.0086441
         6.35     -0.358741    0.00864697
         6.36     -0.358712    0.00864966
         6.37     -0.358683    0.00865224
         6.38     -0.358654    0.00865453
         6.39     -0.358626     0.0086567
          6.4     -0.358597     0.0086587
         6.41     -0.358568    0.00866046
         6.42     -0.358539     0.0086622
         6.43     -0.358511    0.00866363
         6.44     -0.358482    0.00866492
         6.45     -0.358454    0.00866603
         6.46     -0.358425    0.00866697
         6.47     -0.358397    0.00866772
         6.48     -0.358369    0.00866831
         6.49     -0.358341    0.00866871
          6.5     -0.358313    0.00866893
         6.51     -0.358285    0.00866898
         6.52     -0.358257    0.00866885
         6.53     -0.358229    0.00866853
         6.54     -0.358201    0.00866804
         6.55     -0.358173    0.00866737
         6.56     -0.358145    0.00866652
         6.57     -0.358118    0.00866549
         6.58      -0.35809    0.00866428
         6.59     -0.358063    0.00866289
          6.6     -0.358035    0.00866132
         6.61     -0.358008    0.00865957
         6.62     -0.357981    0.00865764
         6.63     -0.357953    0.00865553
         6.64     -0.357926    0.00865323
         6.65     -0.357899    0.00865076
         6.66     -0.357872     0.0086481
         6.67     -0.357845    0.00864526
         6.68     -0.357818    0.00864224
         6.69     -0.357791    0.00863904
          6.7     -0.357765    0.00863566
         6.71     -0.357738     0.0086321
         6.72     -0.357711    0.00862835
         6.73     -0.357685    0.00862442
         6.74     -0.357658    0.00862032
         6.75     -0.357632    0.00861602
         6.76     -0.357606    0.00861155
         6.77     -0.357579     0.0086069
         6.78     -0.357553    0.00860206
         6.79     -0.357527    0.00859704
          6.8     -0.357499    0.00859209
         6.81     -0.357473    0.00858699
         6.82     -0.357447    0.00858129
         6.83     -0.357421    0.00857566
         6.84     -0.357395    0.00856968
         6.85     -0.357369    0.00856358
         6.86     -0.357344    0.00855728
         6.87     -0.357318    0.00855082
         6.88     -0.357292    0.00854417
         6.89     -0.357267    0.00853734
          6.9     -0.357241    0.00853033
         6.91     -0.357216    0.00852313
         6.92     -0.357191    0.00851576
         6.93     -0.357165    0.00850821
         6.94      -0.35714    0.00850047
         6.95     -0.357115    0.00849256
         6.96      -0.35709    0.00848447
         6.97     -0.357065     0.0084762
         6.98      -0.35704    0.00846775
         6.99     -0.357015    0.00845912
            7      -0.35699    0.00845031
         7.01     -0.356965    0.00844132
         7.02      -0.35694    0.00843216
         7.03     -0.356915    0.00842282
         7.04     -0.356891     0.0084133
         7.05     -0.356866     0.0084036
         7.06     -0.356842    0.00839373
         7.07     -0.356817    0.00838368
         7.08     -0.356793    0.00837345
         7.09     -0.356768    0.00836305
          7.1     -0.356744    0.00835247
         7.11      -0.35672    0.00834172
         7.12     -0.356696    0.00833079