1.45 	0 	0 	-0.291386
2.35 	0 	0 	-0.126631
