1.45 	0 	0 	-0.292639
2.35 	0 	0 	-0.127889
