1.45 	0 	0 	-0.292318
2.35 	0 	0 	-0.127609
