1.45 	0 	0 	-0.29999
2.35 	0 	0 	-0.133348
