/*--------------------------------*- C++ -*----------------------------------*\
  =========                 |
  \\      /  F ield         | OpenFOAM: The Open Source CFD Toolbox
   \\    /   O peration     | Website:  https://openfoam.org
    \\  /    A nd           | Version:  6.0
     \\/     M anipulation  |
\*---------------------------------------------------------------------------*/
FoamFile
{
    version     2.0;
    format      ascii;
    class       volVectorField;
    location    "63";
    object      U;
}
// * * * * * * * * * * * * * * * * * * * * * * * * * * * * * * * * * * * * * //

dimensions      [0 1 -1 0 0 0 0];

internalField   nonuniform List<vector> 
2000
(
(-0.00199122 0.00173836 5.72896e-20)
(-0.00762155 0.00330256 6.80425e-20)
(-0.0153301 0.00366182 -6.48677e-20)
(-0.0223323 0.00333748 -1.32364e-19)
(-0.0276803 0.00263983 -9.24633e-20)
(-0.0312213 0.00177197 1.23181e-19)
(-0.0330527 0.000879321 7.17491e-20)
(-0.0334436 6.85719e-05 -2.90248e-20)
(-0.0328262 -0.00058115 -7.24566e-20)
(-0.0314952 -0.00100596 5.28305e-20)
(-0.00248969 0.00512131 -1.42005e-19)
(-0.00837065 0.00968544 1.96035e-19)
(-0.0157251 0.0106974 1.95483e-20)
(-0.022025 0.00969722 -1.13551e-19)
(-0.0264593 0.00759797 5.43354e-19)
(-0.0289517 0.00499648 -2.39137e-19)
(-0.0296475 0.00232108 -2.58715e-19)
(-0.0288423 -0.000109944 3.12043e-19)
(-0.0269846 -0.00205486 -3.07747e-19)
(-0.0244467 -0.00332122 1.55254e-19)
(-0.00343574 0.00822486 2.35846e-20)
(-0.00972806 0.0154095 8.3882e-21)
(-0.0163014 0.016886 5.87513e-19)
(-0.0211436 0.01514 2.06094e-19)
(-0.0237175 0.0116331 4.08752e-20)
(-0.0240981 0.00731666 3.38019e-19)
(-0.0225237 0.0028767 -6.42023e-19)
(-0.0193384 -0.00116403 1.39244e-20)
(-0.0150202 -0.00438875 -3.79647e-19)
(-0.010103 -0.00647387 4.18227e-19)
(-0.00472403 0.010868 -4.43649e-20)
(-0.0114033 0.0200602 2.55239e-19)
(-0.0166177 0.0217188 -7.4365e-19)
(-0.0191361 0.019149 -9.61236e-20)
(-0.018832 0.0142673 -5.47351e-19)
(-0.0160035 0.00831143 5.66871e-19)
(-0.0110227 0.0021761 -6.01273e-19)
(-0.00429653 -0.00342963 4.22265e-19)
(0.00366272 -0.007896 1.77521e-19)
(0.012063 -0.0107639 -2.00596e-19)
(-0.00618705 0.0128748 -4.93784e-19)
(-0.0129399 0.0232572 4.45591e-21)
(-0.0159822 0.0247663 9.16069e-19)
(-0.0151343 0.0213426 2.74634e-19)
(-0.0108146 0.015225 -8.73238e-19)
(-0.00361587 0.00783532 5.42998e-19)
(0.00591811 0.000196346 6.15478e-19)
(0.0173136 -0.00683846 -5.48746e-19)
(0.0300352 -0.0124518 3.91252e-19)
(0.0429231 -0.016046 9.60767e-20)
(-0.00758375 0.0140743 6.7497e-20)
(-0.0136957 0.0246648 1.25187e-20)
(-0.0134291 0.0257005 -1.17119e-18)
(-0.00792072 0.0215114 -6.55218e-19)
(0.00173556 0.0144921 7.81619e-19)
(0.0145785 0.00611551 -9.15309e-19)
(0.0298492 -0.00258955 1.04885e-18)
(0.0470084 -0.0107139 -9.05978e-20)
(0.065539 -0.0172482 -2.95074e-19)
(0.0837986 -0.0214695 -8.57615e-19)
(-0.00858781 0.014304 -1.4687e-19)
(-0.0128318 0.0240055 -2.68247e-19)
(-0.00771334 0.0243087 -3.29555e-19)
(0.00407928 0.0196269 7.0303e-19)
(0.0206595 0.0123269 1.30412e-18)
(0.0406175 0.00378479 -2.69543e-19)
(0.0629138 -0.00513194 -6.56019e-19)
(0.0869287 -0.0136317 2.00087e-19)
(0.112249 -0.0206139 -1.26006e-18)
(0.136672 -0.025282 1.38407e-18)
(-0.00878374 0.0134242 8.98269e-19)
(-0.00932804 0.0210859 -4.90318e-19)
(0.00264607 0.0205022 9.57248e-19)
(0.0227355 0.0158175 -1.56395e-18)
(0.0481732 0.00920567 -7.47279e-19)
(0.0770138 0.00182635 -1.03508e-18)
(0.107829 -0.00579385 3.00719e-19)
(0.139842 -0.0132482 -8.37261e-19)
(0.172876 -0.0195725 1.82327e-18)
(0.204272 -0.024079 5.10389e-19)
(-0.00768224 0.0113475 6.61293e-20)
(-0.00204467 0.015839 7.98689e-19)
(0.0192553 0.0143225 1.58718e-18)
(0.0500645 0.0103002 4.85007e-19)
(0.0867017 0.00565937 1.43554e-18)
(0.126594 0.00136017 7.86848e-20)
(0.167732 -0.00240701 -7.09204e-22)
(0.208919 -0.00569214 5.78752e-19)
(0.250232 -0.00783835 4.68104e-19)
(0.289113 -0.00926194 -1.51926e-18)
(-0.00477046 0.00808577 -5.32098e-19)
(0.0101469 0.00838453 -8.91187e-19)
(0.0436435 0.00593789 -1.29537e-18)
(0.0879959 0.00320915 3.0611e-20)
(0.138749 0.00175696 -6.60368e-19)
(0.192804 0.00254299 1.04082e-18)
(0.247586 0.00588955 -2.86548e-18)
(0.301159 0.0120155 1.28647e-18)
(0.352881 0.0215154 4.83548e-19)
(0.400028 0.0302482 1.51713e-18)
(0.000388677 0.00380852 2.66173e-19)
(0.0281179 -0.000874405 -1.01894e-18)
(0.0768093 -0.00427281 9.09815e-19)
(0.137563 -0.00546137 -3.52977e-19)
(0.205553 -0.00344234 3.83943e-19)
(0.277819 0.00270794 8.35867e-19)
(0.352527 0.013726 -1.12225e-18)
(0.429273 0.0305533 1.45809e-19)
(0.509035 0.0524535 -5.37766e-19)
(0.594169 0.0694539 1.0911e-18)
(0.00806019 -0.00110793 3.81364e-19)
(0.0522601 -0.0110931 -9.23804e-19)
(0.118756 -0.0153294 1.25868e-18)
(0.197748 -0.0150187 -7.83865e-19)
(0.284048 -0.0102793 -2.87556e-19)
(0.374602 -0.000971753 1.70247e-19)
(0.467604 0.0128154 8.8021e-20)
(0.562487 0.0307704 1.19394e-18)
(0.658901 0.0501773 3.4371e-19)
(0.754557 0.0623405 1.46941e-18)
(0.018352 -0.00610193 -3.40399e-19)
(0.0826125 -0.0209185 1.19443e-18)
(0.169007 -0.0252636 -9.96637e-19)
(0.267054 -0.0228309 -1.16884e-18)
(0.371087 -0.0151006 1.63535e-18)
(0.477614 -0.00286557 -1.24343e-18)
(0.584238 0.0129434 3.28446e-19)
(0.689404 0.0312141 -1.94708e-18)
(0.791332 0.0492644 1.45849e-18)
(0.886039 0.0617496 7.28722e-20)
(0.0312702 -0.0105458 -4.43622e-19)
(0.118976 -0.0287937 -4.2843e-19)
(0.226869 -0.0317842 -9.12309e-19)
(0.344062 -0.0258912 1.10583e-18)
(0.464446 -0.0140392 -5.58542e-20)
(0.584059 0.00207637 7.14918e-19)
(0.699967 0.0208544 1.30421e-18)
(0.809928 0.0407968 -4.00789e-19)
(0.911575 0.0598094 -1.4176e-18)
(1.0009 0.0748785 2.81448e-18)
(0.0467452 -0.0138316 -2.29305e-19)
(0.16091 -0.0332167 -2.73515e-19)
(0.291339 -0.03278 4.92212e-19)
(0.427113 -0.0216645 -9.14889e-19)
(0.561883 -0.00426151 1.56304e-19)
(0.691439 0.0168806 1.39095e-19)
(0.812661 0.039613 6.09999e-20)
(0.923199 0.0622304 -9.85864e-21)
(1.02086 0.0832295 -1.49426e-19)
(1.10226 0.100992 -2.37938e-18)
(0.0646184 -0.0153976 9.30814e-19)
(0.207682 -0.0328631 -6.49605e-19)
(0.360982 -0.0265371 8.30768e-21)
(0.514052 -0.00833831 -9.89342e-19)
(0.660652 0.0159069 -3.53958e-19)
(0.7967 0.0428758 3.30955e-19)
(0.919359 0.0699943 2.57015e-19)
(1.02673 0.0954718 -9.15862e-19)
(1.11735 0.118343 7.48588e-19)
(1.18885 0.137793 -9.81503e-19)
(0.0846109 -0.0147325 4.01744e-19)
(0.258228 -0.0266431 -3.57043e-19)
(0.433899 -0.0118353 1.48301e-18)
(0.602223 0.015101 1.51203e-19)
(0.757548 0.0470193 3.47493e-19)
(0.89641 0.0799696 1.54879e-18)
(1.01678 0.111131 -2.36811e-19)
(1.11772 0.138798 2.1577e-19)
(1.19888 0.162564 8.9347e-20)
(1.25919 0.182097 -1.09969e-19)
(0.106293 -0.0113861 2.80676e-19)
(0.31114 -0.0137427 6.7481e-19)
(0.507779 0.0120121 -7.22882e-19)
(0.688607 0.0488896 -2.44722e-19)
(0.849157 0.0886661 -3.02307e-19)
(0.987142 0.127018 4.6841e-19)
(1.10185 0.161148 -2.43644e-19)
(1.19374 0.189675 6.55495e-19)
(1.26384 0.212847 2.20581e-19)
(1.31249 0.230667 -3.59616e-19)
(0.129071 -0.00499455 -3.02463e-19)
(0.364701 0.00632851 2.68841e-19)
(0.580014 0.0451371 -5.73655e-19)
(0.770037 0.092543 2.47446e-19)
(0.932157 0.139656 -2.56758e-19)
(1.06583 0.182158 -3.20444e-19)
(1.17213 0.217628 -2.57327e-19)
(1.25319 0.245301 2.8758e-19)
(1.3115 0.266204 -5.42199e-19)
(1.34885 0.280637 3.27669e-19)
(0.152191 0.00468204 -1.07814e-19)
(0.416945 0.0336823 -2.10896e-19)
(0.647852 0.0871018 1.00428e-19)
(0.84343 0.144924 6.1918e-21)
(1.0036 0.198186 8.33289e-20)
(1.13007 0.243068 1.14319e-19)
(1.22601 0.277938 1.05949e-19)
(1.29535 0.302935 -1.40493e-19)
(1.34201 0.31998 1.19605e-19)
(1.36911 0.329676 -1.87177e-19)
(0.174775 0.017719 -6.24089e-20)
(0.465772 0.0680015 -2.34114e-20)
(0.708577 0.1369 9.31611e-20)
(0.906006 0.204326 -4.28881e-20)
(1.0611 0.262007 1.14308e-19)
(1.17821 0.307192 -1.47593e-19)
(1.26274 0.33945 3.42079e-20)
(1.32037 0.360077 3.67045e-20)
(1.35627 0.371952 -1.53843e-20)
(1.37464 0.375987 5.82064e-20)
(0.195856 0.0339917 -6.73275e-20)
(0.509069 0.10851 -3.04676e-19)
(0.759689 0.192986 -2.11022e-20)
(0.955467 0.268575 6.27141e-21)
(1.10299 0.328579 -3.96269e-19)
(1.20943 0.371907 5.23873e-20)
(1.28239 0.399693 -4.46e-20)
(1.3291 0.414557 -1.07575e-19)
(1.35567 0.42033 2.24274e-19)
(1.36714 0.418232 -4.08919e-19)
(0.214444 0.0531504 -3.25169e-20)
(0.54485 0.15397 6.17055e-19)
(0.799063 0.253335 9.94241e-20)
(0.990133 0.335148 -5.43235e-19)
(1.12837 0.395217 -4.40511e-20)
(1.22372 0.434653 -5.20568e-19)
(1.28574 0.456425 3.81585e-19)
(1.32289 0.464539 -1.38445e-19)
(1.34191 0.463703 2.45593e-19)
(1.34841 0.455421 -1.79438e-19)
(0.229586 0.0746121 -2.0505e-19)
(0.571392 0.202718 1.95836e-19)
(0.825092 0.315541 -1.41351e-19)
(1.00902 0.401307 1.06544e-18)
(1.13708 0.459222 5.25824e-19)
(1.22172 0.493027 -1.21913e-19)
(1.27409 0.507671 4.10712e-19)
(1.30345 0.508499 -2.7025e-19)
(1.31688 0.500956 -7.52863e-20)
(1.32028 0.486799 4.93965e-19)
(0.240435 0.0975683 -3.54914e-19)
(0.587355 0.252731 4.51646e-19)
(0.836772 0.376931 -8.88607e-19)
(1.01185 0.464233 1.24791e-19)
(1.12966 0.51799 2.78861e-19)
(1.20468 0.544843 -4.27647e-19)
(1.24914 0.551725 -4.97906e-19)
(1.27272 0.545172 2.18553e-19)
(1.28252 0.531184 -2.63161e-19)
(1.28453 0.511755 3.15936e-19)
(0.246311 0.121012 -8.96743e-20)
(0.591872 0.301725 -4.59564e-19)
(0.833754 0.434707 2.5425e-19)
(0.999029 0.521159 4.2636e-19)
(1.10725 0.569097 -2.564e-19)
(1.17428 0.588156 -1.91023e-19)
(1.21287 0.587119 -1.04298e-19)
(1.23273 0.573484 -5.15613e-20)
(1.24077 0.553598 1.07859e-20)
(1.24291 0.52972 1.07506e-19)
(0.246758 0.143785 6.58179e-20)
(0.584617 0.347278 -3.85616e-19)
(0.816339 0.486098 6.43161e-19)
(0.971581 0.569494 -3.81066e-19)
(1.07145 0.610386 1.06475e-19)
(1.13247 0.621291 -1.51051e-19)
(1.16741 0.612602 1.62612e-19)
(1.18559 0.592496 3.11448e-20)
(1.19356 0.567431 -7.80201e-20)
(1.19711 0.540022 1.51534e-19)
(0.241593 0.164635 -1.73025e-19)
(0.565832 0.386974 3.3803e-19)
(0.785448 0.528508 -1.52034e-20)
(0.931025 0.60695 -7.32215e-20)
(1.02419 0.640034 -2.01308e-19)
(1.08145 0.642882 2.48046e-20)
(1.11501 0.627183 6.15381e-20)
(1.1335 0.601458 -1.51526e-19)
(1.14302 0.571983 1.76975e-19)
(1.1492 0.541879 1.5033e-19)
(0.230935 0.18231 3.8425e-20)
(0.536325 0.418561 -8.09267e-20)
(0.742531 0.559669 2.42487e-20)
(0.879238 0.631621 1.24384e-20)
(0.967553 0.656554 7.79813e-20)
(1.02334 0.651785 -1.44071e-19)
(1.05788 0.629967 -3.01356e-19)
(1.07891 0.599657 -1.22932e-19)
(1.09213 0.566623 -1.57126e-19)
(1.10255 0.534701 1.3313e-19)
(0.21523 0.195653 1.1079e-19)
(0.497429 0.44013 -1.71726e-19)
(0.689467 0.577805 1.65751e-19)
(0.818263 0.64211 -3.14838e-19)
(0.903421 0.658818 7.63864e-20)
(0.959695 0.646834 5.16207e-19)
(0.997277 0.619363 -1.58296e-19)
(1.02316 0.584703 1.88174e-19)
(1.04271 0.548005 2.75482e-19)
(1.05903 0.515028 1.002e-18)
(0.195249 0.203726 6.80466e-19)
(0.450967 0.450295 -4.63023e-19)
(0.628513 0.581864 1.12683e-18)
(0.750268 0.637905 -1.92984e-19)
(0.833389 0.646759 9.66778e-19)
(0.891057 0.628052 6.06549e-19)
(0.93231 0.594737 -1.42499e-18)
(0.96357 0.55388 2.16353e-18)
(0.989456 0.507899 -4.57216e-19)
(1.00632 0.461007 8.99682e-19)
(0.17205 0.205874 -3.75362e-19)
(0.399204 0.448254 -2.67608e-19)
(0.562391 0.571529 2.58805e-19)
(0.677928 0.619481 -6.41015e-19)
(0.759661 0.622009 -2.00217e-18)
(0.818699 0.598991 -8.05202e-19)
(0.862692 0.563188 -7.25752e-19)
(0.897113 0.521741 3.51223e-19)
(0.925116 0.478159 2.92727e-18)
(0.942605 0.437392 -6.0891e-19)
(0.146894 0.201721 1.97538e-19)
(0.344727 0.433649 -7.99431e-19)
(0.494241 0.546774 1.75834e-19)
(0.604666 0.587133 -1.28048e-18)
(0.686058 0.585016 2.80349e-18)
(0.747292 0.559929 -3.24926e-19)
(0.794583 0.52408 1.52765e-18)
(0.832423 0.484257 -2.18835e-18)
(0.863341 0.443962 6.8654e-19)
(0.884648 0.407477 1.06207e-19)
(0.121118 0.191156 1.4562e-19)
(0.290163 0.40655 8.8173e-19)
(0.427119 0.507894 -2.58996e-18)
(0.533587 0.541229 1.26029e-18)
(0.615632 0.535982 -4.16095e-21)
(0.679887 0.510616 -4.25288e-19)
(0.731204 0.476429 5.35228e-19)
(0.773235 0.439624 -5.31935e-19)
(0.808165 0.403351 -1.82851e-18)
(0.834247 0.370865 -5.01007e-19)
(0.0960486 0.174334 4.76481e-19)
(0.238033 0.367474 5.34623e-19)
(0.363854 0.455615 2.20822e-18)
(0.467419 0.482513 -1.22845e-18)
(0.550831 0.4755 2.53214e-18)
(0.618565 0.451352 -5.45427e-19)
(0.674213 0.420139 -5.76535e-19)
(0.720699 0.387299 6.81308e-19)
(0.759931 0.355515 4.4421e-19)
(0.790869 0.327125 1.6106e-18)
(0.0729448 0.15167 -4.83561e-19)
(0.190664 0.317377 1.57842e-19)
(0.306988 0.391111 4.26869e-20)
(0.408535 0.412151 1.25235e-18)
(0.493702 0.404589 -3.12607e-18)
(0.56499 0.382953 5.31054e-19)
(0.624864 0.35582 1.17263e-18)
(0.675617 0.327751 -1.41765e-18)
(0.718933 0.300911 4.99431e-19)
(0.754394 0.276898 -2.31789e-18)
(0.0529468 0.123826 1.0305e-19)
(0.150114 0.257626 5.55921e-19)
(0.258722 0.315974 2.16216e-19)
(0.358945 0.331692 2.93022e-19)
(0.445941 0.324635 5.61475e-19)
(0.520504 0.306609 1.67169e-18)
(0.584154 0.284488 -2.04677e-18)
(0.638655 0.261882 -1.1528e-18)
(0.685522 0.240441 1.9104e-19)
(0.724903 0.221195 1.50299e-18)
(0.0370318 0.0916908 -6.23152e-19)
(0.118111 0.189953 -7.41314e-20)
(0.220874 0.23216 -6.20981e-19)
(0.320288 0.243022 8.84369e-20)
(0.408909 0.237333 -5.31594e-19)
(0.486184 0.2238 -6.0691e-19)
(0.55289 0.207442 -9.04451e-19)
(0.610384 0.190868 2.43725e-18)
(0.660066 0.175233 4.20486e-19)
(0.702561 0.161149 -6.40957e-19)
(0.0259729 0.0563424 3.35847e-19)
(0.0960029 0.116392 4.43912e-19)
(0.194847 0.141927 1.74894e-19)
(0.293812 0.148292 -9.43904e-19)
(0.38364 0.144613 -4.3943e-19)
(0.462844 0.136226 -9.4624e-20)
(0.531693 0.126185 1.84898e-19)
(0.591264 0.116066 1.48465e-19)
(0.642892 0.106552 -1.14804e-18)
(0.687548 0.0979587 6.58768e-19)
(0.0203063 0.0190052 -1.74895e-19)
(0.084714 0.0392056 -1.98972e-19)
(0.181592 0.047752 1.58584e-19)
(0.280361 0.0498477 1.40795e-19)
(0.37083 0.0485768 1.44295e-19)
(0.451036 0.0457361 2.20676e-19)
(0.520987 0.0423508 -1.16023e-20)
(0.581621 0.0389483 -2.89467e-19)
(0.634242 0.0357542 2.74962e-19)
(0.680003 0.0328652 -4.13693e-19)
(0.0203063 -0.0190052 -1.76045e-19)
(0.084714 -0.0392056 -1.89616e-19)
(0.181592 -0.047752 1.74745e-19)
(0.280361 -0.0498477 3.42135e-19)
(0.37083 -0.0485768 2.27968e-19)
(0.451036 -0.0457361 -3.00378e-19)
(0.520987 -0.0423508 -1.63223e-19)
(0.581621 -0.0389483 7.11807e-20)
(0.634242 -0.0357542 1.60033e-19)
(0.680003 -0.0328652 -9.52972e-20)
(0.0259729 -0.0563424 4.20122e-19)
(0.0960029 -0.116392 -5.3393e-19)
(0.194847 -0.141927 -4.44096e-20)
(0.293812 -0.148292 2.95834e-19)
(0.38364 -0.144613 -1.33752e-18)
(0.462844 -0.136226 5.71508e-19)
(0.531693 -0.126185 5.8996e-19)
(0.591264 -0.116066 -6.96475e-19)
(0.642892 -0.106552 6.653e-19)
(0.687548 -0.0979586 -2.92006e-19)
(0.0370318 -0.0916908 -7.26359e-20)
(0.118111 -0.189953 -9.26706e-21)
(0.220874 -0.23216 -1.44218e-18)
(0.320288 -0.243022 -4.58787e-19)
(0.408909 -0.237333 -4.83722e-20)
(0.486184 -0.2238 -7.54747e-19)
(0.55289 -0.207442 1.40629e-18)
(0.610384 -0.190868 -4.9421e-20)
(0.660066 -0.175233 8.03023e-19)
(0.702561 -0.161149 -7.06085e-19)
(0.0529468 -0.123826 1.22673e-19)
(0.150114 -0.257626 -5.67947e-19)
(0.258722 -0.315974 1.74758e-18)
(0.358945 -0.331692 2.47299e-19)
(0.445941 -0.324635 1.21578e-18)
(0.520504 -0.306609 -1.18859e-18)
(0.584154 -0.284488 1.24778e-18)
(0.638655 -0.261882 -8.99614e-19)
(0.685522 -0.240441 -3.95066e-19)
(0.724903 -0.221195 3.35615e-19)
(0.0729448 -0.15167 1.09541e-18)
(0.190664 -0.317377 2.80494e-21)
(0.306988 -0.391111 -1.84179e-18)
(0.408535 -0.412151 -5.3436e-19)
(0.493702 -0.404589 1.77429e-18)
(0.56499 -0.382953 -1.03984e-18)
(0.624864 -0.35582 -1.2038e-18)
(0.675617 -0.327751 1.08311e-18)
(0.718933 -0.300911 -7.37383e-19)
(0.754394 -0.276898 -1.58975e-19)
(0.0960486 -0.174334 -1.63517e-19)
(0.238033 -0.367474 -7.75593e-21)
(0.363854 -0.455615 1.99879e-18)
(0.467419 -0.482513 1.14608e-18)
(0.550831 -0.4755 -1.35151e-18)
(0.618565 -0.451352 1.63639e-18)
(0.674213 -0.420139 -1.77566e-18)
(0.720699 -0.387299 1.76701e-19)
(0.759931 -0.355515 5.2888e-19)
(0.790869 -0.327125 1.22378e-18)
(0.121118 -0.191156 1.8744e-19)
(0.290163 -0.40655 3.01847e-19)
(0.427119 -0.507894 3.28341e-19)
(0.533587 -0.541229 -1.05559e-18)
(0.615632 -0.535982 -1.8803e-18)
(0.679887 -0.510616 3.95966e-19)
(0.731204 -0.476429 1.14585e-18)
(0.773235 -0.439624 -3.27996e-19)
(0.808165 -0.403351 1.97471e-18)
(0.834247 -0.370865 -1.92479e-18)
(0.146894 -0.201721 -1.06107e-18)
(0.344727 -0.433649 4.07729e-19)
(0.494241 -0.546774 -1.10093e-18)
(0.604666 -0.587133 1.77982e-18)
(0.686058 -0.585016 8.89984e-19)
(0.747292 -0.559929 1.25656e-18)
(0.794583 -0.52408 -2.90795e-19)
(0.832423 -0.484257 1.14574e-18)
(0.863341 -0.443962 -2.42576e-18)
(0.884648 -0.407477 -6.32412e-19)
(0.17205 -0.205874 6.24626e-20)
(0.399204 -0.448254 -7.12844e-19)
(0.562391 -0.571529 -1.14141e-18)
(0.677928 -0.619481 -4.83607e-19)
(0.759661 -0.622009 -1.3666e-18)
(0.818699 -0.598991 -1.38992e-19)
(0.862692 -0.563188 1.18832e-19)
(0.897113 -0.521741 -5.34021e-19)
(0.925116 -0.478159 -5.96801e-19)
(0.942605 -0.437392 1.57391e-18)
(0.195249 -0.203726 3.3542e-19)
(0.450967 -0.450295 4.68418e-19)
(0.628513 -0.581864 8.39158e-19)
(0.750268 -0.637905 3.72161e-20)
(0.833389 -0.646759 5.59894e-19)
(0.891057 -0.628052 -7.66694e-19)
(0.93231 -0.594737 2.34079e-18)
(0.96357 -0.55388 -1.03351e-18)
(0.989456 -0.507899 -5.07574e-19)
(1.00632 -0.461007 -1.53054e-18)
(0.21523 -0.195653 -1.32116e-19)
(0.49743 -0.44013 2.33406e-19)
(0.689467 -0.577805 -2.39182e-19)
(0.818263 -0.64211 1.28948e-19)
(0.903421 -0.658818 -1.5238e-19)
(0.959695 -0.646834 -3.90806e-19)
(0.997277 -0.619363 5.14085e-19)
(1.02316 -0.584703 -1.68155e-19)
(1.04271 -0.548005 2.60874e-19)
(1.05903 -0.515028 -5.69262e-19)
(0.230935 -0.18231 -7.39331e-21)
(0.536325 -0.418561 -1.06458e-19)
(0.742531 -0.559669 2.11676e-20)
(0.879239 -0.631621 1.44576e-19)
(0.967553 -0.656554 -6.53303e-20)
(1.02334 -0.651785 1.7539e-20)
(1.05788 -0.629967 -1.71899e-20)
(1.07891 -0.599657 -3.83371e-19)
(1.09213 -0.566623 -1.77961e-19)
(1.10255 -0.534701 -5.59996e-19)
(0.241593 -0.164635 -9.61276e-20)
(0.565832 -0.386974 3.39231e-19)
(0.785448 -0.528508 -2.10751e-19)
(0.931025 -0.60695 -7.59496e-20)
(1.02419 -0.640034 3.39062e-20)
(1.08145 -0.642882 7.15267e-20)
(1.11501 -0.627183 -7.02432e-21)
(1.1335 -0.601458 2.92471e-19)
(1.14302 -0.571983 -2.5273e-19)
(1.1492 -0.541879 -3.58095e-21)
(0.246758 -0.143785 -2.36703e-19)
(0.584617 -0.347278 -1.48237e-19)
(0.816339 -0.486098 -3.68093e-19)
(0.971581 -0.569494 4.18718e-19)
(1.07145 -0.610386 -3.07019e-20)
(1.13247 -0.621291 1.36098e-19)
(1.16741 -0.612602 1.53585e-19)
(1.18559 -0.592496 -5.58705e-20)
(1.19356 -0.567431 5.05055e-20)
(1.19711 -0.540022 -1.59904e-19)
(0.246311 -0.121012 -1.61016e-19)
(0.591872 -0.301725 -2.06831e-19)
(0.833754 -0.434707 3.11654e-19)
(0.999029 -0.521159 -4.68252e-19)
(1.10725 -0.569097 8.22569e-20)
(1.17428 -0.588156 4.15731e-20)
(1.21287 -0.587119 9.19865e-20)
(1.23273 -0.573484 -6.04728e-20)
(1.24077 -0.553598 -7.24201e-20)
(1.24291 -0.52972 -2.35861e-19)
(0.240435 -0.0975683 6.71295e-19)
(0.587355 -0.252731 -5.25368e-19)
(0.836772 -0.376931 2.45462e-20)
(1.01185 -0.464233 -6.73193e-19)
(1.12966 -0.51799 -1.95425e-19)
(1.20468 -0.544843 1.56342e-19)
(1.24914 -0.551725 1.14542e-19)
(1.27272 -0.545172 -3.82059e-19)
(1.28252 -0.531184 1.67681e-19)
(1.28453 -0.511755 -3.02423e-19)
(0.229586 -0.0746121 3.33146e-19)
(0.571392 -0.202718 -3.29717e-19)
(0.825092 -0.315541 1.18316e-18)
(1.00902 -0.401307 9.43456e-20)
(1.13708 -0.459223 2.68321e-19)
(1.22172 -0.493028 9.57146e-19)
(1.27409 -0.507671 -1.98961e-19)
(1.30345 -0.508499 4.83133e-20)
(1.31688 -0.500956 -2.84392e-20)
(1.32028 -0.486799 -4.95281e-20)
(0.214444 -0.0531504 2.56804e-19)
(0.54485 -0.15397 5.83526e-19)
(0.799063 -0.253335 -5.94774e-19)
(0.990133 -0.335148 -1.8066e-19)
(1.12837 -0.395217 -1.91266e-19)
(1.22372 -0.434653 3.76542e-19)
(1.28574 -0.456425 -1.77681e-19)
(1.32289 -0.464539 4.1893e-19)
(1.34191 -0.463703 1.00803e-19)
(1.34841 -0.455421 -1.77283e-19)
(0.195856 -0.0339917 -2.77401e-19)
(0.509069 -0.10851 2.57422e-19)
(0.759689 -0.192986 -5.2849e-19)
(0.955467 -0.268575 2.21265e-19)
(1.10299 -0.328579 -2.21761e-19)
(1.20943 -0.371907 -2.63695e-19)
(1.28239 -0.399693 -2.04601e-19)
(1.3291 -0.414557 2.25738e-19)
(1.35567 -0.42033 -3.92356e-19)
(1.36714 -0.418232 2.48385e-19)
(0.174775 -0.017719 -1.03925e-19)
(0.465772 -0.0680015 -2.03935e-19)
(0.708577 -0.1369 9.59352e-20)
(0.906006 -0.204326 7.08307e-21)
(1.0611 -0.262007 7.63528e-20)
(1.17821 -0.307192 1.09396e-19)
(1.26274 -0.339451 9.31487e-20)
(1.32037 -0.360077 -1.26029e-19)
(1.35627 -0.371952 1.02735e-19)
(1.37464 -0.375987 -1.62285e-19)
(0.152191 -0.00468204 -6.54857e-20)
(0.416945 -0.0336823 -2.63952e-20)
(0.647852 -0.0871018 9.83491e-20)
(0.84343 -0.144924 -4.43695e-20)
(1.0036 -0.198186 1.2417e-19)
(1.13007 -0.243068 -1.56951e-19)
(1.22601 -0.277938 4.03215e-20)
(1.29535 -0.302935 3.46031e-20)
(1.34201 -0.31998 -1.23614e-20)
(1.36911 -0.329676 5.67345e-20)
(0.129071 0.00499455 -7.85607e-20)
(0.3647 -0.00632852 -3.33061e-19)
(0.580014 -0.0451371 -2.68241e-20)
(0.770037 -0.092543 1.07068e-20)
(0.932157 -0.139656 -4.61988e-19)
(1.06583 -0.182158 4.87855e-20)
(1.17213 -0.217628 -5.16874e-20)
(1.25319 -0.245301 -1.40585e-19)
(1.3115 -0.266204 3.11068e-19)
(1.34885 -0.280637 -5.65929e-19)
(0.106293 0.0113861 -4.45383e-20)
(0.31114 0.0137427 7.14362e-19)
(0.507779 -0.0120121 9.52789e-20)
(0.688607 -0.0488896 -6.45309e-19)
(0.849157 -0.0886662 -7.72717e-20)
(0.987142 -0.127018 -7.27701e-19)
(1.10185 -0.161148 5.65834e-19)
(1.19374 -0.189675 -2.29656e-19)
(1.26384 -0.212847 4.35297e-19)
(1.31249 -0.230667 -3.84018e-19)
(0.0846109 0.0147325 -2.51895e-19)
(0.258228 0.0266431 2.93296e-19)
(0.433899 0.0118353 -2.04868e-19)
(0.602223 -0.015101 1.41611e-18)
(0.757548 -0.0470194 7.49593e-19)
(0.89641 -0.0799696 -1.96286e-19)
(1.01678 -0.111131 7.63239e-19)
(1.11772 -0.138798 -4.99033e-19)
(1.19888 -0.162564 -1.60482e-19)
(1.25919 -0.182097 1.1595e-18)
(0.0646184 0.0153976 -4.65666e-19)
(0.207682 0.0328631 6.95265e-19)
(0.360982 0.0265371 -1.31852e-18)
(0.514052 0.00833829 2.28231e-19)
(0.660652 -0.0159069 5.69047e-19)
(0.7967 -0.0428758 -7.15097e-19)
(0.919359 -0.0699944 -1.26652e-18)
(1.02673 -0.0954718 6.7896e-19)
(1.11735 -0.118343 -8.83e-19)
(1.18885 -0.137793 1.41308e-18)
(0.0467451 0.0138316 -1.15116e-19)
(0.16091 0.0332167 -6.99804e-19)
(0.291339 0.03278 3.45452e-19)
(0.427113 0.0216645 8.64151e-19)
(0.561882 0.00426147 -4.6418e-19)
(0.691439 -0.0168806 -4.58076e-19)
(0.812661 -0.0396131 -7.76647e-19)
(0.923199 -0.0622304 -3.55877e-19)
(1.02086 -0.0832296 -8.54663e-20)
(1.10226 -0.100992 1.4122e-18)
(0.0312702 0.0105458 1.93283e-19)
(0.118976 0.0287937 -9.50651e-19)
(0.226869 0.0317842 1.62604e-18)
(0.344062 0.0258912 -9.05438e-19)
(0.464445 0.0140392 5.86632e-19)
(0.584059 -0.00207641 -7.29946e-19)
(0.699966 -0.0208544 8.12984e-19)
(0.809928 -0.0407969 7.10026e-19)
(0.911575 -0.0598094 1.55132e-18)
(1.0009 -0.0748786 -2.56469e-18)
(0.018352 0.00610193 -6.00579e-19)
(0.0826125 0.0209185 1.20597e-18)
(0.169007 0.0252636 1.60936e-20)
(0.267054 0.0228309 -4.34377e-19)
(0.371087 0.0151005 -2.30674e-19)
(0.477614 0.00286553 1.84367e-19)
(0.584238 -0.0129434 -1.30891e-18)
(0.689404 -0.0312142 1.01127e-18)
(0.791331 -0.0492644 -1.30332e-18)
(0.886039 -0.0617497 -5.94913e-19)
(0.00806018 0.00110793 1.03348e-18)
(0.05226 0.011093 -3.22396e-19)
(0.118756 0.0153294 -6.04767e-19)
(0.197748 0.0150186 1.64252e-18)
(0.284047 0.0102792 -1.61348e-18)
(0.374602 0.000971712 9.01466e-19)
(0.467604 -0.0128155 9.60101e-19)
(0.562486 -0.0307704 2.62725e-19)
(0.658901 -0.0501774 2.7325e-19)
(0.754557 -0.0623406 -3.87624e-19)
(0.000388671 -0.00380853 -9.88385e-19)
(0.0281179 0.000874398 9.39445e-19)
(0.0768093 0.0042728 -8.31374e-19)
(0.137563 0.00546135 1.04308e-18)
(0.205553 0.00344231 -3.11633e-19)
(0.277819 -0.00270798 -1.0823e-18)
(0.352527 -0.013726 3.10374e-19)
(0.429273 -0.0305534 -5.12089e-19)
(0.509035 -0.0524536 -6.06525e-19)
(0.594169 -0.0694541 -1.8922e-18)
(-0.00477047 -0.00808577 -1.23468e-18)
(0.0101469 -0.00838453 9.8159e-19)
(0.0436434 -0.00593789 -1.92323e-18)
(0.0879958 -0.00320916 3.43907e-19)
(0.138749 -0.00175698 -1.33239e-18)
(0.192804 -0.00254303 -7.99098e-19)
(0.247586 -0.0058896 1.91233e-18)
(0.301159 -0.0120155 -2.61443e-18)
(0.352881 -0.0215155 5.03223e-19)
(0.400027 -0.0302483 -8.28661e-19)
(-0.00768224 -0.0113475 6.08183e-19)
(-0.00204468 -0.015839 2.57329e-19)
(0.0192553 -0.0143225 -7.65389e-20)
(0.0500644 -0.0103002 7.30846e-19)
(0.0867017 -0.00565939 2.14607e-18)
(0.126594 -0.0013602 7.40701e-19)
(0.167732 0.00240697 7.65347e-19)
(0.208919 0.00569208 -2.64639e-19)
(0.250232 0.00783827 -2.46851e-18)
(0.289113 0.00926183 6.2604e-19)
(-0.00878373 -0.0134241 -1.71696e-19)
(-0.00932804 -0.0210859 5.46474e-19)
(0.00264605 -0.0205022 -1.43157e-19)
(0.0227355 -0.0158175 1.0108e-18)
(0.0481732 -0.00920568 -2.33705e-18)
(0.0770137 -0.00182638 1.98369e-19)
(0.107829 0.00579381 -1.11226e-18)
(0.139842 0.0132481 1.63666e-18)
(0.172875 0.0195724 -4.78384e-19)
(0.204272 0.0240789 -6.83585e-20)
(-0.0085878 -0.014304 -1.16884e-19)
(-0.0128318 -0.0240055 -6.57198e-19)
(-0.00771335 -0.0243087 1.6528e-18)
(0.00407925 -0.0196268 -8.71447e-19)
(0.0206594 -0.0123269 6.12483e-20)
(0.0406174 -0.00378481 2.79662e-19)
(0.0629137 0.0051319 -2.55578e-19)
(0.0869286 0.0136317 3.32159e-19)
(0.112249 0.0206138 1.15097e-18)
(0.136672 0.0252818 3.01186e-19)
(-0.00758375 -0.0140743 -2.62164e-19)
(-0.0136957 -0.0246648 -2.91599e-19)
(-0.0134291 -0.0257005 -1.29432e-18)
(-0.00792074 -0.0215114 6.89178e-19)
(0.00173552 -0.0144921 -1.4215e-18)
(0.0145785 -0.00611554 3.22934e-19)
(0.0298492 0.00258949 3.63117e-19)
(0.0470083 0.0107138 -3.8374e-19)
(0.0655389 0.0172481 -2.48272e-19)
(0.0837984 0.0214693 -1.1158e-18)
(-0.00618704 -0.0128747 2.04798e-19)
(-0.0129399 -0.0232572 -4.81727e-20)
(-0.0159822 -0.0247662 9.78712e-22)
(-0.0151343 -0.0213425 -6.21997e-19)
(-0.0108146 -0.015225 1.57456e-18)
(-0.00361591 -0.00783534 -2.45593e-19)
(0.00591806 -0.000196401 -6.12885e-19)
(0.0173136 0.00683838 7.50144e-19)
(0.0300351 0.0124517 -2.63614e-19)
(0.042923 0.0160459 1.45709e-18)
(-0.00472402 -0.0108679 -3.84394e-20)
(-0.0114033 -0.0200601 -2.25368e-19)
(-0.0166177 -0.0217187 -8.89465e-20)
(-0.0191361 -0.019149 -1.13633e-19)
(-0.018832 -0.0142673 -2.44308e-19)
(-0.0160035 -0.00831146 -7.67215e-19)
(-0.0110228 -0.00217615 9.59692e-19)
(-0.00429658 0.00342954 5.60606e-19)
(0.00366267 0.00789587 -1.00427e-19)
(0.012063 0.0107637 -8.93743e-19)
(-0.00343574 -0.00822483 2.18285e-19)
(-0.00972806 -0.0154094 3.81455e-20)
(-0.0163014 -0.0168859 2.582e-19)
(-0.0211436 -0.01514 -2.9552e-20)
(-0.0237175 -0.0116331 2.3511e-19)
(-0.0240981 -0.00731669 2.65259e-19)
(-0.0225237 -0.00287676 3.97675e-19)
(-0.0193385 0.00116394 -1.12655e-18)
(-0.0150202 0.00438863 -2.07925e-19)
(-0.0101031 0.00647371 3.72645e-19)
(-0.00248969 -0.00512128 -1.10222e-19)
(-0.00837065 -0.00968539 -1.56659e-19)
(-0.0157251 -0.0106973 -7.53632e-20)
(-0.022025 -0.0096972 3.6861e-19)
(-0.0264593 -0.00759798 1.78924e-19)
(-0.0289517 -0.00499651 3.66934e-20)
(-0.0296475 -0.00232114 -7.95542e-20)
(-0.0288424 0.000109852 -6.17121e-20)
(-0.0269847 0.00205474 5.29712e-19)
(-0.0244468 0.00332106 -3.60773e-19)
(-0.00199122 -0.00173833 5.61898e-20)
(-0.00762155 -0.00330251 6.99161e-20)
(-0.0153301 -0.00366178 -5.96168e-20)
(-0.0223323 -0.00333746 -5.45288e-20)
(-0.0276803 -0.00263983 -5.65382e-20)
(-0.0312213 -0.001772 -9.02155e-20)
(-0.0330527 -0.000879382 2.89767e-21)
(-0.0334436 -6.86645e-05 1.25173e-19)
(-0.0328262 0.000581024 -1.25683e-19)
(-0.0314952 0.0010058 2.2867e-19)
(-0.00813522 -0.00258587 1.65342e-20)
(0.0621202 -0.00662789 9.88732e-21)
(0.277545 -0.00671062 1.33752e-21)
(0.376952 -0.00438752 -9.02383e-22)
(0.479665 -0.00368044 -6.35411e-23)
(0.553543 -0.00263714 1.48036e-22)
(0.60604 -0.00218364 1.66302e-22)
(0.660332 -0.00158202 -3.39884e-23)
(0.683566 -0.00146499 -2.49107e-24)
(0.733789 -0.00100972 2.43902e-22)
(0.00866436 -0.00806059 2.62203e-20)
(0.0773743 -0.0197199 1.25332e-21)
(0.289036 -0.0199767 -1.74797e-20)
(0.385709 -0.0130628 1.4044e-20)
(0.486373 -0.010967 8.87119e-22)
(0.558779 -0.00786145 -5.94018e-22)
(0.610311 -0.00651188 6.88639e-22)
(0.663691 -0.00471471 6.96619e-23)
(0.686499 -0.00436815 1.39986e-22)
(0.736012 -0.00301546 -2.23513e-22)
(0.0419689 -0.0144156 2.68567e-20)
(0.107409 -0.032331 -3.61023e-20)
(0.311589 -0.0327839 1.78688e-20)
(0.402909 -0.0214374 -1.16341e-20)
(0.499556 -0.0180264 8.28193e-22)
(0.569082 -0.0129343 -6.45404e-22)
(0.618728 -0.0107251 -2.56761e-22)
(0.670324 -0.0077677 8.30075e-25)
(0.692296 -0.00720548 -1.07201e-22)
(0.740417 -0.00498165 -3.26333e-22)
(0.0911766 -0.0221292 -4.16265e-20)
(0.151301 -0.0441618 -5.01134e-20)
(0.344375 -0.0448469 -2.31228e-20)
(0.427948 -0.0293276 1.21274e-20)
(0.518762 -0.0247187 -1.45356e-20)
(0.584129 -0.0177622 3.84409e-21)
(0.631047 -0.0147518 -2.08834e-22)
(0.680058 -0.0106912 1.20768e-22)
(0.700825 -0.0099354 -1.2883e-22)
(0.746923 -0.00688296 1.21109e-22)
(0.155356 -0.0314742 1.15127e-19)
(0.207725 -0.0549247 7.22382e-20)
(0.386206 -0.0559023 2.59796e-20)
(0.459957 -0.0365715 -2.35669e-20)
(0.543345 -0.0309199 1.19315e-20)
(0.603454 -0.0222624 3.16006e-21)
(0.646918 -0.0185276 2.20904e-21)
(0.692647 -0.0134403 2.39167e-22)
(0.711895 -0.0125197 2.8614e-22)
(0.75541 -0.00869563 -6.42713e-22)
(0.233227 -0.0423779 -5.08261e-20)
(0.275004 -0.0643047 3.90005e-20)
(0.435602 -0.0656966 4.82047e-21)
(0.497856 -0.0430256 2.62826e-20)
(0.572503 -0.0365233 -5.94606e-21)
(0.626478 -0.0263645 -3.68269e-21)
(0.665902 -0.0219974 -2.28186e-21)
(0.707782 -0.0159762 -1.47376e-22)
(0.725263 -0.0149244 -1.55381e-22)
(0.765726 -0.010398 6.8954e-22)
(0.32316 -0.0545602 -3.86775e-20)
(0.351168 -0.0720374 -1.00778e-19)
(0.490866 -0.074027 -1.70462e-20)
(0.540408 -0.048574 -1.4638e-20)
(0.605321 -0.0414462 6.97163e-21)
(0.652534 -0.030013 -1.94178e-21)
(0.687491 -0.025117 2.45492e-21)
(0.725099 -0.0182671 4.49407e-22)
(0.740641 -0.0171215 -4.65386e-23)