1.275 	2.15223e-18 	-2.76991e-20 	-0.0327029 	-0.000499847 	-2.02583e-22
1.825 	2.15223e-18 	-1.39322e-20 	-0.00722935 	-0.00290196 	1.81472e-21
2.375 	2.15223e-18 	-2.66896e-23 	0.124009 	-0.00349289 	-7.55108e-22
