/*--------------------------------*- C++ -*----------------------------------*\
  =========                 |
  \\      /  F ield         | OpenFOAM: The Open Source CFD Toolbox
   \\    /   O peration     | Website:  https://openfoam.org
    \\  /    A nd           | Version:  6.0
     \\/     M anipulation  |
\*---------------------------------------------------------------------------*/
FoamFile
{
    version     2.0;
    format      ascii;
    class       volVectorField;
    location    "0.6";
    object      U;
}
// * * * * * * * * * * * * * * * * * * * * * * * * * * * * * * * * * * * * * //

dimensions      [0 1 -1 0 0 0 0];

internalField   nonuniform List<vector> 
1600
(
(6.0438e-05 -6.06091e-05 0)
(0.000155827 -5.71875e-05 0)
(0.00015687 -6.99172e-06 0)
(6.61468e-06 5.25943e-05 0)
(-0.000303363 0.000108212 0)
(-0.000756659 0.000155152 0)
(-0.00132879 0.000192048 0)
(-0.00199278 0.000218941 0)
(-0.00272141 0.000236404 0)
(-0.00348837 0.000245184 0)
(-0.00426893 0.000246073 0)
(-0.00504022 0.000239858 0)
(-0.00578138 0.0002273 0)
(-0.00647362 0.000209133 0)
(-0.00710033 0.000186068 0)
(-0.00764701 0.000158798 0)
(-0.00810133 0.000128008 0)
(-0.00845314 9.43798e-05 0)
(-0.00869452 5.86043e-05 0)
(-0.00881982 2.13903e-05 0)
(-0.00882576 -1.65269e-05 0)
(-0.00871148 -5.43788e-05 0)
(-0.00847867 -9.13601e-05 0)
(-0.00813164 -0.000126629 0)
(-0.00767739 -0.000159312 0)
(-0.0071257 -0.000188508 0)
(-0.00648915 -0.000213304 0)
(-0.00578309 -0.000232784 0)
(-0.00502555 -0.000246046 0)
(-0.00423713 -0.000252224 0)
(-0.00344077 -0.000250502 0)
(-0.00266142 -0.000240138 0)
(-0.00192558 -0.000220497 0)
(-0.00126077 -0.000191098 0)
(-0.000694557 -0.000151745 0)
(-0.000253192 -0.000102863 0)
(4.08168e-05 -4.63369e-05 0)
(0.000174328 1.25939e-05 0)
(0.00016035 6.01938e-05 0)
(6.02707e-05 6.00326e-05 0)
(5.86186e-05 -0.00015711 0)
(7.24782e-05 -6.96187e-05 0)
(-0.000178468 0.000182357 0)
(-0.000772788 0.000477139 0)
(-0.00172499 0.000761361 0)
(-0.00300849 0.00100987 0)
(-0.00457474 0.00121137 0)
(-0.0063643 0.00136194 0)
(-0.00831339 0.00146149 0)
(-0.0103578 0.00151192 0)
(-0.0124351 0.0015162 0)
(-0.0144866 0.0014779 0)
(-0.0164576 0.00140089 0)
(-0.0182986 0.00128922 0)
(-0.0199652 0.00114704 0)
(-0.0214186 0.000978536 0)
(-0.0226258 0.000787981 0)
(-0.0235596 0.00057971 0)
(-0.0241989 0.000358159 0)
(-0.0245288 0.000127892 0)
(-0.0245407 -0.000106375 0)
(-0.0242328 -0.000339755 0)
(-0.0236102 -0.000567185 0)
(-0.0226846 -0.00078344 0)
(-0.0214755 -0.000983168 0)
(-0.0200091 -0.00116095 0)
(-0.0183192 -0.00131138 0)
(-0.0164465 -0.00142915 0)
(-0.0144384 -0.00150922 0)
(-0.0123487 -0.00154692 0)
(-0.0102364 -0.00153816 0)
(-0.00816485 -0.00147965 0)
(-0.00620026 -0.00136925 0)
(-0.00440935 -0.00120638 0)
(-0.00285653 -0.000992951 0)
(-0.00159958 -0.000735025 0)
(-0.000682952 -0.000446161 0)
(-0.000126828 -0.000153527 0)
(9.2018e-05 8.84174e-05 0)
(6.17507e-05 0.000160744 0)
(1.13545e-05 -0.00016288 0)
(-0.00017205 0.000178289 0)
(-0.000804154 0.000813921 0)
(-0.00193134 0.00153654 0)
(-0.00355442 0.00223908 0)
(-0.00563744 0.00286207 0)
(-0.00811558 0.00337391 0)
(-0.0109073 0.0037602 0)
(-0.0139231 0.00401678 0)
(-0.017071 0.0041456 0)
(-0.0202601 0.00415234 0)
(-0.0234036 0.004045 0)
(-0.0264201 0.00383302 0)
(-0.0292353 0.00352672 0)
(-0.0317822 0.00313699 0)
(-0.034002 0.00267516 0)
(-0.0358445 0.00215287 0)
(-0.0372686 0.00158207 0)
(-0.0382422 0.000975072 0)
(-0.0387428 0.000344527 0)
(-0.0387579 -0.000296487 0)
(-0.0382849 -0.000934471 0)
(-0.0373317 -0.00155551 0)
(-0.035917 -0.00214535 0)
(-0.0340701 -0.00268948 0)
(-0.0318313 -0.00317332 0)
(-0.0292516 -0.00358247 0)
(-0.0263924 -0.00390298 0)
(-0.0233249 -0.00412178 0)
(-0.020129 -0.00422711 0)
(-0.0168921 -0.00420908 0)
(-0.0137072 -0.00406044 0)
(-0.0106701 -0.00377748 0)
(-0.00787631 -0.00336147 0)
(-0.00541634 -0.00282086 0)
(-0.00336967 -0.002175 0)
(-0.00179596 -0.00146053 0)
(-0.000723176 -0.000741241 0)
(-0.000138947 -0.000126369 0)
(1.76085e-05 0.000180086 0)
(-4.5593e-05 -2.20595e-05 0)
(-0.000464646 0.000767972 0)
(-0.00153569 0.00194163 0)
(-0.00324243 0.00322719 0)
(-0.00555564 0.00446894 0)
(-0.00842429 0.00557199 0)
(-0.0117674 0.00648133 0)
(-0.015485 0.00716882 0)
(-0.0194673 0.00762385 0)
(-0.0236008 0.0078471 0)
(-0.0277728 0.00784671 0)
(-0.0318743 0.0076357 0)
(-0.035803 0.00723034 0)
(-0.0394643 0.00664903 0)
(-0.0427732 0.00591166 0)
(-0.0456547 0.00503914 0)
(-0.0480449 0.00405323 0)
(-0.0498909 0.00297641 0)
(-0.0511519 0.00183186 0)
(-0.0517993 0.000643517 0)
(-0.0518171 -0.000563946 0)
(-0.0512024 -0.0017651 0)
(-0.0499656 -0.00293382 0)
(-0.0481306 -0.00404343 0)
(-0.0457352 -0.00506691 0)
(-0.0428309 -0.00597726 0)
(-0.0394826 -0.00674795 0)
(-0.0357685 -0.00735353 0)
(-0.0317785 -0.00777038 0)
(-0.0276135 -0.00797762 0)
(-0.0233832 -0.00795823 0)
(-0.0192037 -0.00770041 0)
(-0.0151941 -0.00719946 0)
(-0.0114721 -0.00646015 0)
(-0.00814904 -0.00550039 0)
(-0.00532302 -0.00435664 0)
(-0.00306941 -0.00309247 0)
(-0.0014301 -0.0018101 0)
(-0.000420271 -0.000669527 0)
(-3.68456e-05 5.98267e-05 0)
(-0.000100768 0.000278615 0)
(-0.000761626 0.00172935 0)
(-0.00229031 0.00359258 0)
(-0.00459458 0.00555709 0)
(-0.00760466 0.0074301 0)
(-0.0112485 0.00908648 0)
(-0.0154263 0.0104493 0)
(-0.0200201 0.0114764 0)
(-0.024902 0.01215 0)
(-0.0299408 0.0124689 0)
(-0.0350056 0.0124435 0)
(-0.0399699 0.0120922 0)
(-0.0447142 0.0114391 0)
(-0.0491283 0.0105117 0)
(-0.0531123 0.00934055 0)
(-0.0565785 0.00795803 0)
(-0.0594514 0.00639803 0)
(-0.0616691 0.00469578 0)
(-0.0631837 0.00288768 0)
(-0.0639615 0.00101137 0)
(-0.0639838 -0.000894392 0)
(-0.0632473 -0.00278969 0)
(-0.061764 -0.00463362 0)
(-0.0595624 -0.0063845 0)
(-0.0566867 -0.00800027 0)
(-0.0531973 -0.00943903 0)
(-0.0491704 -0.0106598 0)
(-0.0446971 -0.0116236 0)
(-0.0398826 -0.0122943 0)
(-0.0348445 -0.0126405 0)
(-0.0297105 -0.012637 0)
(-0.0246154 -0.0122672 0)
(-0.0196974 -0.0115255 0)
(-0.0150935 -0.0104211 0)
(-0.0109337 -0.00898222 0)
(-0.0073348 -0.0072633 0)
(-0.00439087 -0.00535393 0)
(-0.00216405 -0.00339051 0)
(-0.000707621 -0.00157351 0)
(-8.98775e-05 -0.000214716 0)
(-0.000151111 0.000732767 0)
(-0.00104651 0.00306316 0)
(-0.00303036 0.00577405 0)
(-0.00593199 0.00853357 0)
(-0.00963596 0.0111235 0)
(-0.0140443 0.0133956 0)
(-0.0190357 0.0152546 0)
(-0.0244725 0.0166463 0)
(-0.0302096 0.0175464 0)
(-0.0360993 0.0179524 0)
(-0.0419951 0.0178774 0)
(-0.0477557 0.0173459 0)
(-0.0532477 0.0163901 0)
(-0.0583478 0.0150484 0)
(-0.0629447 0.0133629 0)
(-0.0669398 0.0113791 0)
(-0.0702491 0.0091447 0)
(-0.0728031 0.0067094 0)
(-0.0745481 0.00412472 0)
(-0.0754463 0.00144392 0)
(-0.0754767 -0.00127814 0)
(-0.0746353 -0.00398503 0)
(-0.0729357 -0.006619 0)
(-0.0704093 -0.0091213 0)
(-0.0671053 -0.0114328 0)
(-0.0630909 -0.0134946 0)
(-0.0584511 -0.0152494 0)
(-0.0532873 -0.0166428 0)
(-0.0477169 -0.0176246 0)
(-0.0418712 -0.0181516 0)
(-0.0358929 -0.0181893 0)
(-0.0299329 -0.0177154 0)
(-0.0241464 -0.0167232 0)
(-0.0186884 -0.0152255 0)
(-0.0137076 -0.0132608 0)
(-0.00934111 -0.0109 0)
(-0.00570523 -0.00825561 0)
(-0.00288734 -0.00549233 0)
(-0.000984209 -0.0028408 0)
(-0.000138256 -0.000637867 0)
(-0.000196523 0.00133007 0)
(-0.00131493 0.00475801 0)
(-0.00374199 0.00847838 0)
(-0.00723145 0.012151 0)
(-0.0116206 0.015542 0)
(-0.0167825 0.018487 0)
(-0.0225715 0.0208775 0)
(-0.0288288 0.0226504 0)
(-0.0353914 0.0237768 0)
(-0.0420956 0.0242544 0)
(-0.0487806 0.0240999 0)
(-0.055292 0.0233448 0)
(-0.0614845 0.0220311 0)
(-0.0672242 0.0202086 0)
(-0.07239 0.0179324 0)
(-0.0768753 0.0152624 0)
(-0.0805886 0.0122613 0)
(-0.0834548 0.00899478 0)
(-0.0854153 0.00553095 0)
(-0.086429 0.00194015 0)
(-0.0864729 -0.00170513 0)
(-0.0855422 -0.00533038 0)
(-0.0836511 -0.00885939 0)
(-0.080833 -0.0122147 0)
(-0.0771407 -0.0153184 0)
(-0.0726465 -0.0180931 0)
(-0.0674417 -0.0204634 0)
(-0.0616363 -0.0223576 0)
(-0.0553574 -0.0237103 0)
(-0.0487478 -0.0244646 0)
(-0.0419631 -0.0245756 0)
(-0.0351691 -0.0240139 0)
(-0.0285373 -0.0227702 0)
(-0.0222402 -0.0208601 0)
(-0.0164469 -0.0183302 0)
(-0.0113168 -0.0152651 0)
(-0.00699145 -0.0117966 0)
(-0.00358709 -0.00811137 0)
(-0.00124588 -0.00446208 0)
(-0.000181859 -0.00119993 0)
(-0.00023793 0.0020608 0)
(-0.0015681 0.00679933 0)
(-0.00442414 0.0116921 0)
(-0.00848875 0.0163979 0)
(-0.0135523 0.0206745 0)
(-0.0194572 0.0243479 0)
(-0.0260313 0.0273015 0)
(-0.0330935 0.029467 0)
(-0.0404617 0.0308141 0)
(-0.047956 0.0313425 0)
(-0.0554019 0.0310747 0)
(-0.062633 0.0300506 0)
(-0.0694936 0.0283231 0)
(-0.0758405 0.0259546 0)
(-0.0815449 0.0230147 0)
(-0.0864935 0.0195783 0)
(-0.0905891 0.0157247 0)
(-0.0937518 0.0115365 0)
(-0.0959194 0.00709934 0)
(-0.0970479 0.00250184 0)
(-0.0971123 -0.00216477 0)
(-0.0961069 -0.00680678 0)
(-0.0940458 -0.0113283 0)
(-0.0909634 -0.015632 0)
(-0.0869147 -0.0196197 0)
(-0.0819754 -0.0231942 0)
(-0.0762417 -0.0262603 0)
(-0.0698298 -0.0287279 0)
(-0.0628752 -0.0305141 0)
(-0.0555302 -0.0315469 0)
(-0.0479627 -0.0317691 0)
(-0.0403522 -0.0311424 0)
(-0.0328864 -0.029653 0)
(-0.0257567 -0.0273167 0)
(-0.0191534 -0.0241857 0)
(-0.013261 -0.0203552 0)
(-0.00824884 -0.0159717 0)
(-0.00426405 -0.011239 0)
(-0.00149445 -0.00642565 0)
(-0.000221699 -0.00189202 0)
(-0.000276468 0.00291717 0)
(-0.00180935 0.00917373 0)
(-0.00508172 0.0154017 0)
(-0.00970957 0.0212622 0)
(-0.0154374 0.0265103 0)
(-0.0220762 0.0309676 0)
(-0.029426 0.0345144 0)
(-0.0372819 0.0370814 0)
(-0.0454418 0.0386401 0)
(-0.0537096 0.0391955 0)
(-0.061897 0.0387777 0)
(-0.0698261 0.0374373 0)
(-0.0773317 0.0352394 0)
(-0.084263 0.0322607 0)
(-0.0904846 0.0285861 0)
(-0.0958778 0.0243072 0)
(-0.100341 0.0195201 0)
(-0.103791 0.0143255 0)
(-0.106161 0.00882746 0)
(-0.107407 0.00313342 0)
(-0.107501 -0.00264591 0)
(-0.106435 -0.00839682 0)
(-0.104224 -0.014003 0)
(-0.100901 -0.0193461 0)
(-0.0965234 -0.0243069 0)
(-0.0911675 -0.0287667 0)
(-0.0849333 -0.0326096 0)
(-0.0779418 -0.035725 0)
(-0.0703349 -0.0380109 0)
(-0.0622738 -0.0393781 0)
(-0.0539373 -0.0397548 0)
(-0.0455189 -0.0390913 0)
(-0.0372227 -0.0373666 0)
(-0.0292601 -0.0345939 0)
(-0.0218444 -0.0308274 0)
(-0.0151872 -0.0261696 0)
(-0.00948764 -0.0207775 0)
(-0.00492564 -0.0148679 0)
(-0.0017342 -0.00872205 0)
(-0.000259072 -0.00270761 0)
(-0.000313191 0.00389368 0)
(-0.00204256 0.0118709 0)
(-0.00572203 0.0195961 0)
(-0.0109041 0.0267342 0)
(-0.0172884 0.0330408 0)
(-0.0246542 0.0383381 0)
(-0.0327728 0.0425076 0)
(-0.0414142 0.0454832 0)
(-0.0503561 0.0472425 0)
(-0.059385 0.0477983 0)
(-0.0682992 0.0471918 0)
(-0.0769098 0.045486 0)
(-0.0850431 0.0427607 0)
(-0.0925413 0.0391081 0)
(-0.0992638 0.03463 0)
(-0.105088 0.0294352 0)
(-0.109908 0.023638 0)
(-0.113639 0.0173573 0)
(-0.116212 0.0107162 0)
(-0.117579 0.00384142 0)
(-0.117712 -0.00313649 0)
(-0.116602 -0.0100834 0)
(-0.11426 -0.0168621 0)
(-0.11072 -0.0233327 0)
(-0.106038 -0.0293538 0)
(-0.100292 -0.0347846 0)
(-0.093582 -0.0394865 0)
(-0.0860335 -0.043327 0)
(-0.0777931 -0.0461829 0)
(-0.06903 -0.0479453 0)
(-0.0599332 -0.048525 0)
(-0.05071 -0.0478579 0)
(-0.0415817 -0.0459125 0)
(-0.0327807 -0.0426957 0)
(-0.0245452 -0.0382604 0)
(-0.0171157 -0.0327119 0)
(-0.0107234 -0.0262147 0)
(-0.00558217 -0.0189956 0)
(-0.00197018 -0.0113463 0)
(-0.000295241 -0.00364298 0)
(-0.000349001 0.00498701 0)
(-0.00227151 0.0148843 0)
(-0.00635292 0.024268 0)
(-0.0120841 0.032807 0)
(-0.0191204 0.0402602 0)
(-0.0272088 0.0464537 0)
(-0.0360913 0.0512748 0)
(-0.0455122 0.054665 0)
(-0.0552277 0.0566114 0)
(-0.0650073 0.0571391 0)
(-0.0746355 0.056303 0)
(-0.083913 0.0541816 0)
(-0.0926582 0.0508713 0)
(-0.100708 0.0464819 0)
(-0.107916 0.041133 0)
(-0.114159 0.0349519 0)
(-0.119328 0.0280715 0)
(-0.123335 0.0206297 0)
(-0.126111 0.0127684 0)
(-0.127606 0.00463398 0)
(-0.127789 -0.00362328 0)
(-0.12665 -0.0118488 0)
(-0.124199 -0.0198843 0)
(-0.120466 -0.0275678 0)
(-0.115506 -0.0347355 0)
(-0.109395 -0.0412231 0)
(-0.102235 -0.0468682 0)
(-0.0941518 -0.0515144 0)
(-0.0852961 -0.0550151 0)
(-0.0758436 -0.0572388 0)
(-0.0659934 -0.0580756 0)
(-0.055966 -0.0574437 0)
(-0.0460008 -0.0552966 0)
(-0.0363521 -0.0516311 0)
(-0.0272848 -0.0464945 0)
(-0.0190703 -0.0399914 0)
(-0.0119739 -0.0322903 0)
(-0.0062449 -0.0236255 0)
(-0.00220751 -0.0142987 0)
(-0.000331348 -0.0046973 0)
(-0.000384649 0.00619588 0)
(-0.00249964 0.0182111 0)
(-0.00698195 0.0294144 0)
(-0.0132612 0.0394777 0)
(-0.0209484 0.0481654 0)
(-0.0297577 0.0553111 0)
(-0.0394009 0.0608114 0)
(-0.0495958 0.0646199 0)
(-0.0600767 0.0667379 0)
(-0.0705959 0.0672065 0)
(-0.0809243 0.0660979 0)
(-0.0908528 0.0635092 0)
(-0.100193 0.0595557 0)
(-0.108776 0.0543668 0)
(-0.116456 0.0480817 0)
(-0.123103 0.0408468 0)
(-0.128611 0.0328143 0)
(-0.13289 0.0241409 0)
(-0.135869 0.0149878 0)
(-0.137499 0.00552029 0)
(-0.137745 -0.00409176 0)
(-0.136595 -0.0136737 0)
(-0.134057 -0.0230463 0)
(-0.130158 -0.0320256 0)
(-0.124948 -0.0404249 0)
(-0.118503 -0.0480556 0)
(-0.11092 -0.0547302 0)
(-0.102328 -0.0602665 0)
(-0.0928775 -0.0644917 0)
(-0.0827506 -0.0672488 0)
(-0.0721548 -0.0684034 0)
(-0.0613242 -0.0678514 0)
(-0.0505161 -0.0655272 0)
(-0.0400079 -0.0614126 0)
(-0.030093 -0.0555445 0)
(-0.0210756 -0.0480231 0)
(-0.0132573 -0.0390172 0)
(-0.00692509 -0.0287673 0)
(-0.00245108 -0.0175853 0)
(-0.000368411 -0.00587243 0)
(-0.000420764 0.00752069 0)
(-0.00272998 0.0218523 0)
(-0.0076161 0.0350362 0)
(-0.0144465 0.0467473 0)
(-0.0227868 0.0567567 0)
(-0.0323174 0.0649085 0)
(-0.0427187 0.0711133 0)
(-0.0536816 0.075341 0)
(-0.0649181 0.0776118 0)
(-0.0761629 0.077987 0)
(-0.0871741 0.0765603 0)
(-0.0977337 0.0734506 0)
(-0.107647 0.0687953 0)
(-0.116743 0.0627451 0)
(-0.124873 0.0554602 0)
(-0.131908 0.0471073 0)
(-0.137742 0.0378581 0)
(-0.142285 0.0278884 0)
(-0.145467 0.0173777 0)
(-0.147236 0.00651002 0)
(-0.147559 -0.00452608 0)
(-0.146419 -0.0155366 0)
(-0.143819 -0.0263219 0)
(-0.139784 -0.0366766 0)
(-0.134359 -0.0463907 0)
(-0.127614 -0.0552508 0)
(-0.119644 -0.0630432 0)
(-0.110574 -0.0695577 0)
(-0.100556 -0.0745928 0)
(-0.0897748 -0.0779622 0)
(-0.0784458 -0.0795028 0)
(-0.0668156 -0.0790833 0)
(-0.0551597 -0.0766137 0)
(-0.0437795 -0.0720552 0)
(-0.0329982 -0.0654296 0)
(-0.0231553 -0.0568275 0)
(-0.0145913 -0.0464155 0)
(-0.00763357 -0.034438 0)
(-0.00270548 -0.0212175 0)
(-0.000407342 -0.00717278 0)
(-0.00045788 0.00896337 0)
(-0.00296524 0.0258118 0)
(-0.00826165 0.0411384 0)
(-0.0156499 0.05462 0)
(-0.0246483 0.0660364 0)
(-0.034902 0.0752455 0)
(-0.046059 0.0821761 0)
(-0.0577819 0.0868194 0)
(-0.0697603 0.0892195 0)
(-0.0817117 0.0894628 0)
(-0.0933821 0.0876689 0)
(-0.104546 0.0839824 0)
(-0.115003 0.0785655 0)
(-0.124583 0.0715928 0)
(-0.133135 0.063247 0)
(-0.140534 0.0537159 0)
(-0.146675 0.0431909 0)
(-0.15147 0.0318664 0)
(-0.154851 0.0199399 0)
(-0.156765 0.00761261 0)
(-0.157177 -0.00490915 0)
(-0.156068 -0.0174133 0)
(-0.153437 -0.0296808 0)
(-0.149302 -0.0414857 0)
(-0.143703 -0.0525949 0)
(-0.136702 -0.0627702 0)
(-0.128388 -0.0717702 0)
(-0.118882 -0.079355 0)
(-0.108332 -0.0852913 0)
(-0.096926 -0.0893596 0)
(-0.0848837 -0.0913634 0)
(-0.0724635 -0.0911384 0)
(-0.0599585 -0.0885642 0)
(-0.0476946 -0.0835753 0)
(-0.0360266 -0.076172 0)
(-0.0253317 -0.0664307 0)
(-0.0159925 -0.0545112 0)
(-0.00838065 -0.0406604 0)
(-0.00297503 -0.0252118 0)
(-0.000448978 -0.00860508 0)
(-0.000496473 0.0105272 0)
(-0.00320788 0.0300968 0)
(-0.0089244 0.0477293 0)
(-0.0168805 0.0631032 0)
(-0.0265445 0.0760089 0)
(-0.0375237 0.0863219 0)
(-0.0494322 0.0939936 0)
(-0.0619036 0.0990425 0)
(-0.0746046 0.101542 0)
(-0.087236 0.101609 0)
(-0.0995327 0.0993942 0)
(-0.111263 0.0950718 0)
(-0.122225 0.0888325 0)
(-0.132247 0.0808771 0)
(-0.141185 0.0714122 0)
(-0.148915 0.0606476 0)
(-0.155336 0.0487943 0)
(-0.160365 0.0360647 0)
(-0.163935 0.022673 0)
(-0.165996 0.00883643 0)
(-0.16651 -0.00522287 0)
(-0.165456 -0.0192764 0)
(-0.162828 -0.0330876 0)
(-0.158636 -0.0464109 0)
(-0.152911 -0.0589911 0)
(-0.145708 -0.0705651 0)
(-0.137107 -0.0808633 0)
(-0.127218 -0.0896139 0)
(-0.116187 -0.0965489 0)
(-0.104197 -0.101412 0)
(-0.0914722 -0.103966 0)
(-0.0782804 -0.10401 0)
(-0.0649314 -0.101384 0)
(-0.0517759 -0.0959884 0)
(-0.0392012 -0.0877962 0)
(-0.0276253 -0.0768625 0)
(-0.0174768 -0.0633362 0)
(-0.00917607 -0.0474638 0)
(-0.00326383 -0.0295898 0)
(-0.000494116 -0.0101782 0)
(-0.000536995 0.0122166 0)
(-0.00346026 0.0347171 0)
(-0.00960989 0.0548205 0)
(-0.018147 0.0722069 0)
(-0.0284856 0.0866797 0)
(-0.0401925 0.0981362 0)
(-0.0528456 0.106556 0)
(-0.0660483 0.111992 0)
(-0.0794443 0.114552 0)
(-0.0927186 0.114391 0)
(-0.105597 0.111696 0)
(-0.117842 0.106674 0)
(-0.129255 0.0995503 0)
(-0.139666 0.0905529 0)
(-0.148937 0.0799144 0)
(-0.156951 0.0678669 0)
(-0.163614 0.054641 0)
(-0.168849 0.040466 0)
(-0.172594 0.0255712 0)
(-0.174799 0.0101878 0)
(-0.175427 -0.00544862 0)
(-0.174454 -0.0210955 0)
(-0.171866 -0.0365009 0)
(-0.167668 -0.0514016 0)
(-0.161879 -0.065522 0)
(-0.154542 -0.0785743 0)
(-0.145723 -0.0902604 0)
(-0.135522 -0.100275 0)
(-0.124075 -0.108313 0)
(-0.111559 -0.114075 0)
(-0.0981987 -0.117281 0)
(-0.0842669 -0.11768 0)
(-0.070089 -0.11507 0)
(-0.05604 -0.109307 0)
(-0.0425414 -0.100327 0)
(-0.0300546 -0.0881562 0)
(-0.0190589 -0.0729274 0)
(-0.0100292 -0.0548829 0)
(-0.00357589 -0.0343778 0)
(-0.000543538 -0.0119033 0)
(-0.000579918 0.0140374 0)
(-0.00372484 0.0396851 0)
(-0.0103238 0.0624266 0)
(-0.0194578 0.0819432 0)
(-0.0304813 0.0980547 0)
(-0.0429167 0.110685 0)
(-0.056303 0.11985 0)
(-0.070212 0.125641 0)
(-0.0842645 0.128212 0)
(-0.0981308 0.127761 0)
(-0.111529 0.124517 0)
(-0.124222 0.11873 0)
(-0.136013 0.110657 0)
(-0.146741 0.100559 0)
(-0.156276 0.0886971 0)
(-0.164513 0.0753251 0)
(-0.171366 0.0606925 0)
(-0.176768 0.0450442 0)
(-0.180662 0.0286224 0)
(-0.183003 0.0116697 0)
(-0.183754 -0.00556784 0)
(-0.182888 -0.0228367 0)
(-0.180386 -0.0398727 0)
(-0.176241 -0.0563976 0)
(-0.17046 -0.0721174 0)
(-0.16307 -0.0867213 0)
(-0.154123 -0.0998825 0)
(-0.143701 -0.111262 0)
(-0.131925 -0.120512 0)
(-0.118962 -0.127289 0)
(-0.105031 -0.13126 0)
(-0.0904087 -0.13212 0)
(-0.075431 -0.129612 0)
(-0.0604967 -0.123538 0)
(-0.0460624 -0.113786 0)
(-0.0326361 -0.100347 0)
(-0.0207528 -0.0833257 0)
(-0.0109493 -0.0629577 0)
(-0.00391526 -0.0396065 0)
(-0.000598051 -0.0137933 0)
(-0.000625782 0.0159965 0)
(-0.00400437 0.0450164 0)
(-0.0110724 0.0705652 0)
(-0.0208222 0.0923262 0)
(-0.0325417 0.110139 0)
(-0.0457038 0.123962 0)
(-0.0598054 0.133852 0)
(-0.0743852 0.139953 0)
(-0.0890413 0.142471 0)
(-0.103431 0.141655 0)
(-0.117268 0.137786 0)
(-0.130318 0.131158 0)
(-0.142393 0.122069 0)
(-0.153344 0.110816 0)
(-0.163053 0.0976858 0)
(-0.171431 0.0829568 0)
(-0.178405 0.066896 0)
(-0.18392 0.0497616 0)
(-0.187928 0.0318063 0)
(-0.19039 0.0132805 0)
(-0.191271 -0.0055629 0)
(-0.19054 -0.0244633 0)
(-0.188171 -0.0431479 0)
(-0.184147 -0.0613275 0)
(-0.17846 -0.0786926 0)
(-0.171118 -0.0949114 0)
(-0.162151 -0.10963 0)
(-0.151622 -0.122473 0)
(-0.13963 -0.133051 0)
(-0.126326 -0.140969 0)
(-0.111916 -0.145835 0)
(-0.0966741 -0.147282 0)
(-0.0809451 -0.144983 0)
(-0.0651481 -0.138678 0)
(-0.0497752 -0.128193 0)
(-0.0353842 -0.113468 0)
(-0.022572 -0.094575 0)
(-0.0119458 -0.0717328 0)
(-0.00428614 -0.0453113 0)
(-0.000658526 -0.0158636 0)
(-0.000675256 0.0181027 0)
(-0.00430224 0.0507298 0)
(-0.0118633 0.0792574 0)
(-0.022251 0.103372 0)
(-0.0346778 0.122937 0)
(-0.0485611 0.137953 0)
(-0.0633513 0.148532 0)
(-0.0785526 0.154877 0)
(-0.0937411 0.157258 0)
(-0.108564 0.155988 0)
(-0.122734 0.151404 0)
(-0.136025 0.143854 0)
(-0.148263 0.133681 0)
(-0.159315 0.121219 0)
(-0.169083 0.106784 0)
(-0.177498 0.0906768 0)
(-0.184504 0.0731813 0)
(-0.190061 0.0545667 0)
(-0.194134 0.0350921 0)
(-0.196691 0.015012 0)
(-0.197702 -0.00541821 0)
(-0.197133 -0.0259359 0)
(-0.194951 -0.0462646 0)
(-0.191127 -0.0661084 0)
(-0.185634 -0.0851465 0)
(-0.178458 -0.10303 0)
(-0.169606 -0.119378 0)
(-0.159112 -0.133782 0)
(-0.147047 -0.145808 0)
(-0.133537 -0.155003 0)
(-0.118771 -0.160912 0)
(-0.103011 -0.163093 0)
(-0.0866039 -0.161139 0)
(-0.0699867 -0.15471 0)
(-0.0536856 -0.143556 0)
(-0.0383115 -0.127552 0)
(-0.0245299 -0.106721 0)
(-0.0130284 -0.0812577 0)
(-0.00469318 -0.0515322 0)
(-0.000725949 -0.0181316 0)
(-0.000729216 0.0203663 0)
(-0.00462277 0.056848 0)
(-0.012706 0.0885285 0)
(-0.0237575 0.115097 0)
(-0.0369031 0.13645 0)
(-0.0514963 0.152639 0)
(-0.0669369 0.163844 0)
(-0.0826926 0.170343 0)
(-0.0983191 0.172482 0)
(-0.113457 0.170648 0)
(-0.127824 0.165247 0)
(-0.141208 0.156686 0)
(-0.153455 0.145357 0)
(-0.164456 0.131635 0)
(-0.17414 0.115868 0)
(-0.182459 0.0983762 0)
(-0.189384 0.0794583 0)
(-0.194892 0.0593912 0)
(-0.198965 0.0384367 0)
(-0.201582 0.0168483 0)
(-0.202717 -0.00512157 0)
(-0.202335 -0.0272136 0)
(-0.200398 -0.0491536 0)
(-0.19686 -0.0706447 0)
(-0.191677 -0.0913602 0)
(-0.184809 -0.110938 0)
(-0.176232 -0.128976 0)
(-0.165944 -0.145032 0)
(-0.153985 -0.158625 0)
(-0.140445 -0.169245 0)
(-0.125482 -0.176362 0)
(-0.109342 -0.17945 0)
(-0.0923628 -0.178009 0)
(-0.074994 -0.171599 0)
(-0.0577941 -0.159875 0)
(-0.041429 -0.142626 0)
(-0.0266403 -0.119812 0)
(-0.0142081 -0.0915858 0)
(-0.00514166 -0.0583143 0)
(-0.000801487 -0.0206176 0)
(-0.000788853 0.0228005 0)
(-0.0049718 0.0633994 0)
(-0.0136132 0.0984087 0)
(-0.0253594 0.127522 0)
(-0.0392345 0.150677 0)
(-0.0545191 0.167991 0)
(-0.0705562 0.179729 0)
(-0.0867766 0.186259 0)
(-0.102718 0.188021 0)
(-0.118018 0.185492 0)
(-0.13241 0.179155 0)
(-0.145701 0.169484 0)
(-0.157766 0.156928 0)
(-0.168529 0.141902 0)
(-0.177949 0.124785 0)
(-0.186012 0.105919 0)
(-0.192715 0.0856134 0)
(-0.198062 0.0641477 0)
(-0.202052 0.0417819 0)
(-0.204679 0.018763 0)
(-0.205923 -0.00466568 0)
(-0.205751 -0.0282549 0)
(-0.204117 -0.0517395 0)
(-0.200962 -0.0748286 0)
(-0.19622 -0.0971965 0)
(-0.189823 -0.118474 0)
(-0.181709 -0.138242 0)
(-0.171837 -0.156028 0)
(-0.160202 -0.171307 0)
(-0.146849 -0.183506 0)
(-0.131898 -0.192016 0)
(-0.115558 -0.196214 0)
(-0.0981552 -0.195489 0)
(-0.0801382 -0.189282 0)
(-0.0620943 -0.177129 0)
(-0.0447458 -0.158709 0)
(-0.0289179 -0.133892 0)
(-0.0154974 -0.102775 0)
(-0.00563794 -0.0657081 0)
(-0.000886578 -0.0233447 0)
(-0.000855821 0.0254221 0)
(-0.00535725 0.0704195 0)
(-0.014602 0.108935 0)
(-0.0270798 0.140669 0)
(-0.0416943 0.165611 0)
(-0.0576409 0.183966 0)
(-0.0742006 0.196102 0)
(-0.0907663 0.202504 0)
(-0.106862 0.203722 0)
(-0.122133 0.200338 0)
(-0.136331 0.192928 0)
(-0.149299 0.18204 0)
(-0.160948 0.168183 0)
(-0.171243 0.151817 0)
(-0.180185 0.133349 0)
(-0.187797 0.113141 0)
(-0.19411 0.0915071 0)
(-0.199157 0.0687273 0)
(-0.202962 0.0450529 0)
(-0.205533 0.0207181 0)
(-0.206862 -0.00404991 0)
(-0.206917 -0.0290193 0)
(-0.205647 -0.0539418 0)
(-0.20298 -0.0785407 0)
(-0.198824 -0.102499 0)
(-0.193081 -0.125449 0)
(-0.18565 -0.14696 0)
(-0.17644 -0.166538 0)
(-0.165392 -0.183613 0)
(-0.152496 -0.197549 0)
(-0.137816 -0.207654 0)
(-0.121517 -0.213194 0)
(-0.103888 -0.213431 0)
(-0.0853706 -0.207663 0)
(-0.0665719 -0.195276 0)
(-0.0482694 -0.175807 0)
(-0.0313794 -0.149006 0)
(-0.0169113 -0.114888 0)
(-0.0061899 -0.0737709 0)
(-0.000983062 -0.0263398 0)
(-0.000932446 0.0282523 0)
(-0.00579009 0.0779533 0)
(-0.0156954 0.120153 0)
(-0.0289494 0.154562 0)
(-0.0443108 0.18124 0)
(-0.0608757 0.200503 0)
(-0.0778567 0.212854 0)
(-0.0946105 0.218919 0)
(-0.110654 0.219386 0)
(-0.125651 0.214959 0)
(-0.139388 0.206319 0)
(-0.15175 0.194098 0)
(-0.1627 0.178869 0)
(-0.172254 0.161137 0)
(-0.180461 0.141336 0)
(-0.187391 0.119842 0)
(-0.193116 0.0969724 0)
(-0.1977 0.0729981 0)
(-0.201195 0.0481567 0)
(-0.203629 0.0226621 0)
(-0.205006 -0.00328199 0)
(-0.2053 -0.0294693 0)
(-0.204454 -0.0556768 0)
(-0.202382 -0.0816512 0)
(-0.198971 -0.107094 0)
(-0.194088 -0.131647 0)
(-0.187587 -0.154882 0)
(-0.179324 -0.176284 0)
(-0.169177 -0.195249 0)
(-0.157065 -0.211081 0)
(-0.14298 -0.222996 0)
(-0.127023 -0.230143 0)
(-0.109433 -0.231636 0)
(-0.0906209 -0.226601 0)
(-0.0712022 -0.21424 0)
(-0.0520054 -0.193907 0)
(-0.034044 -0.165191 0)
(-0.0184687 -0.127991 0)
(-0.00680779 -0.082568 0)
(-0.00109337 -0.0296346 0)
(-0.00102204 0.0313194 0)
(-0.00628553 0.086059 0)
(-0.0169251 0.13212 0)
(-0.0310092 0.169228 0)
(-0.0471205 0.19754 0)
(-0.0642385 0.217518 0)
(-0.0815026 0.229837 0)
(-0.0982379 0.2353 0)
(-0.113967 0.234761 0)
(-0.128384 0.229069 0)
(-0.141327 0.219023 0)
(-0.152742 0.205348 0)
(-0.162656 0.188683 0)
(-0.171146 0.169575 0)
(-0.178322 0.148484 0)
(-0.184305 0.125793 0)
(-0.18921 0.101814 0)
(-0.193143 0.0768047 0)
(-0.196183 0.0509809 0)
(-0.198382 0.0245287 0)
(-0.199759 -0.00237972 0)
(-0.200293 -0.029572 0)
(-0.199926 -0.0568598 0)
(-0.19856 -0.0840228 0)
(-0.196061 -0.110792 0)
(-0.192261 -0.136831 0)
(-0.186967 -0.161722 0)
(-0.179976 -0.184946 0)
(-0.171091 -0.20587 0)
(-0.160151 -0.223744 0)
(-0.14706 -0.237694 0)
(-0.131827 -0.246742 0)
(-0.114617 -0.249835 0)
(-0.0957891 -0.245897 0)
(-0.0759458 -0.233902 0)
(-0.0559562 -0.212971 0)
(-0.0369349 -0.182478 0)
(-0.020194 -0.142155 0)
(-0.00750521 -0.0921752 0)
(-0.00122082 -0.0332669 0)
(-0.00112937 0.0346609 0)
(-0.00686491 0.0948129 0)
(-0.0183337 0.144907 0)
(-0.0333128 0.184697 0)
(-0.0501677 0.214473 0)
(-0.0677427 0.234892 0)
(-0.085101 0.246853 0)
(-0.101546 0.25138 0)
(-0.116623 0.249529 0)
(-0.130081 0.242316 0)
(-0.141827 0.230672 0)
(-0.151889 0.215422 0)
(-0.16037 0.197269 0)
(-0.167426 0.176799 0)
(-0.173232 0.154491 0)
(-0.177966 0.130727 0)
(-0.181795 0.105808 0)
(-0.184865 0.0799688 0)
(-0.187287 0.0533947 0)
(-0.189137 0.0262368 0)
(-0.19045 -0.00137229 0)
(-0.191216 -0.0293024 0)
(-0.191377 -0.057409 0)
(-0.190826 -0.0855149 0)
(-0.189409 -0.113392 0)
(-0.186926 -0.14074 0)
(-0.183138 -0.167165 0)
(-0.177778 -0.192156 0)
(-0.170571 -0.21507 0)
(-0.161258 -0.23511 0)
(-0.149635 -0.251318 0)
(-0.1356 -0.262585 0)
(-0.119208 -0.267675 0)
(-0.100736 -0.265275 0)
(-0.0807427 -0.254085 0)
(-0.0601198 -0.232925 0)
(-0.0400807 -0.200884 0)
(-0.0221195 -0.157458 0)
(-0.00830083 -0.102682 0)
(-0.00137008 -0.037283 0)
(-0.00126142 0.0383278 0)
(-0.00755826 0.104315 0)
(-0.0199796 0.158605 0)
(-0.0359294 0.200998 0)
(-0.0535041 0.231974 0)
(-0.071393 0.252458 0)
(-0.0885861 0.263639 0)
(-0.104384 0.266817 0)
(-0.118381 0.26329 0)
(-0.130409 0.254267 0)
(-0.140474 0.240825 0)
(-0.148703 0.223886 0)
(-0.155299 0.204216 0)
(-0.1605 0.182432 0)
(-0.16456 0.15902 0)
(-0.167717 0.134353 0)
(-0.170192 0.10871 0)
(-0.172169 0.0822935 0)
(-0.173795 0.0552513 0)
(-0.175169 0.0276913 0)
(-0.176345 -0.000300955 0)
(-0.177323 -0.0286453 0)
(-0.17805 -0.0572492 0)
(-0.178414 -0.0859893 0)
(-0.178246 -0.11469 0)
(-0.177318 -0.1431 0)
(-0.175348 -0.170867 0)
(-0.172006 -0.197509 0)
(-0.166935 -0.222387 0)
(-0.159768 -0.244675 0)
(-0.150175 -0.263348 0)
(-0.137912 -0.277166 0)
(-0.122892 -0.284698 0)
(-0.105263 -0.284364 0)
(-0.0855013 -0.274531 0)
(-0.0644852 -0.253642 0)
(-0.0435159 -0.220403 0)
(-0.0242884 -0.173981 0)
(-0.00922083 -0.114194 0)
(-0.00154788 -0.0417413 0)
(-0.00142857 0.04239 0)
(-0.00840837 0.1147 0)
(-0.0219415 0.173326 0)
(-0.0389463 0.218152 0)
(-0.0571844 0.249941 0)
(-0.0751727 0.269981 0)
(-0.0918421 0.279841 0)
(-0.106522 0.281169 0)
(-0.118898 0.275546 0)
(-0.12892 0.2644 0)
(-0.136727 0.248959 0)
(-0.142573 0.23024 0)
(-0.146772 0.20906 0)
(-0.149661 0.186055 0)
(-0.15157 0.161704 0)
(-0.152805 0.136356 0)
(-0.153635 0.110257 0)
(-0.154284 0.083569 0)
(-0.154927 0.0563926 0)
(-0.155691 0.0287859 0)
(-0.156645 0.000781254 0)
(-0.157804 -0.0275975 0)
(-0.159119 -0.0563175 0)
(-0.160483 -0.0853174 0)
(-0.161716 -0.114486 0)
(-0.162572 -0.143635 0)
(-0.162732 -0.172472 0)
(-0.161811 -0.200565 0)
(-0.159366 -0.227303 0)
(-0.154923 -0.251863 0)
(-0.148007 -0.273167 0)
(-0.138205 -0.289862 0)
(-0.125245 -0.30032 0)
(-0.109093 -0.302667 0)
(-0.0900808 -0.294876 0)
(-0.0690244 -0.27492 0)
(-0.0472816 -0.240998 0)
(-0.0267598 -0.19181 0)
(-0.0103028 -0.126844 0)
(-0.00176429 -0.0467168 0)
(-0.00164673 0.0469451 0)
(-0.00947698 0.126144 0)
(-0.0243262 0.189204 0)
(-0.0424699 0.236165 0)
(-0.0612551 0.268204 0)
(-0.0790189 0.287121 0)
(-0.0946669 0.294982 0)
(-0.107611 0.293863 0)
(-0.117682 0.285677 0)
(-0.125003 0.272087 0)
(-0.12988 0.254468 0)
(-0.132721 0.233922 0)
(-0.133967 0.211296 0)
(-0.134058 0.187224 0)
(-0.133404 0.16216 0)
(-0.13237 0.136414 0)
(-0.131269 0.110185 0)
(-0.130359 0.0835839 0)
(-0.129842 0.0566575 0)
(-0.129861 0.0294084 0)
(-0.130505 0.00181128 0)
(-0.131799 -0.0261706 0)
(-0.13371 -0.0545686 0)
(-0.136134 -0.0833903 0)
(-0.138895 -0.112597 0)
(-0.141737 -0.14208 0)
(-0.144319 -0.171623 0)
(-0.146211 -0.200868 0)
(-0.146899 -0.229267 0)
(-0.145798 -0.256026 0)
(-0.142283 -0.280056 0)
(-0.135747 -0.299919 0)
(-0.125686 -0.313803 0)
(-0.111822 -0.319526 0)
(-0.0942619 -0.314611 0)
(-0.0736768 -0.29645 0)
(-0.0514231 -0.262577 0)
(-0.0296137 -0.211033 0)
(-0.0116017 -0.140796 0)
(-0.00203486 -0.0523094 0)
(-0.00194104 0.0521314 0)
(-0.0108547 0.138886 0)
(-0.0272768 0.206397 0)
(-0.0466217 0.254996 0)
(-0.0657313 0.286492 0)
(-0.0827791 0.303394 0)
(-0.0967124 0.308421 0)
(-0.10711 0.304168 0)
(-0.114026 0.292923 0)
(-0.117817 0.276585 0)
(-0.119002 0.256665 0)
(-0.118161 0.234317 0)
(-0.115873 0.210389 0)
(-0.112681 0.185486 0)
(-0.109065 0.160011 0)
(-0.10544 0.134218 0)
(-0.102151 0.108244 0)
(-0.0994801 0.0821403 0)
(-0.097643 0.0558939 0)
(-0.0967977 0.0294486 0)
(-0.0970434 0.00271958 0)
(-0.0984211 -0.0243914 0)
(-0.10091 -0.0519814 0)
(-0.104422 -0.08013 0)
(-0.108794 -0.108879 0)
(-0.113778 -0.138205 0)
(-0.119028 -0.167991 0)
(-0.124089 -0.197976 0)
(-0.128396 -0.227707 0)
(-0.131268 -0.256467 0)
(-0.131933 -0.283204 0)
(-0.129576 -0.306445 0)
(-0.123419 -0.324231 0)
(-0.112866 -0.334082 0)
(-0.0976971 -0.333029 0)
(-0.0783189 -0.317766 0)
(-0.0559811 -0.28496 0)
(-0.0329587 -0.231726 0)
(-0.0131999 -0.15626 0)
(-0.00238448 -0.0586567 0)
(-0.00235271 0.0581496 0)
(-0.0126769 0.153242 0)
(-0.0309826 0.225074 0)
(-0.0515232 0.27452 0)
(-0.070548 0.304358 0)
(-0.0861331 0.318097 0)
(-0.097389 0.319292 0)