1.45 	0 	0 	-0.00806222 	-0.00257264 	3.78912e-21
2.35 	0 	0 	0.06144 	-0.00663563 	2.29514e-21
