/*--------------------------------*- C++ -*----------------------------------*\
  =========                 |
  \\      /  F ield         | OpenFOAM: The Open Source CFD Toolbox
   \\    /   O peration     | Website:  https://openfoam.org
    \\  /    A nd           | Version:  6.0
     \\/     M anipulation  |
\*---------------------------------------------------------------------------*/
FoamFile
{
    version     2.0;
    format      ascii;
    class       surfaceScalarField;
    location    "3";
    object      phi;
}
// * * * * * * * * * * * * * * * * * * * * * * * * * * * * * * * * * * * * * //

dimensions      [0 3 -1 0 0 0 0];

internalField   nonuniform List<scalar> 
3880
(
-1.81469e-05
1.81504e-05
-3.51896e-09
-5.07696e-05
3.26332e-05
-1.04098e-08
-8.46311e-05
3.38776e-05
-1.61417e-08
-0.00011125
2.66393e-05
-2.04137e-08
-0.000125235
1.40088e-05
-2.32594e-08
-0.000123461
-1.74992e-06
-2.47644e-08
-0.000104587
-1.88486e-05
-2.50912e-08
-6.8779e-05
-3.57838e-05
-2.43384e-08
-1.75216e-05
-5.12344e-05
-2.29934e-08
-6.41231e-05
-2.14077e-08
4.6623e-05
-1.72299e-05
3.53803e-05
-4.73953e-05
6.27986e-05
-7.75079e-05
6.39901e-05
-9.92595e-05
4.83908e-05
-0.000107332
2.20813e-05
-9.85736e-05
-1.05083e-05
-7.15462e-05
-4.5876e-05
-2.62871e-05
-8.10429e-05
3.58017e-05
-0.000113323
-0.000140445
0.000112124
-1.53802e-05
5.07605e-05
-4.05921e-05
8.80104e-05
-6.31795e-05
8.65775e-05
-7.52269e-05
6.04382e-05
-7.16161e-05
1.84705e-05
-4.91993e-05
-3.29251e-05
-6.38031e-06
-8.8695e-05
5.70436e-05
-0.000144467
0.000139848
-0.000196127
-0.000239973
0.000239375
-1.25496e-05
6.33101e-05
-3.0201e-05
0.000105662
-4.13751e-05
9.77515e-05
-3.88505e-05
5.79136e-05
-1.79412e-05
-2.43886e-06
2.43533e-05
-7.52196e-05
8.97507e-05
-0.000154092
0.000178761
-0.000233478
0.000290448
-0.000307814
-0.000371629
0.000422105
-8.63228e-06
7.19424e-05
-1.58843e-05
0.000112914
-1.1468e-05
9.33352e-05
1.07474e-05
3.56983e-05
5.46426e-05
-4.63341e-05
0.000122746
-0.000143323
0.000216681
-0.000248027
0.000337221
-0.000354018
0.000483841
-0.000454434
-0.000541649
0.000653861
-3.45283e-06
7.53952e-05
2.90956e-06
0.000106552
2.7627e-05
6.86178e-05
7.52851e-05
-1.19599e-05
0.00014845
-0.000119499
0.000248619
-0.000243492
0.0003768
-0.000376208
0.000533732
-0.00051095
0.000719378
-0.000640081
-0.000753472
0.000931201
3.20798e-06
7.21873e-05
2.68648e-05
8.28947e-05
7.73342e-05
1.81484e-05
0.000157251
-9.18763e-05
0.000267314
-0.000229562
0.000407222
-0.000383401
0.000576419
-0.000545405
0.000774722
-0.000709253
0.00100229
-0.000867653
-0.0010084
0.00125723
1.15347e-05
6.06526e-05
5.65441e-05
3.78853e-05
0.000138924
-6.42313e-05
0.000259168
-0.00021212
0.000415741
-0.000386136
0.00060577
-0.00057343
0.000825792
-0.000765426
0.00107285
-0.000956306
0.00134579
-0.0011406
-0.00130894
0.00164633
2.15529e-05
3.90997e-05
9.19807e-05
-3.25426e-05
0.000212664
-0.000184914
0.000382199
-0.000381655
0.000597058
-0.000600995
0.000851702
-0.000828075
0.00113879
-0.00105251
0.00144997
-0.00126749
0.00177925
-0.00146988
-0.0016663
0.00213662
3.29661e-05
6.13359e-06
0.000132127
-0.000131703
0.000296538
-0.000349326
0.000523728
-0.000608845
0.000809746
-0.000887012
0.00114884
-0.00116717
0.00153281
-0.00143648
0.00194922
-0.0016839
0.00237995
-0.00190061
-0.00208465
0.0027983
4.50222e-05
-3.88886e-05
0.000174295
-0.000260976
0.000384397
-0.000559427
0.000672141
-0.00089659
0.00103468
-0.00124955
0.00147011
-0.0016026
0.00197855
-0.00194492
0.00256505
-0.0022704
0.00324638
-0.00258195
-0.00290651
0.00406824
5.67794e-05
-9.56679e-05
0.000214953
-0.00041915
0.000467311
-0.000811785
0.000807702
-0.00123698
0.00123047
-0.00167232
0.00173048
-0.0021026
0.00230323
-0.00251767
0.00294465
-0.00291182
0.00364713
-0.00328443
-0.00363771
0.00437833
6.78035e-05
-0.000163471
0.000252337
-0.000603684
0.000541239
-0.00110069
0.000923418
-0.00161916
0.00138786
-0.00213677
0.00192322
-0.00263796
0.00251745
-0.0031119
0.00315686
-0.00355123
0.00382283
-0.00395039
-0.00429975
0.00448487
7.80883e-05
-0.00024156
0.000286105
-0.0008117
0.000605494
-0.00142008
0.00101915
-0.00203282
0.00150996
-0.00262757
0.00206043
-0.00318843
0.00265268
-0.00370415
0.00326811
-0.00416666
0.00388635
-0.00456864
-0.00489772
0.00448433
8.7696e-05
-0.000329256
0.000316173
-0.00104018
0.000659894
-0.0017638
0.00109526
-0.00246818
0.00159917
-0.00313149
0.00214908
-0.00373834
0.0027234
-0.00427848
0.00330197
-0.00474523
0.00386615
-0.00513281
-0.00543093
0.00439935
9.65442e-05
-0.0004258
0.000342095
-0.00128573
0.000703533
-0.00212524
0.00115068
-0.00291533
0.00165508
-0.00363588
0.0021904
-0.00427366
0.00273332
-0.0048214
0.00326421
-0.00527612
0.00376755
-0.00563615
-0.00589609
0.00423272
0.000104358
-0.000530157
0.000362925
-0.0015443
0.000734653
-0.00249696
0.00118306
-0.00336374
0.00167524
-0.00412806
0.00218259
-0.004781
0.00268175
-0.00532056
0.00315517
-0.00574954
0.00359126
-0.00607224
-0.0062897
0.00398487
0.000110716
-0.000640874
0.000377387
-0.00181097
0.000751038
-0.00287061
0.00118955
-0.00380226
0.00165683
-0.00459534
0.00212358
-0.00524775
0.00256798
-0.00576496
0.0029757
-0.00615727
0.00333951
-0.00643605
-0.00660938
0.0036592
0.000115134
-0.000756008
0.000384122
-0.00207995
0.00075054
-0.00323703
0.00116773
-0.00421945
0.00159794
-0.00502554
0.0020128
-0.00566261
0.00239337
-0.00614553
0.00272934
-0.00649324
0.00301788
-0.00672459
-0.00685448
0.00326298
0.000117133
-0.000873141
0.000381908
-0.00234473
0.000731482
-0.00358661
0.00111617
-0.00460414
0.00149827
-0.00540764
0.00185189
-0.00601623
0.00216197
-0.00645561
0.00242257
-0.00675384
0.00263501
-0.00693703
-0.00702602
0.00280655
0.000116305
-0.000989446
0.000369834
-0.00259826
0.000692928
-0.0039097
0.00103473
-0.00494594
0.00135937
-0.00573228
0.00164468
-0.00630155
0.00188013
-0.00669106
0.00206413
-0.00693783
0.00220152
-0.00707442
-0.00712645
0.00230195
0.000112299
-0.00110174
0.000347306
-0.00283327
0.00063467
-0.00419706
0.000924447
-0.00523572
0.00118423
-0.00599206
0.00139657
-0.00651389
0.00155565
-0.00685015
0.00166384
-0.00704602
0.00172879
-0.00713937
-0.00715919
0.00176153
0.000104903
-0.00120665
0.000314175
-0.00304254
0.000557333
-0.00444022
0.000787485
-0.00546587
0.000977121
-0.00618169
0.00111408
-0.00665084
0.0011971
-0.00693317
0.00123185
-0.00708078
0.00122795
-0.00713546
-0.00712828
0.00119703
9.40091e-05
-0.00130066
0.000270657
-0.00321918
0.000462175
-0.00463174
0.000626779
-0.00563048
0.000742965
-0.00629788
0.000804049
-0.00671193
0.000812885
-0.00694201
0.000777649
-0.00704554
0.000709064
-0.00706688
-0.00703798
0.000618765
7.96242e-05
-0.00138028
0.000217317
-0.00335688
0.000350973
-0.0047654
0.000445749
-0.00572525
0.000486893
-0.00633902
0.000473101
-0.00669813
0.000410697
-0.0068796
0.00030951
-0.00694435
0.000180604
-0.00693797
-0.00689256
3.51865e-05
6.18824e-05
-0.00144216
0.00015505
-0.00345004
0.000225926
-0.00483627
0.000248088
-0.00574741
0.000213924
-0.00630486
0.000127187
-0.0066114
-3.00533e-06
-0.00674941
-0.000165973
-0.00678139
-0.000351002
-0.00675295
-0.00669611
-0.000547452
4.10595e-05
-0.00148322
8.50928e-05
-0.00349408
8.96293e-05
-0.00484081
3.77019e-05
-0.00569549
-7.11329e-05
-0.00619602
-0.000228521
-0.00645401
-0.000423147
-0.00655478
-0.000644107
-0.00656043
-0.000881603
-0.00651545
-0.00645194
-0.00112578
1.7602e-05
-0.00150083
9.06897e-06
-0.00348554
-5.48704e-05
-0.00477687
-0.00018121
-0.00556915
-0.000363552
-0.00601368
-0.000589486
-0.00622808
-0.000845928
-0.00629834
-0.0011221
-0.00628425
-0.00140963
-0.00622792
-0.00616002
-0.00170155
-7.83083e-06
-0.00149299
-7.09283e-05
-0.00342245
-0.000203938
-0.00464386
-0.000403973
-0.00536911
-0.000658571
-0.00575908
-0.000952034
-0.00593461
-0.0012698
-0.00598057
-0.00160108
-0.00595298
-0.00193913
-0.00588987
-0.00581322
-0.00228592
-3.43009e-05
-0.00145869
-0.00015215
-0.0033046
-0.000352879
-0.00444313
-0.00062444
-0.00509755
-0.000949816
-0.00543371
-0.00131176
-0.00557267
-0.00169552
-0.00559682
-0.00209077
-0.00555773
-0.00249411
-0.00548653
-0.00541654
-0.0028908
-6.0595e-05
-0.0013981
-0.000231154
-0.00313404
-0.000495428
-0.00417886
-0.0008329
-0.00476008
-0.00122342
-0.00504319
-0.00165056
-0.00514553
-0.00210286
-0.00514452
-0.00257308
-0.00508751
-0.00306002
-0.00499959
-0.00487942
-0.00359714
-8.56625e-05
-0.00131244
-0.000304977
-0.00291472
-0.000625978
-0.00385786
-0.00101942
-0.00436663
-0.00146092
-0.00460169
-0.00193203
-0.00467441
-0.00241969
-0.00465686
-0.00291487
-0.00459233
-0.00341137
-0.00450309
-0.00439714
-0.00389366
-0.000108896
-0.00120354
-0.000372329
-0.00265129
-0.000743316
-0.00348687
-0.00118451
-0.00392544
-0.00166767
-0.00411853
-0.0021728
-0.00416927
-0.00268642
-0.00414324
-0.00319958
-0.00407917
-0.00370518
-0.00399749
-0.00390854
-0.00419378
-0.000129984
-0.00107356
-0.000432703
-0.00234857
-0.00084747
-0.0030721
-0.00132991
-0.003443
-0.00184889
-0.00359955
-0.00238373
-0.00363444
-0.00292134
-0.00360563
-0.00345362
-0.00354688
-0.00397513
-0.00347598
-0.00340227
-0.00448139
-0.000148689
-0.000924867
-0.000485735
-0.00201153
-0.000938358
-0.00261948
-0.00145634
-0.00292502
-0.00200642
-0.00304947
-0.00256781
-0.00307304
-0.00312823
-0.00304521
-0.00368075
-0.00299436
-0.00422151
-0.00293523
-0.00287549
-0.00474829
-0.000164788
-0.000760079
-0.000531016
-0.0016453
-0.00101562
-0.00213488
-0.00156362
-0.00237702
-0.00214028
-0.00247281
-0.00272497
-0.00248835
-0.00330626
-0.00246393
-0.0038783
-0.00242232
-0.00443837
-0.00237516
-0.00232841
-0.00498544
-0.000178045
-0.000582033
-0.000568076
-0.00125527
-0.00107865
-0.00162431
-0.00165108
-0.00180459
-0.00224958
-0.00187431
-0.00285378
-0.00188415
-0.00345301
-0.00186471
-0.00404226
-0.00183307
-0.00461959
-0.00179783
-0.00176335
-0.00518465
-0.000188233
-0.0003938
-0.000596419
-0.000847082
-0.00112674
-0.00109398
-0.00171778
-0.00121355
-0.00233305
-0.00125904
-0.00295243
-0.00126477
-0.00356582
-0.00125132
-0.00416883
-0.00123005
-0.00476003
-0.00120663
-0.00118392
-0.00533947
-0.00019515
-0.00019865
-0.000615598
-0.000426634
-0.00115923
-0.000550347
-0.00176284
-0.000609942
-0.00238948
-0.000632397
-0.00301923
-0.000635023
-0.0036424
-0.000628153
-0.00425497
-0.000617475
-0.00485582
-0.000605787
-0.000594509
-0.00544523
-0.000198648
-2.25843e-09
-0.000625277
-4.94906e-09
-0.00117562
-6.33845e-09
-0.00178555
-6.84765e-09
-0.00241794
-6.82166e-09
-0.00305296
-6.49771e-09
-0.00368111
-6.03173e-09
-0.00429858
-5.52145e-09
-0.00490436
-5.01756e-09
-4.55998e-09
-0.00549886
-0.000198648
0.000198646
-0.000625277
0.000426624
-0.00117562
0.000550334
-0.00178555
0.000609928
-0.00241794
0.000632383
-0.00305296
0.00063501
-0.00368111
0.000628141
-0.00429858
0.000617464
-0.00490436
0.000605777
0.0005945
-0.00549886
-0.00019515
0.000393796
-0.000615598
0.000847072
-0.00115923
0.00109397
-0.00176284
0.00121353
-0.00238948
0.00125903
-0.00301923
0.00126476
-0.0036424
0.0012513
-0.00425497
0.00123004
-0.00485582
0.00120662
0.00118391
-0.00544523
-0.000188233
0.000582029
-0.000596419
0.00125526
-0.00112674
0.00162429
-0.00171778
0.00180458
-0.00233305
0.00187429
-0.00295243
0.00188413
-0.00356582
0.00186469
-0.00416884
0.00183306
-0.00476003
0.00179782
0.00176334
-0.00533947
-0.000178046
0.000760074
-0.000568076
0.00164529
-0.00107865
0.00213487
-0.00165108
0.00237701
-0.00224958
0.0024728
-0.00285378
0.00248834
-0.00345301
0.00246392
-0.00404226
0.00242231
-0.00461959
0.00237515
0.0023284
-0.00518465
-0.000164788
0.000924862
-0.000531017
0.00201152
-0.00101562
0.00261947
-0.00156362
0.00292501
-0.00214028
0.00304946
-0.00272497
0.00307303
-0.00330626
0.0030452
-0.0038783
0.00299435
-0.00443837
0.00293522
0.00287548
-0.00498544
-0.00014869
0.00107355
-0.000485735
0.00234856
-0.000938359
0.00307209
-0.00145634
0.00344299
-0.00200642
0.00359954
-0.00256782
0.00363442
-0.00312824
0.00360562
-0.00368076
0.00354687
-0.00422151
0.00347597
0.00340226
-0.00474829
-0.000129984
0.00120354
-0.000432704
0.00265128
-0.000847472
0.00348686
-0.00132992
0.00392543
-0.00184889
0.00411852
-0.00238373
0.00416926
-0.00292134
0.00414323
-0.00345363
0.00407916
-0.00397513
0.00399748
0.00390853
-0.00448139
-0.000108897
0.00131243
-0.00037233
0.00291472
-0.000743318
0.00385785
-0.00118451
0.00436662
-0.00166767
0.00460168
-0.00217281
0.00467439
-0.00268643
0.00465685
-0.00319958
0.00459231
-0.00370518
0.00450308
0.00439713
-0.00419378
-8.5663e-05
0.0013981
-0.000304979
0.00313403
-0.00062598
0.00417885
-0.00101942
0.00476007
-0.00146092
0.00504318
-0.00193204
0.00514551
-0.00241969
0.0051445
-0.00291488
0.0050875
-0.00341138
0.00499958
0.00487941
-0.00389366
-6.05955e-05
0.00145869
-0.000231156
0.00330459
-0.000495431
0.00444312
-0.000832904
0.00509754
-0.00122342
0.0054337
-0.00165056
0.00557265
-0.00210286
0.0055968
-0.00257308
0.00555772
-0.00306002
0.00548652
0.00541653
-0.00359714
-3.43016e-05
0.00149299
-0.000152152
0.00342244
-0.000352882
0.00464385
-0.000624445
0.0053691
-0.000949821
0.00575907
-0.00131177
0.0059346
-0.00169553
0.00598056
-0.00209078
0.00595297
-0.00249411
0.00588986
0.00581321
-0.0028908
-7.83163e-06
0.00150082
-7.09307e-05
0.00348554
-0.000203942
0.00477687
-0.000403979
0.00556914
-0.000658577
0.00601367
-0.00095204
0.00622806
-0.00126981
0.00629833
-0.00160108
0.00628424
-0.00193913
0.00622791
0.00616
-0.00228592
1.76011e-05
0.00148322
9.06619e-06
0.00349408
-5.48752e-05
0.00484081
-0.000181217
0.00569548
-0.000363559
0.00619601
-0.000589493
0.006454
-0.000845935
0.00655477
-0.00112211
0.00656041
-0.00140963
0.00651544
0.00645192
-0.00170155
4.10585e-05
0.00144216
8.50897e-05
0.00345005
8.96239e-05
0.00483627
3.76945e-05
0.00574741
-7.11415e-05
0.00630485
-0.00022853
0.00661139
-0.000423156
0.0067494
-0.000644115
0.00678137
-0.00088161
0.00675293
0.0066961
-0.00112578
6.18813e-05
0.00138028
0.000155046
0.00335688
0.00022592
0.0047654
0.000248079
0.00572525
0.000213914
0.00633902
0.000127177
0.00669812
-3.01527e-06
0.00687959
-0.000165982
0.00694434
-0.000351009
0.00693796
0.00689254
-0.000547458
7.96231e-05
0.00130066
0.000217313
0.00321919
0.000350967
0.00463175
0.000445739
0.00563048
0.000486882
0.00629787
0.000473089
0.00671192
0.000410685
0.00694199
0.000309499
0.00704552
0.000180595
0.00706686
0.00703796
3.51794e-05
9.40079e-05
0.00120665
0.000270653
0.00304255
0.000462168
0.00444023
0.000626768
0.00546588
0.000742952
0.00618169
0.000804035
0.00665083
0.000812872
0.00693316
0.000777637
0.00708076
0.000709053
0.00713545
0.00712826
0.000618757
0.000104902
0.00110175
0.000314171
0.00283328
0.000557326
0.00419708
0.000787474
0.00523573
0.000977108
0.00599205
0.00111406
0.00651388
0.00119708
0.00685014
0.00123184
0.007046
0.00122793
0.00713935
0.00715917
0.00119702
0.000112298
0.000989452
0.000347302
0.00259827
0.000634663
0.00390971
0.000924436
0.00494595
0.00118421
0.00573228
0.00139655
0.00630154
0.00155564
0.00669105
0.00166383
0.00693781
0.00172877
0.0070744
0.00712642
0.00176152
0.000116304
0.000873149
0.000369831
0.00234475
0.000692921
0.00358662
0.00103472
0.00460415
0.00135935
0.00540765
0.00164466
0.00601623
0.00188011
0.0064556
0.00206411
0.00675382
0.00220151
0.006937
0.007026
0.00230193
0.000117132
0.000756016
0.000381905
0.00207997
0.000731475
0.00323705
0.00111616
0.00421947
0.00149826
0.00502555
0.00185188
0.00566261
0.00216195
0.00614552
0.00242255
0.00649322
0.00263499
0.00672457
0.00685445
0.00280653
0.000115133
0.000640883
0.000384119
0.00181099
0.000750534
0.00287064
0.00116772
0.00380228
0.00159792
0.00459535
0.00201278
0.00524775
0.00239335
0.00576495
0.00272932
0.00615725
0.00301786
0.00643603
0.00660935
0.00326296
0.000110716
0.000530167
0.000377385
0.00154432
0.000751033
0.00249699
0.00118955
0.00336377
0.00165682
0.00412808
0.00212356
0.00478101
0.00256795
0.00532056
0.00297568
0.00574953
0.00333949
0.00607221
0.00628967
0.00365917
0.000104357
0.00042581
0.000362923
0.00128575
0.000734649
0.00212527
0.00118306
0.00291536
0.00167523
0.00363591
0.00218257
0.00427367
0.00268173
0.0048214
0.00315515
0.00527611
0.00359124
0.00563613
0.00589606
0.00398484
9.6544e-05
0.000329266
0.000342094
0.0010402
0.000703531
0.00176383
0.00115068
0.00246821
0.00165507
0.00313151
0.00219039
0.00373835
0.0027333
0.00427848
0.00326419
0.00474522
0.00376753
0.00513279
0.0054309
0.00423269
8.7696e-05
0.00024157
0.000316173
0.000811725
0.000659892
0.00142011
0.00109525
0.00203285
0.00159917
0.0026276
0.00214907
0.00318845
0.00272339
0.00370416
0.00330195
0.00416665
0.00386613
0.00456862
0.0048977
0.00439933
7.80884e-05
0.000163482
0.000286105
0.000603709
0.000605494
0.00110072
0.00101915
0.0016192
0.00150995
0.0021368
0.00206042
0.00263798
0.00265267
0.00311192
0.00326809
0.00355123
0.00388633
0.00395038
0.00429972
0.0044843
6.78038e-05
9.56779e-05
0.000252338
0.000419175
0.00054124
0.000811819
0.000923418
0.00123702
0.00138786
0.00167236
0.00192321
0.00210263
0.00251744
0.00251769
0.00315684
0.00291182
0.0038228
0.00328442
0.00363769
0.00448484
5.67797e-05
3.88982e-05
0.000214954
0.000261
0.000467312
0.00055946
0.000807703
0.000896627
0.00123047
0.00124959
0.00173047
0.00160263
0.00230322
0.00194494
0.00294463
0.00227041
0.00364711
0.00258194
0.0029065
0.0043783
4.50225e-05
-6.12425e-06
0.000174296
0.000131727
0.000384398
0.000349359
0.000672142
0.000608883
0.00103468
0.000887049
0.0014701
0.00116721
0.00197854
0.0014365
0.00256504
0.00168392
0.00324636
0.00190062
0.00208465
0.00406822
3.29664e-05
-3.90907e-05
0.000132128
3.25656e-05
0.00029654
0.000184947
0.000523729
0.000381693
0.000809746
0.000601033
0.00114884
0.00082811
0.00153281
0.00105254
0.00194921
0.00126751
0.00237994
0.00146989
0.0016663
0.00279828
2.15532e-05
-6.06438e-05
9.19814e-05
-3.78626e-05
0.000212664
6.42637e-05
0.000382199
0.000212158
0.000597057
0.000386175
0.0008517
0.000573468
0.00113878
0.000765459
0.00144996
0.000956331
0.00177923
0.00114062
0.00130895
0.00213659
1.15349e-05
-7.21788e-05
5.65446e-05
-8.28723e-05
0.000138924
-1.8116e-05
0.000259168
9.19148e-05
0.00041574
0.000229603
0.000605767
0.00038344
0.000825785
0.00054544
0.00107283
0.000709282
0.00134578
0.000867675
0.00100842
0.0016463
3.20811e-06
-7.53869e-05
2.6865e-05
-0.000106529
7.73342e-05
-6.85852e-05
0.00015725
1.19991e-05
0.000267312
0.000119541
0.000407218
0.000243534
0.000576411
0.000376247
0.00077471
0.000510984
0.00100228
0.000640108
0.000753494
0.0012572
-3.4528e-06
-7.19341e-05
2.90952e-06
-0.000112892
2.76265e-05
-9.33022e-05
7.52838e-05
-3.56582e-05
0.000148447
4.63779e-05
0.000248614
0.000143368
0.000376791
0.000248069
0.000533719
0.000354056
0.000719361
0.000454467
0.000541677
0.000931178
-8.63231e-06
-6.33018e-05
-1.58845e-05
-0.000105639
-1.14686e-05
-9.77181e-05
1.07458e-05
-5.78726e-05
5.46395e-05
2.48418e-06
0.000122741
7.52662e-05
0.000216673
0.000154138
0.000337209
0.000233519
0.000483825
0.000307851
0.000371662
0.000653841
-1.25496e-05
-5.07522e-05
-3.02011e-05
-8.79879e-05
-4.13754e-05
-8.65438e-05
-3.88516e-05
-6.03964e-05
-1.79436e-05
-1.84239e-05
2.43491e-05
3.29735e-05
8.97441e-05
8.87427e-05
0.000178752
0.000144512
0.000290435
0.000196168
0.000240009
0.000422088
-1.53799e-05
-3.53723e-05
-4.05915e-05
-6.27764e-05
-6.31788e-05
-6.39565e-05
-7.52264e-05
-4.83487e-05
-7.16164e-05
-2.20339e-05
-4.92009e-05
1.05581e-05
-6.38368e-06
4.59254e-05
5.7038e-05
8.10898e-05
0.000139839
0.000113366
0.000140484
0.000239364
-1.72293e-05
-1.81429e-05
-4.73939e-05
-3.26118e-05
-7.75057e-05
-3.38447e-05
-9.92567e-05
-2.65978e-05
-0.000107329
-1.39616e-05
-9.85709e-05
1.79993e-06
-7.15443e-05
1.88989e-05
-2.62866e-05
3.58322e-05
3.58003e-05
5.12794e-05
6.41644e-05
0.00011212
-1.81465e-05
-5.07687e-05
-8.46296e-05
-0.000111248
-0.000125233
-0.000123457
-0.000104584
-6.87759e-05
-1.75194e-05
4.66236e-05
0.00194565
-0.00189897
-5.41618e-08
0.00425498
-0.00230885
-4.84323e-07
0.00590995
-0.00165463
-3.37346e-07
0.00671555
-0.000805499
-1.00633e-07
0.00707449
-0.000359092
1.51593e-07
0.00719525
-0.000120918
1.64879e-07
0.00721145
-1.64595e-05
2.52706e-07
0.00717804
3.31743e-05
2.35156e-07
0.00712411
5.38685e-05
6.44173e-08
6.76096e-05
2.51578e-08
0.0020342
-0.00382105
0.00427217
-0.00454681
0.00589704
-0.00327951
0.00669468
-0.00160314
0.00705328
-0.000717689
0.00717701
-0.000244649
0.00719736
-3.68124e-05
0.00716855
6.19908e-05
0.00711935
0.000103064
0.00013044
0.00220199
-0.00578367
0.00430401
-0.00664883
0.00587029
-0.00484579
0.00665267
-0.00238552
0.00701085
-0.00107586
0.0071406
-0.000374406
0.00716925
-6.54611e-05
0.0071496
8.1641e-05
0.00710986
0.00014281
0.00018369
0.00243158
-0.00779315
0.00434562
-0.00856287
0.00582793
-0.0063281
0.00658907
-0.00314667
0.00694723
-0.00143402
0.00708618
-0.000513358
0.00712728
-0.000106554
0.00712132
8.75939e-05
0.00709568
0.00016845
0.000222642
0.00269961
-0.00983889
0.00438991
-0.0102532
0.0057675
-0.00770568
0.00650322
-0.00388239
0.00686249
-0.00179329
0.00701398
-0.000664851
0.00707167
-0.000164238
0.00708388
7.53805e-05
0.00707692
0.000175407
0.000242665
0.00297964
-0.0118873
0.00442814
-0.0117017
0.00568608
-0.00896362
0.00639439
-0.0045907
0.00675672
-0.00215562
0.00692431
-0.000832435
0.00700272
-0.00024265
0.00703748
4.0616e-05
0.00705368
0.000159212
0.000239245
0.00324366
-0.0138738
0.00444991
-0.0129079
0.00558037
-0.0100941
0.00626184
-0.00527217
0.00663012
-0.00252391
0.00681757
-0.00101988
0.00692082
-0.000345901
0.00698241
-2.09772e-05
0.0070261
0.000115527
0.000208007
0.00346407
-0.0156915
0.0044431
-0.013887
0.0054469
-0.0110979
0.00610487
-0.00593013
0.00648298
-0.00290202
0.00669425
-0.00123115
0.00682642
-0.000478061
0.00691898
-0.000113545
0.00699434
4.01743e-05
0.000144747
0.00363206
-0.017187
0.00439962
-0.0146545
0.0052835
-0.0119818
0.00592309
-0.00656972
0.00631571
-0.00329464
0.00655497
-0.00147041
0.00672004
-0.000643136
0.00684757
-0.000241078
0.00695859
-7.08393e-05
4.5456e-05
0.00376104
-0.0181497
0.00433146
-0.0152249
0.00509166
-0.012742
0.00571729
-0.00719535
0.00612857
-0.00370592
0.00640033
-0.00174217
0.00660225
-0.000845055
0.0067686
-0.000407426
0.00691904
-0.00022128
-9.3684e-05
0.0452535
-0.0105981
-0.0528051
0.0426365
-0.0126079
0.0411664
-0.0112718
0.0414733
-0.00750231
0.0419283
-0.00416087
0.0423209
-0.00213476
0.0425688
-0.001093
0.0427197
-0.000558333
0.0428121
-0.000313643
-0.000138976
0.0502472
-0.00413081
-0.0567145
0.0469275
-0.00928823
0.0440987
-0.00844297
0.0428388
-0.00624244
0.0425539
-0.00387603
0.0425975
-0.00217834
0.0426968
-0.00119229
0.0427806
-0.000642167
0.0428418
-0.0003748
-0.000170993
0.050475
-0.000279272
-0.0543265
0.047258
-0.00607127
0.0449014
-0.00608638
0.0435139
-0.00485489
0.0429753
-0.00333747
0.0428342
-0.0020373
0.0428256
-0.0011836
0.0428499
-0.00066651
0.042878
-0.000402846
-0.000188103
0.0491508
0.00150898
-0.050939
0.0468159
-0.00373637
0.0450437
-0.0043142
0.0438591
-0.00367031
0.0432645
-0.00274287
0.0430262
-0.00179897
0.0429425
-0.00109988
0.0429184
-0.000642422
0.0429157
-0.000400165
-0.000190536
0.0478532
0.00208742
-0.0484316
0.0462629
-0.00214604
0.0449705
-0.00302185
0.044029
-0.00272879
0.0434606
-0.00217446
0.0431753
-0.00151367
0.0430416
-0.000966194
0.0429805
-0.000581334
0.0429516
-0.000371277
-0.000179681
0.0468103
0.00203509
-0.0467579
0.0458094
-0.0011452
0.0448577
-0.0020701
0.0441102
-0.00198128
0.0435928
-0.0016571
0.0432886
-0.00120949
0.0431224
-0.000799909
0.0430338
-0.000492831
0.0429837
-0.000321119
-0.000157473
0.0460501
0.00167058
-0.0456856
0.0454594
-0.000554497
0.0447511
-0.00136173
0.0441452
-0.00137541
0.04368
-0.00119188
0.0433721
-0.000901618
0.0431853
-0.000613099
0.0430771
-0.000384698
0.0430106
-0.000254527
-0.000126103
0.0455265
0.00116176
-0.0450177
0.0452082
-0.000236238
0.0446665
-0.000820011
0.0441573
-0.000866215
0.043735
-0.000769562
0.0434303
-0.000596916
0.0432313
-0.00041408
0.0431098
-0.000263226
0.0430313
-0.000176036
-8.78707e-05
0.0451996
0.000590998
-0.0446289
0.0450451
-8.17082e-05
0.0446085
-0.00038345
0.0441596
-0.000417248
0.043767
-0.000376961
0.043467
-0.000296932
0.0432613
-0.000208416
0.0431316
-0.00013353
0.0430454
-8.98328e-05
-4.50901e-05
0.0450407
-0.0444497
0.0449589
0.0445755
0.0441582
0.0437813
0.0434844
0.0432759
0.0431424
0.0430526
0.0572916
0.0020311
-0.0565161
0.0579297
0.00262491
0.0583857
0.00320314
0.058613
0.00375761
0.0585658
0.00427988
0.0582034
0.00476178
0.0574917
0.00519603
0.0563998
0.00557681
0.0548774
0.00590066
0.00614053
0.0513478
0.00144375
-0.0507604
0.0519818
0.00199091
0.0526505
0.00253441
0.0533385
0.00306964
0.054027
0.00359134
0.054695
0.00409375
0.0553202
0.00457085
0.0558804
0.00501666
0.0563552
0.00542586
0.0057812
0.0477664
0.00101587
-0.0473385
0.0482715
0.00148585
0.048851
0.00195484
0.0495006
0.00242011
0.0502132
0.00287866
0.0509799
0.00332712
0.0517889
0.00376178
0.052627
0.00417859
0.0534798
0.00457306
0.00493453
0.0451142
0.000733999
-0.0448323
0.0454718
0.00112825
0.0459056
0.00152103
0.0464155
0.0019102
0.0470007
0.0022935
0.0476592
0.00266861
0.0483879
0.00303307
0.0491822
0.00338428
0.050036
0.00371928
0.00403147
0.0435241
0.000533194
-0.0433233
0.0437956
0.000856701
0.044138
0.00117869
0.0445508
0.00149736
0.0450334
0.00181088
0.0455847
0.00211736
0.0462028
0.0024149
0.0468856
0.00270149
0.0476301
0.00297484
0.00322992
0.0424574
0.000383189
-0.0423074
0.042675
0.000639069
0.0429602
0.000893539
0.0433124
0.00114514
0.0437309
0.00139241
0.0442144
0.00163386
0.0447613
0.00186798
0.0453695
0.00209324
0.0460365
0.00230786
0.00250849
0.0417937
0.000265048
-0.0416756
0.0419772
0.000455583
0.0422257
0.000644991
0.0425387
0.000832174
0.0429151
0.00101602
0.0433535
0.00119542
0.0438522
0.00136926
0.0444091
0.00153638
0.0450215
0.00169549
0.00184434
0.0413704
0.00016676
-0.0412721
0.0415328
0.000293194
0.0417589
0.000418861
0.0420481
0.000543028
0.0423992
0.000664955
0.0428107
0.000783904
0.0432808
0.000899132
0.0438073
0.00100989
0.0443875
0.00111533
0.00121412
0.0411254
8.03535e-05
-0.041039
0.0412752
0.000143429
0.0414879
0.000206132
0.0417628
0.000268094
0.0420989
0.000328947
0.0424944
0.000388321
0.0429477
0.000445846
0.0434565
0.00050115
0.044018
0.000553822
0.000603227
0.0410107
-0.0409303
0.0411541
0.0413603
0.0416283
0.0419573
0.0423456
0.0427915
0.0432926
0.0438464
0.0483985
-0.00344915
-0.0478402
0.0491185
-0.00300589
0.049948
-0.00253105
0.0508475
-0.0020252
0.0517906
-0.00149059
0.0527601
-0.000934322
0.0537392
-0.000360329
0.0547082
0.000227984
0.0556435
0.000826267
0.0014293
0.0480714
-0.00350009
-0.0480204
0.0481636
-0.0030981
0.048297
-0.00266447
0.0484772
-0.00220535
0.0487094
-0.00172287
0.0489978
-0.00122273
0.0493459
-0.000708376
0.0497559
-0.000181999
0.0502281
0.000354035
0.000896983
0.0468694
-0.00322938
-0.0471401
0.0466505
-0.00287919
0.0464896
-0.00250356
0.0463919
-0.00210767
0.0463631
-0.0016941
0.0464065
-0.0012661
0.0465241
-0.000825987
0.0467178
-0.000375682
0.046989
8.2833e-05
0.000547431
0.045486
-0.00284037
-0.0458751
0.0451524
-0.0025455
0.0448778
-0.00222903
0.0446659
-0.00189573
0.0445195
-0.00154768
0.0444406
-0.0011872
0.0444309
-0.000816269
0.0444919
-0.000436737
0.0446253
-5.05223e-05
0.000340398
0.0445373
-0.00240599
-0.0449717
0.0441546
-0.0021628
0.0438282
-0.00190265
0.0435612
-0.00162868
0.0433561
-0.00134259
0.0432151
-0.00104616
0.0431399
-0.000741056
0.043132
-0.000428891
0.0431928
-0.000111327
0.000209943
0.0438607
-0.00194469
-0.044322
0.0434497
-0.00175182
0.0430929
-0.00154583
0.0427931
-0.00132894
0.042553
-0.00110243
0.0423744
-0.000867644
0.0422593
-0.00062593
0.042209
-0.000378617
0.0422248
-0.000127064
0.000127341
0.0434312
-0.00146883
-0.043907
0.0430044
-0.00132506
0.0426303
-0.00117174
0.0423117
-0.0010103
0.0420509
-0.000841649
0.0418501
-0.000666794
0.0417109
-0.00048673
0.0416347
-0.000302471
0.0416227
-0.00011505
7.44805e-05
0.0431574
-0.000983325
-0.0436429
0.0427204
-0.000887997
0.042335
-0.00078638
0.0420041
-0.00067936
0.04173
-0.000567542
0.0415147
-0.000451574
0.0413601
-0.00033212
0.0412675
-0.000209859
0.0412379
-8.54851e-05
4.02945e-05
0.0430005
-0.000492536
-0.0434913
0.0425576
-0.00044511
0.0421658
-0.000394563
0.0418277
-0.000341309
0.0415458
-0.000285647
0.0413222
-0.000227896
0.0411584
-0.000168385
0.041056
-0.000107454
0.041016
-4.5449e-05
1.72738e-05
0.0429289
-0.0434214
0.0424838
0.0420892
0.0417479
0.0414622
0.0412344
0.041066
0.0409585
0.0409131
0.0429506
0.000168964
-0.000190633
0.0430024
0.000504198
-0.000556024
0.0430894
0.000844403
-0.000931332
0.0432291
0.0011967
-0.0013365
0.0434522
0.00156612
-0.00178916
0.0438026
0.00195654
-0.00230694
0.04434
0.00236963
-0.00290702
0.0451373
0.00280754
-0.00360487
0.0462921
0.00324455
-0.00439932
0.00377292
-0.00532102
0.0429664
0.000131528
0.0430758
0.000394814
0.043261
0.000659131
0.0435326
0.000925111
0.0439055
0.00119328
0.0443984
0.00146356
0.0450334
0.00173466
0.0458346
0.00200635
0.0468168
0.00226233
0.0025693
0.0429664
9.40731e-05
0.0430773
0.000283877
0.0432617
0.000474716
0.0435236
0.000663259
0.0438685
0.000848396
0.0443035
0.00102857
0.0448367
0.00120139
0.0454783
0.00136482
0.0462319
0.00150868
0.00166111
0.042958
6.49582e-05
0.0430452
0.0001967
0.0431906
0.000329333
0.0433948
0.000459045
0.0436587
0.000584483
0.0439831
0.000704179
0.0443681
0.000816368
0.0448133
0.000919619
0.0453131
0.00100893
0.00109914
0.0429497
4.41509e-05
0.0430126
0.000133807
0.043118
0.000223989
0.0432654
0.000311669
0.0434541
0.000395694
0.0436834
0.000474904
0.0439517
0.000548048
0.0442573
0.000614059
0.044596
0.000670214
0.000723457
0.0429436
2.95101e-05
0.042988
8.94208e-05
0.0430623
0.000149613
0.043166
0.000207961
0.0432981
0.00026363
0.0434572
0.000315822
0.0436415
0.000363734
0.0438489
0.000406705
0.0440757
0.000443336
0.000477214
0.0429394
1.9088e-05
0.042971
5.78164e-05
0.0430239
9.66866e-05
0.0430975
0.000134304
0.0431911
0.000170115
0.0433033
0.000203599
0.0434328
0.000234256
0.0435778
0.000261667
0.0437361
0.000285073
0.000306228
0.0429366
1.14025e-05
0.0429599
3.45205e-05
0.0429989
5.77039e-05
0.0430531
8.01248e-05
0.0431217
0.000101454
0.0432039
0.000121388
0.0432986
0.00013964
0.0434043
0.000155977
0.0435193
0.000170012
0.000182615
0.042935
5.32877e-06
0.0429534
1.61263e-05
0.0429842
2.6949e-05
0.0430269
3.74122e-05
0.043081
4.73639e-05
0.0431457
5.6664e-05
0.0432201
6.5182e-05