1.275 	2.15223e-18 	-2.76991e-20 	-0.0344547 	-0.000434325 	-1.91245e-22
1.825 	2.15223e-18 	-1.39322e-20 	-0.0094486 	-0.00275553 	1.69052e-21
2.375 	2.15223e-18 	-2.66896e-23 	0.115354 	-0.00324346 	-7.05189e-22
