1.45 	0 	0 	-0.00762852 	-0.00259506 	3.836e-21
2.35 	0 	0 	0.0624805 	-0.00666877 	2.35956e-21
