/*--------------------------------*- C++ -*----------------------------------*\
  =========                 |
  \\      /  F ield         | OpenFOAM: The Open Source CFD Toolbox
   \\    /   O peration     | Website:  https://openfoam.org
    \\  /    A nd           | Version:  6.0
     \\/     M anipulation  |
\*---------------------------------------------------------------------------*/
FoamFile
{
    version     2.0;
    format      ascii;
    class       surfaceScalarField;
    location    "12";
    object      phi;
}
// * * * * * * * * * * * * * * * * * * * * * * * * * * * * * * * * * * * * * //

dimensions      [0 3 -1 0 0 0 0];

internalField   nonuniform List<scalar> 
93586
(
2.35201e-05
0.00154662
-6.36994e-08
4.72622e-05
0.00154203
7.11055e-05
0.00153334
9.48866e-05
0.00152058
0.000118472
0.00150375
0.000141798
0.00148284
0.00016479
0.00145786
0.0001874
0.00142883
0.000209552
0.00139582
0.000231182
0.00135893
0.000252203
0.0013183
0.000272548
0.00127404
0.000292143
0.00122631
0.000310933
0.00117524
0.000328857
0.00112094
0.000345873
0.00106356
0.000361931
0.00100322
0.000376991
0.000940089
0.000391011
0.000874326
0.000403953
0.000806114
0.000415779
0.000735653
0.000426456
0.000663144
0.000435953
0.000588801
0.00044424
0.00051283
0.000451294
0.000435441
0.000457093
0.00035684
0.000461598
0.000277226
0.000465054
0.000196585
0.000466533
0.000115624
3.5456e-05
0.00046125
2.31139e-05
0.00152362
-9.18788e-08
4.6417e-05
0.00151875
6.9831e-05
0.00150994
9.32051e-05
0.00149724
0.000116415
0.00148058
0.000139397
0.00145991
0.00016207
0.00143523
0.000184377
0.00140658
0.000206231
0.00137401
0.000227562
0.00133766
0.000248278
0.00129763
0.000268317
0.00125406
0.000287607
0.00120707
0.0003061
0.0011568
0.000323739
0.00110335
0.000340487
0.00104686
0.000356296
0.000987461
0.000371128
0.000925303
0.00038494
0.000860558
0.000397694
0.000793404
0.000409352
0.000724038
0.000419881
0.00065266
0.000429246
0.000579479
0.000437423
0.000504698
0.000444382
0.000428526
0.000450109
0.000351161
0.000454572
0.000272811
0.000457735
0.000193475
0.000459363
0.000114051
3.50631e-05
0.000459834
2.26799e-05
0.00150102
-7.917e-08
4.55688e-05
0.00149586
6.85889e-05
0.00148692
9.15972e-05
0.00147424
0.00011447
0.00145771
0.000137136
0.00143726
0.000159504
0.00141287
0.000181507
0.00138459
0.000203052
0.00135247
0.000224066
0.00131665
0.000244462
0.00127724
0.000264184
0.00123434
0.000283165
0.00118809
0.000301363
0.0011386
0.000318725
0.00108599
0.000335216
0.00103037
0.000350787
0.000971887
0.000365401
0.000910687
0.000379012
0.000846942
0.000391585
0.000780827
0.000403078
0.000712539
0.000413459
0.000642272
0.000422694
0.000570236
0.000430756
0.000496627
0.000437618
0.000421654
0.00044326
0.000345508
0.000447657
0.0002684
0.000450753
0.000190364
0.00045246
0.000112327
3.52664e-05
0.000452221
2.22738e-05
0.00147881
-5.20371e-08
4.47905e-05
0.00147336
6.74536e-05
0.00146428
9.01217e-05
0.00145161
0.000112669
0.00143519
0.000135016
0.00141495
0.000157066
0.00139085
0.000178745
0.00136295
0.00019996
0.0013313
0.000220642
0.00129602
0.000240709
0.00125721
0.000260111
0.00121498
0.000278786
0.00116946
0.000296695
0.00112073
0.000313788
0.00106893
0.000330028
0.00101417
0.000345367
0.000956584
0.000359767
0.000896325
0.000373182
0.000833562
0.000385574
0.000768472
0.000396901
0.000701246
0.000407133
0.000632078
0.000416233
0.000561171
0.000424176
0.000488722
0.000430933
0.000414935
0.00043648
0.000340002
0.000440789
0.000264132
0.000443831
0.000187368
0.000445541
0.000110666
3.5456e-05
0.000445422
2.19002e-05
0.00145693
-2.61717e-08
4.40731e-05
0.00145118
6.63994e-05
0.00144195
8.8737e-05
0.00142927
0.000110957
0.00141297
0.000132977
0.00139294
0.000154694
0.00136913
0.000176037
0.00134161
0.000196913
0.00131042
0.000217258
0.00127567
0.000236996
0.00123746
0.000256082
0.00119589
0.000274458
0.00115107
0.000292086
0.0011031
0.000308918
0.00105209
0.000324914
0.000998164
0.000340028
0.00094146
0.000354218
0.000882125
0.000367438
0.00082033
0.000379652
0.000756248
0.000390815
0.000690069
0.000400898
0.000621983
0.000409863
0.000552191
0.000417687
0.000480884
0.00042434
0.000408265
0.000429797
0.000334527
0.00043403
0.000259878
0.000437007
0.000184371
0.000438774
0.000108875
3.50859e-05
0.000439102
2.15492e-05
0.0014354
-8.50552e-09
4.33924e-05
0.00142936
6.53905e-05
0.00141997
8.73996e-05
0.00140729
0.00010929
0.0013911
0.000130975
0.00137129
0.000152354
0.00134778
0.000173356
0.00132065
0.000193892
0.00128991
0.000213905
0.0012557
0.000233322
0.00121808
0.000252102
0.00117715
0.000270189
0.00113302
0.000287548
0.00108578
0.000304126
0.00103554
0.000319887
0.000982438
0.00033478
0.000926598
0.000348765
0.000868174
0.000361795
0.000807331
0.000373832
0.000744244
0.000384833
0.000679099
0.000394769
0.000612081
0.000403602
0.000543389
0.000411309
0.000473212
0.00041786
0.000401748
0.000423234
0.000329191
0.000427401
0.00025575
0.000430323
0.000181492
0.000432092
0.000107152
3.45529e-05
0.000432694
2.12132e-05
0.00141417
1.15274e-08
4.27335e-05
0.00140783
6.44065e-05
0.00139829
8.60869e-05
0.0013856
0.000107645
0.00136953
0.000128994
0.00134994
0.000150034
0.00132673
0.000170697
0.00129998
0.0001909
0.0012697
0.000210589
0.001236
0.000229696
0.00119896
0.000248182
0.00115866
0.000265992
0.00111519
0.00028309
0.00106867
0.000299423
0.00101919
0.000314955
0.000966894
0.000329632
0.000911905
0.000343416
0.000854376
0.000356258
0.000794473
0.00036812
0.000732367
0.000378962
0.000668241
0.000388751
0.000602276
0.000397453
0.000534669
0.000405044
0.000465604
0.000411495
0.000395277
0.000416785
0.000323881
0.000420887
0.000251625
0.000423763
0.000178592
0.000425495
0.000105393
3.38286e-05
0.000426174
2.08873e-05
0.00139327
3.0704e-08
4.20881e-05
0.00138665
6.3437e-05
0.00137696
8.47886e-05
0.00136428
0.000106015
0.00134833
0.000127027
0.00132895
0.000147732
0.00130605
0.000168063
0.00127969
0.000187942
0.00124985
0.000207318
0.00121666
0.000226127
0.00118018
0.000244329
0.00114049
0.000261872
0.00109768
0.000278718
0.00105185
0.000294814
0.00100313
0.000310121
0.000951619
0.000324587
0.000897468
0.000338172
0.000840823
0.000350827
0.000781847
0.000362516
0.000720709
0.000373197
0.000657588
0.000382841
0.000592664
0.000391411
0.000526128
0.000398885
0.000458163
0.000405234
0.000388961
0.000410439
0.000318713
0.000414474
0.000247627
0.000417307
0.0001758
0.00041899
0.000103755
3.32429e-05
0.000419643
2.05692e-05
0.00137265
4.04586e-08
4.14519e-05
0.00136576
6.24774e-05
0.00135592
8.35008e-05
0.00134325
0.000104396
0.00132742
0.000125077
0.00130827
0.000145452
0.00128566
0.000165459
0.00125967
0.000185024
0.00123027
0.000204098
0.00119758
0.000222619
0.00116164
0.000240548
0.00112254
0.000257832
0.00108038
0.000274433
0.00103524
0.000290296
0.000987246
0.000305382
0.000936518
0.000319639
0.000883193
0.000333026
0.00082742
0.000345495
0.000769359
0.000357011
0.000709177
0.000367532
0.000647049
0.000377029
0.00058315
0.000385466
0.00051767
0.000392823
0.000450788
0.00039907
0.000382693
0.000404188
0.000313574
0.000408154
0.000243635
0.000410944
0.000172985
0.00041258
0.00010209
3.26063e-05
0.00041317
2.02566e-05
0.00135237
4.03136e-08
4.08224e-05
0.00134521
6.15257e-05
0.00133523
8.22227e-05
0.00132258
0.00010279
0.00130688
0.000123144
0.00128794
0.000143198
0.00126564
0.00016289
0.00124001
0.000182151
0.00121103
0.000200933
0.00117883
0.000219175
0.00114343
0.00023684
0.00110491
0.000253872
0.00106337
0.000270232
0.00101891
0.000285866
0.000971639
0.000300734
0.00092168
0.000314783
0.000869172
0.000327973
0.000814259
0.000340257
0.000757103
0.000351599
0.000697864
0.000361959
0.000636717
0.000371309
0.000573831
0.000379613
0.000509394
0.000386852
0.000443582
0.000392996
0.00037658
0.000398027
0.000308578
0.000401925
0.000239774
0.000404669
0.000170283
0.000406261
0.000100541
3.21491e-05
0.000406784
1.99487e-05
0.00133238
3.48324e-08
4.0199e-05
0.00132495
6.05822e-05
0.00131484
8.09564e-05
0.00130219
0.000101202
0.00128662
0.000121235
0.0012679
0.000140975
0.00124588
0.000160361
0.00122062
0.000179327
0.00119205
0.000197826
0.00116032
0.000215799
0.00112544
0.000233205
0.00108749
0.00024999
0.00104657
0.000266113
0.00100277
0.00028152
0.000956212
0.000296171
0.000907013
0.000310013
0.00085531
0.000323007
0.000801249
0.000335104
0.000744985
0.000346273
0.000686678
0.000356472
0.000626497
0.000365675
0.00056461
0.000373846
0.000501201
0.000380967
0.000436441
0.000387008
0.000370516
0.000391953
0.000303611
0.000395782
0.000235919
0.000398478
0.000167561
0.000400031
9.89584e-05
3.1633e-05
0.000400498
1.96445e-05
0.00131272
2.90046e-08
3.9582e-05
0.00130503
5.96487e-05
0.00129479
7.97045e-05
0.00128216
9.96334e-05
0.00126671
0.000119354
0.00124821
0.000138788
0.00122647
0.000157877
0.00120156
0.000176557
0.0011734
0.00019478
0.00114212
0.000212488
0.00110775
0.000229641
0.00107037
0.000246182
0.00103005
0.000262072
0.000986912
0.000277253
0.000941056
0.000291688
0.000892607
0.000305323
0.000841701
0.00031812
0.00078848
0.000330032
0.000733098
0.000341028
0.000675711
0.000351066
0.000616485
0.000360122
0.000555585
0.000368161
0.00049319
0.000375164
0.000429471
0.000381103
0.000364608
0.000385963
0.000298786
0.000389723
0.000232195
0.00039237
0.000164955
0.000393886
9.74853e-05
3.12744e-05
0.000394311
1.93445e-05
0.00129335
2.03739e-08
3.89726e-05
0.00128539
5.87273e-05
0.00127502
7.84706e-05
0.00126241
9.80896e-05
0.00124708
0.000117505
0.00122878
0.000136641
0.00120732
0.00015544
0.00118275
0.000173841
0.00115498
0.000191795
0.00112415
0.000209244
0.00109029
0.000226146
0.00105345
0.000242446
0.00101373
0.000258103
0.000971238
0.000273061
0.000926077
0.00028728
0.00087837
0.000300708
0.000828252
0.000313309
0.000775861
0.000325036
0.00072135
0.000335859
0.00066487
0.000345737
0.000606586
0.000354647
0.000546656
0.000362554
0.00048526
0.00036944
0.000422564
0.000375278
0.000358746
0.000380054
0.000293987
0.000383746
0.000228476
0.000386344
0.000162331
0.000387828
9.59703e-05
3.08321e-05
0.000388221
1.90485e-05
0.0012743
1.03549e-08
3.83718e-05
0.00126608
5.78199e-05
0.00125559
7.72569e-05
0.00124299
9.65731e-05
0.00122778
0.000115691
0.00120969
0.000134536
0.0011885
0.000153053
0.00116426
0.00017118
0.00113688
0.000188869
0.00110649
0.000206062
0.00107312
0.000222717
0.00103682
0.000238778
0.000997697
0.000254203
0.000955841
0.000268937
0.000911368
0.000282941
0.000864394
0.000296164
0.000815054
0.00030857
0.000763484
0.000320112
0.000709832
0.000330763
0.000654248
0.000340482
0.000596892
0.000349246
0.000537921
0.000357023
0.000477511
0.000363794
0.000415824
0.000369532
0.000353038
0.000374225
0.00028933
0.000377851
0.000224885
0.0003804
0.000159822
0.000381853
9.45606e-05
3.05278e-05
0.000382223
1.87571e-05
0.00125553
2.39915e-09
3.77807e-05
0.00124704
5.69282e-05
0.00123643
7.60655e-05
0.00122384
9.50857e-05
0.00120875
0.000113912
0.00119085
0.000132473
0.00116992
0.000150714
0.001146
0.000168572
0.001119
0.000186001
0.00108905
0.000202941
0.00105615
0.000219351
0.00102039
0.000235173
0.000981852
0.000250367
0.000940629
0.000264879
0.000896834
0.000278668
0.000850586
0.000291686
0.000802014
0.000303897
0.000751254
0.000315256
0.00069845
0.000325736
0.000643749
0.000335297
0.000587308
0.000343918
0.000529281
0.000351566
0.00046984
0.000358223
0.000409146
0.000363864
0.000347372
0.000368475
0.000284695
0.000372036
0.000221296
0.000374538
0.000157292
0.000375963
9.31037e-05
3.01238e-05
0.000376317
1.847e-05
0.00123708
-1.38091e-09
3.71999e-05
0.00122833
5.60531e-05
0.0012176
7.48972e-05
0.00120502
9.36279e-05
0.00119004
0.00011217
0.00117233
0.000130453
0.00115166
0.000148421
0.00112806
0.000166015
0.00110143
0.000183186
0.0010719
0.000199876
0.00103949
0.000216042
0.00100425
0.000231627
0.00096629
0.000246592
0.000925691
0.000260881
0.000882568
0.000274457
0.000837037
0.000287271
0.000789224
0.000299289
0.000739263
0.000310467
0.000687296
0.000320777
0.000633467
0.000330183
0.000577928
0.000338662
0.000520831
0.000346182
0.000462347
0.000352727
0.000402632
0.000358272
0.000341858
0.000362804
0.000280199
0.000366302
0.000217832
0.000368759
0.000154877
0.000370156
9.17487e-05
2.98474e-05
0.000370498
1.81878e-05
0.00121888
-2.30941e-09
3.66298e-05
0.00120987
5.51949e-05
0.00119901
7.37522e-05
0.00118644
9.21996e-05
0.00117157
0.000110463
0.00115406
0.000128472
0.00113363
0.000146173
0.00111035
0.000163506
0.00108407
0.000180422
0.00105497
0.000196863
0.00102302
0.000212786
0.000988312
0.000228136
0.000950917
0.000242872
0.000910936
0.000256941
0.000868477
0.000270305
0.000823652
0.000282916
0.00077659
0.000294743
0.000727417
0.000305741
0.000676275
0.000315884
0.000623303
0.000325135
0.000568653
0.000333475
0.000512471
0.00034087
0.000454927
0.000347306
0.000396174
0.000352756
0.000336382
0.00035721
0.000275721
0.000360647
0.000214367
0.00036306
0.000152435
0.000364433
9.03427e-05
2.9463e-05
0.000364766
1.79102e-05
0.00120098
-1.33353e-09
3.60704e-05
0.00119173
5.43535e-05
0.00118075
7.26298e-05
0.00116819
9.07995e-05
0.00115342
0.000108788
0.00113609
0.000126529
0.00111591
0.000143966
0.00109293
0.000161041
0.00106702
0.000177704
0.00103833
0.000193898
0.00100685
0.000209581
0.000972655
0.000224697
0.000935824
0.000239206
0.000896453
0.000253055
0.00085465
0.000266209
0.000810525
0.00027862
0.000764202
0.000290257
0.000715807
0.000301077
0.000665478
0.000311055
0.000613353
0.000320155
0.000559578
0.000328358
0.000504299
0.00033563
0.000447682
0.000341958
0.000389877
0.000347317
0.000331053
0.000351695
0.000271378
0.000355073
0.000211023
0.000357444
0.000150105
0.000358793
8.90361e-05
2.92015e-05
0.00035912
1.76375e-05
0.00118333
1.96906e-09
3.55216e-05
0.00117382
5.35283e-05
0.00116272
7.15292e-05
0.00115017
8.94261e-05
0.00113551
0.000107146
0.00111836
0.000124621
0.00109842
0.000141798
0.00107574
0.000158617
0.00105018
0.000175029
0.0010219
0.000190979
0.00099088
0.000206422
0.000957191
0.000221305
0.000920917
0.000235589
0.00088215
0.00024922
0.000840994
0.000262167
0.000797558
0.000274379
0.000751965
0.000285829
0.000704337
0.000296474
0.000654809
0.00030629
0.000603516
0.000315241
0.000550603
0.000323309
0.00049621
0.000330461
0.000440504
0.000336684
0.000383632
0.000341953
0.000325758
0.000346258
0.000267049
0.000349578
0.000207673
0.000351909
0.000147746
0.000353236
8.76753e-05
2.88275e-05
0.000353558
1.73691e-05
0.00116597
7.24665e-09
3.49828e-05
0.00115623
5.27184e-05
0.00114501
7.04487e-05
0.00113246
8.80774e-05
0.0011179
0.000105532
0.00110092
0.000122746
0.00108122
0.000139664
0.00105885
0.00015623
0.00103364
0.000172395
0.00100576
0.000188101
0.000975195
0.000203307
0.00094201
0.000217959
0.000906286
0.00023202
0.000868115
0.000245436
0.000827599
0.000258177
0.000784844
0.000270194
0.00073997
0.00028146
0.000693098
0.000291932
0.00064436
0.000301588
0.000593887
0.000310393
0.000541822
0.000318328
0.000488304
0.000325362
0.000433496
0.000331483
0.000377543
0.000336665
0.000320606
0.000340898
0.00026285
0.000344163
0.000204443
0.000346455
0.000145495
0.000347761
8.64119e-05
2.8574e-05
0.000348079
1.71054e-05
0.00114884
1.30634e-08
3.44536e-05
0.00113886
5.19229e-05
0.00112752
6.93872e-05
0.00111498
8.67518e-05
0.00110051
0.000103944
0.00108371
0.0001209
0.00106425
0.000137564
0.00104216
0.000153879
0.0010173
0.000169797
0.00098982
0.000185262
0.000959705
0.000200234
0.000927017
0.000214657
0.000891838
0.000228497
0.000854255
0.000241701
0.000814369
0.000254238
0.000772286
0.000266062
0.000728121
0.000277147
0.000681993
0.000287449
0.000634031
0.000296949
0.000584366
0.00030561
0.000533136
0.000313416
0.000480477
0.000320335
0.000426551
0.000326356
0.0003715
0.000331452
0.000315483
0.000335616
0.000258662
0.000338827
0.000201201
0.000341082
0.00014321
0.000342368
8.50916e-05
2.82056e-05
0.000342684
1.68457e-05
0.00113199
1.84528e-08
3.39334e-05
0.00112179
5.11408e-05
0.00111033
6.83431e-05
0.00109779
8.54472e-05
0.00108343
0.000102381
0.0010668
0.000119081
0.00104757
0.000135493
0.00102578
0.00015156
0.00100125
0.000167234
0.000974169
0.000182461
0.000944499
0.0001972
0.000912303
0.000211397
0.000877661
0.000225018
0.000840659
0.000238013
0.000801396
0.00025035
0.000759974
0.000261984
0.000716508
0.000272891
0.000671113
0.000283027
0.000623917
0.000292373
0.000575047
0.000300893
0.000524639
0.000308573
0.000472827
0.000315379
0.000419771
0.000321301
0.000365609
0.000326315
0.000310499
0.000330411
0.000254601
0.00033357
0.000198076
0.00033579
0.000141032
0.000337056
8.38673e-05
2.79566e-05
0.00033737
1.65904e-05
0.00111536
2.34025e-08
3.34216e-05
0.00110493
5.0371e-05
0.00109336
6.73151e-05
0.00108083
8.41622e-05
0.00106656
0.000100841
0.0010501
0.000117289
0.0010311
0.000133451
0.00100959
0.000149272
0.000985408
0.000164705
0.000958715
0.000179696
0.000929483
0.000194204
0.000897773
0.000208179
0.00086366
0.000221584
0.000827231
0.000234372
0.000788582
0.000246512
0.000747812
0.00025796
0.000705034
0.000268691
0.000660361
0.000278663
0.000613919
0.000287859
0.00056583
0.000296242
0.00051623
0.000303797
0.000465251
0.000310493
0.000413048
0.00031632
0.000359759
0.000321252
0.000305539
0.000325283
0.000250545
0.000328392
0.000194937
0.000330577
0.000138818
0.000331825
8.25837e-05
2.7591e-05
0.000332138
1.63386e-05
0.001099
2.77489e-08
3.29175e-05
0.00108837
4.96127e-05
0.00107668
6.63021e-05
0.00106416
8.28953e-05
0.00104999
9.93218e-05
0.0010337
0.00011552
0.00101492
0.000131435
0.0009937
0.000147013
0.00096985
0.000162208
0.000943543
0.000176965
0.000914746
0.000191246
0.000883515
0.000205001
0.000849926
0.000218194
0.000814062
0.000230778
0.000776018
0.000242725
0.000735891
0.000253989
0.000693791
0.000264548
0.000649829
0.00027436
0.000604128
0.000283408
0.000556809
0.000291656
0.000508006
0.00029909
0.000457846
0.000305678
0.000406485
0.000311412
0.000354057
0.000316265
0.000300715
0.000320232
0.000246614
0.000323292
0.000191911
0.000325443
0.000136707
0.000326674
8.13949e-05
2.73441e-05
0.000326986
1.60909e-05
0.00108286
3.11865e-08
3.24209e-05
0.00107202
4.88651e-05
0.00106022
6.53029e-05
0.0010477
8.16455e-05
0.00103362
9.78225e-05
0.0010175
0.000113773
0.000998946
0.000129445
0.000978008
0.000144782
0.000954487
0.000159741
0.000928562
0.000174268
0.000900193
0.000188325
0.000869435
0.000201863
0.000836362
0.000214847
0.000801055
0.000227231
0.000763607
0.000238987
0.000724113
0.000250071
0.00068268
0.000260461
0.000639418
0.000270116
0.000594446
0.000279019
0.000547884
0.000287135
0.000499864
0.00029445
0.000450509
0.000300933
0.000399975
0.000306576
0.000348392
0.000311352
0.000295911
0.000315256
0.000242685
0.000318269
0.000188867
0.000320388
0.000134558
0.000321602
8.0145e-05
2.69796e-05
0.000321913
1.58464e-05
0.001067
3.35909e-08
3.19311e-05
0.00105595
4.81276e-05
0.00104404
6.4317e-05
0.00103153
8.04117e-05
0.00101755
9.63423e-05
0.00100159
0.000112049
0.000983259
0.000127479
0.0009626
0.00014258
0.000939406
0.000157306
0.000913858
0.000171605
0.000885912
0.000185441
0.000855622
0.000198765
0.000823058
0.000211544
0.000788301
0.000223731
0.00075144
0.0002353
0.000712569
0.000246207
0.000671793
0.000256431
0.00062922
0.000265932
0.000584966
0.000274694
0.00053915
0.00028268
0.0004919
0.000289879
0.00044334
0.000296259
0.00039362
0.000301812
0.00034287
0.000306513
0.000291239
0.000310357
0.000238877
0.000313323
0.000185935
0.000315411
0.000132512
0.000316608
7.89892e-05
2.67338e-05
0.000316919
1.56055e-05
0.00105134
3.53365e-08
3.14479e-05
0.00104008
4.73997e-05
0.00102806
6.33436e-05
0.00101556
7.91934e-05
0.00100167
9.48805e-05
0.000985882
0.000110346
0.000967769
0.000125538
0.000947386
0.000140404
0.000924514
0.0001549
0.000899338
0.000168976
0.00087181
0.000182594
0.00084198
0.000195707
0.000809918
0.000208284
0.000775701
0.000220277
0.000739418
0.000231662
0.000701161
0.000242396
0.000661032
0.000252458
0.000619136
0.000261808
0.000575589
0.00027043
0.000530506
0.00027829
0.000484014
0.000285375
0.000436233
0.000291654
0.000387313
0.00029712
0.000337381
0.000301747
0.000286583
0.000305532
0.000235067
0.000308452
0.000182982
0.00031051
0.000130424
0.000311692
7.77707e-05
2.63696e-05
0.000312002
1.53675e-05
0.00103595
3.65033e-08
3.09709e-05
0.00102449
4.6681e-05
0.00101237
6.23824e-05
0.000999879
7.79902e-05
0.000986084
9.34366e-05
0.000970456
0.000108664
0.000952561
0.00012362
0.000932451
0.000138255
0.000909898
0.000152525
0.00088509
0.00016638
0.000857974
0.000179784
0.000828598
0.00019269
0.000797031
0.000205068
0.000763347
0.000216871
0.000727634
0.000228076
0.000689981
0.000238639
0.000650488
0.000248542
0.00060926
0.000257743
0.000566408
0.000266229
0.000522047
0.000273965
0.000476301
0.000280938
0.000429288
0.000287119
0.000381157
0.000292499
0.000332032
0.000297055
0.000282057
0.000300781
0.000231377
0.000303657
0.00018014
0.000305685
0.000128438
0.000306852
7.66457e-05
2.61241e-05
0.000307162
1.5133e-05
0.00102076
3.72937e-08
3.05e-05
0.0010091
4.59714e-05
0.000996878
6.14331e-05
0.000984394
7.68019e-05
0.000970691
9.20106e-05
0.000955224
0.000107003
0.000937544
0.000121727
0.000917703
0.000136134
0.000895465
0.00015018
0.000871019
0.000163818
0.000844309
0.000177011
0.00081538
0.000189713
0.0007843
0.000201895
0.000751141
0.000213512
0.000715989
0.00022454
0.00067893
0.000234936
0.000640064
0.000244682
0.000599491
0.000253738
0.000557324
0.000262091
0.000513673
0.000269704
0.00046866
0.000276568
0.000422402
0.000282652
0.000375045
0.000287949
0.000326712
0.000292434
0.000277543
0.000296103
0.000227683
0.000298937
0.000177274
0.000300935
0.000126409
0.000302088
7.54569e-05
2.576e-05
0.000302398
1.49013e-05
0.00100584
3.768e-08
3.0035e-05
0.000993983
4.52705e-05
0.000981661
6.04955e-05
0.000969187
7.56282e-05
0.000955577
9.06023e-05
0.000940269
0.000105362
0.000922803
0.000119858
0.000903228
0.00013404
0.000881301
0.000147866
0.000857214
0.00016129
0.000830904
0.000174275
0.000802417
0.000186777
0.000771817
0.000198767
0.000739175
0.000210201
0.000704574
0.000221054
0.000668101
0.000231287
0.000629851
0.000240879
0.000589925
0.000249793
0.000548431
0.000258014
0.000505479
0.000265508
0.000461189
0.000272265
0.000415674
0.000278254
0.000369081
0.000283469
0.000321528
0.000287885
0.000273156
0.000291498
0.000224105
0.000294289
0.000174516
0.00029626
0.00012448
0.000297397
7.43612e-05
2.55148e-05
0.000297707
1.46729e-05
0.000991105
3.79894e-08
2.95759e-05
0.000979054
4.45784e-05
0.000966634
5.95696e-05
0.00095417
7.44692e-05
0.000940653
8.92117e-05
0.000925503
0.000103743
0.000908247
0.000118012
0.000888934
0.000131973
0.000867314
0.000145583
0.000843578
0.000158796
0.000817663
0.000171577
0.00078961
0.000183882
0.000759482
0.000195683
0.000727349
0.000206937
0.000693292
0.000217619
0.000657394
0.000227691
0.000619751
0.000237132
0.00058046
0.000245906
0.000539629
0.000253999
0.000497364
0.000261375
0.000453784
0.000268027
0.000409
0.000273923
0.000363157
0.000279058
0.00031637
0.000283406
0.000268779
0.000286965
0.00022052
0.000289715
0.000171734
0.000291657
0.000122507
0.000292781
7.32009e-05
2.51509e-05
0.00029309
1.44472e-05
0.000976634
3.8121e-08
2.91226e-05
0.000964394
4.3895e-05
0.00095188
5.86553e-05
0.000939427
7.33249e-05
0.000926002
8.7839e-05
0.000911008
0.000102144
0.00089396
0.000116191
0.000874907
0.000129934
0.000853589
0.000143331
0.000830202
0.000156336
0.000804676
0.000168916
0.000777051
0.000181028
0.000747389
0.000192644
0.000715757
0.00020372
0.000682234
0.000214235
0.000646903
0.000224148
0.000609858
0.000233442
0.000571192
0.000242078
0.000531013
0.000250044
0.000489425
0.000257306
0.000446544
0.000263855
0.000402481
0.00026966
0.000357377
0.000274715
0.000311347
0.000278997
0.000264526
0.000282502
0.000217051
0.000285212
0.000169058
0.000287127
0.000120633
0.000288236
7.21334e-05
2.49062e-05
0.000288546
1.42247e-05
0.00096235
3.82891e-08
2.86751e-05
0.000949916
4.32203e-05
0.00093731
5.77528e-05
0.000924869
7.21954e-05
0.000911534
8.64841e-05
0.000896694
0.000100567
0.000879852
0.000114395
0.000861054
0.000127922
0.000840034
0.000141109
0.000816989
0.000153911
0.000791846
0.000166294
0.000764642
0.000178215
0.000735438
0.000189649
0.000704299
0.000200551
0.000671302
0.000210901
0.000636529
0.000220659
0.000600071
0.000229807
0.000562021
0.000238308
0.000522482
0.000246151
0.00048156
0.0002533
0.000439367
0.000259747
0.000396011
0.000265462
0.000351633
0.00027044
0.000306345
0.000274657
0.00026028
0.00027811
0.000213572
0.000280779
0.000166356
0.000282668
0.000118714
0.000283763
7.10005e-05
2.45427e-05
0.000284072
1.4005e-05
0.000948321
3.83087e-08
2.82334e-05
0.000935702
4.25544e-05
0.000923007
5.68621e-05
0.000910578
7.10808e-05
0.000897333
8.51474e-05
0.000882646
9.90106e-05
0.000866007
0.000112623
0.000847461
0.000125939
0.000826735
0.000138919
0.000804029
0.00015152
0.000779263
0.000163709
0.000752474
0.000175444
0.000723721
0.000186698
0.000693067
0.000197429
0.000660589
0.000207617
0.000626365
0.000217222
0.000590485
0.000226228
0.00055304
0.000234597
0.000514134
0.000242317
0.000473866
0.000249355
0.000432351
0.000255703
0.000389693
0.00026133
0.00034603
0.000266232
0.000301474
0.000270385
0.000256156
0.000273786
0.000210207
0.000276416
0.00016376
0.000278278
0.000116894
0.00027936
6.99604e-05
2.42988e-05
0.000279669
1.37885e-05
0.000934473
3.8416e-08
2.77976e-05
0.000921664
4.18973e-05
0.000908881
5.59833e-05
0.000896465
6.99812e-05
0.000883309
8.38289e-05
0.000868773
9.74759e-05
0.000852333
0.000110875
0.000834036
0.000123983
0.000813599
0.000136761
0.000791225
0.000149164
0.00076683
0.000161162
0.000740449
0.000172713
0.00071214
0.00018379
0.000681964
0.000194354
0.000649996
0.000204383
0.000616311
0.000213838
0.000581
0.000222704
0.000544151
0.000230942
0.000505866
0.000238543
0.000466243
0.000245472
0.000425393
0.000251722
0.00038342
0.000257262
0.000340461
0.00026209
0.000296623
0.000266179
0.000252037
0.00026953
0.000206831
0.000272122
0.000161135
0.000273958
0.000115027
0.000275027
6.88542e-05
2.39363e-05
0.000275334
1.35747e-05
0.000920874
3.83776e-08
2.73676e-05
0.000907886
4.12491e-05
0.000895018
5.51164e-05
0.000882615
6.88967e-05
0.000869546
8.25286e-05
0.000855159
9.59628e-05
0.000838916
0.000109153
0.000820865
0.000122056
0.000800714
0.000134633
0.000778667
0.000146842
0.000754638
0.000158653
0.00072866
0.000170023
0.000700788
0.000180927
0.000671082
0.000191325
0.000639615
0.000201198
0.000606463
0.000210506
0.000571711
0.000219234
0.000535449
0.000227344
0.000497775
0.000234827
0.000458787
0.000241649
0.000418593
0.000247803
0.000377295
0.000253259
0.000335029
0.000258013
0.000291901
0.00026204
0.000248037
0.000265341
0.000203566
0.000267895
0.000158614
0.000269706
0.000113258
0.000270761
6.78407e-05
2.36937e-05
0.000271068
1.33642e-05
0.000907449
3.84166e-08
2.69436e-05
0.000894277
4.06098e-05
0.000881325
5.42615e-05
0.000868935
6.78274e-05
0.000855954
8.12467e-05
0.000841713
9.44713e-05
0.000825665
0.000107455
0.000807854
0.000120157
0.000787984
0.000132537
0.000766259
0.000144555
0.00074259
0.000156181
0.000717007
0.000167373
0.000689565
0.000178107
0.000660321
0.000188343
0.000629348
0.000198062
0.000596719
0.000207225
0.000562519
0.000215817
0.000526833
0.000223802
0.00048976
0.00023117
0.000451396
0.000237886
0.000411847
0.000243946
0.000371213
0.000249318
0.000329628
0.000254
0.000287195
0.000257967
0.00024404
0.000261219
0.000200288
0.000263735
0.000156065
0.00026552
0.000111442
0.000266562
6.67607e-05
2.33326e-05
0.000266869
1.31565e-05
0.000894269
3.82761e-08
2.65254e-05
0.000880923
3.99795e-05
0.000867889
5.34187e-05
0.000855512
6.67732e-05
0.000842617
7.99833e-05
0.000828521
9.30015e-05
0.000812664
0.000105783
0.000795092
0.000118285
0.000775498
0.000130473
0.000754091
0.000142303
0.000730776
0.000153747
0.000705584
0.000164764
0.000678564
0.000175331
0.000649777
0.000185407
0.000619289
0.000194975
0.000587175
0.000203995
0.000553517
0.000212455
0.000518399
0.000220315
0.000481919
0.000227569
0.000444169
0.000234183
0.000405255
0.00024015
0.000365276
0.000245439
0.000324362
0.00025005
0.000282617
0.000253957
0.000240162
0.000257161
0.000197121
0.000259641
0.000153618
0.000261401
0.000109723
0.00026243
6.57734e-05
2.30917e-05
0.000262736
1.29521e-05
0.000881256
3.82037e-08
2.61132e-05
0.000867732
3.93581e-05
0.000854617
5.2588e-05
0.000842254
6.57344e-05
0.000829443
7.87383e-05
0.00081549
9.15532e-05
0.000799821
0.000104135
0.000782483
0.000116442
0.000763161
0.000128439
0.000742066
0.000140084
0.0007191
0.000151349
0.000694291
0.000162195
0.000667688
0.000172597
0.000639348
0.000182516
0.000609339
0.000191936
0.000577731
0.000200816
0.000544606
0.000209144
0.000510047
0.000216883
0.000474149
0.000224026
0.000437004
0.000230537
0.000398715
0.000236413
0.000359378
0.000241621
0.000319123
0.000246163
0.000278052
0.000250011
0.000236283
0.000253167
0.000193939
0.000255611
0.000151141
0.000257347
0.000107956
0.000258363
6.4719e-05
2.27326e-05
0.000258667
1.27504e-05
0.000868482
3.79273e-08
2.5707e-05
0.000854789
3.87458e-05
0.000841596
5.17694e-05
0.000829246
6.47108e-05
0.000816519
7.75117e-05
0.000802706
9.01266e-05
0.000787224
0.000102512
0.000770116
0.000114627
0.000751063
0.000126436
0.000730276
0.0001379
0.000707653
0.000148989
0.000683221
0.000159665
0.000657028
0.000169906
0.000629129
0.000179671
0.000599591
0.000188944
0.000568481
0.000197686
0.000535882
0.000205886
0.000501873
0.000213505
0.000466548
0.000220538
0.000429998
0.000226949
0.000392325
0.000232735
0.000353622
0.000237864
0.000314018
0.000242337
0.000273611
0.000246127
0.000232521
0.000249236
0.000190866
0.000251644
0.000148766
0.000253356
0.000106286
0.000254359
6.37573e-05
2.24938e-05
0.000254663
1.2552e-05
0.000855869
3.77131e-08
2.53068e-05
0.000842003
3.81424e-05
0.000828733
5.09629e-05
0.000816396
6.37024e-05
0.000803752
7.63034e-05
0.000790077
8.87214e-05
0.000774777
0.000100913
0.000757897
0.000112839
0.000739107
0.000124464
0.000718622
0.000135749
0.000696337
0.000146665
0.000672276
0.000157175
0.000646486
0.000167257
0.000619021
0.000176869
0.000589946
0.000185999
0.000559326
0.000194605
0.000527244
0.000202678
0.000493776
0.00021018
0.000459016
0.000217105
0.000423051
0.000223417
0.000385982
0.000229115
0.000347902
0.000234166
0.000308936
0.000238571
0.000269183
0.000242304
0.000228757
0.000245368