/*--------------------------------*- C++ -*----------------------------------*\
  =========                 |
  \\      /  F ield         | OpenFOAM: The Open Source CFD Toolbox
   \\    /   O peration     | Website:  https://openfoam.org
    \\  /    A nd           | Version:  6.0
     \\/     M anipulation  |
\*---------------------------------------------------------------------------*/
FoamFile
{
    version     2.0;
    format      ascii;
    class       volVectorField;
    location    "12";
    object      U;
}
// * * * * * * * * * * * * * * * * * * * * * * * * * * * * * * * * * * * * * //

dimensions      [0 1 -1 0 0 0 0];

internalField   nonuniform List<vector> 
62000
(
(0.999977 -6.23241e-05 -2.58579e-20)
(0.999972 -0.000174933 9.18734e-20)
(0.999964 -0.000283081 -3.1578e-19)
(0.999953 -0.000382297 -6.20392e-20)
(0.999941 -0.000468226 -4.62949e-19)
(0.999928 -0.000537197 1.36415e-19)
(0.999913 -0.000586605 2.83309e-19)
(0.999898 -0.000615205 3.99283e-19)
(0.99988 -0.000623275 -6.58454e-19)
(0.999861 -0.000612609 -3.44241e-19)
(0.999839 -0.000586376 -8.96251e-20)
(0.999814 -0.000548787 -1.28094e-19)
(0.999785 -0.000504693 3.88471e-20)
(0.999753 -0.00045909 2.99275e-19)
(0.999717 -0.000416678 6.59376e-19)
(0.999677 -0.000381417 -7.36556e-19)
(0.999636 -0.000356246 2.82969e-19)
(0.999592 -0.000342999 -5.91644e-19)
(0.999547 -0.000342327 -2.13293e-21)
(0.999501 -0.000353936 2.84131e-19)
(0.999454 -0.000376776 -5.50638e-19)
(0.999407 -0.000409439 -2.41877e-19)
(0.999359 -0.000450439 3.95962e-19)
(0.99931 -0.000498603 -9.0393e-19)
(0.999257 -0.000553238 5.97725e-19)
(0.999201 -0.000614404 -6.75933e-19)
(0.999141 -0.000682866 6.35341e-19)
(0.999074 -0.000760189 -1.21839e-19)
(0.999001 -0.0008485 4.90505e-19)
(0.998921 -0.000950453 2.70764e-19)
(0.998835 -0.00106888 1.07406e-18)
(0.998742 -0.00120674 3.46668e-19)
(0.998643 -0.00136674 -1.18891e-19)
(0.99854 -0.00155135 -7.95168e-19)
(0.998435 -0.00176251 6.06735e-19)
(0.998328 -0.00200169 4.85072e-19)
(0.998223 -0.00226976 2.42206e-20)
(0.998121 -0.00256713 4.79622e-20)
(0.998025 -0.00289371 -1.06292e-18)
(0.997937 -0.00324908 -1.29927e-19)
(0.997857 -0.00363267 -3.71718e-19)
(0.997789 -0.00404381 -3.24702e-19)
(0.997734 -0.00448206 7.05261e-19)
(0.997692 -0.0049473 -4.62362e-19)
(0.997664 -0.00544002 -2.9729e-19)
(0.997651 -0.00596158 2.08358e-19)
(0.997653 -0.00651447 3.62527e-19)
(0.99767 -0.00710277 -3.67013e-20)
(0.997701 -0.0077325 1.22632e-19)
(0.997745 -0.00841235 4.23418e-19)
(0.997802 -0.00915447 4.63469e-19)
(0.997869 -0.00997565 1.55439e-19)
(0.997945 -0.0108993 1.52859e-19)
(0.998026 -0.0119579 -1.23881e-20)
(0.99811 -0.0131978 1.89704e-19)
(0.998174 -0.0146862 3.53193e-20)
(0.998236 -0.0165196 -1.21277e-19)
(0.998026 -0.0189241 -1.40763e-19)
(0.998002 -0.0218402 9.17883e-20)
(0.992333 -0.0266651 -7.32005e-21)
(0.999866 -0.000224681 4.49686e-20)
(0.999871 -0.000378092 -3.87828e-20)
(0.999879 -0.00050957 -1.07311e-19)
(0.999888 -0.000609098 -8.1431e-20)
(0.999898 -0.0006711 1.25644e-19)
(0.999907 -0.000693119 2.37342e-19)
(0.999913 -0.000676147 -2.63425e-19)
(0.999915 -0.000624445 6.40296e-20)
(0.999911 -0.000545081 -5.13965e-19)
(0.9999 -0.000447148 6.39887e-19)
(0.999881 -0.000340817 1.53832e-19)
(0.999854 -0.000236231 -7.92234e-21)
(0.999821 -0.000142455 -6.60045e-20)
(0.999783 -6.66205e-05 1.16222e-19)
(0.999742 -1.33306e-05 -1.08266e-19)
(0.999699 1.56717e-05 1.86936e-19)
(0.999658 2.13329e-05 7.61567e-19)
(0.999618 6.81722e-06 9.67513e-19)
(0.999582 -2.30193e-05 -6.36669e-19)
(0.99955 -6.26461e-05 -6.6708e-19)
(0.999519 -0.000106479 1.88106e-19)
(0.99949 -0.000149936 -1.43483e-19)
(0.99946 -0.000189753 -6.49059e-19)
(0.999426 -0.000224688 1.38698e-18)
(0.999385 -0.000255373 -7.03265e-20)
(0.999336 -0.000284553 1.2752e-19)
(0.999277 -0.000316486 -1.08702e-18)
(0.999206 -0.00035684 4.9067e-19)
(0.999123 -0.00041183 -5.8047e-19)
(0.999029 -0.000488023 -9.16962e-19)
(0.998924 -0.000591422 -2.21677e-19)
(0.998812 -0.000727448 -7.15106e-19)
(0.998696 -0.000900076 8.51427e-19)
(0.998578 -0.00111218 4.06387e-19)
(0.998463 -0.00136473 -1.1457e-18)
(0.998356 -0.00165753 -1.03874e-18)
(0.99826 -0.00198857 6.65128e-20)
(0.998179 -0.00235477 3.23089e-19)
(0.998116 -0.00275179 1.21557e-18)
(0.998076 -0.00317446 -7.37589e-19)
(0.99806 -0.00361708 1.78851e-20)
(0.99807 -0.00407335 2.08495e-19)
(0.998109 -0.00453709 3.75416e-19)
(0.998176 -0.00500186 5.29152e-19)
(0.998273 -0.00546148 -3.79928e-19)
(0.998398 -0.00591001 -1.92542e-19)
(0.998553 -0.00634156 6.86302e-20)
(0.998735 -0.00675074 1.4552e-20)
(0.998944 -0.00713185 -2.11734e-19)
(0.999178 -0.00747918 -9.61336e-20)
(0.999436 -0.00778635 -9.65972e-20)
(0.999716 -0.0080456 -1.85908e-19)
(1.00001 -0.00824717 -3.62228e-19)
(1.00033 -0.00837738 1.63762e-19)
(1.00065 -0.00841585 -1.99843e-19)
(1.00097 -0.00833349 -8.66068e-20)
(1.00125 -0.00807347 2.09277e-20)
(1.00146 -0.00759629 -5.93457e-20)
(1.0014 -0.00656558 -6.68357e-20)
(1.00272 -0.00350395 3.95217e-21)
(0.999788 -0.000238926 6.56468e-20)
(0.999808 -0.000300847 -1.35127e-19)
(0.999836 -0.000336974 2.68217e-19)
(0.999868 -0.000339398 1.11856e-19)
(0.999902 -0.000306832 3.40543e-19)
(0.999936 -0.000241439 -6.73077e-20)
(0.999967 -0.00014883 2.47734e-19)
(0.999993 -3.7297e-05 -2.05739e-19)
(1.00001 8.3128e-05 1.33984e-19)
(1.00003 0.000201802 3.87027e-19)
(1.00003 0.000308628 -9.97658e-20)
(1.00003 0.000395218 1.75043e-19)
(1.00003 0.000455812 -3.78314e-19)
(1.00002 0.00048786 -9.91594e-20)
(1.00002 0.000492153 -6.99682e-20)
(1.00002 0.000472736 -1.524e-19)
(1.00003 0.000436166 -3.23381e-19)
(1.00004 0.000390623 -8.36616e-19)
(1.00006 0.000344969 1.02502e-18)
(1.00008 0.00030752 9.41634e-20)
(1.00011 0.000285266 2.8679e-19)
(1.00014 0.000282901 3.04109e-19)
(1.00017 0.00030255 3.94167e-19)
(1.00019 0.000343397 -1.52551e-18)
(1.00021 0.000401993 7.51394e-19)
(1.00022 0.000472438 -1.02998e-19)
(1.00021 0.000547133 4.83064e-20)
(1.0002 0.000617268 1.34369e-19)
(1.00017 0.000673755 2.47912e-19)
(1.00013 0.000707686 6.74761e-19)
(1.00008 0.000711213 5.61642e-19)
(1.00003 0.0006777 1.75123e-19)
(0.99997 0.000602471 -4.29158e-19)
(0.999914 0.000482497 -3.57917e-19)
(0.999862 0.000317019 1.17727e-18)
(0.99982 0.000106843 -3.39673e-19)
(0.99979 -0.000145231 8.48237e-20)
(0.999776 -0.000435161 -5.25444e-19)
(0.99978 -0.000757626 -1.27051e-19)
(0.999805 -0.00110647 1.18158e-19)
(0.999854 -0.00147511 3.9807e-19)
(0.999925 -0.00185649 -1.86202e-20)
(1.00002 -0.00224393 -5.40328e-19)
(1.00014 -0.00263064 2.10507e-19)
(1.00029 -0.0030105 4.53421e-19)
(1.00045 -0.00337793 -7.9543e-20)
(1.00064 -0.00372797 -1.23602e-20)
(1.00085 -0.00405674 -2.38624e-19)
(1.00107 -0.004361 2.82685e-19)
(1.00131 -0.00463875 -2.54701e-19)
(1.00156 -0.00488917 -1.89222e-19)
(1.00181 -0.00511282 -1.92763e-19)
(1.00206 -0.00531236 2.66057e-20)
(1.00229 -0.00549296 -7.17432e-20)
(1.0025 -0.00566268 1.30557e-19)
(1.00266 -0.00583358 -3.11252e-20)
(1.00273 -0.00601982 -3.13682e-20)
(1.00265 -0.0062788 1.10636e-19)
(1.00251 -0.00645034 6.90234e-21)
(1.0016 -0.00615827 1.07349e-20)
(0.99977 -0.00018724 3.16556e-20)
(0.9998 -0.000167328 1.77197e-20)
(0.999835 -0.000126956 -5.25255e-20)
(0.999872 -6.21581e-05 -1.05078e-19)
(0.99991 2.45061e-05 -8.32947e-21)
(0.999943 0.000127806 1.20761e-19)
(0.999972 0.000240042 -1.8832e-19)
(0.999993 0.000352132 1.2222e-19)
(1.00001 0.000454605 1.98368e-19)
(1.00001 0.000538658 -5.01362e-19)
(1.00001 0.000597121 -6.22512e-19)
(0.999998 0.000625319 2.56265e-19)
(0.999986 0.000621657 2.28999e-19)
(0.999972 0.000587842 2.71973e-19)
(0.999959 0.00052856 -4.06648e-19)
(0.99995 0.000451143 6.86128e-20)
(0.999946 0.000364699 2.66705e-19)
(0.999947 0.000278834 4.48135e-19)
(0.999954 0.000202997 -3.14165e-19)
(0.999966 0.000145167 4.38255e-19)
(0.999982 0.000111108 1.78674e-19)
(1 0.000104026 -4.1562e-19)
(1.00002 0.000123847 -5.08398e-19)
(1.00003 0.000167813 6.15218e-19)
(1.00004 0.000230281 1.21204e-19)
(1.00005 0.000303654 7.92193e-19)
(1.00005 0.000378733 -1.47642e-19)
(1.00004 0.000445703 -3.83379e-19)
(1.00003 0.00049468 -1.41676e-19)
(1.00002 0.00051654 3.0401e-19)
(1 0.000503324 -6.26383e-19)
(0.999987 0.000448811 -1.75726e-20)
(0.999977 0.000348612 2.87638e-19)
(0.999974 0.000200456 8.19116e-20)
(0.999982 3.992e-06 -3.7871e-20)
(1 -0.00023921 3.83198e-19)
(1.00004 -0.000525969 4.37247e-19)
(1.00009 -0.000851754 -1.60455e-19)
(1.00017 -0.00121099 1.94893e-19)
(1.00026 -0.0015974 -1.01789e-18)
(1.00038 -0.00200434 5.64434e-20)
(1.00052 -0.00242499 1.58519e-19)
(1.00068 -0.00285285 1.00738e-20)
(1.00086 -0.00328158 -3.96204e-20)
(1.00106 -0.00370551 -2.43223e-19)
(1.00128 -0.00411964 -2.00751e-19)
(1.00151 -0.00451962 -3.35407e-19)
(1.00176 -0.00490216 2.37346e-19)
(1.00202 -0.00526458 -1.20134e-19)
(1.00228 -0.00560516 -1.15667e-19)
(1.00255 -0.00592301 2.53998e-19)
(1.00281 -0.00621775 -9.62491e-20)
(1.00306 -0.00648962 2.92802e-20)
(1.0033 -0.00673851 1.46092e-19)
(1.0035 -0.00696252 4.71452e-20)
(1.00366 -0.00715381 2.70794e-20)
(1.00375 -0.00729215 -4.60371e-20)
(1.00376 -0.0073892 -7.15069e-20)
(1.00367 -0.00725958 2.27554e-20)
(1.00378 -0.00603937 -1.5444e-20)
(0.999789 -0.000137947 2.05569e-21)
(0.999822 -8.10986e-05 9.02168e-20)
(0.999854 -1.02525e-05 1.74188e-19)
(0.999885 7.54997e-05 1.46844e-19)
(0.99991 0.000171827 -6.15757e-19)
(0.999927 0.000272592 2.14879e-19)
(0.999934 0.000370108 -3.59205e-21)
(0.999931 0.000456292 -2.57028e-19)
(0.999916 0.000523464 -6.45782e-20)
(0.99989 0.000565164 2.69207e-19)
(0.999855 0.000576851 -9.95246e-20)
(0.99981 0.000556458 3.67931e-20)
(0.999759 0.000504682 4.81024e-19)
(0.999704 0.00042505 -7.63305e-19)
(0.999647 0.000323334 3.04022e-19)
(0.99959 0.000207184 -7.92882e-20)
(0.999535 8.53747e-05 1.05517e-19)
(0.999484 -3.36103e-05 5.05493e-20)
(0.999436 -0.000141814 -5.09125e-20)
(0.999394 -0.000232997 -8.13569e-19)
(0.999355 -0.000303407 3.92662e-20)
(0.999322 -0.000351364 -4.43098e-20)
(0.999292 -0.000378532 2.31024e-19)
(0.999266 -0.000388441 -1.65078e-19)
(0.999244 -0.000387285 -2.56853e-19)
(0.999227 -0.000382412 -1.44219e-18)
(0.999215 -0.000382444 4.01995e-20)
(0.999209 -0.000395982 1.09281e-18)
(0.999211 -0.000431483 -2.37537e-19)
(0.999223 -0.000496211 7.47597e-19)
(0.999246 -0.000596285 -1.51917e-19)
(0.999284 -0.000735846 -3.25077e-19)
(0.999339 -0.000917447 2.7264e-19)
(0.999411 -0.00114144 -6.65588e-19)
(0.999504 -0.00140661 -7.23087e-20)
(0.999619 -0.00170989 -1.62759e-19)
(0.999757 -0.0020469 -7.83404e-19)
(0.999918 -0.0024121 6.46604e-19)
(1.0001 -0.00279912 -6.31973e-19)
(1.00031 -0.00320105 1.0389e-18)
(1.00054 -0.00361078 -3.68334e-19)
(1.0008 -0.00402104 -5.40324e-19)
(1.00107 -0.00442508 -1.19861e-19)
(1.00136 -0.00481613 6.1619e-20)
(1.00167 -0.00518817 5.02884e-19)
(1.002 -0.0055357 -1.82377e-19)
(1.00233 -0.00585365 2.86656e-19)
(1.00267 -0.00613798 -2.38385e-19)
(1.00301 -0.00638474 -1.39242e-19)
(1.00336 -0.00659072 1.39497e-19)
(1.00369 -0.00675312 -2.83539e-20)
(1.00402 -0.00686899 -1.33141e-19)
(1.00433 -0.00693569 -8.05881e-20)
(1.00461 -0.00694957 1.75069e-20)
(1.00485 -0.00690539 -1.04412e-19)
(1.00504 -0.00679346 1.03007e-19)
(1.00517 -0.00659621 3.15415e-20)
(1.00523 -0.00634019 3.18017e-20)
(1.00516 -0.00592911 2.6014e-21)
(1.00541 -0.00457046 6.09089e-21)
(0.999824 -0.000106732 -7.16025e-20)
(0.999856 -4.1079e-05 -4.63439e-20)
(0.999886 3.41872e-05 -2.87717e-19)
(0.999911 0.000118285 -3.38213e-19)
(0.999928 0.00020675 5.00634e-19)
(0.999936 0.000293943 9.19516e-20)
(0.999933 0.000373329 2.43697e-19)
(0.999918 0.000438552 1.39026e-19)
(0.99989 0.00048392 4.49551e-19)
(0.999852 0.000504957 -9.67518e-20)
(0.999802 0.000498867 6.71275e-19)
(0.999742 0.000464863 -1.3307e-18)
(0.999674 0.000404243 4.63243e-20)
(0.999599 0.00032042 7.27418e-19)
(0.99952 0.000218433 -1.60573e-19)
(0.999438 0.000104424 5.77693e-19)
(0.999356 -1.48724e-05 -6.4997e-19)
(0.999275 -0.000133184 -3.50364e-19)
(0.999197 -0.000244994 4.91038e-19)
(0.999124 -0.000346245 5.66508e-19)
(0.999057 -0.000435055 3.06867e-19)
(0.998997 -0.000511174 -9.02392e-19)
(0.998947 -0.000576826 -3.44078e-19)
(0.998907 -0.000635665 3.44142e-19)
(0.998879 -0.00069306 4.5e-19)
(0.998864 -0.00075511 4.14221e-19)
(0.998866 -0.000828463 3.28224e-19)
(0.998886 -0.000919489 -2.6768e-19)
(0.998925 -0.001034 5.43543e-19)
(0.998987 -0.00117663 -2.67481e-19)
(0.999071 -0.00135071 -2.1678e-19)
(0.999182 -0.00155796 -3.79659e-19)
(0.999318 -0.00179841 -4.17126e-19)
(0.999482 -0.00207061 -6.70336e-19)
(0.999673 -0.00237139 -2.65771e-19)
(0.999892 -0.00269664 5.53284e-19)
(1.00014 -0.0030408 6.88385e-19)
(1.00041 -0.00339788 -1.55989e-19)
(1.00071 -0.00376119 5.97056e-19)
(1.00103 -0.00412385 -2.28948e-19)
(1.00137 -0.00447917 5.81526e-19)
(1.00173 -0.00482026 2.02549e-20)
(1.0021 -0.00514134 -3.60622e-19)
(1.00248 -0.00543648 -2.87003e-19)
(1.00288 -0.00570081 5.00818e-20)
(1.00328 -0.00593024 1.37752e-20)
(1.00367 -0.00612115 -6.2392e-20)
(1.00407 -0.00627143 -1.25274e-19)
(1.00445 -0.0063792 1.67669e-20)
(1.00482 -0.00644377 1.24248e-19)
(1.00517 -0.0064655 -1.32508e-20)
(1.00549 -0.00644521 1.11035e-19)
(1.00578 -0.00638513 -8.05504e-21)
(1.00602 -0.00628779 -1.08491e-19)
(1.00621 -0.00615596 8.08618e-20)
(1.00634 -0.00599095 -6.73809e-20)
(1.00638 -0.00579051 -9.70665e-22)
(1.00638 -0.00559755 2.71003e-21)
(1.00622 -0.00535808 -1.09013e-20)
(1.00616 -0.00443048 -1.33365e-21)
(0.999863 -9.47103e-05 6.654e-20)
(0.999895 -3.23864e-05 2.34575e-20)
(0.99993 3.54595e-05 2.15657e-19)
(0.999962 0.000110256 -3.82384e-20)
(0.999988 0.000188092 1.03658e-20)
(1.00001 0.000264441 -5.07066e-19)
(1.00002 0.000334412 -6.14687e-19)
(1.00002 0.000393552 4.1715e-19)
(1.00001 0.00043797 -1.07047e-18)
(0.999997 0.00046463 3.59989e-19)
(0.999972 0.000471659 -6.30052e-19)
(0.999937 0.000458534 1.92637e-19)
(0.999894 0.000425994 2.53279e-19)
(0.999843 0.000376095 4.34215e-19)
(0.999786 0.00031214 -2.59432e-19)
(0.999725 0.000237824 -1.62362e-19)
(0.99966 0.000156917 -1.38522e-19)
(0.999595 7.31685e-05 -5.01577e-20)
(0.999531 -1.07313e-05 -1.18782e-19)
(0.999471 -9.29994e-05 3.14637e-19)
(0.999417 -0.000173283 -9.61218e-19)
(0.999371 -0.00025278 9.15498e-19)
(0.999336 -0.000333551 6.30987e-19)
(0.999315 -0.000419217 -1.06623e-18)
(0.999311 -0.000513674 1.29505e-19)
(0.999326 -0.000621558 -1.53197e-19)
(0.999363 -0.00074711 2.50125e-19)
(0.999424 -0.000894395 -2.14054e-19)
(0.999512 -0.0010664 -2.12775e-19)
(0.999628 -0.00126531 -3.84107e-19)
(0.999773 -0.00149174 2.12051e-19)
(0.999948 -0.0017454 6.52085e-19)
(1.00015 -0.00202412 6.60541e-19)
(1.00039 -0.00232529 1.01817e-18)
(1.00066 -0.00264425 -5.79576e-19)
(1.00095 -0.00297662 1.2534e-19)
(1.00127 -0.00331633 1.84082e-19)
(1.00161 -0.00365776 -2.1127e-19)
(1.00197 -0.00399471 -7.2216e-20)
(1.00235 -0.00432118 -4.63168e-19)
(1.00275 -0.00463182 -1.51089e-19)
(1.00315 -0.00492101 2.31277e-19)
(1.00356 -0.00518489 4.03581e-20)
(1.00398 -0.00541931 4.15457e-19)
(1.00439 -0.00562149 -7.48753e-20)
(1.00479 -0.00578967 -1.97425e-19)
(1.00518 -0.00592252 -9.54458e-20)
(1.00555 -0.00602055 1.56819e-19)
(1.00591 -0.00608447 3.89451e-21)
(1.00623 -0.00611618 -6.97199e-20)
(1.00653 -0.00611872 -3.60098e-20)
(1.00678 -0.00609531 1.55118e-20)
(1.00699 -0.00605024 7.63069e-20)
(1.00714 -0.00598752 4.18168e-21)
(1.00724 -0.00591022 -4.08672e-20)
(1.00727 -0.00581866 1.30932e-19)
(1.00722 -0.0057084 -3.16685e-20)
(1.00713 -0.00561532 2.91514e-20)
(1.00692 -0.00548058 -1.12025e-20)
(1.00667 -0.00471304 -6.83815e-21)
(0.999895 -0.000102308 -8.14901e-20)
(0.999936 -4.91798e-05 5.31419e-20)
(0.999984 5.04225e-06 -1.03145e-19)
(1.00003 6.76289e-05 2.0837e-19)
(1.00008 0.000135462 1.98643e-19)
(1.00013 0.000205264 3.63905e-20)
(1.00018 0.000273781 6.06319e-19)
(1.00022 0.000338229 -4.06726e-19)
(1.00026 0.000396043 4.75645e-19)
(1.00029 0.000444977 -8.75293e-19)
(1.00032 0.000483316 7.25476e-19)
(1.00034 0.000510011 1.65517e-19)
(1.00035 0.000524494 -2.80823e-20)
(1.00035 0.000526736 -6.65108e-19)
(1.00034 0.000517813 1.52759e-20)
(1.00033 0.000498666 2.51725e-19)
(1.00031 0.000469824 1.87975e-19)
(1.00029 0.000432585 -5.4724e-20)
(1.00027 0.000386948 2.4798e-20)
(1.00025 0.000332596 1.59735e-19)
(1.00023 0.000268786 2.51485e-19)
(1.00022 0.000193062 -6.20392e-19)
(1.00022 0.000103919 1.38173e-19)
(1.00023 -2.05033e-06 9.40462e-20)
(1.00026 -0.000127112 2.57722e-19)
(1.00031 -0.000274414 -5.08731e-19)
(1.00039 -0.000445869 -5.03809e-19)
(1.00049 -0.000643434 -4.34079e-19)
(1.00062 -0.000867562 6.58413e-21)
(1.00077 -0.00111838 -1.9679e-19)
(1.00096 -0.00139423 -6.09814e-20)
(1.00118 -0.00169331 -6.03768e-19)
(1.00142 -0.00201175 -7.59048e-19)
(1.0017 -0.00234626 -1.26197e-19)
(1.002 -0.00269127 8.70118e-20)
(1.00233 -0.00304247 3.3232e-19)
(1.00267 -0.00339379 -4.32363e-19)
(1.00304 -0.00374021 -2.08981e-19)
(1.00342 -0.00407635 -2.10706e-19)
(1.00381 -0.0043972 1.52004e-19)
(1.0042 -0.00469875 -7.89107e-20)
(1.0046 -0.00497668 -1.05162e-19)
(1.005 -0.00522864 -3.53035e-21)
(1.00539 -0.00545201 -5.23913e-20)
(1.00577 -0.00564538 -2.10426e-19)
(1.00613 -0.00580842 -6.08608e-20)
(1.00647 -0.005941 2.65184e-19)
(1.00679 -0.00604456 -2.25696e-19)
(1.00708 -0.00612054 1.05424e-19)
(1.00734 -0.0061709 1.93014e-19)
(1.00756 -0.00619831 -7.25525e-20)
(1.00773 -0.00620484 3.99168e-21)
(1.00786 -0.00619262 2.04728e-20)
(1.00794 -0.00616269 8.51629e-20)
(1.00796 -0.0061139 8.03456e-23)
(1.00792 -0.00604174 -5.05418e-20)
(1.00782 -0.00593739 8.22144e-21)
(1.00768 -0.00583226 2.09277e-20)
(1.00744 -0.00566273 -7.61944e-21)
(1.00715 -0.00485798 -4.99386e-21)
(0.999917 -0.000128239 2.88411e-20)
(0.999976 -8.86814e-05 2.74211e-20)
(1.00004 -5.01932e-05 1.53133e-19)
(1.00011 -1.03217e-06 7.51924e-20)
(1.00019 5.71936e-05 -1.88413e-19)
(1.00028 0.000122404 8.79764e-19)
(1.00037 0.000192645 -1.10582e-18)
(1.00046 0.000266297 4.78608e-19)
(1.00055 0.00034151 -2.90237e-19)
(1.00064 0.000416174 4.58326e-20)
(1.00072 0.000488111 2.19052e-19)
(1.0008 0.000555236 -2.76466e-19)
(1.00087 0.000615322 -2.33641e-19)
(1.00093 0.000666036 -4.73326e-19)
(1.00098 0.000706158 -5.25334e-19)
(1.00102 0.000734099 -1.76795e-19)
(1.00106 0.000747471 1.13758e-19)
(1.00108 0.000745474 2.152e-19)
(1.00111 0.000726014 -6.8369e-19)
(1.00113 0.00068715 4.01184e-19)
(1.00115 0.000627551 7.47104e-20)
(1.00118 0.000544054 4.81376e-19)
(1.00121 0.000435879 3.22983e-19)
(1.00126 0.000300246 4.71015e-19)
(1.00133 0.000136452 -5.0811e-19)
(1.00141 -5.70567e-05 -2.80037e-19)
(1.00151 -0.000280129 3.09664e-19)
(1.00164 -0.00053277 3.05544e-19)
(1.0018 -0.000813315 -2.87648e-19)
(1.00198 -0.00112011 -8.47153e-20)
(1.00219 -0.00144972 8.19765e-19)
(1.00243 -0.00179911 -1.42084e-19)
(1.00269 -0.00216322 1.76837e-19)
(1.00298 -0.00253818 -1.65509e-19)
(1.00329 -0.00291797 -3.52281e-21)
(1.00362 -0.00329826 1.10971e-19)
(1.00397 -0.00367325 2.25912e-19)
(1.00433 -0.00403826 2.8447e-20)
(1.0047 -0.00438867 2.01099e-19)
(1.00507 -0.00472016 5.60116e-20)
(1.00545 -0.00502957 7.83777e-20)
(1.00581 -0.00531342 -4.73782e-21)
(1.00618 -0.00557009 -1.37428e-19)
(1.00653 -0.00579777 -9.18817e-20)
(1.00686 -0.00599542 3.10659e-19)
(1.00717 -0.0061631 -6.7107e-20)
(1.00746 -0.00630072 -6.18827e-20)
(1.00772 -0.00640939 -5.08805e-20)
(1.00795 -0.00649003 -3.8036e-20)
(1.00815 -0.0065434 7.23115e-21)
(1.00831 -0.00657079 -5.32161e-20)
(1.00843 -0.00657235 -4.82329e-20)
(1.0085 -0.00654799 -4.01161e-20)
(1.00853 -0.00649648 -2.36114e-20)
(1.0085 -0.00641453 4.29961e-20)
(1.00843 -0.00629633 -2.20209e-20)
(1.0083 -0.00613356 -2.63106e-20)
(1.00814 -0.00595933 2.43067e-20)
(1.00789 -0.00571113 1.00151e-21)
(1.00759 -0.00482532 6.68633e-21)
(0.999936 -0.000167183 -2.66204e-20)
(1.00001 -0.000145664 -2.12237e-19)
(1.00009 -0.000122852 -2.28137e-19)
(1.00019 -8.76285e-05 -6.6231e-20)
(1.0003 -3.96435e-05 -3.3524e-19)
(1.00041 2.00852e-05 -7.42974e-19)
(1.00054 9.0435e-05 4.4512e-19)
(1.00067 0.000170375 3.30008e-21)
(1.00081 0.000258189 -1.58733e-20)
(1.00094 0.00035141 6.50959e-20)
(1.00107 0.000447028 -6.02272e-19)
(1.0012 0.000541733 1.86514e-19)
(1.00131 0.000631676 -2.11917e-19)
(1.00142 0.000712453 7.73362e-19)
(1.00152 0.00078082 1.16325e-18)
(1.00161 0.000833263 1.3929e-19)
(1.00168 0.000865237 1.49555e-20)
(1.00175 0.00087437 -9.96595e-21)
(1.00181 0.000857351 1.19285e-19)
(1.00187 0.000811277 -4.17376e-19)
(1.00193 0.000734753 -3.78998e-20)
(1.00199 0.000624641 3.47806e-19)
(1.00206 0.000480955 -6.84464e-19)
(1.00214 0.000302028 8.93155e-20)
(1.00223 8.8574e-05 -1.26233e-19)
(1.00234 -0.000159257 8.60542e-19)
(1.00247 -0.000439559 -1.52129e-19)
(1.00262 -0.000750529 -1.6498e-19)
(1.0028 -0.00108882 3.01314e-20)
(1.003 -0.00145122 2.95626e-19)
(1.00323 -0.00183302 -1.65169e-19)
(1.00348 -0.00223009 -2.43116e-19)
(1.00375 -0.00263666 1.26159e-19)
(1.00404 -0.0030483 -3.0833e-19)
(1.00435 -0.00345888 4.36292e-19)
(1.00468 -0.00386392 1.35972e-19)
(1.00502 -0.00425801 -2.26035e-19)
(1.00536 -0.00463665 6.75026e-20)
(1.00571 -0.00499578 2.26815e-19)
(1.00607 -0.00533152 9.59758e-21)
(1.00641 -0.00564122 -1.78728e-19)
(1.00675 -0.00592192 2.42647e-19)
(1.00708 -0.00617223 -2.27737e-19)
(1.00739 -0.00639077 2.25823e-19)
(1.00769 -0.00657646 -2.3255e-19)
(1.00796 -0.00672937 1.82485e-20)
(1.00821 -0.00684915 4.26817e-20)
(1.00843 -0.00693644 1.60767e-19)
(1.00861 -0.00699162 1.05933e-19)
(1.00877 -0.00701464 -1.81355e-19)
(1.00889 -0.00700595 2.08714e-20)
(1.00897 -0.00696489 4.17496e-20)
(1.00901 -0.00689073 -1.72847e-19)
(1.009 -0.00678198 1.15307e-19)
(1.00895 -0.00663567 -5.151e-21)
(1.00886 -0.00644727 9.38369e-21)
(1.00871 -0.00621089 3.01888e-20)
(1.00854 -0.00596246 -7.06029e-20)
(1.00828 -0.00564064 1.64638e-20)
(1.00799 -0.00468211 5.04659e-21)
(0.999954 -0.000212803 9.82628e-20)
(1.00004 -0.000213346 1.30905e-19)
(1.00014 -0.000206186 -1.81145e-19)
(1.00025 -0.00018559 1.27157e-19)
(1.00038 -0.000149732 3.22496e-19)
(1.00052 -9.87712e-05 3.40348e-19)
(1.00067 -3.34458e-05 -1.11926e-19)
(1.00083 4.53e-05 -3.20102e-20)
(1.00099 0.000135475 3.06228e-19)
(1.00115 0.00023398 -8.36008e-20)
(1.00132 0.000336883 5.49804e-19)
(1.00147 0.000439746 -1.88577e-19)
(1.00162 0.000537433 2.89434e-19)
(1.00176 0.000624 -3.26006e-19)
(1.00189 0.000694677 -2.63419e-19)
(1.00201 0.000744806 -1.46589e-19)
(1.00211 0.000768627 6.32676e-19)
(1.00221 0.000762793 4.95238e-20)
(1.0023 0.000723683 -2.56167e-19)
(1.00239 0.000648115 4.57896e-19)
(1.00248 0.000535074 9.39861e-20)
(1.00257 0.000382137 -5.17614e-19)
(1.00267 0.000190105 4.77395e-19)
(1.00277 -4.12022e-05 2.62762e-19)
(1.00289 -0.00030985 3.4127e-19)
(1.00303 -0.000613981 -4.16848e-19)
(1.00318 -0.000950279 -2.06791e-20)
(1.00336 -0.00131535 -4.67045e-19)
(1.00356 -0.00170459 4.99345e-19)
(1.00377 -0.00211356 -2.21032e-19)
(1.00402 -0.00253667 2.99214e-20)
(1.00428 -0.00296898 -1.51846e-19)
(1.00456 -0.00340441 -1.83037e-19)
(1.00486 -0.00383808 3.38181e-19)
(1.00517 -0.00426407 -1.00142e-19)
(1.00549 -0.00467776 -2.6025e-19)
(1.00582 -0.00507425 -7.49016e-20)
(1.00616 -0.00544923 2.34592e-19)
(1.00649 -0.00579917 1.28491e-19)
(1.00683 -0.00612059 -4.5979e-20)
(1.00715 -0.00641122 1.82579e-19)
(1.00747 -0.0066686 -2.24722e-19)
(1.00777 -0.00689151 1.28125e-19)
(1.00806 -0.00707898 4.69806e-20)
(1.00833 -0.00722993 4.71971e-20)
(1.00857 -0.00734456 -1.86705e-19)
(1.00879 -0.00742249 1.32371e-19)
(1.00898 -0.00746426 -2.57623e-19)
(1.00914 -0.00747022 -2.68951e-21)
(1.00927 -0.00744013 1.43239e-19)
(1.00936 -0.0073745 4.47226e-20)
(1.00941 -0.00727275 7.11589e-20)
(1.00943 -0.00713458 1.27345e-19)
(1.00941 -0.00695922 -1.34547e-19)
(1.00934 -0.00674478 4.95382e-20)
(1.00923 -0.00648834 2.7076e-20)
(1.00907 -0.00618599 -2.56031e-21)
(1.00889 -0.00587521 2.30852e-20)
(1.00863 -0.00549553 -3.08709e-20)
(1.00834 -0.00448037 -1.72929e-21)
(0.99997 -0.000259604 -1.33629e-19)
(1.00007 -0.00028569 -8.81734e-20)
(1.00017 -0.00029525 2.84352e-19)
(1.00029 -0.000290678 2.05757e-19)
(1.00043 -0.000270049 -1.30511e-19)
(1.00058 -0.000232839 -1.33351e-19)
(1.00074 -0.000179721 4.04752e-19)
(1.00091 -0.000111898 9.07821e-20)
(1.00109 -3.18559e-05 2.02884e-19)
(1.00127 5.66307e-05 2.07523e-19)
(1.00144 0.000148834 -6.27362e-19)
(1.00162 0.000239491 1.04386e-18)
(1.00178 0.000322673 -2.2879e-19)
(1.00193 0.000391555 6.45235e-19)
(1.00208 0.000440442 -5.15407e-19)
(1.00222 0.000464304 4.03323e-19)
(1.00234 0.00045707 -7.31613e-19)
(1.00246 0.00041499 4.58022e-19)
(1.00258 0.000334879 -9.12442e-20)
(1.00269 0.000213854 -7.62553e-19)
(1.0028 5.15963e-05 3.65145e-19)
(1.00292 -0.000153142 -8.82255e-20)
(1.00304 -0.000398819 -1.07345e-19)
(1.00318 -0.000683989 -2.1554e-21)
(1.00333 -0.00100573 -4.75484e-19)
(1.00349 -0.00136063 -1.77327e-20)
(1.00367 -0.00174433 6.09316e-20)
(1.00387 -0.00215218 3.61594e-19)
(1.00409 -0.00257876 -5.68788e-19)
(1.00433 -0.00301873 1.91563e-19)
(1.00459 -0.00346609 -1.993e-19)
(1.00487 -0.00391542 -2.50097e-20)
(1.00516 -0.00436064 -1.10741e-19)
(1.00547 -0.00479673 2.13425e-19)
(1.00579 -0.00521818 -7.28429e-20)
(1.00611 -0.00562045 1.77944e-19)
(1.00644 -0.00599929 -1.47064e-20)
(1.00677 -0.00635068 -1.70214e-19)
(1.0071 -0.0066717 7.22935e-21)
(1.00743 -0.00695934 3.87626e-20)
(1.00774 -0.00721186 -9.00488e-20)
(1.00804 -0.00742728 -9.47491e-21)
(1.00833 -0.00760474 4.8797e-20)
(1.0086 -0.00774374 2.88409e-19)
(1.00885 -0.00784346 -8.28497e-20)
(1.00907 -0.00790439 7.98885e-21)
(1.00927 -0.00792642 4.09849e-20)
(1.00944 -0.00791033 3.78609e-20)
(1.00958 -0.00785675 -8.34339e-20)
(1.00968 -0.00776572 -1.18219e-20)
(1.00976 -0.00763812 -5.26065e-20)
(1.00979 -0.00747383 -9.33119e-20)
(1.00979 -0.0072732 -2.27609e-20)
(1.00975 -0.00703623 1.13902e-19)
(1.00967 -0.00676192 -2.84288e-20)
(1.00955 -0.0064484 -3.37042e-20)
(1.00939 -0.00609284 -1.69226e-22)
(1.0092 -0.00573331 -4.64166e-21)
(1.00893 -0.00530953 1.49274e-20)
(1.00866 -0.00425157 2.44223e-21)
(0.999983 -0.0003037 1.58331e-19)
(1.00008 -0.000358937 1.49309e-19)
(1.00018 -0.000387201 -2.99465e-20)
(1.00031 -0.000400942 -2.51499e-19)
(1.00045 -0.000399628 -2.50647e-19)
(1.0006 -0.000382135 -2.93147e-19)
(1.00077 -0.000349211 -1.14249e-19)
(1.00094 -0.000302491 -2.63024e-19)
(1.00112 -0.000244997 3.03438e-19)
(1.0013 -0.00018106 -2.73718e-19)
(1.00147 -0.00011593 9.18997e-19)
(1.00165 -5.52934e-05 -8.13538e-19)
(1.00181 -5.3403e-06 -1.55227e-19)
(1.00198 2.68786e-05 2.26764e-19)
(1.00213 3.5327e-05 2.70125e-19)
(1.00228 1.52539e-05 -3.60531e-19)
(1.00242 -3.89973e-05 5.082e-19)
(1.00255 -0.000131095 2.12295e-19)
(1.00269 -0.000263288 -1.365e-19)
(1.00282 -0.000437761 3.69472e-19)
(1.00296 -0.000653978 3.3511e-19)
(1.00311 -0.000911809 -3.61561e-19)
(1.00326 -0.00120906 -3.07571e-19)
(1.00342 -0.00154276 3.87503e-19)
(1.0036 -0.00190925 5.26684e-19)
(1.0038 -0.00230388 -1.93259e-20)
(1.00401 -0.0027216 3.35649e-19)
(1.00424 -0.0031569 1.28952e-20)
(1.00448 -0.00360395 -1.65497e-19)
(1.00475 -0.00405695 -7.86479e-20)
(1.00503 -0.00450984 6.22684e-19)
(1.00532 -0.00495708 -1.4446e-19)
(1.00563 -0.00539291 3.23677e-19)
(1.00595 -0.00581244 9.80111e-20)
(1.00628 -0.00621077 -4.54625e-19)
(1.00661 -0.00658369 2.76884e-19)
(1.00694 -0.00692768 -7.55545e-20)
(1.00727 -0.0072392 1.26793e-19)
(1.0076 -0.00751602 -1.22322e-19)
(1.00792 -0.00775571 -5.28591e-19)
(1.00823 -0.00795711 -1.80512e-19)
(1.00852 -0.00811882 1.42236e-19)
(1.00879 -0.00824047 1.25109e-19)
(1.00905 -0.00832207 7.94181e-20)
(1.00928 -0.00836319 -5.20077e-20)
(1.00949 -0.00836476 1.88735e-19)
(1.00967 -0.00832699 -1.05713e-19)
(1.00983 -0.0082511 1.62251e-19)
(1.00995 -0.00813804 -3.79306e-20)
(1.01004 -0.00798819 -8.19078e-20)
(1.0101 -0.00780286 9.6021e-20)
(1.01012 -0.00758228 -2.54835e-20)
(1.01011 -0.00732731 -6.15413e-20)
(1.01005 -0.00703844 -4.64446e-20)
(1.00996 -0.0067151 4.56551e-21)
(1.00984 -0.00635597 6.72192e-21)
(1.00966 -0.00595866 9.76352e-21)
(1.00947 -0.00556124 1.56671e-20)
(1.0092 -0.00510379 -6.8311e-21)
(1.00894 -0.00401292 4.5645e-21)
(0.999991 -0.000342411 -6.55545e-20)
(1.00008 -0.000430321 -1.17006e-19)
(1.00019 -0.000480777 1.98772e-20)
(1.00031 -0.000516125 1.06454e-19)
(1.00044 -0.00053892 1.44507e-19)
(1.00059 -0.00054749 4.64034e-19)
(1.00075 -0.000542644 -4.93432e-19)
(1.00092 -0.000526472 -1.32433e-19)
(1.00109 -0.000502452 -5.23832e-19)
(1.00126 -0.000475249 3.02336e-19)
(1.00143 -0.000450303 -4.64051e-19)
(1.0016 -0.000433309 6.45351e-19)
(1.00177 -0.000430232 -5.32315e-19)
(1.00193 -0.000447798 -4.46178e-19)
(1.00209 -0.000491887 -7.95561e-20)
(1.00224 -0.000566495 4.75651e-19)
(1.00239 -0.000676372 -7.26383e-19)
(1.00254 -0.00082476 -3.03867e-19)
(1.0027 -0.0010127 5.17159e-21)
(1.00286 -0.0012415 1.26943e-19)
(1.00302 -0.00150972 -4.31165e-19)
(1.00319 -0.0018159 2.57062e-19)
(1.00337 -0.00215732 3.42003e-19)
(1.00357 -0.00252975 2.56789e-19)
(1.00378 -0.00292905 -2.84814e-19)
(1.00401 -0.0033497 -5.09841e-19)
(1.00425 -0.00378635 -3.48431e-19)
(1.00451 -0.00423301 1.39298e-20)
(1.00478 -0.00468382 3.80449e-19)
(1.00507 -0.00513287 1.72627e-19)
(1.00538 -0.00557438 -1.29825e-19)
(1.00569 -0.00600301 1.27441e-19)
(1.00602 -0.00641354 1.93229e-19)
(1.00635 -0.00680147 -4.94593e-19)
(1.00669 -0.00716263 1.62891e-19)
(1.00703 -0.00749334 -2.34998e-19)
(1.00736 -0.00779085 2.6014e-19)
(1.0077 -0.00805223 5.14091e-20)
(1.00802 -0.00827597 -3.75694e-20)
(1.00834 -0.00846026 3.47375e-19)
(1.00864 -0.00860458 -1.37181e-19)
(1.00892 -0.00870807 6.52854e-20)
(1.00919 -0.0087709 -4.15078e-20)
(1.00943 -0.00879359 6.1264e-20)
(1.00965 -0.00877607 -8.65384e-20)
(1.00985 -0.00871971 -1.91909e-19)
(1.01002 -0.00862503 4.32397e-20)
(1.01016 -0.00849361 3.14282e-20)
(1.01027 -0.00832667 1.17777e-19)
(1.01034 -0.0081248 -2.46279e-20)
(1.01039 -0.00788962 -8.76582e-20)
(1.0104 -0.00762151 3.41258e-20)
(1.01037 -0.0073216 -6.25172e-22)
(1.01031 -0.00699058 6.43447e-20)
(1.01022 -0.00662799 -3.10486e-20)
(1.01008 -0.00623273 3.23345e-20)
(1.00991 -0.00580254 -8.34092e-21)
(1.00971 -0.00537528 -7.9647e-21)
(1.00945 -0.00489113 -8.43133e-21)
(1.0092 -0.00377444 -2.75726e-21)
(0.999992 -0.000374792 1.80878e-20)
(1.00007 -0.000498146 -6.87753e-20)
(1.00017 -0.00057586 1.73672e-19)
(1.00029 -0.000637044 1.80983e-19)