/*--------------------------------*- C++ -*----------------------------------*\
  =========                 |
  \\      /  F ield         | OpenFOAM: The Open Source CFD Toolbox
   \\    /   O peration     | Website:  https://openfoam.org
    \\  /    A nd           | Version:  6.0
     \\/     M anipulation  |
\*---------------------------------------------------------------------------*/
FoamFile
{
    version     2.0;
    format      ascii;
    class       volVectorField;
    location    "12";
    object      U;
}
// * * * * * * * * * * * * * * * * * * * * * * * * * * * * * * * * * * * * * //

dimensions      [0 1 -1 0 0 0 0];

internalField   nonuniform List<vector> 
47000
(
(0.999994 -9.0026e-05 3.0705e-18)
(1 -8.29436e-05 5.79565e-18)
(1.00001 -4.68175e-05 -4.22769e-17)
(1.00002 1.52301e-05 -7.70645e-17)
(1.00001 8.80392e-05 5.84329e-17)
(0.999989 0.000146353 -3.68569e-17)
(0.99995 0.000168317 1.61849e-16)
(0.999897 0.0001437 -1.94506e-18)
(0.99984 7.72743e-05 2.33088e-17)
(0.999784 -1.45417e-05 -2.68348e-16)
(0.999735 -0.000112855 1.8933e-16)
(0.999689 -0.000204628 7.57252e-17)
(0.999644 -0.000286918 1.25787e-16)
(0.999594 -0.000367002 1.65416e-16)
(0.999534 -0.00045708 -1.60194e-16)
(0.999464 -0.000571195 -1.00286e-16)
(0.999389 -0.000718475 -8.53176e-18)
(0.999314 -0.00090391 -1.2556e-16)
(0.999247 -0.00112551 -7.89929e-17)
(0.999194 -0.00137931 -4.56525e-18)
(0.999161 -0.00165782 -3.83904e-16)
(0.999152 -0.001956 -1.88205e-16)
(0.999168 -0.00226973 -1.67289e-16)
(0.999209 -0.00260098 -4.3427e-18)
(0.999276 -0.00296097 1.82639e-16)
(0.999359 -0.00336177 -8.88639e-17)
(0.999518 -0.00388489 2.14951e-16)
(0.999261 -0.00459823 -1.77037e-16)
(1.00144 -0.00545269 7.96648e-17)
(0.986661 -0.0116948 -3.65816e-17)
(1.00001 -6.06877e-05 -6.60761e-18)
(1.00003 0.000118792 -2.00536e-17)
(1.00004 0.000310352 -8.49451e-19)
(1.00003 0.000478676 9.79122e-17)
(0.999999 0.000580423 -4.84869e-17)
(0.999932 0.000580198 1.30472e-16)
(0.999844 0.000470525 -1.04051e-16)
(0.99975 0.00027531 2.8271e-17)
(0.999667 4.19041e-05 -1.83174e-16)
(0.999602 -0.000178662 -1.0963e-17)
(0.999553 -0.000350974 -3.72146e-17)
(0.999506 -0.000467123 6.60306e-17)
(0.999449 -0.000545436 -1.57817e-16)
(0.999368 -0.000621817 9.15011e-18)
(0.999259 -0.000734567 6.28778e-17)
(0.999126 -0.000915876 -2.18357e-17)
(0.998983 -0.00118165 1.37332e-16)
(0.998843 -0.00153458 -8.54099e-17)
(0.998726 -0.00196275 -2.36737e-16)
(0.998642 -0.00244988 3.23188e-16)
(0.998603 -0.00297477 1.41175e-16)
(0.998614 -0.00352085 4.19673e-17)
(0.998676 -0.00407458 1.22915e-16)
(0.998786 -0.00463074 1.24605e-16)
(0.998946 -0.00519882 -7.51548e-17)
(0.999118 -0.00578113 -6.79291e-18)
(0.999423 -0.00644715 -7.41268e-17)
(0.999203 -0.00737798 -1.42475e-16)
(1.00031 -0.00808835 1.41521e-16)
(0.994886 -0.0102717 4.75431e-17)
(1.00008 4.75434e-05 7.71123e-18)
(1.0001 0.000354391 1.77617e-18)
(1.00011 0.000630917 -2.48947e-18)
(1.00011 0.000821163 -1.69292e-16)
(1.00007 0.0008762 1.54766e-17)
(0.999999 0.00077511 -1.12887e-16)
(0.999921 0.000541443 1.02035e-16)
(0.999852 0.000234467 -8.52161e-17)
(0.999809 -6.78712e-05 1.7596e-16)
(0.999796 -0.00029866 1.15543e-16)
(0.999805 -0.000422085 -4.84963e-17)
(0.999819 -0.00044257 -4.07383e-17)
(0.999819 -0.000397437 2.43512e-16)
(0.99979 -0.000341815 -7.70393e-17)
(0.999727 -0.000329624 5.56459e-17)
(0.999634 -0.000402357 3.57265e-17)
(0.999524 -0.000579987 -1.39485e-16)
(0.999413 -0.000864218 2.11006e-16)
(0.999318 -0.00123973 1.35264e-16)
(0.999252 -0.00168471 -1.28138e-17)
(0.999225 -0.00217255 2.76893e-16)
(0.999243 -0.00268049 2.78589e-16)
(0.999308 -0.00318947 2.22473e-16)
(0.999414 -0.00368746 6.3315e-17)
(0.999566 -0.00417516 -1.02818e-16)
(0.999709 -0.00465222 2.5038e-17)
(0.999944 -0.0051406 -1.78441e-16)
(0.99979 -0.00585408 1.86925e-16)
(0.999994 -0.00609379 -4.90779e-17)
(0.997058 -0.00607223 -6.3722e-17)
(1.00017 0.000143261 -1.08168e-17)
(1.00019 0.000489318 4.58444e-18)
(1.0002 0.000770993 4.24976e-17)
(1.00018 0.000925921 1.26925e-16)
(1.00013 0.000910885 1.14394e-17)
(1.00005 0.00072095 1.51556e-17)
(0.999966 0.000401728 -1.1372e-16)
(0.999889 3.08349e-05 -4.91942e-18)
(0.999839 -0.000302049 -9.21857e-17)
(0.999825 -0.000528091 -3.47724e-17)
(0.999839 -0.000616567 5.22149e-17)
(0.999866 -0.000580784 -3.37252e-17)
(0.999891 -0.000467587 -1.02477e-16)
(0.999897 -0.000339845 6.45297e-17)
(0.999878 -0.000257077 4.28821e-18)
(0.999834 -0.000263814 1.72405e-16)
(0.999776 -0.000381916 -5.04448e-17)
(0.999715 -0.000613579 -9.61189e-17)
(0.999664 -0.000943889 -1.3554e-16)
(0.999634 -0.00135072 -3.96791e-16)
(0.999635 -0.00180753 -8.86095e-17)
(0.999669 -0.00229105 -2.54772e-16)
(0.99974 -0.00278202 -2.38556e-16)
(0.99984 -0.0032684 -1.98136e-16)
(0.999974 -0.00374792 2.79017e-16)
(1.00009 -0.00422761 -1.70371e-16)
(1.00024 -0.00471412 1.06462e-16)
(1.0001 -0.0054042 1.24651e-16)
(1.00002 -0.00556419 -1.24024e-16)
(0.99803 -0.00510123 3.515e-17)
(1.00026 0.000205485 2.02599e-18)
(1.00028 0.000533943 -5.55544e-18)
(1.00028 0.000779196 -4.10179e-18)
(1.00025 0.000881715 -2.49398e-18)
(1.00017 0.000806334 -6.85349e-17)
(1.00006 0.000558115 1.6725e-17)
(0.999931 0.00019184 -3.68055e-17)
(0.999802 -0.000211887 -5.78233e-17)
(0.999694 -0.000565433 1.17411e-16)
(0.999617 -0.000806028 -3.12731e-17)
(0.999574 -0.000909335 1.29347e-16)
(0.999556 -0.000892905 1.3794e-16)
(0.999552 -0.000804715 -1.22808e-16)
(0.99955 -0.000705926 -1.26769e-16)
(0.999545 -0.000653001 -1.97447e-16)
(0.999535 -0.000687091 -1.71505e-16)
(0.999524 -0.000827705 3.63755e-17)
(0.99952 -0.00107559 -6.47453e-17)
(0.999531 -0.00141567 3.51801e-16)
(0.999564 -0.00182607 8.34952e-17)
(0.999624 -0.00228098 -2.88011e-16)
(0.999714 -0.00275738 -1.0047e-16)
(0.999834 -0.00323568 6.00915e-17)
(0.999977 -0.00370292 8.85466e-17)
(1.00015 -0.0041515 -1.85386e-16)
(1.00029 -0.00458449 1.5028e-16)
(1.00043 -0.0049941 4.73546e-17)
(1.00035 -0.00552349 -2.36791e-16)
(1.00015 -0.0054805 5.62751e-17)
(0.999253 -0.00421377 1.00462e-17)
(1.00034 0.000239259 -2.24375e-18)
(1.00036 0.000526547 8.53737e-18)
(1.00036 0.000725699 -6.94516e-17)
(1.00032 0.000785015 -2.79197e-17)
(1.00024 0.000677133 4.33732e-17)
(1.00011 0.000411754 1.25371e-16)
(0.999943 4.35338e-05 1.29694e-16)
(0.999767 -0.000353834 8.7702e-18)
(0.999598 -0.000703056 1.61859e-17)
(0.999454 -0.000951868 1.15948e-16)
(0.999341 -0.00108266 -1.02037e-16)
(0.999263 -0.00111416 -1.63864e-16)
(0.999215 -0.00109017 4.92567e-17)
(0.999191 -0.00106415 2.0605e-16)
(0.999188 -0.00108379 4.27527e-16)
(0.999203 -0.00118226 -1.12716e-18)
(0.999238 -0.00137329 7.16781e-17)
(0.999294 -0.00165397 2.70053e-16)
(0.999376 -0.00200775 -2.88506e-16)
(0.999484 -0.00241239 2.00715e-16)
(0.999622 -0.0028425 2.66743e-16)
(0.999787 -0.00327513 1.62307e-16)
(0.999979 -0.00369004 1.28405e-16)
(1.00019 -0.00407291 -1.21392e-17)
(1.00041 -0.00441154 -4.65195e-17)
(1.00061 -0.00470225 1.68959e-16)
(1.00077 -0.00492853 7.90009e-17)
(1.00076 -0.00519891 1.19427e-16)
(1.00048 -0.00490725 5.53797e-17)
(1.00018 -0.00312501 -4.47455e-17)
(1.00041 0.000251486 3.2186e-18)
(1.00044 0.000491396 1.50987e-17)
(1.00045 0.000649993 3.62464e-17)
(1.00043 0.000684957 3.4175e-17)
(1.00036 0.000576116 1.08143e-16)
(1.00025 0.000334208 -7.41993e-17)
(1.00009 8.12902e-06 -9.83423e-17)
(0.999905 -0.000340858 6.2289e-17)
(0.999712 -0.000650176 -1.1754e-16)
(0.99953 -0.000880237 -4.35902e-17)
(0.999375 -0.00102028 -2.37503e-16)
(0.999255 -0.00108877 1.62916e-16)
(0.999175 -0.00112301 8.25551e-17)
(0.999135 -0.00116616 1.162e-17)
(0.999135 -0.00125479 -2.43428e-16)
(0.999171 -0.00141224 4.10809e-17)
(0.999244 -0.00164517 -8.32976e-17)
(0.999352 -0.00194632 -3.25196e-16)
(0.999494 -0.00229745 -4.69039e-18)
(0.999667 -0.00267627 -3.09153e-16)
(0.99987 -0.00305856 -3.03589e-16)
(1.0001 -0.00342282 -1.34494e-16)
(1.00035 -0.00375019 -1.08446e-16)
(1.0006 -0.00402792 -1.2092e-16)
(1.00086 -0.00424474 -6.73849e-17)
(1.00107 -0.00439672 -3.95314e-16)
(1.00124 -0.00447027 1.44269e-17)
(1.00126 -0.0045628 1.43356e-16)
(1.00092 -0.00416655 1.59976e-17)
(1.00074 -0.00229743 4.48132e-17)
(1.00046 0.000247317 1.23971e-17)
(1.00051 0.000441019 -2.9959e-17)
(1.00055 0.000569064 -4.35254e-17)
(1.00057 0.000597446 -2.71098e-17)
(1.00055 0.00051215 -3.13687e-17)
(1.00048 0.000322575 -3.98826e-17)
(1.00036 6.88241e-05 7.2395e-17)
(1.0002 -0.000202636 -1.61301e-16)
(1.00002 -0.00044544 -6.61464e-17)
(0.999842 -0.000632999 1.31594e-16)
(0.999677 -0.000761105 1.97691e-16)
(0.999543 -0.00084738 -8.83177e-17)
(0.999451 -0.000922139 -2.41229e-16)
(0.999406 -0.001018 -1.01599e-16)
(0.999411 -0.00116042 5.33938e-18)
(0.999463 -0.00136313 9.70065e-18)
(0.999563 -0.00162613 3.86177e-17)
(0.999705 -0.0019383 -5.1117e-17)
(0.999885 -0.00228042 2.46571e-16)
(1.0001 -0.00263107 2.08133e-16)
(1.00034 -0.00296841 1.94097e-16)
(1.0006 -0.00327401 5.4398e-17)
(1.00087 -0.0035326 -1.20788e-16)
(1.00113 -0.00373551 -6.27071e-17)
(1.00139 -0.00387611 1.48245e-16)
(1.00159 -0.00395393 2.57362e-16)
(1.00172 -0.00396167 -2.51928e-16)
(1.00174 -0.00398911 -2.24672e-16)
(1.00137 -0.00360493 3.30233e-17)
(1.00108 -0.00183867 -2.28069e-17)
(1.0005 0.000230595 3.64807e-19)
(1.00057 0.000382927 1.1553e-17)
(1.00065 0.000490315 5.16897e-17)
(1.00071 0.000524299 -8.66606e-19)
(1.00075 0.000475705 -4.8821e-17)
(1.00074 0.000351096 -6.04156e-18)
(1.00068 0.00018064 -5.72537e-17)
(1.00057 -4.06513e-06 8.64075e-17)
(1.00043 -0.000172189 1.12167e-17)
(1.00028 -0.00030899 -1.3668e-16)
(1.00013 -0.000415891 -2.1888e-16)
(1 -0.0005093 -1.16143e-16)
(0.999915 -0.000612918 2.04923e-16)
(0.999874 -0.000749707 1.66791e-16)
(0.999886 -0.00093525 -1.21268e-16)
(0.999949 -0.00117494 -2.7836e-16)
(1.00006 -0.00146328 4.07928e-17)
(1.00022 -0.00178633 2.43249e-16)
(1.00042 -0.00212469 -2.51595e-16)
(1.00065 -0.00245853 1.57409e-16)
(1.00089 -0.00276907 -1.48565e-16)
(1.00116 -0.00304157 -2.81129e-17)
(1.00142 -0.00326484 9.40126e-17)
(1.00167 -0.00343445 1.47468e-16)
(1.0019 -0.00354809 -2.7192e-17)
(1.00207 -0.00360725 -1.61514e-16)
(1.00215 -0.0036073 -3.32117e-17)
(1.00215 -0.00362621 7.21123e-18)
(1.00177 -0.00328199 -8.08712e-18)
(1.00134 -0.00163661 -1.17489e-17)
(1.00053 0.000205734 -2.67239e-18)
(1.00062 0.000322719 6.97637e-18)
(1.00073 0.000417284 -1.75202e-17)
(1.00084 0.000462748 -7.92974e-18)
(1.00093 0.000453248 -5.40802e-17)
(1.00098 0.000391767 -1.54439e-17)
(1.00098 0.000298793 7.92733e-18)
(1.00093 0.000192546 -6.33684e-17)
(1.00084 9.04479e-05 -3.43903e-17)
(1.00073 -2.45549e-06 2.26718e-17)
(1.00061 -9.17909e-05 5.17461e-17)
(1.0005 -0.000192332 1.16042e-16)
(1.00043 -0.000321778 7.90603e-18)
(1.0004 -0.000494769 -3.2873e-16)
(1.00042 -0.000718642 -6.56867e-17)
(1.00049 -0.000992086 4.26857e-17)
(1.00061 -0.00130544 1.68171e-16)
(1.00077 -0.00164293 -6.41835e-17)
(1.00097 -0.00198558 1.36572e-16)
(1.0012 -0.00231539 1.75616e-16)
(1.00144 -0.00261652 1.06612e-16)
(1.00169 -0.00287753 -6.0058e-17)
(1.00193 -0.00309047 -1.32946e-16)
(1.00215 -0.00325362 1.1501e-16)
(1.00235 -0.00336678 -1.06723e-16)
(1.00247 -0.00343036 2.94423e-16)
(1.00251 -0.00343855 -3.63524e-17)
(1.00249 -0.00345645 2.66525e-17)
(1.00212 -0.00313337 -9.44668e-17)
(1.00156 -0.00156994 1.2263e-17)
(1.00055 0.000176726 -1.22274e-17)
(1.00067 0.000263815 -5.13539e-18)
(1.0008 0.000350664 -2.39727e-18)
(1.00094 0.000408126 3.65447e-17)
(1.00107 0.000432221 8.83549e-17)
(1.00117 0.000422242 1.06092e-16)
(1.00122 0.000390161 9.40813e-17)
(1.00122 0.000343192 1.44143e-19)
(1.00118 0.000288219 1.19422e-16)
(1.00111 0.000223185 -3.16725e-17)
(1.00102 0.000139931 -2.27272e-18)
(1.00094 2.57915e-05 1.75507e-16)
(1.00089 -0.000131565 2.03111e-16)
(1.00088 -0.000339833 4.92958e-17)
(1.00091 -0.000599766 1.40904e-16)
(1.00099 -0.00090493 2.68172e-17)
(1.00111 -0.00124274 -9.24394e-17)
(1.00128 -0.00159641 1.5473e-16)
(1.00147 -0.00194767 5.37168e-17)
(1.00169 -0.0022803 -3.76808e-16)
(1.00192 -0.00258087 6.33169e-17)
(1.00214 -0.00284034 9.20303e-17)
(1.00236 -0.00305274 1.33816e-17)
(1.00256 -0.00321738 -1.79699e-16)
(1.00272 -0.00333408 7.57389e-17)
(1.00281 -0.00340033 -2.48505e-16)
(1.00281 -0.00340756 1.39195e-16)
(1.00277 -0.00341071 -7.29579e-17)
(1.00242 -0.00308035 -2.89495e-17)
(1.00179 -0.00155121 1.66078e-18)
(1.00057 0.00014675 8.78006e-18)
(1.0007 0.000208239 -1.22169e-17)
(1.00084 0.000289582 2.86415e-17)
(1.001 0.000355744 -2.38135e-17)
(1.00116 0.000403293 -8.54377e-17)
(1.00129 0.000428202 -4.16459e-17)
(1.00138 0.000435596 -1.89201e-16)
(1.00143 0.000424394 1.00048e-16)
(1.00142 0.000393975 -1.38679e-17)
(1.00139 0.000337786 1.17511e-17)
(1.00134 0.00024675 3.00797e-17)
(1.00129 0.000110743 -2.36407e-16)
(1.00126 -7.77975e-05 -1.70974e-16)
(1.00127 -0.000320912 2.03512e-16)
(1.00132 -0.000614274 2.9231e-17)
(1.0014 -0.000947753 8.39463e-17)
(1.00153 -0.00130689 -1.72561e-16)
(1.0017 -0.00167452 -1.31802e-16)
(1.00189 -0.00203327 9.97329e-17)
(1.0021 -0.00236845 1.20454e-16)
(1.00231 -0.00266852 -1.61069e-16)
(1.00252 -0.00292598 -8.97785e-17)
(1.00272 -0.00313584 1.29878e-16)
(1.00289 -0.00329726 5.98038e-17)
(1.00302 -0.00340907 8.9478e-17)
(1.00308 -0.00346542 4.49441e-17)
(1.00306 -0.00345537 4.05587e-17)
(1.00302 -0.00342761 1.73492e-16)
(1.00268 -0.00306769 -5.19747e-17)
(1.00201 -0.00153653 -2.31846e-17)
(1.00059 0.000117244 -2.63042e-18)
(1.00072 0.000156453 3.93415e-17)
(1.00087 0.000231972 2.65454e-17)
(1.00104 0.000301185 -2.55448e-18)
(1.0012 0.000360114 -6.49042e-18)
(1.00135 0.000402098 6.32882e-17)
(1.00147 0.000427264 7.71229e-17)
(1.00154 0.000428873 -7.07135e-17)
(1.00157 0.00040161 -8.06845e-17)
(1.00157 0.000336716 -3.01365e-17)
(1.00155 0.000225574 -1.37736e-17)
(1.00154 6.08934e-05 1.54535e-16)
(1.00154 -0.000160708 -2.77472e-16)
(1.00156 -0.00043678 -4.43922e-17)
(1.00163 -0.000759235 -4.49362e-17)
(1.00173 -0.00111546 6.96502e-17)
(1.00187 -0.00148999 1.68783e-16)
(1.00204 -0.0018658 2.76465e-16)
(1.00222 -0.00222654 -3.50706e-16)
(1.00242 -0.00255891 2.25278e-17)
(1.00263 -0.00285276 1.87268e-16)
(1.00283 -0.00310162 1.37492e-16)
(1.00301 -0.00330084 2.58403e-18)
(1.00316 -0.00344899 4.99002e-17)
(1.00327 -0.00354364 1.65261e-16)
(1.00332 -0.00357614 1.30404e-16)
(1.00328 -0.00353417 2.3902e-16)
(1.00323 -0.00346349 -1.64736e-17)
(1.00291 -0.00306035 8.59213e-17)
(1.00222 -0.00150129 1.99391e-17)
(1.00061 8.9171e-05 -4.41957e-18)
(1.00073 0.000108256 -2.2349e-17)
(1.00088 0.000175517 -3.82485e-17)
(1.00105 0.000240986 4.11642e-18)
(1.00121 0.000299207 6.00894e-17)
(1.00137 0.000341709 2.63196e-17)
(1.0015 0.000365423 -6.16446e-18)
(1.00159 0.000360288 3.7379e-17)
(1.00164 0.000318649 6.7262e-17)
(1.00167 0.000231379 3.75153e-17)
(1.00168 9.1321e-05 4.06694e-17)
(1.00169 -0.000105874 -2.53931e-19)
(1.00172 -0.000360002 8.1782e-17)
(1.00177 -0.000665171 4.41623e-17)
(1.00186 -0.00101065 9.47676e-17)
(1.00198 -0.00138237 -6.02837e-17)
(1.00213 -0.00176457 1.75357e-18)
(1.0023 -0.0021408 -1.25606e-16)
(1.00249 -0.00249584 -7.1028e-17)
(1.00269 -0.00281765 -4.09085e-18)
(1.00289 -0.00309728 5.53802e-17)
(1.00308 -0.00332898 -1.28772e-16)
(1.00325 -0.0035082 -4.75094e-17)
(1.00338 -0.00363285 -6.99094e-17)
(1.00348 -0.00369949 -1.51889e-16)
(1.00352 -0.00369748 -6.25702e-17)
(1.00348 -0.00361413 -3.67944e-16)
(1.00342 -0.0034945 -1.55459e-16)
(1.00312 -0.00304221 -2.00361e-17)
(1.00243 -0.00144141 2.5661e-17)
(1.00063 6.28508e-05 -3.49258e-18)
(1.00074 6.26424e-05 -1.94337e-17)
(1.00088 0.00011774 -2.92305e-18)
(1.00104 0.000172392 -4.74998e-17)
(1.0012 0.000218978 4.89293e-18)
(1.00135 0.000248058 -6.36344e-18)
(1.00148 0.000254961 1.69074e-17)
(1.00158 0.000228204 3.73591e-17)
(1.00165 0.00015961 -6.19236e-17)
(1.0017 4.09883e-05 3.18097e-17)
(1.00174 -0.000132717 6.34493e-17)
(1.00179 -0.000363012 -4.45495e-17)
(1.00184 -0.000646722 1.59105e-16)
(1.00192 -0.000975437 -1.47097e-17)
(1.00203 -0.00133674 -2.23877e-16)
(1.00217 -0.00171591 -1.37374e-16)
(1.00233 -0.0020975 -5.89295e-17)
(1.00251 -0.00246596 -6.5194e-17)
(1.00271 -0.00280728 1.84559e-16)
(1.00291 -0.00311071 -1.2369e-17)
(1.0031 -0.00336833 -2.15819e-16)
(1.00329 -0.00357499 1.84724e-16)
(1.00345 -0.00372625 1.83948e-16)
(1.00358 -0.00381948 7.36731e-17)
(1.00367 -0.00385057 -9.29235e-17)
(1.0037 -0.00380765 -7.5541e-18)
(1.00365 -0.00367827 2.93555e-16)
(1.0036 -0.003508 2.05144e-16)
(1.0033 -0.00300546 -1.69949e-17)
(1.00262 -0.00135447 -2.5616e-17)
(1.00065 3.83952e-05 4.50685e-18)
(1.00074 1.86391e-05 3.42426e-17)
(1.00087 5.6691e-05 -2.11402e-17)
(1.00102 9.37925e-05 3.98493e-17)
(1.00117 0.000119603 -1.40592e-17)
(1.00131 0.000124445 -1.21745e-16)
(1.00144 0.00010337 2.01484e-17)
(1.00155 4.491e-05 -1.15373e-16)
(1.00163 -5.83608e-05 -3.88464e-17)
(1.0017 -0.00021286 -6.69485e-17)
(1.00177 -0.000421267 -1.53407e-16)
(1.00184 -0.000682505 -3.59588e-17)
(1.00192 -0.000991048 3.24099e-17)
(1.00203 -0.00133679 -4.33969e-17)
(1.00216 -0.00170639 3.20099e-16)
(1.00232 -0.00208516 2.48673e-17)
(1.00249 -0.00245837 4.00238e-17)
(1.00269 -0.00281166 9.25207e-17)
(1.00289 -0.00313232 -2.87021e-17)
(1.00309 -0.00341084 1.61107e-16)
(1.00329 -0.0036403 7.32548e-17)
(1.00347 -0.00381613 7.87059e-17)
(1.00363 -0.00393404 -1.88304e-16)
(1.00375 -0.00399107 3.45301e-17)
(1.00383 -0.00398272 2.58463e-17)
(1.00385 -0.00389643 -1.5007e-16)
(1.0038 -0.00372034 -7.39962e-17)
(1.00375 -0.00350111 -4.3162e-17)
(1.00347 -0.00295044 3.86246e-17)
(1.0028 -0.00124732 -1.9664e-18)
(1.00066 1.51812e-05 -6.30205e-18)
(1.00074 -2.50336e-05 -1.17994e-17)
(1.00086 -9.18795e-06 5.33918e-17)
(1.00099 4.36046e-06 -6.07151e-17)
(1.00113 2.26293e-06 -2.27602e-17)
(1.00126 -2.4815e-05 6.29583e-17)
(1.00139 -8.10942e-05 -7.30208e-17)
(1.0015 -0.000177025 1.0233e-16)
(1.0016 -0.000318488 1.33516e-16)
(1.00169 -0.000509711 1.11247e-17)
(1.00177 -0.000750989 1.07602e-16)
(1.00187 -0.00103905 -8.36207e-17)
(1.00198 -0.00136661 -1.21478e-16)
(1.00211 -0.00172257 -5.33338e-17)
(1.00227 -0.00209331 -4.51136e-17)
(1.00244 -0.00246466 1.66988e-16)
(1.00263 -0.00282293 -6.63745e-17)
(1.00284 -0.00315511 -1.72554e-16)
(1.00304 -0.00344982 3.90622e-17)
(1.00325 -0.0036988 -2.66785e-16)
(1.00345 -0.00389606 4.12142e-18)
(1.00363 -0.00403764 -2.57747e-16)
(1.00378 -0.00411938 2.1679e-16)
(1.0039 -0.00413819 -1.22072e-16)
(1.00398 -0.00408935 -4.12931e-17)
(1.004 -0.00395994 6.89228e-17)
(1.00394 -0.00373876 -3.05165e-17)
(1.00389 -0.00347365 -1.23724e-16)
(1.00361 -0.00287812 1.32796e-17)
(1.00297 -0.0011217 5.01512e-18)
(1.00067 -7.12691e-06 4.86027e-18)
(1.00073 -6.92099e-05 -1.55056e-17)
(1.00084 -8.06216e-05 1.95086e-19)
(1.00096 -9.56497e-05 9.91879e-17)
(1.00108 -0.000130792 6.41174e-17)
(1.00121 -0.00019466 -5.48136e-18)
(1.00133 -0.000290028 1.73477e-16)
(1.00145 -0.000425706 -5.87547e-17)
(1.00156 -0.000605627 -1.15536e-16)
(1.00166 -0.000831723 -4.13917e-17)
(1.00177 -0.00110211 -6.60833e-17)
(1.00189 -0.00141175 -7.81033e-17)
(1.00203 -0.00175221 9.17025e-17)
(1.00218 -0.00211195 1.62397e-16)
(1.00235 -0.00247754 -3.21895e-17)
(1.00254 -0.00283572 2.28421e-17)
(1.00275 -0.00317403 -4.57259e-17)
(1.00296 -0.00348088 1.13085e-16)
(1.00318 -0.00374624 -1.00312e-16)
(1.00339 -0.00396303 1.32489e-16)
(1.00359 -0.00412614 -3.90852e-17)
(1.00377 -0.00423218 -1.56967e-17)
(1.00392 -0.00427719 -6.36399e-17)
(1.00403 -0.00425797 8.79644e-17)
(1.00411 -0.00416971 6.9834e-17)
(1.00412 -0.00399929 6.72445e-17)
(1.00407 -0.00373614 -3.40963e-17)
(1.00402 -0.00342922 7.25617e-17)
(1.00375 -0.00279284 2.45358e-17)
(1.00312 -0.000985332 5.94199e-18)
(1.00067 -2.89618e-05 -4.4466e-18)
(1.00071 -0.000114763 -1.17621e-17)
(1.00081 -0.000157844 -1.64867e-17)
(1.00092 -0.000205389 -5.37821e-17)
(1.00104 -0.000276885 -2.58656e-18)
(1.00116 -0.000380029 6.46175e-17)
(1.00128 -0.000515707 -1.24119e-16)
(1.0014 -0.00069077 3.25737e-17)
(1.00152 -0.000907091 7.82826e-17)
(1.00164 -0.00116444 7.20846e-17)
(1.00177 -0.00145905 6.38289e-17)
(1.00191 -0.00178465 -3.17568e-18)
(1.00207 -0.00213208 1.99332e-17)
(1.00224 -0.00248988 -1.59244e-16)
(1.00243 -0.00284518 1.77242e-16)
(1.00264 -0.00318583 -7.24905e-17)
(1.00286 -0.00350071 -7.13394e-18)
(1.00308 -0.00377967 -6.20395e-17)
(1.0033 -0.00401397 8.52632e-17)
(1.00351 -0.00419762 -1.03204e-16)
(1.00371 -0.00432633 -9.59294e-17)
(1.00389 -0.0043972 7.17362e-17)
(1.00404 -0.00440643 -2.05136e-16)
(1.00415 -0.00435077 -1.37908e-16)
(1.00422 -0.00422533 6.0036e-17)
(1.00424 -0.00401684 -1.2043e-16)
(1.00418 -0.00371519 -4.44155e-17)
(1.00413 -0.00337034 1.31829e-17)
(1.00387 -0.00269671 -4.4434e-18)
(1.00326 -0.000838943 -2.66886e-17)
(1.00066 -5.03742e-05 1.41338e-18)
(1.00069 -0.000161948 2.39555e-17)
(1.00078 -0.000240343 -4.58254e-17)
(1.00088 -0.000323225 4.93471e-17)
(1.00099 -0.00043279 -1.40557e-17)
(1.00111 -0.000575809 -1.24625e-16)
(1.00123 -0.000751049 4.12864e-17)
(1.00136 -0.000963316 -2.73466e-17)
(1.00149 -0.00121253 -3.43505e-17)
(1.00162 -0.00149654 -3.15557e-17)
(1.00177 -0.00181012 3.38047e-17)
(1.00193 -0.00214617 1.43355e-16)
(1.00211 -0.00249528 -8.00943e-17)
(1.0023 -0.00284643 9.51608e-17)
(1.00251 -0.00318752 -1.72709e-16)
(1.00272 -0.00350766 -7.14526e-17)
(1.00295 -0.0037971 1.05254e-16)
(1.00318 -0.00404708 9.16759e-17)
(1.00341 -0.00425004 -5.59043e-17)
(1.00362 -0.00440096 2.55214e-16)
(1.00382 -0.00449629 2.57191e-16)
(1.004 -0.00453354 -1.24399e-16)
(1.00414 -0.00450902 1.70371e-16)
(1.00425 -0.0044194 6.94759e-17)
(1.00432 -0.00425971 -1.31284e-16)
(1.00433 -0.00401651 9.31715e-17)
(1.00428 -0.00368008 1.82549e-16)
(1.00424 -0.00330121 3.7044e-17)
(1.00398 -0.00259387 -2.38204e-17)
(1.00339 -0.000688845 1.87107e-17)
(1.00064 -7.16584e-05 1.21155e-17)
(1.00067 -0.000211055 3.3259e-18)
(1.00075 -0.000327324 3.38773e-17)
(1.00084 -0.000447293 -4.54937e-17)
(1.00095 -0.000595317 2.87637e-17)
(1.00106 -0.00077736 -1.69622e-17)
(1.00119 -0.000990035 6.90421e-17)
(1.00132 -0.00123618 -2.44024e-17)
(1.00146 -0.00151397 -3.33164e-17)
(1.00161 -0.00181972 -4.07952e-17)
(1.00178 -0.00214708 -1.30529e-16)
(1.00195 -0.00248857 4.40916e-17)
(1.00214 -0.00283489 2.58113e-17)
(1.00235 -0.00317569 4.59548e-17)
(1.00257 -0.00349982 -1.98731e-17)
(1.0028 -0.00379769 6.82e-17)
(1.00304 -0.00406088 -1.53808e-16)
(1.00327 -0.00428193 -1.69276e-16)
(1.0035 -0.0044543 2.61856e-18)
(1.00371 -0.00457388 -1.69695e-16)
(1.00391 -0.00463767 3.45227e-18)
(1.00409 -0.00464352 1.16837e-16)
(1.00423 -0.00458779 -8.32633e-17)
(1.00434 -0.00446702 8.87135e-18)
(1.00441 -0.00427611 5.89105e-17)
(1.00442 -0.00400144 -3.29993e-17)
(1.00437 -0.00363353 -1.89623e-16)
(1.00433 -0.00322383 -9.37157e-17)
(1.00408 -0.00248555 2.69107e-17)
(1.00351 -0.000534139 2.04236e-17)
(1.00061 -9.26712e-05 -8.66119e-18)
(1.00063 -0.000261783 9.37349e-18)
(1.00071 -0.000417517 -1.30099e-17)
(1.0008 -0.000575335 2.99855e-17)
(1.0009 -0.000761146 -3.64194e-17)
(1.00102 -0.000980342 -2.31667e-17)
(1.00115 -0.00122746 -9.26419e-17)
(1.00129 -0.00150354 1.05253e-16)
(1.00144 -0.00180535 1.46712e-16)
(1.0016 -0.00212798 3.46566e-17)
(1.00178 -0.00246439 2.48912e-17)
(1.00197 -0.00280703 -1.66023e-17)
(1.00218 -0.003147 2.18252e-17)
(1.0024 -0.0034748 -7.23684e-18)
(1.00263 -0.00378029 1.1444e-16)
(1.00287 -0.00405518 4.62363e-17)
(1.00311 -0.00429228 5.86343e-17)
(1.00335 -0.00448531 9.84412e-18)
(1.00358 -0.00462864 1.38018e-16)
(1.00379 -0.00471886 8.50849e-17)
(1.00399 -0.00475347 -1.2777e-16)
(1.00417 -0.00473054 -9.30675e-17)
(1.00431 -0.00464638 6.67244e-17)
(1.00441 -0.0044974 1.57986e-17)
(1.00448 -0.00427832 1.27321e-17)
(1.00449 -0.00397529 -1.20135e-17)
(1.00445 -0.00357902 1.08288e-16)
(1.00441 -0.00314153 4.82393e-17)
(1.00417 -0.00237495 -1.25141e-16)
(1.00362 -0.000379944 -2.85142e-18)
(1.00056 -0.000113423 3.96493e-18)
(1.00059 -0.000313962 3.53182e-18)
(1.00066 -0.000509659 2.90682e-17)
(1.00075 -0.000705235 -1.42044e-17)
(1.00085 -0.000927354 -5.62677e-17)
(1.00097 -0.00118113 5.74528e-18)
(1.00111 -0.00145921 -9.73808e-17)
(1.00126 -0.0017611 2.44239e-17)
(1.00142 -0.00208243 -1.09781e-16)
(1.0016 -0.00241746 -3.54452e-17)
(1.00179 -0.00275877 -2.55205e-17)
(1.00199 -0.00309906 3.79317e-17)
(1.00221 -0.00342998 -2.80119e-17)
(1.00244 -0.00374304 5.14206e-18)
(1.00268 -0.0040291 -2.95146e-17)
(1.00292 -0.00428109 -1.14801e-16)
(1.00317 -0.00449297 -1.01531e-17)
(1.00341 -0.00465948 8.29034e-17)
(1.00364 -0.00477574 -9.56728e-17)
(1.00386 -0.00483895 7.00683e-17)
(1.00406 -0.00484692 -1.72336e-16)
(1.00423 -0.00479789 9.92315e-17)
(1.00437 -0.00468806 -1.40301e-16)
(1.00448 -0.00451363 4.82969e-17)
(1.00454 -0.0042691 -4.01323e-17)
(1.00456 -0.00394041 8.45575e-19)
(1.00451 -0.00351831 -6.32031e-17)
(1.00448 -0.00305531 -6.26881e-17)
(1.00425 -0.0022623 6.16281e-17)
(1.00372 -0.000224142 6.27529e-18)
(1.0005 -0.000133594 -1.03875e-17)
(1.00054 -0.000366927 -3.76982e-17)
(1.0006 -0.000602285 -3.05758e-17)
(1.00069 -0.000834806 1.36204e-17)
(1.0008 -0.00109117 1.6081e-17)
(1.00092 -0.00137655 9.04945e-17)
(1.00106 -0.00168195 1.50024e-16)
(1.00122 -0.00200557 -1.73699e-16)
(1.0014 -0.00234226 2.64625e-17)
(1.00158 -0.00268576 -2.02953e-17)
(1.00179 -0.00302854 1.72323e-16)
(1.002 -0.00336376 -6.44107e-17)
(1.00223 -0.0036838 -1.85079e-17)
(1.00247 -0.00398117 1.25134e-17)
(1.00272 -0.00424773 -1.47359e-16)
(1.00297 -0.00447755 4.43408e-17)
(1.00322 -0.00466558 3.22731e-17)
(1.00346 -0.00480745 2.17447e-17)
(1.00369 -0.0048989 3.55252e-17)
(1.00391 -0.00493756 -4.07013e-17)
(1.00411 -0.00492151 4.80377e-17)
(1.00428 -0.00484904 -8.38286e-17)
(1.00442 -0.00471618 1.21445e-16)
(1.00453 -0.00451889 1.09514e-16)
(1.0046 -0.00425146 1.47491e-16)
(1.00461 -0.00389954 -8.2117e-18)
(1.00457 -0.00345393 2.35134e-17)
(1.00455 -0.00296762 8.29468e-18)
(1.00432 -0.00215001 -2.24853e-17)
(1.00382 -7.10746e-05 -1.60738e-17)
(1.00043 -0.000153175 8.84874e-18)
(1.00047 -0.000420301 2.33835e-17)
(1.00054 -0.000694169 -3.22332e-18)
(1.00063 -0.000962257 8.7113e-18)
(1.00074 -0.00125042 -3.12519e-18)
(1.00087 -0.00156422 -5.88788e-17)
(1.00102 -0.00189331 -2.87152e-18)
(1.00119 -0.00223486 6.67568e-17)
(1.00137 -0.0025832 9.04792e-17)
(1.00157 -0.00293182 1.64478e-16)
(1.00178 -0.00327333 5.49123e-17)
(1.00201 -0.0036015 5.64855e-17)
(1.00225 -0.0039095 -5.24131e-17)
(1.00249 -0.00419088 -8.61696e-17)
(1.00275 -0.00443839 2.21473e-16)
(1.003 -0.00464718 1.0911e-16)
(1.00325 -0.00481303 -2.02489e-16)
(1.0035 -0.00493234 -1.12148e-16)
(1.00373 -0.00500128 -2.00576e-16)
(1.00395 -0.00501787 -8.73145e-17)
(1.00414 -0.00498029 9.86019e-17)
(1.00432 -0.00488685 1.63296e-16)
(1.00446 -0.00473333 -2.34155e-16)
(1.00457 -0.00451545 -4.51996e-17)
(1.00464 -0.00422724 -1.24778e-16)
(1.00466 -0.0038541 3.98464e-17)
(1.00463 -0.00338676 -8.03832e-17)
(1.00461 -0.00287866 -7.50753e-17)
(1.0044 -0.00203764 2.76719e-17)
(1.00392 8.21305e-05 -9.94856e-18)
(1.00036 -0.00017187 1.43505e-18)
(1.0004 -0.000473318 1.66797e-17)
(1.00047 -0.000784063 2.10778e-17)
(1.00056 -0.00108591 -3.60713e-17)
(1.00068 -0.00140322 2.18982e-17)
(1.00081 -0.00174225 3.26921e-17)
(1.00097 -0.00209159 -4.96523e-17)
(1.00115 -0.00244761 4.95314e-17)
(1.00134 -0.00280441 7.90885e-18)
(1.00155 -0.00315543 -1.81393e-16)
(1.00177 -0.00349359 -7.24728e-17)
(1.00201 -0.00381338 -8.62295e-17)
(1.00225 -0.0041088 1.29857e-17)
(1.0025 -0.00437439 6.66009e-17)
(1.00276 -0.00460375 -1.22588e-16)
(1.00302 -0.00479294 -5.56477e-17)
(1.00327 -0.00493846 1.79595e-16)
(1.00352 -0.00503735 1.85457e-16)
(1.00375 -0.00508612 2.84205e-17)
(1.00397 -0.005083 1.45427e-16)
(1.00417 -0.00502626 -7.94368e-17)
(1.00434 -0.00491411 7.82083e-18)
(1.00449 -0.00474212 3.36713e-16)
(1.0046 -0.0045057 -1.20479e-16)
(1.00468 -0.00419864 -2.67598e-17)
(1.0047 -0.00380605 -5.05327e-17)
(1.00468 -0.00331865 -1.03481e-17)
(1.00467 -0.00279031 1.97607e-16)
(1.00447 -0.00192715 3.42339e-17)
(1.00401 0.00023143 1.80543e-17)
(1.00027 -0.000189703 -2.51639e-18)
(1.00032 -0.000525627 -2.47435e-17)
(1.00039 -0.000871087 8.80025e-20)
(1.00048 -0.00120461 -1.29294e-17)
(1.0006 -0.00154832 -1.45128e-17)
(1.00075 -0.00190948 -4.22348e-17)
(1.00091 -0.00227588 -7.03504e-18)
(1.0011 -0.00264335 -7.41658e-17)
(1.0013 -0.00300592 -1.31476e-16)
(1.00152 -0.00335719 1.00203e-16)
(1.00175 -0.00369049 -2.02108e-16)
(1.00199 -0.00400111 2.62212e-17)
(1.00225 -0.00428387 2.21194e-17)
(1.0025 -0.00453425 5.42117e-17)
(1.00277 -0.00474658 -4.31133e-17)
(1.00303 -0.00491775 -1.77854e-17)
(1.00328 -0.00504486 2.04744e-17)
(1.00353 -0.00512543 -1.89433e-16)
(1.00377 -0.00515621 1.26658e-16)
(1.00399 -0.00513559 -1.60401e-17)
(1.00419 -0.00506181 5.33413e-17)
(1.00436 -0.00493298 1.37927e-16)
(1.00451 -0.00474438 -2.18528e-16)
(1.00463 -0.00449114 1.08761e-17)
(1.00471 -0.00416677 4.00263e-17)
(1.00474 -0.00375613 -4.52425e-17)
(1.00472 -0.00324987 1.96707e-16)
(1.00472 -0.00270227 8.54939e-19)
(1.00453 -0.00181768 -3.19348e-17)
(1.0041 0.000380167 -9.59992e-18)
(1.00017 -0.000206462 -6.05889e-18)
(1.00023 -0.000576555 3.1676e-19)
(1.0003 -0.000954413 1.34506e-17)
(1.0004 -0.00131734 -7.67016e-18)
(1.00052 -0.00168475 -2.77425e-18)
(1.00068 -0.00206511 -2.75687e-17)
(1.00085 -0.00244573 3.65737e-17)
(1.00104 -0.00282205 4.08611e-17)
(1.00126 -0.00318822 -4.79012e-17)
(1.00148 -0.00353812 3.64067e-17)
(1.00172 -0.00386557 2.76156e-16)
(1.00197 -0.00416668 6.41718e-17)
(1.00223 -0.00443706 -1.47044e-16)
(1.00249 -0.00467308 -4.23305e-17)
(1.00276 -0.00486971 9.00788e-17)
(1.00302 -0.00502452 3.03966e-17)
(1.00328 -0.00513511 9.54261e-17)
(1.00353 -0.0051994 1.28402e-16)
(1.00377 -0.00521426 1.01306e-16)
(1.00399 -0.00517815 -1.07201e-16)
(1.00419 -0.00508927 -1.33628e-16)
(1.00437 -0.00494557 -1.93607e-16)
(1.00452 -0.00474202 1.62022e-17)
(1.00464 -0.00447348 9.56493e-17)
(1.00473 -0.00413322 1.08691e-16)
(1.00478 -0.0037058 4.76338e-18)
(1.00477 -0.00318184 1.02453e-17)
(1.00478 -0.00261606 1.54337e-17)
(1.0046 -0.00171092 -6.92802e-18)
(1.00419 0.000524459 4.94783e-18)
(1.00006 -0.00022229 9.17711e-18)
(1.00013 -0.000625925 -9.62244e-18)
(1.0002 -0.00103361 -2.5444e-19)
(1.0003 -0.00142362 3.62791e-17)
(1.00044 -0.00181211 2.66152e-17)
(1.0006 -0.002209 6.8417e-17)
(1.00078 -0.00260131 -9.15891e-17)