1.45 	0 	0 	-0.00812588 	-0.0025883 	1.65375e-20
2.35 	0 	0 	0.062216 	-0.00662051 	9.89074e-21
