1.45 	0 	0 	-0.290485
2.35 	0 	0 	-0.126326
