1.45 	0 	0 	-0.305914
2.35 	0 	0 	-0.102714
