1.45 	0 	0 	-0.00797741 	-0.00257682 	3.79807e-21
2.35 	0 	0 	0.061624 	-0.00664161 	2.30772e-21
