1.45 	0 	0 	-0.291852
2.35 	0 	0 	-0.127179
