1.45 	0 	0 	-0.00813533 	-0.00258556 	1.65342e-20
2.35 	0 	0 	0.0621193 	-0.00662738 	9.88731e-21
