/*--------------------------------*- C++ -*----------------------------------*\
  =========                 |
  \\      /  F ield         | OpenFOAM: The Open Source CFD Toolbox
   \\    /   O peration     | Website:  https://openfoam.org
    \\  /    A nd           | Version:  6.0
     \\/     M anipulation  |
\*---------------------------------------------------------------------------*/
FoamFile
{
    version     2.0;
    format      ascii;
    class       surfaceScalarField;
    location    "10";
    object      phi;
}
// * * * * * * * * * * * * * * * * * * * * * * * * * * * * * * * * * * * * * //

dimensions      [0 3 -1 0 0 0 0];

internalField   nonuniform List<scalar> 
15760
(
-2.26019e-06
2.26115e-06
-9.65748e-10
-7.80631e-06
5.54831e-06
-2.18088e-09
-1.56773e-05
7.87379e-06
-2.82931e-09
-2.50967e-05
9.42248e-06
-3.01663e-09
-3.54379e-05
1.0344e-05
-2.82581e-09
-4.61982e-05
1.07626e-05
-2.3232e-09
-5.6978e-05
1.07814e-05
-1.5626e-09
-6.74646e-05
1.04872e-05
-5.87627e-10
-7.7419e-05
9.9538e-06
5.64952e-10
-8.66657e-05
9.24479e-06
1.86553e-09
-9.50848e-05
8.41583e-06
3.28964e-09
-0.000102606
7.51605e-06
4.81504e-09
-0.000109201
6.5891e-06
6.42258e-09
-0.000114883
5.67376e-06
8.09773e-09
-0.000119697
4.80428e-06
9.82673e-09
-0.000123719
4.01047e-06
1.15959e-08
-0.00012705
3.31761e-06
1.33954e-08
-0.000129812
2.74642e-06
1.52181e-08
-0.000132143
2.31425e-06
1.70479e-08
2.03584e-06
1.88868e-08
-0.000134198
-2.24126e-06
4.50241e-06
-7.73014e-06
1.10372e-05
-1.55063e-05
1.56499e-05
-2.47947e-05
1.87109e-05
-3.49701e-05
2.05194e-05
-4.55309e-05
2.13234e-05
-5.60782e-05
2.13286e-05
-6.62988e-05
2.07079e-05
-7.59528e-05
1.96078e-05
-8.48632e-05
1.81551e-05
-9.29079e-05
1.64605e-05
-0.000100014
1.46219e-05
-0.000106151
1.27264e-05
-0.000111329
1.08519e-05
-0.000115592
9.06717e-06
-0.000119014
7.43246e-06
-0.000121695
5.99906e-06
-0.000123758
4.80927e-06
-0.000125343
3.8987e-06
3.29754e-06
-0.000126604
-2.20317e-06
6.70558e-06
-7.57682e-06
1.64108e-05
-1.51622e-05
2.32353e-05
-2.41875e-05
2.77362e-05
-3.40305e-05
3.03624e-05
-4.4192e-05
3.14849e-05
-5.42744e-05
3.1411e-05
-6.39644e-05
3.03978e-05
-7.30202e-05
2.86636e-05
-8.12615e-05
2.63965e-05
-8.85622e-05
2.37612e-05
-9.48442e-05
2.09038e-05
-0.000100073
1.79548e-05
-0.000104252
1.50311e-05
-0.000107422
1.2237e-05
-0.000109654
9.6644e-06
-0.000111047
7.39205e-06
-0.000111723
5.48565e-06
-0.000111825
4.00096e-06
2.98518e-06
-0.000111513
-2.14536e-06
8.85094e-06
-7.34422e-06
2.16097e-05
-1.46408e-05
3.05319e-05
-2.32684e-05
3.63638e-05
-3.26102e-05
3.97042e-05
-4.21714e-05
4.10461e-05
-5.15569e-05
4.07965e-05
-6.04535e-05
3.92945e-05
-6.86174e-05
3.68275e-05
-7.58639e-05
3.3643e-05
-8.20607e-05
2.9958e-05
-8.71221e-05
2.59652e-05
-9.10054e-05
2.18381e-05
-9.37073e-05
1.7733e-05
-9.52609e-05
1.37907e-05
-9.57329e-05
1.01364e-05
-9.52197e-05
6.87891e-06
-9.38441e-05
4.10999e-06
-9.17518e-05
1.90867e-06
3.41683e-07
-8.91083e-05
-2.06689e-06
1.09178e-05
-7.02866e-06
2.65715e-05
-1.39344e-05
3.74376e-05
-2.20255e-05
4.44549e-05
-3.06935e-05
4.83723e-05
-3.94508e-05
4.98034e-05
-4.79065e-05
4.92522e-05
-5.57492e-05
4.71371e-05
-6.27328e-05
4.38111e-05
-6.86677e-05
3.95779e-05
-7.34135e-05
3.47038e-05
-7.68748e-05
2.94265e-05
-7.89978e-05
2.39611e-05
-7.97684e-05
1.85036e-05
-7.92101e-05
1.32324e-05
-7.73821e-05
8.30841e-06
-7.43768e-05
3.87363e-06
-7.03167e-05
4.98631e-08
-6.53519e-05
-3.05616e-06
-5.35418e-06
-5.9656e-05
-1.96621e-06
1.2884e-05
-6.62444e-06
3.12297e-05
-1.30314e-05
4.38446e-05
-2.04405e-05
5.18639e-05
-2.82557e-05
5.61875e-05
-3.60001e-05
5.75478e-05
-4.32905e-05
5.65427e-05
-4.9819e-05
5.36656e-05
-5.53387e-05
4.93309e-05
-5.96548e-05
4.3894e-05
-6.26179e-05
3.76669e-05
-6.41203e-05
3.09289e-05
-6.40943e-05
2.39351e-05
-6.25111e-05
1.69204e-05
-5.93809e-05
1.01021e-05
-5.47522e-05
3.67965e-06
-4.87106e-05
-2.16788e-06
-4.13775e-05
-7.28325e-06
-3.29078e-05
-1.15259e-05
-1.47761e-05
-2.34859e-05
-1.84101e-06
1.4725e-05
-6.12328e-06
3.5512e-05
-1.19151e-05
4.96364e-05
-1.84868e-05
5.84357e-05
-2.52602e-05
6.29609e-05
-3.17738e-05
6.40614e-05
-3.76567e-05
6.24255e-05
-4.26078e-05
5.86167e-05
-4.63821e-05
5.31052e-05
-4.87805e-05
4.62924e-05
-4.96442e-05
3.85306e-05
-4.88516e-05
3.01364e-05
-4.63178e-05
2.14013e-05
-4.19954e-05
1.2598e-05
-3.58764e-05
3.98314e-06
-2.79942e-05
-4.20258e-06
-1.84242e-05
-1.17378e-05
-7.28421e-06
-1.84233e-05
5.26589e-06
-2.4076e-05
-2.85384e-05
1.90283e-05
-1.68809e-06
1.64131e-05
-5.51389e-06
3.93378e-05
-1.05626e-05
5.46851e-05
-1.61279e-05
6.40009e-05
-2.16557e-05
6.84886e-05
-2.67066e-05
6.91124e-05
-3.09275e-05
6.66464e-05
-3.40297e-05
6.17189e-05
-3.57737e-05
5.48492e-05
-3.59592e-05
4.64779e-05
-3.4419e-05
3.69904e-05
-3.10168e-05
2.67341e-05
-2.56476e-05
1.60321e-05
-1.8241e-05
5.1914e-06
-8.76547e-06
-5.4924e-06
2.76693e-06
-1.5735e-05
1.62963e-05
-2.52672e-05
3.1712e-05
-3.3839e-05
4.88501e-05
-4.12141e-05
-4.71851e-05
6.74967e-05
-1.50322e-06
1.79164e-05
-4.78168e-06
4.26162e-05
-8.94445e-06
5.88479e-05
-1.33162e-05
6.83726e-05
-1.73746e-05
7.2547e-05
-2.07102e-05
7.2448e-05
-2.2995e-05
6.89313e-05
-2.39597e-05
6.26836e-05
-2.33769e-05
5.42663e-05
-2.10498e-05
4.41509e-05
-1.68062e-05
3.27468e-05
-1.04959e-05
2.04238e-05
-1.99242e-06
7.52858e-06
8.80207e-06
-5.60309e-06
2.19493e-05
-1.86396e-05
3.7466e-05
-3.12517e-05
5.53156e-05
-4.31168e-05
7.54006e-05
-5.3924e-05
9.75556e-05
-6.33691e-05
-7.11776e-05
0.000121548
-1.28118e-06
1.91975e-05
-3.90888e-06
4.52439e-05
-7.02476e-06
6.19638e-05
-9.99317e-06
7.13411e-05
-1.23325e-05
7.48863e-05
-1.36716e-05
7.37871e-05
-1.3717e-05
6.89767e-05
-1.22278e-05
6.11944e-05
-8.99735e-06
5.10359e-05
-3.84073e-06
3.89943e-05
3.41314e-06
2.54929e-05
1.29244e-05
1.09125e-05
2.48405e-05
-4.38754e-06
3.92899e-05
-2.00524e-05
5.63711e-05
-3.57209e-05
7.61397e-05
-5.10202e-05
9.85929e-05
-6.557e-05
0.000123656
-7.89869e-05
0.000151167
-9.08804e-05
-0.000100884
0.000180874
-1.01593e-06
2.02135e-05
-2.87521e-06
4.71032e-05
-4.7625e-06
6.38511e-05
-6.09136e-06
7.26699e-05
-6.42985e-06
7.52248e-05
-5.45488e-06
7.28121e-05
-2.91744e-06
6.64393e-05
1.38399e-06
5.6893e-05
7.62349e-06
4.47964e-05
1.59626e-05
3.06551e-05
2.65605e-05
1.48951e-05
3.95787e-05
-2.10573e-06
5.51812e-05
-1.999e-05
7.35271e-05
-3.83983e-05
9.47581e-05
-5.69519e-05
0.00011898
-7.52417e-05
0.000146237
-9.28278e-05
0.000176494
-0.000109243
0.000209601
-0.000123988
-0.000136569
0.000245286
-7.00984e-07
2.09144e-05
-1.65918e-06
4.80614e-05
-2.11407e-06
6.4306e-05
-1.53795e-06
7.20938e-05
4.42525e-07
7.32444e-05
4.09333e-06
6.91613e-05
9.60853e-06
6.09241e-05
1.7138e-05
4.93635e-05
2.68091e-05
3.51252e-05
3.87444e-05
1.87198e-05
5.30747e-05
5.64749e-07
6.99483e-05
-1.89793e-05
8.95338e-05
-3.95755e-05
0.000112016
-6.08805e-05
0.000137582
-8.2518e-05
0.000166399
-0.000104058
0.000198579
-0.000125008
0.000234145
-0.000144809
0.000272979
-0.000162822
-0.000178382
0.000314793
-3.30059e-07
2.12445e-05
-2.40216e-07
4.79716e-05
9.6258e-07
6.31032e-05
3.73837e-06
6.9318e-05
8.39457e-06
6.85882e-05
1.51323e-05
6.24236e-05
2.40815e-05
5.19749e-05
3.53281e-05
3.81169e-05
4.89375e-05
2.15158e-05
6.49738e-05
2.68355e-06
8.35176e-05
-1.7979e-05
0.00010468
-4.01419e-05
0.000128613
-6.35087e-05
0.000155511
-8.77785e-05
0.000185601
-0.000112608
0.000219119
-0.000137576
0.000256266
-0.000162156
0.000297157
-0.0001857
0.000341736
-0.000207402
-0.000226353
0.000389707
1.02105e-07
2.11424e-05
1.39857e-06
4.66751e-05
4.50215e-06
5.99996e-05
9.79809e-06
6.40221e-05
1.75231e-05
6.08632e-05
2.78089e-05
5.21377e-05
4.0715e-05
3.90688e-05
5.62542e-05
2.25777e-05
7.4415e-05
3.35504e-06
9.51828e-05
-1.80842e-05
0.000118561
-4.13568e-05
0.00014459
-6.61715e-05
0.000173371
-9.22896e-05
0.000205074
-0.000119481
0.000239943
-0.000147477
0.00027828
-0.000175912
0.000320395
-0.000204272
0.000366538
-0.000231842
0.000416766
-0.00025763
-0.000280392
0.000470804
5.9872e-07
2.05437e-05
3.26697e-06
4.40068e-05
8.52514e-06
5.47414e-05
1.66791e-05
5.58681e-05
2.78938e-05
4.96485e-05
4.22319e-05
3.77996e-05
5.96818e-05
2.16189e-05
8.01794e-05
2.08012e-06
0.000103627
-2.00928e-05
0.000129914
-4.43713e-05
0.000158939
-7.03812e-05
0.000190633
-9.78657e-05
0.000224994
-0.00012665
0.000262112
-0.0001566
0.000302199
-0.000187563
0.000345585
-0.000219298
0.000392697
-0.000251384
0.00044397
-0.000283115
0.000499661
-0.000313321
-0.000340304
0.000559573
1.15991e-06
1.93838e-05
5.36423e-06
3.98025e-05
1.30305e-05
4.70751e-05
2.43836e-05
4.4515e-05
3.95203e-05
3.45118e-05
5.84405e-05
1.88794e-05
8.10687e-05
-1.00931e-06
0.00010727
-2.41209e-05
0.000136862
-4.9685e-05
0.000169632
-7.71414e-05
0.000205353
-0.000106103
0.000243812
-0.000136325
0.000284844
-0.000167682
0.00032838
-0.000200136
0.0003745
-0.000233683
0.000423481
-0.000268278
0.000475817
-0.00030372
0.000532168
-0.000339467
0.000593124
-0.000374277
-0.000405819
0.00065864
1.78182e-06
1.76019e-05
7.67611e-06
3.39082e-05
1.79891e-05
3.67621e-05
3.28663e-05
2.96378e-05
5.23436e-05
1.50345e-05
7.63707e-05
-5.14771e-06
0.000104825
-2.94631e-05
0.000137518
-5.68139e-05
0.000174203
-8.63703e-05
0.000214579
-0.000117518
0.000258301
-0.000149824
0.000304993
-0.000183017
0.000354284
-0.000216974
0.000405857
-0.000251709
0.000459526
-0.000287352
0.000515342
-0.000324094
0.000573702
-0.000362079
0.000635425
-0.00040119
0.000701573
-0.000440425
-0.000476703
0.000772456
2.45616e-06
1.51458e-05
1.01732e-05
2.61911e-05
2.334e-05
2.35954e-05
4.20255e-05
1.09523e-05
6.62154e-05
-9.15535e-06
9.58255e-05
-3.47579e-05
0.000130709
-6.43469e-05
0.000170658
-9.67626e-05
0.000215398
-0.000131111
0.000264587
-0.000166707
0.000317805
-0.000203042
0.000374554
-0.000239766
0.000434268
-0.000276688
0.000496339
-0.00031378
0.000560187
-0.0003512
0.000625385
-0.000389292
0.00069187
-0.000428564
0.000760239
-0.000469559
0.000831942
-0.000512128
-0.000553847
0.000909086
3.17039e-06
1.19754e-05
1.28117e-05
1.65499e-05
2.89905e-05
7.41652e-06
5.17029e-05
-1.176e-05
8.0893e-05
-3.83454e-05
0.00011646
-7.0325e-05
0.00015826
-0.000106147
0.000206101
-0.000144604
0.00025974
-0.000184749
0.000318864
-0.000225831
0.000383081
-0.000267259
0.000451892
-0.000308578
0.000524669
-0.000349465
0.00060063
-0.00038974
0.000678833
-0.000429404
0.000758238
-0.000468698
0.000837882
-0.000508208
0.000917324
-0.000549001
0.000997702
-0.000592505
-0.000642305
0.00108616
3.90868e-06
8.06672e-06
1.5536e-05
4.92258e-06
3.48227e-05
-1.18702e-05
6.16916e-05
-3.8629e-05
9.60505e-05
-7.27043e-05
0.000137792
-0.000112066
0.000186793
-0.000155148
0.000242912
-0.000200723
0.000305987
-0.000247824
0.000375826
-0.00029567
0.000452198
-0.000343631
0.00053482
-0.000391199
0.000623324
-0.000437969
0.000717223
-0.000483639
0.000815853
-0.000528034
0.00091833
-0.000571174
0.00102351
-0.000613384
0.00112983
-0.000655328
0.00123608
-0.000698755
-0.000746074
0.00133985
4.65373e-06
3.41298e-06
1.82852e-05
-8.70893e-06
4.07051e-05
-3.42901e-05
7.17582e-05
-6.9682e-05
0.000111311
-0.000112257
0.000159246
-0.000160002
0.000215462
-0.000211364
0.000279874
-0.000265135
0.000352416
-0.000320366
0.000433058
-0.000376311
0.000521813
-0.000432387
0.000618774
-0.000488161
0.000724161
-0.000543356
0.000838409
-0.000597887
0.000962329
-0.000651954
0.00109739
-0.000706233
0.0012462
-0.000762201
0.00141371
-0.000822837
0.00160975
-0.000894795
-0.000994889
0.00185857
5.38896e-06
-1.97598e-06
2.09999e-05
-2.43199e-05
4.65078e-05
-5.97979e-05
8.16685e-05
-0.000104843
0.000126292
-0.000156881
0.000180233
-0.000213943
0.000243385
-0.000274515
0.000315682
-0.000337432
0.000397111
-0.000401796
0.000487726
-0.000466926
0.000587671
-0.000532331
0.000697217
-0.000597707
0.000816816
-0.000662955
0.000947166
-0.000728238
0.0010893
-0.000794086
0.00124463
-0.000861565
0.00141495
-0.000932523
0.00160215
-0.00101004
0.00180661
-0.00109926
-0.0012079
0.00201962
6.1006e-06
-8.07658e-06
2.36298e-05
-4.18491e-05
5.21198e-05
-8.82878e-05
9.1222e-05
-0.000143945
0.000140668
-0.000206327
0.00020025
-0.000273525
0.000269815
-0.00034408
0.000349261
-0.000416877
0.000438541
-0.000491076
0.000537674
-0.000566059
0.000646757
-0.000641414
0.000765977
-0.000716927
0.000895623
-0.0007926
0.00103608
-0.000868691
0.00118777
-0.000945779
0.00135105
-0.00102485
0.00152591
-0.00110738
0.00171137
-0.0011955
0.00190417
-0.00129206
-0.00139999
0.00209626
6.77933e-06
-1.48559e-05
2.61388e-05
-6.12085e-05
5.74597e-05
-0.000119609
0.000100271
-0.000186756
0.000154199
-0.000260255
0.000218941
-0.000338266
0.000294248
-0.000419388
0.000379922
-0.000502552
0.000475806
-0.000586959
0.000581782
-0.000672036
0.00069777
-0.000757402
0.000823713
-0.00084287
0.000959551
-0.000928439
0.00110517
-0.00101431
0.00126032
-0.00110092
0.0014244
-0.00118893
0.00159627
-0.00127925
0.0017738
-0.00137303
0.00195334
-0.0014716
-0.001576
0.00212935
7.42057e-06
-2.22765e-05
2.85064e-05
-8.22944e-05
6.24796e-05
-0.000153582
0.000108728
-0.000233005
0.000166748
-0.000318275
0.000236108
-0.000407627
0.000316429
-0.000499708
0.000407365
-0.000593488
0.000508596
-0.00068819
0.000619808
-0.000783248
0.000740681
-0.000878276
0.000870865
-0.000973053
0.00100993
-0.00106751
0.00115733
-0.00116171
0.00131228
-0.00125587
0.00147366
-0.00135031
0.00163984
-0.00144543
0.00180852
-0.0015417
0.00197653
-0.00163961
-0.0017394
0.00213994
8.02389e-06
-3.03004e-05
3.07263e-05
-0.000104997
6.71607e-05
-0.000190016
0.000116559
-0.000282403
0.000178263
-0.000379979
0.000251691
-0.000481054
0.000336302
-0.000584319
0.000431577
-0.000688763
0.000537003
-0.000793615
0.00065205
-0.000898295
0.000776153
-0.00100238
0.000908684
-0.00110558
0.00104891
-0.00120774
0.00119596
-0.00130876
0.00134875
-0.00140866
0.0015059
-0.00150746
0.0016657
-0.00160523
0.001826
-0.00170201
0.00198424
-0.00179785
-0.00189259
0.00213742
8.59167e-06
-3.88921e-05
3.28019e-05
-0.000129207
7.15058e-05
-0.00022872
0.000123764
-0.000334661
0.000188751
-0.000444967
0.000265714
-0.000558017
0.000353935
-0.00067254
0.000452709
-0.000787538
0.000561324
-0.00090223
0.000679039
-0.00101601
0.000805067
-0.00112841
0.000938549
-0.00123907
0.00107853
-0.00134772
0.00122393
-0.00145416
0.0013735
-0.00155823
0.00152582
-0.00165978
0.00167922
-0.00175863
0.00183183
-0.00185461
0.00198152
-0.00194753
-0.00203703
0.00212596
9.12757e-06
-4.80196e-05
3.47414e-05
-0.000154821
7.5528e-05
-0.000269507
0.000130365
-0.000389499
0.000198249
-0.00051285
0.000278243
-0.000638011
0.000369446
-0.000763744
0.000470968
-0.000889059
0.000581901
-0.00101316
0.000701315
-0.00113542
0.00082823
-0.00125532
0.000961613
-0.00137245
0.00110035
-0.00148646
0.00124325
-0.00159706
0.001389
-0.00170399
0.0015362
-0.00180697
0.00168332
-0.00190575
0.00182871
-0.00200001
0.00197063
-0.00208945
-0.0021736
0.00210719
9.63504e-06
-5.76547e-05
3.65534e-05
-0.000181739
7.92419e-05
-0.000312196
0.000136386
-0.000446643
0.000206793
-0.000583257
0.000289342
-0.00072056
0.000382947
-0.000857349
0.000486534
-0.000992645
0.000599019
-0.00112565
0.000719299
-0.0012557
0.000846244
-0.00138227
0.000978684
-0.00150489
0.00111541
-0.00162318
0.00125516
-0.00173681
0.00139664
-0.00184547
0.0015385
-0.00194883
0.00167935
-0.0020466
0.00181777
-0.00213843
0.00195231
-0.00222398
-0.00230273
0.00208144
1.01163e-05
-6.7771e-05
3.82429e-05
-0.000209866
8.26556e-05
-0.000356608
0.000141839
-0.000505826
0.000214408
-0.000655826
0.000299054
-0.000805206
0.000394509
-0.000952804
0.000499525
-0.00109766
0.000612858
-0.00123898
0.00073326
-0.00137611
0.000859475
-0.00150848
0.000990238
-0.00163565
0.00112428
-0.00175722
0.00126032
-0.00187286
0.0013971
-0.00198224
0.00153335
-0.00208508
0.00166783
-0.00218108
0.00179931
-0.00226991
0.00192658
-0.00235125
-0.00242458
0.00204843
1.05716e-05
-7.83425e-05
3.98096e-05
-0.000239104
8.5767e-05
-0.000402566
0.000146722
-0.000566781
0.000221091
-0.000730196
0.000307381
-0.000891495
0.000404147
-0.00104957
0.00050998
-0.00120349
0.000623492
-0.00135249
0.00074331
-0.00149592
0.000868083
-0.00163326
0.000996481
-0.00176405
0.0011272
-0.00188795
0.00125899
-0.00200464
0.00139061
-0.00211387
0.00152091
-0.00221539
0.00164879
-0.00230895
0.00177319
-0.00239431
0.00189313
-0.00247119
-0.0025391
0.00200765
1.09992e-05
-8.93417e-05
4.12465e-05
-0.000269351
8.85619e-05
-0.000449881
0.00015101
-0.00062923
0.000226812
-0.000805997
0.000314287
-0.00097897
0.000411825
-0.00114711
0.000517867
-0.00130954
0.000630897
-0.00146552
0.000749442
-0.00161447
0.000872077
-0.00175589
0.000997433
-0.00188941
0.0011242
-0.00201472
0.00125116
-0.0021316
0.00137715
-0.00223986
0.0015011
-0.00233934
0.00162206
-0.00242991
0.00173915
-0.0025114
0.00185157
-0.00258361
-0.00264613
0.0019586
1.13953e-05
-0.000100737
4.25409e-05
-0.000300497
9.10148e-05
-0.000498355
0.000154665
-0.00069288
0.000231513
-0.000882845
0.000319702
-0.00106716
0.000417461
-0.00124487
0.000523097
-0.00141517
0.000634983
-0.00157741
0.000751565
-0.00173105
0.000871369
-0.00187569
0.000993008
-0.00201105
0.00111519
-0.0021369
0.00123674
-0.00225314
0.00135658
-0.0023597
0.00147376
-0.00245652
0.00158745
-0.0025436
0.00169692
-0.00262088
0.00180158
-0.00268826
-0.00274545
0.0019009
1.17545e-05
-0.000112491
4.36751e-05
-0.000332417
9.30909e-05
-0.000547771
0.000157631
-0.000757419
0.000235121
-0.000960336
0.000323532
-0.00115557
0.000420946
-0.00134228
0.000525548
-0.00151977
0.000635619
-0.00168748
0.000749546
-0.00184498
0.000865825
-0.00199197
0.000983074
-0.00212829
0.00110004
-0.00225387
0.0012156
-0.0023687
0.00132878
-0.00247287
0.00143874
-0.00256648
0.00154477
-0.00264963
0.00164633
-0.00272243
0.00174295
-0.00278489
-0.00283682
0.00183433
1.20704e-05
-0.000124562
4.46281e-05
-0.000364975
9.47494e-05
-0.000597892
0.000159845
-0.000822515
0.000237549
-0.00103804
0.00032567
-0.00124369
0.000422155
-0.00143877
0.000525082
-0.0016227
0.000632662
-0.00179506
0.000743241
-0.00195556
0.000855307
-0.00210404
0.000967503
-0.00224049
0.00107863
-0.00236499
0.00118764
-0.00247771
0.00129365
-0.00257889
0.00139596
-0.00266879
0.00149399
-0.00274766
0.00158732
-0.00281576
0.00167567
-0.00287324
-0.00292003
0.00175888
1.23357e-05
-0.000136898
4.53766e-05
-0.000398016
9.5946e-05
-0.000648462
0.000161239
-0.000887808
0.000238708
-0.00111551
0.000326006
-0.00133099
0.000420962
-0.00153372
0.000521567
-0.00172331
0.000625979
-0.00189947
0.000732523
-0.0020621
0.000839704
-0.00221122
0.000946203
-0.00234699
0.00105089
-0.00246968
0.00115281
-0.00257964
0.0012512
-0.00267728
0.00134547
-0.00276305
0.00143516
-0.00283736
0.00152001
-0.00290061
0.00159986
-0.00295309
-0.00299488
0.00167472
1.25431e-05
-0.000149441
4.58971e-05
-0.00043137
9.66364e-05
-0.000699201
0.000161748
-0.000952919
0.00023851
-0.00119227
0.000324438
-0.00141692
0.000417256
-0.00162654
0.00051489
-0.00182094
0.000615463
-0.00200005
0.000717305
-0.00216394
0.00081895
-0.00231287
0.000919145
-0.00244718
0.00101684
-0.00256737
0.00111119
-0.00267399
0.00120153
-0.00276763
0.0012874
-0.00284891
0.00136849
-0.00291844
0.00144464
-0.00297676
0.00151584
-0.00302429
-0.00306125
0.0015822
1.26854e-05
-0.000162126
4.61668e-05
-0.000464851
9.67785e-05
-0.000749813
0.000161309
-0.00101745
0.000236877
-0.00126784
0.000320876
-0.00150091
0.000410946
-0.00171661
0.000504965
-0.00191496
0.000601047
-0.00209613
0.000697544
-0.00226044
0.000793044
-0.00240837
0.000886369
-0.00254051
0.000976568
-0.00265757
0.0010629
-0.00276032
0.00114484
-0.00284957
0.00122203
-0.00292611
0.00129429
-0.0029907
0.00136159
-0.00304406
0.00142402
-0.00308672
-0.00311905
0.00148182
1.27557e-05
-0.000174882
4.61649e-05
-0.00049826
9.63347e-05
-0.000799982
0.00015987
-0.00108098
0.000233746
-0.00134172
0.000315253
-0.00158242
0.000401969
-0.00180333
0.000491747
-0.00200474
0.000582712
-0.00218709
0.000673259
-0.00235099
0.000762048
-0.00249716
0.000847994
-0.00262645
0.000930252
-0.00273983
0.00100821
-0.00283828
0.00108144
-0.0029228
0.00114973
-0.0029944
0.00121301
-0.00305398
0.00127135
-0.0031024
0.00132497
-0.00314033
-0.00316825
0.00137417
1.27479e-05
-0.00018763
4.58732e-05
-0.000531386
9.52732e-05
-0.000849382
0.000157388
-0.0011431
0.000229069
-0.0014134
0.000307526
-0.00166088
0.000390295
-0.0018861
0.000475229
-0.00208967
0.000560487
-0.00227235
0.000644526
-0.00243503
0.000726093
-0.00257872
0.000804209
-0.00270457
0.000878148
-0.00281377
0.000947414
-0.00290754
0.00101172
-0.00298711
0.00107095
-0.00305363
0.00112516
-0.00310819
0.00117451
-0.00315176
0.00121931
-0.00318513
-0.0032089
0.00125996
1.26595e-05
-0.000200289
4.52816e-05
-0.000564008
9.35766e-05
-0.000897677
0.000153841
-0.00120336
0.000222827
-0.00148238
0.000297687
-0.00173574
0.000375941
-0.00196435
0.000455463
-0.00216919
0.000534467
-0.00235135
0.000611493
-0.00251205
0.000685389
-0.00265262
0.000755292
-0.00277447
0.0008206
-0.00287908
0.000880943
-0.00296788
0.000936153
-0.00304232
0.000986235
-0.00310371
0.00103134
-0.00315329
0.00107172
-0.00319215
0.00110776
-0.00322117
-0.00324105
0.00113992
1.24814e-05
-0.000212771
4.43697e-05
-0.000595896
9.1215e-05
-0.000944523
0.000149197
-0.00126134
0.000214993
-0.00154818
0.000285726
-0.00180647
0.000358923
-0.00203755
0.000432505
-0.00224277
0.000504759
-0.00242361
0.000574324
-0.00258162
0.000640164
-0.00271846
0.00070154
-0.00283585
0.000757976
-0.00293551
0.000809229
-0.00301914
0.000855249
-0.00308834
0.000896148
-0.00314461
0.000932167
-0.00318931
0.000963652
-0.00322363
0.000991032
-0.00324855
-0.00326483
0.00101481
1.22132e-05
-0.000224984
4.31348e-05
-0.000626818
8.81865e-05
-0.000989574
0.00014346
-0.00131662
0.000205589
-0.00161031
0.00027169
-0.00187257
0.000339327
-0.00210519
0.000406487
-0.00230993
0.000471551
-0.00248867
0.000533272
-0.00264334
0.000590739
-0.00277592
0.000643341
-0.00288845
0.000690734
-0.0029829
0.000732795
-0.0030612
0.000769589
-0.00312513
0.000801326
-0.00317634
0.000828332
-0.00321632
0.000851022
-0.00324632
0.000869874
-0.00326741
-0.00328038
0.000885424
1.18526e-05
-0.000236836
4.15734e-05
-0.000656539
8.44909e-05
-0.00103249
0.000136642
-0.00136877
0.000194645
-0.00166831
0.000255642
-0.00193357
0.000317257
-0.0021668
0.000377566
-0.00237024
0.000435061
-0.00254617
0.00048862
-0.0026969
0.000537463
-0.00282477
0.000581115
-0.0029321
0.000619356
-0.00302115
0.000652185
-0.00309403
0.00067977
-0.00315271
0.000702414
-0.00319899
0.000720517
-0.00323442
0.000734552
-0.00326036
0.000745037
-0.00327789
-0.00328787
0.000752529
1.13988e-05
-0.000248235
3.9686e-05
-0.000684826
8.01361e-05
-0.00107294
0.000128766
-0.0014174
0.000182212
-0.00172176
0.000237669
-0.00198903
0.000292848
-0.00222198
0.000345932
-0.00242333
0.000395541
-0.00259578
0.000440685
-0.00274204
0.000480724
-0.00286481
0.000515312
-0.00296669
0.000544357
-0.00305019
0.000567967
-0.00311764
0.000586409
-0.00317116
0.000600069
-0.00321265
0.000609412
-0.00324376
0.000614957
-0.0032659
0.000617255
-0.00328019
-0.00328749
0.000616876
1.08518e-05
-0.000259087
3.74771e-05
-0.000711451
7.51378e-05
-0.0011106
0.000119868
-0.00146213
0.000168356
-0.00177025
0.00021788
-0.00203855
0.000266258
-0.00227036
0.000311802
-0.00246887
0.00035327
-0.00263724
0.000389814
-0.00277858
0.000420931
-0.00289592
0.000446407
-0.00299217
0.000466266
-0.00307005
0.000480722
-0.00313209
0.00049013
-0.00318056
0.000494947
-0.00321747
0.000495696
-0.00324451
0.000492936
-0.00326314
0.000487241
-0.0032745
-0.00327943
0.000479185
1.02131e-05
-0.0002693
3.49546e-05
-0.000736193
6.95187e-05
-0.00114517
0.000109996
-0.00150261
0.00015316
-0.00181341
0.0001964
-0.00208179
0.000237666
-0.00231162
0.000275414
-0.00250662
0.00030855
-0.00267038
0.000336371
-0.00280641
0.000358513
-0.00291806
0.000374885
-0.00300854
0.000385623
-0.00308079
0.000391033
-0.0031375
0.000391551
-0.00318108
0.000387694
-0.00321361
0.000380035
-0.00323685
0.000369165
-0.00325227
0.000355677
-0.00326101
-0.0032639
0.000340145
9.48469e-06
-0.000278785
3.21299e-05
-0.000758838
6.33079e-05
-0.00117634
9.92065e-05
-0.00153851
0.000136718
-0.00185092
0.000173371
-0.00211844
0.000207267
-0.00234552
0.000237021
-0.00253637
0.000261695
-0.00269505
0.000280734
-0.00282545
0.000293906
-0.00293124
0.000301239
-0.00301587
0.000302967
-0.00308252
0.000299481
-0.00313402
0.000291283
-0.00317288
0.000278944
-0.00320127
0.000263077
-0.00322098
0.000244299
-0.00323349
0.000223218
-0.00323993
-0.00324109
0.00020041
8.66985e-06
-0.000287455
2.9017e-05
-0.000779185
5.65401e-05
-0.00120387
8.75637e-05
-0.00156953
0.000119133
-0.00188249
0.000148942
-0.00214825
0.000175265
-0.00237184
0.000196886
-0.00255799
0.000213028
-0.0027112
0.000223283
-0.0028357
0.000227547
-0.0029355
0.000225955
-0.00301428
0.00021883
-0.00307539
0.000206633
-0.00312182
0.000189921
-0.00315617
0.00016931
-0.00318066
0.000145443
-0.00319712
0.000118963
-0.00320701
9.04894e-05
-0.00321145
-0.0032112
6.0599e-05
7.77248e-06
-0.000295227
2.56329e-05
-0.000797045
4.92543e-05
-0.00122749
7.5139e-05
-0.00159541
0.000100517
-0.00190787
0.000123274
-0.00217101
0.000141872
-0.00239044
0.000155276
-0.0025714
0.000162871
-0.00271879
0.000164395
-0.00283722
0.000159863
-0.00293097
0.000149508
-0.00300393
0.000133728
-0.00305961
0.00011304
-0.00310113
8.80428e-05
-0.00313117
5.93845e-05
-0.003152
2.77343e-05
-0.00316547
-6.24407e-06
-0.00317303
-4.19151e-05
-0.00317578
-0.00317442
-7.86977e-05
6.79725e-06
-0.000302024
2.19967e-05
-0.000812245
4.14939e-05
-0.00124699
6.20086e-05
-0.00161593
8.09879e-05
-0.00192685
9.65297e-05
-0.00218655
0.000107301
-0.00240121
0.000112452
-0.00257655
0.000111538
-0.00271788
0.000104432
-0.00283012
9.12649e-05
-0.0029178
7.23531e-05
-0.00298501
4.8155e-05
-0.00303541
1.92284e-05
-0.00307221
-1.38006e-05
-0.00309815
-5.02635e-05
-0.00311554
-8.94729e-05
-0.00312626
-0.000130746
-0.00313176
-0.000173427
-0.0031331
-0.00313093
-0.00021692
5.74947e-06
-0.000307774
1.81292e-05
-0.000824625
3.33051e-05
-0.00126216
4.82523e-05
-0.00163088
6.06641e-05
-0.00193926
6.88724e-05
-0.00219476
7.17603e-05
-0.0024041
6.86729e-05
-0.00257346
5.93295e-05
-0.00270853
4.37413e-05
-0.00281453
2.21397e-05
-0.0028962
-5.08429e-06
-0.00295779
-3.74271e-05
-0.00300307
-7.43067e-05
-0.00303533
-0.000115086
-0.00305737
-0.000159092
-0.00307153
-0.000205627
-0.00307972
-0.000253992
-0.0030834
-0.000303503
-0.00308359
-0.00308089
-0.000353535
4.63505e-06
-0.000312409
1.40531e-05
-0.000834043
2.47369e-05
-0.00127285
3.3953e-05
-0.00164009
3.96678e-05
-0.00194498
4.04651e-05
-0.00219556
3.54554e-05
-0.00239909
2.41818e-05
-0.00256219
6.52893e-06
-0.00269088
-1.73611e-05
-0.00279064
-4.71615e-05
-0.0028664
-8.24192e-05
-0.00292253
-0.000122599
-0.00296289
-0.000167113
-0.00299081
-0.000215331
-0.00300915
-0.000266592
-0.00302027
-0.000320205
-0.00302611
-0.000375456
-0.00302815
-0.000431626
-0.00302742
-0.00302448
-0.000488035
3.46049e-06
-0.000315869
9.79279e-06
-0.000840375
1.58405e-05
-0.00127889
1.91957e-05
-0.00164345
1.81214e-05
-0.0019439
1.14687e-05
-0.0021889
-1.41652e-06
-0.00238621
-2.07905e-05
-0.00254281
-4.66044e-05
-0.00266507
-7.85896e-05
-0.00275866
-0.000116329
-0.00282866
-0.000159318
-0.00287954
-0.000207
-0.00291521
-0.000258796
-0.00293902
-0.000314104
-0.00295384
-0.000372301
-0.00296208
-0.000432718
-0.00296569
-0.000494642
-0.00296622
-0.000557307
-0.00296475
-0.00296184
-0.000619948
2.23288e-06
-0.000318102
5.37427e-06
-0.000843516
6.67001e-06
-0.00128019
4.0681e-06
-0.00164085
-3.8513e-06
-0.00193598
-1.79577e-05
-0.0021748
-3.86647e-05
-0.0023655
-6.60272e-05
-0.00251545
-9.98345e-05
-0.00263126
-0.000139694
-0.0027188
-0.000185104
-0.00278325
-0.00023551
-0.00282914
-0.000290342
-0.00286038
-0.000349041
-0.00288032
-0.000411055
-0.00289182
-0.00047582
-0.00289731
-0.000542731
-0.00289878
-0.000611094
-0.00289786
-0.000680099
-0.00289575
-0.0028931
-0.000748846
9.60006e-07
-0.000319062
8.25391e-07
-0.000843382
-2.7178e-06
-0.00127665
-1.1339e-05
-0.00163222
-2.6124e-05
-0.0019212
-4.76547e-05
-0.00215327
-7.61022e-05
-0.00233705
-0.000111322
-0.00248023
-0.000152945
-0.00258964
-0.000200459
-0.00267128
-0.000253277
-0.00273043
-0.000310795
-0.00277162
-0.00037243
-0.00279874
-0.000437645
-0.0028151
-0.000505948
-0.00282352
-0.000576868
-0.00282639
-0.000649901
-0.00282575
-0.000724435
-0.00282333
-0.000799635
-0.00282055
-0.00281834
-0.000874393
-3.49627e-07
-0.000318712
-3.82396e-06
-0.000839907
-1.22629e-05
-0.00126821
-2.69306e-05
-0.00161756
-4.85663e-05
-0.00189956
-7.74597e-05
-0.00212437
-0.000113541
-0.00230097
-0.000156471
-0.0024373
-0.00020573
-0.00254038
-0.000260689
-0.00261632
-0.000320679
-0.00267044
-0.000385042
-0.00270726
-0.000453173
-0.00273061
-0.000524547
-0.00274373
-0.000598727
-0.00274934
-0.000675348
-0.00274977
-0.000754063
-0.00274703
-0.000834431
-0.00274296
-0.000915687
-0.00273929
-0.0027376
-0.000996429
-1.68674e-06
-0.000317026
-8.54177e-06
-0.000833052
-2.19017e-05
-0.00125485
-4.26071e-05
-0.00159685
-7.10419e-05
-0.00187113
-0.000107203
-0.00208821
-0.000150784
-0.00225739
-0.000201263
-0.00238682
-0.000257975
-0.00248366
-0.000320189
-0.00255411
-0.000387156
-0.00260347
-0.000458164
-0.00263625
-0.000532569
-0.0026562
-0.000609834
-0.00266646
-0.000689548
-0.00266963
-0.000771432
-0.00266788
-0.000855323
-0.00266314
-0.000941075
-0.00265721
-0.0010282
-0.00265217
-0.00265055
-0.00111525
-3.04137e-06
-0.000313984
-1.3294e-05
-0.0008228
-3.15672e-05
-0.00123657
-5.82638e-05
-0.00157015
-9.34074e-05
-0.00183598
-0.000136705
-0.00204492
-0.000187622
-0.00220647
-0.000245463
-0.00232898
-0.00030944
-0.00241969
-0.000378729
-0.00248482
-0.000452521
-0.00252968
-0.000530053
-0.00255872
-0.000610644
-0.00257561
-0.000693718
-0.00258339
-0.000778834
-0.00258451
-0.000865727
-0.00258099
-0.000954358
-0.00257451
-0.00104495
-0.00256661
-0.00113771
-0.00255941
-0.00255567
-0.00123259
-4.40296e-06
-0.000309581
-1.80452e-05
-0.000809157
-4.11899e-05
-0.00121343
-7.37924e-05
-0.00153755
-0.000115514
-0.00179426
-0.000165775
-0.00199465
-0.000223825
-0.00214842
-0.00028881
-0.002264
-0.000359833
-0.00234866
-0.000436005
-0.00240865
-0.000516479
-0.00244921
-0.00060048
-0.00247472
-0.000687318
-0.00248878
-0.000776406
-0.0024943
-0.000867278
-0.00249364
-0.000959632
-0.00248864
-0.00105342
-0.00248072
-0.00114916
-0.00247087
-0.00124845
-0.00246013