1.45 	0 	0 	-0.00811967 	-0.00256989 	3.78407e-21
2.35 	0 	0 	0.0613554 	-0.00663116 	2.28739e-21
