1.275 	2.15223e-18 	-2.76991e-20 	-0.0342759 	-0.000451509 	-1.95806e-22
1.825 	2.15223e-18 	-1.39322e-20 	-0.00912607 	-0.00277432 	1.74963e-21
2.375 	2.15223e-18 	-2.66896e-23 	0.11627 	-0.00324935 	-7.30345e-22
