1.275 	2.15223e-18 	-2.76991e-20 	-0.0323494 	-0.00088791 	-2.06952e-22
1.825 	2.15223e-18 	-1.39322e-20 	0.0161513 	-0.00454235 	1.61919e-21
2.375 	2.15223e-18 	-2.66896e-23 	0.21759 	-0.00612268 	-6.16499e-22
