1.45 	0 	0 	-0.298216
2.35 	0 	0 	-0.132309
