1.45 	0 	0 	-0.00717353 	-0.00262808 	3.8747e-21
2.35 	0 	0 	0.0639172 	-0.00671612 	2.40494e-21
