1.45 	0 	0 	-0.29189
2.35 	0 	0 	-0.127216
