1.45 	0 	0 	-0.00708155 	-0.00263508 	3.88043e-21
2.35 	0 	0 	0.0642246 	-0.00672476 	2.41059e-21
