1.275 	2.15223e-18 	-2.76991e-20 	-0.304466
1.825 	2.15223e-18 	-1.39322e-20 	-0.0972036
2.375 	2.15223e-18 	-2.66896e-23 	-0.0411104
