1.275 	2.15223e-18 	-2.76991e-20 	-0.0344742 	-0.00043673 	-1.9071e-22
1.825 	2.15223e-18 	-1.39322e-20 	-0.00948508 	-0.00275243 	1.6836e-21
2.375 	2.15223e-18 	-2.66896e-23 	0.115249 	-0.00323164 	-7.02252e-22
