1.45 	0 	0 	-0.246366
2.35 	0 	0 	-0.0175633
