1.45 	0 	0 	0.124179 	-0.0114789 	1.36708e-20
2.35 	0 	0 	0.397786 	-0.0129347 	-1.55742e-21
