1.45 	0 	0 	-0.301424
2.35 	0 	0 	-0.134053
