/*--------------------------------*- C++ -*----------------------------------*\
  =========                 |
  \\      /  F ield         | OpenFOAM: The Open Source CFD Toolbox
   \\    /   O peration     | Website:  https://openfoam.org
    \\  /    A nd           | Version:  6.0
     \\/     M anipulation  |
\*---------------------------------------------------------------------------*/
FoamFile
{
    version     2.0;
    format      ascii;
    class       surfaceScalarField;
    location    "8";
    object      phi;
}
// * * * * * * * * * * * * * * * * * * * * * * * * * * * * * * * * * * * * * //

dimensions      [0 3 -1 0 0 0 0];

internalField   nonuniform List<scalar> 
3880
(
-1.80431e-05
1.8044e-05
-9.27954e-10
-5.34227e-05
3.53822e-05
-2.50668e-09
-9.4783e-05
4.1364e-05
-3.78653e-09
-0.000134951
4.0173e-05
-4.80947e-09
-0.000169501
3.45552e-05
-5.60665e-09
-0.000195985
2.64905e-05
-6.21189e-09
-0.000213464
1.74855e-05
-6.64136e-09
-0.000222196
8.73913e-06
-6.89946e-09
-0.000223435
1.24636e-06
-7.02823e-09
-4.20046e-06
-7.02671e-09
-0.000219228
-1.73292e-05
3.53732e-05
-5.06601e-05
6.87132e-05
-8.87841e-05
7.9488e-05
-0.000124643
7.60322e-05
-0.000153851
6.37631e-05
-0.000173924
4.65636e-05
-0.000183831
2.7392e-05
-0.000183725
8.63307e-06
-0.0001748
-7.67817e-06
-1.98657e-05
-0.000159135
-1.58708e-05
5.12439e-05
-4.50329e-05
9.78753e-05
-7.66118e-05
0.000111067
-0.000103824
0.000103244
-0.000122408
8.23468e-05
-0.000129843
5.39994e-05
-0.000124935
2.24836e-05
-0.000107621
-8.68096e-06
-7.89512e-05
-3.6348e-05
-5.77638e-05
-4.10531e-05
-1.35889e-05
6.48328e-05
-3.62854e-05
0.000120572
-5.78097e-05
0.000132591
-7.18945e-05
0.000117329
-7.45799e-05
8.50322e-05
-6.33989e-05
4.28184e-05
-3.69757e-05
-3.93959e-06
5.07461e-06
-5.07313e-05
6.1978e-05
-9.32514e-05
-0.000127371
0.000131585
-1.03307e-05
7.51636e-05
-2.39334e-05
0.000134175
-3.14749e-05
0.000140133
-2.75478e-05
0.000113402
-8.80578e-06
6.62902e-05
2.69209e-05
7.09174e-06
8.1066e-05
-5.80847e-05
0.000154393
-0.000124058
0.000246595
-0.000185454
-0.000236392
0.000355616
-5.85634e-06
8.10199e-05
-7.22436e-06
0.000135543
3.85753e-06
0.000129051
3.15174e-05
8.57421e-05
7.80303e-05
1.97773e-05
0.000144792
-5.96697e-05
0.000232897
-0.00014619
0.000343342
-0.000234503
0.000476515
-0.000318627
-0.000390485
0.000630608
1.35676e-07
8.08842e-05
1.47827e-05
0.000120896
5.01092e-05
9.37243e-05
0.000108572
2.72789e-05
0.00019085
-6.25008e-05
0.000296841
-0.000165661
0.000426446
-0.000275795
0.000580177
-0.000388234
0.000759052
-0.000497502
-0.00059351
0.000962077
7.92059e-06
7.29637e-05
4.29411e-05
8.58751e-05
0.000109141
2.7524e-05
0.000207133
-7.07127e-05
0.00033563
-0.000190998
0.000492245
-0.000322276
0.000674317
-0.000457866
0.000880056
-0.000593973
0.0011098
-0.00072725
-0.000850549
0.00136684
1.76018e-05
5.53618e-05
7.75459e-05
2.5931e-05
0.000181798
-7.67279e-05
0.000329425
-0.00021834
0.000517451
-0.000379024
0.000741064
-0.000545889
0.000993917
-0.000710719
0.0012691
-0.000869156
0.00156268
-0.00102083
-0.00117615
0.00188828
2.89154e-05
2.64464e-05
0.000117681
-6.28341e-05
0.000266421
-0.000225468
0.000473655
-0.000425574
0.000736502
-0.000641871
0.00105039
-0.000859773
0.00140839
-0.00106872
0.00179962
-0.00126038
0.0022082
-0.00142941
-0.00157887
0.00261091
4.10567e-05
-1.46103e-05
0.000160517
-0.000182294
0.000356617
-0.000421568
0.00062792
-0.000696877
0.0009736
-0.000987551
0.0013941
-0.00128027
0.00189236
-0.00156699
0.00247702
-0.00184504
0.00317021
-0.0021226
-0.00243667
0.00402802
5.29581e-05
-6.75684e-05
0.000202103
-0.000331439
0.000442422
-0.000661887
0.000770143
-0.0010246
0.00118228
-0.00139969
0.00167664
-0.00177463
0.00225177
-0.00214211
0.00290644
-0.00249971
0.00363492
-0.00285109
-0.0032048
0.00440305
6.41072e-05
-0.000131676
0.000240409
-0.000507741
0.000519162
-0.000940639
0.000892022
-0.00139746
0.00135087
-0.00185853
0.00188719
-0.00231095
0.00249143
-0.00274636
0.00315155
-0.00315982
0.00384888
-0.00354843
-0.00390584
0.00454992
7.45181e-05
-0.000206194
0.000275142
-0.000708365
0.000586258
-0.00125176
0.000993692
-0.00180489
0.00148317
-0.00234802
0.00203972
-0.00286749
0.00264723
-0.00335387
0.00328779
-0.00380038
0.00394014
-0.00420077
-0.00454384
0.00457814
8.4321e-05
-0.000290515
0.00030641
-0.000930455
0.00064391
-0.00158925
0.00107621
-0.00223719
0.00158286
-0.00285467
0.00214335
-0.00342798
0.00273721
-0.00394773
0.00334421
-0.00440739
0.00394429
-0.00480086
-0.00511742
0.00451787
9.34938e-05
-0.000384008
0.000333923
-0.00117088
0.000691491
-0.00194682
0.00113894
-0.00268464
0.00165013
-0.00336587
0.00220022
-0.00397807
0.00276632
-0.00451383
0.00332812
-0.00496918
0.0038683
-0.00534104
-0.00562244
0.00437332
0.000101786
-0.000485795
0.000356785
-0.00142588
0.000727277
-0.00231731
0.00117949
-0.00313686
0.0016824
-0.00386877
0.00220825
-0.00450392
0.00273346
-0.00503904
0.00323926
-0.00547499
0.00371205
-0.00581383
-0.00605437
0.00414398
0.000108769
-0.000594564
0.000373655
-0.00169077
0.000748869
-0.00269253
0.00119464
-0.00358263
0.00167619
-0.00435032
0.00216443
-0.00499215
0.00263673
-0.00551133
0.00307718
-0.00591544
0.00347645
-0.0062131
-0.00640989
0.00383197
0.00011392
-0.000708484
0.000383039
-0.00195989
0.000753803
-0.00306329
0.00118141
-0.00401024
0.00162878
-0.0047977
0.00206718
-0.00543055
0.00247637
-0.00592053
0.00284427
-0.00628334
0.00316607
-0.0065349
-0.00668762
0.00344379
0.000116717
-0.0008252
0.000383549
-0.00222672
0.000740051
-0.00341979
0.0011378
-0.00440798
0.00153916
-0.00519905
0.00191731
-0.0058087
0.00225565
-0.00625886
0.00254642
-0.00657411
0.00278918
-0.00677766
-0.00688815
0.00298972
0.0001167
-0.0009419
0.000374106
-0.00248413
0.000706357
-0.00375205
0.00106322
-0.00476485
0.00140831
-0.00554414
0.00171818
-0.00611857
0.00198061
-0.00652129
0.00219232
-0.00678582
0.00235671
-0.00694206
-0.00701379
0.00248235
0.000113476
-0.00105538
0.000353971
-0.00272462
0.000652261
-0.00405034
0.000958391
-0.00507098
0.00123898
-0.00582473
0.00147507
-0.00635465
0.00165918
-0.00670541
0.00179222
-0.00691885
0.0018807
-0.00703055
-0.00706806
0.00193498
0.000106793
-0.00116217
0.000322885
-0.00294071
0.000578222
-0.00430567
0.000825334
-0.00531809
0.00103541
-0.00603481
0.00119467
-0.00651392
0.00130036
-0.0068111
0.00135694
-0.00697543
0.0013732
-0.00704681
-0.00705527
0.0013604
9.65111e-05
-0.00125868
0.000280987
-0.00312519
0.000485418
-0.0045101
0.000666976
-0.00549965
0.000802649
-0.00617048
0.000884194
-0.00659546
0.000913153
-0.00684006
0.000896774
-0.00695905
0.000845243
-0.00699528
-0.00698003
0.000770004
8.26163e-05
-0.0013413
0.000228808
-0.00327138
0.000375628
-0.00465692
0.000486845
-0.00561086
0.000546121
-0.00622976
0.00055072
-0.00660006
0.000505892
-0.00679523
0.000420792
-0.00687395
0.000306163
-0.00688065
-0.00684702
0.000173159
6.52308e-05
-0.00140653
0.00016724
-0.00337339
0.000251112
-0.00474079
0.000288817
-0.00564857
0.000271178
-0.00621212
0.000200698
-0.00652958
8.56561e-05
-0.00668019
-6.37181e-05
-0.00672458
-0.000236876
-0.00670749
-0.00666075
-0.00042315
4.46281e-05
-0.00145116
9.75477e-05
-0.00342631
0.000114573
-0.00475782
7.70211e-05
-0.00561102
-1.70175e-05
-0.00611808
-0.00016024
-0.00638636
-0.000341947
-0.00649848
-0.000551504
-0.00651502
-0.000779171
-0.00647983
-0.0064249
-0.00101502
2.12602e-05
-0.00147242
2.14012e-05
-0.00342645
-3.08134e-05
-0.00470561
-0.000144106
-0.00549773
-0.000313403
-0.00594878
-0.000527149
-0.00617261
-0.000772683
-0.00625294
-0.00103935
-0.00624835
-0.00131876
-0.00620042
-0.0061398
-0.00160386
-4.20108e-06
-0.00146822
-5.90428e-05
-0.00337161
-0.000181267
-0.00458338
-0.000369656
-0.00530934
-0.000612914
-0.00570552
-0.000896018
-0.00588951
-0.00120468
-0.00594428
-0.00152811
-0.00592492
-0.00185946
-0.00586907
-0.00579866
-0.0022006
-3.08004e-05
-0.00143742
-0.000140965
-0.00326144
-0.000331948
-0.0043924
-0.000593267
-0.00504802
-0.000908911
-0.00538988
-0.00126217
-0.00553625
-0.00163846
-0.00556799
-0.00202739
-0.00553599
-0.00242529
-0.00547117
-0.00540662
-0.00281733
-5.73036e-05
-0.00138011
-0.000220848
-0.0030979
-0.000476454
-0.00413679
-0.00080503
-0.00471944
-0.00118728
-0.00500763
-0.00160722
-0.00511632
-0.00205353
-0.00512168
-0.00251902
-0.0050705
-0.00300248
-0.00498771
-0.00487212
-0.00353698
-8.26352e-05
-0.00129748
-0.000295654
-0.00288488
-0.000609044
-0.0038234
-0.000994833
-0.00433365
-0.00142934
-0.00457312
-0.00189446
-0.0046512
-0.00237719
-0.00463895
-0.00286849
-0.0045792
-0.00336206
-0.00449414
-0.00439185
-0.00384234
-0.000106164
-0.00119131
-0.000364023
-0.00262702
-0.000728394
-0.00345903
-0.00116305
-0.003899
-0.00164034
-0.00409582
-0.00214052
-0.00415103
-0.00265011
-0.00412936
-0.00316011
-0.0040692
-0.00366333
-0.00399092
-0.00390491
-0.00415026
-0.000127553
-0.00106376
-0.000425388
-0.00232919
-0.000834442
-0.00304998
-0.00131133
-0.00342211
-0.00182539
-0.00358176
-0.00235613
-0.00362028
-0.00289047
-0.00359502
-0.00342024
-0.00353943
-0.00393989
-0.00347128
-0.00339993
-0.00444487
-0.00014655
-0.000917209
-0.000479338
-0.0019964
-0.000927041
-0.00260227
-0.00144029
-0.00290886
-0.00198625
-0.0030358
-0.00254427
-0.00306226
-0.00310204
-0.00303724
-0.00365258
-0.0029889
-0.00419192
-0.00293194
-0.00287406
-0.00471779
-0.000162912
-0.000754297
-0.00052543
-0.00163388
-0.00100578
-0.00212192
-0.00154974
-0.0023649
-0.00212293
-0.00246261
-0.00270481
-0.00248038
-0.00328395
-0.00245811
-0.00385442
-0.00241842
-0.00441344
-0.00237292
-0.0023276
-0.0049599
-0.000176394
-0.000577904
-0.000563165
-0.00124711
-0.00107003
-0.00161506
-0.00163896
-0.00179597
-0.00223449
-0.00186708
-0.00283632
-0.00187854
-0.00343378
-0.00186066
-0.00402179
-0.00183041
-0.00459833
-0.00179638
-0.00176293
-0.005163
-0.000186757
-0.000391147
-0.000592029
-0.000841837
-0.00111905
-0.00108805
-0.001707
-0.00120802
-0.00231966
-0.00125442
-0.00293699
-0.00126121
-0.00354888
-0.00124876
-0.00415089
-0.00122841
-0.0047415
-0.00120577
-0.00118372
-0.00532071
-0.000193794
-0.000197353
-0.000611562
-0.000424068
-0.00115217
-0.000547444
-0.00175294
-0.000607243
-0.00237722
-0.000630146
-0.00300514
-0.00063329
-0.00362698
-0.000626918
-0.0042387
-0.000616685
-0.00483909
-0.000605383
-0.000594434
-0.00542837
-0.000197353
-5.27771e-10
-0.00062142
-1.15825e-09
-0.00116886
-1.41205e-09
-0.0017761
-1.44572e-09
-0.00240625
-1.35789e-09
-0.00303954
-1.21067e-09
-0.00366645
-1.04132e-09
-0.00428314
-8.71168e-10
-0.00488852
-7.11593e-10
-5.54877e-10
-0.00548296
-0.000197353
0.000197352
-0.00062142
0.000424066
-0.00116886
0.000547441
-0.0017761
0.00060724
-0.00240625
0.000630143
-0.00303954
0.000633288
-0.00366645
0.000626916
-0.00428314
0.000616683
-0.00488852
0.000605382
0.000594433
-0.00548296
-0.000193794
0.000391146
-0.000611562
0.000841834
-0.00115217
0.00108804
-0.00175294
0.00120802
-0.00237722
0.00125442
-0.00300514
0.00126121
-0.00362698
0.00124876
-0.0042387
0.0012284
-0.00483909
0.00120577
0.00118372
-0.00542837
-0.000186757
0.000577903
-0.000592029
0.00124711
-0.00111905
0.00161506
-0.001707
0.00179597
-0.00231966
0.00186708
-0.00293699
0.00187854
-0.00354888
0.00186065
-0.00415089
0.00183041
-0.0047415
0.00179638
0.00176293
-0.00532071
-0.000176394
0.000754296
-0.000563165
0.00163388
-0.00107003
0.00212192
-0.00163896
0.0023649
-0.00223449
0.00246261
-0.00283632
0.00248038
-0.00343378
0.00245811
-0.00402179
0.00241842
-0.00459833
0.00237292
0.0023276
-0.005163
-0.000162912
0.000917208
-0.00052543
0.0019964
-0.00100578
0.00260227
-0.00154974
0.00290886
-0.00212293
0.00303579
-0.00270481
0.00306226
-0.00328395
0.00303724
-0.00385442
0.0029889
-0.00441344
0.00293194
0.00287405
-0.0049599
-0.00014655
0.00106376
-0.000479338
0.00232918
-0.000927041
0.00304997
-0.00144029
0.00342211
-0.00198625
0.00358176
-0.00254427
0.00362028
-0.00310204
0.00359501
-0.00365258
0.00353943
-0.00419192
0.00347128
0.00339993
-0.00471779
-0.000127553
0.00119131
-0.000425388
0.00262702
-0.000834442
0.00345903
-0.00131133
0.003899
-0.00182539
0.00409582
-0.00235613
0.00415102
-0.00289047
0.00412936
-0.00342024
0.0040692
-0.00393989
0.00399092
0.00390491
-0.00444487
-0.000106164
0.00129748
-0.000364023
0.00288488
-0.000728394
0.0038234
-0.00116305
0.00433365
-0.00164034
0.00457312
-0.00214052
0.0046512
-0.00265011
0.00463895
-0.00316011
0.0045792
-0.00366333
0.00449414
0.00439184
-0.00415026
-8.26353e-05
0.00138011
-0.000295655
0.0030979
-0.000609044
0.00413679
-0.000994833
0.00471944
-0.00142934
0.00500763
-0.00189446
0.00511632
-0.00237719
0.00512168
-0.00286849
0.0050705
-0.00336206
0.00498771
0.00487212
-0.00384234
-5.73037e-05
0.00143741
-0.000220849
0.00326144
-0.000476455
0.0043924
-0.000805031
0.00504801
-0.00118728
0.00538988
-0.00160722
0.00553625
-0.00205353
0.00556799
-0.00251902
0.00553599
-0.00300248
0.00547117
0.00540662
-0.00353698
-3.08006e-05
0.00146822
-0.000140965
0.00337161
-0.000331949
0.00458338
-0.000593268
0.00530933
-0.000908912
0.00570552
-0.00126217
0.00588951
-0.00163846
0.00594428
-0.00202739
0.00592492
-0.00242529
0.00586907
0.00579866
-0.00281733
-4.20124e-06
0.00147242
-5.90432e-05
0.00342645
-0.000181268
0.0047056
-0.000369657
0.00549772
-0.000612915
0.00594878
-0.000896019
0.00617261
-0.00120468
0.00625294
-0.00152811
0.00624835
-0.00185946
0.00620042
0.0061398
-0.0022006
2.12601e-05
0.00145116
2.14007e-05
0.00342631
-3.08143e-05
0.00475782
-0.000144107
0.00561102
-0.000313405
0.00611808
-0.00052715
0.00638636
-0.000772685
0.00649848
-0.00103936
0.00651502
-0.00131876
0.00647983
0.00642489
-0.00160386
4.46279e-05
0.00140653
9.75471e-05
0.00337339
0.000114572
0.00474079
7.70198e-05
0.00564857
-1.70191e-05
0.00621212
-0.000160242
0.00652958
-0.000341949
0.00668018
-0.000551506
0.00672457
-0.000779172
0.00670749
0.00666075
-0.00101502
6.52306e-05
0.0013413
0.00016724
0.00327138
0.000251111
0.00465692
0.000288815
0.00561086
0.000271177
0.00622976
0.000200695
0.00660006
8.56539e-05
0.00679523
-6.37203e-05
0.00687395
-0.000236878
0.00688065
0.00684702
-0.000423152
8.26161e-05
0.00125868
0.000228807
0.00312519
0.000375627
0.0045101
0.000486843
0.00549965
0.000546119
0.00617048
0.000550718
0.00659546
0.000505889
0.00684005
0.000420789
0.00695905
0.00030616
0.00699528
0.00698002
0.000173156
9.65109e-05
0.00116217
0.000280987
0.00294071
0.000485416
0.00430567
0.000666974
0.00531809
0.000802647
0.00603481
0.000884191
0.00651392
0.00091315
0.0068111
0.000896771
0.00697543
0.00084524
0.00704681
0.00705526
0.000770001
0.000106793
0.00105538
0.000322884
0.00272462
0.00057822
0.00405034
0.000825332
0.00507098
0.0010354
0.00582473
0.00119467
0.00635465
0.00130036
0.00670541
0.00135693
0.00691885
0.0013732
0.00703054
0.00706806
0.0013604
0.000113476
0.000941901
0.00035397
0.00248413
0.00065226
0.00375205
0.000958389
0.00476485
0.00123898
0.00554414
0.00147507
0.00611857
0.00165918
0.00652129
0.00179221
0.00678582
0.0018807
0.00694206
0.00701379
0.00193497
0.0001167
0.000825201
0.000374105
0.00222672
0.000706356
0.0034198
0.00106322
0.00440799
0.00140831
0.00519906
0.00171817
0.0058087
0.0019806
0.00625886
0.00219231
0.00657411
0.00235671
0.00677766
0.00688815
0.00248235
0.000116716
0.000708485
0.000383548
0.00195989
0.00074005
0.0030633
0.0011378
0.00401024
0.00153916
0.0047977
0.00191731
0.00543055
0.00225564
0.00592053
0.00254642
0.00628334
0.00278918
0.0065349
0.00668761
0.00298971
0.00011392
0.000594565
0.000383039
0.00169077
0.000753802
0.00269253
0.00118141
0.00358263
0.00162878
0.00435032
0.00206717
0.00499216
0.00247637
0.00551133
0.00284427
0.00591544
0.00316606
0.0062131
0.00640989
0.00344379
0.000108768
0.000485796
0.000373655
0.00142589
0.000748868
0.00231732
0.00119464
0.00313686
0.00167619
0.00386878
0.00216442
0.00450392
0.00263672
0.00503904
0.00307717
0.00547499
0.00347645
0.00581383
0.00605437
0.00383197
0.000101786
0.00038401
0.000356784
0.00117089
0.000727276
0.00194683
0.00117949
0.00268464
0.0016824
0.00336587
0.00220824
0.00397807
0.00273345
0.00451383
0.00323926
0.00496918
0.00371205
0.00534104
0.00562244
0.00414398
9.34938e-05
0.000290516
0.000333923
0.000930459
0.00069149
0.00158926
0.00113894
0.00223719
0.00165013
0.00285468
0.00220022
0.00342798
0.00276632
0.00394773
0.00332811
0.00440739
0.00386829
0.00480086
0.00511742
0.00437331
8.4321e-05
0.000206195
0.00030641
0.000708369
0.000643909
0.00125176
0.00107621
0.0018049
0.00158286
0.00234802
0.00214335
0.0028675
0.0027372
0.00335388
0.0033442
0.00380039
0.00394429
0.00420078
0.00454384
0.00451787
7.45181e-05
0.000131677
0.000275142
0.000507745
0.000586258
0.000940645
0.000993692
0.00139746
0.00148317
0.00185854
0.00203972
0.00231095
0.00264723
0.00274637
0.00328779
0.00315982
0.00394013
0.00354843
0.00390584
0.00457813
6.41072e-05
6.75699e-05
0.000240409
0.000331443
0.000519161
0.000661893
0.000892022
0.0010246
0.00135086
0.0013997
0.00188718
0.00177463
0.00249143
0.00214212
0.00315154
0.00249971
0.00384888
0.00285109
0.0032048
0.00454992
5.29581e-05
1.46119e-05
0.000202103
0.000182298
0.000442422
0.000421574
0.000770143
0.000696884
0.00118228
0.000987559
0.00167664
0.00128028
0.00225176
0.00156699
0.00290643
0.00184504
0.00363492
0.00212261
0.00243668
0.00440305
4.10567e-05
-2.64448e-05
0.000160517
6.28382e-05
0.000356617
0.000225474
0.00062792
0.000425581
0.0009736
0.000641879
0.0013941
0.000859781
0.00189236
0.00106873
0.00247701
0.00126039
0.00317021
0.00142941
0.00157887
0.00402801
2.89154e-05
-5.53603e-05
0.00011768
-2.59269e-05
0.000266421
7.67339e-05
0.000473655
0.000218347
0.000736501
0.000379032
0.00105039
0.000545897
0.00140839
0.000710727
0.00179961
0.000869163
0.00220819
0.00102084
0.00117616
0.00261091
1.76018e-05
-7.29621e-05
7.75458e-05
-8.58708e-05
0.000181798
-2.75178e-05
0.000329424
7.07201e-05
0.00051745
0.000191006
0.000741063
0.000322284
0.000993915
0.000457875
0.0012691
0.000593981
0.00156268
0.000727257
0.000850556
0.00188828
7.92055e-06
-8.08826e-05
4.2941e-05
-0.000120891
0.000109141
-9.3718e-05
0.000207132
-2.72711e-05
0.000335629
6.25094e-05
0.000492244
0.00016567
0.000674315
0.000275804
0.000880052
0.000388243
0.0011098
0.000497511
0.000593519
0.00136684
1.35633e-07
-8.10182e-05
1.47825e-05
-0.000135538
5.01088e-05
-0.000129044
0.000108572
-8.5734e-05
0.000190849
-1.97681e-05
0.000296839
5.96795e-05
0.000426443
0.0001462
0.000580173
0.000234513
0.000759047
0.000318637
0.000390494
0.000962071
-5.85639e-06
-7.51619e-05
-7.22456e-06
-0.00013417
3.8571e-06
-0.000140126
3.15166e-05
-0.000113393
7.8029e-05
-6.62805e-05
0.00014479
-7.08127e-06
0.000232894
5.80956e-05
0.000343338
0.000124069
0.00047651
0.000185465
0.000236403
0.000630602
-1.03308e-05
-6.48311e-05
-2.39336e-05
-0.000120567
-3.14753e-05
-0.000132584
-2.75486e-05
-0.00011732
-8.80708e-06
-8.5022e-05
2.69189e-05
-4.28073e-05
8.10632e-05
3.95125e-06
0.000154389
5.07432e-05
0.000246591
9.32634e-05
0.000127383
0.000355611
-1.35889e-05
-5.12421e-05
-3.62856e-05
-9.78705e-05
-5.78101e-05
-0.00011106
-7.18952e-05
-0.000103235
-7.45811e-05
-8.23361e-05
-6.34006e-05
-5.39877e-05
-3.69781e-05
-2.24713e-05
5.07142e-06
8.69365e-06
6.1974e-05
3.63608e-05
5.77764e-05
0.00013158
-1.58708e-05
-3.53714e-05
-4.5033e-05
-6.87082e-05
-7.66121e-05
-7.94805e-05
-0.000103824
-7.60227e-05
-0.000122409
-6.37521e-05
-0.000129845
-4.65515e-05
-0.000124937
-2.73791e-05
-0.000107624
-8.61978e-06
-7.89544e-05
7.69164e-06
1.98791e-05
-4.1057e-05
-1.73292e-05
-1.80422e-05
-5.06602e-05
-3.53772e-05
-8.87842e-05
-4.13565e-05
-0.000124644
-4.01634e-05
-0.000153852
-3.4544e-05
-0.000173925
-2.64781e-05
-0.000183832
-1.74723e-05
-0.000183726
-8.72545e-06
-0.000174802
-1.23246e-06
4.21433e-06
-0.000159137
-1.80431e-05
-5.34227e-05
-9.4783e-05
-0.000134951
-0.000169501
-0.000195985
-0.000213464
-0.000222197
-0.000223436
-0.000219229
0.000297085
-0.000516193
-1.19984e-07
0.0015795
-0.00128247
5.50339e-08
0.00296137
-0.00138215
2.73171e-07
0.00399966
-0.00103848
1.95657e-07
0.00489967
-0.000899907
-1.01835e-07
0.00558444
-0.000684463
-3.07323e-07
0.00610711
-0.000522324
-3.39249e-07
0.00645585
-0.000348423
-3.20761e-07
0.00670411
-0.000248096
-1.60347e-07
-9.05914e-05
3.58606e-08
0.000413019
-0.00108835
0.00166408
-0.00253353
0.00301542
-0.00273349
0.00403179
-0.00205485
0.00491555
-0.00178367
0.00559033
-0.00135924
0.00610752
-0.00103952
0.00645466
-0.000695553
0.00670365
-0.000497093
-0.000184216
0.000636676
-0.00176608
0.00182664
-0.0037235
0.00311872
-0.00402557
0.00409291
-0.00302904
0.00494544
-0.00263619
0.00560105
-0.00201486
0.00610784
-0.0015463
0.00645201
-0.00103973
0.00670263
-0.00074771
-0.000284014
0.000952317
-0.00258681
0.0020546
-0.00482578
0.00326217
-0.00523314
0.0041771
-0.00394397
0.00498578
-0.00344487
0.00561466
-0.00264374
0.00610705
-0.00203869
0.00644746
-0.00138015
0.00670084
-0.00100109
-0.000393152
0.001338
-0.0035692
0.00233064
-0.00581842
0.00343324
-0.00633574
0.00427616
-0.00478689
0.00503167
-0.00420038
0.00562841
-0.00324049
0.00610377
-0.00251404
0.00644034
-0.00171672
0.00669799
-0.00125874
-0.000514886
0.00176728
-0.00470587
0.00263418
-0.00668532
0.00361716
-0.00731872
0.0043804
-0.00555013
0.00507725
-0.00489723
0.00563903
-0.00380227
0.00609633
-0.00297134
0.00642985
-0.00205023
0.00669372
-0.00152261
-0.000652567
0.00221018
-0.00595397
0.00294249
-0.00741763
0.00379797
-0.00817419
0.00447938
-0.00623154
0.00511623
-0.00553407
0.00564298
-0.00432903
0.00608293
-0.00341129
0.00641512
-0.00238242
0.00668763
-0.00179512
-0.000809645
0.00263537
-0.0072225
0.00323162
-0.00801388
0.00395948
-0.00890205
0.00456262
-0.00683468
0.0051423
-0.00611375
0.00563671
-0.00482344
0.00606174
-0.00383633
0.00639529
-0.00271597
0.00667933
-0.00207916
-0.000989649
0.00302425
-0.00835847
0.00348232
-0.00847195
0.00408807
-0.0095078
0.00462079
-0.0073674
0.00514975
-0.00664271
0.00561692
-0.0052906
0.00603106
-0.00425047
0.00636952
-0.00305442
0.00666842
-0.00237806
-0.00119616
0.00338142
-0.00912897
0.00369428
-0.00878482
0.00417378
-0.0099873
0.00464788
-0.00784151
0.00513363
-0.00712846
0.00558075
-0.00573772
0.0059892
-0.00465892
0.00633719
-0.00340242
0.00665428
-0.00269515
-0.00143306
0.0441374
-0.00221223
-0.0510541
0.0405516
-0.00519908
0.0390527
-0.00848836
0.0394152
-0.00820397
0.0396905
-0.00740381
0.0401841
-0.00623125
0.0407281
-0.00520295
0.0412816
-0.0039559
0.0418067
-0.00322033
-0.00182175
0.052408
0.00204936
-0.0566696
0.0504798
-0.00327089
0.0481867
-0.00619531
0.0466547
-0.00667189
0.0452914
-0.0060406
0.0442011
-0.00514094
0.0434323
-0.00443407
0.0429881
-0.00351175
0.042776
-0.00300818
-0.00182527
0.0536463
0.0034658
-0.0550627
0.0521908
-0.00181541
0.0504989
-0.00450343
0.0488773
-0.00505029
0.047317
-0.00448027
0.0459061
-0.00373003
0.0447498
-0.0032778
0.0439279
-0.00268987
0.043372
-0.00245225
-0.00161105
0.0517126
0.00354338
-0.0517902
0.0509818
-0.00108465
0.0498424
-0.003364
0.0485503
-0.00375819
0.0472604
-0.00319032
0.0460613
-0.00253096
0.045021
-0.00223748
0.0442255
-0.00189441
0.0436242
-0.00185098
-0.00132377
0.0496787
0.00305294
-0.0491883
0.0492168
-0.000622718
0.0484005
-0.00254768
0.0474333
-0.00279101
0.0464749
-0.00223192
0.0455982
-0.00165427
0.0448185
-0.0014578
0.0441943
-0.00127017
0.0436786
-0.00133527
-0.00103916
0.0480142
0.00241025
-0.0473715
0.0477398
-0.000348319
0.0470875
-0.00189541
0.046339
-0.00204247
0.0456424
-0.0015353
0.0450404
-0.00105233
0.0445024
-0.000919775
0.0440556
-0.00082335
0.0436511
-0.000930815
-0.000783384
0.046834
0.00175527
-0.046179
0.0466621
-0.000176446
0.0461097
-0.00134295
0.0455011
-0.00143384
0.0449863
-0.00102058
0.0445813
-0.000647313
0.0442218
-0.000560237
0.0439125
-0.000514049
0.0436027
-0.000620991
-0.000558755
0.046038
0.00113763
-0.0454203
0.0459426
-8.11401e-05
0.0454578
-0.000858055
0.0449351
-0.000911194
0.0445368
-0.000622244
0.0442597
-0.000370195
0.044017
-0.000317633
0.0438004
-0.000297392
0.0435583
-0.000378924
-0.000359034
0.045553
0.000557607
-0.0449729
0.0455059
-3.4124e-05
0.0450664
-0.000418536
0.0445939
-0.000438685
0.0442639
-0.000292214
0.0440622
-0.000168498
0.0438882
-0.000143618
0.0437267
-0.000135951
0.0435268
-0.000178985
-0.000175959
0.0453225
-0.0447648
0.0452883
0.0448698
0.0444311
0.0441389
0.0439704
0.0438268
0.0436908
0.0435118
0.056902
0.0022578
-0.0561701
0.0574806
0.00286526
0.0578576
0.00345492
0.0579837
0.00401794
0.0578117
0.00454533
0.057301
0.00502849
0.0564193
0.00545989
0.0551357
0.0058335
0.053394
0.00614475
0.00636791
0.0514071
0.00165
-0.0507993
0.0520604
0.00221198
0.0527457
0.00276969
0.0534454
0.00331816
0.054139
0.00385177
0.0548031
0.00436445
0.0554131
0.00484988
0.0559447
0.00530186
0.0563746
0.0057148
0.00607298
0.0480601
0.0011799
-0.04759
0.048611
0.00166101
0.0492398
0.00214092
0.0499411
0.00261681
0.0507073
0.00308557
0.051528
0.00354382
0.05239
0.00398782
0.0532784
0.00441348
0.0541768
0.00481639
0.00518707
0.0454375
0.000859441
-0.045117
0.0458376
0.00126087
0.0463181
0.00166048
0.0468788
0.00205606
0.047519
0.00244535
0.0482368
0.00282607
0.0490288
0.00319586
0.04989
0.00355225
0.0508138
0.00389252
0.00421073
0.043845
0.000625757
-0.0436114
0.0441523
0.000953593
0.0445333
0.00127947
0.0449878
0.00160155
0.0455152
0.00191795
0.0461145
0.00222685
0.0467839
0.00252639
0.0475215
0.00281471
0.0483242
0.00308975
0.00334669
0.0427456
0.000449384
-0.0425692
0.0429915
0.000707681
0.0433069
0.00096414
0.0436912
0.00121725
0.0441436
0.00146551
0.044663
0.00170744
0.0452478
0.00194158
0.0458961
0.00216647
0.0466053
0.00238053
0.00258045
0.0420529
0.000310036
-0.0419136
0.0422588
0.000501841
0.0425308
0.000692175
0.0428681
0.000879888
0.0432698
0.00106384
0.0437343
0.0012429
0.04426
0.00141596
0.0448445
0.00158193
0.0454854
0.00173962
0.00188681
0.0416017
0.000194512
-0.0414862
0.041782
0.000321551
0.0420266
0.00044759
0.0423346
0.000571857
0.0427048
0.000693584
0.0431357
0.000812014
0.0436253
0.000926401
0.0441712
0.00103601
0.0447708
0.00114007
0.00123727
0.0413382
9.35086e-05
-0.0412372
0.0415029
0.000156827
0.0417309
0.000219661
0.0420211
0.000281621
0.0423723
0.000342321
0.042783
0.000401377
0.043251
0.000458412
0.0437739
0.000513057
0.0443491
0.000564924
0.000613399
0.0412132
-0.0411197
0.0413701
0.0415897
0.0418714
0.0422137
0.0426151
0.0430735
0.0435865
0.0441514
0.0481694
-0.00336957
-0.0476171
0.0488819
-0.00291313
0.0497043
-0.00242626
0.050597
-0.00190774
0.051533
-0.0013591
0.0524938
-0.000787703
0.0534617
-0.000197826
0.0544152
0.000406848
0.0553286
0.00102161
0.00164079
0.0479918
-0.00342374
-0.0479376
0.0480895
-0.00301085
0.0482301
-0.00256682
0.0484192
-0.00209681
0.0486624
-0.00160238
0.0489641
-0.00108936
0.0493276
-0.000561355
0.0497552
-2.07021e-05
0.0502467
0.000530106
0.00108812
0.0468998
-0.00316328
-0.0471602
0.0466939
-0.00280495
0.0465483
-0.00242128
0.0464685
-0.00201694
0.0464603
-0.00159421
0.0465274
-0.00115643
0.0466721
-0.000706047
0.0468964
-0.000245058
0.0472021
0.00022445
0.000700227
0.0455661
-0.00278499
-0.0459444
0.0452453
-0.00248417
0.0449857
-0.00216162
0.0447907
-0.00182194
0.0446635
-0.00146709
0.0446066
-0.00109947
0.0446216
-0.000721124
0.0447106
-0.000334014
0.0448752
5.98536e-05
0.000458387
0.0446404
-0.00236121
-0.0450642
0.04427
-0.00211382
0.0439577
-0.0018493
0.0437066
-0.00157078
0.0435194
-0.0012799
0.0433984
-0.000978498
0.0433456
-0.000668305
0.0433626
-0.000351016
0.0434508
-2.83744e-05
0.000297827
0.0439658
-0.00190968
-0.0444173
0.0435659
-0.00171397
0.0432216
-0.00150497
0.0429358
-0.00128497
0.0427111
-0.00105522
0.0425497
-0.000817126
0.0424535
-0.000572066
0.0424239
-0.000321437
0.0424622
-6.66701e-05
0.00019077
0.0435342
-0.00144307
-0.0440008
0.0431177
-0.00129749
0.042755
-0.00114223
0.0424488
-0.000978797
0.0422017
-0.000808103
0.0420158
-0.000631168
0.0418927
-0.000449029
0.041834
-0.000262741
0.0418407
-7.33897e-05
0.000117915
0.0432547
-0.000966289
-0.0437314
0.0428271
-0.000869922
0.0424521
-0.000767193
0.0421323
-0.000659032
0.0418702
-0.000546049
0.041668
-0.000428907
0.0415272
-0.00030829
0.0414494
-0.000184905
0.0414355
-5.94772e-05
6.72486e-05
0.0430937
-0.000483999
-0.043576
0.0426599
-0.000436123
0.0422778
-0.000385092
0.0419502
-0.000331343
0.0416793
-0.000275177
0.0414673
-0.000216918
0.0413159
-0.000156904
0.0412265
-9.54881e-05
0.0412
-3.30308e-05
3.00951e-05
0.0430197
-0.0435037
0.0425836
0.0421985
0.0418672
0.041592
0.0413751
0.0412182
0.0411227
0.0410896
0.042949
0.00017332
-0.000193431
0.0429962
0.000517409
-0.000564536
0.0430752
0.000866751
-0.000945791
0.0432035
0.00122887
-0.00135721
0.043411
0.00160901
-0.00181651
0.0437411
0.00201134
-0.00234136
0.0442522
0.00243788
-0.00294901
0.045016
0.00289105
-0.00365483
0.0461268
0.00334653
-0.00445735
0.00389317
-0.0053835
0.0429656
0.000136604
0.0430728
0.000410218
0.0432544
0.000685161
0.0435208
0.000962526
0.0438867
0.00124308
0.044371
0.00152704
0.0449954
0.00181344
0.0457841
0.00210243
0.0467523
0.00237834
0.00270779
0.0429665
9.90567e-05
0.0430776
0.000299061
0.0432623
0.000500451
0.0435247
0.000700214
0.0438703
0.000897439
0.0443065
0.0010908
0.0448418
0.00127815
0.0454865
0.00145776
0.0462453
0.00161956
0.00179286
0.0429586
6.94278e-05
0.0430473
0.000210361
0.0431952
0.000352532
0.0434031
0.000492322
0.043672
0.000628532
0.0440029
0.000759856
0.0443964
0.000884699
0.0448523
0.00100184
0.0453656
0.00110627
0.00121405
0.0429504
4.79136e-05
0.0430155
0.000145325
0.0431244
0.000243563
0.0432771
0.000339709
0.0434729
0.00043271
0.0437112
0.000521508
0.043991
0.000604946
0.0443107
0.000682073
0.0446669
0.000750097
0.00081682
0.0429443
3.25067e-05
0.0429911
9.86004e-05
0.0430694
0.000165215
0.0431788
0.000230283
0.0433185
0.000293034
0.0434873
0.000352728
0.0436836
0.000408613
0.0439056
0.000460086
0.04415
0.000505681
0.000549563
0.0429401
2.13102e-05
0.0429741
6.46253e-05
0.0430311
0.000108257
0.0431105
0.000150839
0.0432117
0.000191852
0.0433336
0.000230804
0.043475
0.000267215
0.0436344
0.000300685
0.0438097
0.000330394
0.000358424
0.0429374
1.28689e-05
0.042963
3.90133e-05
0.0430059
6.53362e-05
0.0430657
9.10219e-05
0.0431418
0.000115758
0.0432334
0.000139255
0.0433393
0.000161231
0.0434586
0.000181459
0.0435895
0.000199509
0.000216435
0.0429357
6.05633e-06
0.0429564
1.83554e-05
0.042991
3.07349e-05
0.0430392
4.28139e-05
0.0431005
5.4447e-05