/*--------------------------------*- C++ -*----------------------------------*\
  =========                 |
  \\      /  F ield         | OpenFOAM: The Open Source CFD Toolbox
   \\    /   O peration     | Website:  https://openfoam.org
    \\  /    A nd           | Version:  6.0
     \\/     M anipulation  |
\*---------------------------------------------------------------------------*/
FoamFile
{
    version     2.0;
    format      ascii;
    class       volScalarField;
    location    "9.5";
    object      p;
}
// * * * * * * * * * * * * * * * * * * * * * * * * * * * * * * * * * * * * * //

dimensions      [0 2 -2 0 0 0 0];

internalField   nonuniform List<scalar> 
29500
(
1.00616
1.00594
1.00547
1.00497
1.00438
1.00374
1.00302
1.00227
1.00156
1.00092
1.0004
0.999939
0.999693
0.999375
0.99901
1.00616
1.00597
1.00556
1.00513
1.0046
1.00402
1.00333
1.00259
1.00185
1.00113
1.00052
0.999943
0.999611
0.9991
0.99867
1.00617
1.00597
1.00553
1.00507
1.00451
1.00392
1.00323
1.0025
1.00178
1.0011
1.00052
0.999989
0.999677
0.999119
0.998802
1.00617
1.00596
1.00551
1.00503
1.00444
1.00383
1.00314
1.00243
1.00173
1.00108
1.00053
1.00002
0.999705
0.999105
0.998755
1.00618
1.00597
1.00553
1.00505
1.00446
1.00384
1.00316
1.00245
1.00175
1.0011
1.00054
1.00001
0.999672
0.999018
0.998601
1.00619
1.00599
1.00556
1.00509
1.0045
1.00388
1.00319
1.00248
1.00178
1.00112
1.00054
0.999991
0.999627
0.998929
0.998478
1.0062
1.006
1.00559
1.00512
1.00453
1.0039
1.00321
1.00249
1.00179
1.00112
1.00053
0.999971
0.99959
0.998863
0.998384
1.00621
1.00602
1.00561
1.00514
1.00456
1.00392
1.00322
1.0025
1.00179
1.00112
1.00053
0.999959
0.999562
0.998811
0.998298
1.00622
1.00603
1.00564
1.00518
1.00459
1.00395
1.00325
1.00253
1.00181
1.00113
1.00053
0.999952
0.999536
0.998763
0.998215
1.00623
1.00605
1.00566
1.00521
1.00463
1.00399
1.00329
1.00256
1.00184
1.00115
1.00054
0.999947
0.99951
0.998718
0.998139
1.00625
1.00606
1.00569
1.00523
1.00466
1.00403
1.00332
1.00259
1.00186
1.00117
1.00055
0.999936
0.99948
0.998674
0.99807
1.00626
1.00608
1.00571
1.00526
1.00469
1.00405
1.00334
1.00261
1.00188
1.00117
1.00054
0.999921
0.999449
0.998634
0.998009
1.00628
1.00609
1.00572
1.00527
1.0047
1.00407
1.00336
1.00262
1.00188
1.00117
1.00053
0.999904
0.999418
0.998598
0.997955
1.00629
1.00611
1.00574
1.00529
1.00472
1.00408
1.00338
1.00263
1.00189
1.00117
1.00053
0.999891
0.999392
0.998568
0.997909
1.00631
1.00613
1.00576
1.00531
1.00474
1.0041
1.00339
1.00265
1.0019
1.00118
1.00053
0.999884
0.999371
0.998544
0.997869
1.00633
1.00615
1.00578
1.00533
1.00476
1.00412
1.00341
1.00266
1.00192
1.00119
1.00054
0.999881
0.999354
0.998524
0.997833
1.00635
1.00617
1.00581
1.00535
1.00478
1.00414
1.00343
1.00269
1.00194
1.00121
1.00055
0.99988
0.999337
0.998504
0.997799
1.00637
1.00619
1.00583
1.00537
1.0048
1.00416
1.00345
1.00271
1.00196
1.00123
1.00055
0.999877
0.999319
0.998483
0.997767
1.00639
1.00621
1.00586
1.0054
1.00483
1.00419
1.00348
1.00273
1.00198
1.00124
1.00056
0.999872
0.999299
0.998461
0.997737
1.00641
1.00624
1.00589
1.00544
1.00486
1.00421
1.0035
1.00275
1.002
1.00125
1.00056
0.999864
0.999276
0.998439
0.997708
1.00644
1.00627
1.00592
1.00547
1.0049
1.00424
1.00353
1.00277
1.00201
1.00126
1.00056
0.999854
0.999252
0.998416
0.997681
1.00646
1.00629
1.00596
1.00551
1.00493
1.00428
1.00356
1.00279
1.00203
1.00127
1.00056
0.999843
0.999229
0.998394
0.997657
1.00649
1.00632
1.00599
1.00554
1.00497
1.00431
1.00358
1.00282
1.00204
1.00127
1.00056
0.999832
0.999206
0.998374
0.997634
1.00652
1.00635
1.00602
1.00557
1.005
1.00434
1.00361
1.00284
1.00206
1.00128
1.00056
0.999822
0.999184
0.998355
0.997613
1.00654
1.00638
1.00605
1.00561
1.00503
1.00437
1.00364
1.00286
1.00208
1.00129
1.00056
0.999812
0.999163
0.998337
0.997594
1.00657
1.00641
1.00609
1.00564
1.00507
1.0044
1.00367
1.00289
1.00209
1.0013
1.00056
0.999805
0.999145
0.99832
0.997576
1.0066
1.00644
1.00612
1.00567
1.0051
1.00443
1.00369
1.00291
1.00211
1.00131
1.00056
0.999797
0.999127
0.998304
0.997559
1.00664
1.00647
1.00615
1.0057
1.00513
1.00446
1.00372
1.00293
1.00213
1.00132
1.00056
0.999792
0.99911
0.998288
0.997542
1.00667
1.0065
1.00618
1.00573
1.00515
1.00449
1.00374
1.00295
1.00214
1.00133
1.00056
0.999785
0.999093
0.998272
0.997525
1.0067
1.00653
1.00622
1.00576
1.00519
1.00452
1.00377
1.00297
1.00216
1.00134
1.00056
0.99978
0.999076
0.998256
0.997508
1.00674
1.00657
1.00625
1.0058
1.00522
1.00455
1.0038
1.003
1.00218
1.00135
1.00056
0.999773
0.999058
0.998239
0.997491
1.00677
1.00661
1.00629
1.00584
1.00525
1.00458
1.00383
1.00302
1.0022
1.00136
1.00056
0.999765
0.99904
0.998221
0.997474
1.00681
1.00664
1.00633
1.00588
1.00529
1.00461
1.00385
1.00304
1.00221
1.00137
1.00057
0.999757
0.999021
0.998203
0.997457
1.00685
1.00668
1.00637
1.00592
1.00533
1.00465
1.00389
1.00307
1.00223
1.00138
1.00056
0.999748
0.999003
0.998184
0.997439
1.00689
1.00672
1.00642
1.00596
1.00537
1.00469
1.00392
1.00309
1.00225
1.00139
1.00056
0.999739
0.998983
0.998165
0.997422
1.00693
1.00677
1.00646
1.006
1.00542
1.00472
1.00395
1.00312
1.00227
1.0014
1.00056
0.99973
0.998964
0.998146
0.997404
1.00697
1.00681
1.00651
1.00605
1.00546
1.00476
1.00398
1.00315
1.00228
1.00141
1.00056
0.99972
0.998945
0.998126
0.997386
1.00701
1.00685
1.00655
1.00609
1.0055
1.0048
1.00402
1.00317
1.0023
1.00142
1.00056
0.999711
0.998926
0.998107
0.997367
1.00706
1.0069
1.00659
1.00613
1.00554
1.00484
1.00405
1.0032
1.00232
1.00142
1.00056
0.999701
0.998907
0.998087
0.997349
1.0071
1.00694
1.00664
1.00618
1.00558
1.00488
1.00408
1.00322
1.00234
1.00143
1.00056
0.999691
0.998888
0.998067
0.997329
1.00715
1.00699
1.00669
1.00622
1.00562
1.00491
1.00411
1.00325
1.00235
1.00144
1.00056
0.999682
0.998869
0.998046
0.997309
1.0072
1.00703
1.00674
1.00627
1.00567
1.00495
1.00415
1.00327
1.00237
1.00145
1.00056
0.999673
0.998851
0.998026
0.997289
1.00725
1.00708
1.00678
1.00632
1.00571
1.00499
1.00418
1.0033
1.00239
1.00146
1.00056
0.999663
0.998832
0.998004
0.997267
1.0073
1.00713
1.00684
1.00637
1.00575
1.00503
1.00421
1.00333
1.00241
1.00147
1.00056
0.999654
0.998813
0.997982
0.997244
1.00735
1.00719
1.00689
1.00642
1.0058
1.00507
1.00425
1.00336
1.00243
1.00148
1.00055
0.999644
0.998792
0.997958
0.997221
1.0074
1.00724
1.00694
1.00647
1.00585
1.00512
1.00429
1.00339
1.00245
1.00149
1.00055
0.999633
0.998772
0.997934
0.997196
1.00745
1.00729
1.007
1.00652
1.0059
1.00516
1.00433
1.00342
1.00247
1.0015
1.00055
0.999622
0.998751
0.997909
0.99717
1.00751
1.00735
1.00706
1.00658
1.00595
1.00521
1.00436
1.00345
1.00249
1.00151
1.00055
0.99961
0.998729
0.997883
0.997143
1.00756
1.00741
1.00711
1.00664
1.00601
1.00526
1.0044
1.00348
1.00251
1.00152
1.00055
0.999597
0.998707
0.997856
0.997114
1.00762
1.00746
1.00717
1.00669
1.00606
1.00531
1.00444
1.00351
1.00253
1.00153
1.00054
0.999585
0.998684
0.997828
0.997085
1.00768
1.00752
1.00723
1.00675
1.00611
1.00535
1.00448
1.00354
1.00255
1.00153
1.00054
0.999571
0.998661
0.997799
0.997055
1.00774
1.00758
1.00729
1.00681
1.00617
1.0054
1.00452
1.00357
1.00257
1.00154
1.00054
0.999557
0.998637
0.997771
0.997024
1.0078
1.00765
1.00735
1.00686
1.00622
1.00545
1.00456
1.0036
1.00258
1.00155
1.00053
0.999543
0.998613
0.997741
0.996991
1.00786
1.00771
1.00741
1.00692
1.00627
1.00549
1.0046
1.00363
1.0026
1.00156
1.00053
0.999529
0.998589
0.99771
0.996958
1.00792
1.00777
1.00748
1.00698
1.00633
1.00554
1.00464
1.00366
1.00262
1.00157
1.00053
0.999514
0.998564
0.997679
0.996923
1.00799
1.00784
1.00754
1.00704
1.00638
1.00559
1.00468
1.00369
1.00264
1.00158
1.00052
0.9995
0.998539
0.997647
0.996887
1.00805
1.00791
1.00761
1.0071
1.00644
1.00564
1.00472
1.00372
1.00266
1.00158
1.00052
0.999485
0.998513
0.997615
0.99685
1.00812
1.00797
1.00767
1.00717
1.0065
1.00569
1.00476
1.00375
1.00268
1.00159
1.00052
0.999469
0.998487
0.997581
0.996813
1.00819
1.00804
1.00774
1.00723
1.00656
1.00575
1.00481
1.00378
1.00271
1.0016
1.00051
0.999453
0.99846
0.997547
0.996774
1.00826
1.00812
1.00781
1.0073
1.00662
1.0058
1.00485
1.00382
1.00273
1.00161
1.00051
0.999437
0.998432
0.997512
0.996734
1.00833
1.00819
1.00788
1.00737
1.00668
1.00586
1.0049
1.00385
1.00275
1.00162
1.0005
0.999419
0.998403
0.997476
0.996693
1.0084
1.00826
1.00796
1.00744
1.00675
1.00591
1.00495
1.00389
1.00277
1.00163
1.0005
0.999402
0.998374
0.997439
0.99665
1.00848
1.00834
1.00803
1.00751
1.00681
1.00597
1.005
1.00393
1.0028
1.00164
1.00049
0.999383
0.998343
0.997401
0.996606
1.00855
1.00842
1.00811
1.00758
1.00688
1.00603
1.00504
1.00396
1.00282
1.00165
1.00049
0.999364
0.998312
0.997362
0.996561
1.00863
1.00849
1.00818
1.00765
1.00695
1.00609
1.00509
1.004
1.00284
1.00165
1.00048
0.999344
0.99828
0.997322
0.996515
1.00871
1.00857
1.00826
1.00773
1.00701
1.00615
1.00514
1.00403
1.00286
1.00166
1.00047
0.999324
0.998248
0.997281
0.996467
1.00879
1.00866
1.00834
1.0078
1.00708
1.00621
1.00519
1.00407
1.00289
1.00167
1.00046
0.999303
0.998214
0.997239
0.996418
1.00887
1.00874
1.00842
1.00788
1.00715
1.00627
1.00524
1.00411
1.00291
1.00168
1.00046
0.999282
0.99818
0.997195
0.996367
1.00895
1.00882
1.0085
1.00796
1.00722
1.00633
1.00529
1.00415
1.00293
1.00169
1.00045
0.999259
0.998145
0.99715
0.996315
1.00904
1.00891
1.00858
1.00804
1.0073
1.00639
1.00534
1.00419
1.00296
1.00169
1.00044
0.999237
0.998109
0.997104
0.996261
1.00912
1.00899
1.00867
1.00812
1.00737
1.00646
1.0054
1.00422
1.00298
1.0017
1.00043
0.999214
0.998072
0.997056
0.996205
1.00921
1.00908
1.00875
1.0082
1.00745
1.00653
1.00545
1.00427
1.00301
1.00171
1.00043
0.99919
0.998034
0.997007
0.996148
1.0093
1.00917
1.00884
1.00828
1.00752
1.00659
1.00551
1.00431
1.00303
1.00172
1.00042
0.999165
0.997995
0.996956
0.996089
1.00939
1.00927
1.00893
1.00837
1.0076
1.00666
1.00556
1.00435
1.00306
1.00173
1.00041
0.99914
0.997955
0.996904
0.996028
1.00949
1.00936
1.00902
1.00846
1.00768
1.00674
1.00562
1.00439
1.00308
1.00173
1.0004
0.999114
0.997913
0.99685
0.995965
1.00958
1.00946
1.00912
1.00855
1.00777
1.00681
1.00568
1.00443
1.00311
1.00174
1.00039
0.999087
0.997871
0.996795
0.995901
1.00968
1.00955
1.00921
1.00864
1.00785
1.00688
1.00574
1.00448
1.00313
1.00175
1.00038
0.999059
0.997827
0.996738
0.995834
1.00978
1.00965
1.00931
1.00873
1.00793
1.00695
1.0058
1.00452
1.00316
1.00176
1.00037
0.99903
0.997782
0.99668
0.995767
1.00988
1.00975
1.00941
1.00882
1.00802
1.00703
1.00586
1.00457
1.00319
1.00176
1.00035
0.999
0.997736
0.99662
0.995697
1.00998
1.00986
1.00951
1.00892
1.00811
1.0071
1.00592
1.00461
1.00321
1.00177
1.00034
0.99897
0.997688
0.996559
0.995625
1.01008
1.00996
1.00961
1.00901
1.00819
1.00718
1.00598
1.00466
1.00324
1.00178
1.00033
0.998938
0.997639
0.996496
0.995551
1.01019
1.01007
1.00971
1.00911
1.00829
1.00726
1.00605
1.0047
1.00327
1.00179
1.00032
0.998906
0.997589
0.996432
0.995476
1.0103
1.01017
1.00982
1.00921
1.00838
1.00734
1.00611
1.00475
1.00329
1.00179
1.0003
0.998872
0.997537
0.996366
0.995398
1.01041
1.01028
1.00993
1.00932
1.00847
1.00742
1.00618
1.0048
1.00332
1.0018
1.00029
0.998838
0.997484
0.996298
0.995319
1.01052
1.0104
1.01003
1.00942
1.00857
1.0075
1.00625
1.00485
1.00335
1.00181
1.00027
0.998802
0.997429
0.996228
0.995237
1.01063
1.01051
1.01015
1.00953
1.00867
1.00759
1.00632
1.0049
1.00338
1.00182
1.00026
0.998765
0.997372
0.996156
0.995154
1.01075
1.01063
1.01026
1.00964
1.00877
1.00768
1.00639
1.00495
1.00341
1.00182
1.00024
0.998727
0.997314
0.996082
0.995067
1.01086
1.01075
1.01038
1.00975
1.00887
1.00777
1.00646
1.005
1.00344
1.00183
1.00022
0.998687
0.997254
0.996006
0.994979
1.01098
1.01087
1.01049
1.00986
1.00897
1.00785
1.00653
1.00505
1.00347
1.00183
1.00021
0.998646
0.997192
0.995928
0.994888
1.01111
1.01099
1.01061
1.00997
1.00908
1.00795
1.0066
1.0051
1.0035
1.00184
1.00019
0.998604
0.997128
0.995848
0.994795
1.01123
1.01111
1.01074
1.01009
1.00918
1.00804
1.00668
1.00516
1.00353
1.00184
1.00017
0.99856
0.997063
0.995765
0.9947
1.01136
1.01124
1.01086
1.01021
1.00929
1.00813
1.00675
1.00521
1.00356
1.00185
1.00015
0.998515
0.996996
0.99568
0.994602
1.01148
1.01137
1.01099
1.01033
1.0094
1.00823
1.00683
1.00527
1.00359
1.00185
1.00012
0.998468
0.996927
0.995592
0.994501
1.01161
1.0115
1.01112
1.01045
1.00951
1.00832
1.00691
1.00532
1.00362
1.00186
1.0001
0.99842
0.996856
0.995503
0.994398
1.01175
1.01163
1.01125
1.01058
1.00963
1.00842
1.00699
1.00538
1.00365
1.00186
1.00008
0.99837
0.996783
0.99541
0.994292
1.01188
1.01177
1.01138
1.0107
1.00974
1.00852
1.00707
1.00543
1.00368
1.00186
1.00005
0.998319
0.996709
0.995316
0.994183
1.01202
1.01191
1.01152
1.01083
1.00986
1.00862
1.00715
1.00549
1.00371
1.00187
1.00003
0.998267
0.996633
0.995219
0.994071
1.01216
1.01205
1.01165
1.01096
1.00998
1.00873
1.00723
1.00555
1.00374
1.00187
1
0.998213
0.996554
0.99512
0.993957
1.0123
1.01219
1.0118
1.0111
1.0101
1.00883
1.00732
1.00561
1.00377
1.00187
0.999972
0.998157
0.996473
0.995019
0.993839
1.01245
1.01234
1.01194
1.01123
1.01023
1.00894
1.0074
1.00567
1.00381
1.00187
0.999943
0.9981
0.996391
0.994915
0.993719
1.0126
1.01249
1.01208
1.01137
1.01036
1.00905
1.00749
1.00573
1.00384
1.00187
0.999913
0.998041
0.996306
0.994808
0.993595
1.01275
1.01264
1.01223
1.01152
1.01049
1.00917
1.00758
1.00579
1.00387
1.00187
0.999881
0.99798
0.996219
0.994699
0.993468
1.0129
1.01279
1.01238
1.01166
1.01062
1.00928
1.00767
1.00586
1.0039
1.00187
0.999849
0.997917
0.996129
0.994587
0.993339
1.01306
1.01295
1.01254
1.01181
1.01075
1.0094
1.00776
1.00592
1.00393
1.00187
0.999815
0.997853
0.996038
0.994473
0.993206
1.01322
1.01311
1.0127
1.01196
1.01089
1.00951
1.00785
1.00598
1.00396
1.00187
0.99978
0.997787
0.995943
0.994356
0.99307
1.01338
1.01328
1.01286
1.01211
1.01103
1.00963
1.00795
1.00605
1.00399
1.00187
0.999743
0.997719
0.995847
0.994236
0.99293
1.01354
1.01344
1.01302
1.01226
1.01117
1.00975
1.00804
1.00611
1.00403
1.00186
0.999706
0.997649
0.995748
0.994112
0.992787
1.01371
1.01361
1.01318
1.01242
1.01132
1.00988
1.00814
1.00618
1.00406
1.00186
0.999667
0.997577
0.995647
0.993986
0.992641
1.01388
1.01378
1.01335
1.01258
1.01146
1.01
1.00824
1.00624
1.00409
1.00185
0.999626
0.997503
0.995543
0.993856
0.992491
1.01405
1.01396
1.01352
1.01275
1.01161
1.01013
1.00834
1.00631
1.00412
1.00185
0.999585
0.997427
0.995436
0.993723
0.992338
1.01423
1.01413
1.0137
1.01291
1.01176
1.01026
1.00844
1.00638
1.00415
1.00184
0.999542
0.997349
0.995327
0.993586
0.99218
1.01441
1.01432
1.01388
1.01309
1.01192
1.01039
1.00854
1.00645
1.00418
1.00184
0.999497
0.997269
0.995215
0.993446
0.992019
1.01459
1.0145
1.01406
1.01326
1.01208
1.01052
1.00864
1.00652
1.00422
1.00183
0.999451
0.997187
0.9951
0.993302
0.991853
1.01478
1.01469
1.01424
1.01344
1.01224
1.01066
1.00875
1.00659
1.00425
1.00182
0.999404
0.997102
0.994982
0.993155
0.991683
1.01497
1.01488
1.01443
1.01362
1.0124
1.0108
1.00886
1.00666
1.00428
1.00181
0.999355
0.997015
0.994861
0.993005
0.991509
1.01516
1.01508
1.01462
1.0138
1.01256
1.01094
1.00897
1.00673
1.00431
1.0018
0.999304
0.996926
0.994737
0.992851
0.991331
1.01536
1.01528
1.01482
1.01399
1.01273
1.01108
1.00908
1.00681
1.00435
1.00179
0.999252
0.996834
0.994609
0.992692
0.991148
1.01556
1.01548
1.01501
1.01418
1.0129
1.01122
1.00919
1.00688
1.00438
1.00178
0.999198
0.99674
0.994478
0.992531
0.990961
1.01576
1.01568
1.01522
1.01437
1.01308
1.01137
1.0093
1.00696
1.00441
1.00177
0.999142
0.996643
0.994344
0.992365
0.990769
1.01597
1.01589
1.01542
1.01457
1.01326
1.01152
1.00942
1.00703
1.00444
1.00176
0.999085
0.996543
0.994206
0.992196
0.990573
1.01618
1.01611
1.01563
1.01477
1.01344
1.01167
1.00954
1.00711
1.00448
1.00174
0.999025
0.99644
0.994065
0.992022
0.990372
1.01639
1.01633
1.01585
1.01497
1.01362
1.01183
1.00966
1.00719
1.00451
1.00173
0.998964
0.996335
0.993919
0.991844
0.990166
1.01661
1.01655
1.01606
1.01518
1.01381
1.01199
1.00978
1.00727
1.00454
1.00171
0.9989
0.996226
0.99377
0.991661
0.989955
1.01684
1.01677
1.01629
1.01539
1.014
1.01215
1.0099
1.00735
1.00457
1.0017
0.998834
0.996114
0.993617
0.991474
0.98974
1.01706
1.01701
1.01651
1.01561
1.01419
1.01231
1.01003
1.00743
1.00461
1.00168
0.998766
0.995998
0.993459
0.991282
0.989519
1.01729
1.01724
1.01674
1.01583
1.01439
1.01248
1.01016
1.00752
1.00464
1.00166
0.998695
0.995879
0.993297
0.991085
0.989293
1.01753
1.01748
1.01698
1.01605
1.01459
1.01265
1.01029
1.0076
1.00467
1.00164
0.998622
0.995757
0.993131
0.990883
0.989062
1.01777
1.01772
1.01722
1.01628
1.01479
1.01282
1.01042
1.00768
1.00471
1.00162
0.998546
0.99563
0.99296
0.990677
0.988825
1.01801
1.01797
1.01746
1.01651
1.015
1.013
1.01056
1.00777
1.00474
1.00159
0.998467
0.9955
0.992785
0.990464
0.988583
1.01826
1.01823
1.01771
1.01675
1.01522
1.01318
1.0107
1.00786
1.00477
1.00157
0.998386
0.995366
0.992605
0.990247
0.988335
1.01852
1.01848
1.01796
1.01699
1.01543
1.01336
1.01084
1.00795
1.0048
1.00154
0.998301
0.995228
0.99242
0.990024
0.988081
1.01878
1.01875
1.01822
1.01724
1.01565
1.01355
1.01098
1.00804
1.00484
1.00151
0.998213
0.995085
0.99223
0.989795
0.987821
1.01904
1.01901
1.01849
1.01749
1.01588
1.01373
1.01112
1.00813
1.00487
1.00148
0.998122
0.994939
0.992035
0.989561
0.987554
1.01931
1.01929
1.01876
1.01774
1.01611
1.01393
1.01127
1.00822
1.0049
1.00145
0.998027
0.994788
0.991835
0.989321
0.987282
1.01958
1.01957
1.01903
1.018
1.01634
1.01413
1.01142
1.00831
1.00493
1.00141
0.997929
0.994632
0.991629
0.989074
0.987003
1.01986
1.01985
1.01931
1.01827
1.01658
1.01433
1.01157
1.00841
1.00496
1.00138
0.997828
0.994472
0.991419
0.988822
0.986718
1.02015
1.02014
1.0196
1.01854
1.01683
1.01453
1.01173
1.0085
1.00499
1.00134
0.997723
0.994307
0.991202
0.988564
0.986426
1.02044
1.02044
1.01989
1.01882
1.01707
1.01474
1.01189
1.0086
1.00501
1.0013
0.997614
0.994138
0.99098
0.988299
0.986127
1.02074
1.02074
1.02018
1.0191
1.01733
1.01495
1.01205
1.0087
1.00504
1.00125
0.997501
0.993963
0.990752
0.988027
0.985821
1.02104
1.02105
1.02049
1.01939
1.01759
1.01517
1.01221
1.00879
1.00507
1.0012
0.997384
0.993783
0.990518
0.987749
0.985508
1.02135
1.02136
1.0208
1.01968
1.01785
1.01539
1.01238
1.00889
1.00509
1.00115
0.997263
0.993598
0.990278
0.987463
0.985187
1.02166
1.02168
1.02111
1.01998
1.01812
1.01562
1.01255
1.00899
1.00511
1.0011
0.997138
0.993407
0.990031
0.98717
0.984859
1.02198
1.02201
1.02143
1.02029
1.01839
1.01585
1.01272
1.00909
1.00514
1.00105
0.997008
0.993211
0.989778
0.98687
0.984523
1.02231
1.02234
1.02176
1.0206
1.01867
1.01608
1.01289
1.00919
1.00516
1.00099
0.996874
0.993009
0.989518
0.986563
0.984178
1.02265
1.02268
1.0221
1.02092
1.01896
1.01632
1.01307
1.00929
1.00518
1.00092
0.996735
0.992801
0.989251
0.986247
0.983825
1.02299
1.02303
1.02244
1.02125
1.01925
1.01657
1.01325
1.0094
1.0052
1.00086
0.996592
0.992587
0.988977
0.985923
0.983464
1.02333
1.02338
1.02279
1.02158
1.01955
1.01682
1.01343
1.0095
1.00521
1.00079
0.996443
0.992366
0.988694
0.985591
0.983093
1.02369
1.02374
1.02315
1.02192
1.01985
1.01707
1.01361
1.0096
1.00523
1.00072
0.996289
0.992139
0.988405
0.98525
0.982713
1.02405
1.02411
1.02352
1.02227
1.02016
1.01733
1.0138
1.0097
1.00524
1.00064
0.99613
0.991905
0.988107
0.9849
0.982323
1.02442
1.02449
1.02389
1.02262
1.02048
1.01759
1.01399
1.00981
1.00525
1.00056
0.995965
0.991664
0.987801
0.984541
0.981924
1.0248
1.02488
1.02427
1.02299
1.02081
1.01786
1.01418
1.00991
1.00526
1.00048
0.995794
0.991415
0.987486
0.984172
0.981514
1.02519
1.02527
1.02466
1.02336
1.02114
1.01813
1.01438
1.01002
1.00527
1.00039
0.995617
0.991159
0.987162
0.983793
0.981094
1.02558
1.02567
1.02506
1.02374
1.02148
1.01841
1.01458
1.01012
1.00528
1.0003
0.995434
0.990894
0.986829
0.983404
0.980663
1.02598
1.02609
1.02547
1.02412
1.02182
1.0187
1.01478
1.01023
1.00528
1.0002
0.995244
0.990621
0.986486
0.983005
0.980221
1.02639
1.02651
1.02588
1.02452
1.02217
1.01899
1.01499
1.01033
1.00528
1.0001
0.995047
0.99034
0.986133
0.982595
0.979767
1.02682
1.02694
1.02631
1.02492
1.02254
1.01928
1.01519
1.01044
1.00528
0.999997
0.994842
0.990049
0.98577
0.982174
0.979302
1.02724
1.02738
1.02674
1.02534
1.0229
1.01958
1.01541
1.01054
1.00528
0.999885
0.99463
0.989749
0.985396
0.981741
0.978825
1.02768
1.02783
1.02719
1.02576
1.02328
1.01989
1.01562
1.01065
1.00527
0.999767
0.99441
0.989439
0.985012
0.981296
0.978336
1.02813
1.02829
1.02765
1.02619
1.02367
1.0202
1.01584
1.01075
1.00526
0.999643
0.994182
0.989119
0.984615
0.980839
0.977834
1.02859
1.02876
1.02811
1.02664
1.02406
1.02052
1.01606
1.01086
1.00524
0.999513
0.993944
0.988788
0.984207
0.98037
0.977319
1.02906
1.02924
1.02859
1.02709
1.02446
1.02085
1.01628
1.01096
1.00523
0.999376
0.993698
0.988447
0.983787
0.979888
0.976791
1.02954
1.02973
1.02908
1.02755
1.02487
1.02118
1.01651
1.01107
1.00521
0.999232
0.993442
0.988094
0.983354
0.979393
0.97625
1.03003
1.03024
1.02958
1.02803
1.0253
1.02152
1.01673
1.01117
1.00518
0.999081
0.993175
0.987728
0.982908
0.978884
0.975695
1.03053
1.03075
1.03009
1.02851
1.02573
1.02187
1.01697
1.01128
1.00515
0.998921
0.992898
0.987351
0.982449
0.978361
0.975125
1.03105
1.03128
1.03062
1.02901
1.02617
1.02222
1.0172
1.01138
1.00511
0.998753
0.99261
0.986961
0.981976
0.977824
0.974542
1.03157
1.03182
1.03115
1.02952
1.02662
1.02258
1.01744
1.01148
1.00507
0.998576
0.99231
0.986557
0.981489
0.977272
0.973943
1.03211
1.03238
1.0317
1.03004
1.02708
1.02294
1.01768
1.01158
1.00503
0.99839
0.991998
0.98614
0.980987
0.976705
0.97333
1.03266
1.03294
1.03227
1.03058
1.02755
1.02332
1.01792
1.01168
1.00497
0.998193
0.991673
0.985709
0.98047
0.976123
0.972701
1.03322
1.03353
1.03285
1.03113
1.02803
1.0237
1.01817
1.01177
1.00491
0.997986
0.991335
0.985262
0.979937
0.975525
0.972056
1.0338
1.03412
1.03344
1.03169
1.02853
1.02408
1.01842
1.01187
1.00484
0.997768
0.990984
0.984801
0.979388
0.974911
0.971395
1.03439
1.03473
1.03405
1.03226
1.02903
1.02448
1.01867
1.01196
1.00477
0.997538
0.990617
0.984323
0.978823
0.97428
0.970718
1.035
1.03536
1.03467
1.03285
1.02955
1.02488
1.01893
1.01205
1.00469
0.997295
0.990236
0.983829
0.97824
0.973632
0.970024
1.03562
1.036
1.03531
1.03346
1.03008
1.02529
1.01918
1.01213
1.00459
0.997039
0.989839
0.983318
0.97764
0.972966
0.969312
1.03626
1.03666
1.03597
1.03408
1.03062
1.02571
1.01944
1.01221
1.00449
0.99677
0.989426
0.982789
0.977021
0.972283
0.968583
1.03691
1.03734
1.03664
1.03472
1.03118
1.02614
1.0197
1.01228
1.00438
0.996486
0.988995
0.982242
0.976385
0.97158
0.967836
1.03758
1.03803
1.03733
1.03537
1.03175
1.02658
1.01996
1.01235
1.00425
0.996186
0.988547
0.981675
0.975728
0.970859
0.96707
1.03827
1.03875
1.03804
1.03604
1.03233
1.02702
1.02022
1.01241
1.00411
0.99587
0.98808
0.981089
0.975052
0.970118
0.966286
1.03898
1.03948
1.03877
1.03673
1.03293
1.02747
1.02049
1.01247
1.00397
0.995537
0.987593
0.980483
0.974355
0.969357
0.965481
1.0397
1.04023
1.03952
1.03744
1.03354
1.02793
1.02075
1.01252
1.0038
0.995186
0.987086
0.979855
0.973638
0.968576
0.964658
1.04044
1.041
1.04029
1.03817
1.03417
1.0284
1.02101
1.01256
1.00362
0.994816
0.986558
0.979205
0.972898
0.967773
0.963813
1.04121
1.0418
1.04109
1.03891
1.03481
1.02887
1.02128
1.01259
1.00343
0.994426
0.986008
0.978533
0.972136
0.966949
0.962949
1.04199
1.04261
1.0419
1.03968
1.03546
1.02935
1.02154
1.01261
1.00322
0.994015
0.985435
0.977837
0.971351
0.966102
0.962062
1.04279
1.04345
1.04274
1.04047
1.03614
1.02984
1.0218
1.01262
1.00299
0.993582
0.984837
0.977116
0.970542
0.965233
0.961155
1.04362
1.04431
1.0436
1.04128
1.03683
1.03034
1.02205
1.01262
1.00274
0.993125
0.984214
0.976369
0.969708
0.96434
0.960224
1.04447
1.0452
1.04449
1.04211
1.03754
1.03085
1.0223
1.0126
1.00248
0.992643
0.983565
0.975597
0.968848
0.963423
0.959271
1.04535
1.04611
1.0454
1.04297
1.03826
1.03136
1.02255
1.01257
1.00218
0.992135
0.982888
0.974796
0.967963
0.96248
0.958295
1.04625
1.04705
1.04634
1.04385
1.039
1.03188
1.0228
1.01252
1.00187
0.991599
0.982183
0.973968
0.96705
0.961513
0.957294
1.04717
1.04802
1.04731
1.04476
1.03976
1.03241
1.02303
1.01246
1.00153
0.991035
0.981446
0.97311
0.966109
0.960519
0.956269
1.04812
1.04902
1.04831
1.0457
1.04054
1.03294
1.02326
1.01237
1.00117
0.990439
0.980679
0.972221
0.965139
0.959498
0.955219
1.0491
1.05005
1.04934
1.04666
1.04134
1.03348
1.02348
1.01227
1.00077
0.989811
0.979878
0.9713
0.96414
0.958449
0.954144
1.05011
1.05111
1.0504
1.04765
1.04215
1.03402
1.02369
1.01214
1.00034
0.989149
0.979043
0.970346
0.963109
0.957372
0.953042
1.05116
1.0522
1.0515
1.04867
1.04299
1.03457
1.02389
1.01198
0.999884
0.98845
0.978172
0.969358
0.962047
0.956265
0.951912
1.05223
1.05333
1.05263
1.04972
1.04384
1.03511
1.02407
1.0118
0.99939
0.987713
0.977263
0.968335
0.960952
0.955129
0.950756
1.05334
1.0545
1.0538
1.0508
1.04472
1.03566
1.02423
1.01159
0.998857
0.986936
0.976315
0.967274
0.959823
0.953962
0.94957
1.05448
1.0557
1.055
1.05192
1.04561
1.03621
1.02438
1.01134
0.998284
0.986116
0.975325
0.966176
0.95866
0.952763
0.948357
1.05565
1.05694
1.05625
1.05307
1.04652
1.03676
1.02451
1.01106
0.997667
0.985251
0.974293
0.965037
0.957461
0.951531
0.947113
1.05687
1.05823
1.05754
1.05425
1.04745
1.03731
1.02461
1.01074
0.997004
0.984339
0.973215
0.963858
0.956224
0.950266
0.945839
1.05813
1.05955
1.05887
1.05548
1.04841
1.03785
1.02468
1.01038
0.996291
0.983377
0.972091
0.962636
0.95495
0.948967
0.944533
1.05943
1.06093
1.06025
1.05674
1.04938
1.03839
1.02472
1.00997
0.995526
0.982363
0.970918
0.961371
0.953637
0.947633
0.943197
1.06077
1.06235
1.06168
1.05804
1.05036
1.03891
1.02473
1.00951
0.994704
0.981293
0.969694
0.96006
0.952283
0.946263
0.941827
1.06216
1.06382
1.06316
1.05938
1.05137
1.03942
1.02469
1.00899
0.993822
0.980165
0.968418
0.958702
0.950888
0.944856
0.940424
1.06359
1.06535
1.06469
1.06076
1.05239
1.03991
1.02462
1.00841
0.992875
0.978976
0.967085
0.957296
0.94945
0.943412
0.938987
1.06508
1.06693
1.06628
1.06218
1.05342
1.04039
1.02449
1.00777
0.991861
0.977722
0.965696
0.955839
0.947968
0.941929
0.937516
1.06663
1.06857
1.06793
1.06365
1.05447
1.04083
1.0243
1.00706
0.990773
0.976401
0.964247
0.954331
0.946442
0.940406
0.936009
1.06822
1.07028
1.06964
1.06517
1.05553
1.04125
1.02406
1.00627
0.989609
0.975009
0.962737
0.95277
0.94487
0.938843
0.934465
1.06988
1.07205
1.07142
1.06673
1.05659
1.04163
1.02374
1.0054
0.988362
0.973543
0.961162
0.951154
0.943251
0.937238
0.932884
1.0716
1.07389
1.07326
1.06834
1.05766
1.04196
1.02335
1.00444
0.987028
0.972
0.959521
0.949483
0.941584
0.935592
0.931265
1.07339
1.0758
1.07518
1.06999
1.05873
1.04225
1.02287
1.00338
0.985601
0.970375
0.957811
0.947753
0.939867
0.933903
0.929607
1.07525
1.0778
1.07718
1.0717
1.05979
1.04247
1.0223
1.00221
0.984077
0.968666
0.956031
0.945964
0.9381
0.932169
0.92791
1.07718
1.07987
1.07925
1.07345
1.06085
1.04262
1.02162
1.00094
0.98245
0.966869
0.954177
0.944115
0.936282
0.930391
0.926172
1.07919
1.08204
1.08141
1.07525
1.06188
1.0427
1.02083
0.999541
0.980714
0.964981
0.952248
0.942203
0.934412
0.928567
0.924393
1.08129
1.0843
1.08366
1.07709
1.06289
1.04267
1.01991
0.998014
0.978863
0.962997
0.950242
0.940229
0.932488
0.926697
0.922572
1.08347
1.08666
1.08601
1.07898
1.06385
1.04254
1.01884
0.996348
0.976893
0.960916
0.948157
0.93819
0.930511
0.92478
0.920709
1.08575
1.08913
1.08845
1.0809
1.06477
1.04229
1.01763
0.994534
0.974797
0.958732
0.945991
0.936086
0.928479
0.922815
0.918802
1.08813
1.09171
1.09099
1.08286
1.06563
1.04189
1.01624
0.992562
0.97257
0.956445
0.943742
0.933915
0.926391
0.920801
0.916851
1.09062
1.09442
1.09365
1.08486
1.06641
1.04134
1.01466
0.990421
0.970205
0.954049
0.941409
0.931677
0.924248
0.918738
0.914856
1.09322
1.09726
1.09641
1.08687
1.06708
1.0406
1.01289
0.988103
0.967699
0.951544
0.938991
0.929371
0.922047
0.916625
0.912815
1.09594
1.10024
1.09929
1.08889
1.06764
1.03965
1.01089
0.985597
0.965046
0.948927
0.936486
0.926997
0.91979
0.914462
0.910727
1.0988
1.10338
1.10229
1.09092
1.06805
1.03847
1.00866
0.982893
0.962242
0.946195
0.933895
0.924555
0.917476
0.912248
0.908593
1.10179
1.10668
1.10541
1.09292
1.06829
1.03703
1.00617
0.979983
0.959283
0.943347
0.931216
0.922044
0.915104
0.909982
0.906411
1.10494
1.11016
1.10865
1.09489
1.06831
1.0353
1.0034
0.976858
0.956165
0.940383
0.928449
0.919464
0.912674
0.907665
0.904181
1.10826
1.11383
1.11202
1.09679
1.06808
1.03325
1.00035
0.97351
0.952886
0.937301
0.925595
0.916817
0.910188
0.905295
0.901901
1.11175
1.11771
1.1155
1.09859
1.06757
1.03083
0.996975
0.969933
0.949445
0.934102
0.922655
0.914103
0.907644
0.902873
0.899572
1.11544
1.12182
1.11909
1.10026
1.0667
1.02801
0.993274
0.966122
0.94584
0.930786
0.91963
0.911322
0.905044
0.900398
0.897192
1.11935
1.12616
1.12278
1.10175
1.06544
1.02476
0.989228
0.962073
0.942073
0.927357
0.916521
0.908477
0.902388
0.897871
0.894761
1.12348
1.13077
1.12656
1.10301
1.06372
1.02103
0.984823
0.957785
0.938145
0.923814
0.913332
0.905569
0.899676
0.895291
0.892278
1.12787
1.13566
1.13039
1.10396
1.06147
1.01679
0.980048
0.95326
0.93406
0.920163
0.910064
0.902599
0.896911
0.892658
0.889742
1.13255
1.14084
1.13425
1.10453
1.05862
1.01199
0.974896
0.9485
0.929821
0.916406
0.906722
0.899572
0.894092
0.889972
0.887153
1.13753
1.14633
1.13808
1.10463
1.05508
1.00661
0.969365
0.943513
0.925435
0.91255
0.90331
0.896488
0.891222
0.887234
0.88451
1.14287
1.15215
1.14182
1.10415
1.05077
1.00061
0.963459
0.938308
0.92091
0.908599
0.899832
0.893351
0.888301
0.884443
0.881812
1.1486
1.15831
1.14541
1.10297
1.04561
0.993967
0.957187
0.932899
0.916254
0.904562
0.896294
0.890166
0.885332
0.8816
0.879058
1.15476
1.16481
1.14873
1.10094
1.03951
0.986673
0.950569
0.927301
0.911479
0.900445
0.892701
0.886934
0.882316
0.878706
0.876248
1.16142
1.17164
1.15165
1.09792
1.03238
0.978723
0.943628
0.921534
0.906595
0.896259
0.889061
0.883661
0.879255
0.87576
0.873381
1.16863
1.17878
1.15402
1.09371
1.02415
0.970133
0.9364
0.91562
0.901616
0.892012
0.88538
0.880351
0.876152
0.872763
0.870456
1.17647
1.18618
1.15563
1.08814
1.01476
0.960934
0.928928
0.909582
0.896556
0.887716
0.881666
0.877009
0.873009
0.869716
0.867472
1.18503
1.19376
1.15625
1.081
1.00416
0.951182
0.92126
0.903445
0.891431
0.883382
0.877927
0.87364
0.86983
0.86662
0.864428
1.19439
1.20142
1.1556
1.07209
0.992343
0.940954
0.913456
0.897237
0.886257
0.879023
0.874173
0.87025