/*--------------------------------*- C++ -*----------------------------------*\
  =========                 |
  \\      /  F ield         | OpenFOAM: The Open Source CFD Toolbox
   \\    /   O peration     | Website:  https://openfoam.org
    \\  /    A nd           | Version:  6.0
     \\/     M anipulation  |
\*---------------------------------------------------------------------------*/
FoamFile
{
    version     2.0;
    format      ascii;
    class       surfaceScalarField;
    location    "9.5";
    object      phi;
}
// * * * * * * * * * * * * * * * * * * * * * * * * * * * * * * * * * * * * * //

dimensions      [0 3 -1 0 0 0 0];

internalField   nonuniform List<scalar> 
58656
(
2.37917e-05
0.00311204
3.41428e-10
4.78857e-05
0.00307725
7.16889e-05
0.00300895
9.48163e-05
0.00290775
0.000116962
0.0027747
0.000137855
0.00261125
0.000157249
0.00241923
0.000174919
0.00220081
0.000190661
0.00195844
0.000204297
0.00169485
0.000215674
0.00141292
0.000224658
0.001116
0.00023114
0.000807074
0.000235066
0.000490987
0.000179354
0.000238471
2.36411e-05
0.0030884
8.72074e-10
4.75823e-05
0.00305331
7.12336e-05
0.0029853
9.42135e-05
0.00288478
0.000116218
0.0027527
0.000136979
0.00259049
0.000156249
0.00239996
0.000173806
0.00218325
0.000189449
0.0019428
0.000202998
0.0016813
0.000214302
0.00140162
0.000223234
0.00110707
0.000229637
0.000800668
0.000233876
0.000486742
0.00017577
0.000237452
2.34907e-05
0.00306491
1.34311e-09
4.72798e-05
0.00302952
7.07806e-05
0.0029618
9.36149e-05
0.00286194
0.00011548
0.00273084
0.00013611
0.00256986
0.000155258
0.00238081
0.000172703
0.00216581
0.000188245
0.00192726
0.000201708
0.00166784
0.00021294
0.00139038
0.000221822
0.00109818
0.000228164
0.000794326
0.000232321
0.000482587
0.000172556
0.00023554
2.33412e-05
0.00304156
1.78364e-09
4.69791e-05
0.00300589
7.03307e-05
0.00293845
9.30204e-05
0.00283926
0.000114748
0.00270911
0.000135247
0.00254936
0.000154273
0.00236178
0.000171607
0.00214847
0.00018705
0.00191182
0.000200427
0.00165446
0.000211586
0.00137922
0.000220419
0.00108935
0.000226722
0.000788019
0.000230748
0.000478556
0.000169694
0.000233602
2.31926e-05
0.00301837
1.98649e-09
4.66803e-05
0.0029824
6.98838e-05
0.00291524
9.24299e-05
0.00281671
0.00011402
0.00268752
0.000134389
0.002529
0.000153295
0.00234288
0.000170518
0.00213125
0.000185862
0.00189647
0.000199153
0.00164117
0.000210241
0.00136814
0.000219023
0.00108057
0.000225303
0.00078174
0.000229246
0.000474615
0.000167143
0.000231804
2.30451e-05
0.00299532
2.04434e-09
4.63835e-05
0.00295906
6.94399e-05
0.00289218
9.18433e-05
0.00279431
0.000113297
0.00266607
0.000133537
0.00250876
0.000152322
0.00232409
0.000169435
0.00211414
0.000184681
0.00188123
0.000197888
0.00162796
0.000208904
0.00135712
0.000217635
0.00107183
0.000223899
0.000775473
0.000227794
0.000470716
0.000164806
0.000230122
2.28986e-05
0.00297242
1.98764e-09
4.60888e-05
0.00293587
6.89991e-05
0.00286927
9.12607e-05
0.00277205
0.000112579
0.00264475
0.00013269
0.00248865
0.000151356
0.00230543
0.00016836
0.00209713
0.000183508
0.00186608
0.000196631
0.00161484
0.000207577
0.00134617
0.000216255
0.00106316
0.000222503
0.000769225
0.000226369
0.000466852
0.000162653
0.000228526
2.27531e-05
0.00294966
1.7747e-09
4.57961e-05
0.00291283
6.85613e-05
0.00284651
9.06821e-05
0.00274993
0.000111865
0.00262356
0.000131849
0.00246866
0.000150395
0.00228688
0.000167291
0.00208024
0.000182342
0.00185103
0.000195382
0.0016018
0.000206259
0.00133529
0.000214882
0.00105453
0.000221112
0.000762993
0.000224959
0.000463001
0.000160615
0.000226988
2.26088e-05
0.00292705
1.43544e-09
4.55055e-05
0.00288993
6.81266e-05
0.00282388
9.01074e-05
0.00272795
0.000111156
0.00260251
0.000131013
0.00244881
0.000149441
0.00226845
0.000166229
0.00206345
0.000181184
0.00183607
0.000194141
0.00158884
0.000204949
0.00132448
0.000213517
0.00104597
0.000219725
0.000756786
0.000223557
0.000459172
0.000158692
0.000225485
2.24655e-05
0.00290458
9.51927e-10
4.5217e-05
0.00286718
6.76949e-05
0.00280141
8.95364e-05
0.00270611
0.000110452
0.0025816
0.000130182
0.00242908
0.000148493
0.00225014
0.000165173
0.00204677
0.000180033
0.00182121
0.000192908
0.00157597
0.000203648
0.00131374
0.000212161
0.00103745
0.000218343
0.000750602
0.00022216
0.000455351
0.000156835
0.000224007
2.23233e-05
0.00288226
3.10759e-10
4.49305e-05
0.00284458
6.72661e-05
0.00277907
8.89692e-05
0.00268441
0.000109752
0.00256082
0.000129356
0.00240947
0.00014755
0.00223194
0.000164125
0.0020302
0.00017889
0.00180644
0.000191683
0.00156317
0.000202356
0.00130307
0.000210814
0.00102899
0.000216966
0.000744452
0.000220767
0.000451553
0.000155062
0.000222546
2.21822e-05
0.00286008
-4.77804e-10
4.4646e-05
0.00282211
6.68402e-05
0.00275687
8.84057e-05
0.00266284
0.000109056
0.00254017
0.000128536
0.00238999
0.000146614
0.00221387
0.000163083
0.00201373
0.000177754
0.00179177
0.000190466
0.00155046
0.000201072
0.00129246
0.000209476
0.00102059
0.000215596
0.000738329
0.000219379
0.000447766
0.000153334
0.000221099
2.20421e-05
0.00283804
-1.39644e-09
4.43634e-05
0.00279979
6.64171e-05
0.00273482
8.78458e-05
0.00264141
0.000108365
0.00251965
0.000127721
0.00237064
0.000145683
0.0021959
0.000162047
0.00199736
0.000176625
0.00177719
0.000189257
0.00153783
0.000199797
0.00128192
0.000208147
0.00101224
0.000214233
0.000732244
0.000217997
0.000444006
0.000151674
0.000219663
2.1903e-05
0.00281613
-2.41641e-09
4.40828e-05
0.00277761
6.59967e-05
0.00271291
8.72894e-05
0.00262012
0.000107678
0.00249926
0.00012691
0.0023514
0.000144759
0.00217805
0.000161018
0.0019811
0.000175504
0.00176271
0.000188056
0.00152528
0.00019853
0.00127145
0.000206826
0.00100394
0.000212878
0.000726191
0.00021662
0.000440259
0.000150048
0.000218238
2.17648e-05
0.00279437
-3.51057e-09
4.3804e-05
0.00275557
6.5579e-05
0.00269113
8.67365e-05
0.00259896
0.000106995
0.002479
0.000126105
0.00233229
0.00014384
0.00216032
0.000159996
0.00196495
0.00017439
0.00174831
0.000186862
0.0015128
0.000197271
0.00126104
0.000205515
0.000995695
0.000211531
0.000720177
0.000215251
0.000436543
0.000148482
0.000216826
2.16277e-05
0.00277275
-4.64994e-09
4.3527e-05
0.00273367
6.51639e-05
0.00266949
8.61871e-05
0.00257794
0.000106317
0.00245887
0.000125305
0.00231331
0.000142927
0.0021427
0.00015898
0.00194889
0.000173282
0.00173401
0.000185676
0.00150041
0.00019602
0.00125069
0.000204213
0.000987502
0.000210192
0.000714196
0.000213889
0.000432842
0.00014694
0.000215425
2.14914e-05
0.00275126
-5.81493e-09
4.32518e-05
0.00271191
6.47514e-05
0.00264799
8.5641e-05
0.00255705
0.000105643
0.00243886
0.00012451
0.00229444
0.000142019
0.00212519
0.000157971
0.00193294
0.000172182
0.0017198
0.000184498
0.00148809
0.000194778
0.00124041
0.000202919
0.000979361
0.000208861
0.000708255
0.000212535
0.000429172
0.000145447
0.000214037
2.13561e-05
0.00272991
-6.98592e-09
4.29783e-05
0.00269029
6.43415e-05
0.00262663
8.50982e-05
0.00253629
0.000104973
0.00241899
0.00012372
0.00227569
0.000141118
0.00210779
0.000156968
0.00191709
0.000171089
0.00170568
0.000183327
0.00147585
0.000193543
0.0012302
0.000201633
0.00097127
0.000207539
0.000702347
0.00021119
0.000425518
0.00014397
0.000212662
2.12216e-05
0.0027087
-8.14136e-09
4.27065e-05
0.0026688
6.39341e-05
0.0026054
8.45588e-05
0.00251567
0.000104307
0.00239924
0.000122934
0.00225706
0.000140222
0.0020905
0.000155971
0.00190134
0.000170003
0.00169164
0.000182164
0.00146369
0.000192316
0.00122004
0.000200356
0.000963231
0.000206225
0.000696479
0.000209853
0.000421894
0.000142535
0.000211298
2.1088e-05
0.00268762
-9.25788e-09
4.24364e-05
0.00264746
6.35292e-05
0.00258431
8.40226e-05
0.00249518
0.000103645
0.00237962
0.000122154
0.00223855
0.000139332
0.00207332
0.000154981
0.00188569
0.000168924
0.0016777
0.000181008
0.00145161
0.000191097
0.00120995
0.000199087
0.00095524
0.00020492
0.000690644
0.000208524
0.000418287
0.00014111
0.000209945
2.09552e-05
0.00266667
-1.03055e-08
4.2168e-05
0.00262624
6.31267e-05
0.00256335
8.34898e-05
0.00247481
0.000102987
0.00236012
0.000121378
0.00222016
0.000138447
0.00205625
0.000153997
0.00187014
0.000167852
0.00166384
0.00017986
0.0014396
0.000189886
0.00119993
0.000197827
0.0009473
0.000203623
0.00068485
0.000207204
0.00041471
0.000139723
0.000208602
2.08232e-05
0.00264586
-1.12545e-08
4.19012e-05
0.00260517
6.27267e-05
0.00254252
8.29602e-05
0.00245458
0.000102334
0.00234075
0.000120608
0.00220189
0.000137568
0.00203929
0.00015302
0.00185469
0.000166787
0.00165007
0.000178719
0.00142767
0.000188683
0.00118996
0.000196574
0.000939408
0.000202334
0.000679088
0.000205892
0.000411148
0.000138341
0.00020727
2.0692e-05
0.00262518
-1.20759e-08
4.1636e-05
0.00258422
6.23291e-05
0.00252183
8.24338e-05
0.00243447
0.000101684
0.00232149
0.000119842
0.00218373
0.000136695
0.00202244
0.000152048
0.00183933
0.000165729
0.00163639
0.000177585
0.00141581
0.000187488
0.00118006
0.00019533
0.000931567
0.000201053
0.000673366
0.000204588
0.000407617
0.000136994
0.000205946
2.05616e-05
0.00260463
-1.27493e-08
4.13725e-05
0.00256341
6.1934e-05
0.00250127
8.19108e-05
0.00241449
0.000101038
0.00230237
0.000119081
0.00216569
0.000135827
0.00200569
0.000151083
0.00182408
0.000164677
0.0016228
0.000176459
0.00140403
0.0001863
0.00117022
0.000194093
0.000923772
0.000199781
0.000667676
0.000203293
0.000404102
0.000135648
0.000204632
2.04319e-05
0.00258421
-1.32649e-08
4.11105e-05
0.00254273
6.15412e-05
0.00248083
8.13909e-05
0.00239464
0.000100397
0.00228336
0.000118325
0.00214776
0.000134964
0.00198905
0.000150124
0.00180892
0.000163633
0.00160929
0.00017534
0.00139232
0.000185119
0.00116044
0.000192864
0.000916028
0.000198516
0.000662027
0.000202005
0.000400617
0.000134335
0.000203327
2.0303e-05
0.00256392
-1.36288e-08
4.08501e-05
0.00252218
6.11509e-05
0.00246053
8.08743e-05
0.00237492
9.97595e-05
0.00226447
0.000117574
0.00212994
0.000134108
0.00197252
0.000149172
0.00179385
0.000162595
0.00159587
0.000174228
0.00138069
0.000183947
0.00115072
0.000191644
0.000908329
0.00019726
0.000656409
0.000200726
0.000397148
0.000133023
0.000202032
2.01748e-05
0.00254376
-1.38619e-08
4.05912e-05
0.00250177
6.0763e-05
0.00244036
8.0361e-05
0.00235532
9.91261e-05
0.00224571
0.000116827
0.00211224
0.000133256
0.00195609
0.000148225
0.00177888
0.000161563
0.00158253
0.000173124
0.00136913
0.000182781
0.00114106
0.000190431
0.000900681
0.000196011
0.00065083
0.000199454
0.000393709
0.000131741
0.000200744
2.00474e-05
0.00252373
-1.39999e-08
4.0334e-05
0.00248148
6.03775e-05
0.00242032
7.98508e-05
0.00233585
9.84967e-05
0.00222706
0.000116086
0.00209465
0.00013241
0.00193976
0.000147284
0.00176401
0.000160539
0.00156927
0.000172026
0.00135764
0.000181623
0.00113146
0.000189225
0.000893078
0.00019477
0.000645283
0.000198191
0.000390284
0.000130457
0.000199466
1.99207e-05
0.00250382
-1.40874e-08
4.00783e-05
0.00246132
5.99943e-05
0.0024004
7.93438e-05
0.0023165
9.78713e-05
0.00220853
0.000115348
0.00207717
0.00013157
0.00192354
0.00014635
0.00174923
0.00015952
0.0015561
0.000170936
0.00134622
0.000180473
0.00112193
0.000188028
0.000885524
0.000193537
0.000639776
0.000196935
0.000386891
0.000129203
0.000198197
1.97947e-05
0.00248404
-1.41743e-08
3.98242e-05
0.00244129
5.96135e-05
0.00238061
7.88401e-05
0.00229727
9.72499e-05
0.00219012
0.000114616
0.00205981
0.000130735
0.00190742
0.000145421
0.00173454
0.000158509
0.00154301
0.000169853
0.00133488
0.00017933
0.00111245
0.000186837
0.000878015
0.000192312
0.000634299
0.000195688
0.000383512
0.000127945
0.000196936
1.96695e-05
0.00246438
-1.43058e-08
3.95716e-05
0.00242139
5.92351e-05
0.00236094
7.83395e-05
0.00227816
9.66324e-05
0.00217183
0.000113889
0.00204255
0.000129905
0.0018914
0.000144499
0.00171994
0.000157504
0.00153001
0.000168776
0.00132361
0.000178194
0.00110303
0.000185655
0.000870556
0.000191095
0.000628861
0.000194448
0.000380163
0.000126716
0.000195684
1.95451e-05
0.00244485
-1.4519e-08
3.93206e-05
0.00240161
5.88591e-05
0.0023414
7.7842e-05
0.00225918
9.60188e-05
0.00215365
0.000113165
0.0020254
0.000129081
0.00187549
0.000143582
0.00170544
0.000156505
0.00151708
0.000167706
0.0013124
0.000177065
0.00109367
0.00018448
0.00086314
0.000189885
0.000623454
0.000193216
0.000376829
0.000125483
0.00019444
1.94214e-05
0.00242545
-1.48347e-08
3.90711e-05
0.00238196
5.84854e-05
0.00232199
7.73477e-05
0.00224032
9.54091e-05
0.00213559
0.000112447
0.00200836
0.000128261
0.00185967
0.000142671
0.00169103
0.000155513
0.00150424
0.000166644
0.00130127
0.000175944
0.00108437
0.000183312
0.000855773
0.000188682
0.000618085
0.000191992
0.000373524
0.000124278
0.000193204
1.92985e-05
0.00240616
-1.52585e-08
3.88232e-05
0.00236244
5.81141e-05
0.0023027
7.68565e-05
0.00222158
9.48033e-05
0.00211764
0.000111733
0.00199143
0.000127447
0.00184396
0.000141766
0.00167671
0.000154527
0.00149148
0.000165588
0.00129021
0.00017483
0.00107513
0.000182152
0.00084845
0.000187488
0.000612747
0.000190775
0.000370234
0.000123069
0.000191976
1.91763e-05
0.002387
-1.57791e-08
3.85768e-05
0.00234304
5.77451e-05
0.00228353
7.63685e-05
0.00220295
9.42013e-05
0.00209981
0.000111024
0.00197461
0.000126639
0.00182834
0.000140867
0.00166248
0.000153547
0.0014788
0.000164538
0.00127922
0.000173722
0.00106595
0.000180999
0.000841175
0.000186301
0.000607447
0.000189566
0.000366974
0.000121886
0.000190756
1.90548e-05
0.00236796
-1.63764e-08
3.8332e-05
0.00232376
5.73785e-05
0.00226448
7.58835e-05
0.00218445
9.36031e-05
0.00208209
0.000110319
0.00195789
0.000125835
0.00181282
0.000139973
0.00164835
0.000152574
0.0014662
0.000163496
0.0012683
0.000172622
0.00105682
0.000179853
0.000833943
0.000185121
0.000602176
0.000188365
0.000363727
0.0001207
0.000189544
1.89341e-05
0.00234904
-1.70244e-08
3.80887e-05
0.0023046
5.70141e-05
0.00224555
7.54016e-05
0.00216606
9.30088e-05
0.00206448
0.000109619
0.00194128
0.000125037
0.0017974
0.000139085
0.0016343
0.000151606
0.00145368
0.00016246
0.00125744
0.000171529
0.00104775
0.000178715
0.000826759
0.000183949
0.000596944
0.000187171
0.00036051
0.000119541
0.00018834
1.88142e-05
0.00233025
-1.77015e-08
3.7847e-05
0.00228557
5.66521e-05
0.00222675
7.49227e-05
0.00214779
9.24182e-05
0.00204698
0.000108923
0.00192477
0.000124243
0.00178208
0.000138203
0.00162034
0.000150645
0.00144123
0.000161431
0.00124666
0.000170443
0.00103874
0.000177583
0.000819617
0.000182785
0.000591741
0.000185985
0.000357308
0.000118377
0.000187144
1.8695e-05
0.00231157
-1.83912e-08
3.76067e-05
0.00226666
5.62923e-05
0.00220806
7.44469e-05
0.00212963
9.18314e-05
0.00202959
0.000108232
0.00190837
0.000123455
0.00176686
0.000137327
0.00160646
0.00014969
0.00142887
0.000160408
0.00123594
0.000169364
0.00102978
0.000176459
0.000812523
0.000181627
0.000586575
0.000184806
0.000354134
0.000117239
0.000185955
1.85766e-05
0.00229301
-1.9088e-08
3.7368e-05
0.00224786
5.59349e-05
0.00218949
7.39741e-05
0.00211159
9.12483e-05
0.00201232
0.000107545
0.00189207
0.000122672
0.00175173
0.000136456
0.00159268
0.000148742
0.00141658
0.000159392
0.00122529
0.000168291
0.00102088
0.000175343
0.00080547
0.000180477
0.000581438
0.000183635
0.000350974
0.000116097
0.000184774
1.84589e-05
0.00227457
-1.97921e-08
3.71308e-05
0.00222919
5.55796e-05
0.00217104
7.35043e-05
0.00209366
9.06689e-05
0.00199515
0.000106862
0.00187588
0.000121893
0.0017367
0.000135591
0.00157898
0.000147799
0.00140438
0.000158382
0.00121471
0.000167226
0.00101204
0.000174233
0.000798465
0.000179335
0.000576338
0.000182471
0.000347842
0.000114981
0.000183601
1.8342e-05
0.00225625
-2.05095e-08
3.68951e-05
0.00221064
5.52267e-05
0.00215271
7.30375e-05
0.00207585
9.00932e-05
0.0019781
0.000106184
0.00185979
0.00012112
0.00172176
0.000134731
0.00156537
0.000146862
0.00139224
0.000157379
0.00120419
0.000166167
0.00100325
0.00017313
0.0007915
0.000178199
0.000571267
0.000181315
0.000344724
0.000113858
0.000182435
1.82258e-05
0.00223804
-2.12441e-08
3.66609e-05
0.0021922
5.4876e-05
0.0021345
7.25737e-05
0.00205815
8.95212e-05
0.00196115
0.00010551
0.0018438
0.000120352
0.00170692
0.000133876
0.00155184
0.000145931
0.00138019
0.000156382
0.00119374
0.000165115
0.000994517
0.000172034
0.000784582
0.000177071
0.000566232
0.000180166
0.000341635
0.000112761
0.000181277
1.81103e-05
0.00221996
-2.19981e-08
3.64282e-05
0.00217388
5.45275e-05
0.0021164
7.21129e-05
0.00204057
8.89529e-05
0.00194431
0.00010484
0.00182791
0.000119588
0.00169217
0.000133027
0.00153841
0.000145007
0.00136821
0.000155391
0.00118335
0.00016407
0.000985838
0.000170945
0.000777705
0.00017595
0.000561225
0.000179025
0.000338558
0.000111657
0.000180127
1.79956e-05
0.00220198
-2.27663e-08
3.6197e-05
0.00215568
5.41813e-05
0.00209841
7.16549e-05
0.00202309
8.83881e-05
0.00192757
0.000104175
0.00181212
0.000118829
0.00167752
0.000132184
0.00152505
0.000144088
0.00135631
0.000154407
0.00117304
0.000163031
0.000977215
0.000169864
0.000770874
0.000174837
0.000556254
0.000177891
0.00033551
0.000110576
0.000178984
1.78817e-05
0.00218412
-2.35416e-08
3.59672e-05
0.00213759
5.38372e-05
0.00208054
7.11999e-05
0.00200573
8.7827e-05
0.00191094
0.000103514
0.00179644
0.000118076
0.00166295
0.000131346
0.00151178
0.000143174
0.00134448
0.000153429
0.00116278
0.000161999
0.000968644
0.000168789
0.000764082
0.00017373
0.00055131
0.000176764
0.000332473
0.000109489
0.000177849
1.77685e-05
0.00216638
-2.43112e-08
3.5739e-05
0.00211962
5.34954e-05
0.00206278
7.07478e-05
0.00198847
8.72694e-05
0.00189442
0.000102857
0.00178085
0.000117327
0.00164848
0.000130513
0.00149859
0.000142267
0.00133272
0.000152457
0.00115259
0.000160973
0.000960129
0.00016772
0.000757336
0.00017263
0.000546403
0.000175644
0.000329465
0.000108425
0.000176722
1.7656e-05
0.00214875
-2.50652e-08
3.55122e-05
0.00210177
5.31557e-05
0.00204514
7.02986e-05
0.00197133
8.67154e-05
0.001878
0.000102204
0.00176536
0.000116582
0.0016341
0.000129686
0.00148549
0.000141366
0.00132104
0.000151492
0.00114246
0.000159954
0.000951666
0.000166659
0.00075063
0.000171538
0.000541522
0.000174532
0.000326468
0.000107353
0.000175602
1.75443e-05
0.00213123
-2.57923e-08
3.52868e-05
0.00208402
5.28182e-05
0.0020276
6.98523e-05
0.00195429
8.6165e-05
0.00186169
0.000101555
0.00174997
0.000115843
0.00161982
0.000128864
0.00147247
0.00014047
0.00130944
0.000150533
0.0011324
0.000158942
0.000943257
0.000165604
0.000743969
0.000170452
0.000536677
0.000173426
0.000323498
0.000106304
0.000174489
1.74333e-05
0.00211382
-2.64865e-08
3.50629e-05
0.00206639
5.24829e-05
0.00201018
6.94088e-05
0.00193737
8.5618e-05
0.00184548
0.000100911
0.00173467
0.000115108
0.00160562
0.000128047
0.00145953
0.00013958
0.0012979
0.000149579
0.0011224
0.000157936
0.0009349
0.000164557
0.000737346
0.000169373
0.000531858
0.000172328
0.000320539
0.000105247
0.000173383
1.7323e-05
0.00209652
-2.71405e-08
3.48405e-05
0.00204887
5.21497e-05
0.00199287
6.89681e-05
0.00192055
8.50746e-05
0.00182937
0.000100271
0.00171948
0.000114378
0.00159151
0.000127235
0.00144667
0.000138696
0.00128644
0.000148632
0.00111246
0.000156936
0.000926597
0.000163515
0.000730768
0.000168301
0.000527075
0.000171237
0.000317607
0.000104213
0.000172285
1.72134e-05
0.00207934
-2.77504e-08
3.46194e-05
0.00203147
5.18187e-05
0.00197567
6.85303e-05
0.00190384
8.45346e-05
0.00181337
9.96345e-05
0.00170438
0.000113653
0.00157749
0.000126428
0.0014339
0.000137817
0.00127505
0.000147691
0.00110259
0.000155943
0.000918344
0.000162481
0.000724229
0.000167237
0.000522317
0.000170153
0.000314685
0.00010317
0.000171194
1.71045e-05
0.00206226
-2.83085e-08
3.43998e-05
0.00201417
5.14897e-05
0.00195858
6.80953e-05
0.00188723
8.39981e-05
0.00179746
9.90024e-05
0.00168937
0.000112932
0.00156356
0.000125627
0.0014212
0.000136944
0.00126373
0.000146756
0.00109278
0.000154956
0.000910145
0.000161453
0.000717733
0.000166178
0.000517594
0.000169075
0.000311789
0.00010215
0.000170109
1.69964e-05
0.00204529
-2.88086e-08
3.41816e-05
0.00199698
5.11629e-05
0.0019416
6.7663e-05
0.00187073
8.3465e-05
0.00178166
9.83743e-05
0.00167446
0.000112216
0.00154972
0.000124831
0.00140859
0.000136077
0.00125249
0.000145827
0.00108303
0.000153975
0.000901995
0.000160432
0.000711275
0.000165127
0.000512896
0.000168005
0.000308904
0.00010112
0.000169032
1.68889e-05
0.00202843
-2.92406e-08
3.39648e-05
0.0019799
5.08382e-05
0.00192472
6.72335e-05
0.00185433
8.29354e-05
0.00176596
9.77503e-05
0.00165965
0.000111504
0.00153596
0.00012404
0.00139605
0.000135215
0.00124131
0.000144904
0.00107334
0.000153001
0.000893898
0.000159417
0.000704861
0.000164082
0.000508233
0.000166942
0.000306045
0.000100113
0.000167962
1.67821e-05
0.00201168
-2.95974e-08
3.37494e-05
0.00196294
5.05155e-05
0.00190796
6.68068e-05
0.00183804
8.24091e-05
0.00175036
9.71302e-05
0.00164493
0.000110797
0.0015223
0.000123254
0.00138359
0.000134358
0.00123021
0.000143986
0.00106371
0.000152033
0.000885851
0.000158408
0.000698484
0.000163045
0.000503594
0.000165885
0.000303197
9.9097e-05
0.000166899
1.6676e-05
0.00199503
-2.98714e-08
3.35354e-05
0.00194608
5.0195e-05
0.0018913
6.63828e-05
0.00182185
8.18861e-05
0.00173485
9.65141e-05
0.0016303
0.000110095
0.00150872
0.000122473
0.00137121
0.000133507
0.00121917
0.000143075
0.00105414
0.000151071
0.000877855
0.000157407
0.00069215
0.000162013
0.00049899
0.000164836
0.000300375
9.81041e-05
0.000165842
1.65706e-05
0.00197849
-3.00619e-08
3.33228e-05
0.00192932
4.98764e-05
0.00187474
6.59615e-05
0.00180576
8.13666e-05
0.00171945
9.59019e-05
0.00161576
0.000109397
0.00149522
0.000121697
0.00135891
0.000132662
0.00120821
0.00014217
0.00104463
0.000150115
0.000869908
0.000156411
0.000685853
0.000160989
0.000494409
0.000163793
0.000297564
9.71022e-05
0.000164792
1.64659e-05
0.00196205
-3.01709e-08
3.31115e-05
0.00191268
4.95599e-05
0.00185829
6.55429e-05
0.00178978
8.08503e-05
0.00170414
9.52936e-05
0.00160132
0.000108703
0.00148181
0.000120926
0.00134669
0.000131822
0.00119731
0.00014127
0.00103519
0.000149166
0.000862013
0.000155422
0.000679598
0.000159971
0.000489863
0.000162757
0.000294779
9.61228e-05
0.00016375
1.63618e-05
0.00194572
-3.0208e-08
3.29016e-05
0.00189613
4.92455e-05
0.00184195
6.5127e-05
0.0017739
8.03373e-05
0.00168893
9.46892e-05
0.00158697
0.000108014
0.00146848
0.000120159
0.00133455
0.000130987
0.00118648
0.000140376
0.0010258
0.000148222
0.000854165
0.000154439
0.000673379
0.000158959
0.000485341
0.000161727
0.000292004
9.51349e-05
0.000162713
1.62584e-05
0.00192949
-3.01856e-08
3.2693e-05
0.0018797
4.8933e-05
0.0018257
6.47137e-05
0.00175812
7.98277e-05
0.00167381
9.40887e-05
0.0015727
0.00010733
0.00145524
0.000119398
0.00132248
0.000130158
0.00117572
0.000139488
0.00101647
0.000147285
0.000846368
0.000153463
0.000667203
0.000157954
0.000480852
0.000160705
0.000289256
9.417e-05
0.000161684
1.61557e-05
0.00191336
-3.0121e-08
3.24858e-05
0.00186337
4.86226e-05
0.00180957
6.43031e-05
0.00174244
7.93212e-05
0.00165879
9.34921e-05
0.00155853
0.000106649
0.00144208
0.000118642
0.00131048
0.000129334
0.00116503
0.000138605
0.00100719
0.000146353
0.000838618
0.000152493
0.000661062
0.000156956
0.000476386
0.000159689
0.000286518
9.31957e-05
0.000160661
1.60536e-05
0.00189733
-3.0031e-08
3.22798e-05
0.00184714
4.83141e-05
0.00179353
6.38951e-05
0.00172685
7.8818e-05
0.00164387
9.28992e-05
0.00154445
0.000105973
0.00142901
0.00011789
0.00129857
0.000128515
0.0011544
0.000137728
0.000997981
0.000145428
0.000830919
0.000151529
0.000654962
0.000155964
0.000471953
0.000158679
0.000283805
9.22441e-05
0.000159645
1.59521e-05
0.00188141
-2.99333e-08
3.20752e-05
0.00183102
4.80076e-05
0.0017776
6.34897e-05
0.00171137
7.83181e-05
0.00162904
9.23101e-05
0.00153046
0.000105302
0.00141602
0.000117144
0.00128672
0.000127702
0.00114385
0.000136857
0.000988824
0.000144509
0.000823266
0.000150571
0.000648898
0.000154978
0.000467544
0.000157676
0.000281102
9.12825e-05
0.000158636
1.58513e-05
0.00186559
-2.98422e-08
3.18719e-05
0.00181499
4.7703e-05
0.00176177
6.30869e-05
0.00169599
7.78213e-05
0.00161431
9.17249e-05
0.00151655
0.000104635
0.00140311
0.000116402
0.00127496
0.000126893
0.00113335
0.000135991
0.000979726
0.000143595
0.000815663
0.00014962
0.000642875
0.000153999
0.000463167
0.00015668
0.000278425
9.03436e-05
0.000157633
1.57511e-05
0.00184987
-2.97704e-08
3.16699e-05
0.00179908
4.74004e-05
0.00174604
6.26866e-05
0.0016807
7.73276e-05
0.00159966
9.11433e-05
0.00150274
0.000103971
0.00139028
0.000115665
0.00126326
0.00012609
0.00112293
0.000135131
0.000970685
0.000142687
0.000808106
0.000148674
0.000636886
0.000153026
0.000458812
0.00015569
0.000275757
8.93944e-05
0.000156637
1.56515e-05
0.00183424
-2.97264e-08
3.14692e-05
0.00178326
4.70997e-05
0.0017304
6.22889e-05
0.00166551
7.68372e-05
0.00158511
9.05655e-05
0.00148901
0.000103313
0.00137753
0.000114932
0.00125164
0.000125292
0.00111257
0.000134277
0.0009617
0.000141785
0.000800597
0.000147735
0.000630937
0.000152059
0.00045449
0.000154706
0.000273114
8.84668e-05
0.000155647
1.55526e-05
0.00181872
-2.9717e-08
3.12697e-05
0.00176754
4.68009e-05
0.00171487
6.18938e-05
0.00165042
7.63499e-05
0.00157066
8.99913e-05
0.00147537
0.000102658
0.00136486
0.000114205
0.0012401
0.0001245
0.00110227
0.000133428
0.000952771
0.000140889
0.000793134
0.000146802
0.000625023
0.000151099
0.00045019
0.000153729
0.00027048
8.753e-05
0.000154664
1.54543e-05
0.00180329
-2.97455e-08
3.10715e-05
0.00175192
4.65041e-05
0.00169944
6.15011e-05
0.00163542
7.58657e-05
0.00155629
8.94209e-05
0.00146181
0.000102008
0.00135227
0.000113482
0.00122862
0.000123712
0.00109204
0.000132584
0.000943899
0.000139999
0.000785719
0.000145874
0.000619149
0.000150145
0.000445922
0.000152758
0.000267871
8.66157e-05
0.000153687
1.53566e-05
0.00178796
-2.98141e-08
3.08746e-05
0.0017364
4.62091e-05
0.0016841
6.1111e-05
0.00162052
7.53846e-05
0.00154202
8.88541e-05
0.00144834
0.000101362
0.00133977
0.000112763
0.00121722
0.000122929
0.00108187
0.000131746
0.000935082
0.000139115
0.000778349
0.000144953
0.000613308
0.000149197
0.000441676
0.000151794
0.000265269
8.56912e-05
0.000152717
1.52594e-05
0.00177273
-2.99227e-08
3.06789e-05
0.00172098
4.5916e-05
0.00166887
6.07233e-05
0.00160571
7.49065e-05
0.00152783
8.8291e-05
0.00143495
0.00010072
0.00132734
0.00011205
0.00120589
0.000122152
0.00107177
0.000130913
0.00092632
0.000138236
0.000771026
0.000144038
0.000607507
0.000148255
0.000437462
0.000150836
0.000262692
8.47883e-05
0.000151753
1.51629e-05
0.0017576
-3.00705e-08
3.04844e-05
0.00170566
4.56247e-05
0.00165372
6.03382e-05
0.00159099
7.44316e-05
0.00151374
8.77315e-05
0.00142165
0.000100082
0.00131499
0.00011134
0.00119463
0.000121379
0.00106173
0.000130086
0.000917613
0.000137363
0.000763748
0.000143129
0.000601739
0.000147319
0.000433268
0.000149884
0.000260122
8.38756e-05
0.000150796
1.5067e-05
0.00174256
-3.0255e-08
3.02912e-05
0.00169043
4.53353e-05
0.00163868
5.99555e-05
0.00157637
7.39596e-05
0.00149973
8.71755e-05
0.00140844
9.9448e-05
0.00130271
0.000110636
0.00118344
0.000120612
0.00105175
0.000129264
0.000908961
0.000136495
0.000756517
0.000142225
0.00059601
0.000146389
0.000429106
0.000148938
0.000257577
8.29849e-05
0.000149844
1.49717e-05
0.00172762
-3.04732e-08
3.00992e-05
0.00167531
4.50478e-05
0.00162373
5.95752e-05
0.00156184
7.34907e-05
0.00148582
8.66231e-05
0.0013953
9.88183e-05
0.00129052
0.000109936
0.00117232
0.000119849
0.00104184
0.000128447
0.000900361
0.000135634
0.000749328
0.000141328
0.000590313
0.000145466
0.000424965
0.000147998
0.000255038
8.20834e-05
0.000148899
1.4877e-05
0.00171277
-3.07213e-08
2.99084e-05
0.00166027
4.4762e-05
0.00160887
5.91974e-05
0.00154741
7.30248e-05
0.00147199
8.60743e-05
0.00138225
9.81927e-05
0.0012784
0.00010924
0.00116127
0.000119092
0.00103199
0.000127636
0.000891817
0.000134777
0.000742187
0.000140436
0.000584656
0.000144548
0.000420855
0.000147064
0.000252523
8.12039e-05
0.00014796
1.47829e-05
0.00169802
-3.09949e-08
2.97188e-05
0.00164534
4.44781e-05
0.00159411
5.8822e-05
0.00153306
7.2562e-05
0.00145825
8.55291e-05
0.00136929
9.75711e-05
0.00126635
0.000108549
0.00115029
0.000118339
0.0010222
0.00012683
0.000883325
0.000133927
0.000735088
0.00013955
0.00057903
0.000143636
0.000416766
0.000146137
0.000250015
8.0313e-05
0.000147028
1.46893e-05
0.00168336
-3.12897e-08
2.95304e-05
0.0016305
4.4196e-05
0.00157945
5.8449e-05
0.00151881
7.2102e-05
0.00144459
8.49873e-05
0.0013564
9.69535e-05
0.00125439
0.000107863
0.00113938
0.000117591
0.00101247
0.000126029
0.000874887
0.000133081
0.000728036
0.000138669
0.000573442
0.000142731
0.000412707
0.000145216
0.000247531
7.94434e-05
0.000146101
1.45963e-05
0.00166879
-3.16014e-08
2.93431e-05
0.00161575
4.39158e-05
0.00156487
5.80784e-05
0.00150465
7.1645e-05
0.00143103
8.4449e-05
0.0013436
9.63399e-05
0.0012425
0.000107181
0.00112854
0.000116848
0.0010028
0.000125233
0.000866501
0.000132242
0.000721025
0.000137795
0.000567887
0.000141831
0.000408668
0.0001443
0.000245055
7.85633e-05
0.00014518
1.4504e-05
0.00165432
-3.19254e-08
2.91571e-05
0.00160109
4.36372e-05
0.00155039
5.77101e-05
0.00149057
7.1191e-05
0.00141755
8.39142e-05
0.00133087
9.57302e-05
0.00123068
0.000106503
0.00111777
0.00011611
0.000993192
0.000124442
0.000858168
0.000131407
0.00071406
0.000136926
0.000562368
0.000140937
0.00040466
0.000143391
0.000242602
7.77053e-05
0.000144265
1.44121e-05
0.00163994
-3.22568e-08
2.89723e-05
0.00158653
4.33605e-05
0.001536
5.73442e-05
0.00147659
7.07399e-05
0.00140415
8.33828e-05
0.00131823
9.51246e-05
0.00121894
0.00010583
0.00110706
0.000115376
0.000983644
0.000123657
0.000849886
0.000130578
0.000707137
0.000136063
0.000556882
0.000140049
0.000400672
0.000142487
0.000240157
7.68364e-05
0.000143356
1.43209e-05
0.00162565
-3.259e-08
2.87886e-05
0.00157207
4.30855e-05
0.00152171
5.69807e-05
0.00146269
7.02917e-05
0.00139084
8.28549e-05
0.00130566
9.45228e-05
0.00120727
0.000105161
0.00109642
0.000114648
0.000974156
0.000122877
0.000841656
0.000129755
0.000700258
0.000135205
0.000551432
0.000139166
0.000396713
0.00014159
0.000237736
7.59889e-05
0.000142453
1.42302e-05
0.00161145
-3.29186e-08
2.86061e-05
0.00155769
4.28123e-05
0.0015075
5.66195e-05
0.00144888
6.98464e-05
0.00137761
8.23304e-05
0.00129318
9.39249e-05
0.00119567
0.000104496
0.00108585
0.000113924
0.000964727