/*--------------------------------*- C++ -*----------------------------------*\
  =========                 |
  \\      /  F ield         | OpenFOAM: The Open Source CFD Toolbox
   \\    /   O peration     | Website:  https://openfoam.org
    \\  /    A nd           | Version:  6.0
     \\/     M anipulation  |
\*---------------------------------------------------------------------------*/
FoamFile
{
    version     2.0;
    format      ascii;
    class       volVectorField;
    location    "9.5";
    object      U;
}
// * * * * * * * * * * * * * * * * * * * * * * * * * * * * * * * * * * * * * //

dimensions      [0 1 -1 0 0 0 0];

internalField   nonuniform List<vector> 
29500
(
(0.999997 -4.0614e-06 1.30687e-18)
(0.99997 -1.88508e-05 7.31764e-18)
(0.999925 -4.06366e-05 2.54211e-16)
(0.999867 -7.49463e-05 5.00338e-17)
(0.999809 -0.000125796 -3.17286e-16)
(0.999759 -0.000190865 4.90254e-17)
(0.999732 -0.000259615 -2.71619e-16)
(0.999736 -0.000314803 1.44716e-16)
(0.999773 -0.000339368 5.83621e-16)
(0.999841 -0.000313442 -5.0036e-17)
(0.999927 -0.000226055 -7.06019e-16)
(1.00003 -1.58367e-05 -3.36377e-16)
(1.00012 0.000266093 2.33612e-16)
(1.00006 0.00104967 -1.03818e-15)
(1.00445 0.00472981 2.6136e-16)
(0.999993 -8.94133e-06 -4.53804e-17)
(0.999949 -4.09301e-05 1.18279e-16)
(0.99987 -8.24066e-05 -1.7407e-16)
(0.999768 -0.000146287 -4.14241e-16)
(0.999665 -0.000245369 4.09494e-16)
(0.999577 -0.000371841 6.33852e-17)
(0.999533 -0.000502431 3.07268e-16)
(0.999549 -0.000603673 -1.18243e-16)
(0.999624 -0.000646464 -5.04222e-16)
(0.999753 -0.000596283 -6.12354e-16)
(0.999916 -0.000439203 3.51233e-16)
(1.0001 -6.56702e-05 8.52729e-17)
(1.00031 0.00041235 -5.23019e-16)
(0.999903 0.00161527 2.78329e-16)
(1.00646 0.00632283 -1.80655e-16)
(0.999991 -1.25359e-05 -1.46272e-17)
(0.999955 -5.49625e-05 -1.09151e-16)
(0.999891 -0.000100553 -1.35022e-16)
(0.999807 -0.000163866 2.03276e-16)
(0.999721 -0.000263319 -3.12326e-16)
(0.999647 -0.000390627 -7.07853e-17)
(0.999612 -0.000521106 3.17234e-16)
(0.999631 -0.000621587 -7.38205e-16)
(0.999706 -0.000666165 -5.92608e-17)
(0.999828 -0.000624976 1.93293e-16)
(0.999984 -0.000492104 1.1353e-16)
(1.00015 -0.00016732 1.95357e-16)
(1.00042 0.000239052 -2.39352e-17)
(0.999723 0.00120548 3.8937e-16)
(1.00536 0.00412999 1.63966e-16)
(0.999989 -1.61802e-05 7.91371e-17)
(0.999962 -6.86348e-05 6.81162e-17)
(0.999914 -0.000119095 -7.62259e-18)
(0.999852 -0.000182061 1.22276e-16)
(0.999789 -0.000278915 -1.34236e-16)
(0.999733 -0.000401653 8.3696e-17)
(0.999709 -0.000526383 -4.6473e-16)
(0.99973 -0.000622453 1.62235e-16)
(0.9998 -0.000667594 1.0769e-16)
(0.99991 -0.000635888 -4.31686e-16)
(1.00006 -0.000526278 1.91566e-17)
(1.0002 -0.000246976 2.02233e-16)
(1.00054 0.000116997 3.61378e-16)
(0.999754 0.0009063 -9.9757e-17)
(1.00419 0.00316473 3.48624e-17)
(0.999984 -2.00438e-05 -5.97454e-17)
(0.999961 -8.34638e-05 -9.6066e-17)
(0.999917 -0.000143721 1.28682e-16)
(0.999863 -0.000215129 -1.8192e-16)
(0.999812 -0.000319759 3.04448e-16)
(0.999767 -0.000448258 -1.04688e-16)
(0.999751 -0.000576431 2.16354e-16)
(0.999778 -0.000673976 9.28929e-17)
(0.999852 -0.000719477 -3.27614e-16)
(0.999967 -0.000685913 4.5756e-16)
(1.00012 -0.000573125 -2.95631e-16)
(1.00027 -0.000287521 -2.72993e-16)
(1.00068 0.000107471 7.94329e-17)
(0.999972 0.000854738 -2.48349e-16)
(1.00352 0.0030381 2.48159e-16)
(0.999979 -2.41757e-05 2.97924e-17)
(0.999956 -9.86666e-05 1.00024e-16)
(0.999912 -0.000170676 4.16309e-18)
(0.999863 -0.000253967 2.16264e-16)
(0.99982 -0.000369495 1.94322e-16)
(0.999785 -0.000505549 1.55139e-16)
(0.99978 -0.000637516 -5.32341e-16)
(0.999816 -0.000735255 2.08062e-16)
(0.999899 -0.000778104 8.63631e-17)
(1.00002 -0.000737199 1.54474e-16)
(1.00019 -0.000613042 4.95257e-16)
(1.00034 -0.000311423 2.97442e-16)
(1.00082 0.000121738 2.17826e-18)
(1.00026 0.000841979 4.29048e-16)
(1.00316 0.00280328 -1.72984e-16)
(0.999973 -2.87767e-05 -1.51267e-17)
(0.999952 -0.000114106 -5.03484e-17)
(0.99991 -0.000197904 1.90596e-17)
(0.999866 -0.000293036 -1.99903e-17)
(0.999833 -0.000418168 -4.29906e-16)
(0.999811 -0.000559088 2.40383e-16)
(0.999817 -0.000691297 6.18843e-16)
(0.999864 -0.000785826 3.12454e-16)
(0.999957 -0.000823882 6.84425e-16)
(1.00009 -0.000776114 -3.56903e-16)
(1.00027 -0.000644418 -4.19941e-16)
(1.00042 -0.000338613 -7.58158e-16)
(1.00093 0.000114338 -2.08499e-16)
(1.00055 0.000787339 -3.01995e-16)
(1.003 0.0024681 -1.73821e-16)
(0.999967 -3.4022e-05 3.81171e-17)
(0.999948 -0.000130177 5.98639e-17)
(0.999908 -0.000225903 -3.59098e-17)
(0.999871 -0.00033316 1.16553e-16)
(0.999846 -0.000467723 1.33856e-16)
(0.999837 -0.000612991 -7.33124e-16)
(0.999856 -0.000744759 6.66179e-17)
(0.999914 -0.000835786 -4.0537e-16)
(1.00002 -0.000869492 -8.14191e-16)
(1.00016 -0.000816763 -2.82471e-16)
(1.00035 -0.00068073 5.41872e-16)
(1.0005 -0.000377323 7.28975e-16)
(1.00103 8.70293e-05 2.58338e-16)
(1.00082 0.000712756 2.78363e-16)
(1.00296 0.00218345 -2.48148e-16)
(0.99996 -4.00082e-05 -2.38019e-17)
(0.999943 -0.00014716 -1.41261e-16)
(0.999906 -0.00025519 1.97584e-17)
(0.999873 -0.000375352 -5.932e-17)
(0.999856 -0.000520317 3.63802e-16)
(0.999857 -0.000671266 3.0886e-16)
(0.999887 -0.000804123 -7.93794e-16)
(0.999955 -0.000893327 4.47303e-16)
(1.00007 -0.000924124 -1.86458e-16)
(1.00021 -0.000867591 7.35204e-16)
(1.00042 -0.000727376 -8.76663e-16)
(1.00057 -0.000425916 -3.21033e-16)
(1.00111 5.01133e-05 9.41073e-18)
(1.00106 0.000641513 7.21443e-16)
(1.00298 0.00195307 -4.6066e-16)
(0.999953 -4.67683e-05 -3.21258e-17)
(0.999937 -0.000165076 1.2971e-16)
(0.999903 -0.000285534 -4.31607e-17)
(0.999875 -0.000418814 -2.80396e-16)
(0.999864 -0.000574529 -2.11984e-16)
(0.999874 -0.000731906 1.60259e-16)
(0.999914 -0.000866866 2.56447e-16)
(0.999992 -0.000955316 -8.18806e-16)
(1.00011 -0.000983877 2.50588e-16)
(1.00027 -0.000923711 -9.54891e-16)
(1.00049 -0.000778296 -3.17212e-16)
(1.00065 -0.000476975 -3.17743e-16)
(1.00119 1.12655e-05 -5.53028e-16)
(1.00127 0.000579184 -3.83833e-16)
(1.00302 0.00175224 4.0493e-16)
(0.999945 -5.43176e-05 2.27251e-17)
(0.999931 -0.000183897 -1.13017e-16)
(0.999901 -0.000316559 2.33481e-16)
(0.999878 -0.00046238 1.97882e-16)
(0.999874 -0.000628109 3.21707e-16)
(0.999892 -0.000791405 2.60723e-16)
(0.999942 -0.000928207 2.81739e-16)
(1.00003 -0.00101569 6.17549e-16)
(1.00016 -0.0010416 4.85589e-16)
(1.00033 -0.000977317 1.04822e-15)
(1.00056 -0.000825694 9.54358e-16)
(1.00073 -0.000523576 3.26696e-16)
(1.00127 -2.47511e-05 5.97545e-16)
(1.00145 0.000524902 6.95065e-16)
(1.00307 0.00157419 -2.1164e-16)
(0.999936 -6.26433e-05 1.13951e-17)
(0.999926 -0.000203611 3.85182e-17)
(0.9999 -0.000348116 -1.99782e-16)
(0.999883 -0.000505554 -1.07103e-16)
(0.999886 -0.000680078 -4.18492e-16)
(0.999913 -0.000848237 -2.67258e-16)
(0.999973 -0.0009861 -3.82546e-16)
(1.00007 -0.0010719 -5.06591e-16)
(1.00022 -0.00109439 -4.04019e-16)
(1.00039 -0.00102541 1.71084e-16)
(1.00064 -0.000867044 -3.81553e-16)
(1.00082 -0.000564126 -9.7387e-17)
(1.00135 -5.805e-05 -2.6223e-16)
(1.00162 0.000474655 -8.73681e-16)
(1.00312 0.00141215 6.85606e-16)
(0.999927 -7.17121e-05 -4.52536e-17)
(0.99992 -0.00022422 3.14521e-17)
(0.9999 -0.000380255 -7.79852e-17)
(0.999891 -0.000548436 4.46561e-17)
(0.999901 -0.000730624 1.66764e-16)
(0.999937 -0.000902781 -4.86104e-16)
(1.00001 -0.00104123 -6.46367e-17)
(1.00012 -0.00112502 3.1138e-16)
(1.00027 -0.00114379 6.36867e-17)
(1.00046 -0.00107014 -6.78236e-16)
(1.00071 -0.000905394 8.78121e-16)
(1.00091 -0.000602601 -7.38895e-17)
(1.00143 -9.35966e-05 -4.27634e-17)
(1.00176 0.00042171 -3.45287e-16)
(1.00316 0.00125689 -6.09395e-16)
(0.999917 -8.1458e-05 4.73042e-17)
(0.999913 -0.000245676 -7.80973e-17)
(0.9999 -0.00041304 1.04107e-16)
(0.999898 -0.000591304 1.39579e-16)
(0.999917 -0.000780345 5.90044e-17)
(0.999962 -0.000956088 2.41917e-16)
(1.00004 -0.00109526 6.34844e-16)
(1.00016 -0.00117749 3.37258e-16)
(1.00033 -0.00119313 -9.55666e-17)
(1.00053 -0.00111572 4.70709e-16)
(1.00079 -0.000945879 -5.55623e-16)
(1.001 -0.000644781 6.90713e-16)
(1.00151 -0.000137054 -1.8151e-16)
(1.0019 0.000360709 9.90298e-16)
(1.0032 0.00110422 2.38698e-16)
(0.999907 -9.18004e-05 -7.24e-18)
(0.999905 -0.000267902 5.43205e-17)
(0.999899 -0.000446495 4.09421e-17)
(0.999905 -0.000634398 3.3951e-17)
(0.999932 -0.000829775 -2.44176e-16)
(0.999986 -0.00100906 -2.75339e-16)
(1.00008 -0.00114955 1.22832e-16)
(1.00021 -0.00123128 -2.6918e-16)
(1.00038 -0.00124505 3.11245e-16)
(1.00059 -0.00116539 -3.49269e-16)
(1.00087 -0.000992118 2.99938e-16)
(1.00109 -0.000694132 -6.99441e-16)
(1.0016 -0.000190496 9.1148e-16)
(1.00202 0.000291418 -1.45155e-15)
(1.00324 0.000956669 2.51874e-16)
(0.999896 -0.000102639 -2.13603e-17)
(0.999896 -0.000290772 4.96437e-17)
(0.999896 -0.000480569 -8.96584e-17)
(0.99991 -0.000677839 2.24811e-17)
(0.999946 -0.000879245 7.34956e-17)
(1.00001 -0.00106216 4.27767e-16)
(1.00011 -0.00120465 -1.78215e-16)
(1.00025 -0.00128705 -2.15956e-17)
(1.00043 -0.00130034 -2.42207e-16)
(1.00065 -0.00121987 1.01835e-16)
(1.00094 -0.00104448 -1.35006e-16)
(1.00118 -0.000750124 5.90953e-16)
(1.00168 -0.000251493 -1.03563e-15)
(1.00214 0.000218066 6.13655e-16)
(1.00329 0.000819239 -2.04016e-16)
(0.999884 -0.000113872 2.39307e-17)
(0.999887 -0.000314148 -2.53345e-17)
(0.999892 -0.000515168 -1.43482e-16)
(0.999914 -0.000721661 -8.84133e-17)
(0.999959 -0.000928907 -1.79883e-16)
(1.00003 -0.00111551 -8.24952e-17)
(1.00014 -0.00126045 1.49416e-16)
(1.00029 -0.00134437 9.42852e-17)
(1.00048 -0.00135813 -1.60482e-16)
(1.00071 -0.00127774 -4.2833e-16)
(1.00101 -0.00110075 -4.25428e-16)
(1.00127 -0.000809504 -3.53101e-16)
(1.00177 -0.000315376 6.83706e-16)
(1.00225 0.000145866 -5.07945e-16)
(1.00335 0.000695293 6.70251e-16)
(0.999871 -0.000125388 -1.07492e-18)
(0.999876 -0.000337872 -1.01291e-18)
(0.999887 -0.000550149 5.49777e-17)
(0.999916 -0.000765818 5.20458e-17)
(0.99997 -0.000978825 1.01834e-16)
(1.00005 -0.00116908 1.50093e-16)
(1.00017 -0.0013166 -4.43532e-16)
(1.00033 -0.00140236 2.45556e-16)
(1.00053 -0.00141693 8.64861e-16)
(1.00077 -0.00133682 5.19402e-17)
(1.00108 -0.00115806 -3.31131e-17)
(1.00136 -0.000868749 3.29323e-16)
(1.00185 -0.00037818 -1.45828e-15)
(1.00236 7.80064e-05 1.39102e-15)
(1.00341 0.000584724 -2.87216e-16)
(0.999857 -0.000137085 -3.6699e-17)
(0.999863 -0.000361794 6.28597e-17)
(0.99988 -0.000585358 1.03341e-16)
(0.999916 -0.000810241 -2.81827e-16)
(0.999978 -0.00102906 -4.10731e-17)
(1.00007 -0.00122295 -5.14276e-16)
(1.0002 -0.00137296 3.62312e-16)
(1.00037 -0.00146045 -3.93917e-16)
(1.00058 -0.00147566 -4.13766e-16)
(1.00083 -0.00139552 4.5781e-16)
(1.00116 -0.00121446 3.19205e-16)
(1.00145 -0.000925825 -2.84816e-16)
(1.00195 -0.000438135 1.78346e-15)
(1.00248 1.49903e-05 -3.18494e-16)
(1.00348 0.000485006 -4.0265e-16)
(0.999843 -0.000148863 2.77075e-17)
(0.99985 -0.000385769 2.58879e-17)
(0.999871 -0.000620626 6.39326e-18)
(0.999913 -0.000854827 1.21346e-16)
(0.999985 -0.00107966 2.50532e-16)
(1.00009 -0.00127728 5.01006e-16)
(1.00023 -0.00142968 -4.12254e-16)
(1.00041 -0.00151862 3.3797e-16)
(1.00063 -0.00153405 3.30889e-16)
(1.00089 -0.00145339 1.13096e-16)
(1.00123 -0.00126946 -1.56252e-17)
(1.00154 -0.000980485 -1.90172e-16)
(1.00204 -0.000495478 -1.42387e-15)
(1.00259 -4.45105e-05 -7.40563e-17)
(1.00356 0.000393057 -1.06859e-16)
(0.999827 -0.000160635 -2.54529e-17)
(0.999836 -0.000409679 -8.67566e-17)
(0.999861 -0.000655795 -1.2742e-16)
(0.99991 -0.000899446 8.94944e-17)
(0.99999 -0.00113065 -2.0757e-16)
(1.0001 -0.00133228 -9.05171e-17)
(1.00025 -0.00148707 -2.56394e-16)
(1.00044 -0.00157723 -7.1788e-16)
(1.00069 -0.00159245 -3.83703e-16)
(1.00096 -0.00151077 -1.07519e-16)
(1.00131 -0.00132357 -6.8279e-18)
(1.00163 -0.00103357 2.51264e-16)
(1.00214 -0.000551406 4.17968e-16)
(1.0027 -0.000102302 -5.00669e-16)
(1.00364 0.00030624 -2.7895e-17)
(0.999811 -0.000172321 7.108e-17)
(0.99982 -0.000433422 5.69488e-17)
(0.99985 -0.000690713 1.48404e-16)
(0.999904 -0.000943923 -1.81327e-16)
(0.999994 -0.00118191 -6.84159e-17)
(1.00012 -0.00138799 4.48172e-16)
(1.00028 -0.00154538 -3.24466e-17)
(1.00048 -0.00163665 -1.57885e-16)
(1.00074 -0.00165136 3.6053e-16)
(1.00102 -0.00156831 7.99258e-17)
(1.00138 -0.00137762 -5.28872e-16)
(1.00172 -0.00108623 -1.58887e-16)
(1.00223 -0.000607234 -6.86292e-16)
(1.00281 -0.00015998 -2.1896e-16)
(1.00372 0.000222582 -2.91372e-16)
(0.999793 -0.000183863 -6.24211e-17)
(0.999805 -0.000456932 -1.624e-17)
(0.999838 -0.000725259 -5.2216e-17)
(0.999898 -0.000988072 2.58182e-16)
(0.999996 -0.00123324 1.40971e-16)
(1.00013 -0.00144426 -3.97604e-16)
(1.0003 -0.00160458 5.579e-16)
(1.00052 -0.00169705 2.93906e-16)
(1.00079 -0.00171113 -8.93885e-16)
(1.00109 -0.00162653 -7.73697e-16)
(1.00146 -0.00143236 4.84442e-16)
(1.00182 -0.00113943 1.25783e-17)
(1.00233 -0.000663995 1.81125e-15)
(1.00292 -0.000218676 5.16278e-16)
(1.0038 0.000140657 7.75911e-16)
(0.999775 -0.00019521 4.24847e-17)
(0.999788 -0.000480169 -7.0374e-17)
(0.999825 -0.000759354 1.63945e-16)
(0.999892 -0.00103173 -2.61666e-16)
(0.999998 -0.00128437 -2.19286e-16)
(1.00014 -0.0015008 3.4861e-16)
(1.00033 -0.00166447 9.18028e-17)
(1.00056 -0.00175836 4.41981e-16)
(1.00084 -0.00177187 7.97332e-16)
(1.00115 -0.00168576 1.50196e-16)
(1.00153 -0.00148832 -2.0609e-16)
(1.00191 -0.00119393 2.92648e-16)
(1.00243 -0.000722434 -1.55715e-15)
(1.00302 -0.000279142 3.7247e-16)
(1.00389 5.96353e-05 -3.56509e-16)
(0.999755 -0.000206335 1.48853e-17)
(0.999771 -0.00050313 7.84173e-17)
(0.999813 -0.000792988 -3.25734e-17)
(0.999886 -0.00107482 -3.01361e-19)
(1 -0.0013351 -1.33057e-17)
(1.00015 -0.00155732 -4.5882e-16)
(1.00035 -0.00172478 -4.70885e-16)
(1.0006 -0.00182043 -5.99909e-18)
(1.00089 -0.00183361 -5.3919e-16)
(1.00121 -0.0017462 4.23455e-16)
(1.00161 -0.00154588 4.01742e-16)
(1.002 -0.00125024 -6.3702e-16)
(1.00253 -0.000783004 1.12123e-15)
(1.00313 -0.000341733 -1.08533e-15)
(1.00397 -2.05753e-05 -1.41555e-16)
(0.999735 -0.000217216 -4.55081e-17)
(0.999753 -0.000525833 -4.99064e-17)
(0.9998 -0.000826204 1.34819e-16)
(0.99988 -0.00111736 -5.44649e-17)
(1 -0.00138536 3.54296e-16)
(1.00017 -0.00161363 -7.59801e-17)
(1.00038 -0.00178526 1.05661e-16)
(1.00063 -0.00188311 -6.99016e-18)
(1.00094 -0.00189635 1.88271e-16)
(1.00128 -0.001808 -1.80495e-16)
(1.00169 -0.00160531 -4.46004e-16)
(1.00209 -0.00130868 4.57407e-16)
(1.00263 -0.000845856 -3.32088e-16)
(1.00323 -0.00040636 8.32416e-16)
(1.00406 -9.97447e-05 3.53122e-16)
(0.999714 -0.000227851 -1.31665e-17)
(0.999734 -0.000548318 -7.2435e-18)
(0.999787 -0.000859107 -1.88772e-16)
(0.999873 -0.00115949 2.08078e-16)
(1 -0.00143522 -8.79247e-17)
(1.00018 -0.00166971 2.61221e-16)
(1.0004 -0.00184585 6.94719e-17)
(1.00067 -0.00194631 3.11287e-16)
(1.00099 -0.00196007 -4.58276e-16)
(1.00134 -0.00187123 3.30489e-16)
(1.00176 -0.00166668 -2.14368e-16)
(1.00218 -0.00136928 -4.73867e-16)
(1.00272 -0.000910742 4.16224e-16)
(1.00334 -0.000472464 5.71531e-16)
(1.00415 -0.000177326 -1.35815e-16)
(0.999691 -0.000238239 7.87679e-19)
(0.999714 -0.000570626 1.06368e-16)
(0.999773 -0.000891822 -9.86621e-17)
(0.999867 -0.0012014 -6.71453e-17)
(1.00001 -0.00148487 -1.99838e-16)
(1.00019 -0.00172568 -4.93537e-17)
(1.00042 -0.00190656 -2.35978e-16)
(1.00071 -0.00201002 -6.46007e-16)
(1.00104 -0.00202473 4.31368e-16)
(1.0014 -0.00193582 -2.64833e-16)
(1.00184 -0.00172983 5.93874e-16)
(1.00227 -0.00143172 2.10308e-16)
(1.00282 -0.000977084 -5.03291e-16)
(1.00344 -0.000539224 -1.07838e-15)
(1.00424 -0.000252637 -2.33967e-16)
(0.999667 -0.000248393 2.55596e-18)
(0.999694 -0.000592803 -1.42565e-16)
(0.999758 -0.000924488 4.71778e-17)
(0.99986 -0.00124333 2.37235e-16)
(1.00001 -0.0015346 6.81539e-17)
(1.0002 -0.00178179 -2.08696e-16)
(1.00045 -0.00196756 2.59759e-16)
(1.00074 -0.00207429 -4.90137e-17)
(1.00109 -0.00209029 -9.52909e-17)
(1.00147 -0.00200158 -1.29838e-16)
(1.00191 -0.00179442 -2.36553e-16)
(1.00236 -0.00149545 2.28497e-16)
(1.00292 -0.00104413 1.65763e-16)
(1.00354 -0.000605815 2.11312e-16)
(1.00433 -0.00032501 4.08687e-16)
(0.999643 -0.000258325 1.22816e-18)
(0.999672 -0.000614878 1.01226e-16)
(0.999742 -0.000957213 2.52617e-17)
(0.999851 -0.00128551 -3.9479e-16)
(1.00001 -0.00158469 1.16656e-16)
(1.00022 -0.00183831 2.51423e-16)
(1.00047 -0.00202905 1.023e-16)
(1.00078 -0.00213919 -1.7752e-19)
(1.00114 -0.00215665 1.67882e-16)
(1.00153 -0.00206827 -3.96158e-17)
(1.00199 -0.00186002 -2.3686e-16)
(1.00245 -0.00155992 1.72612e-16)
(1.00301 -0.00111123 8.79206e-17)
(1.00365 -0.000671664 2.24244e-16)
(1.00442 -0.000394428 -3.50962e-16)
(0.999617 -0.000268056 2.98075e-17)
(0.99965 -0.000636878 -1.07857e-16)
(0.999724 -0.000990082 -1.70573e-16)
(0.999841 -0.00132809 2.74699e-16)
(1.00001 -0.00163538 -7.03484e-17)
(1.00023 -0.00189554 2.24502e-17)
(1.0005 -0.00209127 2.19262e-17)
(1.00081 -0.00220483 2.58023e-17)
(1.00119 -0.00222378 1.50963e-16)
(1.00159 -0.0021357 2.27206e-17)
(1.00206 -0.00192629 1.66946e-16)
(1.00254 -0.00162471 -4.70235e-16)
(1.00311 -0.00117799 -4.92195e-16)
(1.00375 -0.000736529 -3.66097e-16)
(1.00452 -0.000461135 2.94963e-16)
(0.999589 -0.000277604 -4.18267e-17)
(0.999626 -0.000658814 8.66233e-17)
(0.999706 -0.00102313 1.47778e-16)
(0.99983 -0.00137115 4.89501e-17)
(1.00001 -0.00168685 4.11348e-17)
(1.00024 -0.00195368 -2.60659e-16)
(1.00052 -0.00215442 -1.3624e-16)
(1.00085 -0.00227136 3.12739e-16)
(1.00124 -0.00229173 -1.40054e-16)
(1.00166 -0.00220379 3.68108e-17)
(1.00214 -0.00199307 3.00675e-16)
(1.00263 -0.00168966 7.37216e-18)
(1.00321 -0.00124433 4.96376e-16)
(1.00385 -0.000800495 9.90071e-17)
(1.00462 -0.000525652 -3.16329e-16)
(0.999561 -0.000286995 4.29683e-17)
(0.999601 -0.000680696 -6.54479e-17)
(0.999685 -0.00105636 2.42316e-17)
(0.999817 -0.00141473 -2.62564e-16)
(1 -0.00173915 -6.07679e-17)
(1.00024 -0.00201285 3.54106e-16)
(1.00054 -0.00221865 -1.50662e-16)
(1.00088 -0.00233891 -2.71576e-16)
(1.00128 -0.00236056 -6.76848e-17)
(1.00172 -0.00227255 6.4373e-17)
(1.00221 -0.00206035 -9.01048e-17)
(1.00272 -0.00175477 -8.68083e-17)
(1.0033 -0.00131034 -1.36154e-17)
(1.00395 -0.000863811 3.95203e-16)
(1.00471 -0.000588487 3.70394e-16)
(0.999532 -0.000296254 -1.76231e-17)
(0.999574 -0.000702529 7.20339e-17)
(0.999664 -0.00108975 1.20516e-16)
(0.999803 -0.00145876 -1.29613e-16)
(1 -0.00179222 1.45126e-17)
(1.00025 -0.00207304 -1.9679e-16)
(1.00056 -0.002284 4.13431e-16)
(1.00092 -0.00240755 1.21305e-16)
(1.00133 -0.00243035 -5.35851e-17)
(1.00178 -0.00234209 8.87472e-17)
(1.00229 -0.00212823 -3.1501e-16)
(1.00281 -0.00182022 2.62059e-16)
(1.0034 -0.00137627 4.02034e-17)
(1.00406 -0.000926779 -3.00581e-16)
(1.00481 -0.000650127 -1.47279e-16)
(0.999502 -0.00030541 3.16277e-17)
(0.999547 -0.000724325 -7.3436e-17)
(0.999641 -0.00112327 -7.28554e-18)
(0.999787 -0.00150315 2.75042e-16)
(0.999994 -0.00184596 -2.68978e-16)
(1.00026 -0.00213416 -4.44627e-17)
(1.00058 -0.00235043 -4.26075e-16)
(1.00095 -0.00247726 -7.50816e-17)
(1.00138 -0.00250114 -1.83662e-16)
(1.00184 -0.00241245 1.61027e-16)
(1.00236 -0.00219681 5.06994e-16)
(1.0029 -0.00188618 -4.80605e-17)
(1.0035 -0.00144236 -5.08077e-16)
(1.00416 -0.000989685 -1.29525e-17)
(1.0049 -0.00071082 -8.65882e-17)
(0.999471 -0.000314492 -1.85504e-17)
(0.999519 -0.000746101 7.19702e-17)
(0.999618 -0.00115687 -2.1595e-16)
(0.99977 -0.00154781 -2.02427e-16)
(0.999987 -0.00190019 2.32823e-16)
(1.00026 -0.00219601 1.71657e-17)
(1.00059 -0.00241776 2.02688e-16)
(1.00098 -0.00254794 3.35075e-16)
(1.00143 -0.00257287 6.97128e-16)
(1.00191 -0.00248367 -5.03872e-16)
(1.00244 -0.00226618 -6.29471e-16)
(1.00299 -0.00195278 2.42835e-16)
(1.0036 -0.00150881 2.80072e-16)
(1.00426 -0.00105277 -4.00146e-16)
(1.005 -0.000770899 -1.23787e-16)
(0.999438 -0.000323534 1.97616e-18)
(0.99949 -0.000767883 -5.14752e-17)
(0.999594 -0.00119057 5.4366e-17)
(0.999753 -0.00159264 2.77313e-16)
(0.999979 -0.00195474 2.10536e-16)
(1.00026 -0.00225838 1.08236e-16)
(1.00061 -0.00248578 5.36921e-17)
(1.00101 -0.00261941 -3.44464e-16)
(1.00147 -0.00264544 -5.46955e-16)
(1.00197 -0.0025557 3.28348e-16)
(1.00251 -0.00233636 5.1351e-16)
(1.00307 -0.00202013 -4.51078e-16)
(1.00369 -0.00157578 -3.18025e-16)
(1.00436 -0.0011162 4.57174e-17)
(1.0051 -0.000830752 -1.16799e-16)
(0.999406 -0.000332569 -4.45519e-17)
(0.99946 -0.000789704 -4.24886e-17)
(0.999569 -0.00122436 1.05152e-16)
(0.999736 -0.00163761 -7.14489e-17)
(0.999971 -0.00200951 -2.19935e-16)
(1.00027 -0.0023211 -4.36288e-18)
(1.00063 -0.00255429 2.22131e-16)
(1.00105 -0.0026915 -1.34208e-16)
(1.00152 -0.00271874 2.96568e-16)
(1.00203 -0.00262852 -1.79426e-16)
(1.00259 -0.00240741 -2.51911e-16)
(1.00316 -0.00208835 3.87802e-16)
(1.00379 -0.00164343 5.26572e-16)
(1.00446 -0.00118013 2.11657e-17)
(1.00519 -0.000890504 1.74407e-16)
(0.999372 -0.000341631 4.27288e-17)
(0.99943 -0.000811605 8.39888e-17)
(0.999543 -0.00125828 2.43194e-17)
(0.999717 -0.00168272 1.63715e-16)
(0.999962 -0.00206446 -4.08483e-18)
(1.00027 -0.00238407 7.14699e-17)
(1.00065 -0.00262318 2.53971e-18)
(1.00108 -0.0027641 1.07011e-16)
(1.00157 -0.0027927 -1.64985e-16)
(1.00209 -0.00270212 -1.63767e-17)
(1.00266 -0.00247938 2.42187e-16)
(1.00325 -0.00215755 4.26294e-17)
(1.00389 -0.00171189 -2.31084e-16)
(1.00456 -0.00124468 4.50916e-16)
(1.00529 -0.000950109 9.69706e-17)
(0.999337 -0.000350751 -7.18072e-18)
(0.999398 -0.000833623 -1.25104e-17)
(0.999517 -0.00129238 -1.78755e-16)
(0.999699 -0.00172804 -2.28822e-16)
(0.999953 -0.00211961 3.45278e-17)
(1.00027 -0.00244729 -2.17621e-16)
(1.00066 -0.00269242 -4.79673e-16)
(1.00111 -0.00283721 2.45253e-16)
(1.00161 -0.00286734 1.72764e-16)
(1.00215 -0.00277657 -2.47576e-16)
(1.00274 -0.00255236 -4.45608e-16)
(1.00334 -0.00222782 -6.31912e-17)
(1.00398 -0.00178125 3.23799e-16)
(1.00467 -0.00130989 2.48377e-16)
(1.00539 -0.00100951 -1.11792e-16)
(0.999302 -0.000359959 -9.74395e-18)
(0.999365 -0.000855801 4.3169e-17)
(0.99949 -0.00132674 -1.9567e-17)
(0.999679 -0.00177366 -8.53184e-17)
(0.999944 -0.00217509 -4.39422e-17)
(1.00028 -0.00251088 2.95376e-16)
(1.00068 -0.00276211 1.38539e-16)
(1.00114 -0.00291089 -2.35686e-16)
(1.00166 -0.00294276 -4.99308e-16)
(1.00221 -0.00285196 3.31801e-16)
(1.00281 -0.00262643 -8.0666e-17)
(1.00343 -0.00229924 -3.68842e-16)
(1.00408 -0.00185151 -2.86793e-16)
(1.00477 -0.00137563 1.22573e-16)
(1.00548 -0.00106868 6.67443e-17)
(0.999265 -0.000369283 4.32817e-19)
(0.999332 -0.000878167 -5.60479e-17)
(0.999461 -0.00136142 7.5291e-17)
(0.999659 -0.00181971 2.1613e-16)
(0.999934 -0.00223106 1.34408e-16)
(1.00028 -0.00257501 -9.18941e-17)
(1.00069 -0.00283242 -2.19349e-16)
(1.00117 -0.00298533 -1.07451e-17)
(1.0017 -0.00301911 3.15556e-16)
(1.00227 -0.00292842 1.82141e-16)
(1.00289 -0.00270169 7.8389e-17)
(1.00352 -0.00237181 5.36338e-16)
(1.00418 -0.00192261 -3.35087e-16)
(1.00487 -0.00144175 -7.6693e-16)
(1.00558 -0.00112744 -1.2535e-16)
(0.999228 -0.000378742 1.85595e-17)
(0.999297 -0.000900751 -8.51868e-17)
(0.999432 -0.00139647 -4.44097e-19)
(0.999637 -0.00186628 1.56577e-16)
(0.999922 -0.00228768 -2.60249e-16)
(1.00028 -0.00263987 -3.00146e-16)
(1.00071 -0.00290355 3.11893e-16)
(1.0012 -0.0030607 3.99063e-17)
(1.00175 -0.00309652 1.37327e-16)
(1.00233 -0.00300605 -2.86323e-16)
(1.00296 -0.00277814 2.62219e-16)
(1.0036 -0.00244547 5.70277e-17)
(1.00427 -0.0019944 6.68256e-16)
(1.00497 -0.00150807 4.16759e-16)
(1.00568 -0.00118559 2.64086e-16)
(0.99919 -0.000388355 -9.16989e-18)
(0.999261 -0.000923565 1.13316e-16)
(0.999401 -0.00143194 8.90067e-17)
(0.999614 -0.00191347 -1.30883e-16)
(0.99991 -0.00234508 9.20741e-17)
(1.00028 -0.00270565 -2.07254e-17)
(1.00072 -0.00297571 2.6936e-17)
(1.00123 -0.00313718 -7.75776e-18)
(1.00179 -0.00317513 9.79507e-17)
(1.00239 -0.00308488 4.16288e-16)
(1.00303 -0.00285575 5.95363e-17)
(1.00369 -0.0025201 -3.70243e-16)
(1.00437 -0.00206672 -1.84954e-16)
(1.00507 -0.00157442 2.73207e-16)
(1.00578 -0.00124304 -3.0963e-16)
(0.999151 -0.000398134 -2.81021e-17)
(0.999224 -0.000946624 -4.53562e-17)
(0.999369 -0.00146783 -2.56233e-17)
(0.99959 -0.0019613 -2.96884e-16)
(0.999896 -0.00240334 2.327e-16)
(1.00028 -0.00277245 1.19603e-16)
(1.00073 -0.003049 -4.5274e-17)
(1.00126 -0.00321487 4.46185e-17)
(1.00184 -0.00325498 -2.96005e-16)
(1.00245 -0.00316491 -8.78425e-17)
(1.00311 -0.00293441 -5.68029e-16)
(1.00378 -0.00259555 1.99699e-16)
(1.00447 -0.00213939 -8.53829e-17)
(1.00517 -0.00164062 -8.06413e-16)
(1.00588 -0.00129981 4.78268e-16)
(0.999111 -0.000408088 3.10187e-17)
(0.999185 -0.000969926 -1.06261e-16)
(0.999335 -0.00150414 9.06478e-17)
(0.999564 -0.00200979 7.15159e-17)
(0.99988 -0.00246248 -1.80611e-16)
(1.00027 -0.00284032 2.649e-16)
(1.00075 -0.00312347 1.62697e-16)
(1.00128 -0.00329379 -1.04258e-16)
(1.00188 -0.00333606 -2.56517e-16)
(1.00251 -0.00324606 1.01839e-17)
(1.00318 -0.00301403 6.04773e-16)
(1.00386 -0.00267168 5.7432e-18)
(1.00456 -0.00221233 1.12522e-16)
(1.00528 -0.00170664 8.31923e-16)
(1.00599 -0.00135587 -5.92855e-16)
(0.999071 -0.000418226 6.64803e-18)
(0.999146 -0.000993477 7.59063e-17)
(0.9993 -0.00154086 -1.16626e-16)
(0.999537 -0.00205889 1.40983e-16)
(0.999864 -0.00252246 1.68809e-16)
(1.00027 -0.0029092 -4.53945e-16)
(1.00076 -0.00319909 -2.91372e-16)
(1.00131 -0.00337388 4.34993e-16)
(1.00192 -0.00341828 7.54902e-17)
(1.00257 -0.00332824 -6.04778e-16)
(1.00325 -0.00309449 1.50219e-16)
(1.00395 -0.00274842 -1.36617e-16)
(1.00466 -0.00228549 -1.04442e-16)
(1.00538 -0.00177271 -9.7782e-16)
(1.00609 -0.00141159 2.18395e-16)
(0.999029 -0.000428551 -2.32625e-17)
(0.999105 -0.00101727 1.51298e-16)
(0.999265 -0.00157796 -3.53e-17)
(0.999509 -0.00210854 -1.86155e-16)
(0.999846 -0.00258318 -1.04703e-16)
(1.00027 -0.002979 4.24346e-16)
(1.00077 -0.00327575 8.71781e-17)
(1.00133 -0.00345506 -3.53513e-16)
(1.00196 -0.00350155 1.75696e-16)
(1.00263 -0.00341135 5.42905e-16)
(1.00333 -0.00317572 -1.27386e-16)
(1.00404 -0.00282573 2.21228e-17)
(1.00476 -0.00235893 1.4336e-16)
(1.00548 -0.00183902 5.4415e-16)
(1.0062 -0.00146723 9.08932e-17)
(0.998986 -0.000439066 1.95397e-17)
(0.999064 -0.00104132 -1.93976e-16)
(0.999228 -0.00161542 -2.59842e-17)
(0.99948 -0.00215869 2.71272e-16)
(0.999827 -0.00264454 1.77893e-16)
(1.00026 -0.00304958 4.00278e-17)
(1.00078 -0.0033533 -1.90936e-16)
(1.00136 -0.00353717 -1.3465e-16)
(1.002 -0.00358574 -2.29957e-16)
(1.00269 -0.00349531 5.6329e-17)
(1.0034 -0.00325769 -3.22647e-16)
(1.00412 -0.00290366 -6.02211e-17)
(1.00485 -0.00243275 -1.92184e-16)
(1.00559 -0.0019056 3.57611e-16)
(1.0063 -0.00152276 -1.94816e-16)
(0.998943 -0.000449772 -1.29336e-17)
(0.999021 -0.00106563 2.7711e-17)
(0.99919 -0.00165324 1.11257e-16)
(0.99945 -0.00220927 -4.22527e-16)
(0.999808 -0.00270644 -3.30224e-16)
(1.00025 -0.00312082 -3.36511e-16)
(1.00078 -0.0034316 4.04224e-16)
(1.00138 -0.00362009 2.42406e-16)
(1.00205 -0.00367077 2.37324e-16)
(1.00274 -0.00358009 2.58919e-16)
(1.00347 -0.00334042 -1.72802e-17)
(1.00421 -0.00298229 2.11463e-16)
(1.00495 -0.00250713 2.0965e-16)
(1.00569 -0.00197255 -1.27661e-16)
(1.00641 -0.00157832 4.38486e-17)
(0.998898 -0.000460669 3.40724e-17)
(0.998977 -0.00109021 1.27976e-16)
(0.999151 -0.0016914 -2.59774e-17)
(0.999419 -0.00226026 2.60778e-16)
(0.999788 -0.00276881 -3.37526e-17)
(1.00025 -0.00319261 -1.29195e-16)
(1.00079 -0.00351056 1.16629e-18)
(1.00141 -0.00370375 1.89795e-16)
(1.00209 -0.00375659 -9.78128e-17)
(1.0028 -0.00366569 -8.60827e-16)
(1.00355 -0.003424 4.34481e-16)
(1.0043 -0.00306175 7.55449e-17)
(1.00505 -0.0025822 1.37759e-18)
(1.00579 -0.00204021 1.89391e-17)
(1.00652 -0.00163436 9.63338e-17)
(0.998853 -0.000471751 -4.64569e-17)
(0.998933 -0.00111507 -1.23135e-17)
(0.999111 -0.00172994 1.40409e-18)
(0.999387 -0.00231167 4.47428e-17)
(0.999767 -0.00283165 9.26565e-17)
(1.00024 -0.00326493 5.3134e-16)
(1.0008 -0.00359014 -4.41326e-16)
(1.00143 -0.00378811 -1.67086e-16)
(1.00213 -0.00384322 2.82776e-16)
(1.00286 -0.00375219 3.50628e-16)
(1.00362 -0.00350852 -4.36636e-16)
(1.00439 -0.00314217 -4.1142e-16)
(1.00515 -0.00265808 -5.07264e-16)
(1.0059 -0.00210873 7.8529e-17)
(1.00662 -0.00169107 2.72771e-16)
(0.998806 -0.000483011 -5.23453e-18)
(0.998887 -0.00114023 -5.94398e-17)
(0.999071 -0.00176887 6.43065e-17)
(0.999355 -0.00236352 2.79747e-17)
(0.999746 -0.00289497 1.53178e-16)
(1.00023 -0.0033378 -2.86489e-16)
(1.00081 -0.00367035 5.4317e-16)
(1.00146 -0.00387322 -3.66057e-16)
(1.00217 -0.00393073 -9.2249e-17)
(1.00292 -0.00383966 1.28264e-16)
(1.00369 -0.0035941 5.5835e-17)
(1.00447 -0.00322364 6.03142e-17)
(1.00525 -0.00273486 6.90389e-17)
(1.006 -0.00217807 -3.70359e-16)
(1.00673 -0.00174816 1.4263e-16)
(0.998758 -0.000494439 2.84002e-17)
(0.99884 -0.00116571 -1.41434e-17)
(0.999029 -0.00180823 -1.8625e-16)
(0.999322 -0.00241587 -6.67061e-17)
(0.999724 -0.00295886 4.62133e-17)
(1.00022 -0.00341131 -8.49279e-17)
(1.00081 -0.0037513 -3.0246e-16)
(1.00148 -0.00395918 2.94484e-16)
(1.00221 -0.00401921 1.60677e-16)
(1.00297 -0.00392824 -1.15484e-16)
(1.00376 -0.00368084 9.32507e-17)
(1.00456 -0.00330626 -3.22816e-18)
(1.00534 -0.00281257 -2.21689e-16)
(1.00611 -0.00224815 2.11329e-16)
(1.00684 -0.00180584 -3.83441e-16)
(0.998709 -0.00050602 2.73483e-17)
(0.998792 -0.00119151 7.60086e-17)
(0.998987 -0.00184806 7.4245e-17)
(0.999288 -0.00246879 -5.13843e-17)
(0.999702 -0.00302341 -2.71981e-16)
(1.00021 -0.00348557 5.0788e-17)
(1.00082 -0.00383311 1.17011e-16)
(1.0015 -0.00404612 1.65079e-16)
(1.00225 -0.00410882 -9.59305e-17)
(1.00303 -0.00401804 2.72653e-16)
(1.00384 -0.00376884 1.64386e-16)
(1.00465 -0.00339008 -2.92009e-17)
(1.00544 -0.00289124 1.07278e-17)
(1.00621 -0.00231893 1.36804e-16)
(1.00695 -0.00186394 4.33662e-17)
(0.998659 -0.000517735 -7.07306e-17)
(0.998742 -0.00121763 7.40473e-18)
(0.998943 -0.00188838 -8.89892e-17)
(0.999253 -0.00252234 1.48187e-16)
(0.999678 -0.00308873 6.17724e-17)
(1.0002 -0.00356072 5.42343e-17)
(1.00082 -0.00391593 -3.79851e-16)
(1.00152 -0.00413421 -1.35229e-17)
(1.00228 -0.00419969 2.73541e-16)
(1.00308 -0.00410917 7.50762e-17)
(1.00391 -0.00385817 -5.71818e-16)
(1.00474 -0.00347512 2.53331e-16)
(1.00554 -0.00297085 -1.7645e-16)
(1.00632 -0.00239039 -4.33737e-17)
(1.00706 -0.00192263 -1.73855e-16)