/*--------------------------------*- C++ -*----------------------------------*\
  =========                 |
  \\      /  F ield         | OpenFOAM: The Open Source CFD Toolbox
   \\    /   O peration     | Website:  https://openfoam.org
    \\  /    A nd           | Version:  6.0
     \\/     M anipulation  |
\*---------------------------------------------------------------------------*/
FoamFile
{
    version     2.0;
    format      ascii;
    class       volVectorField;
    location    "0.4";
    object      U;
}
// * * * * * * * * * * * * * * * * * * * * * * * * * * * * * * * * * * * * * //

dimensions      [0 1 -1 0 0 0 0];

internalField   nonuniform List<vector> 
800
(
(0.000363703 -0.000362639 0)
(0.000376999 3.6657e-05 0)
(-0.00106742 0.000603468 0)
(-0.003831 0.00104873 0)
(-0.0075461 0.00133504 0)
(-0.0118319 0.00148021 0)
(-0.0163601 0.00151482 0)
(-0.0208752 0.00147051 0)
(-0.0251947 0.00137463 0)
(-0.0291992 0.0012489 0)
(-0.032821 0.00110959 0)
(-0.0360313 0.000968222 0)
(-0.0388291 0.000832431 0)
(-0.0412321 0.000706707 0)
(-0.043268 0.000593116 0)
(-0.0449693 0.000491891 0)
(-0.0463678 0.000401899 0)
(-0.0474912 0.000321008 0)
(-0.0483605 0.000246344 0)
(-0.0489878 0.000174499 0)
(-0.0493753 0.000101678 0)
(-0.0495139 2.38408e-05 0)
(-0.0493834 -6.31407e-05 0)
(-0.0489522 -0.000163279 0)
(-0.0481787 -0.000280188 0)
(-0.0470127 -0.000416684 0)
(-0.0453993 -0.000574265 0)
(-0.0432835 -0.000752432 0)
(-0.040617 -0.000947892 0)
(-0.0373673 -0.00115367 0)
(-0.0335294 -0.00135821 0)
(-0.029138 -0.00154466 0)
(-0.0242823 -0.00169039 0)
(-0.0191196 -0.00176704 0)
(-0.0138865 -0.00174137 0)
(-0.0089044 -0.00157783 0)
(-0.00457283 -0.00124502 0)
(-0.00134004 -0.000727976 0)
(0.000371129 -7.28617e-05 0)
(0.000399187 0.000396142 0)
(-1.83073e-05 -0.0003958 0)
(-0.00171577 0.00172659 0)
(-0.00660614 0.00427567 0)
(-0.0142138 0.00635256 0)
(-0.0238245 0.00776398 0)
(-0.0347029 0.00853176 0)
(-0.0461587 0.00875774 0)
(-0.0576159 0.00856962 0)
(-0.0686392 0.00809128 0)
(-0.0789285 0.00742961 0)
(-0.0882998 0.0066703 0)
(-0.0966623 0.00587777 0)
(-0.103995 0.00509708 0)
(-0.110324 0.00435678 0)
(-0.115706 0.00367191 0)
(-0.120209 0.00304683 0)
(-0.123905 0.00247768 0)
(-0.126855 0.00195441 0)
(-0.129108 0.00146239 0)
(-0.130691 0.000983679 0)
(-0.131608 0.000498153 0)
(-0.131835 -1.55146e-05 0)
(-0.131325 -0.00057874 0)
(-0.130002 -0.0012117 0)
(-0.127771 -0.00193163 0)
(-0.124517 -0.00275054 0)
(-0.120118 -0.00367249 0)
(-0.114455 -0.00469007 0)
(-0.10743 -0.00578063 0)
(-0.0989887 -0.00690222 0)
(-0.0891417 -0.00799002 0)
(-0.0779968 -0.008954 0)
(-0.0657866 -0.00967887 0)
(-0.0528942 -0.0100276 0)
(-0.0398694 -0.00985072 0)
(-0.0274261 -0.00900478 0)
(-0.0164004 -0.00738768 0)
(-0.00766034 -0.00499596 0)
(-0.00202828 -0.00206627 0)
(-4.39639e-05 0.000391355 0)
(-0.000595557 0.00102701 0)
(-0.00439266 0.00663857 0)
(-0.012884 0.0125644 0)
(-0.0249808 0.0174005 0)
(-0.039634 0.0207442 0)
(-0.0558878 0.0225981 0)
(-0.0728354 0.0231561 0)
(-0.0897061 0.022692 0)
(-0.105908 0.021489 0)
(-0.121028 0.0198027 0)
(-0.134807 0.0178455 0)
(-0.147115 0.0157812 0)
(-0.157918 0.0137275 0)
(-0.167249 0.011761 0)
(-0.175184 0.00992389 0)
(-0.181817 0.00823048 0)
(-0.187246 0.00667353 0)
(-0.191558 0.00522925 0)
(-0.194819 0.0038616 0)
(-0.197068 0.00252586 0)
(-0.198309 0.00117164 0)
(-0.198513 -0.000254263 0)
(-0.197611 -0.00180479 0)
(-0.195504 -0.00352905 0)
(-0.192058 -0.00546777 0)
(-0.18712 -0.0076477 0)
(-0.180523 -0.0100745 0)
(-0.172111 -0.0127247 0)
(-0.161752 -0.0155363 0)
(-0.149377 -0.0183999 0)
(-0.135007 -0.021151 0)
(-0.118791 -0.0235661 0)
(-0.101048 -0.025365 0)
(-0.0822948 -0.0262233 0)
(-0.0632659 -0.0258001 0)
(-0.0449067 -0.0237876 0)
(-0.0283104 -0.019993 0)
(-0.0146044 -0.0144593 0)
(-0.00498974 -0.00768554 0)
(-0.00068324 -0.00125735 0)
(-0.00111205 0.00389567 0)
(-0.00690559 0.0146152 0)
(-0.0188432 0.0248833 0)
(-0.0350744 0.0330754 0)
(-0.0541458 0.0386835 0)
(-0.0748927 0.0417411 0)
(-0.0962472 0.0425718 0)
(-0.117315 0.0416307 0)
(-0.13742 0.0393965 0)
(-0.156095 0.0363086 0)
(-0.173055 0.0327362 0)
(-0.188163 0.0289676 0)
(-0.201392 0.0252115 0)
(-0.212795 0.0216047 0)
(-0.222469 0.0182237 0)
(-0.230533 0.0150951 0)
(-0.237108 0.0122072 0)
(-0.242303 0.0095184 0)
(-0.246197 0.00696537 0)
(-0.24884 0.00446925 0)
(-0.25024 0.00194129 0)
(-0.250364 -0.00071196 0)
(-0.249137 -0.00358312 0)
(-0.246439 -0.00675753 0)
(-0.242119 -0.0103054 0)
(-0.235995 -0.0142718 0)
(-0.227872 -0.018665 0)
(-0.21756 -0.0234419 0)
(-0.204901 -0.0284928 0)
(-0.189796 -0.0336263 0)
(-0.172252 -0.0385565 0)
(-0.152419 -0.0428967 0)
(-0.130636 -0.0461654 0)
(-0.107475 -0.047809 0)
(-0.0837619 -0.047251 0)
(-0.060583 -0.0439758 0)
(-0.039218 -0.0376575 0)
(-0.0210373 -0.0283322 0)
(-0.00769446 -0.0166546 0)
(-0.00123608 -0.00448365 0)
(-0.00154362 0.00803078 0)
(-0.00912292 0.0253711 0)
(-0.0242116 0.0407956 0)
(-0.0441637 0.0527101 0)
(-0.0670693 0.0606594 0)
(-0.0915342 0.0648103 0)
(-0.116348 0.0656837 0)
(-0.140536 0.0639639 0)
(-0.163389 0.0603591 0)
(-0.18444 0.0555172 0)
(-0.203423 0.0499819 0)
(-0.220229 0.0441772 0)
(-0.234867 0.0384094 0)
(-0.247422 0.0328788 0)
(-0.258025 0.0276957 0)
(-0.266822 0.0228978 0)
(-0.273959 0.0184653 0)
(-0.279563 0.014335 0)
(-0.283729 0.0104118 0)
(-0.286517 0.00657776 0)
(-0.287943 0.00270091 0)
(-0.287973 -0.00135749 0)
(-0.286531 -0.00573471 0)
(-0.283491 -0.0105574 0)
(-0.278689 -0.0159299 0)
(-0.271927 -0.0219208 0)
(-0.262986 -0.0285449 0)
(-0.251647 -0.0357433 0)
(-0.237712 -0.0433608 0)
(-0.221041 -0.0511234 0)
(-0.201591 -0.0586191 0)
(-0.179468 -0.0652877 0)
(-0.154972 -0.0704273 0)
(-0.128661 -0.0732254 0)
(-0.101384 -0.0728269 0)
(-0.0743103 -0.0684496 0)
(-0.0488826 -0.0595533 0)
(-0.0267361 -0.0460535 0)
(-0.0100346 -0.0285938 0)
(-0.00168584 -0.00905238 0)
(-0.00190929 0.0132546 0)
(-0.0110719 0.0386236 0)
(-0.0289874 0.0599511 0)
(-0.0522199 0.075844 0)
(-0.0783705 0.0860621 0)
(-0.105796 0.0910357 0)
(-0.133153 0.0915803 0)
(-0.159422 0.0886755 0)
(-0.183908 0.0833021 0)
(-0.206191 0.076341 0)
(-0.226068 0.0685219 0)
(-0.243496 0.0604075 0)
(-0.258545 0.0523996 0)
(-0.271351 0.0447568 0)
(-0.282087 0.0376177 0)
(-0.290934 0.0310242 0)
(-0.298064 0.0249431 0)
(-0.303623 0.0192845 0)
(-0.307721 0.013917 0)
(-0.31043 0.00868022 0)
(-0.311771 0.00339551 0)
(-0.311721 -0.00212434 0)
(-0.310204 -0.00806478 0)
(-0.307097 -0.0145978 0)
(-0.302231 -0.0218677 0)
(-0.295398 -0.0299728 0)
(-0.286359 -0.0389434 0)
(-0.274862 -0.0487151 0)
(-0.260666 -0.0590985 0)
(-0.243567 -0.0697481 0)
(-0.223442 -0.0801339 0)
(-0.200305 -0.0895237 0)
(-0.174363 -0.0969843 0)
(-0.146093 -0.101415 0)
(-0.116307 -0.10163 0)
(-0.0862113 -0.096496 0)
(-0.0573946 -0.0851416 0)
(-0.0317792 -0.0672132 0)
(-0.0120797 -0.0431725 0)
(-0.00206354 -0.0147568 0)
(-0.00223636 0.0194335 0)
(-0.0128326 0.0541091 0)
(-0.0332861 0.0819796 0)
(-0.0593623 0.101974 0)
(-0.0881474 0.11423 0)
(-0.117741 0.119596 0)
(-0.146689 0.119302 0)
(-0.173967 0.114708 0)
(-0.198944 0.107117 0)
(-0.221301 0.0976653 0)
(-0.240941 0.0872751 0)
(-0.257922 0.0766421 0)
(-0.272397 0.0662524 0)
(-0.284572 0.05641 0)
(-0.294671 0.0472694 0)
(-0.302913 0.0388664 0)
(-0.309495 0.031146 0)
(-0.314581 0.0239856 0)
(-0.318297 0.0172133 0)
(-0.320723 0.0106238 0)
(-0.321893 0.00398983 0)
(-0.32179 -0.00292565 0)
(-0.320349 -0.0103583 0)
(-0.317454 -0.0185289 0)
(-0.312939 -0.027627 0)
(-0.306592 -0.0377897 0)
(-0.298161 -0.049075 0)
(-0.287363 -0.0614294 0)
(-0.273904 -0.0746494 0)
(-0.257502 -0.0883402 0)
(-0.237927 -0.101875 0)
(-0.215058 -0.114362 0)
(-0.188954 -0.124637 0)
(-0.159944 -0.131284 0)
(-0.128734 -0.132725 0)
(-0.0965121 -0.127369 0)
(-0.0649814 -0.113867 0)
(-0.0363604 -0.0914158 0)
(-0.0139511 -0.0601169 0)
(-0.00240742 -0.0214604 0)
(-0.00255556 0.0264921 0)
(-0.0145121 0.0716304 0)
(-0.0372846 0.106537 0)
(-0.0657844 0.13057 0)
(-0.0965524 0.144436 0)
(-0.127441 0.149582 0)
(-0.15693 0.147798 0)
(-0.184051 0.140921 0)
(-0.208303 0.130627 0)
(-0.229523 0.118328 0)
(-0.247767 0.105132 0)
(-0.263226 0.0918538 0)
(-0.276158 0.0790412 0)
(-0.286849 0.0670231 0)
(-0.295577 0.0559513 0)
(-0.302597 0.0458411 0)
(-0.30813 0.0366052 0)
(-0.312353 0.0280816 0)
(-0.315403 0.0200548 0)
(-0.317368 0.0122728 0)
(-0.318292 0.00446028 0)
(-0.31817 -0.00366919 0)
(-0.316949 -0.0124016 0)
(-0.314527 -0.0220084 0)
(-0.31075 -0.0327292 0)
(-0.305412 -0.0447493 0)
(-0.298256 -0.0581693 0)
(-0.288975 -0.0729679 0)
(-0.277222 -0.0889554 0)
(-0.262631 -0.10572 0)
(-0.244843 -0.122573 0)
(-0.223569 -0.138494 0)
(-0.198661 -0.152098 0)
(-0.170232 -0.161639 0)
(-0.138795 -0.165082 0)
(-0.105435 -0.160261 0)
(-0.0719088 -0.145164 0)
(-0.0407152 -0.118318 0)
(-0.0157884 -0.0792526 0)
(-0.00275694 -0.0291064 0)
(-0.00290283 0.0344227 0)
(-0.01624 0.0910856 0)
(-0.0411985 0.133329 0)
(-0.0717088 0.161089 0)
(-0.103727 0.175878 0)
(-0.134899 0.179973 0)
(-0.163719 0.175897 0)
(-0.189368 0.166065 0)
(-0.211561 0.152575 0)
(-0.230357 0.137116 0)
(-0.246009 0.120965 0)
(-0.258869 0.105022 0)
(-0.269315 0.0898662 0)
(-0.277711 0.0758205 0)
(-0.284388 0.0630104 0)
(-0.289629 0.0514128 0)
(-0.293667 0.0408968 0)
(-0.296686 0.0312547 0)
(-0.298826 0.0222251 0)
(-0.300179 0.0135102 0)
(-0.300795 0.00478929 0)
(-0.300681 -0.00427037 0)
(-0.299802 -0.0140023 0)
(-0.298077 -0.0247282 0)
(-0.295373 -0.0367409 0)
(-0.291504 -0.0502816 0)
(-0.28622 -0.0655092 0)
(-0.279205 -0.0824585 0)
(-0.270073 -0.100987 0)
(-0.258375 -0.120711 0)
(-0.243623 -0.140927 0)
(-0.22533 -0.160535 0)
(-0.203094 -0.177965 0)
(-0.176728 -0.191148 0)
(-0.146448 -0.197538 0)
(-0.113112 -0.194266 0)
(-0.0784178 -0.178443 0)
(-0.0450886 -0.147639 0)
(-0.0177425 -0.100522 0)
(-0.00315437 -0.0377213 0)
(-0.00332659 0.0432995 0)
(-0.0181824 0.112485 0)
(-0.0452812 0.162107 0)
(-0.077354 0.192926 0)
(-0.109735 0.20761 0)
(-0.139956 0.209566 0)
(-0.166663 0.202244 0)
(-0.189324 0.188739 0)
(-0.207975 0.171593 0)
(-0.222971 0.152756 0)
(-0.234807 0.133629 0)
(-0.244011 0.115147 0)
(-0.251079 0.0978732 0)
(-0.256445 0.0820881 0)
(-0.260473 0.0678617 0)
(-0.26346 0.0551138 0)
(-0.265636 0.0436586 0)
(-0.267177 0.0332379 0)
(-0.268214 0.0235446 0)
(-0.268834 0.0142391 0)
(-0.269091 0.00496067 0)
(-0.269004 -0.00466275 0)
(-0.268556 -0.0150062 0)
(-0.267695 -0.0264371 0)
(-0.266323 -0.0393008 0)
(-0.264286 -0.0538999 0)
(-0.261365 -0.0704641 0)
(-0.257257 -0.0891085 0)
(-0.251563 -0.109775 0)
(-0.243777 -0.132157 0)
(-0.233289 -0.155603 0)
(-0.219412 -0.179005 0)
(-0.201453 -0.20068 0)
(-0.178845 -0.218271 0)
(-0.151374 -0.228708 0)
(-0.119499 -0.228297 0)
(-0.0846775 -0.213025 0)
(-0.0497267 -0.17913 0)
(-0.0199874 -0.123988 0)
(-0.00365248 -0.0474229 0)
(-0.00390154 0.0533088 0)
(-0.0205679 0.13597 0)
(-0.0498278 0.192633 0)
(-0.0828882 0.225342 0)
(-0.114461 0.23845 0)
(-0.142149 0.23688 0)
(-0.164975 0.225229 0)
(-0.182879 0.207342 0)
(-0.196348 0.186193 0)
(-0.206104 0.163925 0)
(-0.21291 0.141988 0)
(-0.217466 0.12128 0)
(-0.220364 0.102289 0)
(-0.222082 0.0852076 0)
(-0.222991 0.0700203 0)
(-0.223369 0.0565712 0)
(-0.223421 0.0446113 0)
(-0.223297 0.0338307 0)
(-0.223104 0.0238805 0)
(-0.222914 0.0143865 0)
(-0.222777 0.00495823 0)
(-0.222721 -0.00480543 0)
(-0.222752 -0.0153103 0)
(-0.222851 -0.0269606 0)
(-0.222967 -0.0401481 0)
(-0.223 -0.0552359 0)
(-0.222784 -0.0725325 0)
(-0.222065 -0.0922517 0)
(-0.22047 -0.114455 0)
(-0.217478 -0.138968 0)
(-0.2124 -0.16527 0)
(-0.204373 -0.192343 0)
(-0.192405 -0.2185 0)
(-0.175484 -0.241196 0)
(-0.152826 -0.256879 0)
(-0.124262 -0.260955 0)
(-0.0907234 -0.248025 0)
(-0.0548725 -0.212505 0)
(-0.0227467 -0.149824 0)
(-0.00432912 -0.0584438 0)
(-0.00475327 0.0648052 0)
(-0.0237277 0.161822 0)
(-0.0551647 0.224594 0)
(-0.0883281 0.257312 0)
(-0.117427 0.266817 0)
(-0.140488 0.260039 0)
(-0.157245 0.242918 0)
(-0.168347 0.220063 0)
(-0.174866 0.194781 0)
(-0.177939 0.169292 0)
(-0.178589 0.144971 0)
(-0.17765 0.122587 0)
(-0.175766 0.102481 0)
(-0.173407 0.0847095 0)
(-0.170904 0.0691451 0)
(-0.168482 0.0555427 0)
(-0.166291 0.0435868 0)
(-0.16443 0.0329202 0)
(-0.162963 0.023161 0)
(-0.161939 0.0139125 0)
(-0.161395 0.00476809 0)
(-0.161363 -0.00468699 0)
(-0.161873 -0.0148743 0)
(-0.162946 -0.0262199 0)
(-0.164586 -0.0391498 0)
(-0.166766 -0.0540789 0)
(-0.169404 -0.0713924 0)
(-0.172334 -0.0914127 0)
(-0.175262 -0.114347 0)
(-0.177719 -0.140205 0)
(-0.17901 -0.168677 0)
(-0.178165 -0.19896 0)
(-0.173934 -0.229518 0)
(-0.164844 -0.257796 0)
(-0.149411 -0.2799 0)
(-0.126576 -0.290364 0)
(-0.0963362 -0.282174 0)
(-0.0607424 -0.247326 0)
(-0.0263306 -0.178312 0)
(-0.00531279 -0.0711821 0)
(-0.00610178 0.0784152 0)
(-0.0281476 0.190459 0)
(-0.0615806 0.257424 0)
(-0.0933099 0.28727 0)
(-0.117452 0.290506 0)
(-0.133075 0.276622 0)
(-0.141087 0.253005 0)
(-0.143108 0.224898 0)
(-0.140888 0.195739 0)
(-0.135968 0.167618 0)
(-0.129564 0.14168 0)
(-0.122562 0.118446 0)
(-0.115569 0.0980402 0)
(-0.108976 0.080343 0)
(-0.103017 0.0650954 0)
(-0.0978198 0.0519601 0)
(-0.0934447 0.0405613 0)
(-0.089915 0.0305053 0)
(-0.0872392 0.0213924 0)
(-0.0854252 0.0128202 0)
(-0.0844911 0.00438418 0)
(-0.08447 -0.00432534 0)
(-0.0854118 -0.0137259 0)
(-0.0873799 -0.0242458 0)
(-0.0904436 -0.0363253 0)
(-0.0946632 -0.0504133 0)
(-0.100067 -0.0669575 0)
(-0.106619 -0.0863832 0)
(-0.114165 -0.109053 0)
(-0.122374 -0.135194 0)
(-0.130651 -0.164785 0)
(-0.138045 -0.197364 0)
(-0.143164 -0.231748 0)
(-0.144143 -0.265632 0)
(-0.138755 -0.295075 0)
(-0.124791 -0.31394 0)
(-0.100788 -0.313524 0)
(-0.0674319 -0.282761 0)
(-0.0311805 -0.209788 0)
(-0.00682657 -0.0862991 0)
(-0.00833091 0.0952071 0)
(-0.0345017 0.222321 0)
(-0.0690898 0.289919 0)
(-0.0965832 0.312682 0)
(-0.112026 0.306387 0)
(-0.116502 0.283539 0)
(-0.11265 0.252831 0)
(-0.103257 0.219779 0)
(-0.0907293 0.187589 0)
(-0.076885 0.157938 0)
(-0.0629754 0.131549 0)
(-0.049792 0.108586 0)
(-0.0377875 0.0888947 0)
(-0.0271821 0.0721611 0)
(-0.0180469 0.0579939 0)
(-0.0103657 0.0459756 0)
(-0.0040794 0.0356872 0)
(0.000883291 0.0267194 0)
(0.00458483 0.0186753 0)
(0.00706499 0.0111679 0)
(0.00833194 0.0038158 0)
(0.00835714 -0.00376386 0)
(0.00707349 -0.0119622 0)
(0.00437684 -0.0211859 0)
(0.000131544 -0.0318638 0)
(-0.00581833 -0.044451 0)
(-0.0136295 -0.0594304 0)
(-0.0234284 -0.0773044 0)
(-0.0352619 -0.0985741 0)
(-0.0490258 -0.123691 0)
(-0.0643608 -0.152961 0)
(-0.0805145 -0.186377 0)
(-0.0961716 -0.223317 0)
(-0.109285 -0.26207 0)
(-0.116999 -0.299112 0)
(-0.115838 -0.328137 0)
(-0.102314 -0.339016 0)
(-0.0746325 -0.317156 0)
(-0.0378789 -0.244482 0)
(-0.00925416 -0.104877 0)
(-0.0120554 0.11692 0)
(-0.0435247 0.2575 0)
(-0.0767371 0.3195 0)
(-0.0949287 0.329421 0)
(-0.0961875 0.310098 0)
(-0.0849311 0.277041 0)
(-0.0659769 0.239605 0)
(-0.0432317 0.202882 0)
(-0.0194942 0.169318 0)
(0.00344383 0.139844 0)
(0.0245613 0.114583 0)
(0.0433663 0.0932636 0)
(0.0597044 0.0754398 0)
(0.0736205 0.0606134 0)
(0.0852654 0.0482898 0)
(0.0948329 0.0380025 0)
(0.10252 0.0293209 0)
(0.108502 0.0218483 0)
(0.112917 0.0152166 0)
(0.115854 0.00907772 0)
(0.117352 0.00309547 0)
(0.11739 -0.00306443 0)
(0.115888 -0.00974391 0)
(0.11271 -0.0173027 0)
(0.10766 -0.0261292 0)
(0.100491 -0.0366507 0)
(0.0909172 -0.0493444 0)
(0.0786326 -0.0647443 0)
(0.0633529 -0.0834421 0)
(0.0448774 -0.106071 0)
(0.0231941 -0.133253 0)
(-0.00135876 -0.165479 0)
(-0.0278548 -0.202855 0)
(-0.0544627 -0.244621 0)
(-0.0781048 -0.288295 0)
(-0.0942457 -0.328283 0)
(-0.0970446 -0.353911 0)
(-0.0808666 -0.347237 0)
(-0.0469542 -0.282047 0)
(-0.0131873 -0.128613 0)
(-0.0179802 0.14629 0)
(-0.0551774 0.294734 0)
(-0.0807179 0.340852 0)
(-0.0809493 0.330964 0)
(-0.0606706 0.295949 0)
(-0.0288416 0.253096 0)
(0.00767297 0.210987 0)
(0.0444393 0.173233 0)
(0.0789 0.140903 0)
(0.109804 0.113897 0)
(0.136717 0.0916529 0)
(0.159674 0.0734717 0)
(0.178948 0.0586684 0)
(0.194918 0.0466248 0)
(0.207983 0.0368025 0)
(0.218522 0.0287382 0)
(0.226866 0.0220317 0)
(0.233284 0.0163333 0)
(0.23798 0.0113309 0)
(0.241087 0.0067382 0)
(0.242669 0.00228397 0)
(0.242716 -0.00229884 0)
(0.241144 -0.00728338 0)
(0.237795 -0.0129601 0)
(0.232429 -0.0196489 0)
(0.224731 -0.0277136 0)
(0.214307 -0.0375782 0)
(0.200688 -0.0497467 0)
(0.183355 -0.0648229 0)
(0.161771 -0.0835287 0)
(0.135462 -0.106706 0)
(0.104154 -0.135279 0)
(0.0680297 -0.170108 0)
(0.0281359 -0.21163 0)
(-0.0130049 -0.259051 0)
(-0.0506311 -0.308714 0)
(-0.0769728 -0.351173 0)
(-0.0815581 -0.366794 0)
(-0.0578982 -0.320448 0)
(-0.0192155 -0.160076 0)
(-0.0257787 0.187796 0)
(-0.0656644 0.328996 0)
(-0.0698416 0.343338 0)
(-0.0389247 0.307337 0)
(0.0108258 0.257199 0)
(0.0663146 0.208313 0)
(0.120197 0.166128 0)
(0.168944 0.13159 0)
(0.211272 0.103957 0)
(0.247106 0.0820573 0)
(0.276945 0.0647522 0)
(0.301504 0.0510708 0)
(0.321535 0.0402295 0)
(0.337742 0.0316061 0)
(0.350746 0.0247071 0)
(0.361069 0.0191368 0)
(0.369134 0.0145725 0)
(0.375274 0.0107444 0)
(0.379731 0.00742011 0)
(0.382665 0.00439244 0)
(0.384153 0.00146848 0)
(0.384195 -0.00153971 0)
(0.38271 -0.00482426 0)
(0.379536 -0.00859124 0)
(0.374419 -0.0130718 0)
(0.367012 -0.018536 0)
(0.356861 -0.0253107 0)
(0.343395 -0.0338037 0)
(0.325921 -0.0445356 0)
(0.303617 -0.0581818 0)
(0.27556 -0.0756236 0)
(0.240788 -0.0979972 0)
(0.198475 -0.126708 0)
(0.148294 -0.163317 0)
(0.0911305 -0.209053 0)
(0.0303332 -0.263413 0)
(-0.0263875 -0.320848 0)
(-0.0647212 -0.364382 0)
(-0.0660043 -0.353501 0)
(-0.0266269 -0.203327 0)
(-0.028961 0.245052 0)
(-0.0586209 0.344629 0)
(-0.0158126 0.307665 0)
(0.0620071 0.245658 0)
(0.144873 0.188404 0)
(0.220838 0.142478 0)
(0.286058 0.107678 0)
(0.340092 0.0817916 0)
(0.384014 0.0625328 0)
(0.41936 0.0480969 0)
(0.447646 0.0371716 0)
(0.470197 0.0288229 0)
(0.488122 0.0223855 0)
(0.502321 0.0173789 0)
(0.513515 0.0134491 0)
(0.522272 0.0103286 0)
(0.529033 0.00780912 0)
(0.53413 0.00572313 0)
(0.537801 0.00393091 0)
(0.540202 0.00231064 0)
(0.541409 0.000750876 0)
(0.541428 -0.000856002 0)
(0.540188 -0.00261989 0)
(0.537544 -0.00465947 0)
(0.533264 -0.00710988 0)
(0.527024 -0.0101326 0)
(0.518384 -0.0139294 0)
(0.506772 -0.0187619 0)
(0.491452 -0.0249818 0)
(0.47148 -0.0330766 0)
(0.445666 -0.0437387 0)
(0.41253 -0.0579688 0)
(0.370298 -0.0772207 0)
(0.317018 -0.103568 0)
(0.251025 -0.13977 0)
(0.172092 -0.188744 0)
(0.0836027 -0.251387 0)
(-0.00236333 -0.320808 0)
(-0.0537753 -0.363997 0)
(-0.0279691 -0.260461 0)
(0.0116421 0.28518 0)
(0.0258419 0.299239 0)
(0.147608 0.213291 0)
(0.276381 0.144272 0)
(0.379254 0.0978176 0)
(0.458443 0.0673011 0)
(0.519105 0.0473293 0)
(0.565396 0.0340642 0)
(0.600782 0.0250134 0)
(0.627968 0.0186568 0)
(0.64896 0.0140761 0)
(0.665229 0.0107045 0)
(0.677868 0.00818018 0)
(0.687693 0.00626371 0)
(0.695316 0.0047901 0)
(0.701201 0.00364109 0)
(0.705695 0.00272848 0)
(0.709051 0.0019837 0)
(0.711449 0.00135106 0)
(0.713004 0.000783028 0)
(0.713773 0.000236736 0)
(0.71376 -0.000328879 0)
(0.712916 -0.000955725 0)
(0.711134 -0.00168935 0)
(0.708245 -0.00258227 0)
(0.70401 -0.00369851 0)
(0.698097 -0.00512008 0)
(0.690064 -0.00695713 0)
(0.679319 -0.0093644 0)
(0.665068 -0.0125691 0)
(0.64623 -0.0169196 0)
(0.621321 -0.0229729 0)
(0.588268 -0.0316538 0)
(0.544177 -0.0445389 0)
(0.48517 -0.0643167 0)
(0.4064 -0.0953385 0)
(0.301746 -0.143946 0)
(0.167737 -0.217508 0)
(0.0378053 -0.308728 0)
(0.0171135 -0.294638 0)
(0.302759 0.146482 0)
(0.40176 0.127463 0)
(0.563672 0.0753723 0)
(0.680874 0.0428526 0)
(0.75011 0.0249569 0)
(0.793626 0.015059 0)
(0.822976 0.00949861 0)
(0.843476 0.00627602 0)
(0.858181 0.00431686 0)
(0.868975 0.00306207 0)
(0.877033 0.00222012 0)
(0.883116 0.00163369 0)
(0.88774 0.00121357 0)
(0.89127 0.000906198 0)
(0.893965 0.000677494 0)
(0.896018 0.000504529 0)
(0.897566 0.000371026 0)
(0.89871 0.000264825 0)
(0.899519 0.000176354 0)
(0.900036 9.76392e-05 0)
(0.900282 2.16019e-05 0)
(0.900258 -5.84872e-05 0)
(0.899942 -0.000149503 0)
(0.899291 -0.000258987 0)
(0.89824 -0.000395778 0)
(0.896691 -0.000570898 0)
(0.894513 -0.000798898 0)
(0.891525 -0.00110009 0)
(0.887483 -0.00150448 0)
(0.882046 -0.00205913 0)
(0.874728 -0.00284261 0)
(0.864813 -0.00399474 0)
(0.851186 -0.00577947 0)
(0.832023 -0.00871819 0)
(0.804277 -0.0138579 0)
(0.762549 -0.0232626 0)
(0.695042 -0.0408908 0)
(0.577987 -0.0739381 0)
(0.411894 -0.127855 0)
(0.307417 -0.148222 0)
)
;

boundaryField
{
    movingWall
    {
        type            fixedValue;
        value           uniform (1 0 0);
    }
    fixedWalls
    {
        type            noSlip;
    }
    frontAndBack
    {
        type            empty;
    }
}


// ************************************************************************* //
