1.275 	2.15223e-18 	-2.76991e-20 	-0.0343179 	-0.000450854 	-1.95015e-22
1.825 	2.15223e-18 	-1.39322e-20 	-0.00920236 	-0.00277757 	1.73956e-21
2.375 	2.15223e-18 	-2.66896e-23 	0.11605 	-0.00325391 	-7.26085e-22
