/*--------------------------------*- C++ -*----------------------------------*\
  =========                 |
  \\      /  F ield         | OpenFOAM: The Open Source CFD Toolbox
   \\    /   O peration     | Website:  https://openfoam.org
    \\  /    A nd           | Version:  6.0
     \\/     M anipulation  |
\*---------------------------------------------------------------------------*/
FoamFile
{
    version     2.0;
    format      ascii;
    class       volVectorField;
    location    "9";
    object      U;
}
// * * * * * * * * * * * * * * * * * * * * * * * * * * * * * * * * * * * * * //

dimensions      [0 1 -1 0 0 0 0];

internalField   nonuniform List<vector> 
62000
(
(1.00053 -0.0089984 7.40701e-19)
(1.00077 -0.00860708 3.0651e-18)
(1.00111 -0.00845499 -4.07927e-19)
(1.00148 -0.0080187 2.00075e-20)
(1.00179 -0.00756938 -3.25192e-18)
(1.00208 -0.00703528 3.46092e-19)
(1.00234 -0.00643594 2.17339e-18)
(1.00257 -0.00577943 -2.18121e-18)
(1.00278 -0.00507771 2.67831e-18)
(1.00295 -0.00434184 1.7826e-18)
(1.00311 -0.00358466 -1.10771e-18)
(1.00324 -0.00281576 -2.89604e-18)
(1.00334 -0.00204953 1.81191e-18)
(1.00342 -0.00129177 -1.80145e-18)
(1.00348 -0.000555904 1.87331e-18)
(1.00351 0.000156407 -2.66917e-18)
(1.00351 0.000834717 3.35183e-18)
(1.00349 0.00148042 -8.4933e-19)
(1.00343 0.0020875 -3.0111e-19)
(1.00335 0.0026584 -1.75523e-19)
(1.00325 0.00319104 1.76114e-18)
(1.00311 0.00368747 -9.75466e-19)
(1.00295 0.00414775 -4.6194e-21)
(1.00276 0.00457298 -2.49118e-19)
(1.00255 0.00496357 1.95333e-19)
(1.00232 0.00532024 6.06222e-19)
(1.00207 0.00564188 -5.59977e-19)
(1.00182 0.00592567 1.26576e-21)
(1.00156 0.00616583 9.37152e-20)
(1.0013 0.00634902 -1.12063e-19)
(1.00104 0.00646439 2.76074e-19)
(1.0008 0.00652009 -1.03003e-18)
(1.00058 0.00650499 -4.00471e-19)
(1.00039 0.00641111 1.43496e-19)
(1.00024 0.00622687 3.77373e-19)
(1.00013 0.00594493 -2.24165e-18)
(1.00006 0.00556074 4.96567e-19)
(1.00003 0.00507307 4.94642e-19)
(1.00003 0.00448196 7.12304e-19)
(1.00005 0.00378942 -1.09741e-18)
(1.00004 0.002995 -8.88288e-19)
(0.999997 0.00210018 2.32418e-20)
(0.999859 0.00107689 -7.95011e-19)
(0.999608 -0.000170298 1.5359e-18)
(0.999261 -0.00163259 2.34139e-18)
(0.998867 -0.00320741 -3.89667e-18)
(0.998505 -0.00467035 6.50175e-18)
(0.998264 -0.00566271 7.55729e-18)
(0.998156 -0.00580833 -2.48724e-18)
(0.998048 -0.00498782 6.20988e-18)
(0.997592 -0.00354785 9.05267e-18)
(0.996292 -0.00243831 1.48849e-17)
(0.993749 -0.00304939 3.6761e-18)
(0.989861 -0.006597 7.90836e-18)
(0.984959 -0.0144385 1.64157e-17)
(0.980708 -0.0262899 4.31799e-17)
(0.977709 -0.0417939 6.88332e-18)
(0.973033 -0.0693019 8.44604e-17)
(0.99334 -0.152359 -7.52952e-17)
(0.574424 -0.604021 5.65091e-17)
(1.00176 -0.00978847 1.58815e-19)
(1.00261 -0.0096828 -1.12613e-18)
(1.00333 -0.010359 4.87175e-19)
(1.00418 -0.0105745 -5.67981e-19)
(1.00493 -0.0107989 -1.37078e-18)
(1.00564 -0.0109013 2.04835e-19)
(1.00631 -0.0108793 1.54544e-18)
(1.00691 -0.01073 7.30849e-20)
(1.00745 -0.010448 -1.2594e-18)
(1.00793 -0.0100326 2.14292e-18)
(1.00835 -0.00948844 7.65498e-19)
(1.00871 -0.00881955 -2.65862e-18)
(1.00901 -0.00803921 1.92432e-18)
(1.00926 -0.00715421 -1.27945e-18)
(1.00947 -0.00618468 1.71793e-18)
(1.00962 -0.00513767 -9.02666e-19)
(1.00973 -0.0040361 3.58931e-19)
(1.0098 -0.00288576 2.44292e-19)
(1.00981 -0.00170687 -2.5434e-19)
(1.00977 -0.00050394 -5.05962e-22)
(1.00968 0.000708014 -4.79407e-19)
(1.00952 0.00192561 4.41776e-19)
(1.0093 0.0031397 3.0844e-19)
(1.00902 0.00434748 -3.11658e-19)
(1.00867 0.00554436 6.72828e-19)
(1.00826 0.00672733 1.34771e-20)
(1.00779 0.00789353 -6.69691e-19)
(1.00726 0.0090318 2.52599e-19)
(1.00666 0.0101257 5.9019e-21)
(1.00601 0.0111386 7.5593e-20)
(1.00531 0.0120462 -3.44507e-19)
(1.00459 0.0128359 1.44435e-19)
(1.00385 0.0134767 -5.58626e-20)
(1.00312 0.0139277 5.13511e-19)
(1.0024 0.0141307 -1.39145e-18)
(1.00172 0.0140277 5.07641e-19)
(1.00109 0.0135575 7.32321e-19)
(1.00052 0.0126642 -4.20502e-19)
(1.00003 0.0112983 2.71943e-19)
(0.999614 0.00943315 1.26201e-19)
(0.999277 0.00707006 1.18523e-18)
(0.998998 0.0042615 -1.69767e-19)
(0.998748 0.00104002 6.98004e-19)
(0.998549 -0.00241062 7.50254e-19)
(0.998499 -0.00573788 -4.40048e-18)
(0.998697 -0.00835537 2.93473e-18)
(0.999238 -0.00956138 -9.10943e-18)
(1.00012 -0.00867164 -4.34837e-18)
(1.00109 -0.00540992 -1.68027e-18)
(1.00164 -0.000413963 -7.45815e-19)
(1.00092 0.00474885 -1.00693e-17)
(0.998114 0.00768991 -1.38808e-17)
(0.992821 0.00588936 9.29733e-19)
(0.985256 -0.00214904 -2.20252e-18)
(0.976819 -0.0178776 -1.6678e-17)
(0.970718 -0.0393953 5.14399e-18)
(0.967473 -0.0643387 8.11116e-18)
(0.961991 -0.104213 -1.4812e-17)
(0.958687 -0.225323 1.15756e-16)
(1.09649 -0.138736 -4.85539e-17)
(1.00176 0.0026575 -1.24226e-18)
(1.00246 0.0022643 3.67209e-19)
(1.00299 0.00112329 1.95379e-19)
(1.00372 0.000255013 8.9391e-20)
(1.00444 -0.000718548 -2.72721e-18)
(1.0052 -0.00168117 2.25312e-18)
(1.00596 -0.00260371 8.23657e-19)
(1.00671 -0.0034691 -5.80031e-19)
(1.00745 -0.00424635 -1.46536e-18)
(1.00814 -0.00491316 -5.73921e-19)
(1.00878 -0.00544747 2.45546e-18)
(1.00937 -0.00583144 1.11882e-18)
(1.0099 -0.00605434 -1.10031e-18)
(1.01037 -0.00610474 3.92948e-19)
(1.01077 -0.0059853 -1.54664e-19)
(1.01112 -0.00569122 -1.72597e-18)
(1.0114 -0.00523676 1.66548e-18)
(1.01162 -0.00462249 -1.58451e-18)
(1.01178 -0.00386924 2.0488e-19)
(1.01188 -0.00298135 -9.09735e-19)
(1.0119 -0.00198068 4.96256e-19)
(1.01186 -0.000873232 5.74868e-19)
(1.01174 0.000321729 -2.97498e-19)
(1.01154 0.00159916 -6.61592e-19)
(1.01126 0.00294409 2.39157e-19)
(1.01089 0.00435168 -4.26817e-19)
(1.01043 0.00581193 1.24698e-19)
(1.00987 0.0073093 1.60512e-19)
(1.00922 0.00881699 -7.40383e-20)
(1.00846 0.0102888 4.16217e-19)
(1.0076 0.0116905 2.11167e-19)
(1.00668 0.0129976 3.19993e-19)
(1.00569 0.0141731 -6.18845e-19)
(1.00465 0.0151518 9.95701e-19)
(1.00358 0.0158488 -1.25752e-19)
(1.0025 0.0161721 1.02726e-18)
(1.00144 0.0160231 -6.92482e-20)
(1.00042 0.0153052 3.05147e-19)
(0.99948 0.0139325 -9.30566e-19)
(0.998649 0.0118523 2.10322e-19)
(0.997963 0.00906259 -8.78644e-19)
(0.997444 0.00564349 4.68429e-20)
(0.997121 0.00164659 -1.16638e-18)
(0.997083 -0.00239537 -3.18044e-18)
(0.997465 -0.00590179 2.04151e-18)
(0.998384 -0.00802658 -5.33399e-19)
(0.999932 -0.00786798 6.43596e-19)
(1.00206 -0.00470328 -4.33151e-18)
(1.00445 0.0015247 -3.33576e-19)
(1.00649 0.00966865 -2.75162e-20)
(1.0073 0.0175587 -1.03464e-17)
(1.006 0.0223596 -3.48497e-18)
(1.00219 0.0214571 7.27516e-18)
(0.996007 0.0137439 1.16908e-17)
(0.989143 -0.00162974 1.45176e-17)
(0.98454 -0.0223561 -7.17023e-17)
(0.982259 -0.044919 2.38451e-17)
(0.976428 -0.0785891 -4.46791e-17)
(0.980755 -0.157913 -2.48458e-16)
(0.93826 -0.264446 4.19673e-17)
(1.00152 0.0145079 -5.9161e-19)
(1.00172 0.0141662 4.08496e-19)
(1.00179 0.0132809 -2.55041e-19)
(1.00208 0.0124986 -3.69393e-19)
(1.00244 0.0115259 7.83128e-19)
(1.00289 0.010445 7.44295e-19)
(1.00342 0.00927966 -5.88631e-19)
(1.004 0.00804455 -1.06537e-19)
(1.00464 0.00677274 -1.81646e-19)
(1.00529 0.00549503 7.22544e-19)
(1.00596 0.0042454 1.896e-19)
(1.00661 0.00305869 -1.83613e-19)
(1.00724 0.00196603 -4.33746e-19)
(1.00784 0.000999763 -4.29218e-20)
(1.00839 0.000181107 -5.98217e-19)
(1.00889 -0.000465114 1.10745e-18)
(1.00933 -0.000930148 -4.11292e-19)
(1.00972 -0.0011988 -4.07875e-19)
(1.01004 -0.00127504 9.79413e-19)
(1.01029 -0.00115294 -8.93196e-19)
(1.01048 -0.000844542 1.93994e-19)
(1.01059 -0.000351656 6.97962e-19)
(1.01063 0.000308625 1.50524e-19)
(1.01059 0.00113389 -1.40383e-19)
(1.01045 0.00210505 1.28512e-20)
(1.01023 0.00321902 8.59726e-20)
(1.0099 0.00446169 6.92754e-20)
(1.00947 0.00581675 -1.3016e-19)
(1.00892 0.00725303 -4.61459e-20)
(1.00825 0.00871773 1.06984e-19)
(1.00746 0.0101769 1.42054e-19)
(1.00656 0.0116061 4.22809e-19)
(1.00557 0.0129656 1.96315e-19)
(1.00449 0.014185 -6.19974e-19)
(1.00334 0.0151686 -3.52231e-19)
(1.00214 0.0158121 3.19085e-19)
(1.00092 0.0160007 -2.16784e-18)
(0.999704 0.0156203 -8.03457e-20)
(0.998545 0.0145666 4.9961e-19)
(0.997485 0.0127709 -1.65799e-18)
(0.996578 0.0102231 -3.22847e-19)
(0.995865 0.0070028 -1.24113e-19)
(0.99544 0.00313949 2.21848e-18)
(0.995436 -0.000594997 5.85027e-19)
(0.995972 -0.00352744 4.15557e-18)
(0.997169 -0.00476492 -1.37991e-18)
(0.999151 -0.00340329 4.81211e-18)
(1.00191 0.00120199 -1.14297e-20)
(1.00521 0.00894474 1.48624e-17)
(1.00854 0.0184595 -2.43118e-18)
(1.01111 0.0274334 2.03246e-17)
(1.01206 0.0330732 1.65003e-17)
(1.0108 0.0329684 -1.09029e-17)
(1.0071 0.0263019 1.14834e-17)
(1.00251 0.0124364 2.35811e-17)
(0.999416 -0.00661143 2.94089e-17)
(0.99704 -0.0272207 9.09889e-18)
(0.988889 -0.0584223 1.50406e-17)
(0.985642 -0.137854 1.59582e-16)
(0.986678 -0.234389 -6.62324e-17)
(1.00244 0.0219357 3.66025e-19)
(1.00222 0.021928 6.85545e-19)
(1.00189 0.0215411 -2.19103e-20)
(1.00173 0.0212017 -1.24677e-19)
(1.00166 0.0206589 4.80711e-19)
(1.00169 0.0199618 -8.74356e-19)
(1.00184 0.0191165 8.45953e-20)
(1.00207 0.0181191 -4.25436e-19)
(1.0024 0.0169875 -1.43716e-19)
(1.00279 0.0157405 8.9895e-19)
(1.00324 0.0144051 -4.01339e-19)
(1.00372 0.0130138 1.03933e-20)
(1.00422 0.0116011 -1.7968e-20)
(1.00473 0.0102073 -3.75761e-19)
(1.00523 0.00886604 3.24672e-19)
(1.0057 0.0076179 -4.3822e-20)
(1.00614 0.00648981 2.76804e-20)
(1.00655 0.0055156 -5.51498e-20)
(1.00689 0.00471003 5.12895e-20)
(1.00719 0.00409642 -7.88926e-20)
(1.00743 0.00367906 -2.79314e-21)
(1.00761 0.00346817 -3.21247e-20)
(1.00773 0.00345782 1.10977e-19)
(1.00777 0.00365426 -1.0132e-19)
(1.00774 0.00404199 -1.33202e-19)
(1.00763 0.00462468 5.0675e-19)
(1.00744 0.00538953 -4.90129e-19)
(1.00715 0.00632254 1.07175e-19)
(1.00676 0.00739251 -6.74182e-19)
(1.00624 0.0085485 1.17735e-18)
(1.00561 0.00975951 -5.72034e-19)
(1.00487 0.0110037 -7.75236e-19)
(1.00402 0.0122521 -2.09999e-18)
(1.00308 0.0134336 6.93595e-19)
(1.00205 0.0144555 1.25242e-19)
(1.00094 0.0152152 -2.57535e-19)
(0.999784 0.015597 2.22426e-18)
(0.998604 0.0154851 2.14963e-18)
(0.997439 0.0147702 -5.90676e-19)
(0.996334 0.0133763 9.87537e-19)
(0.995337 0.0112852 -3.2003e-19)
(0.994487 0.00855908 -2.13081e-19)
(0.993924 0.00519675 -1.96328e-18)
(0.993805 0.00207116 -3.95194e-18)
(0.994183 -0.00013239 -2.32276e-18)
(0.995158 -0.000605131 -3.66146e-18)
(0.99688 0.00144519 -1.34248e-18)
(0.999409 0.00651912 2.53436e-18)
(1.00263 0.0143748 3.25807e-18)
(1.00621 0.0235654 -5.21455e-18)
(1.00953 0.0318375 3.32463e-19)
(1.0118 0.0366234 -8.9166e-18)
(1.0123 0.035792 -1.03362e-18)
(1.01043 0.0287122 -1.18088e-17)
(1.00754 0.0147488 1.88789e-17)
(1.00551 -0.00468664 -9.30075e-18)
(1.00264 -0.0264213 -1.62268e-18)
(0.992218 -0.0606198 -5.68476e-18)
(0.98336 -0.151259 9.99525e-17)
(0.981896 -0.255342 2.99105e-17)
(1.00413 0.0262844 1.30209e-19)
(1.00365 0.0265175 -1.59133e-19)
(1.00305 0.0265162 -2.48594e-19)
(1.0026 0.0265732 3.70615e-20)
(1.0022 0.0264691 1.55605e-19)
(1.00189 0.0262321 1.55549e-19)
(1.00169 0.0258528 4.12271e-20)
(1.00158 0.0253105 2.0996e-19)
(1.00157 0.0246036 -3.02181e-19)
(1.00166 0.0237325 -2.01442e-19)
(1.00182 0.0227056 2.33213e-19)
(1.00205 0.0215403 -1.01894e-19)
(1.00233 0.0202587 3.04509e-20)
(1.00265 0.0188934 -1.07898e-20)
(1.00299 0.0174752 2.87441e-20)
(1.00332 0.0160458 4.65115e-21)
(1.00365 0.0146392 -2.16867e-19)
(1.00395 0.0132984 3.73763e-19)
(1.00421 0.0120522 -2.12965e-19)
(1.00444 0.0109378 2.22366e-19)
(1.00462 0.00997617 -3.26946e-19)
(1.00476 0.00919128 3.53777e-19)
(1.00483 0.0085924 -3.60663e-19)
(1.00486 0.00819764 -2.14551e-19)
(1.00483 0.00800123 -3.5411e-20)
(1.00473 0.00801648 -3.30274e-20)
(1.00458 0.00823653 4.95832e-19)
(1.00436 0.00865303 8.12971e-19)
(1.00405 0.00923995 -2.95359e-19)
(1.00366 0.00994719 4.92863e-19)
(1.00317 0.0107537 -3.32897e-19)
(1.00258 0.0116459 6.35681e-20)
(1.00191 0.0126023 3e-18)
(1.00116 0.0135614 -1.17247e-19)
(1.00032 0.0144397 2.25663e-18)
(0.9994 0.0151453 -1.50065e-18)
(0.998417 0.0155709 -3.74729e-18)
(0.997388 0.0156098 -2.2467e-18)
(0.996339 0.0151572 -4.95287e-19)
(0.995299 0.0141366 8.57194e-20)
(0.994297 0.0125246 3.08444e-19)
(0.993356 0.0103587 1.05243e-20)
(0.99264 0.00761257 -2.75832e-19)
(0.992311 0.00514833 3.48417e-18)
(0.992335 0.00361725 -3.57676e-18)
(0.992767 0.00367426 4.28276e-18)
(0.993771 0.00594194 -1.1363e-18)
(0.995465 0.0107468 -7.33523e-18)
(0.997869 0.0177271 -9.71276e-18)
(1.00084 0.0254256 1.23532e-17)
(1.00396 0.0317447 -9.78967e-18)
(1.0066 0.0344316 1.16898e-17)
(1.00799 0.0316791 3.35732e-18)
(1.00727 0.0229932 -5.17512e-18)
(1.00562 0.00768682 -9.57352e-17)
(1.00457 -0.0133933 3.16256e-17)
(1.00168 -0.0374432 -3.18173e-17)
(0.990135 -0.0754581 3.03379e-17)
(0.978137 -0.176152 3.1984e-17)
(0.987626 -0.269114 -3.86159e-17)
(1.00598 0.0290296 2.51826e-19)
(1.00538 0.0293933 -1.42615e-19)
(1.00466 0.0296224 -4.97684e-20)
(1.00403 0.0299324 -2.67037e-20)
(1.00343 0.0301342 8.96656e-20)
(1.00289 0.0302464 6.65852e-20)
(1.00243 0.0302553 -1.09904e-19)
(1.00206 0.0301308 4.24399e-20)
(1.00178 0.0298599 2.46297e-20)
(1.00159 0.0294287 -5.37897e-20)
(1.00148 0.0288293 8.56184e-20)
(1.00147 0.0280623 -7.68236e-20)
(1.00152 0.0271327 -1.74369e-19)
(1.00163 0.0260577 3.75749e-19)
(1.00178 0.0248548 -5.50038e-20)
(1.00196 0.0235565 -2.1432e-19)
(1.00215 0.0221903 -3.63936e-19)
(1.00233 0.0207977 1.08213e-18)
(1.00249 0.0194098 -5.44976e-19)
(1.00262 0.0180702 -6.60969e-19)
(1.00272 0.0168086 8.53534e-19)
(1.00276 0.01566 -2.65364e-20)
(1.00276 0.0146464 2.50425e-20)
(1.00272 0.0137981 -4.63319e-19)
(1.00262 0.0131209 2.28719e-19)
(1.00247 0.0126398 -1.01616e-18)
(1.00229 0.0123569 -9.08114e-19)
(1.00205 0.0122718 1.87943e-19)
(1.00176 0.0123646 1.11668e-18)
(1.0014 0.0125935 8.02573e-19)
(1.00098 0.0129454 9.78523e-19)
(1.00049 0.0134138 -8.07153e-19)
(0.999953 0.0139923 4.71502e-19)
(0.999348 0.014628 1.14475e-18)
(0.998676 0.0152516 -1.79423e-18)
(0.997938 0.0157868 -2.44768e-19)
(0.997137 0.0161401 -3.2144e-19)
(0.99628 0.0162208 1.64028e-18)
(0.995376 0.0159346 -2.98062e-19)
(0.994436 0.015211 8.83701e-19)
(0.993464 0.0140243 5.06877e-20)
(0.99246 0.0123862 -1.61767e-19)
(0.991595 0.0102533 1.55247e-18)
(0.991026 0.00840065 -9.24858e-19)
(0.990638 0.0074168 4.36283e-18)
(0.990428 0.00777655 -2.23826e-19)
(0.990569 0.00991579 1.52968e-17)
(0.99122 0.0139891 8.13688e-18)
(0.992523 0.0195428 1.26896e-19)
(0.994509 0.0251594 -2.05155e-17)
(0.996983 0.0289477 2.31561e-18)
(0.999476 0.0290048 -1.2999e-17)
(1.00122 0.0238613 2.26187e-17)
(1.00124 0.0131636 -5.08674e-18)
(1.00059 -0.00381264 3.50137e-17)
(1.00056 -0.0266477 -3.03272e-17)
(0.998094 -0.0528358 -1.17679e-17)
(0.986332 -0.0936099 -8.44512e-17)
(0.974027 -0.197848 -3.13856e-16)
(0.994045 -0.278918 6.77951e-17)
(1.00776 0.031007 8.94236e-20)
(1.0071 0.0313906 1.84601e-19)
(1.00634 0.0317227 -9.66716e-20)
(1.00562 0.0321522 -1.42159e-19)
(1.00491 0.0325208 -5.2609e-20)
(1.00423 0.0328452 2.03837e-19)
(1.0036 0.0331122 1.06147e-19)
(1.00303 0.0332909 1.27403e-19)
(1.00254 0.0333635 -1.0719e-19)
(1.00213 0.0333095 1.34964e-19)
(1.00181 0.0331105 -1.69125e-19)
(1.00157 0.0327549 -4.27901e-19)
(1.00141 0.0322332 6.0783e-19)
(1.00133 0.0315471 -2.10726e-19)
(1.00131 0.0306988 -5.5268e-21)
(1.00134 0.0297058 -8.12166e-19)
(1.00139 0.0285834 5.16402e-19)
(1.00147 0.0273624 2.58031e-19)
(1.00153 0.0260682 -5.89918e-19)
(1.00158 0.0247407 1.84916e-18)
(1.0016 0.0234106 -6.7148e-19)
(1.00158 0.0221167 -1.75696e-18)
(1.00151 0.0208881 1.87844e-18)
(1.0014 0.0197631 -2.33277e-18)
(1.00124 0.018758 5.43235e-19)
(1.00103 0.0179078 1.4923e-18)
(1.00079 0.0172242 8.89291e-20)
(1.00051 0.0167162 -1.08687e-18)
(1.00019 0.0163729 7.01311e-19)
(0.999816 0.0161582 3.07639e-20)
(0.999403 0.0160711 -1.67162e-18)
(0.998953 0.0161154 -5.51601e-19)
(0.998471 0.0162935 -1.11364e-18)
(0.997953 0.0165664 -1.54058e-18)
(0.997391 0.0168791 -9.36157e-19)
(0.99678 0.0171729 2.58966e-18)
(0.996117 0.0173706 -1.67978e-19)
(0.995396 0.0174006 -1.47926e-18)
(0.994613 0.0171832 2.32361e-18)
(0.99376 0.0166579 -1.05933e-18)
(0.992818 0.0158 5.07718e-20)
(0.991766 0.0145971 -2.67915e-19)
(0.990767 0.0129972 -3.47698e-18)
(0.989974 0.0116439 9.60636e-19)
(0.98921 0.0110463 2.07749e-18)
(0.988411 0.0115024 2.60287e-18)
(0.987756 0.0132724 -6.4891e-18)
(0.987436 0.0163619 7.81765e-18)
(0.987689 0.0202585 -2.56894e-17)
(0.988687 0.0236229 3.74888e-18)
(0.990422 0.0247911 1.0465e-17)
(0.99259 0.0222156 -9.99659e-18)
(0.994464 0.0147617 -3.01731e-17)
(0.994989 0.00219498 1.6446e-17)
(0.995194 -0.0162247 1.53676e-17)
(0.99622 -0.0403507 -8.61715e-17)
(0.994522 -0.0677685 -2.84492e-17)
(0.98298 -0.109602 1.02982e-16)
(0.971015 -0.214389 2.99553e-16)
(1.0011 -0.285737 -7.09184e-17)
(1.00936 0.0325029 -5.67986e-19)
(1.0087 0.0328829 6.74126e-19)
(1.00795 0.0332619 -3.82355e-19)
(1.0072 0.0337427 -5.27677e-20)
(1.00644 0.0341941 2.17964e-19)
(1.00569 0.034633 -1.18087e-19)
(1.00496 0.0350507 4.63828e-19)
(1.00427 0.0354196 2.5033e-19)
(1.00363 0.0357234 -3.5354e-19)
(1.00306 0.0359409 -7.82299e-19)
(1.00255 0.0360507 9.17588e-19)
(1.00212 0.0360356 9.3709e-20)
(1.00178 0.0358775 -3.94934e-20)
(1.00151 0.0355675 -1.2629e-19)
(1.00132 0.0350952 7.40035e-19)
(1.00119 0.034465 -9.93545e-19)
(1.00112 0.0336775 1.19465e-18)
(1.00108 0.0327508 -1.96558e-18)
(1.00105 0.0316984 8.46169e-19)
(1.00103 0.0305511 -4.17683e-19)
(1.00099 0.0293328 1.49621e-20)
(1.00092 0.0280791 -1.14461e-18)
(1.00082 0.0268195 2.91539e-18)
(1.00067 0.0255943 -8.23077e-19)
(1.00046 0.0244258 9.28227e-19)
(1.00022 0.0233558 -1.30814e-18)
(0.999937 0.0224039 -1.72036e-18)
(0.999616 0.0215873 1.61102e-18)
(0.999259 0.0209028 -4.76774e-19)
(0.998861 0.0203249 -2.55476e-19)
(0.998429 0.0198608 4.96796e-19)
(0.997975 0.0195219 1.48005e-18)
(0.997507 0.0193247 -9.60409e-20)
(0.997022 0.0192396 2.96281e-18)
(0.996512 0.0192272 -2.39403e-18)
(0.995969 0.0192454 1.60574e-18)
(0.995385 0.019234 7.22746e-19)
(0.994747 0.019141 8.45568e-19)
(0.99404 0.0189027 -7.36336e-19)
(0.993241 0.018471 1.51755e-19)
(0.992315 0.0178244 6.21226e-19)
(0.991222 0.0169303 1.29438e-19)
(0.990114 0.0157341 1.60473e-18)
(0.989134 0.0147321 -1.16479e-19)
(0.988071 0.0143439 -2.57374e-18)
(0.986808 0.0147132 -2.83823e-20)
(0.985527 0.0159495 -8.55277e-18)
(0.984438 0.0179427 -7.88994e-18)
(0.983848 0.020156 2.63196e-17)
(0.984037 0.0213535 -4.91457e-18)
(0.985135 0.0200982 2.76632e-18)
(0.986974 0.0151724 -7.14492e-18)
(0.988882 0.00574467 1.30517e-17)
(0.989793 -0.00830454 -3.89341e-17)
(0.990714 -0.0277285 -1.58369e-17)
(0.9927 -0.0525589 9.35453e-17)
(0.991762 -0.0805052 5.28526e-18)
(0.98047 -0.122406 8.91062e-17)
(0.969571 -0.22495 -6.62141e-17)
(1.00709 -0.288207 1.35128e-16)
(1.01081 0.0337981 -4.62656e-20)
(1.01016 0.0341328 -8.46933e-19)
(1.00943 0.0345107 3.85272e-19)
(1.0087 0.0349875 -4.91557e-19)
(1.00793 0.0354574 5.08575e-19)
(1.00715 0.0359382 -2.60952e-19)
(1.00637 0.0364256 1.01619e-18)
(1.00561 0.0368967 -6.57291e-19)
(1.00487 0.0373383 8.48792e-19)
(1.00418 0.0377321 -4.16904e-19)
(1.00354 0.0380569 -1.10975e-19)
(1.00296 0.0382944 3.75108e-19)
(1.00246 0.038423 -1.19002e-18)
(1.00203 0.0384283 2.20825e-18)
(1.00168 0.038292 1.56937e-19)
(1.0014 0.0380085 5.66316e-21)
(1.00118 0.0375674 -1.79516e-18)
(1.00102 0.0369741 1.32005e-18)
(1.0009 0.0362305 -1.76938e-18)
(1.0008 0.0353552 1.20366e-18)
(1.0007 0.0343625 1.93219e-19)
(1.00059 0.0332795 1.01979e-18)
(1.00045 0.0321306 -1.01526e-18)
(1.00028 0.0309529 -1.88414e-18)
(1.00006 0.0297693 1.50106e-18)
(0.999799 0.0286231 1.3307e-18)
(0.999497 0.0275387 -1.43487e-18)
(0.999156 0.0265392 1.12678e-19)
(0.998777 0.0256283 8.3202e-19)
(0.998355 0.0247867 -2.82187e-18)
(0.997901 0.0240311 5.89771e-19)
(0.997429 0.0233819 2.24915e-19)
(0.99695 0.0228628 -4.2106e-19)
(0.996464 0.0224564 -6.67003e-19)
(0.995964 0.0221362 -8.31391e-19)
(0.995443 0.0218752 -3.51361e-19)
(0.994889 0.0216287 -5.94708e-21)
(0.994285 0.021363 -6.50062e-19)
(0.99361 0.0210306 2.0538e-18)
(0.992831 0.020596 -4.86455e-19)
(0.991902 0.0200423 -2.2752e-19)
(0.990776 0.0193212 4.0299e-19)
(0.989579 0.0183793 2.1188e-18)
(0.988455 0.0175694 1.76935e-18)
(0.987177 0.0172181 -3.23501e-18)
(0.985589 0.0173455 4.00441e-18)
(0.983873 0.0179412 -3.13889e-18)
(0.982249 0.0188147 -1.30067e-17)
(0.981063 0.0194285 -1.83334e-17)
(0.980676 0.0186696 2.41199e-17)
(0.981312 0.0153132 -2.16139e-17)
(0.982901 0.00843568 1.02481e-17)
(0.984821 -0.00252658 -4.87187e-17)
(0.986022 -0.0176119 -9.12735e-18)
(0.987524 -0.0375978 -2.67249e-17)
(0.990335 -0.0626305 5.25663e-18)
(0.99008 -0.0904856 5.26053e-17)
(0.978837 -0.131725 -8.92034e-17)
(0.968697 -0.231843 -1.48845e-16)
(1.01223 -0.290408 -1.98769e-16)
(1.01207 0.0348628 -2.43749e-19)
(1.01145 0.0351689 2.39379e-19)
(1.01077 0.0355438 5.10857e-19)
(1.01006 0.0360083 4.78946e-19)
(1.00931 0.0364775 -8.72053e-19)
(1.00853 0.0369688 -3.66459e-19)
(1.00775 0.0374824 9.08819e-19)
(1.00696 0.0379998 5.96023e-19)
(1.00617 0.0385127 -1.21049e-18)
(1.0054 0.0390065 1.47918e-18)
(1.00467 0.0394638 -8.43081e-19)
(1.00398 0.0398683 -1.39856e-18)
(1.00335 0.0401991 1.113e-18)
(1.00278 0.0404404 1.34289e-19)
(1.00228 0.0405708 -1.91322e-18)
(1.00186 0.0405792 1.33542e-18)
(1.00151 0.0404474 4.82124e-19)
(1.00122 0.040172 -2.23041e-19)
(1.00098 0.039744 3.56968e-19)
(1.00079 0.0391715 1.23368e-18)
(1.00061 0.0384574 -2.69096e-18)
(1.00045 0.0376191 1.53386e-18)
(1.00027 0.0366723 -5.32741e-19)
(1.00008 0.0356473 3.33297e-18)
(0.999848 0.0345627 -2.70903e-18)
(0.999582 0.0334599 8.83904e-19)
(0.999276 0.0323636 -2.3857e-18)
(0.99893 0.0312987 1.5791e-18)
(0.998543 0.0302728 -6.52678e-19)
(0.998109 0.029274 2.33055e-18)
(0.99764 0.0283232 1.21213e-18)
(0.997149 0.027446 -3.06249e-18)
(0.996651 0.0266765 1.61379e-18)
(0.996148 0.0260045 -6.59135e-20)
(0.995635 0.025415 -1.22483e-18)
(0.995105 0.0248938 1.86133e-18)
(0.994545 0.0244092 2.46233e-19)
(0.993939 0.0239436 6.25985e-19)
(0.99326 0.0234639 -1.93204e-18)
(0.992474 0.0229469 7.65252e-19)
(0.991528 0.0223802 -4.62262e-19)
(0.990373 0.0217044 -2.90302e-20)
(0.989107 0.0208694 -1.43559e-18)
(0.987875 0.0201004 -2.62216e-19)
(0.986456 0.019632 -9.77251e-19)
(0.984665 0.0193944 -4.49821e-18)
(0.982684 0.0192866 -2.90796e-18)
(0.980738 0.0190697 1.27413e-17)
(0.979187 0.0182271 2.35361e-17)
(0.978445 0.0157723 -1.24142e-17)
(0.97879 0.010674 1.82824e-17)
(0.980219 0.00225766 1.5746e-17)
(0.98215 -0.00982091 2.66884e-17)
(0.98357 -0.025538 8.44765e-17)
(0.985512 -0.0457134 5.82658e-17)
(0.988944 -0.0705831 -1.1809e-17)
(0.989139 -0.0980747 -1.76558e-16)
(0.977696 -0.1385 -5.14553e-17)
(0.968552 -0.235372 -2.75799e-17)
(1.01575 -0.290422 1.733e-16)
(1.01322 0.0358935 9.00924e-19)
(1.01263 0.0361497 -9.44198e-19)
(1.01198 0.0365003 -3.53621e-19)
(1.0113 0.0369294 2.06747e-18)
(1.01058 0.0373716 -1.58077e-18)
(1.00982 0.0378444 -8.03201e-19)
(1.00905 0.0383503 1.62937e-18)
(1.00825 0.038875 -1.8004e-18)
(1.00744 0.0394135 1.73776e-18)
(1.00664 0.0399552 6.494e-19)
(1.00585 0.0404856 -7.04541e-19)
(1.00508 0.040992 -1.18015e-18)
(1.00436 0.0414553 9.5281e-19)
(1.00368 0.041861 -7.62482e-19)
(1.00306 0.0421876 2.01554e-19)
(1.00251 0.0424218 -3.86969e-19)
(1.00203 0.042542 9.82179e-19)
(1.00161 0.0425386 1.38708e-18)
(1.00126 0.0423962 -3.90989e-18)
(1.00096 0.0421136 2.6245e-18)
(1.00069 0.0416848 -1.66324e-18)
(1.00046 0.0411172 -1.61261e-18)
(1.00023 0.0404171 1.93383e-18)
(0.999997 0.0396062 -5.09742e-20)
(0.999744 0.0386963 -1.13126e-18)
(0.999466 0.0377229 2.45927e-19)
(0.999156 0.036708 2.61764e-18)
(0.998809 0.0356753 4.54487e-19)
(0.99842 0.034634 -1.94755e-18)
(0.997981 0.0335728 1.50041e-18)
(0.997502 0.0325178 -2.12388e-18)
(0.996996 0.0314995 2.46109e-18)
(0.99648 0.0305545 1.58291e-18)
(0.995953 0.029682 7.90467e-19)
(0.995415 0.0288742 5.18504e-20)
(0.994858 0.0281274 7.29263e-19)
(0.994271 0.0274196 -1.7924e-18)
(0.993638 0.0267465 -2.08762e-18)
(0.992932 0.0260874 5.97664e-19)
(0.992118 0.0254294 7.12799e-19)
(0.991144 0.0247641 3.35635e-19)
(0.989964 0.0240249 3.60912e-20)
(0.988645 0.023166 -3.37956e-18)
(0.987332 0.0223063 -1.08101e-18)
(0.985828 0.0215951 1.56786e-18)
(0.983929 0.0209028 2.53811e-18)
(0.981816 0.0200643 1.37355e-17)
(0.979712 0.0188185 -2.10717e-18)
(0.977981 0.016681 7.55578e-18)
(0.977059 0.0127905 3.22221e-17)
(0.977257 0.00628804 -1.97177e-18)
(0.978606 -0.00329463 -9.44721e-18)
(0.980549 -0.0161214 2.42783e-17)
(0.982114 -0.0321435 1.68704e-17)
(0.984365 -0.0522442 2.71989e-17)
(0.98824 -0.0767344 9.71245e-17)
(0.988707 -0.103663 1.45483e-16)
(0.97681 -0.143156 1.75756e-17)
(0.96827 -0.237335 2.30335e-16)
(1.01884 -0.291616 4.17869e-17)
(1.01421 0.03677 -1.58767e-18)
(1.01364 0.0370023 1.14922e-18)
(1.01305 0.0373435 1.3263e-18)
(1.01241 0.0377498 -4.93336e-19)
(1.01172 0.0381716 -1.57985e-18)
(1.01099 0.0386249 3.16275e-18)
(1.01024 0.0391147 -3.87247e-18)
(1.00946 0.0396293 1.34702e-18)
(1.00866 0.0401675 7.23062e-19)
(1.00784 0.0407222 1.41255e-18)
(1.00702 0.041283 -1.99007e-18)
(1.00621 0.0418407 -6.62743e-20)
(1.00542 0.0423798 -5.85167e-19)
(1.00467 0.0428886 3.33537e-18)
(1.00395 0.0433471 -1.81459e-18)
(1.00329 0.0437431 1.12486e-18)
(1.0027 0.0440533 -1.46599e-18)
(1.00216 0.0442661 2.26218e-19)
(1.00169 0.0443615 1.97809e-18)
(1.00128 0.0443328 -1.13397e-18)
(1.00091 0.0441665 -8.4711e-19)
(1.00059 0.0438621 -6.29753e-19)
(1.00029 0.0434173 1.99405e-18)
(0.999998 0.042845 -1.18902e-18)
(0.999705 0.0421489 6.94936e-19)
(0.999401 0.0413576 -1.29503e-18)
(0.999075 0.0404876 1.17078e-18)
(0.998719 0.0395585 -1.55134e-18)
(0.998325 0.0385775 -9.30285e-21)
(0.997881 0.0375348 -1.42478e-18)
(0.997394 0.036456 1.5449e-19)
(0.996875 0.0353716 1.59345e-19)
(0.99634 0.0343246 -8.10727e-20)
(0.995788 0.0333166 4.90268e-19)
(0.995218 0.0323459 -3.71804e-19)
(0.994625 0.0314163 1.73567e-18)
(0.993998 0.0305121 -1.03221e-18)
(0.993323 0.0296396 3.64461e-19)
(0.992575 0.0287872 5.08303e-19)
(0.991721 0.0279505 -5.99697e-19)
(0.990713 0.0271235 1.03252e-19)
(0.989509 0.0262362 -4.08459e-20)
(0.988148 0.0252463 4.03369e-18)
(0.986773 0.0241907 2.41216e-18)
(0.98522 0.0231419 1.38979e-18)
(0.983278 0.0219366 4.69268e-18)
(0.981126 0.0203676 -5.66718e-18)
(0.978985 0.018171 -1.59177e-17)
(0.977203 0.0149033 -1.00153e-17)
(0.976229 0.00981964 -1.37326e-17)
(0.97638 0.00221083 -5.86533e-18)
(0.977701 -0.00822613 -2.27605e-17)
(0.979649 -0.0215175 5.56804e-17)
(0.9813 -0.0376057 -9.25525e-17)
(0.983738 -0.0574553 -3.64224e-17)
(0.987868 -0.0814496 -9.17314e-17)
(0.988395 -0.10782 -8.52611e-17)
(0.975876 -0.146591 -1.45993e-16)
(0.968091 -0.237732 -5.83879e-17)
(1.02049 -0.29113 3.98472e-17)
(1.01513 0.0376764 2.1892e-18)
(1.01458 0.0378667 2.14522e-18)
(1.01402 0.038183 -2.97444e-18)
(1.01341 0.0385516 8.75017e-19)
(1.01275 0.0389389 2.98564e-19)
(1.01206 0.0393597 1.96675e-18)
(1.01133 0.0398199 1.75526e-19)
(1.01057 0.0403101 -2.75779e-18)
(1.00978 0.0408309 1.05233e-18)
(1.00897 0.0413778 8.95635e-19)
(1.00814 0.041943 -8.70882e-20)
(1.00731 0.0425201 9.18461e-19)
(1.00648 0.0430969 3.48809e-19)
(1.00568 0.0436642 -2.57808e-18)
(1.00489 0.044205 6.7461e-19)
(1.00415 0.0447087 1.29516e-18)
(1.00346 0.0451534 -4.64377e-19)
(1.00282 0.0455267 -2.91516e-18)
(1.00224 0.0458075 3.02964e-18)
(1.00171 0.0459857 -6.36348e-19)
(1.00124 0.0460434 -1.34015e-18)
(1.00082 0.045974 5.13085e-19)
(1.00043 0.0457685 -3.46235e-19)
(1.00007 0.0454318 3.75536e-19)
(0.999721 0.0449602 -1.90892e-18)
(0.999372 0.0443743 3.81289e-19)
(0.999013 0.0436841 -1.86077e-18)
(0.998633 0.042904 1.32159e-18)
(0.998223 0.0420376 1.65992e-18)
(0.997766 0.0410711 2.2473e-19)
(0.997265 0.0400308 -1.93507e-18)
(0.996731 0.0389459 -1.47142e-18)
(0.996174 0.0378592 1.43045e-18)
(0.995595 0.0367758 2.49457e-18)
(0.994989 0.0356969 -2.94601e-18)
(0.994355 0.0346299 1.10053e-18)
(0.99368 0.0335633 1.63094e-18)
(0.992955 0.0325101 1.31799e-18)
(0.992155 0.0314657 7.43913e-19)
(0.991252 0.0304313 7.82019e-19)
(0.990206 0.0294021 4.38609e-19)
(0.988978 0.0283068 -1.72848e-19)
(0.98758 0.0271062 8.19017e-19)
(0.986154 0.025777 -3.03843e-18)
(0.984572 0.0243272 -1.06242e-18)
(0.982628 0.0225798 -1.22545e-17)
(0.980494 0.020302 1.26838e-17)
(0.97839 0.0172423 2.57035e-17)
(0.976638 0.0129968 -1.47091e-17)
(0.975692 0.00692975 -3.01178e-17)
(0.975862 -0.00154068 -3.21201e-17)
(0.977186 -0.0125855 5.7986e-17)
(0.979125 -0.0261236 -3.0629e-17)
(0.980799 -0.0421151 3.29303e-17)
(0.983325 -0.0616217 2.3052e-17)
(0.987577 -0.0850928 -6.26509e-17)
(0.988049 -0.110895 2.26845e-17)
(0.974783 -0.149025 1.97929e-17)
(0.96729 -0.238181 1.88693e-16)
(1.02192 -0.292278 -3.41845e-16)
(1.01591 0.0384456 -2.78703e-18)
(1.01539 0.0386211 4.11915e-18)
(1.01487 0.0389326 -5.57196e-19)
(1.01429 0.0392833 -2.42225e-18)
(1.01367 0.039652 3.71531e-18)
(1.01301 0.0400512 -2.96627e-18)
(1.01231 0.040488 1.32677e-18)
(1.01158 0.0409541 -8.29851e-19)
(1.01081 0.0414524 -7.46581e-19)
(1.01001 0.0419807 2.44691e-18)
(1.00919 0.0425337 1.24333e-18)
(1.00836 0.043108 -3.28353e-18)
(1.00751 0.0436945 1.84521e-19)
(1.00667 0.0442871 -1.09648e-18)
(1.00584 0.0448717 1.138e-18)
(1.00504 0.0454405 6.31025e-19)
(1.00427 0.0459731 9.28474e-19)
(1.00354 0.0464586 -1.86794e-18)
(1.00286 0.0468757 1.62943e-18)
(1.00224 0.0472137 -1.17169e-18)
(1.00167 0.0474515 9.29315e-20)
(1.00114 0.0475794 2.39847e-18)
(1.00066 0.047583 -2.19409e-18)
(1.00021 0.0474613 2.87733e-18)
(0.999788 0.0472039 -1.18005e-18)
(0.999376 0.0468246 1.75618e-18)
(0.998966 0.0463267 9.02995e-19)
(0.998546 0.0457176 -5.89683e-19)
(0.998103 0.0449962 -3.93441e-19)
(0.997619 0.0441469 -1.5248e-18)
(0.997096 0.0431894 3.25795e-18)
(0.996538 0.0421509 -9.75627e-19)
(0.995954 0.0410765 9.30291e-19)
(0.995343 0.0399688 -1.70111e-18)
(0.994698 0.0388303 -1.15858e-18)
(0.994017 0.0376696 -1.97323e-18)
(0.99329 0.0364765 7.57707e-19)
(0.992507 0.0352678 1.02617e-18)
(0.991649 0.0340434 7.97701e-19)
(0.990693 0.0328074 -4.38661e-19)
(0.989604 0.0315545 -2.72859e-19)
(0.98835 0.0302143 -2.10826e-19)
(0.986918 0.0287492 -4.65773e-19)
(0.985444 0.0270955 3.27848e-18)
(0.983843 0.0252088 6.47884e-18)
(0.981915 0.022914 -6.90551e-18)