/*--------------------------------*- C++ -*----------------------------------*\
  =========                 |
  \\      /  F ield         | OpenFOAM: The Open Source CFD Toolbox
   \\    /   O peration     | Website:  https://openfoam.org
    \\  /    A nd           | Version:  6.0
     \\/     M anipulation  |
\*---------------------------------------------------------------------------*/
FoamFile
{
    version     2.0;
    format      ascii;
    class       volVectorField;
    location    "151";
    object      U;
}
// * * * * * * * * * * * * * * * * * * * * * * * * * * * * * * * * * * * * * //

dimensions      [0 1 -1 0 0 0 0];

internalField   nonuniform List<vector> 
34500
(
(0.999996 1.00923e-05 -4.63472e-17)
(0.999967 -2.39027e-06 -8.13897e-18)
(0.999912 -2.89369e-05 1.42291e-16)
(0.999834 -7.73663e-05 -1.07723e-16)
(0.999745 -0.000152356 3.35831e-17)
(0.999652 -0.000256341 -1.01562e-16)
(0.999567 -0.000389527 -1.01079e-16)
(0.999498 -0.000550778 8.67058e-17)
(0.999451 -0.000737083 1.07368e-16)
(0.999428 -0.000954283 -6.84023e-16)
(0.999433 -0.00119924 -1.04226e-15)
(0.999454 -0.00154779 1.27241e-16)
(0.999504 -0.00191064 4.35921e-16)
(1.00012 -0.00289196 -2.09077e-16)
(0.990039 -0.00879862 8.1192e-17)
(0.999991 3.45976e-05 3.24581e-17)
(0.999936 3.35013e-06 9.76756e-17)
(0.999835 -5.35781e-05 7.17902e-17)
(0.999696 -0.000148765 -3.02374e-16)
(0.999536 -0.000290442 -5.06223e-16)
(0.999373 -0.000483161 -5.5088e-17)
(0.999225 -0.000727046 2.55765e-16)
(0.999108 -0.00101785 -6.78032e-16)
(0.999032 -0.00134852 -1.78872e-16)
(0.999002 -0.00172798 6.8253e-16)
(0.999021 -0.00214338 1.2646e-15)
(0.999083 -0.00272679 -6.30918e-16)
(0.999068 -0.00330355 -9.88401e-16)
(1.00064 -0.00466094 -3.98491e-16)
(0.989982 -0.0107252 5.49176e-16)
(0.999987 6.00065e-05 1.04713e-17)
(0.999937 1.44424e-05 -1.22965e-16)
(0.999848 -5.38954e-05 -1.25225e-16)
(0.999727 -0.000154234 4.55916e-16)
(0.999592 -0.000292836 -2.8627e-17)
(0.999456 -0.000474028 -1.64132e-16)
(0.999335 -0.000697471 9.78956e-17)
(0.999244 -0.00095862 3.84993e-16)
(0.99919 -0.00124801 2.55489e-19)
(0.999178 -0.00157416 -3.93544e-16)
(0.999203 -0.00191829 -7.29349e-16)
(0.999292 -0.00240021 4.14797e-16)
(0.999103 -0.00288343 2.25793e-16)
(1.00089 -0.00388257 1.6589e-16)
(0.993784 -0.00707939 -2.55384e-16)
(0.999983 8.53083e-05 -1.73608e-17)
(0.999938 2.48958e-05 -9.02721e-18)
(0.999864 -5.45055e-05 4.83433e-17)
(0.999766 -0.000158875 -3.05547e-16)
(0.999659 -0.000292654 3.72449e-16)
(0.999552 -0.000460233 3.3016e-16)
(0.999459 -0.000661534 -3.99789e-16)
(0.99939 -0.000893568 -4.20294e-16)
(0.999352 -0.00114651 4.3544e-16)
(0.999351 -0.00143103 -4.71119e-16)
(0.99937 -0.00172754 -2.44821e-16)
(0.999472 -0.00214744 -3.86302e-16)
(0.999128 -0.00262044 5.44655e-16)
(1.00069 -0.00341339 -4.84596e-17)
(0.995661 -0.00601865 2.23753e-17)
(0.999976 0.000110741 -1.70494e-17)
(0.99993 3.44881e-05 1.53378e-16)
(0.999859 -6.00315e-05 6.95867e-17)
(0.999766 -0.00017776 1.69845e-16)
(0.999665 -0.000322663 4.67732e-17)
(0.999566 -0.00049941 -1.58351e-16)
(0.99948 -0.000708013 1.02604e-16)
(0.999417 -0.000946893 2.66548e-16)
(0.999383 -0.00120582 -4.18129e-16)
(0.999384 -0.00149853 -2.31289e-16)
(0.999398 -0.00180405 1.00824e-15)
(0.999518 -0.00223329 6.35851e-16)
(0.999092 -0.00275767 -2.91e-16)
(1.00027 -0.00348154 5.97665e-16)
(0.996462 -0.00584483 -6.08293e-16)
(0.999968 0.000136506 1.83585e-17)
(0.999919 4.46642e-05 -9.48487e-17)
(0.999847 -6.55607e-05 -1.86427e-16)
(0.999754 -0.000198757 -5.29654e-17)
(0.999655 -0.000358587 1.09498e-16)
(0.999559 -0.000549363 -1.08916e-16)
(0.999478 -0.000770398 1.48293e-16)
(0.999421 -0.00102072 1.31314e-16)
(0.999391 -0.00128912 2.91341e-16)
(0.999399 -0.0015913 -1.00389e-16)
(0.999411 -0.00190399 2.88204e-18)
(0.999552 -0.00233139 -3.90301e-16)
(0.999105 -0.00287674 1.84025e-17)
(0.999893 -0.00351547 -4.73308e-16)
(0.996926 -0.00534895 7.65252e-17)
(0.999958 0.000162551 3.2566e-18)
(0.999908 5.57802e-05 -3.5602e-17)
(0.999838 -6.89593e-05 -2.90329e-17)
(0.999747 -0.000215732 1.7584e-16)
(0.999654 -0.000387714 -2.20596e-16)
(0.999566 -0.000588285 2.75658e-16)
(0.999495 -0.000815656 -6.19763e-16)
(0.999447 -0.00106913 -3.70213e-16)
(0.999427 -0.00133675 -1.51775e-16)
(0.999444 -0.00163553 6.7234e-16)
(0.999455 -0.00194154 -7.69777e-16)
(0.999612 -0.00234615 2.98912e-16)
(0.999177 -0.00288891 4.58553e-16)
(0.999634 -0.00343245 -9.68145e-17)
(0.997196 -0.00484877 -1.24342e-16)
(0.999948 0.00018878 1.51215e-17)
(0.999897 6.74886e-05 3.22994e-17)
(0.999829 -7.11419e-05 2.50406e-17)
(0.999743 -0.000230639 -1.50952e-16)
(0.999658 -0.000413804 3.2908e-16)
(0.999578 -0.000622982 -1.39696e-16)
(0.999517 -0.000855266 2.01718e-16)
(0.99948 -0.00111025 -1.46421e-16)
(0.999468 -0.00137568 3.98063e-16)
(0.999493 -0.0016698 1.78032e-16)
(0.999503 -0.00196983 2.45265e-16)
(0.999668 -0.00235288 -5.66812e-17)
(0.999266 -0.00289308 -5.07321e-16)
(0.99947 -0.00336415 1.1498e-15)
(0.997388 -0.00450788 1.9164e-16)
(0.999936 0.000215167 -1.12197e-17)
(0.999884 7.95656e-05 9.89923e-17)
(0.999819 -7.29439e-05 1.50867e-16)
(0.999736 -0.000245466 1.1198e-16)
(0.999657 -0.000440668 -4.88989e-16)
(0.999584 -0.000659914 1.41075e-16)
(0.999532 -0.000899226 3.21002e-16)
(0.999504 -0.00115839 7.73324e-16)
(0.9995 -0.00142496 -3.85909e-16)
(0.999533 -0.00171807 9.01978e-17)
(0.999541 -0.00201681 4.50068e-16)
(0.999708 -0.00238378 -3.24764e-16)
(0.999352 -0.00291909 -1.54902e-16)
(0.999381 -0.00333361 -3.84704e-16)
(0.997588 -0.00423752 8.61817e-17)
(0.999923 0.000241701 4.06987e-17)
(0.99987 9.19748e-05 -8.97699e-17)
(0.999806 -7.44154e-05 8.85619e-18)
(0.999727 -0.000260128 -1.10241e-16)
(0.999653 -0.000467811 4.1091e-16)
(0.999587 -0.00069786 7.96741e-17)
(0.999543 -0.000945253 2.70496e-16)
(0.999523 -0.00120977 -5.7373e-16)
(0.999526 -0.00147864 4.16459e-17)
(0.999567 -0.00177135 -7.88203e-17)
(0.999576 -0.00206901 -1.39988e-16)
(0.999742 -0.00241962 4.42755e-17)
(0.999437 -0.00294139 5.9568e-16)
(0.999348 -0.00330356 -8.12598e-16)
(0.997803 -0.00398953 -2.75853e-16)
(0.999908 0.000268366 -2.62303e-17)
(0.999854 0.000104697 3.52626e-17)
(0.999792 -7.54613e-05 -1.47594e-16)
(0.999717 -0.000274147 2.50094e-16)
(0.999649 -0.000493977 -3.61821e-16)
(0.99959 -0.000734384 -3.03332e-16)
(0.999554 -0.0009894 -3.39193e-16)
(0.999543 -0.00125866 3.91621e-17)
(0.999554 -0.00152906 -8.15309e-17)
(0.999603 -0.00181986 -4.25284e-16)
(0.999614 -0.00211454 -7.22887e-16)
(0.999775 -0.00244693 2.86809e-16)
(0.999519 -0.00294837 -3.30294e-16)
(0.999355 -0.00326279 9.16375e-16)
(0.998018 -0.00377005 5.49319e-17)
(0.999893 0.000295135 -2.45613e-17)
(0.999837 0.000117664 -1.0427e-16)
(0.999777 -7.61771e-05 1.50806e-16)
(0.999706 -0.000287575 -2.34299e-16)
(0.999645 -0.00051906 7.69273e-17)
(0.999594 -0.000769142 4.54589e-16)
(0.999566 -0.00103109 5.54524e-17)
(0.999564 -0.0013044 -6.74332e-17)
(0.999583 -0.00157567 1.81826e-16)
(0.999641 -0.00186358 -1.57214e-16)
(0.999656 -0.00215429 -9.532e-17)
(0.999809 -0.00246852 -6.70179e-17)
(0.999595 -0.00294675 -2.8885e-16)
(0.999384 -0.00322032 -6.27753e-16)
(0.998221 -0.00358374 1.26777e-17)
(0.999876 0.000321993 -2.1772e-18)
(0.999818 0.000130814 1.40547e-16)
(0.999761 -7.67114e-05 -2.21621e-16)
(0.999695 -0.00030069 8.34582e-17)
(0.99964 -0.000543496 -9.36322e-17)
(0.999598 -0.000802759 -1.54901e-16)
(0.999578 -0.00107119 -3.89376e-17)
(0.999585 -0.00134822 3.65534e-16)
(0.999613 -0.00162027 -6.31265e-16)
(0.999679 -0.00190514 4.21122e-16)
(0.999698 -0.0021918 2.211e-16)
(0.999842 -0.00248915 1.84754e-16)
(0.999664 -0.00294292 7.54018e-16)
(0.999426 -0.00318146 7.37478e-16)
(0.998409 -0.00342579 5.5973e-16)
(0.999858 0.000348926 8.3054e-18)
(0.999799 0.000144105 5.28955e-17)
(0.999743 -7.71683e-05 1.76146e-16)
(0.999682 -0.000313701 5.5804e-17)
(0.999635 -0.000567635 1.70772e-16)
(0.9996 -0.000835733 1.68212e-16)
(0.99959 -0.00111034 -1.18609e-17)
(0.999606 -0.00139088 4.9362e-17)
(0.999642 -0.00166374 9.39266e-16)
(0.999717 -0.00194561 -1.14147e-16)
(0.999741 -0.00222832 5.43659e-16)
(0.999876 -0.00251022 -7.41831e-16)
(0.999727 -0.0029388 1.37819e-16)
(0.999475 -0.00314647 -1.35832e-15)
(0.998581 -0.0032916 -6.28354e-16)
(0.99984 0.000375939 9.94229e-18)
(0.999778 0.000157531 -1.17724e-16)
(0.999724 -7.75893e-05 1.54864e-16)
(0.999667 -0.000326727 -2.24242e-16)
(0.999627 -0.000591717 1.56957e-16)
(0.999602 -0.000868451 2.07369e-17)
(0.9996 -0.00114902 1.95236e-16)
(0.999626 -0.00143293 -2.60361e-16)
(0.99967 -0.00170666 -8.40434e-16)
(0.999754 -0.00198566 2.4979e-16)
(0.999784 -0.00226452 -5.61752e-16)
(0.99991 -0.00253235 1.13252e-16)
(0.999785 -0.00293559 -4.93227e-16)
(0.999527 -0.00311566 2.68332e-16)
(0.998737 -0.00317831 -1.10504e-16)
(0.99982 0.000403037 3.32467e-17)
(0.999755 0.000171091 7.19121e-17)
(0.999704 -7.79928e-05 -3.59125e-16)
(0.999651 -0.000339856 2.8856e-16)
(0.999618 -0.000615981 -2.80169e-16)
(0.999601 -0.000901369 -3.73316e-16)
(0.999609 -0.00118794 -3.83361e-16)
(0.999645 -0.00147529 3.38055e-16)
(0.999697 -0.00175012 7.20062e-16)
(0.999789 -0.00202652 1.63362e-16)
(0.999827 -0.00230173 9.49703e-17)
(0.999944 -0.00255682 7.03538e-17)
(0.99984 -0.00293489 -7.37388e-16)
(0.999581 -0.00308981 6.50252e-17)
(0.998881 -0.00308283 6.43794e-16)
(0.999799 0.00043025 -8.96815e-17)
(0.999732 0.000184814 -9.24292e-17)
(0.999681 -7.83523e-05 3.43012e-17)
(0.999633 -0.000353106 -2.64501e-16)
(0.999607 -0.000640565 -1.79796e-17)
(0.999598 -0.000934833 4.82091e-16)
(0.999615 -0.00122769 5.51323e-17)
(0.99966 -0.00151878 3.04489e-16)
(0.999722 -0.00179509 -6.03854e-16)
(0.999822 -0.00206928 -3.1031e-16)
(0.999868 -0.00234099 4.45832e-16)
(0.999979 -0.00258439 -1.4964e-16)
(0.999892 -0.00293738 4.866e-16)
(0.999637 -0.00306847 7.56742e-16)
(0.999016 -0.00300122 -6.08423e-17)
(0.999777 0.000457608 2.80951e-17)
(0.999707 0.000198733 1.14795e-17)
(0.999657 -7.86116e-05 1.15673e-16)
(0.999613 -0.000366409 2.26022e-18)
(0.999593 -0.000665442 9.89353e-17)
(0.999592 -0.000968903 -2.89894e-16)
(0.999619 -0.00126844 5.98888e-16)
(0.999673 -0.00156366 -1.53686e-16)
(0.999744 -0.00184186 6.53541e-16)
(0.999852 -0.00211415 -3.42036e-16)
(0.999908 -0.0023823 -5.44969e-16)
(1.00001 -0.0026146 5.26511e-16)
(0.999942 -0.00294235 -8.89548e-16)
(0.999695 -0.00305013 -1.31467e-15)
(0.999144 -0.00292992 -3.34826e-16)
(0.999754 0.000485162 3.12811e-18)
(0.99968 0.000212901 1.95052e-17)
(0.999632 -7.86788e-05 -3.12295e-17)
(0.99959 -0.000379616 1.58762e-16)
(0.999576 -0.000690412 1.08902e-16)
(0.999584 -0.00100335 -4.27096e-17)
(0.999619 -0.00130991 -3.60989e-16)
(0.999684 -0.0016096 -3.48063e-16)
(0.999763 -0.00188996 -2.35333e-16)
(0.999881 -0.00216048 4.33839e-16)
(0.999946 -0.00242476 3.36378e-16)
(1.00005 -0.00264616 -4.95065e-16)
(0.999993 -0.00294849 1.10189e-15)
(0.999755 -0.00303321 1.38503e-15)
(0.999267 -0.00286641 4.70764e-17)
(0.99973 0.000512962 3.57688e-17)
(0.999652 0.000227359 -4.76141e-17)
(0.999605 -7.84692e-05 2.29541e-16)
(0.999567 -0.000392569 -4.57221e-17)
(0.999558 -0.000715225 -1.74526e-16)
(0.999574 -0.00103781 7.40007e-17)
(0.999618 -0.00135166 -1.29847e-16)
(0.999693 -0.00165598 2.93877e-16)
(0.999782 -0.00193863 7.72739e-17)
(0.999908 -0.00220735 5.40414e-17)
(0.999985 -0.0024673 -2.5798e-16)
(1.00009 -0.00267782 3.42781e-16)
(1.00004 -0.00295477 1.75054e-16)
(0.999818 -0.0030169 1.56878e-16)
(0.999388 -0.00280939 3.99605e-16)
(0.999705 0.000541071 -1.83882e-17)
(0.999623 0.000242156 2.72565e-17)
(0.999577 -7.79044e-05 -3.72085e-16)
(0.999542 -0.000405129 -2.38085e-16)
(0.999539 -0.000739659 3.29555e-16)
(0.999562 -0.00107199 -8.92303e-17)
(0.999616 -0.00139324 5.21323e-16)
(0.9997 -0.00170229 -1.41568e-16)
(0.999799 -0.00198721 -7.52093e-18)
(0.999935 -0.00225403 -1.5027e-16)
(1.00002 -0.00250916 3.86098e-16)
(1.00013 -0.00270885 -2.43594e-16)
(1.0001 -0.00296078 -8.02221e-16)
(0.999883 -0.00300106 -1.91492e-16)
(0.999505 -0.00275819 -4.56219e-16)
(0.999679 0.000569546 2.4753e-17)
(0.999593 0.000257326 1.1261e-16)
(0.999547 -7.6941e-05 3.35365e-16)
(0.999516 -0.00041722 2.60312e-16)
(0.999519 -0.000763591 -3.20912e-17)
(0.999549 -0.00110568 -1.30383e-16)
(0.999612 -0.00143443 -5.77127e-16)
(0.999707 -0.00174823 -6.71128e-17)
(0.999816 -0.00203539 -3.42961e-16)
(0.999961 -0.00230019 1.11121e-16)
(1.00006 -0.00255013 -7.07693e-16)
(1.00017 -0.00273911 3.417e-16)
(1.00015 -0.00296667 1.15563e-15)
(0.999951 -0.00298603 -8.93366e-16)
(0.999621 -0.0027126 5.31566e-16)
(0.999651 0.000598452 -1.99594e-17)
(0.999562 0.000272908 -1.58446e-16)
(0.999516 -7.55479e-05 -1.91938e-16)
(0.999488 -0.000428807 -9.57422e-17)
(0.999497 -0.000786976 -6.13242e-17)
(0.999536 -0.00113885 8.42015e-17)
(0.999608 -0.00147515 -3.22495e-17)
(0.999713 -0.00179374 -4.43045e-16)
(0.999833 -0.0020831 -1.30438e-16)
(0.999988 -0.00234587 -3.28544e-17)
(1.0001 -0.00259034 6.44141e-16)
(1.00021 -0.0027688 1.07833e-16)
(1.00021 -0.00297284 -9.60746e-16)
(1.00002 -0.00297224 5.11132e-16)
(0.999735 -0.00267233 -1.02851e-16)
(0.999622 0.000627843 1.80298e-17)
(0.999529 0.000288926 9.31614e-17)
(0.999485 -7.37208e-05 9.23798e-17)
(0.99946 -0.000439908 1.79681e-16)
(0.999474 -0.000809842 -9.7909e-17)
(0.999521 -0.00117151 -2.75436e-17)
(0.999603 -0.00151544 1.99038e-16)
(0.999718 -0.00183889 2.97477e-16)
(0.999849 -0.00213049 -2.14436e-17)
(1.00001 -0.00239124 -3.5937e-16)
(1.00014 -0.00263009 -2.76403e-16)
(1.00026 -0.0027983 -4.86297e-16)
(1.00027 -0.0029797 2.04321e-17)
(1.0001 -0.00296005 2.64613e-16)
(0.999847 -0.00263724 -1.60708e-16)
(0.999592 0.000657779 -9.64043e-18)
(0.999495 0.000305416 -5.51306e-17)
(0.999451 -7.14544e-05 1.40296e-16)
(0.99943 -0.000450549 1.47159e-17)
(0.999451 -0.000832245 -1.24636e-16)
(0.999505 -0.00120375 1.0052e-16)
(0.999596 -0.0015554 -4.80253e-17)
(0.999723 -0.00188379 2.74283e-16)
(0.999864 -0.00217768 5.06917e-16)
(1.00004 -0.0024365 7.87506e-17)
(1.00018 -0.00266966 2.38526e-16)
(1.0003 -0.00282787 2.42986e-16)
(1.00032 -0.00298758 6.00689e-17)
(1.00017 -0.00294972 -5.44462e-16)
(0.999957 -0.00260688 1.32432e-16)
(0.99956 0.000688303 1.29133e-17)
(0.999459 0.000322399 1.16114e-17)
(0.999416 -6.87588e-05 -2.8662e-16)
(0.999399 -0.000460782 -1.25231e-16)
(0.999426 -0.000854269 1.76085e-16)
(0.999489 -0.00123565 -2.74902e-17)
(0.999589 -0.00159513 1.83886e-16)
(0.999726 -0.00192856 -2.44285e-16)
(0.999879 -0.00222484 1.3929e-16)
(1.00006 -0.00248184 1.15888e-16)
(1.00021 -0.00270929 1.22394e-16)
(1.00035 -0.00285778 1.55868e-16)
(1.00038 -0.00299671 2.16973e-16)
(1.00025 -0.00294144 3.06056e-17)
(1.00007 -0.00258119 7.78661e-17)
(0.999527 0.000719464 -3.9731e-17)
(0.999422 0.000339908 1.05148e-16)
(0.99938 -6.56343e-05 1.64571e-16)
(0.999366 -0.000470649 -1.05358e-16)
(0.999399 -0.000875995 -6.85021e-17)
(0.999471 -0.00126733 3.89948e-17)
(0.999581 -0.00163473 -2.00329e-16)
(0.999729 -0.00197332 -1.31105e-16)
(0.999893 -0.00227205 -1.72251e-16)
(1.00009 -0.0025274 2.73863e-16)
(1.00025 -0.00274917 -3.80129e-16)
(1.00039 -0.00288823 2.97137e-16)
(1.00044 -0.00300728 1.45721e-16)
(1.00032 -0.00293534 5.46448e-16)
(1.00018 -0.00255981 -5.01431e-16)
(0.999493 0.000751291 1.67648e-17)
(0.999384 0.000357961 -7.91426e-17)
(0.999343 -6.20912e-05 5.79509e-17)
(0.999332 -0.000480205 1.28188e-16)
(0.999372 -0.00089752 -8.88809e-17)
(0.999451 -0.00129891 -1.50232e-16)
(0.999572 -0.00167433 -7.11396e-17)
(0.999731 -0.00201818 9.8055e-17)
(0.999907 -0.00231948 -4.48636e-16)
(1.00011 -0.00257332 6.62178e-17)
(1.00029 -0.00278951 2.5257e-16)
(1.00044 -0.00291941 -7.06424e-16)
(1.00051 -0.00301949 1.42816e-16)
(1.0004 -0.0029316 2.19123e-17)
(1.00028 -0.00254245 3.69626e-16)
(0.999457 0.000783819 -6.37342e-18)
(0.999344 0.000376587 9.69971e-17)
(0.999303 -5.81271e-05 -9.37203e-17)
(0.999296 -0.000489491 -5.81767e-17)
(0.999342 -0.00091893 -9.27948e-17)
(0.99943 -0.00133051 -4.90784e-17)
(0.999561 -0.00171406 -1.05838e-16)
(0.999731 -0.00206328 7.55778e-17)
(0.999919 -0.00236725 2.90734e-17)
(1.00014 -0.00261976 -3.10765e-16)
(1.00032 -0.00283049 -3.7091e-16)
(1.00049 -0.00295153 4.11754e-16)
(1.00057 -0.00303349 -3.5984e-16)
(1.00048 -0.00293029 -1.14779e-16)
(1.00039 -0.00252894 -1.13216e-17)
(0.999419 0.000817065 -1.92854e-17)
(0.999302 0.000395798 -4.4808e-17)
(0.999262 -5.37481e-05 3.16499e-17)
(0.999259 -0.000498549 2.25558e-16)
(0.999311 -0.000940317 3.7672e-16)
(0.999408 -0.00136226 3.07583e-16)
(0.999548 -0.0017541 3.36103e-16)
(0.99973 -0.00210882 -2.1446e-16)
(0.99993 -0.00241555 6.85551e-20)
(1.00016 -0.00266693 2.32731e-16)
(1.00036 -0.00287232 4.58501e-17)
(1.00053 -0.00298476 2.53001e-16)
(1.00063 -0.0030494 2.03536e-16)
(1.00056 -0.00293144 -5.34162e-16)
(1.00049 -0.00251891 -3.51331e-16)
(0.99938 0.00085105 9.92253e-18)
(0.999259 0.000415615 -8.09863e-17)
(0.99922 -4.89466e-05 -1.62009e-16)
(0.99922 -0.000507402 -1.59046e-16)
(0.999278 -0.000961749 1.46188e-17)
(0.999384 -0.00139428 -1.7365e-16)
(0.999535 -0.0017946 -3.78141e-16)
(0.999728 -0.00215497 2.88672e-16)
(0.99994 -0.00246458 2.34833e-16)
(1.00018 -0.00271499 -5.17965e-16)
(1.00039 -0.00291517 4.25088e-16)
(1.00058 -0.00301925 -3.10096e-16)
(1.00069 -0.00306726 -1.43094e-16)
(1.00064 -0.00293497 -1.25314e-16)
(1.0006 -0.00251191 1.49646e-16)
(0.999339 0.000885779 3.7771e-17)
(0.999215 0.000436043 1.73774e-17)
(0.999175 -4.37229e-05 8.76242e-17)
(0.999179 -0.000516067 4.0708e-17)
(0.999243 -0.000983277 4.78982e-17)
(0.999357 -0.00142667 3.00326e-16)
(0.999519 -0.0018357 -1.35717e-16)
(0.999724 -0.00220189 1.48326e-16)
(0.999949 -0.00251451 8.51825e-17)
(1.0002 -0.00276411 5.93819e-17)
(1.00043 -0.0029592 1.97924e-16)
(1.00062 -0.00305507 -4.22255e-17)
(1.00075 -0.00308704 9.39433e-18)
(1.00073 -0.00294072 8.7397e-16)
(1.0007 -0.00250751 2.78431e-18)
(0.999297 0.000921261 -3.6662e-17)
(0.999169 0.00045709 -1.26642e-17)
(0.99913 -3.80639e-05 5.72882e-17)
(0.999136 -0.000524532 -1.74689e-16)
(0.999207 -0.0010049 -2.79831e-16)
(0.999329 -0.00145946 -2.6815e-16)
(0.999502 -0.00187746 2.27232e-16)
(0.999719 -0.00224967 -8.31213e-17)
(0.999956 -0.00256543 9.69499e-18)
(1.00022 -0.00281434 -5.02468e-18)
(1.00046 -0.0030044 -2.73385e-16)
(1.00067 -0.00309214 -2.47235e-16)
(1.00081 -0.00310854 -1.5959e-16)
(1.00081 -0.00294838 2.42487e-17)
(1.0008 -0.00250518 -5.47892e-17)
(0.999253 0.00095749 -1.83028e-17)
(0.999122 0.000478751 4.84495e-17)
(0.999082 -3.19677e-05 4.76717e-17)
(0.999092 -0.000532783 7.75874e-17)
(0.999168 -0.00102659 1.06132e-16)
(0.9993 -0.00149262 1.67746e-18)
(0.999482 -0.00191985 2.27132e-16)
(0.999711 -0.0022983 -5.06543e-16)
(0.999963 -0.0026173 2.58363e-16)
(1.00024 -0.00286563 2.63574e-16)
(1.00049 -0.00305067 -3.77242e-16)
(1.00072 -0.00313031 7.04969e-16)
(1.00087 -0.00313152 3.71458e-16)
(1.00089 -0.00295763 -6.93109e-16)
(1.00091 -0.0025046 -2.06543e-16)
(0.999207 0.000994468 3.78488e-17)
(0.999073 0.000501023 2.93947e-17)
(0.999033 -2.5424e-05 4.59026e-18)
(0.999046 -0.000540781 -3.47812e-17)
(0.999128 -0.00104829 2.0178e-17)
(0.999268 -0.00152605 2.84733e-16)
(0.999462 -0.00196277 -4.59015e-17)
(0.999703 -0.00234764 3.25064e-16)
(0.999967 -0.00266999 -4.81108e-17)
(1.00026 -0.00291779 -2.91542e-16)
(1.00052 -0.00309782 6.03513e-16)
(1.00076 -0.00316932 -3.62404e-16)
(1.00093 -0.00315569 -4.91073e-16)
(1.00097 -0.00296819 2.07851e-16)
(1.00101 -0.00250545 3.4804e-16)
(0.999161 0.00103218 -3.14743e-17)
(0.999023 0.000523888 -1.32711e-17)
(0.998983 -1.84403e-05 -1.73071e-16)
(0.998998 -0.000548503 -8.45926e-17)
(0.999086 -0.00106991 5.21015e-17)
(0.999235 -0.00155963 -2.87446e-16)
(0.999439 -0.00200605 -8.45101e-17)
(0.999693 -0.00239752 2.83311e-16)
(0.999971 -0.00272329 -2.39654e-16)
(1.00027 -0.00297061 7.02999e-17)
(1.00056 -0.00314561 -3.36055e-16)
(1.00081 -0.00320896 1.05783e-17)
(1.00099 -0.00318082 2.65784e-16)
(1.00105 -0.00297989 1.4002e-16)
(1.00111 -0.00250772 -5.46437e-17)
(0.999112 0.00107062 3.00255e-17)
(0.998971 0.00054733 -9.74372e-17)
(0.998931 -1.10233e-05 8.17994e-17)
(0.998949 -0.000555924 5.35449e-17)
(0.999043 -0.00109137 -4.03764e-17)
(0.999201 -0.00159323 -1.72664e-16)
(0.999416 -0.0020495 5.23594e-17)
(0.999682 -0.0024477 -1.29888e-16)
(0.999974 -0.00277696 -2.19048e-16)
(1.00029 -0.00302385 -2.73843e-17)
(1.00059 -0.00319382 -4.85645e-16)
(1.00085 -0.00324904 4.97293e-16)
(1.00106 -0.00320678 3.86854e-17)
(1.00113 -0.00299266 -7.99288e-17)
(1.00121 -0.0025114 -7.78692e-18)
(0.999062 0.00110977 -3.68271e-17)
(0.998917 0.00057132 1.00305e-16)
(0.998878 -3.20357e-06 -2.30438e-17)
(0.998899 -0.000563058 -2.09945e-16)
(0.998999 -0.00111266 -1.00043e-16)
(0.999165 -0.00162675 1.16232e-16)
(0.999392 -0.00209301 -1.70574e-16)
(0.999671 -0.00249804 -1.91099e-16)
(0.999977 -0.00283085 3.25285e-16)
(1.00031 -0.00307736 1.13219e-16)
(1.00062 -0.00324237 5.09573e-16)
(1.0009 -0.00328954 -3.83488e-16)
(1.00112 -0.00323361 1.37917e-16)
(1.00121 -0.00300662 -1.55461e-16)
(1.00131 -0.00251669 5.19036e-18)
(0.999011 0.00114962 2.27938e-17)
(0.998862 0.000595835 -5.80447e-17)
(0.998823 4.9872e-06 7.21076e-17)
(0.998847 -0.000569934 3.12815e-16)
(0.998954 -0.00113378 1.32761e-16)
(0.999129 -0.00166019 8.23755e-17)
(0.999366 -0.00213651 3.38798e-16)
(0.999658 -0.00254848 1.61032e-16)
(0.999979 -0.00288489 -2.65286e-16)
(1.00032 -0.00313113 4.52142e-16)
(1.00065 -0.0032913 2.51543e-16)
(1.00094 -0.00333057 -2.13012e-16)
(1.00118 -0.00326145 -4.07774e-16)
(1.00129 -0.00302194 -1.58631e-16)
(1.00141 -0.00252372 6.13211e-17)
(0.998957 0.00119015 4.68016e-18)
(0.998806 0.000620843 -1.23664e-16)
(0.998766 1.34976e-05 -9.1782e-17)
(0.998794 -0.000576623 -2.1539e-16)
(0.998907 -0.00115481 3.46013e-17)
(0.999091 -0.00169362 -3.34526e-16)
(0.99934 -0.00218008 -3.59685e-16)
(0.999645 -0.00259908 -1.44705e-16)
(0.99998 -0.0029392 3.08342e-16)
(1.00034 -0.0031853 -3.27615e-16)
(1.00068 -0.00334078 1.15889e-16)
(1.00099 -0.00337236 2.15556e-16)
(1.00124 -0.00329055 3.27499e-16)
(1.00137 -0.00303887 2.00067e-16)
(1.00151 -0.00253273 1.70072e-17)
(0.998903 0.00123135 3.28972e-17)
(0.998748 0.00064632 2.02118e-16)
(0.998708 2.22853e-05 9.40776e-17)
(0.998739 -0.000583198 1.80819e-16)
(0.998859 -0.00117586 1.0835e-16)
(0.999052 -0.00172718 4.5684e-17)
(0.999313 -0.00222388 5.27045e-17)
(0.999631 -0.00265003 -1.21109e-16)
(0.999981 -0.00299396 -1.22837e-16)
(1.00035 -0.00324006 1.43988e-17)
(1.00071 -0.00339106 -7.91881e-16)
(1.00104 -0.00341516 -3.09438e-16)
(1.00131 -0.00332114 3.25631e-16)
(1.00146 -0.00305758 -7.26959e-17)
(1.00161 -0.00254369 -2.01568e-16)
(0.998846 0.0012732 -4.42153e-17)
(0.998688 0.00067224 -1.29522e-16)
(0.998648 3.12997e-05 -1.86031e-16)
(0.998683 -0.000589745 6.11222e-17)
(0.998809 -0.00119706 -2.05562e-16)
(0.999012 -0.00176103 3.82972e-17)
(0.999284 -0.00226811 -4.74084e-17)
(0.999615 -0.00270155 -8.65473e-18)
(0.99998 -0.00304943 -1.46782e-16)
(1.00037 -0.0032957 -7.69835e-17)
(1.00074 -0.00344243 2.72727e-17)
(1.00108 -0.00345925 2.68723e-16)
(1.00137 -0.00335342 -1.35545e-16)
(1.00154 -0.00307822 2.67844e-16)
(1.0017 -0.00255668 9.47699e-17)
(0.998788 0.00131571 2.36315e-17)
(0.998626 0.000698589 1.24081e-16)
(0.998587 4.05115e-05 2.36346e-16)
(0.998625 -0.000596331 -6.83003e-17)
(0.998758 -0.00121851 -1.65722e-17)
(0.99897 -0.00179534 2.50954e-16)
(0.999254 -0.00231298 2.13418e-16)
(0.999599 -0.00275388 -1.46254e-16)
(0.999979 -0.00310586 3.91905e-16)
(1.00038 -0.00335247 3.55638e-16)
(1.00077 -0.00349512 3.78308e-16)
(1.00113 -0.00350483 -1.7478e-17)
(1.00143 -0.00338753 -3.00472e-16)
(1.00162 -0.00310085 -3.15873e-16)
(1.0018 -0.00257154 -3.04712e-17)
(0.998729 0.00135886 -2.02493e-17)
(0.998563 0.000725349 -6.55238e-17)
(0.998523 4.98923e-05 -1.95894e-16)
(0.998564 -0.00060301 1.26086e-16)
(0.998704 -0.00124033 1.20996e-16)
(0.998926 -0.00183026 -1.68029e-16)
(0.999222 -0.00235867 -8.48398e-17)
(0.999581 -0.00280722 8.38957e-18)
(0.999976 -0.00316346 -1.74171e-16)
(1.0004 -0.00341057 -3.04713e-16)
(1.0008 -0.0035493 -5.62432e-16)
(1.00117 -0.00355204 6.07718e-17)
(1.00149 -0.00342354 3.66833e-16)
(1.0017 -0.00312547 3.32448e-16)
(1.00189 -0.00258823 -7.00002e-17)
(0.998667 0.00140263 -1.61137e-17)
(0.998498 0.000752518 -1.31801e-17)
(0.998458 5.9438e-05 1.71426e-16)
(0.998502 -0.000609801 -1.61768e-16)
(0.998649 -0.00126254 -3.19699e-16)
(0.99888 -0.00186585 1.55171e-16)
(0.999188 -0.00240527 8.80645e-17)
(0.999561 -0.00286169 4.07853e-16)
(0.999972 -0.00322235 5.83256e-17)
(1.00041 -0.00347011 2.83719e-16)
(1.00083 -0.00360506 8.4279e-16)
(1.00122 -0.00360091 -2.31325e-16)
(1.00155 -0.00346142 -9.82476e-17)
(1.00178 -0.00315198 -1.16079e-17)
(1.00199 -0.00260645 -2.78741e-17)
(0.998604 0.00144703 4.5065e-17)
(0.998431 0.000780083 4.9242e-17)
(0.99839 6.91419e-05 -1.47435e-16)
(0.998438 -0.00061671 1.36978e-16)
(0.998591 -0.00128517 -9.22057e-17)
(0.998832 -0.00190214 -2.96894e-16)
(0.999153 -0.00245284 1.30492e-17)
(0.99954 -0.00291735 -3.50811e-17)
(0.999967 -0.0032826 -2.16314e-16)
(1.00042 -0.00353114 1.82386e-16)
(1.00086 -0.00366242 -7.86675e-16)
(1.00126 -0.00365145 -1.4324e-17)
(1.00162 -0.00350111 -1.75483e-16)
(1.00186 -0.00318027 3.28011e-17)
(1.00208 -0.00262608 -8.25625e-17)
(0.998539 0.00149203 -1.14996e-17)
(0.998362 0.000808045 -1.17329e-17)
(0.998321 7.90141e-05 2.04011e-17)
(0.998372 -0.000623718 -1.52326e-16)
(0.998531 -0.0013082 -2.73508e-17)
(0.998782 -0.00193913 3.6252e-16)
(0.999115 -0.00250137 -2.64239e-16)
(0.999517 -0.00297419 -3.27337e-16)
(0.99996 -0.00334419 3.50566e-16)
(1.00043 -0.00359363 -3.17259e-16)
(1.00089 -0.00372134 4.01666e-16)
(1.00131 -0.00370357 3.80174e-16)
(1.00168 -0.00354247 2.73985e-16)
(1.00194 -0.00321015 -1.82442e-16)
(1.00218 -0.00264683 -6.22222e-17)
(0.998472 0.00153764 -1.24019e-17)
(0.998292 0.00083639 -7.19932e-17)
(0.99825 8.90525e-05 -9.69505e-17)
(0.998304 -0.000630813 7.11651e-17)
(0.99847 -0.00133159 1.80382e-16)
(0.998731 -0.00197677 6.32775e-17)
(0.999076 -0.00255081 2.45573e-16)
(0.999493 -0.00303217 5.36831e-17)
(0.999952 -0.00340709 -4.60916e-16)
(1.00044 -0.00365754 1.61329e-16)
(1.00091 -0.00378176 -2.28123e-16)
(1.00135 -0.00375719 -1.89559e-16)
(1.00174 -0.0035854 -2.55477e-16)
(1.00202 -0.0032415 4.03996e-17)
(1.00227 -0.00266862 1.50265e-16)
(0.998404 0.00158384 -1.90357e-17)
(0.99822 0.000865115 3.42907e-17)
(0.998177 9.9263e-05 4.14029e-17)
(0.998234 -0.000637975 -1.42639e-16)
(0.998407 -0.00135532 6.96168e-17)
(0.998677 -0.00201502 -2.11252e-16)
(0.999036 -0.00260111 -2.58818e-17)
(0.999467 -0.00309123 3.17822e-16)
(0.999943 -0.00347122 -2.02762e-16)
(1.00045 -0.00372277 -2.68097e-16)
(1.00094 -0.00384356 2.30352e-16)
(1.0014 -0.00381218 -6.84085e-17)
(1.0018 -0.00362973 -7.23884e-16)
(1.0021 -0.00327412 7.39102e-17)
(1.00237 -0.00269121 1.08083e-16)
(0.998333 0.00163062 -9.79802e-18)
(0.998146 0.0008942 3.34475e-17)
(0.998103 0.000109632 1.26022e-17)
(0.998162 -0.000645205 1.90142e-17)
(0.998342 -0.00137937 1.20136e-16)
(0.998622 -0.00205384 6.67653e-17)
(0.998994 -0.00265223 -2.1993e-16)
(0.99944 -0.00315132 -2.0086e-17)
(0.999934 -0.00353652 6.07308e-16)
(1.00045 -0.00378926 -1.94839e-16)
(1.00097 -0.00390666 -5.73107e-18)
(1.00144 -0.00386844 2.88394e-17)
(1.00187 -0.00367533 2.78661e-17)
(1.00218 -0.0033079 -5.11721e-17)
(1.00247 -0.00271462 1.70594e-17)
(0.998261 0.00167796 2.58199e-17)
(0.99807 0.000923637 -6.82266e-17)
(0.998026 0.000120151 -7.79377e-17)
(0.998089 -0.000652507 1.49592e-19)
(0.998275 -0.00140372 -1.81402e-16)
(0.998566 -0.00209321 -2.89727e-17)
(0.99895 -0.00270412 4.27039e-17)
(0.999412 -0.00321238 -4.8365e-17)
(0.999923 -0.00360292 -4.11167e-16)
(1.00046 -0.00385692 5.47611e-16)
(1.00099 -0.00397096 -3.12631e-17)
(1.00149 -0.00392587 -5.72731e-17)
(1.00193 -0.00372211 3.37794e-16)
(1.00226 -0.00334274 -3.79088e-16)
(1.00256 -0.00273876 8.01041e-18)
(0.998187 0.00172585 2.73957e-18)
(0.997992 0.000953402 8.18485e-17)
(0.997948 0.000130792 2.19985e-16)
(0.998014 -0.000659907 -5.54842e-17)
(0.998207 -0.0014284 1.17891e-16)
(0.998507 -0.00213315 -1.83218e-16)
(0.998905 -0.00275679 -2.19454e-16)
(0.999383 -0.00327439 5.27144e-18)
(0.999911 -0.00367039 2.39397e-16)
(1.00047 -0.00392572 -4.77953e-16)
(1.00102 -0.00403644 1.19098e-16)
(1.00153 -0.00398443 -2.07098e-17)
(1.00199 -0.00377006 2.60943e-16)
(1.00234 -0.00337868 8.06898e-17)
(1.00266 -0.00276383 -1.2574e-16)
(0.998111 0.00177429 1.05275e-18)
(0.997913 0.000983483 -8.8833e-17)
(0.997868 0.000141535 -1.25553e-16)
(0.997937 -0.00066743 2.07824e-17)
(0.998137 -0.00145344 -2.19022e-17)
(0.998448 -0.00217366 1.66311e-16)
(0.998859 -0.00281024 3.60312e-16)
(0.999352 -0.00333735 -3.1967e-16)
(0.999899 -0.00373892 3.63714e-16)
(1.00047 -0.00399564 3.21609e-17)
(1.00105 -0.00410305 7.14002e-17)
(1.00158 -0.00404412 -1.37962e-16)
(1.00205 -0.00381916 2.66516e-16)
(1.00242 -0.00341573 1.51142e-16)
(1.00275 -0.00278981 1.97516e-16)
(0.998033 0.00182325 -8.61007e-18)
(0.997831 0.00101385 8.47376e-17)
(0.997786 0.000152344 1.54644e-16)
(0.997858 -0.000675121 5.34375e-17)
(0.998065 -0.00147888 1.56317e-16)
(0.998387 -0.0022148 1.20072e-16)
(0.998811 -0.00286451 -3.23568e-16)
(0.999321 -0.00340129 6.48402e-16)
(0.999886 -0.00380854 -2.04012e-16)
(1.00048 -0.0040667 -6.78889e-17)
(1.00107 -0.00417087 -2.45816e-16)
(1.00162 -0.00410502 -1.08003e-16)
(1.00212 -0.00386953 -2.9659e-16)
(1.00251 -0.00345403 -1.09345e-16)
(1.00285 -0.00281698 4.74982e-17)
(0.997953 0.00187272 -3.05766e-17)
(0.997748 0.0010445 -9.06199e-17)
(0.997702 0.000163197 -1.08454e-17)
(0.997778 -0.000683015 1.06306e-16)
(0.997991 -0.00150476 -1.42259e-16)
(0.998324 -0.0022566 -1.04479e-16)
(0.998763 -0.00291964 4.04904e-16)
(0.999288 -0.00346625 -1.2096e-16)
(0.999872 -0.0038793 -5.16907e-16)
(1.00049 -0.00413898 7.1163e-17)
(1.0011 -0.00423996 -1.24809e-16)
(1.00167 -0.00416721 2.3102e-16)
(1.00218 -0.00392127 3.70249e-16)
(1.00259 -0.0034937 3.30021e-16)
(1.00295 -0.00284537 -2.76786e-16)
(0.997872 0.0019227 1.83379e-18)
(0.997663 0.00107541 -1.74799e-17)
(0.997617 0.000174058 -7.23632e-17)
(0.997695 -0.000691161 4.51128e-17)
(0.997916 -0.00153114 -7.88805e-17)
(0.998259 -0.00229914 1.34557e-16)
(0.998712 -0.00297571 -1.16349e-16)
(0.999255 -0.00353233 3.99368e-17)
(0.999857 -0.0039513 -1.08344e-16)
(1.00049 -0.00421259 2.75731e-16)