1.275 	2.15223e-18 	-2.76991e-20 	-0.0208753 	-0.00226732 	-2.01158e-22
1.825 	2.15223e-18 	-1.39322e-20 	0.0865797 	-0.0066703 	1.21736e-21
2.375 	2.15223e-18 	-2.66896e-23 	0.343193 	-0.00769547 	-4.11614e-22
