1.45 	0 	0 	0.0293392 	-0.00624462 	3.74128e-21
2.35 	0 	0 	0.210485 	-0.0110656 	9.24741e-22
