1.45 	0 	0 	-0.0878607
2.35 	0 	0 	0.0340026
