1.45 	0 	0 	-0.00776833 	-0.00258697 	3.82064e-21
2.35 	0 	0 	0.0621182 	-0.00665614 	2.33877e-21
