/*--------------------------------*- C++ -*----------------------------------*\
  =========                 |
  \\      /  F ield         | OpenFOAM: The Open Source CFD Toolbox
   \\    /   O peration     | Website:  https://openfoam.org
    \\  /    A nd           | Version:  6.0
     \\/     M anipulation  |
\*---------------------------------------------------------------------------*/
FoamFile
{
    version     2.0;
    format      ascii;
    class       surfaceScalarField;
    location    "1.9";
    object      phi;
}
// * * * * * * * * * * * * * * * * * * * * * * * * * * * * * * * * * * * * * //

dimensions      [0 3 -1 0 0 0 0];

internalField   nonuniform List<scalar> 
47678
(
2.98115e-05
0.00388593
2.40916e-09
5.98494e-05
0.00381841
8.91152e-05
0.0036858
0.000116964
0.00349011
0.000142855
0.00323476
0.000166314
0.00292421
0.000186916
0.00256384
0.000204297
0.00215987
0.000218146
0.00171929
0.000228221
0.00124961
0.000234336
0.000759773
0.000261892
0.000237061
2.96232e-05
0.00385631
2.71308e-09
5.9471e-05
0.00378856
8.85511e-05
0.00365672
0.000116222
0.00346245
0.000141948
0.00320904
0.000165256
0.00290091
0.000185726
0.00254338
0.000202995
0.00214261
0.000216757
0.00170554
0.000226761
0.00123961
0.000232957
0.000753594
0.000259106
0.000235774
2.94356e-05
0.00382687
2.65568e-09
5.90944e-05
0.00375891
8.79901e-05
0.00362783
0.000115486
0.00343495
0.000141048
0.00318348
0.000164206
0.00287775
0.000184545
0.00252304
0.000201704
0.00212545
0.000215378
0.00169187
0.000225314
0.00122968
0.000231491
0.000747415
0.000256341
0.000234246
2.92491e-05
0.00379762
2.5429e-09
5.87198e-05
0.00372943
8.74327e-05
0.00359912
0.000114754
0.00340763
0.000140153
0.00315808
0.000163163
0.00285474
0.000183371
0.00250284
0.00020042
0.00210841
0.000214009
0.00167829
0.000223879
0.00121982
0.000230002
0.000741306
0.000253712
0.000232661
2.90637e-05
0.00376855
2.12239e-09
5.83478e-05
0.00370015
8.68787e-05
0.00357058
0.000114026
0.00338049
0.000139263
0.00313284
0.000162126
0.00283188
0.000182205
0.00248276
0.000199144
0.00209147
0.000212647
0.00166478
0.000222455
0.00121001
0.00022852
0.000735238
0.000251125
0.000231095
2.88795e-05
0.00373967
1.61248e-09
5.7978e-05
0.00367105
8.63283e-05
0.00354224
0.000113303
0.00335351
0.000138379
0.00310777
0.000161095
0.00280917
0.000181046
0.00246282
0.000197876
0.00207464
0.000211295
0.00165137
0.000221043
0.00120027
0.000227055
0.00072924
0.000248649
0.000229561
2.86964e-05
0.00371097
1.05852e-09
5.76105e-05
0.00364214
8.57811e-05
0.00351407
0.000112584
0.00332671
0.0001375
0.00308286
0.000160071
0.00278659
0.000179894
0.00244299
0.000196617
0.00205792
0.000209951
0.00163804
0.000219642
0.00119058
0.000225607
0.000723271
0.000246197
0.00022805
2.85145e-05
0.00368246
4.25756e-10
5.72454e-05
0.00361341
8.52373e-05
0.00348608
0.00011187
0.00330008
0.000136626
0.0030581
0.000159054
0.00276417
0.00017875
0.0024233
0.000195367
0.00204131
0.000208616
0.0016248
0.00021825
0.00118095
0.000224172
0.000717361
0.000243842
0.000226557
2.83338e-05
0.00365412
-2.06829e-10
5.68825e-05
0.00358486
8.46968e-05
0.00345826
0.00011116
0.00327362
0.000135758
0.0030335
0.000158042
0.00274189
0.000177613
0.00240373
0.000194124
0.0020248
0.00020729
0.00161163
0.000216867
0.00117137
0.000222749
0.000711473
0.000241502
0.000225081
2.81543e-05
0.00362597
-8.49098e-10
5.65219e-05
0.00355649
8.41596e-05
0.00343062
0.000110454
0.00324732
0.000134896
0.00300907
0.000157037
0.00271975
0.000176483
0.00238429
0.000192889
0.0020084
0.000205972
0.00159855
0.000215492
0.00116186
0.000221336
0.000705642
0.000239245
0.000223621
2.7976e-05
0.003598
-1.50974e-09
5.61636e-05
0.00352831
8.36255e-05
0.00340316
0.000109753
0.0032212
0.000134038
0.00298478
0.000156039
0.00269775
0.00017536
0.00236497
0.000191662
0.00199209
0.000204662
0.00158555
0.000214126
0.0011524
0.000219932
0.00069983
0.000236991
0.000222177
2.77988e-05
0.0035702
-2.18622e-09
5.58075e-05
0.0035003
8.30947e-05
0.00337588
0.000109055
0.00319524
0.000133186
0.00296065
0.000155046
0.00267589
0.000174245
0.00234577
0.000190443
0.0019759
0.000203362
0.00157264
0.000212769
0.001143
0.000218537
0.000694074
0.000234807
0.000220747
2.76228e-05
0.00354258
-2.8872e-09
5.54534e-05
0.00347247
8.2567e-05
0.00334876
0.000108362
0.00316944
0.000132339
0.00293667
0.00015406
0.00265417
0.000173137
0.00232669
0.000189233
0.0019598
0.000202069
0.0015598
0.00021142
0.00113364
0.000217152
0.000688335
0.000232619
0.000219328
2.74477e-05
0.00351513
-3.58999e-09
5.51015e-05
0.00344481
8.20425e-05
0.00332182
0.000107673
0.00314381
0.000131497
0.00291285
0.00015308
0.00263259
0.000172036
0.00230774
0.00018803
0.00194381
0.000200785
0.00154705
0.000210079
0.00112436
0.000215775
0.00068265
0.000230495
0.000217921
2.72737e-05
0.00348786
-4.25331e-09
5.47517e-05
0.00341734
8.15211e-05
0.00329505
0.000106988
0.00311835
0.000130661
0.00288918
0.000152107
0.00261114
0.000170942
0.00228891
0.000186834
0.00192792
0.00019951
0.00153437
0.000208747
0.00111511
0.000214407
0.000676982
0.000228361
0.000216525
2.71007e-05
0.00346077
-4.80628e-09
5.44038e-05
0.00339003
8.10029e-05
0.00326845
0.000106308
0.00309304
0.00012983
0.00286566
0.000151139
0.00258984
0.000169855
0.00227019
0.000185647
0.00191213
0.000198242
0.00152178
0.000207423
0.00110594
0.000213048
0.000671368
0.000226286
0.00021514
2.69287e-05
0.00343384
-5.15819e-09
5.40581e-05
0.0033629
8.04878e-05
0.00324202
0.000105632
0.0030679
0.000129004
0.00284229
0.000150178
0.00256866
0.000168775
0.00225159
0.000184467
0.00189644
0.000196983
0.00150926
0.000206108
0.00109681
0.000211697
0.000665771
0.0002242
0.000213765
2.67576e-05
0.00340709
-5.21545e-09
5.37143e-05
0.00333595
7.99758e-05
0.00321576
0.00010496
0.00304292
0.000128183
0.00281907
0.000149223
0.00254762
0.000167702
0.00223312
0.000183295
0.00188085
0.000195732
0.00149683
0.000204801
0.00108775
0.000210355
0.000660226
0.00022217
0.0002124
2.65874e-05
0.00338051
-4.89433e-09
5.33725e-05
0.00330916
7.94669e-05
0.00318967
0.000104292
0.00301809
0.000127368
0.00279599
0.000148274
0.00252672
0.000166636
0.00221475
0.000182131
0.00186535
0.00019449
0.00148447
0.000203502
0.00107873
0.000209022
0.000654698
0.000220124
0.000211045
2.64181e-05
0.00335409
-4.14228e-09
5.30328e-05
0.00328255
7.89611e-05
0.00316374
0.000103628
0.00299342
0.000126558
0.00277306
0.000147331
0.00250595
0.000165577
0.00219651
0.000180974
0.00184996
0.000193255
0.00147219
0.000202212
0.00106978
0.000207697
0.000649223
0.000218135
0.000209699
2.62497e-05
0.00332785
-2.95055e-09
5.2695e-05
0.0032561
7.84584e-05
0.00313798
0.000102969
0.00296891
0.000125753
0.00275028
0.000146394
0.0024853
0.000164525
0.00217838
0.000179825
0.00183466
0.000192028
0.00145998
0.00020093
0.00106088
0.000206381
0.000643763
0.00021613
0.000208362
2.60823e-05
0.00330177
-1.35155e-09
5.23593e-05
0.00322983
7.79588e-05
0.00311238
0.000102313
0.00294456
0.000124953
0.00272764
0.000145464
0.00246479
0.000163479
0.00216037
0.000178683
0.00181946
0.00019081
0.00144786
0.000199656
0.00105204
0.000205072
0.000638356
0.000214181
0.000207035
2.59157e-05
0.00327585
5.80466e-10
5.20256e-05
0.00320372
7.74623e-05
0.00308694
0.000101662
0.00292036
0.000124158
0.00270514
0.000144539
0.00244441
0.000162441
0.00214246
0.000177548
0.00180435
0.000189599
0.00143581
0.00019839
0.00104324
0.000203773
0.000632965
0.000212213
0.000205717
2.57501e-05
0.0032501
2.75297e-09
5.16938e-05
0.00317777
7.69689e-05
0.00306167
0.000101015
0.00289632
0.000123368
0.00268279
0.00014362
0.00242416
0.000161409
0.00212468
0.000176421
0.00178934
0.000188396
0.00142384
0.000197132
0.00103451
0.000202481
0.000627626
0.000210302
0.000204408
2.55853e-05
0.00322451
5.06864e-09
5.13641e-05
0.00315199
7.64785e-05
0.00303655
0.000100372
0.00287242
0.000122583
0.00266058
0.000142707
0.00240404
0.000160383
0.002107
0.000175301
0.00177442
0.000187201
0.00141193
0.000195882
0.00102582
0.000201198
0.000622301
0.000208373
0.000203108
2.54215e-05
0.00319908
7.44571e-09
5.10364e-05
0.00312638
7.59912e-05
0.0030116
9.9733e-05
0.00284868
0.000121804
0.00263851
0.0001418
0.00238404
0.000159364
0.00208944
0.000174188
0.0017596
0.000186013
0.00140011
0.000194641
0.0010172
0.000199922
0.000617029
0.000206498
0.000201817
2.52585e-05
0.00317381
9.82724e-09
5.07107e-05
0.00310093
7.55069e-05
0.0029868
9.9098e-05
0.00282509
0.000121029
0.00261658
0.000140899
0.00236417
0.000158352
0.00207198
0.000173082
0.00174486
0.000184833
0.00138836
0.000193407
0.00100862
0.000198655
0.000611771
0.000204604
0.000200534
2.50965e-05
0.0031487
1.21856e-08
5.03869e-05
0.00307564
7.50256e-05
0.00296216
9.84671e-05
0.00280165
0.000120259
0.00259479
0.000140003
0.00234443
0.000157346
0.00205464
0.000171984
0.00173023
0.000183661
0.00137669
0.000192181
0.00100011
0.000197396
0.000606565
0.000202764
0.000199259
2.49354e-05
0.00312375
1.45145e-08
5.00651e-05
0.00305051
7.45473e-05
0.00293768
9.78401e-05
0.00277835
0.000119494
0.00257313
0.000139113
0.00232481
0.000156347
0.00203741
0.000170892
0.00171568
0.000182496
0.00136508
0.000190962
0.000991633
0.000196145
0.000601373
0.000200905
0.000197993
2.47752e-05
0.00309896
1.68242e-08
4.97452e-05
0.00302554
7.4072e-05
0.00291335
9.72171e-05
0.00275521
0.000118734
0.00255162
0.000138229
0.00230532
0.000155354
0.00202028
0.000169808
0.00170123
0.000181338
0.00135355
0.000189752
0.000983225
0.000194902
0.000596231
0.000199096
0.000196735
2.46159e-05
0.00307432
1.91254e-08
4.94274e-05
0.00300073
7.35996e-05
0.00288918
9.6598e-05
0.00273221
0.000117978
0.00253023
0.00013735
0.00228594
0.000154367
0.00200326
0.00016873
0.00168687
0.000180188
0.00134209
0.000188549
0.000974858
0.000193667
0.000591104
0.000197267
0.000195485
2.44575e-05
0.00304984
2.14252e-08
4.91114e-05
0.00297607
7.31302e-05
0.00286516
9.59828e-05
0.00270936
0.000117228
0.00250899
0.000136477
0.00226669
0.000153387
0.00198636
0.000167659
0.0016726
0.000179046
0.00133071
0.000187354
0.000966555
0.000192439
0.000586028
0.000195487
0.000194244
2.43001e-05
0.00302552
2.37173e-08
4.87974e-05
0.00295158
7.26638e-05
0.00284129
9.53715e-05
0.00268665
0.000116482
0.00248788
0.00013561
0.00224756
0.000152413
0.00196955
0.000166595
0.00165841
0.00017791
0.00131939
0.000186167
0.000958292
0.00019122
0.000580965
0.000193686
0.00019301
2.41436e-05
0.00300135
2.59848e-08
4.84854e-05
0.00292723
7.22002e-05
0.00281758
9.4764e-05
0.00266409
0.000115741
0.0024669
0.000134748
0.00222856
0.000151445
0.00195286
0.000165538
0.00164432
0.000176782
0.00130815
0.000184987
0.000950093
0.000190008
0.000575952
0.00019193
0.000191785
2.39881e-05
0.00297733
2.81983e-08
4.81753e-05
0.00290305
7.17395e-05
0.00279401
9.41604e-05
0.00264167
0.000115005
0.00244606
0.000133892
0.00220967
0.000150484
0.00193626
0.000164488
0.00163031
0.000175661
0.00129697
0.000183814
0.000941933
0.000188804
0.000570952
0.000190155
0.000190567
2.38335e-05
0.00295347
3.0325e-08
4.78671e-05
0.00287901
7.12818e-05
0.0027706
9.35606e-05
0.00261939
0.000114273
0.00242535
0.000133041
0.0021909
0.000149528
0.00191978
0.000163445
0.0016164
0.000174548
0.00128587
0.000182649
0.000933837
0.000187607
0.000566002
0.000188423
0.000189357
2.36798e-05
0.00292975
3.23292e-08
4.75608e-05
0.00285513
7.08269e-05
0.00274733
9.29646e-05
0.00259725
0.000113546
0.00240476
0.000132196
0.00217225
0.000148579
0.00190339
0.000162408
0.00160257
0.000173441
0.00127483
0.000181492
0.000925779
0.000186418
0.000561065
0.000186668
0.000188156
2.35271e-05
0.00290619
3.41831e-08
4.72565e-05
0.0028314
7.0375e-05
0.00272421
9.23724e-05
0.00257525
0.000112824
0.00238431
0.000131356
0.00215372
0.000147636
0.00188711
0.000161378
0.00158883
0.000172342
0.00126387
0.000180342
0.000917784
0.000185237
0.000556177
0.000184957
0.000186962
2.33754e-05
0.00288278
3.58648e-08
4.6954e-05
0.00280782
6.99258e-05
0.00270124
9.1784e-05
0.0025534
0.000112106
0.00236399
0.000130521
0.0021353
0.000146698
0.00187093
0.000160354
0.00157517
0.000171249
0.00125297
0.000179199
0.000909827
0.000184063
0.000551301
0.000183226
0.000185775
2.32246e-05
0.00285952
3.73661e-08
4.66535e-05
0.0027844
6.94796e-05
0.00267841
9.11993e-05
0.00253168
0.000111393
0.0023438
0.000129692
0.00211701
0.000145767
0.00185486
0.000159337
0.0015616
0.000170163
0.00124215
0.000178063
0.000901932
0.000182897
0.000546475
0.000181537
0.000184597
2.30748e-05
0.0028364
3.86865e-08
4.63549e-05
0.00276112
6.90362e-05
0.00265573
9.06184e-05
0.00251009
0.000110685
0.00232373
0.000128868
0.00209882
0.000144842
0.00183888
0.000158326
0.00154811
0.000169085
0.00123139
0.000176935
0.000894074
0.000181738
0.00054166
0.000179827
0.000183426
2.29259e-05
0.00281344
3.98372e-08
4.60582e-05
0.00273798
6.85956e-05
0.00263319
9.00412e-05
0.00248865
0.000109981
0.00230379
0.000128049
0.00208075
0.000143923
0.00182301
0.000157322
0.00153472
0.000168013
0.0012207
0.000175814
0.000886278
0.000180586
0.000536894
0.000178159
0.000182262
2.27781e-05
0.00279062
4.08312e-08
4.57634e-05
0.002715
6.81579e-05
0.0026108
8.94677e-05
0.00246734
0.000109281
0.00228398
0.000127235
0.0020628
0.000143009
0.00180723
0.000156324
0.0015214
0.000166948
0.00121007
0.0001747
0.000878519
0.000179442
0.00053214
0.000176472
0.000181106
2.26312e-05
0.00276794
4.16856e-08
4.54706e-05
0.00269216
6.7723e-05
0.00258855
8.88979e-05
0.00244616
0.000108586
0.00226429
0.000126427
0.00204496
0.000142101
0.00179156
0.000155332
0.00150817
0.00016589
0.00119952
0.000173593
0.000870821
0.000178305
0.000527433
0.000174826
0.000179957
2.24853e-05
0.00274542
4.24122e-08
4.51796e-05
0.00266946
6.72909e-05
0.00256643
8.83318e-05
0.00242512
0.000107896
0.00224472
0.000125624
0.00202723
0.000141199
0.00177598
0.000154347
0.00149502
0.000164838
0.00118902
0.000172493
0.000863159
0.000177175
0.000522739
0.000173162
0.000178816
2.23404e-05
0.00272303
4.30216e-08
4.48906e-05
0.00264691
6.68616e-05
0.00254446
8.77693e-05
0.00240422
0.000107209
0.00222529
0.000124826
0.00200961
0.000140303
0.00176051
0.000153368
0.00148195
0.000163793
0.0011786
0.0001714
0.000855557
0.000176053
0.00051809
0.00017154
0.000177683
2.21965e-05
0.00270079
4.3517e-08
4.46034e-05
0.00262451
6.64351e-05
0.00252263
8.72104e-05
0.00238344
0.000106528
0.00220597
0.000124033
0.0019921
0.000139413
0.00174513
0.000152396
0.00146897
0.000162755
0.00116824
0.000170314
0.000847991
0.000174937
0.000513452
0.000169899
0.000176556
2.20536e-05
0.00267869
4.39023e-08
4.43181e-05
0.00260224
6.60113e-05
0.00250094
8.66552e-05
0.0023628
0.00010585
0.00218677
0.000123245
0.00197471
0.000138528
0.00172985
0.000151429
0.00145607
0.000161724
0.00115795
0.000169234
0.000840484
0.000173829
0.00050886
0.000168301
0.000175437
2.19117e-05
0.00265674
4.41797e-08
4.40347e-05
0.00258012
6.55903e-05
0.00247938
8.61035e-05
0.00234228
0.000105177
0.0021677
0.000122463
0.00195742
0.000137649
0.00171466
0.000150469
0.00144324
0.000160698
0.00114771
0.000168162
0.000833012
0.000172727
0.00050428
0.000166686
0.000174325
2.17707e-05
0.00263492
4.43599e-08
4.37531e-05
0.00255814
6.51721e-05
0.00245796
8.55554e-05
0.0023219
0.000104509
0.00214874
0.000121685
0.00194025
0.000136775
0.00169957
0.000149515
0.00143051
0.00015968
0.00113755
0.000167097
0.0008256
0.000171633
0.000499744
0.000165113
0.00017322
2.16308e-05
0.00261324
4.44592e-08
4.34735e-05
0.0025363
6.47565e-05
0.00243668
8.50108e-05
0.00230164
0.000103844
0.00212991
0.000120912
0.00192318
0.000135908
0.00168457
0.000148567
0.00141784
0.000158668
0.00112744
0.000166038
0.000818222
0.000170546
0.00049522
0.000163522
0.000172123
2.14918e-05
0.00259171
4.45079e-08
4.31956e-05
0.00251459
6.43437e-05
0.00241553
8.44697e-05
0.00228152
0.000103184
0.0021112
0.000120144
0.00190622
0.000135045
0.00166967
0.000147624
0.00140527
0.000157662
0.00111741
0.000164986
0.000810902
0.000169466
0.000490741
0.000161972
0.000171032
2.13538e-05
0.00257031
4.45431e-08
4.29196e-05
0.00249303
6.39335e-05
0.00239452
8.39322e-05
0.00226152
0.000102528
0.0020926
0.000119381
0.00188936
0.000134188
0.00165486
0.000146688
0.00139276
0.000156663
0.00110743
0.00016394
0.000803616
0.000168392
0.000486273
0.000160406
0.000169949
2.12167e-05
0.00254904
4.4612e-08
4.26454e-05
0.0024716
6.35261e-05
0.00237364
8.3398e-05
0.00224165
0.000101877
0.00207412
0.000118623
0.00187262
0.000133337
0.00164015
0.000145758
0.00138034
0.00015567
0.00109752
0.000162902
0.000796388
0.000167325
0.00048185
0.000158878
0.000168872
2.10806e-05
0.00252792
4.47605e-08
4.2373e-05
0.0024503
6.31212e-05
0.00235289
8.28673e-05
0.0022219
0.000101229
0.00205576
0.00011787
0.00185597
0.00013249
0.00162552
0.000144834
0.00136799
0.000154683
0.00108766
0.00016187
0.000789194
0.000166266
0.00047744
0.000157333
0.000167803
2.09454e-05
0.00250693
4.50328e-08
4.21025e-05
0.00242915
6.2719e-05
0.00233227
8.23401e-05
0.00220228
0.000100586
0.00203751
0.000117121
0.00183944
0.00013165
0.001611
0.000143915
0.00135573
0.000153703
0.00107788
0.000160844
0.000782056
0.000165213
0.000473074
0.000155824
0.00016674
2.08111e-05
0.00248607
4.54601e-08
4.18337e-05
0.00240813
6.23194e-05
0.00231178
8.18162e-05
0.00218278
9.99462e-05
0.00201938
0.000116377
0.00182301
0.000130814
0.00159656
0.000143003
0.00134354
0.000152729
0.00106815
0.000159825
0.000774951
0.000164166
0.00046872
0.000154296
0.000165684
2.06777e-05
0.00246534
4.6062e-08
4.15667e-05
0.00238724
6.19224e-05
0.00229143
8.12956e-05
0.00216341
9.9311e-05
0.00200137
0.000115638
0.00180668
0.000129984
0.00158221
0.000142096
0.00133143
0.000151761
0.00105849
0.000158813
0.000767902
0.000163127
0.000464408
0.000152803
0.000164634
2.05453e-05
0.00244475
4.68393e-08
4.13014e-05
0.00236648
6.15279e-05
0.0022712
8.07784e-05
0.00214416
9.86798e-05
0.00198346
0.000114904
0.00179045
0.00012916
0.00156795
0.000141195
0.00131939
0.000150799
0.00104888
0.000157807
0.000760886
0.000162094
0.00046011
0.000151293
0.000163592
2.04137e-05
0.00242429
4.77802e-08
4.10378e-05
0.00234586
6.1136e-05
0.0022511
8.02645e-05
0.00212503
9.80527e-05
0.00196568
0.000114174
0.00177433
0.00012834
0.00155379
0.0001403
0.00130743
0.000149844
0.00103933
0.000156807
0.000753925
0.000161067
0.000455853
0.000149816
0.000162556
2.0283e-05
0.00240395
4.88587e-08
4.0776e-05
0.00232536
6.07466e-05
0.00223113
7.97539e-05
0.00210603
9.74295e-05
0.001948
0.000113449
0.00175831
0.000127526
0.00153971
0.00013941
0.00129554
0.000148894
0.00102984
0.000155814
0.000746997
0.000160047
0.000451608
0.000148321
0.000161527
2.01532e-05
0.00238375
5.00445e-08
4.05159e-05
0.002305
6.03597e-05
0.00221129
7.92466e-05
0.00208714
9.68103e-05
0.00193044
0.000112729
0.00174239
0.000126717
0.00152572
0.000138526
0.00128373
0.000147951
0.00102042
0.000154828
0.000740122
0.000159034
0.000447404
0.00014686
0.000160504
2.00242e-05
0.00236367
5.13037e-08
4.02575e-05
0.00228477
5.99753e-05
0.00219157
7.87424e-05
0.00206837
9.6195e-05
0.00191298
0.000112013
0.00172657
0.000125913
0.00151182
0.000137648
0.00127199
0.000147013
0.00101105
0.000153847
0.00073328
0.000158028
0.000443213
0.000145382
0.000159488
1.98961e-05
0.00234372
5.26074e-08
4.00007e-05
0.00226467
5.95933e-05
0.00217198
7.82415e-05
0.00204973
9.55837e-05
0.00189564
0.000111302
0.00171086
0.000125114
0.00149801
0.000136775
0.00126033
0.000146082
0.00100174
0.000152873
0.000726491
0.000157027
0.00043906
0.000143938
0.000158479
1.97688e-05
0.0023239
5.3931e-08
3.97456e-05
0.00224469
5.92138e-05
0.00215251
7.77438e-05
0.0020312
9.49762e-05
0.00187841
0.000110595
0.00169523
0.00012432
0.00148428
0.000135908
0.00124874
0.000145157
0.00099249
0.000151905
0.000719733
0.000156034
0.000434918
0.000142478
0.000157477
1.96423e-05
0.0023042
5.52591e-08
3.94922e-05
0.00222484
5.88368e-05
0.00213317
7.72493e-05
0.00201278
9.43727e-05
0.00186129
0.000109893
0.00167972
0.000123531
0.00147065
0.000135047
0.00123723
0.000144237
0.000983301
0.000150944
0.000713028
0.000155047
0.000430815
0.000141053
0.000156481
1.95167e-05
0.00228462
5.65814e-08
3.92404e-05
0.00220512
5.84621e-05
0.00211394
7.67579e-05
0.00199449
9.37729e-05
0.00184427
0.000109195
0.00166429
0.000122748
0.00145709
0.000134191
0.00122578
0.000143324
0.000974162
0.000149988
0.000706355
0.000154066
0.000426725
0.000139613
0.000155492
1.93918e-05
0.00226517
5.78942e-08
3.89901e-05
0.00218552
5.80898e-05
0.00209484
7.62696e-05
0.00197631
9.3177e-05
0.00182736
0.000108502
0.00164897
0.000121969
0.00144362
0.00013334
0.00121441
0.000142416
0.000965087
0.000149039
0.000699733
0.000153091
0.000422671
0.000138209
0.000154509
1.92677e-05
0.00224584
5.91939e-08
3.87415e-05
0.00216604
5.77199e-05
0.00207586
7.57845e-05
0.00195824
9.25849e-05
0.00181056
0.000107813
0.00163374
0.000121195
0.00143024
0.000132495
0.00120311
0.000141514
0.000956062
0.000148096
0.000693143
0.000152123
0.000418629
0.000136788
0.000153532
1.91444e-05
0.00222664
6.04791e-08
3.84945e-05
0.0021467
5.73523e-05
0.00205701
7.53024e-05
0.0019403
9.19965e-05
0.00179387
0.000107129
0.00161861
0.000120427
0.00141694
0.000131655
0.00119188
0.000140618
0.000947101
0.000147159
0.000686603
0.000151161
0.000414625
0.000135403
0.000152562
1.90219e-05
0.00220755
6.17441e-08
3.8249e-05
0.00212747
5.69871e-05
0.00203827
7.48234e-05
0.00192246
9.14119e-05
0.00177728
0.000106449
0.00160357
0.000119663
0.00140372
0.000130821
0.00118071
0.000139728
0.000938188
0.000146227
0.000680095
0.000150206
0.000410632
0.000134002
0.000151599
1.89001e-05
0.00218859
6.29826e-08
3.80051e-05
0.00210836
5.66242e-05
0.00201965
7.43474e-05
0.00190474
9.0831e-05
0.0017608
0.000105773
0.00158863
0.000118904
0.00139059
0.000129992
0.00116963
0.000138843
0.000929338
0.000145302
0.000673637
0.000149256
0.000406677
0.000132636
0.000150642
1.87791e-05
0.00216974
6.41834e-08
3.77627e-05
0.00208938
5.62636e-05
0.00200115
7.38744e-05
0.00188713
9.02538e-05
0.00174442
0.000105102
0.00157378
0.00011815
0.00137754
0.000129169
0.0011586
0.000137964
0.000920536
0.000144383
0.000667209
0.000148313
0.000402734
0.000131251
0.000149691
1.86588e-05
0.00215102
6.53362e-08
3.75218e-05
0.00207052
5.59052e-05
0.00198277
7.34045e-05
0.00186963
8.96803e-05
0.00172814
0.000104434
0.00155902
0.000117401
0.00136458
0.000128351
0.00114765
0.000137091
0.000911796
0.00014347
0.000660831
0.000147376
0.000398829
0.0001299
0.000148746
1.85393e-05
0.00213241
6.64285e-08
3.72825e-05
0.00205178
5.55492e-05
0.0019645
7.29376e-05
0.00185224
8.91105e-05
0.00171197
0.000103772
0.00154436
0.000116656
0.00135169
0.000127538
0.00113677
0.000136224
0.000903104
0.000142563
0.000654483
0.000146445
0.000394935
0.00012853
0.000147807
1.84204e-05
0.00211392
6.74518e-08
3.70446e-05
0.00203315
5.51954e-05
0.00194635
7.24736e-05
0.00183496
8.85443e-05
0.0016959
0.000103113
0.00152979
0.000115917
0.00133889
0.00012673
0.00112596
0.000135362
0.000894472
0.000141662
0.000648184
0.00014552
0.000391078
0.000127194
0.000146875
1.83023e-05
0.00209555
6.83979e-08
3.68083e-05
0.00201465
5.48438e-05
0.00192831
7.20125e-05
0.00181779
8.79817e-05
0.00167993
0.000102459
0.00151531
0.000115182
0.00132616
0.000125927
0.00111521
0.000134505
0.000885888
0.000140766
0.000641915
0.000144601
0.000387233
0.000125836
0.000145948
1.8185e-05
0.00207729
6.92646e-08
3.65734e-05
0.00199626
5.44944e-05
0.00191039
7.15544e-05
0.00180073
8.74227e-05
0.00166406
0.000101808
0.00150093
0.000114452
0.00131352
0.00012513
0.00110453
0.000133655
0.000877364
0.000139877
0.000635693
0.000143688
0.000383424
0.000124514
0.000145028
1.80683e-05
0.00205915
7.00505e-08
3.63399e-05
0.00197799
5.41473e-05
0.00189259
7.10992e-05
0.00178378
8.68673e-05
0.00164829
0.000101162
0.00148663
0.000113727
0.00130095
0.000124338
0.00109391
0.000132809
0.000868887
0.000138993
0.000629502
0.000142781
0.000379626
0.00012317
0.000144113
1.79524e-05
0.00204112
7.07592e-08
3.6108e-05
0.00195984
5.38023e-05
0.00187489
7.0647e-05
0.00176694
8.63155e-05
0.00163263
0.000100521
0.00147243
0.000113006
0.00128847
0.000123551
0.00108337
0.00013197
0.000860469
0.000138115
0.000623357
0.00014188
0.000375864
0.000121862
0.000143205
1.78371e-05
0.00202321
7.1393e-08
3.58774e-05
0.0019418
5.34596e-05
0.00185731
7.01976e-05
0.0017502
8.57671e-05
0.00161706
9.98829e-05
0.00145831
0.00011229
0.00127606
0.000122769
0.00107289
0.000131135
0.000852096
0.000137243
0.000617242
0.000140985
0.000372113
0.00012053
0.000142302
1.77226e-05
0.00200542
7.19574e-08
3.56483e-05
0.00192387
5.3119e-05
0.00183984
6.9751e-05
0.00173357
8.52224e-05
0.00160159
9.92493e-05
0.00144429
0.000111579
0.00126373
0.000121992
0.00106247
0.000130307
0.000843783
0.000136376
0.000611174
0.000140096
0.000368398
0.000119237
0.000141406
1.76087e-05
0.00198774
7.24547e-08
3.54207e-05
0.00190606
5.27805e-05
0.00182248
6.93074e-05
0.00171705
8.46811e-05
0.00158621
9.86198e-05
0.00143035
0.000110872
0.00125147
0.000121221
0.00105212
0.000129483
0.000835515
0.000135515
0.000605134
0.000139212
0.000364692
0.000117919
0.000140515
1.74956e-05
0.00197016
7.28892e-08
3.51945e-05
0.00188836
5.24442e-05
0.00180524
6.88665e-05
0.00170063
8.41433e-05
0.00157094
9.79944e-05
0.0014165
0.00011017
0.0012393
0.000120454
0.00104184
0.000128665
0.000827304
0.00013466
0.000599141
0.000138335
0.000361022
0.00011664
0.00013963
1.73831e-05
0.00195271
7.32626e-08
3.49696e-05
0.00187078
5.211e-05
0.0017881
6.84285e-05
0.00168431
8.36089e-05
0.00155576
9.7373e-05
0.00140273
0.000109472
0.0012272
0.000119692
0.00103161
0.000127852
0.000819138
0.000133811
0.000593175
0.000137463
0.000357361
0.000115335
0.000138751
1.72714e-05
0.00193536
7.35805e-08
3.47462e-05
0.0018533
5.1778e-05
0.00177107
6.79933e-05
0.00166809
8.3078e-05
0.00154068
9.67557e-05
0.00138906
0.000108779
0.00121517
0.000118935
0.00102146
0.000127045
0.00081103
0.000132966
0.000587256
0.000136597
0.000353737
0.000114071
0.000137877
1.71603e-05
0.00191812
7.38479e-08
3.45242e-05
0.00183594
5.14481e-05
0.00175414
6.75609e-05
0.00165198
8.25506e-05
0.00152569
9.61423e-05
0.00137546
0.00010809
0.00120322
0.000118183
0.00101136
0.000126243
0.000802965
0.000132128
0.000581364
0.000135736
0.000350119
0.00011278
0.00013701
1.70499e-05
0.001901
7.40764e-08
3.43036e-05
0.00181869
5.11203e-05
0.00173733
6.71313e-05
0.00163597
8.20265e-05
0.00151079
9.55329e-05
0.00136196
0.000107406
0.00119135
0.000117436
0.00100133
0.000125446
0.000794957
0.000131295
0.000575517
0.000134881
0.00034654
0.00011153
0.000136148
1.69402e-05
0.00188398
7.42792e-08
3.40844e-05
0.00180155
5.07945e-05
0.00172062
6.67044e-05
0.00162006
8.15058e-05
0.00149599
9.49276e-05
0.00134853
0.000106727
0.00117955
0.000116694
0.000991358
0.000124654
0.000786992
0.000130467
0.000569697
0.000134032
0.000342966
0.000110252
0.000135291
1.68312e-05
0.00186707
7.44765e-08
3.38666e-05
0.00178451
5.04709e-05
0.00170402
6.62803e-05
0.00160426
8.09886e-05
0.00148129
9.43261e-05
0.0013352
0.000106052
0.00116782
0.000115957
0.000981453
0.000123868
0.000779083
0.000129645
0.000563923
0.000133188
0.00033943
0.000109018
0.00013444
1.67229e-05
0.00185028
7.46895e-08
3.36502e-05
0.00176759
5.01493e-05
0.00168752
6.5859e-05
0.00158855
8.04746e-05
0.00146667
9.37286e-05
0.00132194
0.000105381
0.00115617
0.000115225
0.000971605
0.000123086
0.000771217
0.000128828
0.000558174
0.00013235
0.000335898
0.000107754
0.000133595
1.66153e-05
0.00183358
7.49439e-08
3.34351e-05
0.00175077
4.98298e-05
0.00167113
6.54403e-05
0.00157294
7.9964e-05
0.00145215
9.31349e-05
0.00130877
0.000104714
0.00114459
0.000114497
0.000961823
0.00012231
0.000763405
0.000128017
0.000552471
0.000131518
0.000332406
0.000106534
0.000132756
1.65084e-05
0.001817
7.52624e-08
3.32214e-05
0.00173406
4.95124e-05
0.00165484
6.50244e-05
0.00155743
7.94568e-05
0.00143772
9.25452e-05
0.00129568
0.000104052
0.00113308
0.000113775
0.000952098
0.000121539
0.000755636
0.000127211
0.000546792
0.000130691
0.000328917
0.000105283
0.000131922
1.64021e-05
0.00180052
7.56676e-08
3.30091e-05
0.00171745
4.9197e-05
0.00163865
6.46112e-05
0.00154202
7.89528e-05
0.00142338
9.19593e-05
0.00128268
0.000103395
0.00112165
0.000113057
0.000942437
0.000120773
0.000747921
0.00012641
0.000541159
0.000129869
0.000325466
0.000104077
0.000131093
1.62965e-05
0.00178414
7.61746e-08
3.27982e-05
0.00170095
4.88837e-05
0.00162257
6.42007e-05
0.0015267
7.84521e-05
0.00140913
9.13773e-05
0.00126975
0.000102741
0.00111028
0.000112343
0.000932832
0.000120012
0.000740248
0.000125615
0.00053555
0.000129053
0.000322019
0.00010284
0.00013027
1.61917e-05
0.00176787
7.67949e-08
3.25886e-05
0.00168456
4.85724e-05
0.00160659
6.37928e-05
0.00151149
7.79547e-05
0.00139497
9.0799e-05
0.00125691
0.000102092
0.00109899
0.000111635
0.000923291
0.000119256
0.000732628
0.000124825
0.000529986
0.000128242
0.000318611
0.000101649
0.000129453
1.60875e-05
0.00175171
7.75301e-08
3.23804e-05
0.00166827
4.82631e-05
0.00159071
6.33877e-05
0.00149636
7.74606e-05
0.00138089
9.02246e-05
0.00124415
0.000101448
0.00108776
0.000110931
0.000913805
0.000118506
0.000725049
0.00012404
0.000524445
0.000127437
0.000315204
0.000100424
0.00012864
1.59839e-05
0.00173564
7.83778e-08
3.21736e-05
0.00165208
4.79558e-05
0.00157493
6.29851e-05
0.00148134
7.69697e-05
0.00136691
8.9654e-05
0.00123146
0.000100807
0.00107661
0.000110232
0.000904381
0.00011776
0.000717523
0.00012326
0.000518949
0.000126637
0.000311837
9.92472e-05
0.000127834
1.58811e-05
0.00171968
7.93273e-08
3.19681e-05
0.001636
4.76505e-05
0.00155925
6.25852e-05
0.0014664
7.6482e-05
0.00135301
8.90871e-05
0.00121886
0.000100171
0.00106553
0.000109537
0.000895012
0.000117019
0.000710037
0.000122486
0.000513476
0.000125842
0.000308471
9.80362e-05
0.000127032
1.57789e-05
0.00170382
8.03664e-08
3.17639e-05
0.00162001
4.73472e-05
0.00154366
6.21879e-05
0.00145156
7.59975e-05
0.00133921
8.8524e-05
0.00120633
9.95387e-05
0.00105451
0.000108847
0.000885706
0.000116283
0.000702604
0.000121717
0.000508047
0.000125052
0.000305145
9.68729e-05
0.000126236
1.56774e-05
0.00168806
8.14779e-08
3.15611e-05
0.00160413
4.70459e-05
0.00152818
6.17933e-05
0.00143682
7.55162e-05
0.00132548
8.79645e-05
0.00119389
9.89108e-05
0.00104356
0.000108162
0.000876453
0.000115551
0.00069521
0.000120952
0.00050264
0.000124268
0.000301819
9.56748e-05
0.000125445
1.55766e-05
0.0016724
8.26469e-08
3.13596e-05
0.00158835
4.67466e-05
0.0015128
6.14012e-05
0.00142217
7.50381e-05
0.00131185
8.74088e-05