/*--------------------------------*- C++ -*----------------------------------*\
  =========                 |
  \\      /  F ield         | OpenFOAM: The Open Source CFD Toolbox
   \\    /   O peration     | Website:  https://openfoam.org
    \\  /    A nd           | Version:  6.0
     \\/     M anipulation  |
\*---------------------------------------------------------------------------*/
FoamFile
{
    version     2.0;
    format      ascii;
    class       volVectorField;
    location    "1.9";
    object      U;
}
// * * * * * * * * * * * * * * * * * * * * * * * * * * * * * * * * * * * * * //

dimensions      [0 1 -1 0 0 0 0];

internalField   nonuniform List<vector> 
24000
(
(0.999994 -2.24832e-06 -7.96202e-17)
(0.999948 -2.40052e-05 1.08401e-16)
(0.99987 -6.78242e-05 -1.90584e-16)
(0.999784 -0.000139487 2.10291e-16)
(0.999716 -0.000231357 -1.03741e-15)
(0.999688 -0.000322802 -6.14942e-16)
(0.999702 -0.000395679 6.29571e-16)
(0.999756 -0.000428748 -1.39489e-15)
(0.999842 -0.000396748 4.37844e-16)
(0.999939 -0.000288654 -3.21895e-16)
(1.00002 5.24102e-05 -3.11294e-16)
(1.00132 0.00143065 -4.60613e-16)
(0.999988 -1.00776e-05 1.1672e-16)
(0.999907 -5.58594e-05 -1.60406e-16)
(0.99977 -0.00014091 3.56125e-16)
(0.999619 -0.000276945 -8.89191e-17)
(0.999506 -0.000445298 4.61718e-16)
(0.999467 -0.000605037 6.21896e-16)
(0.999502 -0.00072641 -3.50239e-16)
(0.999612 -0.000772447 1.48175e-15)
(0.999774 -0.000698324 -3.10898e-16)
(0.999962 -0.000492075 1.59586e-17)
(1.00006 0.000103166 8.13045e-17)
(1.00233 0.00216108 1.53369e-16)
(0.999988 -1.80554e-05 -8.89023e-17)
(0.999917 -7.63061e-05 2.16135e-16)
(0.999798 -0.000169115 -1.2343e-16)
(0.999667 -0.00030817 4.51325e-16)
(0.999575 -0.000470924 2.51461e-16)
(0.999555 -0.000614336 2.3129e-16)
(0.999604 -0.00071273 5.18004e-16)
(0.99972 -0.000736144 -6.58681e-16)
(0.999882 -0.000641975 -3.67568e-16)
(1.00007 -0.0004362 -1.29735e-16)
(1.00009 0.000123586 -2.90101e-17)
(1.00242 0.00178653 4.85154e-16)
(0.999986 -2.61075e-05 -3.79609e-17)
(0.999929 -9.64996e-05 -2.04496e-16)
(0.999833 -0.000196044 -3.15751e-16)
(0.999726 -0.000335161 -2.23748e-16)
(0.999653 -0.000490813 -1.31043e-16)
(0.999643 -0.000622352 -9.05311e-16)
(0.999696 -0.000708599 -1.43418e-15)
(0.999808 -0.000727225 1.63858e-16)
(0.999961 -0.000637885 4.69144e-17)
(1.00016 -0.000454483 6.44826e-16)
(1.00012 3.13085e-05 -4.11394e-16)
(1.00223 0.00136802 -5.67618e-16)
(0.999983 -3.40852e-05 6.76276e-17)
(0.999929 -0.000118741 3.30125e-17)
(0.999843 -0.000232029 1.60015e-16)
(0.999742 -0.000382387 -7.56341e-17)
(0.999675 -0.000546885 2.07816e-16)
(0.999665 -0.000686598 1.87046e-16)
(0.999719 -0.000781133 1.45089e-15)
(0.999835 -0.000810059 -9.47912e-17)
(0.999993 -0.000730635 -2.79634e-16)
(1.00021 -0.000549481 7.59827e-17)
(1.00017 -8.87436e-05 2.83907e-16)
(1.00205 0.00114863 -1.50306e-16)
(0.999978 -4.19301e-05 3.91354e-18)
(0.999926 -0.000141306 -1.89964e-17)
(0.999846 -0.000269619 -2.13577e-17)
(0.999753 -0.00043125 -3.86664e-18)
(0.999692 -0.000603233 -8.62454e-16)
(0.999688 -0.000748226 1.05536e-15)
(0.999748 -0.000845528 2.92865e-17)
(0.999873 -0.000874821 1.46124e-16)
(1.00004 -0.000791293 6.91126e-16)
(1.00029 -0.000590854 -3.40112e-16)
(1.00027 -0.000124147 5.15174e-16)
(1.00195 0.00109168 3.4438e-16)
(0.999973 -4.98149e-05 -3.54154e-18)
(0.999924 -0.000163654 2.04848e-16)
(0.999855 -0.000305466 -2.07731e-16)
(0.999776 -0.000473592 -1.01278e-16)
(0.999729 -0.000645319 4.43219e-16)
(0.999737 -0.000785546 -2.18021e-16)
(0.999808 -0.000873777 -6.03789e-16)
(0.999944 -0.000890612 -3.13229e-16)
(1.00012 -0.000791758 1.22064e-16)
(1.00039 -0.000567816 6.01484e-16)
(1.00039 -9.71638e-05 -1.21606e-15)
(1.00191 0.00107478 3.15771e-16)
(0.999968 -5.79097e-05 -5.2311e-17)
(0.999922 -0.000186347 7.9306e-17)
(0.999864 -0.000341467 2.39368e-16)
(0.9998 -0.000514814 4.53106e-16)
(0.999769 -0.000684679 2.41201e-16)
(0.99979 -0.000818791 -2.67631e-16)
(0.999874 -0.00089701 -2.90981e-16)
(1.00002 -0.000901106 -1.39465e-16)
(1.00021 -0.000788309 4.81713e-17)
(1.00049 -0.000549278 -1.30299e-16)
(1.00051 -8.73147e-05 1.04116e-15)
(1.00189 0.00100691 -5.4599e-16)
(0.999961 -6.62781e-05 2.05963e-17)
(0.999918 -0.000209689 -1.94752e-16)
(0.999868 -0.000379053 1.46082e-17)
(0.999816 -0.000559269 -7.23061e-17)
(0.999798 -0.000730397 7.29615e-17)
(0.99983 -0.000863256 -6.10923e-17)
(0.999924 -0.00093797 5.11866e-17)
(1.00008 -0.000936775 5.58481e-16)
(1.00027 -0.000817773 -6.92051e-17)
(1.00057 -0.000572739 -7.89169e-16)
(1.00063 -0.000125696 -8.78296e-16)
(1.00189 0.0008865 9.71355e-16)
(0.999954 -7.48956e-05 7.32006e-17)
(0.999912 -0.000233438 4.86776e-18)
(0.999867 -0.000417592 1.84449e-16)
(0.999826 -0.000606056 -4.83522e-16)
(0.999818 -0.000780969 -1.15388e-16)
(0.999859 -0.000916241 5.22173e-16)
(0.999962 -0.000992546 -4.4352e-16)
(1.00013 -0.000991892 -6.68833e-16)
(1.00033 -0.000872489 2.04821e-16)
(1.00064 -0.000625053 2.05324e-16)
(1.00073 -0.000190931 6.53091e-16)
(1.00191 0.000757585 -1.37379e-16)
(0.999946 -8.37195e-05 -1.00401e-16)
(0.999905 -0.00025724 -2.31147e-17)
(0.999866 -0.000455943 -2.19829e-16)
(0.999833 -0.000652871 3.6568e-17)
(0.999835 -0.000831986 1.67182e-16)
(0.999886 -0.000969934 -3.6036e-16)
(0.999998 -0.00104854 2.70712e-16)
(1.00017 -0.00104942 7.53617e-16)
(1.00039 -0.000930838 -5.61839e-16)
(1.00071 -0.000679969 2.24053e-16)
(1.00084 -0.000253751 -8.46013e-16)
(1.00194 0.000650551 -9.00132e-16)
(0.999937 -9.26786e-05 6.51806e-18)
(0.999897 -0.000280833 1.91998e-16)
(0.999863 -0.000493465 -1.92544e-16)
(0.99984 -0.000698705 1.48885e-16)
(0.999853 -0.000881727 -4.57498e-16)
(0.999915 -0.00102118 -2.03813e-16)
(1.00004 -0.00110045 6.63551e-17)
(1.00022 -0.00110096 -3.02661e-16)
(1.00045 -0.000981595 -3.93942e-16)
(1.00078 -0.000725051 3.62598e-16)
(1.00095 -0.000302991 2.85197e-16)
(1.00199 0.000566099 1.00293e-17)
(0.999928 -0.000101687 2.45252e-17)
(0.999889 -0.000304052 -1.91859e-17)
(0.999861 -0.000529973 5.30538e-16)
(0.999846 -0.00074365 1.53032e-16)
(0.99987 -0.000930866 2.6151e-16)
(0.999945 -0.00107135 -2.92285e-16)
(1.00008 -0.00114992 -1.47804e-16)
(1.00028 -0.00114816 1.20502e-16)
(1.00052 -0.00102619 4.65276e-16)
(1.00086 -0.000762838 -1.21821e-15)
(1.00106 -0.000343501 -4.85792e-16)
(1.00205 0.000491627 5.39694e-16)
(0.999918 -0.000110628 -7.57452e-17)
(0.99988 -0.000326741 -6.74108e-17)
(0.999859 -0.000565358 -4.19302e-16)
(0.99985 -0.000787819 -3.31294e-16)
(0.999886 -0.000980219 -2.32159e-16)
(0.999973 -0.00112251 3.64857e-16)
(1.00012 -0.00120042 2.50874e-16)
(1.00033 -0.00119582 -2.7635e-16)
(1.00058 -0.00107049 -3.70789e-16)
(1.00094 -0.000800527 -1.32785e-16)
(1.00116 -0.000383485 6.89905e-16)
(1.00211 0.000418142 -4.79564e-16)
(0.999908 -0.000119386 4.07717e-17)
(0.999872 -0.000348783 3.2227e-17)
(0.999857 -0.000599506 4.95288e-17)
(0.999855 -0.00083098 7.90159e-17)
(0.9999 -0.00102968 8.21446e-17)
(1 -0.00117519 -1.4819e-16)
(1.00016 -0.00125344 7.76653e-18)
(1.00039 -0.00124654 -3.82772e-16)
(1.00065 -0.00111799 3.62355e-16)
(1.00102 -0.000841981 1.3809e-15)
(1.00127 -0.000426367 -2.05136e-16)
(1.00218 0.000344805 6.67861e-16)
(0.999896 -0.000127837 -3.93682e-17)
(0.999863 -0.000370098 1.48693e-18)
(0.999855 -0.00063234 1.47816e-16)
(0.99986 -0.000872728 2.09008e-16)
(0.999915 -0.00107841 2.31174e-16)
(1.00003 -0.0012283 -1.50184e-16)
(1.0002 -0.001308 -2.41823e-16)
(1.00044 -0.00129953 5.91294e-16)
(1.00072 -0.00116805 1.43165e-16)
(1.0011 -0.000886182 -1.48834e-15)
(1.00137 -0.000470442 2.35152e-16)
(1.00225 0.000275126 2.21389e-17)
(0.999885 -0.00013587 9.00759e-17)
(0.999854 -0.000390684 3.3091e-17)
(0.999853 -0.000663949 -3.195e-16)
(0.999866 -0.000912881 1.37876e-16)
(0.999931 -0.00112565 -5.61143e-17)
(1.00005 -0.00128042 3.67245e-16)
(1.00024 -0.00136212 6.25198e-16)
(1.00049 -0.00135248 1.05258e-16)
(1.00079 -0.00121812 5.10313e-16)
(1.00118 -0.000930276 1.23734e-15)
(1.00147 -0.000512976 1.43056e-15)
(1.00232 0.000210833 -5.3285e-16)
(0.999872 -0.000143375 3.46214e-17)
(0.999845 -0.000410577 -2.74447e-17)
(0.999852 -0.000694561 3.03892e-16)
(0.999873 -0.000951631 -2.77179e-16)
(0.999948 -0.00117125 3.92315e-16)
(1.00008 -0.00133082 4.03256e-18)
(1.00028 -0.0014146 -4.06447e-16)
(1.00055 -0.00140385 1.28142e-16)
(1.00085 -0.00126651 -4.41857e-16)
(1.00126 -0.000972769 -2.1622e-16)
(1.00158 -0.000553281 -5.73805e-16)
(1.0024 0.000150608 -1.05776e-16)
(0.999858 -0.000150265 -4.15197e-17)
(0.999835 -0.000429852 -2.31099e-16)
(0.999849 -0.00072451 -1.26482e-16)
(0.99988 -0.000989526 1.55228e-16)
(0.999967 -0.00121578 -2.81897e-17)
(1.00011 -0.00137993 -2.61933e-16)
(1.00033 -0.00146572 -5.46231e-17)
(1.00061 -0.00145388 -3.37499e-17)
(1.00093 -0.00131366 -5.30391e-16)
(1.00134 -0.00101453 -3.88995e-16)
(1.00168 -0.000592947 -1.72031e-15)
(1.00248 9.15524e-05 1.01792e-15)
(0.999844 -0.000156451 -3.95608e-17)
(0.999824 -0.000448565 2.40592e-16)
(0.999846 -0.000754101 -1.71728e-16)
(0.999887 -0.0010272 7.66431e-17)
(0.999986 -0.00126012 -1.88145e-16)
(1.00015 -0.0014288 -4.262e-16)
(1.00037 -0.00151667 5.40664e-17)
(1.00067 -0.00150399 -6.90281e-17)
(1.001 -0.00136121 2.87123e-16)
(1.00143 -0.0010574 4.4616e-16)
(1.00178 -0.00063387 1.53952e-15)
(1.00257 3.24352e-05 -9.84402e-16)
(0.999828 -0.000161876 2.84553e-17)
(0.999811 -0.000466768 -1.12007e-17)
(0.999841 -0.00078356 2.72328e-17)
(0.999893 -0.00106517 -6.35656e-17)
(1 -0.00130509 -2.36413e-16)
(1.00018 -0.00147849 -9.45715e-18)
(1.00042 -0.00156869 -1.25394e-16)
(1.00072 -0.00155556 -6.69795e-16)
(1.00107 -0.00141059 4.03537e-16)
(1.00151 -0.00110263 2.18496e-16)
(1.00188 -0.00067676 6.51314e-17)
(1.00265 -2.64937e-05 2.21312e-16)
(0.999811 -0.000166487 3.25483e-17)
(0.999797 -0.000484469 -2.63956e-16)
(0.999834 -0.000812969 5.16807e-16)
(0.999896 -0.00110368 4.91786e-17)
(1.00002 -0.00135108 1.43405e-16)
(1.00021 -0.00152955 8.69331e-16)
(1.00046 -0.00162237 7.14941e-16)
(1.00078 -0.00160908 3.61829e-16)
(1.00114 -0.00146209 -9.58694e-16)
(1.00159 -0.00115003 -2.79535e-16)
(1.00198 -0.000720841 9.24013e-17)
(1.00274 -8.36625e-05 -3.30415e-17)
(0.999793 -0.000170266 -6.09967e-17)
(0.999782 -0.000501677 1.05149e-16)
(0.999825 -0.000842328 -6.96831e-17)
(0.999898 -0.00114274 -8.84925e-17)
(1.00003 -0.00139813 -2.55126e-16)
(1.00023 -0.00158198 -5.04783e-16)
(1.0005 -0.00167762 -2.74366e-16)
(1.00084 -0.00166427 -2.17591e-17)
(1.00121 -0.00151511 2.77847e-16)
(1.00168 -0.00119865 -2.64912e-16)
(1.00208 -0.000764918 -1.56192e-15)
(1.00283 -0.000138381 7.8914e-16)
(0.999773 -0.0001732 4.45359e-17)
(0.999766 -0.000518381 6.34435e-18)
(0.999815 -0.000871569 -1.89633e-16)
(0.999899 -0.00118221 -1.45033e-16)
(1.00005 -0.001446 -8.04832e-17)
(1.00026 -0.00163549 -1.18962e-16)
(1.00054 -0.001734 -2.1701e-16)
(1.00089 -0.00172048 -2.31511e-16)
(1.00128 -0.00156883 -6.74803e-17)
(1.00176 -0.00124752 -2.45786e-16)
(1.00218 -0.000808226 9.27297e-17)
(1.00292 -0.000190388 -1.57037e-16)
(0.999752 -0.000175307 1.52659e-17)
(0.999748 -0.000534595 1.49411e-16)
(0.999805 -0.000900647 4.08965e-17)
(0.999898 -0.00122193 -1.57058e-17)
(1.00006 -0.00149442 9.88333e-17)
(1.00029 -0.00168976 2.77747e-16)
(1.00058 -0.00179116 1.06913e-16)
(1.00095 -0.00177731 2.67401e-16)
(1.00136 -0.00162281 3.13451e-16)
(1.00185 -0.00129637 -3.05829e-16)
(1.00228 -0.000850945 1.00313e-15)
(1.00301 -0.000240246 -6.19575e-16)
(0.99973 -0.000176605 -2.0701e-17)
(0.999729 -0.000550325 -1.95474e-17)
(0.999793 -0.00092953 -1.4776e-16)
(0.999896 -0.00126177 -9.72503e-17)
(1.00007 -0.00154318 -3.48616e-17)
(1.00031 -0.00174454 -1.7889e-16)
(1.00063 -0.00184889 1.04116e-17)
(1.00101 -0.00183464 -3.11266e-16)
(1.00143 -0.00167709 -2.70397e-17)
(1.00193 -0.00134547 1.05101e-15)
(1.00238 -0.000893708 4.95408e-16)
(1.0031 -0.000288992 5.28611e-17)
(0.999706 -0.000177133 -9.84901e-18)
(0.999709 -0.000565609 -1.14687e-16)
(0.99978 -0.000958247 -5.05388e-17)
(0.999894 -0.00130169 -7.55081e-17)
(1.00008 -0.0015922 5.5745e-16)
(1.00034 -0.00179977 -1.29153e-16)
(1.00067 -0.00190721 1.53748e-16)
(1.00107 -0.00189264 -1.59742e-16)
(1.0015 -0.00173204 -2.55202e-16)
(1.00202 -0.0013954 -2.65022e-16)
(1.00248 -0.000937322 -1.96127e-17)
(1.0032 -0.0003377 -2.00307e-16)
(0.999681 -0.000176922 3.41035e-17)
(0.999688 -0.000580473 -4.08634e-17)
(0.999766 -0.000986836 1.71647e-16)
(0.999891 -0.00134173 3.46529e-16)
(1.00009 -0.0016415 -5.2711e-16)
(1.00036 -0.00185549 4.98904e-16)
(1.00071 -0.00196624 -2.75893e-16)
(1.00112 -0.00195156 -1.44056e-16)
(1.00158 -0.00178805 -1.94057e-16)
(1.0021 -0.00144667 -3.54837e-16)
(1.00258 -0.000982302 -1.50506e-16)
(1.00329 -0.000386694 -1.20187e-16)
(0.999655 -0.000176021 -5.82509e-18)
(0.999666 -0.000594963 -1.56729e-17)
(0.999751 -0.00101538 -1.57845e-17)
(0.999887 -0.001382 -3.35448e-16)
(1.0001 -0.00169121 -1.44019e-16)
(1.00039 -0.00191185 -1.30461e-17)
(1.00075 -0.00202618 -3.89649e-16)
(1.00118 -0.00201165 7.18144e-16)
(1.00165 -0.00184547 -5.85822e-18)
(1.00219 -0.00149963 2.5067e-16)
(1.00268 -0.00102898 1.77489e-16)
(1.00338 -0.000435925 -5.40172e-18)
(0.999628 -0.000174465 -1.88996e-17)
(0.999643 -0.000609102 1.07911e-16)
(0.999734 -0.00104392 3.21367e-17)
(0.999881 -0.00142259 4.61058e-16)
(1.00011 -0.00174153 2.51609e-16)
(1.00041 -0.00196906 -4.22115e-16)
(1.00079 -0.00208723 1.9167e-16)
(1.00124 -0.00207313 -3.78362e-16)
(1.00172 -0.00190451 1.30997e-15)
(1.00228 -0.00155439 -1.01819e-16)
(1.00278 -0.00107733 2.23801e-17)
(1.00348 -0.000485405 -1.401e-16)
(0.999599 -0.000172309 -1.97212e-17)
(0.999618 -0.000622926 7.53894e-17)
(0.999717 -0.00107251 -9.05619e-17)
(0.999875 -0.00146365 -4.47482e-16)
(1.00011 -0.00179265 4.63355e-16)
(1.00043 -0.00202737 2.7105e-16)
(1.00083 -0.00214962 3.42825e-16)
(1.00129 -0.00213618 1.53404e-16)
(1.00179 -0.00196527 -1.08815e-16)
(1.00236 -0.00161092 5.463e-16)
(1.00287 -0.0011272 -9.90311e-16)
(1.00358 -0.000534904 1.11525e-15)
(0.999569 -0.000169597 2.74801e-17)
(0.999593 -0.000636444 -1.4429e-16)
(0.999697 -0.00110115 -8.42445e-17)
(0.999866 -0.0015052 -2.68415e-17)
(1.00012 -0.00184471 -1.77219e-16)
(1.00045 -0.00208694 -5.03193e-18)
(1.00087 -0.0022135 -2.81808e-16)
(1.00135 -0.00220086 -2.13293e-16)
(1.00187 -0.00202768 -1.20325e-15)
(1.00245 -0.001669 -3.97093e-16)
(1.00297 -0.0011782 -2.55154e-16)
(1.00367 -0.000584154 -2.9903e-17)
(0.999538 -0.000166391 1.05388e-17)
(0.999566 -0.000649681 -1.18635e-17)
(0.999677 -0.00112982 -4.26279e-17)
(0.999856 -0.00154724 3.25553e-16)
(1.00012 -0.00189775 -5.52733e-16)
(1.00047 -0.00214785 -4.10184e-16)
(1.0009 -0.00227889 3.5242e-16)
(1.0014 -0.00226712 -2.33244e-17)
(1.00194 -0.00209157 7.29075e-17)
(1.00253 -0.0017283 4.20844e-16)
(1.00307 -0.00122994 -1.68108e-16)
(1.00377 -0.000632942 3.0232e-16)
(0.999506 -0.000162749 -1.51813e-17)
(0.999538 -0.000662643 1.70141e-16)
(0.999655 -0.00115845 2.88604e-16)
(0.999845 -0.00158968 -9.61535e-17)
(1.00013 -0.00195165 4.35501e-17)
(1.00049 -0.00220997 1.82245e-16)
(1.00094 -0.00234566 -4.20751e-16)
(1.00146 -0.00233472 4.4302e-16)
(1.00201 -0.00215661 3.44443e-16)
(1.00262 -0.00178839 -2.83756e-16)
(1.00317 -0.00128193 3.23018e-18)
(1.00387 -0.000681046 -1.89499e-17)
(0.999472 -0.000158748 -4.29671e-18)
(0.999509 -0.000675365 -2.47173e-16)
(0.999633 -0.00118702 -4.85123e-17)
(0.999833 -0.00163239 5.79492e-17)
(1.00013 -0.00200625 6.52096e-16)
(1.00051 -0.00227309 5.20641e-17)
(1.00097 -0.00241355 3.9067e-16)
(1.00151 -0.00240336 -7.236e-16)
(1.00208 -0.00222242 3.63382e-16)
(1.0027 -0.00184887 -4.3644e-16)
(1.00326 -0.00133387 9.35762e-16)
(1.00396 -0.000728235 -4.63702e-16)
(0.999438 -0.000154458 2.14776e-17)
(0.99948 -0.000687876 1.09585e-16)
(0.999609 -0.00121549 -1.16379e-16)
(0.99982 -0.00167524 4.7908e-17)
(1.00013 -0.00206129 -3.92272e-16)
(1.00053 -0.00233693 -1.38112e-16)
(1.00101 -0.00248221 2.26743e-17)
(1.00156 -0.00247267 5.18515e-16)
(1.00215 -0.00228864 3.12947e-16)
(1.00279 -0.00190942 -2.16003e-17)
(1.00336 -0.00138554 1.23293e-15)
(1.00406 -0.000774754 -6.06614e-16)
(0.999403 -0.000149971 1.44399e-18)
(0.999449 -0.000700241 1.1961e-16)
(0.999586 -0.00124387 1.19492e-16)
(0.999806 -0.00171816 -1.44028e-17)
(1.00013 -0.00211662 2.86885e-16)
(1.00055 -0.00240121 3.70968e-16)
(1.00105 -0.00255138 -1.132e-16)
(1.00162 -0.00254239 5.20873e-16)
(1.00222 -0.00235509 -1.19516e-15)
(1.00287 -0.00196998 -1.32555e-16)
(1.00346 -0.00143701 -1.7748e-15)
(1.00416 -0.000821275 1.39958e-16)
(0.999366 -0.000145362 -6.22935e-17)
(0.999418 -0.000712524 7.44223e-17)
(0.999561 -0.00127222 -2.1266e-17)
(0.999792 -0.00176112 1.55127e-16)
(1.00013 -0.0021721 -2.13605e-16)
(1.00056 -0.00246579 -5.20591e-16)
(1.00108 -0.00262087 -4.00451e-17)
(1.00167 -0.00261239 -3.7127e-16)
(1.00229 -0.00242169 1.27311e-15)
(1.00296 -0.00203058 -4.28786e-17)
(1.00356 -0.0014884 3.80879e-16)
(1.00426 -0.000867978 6.99499e-16)
(0.999329 -0.000140723 1.54911e-17)
(0.999386 -0.000724816 -3.19068e-16)
(0.999536 -0.00130064 1.09966e-16)
(0.999778 -0.00180421 -5.10005e-16)
(1.00013 -0.00222778 2.55168e-16)
(1.00058 -0.00253063 8.44835e-16)
(1.00112 -0.00269067 -2.19052e-16)
(1.00172 -0.00268269 -5.18674e-16)
(1.00237 -0.00248856 -4.05147e-16)
(1.00305 -0.00209144 -8.00876e-17)
(1.00366 -0.00154005 3.94764e-16)
(1.00436 -0.000915009 -6.39592e-16)
(0.999291 -0.000136129 3.55279e-17)
(0.999352 -0.000737199 9.26993e-17)
(0.999511 -0.00132925 -3.3395e-16)
(0.999763 -0.00184755 4.62516e-16)
(1.00013 -0.00228376 -6.95404e-16)
(1.0006 -0.00259582 -6.94641e-16)
(1.00115 -0.00276086 2.64811e-16)
(1.00178 -0.0027534 9.31241e-16)
(1.00244 -0.00255586 -5.24529e-16)
(1.00313 -0.00215273 2.11022e-16)
(1.00376 -0.00159209 -1.70356e-16)
(1.00446 -0.000962554 5.99132e-17)
(0.999252 -0.000131664 -6.05176e-18)
(0.999318 -0.00074977 2.00069e-16)
(0.999484 -0.0013582 2.66441e-16)
(0.999748 -0.00189133 -3.17142e-16)
(1.00013 -0.00234023 1.54286e-16)
(1.00061 -0.00266156 4.27909e-16)
(1.00119 -0.00283165 1.43896e-16)
(1.00183 -0.00282476 -9.65217e-17)
(1.00251 -0.00262382 7.35257e-16)
(1.00322 -0.0022147 3.74049e-16)
(1.00385 -0.00164472 7.02888e-17)
(1.00456 -0.00101092 6.32109e-17)
(0.999212 -0.000127389 1.3605e-17)
(0.999283 -0.000762603 -2.2319e-16)
(0.999456 -0.0013876 -5.89614e-17)
(0.999732 -0.00193571 1.24204e-16)
(1.00013 -0.00239738 7.50855e-16)
(1.00063 -0.00272805 -3.85119e-16)
(1.00122 -0.00290322 -3.281e-16)
(1.00189 -0.00289693 -7.45594e-17)
(1.00258 -0.00269261 -7.27222e-16)
(1.00331 -0.00227748 4.2272e-16)
(1.00395 -0.00169794 -5.87735e-17)
(1.00466 -0.00105997 3.76002e-16)
(0.999171 -0.000123377 -1.07954e-17)
(0.999246 -0.000775779 1.3975e-16)
(0.999427 -0.00141757 -9.64229e-17)
(0.999714 -0.00198085 3.61808e-16)
(1.00013 -0.00245543 -7.05383e-16)
(1.00064 -0.0027955 4.95597e-16)
(1.00126 -0.00297579 -4.82129e-17)
(1.00194 -0.00297009 -5.03658e-17)
(1.00265 -0.00276235 7.52476e-16)
(1.00339 -0.00234114 -2.90021e-16)
(1.00405 -0.00175187 -2.37157e-16)
(1.00477 -0.00110964 -9.4967e-17)
(0.99913 -0.000119677 1.51957e-18)
(0.999208 -0.000789348 -2.60477e-17)
(0.999397 -0.00144818 1.17494e-16)
(0.999695 -0.00202686 -4.01315e-16)
(1.00012 -0.00251449 3.48266e-16)
(1.00066 -0.00286403 1.16524e-16)
(1.00129 -0.00304944 1.67818e-16)
(1.00199 -0.00304431 -8.76116e-16)
(1.00272 -0.00283308 -3.67534e-16)
(1.00348 -0.00240566 -1.32148e-15)
(1.00415 -0.00180654 -6.90211e-16)
(1.00487 -0.00115975 -7.06577e-16)
(0.999087 -0.00011635 -1.97271e-17)
(0.999169 -0.000803368 1.80571e-17)
(0.999365 -0.00147948 -2.20173e-16)
(0.999676 -0.0020738 1.44736e-17)
(1.00012 -0.00257463 -8.84767e-17)
(1.00067 -0.00293372 5.26366e-18)
(1.00132 -0.00312425 3.10019e-16)
(1.00204 -0.00311964 1.18445e-15)
(1.00279 -0.00290482 1.02954e-16)
(1.00356 -0.00247105 8.24749e-16)
(1.00425 -0.0018618 -1.20902e-16)
(1.00497 -0.00121036 1.28226e-15)
(0.999044 -0.000113434 1.89804e-17)
(0.999129 -0.000817868 1.09634e-17)
(0.999333 -0.00151151 2.9755e-16)
(0.999654 -0.00212168 -1.74021e-16)
(1.00011 -0.00263587 -2.03756e-16)
(1.00068 -0.00300457 -2.35319e-16)
(1.00135 -0.0032002 -1.42727e-16)
(1.0021 -0.00319603 -4.7491e-16)
(1.00286 -0.00297751 8.5459e-17)
(1.00365 -0.00253727 8.19421e-16)
(1.00434 -0.00191776 7.94692e-16)
(1.00507 -0.00126112 -1.13876e-15)
(0.999 -0.000110977 -1.9378e-17)
(0.999087 -0.000832889 -2.397e-16)
(0.999298 -0.00154429 -1.27599e-16)
(0.999632 -0.00217053 2.92254e-17)
(1.0001 -0.0026982 5.10794e-16)
(1.00069 -0.00307654 -4.05007e-16)
(1.00139 -0.00327726 -3.61423e-16)
(1.00215 -0.00327349 -4.46734e-16)
(1.00293 -0.00305117 -5.35475e-16)
(1.00373 -0.00260436 -1.77043e-15)
(1.00444 -0.00197496 -5.91462e-16)
(1.00517 -0.00131238 5.77302e-16)
(0.998955 -0.000109006 9.69807e-18)
(0.999044 -0.000848446 2.00192e-16)
(0.999263 -0.00157782 6.03743e-17)
(0.999608 -0.00222031 3.72467e-16)
(1.0001 -0.00276157 -5.89569e-16)
(1.00071 -0.00314959 5.74664e-16)
(1.00142 -0.00335538 -6.85171e-18)
(1.0022 -0.00335196 1.05274e-15)
(1.003 -0.00312578 3.80006e-16)
(1.00382 -0.00267231 2.3088e-15)
(1.00454 -0.00203349 3.28902e-16)
(1.00528 -0.00136392 5.3802e-16)
(0.99891 -0.000107556 -1.98006e-17)
(0.999 -0.000864573 4.30054e-17)
(0.999227 -0.00161212 9.36549e-17)
(0.999584 -0.00227104 -1.45665e-16)
(1.00009 -0.00282597 5.03754e-16)
(1.00072 -0.0032237 -6.06301e-16)
(1.00145 -0.00343456 5.53506e-16)
(1.00225 -0.00343147 -1.42061e-16)
(1.00307 -0.00320141 2.3183e-16)
(1.0039 -0.00274124 -1.68367e-15)
(1.00464 -0.00209317 9.99365e-16)
(1.00538 -0.00141541 -1.20059e-15)
(0.998864 -0.000106639 2.12975e-17)
(0.998955 -0.000881279 -1.1905e-16)
(0.999189 -0.0016472 -1.73069e-16)
(0.999558 -0.00232271 -1.71095e-16)
(1.00008 -0.00289139 5.21841e-17)
(1.00072 -0.00329887 -1.59623e-16)
(1.00148 -0.0035148 -3.01491e-16)
(1.0023 -0.00351205 -6.68938e-16)
(1.00314 -0.00327811 -2.39538e-16)
(1.00399 -0.00281119 3.935e-16)
(1.00473 -0.00215403 -9.81681e-16)
(1.00549 -0.00146664 6.94117e-16)
(0.998817 -0.000106275 5.13179e-17)
(0.998909 -0.000898588 1.4476e-17)
(0.99915 -0.00168308 -4.60554e-17)
(0.999531 -0.00237534 1.24336e-16)
(1.00007 -0.00295787 -6.87917e-16)
(1.00073 -0.00337513 1.16431e-16)
(1.0015 -0.00359615 5.04483e-16)
(1.00235 -0.00359378 -2.81591e-16)
(1.00321 -0.00335597 9.45739e-17)
(1.00407 -0.00288222 -1.23866e-16)
(1.00483 -0.00221637 2.24067e-16)
(1.00559 -0.00151805 -5.23024e-16)
(0.998769 -0.000106455 -3.34995e-17)
(0.998861 -0.000916501 7.35806e-17)
(0.99911 -0.00171976 -1.34633e-16)
(0.999503 -0.00242891 -8.06518e-17)
(1.00006 -0.0030254 5.11765e-16)
(1.00074 -0.0034525 2.11641e-16)
(1.00153 -0.00367866 -2.23363e-16)
(1.00239 -0.00367668 4.58085e-16)
(1.00328 -0.003435 1.50756e-16)
(1.00416 -0.00295433 2.9731e-16)
(1.00493 -0.00228 -3.05962e-16)
(1.0057 -0.0015694 -1.09831e-17)
(0.998721 -0.000107182 -5.13039e-17)
(0.998813 -0.000935035 -2.67055e-17)
(0.999069 -0.00175723 1.38789e-16)
(0.999474 -0.00248344 1.22675e-16)
(1.00004 -0.00309399 1.59548e-16)
(1.00075 -0.00353101 4.31512e-16)
(1.00156 -0.00376235 -1.93616e-16)
(1.00244 -0.00376078 -8.63319e-17)
(1.00334 -0.0035152 -1.82903e-16)
(1.00424 -0.00302749 -6.68449e-18)
(1.00502 -0.00234463 6.62361e-18)
(1.0058 -0.00162022 3.82826e-16)
(0.998672 -0.000108431 8.63121e-17)
(0.998763 -0.000954181 -1.3997e-17)
(0.999027 -0.00179548 1.60432e-16)
(0.999444 -0.00253889 -7.32899e-17)
(1.00003 -0.00316363 -1.40469e-16)
(1.00075 -0.00361064 -5.68115e-16)
(1.00158 -0.00384719 -3.43992e-16)
(1.00249 -0.00384604 2.23933e-16)
(1.00341 -0.00359651 3.52559e-17)
(1.00433 -0.0031016 5.35709e-17)
(1.00512 -0.00240996 8.28018e-17)
(1.00591 -0.00167073 3.4215e-17)
(0.998622 -0.00011019 -8.60886e-17)
(0.998712 -0.000973948 1.31745e-16)
(0.998983 -0.00183448 -2.36199e-16)
(0.999412 -0.00259522 1.6253e-16)
(1.00001 -0.00323425 -3.77112e-18)
(1.00076 -0.00369133 3.85685e-16)
(1.00161 -0.00393314 3.35722e-16)
(1.00253 -0.0039324 -2.2415e-16)
(1.00348 -0.00367885 3.68612e-16)
(1.00441 -0.00317657 -2.38741e-16)
(1.00522 -0.00247566 7.12079e-16)
(1.00601 -0.00172076 7.16599e-16)
(0.998571 -0.000112423 6.59745e-17)
(0.99866 -0.00099432 -9.53674e-17)
(0.998939 -0.0018742 -4.00745e-17)
(0.99938 -0.00265236 1.20991e-16)
(0.999998 -0.00330579 -1.51854e-16)
(1.00076 -0.00377301 -2.36162e-16)
(1.00163 -0.00402008 3.60635e-16)
(1.00258 -0.00401974 -2.11164e-16)
(1.00354 -0.00376209 -4.48846e-16)
(1.00449 -0.00325228 2.41278e-16)
(1.00531 -0.00254157 -4.08718e-16)
(1.00612 -0.00177085 -5.61398e-16)
(0.998519 -0.000115107 2.74284e-17)
(0.998608 -0.0010153 -1.01425e-16)
(0.998893 -0.00191461 4.14479e-16)
(0.999347 -0.00271026 -2.02562e-16)
(0.999981 -0.00337816 8.27776e-17)
(1.00076 -0.00385557 -1.92e-16)
(1.00166 -0.00410793 -4.7394e-16)
(1.00262 -0.00410797 4.11541e-16)
(1.00361 -0.00384616 4.74042e-16)
(1.00458 -0.00332867 -5.97913e-16)
(1.00541 -0.00260762 -2.32996e-16)
(1.00623 -0.00182159 -1.75991e-16)
(0.998466 -0.000118202 -7.86173e-17)
(0.998554 -0.00103687 3.06327e-17)
(0.998847 -0.00195568 -1.87607e-16)
(0.999312 -0.00276886 2.56703e-17)
(0.999964 -0.00345127 1.14249e-16)
(1.00076 -0.00393891 4.66472e-16)
(1.00168 -0.00419659 5.04435e-18)
(1.00267 -0.00419698 -2.43477e-17)
(1.00367 -0.00393099 -6.51817e-16)
(1.00466 -0.00340571 9.56114e-17)
(1.00551 -0.00267384 -1.34434e-16)
(1.00634 -0.00187319 7.17428e-17)
(0.998412 -0.000121682 -1.26945e-17)
(0.998499 -0.00105903 -2.33702e-17)
(0.998799 -0.00199739 -2.73788e-16)
(0.999277 -0.00282812 -5.00288e-17)
(0.999945 -0.00352509 -1.79816e-16)
(1.00076 -0.004023 -1.30102e-16)
(1.0017 -0.00428601 -1.32659e-16)
(1.00271 -0.00428677 1.62955e-16)
(1.00374 -0.00401659 1.83324e-16)
(1.00474 -0.00348347 3.13422e-16)
(1.00561 -0.00274024 4.41108e-16)
(1.00644 -0.00192561 -2.26891e-16)
(0.998356 -0.000125502 3.06986e-17)
(0.998442 -0.00108176 1.59556e-17)
(0.998751 -0.00203974 2.614e-16)
(0.999241 -0.00288802 -5.25179e-17)
(0.999926 -0.00359957 -9.689e-17)
(1.00076 -0.00410778 -1.49286e-16)
(1.00173 -0.00437618 4.42654e-16)
(1.00276 -0.00437734 -2.96773e-16)
(1.00381 -0.00410302 1.04802e-16)
(1.00483 -0.00356204 4.08216e-16)
(1.00571 -0.00280697 -2.59277e-16)
(1.00655 -0.00197917 -4.03688e-17)
(0.9983 -0.000129636 -4.19749e-17)
(0.998385 -0.00110505 4.34313e-17)
(0.998701 -0.00208272 8.90936e-17)
(0.999204 -0.00294859 1.89818e-16)
(0.999906 -0.00367474 3.42041e-16)
(1.00076 -0.00419331 -2.54575e-16)
(1.00175 -0.00446714 -1.68814e-16)
(1.0028 -0.00446878 1.77954e-17)
(1.00387 -0.00419036 -3.11058e-16)
(1.00491 -0.00364156 -4.47378e-16)
(1.00581 -0.00287425 5.95127e-16)
(1.00666 -0.00203423 2.48037e-16)
(0.998241 -0.000134036 6.75582e-17)
(0.998327 -0.00112889 8.25467e-17)
(0.998651 -0.00212633 -8.46298e-17)
(0.999166 -0.00300983 -1.72132e-16)
(0.999884 -0.00375064 4.47672e-17)
(1.00076 -0.00427963 4.16825e-16)
(1.00177 -0.00455899 -2.97502e-16)
(1.00285 -0.00456121 -1.07451e-17)
(1.00394 -0.00427876 3.96965e-16)
(1.005 -0.00372216 -3.88809e-16)
(1.00591 -0.00294239 -5.05343e-16)
(1.00677 -0.00209079 -1.28748e-16)
(0.998181 -0.000138674 8.35852e-18)
(0.998267 -0.00115325 8.45234e-18)
(0.998599 -0.0021706 -2.78466e-16)
(0.999126 -0.00307179 -2.27137e-16)
(0.999862 -0.00382734 -3.82156e-16)
(1.00076 -0.00436686 5.20457e-17)
(1.00179 -0.00465185 8.53257e-17)
(1.00289 -0.00465475 -5.93567e-17)
(1.004 -0.00436835 -3.26101e-16)
(1.00508 -0.00380399 7.3023e-16)
(1.00601 -0.00301132 3.776e-16)
(1.00688 -0.0021491 -1.15828e-16)
(0.998119 -0.0001435 -3.96846e-17)
(0.998205 -0.00117812 -7.73572e-17)
(0.998545 -0.00221552 3.71221e-16)
(0.999086 -0.0031345 3.38118e-16)
(0.999839 -0.00390491 -7.43476e-18)
(1.00076 -0.00445508 7.23372e-17)
(1.00181 -0.00474581 -1.12288e-16)
(1.00293 -0.00474954 8.24866e-17)
(1.00407 -0.00445924 3.47148e-16)
(1.00516 -0.00388713 -1.80302e-16)
(1.00611 -0.00308129 1.28241e-16)
(1.00699 -0.00220848 2.15142e-16)
(0.998055 -0.00014848 -2.48327e-18)
(0.998143 -0.00120346 5.35242e-17)
(0.99849 -0.00226109 -1.62527e-16)
(0.999044 -0.003198 -3.19569e-16)
(0.999814 -0.0039834 1.93527e-16)
(1.00075 -0.00454438 -4.43801e-16)
(1.00183 -0.00484101 1.31122e-16)
(1.00297 -0.00484569 -1.94683e-16)
(1.00413 -0.00455154 3.07693e-17)
(1.00525 -0.00397166 1.84925e-16)
(1.00621 -0.00315296 -1.5908e-16)
(1.00711 -0.00226916 -4.79416e-16)
(0.99799 -0.000153564 2.29408e-17)
(0.998079 -0.00122923 -1.48614e-16)
(0.998434 -0.00230728 1.66766e-16)
(0.999 -0.00326229 2.80113e-16)
(0.999788 -0.00406286 -3.60254e-16)
(1.00075 -0.00463482 -3.04851e-17)
(1.00185 -0.00493751 2.19241e-16)
(1.00301 -0.00494327 -2.64538e-16)
(1.00419 -0.00464531 -3.2039e-16)
(1.00533 -0.00405759 9.05599e-17)
(1.00631 -0.00322642 -2.77159e-16)
(1.00722 -0.00233059 4.22241e-16)
(0.997923 -0.000158719 1.50758e-17)
(0.998013 -0.00125541 7.83278e-17)
(0.998376 -0.00235409 -7.73776e-17)
(0.998955 -0.00332739 2.36053e-16)
(0.999761 -0.00414333 1.75074e-16)
(1.00074 -0.00472646 1.47424e-16)
(1.00186 -0.00503539 -2.47904e-16)
(1.00306 -0.00504235 3.77703e-16)
(1.00426 -0.00474062 -3.358e-18)
(1.00542 -0.00414496 -7.17931e-16)
(1.00642 -0.00330142 1.37103e-16)
(1.00734 -0.00239219 -2.6571e-17)
(0.997854 -0.000163895 -2.40328e-17)
(0.997946 -0.00128195 8.09148e-17)
(0.998317 -0.00240148 -2.69571e-16)
(0.998908 -0.00339327 -1.97762e-16)
(0.999732 -0.00422481 4.02551e-17)
(1.00073 -0.00481931 1.55018e-16)
(1.00188 -0.00513467 2.58945e-16)
(1.0031 -0.00514296 3.53306e-17)
(1.00432 -0.00483748 2.79805e-17)
(1.0055 -0.00423376 4.78056e-16)
(1.00652 -0.00337789 1.45239e-16)
(1.00745 -0.00245353 -2.30516e-16)
(0.997783 -0.000169062 -1.89968e-17)
(0.997877 -0.00130881 -2.2452e-17)
(0.998256 -0.00244943 2.85725e-16)
(0.99886 -0.00345994 4.56565e-18)
(0.999702 -0.0043073 2.46178e-16)
(1.00073 -0.00491341 -2.32061e-16)
(1.00189 -0.00523538 -1.51875e-16)
(1.00314 -0.00524512 -4.51066e-17)
(1.00438 -0.00493591 5.43522e-18)
(1.00559 -0.00432399 2.90394e-16)
(1.00662 -0.00345618 -4.51966e-16)
(1.00757 -0.00251523 -2.65035e-16)
(0.99771 -0.000174174 5.1802e-18)
(0.997807 -0.00133594 -7.88741e-17)
(0.998194 -0.0024979 -2.76393e-16)
(0.998811 -0.00352736 4.92775e-17)
(0.999671 -0.00439079 2.30196e-17)
(1.00072 -0.00500874 2.92565e-18)
(1.00191 -0.00533754 -8.02487e-17)
(1.00317 -0.00534886 3.48812e-16)
(1.00445 -0.00503595 3.8229e-16)
(1.00567 -0.00441564 -2.54086e-16)