1.275 	2.15223e-18 	-2.76991e-20 	-0.032248 	-0.000912931 	-2.06912e-22
1.825 	2.15223e-18 	-1.39322e-20 	0.0174398 	-0.00459675 	1.61066e-21
2.375 	2.15223e-18 	-2.66896e-23 	0.220589 	-0.00617827 	-6.11542e-22
