1.275 	2.15223e-18 	-2.76991e-20 	-0.032491 	-0.000492879 	-2.03392e-22
1.825 	2.15223e-18 	-1.39322e-20 	-0.00735419 	-0.00292729 	1.81574e-21
2.375 	2.15223e-18 	-2.66896e-23 	0.127045 	-0.00361156 	-7.53397e-22
