1.275 	2.15223e-18 	-2.76991e-20 	-0.0324741 	-0.000473463 	-2.04759e-22
1.825 	2.15223e-18 	-1.39322e-20 	-0.00726367 	-0.00304819 	1.8083e-21
2.375 	2.15223e-18 	-2.66896e-23 	0.13585 	-0.00396767 	-7.43448e-22
