1.275 	2.15223e-18 	-2.76991e-20 	-0.0327488 	-0.000499671 	-2.02459e-22
1.825 	2.15223e-18 	-1.39322e-20 	-0.00722625 	-0.00289947 	1.81435e-21
2.375 	2.15223e-18 	-2.66896e-23 	0.123641 	-0.00348042 	-7.55177e-22
