1.45 	0 	0 	-0.00811198 	-0.00257024 	3.78468e-21
2.35 	0 	0 	0.0613638 	-0.00663177 	2.28839e-21
