1.45 	0 	0 	-0.0050159 	-0.00278563 	3.94437e-21
2.35 	0 	0 	0.0707221 	-0.00691026 	2.44473e-21
