1.275 	2.15223e-18 	-2.76991e-20 	-0.0328836 	-0.000517688 	-2.06427e-22
1.825 	2.15223e-18 	-1.39322e-20 	-0.00350991 	-0.00346853 	1.76564e-21
2.375 	2.15223e-18 	-2.66896e-23 	0.159523 	-0.00476196 	-7.09513e-22
