/*--------------------------------*- C++ -*----------------------------------*\
  =========                 |
  \\      /  F ield         | OpenFOAM: The Open Source CFD Toolbox
   \\    /   O peration     | Website:  https://openfoam.org
    \\  /    A nd           | Version:  6.0
     \\/     M anipulation  |
\*---------------------------------------------------------------------------*/
FoamFile
{
    version     2.0;
    format      ascii;
    class       surfaceScalarField;
    location    "0.4";
    object      phi;
}
// * * * * * * * * * * * * * * * * * * * * * * * * * * * * * * * * * * * * * //

dimensions      [0 3 -1 0 0 0 0];

internalField   nonuniform List<scalar> 
1540
(
8.5576e-09
-8.55726e-09
5.0905e-09
3.46685e-09
-1.58082e-08
2.08991e-08
-5.13107e-08
3.55024e-08
-9.71115e-08
4.5801e-08
-1.49366e-07
5.22548e-08
-2.05262e-07
5.58963e-08
-2.63063e-07
5.78003e-08
-3.21906e-07
5.88429e-08
-3.81552e-07
5.9646e-08
-4.42161e-07
6.06091e-08
-5.04125e-07
6.19636e-08
-5.67947e-07
6.38225e-08
-6.34164e-07
6.62165e-08
-7.03276e-07
6.91123e-08
-7.75694e-07
7.24174e-08
-8.51668e-07
7.59738e-08
-9.31213e-07
7.95447e-08
-1.01401e-06
8.27979e-08
-1.0993e-06
8.52881e-08
-1.18574e-06
8.64437e-08
-1.2713e-06
8.55603e-08
-1.35311e-06
8.18102e-08
-1.42739e-06
7.42754e-08
-1.4894e-06
6.20149e-08
-1.53358e-06
4.41756e-08
-1.55374e-06
2.01567e-08
-1.54356e-06
-1.01747e-08
-1.49733e-06
-4.62318e-08
-1.41088e-06
-8.64537e-08
-1.28276e-06
-1.28117e-07
-1.11546e-06
-1.67299e-07
-9.16356e-07
-1.99104e-07
-6.98141e-07
-2.18215e-07
-4.78353e-07
-2.19788e-07
-2.77756e-07
-2.00598e-07
-1.17552e-07
-1.60204e-07
-1.57262e-08
-1.01825e-07
1.82301e-08
-3.39561e-08
1.82302e-08
-3.33332e-09
-5.22417e-09
-3.85122e-08
3.86459e-08
-1.10162e-07
9.25485e-08
-2.13317e-07
1.38657e-07
-3.40181e-07
1.72664e-07
-4.83151e-07
1.95225e-07
-6.36172e-07
2.08917e-07
-7.9511e-07
2.16739e-07
-9.57589e-07
2.21321e-07
-1.1226e-06
2.24656e-07
-1.29009e-06
2.28102e-07
-1.46062e-06
2.3249e-07
-1.63504e-06
2.38244e-07
-1.8143e-06
2.4548e-07
-1.99925e-06
2.54058e-07
-2.19043e-06
2.63599e-07
-2.38793e-06
2.73469e-07
-2.59114e-06
2.82754e-07
-2.79855e-06
2.90214e-07
-3.00752e-06
2.94256e-07
-3.21399e-06
2.92916e-07
-3.41231e-06
2.83877e-07
-3.59504e-06
2.64546e-07
-3.75297e-06
2.32196e-07
-3.87517e-06
1.84221e-07
-3.94949e-06
1.18491e-07
-3.96317e-06
3.38446e-08
-3.90403e-06
-6.93223e-08
-3.76185e-06
-1.88407e-07
-3.53031e-06
-3.17999e-07
-3.20894e-06
-4.49479e-07
-2.8052e-06
-5.71042e-07
-2.33593e-06
-6.68371e-07
-1.82796e-06
-7.26188e-07
-1.31701e-06
-7.30734e-07
-8.44588e-07
-6.73024e-07
-4.52397e-07
-5.52394e-07
-1.74729e-07
-3.79493e-07
-2.86954e-08
-1.7999e-07
-1.04649e-08
-2.35192e-08
1.82954e-08
-1.01567e-07
1.16694e-07
-2.31199e-07
2.2218e-07
-4.03454e-07
3.10913e-07
-6.07575e-07
3.76786e-07
-8.33521e-07
4.2117e-07
-1.07325e-06
4.48646e-07
-1.32111e-06
4.646e-07
-1.57366e-06
4.73874e-07
-1.82925e-06
4.80239e-07
-2.08748e-06
4.86335e-07
-2.3488e-06
4.93811e-07
-2.61408e-06
5.03523e-07
-2.88429e-06
5.15685e-07
-3.1602e-06
5.29967e-07
-3.44212e-06
5.45526e-07
-3.72965e-06
5.60993e-07
-4.02132e-06
5.74431e-07
-4.3144e-06
5.83291e-07
-4.60453e-06
5.84382e-07
-4.8855e-06
5.73889e-07
-5.14908e-06
5.47455e-07
-5.3849e-06
5.00367e-07
-5.58057e-06
4.27871e-07
-5.722e-06
3.25649e-07
-5.79397e-06
1.90461e-07
-5.7811e-06
2.09767e-08
-5.66915e-06
-1.81275e-07
-5.44667e-06
-4.10884e-07
-5.10704e-06
-6.5763e-07
-4.65065e-06
-9.0587e-07
-4.08713e-06
-1.13456e-06
-3.43721e-06
-1.31829e-06
-2.73361e-06
-1.42979e-06
-2.02032e-06
-1.44403e-06
-1.34935e-06
-1.344e-06
-7.74503e-07
-1.12724e-06
-3.42471e-07
-8.11525e-07
-8.26697e-08
-4.39791e-07
-9.31349e-08
-4.51866e-08
6.34815e-08
-1.70129e-07
2.41636e-07
-3.61251e-07
4.13302e-07
-6.03395e-07
5.53058e-07
-8.82016e-07
6.55406e-07
-1.18468e-06
7.23839e-07
-1.50181e-06
7.65773e-07
-1.82671e-06
7.89498e-07
-2.15525e-06
8.02413e-07
-2.48532e-06
8.10309e-07
-2.81626e-06
8.17274e-07
-3.14833e-06
8.25885e-07
-3.48228e-06
8.37471e-07
-3.81892e-06
8.52331e-07
-4.15883e-06
8.6987e-07
-4.50196e-06
8.88659e-07
-4.84739e-06
9.06425e-07
-5.19298e-06
9.20023e-07
-5.53509e-06
9.25401e-07
-5.86832e-06
9.17608e-07
-6.1853e-06
8.90866e-07
-6.47659e-06
8.38745e-07
-6.7307e-06
7.54481e-07
-6.93428e-06
6.31451e-07
-7.07249e-06
4.63856e-07
-7.12962e-06
2.47598e-07
-7.09001e-06
-1.86388e-08
-6.93914e-06
-3.32146e-07
-6.66516e-06
-6.84867e-07
-6.26065e-06
-1.06214e-06
-5.72478e-06
-1.44174e-06
-5.06566e-06
-1.79368e-06
-4.30277e-06
-2.08119e-06
-3.46881e-06
-2.26375e-06
-2.61023e-06
-2.3026e-06
-1.78518e-06
-2.16905e-06
-1.05783e-06
-1.85459e-06
-4.89296e-07
-1.38006e-06
-1.27172e-07
-8.01915e-07
-2.20307e-07
-6.66264e-08
1.30108e-07
-2.39152e-07
4.14162e-07
-4.92142e-07
6.66291e-07
-8.02764e-07
8.63679e-07
-1.15177e-06
1.00442e-06
-1.52403e-06
1.09609e-06
-1.90844e-06
1.15018e-06
-2.2975e-06
1.17856e-06
-2.68664e-06
1.19156e-06
-3.07351e-06
1.19718e-06
-3.4573e-06
1.20106e-06
-3.83815e-06
1.20674e-06
-4.2167e-06
1.21603e-06
-4.59367e-06
1.22929e-06
-4.96944e-06
1.24564e-06
-5.34378e-06
1.263e-06
-5.71552e-06
1.27816e-06
-6.08222e-06
1.28673e-06
-6.44002e-06
1.28319e-06
-6.78333e-06
1.26092e-06
-7.1048e-06
1.21234e-06
-7.39525e-06
1.12919e-06
-7.64372e-06
1.00296e-06
-7.83773e-06
8.2546e-07
-7.96353e-06
5.89657e-07
-8.0066e-06
2.90662e-07
-7.9522e-06
-7.30378e-08
-7.78619e-06
-4.98157e-07
-7.49603e-06
-9.7503e-07
-7.0722e-06
-1.48597e-06
-6.51014e-06
-2.00379e-06
-5.81287e-06
-2.49095e-06
-4.99416e-06
-2.8999e-06
-4.08195e-06
-3.17596e-06
-3.12103e-06
-3.26352e-06
-2.17323e-06
-3.11684e-06
-1.31346e-06
-2.71436e-06
-6.2053e-07
-2.07299e-06
-1.64963e-07
-1.25748e-06
-3.85269e-07
-8.73489e-08
2.17457e-07
-3.06456e-07
6.33269e-07
-6.19517e-07
9.79352e-07
-9.95069e-07
1.23923e-06
-1.40845e-06
1.41779e-06
-1.84143e-06
1.52908e-06
-2.28139e-06
1.59014e-06
-2.72014e-06
1.61731e-06
-3.15288e-06
1.6243e-06
-3.57723e-06
1.62153e-06
-3.99243e-06
1.61625e-06
-4.39869e-06
1.61299e-06
-4.79671e-06
1.61405e-06
-5.18726e-06
1.61984e-06
-5.5708e-06
1.62919e-06
-5.9472e-06
1.6394e-06
-6.31544e-06
1.6464e-06
-6.6734e-06
1.64469e-06
-7.01767e-06
1.62747e-06
-7.34346e-06
1.58671e-06
-7.64451e-06
1.51338e-06
-7.9131e-06
1.39778e-06
-8.14017e-06
1.23003e-06
-8.3154e-06
1.00069e-06
-8.42738e-06
7.01634e-07
-8.46374e-06
3.27029e-07
-8.41139e-06
-1.25388e-07
-8.25673e-06
-6.52819e-07
-7.98615e-06
-1.24561e-06
-7.58691e-06
-1.88521e-06
-7.0488e-06
-2.5419e-06
-6.36685e-06
-3.1729e-06
-5.54535e-06
-3.7214e-06
-4.60314e-06
-4.11817e-06
-3.57909e-06
-4.28757e-06
-2.53589e-06
-4.16004e-06
-1.55899e-06
-3.69126e-06
-7.48027e-07
-2.88396e-06
-2.0138e-07
-1.80413e-06
-5.86649e-07
-1.07305e-07
3.24761e-07
-3.71286e-07
8.97251e-07
-7.41296e-07
1.34936e-06
-1.1765e-06
1.67444e-06
-1.64628e-06
1.88758e-06
-2.12916e-06
2.01195e-06
-2.61096e-06
2.07194e-06
-3.08306e-06
2.0894e-06
-3.54069e-06
2.08193e-06
-3.98174e-06
2.06258e-06
-4.40578e-06
2.04029e-06
-4.81337e-06
2.02059e-06
-5.20556e-06
2.00623e-06
-5.58344e-06
1.99773e-06
-5.94788e-06
1.99363e-06
-6.29922e-06
1.99074e-06
-6.63707e-06
1.98424e-06
-6.96016e-06
1.96778e-06
-7.26624e-06
1.93355e-06
-7.55201e-06
1.87248e-06
-7.81314e-06
1.77451e-06
-8.04427e-06
1.62891e-06
-8.23906e-06
1.42482e-06
-8.3902e-06
1.15182e-06
-8.48931e-06
8.00746e-07
-8.52685e-06
3.64565e-07
-8.49182e-06
-1.60419e-07
-8.37152e-06
-7.73117e-07
-8.15139e-06
-1.46574e-06
-7.81528e-06
-2.22132e-06
-7.34649e-06
-3.01069e-06
-6.73035e-06
-3.78903e-06
-5.95875e-06
-4.493e-06
-5.03706e-06
-5.03985e-06
-3.99303e-06
-5.3316e-06
-2.88535e-06
-5.26773e-06
-1.80758e-06
-4.76902e-06
-8.82093e-07
-3.80945e-06
-2.41012e-07
-2.44521e-06
-8.27661e-07
-1.26766e-07
4.51527e-07
-4.3397e-07
1.20446e-06
-8.57206e-07
1.7726e-06
-1.34547e-06
2.1627e-06
-1.86186e-06
2.40397e-06
-2.38164e-06
2.53173e-06
-2.88944e-06
2.57974e-06
-3.37654e-06
2.5765e-06
-3.83867e-06
2.54406e-06
-4.27441e-06
2.49832e-06
-4.68406e-06
2.44995e-06
-5.06891e-06
2.40543e-06
-5.43066e-06
2.36798e-06
-5.77109e-06
2.33816e-06
-6.09179e-06
2.31432e-06
-6.39392e-06
2.29287e-06
-6.67811e-06
2.26844e-06
-6.94437e-06
2.23404e-06
-7.19203e-06
2.18121e-06
-7.41976e-06
2.10021e-06
-7.6256e-06
1.98035e-06
-7.80698e-06
1.81029e-06
-7.96069e-06
1.57853e-06
-8.08277e-06
1.27391e-06
-8.16832e-06
8.86287e-07
-8.21098e-06
4.07232e-07
-8.20245e-06
-1.68948e-07
-8.13166e-06
-8.43915e-07
-7.98399e-06
-1.61341e-06
-7.74079e-06
-2.46452e-06
-7.37959e-06
-3.37189e-06
-6.87584e-06
-4.29278e-06
-6.20729e-06
-5.16156e-06
-5.3619e-06
-5.88523e-06
-4.34998e-06
-6.34353e-06
-3.21859e-06
-6.39912e-06
-2.06343e-06
-5.92419e-06
-1.02875e-06
-4.84412e-06
-2.86992e-07
-3.18697e-06
-1.11465e-06
-1.46395e-07
5.97922e-07
-4.95966e-07
1.55403e-06
-9.68719e-07
2.24535e-06
-1.50242e-06
2.6964e-06
-2.0537e-06
2.95525e-06
-2.59503e-06
3.07306e-06
-3.11049e-06
3.0952e-06
-3.59202e-06
3.05803e-06
-4.03652e-06
2.98856e-06
-4.44387e-06
2.90567e-06
-4.81561e-06
2.82169e-06
-5.15416e-06
2.74398e-06
-5.46226e-06
2.67608e-06
-5.74266e-06
2.61856e-06
-5.99793e-06
2.56959e-06
-6.2303e-06
2.52524e-06
-6.44163e-06
2.47977e-06
-6.63339e-06
2.42579e-06
-6.80665e-06
2.35447e-06
-6.96221e-06
2.25576e-06
-7.10054e-06
2.11868e-06
-7.22189e-06
1.93164e-06
-7.32618e-06
1.68282e-06
-7.41286e-06
1.36059e-06
-7.48053e-06
9.53955e-07
-7.52639e-06
4.53096e-07
-7.54542e-06
-1.4992e-07
-7.52923e-06
-8.60104e-07
-7.46476e-06
-1.67788e-06
-7.33291e-06
-2.59637e-06
-7.10758e-06
-3.59722e-06
-6.75606e-06
-4.6443e-06
-6.24206e-06
-5.67556e-06
-5.53346e-06
-6.59383e-06
-4.61649e-06
-7.2605e-06
-3.51647e-06
-7.49913e-06
-2.32046e-06
-7.1202e-06
-1.18925e-06
-5.97533e-06
-3.41129e-07
-4.0351e-06
-1.45578e-06
-1.67475e-07
7.65397e-07
-5.60236e-07
1.94679e-06
-1.0793e-06
2.76441e-06
-1.64967e-06
3.26677e-06
-2.22174e-06
3.52733e-06
-2.76619e-06
3.61751e-06
-3.26782e-06
3.59683e-06
-3.72043e-06
3.51064e-06
-4.12312e-06
3.39124e-06
-4.47783e-06
3.26038e-06
-4.78797e-06
3.13183e-06
-5.05751e-06
3.01352e-06
-5.29054e-06
2.90911e-06
-5.491e-06
2.81902e-06
-5.66255e-06
2.74114e-06
-5.80856e-06
2.67125e-06
-5.93212e-06
2.60333e-06
-6.03608e-06
2.52976e-06
-6.12319e-06
2.44158e-06
-6.19613e-06
2.3287e-06
-6.25761e-06
2.18017e-06
-6.31041e-06
1.98444e-06
-6.35728e-06
1.72969e-06
-6.40079e-06
1.4041e-06
-6.44294e-06
9.96105e-07
-6.48459e-06
4.94744e-07
-6.52453e-06
-1.09977e-07
-6.55821e-06
-8.26419e-07
-6.57602e-06
-1.66007e-06
-6.56112e-06
-2.61127e-06
-6.48727e-06
-3.67106e-06
-6.31718e-06
-4.81439e-06
-6.00315e-06
-5.98959e-06
-5.49268e-06
-7.10431e-06
-4.74265e-06
-8.01052e-06
-3.74516e-06
-8.49662e-06
-2.5629e-06
-8.30246e-06
-1.36074e-06
-7.1775e-06
-4.04532e-07
-4.9913e-06
-1.86031e-06
-1.92339e-07
9.57735e-07
-6.31906e-07
2.38635e-06
-1.19472e-06
3.32722e-06
-1.7911e-06
3.86316e-06
-2.36611e-06
4.10233e-06
-2.89068e-06
4.14208e-06
-3.3525e-06
4.05866e-06
-3.74905e-06
3.90719e-06
-4.08295e-06
3.72514e-06
-4.35923e-06
3.53666e-06
-4.58377e-06
3.35637e-06
-4.7625e-06
3.19225e-06
-4.90104e-06
3.04765e-06
-5.00454e-06
2.92252e-06
-5.07772e-06
2.81432e-06
-5.12492e-06
2.71846e-06
-5.15023e-06
2.62864e-06
-5.15763e-06
2.53716e-06
-5.15114e-06
2.43509e-06
-5.13495e-06
2.31251e-06
-5.11352e-06
2.15875e-06
-5.09166e-06
1.96258e-06
-5.07443e-06
1.71247e-06
-5.06705e-06
1.39672e-06
-5.07458e-06
1.00363e-06
-5.10138e-06
5.21549e-07
-5.15035e-06
-6.10125e-08
-5.2216e-06
-7.55164e-07
-5.31067e-06
-1.571e-06
-5.40588e-06
-2.51606e-06
-5.48495e-06
-3.592e-06
-5.5112e-06
-4.78814e-06
-5.43085e-06
-6.06993e-06
-5.1744e-06
-7.36076e-06
-4.66752e-06
-8.5174e-06
-3.85851e-06
-9.30563e-06
-2.76598e-06
-9.39499e-06
-1.53708e-06
-8.40639e-06
-4.78471e-07
-6.04991e-06
-2.33879e-06
-2.25144e-07
1.18288e-06
-7.19245e-07
2.88045e-06
-1.32326e-06
3.93123e-06
-1.9309e-06
4.47081e-06
-2.48446e-06
4.65589e-06
-2.95892e-06
4.61653e-06
-3.34821e-06
4.44795e-06
-3.65604e-06
4.21501e-06
-3.89031e-06
3.95941e-06
-4.06017e-06
3.70652e-06
-4.17454e-06
3.47074e-06
-4.24151e-06
3.25923e-06
-4.2682e-06
3.07434e-06
-4.2608e-06
2.91513e-06
-4.22478e-06
2.7783e-06
-4.16506e-06
2.65874e-06
-4.08629e-06
2.54988e-06
-3.9931e-06
2.44396e-06
-3.89025e-06
2.33223e-06
-3.78286e-06
2.20512e-06
-3.67655e-06
2.05243e-06
-3.57749e-06
1.86352e-06
-3.49243e-06
1.62741e-06
-3.42864e-06
1.33292e-06
-3.39366e-06
9.68652e-07
-3.395e-06
5.22885e-07
-3.43946e-06
-1.65456e-08
-3.53218e-06
-6.62447e-07
-3.6749e-06
-1.42828e-06
-3.86332e-06
-2.32763e-06
-4.0831e-06
-3.37223e-06
-4.30419e-06
-4.56705e-06
-4.47444e-06
-5.89968e-06
-4.51499e-06
-7.32021e-06
-4.32402e-06
-8.70837e-06
-3.79977e-06
-9.82988e-06
-2.8957e-06
-1.02991e-05
-1.70901e-06
-9.59309e-06
-5.65359e-07
-7.19356e-06
-2.90414e-06
-2.73262e-07
1.45614e-06
-8.34907e-07
3.4421e-06
-1.47492e-06
4.57125e-06
-2.07015e-06
5.06604e-06
-2.56619e-06
5.15193e-06
-2.94857e-06
4.99891e-06
-3.22253e-06
4.72192e-06
-3.40131e-06
4.39379e-06
-3.49999e-06
4.05809e-06
-3.53273e-06
3.73926e-06
-3.51173e-06
3.44974e-06
-3.4471e-06
3.1946e-06
-3.34706e-06
2.9743e-06
-3.21833e-06
2.7864e-06
-3.06651e-06
2.62648e-06
-2.89652e-06
2.48874e-06
-2.71293e-06
2.36629e-06
-2.52033e-06
2.25137e-06
-2.3236e-06
2.1355e-06
-2.12812e-06
2.00964e-06
-1.93997e-06
1.86428e-06
-1.76603e-06
1.68958e-06
-1.61406e-06
1.47544e-06
-1.49266e-06
1.21153e-06
-1.41123e-06
8.8722e-07
-1.37974e-06
4.91396e-07
-1.40841e-06
1.21206e-08
-1.50701e-06
-5.63847e-07
-1.68366e-06
-1.25163e-06
-1.9426e-06
-2.06869e-06
-2.28023e-06
-3.0346e-06
-2.67869e-06
-4.16859e-06
-3.09643e-06
-5.48195e-06
-3.45698e-06
-6.95965e-06
-3.64185e-06
-8.5235e-06
-3.50129e-06
-9.97044e-06
-2.90617e-06
-1.08942e-05
-1.86227e-06
-1.0637e-05
-6.69591e-07
-8.38624e-06
-3.57374e-06
-3.49717e-07
1.80586e-06
-9.96821e-07
4.0892e-06
-1.65753e-06
5.23196e-06
-2.19785e-06
5.60636e-06
-2.57965e-06
5.53373e-06
-2.80971e-06
5.22897e-06
-2.9114e-06
4.82361e-06
-2.91115e-06
4.39354e-06
-2.83273e-06
3.97967e-06
-2.69551e-06
3.60205e-06
-2.51451e-06
3.26873e-06
-2.30097e-06
2.98106e-06
-2.06328e-06
2.7366e-06
-1.80766e-06
2.53078e-06
-1.53896e-06
2.35778e-06
-1.26119e-06
2.21097e-06
-9.78052e-07
2.08315e-06
-6.93353e-07
1.96667e-06
-4.11339e-07
1.85349e-06
-1.36963e-07
1.73527e-06
1.23905e-07
1.60341e-06
3.6434e-07
1.44914e-06
5.76262e-07
1.26352e-06
7.50386e-07
1.0374e-06
8.76208e-07
7.61398e-07
9.42036e-07
4.25568e-07
9.35101e-07
1.90556e-08
8.4183e-07
-4.70576e-07
6.48487e-07
-1.05829e-06
3.42602e-07
-1.76281e-06
-8.40412e-08
-2.60796e-06
-6.29501e-07
-3.62313e-06
-1.27111e-06
-4.84033e-06
-1.94904e-06
-6.28173e-06
-2.54656e-06
-7.92598e-06
-2.88031e-06
-9.63669e-06
-2.73222e-06
-1.10423e-05
-1.97155e-06
-1.13977e-05
-7.97174e-07
-9.56061e-06
-4.37091e-06
-4.76731e-07
2.28259e-06
-1.22564e-06
4.83811e-06
-1.86312e-06
5.86943e-06
-2.26825e-06
6.01149e-06
-2.44466e-06
5.71015e-06
-2.43604e-06
5.22034e-06
-2.29151e-06
4.67908e-06
-2.05325e-06
4.15529e-06
-1.75349e-06
3.67991e-06
-1.41529e-06
3.26384e-06
-1.05443e-06
2.90788e-06
-6.81375e-07
2.60801e-06
-3.02827e-07
2.35805e-06
7.69818e-08
2.15097e-06
4.553e-07
1.97946e-06
8.30101e-07
1.83617e-06
1.19949e-06
1.71376e-06
1.56124e-06
1.60492e-06
1.91243e-06
1.50229e-06
2.24919e-06
1.3985e-06
2.56648e-06
1.28613e-06
2.85791e-06
1.15771e-06
3.11569e-06
1.00574e-06
3.33049e-06
8.22608e-07
3.49138e-06
6.00508e-07
3.58577e-06
3.31181e-07
3.5993e-06
5.52611e-09
3.5158e-06
-3.87079e-07
3.31736e-06
-8.59845e-07
2.98477e-06
-1.43022e-06
2.49904e-06
-2.12223e-06
1.84538e-06
-2.96947e-06
1.02215e-06
-4.01711e-06
5.89284e-08
-5.31851e-06
-9.53643e-07
-6.91341e-06
-1.82836e-06
-8.76197e-06
-2.27303e-06
-1.05976e-05
-1.98407e-06
-1.16866e-05
-9.50193e-07
-1.05945e-05
-5.3211e-06
-6.86865e-07
2.96945e-06
-1.52606e-06
5.6773e-06
-2.0258e-06
6.36918e-06
-2.1456e-06
6.13128e-06
-1.9747e-06
5.53925e-06
-1.61145e-06
4.8571e-06
-1.13464e-06
4.20227e-06
-5.99758e-07
3.6204e-06
-4.27618e-08
3.12292e-06
5.14552e-07
2.70652e-06
1.05994e-06
2.36249e-06
1.58732e-06
2.08063e-06
2.09439e-06
1.85098e-06
2.58102e-06
1.66435e-06
3.04809e-06
1.51239e-06
3.49673e-06
1.38753e-06
3.92772e-06
1.28278e-06
4.34109e-06
1.19155e-06
4.73583e-06
1.10756e-06
5.10961e-06
1.02472e-06
5.45866e-06
9.37076e-07
5.77762e-06
8.38754e-07
6.05942e-06
7.23934e-07
6.29524e-06
5.86789e-07
6.47437e-06
4.2138e-07
6.58409e-06
2.21459e-07
6.60948e-06
-1.98653e-08
6.53312e-06
-3.10718e-07
6.33471e-06
-6.61432e-07
5.99066e-06
-1.08617e-06
5.47404e-06
-1.60561e-06
4.75566e-06
-2.25109e-06
3.80909e-06
-3.07054e-06
2.6247e-06
-4.13412e-06
1.24198e-06
-5.53069e-06
-1.92806e-07
-7.32718e-06
-1.3608e-06
-9.42961e-06
-1.78159e-06
-1.12658e-05
-1.10532e-06
-1.12708e-05
-6.42642e-06
-1.00533e-06
3.97478e-06
-1.80778e-06
6.47975e-06
-1.90129e-06
6.4627e-06
-1.47717e-06
5.70716e-06
-7.64971e-07
4.82705e-06
7.85e-08
4.01363e-06
9.57108e-07
3.32366e-06
1.81688e-06
2.76063e-06
2.63097e-06
2.30882e-06
3.38869e-06
1.9488e-06
4.08838e-06
1.6628e-06
4.73314e-06
1.43587e-06
5.32828e-06
1.25584e-06
5.87982e-06
1.1128e-06
6.3936e-06
9.9861e-07
6.87467e-06
9.06466e-07
7.32696e-06
8.30491e-07
7.75303e-06
7.65476e-07
8.15392e-06
7.06665e-07
8.52903e-06
6.49617e-07
8.87599e-06
5.9011e-07
9.19067e-06
5.24076e-07
9.46705e-06
4.47551e-07
9.69722e-06
3.56624e-07
9.87124e-06
2.47357e-07
9.97705e-06
1.15647e-07
1.00002e-05
-4.30174e-08
9.92346e-06
-2.33972e-07
9.72614e-06
-4.64113e-07
9.38314e-06
-7.43171e-07
8.8635e-06
-1.08597e-06
8.12887e-06
-1.51645e-06
7.133e-06
-2.07466e-06
5.82697e-06
-2.82809e-06
4.18172e-06
-3.88544e-06
2.25034e-06
-5.3958e-06
2.89296e-07
-7.46857e-06
-1.11062e-06
-9.86592e-06
-1.15906e-06
-1.12223e-05
-7.58549e-06
-1.3549e-06
5.32968e-06
-1.6107e-06
6.73555e-06
-7.52503e-07
5.6045e-06
5.67586e-07
4.38707e-06
1.99025e-06
3.40438e-06
3.35913e-06
2.64475e-06
4.61046e-06
2.07233e-06
5.72565e-06
1.64544e-06
6.7083e-06
1.32617e-06
7.57149e-06
1.08562e-06
8.33126e-06
9.03025e-07
9.00362e-06
7.63514e-07
9.60319e-06
6.56281e-07
1.01426e-05
5.73342e-07
1.06326e-05
5.08652e-07
1.10816e-05
4.57484e-07
1.14961e-05
4.16006e-07
1.18806e-05
3.80986e-07
1.22376e-05
3.49598e-07
1.25679e-05
3.19293e-07
1.28703e-05
2.8771e-07
1.31418e-05
2.52624e-07
1.33774e-05
2.11908e-07
1.35706e-05
1.63499e-07
1.37126e-05
1.05349e-07
1.37929e-05
3.53538e-08
1.37986e-05
-4.87811e-08
1.37144e-05
-1.49773e-07
1.35215e-05
-2.71176e-07
1.31965e-05
-4.1813e-07
1.27092e-05
-5.98749e-07
1.20196e-05
-8.26781e-07
1.10718e-05
-1.12691e-06
9.78919e-06
-1.54547e-06
8.07502e-06
-2.17128e-06
5.84774e-06
-3.16851e-06
3.17224e-06
-4.79308e-06
5.47498e-07
-7.24117e-06
-8.2367e-07
-9.85115e-06
-8.40916e-06
-9.40624e-07
6.27031e-06
8.33841e-07
4.96108e-06
3.35281e-06
3.08554e-06
5.68386e-06
2.05601e-06
7.65876e-06
1.42948e-06
9.29105e-06
1.01246e-06
1.06295e-05
7.33923e-07
1.17276e-05
5.4725e-07
1.26342e-05
4.19584e-07
1.33897e-05
3.30178e-07
1.40264e-05
2.66306e-07
1.457e-05
2.19925e-07
1.50405e-05
1.85776e-07
1.54535e-05
1.60312e-07
1.58211e-05
1.41051e-07
1.61524e-05
1.26186e-07
1.64541e-05
1.14329e-07
1.67307e-05
1.04367e-07
1.6985e-05
9.53587e-08
1.72178e-05
8.64798e-08
1.74285e-05
7.69835e-08
1.76149e-05
6.61794e-08
1.77734e-05
5.34192e-08
1.78988e-05
3.80854e-08
1.79846e-05
1.95772e-08
1.80227e-05
-2.71266e-09
1.80033e-05
-2.94388e-08
1.79149e-05
-6.13787e-08
1.77433e-05
-9.95667e-08
1.74707e-05
-1.4554e-07
1.70738e-05
-2.01803e-07
1.65198e-05
-2.72763e-07
1.57596e-05
-3.66731e-07
1.47148e-05
-5.00641e-07
1.32555e-05
-7.11988e-07
1.11774e-05
-1.09045e-06
8.23808e-06
-1.85375e-06
4.42415e-06
-3.42724e-06
7.39272e-07
-6.16627e-06
-7.66988e-06
6.27031e-06
1.12314e-05
1.43169e-05
1.63729e-05
1.78024e-05
1.88149e-05
1.95488e-05
2.00961e-05
2.05156e-05
2.08458e-05
2.11121e-05
2.1332e-05
2.15178e-05
2.16781e-05
2.18192e-05
2.19454e-05
2.20597e-05
2.21641e-05
2.22594e-05
2.23459e-05
2.24229e-05
2.24891e-05
2.25425e-05
2.25806e-05
2.26002e-05
2.25974e-05
2.2568e-05
2.25066e-05
2.24071e-05
2.22615e-05
2.20597e-05
2.17869e-05
2.14202e-05
2.09196e-05
2.02076e-05
1.91171e-05
1.72634e-05
1.38362e-05
7.66988e-06
)
;

boundaryField
{
    movingWall
    {
        type            calculated;
        value           uniform 0;
    }
    fixedWalls
    {
        type            calculated;
        value           uniform 0;
    }
    frontAndBack
    {
        type            empty;
        value           nonuniform 0();
    }
}


// ************************************************************************* //
