/*--------------------------------*- C++ -*----------------------------------*\
  =========                 |
  \\      /  F ield         | OpenFOAM: The Open Source CFD Toolbox
   \\    /   O peration     | Website:  https://openfoam.org
    \\  /    A nd           | Version:  6.0
     \\/     M anipulation  |
\*---------------------------------------------------------------------------*/
FoamFile
{
    version     2.0;
    format      ascii;
    class       surfaceScalarField;
    location    "9.8";
    object      phi;
}
// * * * * * * * * * * * * * * * * * * * * * * * * * * * * * * * * * * * * * //

dimensions      [0 3 -1 0 0 0 0];

internalField   nonuniform List<scalar> 
68636
(
3.02272e-05
0.00310561
3.97947e-09
6.08412e-05
0.00307074
9.10901e-05
0.00300252
0.00012048
0.00290145
0.000148623
0.00276857
0.000175173
0.00260536
0.000199816
0.00241361
0.000222267
0.00219544
0.00024227
0.00195325
0.000259597
0.00168971
0.000274052
0.00140771
0.000285471
0.00111032
0.000293733
0.000800825
0.000298721
0.000482418
0.000157119
0.000299781
2.99476e-05
0.00307565
9.548e-09
6.0284e-05
0.00304041
9.02585e-05
0.00297254
0.000119381
0.00287233
0.000147268
0.00274069
0.000173575
0.00257905
0.000197993
0.00238919
0.000220239
0.00217319
0.000240059
0.00193343
0.000257229
0.00167254
0.000271552
0.00139339
0.000282867
0.001099
0.000291066
0.000792624
0.00029594
0.000477542
0.000155973
0.00029708
2.96706e-05
0.00304597
1.46131e-08
5.9732e-05
0.00301034
8.94345e-05
0.00294284
0.000118293
0.00284347
0.000145926
0.00271305
0.000171994
0.00255298
0.000196189
0.00236499
0.000218233
0.00215115
0.000237872
0.00191379
0.000254885
0.00165553
0.000269078
0.00137919
0.000280288
0.00108779
0.000288414
0.000784499
0.00029328
0.000472676
0.000154684
0.000294571
2.93965e-05
0.00301655
1.93557e-08
5.91852e-05
0.00298056
8.86183e-05
0.00291341
0.000117214
0.00281487
0.000144597
0.00268567
0.000170427
0.00252715
0.000194402
0.00234102
0.000216244
0.00212931
0.000235705
0.00189433
0.000252562
0.00163867
0.000266626
0.00136513
0.000277733
0.00107668
0.000285778
0.000776452
0.000290624
0.000467829
0.000153312
0.000291991
2.91251e-05
0.0029874
2.36012e-08
5.86436e-05
0.00295104
8.78095e-05
0.00288424
0.000116146
0.00278654
0.000143279
0.00265854
0.000168874
0.00250156
0.00019263
0.00231726
0.000214273
0.00210766
0.000233557
0.00187505
0.00025026
0.00162197
0.000264195
0.00135119
0.0002752
0.00106568
0.000283166
0.000768486
0.000287973
0.000463022
0.000151896
0.000289391
2.88563e-05
0.00295852
2.74845e-08
5.81068e-05
0.00292179
8.70078e-05
0.00285534
0.000115086
0.00275846
0.000141972
0.00263165
0.000167334
0.0024762
0.000190874
0.00229372
0.00021232
0.00208622
0.000231427
0.00185594
0.000247978
0.00160542
0.000261787
0.00133738
0.000272691
0.00105477
0.000280578
0.000760598
0.000285344
0.000458254
0.000150431
0.000286804
2.859e-05
0.0029299
3.11205e-08
5.75748e-05
0.0028928
8.62132e-05
0.0028267
0.000114036
0.00273063
0.000140678
0.00260501
0.000165809
0.00245106
0.000189134
0.0022704
0.000210385
0.00206496
0.000229318
0.00183701
0.000245718
0.00158902
0.0002594
0.0013237
0.000270206
0.00104397
0.000278016
0.000752787
0.00028274
0.000453531
0.000148947
0.000284227
2.83262e-05
0.00290153
3.44989e-08
5.70475e-05
0.00286408
8.54256e-05
0.00279833
0.000112996
0.00270306
0.000139395
0.00257861
0.000164297
0.00242616
0.00018741
0.00224728
0.000208467
0.00204391
0.000227228
0.00181825
0.000243478
0.00157277
0.000257036
0.00131014
0.000267744
0.00103326
0.00027548
0.000745049
0.000280161
0.000448849
0.000147443
0.000281661
2.80647e-05
0.00287343
3.77529e-08
5.6525e-05
0.00283562
8.46451e-05
0.00277021
0.000111964
0.00267574
0.000138123
0.00255245
0.000162799
0.00240149
0.000185702
0.00222438
0.000206567
0.00202304
0.000225157
0.00179966
0.000241259
0.00155666
0.000254694
0.00129671
0.000265304
0.00102265
0.000272969
0.000737385
0.000277606
0.000444212
0.000145942
0.00027911
2.78057e-05
0.00284559
4.09853e-08
5.60072e-05
0.00280742
8.38715e-05
0.00274234
0.000110942
0.00264867
0.000136863
0.00252653
0.000161315
0.00237704
0.000184009
0.00220169
0.000204685
0.00200237
0.000223105
0.00178124
0.000239061
0.00154071
0.000252373
0.0012834
0.000262887
0.00101213
0.000270482
0.00072979
0.000275076
0.000439616
0.000144437
0.000276578
2.7549e-05
0.00281799
4.42485e-08
5.54939e-05
0.00277947
8.31048e-05
0.00271473
0.000109929
0.00262185
0.000135615
0.00250085
0.000159843
0.00235281
0.000182332
0.0021792
0.000202819
0.00198188
0.000221072
0.00176298
0.000236882
0.0015249
0.000250073
0.00127021
0.000260492
0.00100171
0.000268018
0.000722265
0.00027257
0.000435065
0.000142944
0.000274066
2.72945e-05
0.00279065
4.76335e-08
5.49853e-05
0.00275178
8.2345e-05
0.00268737
0.000108926
0.00259527
0.000134377
0.00247539
0.000158386
0.0023288
0.000180669
0.00215692
0.00020097
0.00196158
0.000219057
0.0017449
0.000234724
0.00150923
0.000247794
0.00125714
0.000258119
0.000991388
0.000265577
0.000714806
0.000270088
0.000430552
0.000141453
0.000271576
2.70424e-05
0.00276356
5.11802e-08
5.44812e-05
0.00272434
8.1592e-05
0.00266026
0.000107931
0.00256893
0.000133151
0.00245017
0.000156941
0.00230501
0.000179022
0.00213483
0.000199139
0.00194146
0.000217061
0.00172698
0.000232585
0.00149371
0.000245536
0.00124419
0.000255767
0.000981157
0.000263158
0.000707416
0.000267629
0.000426081
0.000139975
0.00026911
2.67924e-05
0.00273671
5.49013e-08
5.39816e-05
0.00269715
8.08458e-05
0.0026334
0.000106945
0.00254283
0.000131936
0.00242518
0.00015551
0.00228143
0.00017739
0.00211295
0.000197323
0.00192153
0.000215083
0.00170922
0.000230465
0.00147832
0.000243298
0.00123135
0.000253437
0.000971018
0.000260761
0.000700092
0.000265193
0.000421648
0.000138497
0.000266668
2.65447e-05
0.00271011
5.88055e-08
5.34865e-05
0.00267021
8.01062e-05
0.00260678
0.000105968
0.00251697
0.000130731
0.00240042
0.000154091
0.00225807
0.000175772
0.00209127
0.000195525
0.00190177
0.000213122
0.00169162
0.000228365
0.00146308
0.000241081
0.00121864
0.000251128
0.000960972
0.000258386
0.000692834
0.000262779
0.000417255
0.000137031
0.000264248
2.62991e-05
0.00268374
6.28637e-08
5.29958e-05
0.00264352
7.93733e-05
0.0025804
0.000105
0.00249134
0.000129538
0.00237588
0.000152685
0.00223493
0.00017417
0.00206979
0.000193742
0.0018822
0.00021118
0.00167418
0.000226284
0.00144798
0.000238885
0.00120604
0.00024884
0.000951016
0.000256032
0.000685641
0.000260387
0.000412899
0.000135568
0.000261848
2.60557e-05
0.00265762
6.70381e-08
5.25094e-05
0.00261706
7.8647e-05
0.00255426
0.000104041
0.00246595
0.000128356
0.00235157
0.000151292
0.00221199
0.000172581
0.0020485
0.000191976
0.00186281
0.000209255
0.0016569
0.000224222
0.00143301
0.000236708
0.00119355
0.000246573
0.000941152
0.000253701
0.000678514
0.000258017
0.000408584
0.000134118
0.000259469
2.58145e-05
0.00263173
7.12807e-08
5.20275e-05
0.00259085
7.79272e-05
0.00252836
0.00010309
0.00244078
0.000127184
0.00232747
0.000149912
0.00218926
0.000171008
0.0020274
0.000190226
0.00184359
0.000207348
0.00163978
0.000222179
0.00141818
0.000234551
0.00118118
0.000244326
0.000931377
0.00025139
0.000671449
0.000255668
0.000404305
0.000132674
0.00025711
2.55753e-05
0.00260608
7.55331e-08
5.15498e-05
0.00256487
7.72139e-05
0.0025027
0.000102148
0.00241585
0.000126023
0.0023036
0.000148544
0.00216674
0.000169448
0.0020065
0.000188492
0.00182454
0.000205458
0.00162281
0.000220155
0.00140348
0.000232414
0.00116892
0.000242101
0.000921691
0.000249101
0.00066445
0.00025334
0.000400066
0.000131246
0.000254771
2.53383e-05
0.00258067
7.97392e-08
5.10765e-05
0.00253914
7.6507e-05
0.00247727
0.000101214
0.00239114
0.000124872
0.00227994
0.000147189
0.00214442
0.000167903
0.00198579
0.000186774
0.00180567
0.000203586
0.001606
0.000218148
0.00138892
0.000230297
0.00115677
0.000239895
0.000912092
0.000246832
0.000657512
0.000251034
0.000395863
0.000129825
0.000252452
2.51034e-05
0.00255548
8.38472e-08
5.06074e-05
0.00251363
7.58065e-05
0.00245207
0.000100289
0.00236666
0.000123732
0.0022565
0.000145846
0.00212231
0.000166372
0.00196526
0.000185071
0.00178697
0.00020173
0.00158934
0.00021616
0.00137449
0.000228199
0.00114473
0.00023771
0.000902581
0.000244584
0.000650638
0.000248749
0.000391699
0.000128421
0.000250155
2.48705e-05
0.00253052
8.78099e-08
5.01425e-05
0.00248836
7.51124e-05
0.0024271
9.9372e-05
0.0023424
0.000122602
0.00223327
0.000144515
0.00210039
0.000164854
0.00194492
0.000183383
0.00176844
0.000199891
0.00157283
0.000214191
0.00136019
0.000226119
0.0011328
0.000235544
0.000893155
0.000242357
0.000643825
0.000246484
0.000387571
0.000127023
0.00024788
2.46398e-05
0.00250579
9.15933e-08
4.96818e-05
0.00246332
7.44244e-05
0.00240235
9.84634e-05
0.00231836
0.000121482
0.00221025
0.000143196
0.00207868
0.00016335
0.00192477
0.000181711
0.00175008
0.000198069
0.00155647
0.000212239
0.00134602
0.000224059
0.00112098
0.000233398
0.000883816
0.00024015
0.000637074
0.000244241
0.000383481
0.000125641
0.000245625
2.44112e-05
0.00248128
9.51734e-08
4.92252e-05
0.0024385
7.37428e-05
0.00237784
9.75631e-05
0.00229454
0.000120372
0.00218744
0.000141889
0.00205716
0.00016186
0.0019048
0.000180054
0.00173189
0.000196264
0.00154027
0.000210304
0.00133198
0.000222017
0.00110927
0.000231272
0.000874561
0.000237963
0.000630383
0.000242018
0.000379425
0.000124264
0.000243392
2.41846e-05
0.002457
9.85406e-08
4.87728e-05
0.00241392
7.30672e-05
0.00235354
9.66709e-05
0.00227094
0.000119273
0.00216484
0.000140594
0.00203584
0.000160384
0.00188501
0.000178412
0.00171386
0.000194475
0.0015242
0.000208388
0.00131807
0.000219995
0.00109766
0.000229165
0.00086539
0.000235796
0.000623753
0.000239815
0.000375408
0.000122903
0.000241178
2.39601e-05
0.00243294
1.01699e-07
4.83245e-05
0.00238955
7.23978e-05
0.00232947
9.57868e-05
0.00224755
0.000118183
0.00214244
0.000139311
0.00201472
0.00015892
0.0018654
0.000176785
0.00169599
0.000192702
0.00150829
0.000206488
0.00130428
0.00021799
0.00108616
0.000227078
0.000856302
0.000233649
0.000617182
0.000237632
0.000371423
0.000121548
0.000238984
2.37376e-05
0.00240909
1.04667e-07
4.78802e-05
0.00236541
7.17345e-05
0.00230561
9.49107e-05
0.00222437
0.000117104
0.00212025
0.000138039
0.00199378
0.00015747
0.00184597
0.000175173
0.00167829
0.000190945
0.00149252
0.000204606
0.00129062
0.000216004
0.00107476
0.000225009
0.000847296
0.000231521
0.000610671
0.000235469
0.000367477
0.000120209
0.00023681
2.35172e-05
0.00238547
1.07475e-07
4.744e-05
0.00234149
7.10771e-05
0.00228198
9.40425e-05
0.00220141
0.000116034
0.00209826
0.000136779
0.00197303
0.000156033
0.00182671
0.000173575
0.00166075
0.000189204
0.00147689
0.000202741
0.00127708
0.000214036
0.00106347
0.00022296
0.000838372
0.000229413
0.000604217
0.000233325
0.000363563
0.000118877
0.000234655
2.32988e-05
0.00236206
1.10165e-07
4.70037e-05
0.00231778
7.04258e-05
0.00225855
9.31822e-05
0.00217865
0.000114973
0.00207646
0.00013553
0.00195248
0.00015461
0.00180763
0.000171992
0.00164337
0.000187479
0.0014614
0.000200893
0.00126367
0.000212085
0.00105228
0.000220929
0.000829528
0.000227324
0.000597822
0.000231202
0.000359687
0.000117561
0.00023252
2.30824e-05
0.00233887
1.12781e-07
4.65715e-05
0.00229429
6.97803e-05
0.00223535
9.23297e-05
0.0021561
0.000113923
0.00205487
0.000134292
0.00193211
0.000153199
0.00178872
0.000170423
0.00162614
0.000185769
0.00144605
0.000199062
0.00125037
0.000210153
0.00104118
0.000218916
0.000820764
0.000225254
0.000591484
0.000229097
0.000355843
0.000116252
0.000230404
2.2868e-05
0.00231588
1.15373e-07
4.61432e-05
0.00227102
6.91407e-05
0.00221235
9.14849e-05
0.00213376
0.000112881
0.00203347
0.000133066
0.00191192
0.0001518
0.00176999
0.000168869
0.00160907
0.000184075
0.00143085
0.000197248
0.0012372
0.000208238
0.0010302
0.000216922
0.00081208
0.000223203
0.000585203
0.000227012
0.000352035
0.000114959
0.000228307
2.26556e-05
0.00229311
1.17984e-07
4.57188e-05
0.00224795
6.85069e-05
0.00218956
9.06478e-05
0.00211162
0.00011185
0.00201227
0.000131851
0.00189192
0.000150415
0.00175142
0.000167328
0.00159216
0.000182397
0.00141578
0.00019545
0.00122415
0.000206341
0.0010193
0.000214947
0.000803474
0.000221171
0.000578978
0.000224946
0.000348259
0.000113672
0.00022623
2.24452e-05
0.00227054
1.20654e-07
4.52982e-05
0.0022251
6.78789e-05
0.00216698
8.98183e-05
0.00208968
0.000110827
0.00199126
0.000130646
0.0018721
0.000149042
0.00173303
0.000165802
0.0015754
0.000180734
0.00140085
0.000193668
0.00121121
0.00020446
0.00100851
0.000212989
0.000794946
0.000219157
0.00057281
0.000222899
0.000344518
0.0001124
0.000224173
2.22367e-05
0.00224818
1.23407e-07
4.48816e-05
0.00220246
6.72566e-05
0.0021446
8.89963e-05
0.00206794
0.000109814
0.00197045
0.000129453
0.00185246
0.000147682
0.0017148
0.000164289
0.00155879
0.000179085
0.00138605
0.000191903
0.00119839
0.000202598
0.000997817
0.000211049
0.000786494
0.000217162
0.000566696
0.00022087
0.000340809
0.000111134
0.000222133
2.20302e-05
0.00222603
1.26258e-07
4.44687e-05
0.00218002
6.66399e-05
0.00212243
8.81817e-05
0.00204639
0.00010881
0.00194982
0.000128271
0.001833
0.000146334
0.00169674
0.00016279
0.00154234
0.000177452
0.00137139
0.000190154
0.00118569
0.000200752
0.00098722
0.000209127
0.000778119
0.000215185
0.000560639
0.00021886
0.000337135
0.000109884
0.000220113
2.18255e-05
0.00220407
1.29206e-07
4.40596e-05
0.00215778
6.60289e-05
0.00210046
8.73746e-05
0.00202505
0.000107815
0.00192938
0.000127099
0.00181372
0.000144998
0.00167884
0.000161305
0.00152603
0.000175834
0.00135686
0.000188421
0.00117311
0.000198923
0.000976718
0.000207222
0.000769819
0.000213226
0.000554634
0.000216869
0.000333491
0.000108639
0.00021811
2.16227e-05
0.00218232
1.32235e-07
4.36542e-05
0.00213575
6.54234e-05
0.00207869
8.65748e-05
0.0020039
0.00010683
0.00190912
0.000125938
0.00179461
0.000143674
0.0016611
0.000159833
0.00150987
0.000174231
0.00134246
0.000186703
0.00116063
0.00019711
0.000966311
0.000205335
0.000761595
0.000211285
0.000548685
0.000214895
0.000329882
0.00010741
0.000216126
2.14218e-05
0.00216076
1.35322e-07
4.32525e-05
0.00211392
6.48234e-05
0.00205712
8.57823e-05
0.00198294
0.000105853
0.00188905
0.000124787
0.00177568
0.000142362
0.00164353
0.000158375
0.00149386
0.000172642
0.00132819
0.000185002
0.00114827
0.000195314
0.000955998
0.000203465
0.000753444
0.000209362
0.000542787
0.00021294
0.000326303
0.000106188
0.00021416
2.12228e-05
0.0021394
1.38431e-07
4.28545e-05
0.00209229
6.42289e-05
0.00203575
8.49969e-05
0.00196217
0.000104885
0.00186916
0.000123647
0.00175692
0.000141063
0.00162611
0.00015693
0.00147799
0.000171068
0.00131406
0.000183315
0.00113603
0.000193535
0.000945778
0.000201612
0.000745367
0.000207456
0.000536944
0.000211002
0.000322757
0.00010498
0.000212212
2.10255e-05
0.00211823
1.41526e-07
4.24601e-05
0.00207085
6.36398e-05
0.00201457
8.42187e-05
0.00194159
0.000103926
0.00184946
0.000122517
0.00173832
0.000139775
0.00160885
0.000155498
0.00146227
0.000169508
0.00130005
0.000181645
0.00112389
0.000191772
0.000935651
0.000199776
0.000737362
0.000205568
0.000531152
0.000209082
0.000319242
0.000103778
0.000210281
2.08301e-05
0.00209726
1.4457e-07
4.20694e-05
0.00204961
6.30561e-05
0.00199358
8.34476e-05
0.0019212
0.000102975
0.00182993
0.000121398
0.0017199
0.000138499
0.00159175
0.000154079
0.00144669
0.000167962
0.00128616
0.000179989
0.00111186
0.000190025
0.000925615
0.000197957
0.00072943
0.000203697
0.000525413
0.00020718
0.000315759
0.000102592
0.000208369
2.06364e-05
0.00207647
1.47527e-07
4.16822e-05
0.00202857
6.24776e-05
0.00197279
8.26835e-05
0.00190099
0.000102034
0.00181058
0.000120289
0.00170165
0.000137234
0.00157481
0.000152674
0.00143125
0.00016643
0.00127241
0.000178349
0.00109994
0.000188294
0.000915669
0.000196155
0.000721569
0.000201843
0.000519724
0.000205295
0.000312306
0.000101411
0.000206473
2.04446e-05
0.00205588
1.5037e-07
4.12985e-05
0.00200771
6.19045e-05
0.00195218
8.19264e-05
0.00188097
0.0001011
0.0017914
0.00011919
0.00168356
0.000135981
0.00155801
0.000151281
0.00141595
0.000164913
0.00125877
0.000176723
0.00108813
0.000186579
0.000905814
0.000194369
0.00071378
0.000200006
0.000514088
0.000203428
0.000308885
0.000100245
0.000204596
2.02544e-05
0.00203547
1.53077e-07
4.09183e-05
0.00198705
6.13365e-05
0.00193176
8.11761e-05
0.00186113
0.000100176
0.0017724
0.000118101
0.00166563
0.00013474
0.00154138
0.0001499
0.00140079
0.000163409
0.00124527
0.000175113
0.00107643
0.000184879
0.000896047
0.000192599
0.000706059
0.000198186
0.000508501
0.000201577
0.000305493
9.90838e-05
0.000202735
2.00661e-05
0.00201525
1.55638e-07
4.05416e-05
0.00196658
6.07737e-05
0.00191153
8.04327e-05
0.00184147
9.92594e-05
0.00175358
0.000117021
0.00164787
0.000133509
0.00152489
0.000148533
0.00138576
0.000161919
0.00123188
0.000173517
0.00106483
0.000183195
0.000886369
0.000190846
0.000698409
0.000196382
0.000502965
0.000199743
0.000302133
9.79376e-05
0.000200891
1.98794e-05
0.00199521
1.58051e-07
4.01683e-05
0.00194629
6.02161e-05
0.00189148
7.96961e-05
0.00182199
9.83515e-05
0.00173492
0.000115952
0.00163027
0.00013229
0.00150855
0.000147178
0.00137088
0.000160443
0.00121861
0.000171936
0.00105334
0.000181527
0.000876777
0.000189108
0.000690827
0.000194595
0.000497477
0.000197927
0.0002988
9.67967e-05
0.000199065
1.96944e-05
0.00197536
1.60324e-07
3.97984e-05
0.00192618
5.96635e-05
0.00187162
7.89661e-05
0.00180269
9.74519e-05
0.00171644
0.000114893
0.00161283
0.000131083
0.00149236
0.000145835
0.00135612
0.00015898
0.00120547
0.000170369
0.00104195
0.000179874
0.000867273
0.000187387
0.000683314
0.000192825
0.00049204
0.000196126
0.0002955
9.56704e-05
0.000197255
1.95111e-05
0.00195568
1.62473e-07
3.94318e-05
0.00190626
5.9116e-05
0.00185193
7.82429e-05
0.00178356
9.65605e-05
0.00169812
0.000113843
0.00159555
0.000129886
0.00147632
0.000144504
0.0013415
0.000157531
0.00119244
0.000168817
0.00103066
0.000178236
0.000857853
0.000185681
0.000675868
0.00019107
0.000486651
0.000194343
0.000292226
9.45492e-05
0.000195461
1.93295e-05
0.00193619
1.64523e-07
3.90686e-05
0.00188652
5.85734e-05
0.00183243
7.75262e-05
0.00176461
9.56772e-05
0.00167997
0.000112802
0.00157842
0.0001287
0.00146042
0.000143186
0.00132702
0.000156094
0.00117953
0.000167279
0.00101948
0.000176613
0.00084852
0.000183991
0.00066849
0.000189332
0.000481311
0.000192575
0.000288984
9.34425e-05
0.000193684
1.91496e-05
0.00191687
1.66505e-07
3.87087e-05
0.00186696
5.80358e-05
0.0018131
7.6816e-05
0.00174583
9.4802e-05
0.00166198
0.000111772
0.00156145
0.000127525
0.00144466
0.00014188
0.00131266
0.000154671
0.00116674
0.000165755
0.00100839
0.000175004
0.00083927
0.000182317
0.000661177
0.00018761
0.000476017
0.000190824
0.000285769
9.23407e-05
0.000191923
1.89712e-05
0.00189773
1.68453e-07
3.83521e-05
0.00184758
5.75031e-05
0.00179395
7.61124e-05
0.00172722
9.39348e-05
0.00164416
0.00011075
0.00154464
0.000126361
0.00142905
0.000140585
0.00129844
0.000153261
0.00115407
0.000164245
0.000997412
0.000173411
0.000830103
0.000180658
0.000653931
0.000185903
0.000470772
0.000189089
0.000282584
9.12531e-05
0.000190178
1.87946e-05
0.00187877
1.704e-07
3.79988e-05
0.00182838
5.69753e-05
0.00177497
7.54152e-05
0.00170878
9.30755e-05
0.0016265
0.000109738
0.00152797
0.000125207
0.00141358
0.000139303
0.00128434
0.000151864
0.0011415
0.000162748
0.000986527
0.000171832
0.000821019
0.000179014
0.000646749
0.000184212
0.000465573
0.00018737
0.000279425
9.01701e-05
0.00018845
1.86195e-05
0.00185997
1.7238e-07
3.76486e-05
0.00180935
5.64523e-05
0.00175617
7.47243e-05
0.00169051
9.22241e-05
0.001609
0.000108736
0.00151146
0.000124064
0.00139826
0.000138032
0.00127037
0.00015048
0.00112906
0.000161266
0.000975742
0.000170268
0.000812017
0.000177385
0.000639632
0.000182537
0.000460422
0.000185666
0.000276297
8.91012e-05
0.000186737
1.8446e-05
0.00184135
1.74419e-07
3.73017e-05
0.00179049
5.59341e-05
0.00173754
7.40398e-05
0.0016724
9.13804e-05
0.00159166
0.000107742
0.0014951
0.000122932
0.00138307
0.000136773
0.00125653
0.000149108
0.00111672
0.000159797
0.000965053
0.000168718
0.000803096
0.000175771
0.000632579
0.000180877
0.000455315
0.000183979
0.000273194
8.80368e-05
0.00018504
1.82741e-05
0.0018229
1.76534e-07
3.69579e-05
0.00177181
5.54206e-05
0.00171907
7.33615e-05
0.00165446
9.05445e-05
0.00157447
0.000106758
0.00147889
0.000121809
0.00136801
0.000135526
0.00124282
0.000147749
0.0011045
0.000158341
0.000954461
0.000167182
0.000794255
0.000174172
0.000625589
0.000179232
0.000450255
0.000182306
0.000270121
8.69863e-05
0.000183359
1.81038e-05
0.00180462
1.78736e-07
3.66173e-05
0.0017533
5.49118e-05
0.00170078
7.26895e-05
0.00163668
8.97163e-05
0.00155745
0.000105782
0.00146282
0.000120698
0.0013531
0.00013429
0.00122922
0.000146403
0.00109238
0.000156899
0.000943964
0.00016566
0.000785494
0.000172587
0.000618662
0.000177602
0.000445239
0.000180649
0.000267073
8.59401e-05
0.000181693
1.7935e-05
0.0017865
1.81024e-07
3.62798e-05
0.00173495
5.44077e-05
0.00168265
7.20236e-05
0.00161907
8.88956e-05
0.00154058
0.000104816
0.0014469
0.000119596
0.00133832
0.000133065
0.00121575
0.000145069
0.00108038
0.000155471
0.000933563
0.000164153
0.000776812
0.000171017
0.000611797
0.000175988
0.00044027
0.000179008
0.000264055
8.49077e-05
0.000180042
1.77678e-05
0.00176855
1.83387e-07
3.59454e-05
0.00171677
5.39081e-05
0.00166469
7.13637e-05
0.00160161
8.80825e-05
0.00152386
0.000103858
0.00143112
0.000118504
0.00132367
0.000131852
0.00120241
0.000143747
0.00106849
0.000154055
0.000923255
0.000162659
0.000768207
0.000169462
0.000604994
0.000174388
0.000435343
0.000177381
0.00026106
8.38793e-05
0.000178406
1.76021e-05
0.00175077
1.85806e-07
3.5614e-05
0.00169876
5.34132e-05
0.00164689
7.071e-05
0.00158432
8.72768e-05
0.00150729
0.000102909
0.00141549
0.000117423
0.00130916
0.000130649
0.00118918
0.000142437
0.0010567
0.000152652
0.00091304
0.000161179
0.000759681
0.000167921
0.000598252
0.000172803
0.000430462
0.000175769
0.000258095
8.28646e-05
0.000176786
1.74379e-05
0.00173314
1.88254e-07
3.52857e-05
0.00168091
5.29228e-05
0.00162925
7.00622e-05
0.00156718
8.64785e-05
0.00149087
0.000101969
0.0014
0.000116351
0.00129478
0.000129458
0.00117607
0.000141139
0.00104502
0.000151262
0.000902916
0.000159712
0.00075123
0.000166394
0.00059157
0.000171232
0.000425623
0.000174172
0.000255154
8.18537e-05
0.000175181
1.72752e-05
0.00171567
1.907e-07
3.49605e-05
0.00166323
5.24369e-05
0.00161178
6.94204e-05
0.00155019
8.56875e-05
0.00147461
0.000101037
0.00138465
0.000115289
0.00128052
0.000128278
0.00116309
0.000139853
0.00103344
0.000149885
0.000892885
0.000158259
0.000742857
0.000164881
0.000584948
0.000169676
0.000420829
0.00017259
0.000252241
8.08563e-05
0.00017359
1.71141e-05
0.00169837
1.93114e-07
3.46382e-05
0.0016457
5.19555e-05
0.00159446
6.87845e-05
0.00153336
8.49037e-05
0.00145849
0.000100114
0.00136944
0.000114237
0.0012664
0.000127108
0.00115021
0.000138579
0.00102197
0.000148521
0.000882943
0.00015682
0.000734557
0.000163382
0.000578385
0.000168134
0.000416076
0.000171023
0.000249351
7.98625e-05
0.000172014
1.69544e-05
0.00168122
1.95463e-07
3.43188e-05
0.00162834
5.14784e-05
0.0015773
6.81544e-05
0.00151669
8.41272e-05
0.00144251
9.92e-05
0.00135437
0.000113195
0.00125241
0.000125949
0.00113746
0.000137317
0.0010106
0.000147169
0.000873092
0.000155393
0.000726334
0.000161897
0.000571882
0.000166607
0.000411367
0.00016947
0.000246489
7.88821e-05
0.000170452
1.67962e-05
0.00166422
1.97722e-07
3.40024e-05
0.00161113
5.10058e-05
0.0015603
6.753e-05
0.00150016
8.33578e-05
0.00142669
9.82939e-05
0.00133943
0.000112162
0.00123854
0.000124801
0.00112482
0.000136066
0.000999335
0.00014583
0.000863328
0.00015398
0.000718183
0.000160425
0.000565436
0.000165093
0.000406698
0.000167931
0.00024365
7.79051e-05
0.000168905
1.66395e-05
0.00164738
1.99872e-07
3.36889e-05
0.00159408
5.05375e-05
0.00154345
6.69115e-05
0.00148379
8.25955e-05
0.001411
9.73961e-05
0.00132463
0.000111139
0.0012248
0.000123664
0.0011123
0.000134827
0.000988172
0.000144503
0.000853653
0.00015258
0.000710106
0.000158967
0.000559049
0.000163594
0.000402072
0.000166406
0.000240839
7.69413e-05
0.000167372
1.64842e-05
0.0016307
2.01902e-07
3.33783e-05
0.00157719
5.00735e-05
0.00152675
6.62986e-05
0.00146756
8.18402e-05
0.00139546
9.65066e-05
0.00130997
0.000110125
0.00121118
0.000122537
0.00109988
0.0001336
0.000977108
0.000143188
0.000844064
0.000151192
0.000702101
0.000157523
0.000552717
0.000162108
0.000397486
0.000164896
0.00023805
7.59808e-05
0.000165853
1.63303e-05
0.00161416
2.0381e-07
3.30706e-05
0.00156045
4.96138e-05
0.00151021
6.56913e-05
0.00145149
8.10918e-05
0.00138006
9.56252e-05
0.00129543
0.00010912
0.00119768
0.00012142
0.00108758
0.000132383
0.000966145
0.000141885
0.000834563
0.000149818
0.000694168
0.000156092
0.000546444
0.000160636
0.000392943
0.000163399
0.000235288
7.50333e-05
0.000164349
1.61779e-05
0.00159778
2.05603e-07
3.27657e-05
0.00154386
4.91583e-05
0.00149382
6.50896e-05
0.00143556
8.03503e-05
0.0013648
9.4752e-05
0.00128103
0.000108125
0.00118431
0.000120313
0.00107539
0.000131178
0.00095528
0.000140594
0.000825146
0.000148456
0.000686306
0.000154674
0.000540225
0.000159178
0.000388438
0.000161916
0.000232548
7.40889e-05
0.000162858
1.60269e-05
0.00158154
2.07299e-07
3.24636e-05
0.00152742
4.8707e-05
0.00147757
6.44935e-05
0.00141977
7.96156e-05
0.00134968
9.38868e-05
0.00126676
0.000107139
0.00117106
0.000119217
0.00106332
0.000129984
0.000944514
0.000139316
0.000815814
0.000147107
0.000678515
0.000153269
0.000534064
0.000157733
0.000383975
0.000160447
0.000229835
7.31574e-05
0.000161381
1.58772e-05
0.00156546
2.0892e-07
3.21643e-05
0.00151114
4.82598e-05
0.00146148
6.39028e-05
0.00140413
7.88877e-05
0.00133469
9.30296e-05
0.00125262
0.000106162
0.00115793
0.000118131
0.00105135
0.000128801
0.000933844
0.000138049
0.000806566
0.00014577
0.000670793
0.000151877
0.000527956
0.000156301
0.00037955
0.000158992
0.000227142
7.22288e-05
0.000159918
1.5729e-05
0.00154952
2.10491e-07
3.18677e-05
0.001495
4.78167e-05
0.00144553
6.33176e-05
0.00138863
7.81665e-05
0.00131984
9.21802e-05
0.0012386
0.000105193
0.00114491
0.000117055
0.00103948
0.000127628
0.000923271
0.000136793
0.000797401
0.000144445
0.000663142
0.000150498
0.000521904
0.000154883
0.000375167
0.00015755
0.000224477
7.1313e-05
0.000158468
1.55821e-05
0.00153372
2.12043e-07
3.15738e-05
0.00147901
4.73778e-05
0.00142972
6.27378e-05
0.00137327
7.74519e-05
0.00130513
9.13387e-05
0.00122472
0.000104234
0.00113202
0.000115989
0.00102773
0.000126467
0.000912792
0.00013555
0.000788319
0.000143133
0.000655558
0.000149132
0.000515904
0.000153478
0.00037082
0.000156121
0.000221831
7.03998e-05
0.000157031
1.54366e-05
0.00151807
2.13601e-07
3.12827e-05
0.00146316
4.69428e-05
0.00141406
6.21632e-05
0.00135804
7.67439e-05
0.00129055
9.0505e-05
0.00121095
0.000103284
0.00111924
0.000114933
0.00101608
0.000125317
0.000902408
0.000134317
0.000779318
0.000141833
0.000648042
0.000147778
0.00050996
0.000152085
0.000366513
0.000154706
0.000219212
6.94994e-05
0.000155608
1.52924e-05
0.00150257
2.15188e-07
3.09942e-05
0.00144746
4.65119e-05
0.00139855
6.1594e-05
0.00134296
7.60424e-05
0.0012761
8.96789e-05
0.00119732
0.000102342
0.00110657
0.000113886
0.00100454
0.000124177
0.000892117
0.000133097
0.000770397
0.000140545
0.000640593
0.000146437
0.000504067
0.000150706
0.000362243
0.000153303
0.000216614
6.86013e-05
0.000154199
1.51496e-05
0.0014872
2.16824e-07
3.07084e-05
0.0014319
4.60849e-05
0.00138317
6.10301e-05
0.00132802
7.53474e-05
0.00126178
8.88605e-05
0.00118381
0.00010141
0.00109403
0.000112849
0.000993098
0.000123047
0.000881919
0.000131887
0.000761557
0.000139269
0.000633212
0.000145108
0.000498228
0.000149339
0.000358013
0.000151914
0.00021404
6.77159e-05
0.000152802
1.50081e-05
0.00147197
2.18518e-07
3.04252e-05
0.00141648
4.56619e-05
0.00136793
6.04713e-05
0.00131321
7.46588e-05
0.00124759
8.80496e-05
0.00117041
0.000100485
0.00108159
0.000111822
0.000981762
0.000121928
0.000871813
0.000130689
0.000752796
0.000138004
0.000625896
0.000143792
0.00049244
0.000147985
0.000353819
0.000150538
0.000211487
6.68327e-05
0.000151418
1.48678e-05
0.00145689
2.20274e-07
3.01447e-05
0.00140121
4.52428e-05
0.00135283
5.99176e-05
0.00129853
7.39766e-05
0.00123353
8.72462e-05
0.00115714
9.95697e-05
0.00106927
0.000110804
0.000970528
0.000120819
0.000861797
0.000129502
0.000744114
0.000136752
0.000618646
0.000142488
0.000486705
0.000146644
0.000349663
0.000149174
0.000208958
6.5962e-05
0.000150047
1.47289e-05
0.00144193
2.22088e-07
2.98667e-05
0.00138607
4.48275e-05
0.00133787
5.93691e-05
0.00128399
7.33006e-05
0.0012196
8.64502e-05
0.00114399
9.86625e-05
0.00105705
0.000109796
0.000959394
0.000119721
0.000851872
0.000128325
0.000735509
0.000135511
0.00061146
0.000141196
0.000481019
0.000145315
0.000345542
0.000147823
0.000206449
6.50933e-05
0.000148689
1.45912e-05
0.00142712
2.2395e-07
2.95913e-05
0.00137107
4.4416e-05
0.00132305
5.88257e-05
0.00126958
7.26309e-05
0.0012058
8.56616e-05
0.00113096
9.77637e-05
0.00104495
0.000108796
0.000948362
0.000118633
0.000842035
0.00012716
0.000726982
0.000134281
0.000604339
0.000139915
0.000475386
0.000143999
0.00034146
0.000146484
0.000203965
6.42371e-05
0.000147343
1.44548e-05
0.00141244
2.25844e-07
2.93184e-05
0.0013562
4.40084e-05
0.00130836
5.82872e-05
0.0012553
7.19674e-05
0.00119212
8.48803e-05
0.00111805
9.68732e-05
0.00103296
0.000107807
0.000937428
0.000117555
0.000832287
0.000126006
0.000718531
0.000133063
0.000597281
0.000138647
0.000469801
0.000142694
0.000337412
0.000145158
0.0002015
6.33826e-05
0.00014601
1.43197e-05
0.00139789
2.27751e-07
2.9048e-05
0.00134148
4.36045e-05
0.0012938
5.77537e-05
0.00124115
7.131e-05
0.00117856
8.41062e-05
0.00110526
9.59909e-05
0.00102107
0.000106826
0.000926593
0.000116487
0.000822627
0.000124862
0.000710156
0.000131856
0.000590287
0.000137391
0.000464267
0.000141402
0.000333402
0.000143845
0.000199059
6.25406e-05
0.000144689
1.41858e-05
0.00138348
2.29647e-07
2.87801e-05
0.00132688
4.32043e-05
0.00127938
5.72252e-05
0.00122713
7.06587e-05
0.00116513
8.33392e-05
0.00109257
9.51168e-05
0.0010093
0.000105854
0.000915855
0.000115428
0.000813052
0.000123729
0.000701855