/*--------------------------------*- C++ -*----------------------------------*\
  =========                 |
  \\      /  F ield         | OpenFOAM: The Open Source CFD Toolbox
   \\    /   O peration     | Website:  https://openfoam.org
    \\  /    A nd           | Version:  6.0
     \\/     M anipulation  |
\*---------------------------------------------------------------------------*/
FoamFile
{
    version     2.0;
    format      ascii;
    class       volVectorField;
    location    "9.8";
    object      U;
}
// * * * * * * * * * * * * * * * * * * * * * * * * * * * * * * * * * * * * * //

dimensions      [0 1 -1 0 0 0 0];

internalField   nonuniform List<vector> 
34500
(
(0.999996 6.93255e-06 -4.63304e-17)
(0.99997 -6.49694e-06 -8.13498e-18)
(0.99992 -3.20627e-05 1.42206e-16)
(0.999855 -7.5854e-05 -1.07643e-16)
(0.999783 -0.000139779 3.35437e-17)
(0.999717 -0.000221521 -1.01441e-16)
(0.999666 -0.000316624 -1.00954e-16)
(0.999635 -0.000419102 8.64956e-17)
(0.999629 -0.000521602 1.07209e-16)
(0.999649 -0.000616749 -6.82694e-16)
(0.999693 -0.000696011 -1.03952e-15)
(0.999755 -0.000760906 1.26666e-16)
(0.99983 -0.000797543 4.33426e-16)
(0.999971 -0.000875114 -2.06815e-16)
(0.99878 -0.0014598 7.59088e-17)
(0.999992 2.05441e-05 3.24463e-17)
(0.999944 -1.17968e-05 9.7629e-17)
(0.999856 -6.64422e-05 7.17465e-17)
(0.99974 -0.000152525 -3.02143e-16)
(0.999617 -0.000272935 -5.05748e-16)
(0.999504 -0.000422884 -5.50242e-17)
(0.999419 -0.000594387 2.55417e-16)
(0.999372 -0.000777241 -6.76951e-16)
(0.99937 -0.000957789 -1.78533e-16)
(0.999414 -0.00112256 6.8097e-16)
(0.999502 -0.00125431 1.26102e-15)
(0.999624 -0.0013555 -6.28382e-16)
(0.999756 -0.00139882 -9.82653e-16)
(1.00006 -0.00146772 -3.93874e-16)
(0.99881 -0.00202527 5.1832e-16)
(0.999989 3.29154e-05 1.04675e-17)
(0.999947 -1.37158e-05 -1.22907e-16)
(0.999871 -8.04297e-05 -1.25149e-16)
(0.999773 -0.000173005 4.5557e-16)
(0.999671 -0.000293052 -2.86123e-17)
(0.999582 -0.000434949 -1.63963e-16)
(0.999518 -0.000591327 9.77835e-17)
(0.999489 -0.000754183 3.84381e-16)
(0.9995 -0.000911998 2.34853e-19)
(0.999552 -0.00105401 -3.9262e-16)
(0.99964 -0.00116399 -7.2727e-16)
(0.999761 -0.00124525 4.13121e-16)
(0.99987 -0.00127652 2.24395e-16)
(1.00019 -0.00130621 1.64054e-16)
(0.999381 -0.00156034 -2.4352e-16)
(0.999985 4.383e-05 -1.73545e-17)
(0.999949 -1.74143e-05 -9.02311e-18)
(0.999888 -9.58178e-05 4.83144e-17)
(0.99981 -0.00019382 -3.05321e-16)
(0.999731 -0.000312229 3.72111e-16)
(0.999665 -0.000445299 3.29796e-16)
(0.999622 -0.00058664 -3.99271e-16)
(0.999609 -0.000730367 -4.19665e-16)
(0.99963 -0.000867768 4.34666e-16)
(0.999685 -0.000991284 -4.70101e-16)
(0.99977 -0.00108742 -2.44163e-16)
(0.999884 -0.00116077 -3.84799e-16)
(0.999968 -0.00119979 5.41309e-16)
(1.00026 -0.00122457 -4.79128e-17)
(0.999719 -0.00144011 2.14198e-17)
(0.999979 5.38298e-05 -1.70434e-17)
(0.999944 -2.28443e-05 1.53304e-16)
(0.999885 -0.000116476 6.95457e-17)
(0.999812 -0.000227788 1.6972e-16)
(0.999738 -0.000357688 4.67323e-17)
(0.999678 -0.000500443 -1.58186e-16)
(0.999642 -0.000649585 1.02475e-16)
(0.999637 -0.000799201 2.6615e-16)
(0.999666 -0.000940884 -4.17396e-16)
(0.999728 -0.0010676 -2.30794e-16)
(0.999819 -0.00116648 1.00549e-15)
(0.999943 -0.00124189 6.33373e-16)
(1.00003 -0.00128644 -2.89165e-16)
(1.00029 -0.00130117 5.91069e-16)
(0.999935 -0.00148646 -5.86627e-16)
(0.999971 6.33251e-05 1.83519e-17)
(0.999935 -2.8433e-05 -9.48036e-17)
(0.999877 -0.000137571 -1.86317e-16)
(0.999804 -0.000263537 -5.29269e-17)
(0.999733 -0.000407455 1.09403e-16)
(0.999675 -0.000563675 -1.08805e-16)
(0.999644 -0.000725252 1.48111e-16)
(0.999645 -0.000885518 1.31121e-16)
(0.999683 -0.0010351 2.90832e-16)
(0.999757 -0.00116628 -1.00179e-16)
(0.99986 -0.00126563 2.87529e-18)
(0.999998 -0.00133617 -3.88776e-16)
(1.00009 -0.00137175 1.82837e-17)
(1.00033 -0.0013592 -4.68006e-16)
(1.00013 -0.00145747 7.40773e-17)
(0.999963 7.24322e-05 3.25544e-18)
(0.999927 -3.3693e-05 -3.55851e-17)
(0.999872 -0.000156872 -2.90158e-17)
(0.999804 -0.00029501 1.75712e-16)
(0.999739 -0.000449205 -2.20404e-16)
(0.99969 -0.000614002 2.75371e-16)
(0.999667 -0.000782264 -6.19003e-16)
(0.999678 -0.000947012 -3.69674e-16)
(0.999726 -0.00109799 -1.51512e-16)
(0.99981 -0.00122705 6.7089e-16)
(0.999923 -0.00132037 -7.67646e-16)
(1.00007 -0.00137977 2.97742e-16)
(1.00018 -0.00140146 4.55548e-16)
(1.00039 -0.00136193 -9.57094e-17)
(1.00029 -0.00139554 -1.20629e-16)
(0.999953 8.1216e-05 1.51162e-17)
(0.999919 -3.88587e-05 3.2284e-17)
(0.999869 -0.000175185 2.50258e-17)
(0.999809 -0.000323989 -1.50841e-16)
(0.999754 -0.000486174 3.28792e-16)
(0.999715 -0.000656481 -1.39549e-16)
(0.999703 -0.000827887 2.01471e-16)
(0.999725 -0.000993536 -1.46204e-16)
(0.999783 -0.00114266 3.97368e-16)
(0.999878 -0.00126701 1.77646e-16)
(1 -0.0013528 2.44579e-16)
(1.00016 -0.00140112 -5.64634e-17)
(1.00028 -0.0014119 -5.04e-16)
(1.00046 -0.00135475 1.13683e-15)
(1.00043 -0.00135935 1.8639e-16)
(0.999942 8.97907e-05 -1.12157e-17)
(0.999909 -4.40911e-05 9.89452e-17)
(0.999864 -0.000193451 1.50777e-16)
(0.999812 -0.000352943 1.11898e-16)
(0.999767 -0.000523206 -4.88558e-16)
(0.999739 -0.000699013 1.40927e-16)
(0.999739 -0.000873517 3.20603e-16)
(0.999771 -0.00104008 7.72182e-16)
(0.99984 -0.00118767 -3.85231e-16)
(0.999945 -0.00130805 8.99965e-17)
(1.00008 -0.00138771 4.48787e-16)
(1.00024 -0.00142721 -3.23484e-16)
(1.00037 -0.00143036 -1.5388e-16)
(1.00054 -0.00136247 -3.80419e-16)
(1.00055 -0.00135076 8.39836e-17)
(0.999931 9.82973e-05 4.06843e-17)
(0.999898 -4.93379e-05 -8.97272e-17)
(0.999857 -0.000211836 8.85123e-18)
(0.999813 -0.000382462 -1.1016e-16)
(0.999777 -0.000561559 4.10546e-16)
(0.99976 -0.000743706 7.9589e-17)
(0.999771 -0.00092215 2.70155e-16)
(0.999815 -0.00109042 -5.72874e-16)
(0.999894 -0.0012374 4.15718e-17)
(1.00001 -0.00135494 -7.86485e-17)
(1.00015 -0.00143005 -1.39593e-16)
(1.00032 -0.0014627 4.41023e-17)
(1.00046 -0.00145999 5.91774e-16)
(1.00063 -0.00138479 -8.03597e-16)
(1.00066 -0.00135869 -2.6927e-16)
(0.999918 0.000106858 -2.62209e-17)
(0.999885 -5.45063e-05 3.52459e-17)
(0.999848 -0.000230227 -1.47507e-16)
(0.99981 -0.000412366 2.49911e-16)
(0.999784 -0.000600976 -3.61501e-16)
(0.999777 -0.00079027 -3.0301e-16)
(0.999799 -0.000973457 -3.38764e-16)
(0.999854 -0.00114414 3.91021e-17)
(0.999945 -0.00129129 -8.13849e-17)
(1.00007 -0.00140691 -4.24341e-16)
(1.00022 -0.00147874 -7.20802e-16)
(1.0004 -0.00150607 2.8567e-16)
(1.00055 -0.00149833 -3.28148e-16)
(1.00071 -0.00141717 9.06367e-16)
(1.00077 -0.00137624 5.3711e-17)
(0.999904 0.000115581 -2.45526e-17)
(0.999871 -5.95326e-05 -1.04221e-16)
(0.999837 -0.00024856 1.50717e-16)
(0.999806 -0.000442561 -2.34128e-16)
(0.999787 -0.000641337 7.68579e-17)
(0.99979 -0.000838648 4.54107e-16)
(0.999823 -0.00102752 5.53836e-17)
(0.99989 -0.0012015 -6.73366e-17)
(0.999992 -0.00134964 1.81501e-16)
(1.00013 -0.00146417 -1.5687e-16)
(1.00028 -0.0015336 -9.50474e-17)
(1.00047 -0.00155641 -6.67511e-17)
(1.00064 -0.00154326 -2.86984e-16)
(1.0008 -0.00145543 -6.2101e-16)
(1.00088 -0.00139711 1.24135e-17)
(0.999888 0.000124551 -2.17645e-18)
(0.999855 -6.43732e-05 1.4048e-16)
(0.999825 -0.000266808 -2.21492e-16)
(0.999799 -0.000472999 8.33985e-17)
(0.999788 -0.000682547 -9.35534e-17)
(0.999801 -0.000888731 -1.54737e-16)
(0.999844 -0.00108425 -3.8888e-17)
(0.999923 -0.00126243 3.64991e-16)
(1.00004 -0.0014123 -6.30148e-16)
(1.00018 -0.00152622 4.2019e-16)
(1.00035 -0.00159338 2.20457e-16)
(1.00054 -0.00161137 1.84022e-16)
(1.00072 -0.00159115 7.49192e-16)
(1.0009 -0.0014944 7.29695e-16)
(1.00099 -0.00141589 5.48625e-16)
(0.999871 0.000133844 8.3025e-18)
(0.999838 -6.89819e-05 5.28708e-17)
(0.999811 -0.000284902 1.76044e-16)
(0.99979 -0.000503502 5.57653e-17)
(0.999787 -0.000724216 1.70624e-16)
(0.999809 -0.000939837 1.68041e-16)
(0.999863 -0.00114265 -1.18457e-17)
(0.999953 -0.00132556 4.92922e-17)
(1.00008 -0.00147745 9.37611e-16)
(1.00024 -0.00159062 -1.13897e-16)
(1.00041 -0.0016549 5.42091e-16)
(1.00062 -0.00166695 -7.38888e-16)
(1.00081 -0.00163759 1.36939e-16)
(1.00099 -0.00152965 -1.34424e-15)
(1.00111 -0.00143049 -6.16532e-16)
(0.999853 0.000143508 9.93884e-18)
(0.99982 -7.33271e-05 -1.17668e-16)
(0.999795 -0.000302772 1.54776e-16)
(0.99978 -0.000533848 -2.24084e-16)
(0.999784 -0.000765826 1.56826e-16)
(0.999816 -0.000991012 2.07191e-17)
(0.999881 -0.00120124 1.95003e-16)
(0.999982 -0.00138889 -2.59984e-16)
(1.00012 -0.00154257 -8.38965e-16)
(1.00029 -0.00165444 2.49245e-16)
(1.00048 -0.00171486 -5.60131e-16)
(1.00069 -0.00171976 1.12803e-16)
(1.00089 -0.0016798 -4.90136e-16)
(1.00108 -0.00155973 2.65601e-16)
(1.00123 -0.00144236 -1.08528e-16)
(0.999834 0.000153573 3.32353e-17)
(0.9998 -7.73935e-05 7.18785e-17)
(0.999779 -0.000320379 -3.58919e-16)
(0.999769 -0.000563897 2.88358e-16)
(0.999782 -0.000807017 -2.79935e-16)
(0.999823 -0.00104156 -3.72941e-16)
(0.999899 -0.00125893 -3.82903e-16)
(1.00001 -0.00145092 3.37571e-16)
(1.00016 -0.00160589 7.18808e-16)
(1.00034 -0.00171581 1.63008e-16)
(1.00054 -0.00177156 9.46964e-17)
(1.00077 -0.00176863 7.00765e-17)
(1.00098 -0.00171774 -7.32797e-16)
(1.00118 -0.00158616 6.4377e-17)
(1.00135 -0.00145463 6.32806e-16)
(0.999813 0.000164045 -8.96511e-17)
(0.999779 -8.11915e-05 -9.23858e-17)
(0.999761 -0.000337748 3.42814e-17)
(0.999758 -0.000593656 -2.64316e-16)
(0.999779 -0.000847737 -1.79653e-17)
(0.999831 -0.0010913 4.8161e-16)
(0.999918 -0.00131536 5.50661e-17)
(1.00004 -0.0015112 3.04056e-16)
(1.00021 -0.00166698 -6.02804e-16)
(1.0004 -0.00177451 -3.09633e-16)
(1.00061 -0.00182526 4.44542e-16)
(1.00085 -0.00181459 -1.49044e-16)
(1.00107 -0.00175347 4.83604e-16)
(1.00127 -0.001612 7.49322e-16)
(1.00146 -0.0014703 -5.9849e-17)
(0.99979 0.000174917 2.80856e-17)
(0.999757 -8.4741e-05 1.14741e-17)
(0.999743 -0.000354936 1.15608e-16)
(0.999746 -0.000623244 2.25852e-18)
(0.999777 -0.000888182 9.88528e-17)
(0.999839 -0.00114053 -2.89604e-16)
(0.999939 -0.00137092 5.98176e-16)
(1.00008 -0.00157025 -1.53466e-16)
(1.00025 -0.00172657 6.52402e-16)
(1.00046 -0.00183165 -3.41288e-16)
(1.00068 -0.00187761 -5.4339e-16)
(1.00092 -0.00185988 5.2442e-16)
(1.00116 -0.00178972 -8.84107e-16)
(1.00137 -0.00164012 -1.30204e-15)
(1.00156 -0.00149084 -3.29601e-16)
(0.999766 0.000186166 3.12704e-18)
(0.999734 -8.80738e-05 1.94961e-17)
(0.999723 -0.000372026 -3.12118e-17)
(0.999733 -0.000652841 1.58651e-16)
(0.999773 -0.00092869 1.08811e-16)
(0.999846 -0.00118978 -4.2667e-17)
(0.999958 -0.0014264 -3.60558e-16)
(1.00011 -0.00162913 -3.47563e-16)
(1.0003 -0.00178604 -2.34921e-16)
(1.00052 -0.00188895 4.32888e-16)
(1.00075 -0.00193066 3.35401e-16)
(1.001 -0.0019068 -4.93097e-16)
(1.00124 -0.00182872 1.09523e-15)
(1.00146 -0.00167212 1.37197e-15)
(1.00167 -0.00151599 4.63686e-17)
(0.99974 0.000197761 3.57572e-17)
(0.999709 -9.12165e-05 -4.7592e-17)
(0.999702 -0.000389087 2.29411e-16)
(0.999719 -0.000682612 -4.569e-17)
(0.999768 -0.000969591 -1.7438e-16)
(0.999853 -0.00123964 7.39263e-17)
(0.999977 -0.00148265 -1.29691e-16)
(1.00014 -0.00168897 2.93454e-16)
(1.00034 -0.00184678 7.71383e-17)
(1.00057 -0.00194798 5.39225e-17)
(1.00082 -0.00198604 -2.5723e-16)
(1.00108 -0.0019568 3.41422e-16)
(1.00133 -0.00187139 1.74005e-16)
(1.00156 -0.00170796 1.55434e-16)
(1.00177 -0.00154411 3.93866e-16)
(0.999713 0.000209661 -1.83823e-17)
(0.999683 -9.41984e-05 2.72438e-17)
(0.99968 -0.000406172 -3.71874e-16)
(0.999703 -0.000712666 -2.37919e-16)
(0.999761 -0.0010111 3.29279e-16)
(0.999857 -0.00129046 -8.91405e-17)
(0.999993 -0.00154023 5.20699e-16)
(1.00017 -0.00175053 -1.41363e-16)
(1.00038 -0.00190963 -7.50681e-18)
(1.00063 -0.00200957 -1.49939e-16)
(1.00088 -0.00204438 3.84977e-16)
(1.00116 -0.00201006 -2.42631e-16)
(1.00142 -0.00191727 -7.97475e-16)
(1.00165 -0.00174633 -1.8975e-16)
(1.00187 -0.00157314 -4.49917e-16)
(0.999684 0.00022182 2.47454e-17)
(0.999655 -9.70393e-05 1.12558e-16)
(0.999656 -0.0004233 3.35175e-16)
(0.999685 -0.000743024 2.6013e-16)
(0.999752 -0.00105324 -3.20637e-17)
(0.999858 -0.00134231 -1.30253e-16)
(1.00001 -0.00159925 -5.76435e-16)
(1.0002 -0.00181393 -6.70151e-17)
(1.00042 -0.00197468 -3.42358e-16)
(1.00068 -0.00207361 1.10878e-16)
(1.00095 -0.00210523 -7.05642e-16)
(1.00123 -0.00206567 3.40353e-16)
(1.0015 -0.00196492 1.14888e-15)
(1.00175 -0.00178539 -8.85449e-16)
(1.00198 -0.00160145 5.24503e-16)
(0.999654 0.000234188 -1.99533e-17)
(0.999626 -9.97635e-05 -1.58373e-16)
(0.99963 -0.000440471 -1.91829e-16)
(0.999666 -0.000773642 -9.56756e-17)
(0.999741 -0.00109591 -6.12724e-17)
(0.999858 -0.001395 8.41165e-17)
(1.00002 -0.00165943 -3.22116e-17)
(1.00022 -0.00187876 -4.4241e-16)
(1.00046 -0.00204134 -1.30211e-16)
(1.00073 -0.00213929 -3.27809e-17)
(1.00101 -0.00216749 6.4228e-16)
(1.0013 -0.00212219 1.07412e-16)
(1.00159 -0.00201279 -9.55201e-16)
(1.00184 -0.0018237 5.06692e-16)
(1.00209 -0.00162846 -1.01524e-16)
(0.999622 0.000246716 1.80245e-17)
(0.999596 -0.000102391 9.31187e-17)
(0.999603 -0.000457674 9.23282e-17)
(0.999644 -0.000804438 1.79557e-16)
(0.999728 -0.0011389 -9.78278e-17)
(0.999857 -0.00144816 -2.75166e-17)
(1.00003 -0.00172022 1.98802e-16)
(1.00025 -0.00194429 2.97051e-16)
(1.0005 -0.00210868 -2.1409e-17)
(1.00078 -0.00220549 -3.58585e-16)
(1.00108 -0.0022299 -2.75608e-16)
(1.00138 -0.00217835 -4.84402e-16)
(1.00167 -0.00205977 2.03154e-17)
(1.00194 -0.00186066 2.62367e-16)
(1.00219 -0.00165454 -1.58717e-16)
(0.999589 0.000259349 -9.63756e-18)
(0.999564 -0.000104954 -5.51054e-17)
(0.999574 -0.000474908 1.40218e-16)
(0.999622 -0.000835344 1.47065e-17)
(0.999715 -0.00118204 -1.24534e-16)
(0.999854 -0.00150146 1.00421e-16)
(1.00004 -0.00178111 -4.79679e-17)
(1.00027 -0.00200985 2.73895e-16)
(1.00053 -0.00217591 5.06034e-16)
(1.00083 -0.00227136 7.85773e-17)
(1.00114 -0.00229165 2.37842e-16)
(1.00145 -0.00223354 2.42044e-16)
(1.00176 -0.00210567 5.97307e-17)
(1.00203 -0.00189668 -5.39931e-16)
(1.0023 -0.00168081 1.30856e-16)
(0.999555 0.000272043 1.29097e-17)
(0.99953 -0.000107481 1.16061e-17)
(0.999544 -0.000492183 -2.86462e-16)
(0.999598 -0.000866333 -1.25145e-16)
(0.9997 -0.00122522 1.75941e-16)
(0.99985 -0.0015547 -2.74633e-17)
(1.00005 -0.00184181 1.83672e-16)
(1.00029 -0.00207506 -2.43938e-16)
(1.00057 -0.00224263 1.3905e-16)
(1.00088 -0.00233658 1.15636e-16)
(1.0012 -0.00235261 1.22046e-16)
(1.00153 -0.00228794 1.55268e-16)
(1.00184 -0.00215109 2.15769e-16)
(1.00213 -0.00193279 3.03525e-17)
(1.0024 -0.00170835 7.69769e-17)
(0.99952 0.000284751 -3.972e-17)
(0.999496 -0.000110013 1.05101e-16)
(0.999513 -0.000509535 1.64481e-16)
(0.999574 -0.000897435 -1.05286e-16)
(0.999685 -0.00126847 -6.84466e-17)
(0.999846 -0.00160792 3.89565e-17)
(1.00006 -0.00190234 -2.00094e-16)
(1.00031 -0.00213998 -1.30921e-16)
(1.00061 -0.00230899 -1.71951e-16)
(1.00093 -0.00240142 2.73269e-16)
(1.00127 -0.00241331 -3.79048e-16)
(1.00161 -0.00234236 2.96001e-16)
(1.00193 -0.00219706 1.44924e-16)
(1.00222 -0.00197012 5.42093e-16)
(1.00251 -0.00173796 -4.95841e-16)
(0.999483 0.000297441 1.67603e-17)
(0.999459 -0.000112582 -7.9107e-17)
(0.99948 -0.000527005 5.79198e-17)
(0.999548 -0.000928713 1.28102e-16)
(0.999668 -0.00131191 -8.88098e-17)
(0.999841 -0.00166128 -1.50086e-16)
(1.00006 -0.00196298 -7.10568e-17)
(1.00034 -0.00220499 9.79168e-17)
(1.00064 -0.00237548 -4.47862e-16)
(1.00098 -0.00246657 6.60764e-17)
(1.00133 -0.00247459 2.51856e-16)
(1.00168 -0.00239776 -7.03741e-16)
(1.00202 -0.00224453 1.42046e-16)
(1.00232 -0.00200937 2.17485e-17)
(1.00261 -0.00176963 3.65643e-16)
(0.999445 0.000310085 -6.37171e-18)
(0.999422 -0.000115225 9.69539e-17)
(0.999446 -0.00054464 -9.36692e-17)
(0.99952 -0.000960255 -5.81374e-17)
(0.99965 -0.0013557 -9.27214e-17)
(0.999835 -0.00171506 -4.90321e-17)
(1.00007 -0.00202412 -1.05717e-16)
(1.00036 -0.00227061 7.54721e-17)
(1.00068 -0.00244277 2.90212e-17)
(1.00103 -0.00253278 -3.10093e-16)
(1.00139 -0.00253724 -3.69866e-16)
(1.00176 -0.0024549 4.102e-16)
(1.0021 -0.00229404 -3.57924e-16)
(1.00241 -0.0020507 -1.13896e-16)
(1.00271 -0.00180287 -1.11974e-17)
(0.999407 0.000322669 -1.92805e-17)
(0.999383 -0.000117967 -4.47879e-17)
(0.999411 -0.000562474 3.1633e-17)
(0.999491 -0.000992124 2.25408e-16)
(0.99963 -0.00139996 3.7642e-16)
(0.999826 -0.00176949 3.07287e-16)
(1.00008 -0.00208609 3.35717e-16)
(1.00038 -0.0023373 -2.14162e-16)
(1.00071 -0.00251137 6.61618e-20)
(1.00108 -0.00260057 2.32231e-16)
(1.00145 -0.00260172 4.57201e-17)
(1.00183 -0.00251402 2.52057e-16)
(1.00219 -0.00234553 2.02469e-16)
(1.00251 -0.00209367 -5.30173e-16)
(1.00282 -0.00183686 -3.47783e-16)
(0.999367 0.000335184 9.91999e-18)
(0.999343 -0.000120828 -8.09505e-17)
(0.999374 -0.000580531 -1.61923e-16)
(0.999461 -0.00102436 -1.58939e-16)
(0.999609 -0.00144477 1.46084e-17)
(0.999817 -0.00182469 -1.73484e-16)
(1.00008 -0.00214908 -3.77708e-16)
(1.00039 -0.00240525 2.88271e-16)
(1.00074 -0.00258148 2.34431e-16)
(1.00112 -0.00267008 -5.16858e-16)
(1.00151 -0.00266801 4.23905e-16)
(1.0019 -0.00257488 -3.08943e-16)
(1.00227 -0.00239849 -1.42354e-16)
(1.00261 -0.00213757 -1.24404e-16)
(1.00292 -0.00187098 1.48177e-16)
(0.999325 0.000347632 3.77618e-17)
(0.999301 -0.000123819 1.73697e-17)
(0.999335 -0.000598811 8.75774e-17)
(0.999429 -0.00105695 4.06817e-17)
(0.999586 -0.00149011 4.78619e-17)
(0.999805 -0.00188063 3.00042e-16)
(1.00008 -0.00221305 -1.35565e-16)
(1.00041 -0.00247442 1.48124e-16)
(1.00078 -0.00265298 8.5038e-17)
(1.00117 -0.00274105 5.9253e-17)
(1.00157 -0.0027357 1.97379e-16)
(1.00198 -0.00263691 -4.207e-17)
(1.00236 -0.00245224 9.34649e-18)
(1.0027 -0.00218172 8.67718e-16)
(1.00303 -0.00190482 2.75648e-18)
(0.999283 0.000360016 -3.66531e-17)
(0.999257 -0.00012695 -1.26587e-17)
(0.999295 -0.000617311 5.72578e-17)
(0.999395 -0.00108986 -1.74574e-16)
(0.999561 -0.00153592 -2.79611e-16)
(0.999792 -0.0019372 -2.67896e-16)
(1.00008 -0.00227782 2.26974e-16)
(1.00042 -0.00254454 -8.30055e-17)
(1.0008 -0.00272551 9.67897e-18)
(1.00121 -0.00281304 -5.01609e-18)
(1.00163 -0.00280425 -2.72629e-16)
(1.00205 -0.00269952 -2.46335e-16)
(1.00244 -0.00250627 -1.58789e-16)
(1.0028 -0.0022258 2.40891e-17)
(1.00313 -0.00193852 -5.42864e-17)
(0.999239 0.000372348 -1.82985e-17)
(0.999213 -0.000130221 4.84285e-17)
(0.999254 -0.000636017 4.7647e-17)
(0.99936 -0.00112305 7.75367e-17)
(0.999535 -0.00158209 1.0605e-16)
(0.999777 -0.00199423 1.67583e-18)
(1.00008 -0.00234314 2.26876e-16)
(1.00044 -0.00261528 -5.05852e-16)
(1.00083 -0.00279869 2.57929e-16)
(1.00126 -0.00288561 2.63017e-16)
(1.00169 -0.00287324 -3.7621e-16)
(1.00212 -0.00276236 7.02422e-16)
(1.00253 -0.00256038 3.69621e-16)
(1.0029 -0.00226987 -6.88355e-16)
(1.00324 -0.00197244 -2.04707e-16)
(0.999194 0.000384638 3.784e-17)
(0.999167 -0.000133637 2.93822e-17)
(0.999211 -0.000654925 4.58839e-18)
(0.999323 -0.00115649 -3.47585e-17)
(0.999507 -0.00162856 2.01627e-17)
(0.999761 -0.00205159 2.84468e-16)
(1.00008 -0.00240885 -4.58492e-17)
(1.00045 -0.00268644 3.24621e-16)
(1.00086 -0.00287227 -4.8028e-17)
(1.0013 -0.00295854 -2.90931e-16)
(1.00175 -0.0029425 6.01873e-16)
(1.0022 -0.00282541 -3.61104e-16)
(1.00262 -0.00261475 -4.88679e-16)
(1.00299 -0.00231434 2.06454e-16)
(1.00334 -0.00200714 3.45021e-16)
(0.999147 0.0003969 -3.14672e-17)
(0.999119 -0.000137198 -1.32652e-17)
(0.999167 -0.000674032 -1.72982e-16)
(0.999285 -0.00119017 -8.45382e-17)
(0.999479 -0.00167529 5.2062e-17)
(0.999744 -0.00210926 -2.87178e-16)
(1.00007 -0.00247487 -8.44155e-17)
(1.00046 -0.00275793 2.82928e-16)
(1.00089 -0.0029462 -2.39252e-16)
(1.00135 -0.00303184 7.01509e-17)
(1.00181 -0.00301218 -3.35145e-16)
(1.00227 -0.00288897 1.05411e-17)
(1.0027 -0.00266979 2.64505e-16)
(1.00309 -0.00235968 1.39102e-16)
(1.00345 -0.00204295 -5.4184e-17)
(0.999099 0.000409145 3.00188e-17)
(0.99907 -0.000140906 -9.73958e-17)
(0.999121 -0.00069335 8.17573e-17)
(0.999246 -0.00122411 5.35102e-17)
(0.999449 -0.00172234 -4.03449e-17)
(0.999727 -0.00216728 -1.72504e-16)
(1.00007 -0.0025413 5.23013e-17)
(1.00047 -0.00282989 -1.29711e-16)
(1.00092 -0.00302067 -2.18684e-16)
(1.00139 -0.00310579 -2.73292e-17)
(1.00187 -0.00308264 -4.84343e-16)
(1.00234 -0.00295346 4.9555e-16)
(1.00279 -0.00272598 3.85023e-17)
(1.00319 -0.00240631 -7.94119e-17)
(1.00355 -0.00208006 -7.7237e-18)
(0.99905 0.000421389 -3.68192e-17)
(0.99902 -0.000144756 1.00263e-16)
(0.999074 -0.00071289 -2.30321e-17)
(0.999205 -0.00125835 -2.09812e-16)
(0.999418 -0.00176977 -9.99664e-17)
(0.999708 -0.00222577 1.16124e-16)
(1.00007 -0.00260831 -1.70385e-16)
(1.00048 -0.00290256 -1.90841e-16)
(1.00094 -0.00309601 3.24746e-16)
(1.00143 -0.00318077 1.12983e-16)
(1.00193 -0.0031543 5.08215e-16)
(1.00242 -0.00301932 -3.82149e-16)
(1.00288 -0.00278364 1.37276e-16)
(1.00329 -0.00245439 -1.54483e-16)
(1.00366 -0.00211831 5.14885e-18)
(0.998998 0.00043364 2.2789e-17)
(0.998968 -0.000148745 -5.80203e-17)
(0.999025 -0.000732668 7.20714e-17)
(0.999163 -0.00129293 3.12617e-16)
(0.999386 -0.00181767 1.32661e-16)
(0.999687 -0.00228489 8.22999e-17)
(1.00006 -0.00267612 3.38426e-16)
(1.00049 -0.00297622 1.60817e-16)
(1.00097 -0.00317253 -2.64849e-16)
(1.00148 -0.00325711 4.51212e-16)
(1.00199 -0.00322748 2.50881e-16)
(1.00249 -0.00308677 -2.12278e-16)
(1.00296 -0.00284288 -4.05903e-16)
(1.00338 -0.00250385 -1.57656e-16)
(1.00377 -0.00215745 6.08502e-17)
(0.998945 0.000445915 4.67922e-18)
(0.998914 -0.000152863 -1.23613e-16)
(0.998975 -0.000752694 -9.1736e-17)
(0.999119 -0.00132789 -2.15255e-16)
(0.999352 -0.00186613 3.45767e-17)
(0.999666 -0.00234478 -3.34224e-16)
(1.00005 -0.00274492 -3.59291e-16)
(1.0005 -0.00305109 -1.44512e-16)
(1.001 -0.00325045 3.07837e-16)
(1.00152 -0.00333501 -3.26943e-16)
(1.00205 -0.0033023 1.15591e-16)
(1.00256 -0.00315583 2.14824e-16)
(1.00305 -0.00290355 3.26018e-16)
(1.00348 -0.0025544 1.98857e-16)
(1.00387 -0.00219709 1.68821e-17)
(0.99889 0.00045822 3.28907e-17)
(0.998859 -0.0001571 2.02034e-16)
(0.998923 -0.000772973 9.40312e-17)
(0.999074 -0.00136327 1.80706e-16)
(0.999316 -0.00191521 1.08272e-16)
(0.999642 -0.00240552 4.564e-17)
(1.00004 -0.00281481 5.26464e-17)
(1.00051 -0.00312727 -1.20951e-16)
(1.00102 -0.00332985 -1.22636e-16)
(1.00156 -0.00341449 1.43694e-17)
(1.0021 -0.00337868 -7.89823e-16)
(1.00264 -0.00322632 -3.08396e-16)
(1.00314 -0.00296541 3.24185e-16)
(1.00358 -0.00260575 -7.22674e-17)
(1.00398 -0.00223707 -2.00105e-16)
(0.998834 0.000470571 -4.42068e-17)
(0.998803 -0.000161438 -1.29469e-16)
(0.99887 -0.0007935 -1.8594e-16)
(0.999027 -0.00139907 6.10848e-17)
(0.999279 -0.00196492 -2.0541e-16)
(0.999617 -0.00246711 3.82606e-17)
(1.00003 -0.00288578 -4.73584e-17)
(1.00051 -0.00320473 -8.64517e-18)
(1.00104 -0.00341066 -1.46545e-16)
(1.0016 -0.00349542 -7.68291e-17)
(1.00216 -0.00345643 2.71997e-17)
(1.00271 -0.00329798 2.6783e-16)
(1.00322 -0.00302818 -1.34946e-16)
(1.00368 -0.00265769 2.66295e-16)
(1.00409 -0.00227729 9.40995e-17)
(0.998776 0.000482975 2.36271e-17)
(0.998744 -0.000165864 1.2403e-16)
(0.998815 -0.000814271 2.36231e-16)
(0.998979 -0.00143528 -6.82584e-17)
(0.99924 -0.00201524 -1.65597e-17)
(0.999591 -0.00252953 2.50731e-16)
(1.00002 -0.00295778 2.1319e-16)
(1.00052 -0.00328338 -1.46067e-16)
(1.00106 -0.00349274 3.91279e-16)
(1.00164 -0.0035776 3.54929e-16)
(1.00222 -0.00353535 3.77343e-16)
(1.00278 -0.00337062 -1.74185e-17)
(1.00331 -0.00309172 -2.99174e-16)
(1.00378 -0.00271017 -3.14082e-16)
(1.0042 -0.0023179 -3.0264e-17)
(0.998716 0.000495443 -2.02457e-17)
(0.998685 -0.000170361 -6.54973e-17)
(0.998758 -0.000835275 -1.95799e-16)
(0.998929 -0.0014719 1.26011e-16)
(0.999199 -0.00206616 1.2091e-16)
(0.999563 -0.00259274 -1.67883e-16)
(1.00001 -0.00303074 -8.47498e-17)
(1.00052 -0.00336309 8.37574e-18)
(1.00109 -0.00357594 -1.73893e-16)
(1.00168 -0.00366088 -3.04107e-16)
(1.00227 -0.00361527 -5.61014e-16)
(1.00286 -0.00344413 6.05766e-17)
(1.0034 -0.003156 3.65278e-16)
(1.00388 -0.00276325 3.30604e-16)
(1.0043 -0.00235904 -6.95369e-17)
(0.998654 0.00050798 -1.6111e-17)
(0.998623 -0.00017492 -1.31748e-17)
(0.9987 -0.00085651 1.71344e-16)
(0.998877 -0.00150893 -1.6167e-16)
(0.999157 -0.00211766 -3.1947e-16)
(0.999533 -0.00265669 1.55035e-16)
(0.999994 -0.00310458 8.79726e-17)
(1.00052 -0.0034438 4.07331e-16)
(1.00111 -0.00366018 5.82352e-17)
(1.00172 -0.0037452 2.83162e-16)
(1.00233 -0.00369618 8.40681e-16)
(1.00293 -0.00351856 -2.3058e-16)
(1.00349 -0.00322115 -9.78323e-17)
(1.00398 -0.00281716 -1.15407e-17)
(1.00441 -0.00240098 -2.76979e-17)
(0.998591 0.000520598 4.50574e-17)
(0.99856 -0.000179528 4.92224e-17)
(0.99864 -0.000877974 -1.47365e-16)
(0.998823 -0.00154636 1.36897e-16)
(0.999114 -0.00216974 -9.21411e-17)
(0.999503 -0.00272139 -2.96638e-16)
(0.999979 -0.0031793 1.30363e-17)
(1.00053 -0.00352549 -3.50357e-17)
(1.00113 -0.00374547 -2.15974e-16)
(1.00176 -0.0038306 1.82033e-16)
(1.00239 -0.00377818 -7.84725e-16)
(1.003 -0.00359407 -1.42792e-17)
(1.00357 -0.00328736 -1.74759e-16)
(1.00408 -0.00287207 3.26307e-17)
(1.00452 -0.00244379 -8.20487e-17)
(0.998526 0.000533301 -1.14977e-17)
(0.998495 -0.000184184 -1.17282e-17)
(0.998579 -0.000899675 2.03913e-17)
(0.998769 -0.00158422 -1.52235e-16)
(0.999069 -0.00222243 -2.73327e-17)
(0.999471 -0.00278686 3.62208e-16)
(0.999962 -0.00325495 -2.63965e-16)
(1.00053 -0.00360825 -3.26925e-16)
(1.00115 -0.00383192 3.50022e-16)
(1.00179 -0.00391722 -3.16641e-16)
(1.00244 -0.00386145 4.00677e-16)
(1.00308 -0.00367087 3.78982e-16)
(1.00366 -0.00335484 2.72877e-16)
(1.00418 -0.00292815 -1.81486e-16)
(1.00463 -0.00248757 -6.18485e-17)
(0.99846 0.0005461 -1.23999e-17)
(0.998429 -0.000188884 -7.19649e-17)
(0.998516 -0.000921623 -9.69055e-17)
(0.998712 -0.00162253 7.11232e-17)
(0.999023 -0.00227577 1.80254e-16)
(0.999438 -0.00285318 6.3224e-17)
(0.999945 -0.00333162 2.45319e-16)
(1.00053 -0.00369218 5.36143e-17)
(1.00116 -0.00391967 -4.60203e-16)
(1.00183 -0.00400524 1.61021e-16)
(1.0025 -0.00394617 -2.27569e-16)
(1.00315 -0.00374911 -1.88969e-16)
(1.00375 -0.00342369 -2.54454e-16)
(1.00428 -0.00298541 4.01945e-17)
(1.00474 -0.00253218 1.49364e-16)
(0.998392 0.000558998 -1.90329e-17)
(0.998361 -0.000193633 3.42772e-17)
(0.998451 -0.000943839 4.13833e-17)
(0.998654 -0.00166133 -1.42556e-16)
(0.998975 -0.00232982 6.9568e-17)
(0.999403 -0.00292043 -2.11073e-16)
(0.999926 -0.00340943 -2.58547e-17)
(1.00053 -0.00377742 3.17425e-16)
(1.00118 -0.00400887 -2.02452e-16)
(1.00187 -0.0040948 -2.67583e-16)
(1.00256 -0.00403247 2.29796e-16)
(1.00322 -0.00382888 -6.8197e-17)
(1.00384 -0.00349394 -7.21043e-16)
(1.00438 -0.00304384 7.35422e-17)
(1.00485 -0.0025776 1.07453e-16)
(0.998322 0.000572006 -9.79667e-18)
(0.998291 -0.000198435 3.34345e-17)
(0.998384 -0.000966337 1.25961e-17)
(0.998594 -0.00170065 1.90028e-17)
(0.998925 -0.00238463 1.20053e-16)
(0.999367 -0.00298868 6.67086e-17)
(0.999906 -0.00348846 -2.19706e-16)
(1.00052 -0.00386407 -2.00602e-17)
(1.0012 -0.00409962 6.06381e-16)
(1.0019 -0.00418599 -1.94471e-16)
(1.00261 -0.0041204 -5.71679e-18)
(1.0033 -0.00391019 2.87536e-17)
(1.00393 -0.00356554 2.77473e-17)
(1.00449 -0.00310333 -5.09182e-17)
(1.00496 -0.00262367 1.69614e-17)
(0.998251 0.00058513 2.58162e-17)
(0.99822 -0.000203303 -6.82003e-17)
(0.998316 -0.000989141 -7.79027e-17)
(0.998533 -0.00174052 1.49085e-19)
(0.998874 -0.00244026 -1.81277e-16)
(0.999329 -0.00305799 -2.89486e-17)
(0.999884 -0.00356877 4.26597e-17)
(1.00052 -0.00395219 -4.83045e-17)
(1.00121 -0.00419198 -4.10543e-16)
(1.00194 -0.00427884 5.46582e-16)
(1.00267 -0.00420995 -3.11892e-17)
(1.00337 -0.00399299 -5.71011e-17)
(1.00402 -0.00363842 3.365e-16)
(1.00459 -0.00316382 -3.77265e-16)
(1.00508 -0.0026704 7.96494e-18)
(0.998179 0.000598376 2.73919e-18)
(0.998146 -0.000208244 8.18171e-17)
(0.998246 -0.00101226 2.19886e-16)
(0.99847 -0.00178097 -5.54529e-17)
(0.998821 -0.00249672 1.1781e-16)
(0.99929 -0.00312839 -1.83067e-16)
(0.999861 -0.00365041 -2.19236e-16)
(1.00052 -0.00404181 5.26569e-18)
(1.00123 -0.00428593 2.39038e-16)
(1.00198 -0.00437331 -4.77062e-16)
(1.00272 -0.00430107 1.1882e-16)
(1.00344 -0.00407721 -2.06481e-17)
(1.00411 -0.00371251 2.59963e-16)
(1.00469 -0.00322524 8.03045e-17)
(1.00519 -0.00271775 -1.25075e-16)
(0.998105 0.000611748 1.05262e-18)
(0.998071 -0.000213276 -8.87992e-17)
(0.998174 -0.00103573 -1.25496e-16)
(0.998405 -0.00182202 2.07699e-17)
(0.998767 -0.00255405 -2.18873e-17)
(0.999249 -0.00319991 1.66172e-16)
(0.999837 -0.00373336 3.59951e-16)
(1.00051 -0.00413292 -3.19283e-16)
(1.00124 -0.00438146 3.63174e-16)
(1.00201 -0.00446937 3.21004e-17)
(1.00278 -0.00439371 7.12373e-17)
(1.00352 -0.00416281 -1.37561e-16)
(1.0042 -0.0037878 2.65536e-16)
(1.0048 -0.00328763 1.5044e-16)
(1.0053 -0.00276584 1.96492e-16)
(0.998029 0.000625249 -8.60898e-18)
(0.997994 -0.000218413 8.47056e-17)
(0.9981 -0.00105955 1.54576e-16)
(0.998338 -0.00186368 5.34069e-17)
(0.99871 -0.00261226 1.56213e-16)
(0.999207 -0.00327254 1.19973e-16)
(0.999812 -0.00381764 -3.2325e-16)
(1.0005 -0.00422549 6.47623e-16)
(1.00126 -0.00447854 -2.03707e-16)
(1.00205 -0.004567 -6.77662e-17)
(1.00283 -0.00448785 -2.45253e-16)
(1.00359 -0.0042498 -1.07696e-16)
(1.00429 -0.00386431 -2.95514e-16)
(1.0049 -0.00335104 -1.08853e-16)
(1.00542 -0.0028147 4.72618e-17)
(0.997952 0.000638875 -3.05729e-17)
(0.997916 -0.000223677 -9.05861e-17)
(0.998025 -0.00108376 -1.08402e-17)
(0.998269 -0.00190598 1.06246e-16)
(0.998653 -0.00267135 -1.42164e-16)
(0.999163 -0.0033463 -1.04394e-16)
(0.999785 -0.00390325 4.04507e-16)
(1.0005 -0.00431954 -1.20812e-16)
(1.00127 -0.00457719 -5.16151e-16)
(1.00208 -0.00466621 7.10328e-17)
(1.00289 -0.00458355 -1.24528e-16)
(1.00367 -0.00433824 2.30363e-16)
(1.00438 -0.00394214 3.68931e-16)
(1.00501 -0.00341557 3.28557e-16)
(1.00553 -0.00286447 -2.75434e-16)
(0.997872 0.000652626 1.83346e-18)
(0.997835 -0.000229084 -1.74736e-17)
(0.997948 -0.00110836 -7.23316e-17)
(0.998199 -0.00194893 4.50883e-17)
(0.998593 -0.00273136 -7.88289e-17)
(0.999118 -0.0034212 1.34449e-16)
(0.999757 -0.0039902 -1.16236e-16)
(1.00049 -0.00441509 3.9893e-17)
(1.00128 -0.00467743 -1.0819e-16)
(1.00211 -0.00476704 2.75239e-16)
(1.00294 -0.00468084 3.36744e-16)
(1.00374 -0.0044282 1.94623e-18)
(1.00447 -0.00402135 -5.87172e-16)
(1.00511 -0.00348129 -3.995e-16)
(1.00565 -0.0029151 2.72507e-16)