1.275 	2.15223e-18 	-2.76991e-20 	-0.0327521 	-0.000499643 	-2.0245e-22
1.825 	2.15223e-18 	-1.39322e-20 	-0.00722628 	-0.0028993 	1.81432e-21
2.375 	2.15223e-18 	-2.66896e-23 	0.123615 	-0.0034796 	-7.5518e-22
