/*--------------------------------*- C++ -*----------------------------------*\
  =========                 |
  \\      /  F ield         | OpenFOAM: The Open Source CFD Toolbox
   \\    /   O peration     | Website:  https://openfoam.org
    \\  /    A nd           | Version:  6.0
     \\/     M anipulation  |
\*---------------------------------------------------------------------------*/
FoamFile
{
    version     2.0;
    format      ascii;
    class       surfaceScalarField;
    location    "0.4";
    object      phi;
}
// * * * * * * * * * * * * * * * * * * * * * * * * * * * * * * * * * * * * * //

dimensions      [0 3 -1 0 0 0 0];

internalField   nonuniform List<scalar> 
1540
(
1.14258e-08
-1.14347e-08
-6.38928e-09
1.78151e-08
-5.97989e-08
5.34097e-08
-1.41484e-07
8.16856e-08
-2.41976e-07
1.00492e-07
-3.52455e-07
1.10479e-07
-4.6567e-07
1.13215e-07
-5.76187e-07
1.10517e-07
-6.80264e-07
1.04077e-07
-7.75585e-07
9.53209e-08
-8.60956e-07
8.53714e-08
-9.36017e-07
7.50614e-08
-1.00098e-06
6.49659e-08
-1.05643e-06
5.54434e-08
-1.1031e-06
4.66776e-08
-1.14182e-06
3.87152e-08
-1.17332e-06
3.14983e-08
-1.19821e-06
2.48907e-08
-1.21691e-06
1.86982e-08
-1.22959e-06
1.26848e-08
-1.23618e-06
6.58632e-09
-1.2363e-06
1.22639e-10
-1.22931e-06
-6.9886e-09
-1.2143e-06
-1.50154e-08
-1.19011e-06
-2.41895e-08
-1.15543e-06
-3.46776e-08
-1.10888e-06
-4.65449e-08
-1.04917e-06
-5.97095e-08
-9.75284e-07
-7.38908e-08
-8.86729e-07
-8.85551e-08
-7.83864e-07
-1.02865e-07
-6.68221e-07
-1.15644e-07
-5.42854e-07
-1.25367e-07
-4.12657e-07
-1.30197e-07
-2.84569e-07
-1.28088e-07
-1.67568e-07
-1.17002e-07
-7.2216e-08
-9.53515e-08
-9.50993e-09
-6.27062e-08
1.22267e-08
-2.17369e-08
1.22264e-08
-1.72258e-08
5.7911e-09
-1.02622e-07
1.03211e-07
-2.59327e-07
2.10115e-07
-4.74797e-07
2.97156e-07
-7.31286e-07
3.5698e-07
-1.01075e-06
3.89945e-07
-1.29734e-06
3.99804e-07
-1.57845e-06
3.91625e-07
-1.84491e-06
3.70534e-07
-2.09067e-06
3.41089e-07
-2.31233e-06
3.0703e-07
-2.50849e-06
2.71223e-07
-2.67923e-06
2.35706e-07
-2.82558e-06
2.01795e-07
-2.94911e-06
1.70205e-07
-3.05157e-06
1.41171e-07
-3.13462e-06
1.14551e-07
-3.19965e-06
8.99191e-08
-3.24759e-06
6.66396e-08
-3.27883e-06
4.39262e-08
-3.29314e-06
2.08942e-08
-3.28963e-06
-3.39138e-09
-3.26675e-06
-2.98633e-08
-3.22238e-06
-5.93909e-08
-3.15386e-06
-9.27019e-08
-3.05826e-06
-1.30283e-07
-2.93254e-06
-1.72258e-07
-2.77402e-06
-2.18239e-07
-2.58074e-06
-2.67166e-07
-2.35216e-06
-3.1714e-07
-2.08974e-06
-3.65285e-07
-1.79772e-06
-4.07664e-07
-1.48377e-06
-4.39308e-07
-1.15955e-06
-4.5442e-07
-8.40813e-07
-4.46827e-07
-5.4698e-07
-4.10834e-07
-2.99627e-07
-3.42705e-07
-1.19452e-07
-2.42881e-07
-2.07301e-08
-1.20459e-07
-8.50402e-09
-5.42349e-08
6.0026e-08
-2.15586e-07
2.64562e-07
-4.73217e-07
4.67746e-07
-8.07264e-07
6.31203e-07
-1.19381e-06
7.43528e-07
-1.60905e-06
8.05179e-07
-2.0319e-06
8.22658e-07
-2.44539e-06
8.05112e-07
-2.83695e-06
7.62099e-07
-3.1982e-06
7.02336e-07
-3.52428e-06
6.33111e-07
-3.81315e-06
5.6009e-07
-4.0648e-06
4.87359e-07
-4.2806e-06
4.17595e-07
-4.46267e-06
3.52279e-07
-4.61343e-06
2.91926e-07
-4.73517e-06
2.36297e-07
-4.82983e-06
1.84572e-07
-4.89869e-06
1.35506e-07
-4.94232e-06
8.75516e-08
-4.96039e-06
3.89648e-08
-4.95169e-06
-1.20913e-08
-4.91411e-06
-6.744e-08
-4.84474e-06
-1.28766e-07
-4.73998e-06
-1.97458e-07
-4.59585e-06
-2.74419e-07
-4.40828e-06
-3.5982e-07
-4.17369e-06
-4.52829e-07
-3.88957e-06
-5.51293e-07
-3.55526e-06
-6.51444e-07
-3.17291e-06
-7.47635e-07
-2.74836e-06
-8.32218e-07
-2.29202e-06
-8.95642e-07
-1.81954e-06
-9.26901e-07
-1.35188e-06
-9.14487e-07
-9.14649e-07
-8.48069e-07
-5.36214e-07
-7.21139e-07
-2.4441e-07
-5.34684e-07
-6.1701e-08
-3.03168e-07
-7.02051e-08
-8.80141e-08
1.4804e-07
-3.22182e-07
4.98731e-07
-6.74572e-07
8.20135e-07
-1.11507e-06
1.0717e-06
-1.6129e-06
1.24136e-06
-2.13933e-06
1.33161e-06
-2.66969e-06
1.35302e-06
-3.1844e-06
1.31982e-06
-3.66917e-06
1.24688e-06
-4.11462e-06
1.14778e-06
-4.51545e-06
1.03395e-06
-4.86965e-06
9.1429e-07
-5.17754e-06
7.95245e-07
-5.44098e-06
6.81031e-07
-5.66268e-06
5.73983e-07
-5.84566e-06
4.74905e-07
-5.99276e-06
3.83402e-07
-6.10636e-06
2.98168e-07
-6.18807e-06
2.17217e-07
-6.23861e-06
1.38092e-07
-6.25768e-06
5.80315e-08
-6.2439e-06
-2.58672e-08
-6.19486e-06
-1.16479e-07
-6.10718e-06
-2.16453e-07
-5.97666e-06
-3.27974e-07
-5.79862e-06
-4.52462e-07
-5.56824e-06
-5.90203e-07
-5.28114e-06
-7.39922e-07
-4.93413e-06
-8.98305e-07
-4.52605e-06
-1.05953e-06
-4.05882e-06
-1.21486e-06
-3.53857e-06
-1.35247e-06
-2.97667e-06
-1.45753e-06
-2.39059e-06
-1.51298e-06
-1.80419e-06
-1.5009e-06
-1.2472e-06
-1.40505e-06
-7.53708e-07
-1.21463e-06
-3.59355e-07
-9.29037e-07
-9.79832e-08
-5.6454e-07
-1.68188e-07
-1.17252e-07
2.65292e-07
-4.17506e-07
7.98985e-07
-8.55877e-07
1.25851e-06
-1.39044e-06
1.60626e-06
-1.9826e-06
1.83352e-06
-2.59871e-06
1.94772e-06
-3.21126e-06
1.96556e-06
-3.79928e-06
1.90785e-06
-4.34809e-06
1.79569e-06
-4.84851e-06
1.6482e-06
-5.29587e-06
1.4813e-06
-5.68891e-06
1.30733e-06
-6.02881e-06
1.13515e-06
-6.31826e-06
9.70485e-07
-6.56074e-06
8.1646e-07
-6.7599e-06
6.74067e-07
-6.91914e-06
5.42646e-07
-7.04126e-06
4.20283e-07
-7.12819e-06
3.04147e-07
-7.18086e-06
1.90759e-07
-7.19906e-06
7.62342e-08
-7.18143e-06
-4.35008e-08
-7.12542e-06
-1.72481e-07
-7.02744e-06
-3.14439e-07
-6.88292e-06
-4.72486e-07
-6.68668e-06
-6.48705e-07
-6.43322e-06
-8.4366e-07
-6.11734e-06
-1.05581e-06
-5.7348e-06
-1.28084e-06
-5.28333e-06
-1.511e-06
-4.76368e-06
-1.73452e-06
-4.18093e-06
-1.93522e-06
-3.54579e-06
-2.09267e-06
-2.87583e-06
-2.18294e-06
-2.19621e-06
-2.18051e-06
-1.53982e-06
-2.06144e-06
-9.46345e-07
-1.80811e-06
-4.60324e-07
-1.41506e-06
-1.28698e-07
-8.96166e-07
-2.96886e-07
-1.42645e-07
4.07937e-07
-5.01937e-07
1.15828e-06
-1.01677e-06
1.77334e-06
-1.63259e-06
2.22209e-06
-2.30226e-06
2.50319e-06
-2.98715e-06
2.6326e-06
-3.65747e-06
2.63588e-06
-4.29188e-06
2.54226e-06
-4.87648e-06
2.38029e-06
-5.40347e-06
2.17519e-06
-5.86977e-06
1.9476e-06
-6.27572e-06
1.71328e-06
-6.62388e-06
1.48331e-06
-6.91814e-06
1.26474e-06
-7.16291e-06
1.06124e-06
-7.36262e-06
8.73768e-07
-7.52121e-06
7.01236e-07
-7.64191e-06
5.40984e-07
-7.72698e-06
3.89224e-07
-7.7776e-06
2.41381e-07
-7.79375e-06
9.23821e-08
-7.77418e-06
-6.30757e-08
-7.7164e-06
-2.30258e-07
-7.61677e-06
-4.14074e-07
-7.47055e-06
-6.18698e-07
-7.27219e-06
-8.47073e-07
-7.01554e-06
-1.1003e-06
-6.69444e-06
-1.37691e-06
-6.3033e-06
-1.67198e-06
-5.83806e-06
-1.97625e-06
-5.29732e-06
-2.27525e-06
-4.68385e-06
-2.54869e-06
-4.00619e-06
-2.77033e-06
-3.28043e-06
-2.90871e-06
-2.53169e-06
-2.92925e-06
-1.79519e-06
-2.79794e-06
-1.11628e-06
-2.48702e-06
-5.49253e-07
-1.98208e-06
-1.55182e-07
-1.29024e-06
-4.52068e-07
-1.65454e-07
5.7339e-07
-5.77978e-07
1.5708e-06
-1.16023e-06
2.35559e-06
-1.84427e-06
2.90612e-06
-2.57393e-06
3.23286e-06
-3.30578e-06
3.36445e-06
-4.00856e-06
3.33866e-06
-4.6617e-06
3.1954e-06
-5.25335e-06
2.97193e-06
-5.77828e-06
2.70011e-06
-6.23601e-06
2.40533e-06
-6.62918e-06
2.10645e-06
-6.96229e-06
1.81642e-06
-7.2407e-06
1.54315e-06
-7.46994e-06
1.29048e-06
-7.65522e-06
1.05905e-06
-7.80105e-06
8.4707e-07
-7.91106e-06
6.50997e-07
-7.98783e-06
4.65989e-07
-8.03277e-06
2.86323e-07
-8.04611e-06
1.05723e-07
-8.02683e-06
-8.23589e-08
-7.97264e-06
-2.84443e-07
-7.88004e-06
-5.06684e-07
-7.74429e-06
-7.54447e-07
-7.5596e-06
-1.03176e-06
-7.3193e-06
-1.34061e-06
-7.01615e-06
-1.68005e-06
-6.64296e-06
-2.04517e-06
-6.19332e-06
-2.42589e-06
-5.66285e-06
-2.80573e-06
-5.05074e-06
-3.1608e-06
-4.36185e-06
-3.45922e-06
-3.60908e-06
-3.66147e-06
-2.81599e-06
-3.72234e-06
-2.01901e-06
-3.59492e-06
-1.26883e-06
-3.2372e-06
-6.30156e-07
-2.62076e-06
-1.79287e-07
-1.74111e-06
-6.31356e-07
-1.87222e-07
7.60612e-07
-6.49232e-07
2.03281e-06
-1.29095e-06
2.99731e-06
-2.02981e-06
3.64499e-06
-2.80041e-06
4.00345e-06
-3.55518e-06
4.11922e-06
-4.26272e-06
4.0462e-06
-4.9048e-06
3.83749e-06
-5.47315e-06
3.54028e-06
-5.9664e-06
3.19337e-06
-6.38764e-06
2.82657e-06
-6.7425e-06
2.46131e-06
-7.03776e-06
2.11169e-06
-7.28047e-06
1.78586e-06
-7.4773e-06
1.48731e-06
-7.63419e-06
1.21593e-06
-7.75612e-06
9.69003e-07
-7.84703e-06
7.41902e-07
-7.90971e-06
5.2867e-07
-7.94582e-06
3.22433e-07
-7.95584e-06
1.15741e-07
-7.93905e-06
-9.9146e-08
-7.89352e-06
-3.29974e-07
-7.81605e-06
-5.84157e-07
-7.70214e-06
-8.68353e-07
-7.54601e-06
-1.18789e-06
-7.3406e-06
-1.54602e-06
-7.07775e-06
-1.9429e-06
-6.74853e-06
-2.37439e-06
-6.34389e-06
-2.83052e-06
-5.85573e-06
-3.29389e-06
-5.27857e-06
-3.73797e-06
-4.61196e-06
-4.12583e-06
-3.86367e-06
-4.40976e-06
-3.05353e-06
-4.53248e-06
-2.2174e-06
-4.43105e-06
-1.41036e-06
-4.04424e-06
-7.078e-07
-3.32332e-06
-2.03024e-07
-2.24588e-06
-8.34379e-07
-2.09778e-07
9.70389e-07
-7.20089e-07
2.54312e-06
-1.41447e-06
3.69169e-06
-2.19382e-06
4.42434e-06
-2.98353e-06
4.79316e-06
-3.73344e-06
4.86913e-06
-4.41417e-06
4.72692e-06
-5.01207e-06
4.43538e-06
-5.52432e-06
4.05253e-06
-5.95484e-06
3.62389e-06
-6.3112e-06
3.18293e-06
-6.60248e-06
2.75259e-06
-6.83798e-06
2.34718e-06
-7.02637e-06
1.97426e-06
-7.17531e-06
1.63626e-06
-7.29127e-06
1.33189e-06
-7.37948e-06
1.05721e-06
-7.44396e-06
8.06387e-07
-7.48761e-06
5.72316e-07
-7.51221e-06
3.4703e-07
-7.51848e-06
1.2201e-07
-7.50607e-06
-1.11554e-07
-7.47352e-06
-3.62523e-07
-7.41817e-06
-6.39509e-07
-7.33603e-06
-9.50492e-07
-7.22165e-06
-1.30227e-06
-7.06796e-06
-1.69971e-06
-6.8662e-06
-2.14467e-06
-6.60594e-06
-2.63465e-06
-6.27545e-06
-3.16101e-06
-5.86254e-06
-3.7068e-06
-5.3561e-06
-4.24441e-06
-4.74876e-06
-4.73317e-06
-4.04081e-06
-5.11771e-06
-3.24548e-06
-5.32781e-06
-2.39509e-06
-5.28143e-06
-1.54702e-06
-4.89231e-06
-7.87219e-07
-4.08312e-06
-2.28524e-07
-2.80458e-06
-1.0629e-06
-2.35481e-07
1.20587e-06
-7.95891e-07
3.10353e-06
-1.53682e-06
4.43261e-06
-2.33987e-06
5.2274e-06
-3.12211e-06
5.57539e-06
-3.83364e-06
5.58067e-06
-4.45052e-06
5.34381e-06
-4.96673e-06
4.95159e-06
-5.38719e-06
4.47299e-06
-5.7225e-06
3.9592e-06
-5.98544e-06
3.44587e-06
-6.18878e-06
2.95593e-06
-6.34416e-06
2.50256e-06
-6.46157e-06
2.09166e-06
-6.54924e-06
1.72393e-06
-6.61375e-06
1.3964e-06
-6.66021e-06
1.10366e-06
-6.69242e-06
8.38599e-07
-6.71312e-06
5.93015e-07
-6.72407e-06
3.57986e-07
-6.72618e-06
1.24121e-07
-6.71949e-06
-1.18246e-07
-6.70314e-06
-3.78878e-07
-6.67523e-06
-6.67421e-07
-6.63262e-06
-9.93093e-07
-6.57068e-06
-1.36422e-06
-6.48287e-06
-1.78752e-06
-6.36042e-06
-2.26711e-06
-6.19204e-06
-2.80304e-06
-5.96376e-06
-3.38928e-06
-5.6594e-06
-4.01117e-06
-5.26169e-06
-4.64212e-06
-4.75488e-06
-5.23998e-06
-4.12915e-06
-5.74344e-06
-3.3873e-06
-6.06966e-06
-2.5537e-06
-6.11503e-06
-1.68413e-06
-5.76189e-06
-8.73786e-07
-4.89346e-06
-2.58292e-07
-3.42007e-06
-1.3212e-06
-2.67712e-07
1.47358e-06
-8.83367e-07
3.71919e-06
-1.66393e-06
5.21318e-06
-2.46867e-06
6.03214e-06
-3.20895e-06
6.31567e-06
-3.8402e-06
6.21192e-06
-4.34899e-06
5.8526e-06
-4.74088e-06
5.34348e-06
-5.03101e-06
4.76312e-06
-5.23793e-06
4.16612e-06
-5.37987e-06
3.58781e-06
-5.47298e-06
3.04905e-06
-5.53065e-06
2.56023e-06
-5.56346e-06
2.12448e-06
-5.57953e-06
1.73999e-06
-5.58489e-06
1.40177e-06
-5.58399e-06
1.10276e-06
-5.58001e-06
8.34618e-07
-5.5752e-06
5.88206e-07
-5.5711e-06
3.53888e-07
-5.56868e-06
1.21696e-07
-5.56836e-06
-1.18569e-07
-5.56998e-06
-3.7725e-07
-5.57267e-06
-6.64731e-07
-5.57453e-06
-9.91233e-07
-5.57226e-06
-1.36649e-06
-5.56062e-06
-1.79916e-06
-5.53176e-06
-2.29597e-06
-5.47453e-06
-2.86026e-06
-5.37383e-06
-3.48998e-06
-5.21026e-06
-4.17473e-06
-4.96065e-06
-4.89173e-06
-4.59994e-06
-5.60068e-06
-4.10562e-06
-6.23776e-06
-3.46549e-06
-6.70979e-06
-2.68954e-06
-6.89098e-06
-1.82536e-06
-6.62608e-06
-9.7354e-07
-5.74528e-06
-2.95696e-07
-4.09791e-06
-1.61689e-06
-3.11685e-07
1.78527e-06
-9.9108e-07
4.39858e-06
-1.80034e-06
6.02244e-06
-2.57453e-06
6.80633e-06
-3.22569e-06
6.96683e-06
-3.72304e-06
6.70926e-06
-4.0708e-06
6.20036e-06
-4.2907e-06
5.56338e-06
-4.41037e-06
4.8828e-06
-4.45677e-06
4.21252e-06
-4.45308e-06
3.58412e-06
-4.41775e-06
3.01372e-06
-4.36468e-06
2.50716e-06
-4.30388e-06
2.06368e-06
-4.2423e-06
1.67842e-06
-4.18464e-06
1.34411e-06
-4.13398e-06
1.0521e-06
-4.09238e-06
7.93015e-07
-4.06124e-06
5.57067e-07
-4.04162e-06
3.34272e-07
-4.03441e-06
1.14483e-07
-4.04037e-06
-1.12605e-07
-4.06014e-06
-3.57483e-07
-4.09404e-06
-6.30837e-07
-4.14177e-06
-9.43494e-07
-4.202e-06
-1.30626e-06
-4.27163e-06
-1.72954e-06
-4.3449e-06
-2.2227e-06
-4.41232e-06
-2.79284e-06
-4.45934e-06
-3.44296e-06
-4.46519e-06
-4.16889e-06
-4.40214e-06
-4.95479e-06
-4.23616e-06
-5.76666e-06
-3.93026e-06
-6.54366e-06
-3.45233e-06
-7.18772e-06
-2.78965e-06
-7.55365e-06
-1.97091e-06
-7.44482e-06
-1.09344e-06
-6.62275e-06
-3.45789e-07
-4.84557e-06
-1.96268e-06
-3.75782e-07
2.16105e-06
-1.12934e-06
5.15214e-06
-1.94544e-06
6.83853e-06
-2.63819e-06
7.49908e-06
-3.13383e-06
7.46247e-06
-3.42859e-06
7.00402e-06
-3.55333e-06
6.3251e-06
-3.55038e-06
5.56044e-06
-3.46088e-06
4.7933e-06
-3.31919e-06
4.07083e-06
-3.15154e-06
3.41646e-06
-2.97656e-06
2.83874e-06
-2.80673e-06
2.33733e-06
-2.64983e-06
1.90678e-06
-2.51039e-06
1.53897e-06
-2.39074e-06
1.22446e-06
-2.29193e-06
9.53295e-07
-2.21436e-06
7.15444e-07
-2.15823e-06
5.00938e-07
-2.12387e-06
2.9991e-07
-2.11191e-06
1.02527e-07
-2.1234e-06
-1.01116e-07
-2.15975e-06
-3.21133e-07
-2.22262e-06
-5.67966e-07
-2.31363e-06
-8.52478e-07
-2.43391e-06
-1.18598e-06
-2.58335e-06
-1.5801e-06
-2.7596e-06
-2.04645e-06
-2.95661e-06
-2.59583e-06
-3.16283e-06
-3.23674e-06
-3.35898e-06
-3.97274e-06
-3.51584e-06
-4.79793e-06
-3.59276e-06
-5.68974e-06
-3.53854e-06
-6.59788e-06
-3.29745e-06
-7.42882e-06
-2.82432e-06
-8.02678e-06
-2.11321e-06
-8.15594e-06
-1.24087e-06
-7.49508e-06
-4.16586e-07
-5.66985e-06
-2.37927e-06
-4.73437e-07
2.63449e-06
-1.30789e-06
5.9866e-06
-2.0841e-06
7.61474e-06
-2.61256e-06
8.02755e-06
-2.85923e-06
7.70914e-06
-2.86597e-06
7.01075e-06
-2.69953e-06
6.15866e-06
-2.42499e-06
5.2859e-06
-2.09509e-06
4.46339e-06
-1.74806e-06
3.7238e-06
-1.40937e-06
3.07777e-06
-1.09453e-06
2.5239e-06
-8.11928e-07
2.05473e-06
-5.65199e-07
1.66005e-06
-3.55019e-07
1.32879e-06
-1.80444e-07
1.04988e-06
-3.9844e-08
8.12695e-07
6.84536e-08
6.07146e-07
1.45727e-07
4.23664e-07
1.92576e-07
2.53061e-07
2.08746e-07
8.63577e-08
1.93041e-07
-8.54112e-08
1.4332e-07
-2.71413e-07
5.65858e-08
-4.81231e-07
-7.08089e-08
-7.25083e-07
-2.42776e-07
-1.01401e-06
-4.62861e-07
-1.36002e-06
-7.33242e-07
-1.77607e-06
-1.05322e-06
-2.27585e-06
-1.41705e-06
-2.87292e-06
-1.81087e-06
-3.57891e-06
-2.20893e-06
-4.39987e-06
-2.56933e-06
-5.32934e-06
-2.83086e-06
-6.33634e-06
-2.9141e-06
-7.34558e-06
-2.73303e-06
-8.20785e-06
-2.2266e-06
-8.66236e-06
-1.42039e-06
-8.3013e-06
-5.2072e-07
-6.56952e-06
-2.89999e-06
-6.24273e-07
3.25876e-06
-1.52576e-06
6.88808e-06
-2.16407e-06
8.25305e-06
-2.39496e-06
8.25843e-06
-2.26654e-06
7.58073e-06
-1.88746e-06
6.63166e-06
-1.36521e-06
5.63641e-06
-7.83687e-07
4.70438e-06
-2.0009e-07
3.87979e-06
3.50608e-07
3.1731e-06
8.49581e-07
2.5788e-06
1.28879e-06
2.08469e-06
1.66689e-06
1.67663e-06
1.98634e-06
1.3406e-06
2.25144e-06
1.06369e-06
2.46708e-06
8.3424e-07
2.63792e-06
6.41856e-07
2.76786e-06
4.77201e-07
2.85977e-06
3.31763e-07
2.91522e-06
1.97612e-07
2.93442e-06
6.71483e-08
2.91616e-06
-6.71462e-08
2.85771e-06
-2.12963e-07
2.75491e-06
-3.78433e-07
2.60224e-06
-5.72413e-07
2.39303e-06
-8.048e-07
2.11988e-06
-1.08687e-06
1.77542e-06
-1.43161e-06
1.35355e-06
-1.85398e-06
8.51589e-07
-2.37096e-06
2.73556e-07
-3.00088e-06
-3.64852e-07
-3.76146e-06
-1.02937e-06
-4.66482e-06
-1.65883e-06
-5.70688e-06
-2.15796e-06
-6.84645e-06
-2.39857e-06
-7.96725e-06
-2.24413e-06
-8.8168e-06
-1.62183e-06
-8.92359e-06
-6.75706e-07
-7.51564e-06
-3.57569e-06
-8.4688e-07
4.10564e-06
-1.73669e-06
7.77789e-06
-2.04394e-06
8.56031e-06
-1.77604e-06
7.99053e-06
-1.12025e-06
6.92494e-06
-2.64357e-07
5.77577e-06
6.52495e-07
4.71956e-06
1.54304e-06
3.81383e-06
2.36e-06
3.06284e-06
3.08252e-06
2.45058e-06
3.70569e-06
1.95562e-06
4.2334e-06
1.55699e-06
4.67379e-06
1.23623e-06
5.03661e-06
9.77783e-07
5.33159e-06
7.68716e-07
5.56756e-06
5.98265e-07
5.75204e-06
4.57379e-07
5.89094e-06
3.38304e-07
5.98847e-06
2.34231e-07
6.04709e-06
1.38986e-07
6.06748e-06
4.67647e-08
6.04845e-06
-4.81228e-08
5.98699e-06
-1.51495e-07
5.87811e-06
-2.6956e-07
5.71491e-06
-4.09212e-07
5.48849e-06
-5.7838e-07
5.18809e-06
-7.86465e-07
4.80136e-06
-1.04488e-06
4.31509e-06
-1.36771e-06
3.71662e-06
-1.77248e-06
2.99656e-06
-2.28082e-06
2.15366e-06
-2.91856e-06
1.20305e-06
-3.71421e-06
1.88987e-07
-4.69282e-06
-7.97674e-07
-5.85979e-06
-1.60244e-06
-7.16248e-06
-2.00694e-06
-8.4123e-06
-1.78301e-06
-9.14751e-06
-8.9427e-07
-8.40439e-06
-4.46996e-06
-1.12014e-06
5.22578e-06
-1.75099e-06
8.40874e-06
-1.38224e-06
8.19156e-06
-3.53815e-07
6.9621e-06
9.66235e-07
5.60489e-06
2.33454e-06
4.40746e-06
3.61743e-06
3.43667e-06
4.75535e-06
2.67591e-06
5.73178e-06
2.0864e-06
6.55219e-06
1.63018e-06
7.23175e-06
1.27606e-06
7.7888e-06
9.99932e-07
8.24155e-06
7.83477e-07
8.60653e-06
6.12806e-07
8.89799e-06
4.77255e-07
9.12776e-06
3.68494e-07
9.30528e-06
2.7986e-07
9.43772e-06
2.0587e-07
9.53009e-06
1.41862e-07
9.58536e-06
8.37155e-08
9.6045e-06
2.76179e-08
9.58651e-06
-3.01311e-08
9.52833e-06
-9.33139e-08
9.42477e-06
-1.65998e-07
9.26833e-06
-2.52771e-07
9.04899e-06
-3.59044e-07
8.75397e-06
-4.91446e-07
8.36748e-06
-6.58381e-07
7.87058e-06
-8.70815e-07
7.24148e-06
-1.14339e-06
6.45663e-06
-1.49596e-06
5.49362e-06
-1.95556e-06
4.33786e-06
-2.55845e-06
2.99589e-06
-3.35085e-06
1.51976e-06
-4.38366e-06
4.50947e-08
-5.68782e-06
-1.1636e-06
-7.2036e-06
-1.69214e-06
-8.61897e-06
-1.14103e-06
-8.9555e-06
-5.61099e-06
-1.25649e-06
6.48227e-06
-9.90583e-07
8.14283e-06
5.78293e-07
6.62268e-06
2.5934e-06
4.947e-06
4.57995e-06
3.61833e-06
6.34438e-06
2.64303e-06
7.83309e-06
1.94796e-06
9.05564e-06
1.45336e-06
1.00451e-05
1.09691e-06
1.08396e-05
8.35717e-07
1.14744e-05
6.4125e-07
1.19799e-05
4.94419e-07
1.23812e-05
3.82226e-07
1.26984e-05
2.95597e-07
1.29476e-05
2.28005e-07
1.31415e-05
1.74609e-07
1.32897e-05
1.31691e-07
1.33993e-05
9.62954e-08
1.34752e-05
6.59751e-08
1.35203e-05
3.86103e-08
1.35356e-05
1.22695e-08
1.35204e-05
-1.49083e-08
1.34719e-05
-4.48229e-08
1.33854e-05
-7.95303e-08
1.3254e-05
-1.2138e-07
1.30682e-05
-1.73196e-07
1.28153e-05
-2.38532e-07
1.24789e-05
-3.22054e-07
1.20383e-05
-4.30122e-07
1.14666e-05
-5.71733e-07
1.07307e-05
-7.60039e-07
9.78994e-06
-1.01482e-06
8.59795e-06
-1.36646e-06
7.10908e-06
-1.86198e-06
5.29765e-06
-2.57222e-06
3.20234e-06
-3.59251e-06
1.01515e-06
-5.01642e-06
-7.61224e-07
-6.8426e-06
-1.20366e-06
-8.51306e-06
-6.81466e-06
-3.4599e-07
6.82826e-06
2.2051e-06
5.59174e-06
5.40681e-06
3.42097e-06
8.23258e-06
2.12123e-06
1.04908e-05
1.36008e-06
1.2234e-05
8.99903e-07
1.35656e-05
6.16348e-07
1.45828e-05
4.36173e-07
1.53628e-05
3.16901e-07
1.59637e-05
2.34744e-07
1.64287e-05
1.76259e-07
1.67896e-05
1.33548e-07
1.70701e-05
1.01744e-07
1.7288e-05
7.76994e-08
1.74567e-05
5.92772e-08
1.75864e-05
4.49605e-08
1.76844e-05
3.36243e-08
1.77563e-05
2.43974e-08
1.78057e-05
1.65737e-08
1.78348e-05
9.55169e-09
1.78443e-05
2.78911e-09
1.78336e-05
-4.23335e-09
1.78008e-05
-1.20458e-08
1.77425e-05
-2.12249e-08
1.76536e-05
-3.2436e-08
1.75269e-05
-4.64914e-08
1.73528e-05
-6.44337e-08
1.71184e-05
-8.7668e-08
1.68064e-05
-1.1818e-07
1.63936e-05
-1.58919e-07
1.58481e-05
-2.14488e-07
1.51257e-05
-2.92466e-07
1.41653e-05
-4.06007e-07
1.28823e-05
-5.78982e-07
1.11656e-05
-8.55588e-07
8.88927e-06
-1.31615e-06
5.97577e-06
-2.10292e-06
2.60694e-06
-3.47377e-06
-1.67013e-07
-5.73911e-06
-6.98167e-06
6.82826e-06
1.242e-05
1.5841e-05
1.79622e-05
1.93223e-05
2.02222e-05
2.08385e-05
2.12747e-05
2.15916e-05
2.18264e-05
2.20026e-05
2.21362e-05
2.22379e-05
2.23156e-05
2.23749e-05
2.24198e-05
2.24535e-05
2.24779e-05
2.24944e-05
2.2504e-05
2.25068e-05
2.25025e-05
2.24905e-05
2.24693e-05
2.24368e-05
2.23903e-05
2.23259e-05
2.22382e-05
2.21201e-05
2.19611e-05
2.17467e-05
2.14542e-05
2.10482e-05
2.04692e-05
1.96136e-05
1.82975e-05
1.61945e-05
1.27208e-05
6.98167e-06
)
;

boundaryField
{
    movingWall
    {
        type            calculated;
        value           uniform 0;
    }
    fixedWalls
    {
        type            calculated;
        value           uniform 0;
    }
    frontAndBack
    {
        type            empty;
        value           nonuniform 0();
    }
}


// ************************************************************************* //
