/*--------------------------------*- C++ -*----------------------------------*\
  =========                 |
  \\      /  F ield         | OpenFOAM: The Open Source CFD Toolbox
   \\    /   O peration     | Website:  https://openfoam.org
    \\  /    A nd           | Version:  6.0
     \\/     M anipulation  |
\*---------------------------------------------------------------------------*/
FoamFile
{
    version     2.0;
    format      ascii;
    class       volScalarField;
    location    "6.2";
    object      p;
}
// * * * * * * * * * * * * * * * * * * * * * * * * * * * * * * * * * * * * * //

dimensions      [0 2 -2 0 0 0 0];

internalField   nonuniform List<scalar> 
34500
(
1.00595
1.00598
1.00583
1.00552
1.00506
1.00449
1.00387
1.00323
1.00262
1.00204
1.00152
1.00107
1.00069
1.00042
1.00025
1.00595
1.00601
1.00593
1.00569
1.00532
1.00483
1.00427
1.00367
1.00306
1.00246
1.00189
1.00137
1.00091
1.00057
1.00033
1.00595
1.00601
1.0059
1.00563
1.00523
1.00472
1.00413
1.00351
1.00289
1.0023
1.00174
1.00125
1.00081
1.00052
1.00028
1.00596
1.006
1.00588
1.00559
1.00517
1.00463
1.00403
1.0034
1.00278
1.00219
1.00165
1.00118
1.00077
1.0005
1.00028
1.00597
1.00601
1.00589
1.00561
1.00519
1.00467
1.00408
1.00345
1.00283
1.00224
1.00169
1.00122
1.00079
1.00052
1.00029
1.00597
1.00602
1.00591
1.00563
1.00523
1.00471
1.00413
1.00351
1.00289
1.00229
1.00174
1.00125
1.00081
1.00052
1.00029
1.00598
1.00603
1.00592
1.00565
1.00524
1.00473
1.00415
1.00353
1.0029
1.0023
1.00174
1.00124
1.00081
1.00051
1.00028
1.00599
1.00604
1.00593
1.00566
1.00525
1.00473
1.00415
1.00352
1.0029
1.0023
1.00173
1.00123
1.0008
1.00051
1.00028
1.00601
1.00606
1.00594
1.00567
1.00526
1.00474
1.00416
1.00353
1.00291
1.0023
1.00173
1.00123
1.0008
1.0005
1.00027
1.00602
1.00607
1.00596
1.00569
1.00528
1.00476
1.00418
1.00355
1.00292
1.00232
1.00175
1.00125
1.00081
1.0005
1.00027
1.00604
1.00609
1.00598
1.00571
1.0053
1.00479
1.00421
1.00358
1.00295
1.00234
1.00177
1.00126
1.00082
1.0005
1.00026
1.00605
1.00611
1.006
1.00573
1.00533
1.00482
1.00424
1.00361
1.00298
1.00236
1.00179
1.00127
1.00082
1.0005
1.00025
1.00607
1.00613
1.00602
1.00576
1.00536
1.00485
1.00427
1.00364
1.00301
1.00239
1.0018
1.00128
1.00083
1.0005
1.00024
1.00609
1.00615
1.00604
1.00578
1.00539
1.00488
1.0043
1.00367
1.00303
1.00241
1.00182
1.00129
1.00083
1.00048
1.00022
1.00611
1.00617
1.00606
1.00581
1.00541
1.00491
1.00433
1.00369
1.00305
1.00242
1.00183
1.00129
1.00082
1.00047
1.0002
1.00613
1.00619
1.00609
1.00583
1.00544
1.00493
1.00435
1.00371
1.00307
1.00243
1.00183
1.00129
1.00081
1.00046
1.00018
1.00616
1.00622
1.00611
1.00585
1.00546
1.00495
1.00437
1.00373
1.00308
1.00244
1.00183
1.00129
1.00081
1.00044
1.00016
1.00618
1.00624
1.00614
1.00588
1.00548
1.00497
1.00439
1.00375
1.00309
1.00245
1.00184
1.00129
1.0008
1.00043
1.00015
1.00621
1.00627
1.00617
1.00591
1.00551
1.005
1.00441
1.00377
1.00311
1.00246
1.00184
1.00129
1.0008
1.00042
1.00013
1.00623
1.0063
1.00619
1.00594
1.00554
1.00503
1.00443
1.00379
1.00313
1.00248
1.00185
1.00129
1.0008
1.00041
1.00011
1.00626
1.00633
1.00623
1.00597
1.00557
1.00506
1.00447
1.00382
1.00315
1.00249
1.00186
1.00129
1.00079
1.00039
1.00009
1.00629
1.00636
1.00626
1.00601
1.00561
1.0051
1.0045
1.00385
1.00318
1.00251
1.00188
1.0013
1.00079
1.00038
1.00006
1.00632
1.00639
1.00629
1.00604
1.00564
1.00513
1.00453
1.00388
1.0032
1.00253
1.00189
1.0013
1.00078
1.00036
1.00004
1.00636
1.00643
1.00633
1.00608
1.00568
1.00517
1.00457
1.00391
1.00322
1.00255
1.00189
1.0013
1.00077
1.00034
1.00001
1.00639
1.00646
1.00636
1.00611
1.00572
1.0052
1.0046
1.00393
1.00324
1.00256
1.0019
1.0013
1.00076
1.00033
0.999987
1.00642
1.0065
1.0064
1.00615
1.00575
1.00524
1.00463
1.00396
1.00326
1.00257
1.0019
1.00129
1.00075
1.00031
0.99996
1.00646
1.00654
1.00644
1.00619
1.00579
1.00527
1.00466
1.00398
1.00328
1.00258
1.0019
1.00129
1.00074
1.00028
0.999932
1.0065
1.00657
1.00648
1.00623
1.00582
1.0053
1.00469
1.00401
1.0033
1.00259
1.00191
1.00128
1.00072
1.00026
0.999903
1.00654
1.00661
1.00652
1.00627
1.00586
1.00534
1.00472
1.00403
1.00332
1.0026
1.00191
1.00128
1.00071
1.00024
0.999874
1.00658
1.00666
1.00656
1.00631
1.0059
1.00537
1.00475
1.00406
1.00334
1.00261
1.00191
1.00127
1.0007
1.00022
0.999844
1.00662
1.0067
1.0066
1.00635
1.00594
1.00541
1.00478
1.00409
1.00336
1.00263
1.00192
1.00127
1.00068
1.0002
0.999812
1.00667
1.00674
1.00665
1.0064
1.00599
1.00545
1.00482
1.00412
1.00338
1.00264
1.00192
1.00126
1.00067
1.00017
0.99978
1.00671
1.00679
1.0067
1.00644
1.00603
1.00549
1.00485
1.00414
1.0034
1.00265
1.00192
1.00125
1.00065
1.00014
0.999746
1.00676
1.00684
1.00674
1.00649
1.00607
1.00553
1.00489
1.00417
1.00342
1.00266
1.00193
1.00124
1.00063
1.00012
0.999711
1.00681
1.00689
1.00679
1.00654
1.00612
1.00557
1.00492
1.0042
1.00344
1.00267
1.00193
1.00123
1.00061
1.00009
0.999676
1.00686
1.00694
1.00684
1.00659
1.00617
1.00562
1.00496
1.00423
1.00346
1.00268
1.00193
1.00122
1.00059
1.00006
0.99964
1.00691
1.00699
1.00689
1.00664
1.00621
1.00566
1.005
1.00426
1.00348
1.00269
1.00193
1.00121
1.00057
1.00003
0.999602
1.00696
1.00704
1.00695
1.00669
1.00626
1.0057
1.00503
1.00429
1.0035
1.0027
1.00193
1.0012
1.00055
1
0.999564
1.00702
1.0071
1.007
1.00674
1.00631
1.00575
1.00507
1.00432
1.00352
1.00272
1.00193
1.00119
1.00053
0.99997
0.999525
1.00707
1.00716
1.00706
1.0068
1.00636
1.0058
1.00511
1.00435
1.00354
1.00273
1.00193
1.00118
1.00051
0.999938
0.999484
1.00713
1.00722
1.00712
1.00686
1.00642
1.00585
1.00516
1.00439
1.00357
1.00274
1.00193
1.00117
1.00049
0.999904
0.999442
1.00719
1.00728
1.00718
1.00691
1.00647
1.0059
1.0052
1.00442
1.00359
1.00275
1.00193
1.00116
1.00046
0.999869
0.999398
1.00725
1.00734
1.00724
1.00697
1.00653
1.00595
1.00524
1.00445
1.00361
1.00276
1.00192
1.00114
1.00044
0.999833
0.999354
1.00731
1.0074
1.0073
1.00704
1.00659
1.006
1.00528
1.00449
1.00363
1.00277
1.00192
1.00113
1.00041
0.999796
0.999308
1.00737
1.00747
1.00737
1.0071
1.00664
1.00605
1.00533
1.00452
1.00366
1.00278
1.00192
1.00111
1.00038
0.999757
0.999261
1.00744
1.00753
1.00743
1.00716
1.0067
1.0061
1.00537
1.00455
1.00368
1.00279
1.00191
1.00109
1.00035
0.999717
0.999213
1.00751
1.0076
1.0075
1.00723
1.00676
1.00615
1.00542
1.00459
1.0037
1.0028
1.00191
1.00107
1.00032
0.999677
0.999163
1.00758
1.00767
1.00757
1.00729
1.00683
1.00621
1.00546
1.00462
1.00372
1.00281
1.0019
1.00106
1.00029
0.999635
0.999113
1.00765
1.00774
1.00764
1.00736
1.00689
1.00627
1.00551
1.00466
1.00374
1.00281
1.0019
1.00104
1.00026
0.999592
0.99906
1.00772
1.00782
1.00771
1.00743
1.00695
1.00632
1.00556
1.00469
1.00377
1.00282
1.00189
1.00102
1.00023
0.999547
0.999007
1.00779
1.00789
1.00779
1.0075
1.00702
1.00638
1.00561
1.00473
1.00379
1.00283
1.00189
1.001
1.00019
0.999502
0.998951
1.00787
1.00797
1.00787
1.00758
1.00709
1.00644
1.00566
1.00477
1.00381
1.00284
1.00188
1.00098
1.00016
0.999455
0.998895
1.00795
1.00805
1.00794
1.00765
1.00716
1.0065
1.00571
1.00481
1.00384
1.00285
1.00187
1.00095
1.00012
0.999406
0.998836
1.00803
1.00813
1.00802
1.00773
1.00723
1.00657
1.00576
1.00484
1.00386
1.00286
1.00187
1.00093
1.00008
0.999356
0.998776
1.00811
1.00821
1.0081
1.00781
1.0073
1.00663
1.00581
1.00488
1.00389
1.00287
1.00186
1.00091
1.00004
0.999305
0.998715
1.00819
1.00829
1.00819
1.00789
1.00738
1.0067
1.00586
1.00492
1.00391
1.00287
1.00185
1.00088
1
0.999252
0.998652
1.00827
1.00838
1.00827
1.00797
1.00745
1.00676
1.00592
1.00496
1.00394
1.00288
1.00184
1.00086
0.999963
0.999197
0.998587
1.00836
1.00847
1.00836
1.00805
1.00753
1.00683
1.00597
1.00501
1.00396
1.00289
1.00183
1.00083
0.99992
0.999142
0.998521
1.00845
1.00856
1.00845
1.00814
1.00761
1.0069
1.00603
1.00505
1.00399
1.0029
1.00182
1.0008
0.999876
0.999084
0.998452
1.00854
1.00865
1.00854
1.00823
1.00769
1.00697
1.00609
1.00509
1.00401
1.0029
1.00181
1.00077
0.999831
0.999025
0.998382
1.00863
1.00874
1.00863
1.00831
1.00777
1.00704
1.00615
1.00513
1.00404
1.00291
1.0018
1.00074
0.999785
0.998964
0.99831
1.00873
1.00884
1.00873
1.00841
1.00785
1.00712
1.00621
1.00518
1.00406
1.00292
1.00178
1.00071
0.999737
0.998902
0.998236
1.00882
1.00894
1.00882
1.0085
1.00794
1.00719
1.00627
1.00522
1.00409
1.00292
1.00177
1.00068
0.999687
0.998838
0.998161
1.00892
1.00904
1.00892
1.00859
1.00803
1.00727
1.00633
1.00527
1.00412
1.00293
1.00176
1.00065
0.999636
0.998772
0.998083
1.00902
1.00914
1.00902
1.00869
1.00811
1.00734
1.00639
1.00531
1.00414
1.00294
1.00174
1.00061
0.999584
0.998704
0.998003
1.00912
1.00925
1.00913
1.00879
1.0082
1.00742
1.00646
1.00536
1.00417
1.00294
1.00173
1.00058
0.99953
0.998635
0.997922
1.00923
1.00935
1.00923
1.00889
1.0083
1.0075
1.00652
1.00541
1.0042
1.00295
1.00171
1.00054
0.999474
0.998564
0.997838
1.00933
1.00946
1.00934
1.00899
1.00839
1.00759
1.00659
1.00545
1.00422
1.00295
1.00169
1.0005
0.999418
0.998491
0.997752
1.00944
1.00957
1.00945
1.0091
1.00849
1.00767
1.00666
1.0055
1.00425
1.00296
1.00168
1.00046
0.999359
0.998416
0.997663
1.00956
1.00968
1.00956
1.0092
1.00859
1.00775
1.00673
1.00555
1.00428
1.00296
1.00166
1.00042
0.999299
0.998339
0.997573
1.00967
1.0098
1.00968
1.00931
1.00869
1.00784
1.0068
1.0056
1.00431
1.00297
1.00164
1.00038
0.999237
0.99826
0.99748
1.00979
1.00992
1.00979
1.00943
1.00879
1.00793
1.00687
1.00565
1.00434
1.00297
1.00162
1.00034
0.999173
0.998179
0.997385
1.0099
1.01004
1.00991
1.00954
1.00889
1.00802
1.00694
1.00571
1.00436
1.00298
1.0016
1.00029
0.999108
0.998095
0.997288
1.01002
1.01016
1.01003
1.00966
1.009
1.00811
1.00702
1.00576
1.00439
1.00298
1.00158
1.00025
0.999041
0.99801
0.997188
1.01015
1.01029
1.01016
1.00977
1.00911
1.00821
1.00709
1.00581
1.00442
1.00299
1.00156
1.0002
0.998972
0.997922
0.997086
1.01027
1.01042
1.01028
1.00989
1.00922
1.0083
1.00717
1.00587
1.00445
1.00299
1.00153
1.00015
0.998901
0.997833
0.996981
1.0104
1.01055
1.01041
1.01002
1.00933
1.0084
1.00725
1.00592
1.00448
1.00299
1.00151
1.0001
0.998828
0.99774
0.996873
1.01053
1.01068
1.01054
1.01014
1.00945
1.0085
1.00733
1.00598
1.00451
1.00299
1.00148
1.00005
0.998753
0.997646
0.996763
1.01066
1.01081
1.01068
1.01027
1.00956
1.0086
1.00741
1.00604
1.00454
1.003
1.00146
1
0.998676
0.997549
0.99665
1.0108
1.01095
1.01081
1.0104
1.00968
1.00871
1.00749
1.0061
1.00457
1.003
1.00143
0.999947
0.998598
0.997449
0.996534
1.01094
1.01109
1.01095
1.01054
1.0098
1.00881
1.00758
1.00615
1.0046
1.003
1.0014
0.999891
0.998517
0.997347
0.996416
1.01108
1.01124
1.01109
1.01067
1.00993
1.00892
1.00766
1.00622
1.00464
1.003
1.00137
0.999833
0.998434
0.997243
0.996294
1.01122
1.01138
1.01124
1.01081
1.01005
1.00903
1.00775
1.00628
1.00467
1.003
1.00134
0.999774
0.998348
0.997136
0.99617
1.01137
1.01153
1.01139
1.01095
1.01018
1.00914
1.00784
1.00634
1.0047
1.003
1.00131
0.999713
0.998261
0.997026
0.996042
1.01152
1.01169
1.01154
1.0111
1.01032
1.00925
1.00793
1.0064
1.00473
1.003
1.00128
0.999651
0.998171
0.996913
0.995912
1.01167
1.01184
1.01169
1.01124
1.01045
1.00937
1.00802
1.00646
1.00476
1.003
1.00125
0.999586
0.998078
0.996798
0.995778
1.01183
1.012
1.01185
1.01139
1.01059
1.00949
1.00812
1.00653
1.0048
1.003
1.00121
0.99952
0.997984
0.996679
0.995641
1.01199
1.01216
1.01201
1.01155
1.01073
1.00961
1.00821
1.0066
1.00483
1.003
1.00118
0.999452
0.997886
0.996558
0.995501
1.01215
1.01233
1.01217
1.0117
1.01087
1.00973
1.00831
1.00666
1.00486
1.003
1.00114
0.999382
0.997787
0.996434
0.995357
1.01231
1.0125
1.01234
1.01186
1.01101
1.00986
1.00841
1.00673
1.0049
1.00299
1.0011
0.99931
0.997684
0.996306
0.99521
1.01248
1.01267
1.01251
1.01202
1.01116
1.00998
1.00851
1.0068
1.00493
1.00299
1.00106
0.999235
0.997579
0.996176
0.995059
1.01265
1.01284
1.01268
1.01219
1.01131
1.01011
1.00861
1.00687
1.00496
1.00299
1.00102
0.999159
0.997471
0.996042
0.994905
1.01283
1.01302
1.01286
1.01236
1.01147
1.01025
1.00871
1.00694
1.005
1.00298
1.00098
0.99908
0.997361
0.995905
0.994747
1.013
1.0132
1.01303
1.01253
1.01162
1.01038
1.00882
1.00701
1.00503
1.00298
1.00093
0.999
0.997247
0.995764
0.994586
1.01318
1.01339
1.01322
1.0127
1.01178
1.01052
1.00893
1.00709
1.00507
1.00297
1.00089
0.998916
0.997131
0.99562
0.99442
1.01337
1.01358
1.0134
1.01288
1.01195
1.01066
1.00904
1.00716
1.0051
1.00296
1.00084
0.998831
0.997012
0.995473
0.994251
1.01356
1.01377
1.01359
1.01307
1.01211
1.0108
1.00915
1.00724
1.00514
1.00296
1.00079
0.998743
0.996889
0.995322
0.994077
1.01375
1.01396
1.01379
1.01325
1.01228
1.01095
1.00926
1.00731
1.00517
1.00295
1.00074
0.998653
0.996764
0.995167
0.9939
1.01394
1.01416
1.01399
1.01344
1.01245
1.01109
1.00938
1.00739
1.00521
1.00294
1.00069
0.99856
0.996635
0.995009
0.993718
1.01414
1.01437
1.01419
1.01363
1.01263
1.01124
1.0095
1.00747
1.00524
1.00293
1.00063
0.998465
0.996502
0.994846
0.993532
1.01435
1.01458
1.01439
1.01383
1.01281
1.0114
1.00962
1.00755
1.00528
1.00292
1.00058
0.998366
0.996367
0.99468
0.993341
1.01455
1.01479
1.0146
1.01403
1.01299
1.01155
1.00974
1.00763
1.00531
1.00291
1.00052
0.998265
0.996228
0.994509
0.993147
1.01476
1.015
1.01482
1.01424
1.01318
1.01171
1.00987
1.00771
1.00535
1.0029
1.00046
0.998161
0.996085
0.994335
0.992947
1.01498
1.01522
1.01504
1.01445
1.01337
1.01188
1.00999
1.0078
1.00539
1.00288
1.0004
0.998055
0.995939
0.994156
0.992743
1.0152
1.01545
1.01526
1.01466
1.01356
1.01204
1.01012
1.00788
1.00542
1.00287
1.00033
0.997945
0.995788
0.993973
0.992534
1.01542
1.01568
1.01548
1.01487
1.01376
1.01221
1.01025
1.00797
1.00546
1.00285
1.00027
0.997832
0.995634
0.993785
0.992321
1.01565
1.01591
1.01571
1.0151
1.01396
1.01238
1.01038
1.00805
1.00549
1.00284
1.0002
0.997716
0.995476
0.993593
0.992102
1.01588
1.01615
1.01595
1.01532
1.01417
1.01256
1.01052
1.00814
1.00553
1.00282
1.00013
0.997596
0.995315
0.993397
0.991879
1.01611
1.01639
1.01619
1.01555
1.01438
1.01274
1.01066
1.00823
1.00557
1.0028
1.00005
0.997473
0.995148
0.993195
0.99165
1.01636
1.01664
1.01644
1.01579
1.01459
1.01292
1.0108
1.00832
1.0056
1.00278
0.999979
0.997347
0.994978
0.992989
0.991416
1.0166
1.01689
1.01668
1.01603
1.01481
1.0131
1.01094
1.00841
1.00564
1.00275
0.999901
0.997217
0.994803
0.992778
0.991177
1.01685
1.01715
1.01694
1.01627
1.01503
1.01329
1.01109
1.00851
1.00567
1.00273
0.99982
0.997084
0.994624
0.992562
0.990933
1.01711
1.01741
1.0172
1.01652
1.01526
1.01349
1.01123
1.0086
1.00571
1.00271
0.999736
0.996947
0.994441
0.99234
0.990682
1.01737
1.01767
1.01746
1.01677
1.01549
1.01368
1.01138
1.00869
1.00574
1.00268
0.99965
0.996806
0.994252
0.992114
0.990426
1.01763
1.01795
1.01773
1.01703
1.01572
1.01388
1.01154
1.00879
1.00578
1.00265
0.99956
0.99666
0.994059
0.991882
0.990164
1.0179
1.01822
1.01801
1.0173
1.01596
1.01409
1.01169
1.00889
1.00581
1.00262
0.999467
0.996511
0.993861
0.991644
0.989897
1.01817
1.01851
1.01829
1.01757
1.01621
1.01429
1.01185
1.00899
1.00585
1.00259
0.999371
0.996358
0.993657
0.991401
0.989623
1.01845
1.0188
1.01858
1.01784
1.01646
1.0145
1.01201
1.00909
1.00588
1.00255
0.999272
0.9962
0.993449
0.991152
0.989343
1.01874
1.01909
1.01887
1.01812
1.01671
1.01472
1.01217
1.00919
1.00591
1.00252
0.99917
0.996037
0.993235
0.990897
0.989057
1.01903
1.01939
1.01917
1.01841
1.01697
1.01494
1.01234
1.00929
1.00594
1.00248
0.999064
0.99587
0.993016
0.990636
0.988764
1.01933
1.0197
1.01947
1.0187
1.01723
1.01516
1.01251
1.00939
1.00598
1.00244
0.998954
0.995698
0.992791
0.990368
0.988465
1.01963
1.02001
1.01978
1.019
1.01751
1.01539
1.01268
1.0095
1.00601
1.00239
0.99884
0.995521
0.99256
0.990095
0.988159
1.01994
1.02033
1.0201
1.0193
1.01778
1.01562
1.01285
1.0096
1.00604
1.00235
0.998723
0.99534
0.992324
0.989815
0.987847
1.02025
1.02065
1.02042
1.01961
1.01806
1.01586
1.01303
1.00971
1.00607
1.0023
0.998601
0.995152
0.992081
0.989528
0.987527
1.02057
1.02098
1.02075
1.01993
1.01835
1.0161
1.01321
1.00982
1.0061
1.00225
0.998475
0.99496
0.991832
0.989235
0.9872
1.0209
1.02132
1.02109
1.02025
1.01864
1.01634
1.01339
1.00993
1.00612
1.0022
0.998345
0.994762
0.991577
0.988934
0.986867
1.02123
1.02167
1.02143
1.02058
1.01894
1.01659
1.01358
1.01004
1.00615
1.00214
0.99821
0.994558
0.991315
0.988627
0.986525
1.02157
1.02202
1.02178
1.02092
1.01924
1.01685
1.01377
1.01015
1.00618
1.00208
0.998071
0.994348
0.991047
0.988312
0.986177
1.02192
1.02238
1.02214
1.02126
1.01955
1.01711
1.01396
1.01026
1.0062
1.00202
0.997927
0.994133
0.990771
0.98799
0.98582
1.02227
1.02274
1.0225
1.02161
1.01987
1.01737
1.01415
1.01037
1.00622
1.00195
0.997777
0.993911
0.990489
0.987661
0.985456
1.02263
1.02312
1.02287
1.02197
1.02019
1.01764
1.01435
1.01048
1.00624
1.00188
0.997623
0.993682
0.990199
0.987324
0.985084
1.023
1.0235
1.02325
1.02233
1.02052
1.01792
1.01455
1.01059
1.00626
1.00181
0.997463
0.993447
0.989902
0.986978
0.984704
1.02338
1.02389
1.02364
1.0227
1.02086
1.0182
1.01476
1.01071
1.00628
1.00173
0.997297
0.993205
0.989597
0.986625
0.984315
1.02376
1.02428
1.02404
1.02308
1.0212
1.01848
1.01496
1.01082
1.00629
1.00165
0.997125
0.992956
0.989284
0.986264
0.983918
1.02415
1.02469
1.02444
1.02347
1.02155
1.01877
1.01517
1.01094
1.00631
1.00156
0.996948
0.992699
0.988964
0.985894
0.983513
1.02455
1.0251
1.02485
1.02387
1.02191
1.01907
1.01538
1.01105
1.00632
1.00147
0.996764
0.992435
0.988635
0.985515
0.983099
1.02496
1.02552
1.02528
1.02427
1.02227
1.01937
1.0156
1.01117
1.00633
1.00137
0.996573
0.992163
0.988297
0.985128
0.982675
1.02537
1.02595
1.02571
1.02469
1.02264
1.01967
1.01582
1.01128
1.00633
1.00127
0.996375
0.991883
0.987951
0.984731
0.982243
1.02579
1.02639
1.02615
1.02511
1.02302
1.01999
1.01604
1.0114
1.00634
1.00117
0.996171
0.991595
0.987596
0.984325
0.981802
1.02622
1.02684
1.02659
1.02554
1.02341
1.0203
1.01627
1.01151
1.00634
1.00106
0.995959
0.991299
0.987232
0.98391
0.981351
1.02666
1.0273
1.02705
1.02598
1.02381
1.02063
1.01649
1.01163
1.00633
1.00094
0.995739
0.990993
0.986858
0.983486
0.980891
1.02711
1.02777
1.02752
1.02643
1.02421
1.02096
1.01672
1.01174
1.00633
1.00082
0.995512
0.990679
0.986475
0.983051
0.98042
1.02757
1.02825
1.028
1.02689
1.02462
1.02129
1.01696
1.01186
1.00632
1.00069
0.995276
0.990355
0.986081
0.982607
0.97994
1.02804
1.02874
1.02849
1.02736
1.02504
1.02163
1.01719
1.01197
1.0063
1.00055
0.995032
0.990021
0.985678
0.982152
0.97945
1.02852
1.02924
1.02899
1.02784
1.02547
1.02198
1.01743
1.01208
1.00628
1.00041
0.994779
0.989677
0.985264
0.981686
0.978949
1.02901
1.02974
1.0295
1.02833
1.02591
1.02233
1.01767
1.01219
1.00626
1.00026
0.994517
0.989324
0.98484
0.98121
0.978439
1.0295
1.03026
1.03002
1.02883
1.02636
1.02269
1.01792
1.0123
1.00623
1.0001
0.994245
0.988959
0.984404
0.980723
0.977917
1.03001
1.0308
1.03055
1.02934
1.02681
1.02306
1.01816
1.01241
1.0062
0.999931
0.993963
0.988584
0.983957
0.980225
0.977384
1.03053
1.03134
1.0311
1.02986
1.02728
1.02343
1.01841
1.01252
1.00616
0.999756
0.99367
0.988197
0.983499
0.979715
0.976841
1.03106
1.0319
1.03165
1.0304
1.02775
1.02381
1.01866
1.01263
1.00612
0.999572
0.993368
0.987798
0.983028
0.979194
0.976286
1.0316
1.03246
1.03222
1.03094
1.02824
1.0242
1.01892
1.01273
1.00606
0.999379
0.993053
0.987388
0.982546
0.978661
0.97572
1.03216
1.03304
1.03281
1.0315
1.02873
1.02459
1.01917
1.01283
1.00601
0.999176
0.992728
0.986965
0.982051
0.978116
0.975142
1.03272
1.03364
1.0334
1.03207
1.02924
1.02499
1.01943
1.01292
1.00594
0.998962
0.99239
0.986529
0.981543
0.977558
0.974553
1.0333
1.03424
1.03401
1.03266
1.02976
1.0254
1.01969
1.01302
1.00587
0.998739
0.992039
0.986081
0.981022
0.976988
0.973951
1.03389
1.03486
1.03463
1.03325
1.03028
1.02581
1.01995
1.01311
1.00579
0.998503
0.991676
0.985618
0.980488
0.976404
0.973338
1.03449
1.03549
1.03527
1.03386
1.03082
1.02623
1.02021
1.01319
1.0057
0.998257
0.991299
0.985141
0.979939
0.975808
0.972712
1.03511
1.03614
1.03592
1.03449
1.03137
1.02665
1.02048
1.01327
1.0056
0.997997
0.990908
0.98465
0.979377
0.975198
0.972073
1.03574
1.03681
1.03659
1.03513
1.03193
1.02709
1.02074
1.01335
1.00549
0.997725
0.990503
0.984144
0.9788
0.974575
0.971422
1.03638
1.03748
1.03727
1.03578
1.0325
1.02753
1.02101
1.01342
1.00537
0.997439
0.990083
0.983623
0.978208
0.973937
0.970758
1.03704
1.03818
1.03797
1.03645
1.03309
1.02797
1.02127
1.01348
1.00524
0.997139
0.989646
0.983086
0.977601
0.973285
0.970081
1.03771
1.03889
1.03869
1.03713
1.03369
1.02843
1.02153
1.01354
1.0051
0.996824
0.989194
0.982532
0.976978
0.972619
0.96939
1.0384
1.03961
1.03942
1.03783
1.03429
1.02888
1.0218
1.01359
1.00494
0.996494
0.988725
0.981961
0.97634
0.971938
0.968686
1.03911
1.04036
1.04017
1.03855
1.03492
1.02935
1.02206
1.01363
1.00478
0.996147
0.988238
0.981373
0.975684
0.971242
0.967969
1.03983
1.04112
1.04094
1.03928
1.03555
1.02982
1.02232
1.01367
1.00459
0.995783
0.987733
0.980768
0.975013
0.970531
0.967237
1.04056
1.04189
1.04172
1.04003
1.0362
1.0303
1.02258
1.01369
1.0044
0.995401
0.987209
0.980143
0.974323
0.969803
0.966492
1.04132
1.04269
1.04253
1.0408
1.03686
1.03078
1.02284
1.0137
1.00419
0.995
0.986665
0.9795
0.973617
0.96906
0.965731
1.04209
1.04351
1.04336
1.04159
1.03753
1.03127
1.02309
1.01371
1.00396
0.99458
0.986101
0.978837
0.972892
0.968301
0.964957
1.04288
1.04435
1.0442
1.04239
1.03822
1.03177
1.02334
1.0137
1.00371
0.99414
0.985517
0.978155
0.972149
0.967525
0.964167
1.04368
1.0452
1.04507
1.04322
1.03892
1.03226
1.02358
1.01367
1.00344
0.993677
0.98491
0.977451
0.971387
0.966732
0.963363
1.04451
1.04608
1.04596
1.04406
1.03964
1.03277
1.02382
1.01363
1.00316
0.993193
0.984281
0.976727
0.970606
0.965923
0.962543
1.04536
1.04698
1.04687
1.04493
1.04037
1.03328
1.02405
1.01358
1.00285
0.992684
0.983628
0.97598
0.969805
0.965095
0.961708
1.04622
1.0479
1.04781
1.04581
1.04111
1.03379
1.02428
1.01351
1.00252
0.992152
0.982952
0.975211
0.968984
0.96425
0.960857
1.04711
1.04885
1.04876
1.04672
1.04187
1.03431
1.02449
1.01342
1.00217
0.991594
0.98225
0.974419
0.968143
0.963387
0.95999
1.04802
1.04982
1.04975
1.04765
1.04264
1.03482
1.0247
1.01332
1.00179
0.991009
0.981523
0.973604
0.96728
0.962505
0.959107
1.04895
1.05081
1.05076
1.0486
1.04343
1.03534
1.0249
1.01319
1.00139
0.990397
0.980768
0.972764
0.966396
0.961604
0.958207
1.04991
1.05183
1.05179
1.04958
1.04423
1.03586
1.02508
1.01304
1.00096
0.989755
0.979987
0.971899
0.96549
0.960685
0.957291
1.05089
1.05288
1.05286
1.05058
1.04505
1.03639
1.02525
1.01286
1.0005
0.989084
0.979176
0.971009
0.964562
0.959746
0.956358
1.05189
1.05395
1.05395
1.0516
1.04588
1.03691
1.0254
1.01266
1
0.988381
0.978337
0.970093
0.963611
0.958788
0.955409
1.05292
1.05505
1.05507
1.05265
1.04672
1.03743
1.02554
1.01244
0.99948
0.987645
0.977467
0.969149
0.962637
0.957809
0.954442
1.05398
1.05618
1.05622
1.05373
1.04758
1.03794
1.02566
1.01218
0.998922
0.986875
0.976566
0.968179
0.96164
0.956811
0.953458
1.05506
1.05734
1.0574
1.05483
1.04845
1.03845
1.02575
1.01189
0.998327
0.986069
0.975632
0.96718
0.960618
0.955792
0.952456
1.05617
1.05854
1.05862
1.05596
1.04934
1.03896
1.02583
1.01157
0.997696
0.985227
0.974666
0.966152
0.959572
0.954752
0.951437
1.05731
1.05976
1.05987
1.05712
1.05024
1.03946
1.02587
1.01121
0.997023
0.984347
0.973665
0.965095
0.958501
0.953691
0.9504
1.05848
1.06102
1.06116
1.05831
1.05115
1.03995
1.02589
1.01081
0.99631
0.983427
0.972629
0.964009
0.957404
0.952609
0.949346
1.05968
1.06232
1.06248
1.05952
1.05207
1.04042
1.02588
1.01037
0.995552
0.982466
0.971557
0.962891
0.956282
0.951506
0.948273
1.06091
1.06365
1.06384
1.06077
1.053
1.04089
1.02584
1.00988
0.994749
0.981462
0.970448
0.961742
0.955134
0.950381
0.947182
1.06218
1.06502
1.06524
1.06204
1.05394
1.04134
1.02576
1.00935
0.993898
0.980414
0.9693
0.960561
0.95396
0.949234
0.946073
1.06348
1.06643
1.06668
1.06335
1.05489
1.04176
1.02563
1.00877
0.992996
0.979321
0.968114
0.959348
0.952759
0.948065
0.944945
1.06482
1.06788
1.06816
1.06469
1.05584
1.04217
1.02547
1.00814
0.992042
0.97818
0.966888
0.958101
0.951531
0.946874
0.9438
1.0662
1.06937
1.06969
1.06606
1.0568
1.04255
1.02526
1.00745
0.991033
0.976991
0.965621
0.956822
0.950276
0.945661
0.942635
1.06761
1.07091
1.07126
1.06746
1.05777
1.0429
1.02499
1.0067
0.989966
0.975751
0.964312
0.955508
0.948993
0.944425
0.941452
1.06906
1.0725
1.07288
1.06889
1.05873
1.04322
1.02467
1.00589
0.98884
0.97446
0.96296
0.95416
0.947682
0.943167
0.940251
1.07056
1.07413
1.07455
1.07036
1.05969
1.0435
1.02429
1.00501
0.987651
0.973116
0.961565
0.952776
0.946343
0.941886
0.939031
1.0721
1.07582
1.07627
1.07186
1.06065
1.04373
1.02385
1.00406
0.986398
0.971717
0.960125
0.951358
0.944976
0.940582
0.937792
1.07369
1.07756
1.07804
1.07339
1.0616
1.04392
1.02333
1.00304
0.985077
0.970261
0.95864
0.949904
0.943581
0.939255
0.936535
1.07532
1.07935
1.07987
1.07495
1.06253
1.04406
1.02274
1.00193
0.983687
0.968749
0.95711
0.948414
0.942158
0.937906
0.935259
1.077
1.0812
1.08176
1.07654
1.06345
1.04413
1.02207
1.00075
0.982225
0.967177
0.955533
0.946887
0.940706
0.936534
0.933964
1.07873
1.08312
1.08371
1.07815
1.06434
1.04414
1.02131
0.99948
0.980688
0.965545
0.953909
0.945324
0.939226
0.93514
0.93265
1.08052
1.0851
1.08572
1.0798
1.06521
1.04407
1.02045
0.998118
0.979074
0.963852
0.952237
0.943725
0.937717
0.933723
0.931319
1.08236
1.08714
1.08779
1.08147
1.06605
1.04393
1.0195
0.996662
0.977382
0.962096
0.950518
0.942089
0.93618
0.932283
0.929968
1.08426
1.08926
1.08993
1.08316
1.06684
1.04369
1.01844
0.995107
0.975607
0.960277
0.948751
0.940417
0.934614
0.93082
0.928599
1.08623
1.09145
1.09213
1.08488
1.06758
1.04335
1.01726
0.993449
0.97375
0.958395
0.946935
0.938708
0.93302
0.929336
0.927212
1.08825
1.09372
1.09441
1.08661
1.06827
1.04291
1.01596
0.991683
0.971807
0.956446
0.94507
0.936962
0.931398
0.927829
0.925806
1.09034
1.09608
1.09676
1.08834
1.06889
1.04234
1.01454
0.989807
0.969777
0.954433
0.943158
0.93518
0.929749
0.926301
0.924383
1.09251
1.09852
1.09918
1.09009
1.06942
1.04165
1.01298
0.987815
0.967658
0.952354
0.941196
0.933363
0.928072
0.92475
0.922941
1.09474
1.10106
1.10167
1.09183
1.06987
1.04081
1.01127
0.985704
0.96545
0.950208
0.939187
0.93151
0.926368
0.923178
0.921482
1.09706
1.10369
1.10424
1.09356
1.07022
1.03982
1.00941
0.983472
0.96315
0.947996
0.937129
0.929621
0.924638
0.921585
0.920005
1.09946
1.10643
1.10689
1.09528
1.07044
1.03866
1.0074
0.981114
0.960758
0.945719
0.935025
0.927699
0.922881
0.919971
0.918511
1.10194
1.10928
1.10961
1.09696
1.07053
1.03732
1.00522
0.978628
0.958274
0.943375
0.932874
0.925742
0.921098
0.918337
0.917
1.10451
1.11224
1.1124
1.0986
1.07046
1.03578
1.00286
0.976012
0.955697
0.940966
0.930677
0.923752
0.91929
0.916682
0.915472
1.10718
1.11533
1.11527
1.10019
1.07023
1.03404
1.00033
0.973263
0.953027
0.938493
0.928435
0.92173
0.917457
0.915008
0.913928
1.10996
1.11855
1.1182
1.1017
1.0698
1.03207
0.99761
0.970381
0.950265
0.935957
0.926149
0.919677
0.915601
0.913314
0.912368
1.11284
1.1219
1.1212
1.10312
1.06916
1.02987
0.994697
0.967365
0.947412
0.933359
0.923821
0.917593
0.913721
0.911602
0.910792
1.11583
1.1254
1.12425
1.10443
1.06828
1.02741
0.991588
0.964214
0.944469
0.930701
0.921452
0.91548
0.911819
0.909871
0.909201
1.11895
1.12905
1.12735
1.1056
1.06714
1.02469
0.988279
0.960929
0.941437
0.927983
0.919044
0.913339
0.909896
0.908123
0.907595
1.12221
1.13286
1.13049
1.1066
1.06571
1.02169
0.984765
0.957512
0.93832
0.92521
0.916598
0.911171
0.907951
0.906357
0.905974
1.1256
1.13684
1.13365
1.10741
1.06396
1.01839
0.981045
0.953964
0.935119
0.922383
0.914116
0.908978
0.905987
0.904575
0.904338
1.12915
1.14099
1.13682
1.108
1.06187
1.01479
0.97712
0.950288
0.931837
0.919504
0.911601
0.906762
0.904004
0.902777
0.902689
1.13286
1.14532
1.13998
1.10832
1.05941
1.01087
0.972988
0.946489
0.928479
0.916577
0.909055
0.904523
0.902003
0.900964
0.901026
1.13675
1.14984
1.14309
1.10833
1.05654
1.00662
0.968654
0.942571
0.925048
0.913605
0.90648
0.902263
0.899986
0.899136
0.899351
1.14083
1.15454
1.14614
1.10799
1.05324
1.00204
0.964122
0.93854
0.921549
0.910592
0.903878
0.899984
0.897952
0.897294
0.897662
1.14511
1.15944
1.14908
1.10725
1.04948
0.997125
0.959398
0.934402
0.917986
0.90754
0.901254
0.897689
0.895905
0.895439
0.895962
1.14963
1.16453
1.15188
1.10607
1.04522
0.991868
0.954489
0.930164
0.914364
0.904455
0.898608
0.895378
0.893843
0.893571
0.89425
1.15439
1.1698
1.15448
1.10438
1.04044
0.986273
0.949407
0.925835
0.910691
0.901341
0.895945
0.893053
0.89177
0.891692
0.892526
1.15941
1.17525
1.15684
1.10212
1.03512
0.980346
0.944164
0.921423
0.90697
0.898201
0.893267
0.890717
0.889685
0.889802
0.890793
1.16473
1.18086
1.15888
1.09924
1.02924
0.974095
0.938774
0.916937
0.903209
0.895042
0.890578
0.888371
0.887591
0.887902
0.889049
1.17037
1.18663
1.16054
1.09568
1.02278
0.967536
0.933252
0.912388
0.899415
0.891866
0.887881
0.886017
0.885487
0.885992
0.887295
1.17636
1.19251
1.16174
1.09136
1.01572
0.960688
0.927618
0.907785
0.895595
0.888681
0.885178
0.883658
0.883377
0.884073
0.885533
1.18273
1.19847
1.16238
1.08623
1.00807
0.953576
0.921889
0.90314
0.891755
0.885491
0.882473
0.881294
0.88126
0.882147
0.883762
1.18952
1.20447
1.16238
1.08022
0.999833
0.946228
0.916087
0.898463
0.887903
0.8823
0.87977
0.878928
0.879137
0.880214
0.881983
1.19675
1.21045
1.16161
1.07328
0.991014
0.93868
0.910232
0.893765
0.884048
0.879115
0.877071
0.876562
0.877011
0.878274
0.880198
1.20448
1.21632
1.15996
1.06535
0.981644
0.930971
0.904347
0.889057
0.880196
0.875941
0.87438
0.874197
0.874882
0.87633
0.878406
1.21274
1.22201
1.1573
1.05639
0.971757
0.923145
0.898451
0.88435
0.876357
0.872783
0.871698
0.871836
0.872752
0.874381
0.876609
1.22156
1.22741
1.1535
1.04636
0.961406
0.91525
0.892565
0.879654
0.872538
0.869647
0.86903
0.869478
0.870621
0.872429
0.874807
1.23098
1.23236
1.14841
1.03524
0.950654
0.907334
0.88671
0.87498
0.868747
0.866537
0.866378
0.867128
0.868491
0.870474
0.873002
1.24105
1.23673
1.14189
1.02303
0.939581
0.899449
0.880902
0.87034
0.864993
0.863458
0.863744
0.864785
0.866363
0.868519
0.871195
1.25178
1.24032
1.13379
1.00975
0.928279
0.891643
0.875158
0.865742
0.861285
0.860416
0.86113
0.862451
0.864239
0.866564
0.869386
1.26319
1.24291
1.12396
0.995452
0.916854
0.883964
0.869491
0.861199
0.857631
0.857414
0.858539
0.860129
0.86212
0.864611
0.867578
1.27529
1.24425
1.11226
0.980222
0.905424
0.876452
0.863913
0.85672