/*--------------------------------*- C++ -*----------------------------------*\
  =========                 |
  \\      /  F ield         | OpenFOAM: The Open Source CFD Toolbox
   \\    /   O peration     | Website:  https://openfoam.org
    \\  /    A nd           | Version:  6.0
     \\/     M anipulation  |
\*---------------------------------------------------------------------------*/
FoamFile
{
    version     2.0;
    format      ascii;
    class       surfaceScalarField;
    location    "6.2";
    object      phi;
}
// * * * * * * * * * * * * * * * * * * * * * * * * * * * * * * * * * * * * * //

dimensions      [0 3 -1 0 0 0 0];

internalField   nonuniform List<scalar> 
68636
(
3.02288e-05
0.00310561
2.93085e-09
6.08424e-05
0.00307074
9.10912e-05
0.00300251
0.00012048
0.00290143
0.000148623
0.00276854
0.000175173
0.0026053
0.000199816
0.00241353
0.000222268
0.00219535
0.000242271
0.00195315
0.000259598
0.00168961
0.000274053
0.00140762
0.000285472
0.00111023
0.000293734
0.000800748
0.00029872
0.000482347
0.0001571
0.000299771
2.99489e-05
0.00307565
8.87365e-09
6.0285e-05
0.0030404
9.02593e-05
0.00297253
0.000119381
0.00287231
0.000147268
0.00274066
0.000173575
0.002579
0.000197994
0.00238912
0.00022024
0.00217311
0.00024006
0.00193334
0.000257229
0.00167245
0.000271553
0.0013933
0.000282868
0.00109892
0.000291068
0.000792559
0.000295937
0.000477494
0.000156006
0.000297058
2.96714e-05
0.00304596
1.45336e-08
5.97324e-05
0.00301034
8.94348e-05
0.00294283
0.000118293
0.00284345
0.000145926
0.00271303
0.000171994
0.00255294
0.000196191
0.00236493
0.000218234
0.00215106
0.000237874
0.0019137
0.000254886
0.00165544
0.000269079
0.00137911
0.000280289
0.00108771
0.000288415
0.000784429
0.000293278
0.000472625
0.000154715
0.000294552
2.93968e-05
0.00301655
1.99305e-08
5.91851e-05
0.00298055
8.86183e-05
0.0029134
0.000117214
0.00281486
0.000144597
0.00268565
0.000170428
0.00252711
0.000194404
0.00234095
0.000216246
0.00212923
0.000235706
0.00189425
0.000252563
0.00163859
0.000266626
0.00136505
0.000277732
0.00107661
0.000285779
0.000776388
0.000290623
0.000467791
0.000153371
0.000291983
2.91248e-05
0.0029874
2.49179e-08
5.86431e-05
0.00295103
8.78092e-05
0.00288424
0.000116146
0.00278652
0.00014328
0.00265851
0.000168875
0.00250151
0.000192632
0.0023172
0.000214275
0.00210758
0.000233558
0.00187496
0.00025026
0.00162188
0.000264195
0.00135111
0.000275199
0.0010656
0.000283166
0.000768418
0.000287973
0.000462976
0.000151933
0.000289393
2.88555e-05
0.00295851
2.95285e-08
5.8106e-05
0.00292178
8.70074e-05
0.00285533
0.000115086
0.00275844
0.000141974
0.00263163
0.000167336
0.00247615
0.000190877
0.00229366
0.000212322
0.00208614
0.000231429
0.00185586
0.000247979
0.00160533
0.000261786
0.00133731
0.00027269
0.0010547
0.000280577
0.000760535
0.000285345
0.000458215
0.000150481
0.000286807
2.85888e-05
0.00292989
3.3831e-08
5.75737e-05
0.0028928
8.62127e-05
0.0028267
0.000114037
0.00273062
0.00014068
0.00260498
0.000165811
0.00245102
0.000189137
0.00227033
0.000210387
0.00206489
0.000229319
0.00183693
0.000245718
0.00158893
0.0002594
0.00132362
0.000270205
0.00104389
0.000278015
0.00075272
0.00028274
0.000453484
0.000148979
0.000284226
2.83246e-05
0.00290153
3.77894e-08
5.70463e-05
0.00286407
8.54252e-05
0.00279832
0.000112996
0.00270305
0.000139397
0.00257858
0.0001643
0.00242611
0.000187413
0.00224722
0.00020847
0.00204383
0.000227229
0.00181817
0.000243478
0.00157269
0.000257035
0.00131007
0.000267742
0.00103319
0.000275479
0.000744986
0.000280159
0.000448809
0.000147493
0.000281653
2.80629e-05
0.00287342
4.14613e-08
5.65237e-05
0.00283561
8.46447e-05
0.0027702
0.000111965
0.00267573
0.000138126
0.00255242
0.000162802
0.00240144
0.000185705
0.00222432
0.00020657
0.00202296
0.000225158
0.00179958
0.000241259
0.00155658
0.000254692
0.00129663
0.000265302
0.00102258
0.000272967
0.000737318
0.000277604
0.000444167
0.000145983
0.000279098
2.78036e-05
0.00284557
4.49147e-08
5.60058e-05
0.00280741
8.38713e-05
0.00274233
0.000110943
0.00264865
0.000136866
0.0025265
0.000161318
0.00237699
0.000184012
0.00220162
0.000204687
0.00200229
0.000223106
0.00178116
0.00023906
0.00154063
0.000252371
0.00128332
0.000262885
0.00101206
0.000270479
0.000729726
0.000275073
0.000439578
0.000144498
0.000276565
2.75468e-05
0.00281798
4.81838e-08
5.54926e-05
0.00277947
8.31047e-05
0.00271472
0.000109931
0.00262183
0.000135617
0.00250081
0.000159846
0.00235276
0.000182334
0.00217913
0.000202821
0.0019818
0.000221072
0.00176291
0.000236881
0.00152482
0.00025007
0.00127013
0.000260489
0.00100164
0.000268015
0.000722197
0.000272567
0.00043502
0.000142997
0.000274054
2.72923e-05
0.00279064
5.1346e-08
5.49841e-05
0.00275177
8.23451e-05
0.00268736
0.000108927
0.00259525
0.00013438
0.00247536
0.000158389
0.00232875
0.000180672
0.00215685
0.000200972
0.0019615
0.000219057
0.00174482
0.000234722
0.00150916
0.000247791
0.00125707
0.000258115
0.00099132
0.000265573
0.000714742
0.000270085
0.000430512
0.00014152
0.000271568
2.70402e-05
0.00276354
5.44743e-08
5.44801e-05
0.00272433
8.15922e-05
0.00266025
0.000107932
0.00256891
0.000133153
0.00245014
0.000156944
0.00230496
0.000179024
0.00213477
0.000199139
0.00194139
0.00021706
0.0017269
0.000232583
0.00149363
0.000245533
0.00124411
0.000255763
0.000981087
0.000263154
0.000707348
0.000267626
0.000426035
0.000140028
0.000269105
2.67903e-05
0.00273669
5.7623e-08
5.39806e-05
0.00269714
8.0846e-05
0.00263338
0.000106946
0.00254281
0.000131938
0.00242515
0.000155512
0.00228138
0.000177392
0.00211289
0.000197324
0.00192146
0.000215081
0.00170914
0.000230463
0.00147825
0.000243295
0.00123128
0.000253433
0.000970952
0.000260757
0.000700026
0.00026519
0.000421606
0.00013856
0.000266664
2.65427e-05
0.00271009
6.08525e-08
5.34856e-05
0.0026702
8.01066e-05
0.00260676
0.00010597
0.00251694
0.000130734
0.00240038
0.000154093
0.00225802
0.000175774
0.00209121
0.000195525
0.0019017
0.000213121
0.00169155
0.000228362
0.00146301
0.000241078
0.00121857
0.000251123
0.000960904
0.000258381
0.000692766
0.000262776
0.000417207
0.000137079
0.000264244
2.62973e-05
0.00268373
6.42038e-08
5.2995e-05
0.0026435
7.93738e-05
0.00258038
0.000105001
0.00249131
0.00012954
0.00237585
0.000152687
0.00223488
0.000174171
0.00206973
0.000193742
0.00188213
0.000211178
0.00167411
0.000226281
0.00144791
0.000238881
0.00120597
0.000248835
0.000950951
0.000256028
0.000685575
0.000260383
0.000412855
0.000135624
0.000261844
2.60541e-05
0.00265761
6.76969e-08
5.25088e-05
0.00261705
7.86475e-05
0.00255424
0.000104042
0.00246592
0.000128358
0.00235153
0.000151294
0.00221194
0.000172582
0.00204844
0.000191975
0.00186274
0.000209253
0.00165683
0.000224219
0.00143294
0.000236704
0.00119348
0.000246568
0.000941085
0.000253696
0.000678445
0.000258013
0.000408533
0.000134162
0.000259464
2.58131e-05
0.00263172
7.13398e-08
5.20269e-05
0.00259083
7.79277e-05
0.00252834
0.000103091
0.00244076
0.000127186
0.00232744
0.000149913
0.00218921
0.000171008
0.00202735
0.000190225
0.00184352
0.000207346
0.00163971
0.000222175
0.00141811
0.000234547
0.00118111
0.000244322
0.000931312
0.000251385
0.000671384
0.000255664
0.000404258
0.000132727
0.000257104
2.55742e-05
0.00260607
7.51205e-08
5.15494e-05
0.00256486
7.72144e-05
0.00250268
0.000102149
0.00241582
0.000126024
0.00230356
0.000148545
0.00216669
0.000169448
0.00200644
0.00018849
0.00182448
0.000205456
0.00162275
0.000220151
0.00140342
0.00023241
0.00116885
0.000242096
0.000921624
0.000249096
0.000664381
0.000253336
0.000400014
0.000131289
0.000254764
2.53374e-05
0.00258066
7.90104e-08
5.10762e-05
0.00253912
7.65076e-05
0.00247725
0.000101215
0.00239112
0.000124873
0.0022799
0.00014719
0.00214437
0.000167902
0.00198573
0.000186772
0.00180561
0.000203583
0.00160594
0.000218144
0.00138885
0.000230292
0.00115671
0.00023989
0.000912028
0.000246827
0.000657446
0.00025103
0.000395815
0.000129877
0.000252447
2.51027e-05
0.00255547
8.29736e-08
5.06072e-05
0.00251362
7.5807e-05
0.00245205
0.00010029
0.00236663
0.000123733
0.00225646
0.000145846
0.00212226
0.000166371
0.00196521
0.000185069
0.00178691
0.000201727
0.00158928
0.000216156
0.00137442
0.000228194
0.00114467
0.000237705
0.000902515
0.000244579
0.00065057
0.000248744
0.000391646
0.000128462
0.00025015
2.48701e-05
0.00253051
8.69612e-08
5.01424e-05
0.00248834
7.51128e-05
0.00242708
9.93726e-05
0.00234237
0.000122602
0.00223323
0.000144515
0.00210035
0.000164853
0.00194487
0.000183381
0.00176839
0.000199888
0.00157277
0.000214186
0.00136013
0.000226114
0.00113274
0.000235539
0.000893092
0.000242352
0.000643759
0.00024648
0.000387521
0.000127072
0.000247875
2.46395e-05
0.00250578
9.09241e-08
4.96817e-05
0.0024633
7.44248e-05
0.00240233
9.84639e-05
0.00231833
0.000121482
0.00221021
0.000143196
0.00207863
0.000163349
0.00192471
0.000181709
0.00175002
0.000198065
0.00155641
0.000212234
0.00134596
0.000224054
0.00112092
0.000233394
0.000883751
0.000240145
0.000637005
0.000244237
0.000383426
0.000125679
0.000245621
2.4411e-05
0.00248128
9.48105e-08
4.92252e-05
0.00243849
7.37431e-05
0.00237782
9.75634e-05
0.00229451
0.000120372
0.0021874
0.000141888
0.00205712
0.000161858
0.00190474
0.000180051
0.00173183
0.00019626
0.00154021
0.0002103
0.00133192
0.000222013
0.00110921
0.000231267
0.000874497
0.000237958
0.000630316
0.000242013
0.000379373
0.00012431
0.000243388
2.41845e-05
0.00245699
9.85749e-08
4.87728e-05
0.0024139
7.30674e-05
0.00235352
9.6671e-05
0.00227091
0.000119273
0.0021648
0.000140593
0.0020358
0.000160382
0.00188496
0.000178409
0.0017138
0.00019447
0.00152414
0.000208383
0.00131801
0.00021999
0.0010976
0.000229161
0.000865325
0.000235791
0.000623683
0.000239811
0.000375351
0.000122939
0.000241174
2.39601e-05
0.00243293
1.02177e-07
4.83245e-05
0.00238953
7.23979e-05
0.00232945
9.57867e-05
0.00224752
0.000118183
0.0021424
0.000139309
0.00201467
0.000158918
0.00186535
0.000176782
0.00169594
0.000192697
0.00150823
0.000206484
0.00130422
0.000217985
0.0010861
0.000227073
0.000856238
0.000233644
0.000617114
0.000237628
0.00037137
0.000121592
0.00023898
2.37376e-05
0.00240909
1.05592e-07
4.78802e-05
0.00236539
7.17345e-05
0.00230559
9.49104e-05
0.00222434
0.000117103
0.00212021
0.000138037
0.00199374
0.000157468
0.00184592
0.00017517
0.00167824
0.00019094
0.00149246
0.000204602
0.00129056
0.000215999
0.0010747
0.000225005
0.000847231
0.000231517
0.0006106
0.000235465
0.000367419
0.000120244
0.000236806
2.35172e-05
0.00238546
1.08805e-07
4.74399e-05
0.00234147
7.1077e-05
0.00228196
9.40421e-05
0.00220138
0.000116033
0.00209822
0.000136777
0.00197299
0.000156031
0.00182666
0.000173572
0.0016607
0.0001892
0.00147683
0.000202737
0.00127702
0.000214031
0.00106341
0.000222955
0.000838308
0.000229409
0.000604149
0.000233322
0.000363508
0.000118919
0.000234651
2.32987e-05
0.00236205
1.11821e-07
4.70036e-05
0.00231776
7.04255e-05
0.00225853
9.31816e-05
0.00217862
0.000114972
0.00207643
0.000135528
0.00195244
0.000154607
0.00180758
0.000171989
0.00164331
0.000187474
0.00146134
0.000200889
0.00126361
0.000212081
0.00105221
0.000220924
0.000829463
0.00022732
0.000597752
0.000231198
0.000359628
0.000117594
0.000232516
2.30823e-05
0.00233885
1.1466e-07
4.65713e-05
0.00229428
6.97799e-05
0.00223533
9.23289e-05
0.00215607
0.000113921
0.00205484
0.00013429
0.00193207
0.000153196
0.00178868
0.00017042
0.00162609
0.000185765
0.001446
0.000199058
0.00125031
0.000210148
0.00104112
0.000218912
0.0008207
0.00022525
0.000591415
0.000229094
0.000355786
0.000116291
0.000230401
2.28678e-05
0.00231587
1.17355e-07
4.61429e-05
0.002271
6.91401e-05
0.00221233
9.14839e-05
0.00213373
0.00011288
0.00203344
0.000133064
0.00191188
0.000151798
0.00176994
0.000168865
0.00160902
0.000184071
0.00143079
0.000197243
0.00123714
0.000208233
0.00103013
0.000216918
0.000812015
0.000223199
0.000585132
0.000227009
0.000351974
0.000114989
0.000228305
2.26553e-05
0.00229309
1.1995e-07
4.57183e-05
0.00224794
6.85062e-05
0.00218954
9.06466e-05
0.00211159
0.000111848
0.00201224
0.000131848
0.00189189
0.000150412
0.00175138
0.000167325
0.00159211
0.000182393
0.00141573
0.000195446
0.00122409
0.000206336
0.00101924
0.000214942
0.00080341
0.000221167
0.000578909
0.000224943
0.000348201
0.000113708
0.000226228
2.24448e-05
0.00227053
1.22496e-07
4.52977e-05
0.00222508
6.7878e-05
0.00216696
8.9817e-05
0.00208965
0.000110825
0.00199123
0.000130644
0.00187207
0.000149039
0.00173299
0.000165798
0.00157535
0.000180729
0.00140079
0.000193664
0.00121115
0.000204456
0.00100845
0.000212985
0.00079488
0.000219153
0.000572739
0.000222895
0.000344456
0.000112427
0.00022417
2.22361e-05
0.00224817
1.2504e-07
4.48808e-05
0.00220244
6.72555e-05
0.00214458
8.89948e-05
0.00206791
0.000109812
0.00197042
0.000129451
0.00185243
0.000147679
0.00171476
0.000164285
0.00155875
0.000179081
0.001386
0.000191899
0.00119834
0.000202593
0.000997757
0.000211045
0.00078643
0.000217158
0.000566627
0.000220867
0.000340749
0.000111168
0.000222131
2.20294e-05
0.00222601
1.27628e-07
4.44678e-05
0.00218
6.66387e-05
0.00212241
8.81801e-05
0.00204637
0.000108808
0.00194979
0.000128268
0.00183297
0.00014633
0.00169669
0.000162787
0.00154229
0.000177448
0.00137134
0.00019015
0.00118564
0.000200747
0.000987159
0.000209123
0.000778053
0.000215181
0.000560567
0.000218857
0.000337071
0.000109909
0.00022011
2.18246e-05
0.00220405
1.30292e-07
4.40585e-05
0.00215777
6.60275e-05
0.00210044
8.73729e-05
0.00202502
0.000107813
0.00192935
0.000127096
0.00181369
0.000144995
0.0016788
0.000161301
0.00152598
0.00017583
0.00135681
0.000188416
0.00117305
0.000198918
0.000976657
0.000207218
0.000769755
0.000213222
0.000554564
0.000216865
0.00033343
0.000108671
0.000218108
2.16217e-05
0.0021823
1.33053e-07
4.3653e-05
0.00213574
6.54219e-05
0.00207868
8.6573e-05
0.00200387
0.000106827
0.00190909
0.000125935
0.00179458
0.000143671
0.00166106
0.00015983
0.00150982
0.000174227
0.00134241
0.000186699
0.00116058
0.000197106
0.00096625
0.000205331
0.000761529
0.000211281
0.000548612
0.000214892
0.000329817
0.000107435
0.000216123
2.14207e-05
0.00216074
1.35914e-07
4.32512e-05
0.00211391
6.48218e-05
0.0020571
8.57803e-05
0.00198292
0.00010585
0.00188902
0.000124784
0.00177564
0.000142359
0.00164349
0.000158371
0.00149381
0.000172638
0.00132814
0.000184997
0.00114822
0.00019531
0.000955938
0.000203461
0.000753379
0.000209358
0.000542716
0.000212936
0.000326241
0.000106218
0.000214157
2.12215e-05
0.00213938
1.38866e-07
4.28531e-05
0.00209227
6.42272e-05
0.00203573
8.49949e-05
0.00196215
0.000104882
0.00186913
0.000123644
0.00175688
0.000141059
0.00162607
0.000156926
0.00147794
0.000171064
0.00131401
0.000183311
0.00113597
0.000193531
0.000945717
0.000201608
0.000745301
0.000207452
0.000536871
0.000210999
0.000322692
0.000105003
0.000212209
2.10241e-05
0.00211822
1.41884e-07
4.24586e-05
0.00207084
6.3638e-05
0.00201455
8.42166e-05
0.00194157
0.000103923
0.00184943
0.000122515
0.00173829
0.000139771
0.00160881
0.000155494
0.00146222
0.000169504
0.0013
0.00018164
0.00112383
0.000191768
0.000935591
0.000199772
0.000737297
0.000205564
0.000531081
0.000209079
0.000319179
0.000103807
0.000210279
2.08286e-05
0.00209724
1.44938e-07
4.20677e-05
0.0020496
6.30541e-05
0.00199356
8.34454e-05
0.00192118
0.000102973
0.0018299
0.000121395
0.00171987
0.000138495
0.00159171
0.000154076
0.00144664
0.000167958
0.00128611
0.000179985
0.00111181
0.000190021
0.000925554
0.000197953
0.000729364
0.000203693
0.00052534
0.000207177
0.000315693
0.000102613
0.000208366
2.06348e-05
0.00207646
1.47988e-07
4.16804e-05
0.00202856
6.24756e-05
0.00197277
8.26813e-05
0.00190097
0.000102031
0.00181055
0.000120286
0.00170161
0.000137231
0.00157477
0.00015267
0.0014312
0.000166426
0.00127236
0.000178345
0.00109989
0.00018829
0.000915609
0.000196151
0.000721504
0.000201839
0.000519652
0.000205292
0.000312242
0.000101437
0.000206472
2.04429e-05
0.00205586
1.50997e-07
4.12966e-05
0.0020077
6.19024e-05
0.00195216
8.19241e-05
0.00188095
0.000101098
0.00179138
0.000119187
0.00168352
0.000135978
0.00155798
0.000151277
0.0014159
0.000164909
0.00125873
0.000176719
0.00108808
0.000186575
0.000905753
0.000194365
0.000713713
0.000200002
0.000514014
0.000203425
0.000308818
0.000100264
0.000204594
2.02527e-05
0.00203546
1.53929e-07
4.09164e-05
0.00198704
6.13344e-05
0.00193175
8.11738e-05
0.00186111
0.000100173
0.00177238
0.000118098
0.0016656
0.000134736
0.00154134
0.000149897
0.00140074
0.000163405
0.00124522
0.000175109
0.00107638
0.000184875
0.000895987
0.000192596
0.000705994
0.000198182
0.000508428
0.000201574
0.000305428
9.9108e-05
0.000202733
2.00642e-05
0.00201524
1.56756e-07
4.05396e-05
0.00196656
6.07716e-05
0.00191151
8.04303e-05
0.00184145
9.92567e-05
0.00175355
0.000117019
0.00164784
0.000133506
0.00152485
0.000148529
0.00138572
0.000161915
0.00123183
0.000173513
0.00106478
0.000183192
0.000886308
0.000190842
0.000698343
0.000196379
0.00050289
0.00019974
0.000302064
9.79555e-05
0.00020089
1.98775e-05
0.0019952
1.59454e-07
4.01663e-05
0.00194627
6.02139e-05
0.00189147
7.96936e-05
0.00182197
9.83488e-05
0.0017349
0.000115949
0.00163024
0.000132287
0.00150851
0.000147174
0.00137083
0.000160439
0.00121857
0.000171932
0.00105328
0.000181523
0.000876718
0.000189105
0.000690762
0.000194592
0.000497404
0.000197924
0.000298734
9.68192e-05
0.000199063
1.96925e-05
0.00197535
1.62012e-07
3.97963e-05
0.00192617
5.96613e-05
0.0018716
7.89637e-05
0.00180267
9.74492e-05
0.00171641
0.00011489
0.0016128
0.000131079
0.00149232
0.000145831
0.00135608
0.000158976
0.00120542
0.000170365
0.0010419
0.00017987
0.000867212
0.000187384
0.000683248
0.000192822
0.000491965
0.000196124
0.000295431
9.5687e-05
0.000197253
1.95092e-05
0.00195567
1.64427e-07
3.94298e-05
0.00190625
5.91137e-05
0.00185192
7.82404e-05
0.00178354
9.65578e-05
0.00169809
0.00011384
0.00159552
0.000129883
0.00147628
0.000144501
0.00134146
0.000157527
0.0011924
0.000168813
0.00103061
0.000178232
0.000857794
0.000185678
0.000675802
0.000191067
0.000486577
0.00019434
0.000292159
9.45701e-05
0.000195459
1.93276e-05
0.00193618
1.66706e-07
3.90666e-05
0.00188651
5.85712e-05
0.00183241
7.75237e-05
0.00176459
9.56745e-05
0.00167994
0.0001128
0.00157839
0.000128697
0.00146038
0.000143183
0.00132698
0.000156091
0.00117949
0.000167275
0.00101942
0.000176609
0.000848459
0.000183988
0.000668423
0.000189329
0.000481235
0.000192573
0.000288914
9.34579e-05
0.000193682
1.91476e-05
0.00191686
1.68863e-07
3.87067e-05
0.00186695
5.80336e-05
0.00181309
7.68136e-05
0.00174581
9.47993e-05
0.00166196
0.000111769
0.00156142
0.000127522
0.00144463
0.000141876
0.00131262
0.000154668
0.0011667
0.000165751
0.00100834
0.000175001
0.00083921
0.000182314
0.000661111
0.000187607
0.000475943
0.000190822
0.000285701
9.23601e-05
0.000191922
1.89693e-05
0.00189772
1.70923e-07
3.83501e-05
0.00184757
5.75009e-05
0.00179393
7.61099e-05
0.0017272
9.39321e-05
0.00164413
0.000110747
0.00154461
0.000126358
0.00142902
0.000140582
0.0012984
0.000153258
0.00115402
0.000164241
0.000997358
0.000173408
0.000830043
0.000180655
0.000653863
0.000185901
0.000470696
0.000189087
0.000282514
9.12672e-05
0.000190177
1.87926e-05
0.00187876
1.72912e-07
3.79967e-05
0.00182837
5.69731e-05
0.00177496
7.54127e-05
0.00170876
9.30728e-05
0.00162647
0.000109735
0.00152794
0.000125204
0.00141355
0.0001393
0.0012843
0.000151861
0.00114146
0.000162745
0.000986475
0.000171829
0.000820959
0.000179011
0.000646682
0.00018421
0.000465498
0.000187367
0.000279357
9.01882e-05
0.000188449
1.86176e-05
0.00185996
1.74861e-07
3.76466e-05
0.00180934
5.64501e-05
0.00175615
7.47219e-05
0.00169049
9.22214e-05
0.00160897
0.000108733
0.00151143
0.000124061
0.00139822
0.000138029
0.00127033
0.000150477
0.00112901
0.000161262
0.000975689
0.000170265
0.000811957
0.000177382
0.000639564
0.000182534
0.000460345
0.000185664
0.000276226
8.91145e-05
0.000186736
1.84441e-05
0.00184134
1.76799e-07
3.72997e-05
0.00179048
5.59318e-05
0.00173752
7.40374e-05
0.00167238
9.13778e-05
0.00159163
0.000107739
0.00149507
0.000122929
0.00138303
0.00013677
0.00125649
0.000149105
0.00111668
0.000159794
0.000965001
0.000168715
0.000803036
0.000175768
0.000632511
0.000180875
0.00045524
0.000183976
0.000273125
8.80539e-05
0.000185039
1.82722e-05
0.00182289
1.78756e-07
3.69559e-05
0.0017718
5.54183e-05
0.00171906
7.33591e-05
0.00165444
9.05419e-05
0.00157445
0.000106755
0.00147886
0.000121806
0.00136798
0.000135523
0.00124278
0.000147746
0.00110445
0.000158338
0.000954408
0.000167179
0.000794195
0.000174169
0.000625521
0.00017923
0.000450178
0.000182304
0.00027005
8.69989e-05
0.000183358
1.81019e-05
0.00180461
1.8075e-07
3.66153e-05
0.00175328
5.49096e-05
0.00170077
7.2687e-05
0.00163667
8.97136e-05
0.00155742
0.000105779
0.00146279
0.000120694
0.00135307
0.000134287
0.00122919
0.0001464
0.00109234
0.000156896
0.000943912
0.000165657
0.000785434
0.000172585
0.000618594
0.0001776
0.000445164
0.000180647
0.000267003
8.59563e-05
0.000181692
1.79331e-05
0.00178649
1.828e-07
3.62778e-05
0.00173494
5.44054e-05
0.00168264
7.20211e-05
0.00161905
8.8893e-05
0.00154055
0.000104813
0.00144687
0.000119593
0.00133829
0.000133062
0.00121572
0.000145066
0.00108034
0.000155467
0.00093351
0.00016415
0.000776751
0.000171015
0.000611729
0.000175986
0.000440193
0.000179006
0.000263982
8.49199e-05
0.000180041
1.77659e-05
0.00176854
1.84913e-07
3.59434e-05
0.00171676
5.39059e-05
0.00166467
7.13613e-05
0.0016016
8.80798e-05
0.00152383
0.000103855
0.0014311
0.000118501
0.00132364
0.000131848
0.00120237
0.000143744
0.00106844
0.000154052
0.000923202
0.000162656
0.000768147
0.00016946
0.000604926
0.000174386
0.000435267
0.000177379
0.00026099
8.3895e-05
0.000178405
1.76002e-05
0.00175075
1.87093e-07
3.56121e-05
0.00169875
5.3411e-05
0.00164688
7.07076e-05
0.0015843
8.72741e-05
0.00150727
0.000102906
0.00141547
0.00011742
0.00130913
0.000130646
0.00118914
0.000142434
0.00105665
0.000152649
0.000912987
0.000161176
0.00075962
0.000167919
0.000598183
0.000172801
0.000430384
0.000175767
0.000258022
8.28765e-05
0.000176785
1.74361e-05
0.00173313
1.89333e-07
3.52838e-05
0.0016809
5.29206e-05
0.00162924
7.00598e-05
0.00156716
8.64758e-05
0.00149085
0.000101966
0.00139998
0.000116348
0.00129474
0.000129455
0.00117604
0.000141136
0.00104497
0.000151259
0.000902864
0.00015971
0.00075117
0.000166392
0.000591501
0.00017123
0.000425546
0.000174171
0.000255083
8.1869e-05
0.000175179
1.72734e-05
0.00171566
1.91623e-07
3.49585e-05
0.00166322
5.24347e-05
0.00161176
6.9418e-05
0.00155018
8.56849e-05
0.00147458
0.000101035
0.00138463
0.000115286
0.00128049
0.000128275
0.00116305
0.00013985
0.0010334
0.000149882
0.000892832
0.000158257
0.000742796
0.000164879
0.000584879
0.000169674
0.000420751
0.000172589
0.000252168
8.08681e-05
0.000173589
1.71122e-05
0.00169836
1.93948e-07
3.46362e-05
0.00164569
5.19532e-05
0.00159445
6.8782e-05
0.00153335
8.49011e-05
0.00145847
0.000100112
0.00136942
0.000114234
0.00126637
0.000127105
0.00115018
0.000138576
0.00102192
0.000148518
0.000882891
0.000156817
0.000734497
0.00016338
0.000578317
0.000168132
0.000415999
0.000171021
0.00024928
7.98775e-05
0.000172013
1.69525e-05
0.00168121
1.96287e-07
3.43168e-05
0.00162833
5.14762e-05
0.00157729
6.81519e-05
0.00151667
8.41246e-05
0.00144249
9.91973e-05
0.00135434
0.000113192
0.00125238
0.000125946
0.00113742
0.000137314
0.00101056
0.000147166
0.000873039
0.000155391
0.000726272
0.000161895
0.000571812
0.000166605
0.000411288
0.000169468
0.000246416
7.88938e-05
0.000170451
1.67943e-05
0.00166421
1.98616e-07
3.40004e-05
0.00161112
5.10035e-05
0.00156028
6.75276e-05
0.00150015
8.33552e-05
0.00142667
9.82912e-05
0.00133941
0.000112159
0.00123851
0.000124798
0.00112478
0.000136064
0.000999291
0.000145827
0.000863276
0.000153977
0.000718122
0.000160423
0.000565367
0.000165091
0.000406621
0.000167929
0.000243579
7.79198e-05
0.000168904
1.66376e-05
0.00164738
2.00912e-07
3.36869e-05
0.00159407
5.05352e-05
0.00154343
6.6909e-05
0.00148377
8.25929e-05
0.00141098
9.73934e-05
0.00132461
0.000111136
0.00122476
0.000123661
0.00111226
0.000134824
0.000988127
0.0001445
0.000853601
0.000152577
0.000710045
0.000158965
0.000558979
0.000163592
0.000401994
0.000166404
0.000240765
7.69531e-05
0.000167371
1.64822e-05
0.00163069
2.03149e-07
3.33763e-05
0.00157718
5.00712e-05
0.00152674
6.62961e-05
0.00146755
8.18376e-05
0.00139544
9.65039e-05
0.00130994
0.000110122
0.00121115
0.000122534
0.00109985
0.000133597
0.000977064
0.000143185
0.000844013
0.00015119
0.00070204
0.000157521
0.000552648
0.000162106
0.000397409
0.000164894
0.000237978
7.59955e-05
0.000165852
1.63284e-05
0.00161416
2.05305e-07
3.30685e-05
0.00156044
4.96114e-05
0.0015102
6.56888e-05
0.00145147
8.10892e-05
0.00138004
9.56225e-05
0.00129541
0.000109117
0.00119765
0.000121417
0.00108755
0.00013238
0.000966101
0.000141882
0.00083451
0.000149815
0.000694107
0.00015609
0.000546374
0.000160634
0.000392864
0.000163397
0.000235215
7.50454e-05
0.000164348
1.61759e-05
0.00159777
2.07364e-07
3.27636e-05
0.00154385
4.91559e-05
0.0014938
6.50871e-05
0.00143554
8.03477e-05
0.00136478
9.47493e-05
0.00128101
0.000108122
0.00118428
0.000120311
0.00107536
0.000131175
0.000955237
0.000140592
0.000825094
0.000148453
0.000686245
0.000154672
0.000540156
0.000159176
0.000388361
0.000161915
0.000232476
7.41038e-05
0.000162857
1.60249e-05
0.00158154
2.09314e-07
3.24614e-05
0.00152742
4.87046e-05
0.00147756
6.4491e-05
0.00141975
7.9613e-05
0.00134966
9.38841e-05
0.00126673
0.000107136
0.00117103
0.000119214
0.00106328
0.000129981
0.00094447
0.000139313
0.000815762
0.000147104
0.000678454
0.000153267
0.000533994
0.000157731
0.000383896
0.000160445
0.000229761
7.31699e-05
0.00016138
1.58752e-05
0.00156545
2.11152e-07
3.21621e-05
0.00151113
4.82574e-05
0.00146146
6.39003e-05
0.00140411
7.88851e-05
0.00133467
9.30269e-05
0.00125259
0.000106159
0.0011579
0.000118128
0.00105131
0.000128798
0.0009338
0.000138046
0.000806514
0.000145767
0.000670733
0.000151875
0.000527887
0.000156299
0.000379473
0.00015899
0.000227071
7.2244e-05
0.000159916
1.57269e-05
0.00154951
2.12887e-07
3.18655e-05
0.00149499
4.78143e-05
0.00144552
6.33151e-05
0.00138861
7.81638e-05
0.00131982
9.21775e-05
0.00123858
0.000105191
0.00114488
0.000117052
0.00103945
0.000127626
0.000923227
0.000136791
0.000797349
0.000144443
0.000663081
0.000150496
0.000521834
0.000154881
0.000375087
0.000157548
0.000224403
7.1326e-05
0.000158466
1.558e-05
0.00153372
2.14531e-07
3.15716e-05
0.001479
4.73754e-05
0.00142971
6.27352e-05
0.00137325
7.74492e-05
0.00130511
9.1336e-05
0.00122469
0.000104231
0.00113199
0.000115986
0.00102769
0.000126464
0.000912749
0.000135547
0.000788267
0.000143131
0.000655497
0.00014913
0.000515835
0.000153476
0.000370742
0.000156119
0.00022176
7.04155e-05
0.00015703
1.54345e-05
0.00151807
2.16107e-07
3.12805e-05
0.00146315
4.69404e-05
0.00141405
6.21607e-05
0.00135803
7.67412e-05
0.00129053
9.05023e-05
0.00121093
0.000103281
0.00111921
0.00011493
0.00101605
0.000125314
0.000902364
0.000134315
0.000779266
0.000141831
0.000647981
0.000147776
0.00050989
0.000152083
0.000366434
0.000154704
0.000219139
6.95131e-05
0.000155607
1.52903e-05
0.00150256
2.17641e-07
3.0992e-05
0.00144745
4.65095e-05
0.00139853
6.15915e-05
0.00134295
7.60398e-05
0.00127608
8.96762e-05
0.00119729
0.00010234
0.00110654
0.000113883
0.0010045
0.000124174
0.000892074
0.000133094
0.000770346
0.000140542
0.000640533
0.000146435
0.000503998
0.000150704
0.000362166
0.000153301
0.000216542
6.86175e-05
0.000154197
1.51475e-05
0.00148719
2.1916e-07
3.07062e-05
0.00143189
4.60825e-05
0.00138316
6.10275e-05
0.001328
7.53447e-05
0.00126176
8.88578e-05
0.00118378
0.000101407
0.001094
0.000112846
0.000993062
0.000123044
0.000881876
0.000131884
0.000761506
0.000139266
0.000633151
0.000145106
0.000498158
0.000149337
0.000357934
0.000151912
0.000213968
6.77304e-05
0.0001528
1.50059e-05
0.00147197
2.20691e-07
3.0423e-05
0.00141648
4.56594e-05
0.00136792
6.04687e-05
0.00131319
7.46561e-05
0.00124758
8.80469e-05
0.00117039
0.000100483
0.00108156
0.000111819
0.000981726
0.000121925
0.00087177
0.000130686
0.000752745
0.000138002
0.000625836
0.00014379
0.000492371
0.000147983
0.000353741
0.000150535
0.000211416
6.68496e-05
0.000151416
1.48657e-05
0.00145688
2.22256e-07
3.01424e-05
0.0014012
4.52403e-05
0.00135282
5.99151e-05
0.00129852
7.39739e-05
0.00123352
8.72434e-05
0.00115712
9.95669e-05
0.00106924
0.000110801
0.000970492
0.000120817
0.000861754
0.000129499
0.000744063
0.000136749
0.000618585
0.000142485
0.000486635
0.000146642
0.000349584
0.000149172
0.000208886
6.59774e-05
0.000150045
1.47267e-05
0.00144193
2.2387e-07
2.98644e-05
0.00138606
4.4825e-05
0.00133786
5.93665e-05
0.00128398
7.32979e-05
0.00121958
8.64475e-05
0.00114397
9.86596e-05
0.00105702
0.000109793
0.000959359
0.000119718
0.000851829
0.000128323
0.000735458
0.000135508
0.0006114
0.000141193
0.00048095
0.000145313
0.000345465
0.000147821
0.000206379
6.5111e-05
0.000148687
1.45891e-05
0.00142711
2.25544e-07
2.9589e-05
0.00137106
4.44135e-05
0.00132304
5.8823e-05
0.00126957
7.26282e-05
0.00120578
8.56588e-05
0.00113094
9.77608e-05
0.00104492
0.000108794
0.000948326
0.00011863
0.000841992
0.000127157
0.000726931
0.000134279
0.000604278
0.000139913
0.000475316
0.000143996
0.000341382
0.000146482
0.000203893
6.42534e-05
0.000147341
1.44527e-05
0.00141243
2.27278e-07
2.93161e-05
0.0013562
4.40059e-05
0.00130835
5.82846e-05
0.00125529
7.19647e-05
0.0011921
8.48775e-05
0.00111803
9.68703e-05
0.00103293
0.000107804
0.000937393
0.000117552
0.000832244
0.000126003
0.00071848
0.000133061
0.000597221
0.000138645
0.000469732
0.000142692
0.000337335
0.000145156
0.000201429
6.34012e-05
0.000146008
1.43175e-05
0.00139789
2.29065e-07
2.90457e-05
0.00134147
4.3602e-05
0.00129379
5.77511e-05
0.00124114
7.13073e-05
0.00117854
8.41033e-05
0.00110523
9.5988e-05
0.00102104
0.000106823
0.000926558
0.000116484
0.000822584
0.000124859
0.000710105
0.000131854
0.000590226
0.000137388
0.000464198
0.0001414
0.000333323
0.000143842
0.000198987
6.25579e-05
0.000144687
1.41836e-05
0.00138347
2.30893e-07
2.87778e-05
0.00132688
4.32018e-05
0.00127937
5.72225e-05
0.00122712
7.06559e-05
0.00116511
8.33364e-05
0.00109255
9.51139e-05
0.00100927
0.000105852
0.00091582
0.000115425
0.00081301
0.000123726