1.45 	0 	0 	-0.296434
2.35 	0 	0 	-0.131058
