1.275 	2.15223e-18 	-2.76991e-20 	-0.0344812 	-0.000439594 	-1.90233e-22
1.825 	2.15223e-18 	-1.39322e-20 	-0.00949997 	-0.0027557 	1.67729e-21
2.375 	2.15223e-18 	-2.66896e-23 	0.115198 	-0.00323059 	-6.99554e-22
