/*--------------------------------*- C++ -*----------------------------------*\
  =========                 |
  \\      /  F ield         | OpenFOAM: The Open Source CFD Toolbox
   \\    /   O peration     | Website:  https://openfoam.org
    \\  /    A nd           | Version:  6.0
     \\/     M anipulation  |
\*---------------------------------------------------------------------------*/
FoamFile
{
    version     2.0;
    format      ascii;
    class       surfaceScalarField;
    location    "4.2";
    object      phi;
}
// * * * * * * * * * * * * * * * * * * * * * * * * * * * * * * * * * * * * * //

dimensions      [0 3 -1 0 0 0 0];

internalField   nonuniform List<scalar> 
47678
(
2.9809e-05
0.00388594
1.8292e-09
5.9844e-05
0.00381846
8.91102e-05
0.00368581
0.00011696
0.00348999
0.000142853
0.00323438
0.000166313
0.00292345
0.000186916
0.00256269
0.000204298
0.00215831
0.000218148
0.00171735
0.000228224
0.00124717
0.000234337
0.000756335
0.000255406
0.000236757
2.96168e-05
0.00385632
5.62135e-09
5.94625e-05
0.00378861
8.8544e-05
0.00365673
0.000116218
0.00346231
0.000141945
0.00320864
0.000165256
0.00290013
0.000185727
0.00254221
0.000202997
0.00214103
0.000216759
0.00170358
0.000226767
0.00123715
0.000232921
0.000750173
0.000252886
0.000235437
2.94261e-05
0.00382689
9.11979e-09
5.90836e-05
0.00375896
8.79818e-05
0.00362782
0.000115481
0.00343481
0.000141046
0.00318308
0.000164208
0.00287697
0.000184548
0.00252187
0.000201708
0.00212387
0.000215383
0.00168991
0.000225319
0.00122722
0.000231449
0.000744044
0.000250399
0.000233942
2.9237e-05
0.00379764
1.2304e-08
5.87075e-05
0.00372949
8.74235e-05
0.0035991
0.000114749
0.00340749
0.000140152
0.00315767
0.000163167
0.00285395
0.000183377
0.00250165
0.000200426
0.00210682
0.000214014
0.00167631
0.000223883
0.00121734
0.000229961
0.000737962
0.000247958
0.000232399
2.90495e-05
0.00376857
1.51873e-08
5.83342e-05
0.0037002
8.68688e-05
0.00357057
0.000114022
0.00338033
0.000139264
0.00313243
0.000162131
0.00283108
0.000182213
0.00248157
0.000199152
0.00208988
0.000212654
0.00166281
0.000222459
0.00120754
0.000228482
0.00073194
0.000245583
0.000230863
2.88636e-05
0.00373969
1.77379e-08
5.79635e-05
0.0036711
8.63177e-05
0.00354221
0.000113298
0.00335335
0.00013838
0.00310734
0.000161102
0.00280836
0.000181055
0.00246161
0.000197886
0.00207305
0.000211303
0.00164939
0.000221046
0.00119779
0.000227019
0.000725963
0.000243255
0.000229345
2.86791e-05
0.00371099
1.99105e-08
5.75952e-05
0.00364219
8.57701e-05
0.00351403
0.00011258
0.00332654
0.000137503
0.00308242
0.00016008
0.00278578
0.000179905
0.00244179
0.000196628
0.00205632
0.00020996
0.00163606
0.000219644
0.00118811
0.000225572
0.000720037
0.000240988
0.000227845
2.84959e-05
0.00368247
2.17008e-08
5.72293e-05
0.00361346
8.52258e-05
0.00348603
0.000111866
0.0032999
0.00013663
0.00305765
0.000159063
0.00276335
0.000178762
0.00242209
0.000195378
0.0020397
0.000208626
0.00162281
0.000218252
0.00117848
0.000224138
0.000714147
0.000238758
0.000226364
2.8314e-05
0.00365414
2.31411e-08
5.68658e-05
0.00358491
8.46851e-05
0.00345821
0.000111156
0.00327343
0.000135763
0.00303304
0.000158053
0.00274106
0.000177626
0.00240252
0.000194135
0.0020232
0.000207299
0.00160965
0.000216869
0.00116892
0.000222715
0.000708303
0.000236575
0.000224904
2.81334e-05
0.00362598
2.42363e-08
5.65046e-05
0.00355653
8.41477e-05
0.00343057
0.000110451
0.00324712
0.000134901
0.00300859
0.000157049
0.00271891
0.000176497
0.00238306
0.000192901
0.00200679
0.000205981
0.00159656
0.000215493
0.0011594
0.000221303
0.00070249
0.000234413
0.000223461
2.79541e-05
0.003598
2.50151e-08
5.61457e-05
0.00352834
8.36136e-05
0.0034031
0.00010975
0.00322099
0.000134045
0.00298429
0.000156051
0.0026969
0.000175375
0.00236374
0.000191674
0.00199049
0.000204671
0.00158357
0.000214127
0.00114995
0.000219901
0.000696718
0.000232286
0.000222032
2.77759e-05
0.0035702
2.55267e-08
5.5789e-05
0.00350033
8.30829e-05
0.00337581
0.000109053
0.00319502
0.000133193
0.00296015
0.00015506
0.00267503
0.00017426
0.00234454
0.000190455
0.00197429
0.00020337
0.00157065
0.000212769
0.00114054
0.000218509
0.000690975
0.000230175
0.000220615
2.7599e-05
0.00354257
2.58197e-08
5.54346e-05
0.00347249
8.25555e-05
0.00334868
0.000108361
0.00316921
0.000132347
0.00293616
0.000154074
0.00265331
0.000173152
0.00232546
0.000189244
0.0019582
0.000202077
0.00155782
0.000211419
0.0011312
0.000217125
0.000685272
0.000228097
0.000219207
2.74232e-05
0.00351513
2.59371e-08
5.50824e-05
0.00344483
8.20313e-05
0.00332173
0.000107673
0.00314357
0.000131507
0.00291233
0.000153095
0.00263171
0.000172051
0.0023065
0.000188041
0.00194221
0.000200792
0.00154506
0.000210077
0.00112192
0.000215749
0.000679597
0.000226033
0.000217809
2.72486e-05
0.00348785
2.59222e-08
5.47325e-05
0.00341735
8.15103e-05
0.00329496
0.000106989
0.00311809
0.000130671
0.00288865
0.000152122
0.00261027
0.000170957
0.00228767
0.000186845
0.00192632
0.000199515
0.0015324
0.000208744
0.00111269
0.000214382
0.000673962
0.000223999
0.000216421
2.70752e-05
0.00346075
2.58026e-08
5.43847e-05
0.00339004
8.09926e-05
0.00326835
0.000106309
0.00309277
0.00012984
0.00286511
0.000151154
0.00258895
0.00016987
0.00226895
0.000185657
0.00191053
0.000198246
0.0015198
0.000207419
0.00110351
0.000213023
0.000668355
0.000221977
0.000215042
2.69029e-05
0.00343382
2.55971e-08
5.40391e-05
0.00336291
8.0478e-05
0.00324191
0.000105633
0.00306762
0.000129015
0.00284173
0.000150193
0.00256777
0.000168789
0.00225036
0.000184476
0.00189485
0.000196986
0.0015073
0.000206102
0.0010944
0.000211673
0.000662787
0.000219984
0.000213672
2.67317e-05
0.00340706
2.53155e-08
5.36956e-05
0.00333594
7.99665e-05
0.00321564
0.000104962
0.00304262
0.000128194
0.0028185
0.000149238
0.00254673
0.000167715
0.00223188
0.000183303
0.00187926
0.000195734
0.00149486
0.000204794
0.00108534
0.000210331
0.000657247
0.000217999
0.000212312
2.65617e-05
0.00338048
2.49685e-08
5.33543e-05
0.00330915
7.94582e-05
0.00318953
0.000104294
0.00301779
0.000127379
0.00279542
0.000148288
0.00252582
0.000166649
0.00221352
0.000182137
0.00186377
0.00019449
0.00148251
0.000203494
0.00107634
0.000208997
0.000651746
0.000216043
0.000210961
2.63927e-05
0.00335406
2.45683e-08
5.30151e-05
0.00328253
7.8953e-05
0.00316359
0.000103631
0.00299311
0.000126568
0.00277248
0.000147345
0.00250504
0.000165588
0.00219527
0.000180979
0.00184838
0.000193253
0.00147024
0.000202202
0.00106739
0.000207672
0.000646273
0.000214093
0.00020962
2.62248e-05
0.00332781
2.41409e-08
5.26779e-05
0.00325607
7.84508e-05
0.00313782
0.000102972
0.00296859
0.000125763
0.00274969
0.000146407
0.0024844
0.000164535
0.00217715
0.000179829
0.00183309
0.000192025
0.00145804
0.000200918
0.00105849
0.000206355
0.000640839
0.000212169
0.000208287
2.6058e-05
0.00330173
2.37243e-08
5.23428e-05
0.00322979
7.79517e-05
0.00311221
0.000102316
0.00294422
0.000124962
0.00272704
0.000145475
0.00246388
0.000163488
0.00215913
0.000178685
0.00181789
0.000190805
0.00144592
0.000199643
0.00104965
0.000205046
0.000635433
0.000210249
0.000206963
2.58921e-05
0.00327581
2.33738e-08
5.20098e-05
0.00320367
7.74556e-05
0.00308677
0.000101665
0.00292002
0.000124167
0.00270454
0.00014455
0.0024435
0.000162448
0.00214124
0.000177549
0.00180279
0.000189593
0.00143388
0.000198376
0.00104087
0.000203746
0.000630065
0.000208356
0.000205649
2.57273e-05
0.00325006
2.3154e-08
5.16787e-05
0.00317772
7.69626e-05
0.00306148
0.000101018
0.00289596
0.000123377
0.00268218
0.00014363
0.00242325
0.000161415
0.00212345
0.00017642
0.00178778
0.000188388
0.00142191
0.000197116
0.00103214
0.000202454
0.000624725
0.000206464
0.000204342
2.55635e-05
0.00322448
2.31369e-08
5.13497e-05
0.00315193
7.64725e-05
0.00303636
0.000100375
0.00287206
0.000122591
0.00265996
0.000142715
0.00240313
0.000160388
0.00210578
0.000175299
0.00177287
0.000187191
0.00141002
0.000195865
0.00102347
0.00020117
0.000619423
0.000204598
0.000203045
2.54006e-05
0.00319905
2.33861e-08
5.10226e-05
0.00312631
7.59855e-05
0.0030114
9.97353e-05
0.00284831
0.00012181
0.00263789
0.000141807
0.00238313
0.000159368
0.00208821
0.000174185
0.00175805
0.000186002
0.0013982
0.000194622
0.00101485
0.000199895
0.000614147
0.000202733
0.000201755
2.52386e-05
0.00317379
2.39526e-08
5.06975e-05
0.00310085
7.55014e-05
0.00298659
9.91e-05
0.00282471
0.000121035
0.00261595
0.000140905
0.00236326
0.000158354
0.00207077
0.000173077
0.00174333
0.000184821
0.00138646
0.000193387
0.00100628
0.000198627
0.00060891
0.000200893
0.000200474
2.50776e-05
0.00314869
2.48613e-08
5.03743e-05
0.00307555
7.50203e-05
0.00296195
9.84686e-05
0.00280126
0.000120264
0.00259415
0.000140008
0.00234351
0.000157347
0.00205343
0.000171977
0.0017287
0.000183647
0.00137478
0.00019216
0.000997769
0.000197368
0.000603699
0.000199053
0.000199202
2.49175e-05
0.00312375
2.61124e-08
5.00531e-05
0.00305042
7.45421e-05
0.00293746
9.78412e-05
0.00277796
0.000119498
0.0025725
0.000139117
0.0023239
0.000156346
0.0020362
0.000170885
0.00171416
0.000182481
0.00136319
0.000190941
0.000989311
0.000196117
0.000598527
0.000197238
0.000197938
2.47582e-05
0.00309896
2.76772e-08
4.97338e-05
0.00302544
7.40669e-05
0.00291313
9.72177e-05
0.00275481
0.000118737
0.00255098
0.000138231
0.0023044
0.000155352
0.00201908
0.000169799
0.00169971
0.000181322
0.00135167
0.000189729
0.000980902
0.000194873
0.00059338
0.000195423
0.000196682
2.45999e-05
0.00307433
2.95094e-08
4.94164e-05
0.00300063
7.35945e-05
0.00288895
9.65981e-05
0.00273181
0.000117981
0.0025296
0.000137351
0.00228503
0.000154364
0.00200207
0.00016872
0.00168536
0.000180171
0.00134022
0.000188526
0.00097255
0.000193638
0.000588271
0.000193632
0.000195434
2.44424e-05
0.00304986
3.15485e-08
4.91009e-05
0.00297597
7.31251e-05
0.00286492
9.59823e-05
0.00270895
0.000117229
0.00250835
0.000136477
0.00226578
0.000153382
0.00198516
0.000167648
0.00167109
0.000179027
0.00132883
0.00018733
0.000964245
0.00019241
0.000583188
0.000191841
0.000194194
2.42858e-05
0.00302554
3.37354e-08
4.87873e-05
0.00295147
7.26586e-05
0.00284105
9.53705e-05
0.00268624
0.000116482
0.00248724
0.000135608
0.00224666
0.000152407
0.00196836
0.000166583
0.00165692
0.000177891
0.00131753
0.000186141
0.000955996
0.000191191
0.000578142
0.000190075
0.000192962
2.41301e-05
0.00300137
3.60147e-08
4.84756e-05
0.00292712
7.2195e-05
0.00281733
9.47624e-05
0.00266367
0.00011574
0.00246626
0.000134745
0.00222765
0.000151437
0.00195167
0.000165524
0.00164283
0.000176762
0.00130629
0.000184961
0.000947795
0.000189979
0.000573122
0.000188309
0.000191738
2.39753e-05
0.00297736
3.83462e-08
4.81658e-05
0.00290293
7.17342e-05
0.00279377
9.41582e-05
0.00264125
0.000115003
0.00244542
0.000133888
0.00220877
0.000150475
0.00193508
0.000164473
0.00162883
0.00017564
0.00129512
0.000183788
0.000939649
0.000188774
0.000568139
0.000186567
0.000190522
2.38213e-05
0.0029535
4.07006e-08
4.78578e-05
0.00287889
7.12763e-05
0.00277035
9.35578e-05
0.00261897
0.00011427
0.0024247
0.000133036
0.00219
0.000149518
0.0019186
0.000163428
0.00161492
0.000174525
0.00128403
0.000182622
0.00093155
0.000187578
0.000563181
0.000184826
0.000189313
2.36681e-05
0.00292979
4.30636e-08
4.75517e-05
0.00285501
7.08212e-05
0.00274708
9.29612e-05
0.00259683
0.000113543
0.00240412
0.000132189
0.00217136
0.000148567
0.00190223
0.00016239
0.0016011
0.000173418
0.001273
0.000181464
0.000923506
0.000186389
0.00055826
0.000183109
0.000188113
2.35159e-05
0.00290622
4.54254e-08
4.72475e-05
0.00283128
7.0369e-05
0.00272396
9.23683e-05
0.00257483
0.000112819
0.00238367
0.000131348
0.00215283
0.000147623
0.00188595
0.000161359
0.00158736
0.000172317
0.00126204
0.000180314
0.000915507
0.000185208
0.000553363
0.000181392
0.00018692
2.33645e-05
0.00288281
4.77821e-08
4.69451e-05
0.0028077
6.99196e-05
0.00270098
9.17791e-05
0.00255297
0.0001121
0.00236335
0.000130512
0.00213442
0.000146684
0.00186978
0.000160334
0.00157372
0.000171224
0.00125115
0.00017917
0.000907564
0.000184034
0.000548503
0.0001797
0.000185734
2.32139e-05
0.00285955
5.01245e-08
4.66446e-05
0.00278427
6.94729e-05
0.00267815
9.11937e-05
0.00253125
0.000111386
0.00234316
0.000129682
0.00211612
0.000145752
0.00185371
0.000159316
0.00156015
0.000170138
0.00124033
0.000178034
0.000899665
0.000182868
0.000543667
0.000178008
0.000184557
2.30642e-05
0.00283643
5.24414e-08
4.63459e-05
0.00276099
6.90291e-05
0.00265547
9.0612e-05
0.00250967
0.000110677
0.0023231
0.000128856
0.00209795
0.000144826
0.00183774
0.000158305
0.00154667
0.000169059
0.00122958
0.000176906
0.000891821
0.000181709
0.000538868
0.00017634
0.000183387
2.29154e-05
0.00281346
5.47133e-08
4.6049e-05
0.00273785
6.8588e-05
0.00263293
9.00339e-05
0.00248822
0.000109972
0.00230316
0.000128036
0.00207988
0.000143905
0.00182187
0.000157299
0.00153328
0.000167986
0.00121889
0.000175784
0.00088402
0.000180558
0.000534092
0.00017467
0.000182225
2.27675e-05
0.00279064
5.69187e-08
4.5754e-05
0.00271487
6.81497e-05
0.00261054
8.94595e-05
0.00246691
0.000109271
0.00228335
0.000127222
0.00206193
0.00014299
0.0018061
0.000156301
0.00151997
0.000166921
0.00120827
0.00017467
0.000876274
0.000179414
0.000529353
0.000173026
0.00018107
2.26204e-05
0.00276796
5.90323e-08
4.54608e-05
0.00269203
6.77141e-05
0.00258828
8.88887e-05
0.00244574
0.000108575
0.00226366
0.000126412
0.00204409
0.000142082
0.00179043
0.000155309
0.00150674
0.000165862
0.00119772
0.000173563
0.00086857
0.000178277
0.000524637
0.000171378
0.000179922
2.24743e-05
0.00274542
6.1033e-08
4.51693e-05
0.00266933
6.72813e-05
0.00256617
8.83216e-05
0.0024247
0.000107883
0.0022441
0.000125608
0.00202637
0.000141179
0.00177486
0.000154323
0.0014936
0.00016481
0.00118723
0.000172463
0.000860921
0.000177148
0.000519956
0.000169755
0.000178782
2.2329e-05
0.00272303
6.29023e-08
4.48798e-05
0.00264678
6.68512e-05
0.0025442
8.77581e-05
0.00240379
0.000107196
0.00222466
0.000124809
0.00200876
0.000140282
0.00175939
0.000153343
0.00148053
0.000163765
0.00117681
0.000171369
0.000853313
0.000176026
0.000515299
0.000168128
0.00017765
2.21846e-05
0.00270078
6.46311e-08
4.4592e-05
0.00262437
6.64239e-05
0.00252237
8.71981e-05
0.00238302
0.000106513
0.00220535
0.000124015
0.00199126
0.00013939
0.00174402
0.00015237
0.00146756
0.000162726
0.00116646
0.000170283
0.000845759
0.00017491
0.000510679
0.000166526
0.000176524
2.20411e-05
0.00267868
6.62155e-08
4.4306e-05
0.00260211
6.59992e-05
0.00250068
8.66418e-05
0.00236237
0.000105834
0.00218616
0.000123226
0.00197386
0.000138505
0.00172873
0.000151403
0.00145466
0.000161694
0.00115616
0.000169204
0.000838247
0.000173802
0.00050608
0.000164918
0.000175406
2.18985e-05
0.00265671
6.76603e-08
4.40218e-05
0.00257999
6.55773e-05
0.00247912
8.6089e-05
0.00234186
0.00010516
0.00216709
0.000122442
0.00195658
0.000137625
0.00171355
0.000150442
0.00144184
0.000160669
0.00114594
0.000168132
0.000830787
0.000172702
0.000501517
0.000163335
0.000174295
2.17568e-05
0.00263489
6.89727e-08
4.37395e-05
0.002558
6.5158e-05
0.0024577
8.55397e-05
0.00232148
0.00010449
0.00214813
0.000121663
0.00193941
0.00013675
0.00169847
0.000149487
0.00142911
0.00015965
0.00113577
0.000167066
0.000823369
0.000171608
0.000496976
0.000161745
0.00017319
2.1616e-05
0.0026132
7.01633e-08
4.34589e-05
0.00253616
6.47415e-05
0.00243642
8.4994e-05
0.00230123
0.000103825
0.00212931
0.000120889
0.00192235
0.000135882
0.00168348
0.000148538
0.00141645
0.000158638
0.00112568
0.000166008
0.000816003
0.000170521
0.000492472
0.000160181
0.000172093
2.14761e-05
0.00259165
7.12403e-08
4.31801e-05
0.00251446
6.43276e-05
0.00241527
8.44517e-05
0.00228111
0.000103164
0.00211059
0.000120121
0.00190539
0.000135019
0.00166858
0.000147596
0.00140387
0.000157632
0.00111564
0.000164956
0.000808677
0.000169441
0.000487988
0.00015861
0.000171003
2.13372e-05
0.00257025
7.2211e-08
4.29031e-05
0.00249289
6.39163e-05
0.00239426
8.3913e-05
0.00226111
0.000102507
0.002092
0.000119357
0.00188854
0.000134161
0.00165378
0.000146659
0.00139138
0.000156633
0.00110567
0.000163911
0.000801403
0.000168367
0.000483541
0.000157063
0.00016992
2.11991e-05
0.00254897
7.30783e-08
4.26279e-05
0.00247146
6.35077e-05
0.00237338
8.33777e-05
0.00224124
0.000101854
0.00207352
0.000118598
0.0018718
0.000133309
0.00163906
0.000145729
0.00137895
0.00015564
0.00109576
0.000162872
0.000794168
0.000167301
0.000479112
0.000155511
0.000168843
2.1062e-05
0.00252784
7.38454e-08
4.23545e-05
0.00245017
6.31018e-05
0.00235264
8.28459e-05
0.0022215
0.000101205
0.00205517
0.000117844
0.00185516
0.000132462
0.00162445
0.000144804
0.00136662
0.000154653
0.00108591
0.00016184
0.000786985
0.000166241
0.00047472
0.000153983
0.000167774
2.09258e-05
0.00250684
7.45145e-08
4.20829e-05
0.00242901
6.26985e-05
0.00233202
8.23176e-05
0.00220188
0.000100561
0.00203692
0.000117094
0.00183863
0.000131621
0.00160992
0.000143885
0.00135435
0.000153673
0.00107612
0.000160815
0.000779841
0.000165189
0.000470346
0.000152451
0.000166711
2.07906e-05
0.00248597
7.50934e-08
4.18131e-05
0.00240799
6.22978e-05
0.00231154
8.17926e-05
0.00218238
9.99206e-05
0.0020188
0.00011635
0.0018222
0.000130785
0.00159549
0.000142973
0.00134217
0.000152699
0.0010664
0.000159796
0.000772748
0.000164142
0.000466008
0.000150945
0.000165655
2.06562e-05
0.00246524
7.55949e-08
4.1545e-05
0.0023871
6.18997e-05
0.00229118
8.1271e-05
0.00216301
9.92845e-05
0.00200078
0.00011561
0.00180587
0.000129955
0.00158114
0.000142066
0.00133005
0.000151731
0.00105673
0.000158784
0.000765694
0.000163103
0.000461688
0.000149434
0.000164606
2.05228e-05
0.00244465
7.60412e-08
4.12787e-05
0.00236635
6.15042e-05
0.00227096
8.07529e-05
0.00214377
9.86524e-05
0.00198289
0.000114875
0.00178965
0.000129129
0.00156689
0.000141164
0.00131802
0.000150769
0.00104713
0.000157778
0.00075869
0.00016207
0.000457404
0.000147949
0.000163563
2.03903e-05
0.00242418
7.64614e-08
4.10141e-05
0.00234572
6.11113e-05
0.00225086
8.0238e-05
0.00212464
9.80245e-05
0.0019651
0.000114145
0.00177353
0.00012831
0.00155272
0.000140269
0.00130606
0.000149814
0.00103759
0.000156779
0.000751723
0.000161044
0.000453138
0.00014646
0.000162527
2.02587e-05
0.00240385
7.68927e-08
4.07513e-05
0.00232523
6.07209e-05
0.00223089
7.97265e-05
0.00210563
9.74006e-05
0.00194743
0.000113419
0.00175752
0.000127495
0.00153865
0.000139379
0.00129418
0.000148864
0.0010281
0.000155786
0.000744807
0.000160024
0.000448907
0.000144997
0.000161498
2.0128e-05
0.00238364
7.73736e-08
4.04902e-05
0.00230487
6.03331e-05
0.00221105
7.92183e-05
0.00208675
9.67807e-05
0.00192986
0.000112699
0.0017416
0.000126686
0.00152466
0.000138495
0.00128237
0.000147921
0.00101868
0.000154799
0.000737927
0.000159011
0.000444694
0.000143527
0.000160476
1.99982e-05
0.00236357
7.79432e-08
4.02308e-05
0.00228464
5.99478e-05
0.00219133
7.87134e-05
0.00206798
9.61648e-05
0.00191241
0.000111982
0.00172578
0.000125881
0.00151077
0.000137617
0.00127063
0.000146984
0.00100932
0.000153819
0.000731098
0.000158004
0.000440516
0.000142086
0.00015946
1.98693e-05
0.00234362
7.86328e-08
3.99732e-05
0.00226453
5.9565e-05
0.00217174
7.82118e-05
0.00204934
9.55529e-05
0.00189507
0.000111271
0.00171006
0.000125082
0.00149695
0.000136744
0.00125897
0.000146052
0.00100001
0.000152845
0.000724304
0.000157004
0.000436355
0.000140635
0.00015845
1.97413e-05
0.0023238
7.94664e-08
3.97172e-05
0.00224456
5.91847e-05
0.00215227
7.77134e-05
0.00203081
9.49449e-05
0.00187784
0.000110564
0.00169445
0.000124288
0.00148323
0.000135877
0.00124739
0.000145127
0.000990763
0.000151877
0.00071756
0.00015601
0.000432231
0.000139214
0.000157447
1.96141e-05
0.00230411
8.04537e-08
3.9463e-05
0.00222471
5.88069e-05
0.00213293
7.72183e-05
0.0020124
9.43409e-05
0.00186072
0.000109861
0.00167893
0.000123499
0.00146959
0.000135016
0.00123587
0.000144207
0.000981571
0.000150915
0.000710851
0.000155023
0.000428123
0.000137779
0.000156451
1.94879e-05
0.00228454
8.15945e-08
3.92104e-05
0.00220499
5.84316e-05
0.00211371
7.67263e-05
0.0019941
9.37406e-05
0.00184371
0.000109163
0.00166351
0.000122715
0.00145604
0.000134159
0.00122443
0.000143294
0.000972442
0.00014996
0.000704192
0.000154042
0.000424051
0.000136374
0.000155461
1.93624e-05
0.00226509
8.28751e-08
3.89595e-05
0.00218539
5.80586e-05
0.00209461
7.62375e-05
0.00197593
9.31443e-05
0.0018268
0.000108469
0.00164818
0.000121937
0.00144258
0.000133309
0.00121306
0.000142386
0.000963364
0.00014901
0.000697567
0.000153067
0.000419994
0.000134953
0.000154477
1.92379e-05
0.00224577
8.42764e-08
3.87103e-05
0.00216592
5.76881e-05
0.00207563
7.57518e-05
0.00195786
9.25518e-05
0.00181
0.00010778
0.00163296
0.000121163
0.0014292
0.000132464
0.00120176
0.000141484
0.00095435
0.000148067
0.00069099
0.000152098
0.000415974
0.000133565
0.000153499
1.91141e-05
0.00222657
8.57717e-08
3.84627e-05
0.00214657
5.73201e-05
0.00205677
7.52693e-05
0.00193991
9.19631e-05
0.00179331
0.000107095
0.00161782
0.000120394
0.0014159
0.000131624
0.00119053
0.000140588
0.000945386
0.00014713
0.000684447
0.000151136
0.000411967
0.000132159
0.000152528
1.89912e-05
0.0022075
8.73361e-08
3.82167e-05
0.00212734
5.69543e-05
0.00203804
7.47899e-05
0.00192208
9.13782e-05
0.00177672
0.000106415
0.00160279
0.00011963
0.00140269
0.000130789
0.00117938
0.000139697
0.000936484
0.000146198
0.000677953
0.000150179
0.000407997
0.000130785
0.000151562
1.88691e-05
0.00218854
8.89438e-08
3.79723e-05
0.00210824
5.6591e-05
0.00201942
7.43136e-05
0.00190436
9.0797e-05
0.00176024
0.000105739
0.00158785
0.000118871
0.00138955
0.00012996
0.00116829
0.000138813
0.000927631
0.000145273
0.000671491
0.000149229
0.000404039
0.000129394
0.000150603
1.87478e-05
0.0021697
9.05757e-08
3.77295e-05
0.00208926
5.623e-05
0.00200092
7.38403e-05
0.00188675
9.02195e-05
0.00174386
0.000105068
0.001573
0.000118117
0.00137651
0.000129137
0.00115727
0.000137933
0.000918841
0.000144354
0.000665078
0.000148285
0.000400118
0.000128037
0.00014965
1.86273e-05
0.00215098
9.22141e-08
3.74883e-05
0.00207039
5.58714e-05
0.00198253
7.33701e-05
0.00186925
8.96458e-05
0.00172758
0.0001044
0.00155825
0.000117367
0.00136354
0.000128318
0.00114632
0.00013706
0.000910099
0.00014344
0.000658696
0.000147347
0.000396207
0.000126663
0.000148703
1.85075e-05
0.00213239
9.38482e-08
3.72487e-05
0.00205165
5.5515e-05
0.00196427
7.29029e-05
0.00185186
8.90757e-05
0.00171141
0.000103737
0.00154359
0.000116623
0.00135066
0.000127505
0.00113544
0.000136192
0.000901418
0.000142533
0.000652363
0.000146415
0.000392334
0.000125324
0.000147762
1.83886e-05
0.0021139
9.54668e-08
3.70106e-05
0.00203303
5.5161e-05
0.00194612
7.24387e-05
0.00183458
8.85093e-05
0.00169534
0.000103078
0.00152902
0.000115883
0.00133786
0.000126697
0.00112463
0.00013533
0.000892784
0.000141631
0.000646059
0.000145489
0.000388472
0.000123966
0.000146828
1.82704e-05
0.00209554
9.70635e-08
3.67741e-05
0.00201453
5.48092e-05
0.00192808
7.19774e-05
0.00181742
8.79465e-05
0.00167937
0.000102424
0.00151454
0.000115148
0.00132514
0.000125894
0.00111389
0.000134473
0.000884212
0.000140735
0.000639805
0.000144569
0.000384647
0.000122646
0.000145899
1.8153e-05
0.00207729
9.86285e-08
3.65391e-05
0.00199614
5.44597e-05
0.00191016
7.15192e-05
0.00180036
8.73874e-05
0.00166351
0.000101773
0.00150016
0.000114418
0.00131249
0.000125097
0.00110321
0.000133622
0.000875686
0.000139845
0.000633579
0.000143655
0.000380831
0.000121306
0.000144976
1.80363e-05
0.00205915
1.00155e-07
3.63056e-05
0.00197787
5.41124e-05
0.00189236
7.10638e-05
0.00178341
8.68318e-05
0.00164774
0.000101127
0.00148587
0.000113692
0.00129993
0.000124304
0.0010926
0.000132777
0.00086722
0.000138961
0.000627402
0.000142747
0.000377053
0.000120004
0.00014406
1.79203e-05
0.00204113
1.01632e-07
3.60736e-05
0.00195972
5.37673e-05
0.00187466
7.06114e-05
0.00176656
8.62797e-05
0.00163207
0.000100485
0.00147166
0.000112971
0.00128744
0.000123517
0.00108206
0.000131937
0.000858799
0.000138082
0.000621254
0.000141845
0.000373284
0.000118681
0.000143149
1.78051e-05
0.00202322
1.03051e-07
3.58431e-05
0.00194168
5.34245e-05
0.00185708
7.01619e-05
0.00174983
8.57312e-05
0.0016165
9.98471e-05
0.00145755
0.000112255
0.00127504
0.000122735
0.00107158
0.000131102
0.000850439
0.000137209
0.000615153
0.000140949
0.000369553
0.000117398
0.000142245
1.76906e-05
0.00200543
1.04404e-07
3.5614e-05
0.00192376
5.30838e-05
0.00183961
6.97152e-05
0.00173319
8.51863e-05
0.00160103
9.92133e-05
0.00144352
0.000111543
0.00126271
0.000121958
0.00106117
0.000130272
0.000842123
0.000136342
0.00060908
0.000140058
0.000365829
0.00011609
0.000141346
1.75769e-05
0.00198775
1.05685e-07
3.53864e-05
0.00190595
5.27453e-05
0.00182225
6.92714e-05
0.00171667
8.46448e-05
0.00158566
9.85835e-05
0.00142959
0.000110836
0.00125046
0.000121185
0.00105082
0.000129448
0.000833866
0.000135481
0.000603055
0.000139174
0.000362144
0.000114824
0.000140453
1.74638e-05
0.00197018
1.06888e-07
3.51602e-05
0.00188825
5.2409e-05
0.001805
6.88305e-05
0.00170025
8.41068e-05
0.00157038
9.79578e-05
0.00141573
0.000110133
0.00123829
0.000120418
0.00104054
0.00012863
0.000825653
0.000134625
0.000597057
0.000138295
0.000358466
0.000113532
0.000139566
1.73514e-05
0.00195272
1.08015e-07
3.49355e-05
0.00187067
5.20748e-05
0.00178786
6.83923e-05
0.00168393
8.35722e-05
0.00155521
9.73362e-05
0.00140197
0.000109435
0.00122619
0.000119656
0.00103032
0.000127816
0.000817499
0.000133774
0.000591106
0.000137421
0.000354827
0.000112283
0.000138685
1.72397e-05
0.00193537
1.09064e-07
3.47121e-05
0.00185319
5.17428e-05
0.00177083
6.7957e-05
0.00166772
8.30411e-05
0.00154012
9.67185e-05
0.0013883
0.000108742
0.00121417
0.000118899
0.00102017
0.000127008
0.000809388
0.000132929
0.000585181
0.000136554
0.000351192
0.000111006
0.00013781
1.71287e-05
0.00191814
1.10042e-07
3.44902e-05
0.00183583
5.14128e-05
0.00175391
6.75244e-05
0.00165161
8.25134e-05
0.00152514
9.61048e-05
0.00137471
0.000108053
0.00120223
0.000118146
0.00101008
0.000126206
0.000801334
0.00013209
0.000579305
0.000135692
0.000347599
0.000109773
0.00013694
1.70184e-05
0.00190101
1.10948e-07
3.42697e-05
0.00181858
5.1085e-05
0.0017371
6.70947e-05
0.00163559
8.19891e-05
0.00151024
9.54951e-05
0.0013612
0.000107368
0.00119035
0.000117399
0.00100005
0.000125408
0.000793323
0.000131256
0.000573452
0.000134836
0.000344008
0.00010851
0.000136076
1.69088e-05
0.00188399
1.11789e-07
3.40505e-05
0.00180144
5.07592e-05
0.00172039
6.66676e-05
0.00161969
8.14682e-05
0.00149544
9.48893e-05
0.00134778
0.000106688
0.00117856
0.000116656
0.000990085
0.000124616
0.00078537
0.000130427
0.000567648
0.000133985
0.000340459
0.000107294
0.000135218
1.67998e-05
0.00186708
1.12565e-07
3.38327e-05
0.00178441
5.04355e-05
0.00170378
6.62433e-05
0.00160388
8.09506e-05
0.00148073
9.42875e-05
0.00133445
0.000106013
0.00116683
0.000115918
0.000980178
0.000123828
0.000777457
0.000129604
0.000561867
0.00013314
0.000336912
0.000106045
0.000134366
1.66916e-05
0.00185027
1.13281e-07
3.36163e-05
0.00176748
5.01138e-05
0.00168729
6.58217e-05
0.00158817
8.04364e-05
0.00146612
9.36895e-05
0.0013212
0.000105341
0.00115519
0.000115185
0.000970339
0.000123046
0.000769602
0.000128786
0.000556135
0.000132301
0.000333406
0.000104844
0.000133519
1.65839e-05
0.00183358
1.13936e-07
3.34012e-05
0.00175066
4.97943e-05
0.00167089
6.54029e-05
0.00157256
7.99255e-05
0.0014516
9.30954e-05
0.00130803
0.000104674
0.00114361
0.000114457
0.000960556
0.000122269
0.000761787
0.000127974
0.000550425
0.000131467
0.000329902
0.000103608
0.000132678
1.6477e-05
0.00181699
1.14535e-07
3.31875e-05
0.00173395
4.94767e-05
0.0016546
6.49867e-05
0.00155705
7.94179e-05
0.00143717
9.25052e-05
0.00129494
0.000104012
0.0011321
0.000113734
0.000950839
0.000121497
0.000754029
0.000127166
0.000544763
0.000130638
0.00032644
0.000102423
0.000131842
1.63707e-05
0.0018005
1.15082e-07
3.29751e-05
0.00171735
4.91612e-05
0.00163842
6.45732e-05
0.00154164
7.89136e-05
0.00142283
9.19188e-05
0.00128194
0.000103354
0.00112067
0.000113015
0.000941177
0.000120731
0.000746311
0.000126365
0.000539123
0.000129815
0.000322977
0.000101201
0.000131012
1.6265e-05
0.00178412
1.15589e-07
3.27641e-05
0.00170085
4.88476e-05
0.00162233
6.41623e-05
0.00152633
7.84125e-05
0.00140858
9.13362e-05
0.00126902
0.0001027
0.00110931
0.000112301
0.000931581
0.000119969
0.000738648
0.000125568
0.000533531
0.000128997
0.000319558
0.000100031
0.000130187
1.616e-05
0.00176785
1.16067e-07
3.25544e-05
0.00168445
4.85361e-05
0.00160635
6.37541e-05
0.00151111
7.79147e-05
0.00139442
9.07574e-05
0.00125617
0.00010205
0.00109802
0.000111591
0.000922038
0.000119212
0.000731025
0.000124777
0.000527959
0.000128185
0.000316137
9.88217e-05
0.000129368
1.60557e-05
0.00175168
1.16538e-07
3.23459e-05
0.00166816
4.82266e-05
0.00159047
6.33485e-05
0.00149599
7.74201e-05
0.00138035
9.01824e-05
0.00124342
0.000101404
0.0010868
0.000110887
0.00091256
0.00011846
0.000723456
0.000123991
0.000522436
0.000127378
0.000312759
9.76661e-05
0.000128554
1.5952e-05
0.00173561
1.1702e-07
3.21389e-05
0.00165197
4.7919e-05
0.00157469
6.29456e-05
0.00148096
7.69288e-05
0.00136637
8.96111e-05
0.00123073
0.000100763
0.00107565
0.000110187
0.000903135
0.000117713
0.000715927
0.00012321
0.000516933
0.000126577
0.00030938
9.64704e-05
0.000127745
1.5849e-05
0.00171964
1.17542e-07
3.19331e-05
0.00163589
4.76135e-05
0.00155901
6.25452e-05
0.00146603
7.64407e-05
0.00135247
8.90436e-05
0.00121813
0.000100126
0.00106457
0.000109491
0.000893775
0.000116971
0.000708451
0.000122434
0.000511478
0.00012578
0.000306044
9.53291e-05
0.000126942
1.57466e-05
0.00170378
1.18125e-07
3.17286e-05
0.00161991
4.73098e-05
0.00154343
6.21474e-05
0.00145119
7.59557e-05
0.00133866
8.84798e-05
0.00120561
9.94935e-05
0.00105355
0.0001088
0.000884467
0.000116234
0.000701014
0.000121663
0.000506041
0.000124989
0.000302704
9.41463e-05
0.000126145
1.56448e-05
0.00168802
1.18793e-07
3.15254e-05
0.00160402
4.70082e-05
0.00152794
6.17523e-05
0.00143645
7.54739e-05
0.00132494
8.79196e-05
0.00119316
9.88648e-05
0.00104261
0.000108114
0.000875222
0.000115502
0.000693631
0.000120898
0.000500653
0.000124204
0.000299409
9.30194e-05
0.000125352
1.55437e-05
0.00167236
1.19561e-07
3.13236e-05
0.00158824
4.67085e-05
0.00151256
6.13597e-05
0.0014218
7.49953e-05
0.00131131
8.73632e-05