/*--------------------------------*- C++ -*----------------------------------*\
  =========                 |
  \\      /  F ield         | OpenFOAM: The Open Source CFD Toolbox
   \\    /   O peration     | Website:  https://openfoam.org
    \\  /    A nd           | Version:  6.0
     \\/     M anipulation  |
\*---------------------------------------------------------------------------*/
FoamFile
{
    version     2.0;
    format      ascii;
    class       volVectorField;
    location    "4.2";
    object      U;
}
// * * * * * * * * * * * * * * * * * * * * * * * * * * * * * * * * * * * * * //

dimensions      [0 1 -1 0 0 0 0];

internalField   nonuniform List<vector> 
24000
(
(0.999994 5.39074e-06 -7.96025e-17)
(0.999947 -1.2042e-05 1.08417e-16)
(0.999859 -5.89686e-05 -1.90681e-16)
(0.99975 -0.000147511 2.10456e-16)
(0.999652 -0.00027079 -1.03846e-15)
(0.99959 -0.000410709 -6.15674e-16)
(0.999584 -0.000537315 6.30335e-16)
(0.999632 -0.00062823 -1.39661e-15)
(0.999725 -0.000650714 4.38457e-16)
(0.999835 -0.000619324 -3.22469e-16)
(0.999955 -0.000406996 -3.12241e-16)
(1.00064 0.00050242 -4.65509e-16)
(0.999988 1.69549e-05 1.16694e-16)
(0.999901 -2.6072e-05 -1.60428e-16)
(0.99974 -0.000124036 3.56308e-16)
(0.999541 -0.000296785 -8.89974e-17)
(0.999369 -0.00053159 4.62208e-16)
(0.999264 -0.000791663 6.22672e-16)
(0.999266 -0.00102098 -3.50671e-16)
(0.999364 -0.00118018 1.48382e-15)
(0.999545 -0.00120876 -3.1135e-16)
(0.999758 -0.00114305 1.59736e-17)
(0.999931 -0.000761313 8.15797e-17)
(1.00132 0.000603611 1.54916e-16)
(0.999986 2.66575e-05 -8.88822e-17)
(0.999911 -3.30803e-05 2.16164e-16)
(0.999766 -0.000143606 -1.23496e-16)
(0.999589 -0.000322073 4.51712e-16)
(0.999435 -0.000558715 2.51736e-16)
(0.999342 -0.000816166 2.3158e-16)
(0.999351 -0.00104022 5.18708e-16)
(0.99945 -0.00119643 -6.59651e-16)
(0.999626 -0.00122597 -3.68166e-16)
(0.999846 -0.00117704 -1.30009e-16)
(0.999945 -0.000850984 -2.91052e-17)
(1.00141 8.86315e-05 4.90164e-16)
(0.999985 3.39427e-05 -3.79521e-17)
(0.999924 -4.29441e-05 -2.0452e-16)
(0.999806 -0.000162482 -3.15902e-16)
(0.999663 -0.000337608 -2.2394e-16)
(0.999538 -0.000562979 -1.31181e-16)
(0.999463 -0.000803465 -9.06429e-16)
(0.999475 -0.00101201 -1.43609e-15)
(0.999567 -0.00116025 1.64091e-16)
(0.999727 -0.00119468 4.70013e-17)
(0.999948 -0.00116232 6.46166e-16)
(0.999977 -0.000901342 -4.12815e-16)
(1.00132 -0.000220785 -5.73402e-16)
(0.999981 3.92023e-05 6.76119e-17)
(0.999925 -5.7343e-05 3.30176e-17)
(0.999816 -0.000193042 1.60092e-16)
(0.999689 -0.000377603 -7.56944e-17)
(0.999581 -0.000607652 2.08021e-16)
(0.999519 -0.000846503 1.8729e-16)
(0.999538 -0.00105164 1.45276e-15)
(0.999635 -0.00119602 -9.4932e-17)
(0.999795 -0.00122804 -2.80068e-16)
(1.00003 -0.00118752 7.61355e-17)
(1.00004 -0.000937424 2.84894e-16)
(1.00124 -0.000276883 -1.51849e-16)
(0.999975 4.28504e-05 3.91256e-18)
(0.999921 -7.37792e-05 -1.89969e-17)
(0.999815 -0.000227869 -2.13668e-17)
(0.999697 -0.000426489 -3.8696e-18)
(0.999602 -0.000666059 -8.633e-16)
(0.999555 -0.000905938 1.05659e-15)
(0.999586 -0.00110687 2.93207e-17)
(0.999695 -0.00124205 1.46329e-16)
(0.999863 -0.00126143 6.92225e-16)
(1.00013 -0.00120141 -3.40817e-16)
(1.00013 -0.000944944 5.1699e-16)
(1.0012 -0.000285967 3.47819e-16)
(0.999969 4.5081e-05 -3.54081e-18)
(0.999918 -9.08591e-05 2.04866e-16)
(0.999815 -0.000262204 -2.07823e-16)
(0.999708 -0.000474044 -1.01358e-16)
(0.999626 -0.000721823 4.43652e-16)
(0.999595 -0.000960848 -2.18267e-16)
(0.99964 -0.00115515 -6.04554e-16)
(0.999761 -0.00127941 -3.13674e-16)
(0.999936 -0.0012861 1.22271e-16)
(1.00022 -0.00121302 6.02796e-16)
(1.00024 -0.000962798 -1.22042e-15)
(1.00118 -0.000359069 3.18943e-16)
(0.999963 4.60183e-05 -5.22984e-17)
(0.999914 -0.000108518 7.93104e-17)
(0.999817 -0.00029633 2.39476e-16)
(0.999718 -0.000521468 4.5346e-16)
(0.999648 -0.000778458 2.41443e-16)
(0.99963 -0.00101924 -2.67946e-16)
(0.999686 -0.00121086 -2.91366e-16)
(0.999817 -0.00133012 -1.39676e-16)
(0.999998 -0.0013317 4.82643e-17)
(1.00029 -0.00125455 -1.30553e-16)
(1.00034 -0.0010199 1.04493e-15)
(1.0012 -0.000485332 -5.5145e-16)
(0.999955 4.58261e-05 2.05914e-17)
(0.999909 -0.000126746 -1.94765e-16)
(0.999816 -0.000330739 1.46153e-17)
(0.999724 -0.000569866 -7.23675e-17)
(0.999663 -0.000837799 7.30354e-17)
(0.999656 -0.00108381 -6.11668e-17)
(0.999722 -0.00127728 5.12541e-17)
(0.999862 -0.00139689 5.59326e-16)
(1.00005 -0.00139862 -6.9319e-17)
(1.00036 -0.00131856 -7.90941e-16)
(1.00045 -0.0010952 -8.81538e-16)
(1.00124 -0.000605271 9.81046e-16)
(0.999947 4.46604e-05 7.31823e-17)
(0.999904 -0.00014535 4.86856e-18)
(0.999816 -0.000364911 1.84522e-16)
(0.999731 -0.000617497 -4.83887e-16)
(0.999679 -0.000895806 -1.15504e-16)
(0.999682 -0.00114698 5.22798e-16)
(0.999757 -0.00134221 -4.44114e-16)
(0.999907 -0.00146177 -6.69849e-16)
(1.0001 -0.00146271 2.0518e-16)
(1.00043 -0.00137488 2.0579e-16)
(1.00056 -0.00115373 6.55504e-16)
(1.0013 -0.000684262 -1.38728e-16)
(0.999937 4.2648e-05 -1.00376e-16)
(0.999897 -0.0001642 -2.31147e-17)
(0.999817 -0.000398453 -2.19913e-16)
(0.999741 -0.000663018 3.66024e-17)
(0.9997 -0.000949473 1.67344e-16)
(0.999714 -0.00120336 -3.60806e-16)
(0.9998 -0.00139723 2.71085e-16)
(0.99996 -0.00151297 7.54758e-16)
(1.00016 -0.00150928 -5.6283e-16)
(1.00051 -0.00140927 2.24566e-16)
(1.00067 -0.00118559 -8.49174e-16)
(1.00139 -0.000731789 -9.09033e-16)
(0.999927 3.98797e-05 6.51659e-18)
(0.999891 -0.000183342 1.92e-16)
(0.999818 -0.000431648 -1.92607e-16)
(0.999753 -0.000706893 1.48992e-16)
(0.999724 -0.000999631 -4.57926e-16)
(0.999751 -0.00125436 -2.04058e-16)
(0.999848 -0.00144457 6.64494e-17)
(1.00002 -0.00155376 -3.0312e-16)
(1.00023 -0.00154304 -3.9463e-16)
(1.00059 -0.00143034 3.6343e-16)
(1.00078 -0.00120494 2.86254e-16)
(1.00148 -0.000774249 1.01133e-17)
(0.999916 3.64401e-05 2.4519e-17)
(0.999883 -0.000202858 -1.9188e-17)
(0.999819 -0.000464991 5.30712e-16)
(0.999765 -0.000750268 1.53131e-16)
(0.999748 -0.00104858 2.61757e-16)
(0.999788 -0.00130404 -2.92619e-16)
(0.999897 -0.00149069 -1.4799e-16)
(1.00008 -0.00159344 1.2068e-16)
(1.0003 -0.00157609 4.66097e-16)
(1.00067 -0.00145323 -1.22103e-15)
(1.00089 -0.00122888 -4.87639e-16)
(1.00157 -0.000827393 5.45001e-16)
(0.999904 3.24026e-05 -7.57253e-17)
(0.999874 -0.000222796 -6.74113e-17)
(0.999818 -0.000498797 -4.19432e-16)
(0.999775 -0.000793848 -3.315e-16)
(0.99977 -0.00109766 -2.32356e-16)
(0.999822 -0.00135468 3.65264e-16)
(0.999942 -0.00153934 2.51201e-16)
(1.00014 -0.00163754 -2.76761e-16)
(1.00037 -0.00161563 -3.71445e-16)
(1.00074 -0.00148569 -1.33104e-16)
(1.001 -0.00126398 6.92505e-16)
(1.00166 -0.000890833 -4.84274e-16)
(0.999892 2.78416e-05 4.07612e-17)
(0.999863 -0.000243133 3.22259e-17)
(0.999816 -0.00053312 4.95453e-17)
(0.999783 -0.000837781 7.90683e-17)
(0.999791 -0.00114701 8.22232e-17)
(0.999854 -0.00140625 -1.48356e-16)
(0.999985 -0.00159043 7.77848e-18)
(1.00019 -0.00168601 -3.83341e-16)
(1.00043 -0.00166158 3.63e-16)
(1.00082 -0.00152661 1.38417e-15)
(1.0011 -0.00130724 -2.05934e-16)
(1.00175 -0.000957245 6.74438e-16)
(0.999878 2.28219e-05 -3.93574e-17)
(0.999851 -0.000263826 1.48642e-18)
(0.999811 -0.000567916 1.47859e-16)
(0.99979 -0.000882051 2.09131e-16)
(0.999809 -0.00119641 2.31369e-16)
(0.999884 -0.00145793 -1.50346e-16)
(1.00003 -0.00164234 -2.42126e-16)
(1.00024 -0.00173636 5.92175e-16)
(1.00049 -0.00171055 1.43422e-16)
(1.00089 -0.00157145 -1.4919e-15)
(1.0012 -0.00135327 2.3605e-16)
(1.00183 -0.0010216 2.23606e-17)
(0.999864 1.74126e-05 9.00519e-17)
(0.999838 -0.000284791 3.30898e-17)
(0.999804 -0.000603085 -3.19591e-16)
(0.999794 -0.00092671 1.37953e-16)
(0.999826 -0.00124598 -5.61597e-17)
(0.999913 -0.00150952 3.67635e-16)
(1.00007 -0.00169419 6.25988e-16)
(1.00029 -0.00178693 1.05416e-16)
(1.00056 -0.00176011 5.11245e-16)
(1.00096 -0.00161723 1.24033e-15)
(1.00129 -0.00139933 1.43617e-15)
(1.00192 -0.00108313 -5.38116e-16)
(0.999849 1.16793e-05 3.46118e-17)
(0.999823 -0.000305935 -2.74446e-17)
(0.999795 -0.000638501 3.03979e-16)
(0.999796 -0.000971837 -2.77337e-16)
(0.999841 -0.0012961 3.92631e-16)
(0.99994 -0.00156155 4.0351e-18)
(1.0001 -0.00174642 -4.06959e-16)
(1.00035 -0.00183786 1.28337e-16)
(1.00062 -0.00181009 -4.42663e-16)
(1.00103 -0.00166373 -2.16744e-16)
(1.00139 -0.00144558 -5.76046e-16)
(1.00201 -0.00114331 -1.06829e-16)
(0.999834 5.6973e-06 -4.15084e-17)
(0.999807 -0.00032713 -2.31094e-16)
(0.999785 -0.000673958 -1.26518e-16)
(0.999796 -0.00101736 1.55317e-16)
(0.999852 -0.00134704 -2.82134e-17)
(0.999964 -0.0016147 -2.62211e-16)
(1.00014 -0.00179993 -5.4693e-17)
(1.0004 -0.00189014 -3.37971e-17)
(1.00068 -0.00186142 -5.3138e-16)
(1.0011 -0.00171184 -3.89965e-16)
(1.00148 -0.0014929 -1.7272e-15)
(1.00211 -0.00120271 1.02801e-15)
(0.999818 -4.61737e-07 -3.95495e-17)
(0.99979 -0.000348251 2.40585e-16)
(0.999774 -0.000709209 -1.71776e-16)
(0.999793 -0.001063 7.66866e-17)
(0.999862 -0.00139867 -1.88298e-16)
(0.999987 -0.00166913 -4.26654e-16)
(1.00018 -0.00185512 5.41341e-17)
(1.00044 -0.0019443 -6.91298e-17)
(1.00074 -0.00191458 2.87659e-16)
(1.00118 -0.00176183 4.47285e-16)
(1.00157 -0.00154128 1.54571e-15)
(1.0022 -0.00126082 -9.94122e-16)
(0.999801 -6.71762e-06 2.84473e-17)
(0.999772 -0.000369173 -1.12014e-17)
(0.999762 -0.000743984 2.7243e-17)
(0.99979 -0.00110832 -6.36027e-17)
(0.999869 -0.00145049 -2.36606e-16)
(1.00001 -0.00172436 -9.46732e-18)
(1.00021 -0.00191156 -1.25556e-16)
(1.00049 -0.00199989 -6.70832e-16)
(1.00081 -0.00196901 4.04309e-16)
(1.00125 -0.00181291 2.19062e-16)
(1.00167 -0.00158977 6.54064e-17)
(1.00229 -0.00131659 2.23506e-16)
(0.999783 -1.29946e-05 3.25386e-17)
(0.999754 -0.000389809 -2.63945e-16)
(0.99975 -0.000778094 5.16949e-16)
(0.999785 -0.00115289 4.92051e-17)
(0.999876 -0.00150184 1.43522e-16)
(1.00003 -0.0017796 8.70262e-16)
(1.00025 -0.00196837 7.15862e-16)
(1.00054 -0.00205594 3.62391e-16)
(1.00087 -0.00202368 -9.60542e-16)
(1.00132 -0.00186404 -2.80252e-16)
(1.00176 -0.00163759 9.27918e-17)
(1.00238 -0.00137012 -3.3374e-17)
(0.999765 -1.92073e-05 -6.09779e-17)
(0.999736 -0.000410097 1.05145e-16)
(0.999738 -0.000811441 -6.97054e-17)
(0.999781 -0.00119646 -8.85435e-17)
(0.999883 -0.00155228 -2.55331e-16)
(1.00005 -0.00183421 -5.05325e-16)
(1.00028 -0.00202479 -2.74721e-16)
(1.00059 -0.0021117 -2.17932e-17)
(1.00093 -0.00207792 2.78383e-16)
(1.0014 -0.00191475 -2.65606e-16)
(1.00185 -0.00168481 -1.56845e-15)
(1.00248 -0.00142225 7.97034e-16)
(0.999746 -2.52742e-05 4.45219e-17)
(0.999717 -0.000430019 6.34504e-18)
(0.999725 -0.000844052 -1.89682e-16)
(0.999777 -0.00123901 -1.45112e-16)
(0.999891 -0.00160168 -8.05427e-17)
(1.00007 -0.00188798 -1.19087e-16)
(1.00031 -0.00208061 -2.1729e-16)
(1.00064 -0.00216704 -2.31876e-16)
(1.001 -0.00213182 -6.76171e-17)
(1.00147 -0.00196547 -2.4644e-16)
(1.00194 -0.00173227 9.30985e-17)
(1.00258 -0.00147431 -1.58593e-16)
(0.999727 -3.1105e-05 1.52608e-17)
(0.999697 -0.000449563 1.49399e-16)
(0.999713 -0.000876016 4.09055e-17)
(0.999774 -0.00128071 -1.57122e-17)
(0.999898 -0.00165025 9.89155e-17)
(1.00009 -0.0019411 2.78041e-16)
(1.00035 -0.00213608 1.07051e-16)
(1.00069 -0.00222237 2.67825e-16)
(1.00106 -0.002186 3.14071e-16)
(1.00155 -0.00201697 -3.06659e-16)
(1.00204 -0.00178085 1.0074e-15)
(1.00267 -0.00152705 -6.25815e-16)
(0.999706 -3.66161e-05 -2.0694e-17)
(0.999677 -0.000468734 -1.95471e-17)
(0.999699 -0.000907463 -1.47791e-16)
(0.999769 -0.00132182 -9.72962e-17)
(0.999905 -0.00169836 -3.48836e-17)
(1.00011 -0.00199401 -1.79077e-16)
(1.00038 -0.00219169 1.04248e-17)
(1.00074 -0.00227829 -3.1176e-16)
(1.00112 -0.00224113 -2.70954e-17)
(1.00163 -0.00206991 1.05385e-15)
(1.00213 -0.00183099 4.97544e-16)
(1.00277 -0.0015805 5.3389e-17)
(0.999685 -4.17198e-05 -9.84542e-18)
(0.999657 -0.000487523 -1.14675e-16)
(0.999685 -0.00093849 -5.05454e-17)
(0.999764 -0.00136257 -7.55395e-17)
(0.999912 -0.00174636 5.57868e-16)
(1.00013 -0.00204712 -1.29285e-16)
(1.00042 -0.00224789 1.53945e-16)
(1.00079 -0.0023352 -1.59998e-16)
(1.00119 -0.00229756 -2.55721e-16)
(1.0017 -0.00212442 -2.65746e-16)
(1.00222 -0.00188248 -1.96874e-17)
(1.00287 -0.00163417 -2.02352e-16)
(0.999663 -4.63425e-05 3.40908e-17)
(0.999635 -0.000505922 -4.08568e-17)
(0.99967 -0.000969171 1.71678e-16)
(0.999758 -0.00140317 3.46693e-16)
(0.999917 -0.00179452 -5.27497e-16)
(1.00015 -0.00210073 4.99413e-16)
(1.00045 -0.0023049 -2.76246e-16)
(1.00083 -0.00239325 -1.44288e-16)
(1.00125 -0.00235527 -1.94456e-16)
(1.00178 -0.00218021 -3.55822e-16)
(1.00231 -0.00193477 -1.51159e-16)
(1.00296 -0.00168741 -1.21419e-16)
(0.999639 -5.04145e-05 -5.82307e-18)
(0.999612 -0.000523908 -1.56687e-17)
(0.999653 -0.000999523 -1.5787e-17)
(0.999751 -0.00144368 -3.35596e-16)
(0.999922 -0.00184297 -1.44116e-16)
(1.00017 -0.00215495 -1.30635e-17)
(1.00048 -0.00236278 -3.90146e-16)
(1.00088 -0.00245234 7.193e-16)
(1.00132 -0.00241398 -5.87525e-18)
(1.00186 -0.00223681 2.51373e-16)
(1.00241 -0.00198729 1.78289e-16)
(1.00306 -0.00173984 -5.46609e-18)
(0.999614 -5.38848e-05 -1.88921e-17)
(0.999588 -0.000541463 1.07894e-16)
(0.999636 -0.00102955 3.21403e-17)
(0.999742 -0.00148412 4.61255e-16)
(0.999925 -0.00189171 2.5179e-16)
(1.00018 -0.00220976 -4.22537e-16)
(1.00052 -0.00242142 1.91918e-16)
(1.00093 -0.00251226 -3.78971e-16)
(1.00138 -0.00247337 1.31267e-15)
(1.00194 -0.00229381 -1.02107e-16)
(1.0025 -0.00203969 2.24898e-17)
(1.00316 -0.00179135 -1.41558e-16)
(0.999588 -5.67092e-05 -1.97129e-17)
(0.999563 -0.000558565 7.53743e-17)
(0.999618 -0.00105923 -9.05714e-17)
(0.999733 -0.00152444 -4.47662e-16)
(0.999928 -0.00194064 4.63668e-16)
(1.0002 -0.00226504 2.71318e-16)
(1.00055 -0.0024807 3.43261e-16)
(1.00098 -0.00257282 1.53652e-16)
(1.00145 -0.00253319 -1.09039e-16)
(1.00202 -0.002351 5.47868e-16)
(1.00259 -0.00209189 -9.94819e-16)
(1.00326 -0.00184224 1.12693e-15)
(0.999561 -5.88616e-05 2.74686e-17)
(0.999538 -0.00057521 -1.4426e-16)
(0.999598 -0.00108858 -8.42488e-17)
(0.999722 -0.00156461 -2.68444e-17)
(0.99993 -0.00198967 -1.77342e-16)
(1.00022 -0.00232066 -5.0394e-18)
(1.00058 -0.00254045 -2.82161e-16)
(1.00103 -0.00263389 -2.13636e-16)
(1.00151 -0.00259336 -1.20576e-15)
(1.0021 -0.00240839 -3.98235e-16)
(1.00269 -0.00214406 -2.56332e-16)
(1.00336 -0.00189284 -3.02104e-17)
(0.999532 -6.03207e-05 1.05341e-17)
(0.999511 -0.000591395 -1.18594e-17)
(0.999578 -0.00111761 -4.26262e-17)
(0.999712 -0.00160462 3.25671e-16)
(0.999931 -0.00203873 -5.53081e-16)
(1.00023 -0.00237651 -4.10573e-16)
(1.00061 -0.0026006 3.5286e-16)
(1.00108 -0.00269541 -2.33604e-17)
(1.00158 -0.00265392 7.30595e-17)
(1.00218 -0.00246614 4.22075e-16)
(1.00278 -0.00219653 -1.68901e-16)
(1.00346 -0.00194361 3.05554e-16)
(0.999501 -6.10794e-05 -1.51744e-17)
(0.999483 -0.000607136 1.70099e-16)
(0.999557 -0.00114638 2.88615e-16)
(0.9997 -0.00164453 -9.61851e-17)
(0.999932 -0.00208785 4.35865e-17)
(1.00025 -0.0024326 1.82419e-16)
(1.00065 -0.00266115 -4.21268e-16)
(1.00113 -0.00275749 4.43733e-16)
(1.00164 -0.00271507 3.45168e-16)
(1.00226 -0.00252458 -2.84585e-16)
(1.00288 -0.00224975 3.23214e-18)
(1.00356 -0.00199495 -1.91408e-17)
(0.999469 -6.11307e-05 -4.29466e-18)
(0.999454 -0.000622448 -2.47108e-16)
(0.999534 -0.00117496 -4.85148e-17)
(0.999687 -0.00168444 5.79671e-17)
(0.999933 -0.00213712 6.52477e-16)
(1.00026 -0.00248904 5.21132e-17)
(1.00068 -0.00272226 3.91149e-16)
(1.00118 -0.00282032 -7.24765e-16)
(1.00171 -0.0027771 3.64154e-16)
(1.00234 -0.00258407 -4.37737e-16)
(1.00297 -0.00230413 9.402e-16)
(1.00366 -0.00204721 -4.68729e-16)
(0.999436 -6.04791e-05 2.14671e-17)
(0.999423 -0.000637355 1.09557e-16)
(0.99951 -0.00120344 -1.16378e-16)
(0.999674 -0.0017245 4.79202e-17)
(0.999932 -0.00218677 -3.92494e-16)
(1.00028 -0.00254606 -1.38232e-16)
(1.00071 -0.00278419 2.27001e-17)
(1.00122 -0.00288421 5.1935e-16)
(1.00178 -0.00284038 3.13616e-16)
(1.00242 -0.00264499 -2.16673e-17)
(1.00307 -0.00236001 1.23884e-15)
(1.00376 -0.00210055 -6.13227e-16)
(0.999401 -5.91287e-05 1.44302e-18)
(0.999391 -0.000651868 1.19574e-16)
(0.999485 -0.00123188 1.1949e-16)
(0.999659 -0.00176486 -1.44078e-17)
(0.999931 -0.00223702 2.87038e-16)
(1.00029 -0.00260395 3.71292e-16)
(1.00074 -0.00284724 -1.13337e-16)
(1.00127 -0.00294948 5.21713e-16)
(1.00184 -0.00290519 -1.19774e-15)
(1.0025 -0.00270758 -1.3296e-16)
(1.00316 -0.00241753 -1.78341e-15)
(1.00386 -0.0021548 1.415e-16)
(0.999365 -5.70956e-05 -6.22614e-17)
(0.999359 -0.000666002 7.43971e-17)
(0.999459 -0.00126034 -2.12659e-17)
(0.999642 -0.00180566 1.55162e-16)
(0.999928 -0.00228808 -2.13718e-16)
(1.0003 -0.00266298 -5.21036e-16)
(1.00077 -0.00291169 -4.00927e-17)
(1.00132 -0.00301638 -3.71869e-16)
(1.00191 -0.00297175 1.27586e-15)
(1.00258 -0.00277191 -4.30143e-17)
(1.00326 -0.00247663 3.82736e-16)
(1.00396 -0.0022098 7.07252e-16)
(0.999327 -5.43978e-05 1.54835e-17)
(0.999324 -0.000679757 -3.18964e-16)
(0.99943 -0.0012888 1.09958e-16)
(0.999624 -0.00184693 -5.10118e-16)
(0.999923 -0.00234009 2.55294e-16)
(1.00032 -0.00272331 8.4555e-16)
(1.0008 -0.00297771 -2.19312e-16)
(1.00137 -0.00308502 -5.19516e-16)
(1.00197 -0.00304007 -4.0603e-16)
(1.00266 -0.0028379 -8.03413e-17)
(1.00335 -0.0025371 3.96725e-16)
(1.00407 -0.00226506 -6.46767e-16)
(0.999288 -5.10674e-05 3.55088e-17)
(0.999289 -0.000693139 9.26695e-17)
(0.999401 -0.00131726 -3.33927e-16)
(0.999604 -0.00188868 4.62613e-16)
(0.999917 -0.00239306 -6.95742e-16)
(1.00033 -0.00278499 -6.95223e-16)
(1.00083 -0.00304533 2.65126e-16)
(1.00141 -0.00315537 9.32753e-16)
(1.00204 -0.00311004 -5.25683e-16)
(1.00274 -0.0029053 2.11674e-16)
(1.00345 -0.00259863 -1.71203e-16)
(1.00417 -0.00232041 6.05847e-17)
(0.999248 -4.71416e-05 -6.04846e-18)
(0.999252 -0.000706145 1.99997e-16)
(0.99937 -0.00134567 2.66419e-16)
(0.999583 -0.00193082 -3.17204e-16)
(0.999909 -0.00244691 1.54365e-16)
(1.00033 -0.00284794 4.28264e-16)
(1.00085 -0.00311443 1.44066e-16)
(1.00146 -0.00322725 -9.66786e-17)
(1.0021 -0.00318139 7.3689e-16)
(1.00282 -0.00297379 3.75229e-16)
(1.00354 -0.00266089 7.06487e-17)
(1.00427 -0.00237548 6.3929e-17)
(0.999207 -4.26726e-05 1.35972e-17)
(0.999214 -0.000718792 -2.23107e-16)
(0.999338 -0.00137399 -5.89563e-17)
(0.99956 -0.00197326 1.24228e-16)
(0.999901 -0.0025015 7.51203e-16)
(1.00034 -0.00291196 -3.85435e-16)
(1.00088 -0.00318479 -3.28489e-16)
(1.0015 -0.00330042 -7.46809e-17)
(1.00217 -0.00325386 -7.28848e-16)
(1.0029 -0.0030431 4.24069e-16)
(1.00364 -0.00272365 -5.90702e-17)
(1.00437 -0.00243032 3.80281e-16)
(0.999164 -3.77165e-05 -1.07892e-17)
(0.999176 -0.000731096 1.39696e-16)
(0.999305 -0.00140218 -9.64112e-17)
(0.999537 -0.00201589 3.61865e-16)
(0.999891 -0.00255663 -7.05703e-16)
(1.00035 -0.00297683 4.95999e-16)
(1.0009 -0.00325616 -4.82689e-17)
(1.00155 -0.0033746 -5.04484e-17)
(1.00223 -0.00332719 7.54175e-16)
(1.00298 -0.003113 -2.90951e-16)
(1.00373 -0.00278678 -2.38386e-16)
(1.00448 -0.00248476 -9.6055e-17)
(0.99912 -3.23415e-05 1.51857e-18)
(0.999136 -0.0007431 -2.60376e-17)
(0.999271 -0.00143025 1.17478e-16)
(0.999513 -0.00205865 -4.01376e-16)
(0.99988 -0.00261219 3.48419e-16)
(1.00035 -0.00304238 1.16612e-16)
(1.00093 -0.00332835 1.68017e-16)
(1.00159 -0.00344962 -8.77564e-16)
(1.00229 -0.00340123 -3.68367e-16)
(1.00306 -0.00318343 -1.32578e-15)
(1.00383 -0.00285029 -6.93821e-16)
(1.00458 -0.00253912 -7.14697e-16)
(0.999075 -2.66162e-05 -1.97149e-17)
(0.999095 -0.00075485 1.80486e-17)
(0.999237 -0.00145822 -2.20137e-16)
(0.999488 -0.00210151 1.44771e-17)
(0.99987 -0.00266809 -8.85147e-17)
(1.00036 -0.00310848 5.26121e-18)
(1.00096 -0.00340121 3.10384e-16)
(1.00164 -0.00352535 1.18642e-15)
(1.00236 -0.00347593 1.03191e-16)
(1.00314 -0.00325436 8.27452e-16)
(1.00392 -0.00291421 -1.21554e-16)
(1.00469 -0.00259334 1.29716e-15)
(0.99903 -2.06164e-05 1.89685e-17)
(0.999053 -0.000766415 1.09574e-17)
(0.999201 -0.00148617 2.97498e-16)
(0.999463 -0.00214452 -1.74035e-16)
(0.999858 -0.00272434 -2.03836e-16)
(1.00037 -0.00317511 -2.35507e-16)
(1.00098 -0.00347474 -1.42896e-16)
(1.00168 -0.0036018 -4.75701e-16)
(1.00242 -0.00355131 8.56565e-17)
(1.00323 -0.00332588 8.22132e-16)
(1.00402 -0.00297865 7.98923e-16)
(1.00479 -0.00264784 -1.15197e-15)
(0.998983 -1.44131e-05 -1.93654e-17)
(0.999011 -0.00077786 -2.39584e-16)
(0.999165 -0.00151416 -1.27574e-16)
(0.999437 -0.00218776 2.92334e-17)
(0.999846 -0.002781 5.10989e-16)
(1.00037 -0.00324233 -4.05318e-16)
(1.001 -0.00354898 -3.61845e-16)
(1.00173 -0.00367903 -4.4748e-16)
(1.00249 -0.00362748 -5.3672e-16)
(1.00331 -0.0033981 -1.77636e-15)
(1.00412 -0.00304353 -5.94664e-16)
(1.0049 -0.0027025 5.84077e-16)
(0.998935 -8.08029e-06 9.69185e-18)
(0.998967 -0.000789267 2.00094e-16)
(0.999128 -0.00154232 6.03602e-17)
(0.99941 -0.00223136 3.72489e-16)
(0.999834 -0.00283822 -5.89782e-16)
(1.00038 -0.00331026 5.7509e-16)
(1.00103 -0.00362405 -6.85694e-18)
(1.00177 -0.00375717 1.05449e-15)
(1.00255 -0.00370454 3.80891e-16)
(1.00339 -0.00347112 2.31657e-15)
(1.00421 -0.00310889 3.30683e-16)
(1.00501 -0.00275753 5.44331e-16)
(0.998886 -1.68542e-06 -1.97869e-17)
(0.998922 -0.000800703 4.29822e-17)
(0.99909 -0.00157072 9.3629e-17)
(0.999382 -0.00227543 -1.45673e-16)
(0.99982 -0.0028961 5.03926e-16)
(1.00038 -0.00337904 -6.06747e-16)
(1.00105 -0.00370008 5.54143e-16)
(1.00182 -0.00383631 -1.42303e-16)
(1.00262 -0.00378257 2.32375e-16)
(1.00347 -0.00354498 -1.6894e-15)
(1.00431 -0.00317466 1.00487e-15)
(1.00511 -0.00281297 -1.21484e-15)
(0.998836 4.70317e-06 2.12831e-17)
(0.998876 -0.000812243 -1.18985e-16)
(0.99905 -0.00159946 -1.73022e-16)
(0.999353 -0.00232009 -1.71095e-16)
(0.999806 -0.0029548 5.21946e-17)
(1.00038 -0.00344878 -1.59731e-16)
(1.00108 -0.00377717 -3.01837e-16)
(1.00186 -0.00391654 -6.70059e-16)
(1.00268 -0.00386164 -2.40103e-16)
(1.00355 -0.00361972 3.94845e-16)
(1.00441 -0.00324092 -9.87106e-16)
(1.00522 -0.00286903 7.0236e-16)
(0.998785 1.10243e-05 5.12813e-17)
(0.998829 -0.000823948 1.44692e-17)
(0.99901 -0.00162861 -4.60401e-17)
(0.999323 -0.00236542 1.24336e-16)
(0.999791 -0.00301438 -6.88118e-16)
(1.00039 -0.00351957 1.16518e-16)
(1.0011 -0.00385538 5.05052e-16)
(1.0019 -0.00399789 -2.82062e-16)
(1.00275 -0.00394173 9.4799e-17)
(1.00364 -0.00369532 -1.24297e-16)
(1.0045 -0.00330757 2.25318e-16)
(1.00533 -0.00292569 -5.29326e-16)
(0.998734 1.72163e-05 -3.34759e-17)
(0.99878 -0.000835881 7.35372e-17)
(0.998968 -0.00165825 -1.34585e-16)
(0.999292 -0.00241147 -8.06462e-17)
(0.999774 -0.00307491 5.11907e-16)
(1.00039 -0.00359146 2.11787e-16)
(1.00112 -0.00393475 -2.23619e-16)
(1.00195 -0.00408038 4.58854e-16)
(1.00281 -0.00402285 1.51116e-16)
(1.00372 -0.00377178 2.98344e-16)
(1.0046 -0.0033747 -3.07682e-16)
(1.00543 -0.00298301 -1.11181e-17)
(0.998682 2.32236e-05 -5.12659e-17)
(0.99873 -0.000848093 -2.66892e-17)
(0.998925 -0.0016884 1.38744e-16)
(0.999259 -0.00245831 1.22668e-16)
(0.999757 -0.00313642 1.59583e-16)
(1.00039 -0.00366445 4.31794e-16)
(1.00114 -0.00401526 -1.93835e-16)
(1.00199 -0.00416398 -8.64773e-17)
(1.00287 -0.00410499 -1.83343e-16)
(1.0038 -0.00384907 -6.70793e-18)
(1.0047 -0.00344233 6.65742e-18)
(1.00554 -0.00304125 3.87523e-16)
(0.998628 2.89916e-05 8.6247e-17)
(0.998679 -0.000860638 -1.39877e-17)
(0.998881 -0.00171914 1.60371e-16)
(0.999226 -0.00250597 -7.3282e-17)
(0.999739 -0.00319893 -1.40505e-16)
(1.00039 -0.00373855 -5.68482e-16)
(1.00116 -0.00409693 -3.4437e-16)
(1.00203 -0.00424871 2.24307e-16)
(1.00294 -0.00418817 3.53407e-17)
(1.00388 -0.00392725 5.37602e-17)
(1.0048 -0.00351069 8.327e-17)
(1.00565 -0.00310049 3.46387e-17)
(0.998574 3.44736e-05 -8.60227e-17)
(0.998627 -0.000873559 1.31657e-16)
(0.998835 -0.0017505 -2.36104e-16)
(0.999191 -0.00255448 1.6251e-16)
(0.99972 -0.00326247 -3.77441e-18)
(1.00039 -0.00381378 3.85926e-16)
(1.00119 -0.00417975 3.36091e-16)
(1.00207 -0.00433459 -2.24528e-16)
(1.003 -0.00427244 3.69507e-16)
(1.00396 -0.00400639 -2.39595e-16)
(1.00489 -0.00357994 7.16183e-16)
(1.00575 -0.00316094 7.25589e-16)
(0.99852 3.96262e-05 6.59229e-17)
(0.998573 -0.000886905 -9.53035e-17)
(0.998788 -0.00178254 -4.00535e-17)
(0.999156 -0.0026039 1.20969e-16)
(0.9997 -0.00332708 -1.51882e-16)
(1.00039 -0.00389017 -2.36308e-16)
(1.00121 -0.00426378 3.6102e-16)
(1.00212 -0.00442167 -2.11517e-16)
(1.00306 -0.00435788 -4.49939e-16)
(1.00405 -0.00408659 2.42143e-16)
(1.00499 -0.00365035 -4.11081e-16)
(1.00586 -0.00322252 -5.68464e-16)
(0.998464 4.44153e-05 2.74057e-17)
(0.998518 -0.000900712 -1.01353e-16)
(0.99874 -0.0018153 4.14293e-16)
(0.999119 -0.00265427 -2.02531e-16)
(0.999679 -0.00339281 8.27907e-17)
(1.00039 -0.00396779 -1.92111e-16)
(1.00122 -0.00434908 -4.74453e-16)
(1.00216 -0.00451005 4.12233e-16)
(1.00313 -0.00444457 4.75206e-16)
(1.00413 -0.00416793 -6.00085e-16)
(1.00509 -0.00372204 -2.34362e-16)
(1.00597 -0.003285 -1.78243e-16)
(0.998408 4.88127e-05 -7.85535e-17)
(0.998462 -0.000915019 3.06119e-17)
(0.99869 -0.00184882 -1.87521e-16)
(0.99908 -0.00270565 2.56645e-17)
(0.999656 -0.00345973 1.14262e-16)
(1.00038 -0.00404671 4.66738e-16)
(1.00124 -0.00443574 5.04968e-18)
(1.0022 -0.00459982 -2.43899e-17)
(1.00319 -0.0045326 -6.53421e-16)
(1.00421 -0.0042505 9.5957e-17)
(1.00519 -0.00379512 -1.35228e-16)
(1.00607 -0.00334826 7.26684e-17)
(0.998351 5.28013e-05 -1.26834e-17)
(0.998404 -0.000929856 -2.33513e-17)
(0.99864 -0.00188314 -2.73651e-16)
(0.999041 -0.00275807 -5.00186e-17)
(0.999633 -0.00352788 -1.79839e-16)
(1.00038 -0.00412698 -1.30178e-16)
(1.00126 -0.00452384 -1.32798e-16)
(1.00224 -0.00469104 1.63228e-16)
(1.00325 -0.00462203 1.8378e-16)
(1.00429 -0.00433431 3.14576e-16)
(1.00529 -0.00386953 4.43733e-16)
(1.00618 -0.003412 -2.29852e-16)
(0.998293 5.63705e-05 3.06729e-17)
(0.998346 -0.000945253 1.59448e-17)
(0.998587 -0.00191828 2.61269e-16)
(0.999 -0.00281156 -5.25048e-17)
(0.999608 -0.0035973 -9.68982e-17)
(1.00037 -0.00420867 -1.49368e-16)
(1.00128 -0.00461341 4.43118e-16)
(1.00228 -0.00478376 -2.97274e-16)
(1.00331 -0.00471287 1.05062e-16)
(1.00437 -0.00441937 4.09727e-16)
(1.00538 -0.00394524 -2.6083e-16)
(1.00629 -0.00347622 -4.08972e-17)
(0.998234 5.9519e-05 -4.1938e-17)
(0.998285 -0.000961228 4.33978e-17)
(0.998534 -0.00195423 8.90449e-17)
(0.998958 -0.00286611 1.89769e-16)
(0.999582 -0.00366799 3.42068e-16)
(1.00037 -0.00429178 -2.54708e-16)
(1.00129 -0.00470446 -1.68993e-16)
(1.00232 -0.00487794 1.78251e-17)
(1.00338 -0.00480508 -3.11839e-16)
(1.00445 -0.00450555 -4.49052e-16)
(1.00548 -0.0040221 5.98737e-16)
(1.0064 -0.0035405 2.51329e-16)
(0.998174 6.22504e-05 6.74985e-17)
(0.998224 -0.000977801 8.24789e-17)
(0.998479 -0.00199102 -8.45844e-17)
(0.998915 -0.00292172 -1.72086e-16)
(0.999555 -0.00373994 4.47652e-17)
(1.00036 -0.00437627 4.17041e-16)
(1.00131 -0.00479697 -2.9781e-16)
(1.00236 -0.00497352 -1.07636e-17)
(1.00344 -0.00489859 3.97964e-16)
(1.00454 -0.0045928 -3.90272e-16)
(1.00558 -0.00409998 -5.08423e-16)
(1.00651 -0.00360499 -1.30454e-16)
(0.998114 6.45746e-05 8.35044e-18)
(0.998162 -0.000994983 8.44373e-18)
(0.998423 -0.00202861 -2.78304e-16)
(0.99887 -0.00297834 -2.27068e-16)
(0.999527 -0.00381308 -3.82176e-16)
(1.00035 -0.00446207 5.20694e-17)
(1.00132 -0.00489083 8.54156e-17)
(1.00239 -0.00507042 -5.94578e-17)
(1.0035 -0.00499328 -3.26929e-16)
(1.00462 -0.00468099 7.33001e-16)
(1.00568 -0.00417872 3.79933e-16)
(1.00661 -0.00366915 -1.17383e-16)
(0.998052 6.65042e-05 -3.96481e-17)
(0.998098 -0.00101279 -7.72915e-17)
(0.998365 -0.002067 3.71002e-16)
(0.998824 -0.00303593 3.38014e-16)
(0.999498 -0.00388735 -7.43285e-18)
(1.00034 -0.00454912 7.2369e-17)
(1.00134 -0.00498598 -1.12401e-16)
(1.00243 -0.00516853 8.26268e-17)
(1.00356 -0.0050891 3.48031e-16)
(1.0047 -0.0047701 -1.80989e-16)
(1.00578 -0.00425826 1.2904e-16)
(1.00672 -0.00373357 2.18025e-16)
(0.99799 6.8054e-05 -2.48072e-18)
(0.998033 -0.00103122 5.34766e-17)
(0.998307 -0.00210618 -1.62427e-16)
(0.998777 -0.00309444 -3.19461e-16)
(0.999468 -0.00396268 1.93531e-16)
(1.00033 -0.00463733 -4.44016e-16)
(1.00135 -0.0050823 1.31257e-16)
(1.00247 -0.00526777 -1.95015e-16)
(1.00362 -0.00518592 3.08475e-17)
(1.00478 -0.00486003 1.85636e-16)
(1.00588 -0.00433822 -1.60077e-16)
(1.00684 -0.00379786 -4.85914e-16)
(0.997926 6.92401e-05 2.29185e-17)
(0.997967 -0.00105028 -1.48478e-16)
(0.998247 -0.00214613 1.66659e-16)
(0.998729 -0.00315385 2.80015e-16)
(0.999436 -0.00403903 -3.6025e-16)
(1.00032 -0.00472664 -3.04961e-17)
(1.00136 -0.00517974 2.19463e-16)
(1.00251 -0.00536808 -2.64986e-16)
(1.00368 -0.00528374 -3.21213e-16)
(1.00486 -0.00495082 9.09094e-17)
(1.00598 -0.00441864 -2.78906e-16)
(1.00695 -0.00386266 4.27946e-16)
(0.997861 7.008e-05 1.50605e-17)
(0.997899 -0.00106999 7.82567e-17)
(0.998186 -0.00218686 -7.73285e-17)
(0.99868 -0.00321414 2.3596e-16)
(0.999404 -0.00411635 1.75074e-16)
(1.00031 -0.00481701 1.47493e-16)
(1.00137 -0.00527825 -2.48155e-16)
(1.00254 -0.00546944 3.7835e-16)
(1.00374 -0.00538254 -3.36666e-18)
(1.00495 -0.00504251 -7.20728e-16)
(1.00608 -0.00449952 1.37978e-16)
(1.00706 -0.00392816 -2.69333e-17)
(0.997794 7.05924e-05 -2.40087e-17)
(0.997831 -0.00109033 8.08373e-17)
(0.998124 -0.00222837 -2.69383e-16)
(0.99863 -0.00327531 -1.97686e-16)
(0.999371 -0.00419464 4.02555e-17)
(1.0003 -0.00490843 1.55085e-16)
(1.00139 -0.00537785 2.59202e-16)
(1.00258 -0.00557188 3.5391e-17)
(1.0038 -0.0054824 2.80535e-17)
(1.00503 -0.00513522 4.79922e-16)
(1.00618 -0.00458112 1.4617e-16)
(1.00717 -0.00399502 -2.33667e-16)
(0.997726 7.0797e-05 -1.8977e-17)
(0.997761 -0.00111131 -2.24313e-17)
(0.998061 -0.00227067 2.85524e-16)
(0.998579 -0.00333737 4.56179e-18)
(0.999337 -0.00427394 2.4616e-16)
(1.00029 -0.00500094 -2.32159e-16)
(1.0014 -0.00547857 -1.52027e-16)
(1.00261 -0.00567546 -4.51829e-17)
(1.00386 -0.00558336 5.4495e-18)
(1.00511 -0.00522898 2.91538e-16)
(1.00628 -0.00466332 -4.54889e-16)
(1.00728 -0.00406298 -2.68718e-16)
(0.997656 7.07165e-05 5.17496e-18)
(0.997689 -0.00113293 -7.8795e-17)
(0.997996 -0.00231378 -2.76187e-16)
(0.998526 -0.00340035 4.92526e-17)
(0.999302 -0.00435427 2.30127e-17)
(1.00027 -0.00509458 2.92933e-18)
(1.00141 -0.00558047 -8.03262e-17)
(1.00265 -0.00578024 3.49402e-16)
(1.00392 -0.00568554 3.83284e-16)
(1.00519 -0.00532396 -2.55089e-16)
(1.00638 -0.00474641 6.8906e-16)
(1.00739 -0.00413242 6.34091e-16)