1.275 	2.15223e-18 	-2.76991e-20 	-0.0342772 	-0.000451521 	-1.95782e-22
1.825 	2.15223e-18 	-1.39322e-20 	-0.00912854 	-0.00277444 	1.74933e-21
2.375 	2.15223e-18 	-2.66896e-23 	0.116263 	-0.00324945 	-7.30221e-22
