/*--------------------------------*- C++ -*----------------------------------*\
  =========                 |
  \\      /  F ield         | OpenFOAM: The Open Source CFD Toolbox
   \\    /   O peration     | Website:  https://openfoam.org
    \\  /    A nd           | Version:  6.0
     \\/     M anipulation  |
\*---------------------------------------------------------------------------*/
FoamFile
{
    version     2.0;
    format      ascii;
    class       volVectorField;
    location    "0.2";
    object      U;
}
// * * * * * * * * * * * * * * * * * * * * * * * * * * * * * * * * * * * * * //

dimensions      [0 1 -1 0 0 0 0];

internalField   nonuniform List<vector> 
200
(
(-0.000162113 6.93459e-05 0)
(-0.00620512 0.00391347 0)
(-0.0206777 0.00610989 0)
(-0.0379211 0.00639561 0)
(-0.0540957 0.00564575 0)
(-0.0676195 0.00452423 0)
(-0.0781201 0.00340004 0)
(-0.0858169 0.00243133 0)
(-0.0911301 0.00163851 0)
(-0.0944225 0.000961116 0)
(-0.0958493 0.000294813 0)
(-0.0952846 -0.000484722 0)
(-0.0923052 -0.00149807 0)
(-0.0862462 -0.00282403 0)
(-0.0763785 -0.00443513 0)
(-0.0622604 -0.00610703 0)
(-0.044282 -0.00732339 0)
(-0.02445 -0.00721093 0)
(-0.00752662 -0.0047233 0)
(-0.000300591 -0.000225209 0)
(-0.00440056 0.00617109 0)
(-0.0238565 0.0223222 0)
(-0.0583804 0.0307773 0)
(-0.0969091 0.0316552 0)
(-0.132542 0.0281389 0)
(-0.162435 0.0228463 0)
(-0.18582 0.0173685 0)
(-0.203029 0.0124453 0)
(-0.21482 0.008217 0)
(-0.221865 0.00445201 0)
(-0.224455 0.000714526 0)
(-0.22236 -0.00351358 0)
(-0.214804 -0.00871129 0)
(-0.200598 -0.0151471 0)
(-0.178481 -0.0226189 0)
(-0.147755 -0.0301138 0)
(-0.10918 -0.0354864 0)
(-0.0661994 -0.0353542 0)
(-0.0271369 -0.0259131 0)
(-0.00500972 -0.00728583 0)
(-0.00835119 0.0228721 0)
(-0.0391227 0.0589613 0)
(-0.0882329 0.0755358 0)
(-0.139711 0.0759049 0)
(-0.18537 0.0669521 0)
(-0.22264 0.0542334 0)
(-0.251227 0.0411696 0)
(-0.271915 0.0293565 0)
(-0.285829 0.0190908 0)
(-0.293897 0.00986062 0)
(-0.296552 0.000712141 0)
(-0.29359 -0.00947638 0)
(-0.284152 -0.0217278 0)
(-0.26683 -0.0366078 0)
(-0.239987 -0.0536971 0)
(-0.202375 -0.0708991 0)
(-0.154059 -0.0837562 0)
(-0.0979277 -0.0852138 0)
(-0.0435282 -0.0670239 0)
(-0.00926706 -0.0259142 0)
(-0.0118971 0.0477661 0)
(-0.0516624 0.108258 0)
(-0.109997 0.131441 0)
(-0.166631 0.12812 0)
(-0.21351 0.110766 0)
(-0.249665 0.0884339 0)
(-0.276124 0.066361 0)
(-0.294525 0.0468024 0)
(-0.306476 0.0300127 0)
(-0.313164 0.0150525 0)
(-0.31518 0.000350473 0)
(-0.312445 -0.0159044 0)
(-0.304183 -0.0353966 0)
(-0.288936 -0.05919 0)
(-0.264695 -0.0869639 0)
(-0.229282 -0.115915 0)
(-0.181066 -0.139467 0)
(-0.120724 -0.146338 0)
(-0.0571436 -0.121554 0)
(-0.0132037 -0.0533488 0)
(-0.0159467 0.0797239 0)
(-0.0629799 0.165626 0)
(-0.123983 0.190642 0)
(-0.176433 0.178717 0)
(-0.214798 0.149912 0)
(-0.241156 0.116841 0)
(-0.258485 0.085981 0)
(-0.269397 0.0596528 0)
(-0.275878 0.0376767 0)
(-0.279227 0.0185109 0)
(-0.280112 -6.59071e-05 0)
(-0.27862 -0.0205403 0)
(-0.27423 -0.0453114 0)
(-0.265694 -0.0761869 0)
(-0.250872 -0.113502 0)
(-0.226654 -0.154637 0)
(-0.189122 -0.191851 0)
(-0.135098 -0.209812 0)
(-0.0698494 -0.184481 0)
(-0.0179253 -0.0886531 0)
(-0.021477 0.119512 0)
(-0.0739439 0.226491 0)
(-0.128002 0.244208 0)
(-0.163925 0.217477 0)
(-0.182627 0.175006 0)
(-0.190559 0.131851 0)
(-0.192658 0.0943896 0)
(-0.192062 0.0640535 0)
(-0.190625 0.0397534 0)
(-0.189359 0.0192311 0)
(-0.188784 -0.000284887 0)
(-0.189123 -0.0217825 0)
(-0.190295 -0.048266 0)
(-0.191684 -0.0824146 0)
(-0.191671 -0.125802 0)
(-0.186923 -0.177232 0)
(-0.171551 -0.229662 0)
(-0.137396 -0.265445 0)
(-0.0817509 -0.250565 0)
(-0.0242543 -0.132957 0)
(-0.0284975 0.170134 0)
(-0.0818524 0.283268 0)
(-0.112691 0.27846 0)
(-0.115613 0.231074 0)
(-0.103069 0.175784 0)
(-0.0856913 0.126519 0)
(-0.0689816 0.0872909 0)
(-0.0553011 0.0575458 0)
(-0.0454057 0.0349636 0)
(-0.0394039 0.0166905 0)
(-0.0373357 -0.000258136 0)
(-0.0394515 -0.0189498 0)
(-0.0462472 -0.0425928 0)
(-0.0582299 -0.0745126 0)
(-0.075288 -0.117765 0)
(-0.0954563 -0.173778 0)
(-0.112873 -0.238963 0)
(-0.115441 -0.297925 0)
(-0.0877973 -0.310472 0)
(-0.0313079 -0.189085 0)
(-0.0311613 0.234609 0)
(-0.0717218 0.318718 0)
(-0.051412 0.271515 0)
(-0.00226768 0.203383 0)
(0.048995 0.143199 0)
(0.0925087 0.0969005 0)
(0.125979 0.0636341 0)
(0.149925 0.0403727 0)
(0.165785 0.023867 0)
(0.174887 0.0112237 0)
(0.177925 -0.000133733 0)
(0.174761 -0.0126954 0)
(0.164357 -0.0291555 0)
(0.144863 -0.0527182 0)
(0.114038 -0.0872996 0)
(0.0703978 -0.137145 0)
(0.0155041 -0.204686 0)
(-0.0408315 -0.284418 0)
(-0.0695045 -0.343407 0)
(-0.0309635 -0.257136 0)
(0.00874903 0.281278 0)
(0.0155226 0.289471 0)
(0.12186 0.199878 0)
(0.230829 0.128654 0)
(0.311778 0.080894 0)
(0.368281 0.0499895 0)
(0.406624 0.0304835 0)
(0.431699 0.0182391 0)
(0.447259 0.0103262 0)
(0.455811 0.00471662 0)
(0.458592 -0.000105553 0)
(0.455628 -0.00548386 0)
(0.445699 -0.0129098 0)
(0.426185 -0.0244165 0)
(0.392905 -0.0431442 0)
(0.340102 -0.0740541 0)
(0.260141 -0.124445 0)
(0.147284 -0.202838 0)
(0.0321648 -0.302138 0)
(0.0179039 -0.296368 0)
(0.301181 0.14645 0)
(0.397183 0.126774 0)
(0.552942 0.0741345 0)
(0.662825 0.0409152 0)
(0.723663 0.0224234 0)
(0.758105 0.0122032 0)
(0.778395 0.00661214 0)
(0.790309 0.0035593 0)
(0.797104 0.00184294 0)
(0.800607 0.000774613 0)
(0.801642 -7.56098e-05 0)
(0.800262 -0.00104572 0)
(0.795773 -0.00251425 0)
(0.786522 -0.00506781 0)
(0.769414 -0.00979523 0)
(0.738785 -0.0188339 0)
(0.682357 -0.0363608 0)
(0.574977 -0.070053 0)
(0.414129 -0.126032 0)
(0.30974 -0.149047 0)
)
;

boundaryField
{
    movingWall
    {
        type            fixedValue;
        value           uniform (1 0 0);
    }
    fixedWalls
    {
        type            noSlip;
    }
    frontAndBack
    {
        type            empty;
    }
}


// ************************************************************************* //
