1.275 	2.15223e-18 	-2.76991e-20 	-0.0340927 	-0.000443854 	-1.98066e-22
1.825 	2.15223e-18 	-1.39322e-20 	-0.0087907 	-0.00276867 	1.77745e-21
2.375 	2.15223e-18 	-2.66896e-23 	0.117226 	-0.00326629 	-7.41989e-22
