/*--------------------------------*- C++ -*----------------------------------*\
  =========                 |
  \\      /  F ield         | OpenFOAM: The Open Source CFD Toolbox
   \\    /   O peration     | Website:  https://openfoam.org
    \\  /    A nd           | Version:  6.0
     \\/     M anipulation  |
\*---------------------------------------------------------------------------*/
FoamFile
{
    version     2.0;
    format      ascii;
    class       volScalarField;
    location    "1";
    object      p;
}
// * * * * * * * * * * * * * * * * * * * * * * * * * * * * * * * * * * * * * //

dimensions      [0 2 -2 0 0 0 0];

internalField   nonuniform List<scalar> 
200
(
-8.52189e-09
-9.38875e-05
-0.000419414
-0.000958764
-0.00170874
-0.0027081
-0.00402923
-0.00576064
-0.00793041
-0.0103068
-0.0122675
-0.0130508
-0.011885
-0.00751776
0.0016735
0.0159548
0.0321852
0.0440802
0.0468661
0.042875
8.46895e-05
-3.91238e-05
-0.000347633
-0.000822501
-0.00145623
-0.00226025
-0.00326377
-0.00453476
-0.00623246
-0.00856393
-0.0114805
-0.0143535
-0.015889
-0.0141539
-0.00710356
0.00588421
0.0222909
0.0362429
0.042018
0.0398176
0.000442062
0.000232913
-7.41553e-05
-0.000481128
-0.000988096
-0.0016058
-0.00242566
-0.00372239
-0.00600756
-0.00984427
-0.0153574
-0.0217354
-0.0271457
-0.0291266
-0.0253031
-0.0144316
0.00233333
0.0204182
0.0329965
0.0364915
0.000990395
0.000652067
0.000334149
-1.8424e-05
-0.000432224
-0.000959809
-0.00184918
-0.00370046
-0.00742919
-0.0138016
-0.0227323
-0.032914
-0.0420904
-0.0476999
-0.0474249
-0.0395869
-0.0237913
-0.00226444
0.0188919
0.0320112
0.00150163
0.00101682
0.000685924
0.000385113
7.01376e-05
-0.000370259
-0.00138579
-0.00390507
-0.00912116
-0.0177833
-0.0294565
-0.04239
-0.0541004
-0.0621271
-0.0644481
-0.0594824
-0.0460712
-0.0242613
0.00244437
0.0250255
0.00159488
0.000978326
0.000691466
0.000539029
0.000477774
0.000325262
-0.000574598
-0.0033941
-0.00943704
-0.019335
-0.032393
-0.0466277
-0.0594689
-0.0685316
-0.0720307
-0.0687029
-0.0574586
-0.0372987
-0.00907106
0.0201248
0.000668751
1.23307e-05
2.66824e-05
0.000326332
0.000864969
0.00136815
0.000989783
-0.00158298
-0.00765055
-0.0177299
-0.0310183
-0.0454807
-0.0585284
-0.0677205
-0.0712305
-0.0677884
-0.0564013
-0.0356885
-0.00493818
0.0310275
-0.00226351
-0.00257426
-0.00159358
-0.00036277
0.00125298
0.00280386
0.00327609
0.00130958
-0.00431715
-0.0140076
-0.0269425
-0.0411211
-0.0539619
-0.0628082
-0.0654213
-0.0597733
-0.0440219
-0.0157185
0.0267204
0.0779739
-0.00898198
-0.00839361
-0.00492678
-0.00142848
0.00166216
0.00428294
0.0055374
0.00412878
-0.0010447
-0.0102576
-0.0227002
-0.0364122
-0.0488441
-0.057051
-0.0581532
-0.0485818
-0.0241484
0.0208921
0.0894158
0.173021
-0.0373263
-0.0121115
-0.00209221
0.00177573
0.00476358
0.00741386
0.00865653
0.00720185
0.00204375
-0.00700685
-0.0191723
-0.0325462
-0.0446378
-0.0523208
-0.052244
-0.0394386
-0.00701607
0.0560996
0.157699
0.287004
)
;

boundaryField
{
    movingWall
    {
        type            zeroGradient;
    }
    fixedWalls
    {
        type            zeroGradient;
    }
    frontAndBack
    {
        type            empty;
    }
}


// ************************************************************************* //
