/*--------------------------------*- C++ -*----------------------------------*\
  =========                 |
  \\      /  F ield         | OpenFOAM: The Open Source CFD Toolbox
   \\    /   O peration     | Website:  https://openfoam.org
    \\  /    A nd           | Version:  6.0
     \\/     M anipulation  |
\*---------------------------------------------------------------------------*/
FoamFile
{
    version     2.0;
    format      ascii;
    class       surfaceScalarField;
    location    "1";
    object      phi;
}
// * * * * * * * * * * * * * * * * * * * * * * * * * * * * * * * * * * * * * //

dimensions      [0 3 -1 0 0 0 0];

internalField   nonuniform List<scalar> 
370
(
7.55876e-08
-7.55871e-08
1.74239e-07
-9.86517e-08
2.51212e-07
-7.69738e-08
2.9896e-07
-4.77481e-08
3.11372e-07
-1.24119e-08
2.70019e-07
4.13538e-08
1.33171e-07
1.36848e-07
-1.81059e-07
3.14231e-07
-8.14323e-07
6.33264e-07
-1.9439e-06
1.12958e-06
-3.65748e-06
1.71357e-06
-5.79918e-06
2.1417e-06
-7.93784e-06
2.13866e-06
-9.50569e-06
1.56785e-06
-9.98298e-06
4.7728e-07
-9.00585e-06
-9.77127e-07
-6.49991e-06
-2.50595e-06
-3.01715e-06
-3.48275e-06
-1.88e-07
-2.82915e-06
-1.88e-07
8.6499e-08
-1.62086e-07
1.47526e-07
-1.59679e-07
1.33343e-07
-6.27916e-08
1.62683e-08
6.9327e-08
-2.53909e-07
2.57766e-07
-7.68754e-07
5.56199e-07
-1.67597e-06
1.04406e-06
-3.16092e-06
1.79918e-06
-5.34149e-06
2.81384e-06
-8.10245e-06
3.89053e-06
-1.10371e-05
4.64819e-06
-1.36159e-05
4.7205e-06
-1.54303e-05
3.95314e-06
-1.62541e-05
2.39159e-06
-1.59281e-05
1.51289e-07
-1.42697e-05
-2.63553e-06
-1.11208e-05
-5.65486e-06
-6.6198e-06
-7.98371e-06
-1.89978e-06
-7.54917e-06
-2.08778e-06
-1.44574e-08
-1.47629e-07
-1.55199e-07
-1.89381e-08
-4.31648e-07
2.13657e-07
-8.83534e-07
5.21214e-07
-1.59915e-06
9.73381e-07
-2.70424e-06
1.6613e-06
-4.32221e-06
2.66202e-06
-6.48444e-06
3.96142e-06
-9.03221e-06
5.36161e-06
-1.1621e-05
6.47929e-06
-1.38716e-05
6.89877e-06
-1.55318e-05
6.38076e-06
-1.65152e-05
4.93655e-06
-1.68269e-05
2.70326e-06
-1.64569e-05
-2.18718e-07
-1.5286e-05
-3.80641e-06
-1.30144e-05
-7.92645e-06
-9.21035e-06
-1.17878e-05
-3.8921e-06
-1.28674e-05
-5.97988e-06
-1.97592e-07
4.99618e-08
-6.4302e-07
4.2649e-07
-1.2531e-06
8.23739e-07
-2.04626e-06
1.31437e-06
-3.09175e-06
2.01887e-06
-4.45418e-06
3.02373e-06
-6.13501e-06
4.34285e-06
-8.02007e-06
5.84647e-06
-9.88178e-06
7.22332e-06
-1.14657e-05
8.06326e-06
-1.26128e-05
8.0458e-06
-1.33114e-05
7.07934e-06
-1.36446e-05
5.26983e-06
-1.37077e-05
2.76629e-06
-1.35539e-05
-3.72468e-07
-1.31309e-05
-4.22938e-06
-1.21244e-05
-8.93298e-06
-9.79871e-06
-1.41135e-05
-5.31555e-06
-1.73506e-05
-1.12954e-05
-4.39265e-07
4.89226e-07
-1.2238e-06
1.21103e-06
-2.12156e-06
1.7215e-06
-3.0909e-06
2.28371e-06
-4.14366e-06
3.07163e-06
-5.27036e-06
4.15042e-06
-6.4062e-06
5.4787e-06
-7.42727e-06
6.86755e-06
-8.1925e-06
7.98855e-06
-8.61644e-06
8.4872e-06
-8.71763e-06
8.14699e-06
-8.60321e-06
6.96491e-06
-8.41113e-06
5.07775e-06
-8.26824e-06
2.62339e-06
-8.27533e-06
-3.65374e-07
-8.45966e-06
-4.04505e-06
-8.61568e-06
-8.77696e-06
-7.99401e-06
-1.47352e-05
-5.25659e-06
-2.0088e-05
-1.6552e-05
-7.30171e-07
1.2194e-06
-1.84378e-06
2.32464e-06
-2.90951e-06
2.78723e-06
-3.82273e-06
3.19693e-06
-4.56032e-06
3.80922e-06
-5.09114e-06
4.68124e-06
-5.36632e-06
5.75387e-06
-5.33501e-06
6.83623e-06
-4.98394e-06
7.63748e-06
-4.37347e-06
7.87674e-06
-3.63443e-06
7.40795e-06
-2.9264e-06
6.25688e-06
-2.39709e-06
4.54845e-06
-2.16616e-06
2.39246e-06
-2.33439e-06
-1.97145e-07
-2.95735e-06
-3.42208e-06
-3.93957e-06
-7.79474e-06
-4.72684e-06
-1.39479e-05
-3.90024e-06
-2.09146e-05
-2.04523e-05
-1.10302e-06
2.32241e-06
-2.55547e-06
3.77709e-06
-3.65184e-06
3.88361e-06
-4.2984e-06
3.8435e-06
-4.50242e-06
4.01323e-06
-4.26451e-06
4.44333e-06
-3.59573e-06
5.08508e-06
-2.53989e-06
5.7804e-06
-1.19978e-06
6.29737e-06
2.61515e-07
6.41544e-06
1.64681e-06
6.02265e-06
2.77444e-06
5.12926e-06
3.49602e-06
3.82687e-06
3.71379e-06
2.17468e-06
3.36082e-06
1.55823e-07
2.41331e-06
-2.47457e-06
8.96376e-07
-6.27781e-06
-9.10694e-07
-1.21408e-05
-1.87437e-06
-1.99509e-05
-2.23266e-05
-1.64146e-06
3.96388e-06
-3.53359e-06
5.66921e-06
-4.46359e-06
4.81361e-06
-4.56815e-06
3.94805e-06
-4.0907e-06
3.53579e-06
-3.10754e-06
3.46017e-06
-1.64829e-06
3.62584e-06
2.12409e-07
3.91969e-06
2.32233e-06
4.18745e-06
4.47556e-06
4.26221e-06
6.44271e-06
4.0555e-06
8.03412e-06
3.53784e-06
9.09552e-06
2.76548e-06
9.52838e-06
1.74182e-06
9.25083e-06
4.33374e-07
8.216e-06
-1.43974e-06
6.35237e-06
-4.41417e-06
3.62257e-06
-9.41103e-06
7.47035e-07
-1.70754e-05
-2.15796e-05
-4.58882e-06
8.5527e-06
-4.34653e-06
5.42692e-06
-2.73808e-06
3.20515e-06
-1.25636e-06
2.46634e-06
2.23472e-07
2.05596e-06
1.88084e-06
1.8028e-06
3.80464e-06
1.70204e-06
6.01236e-06
1.71198e-06
8.4316e-06
1.76821e-06
1.09135e-05
1.78032e-06
1.3263e-05
1.70599e-06
1.52979e-05
1.50298e-06
1.68602e-05
1.20315e-06
1.78247e-05
7.77319e-07
1.80312e-05
2.26837e-07
1.72579e-05
-6.66439e-07
1.5107e-05
-2.26323e-06
1.11581e-05
-5.46216e-06
5.18227e-06
-1.10996e-05
-1.63973e-05
8.5527e-06
1.39796e-05
1.71848e-05
1.96511e-05
2.17071e-05
2.35099e-05
2.52119e-05
2.69239e-05
2.86921e-05
3.04724e-05
3.21784e-05
3.36814e-05
3.48846e-05
3.56619e-05
3.58887e-05
3.52223e-05
3.2959e-05
2.74969e-05
1.63973e-05
)
;

boundaryField
{
    movingWall
    {
        type            calculated;
        value           uniform 0;
    }
    fixedWalls
    {
        type            calculated;
        value           uniform 0;
    }
    frontAndBack
    {
        type            empty;
        value           nonuniform 0();
    }
}


// ************************************************************************* //
