/*--------------------------------*- C++ -*----------------------------------*\
  =========                 |
  \\      /  F ield         | OpenFOAM: The Open Source CFD Toolbox
   \\    /   O peration     | Website:  https://openfoam.org
    \\  /    A nd           | Version:  6.0
     \\/     M anipulation  |
\*---------------------------------------------------------------------------*/
FoamFile
{
    version     2.0;
    format      ascii;
    class       volVectorField;
    location    "1";
    object      U;
}
// * * * * * * * * * * * * * * * * * * * * * * * * * * * * * * * * * * * * * //

dimensions      [0 1 -1 0 0 0 0];

internalField   nonuniform List<vector> 
200
(
(0.000781261 -0.000816265 0)
(0.00256163 -0.00116278 0)
(0.00436412 -0.00107451 0)
(0.00567943 -0.000959914 0)
(0.00637576 -0.000884754 0)
(0.00625671 -0.000784384 0)
(0.00476081 -0.000466649 0)
(0.000633353 0.000511787 0)
(-0.00845205 0.00298898 0)
(-0.0256644 0.0080326 0)
(-0.0539838 0.0160172 0)
(-0.0942354 0.0248525 0)
(-0.140829 0.0296196 0)
(-0.18069 0.0265183 0)
(-0.200203 0.0158969 0)
(-0.191428 0.000324448 0)
(-0.153687 -0.0164075 0)
(-0.0947192 -0.0272091 0)
(-0.0317019 -0.0210367 0)
(0.00082878 0.000546082 0)
(0.000995878 -0.00263765 0)
(0.00263524 -0.00323503 0)
(0.00321397 -0.00236683 0)
(0.00210166 -0.00114839 0)
(-0.00141642 0.000474506 0)
(-0.00865429 0.00307934 0)
(-0.0218907 0.00781354 0)
(-0.0446591 0.0165061 0)
(-0.0811385 0.0309106 0)
(-0.13267 0.0499647 0)
(-0.193367 0.0672309 0)
(-0.25209 0.0739538 0)
(-0.298457 0.0652547 0)
(-0.325013 0.0415641 0)
(-0.327089 0.00584598 0)
(-0.302371 -0.0379518 0)
(-0.251033 -0.0824062 0)
(-0.17683 -0.110928 0)
(-0.0885809 -0.0935701 0)
(-0.0140114 -0.0141998 0)
(0.000168638 -0.00363484 0)
(-0.00105574 -0.00292438 0)
(-0.00513591 7.2608e-05 0)
(-0.0121232 0.0041918 0)
(-0.0231877 0.0102418 0)
(-0.0405022 0.0198404 0)
(-0.0668244 0.0349844 0)
(-0.104487 0.0566258 0)
(-0.153148 0.0821809 0)
(-0.207742 0.104588 0)
(-0.259588 0.115118 0)
(-0.300874 0.107922 0)
(-0.327895 0.0821411 0)
(-0.339966 0.0399781 0)
(-0.336961 -0.0160955 0)
(-0.317768 -0.083503 0)
(-0.27999 -0.155487 0)
(-0.220529 -0.211878 0)
(-0.137079 -0.205569 0)
(-0.0340818 -0.0671163 0)
(-0.00145893 -0.00169528 0)
(-0.00743575 0.0028048 0)
(-0.0180999 0.00908037 0)
(-0.0319352 0.0172296 0)
(-0.0497575 0.0291442 0)
(-0.0731538 0.0467726 0)
(-0.103168 0.0710481 0)
(-0.139413 0.100102 0)
(-0.179014 0.128076 0)
(-0.216501 0.14655 0)
(-0.246129 0.148411 0)
(-0.265255 0.131012 0)
(-0.274999 0.0958599 0)
(-0.277873 0.0455801 0)
(-0.27561 -0.0186864 0)
(-0.267796 -0.097664 0)
(-0.250648 -0.190249 0)
(-0.21629 -0.281653 0)
(-0.153279 -0.317445 0)
(-0.0466644 -0.168724 0)
(-0.00375283 0.00464453 0)
(-0.0155735 0.0153429 0)
(-0.0329779 0.0247735 0)
(-0.0517422 0.0359423 0)
(-0.0715568 0.051747 0)
(-0.0928104 0.0736844 0)
(-0.115152 0.101255 0)
(-0.137426 0.130872 0)
(-0.157332 0.155833 0)
(-0.171687 0.168529 0)
(-0.178311 0.16394 0)
(-0.177949 0.141497 0)
(-0.173683 0.103756 0)
(-0.168966 0.0533893 0)
(-0.166646 -0.00925081 0)
(-0.167972 -0.087626 0)
(-0.170291 -0.187755 0)
(-0.163753 -0.306919 0)
(-0.129952 -0.397861 0)
(-0.0357517 -0.29423 0)
(-0.00675366 0.0164154 0)
(-0.0250452 0.0347157 0)
(-0.0480813 0.0450833 0)
(-0.0681615 0.0557619 0)
(-0.0841942 0.0708824 0)
(-0.0962076 0.0915816 0)
(-0.103843 0.116638 0)
(-0.106799 0.142025 0)
(-0.104623 0.16147 0)
(-0.0968503 0.168716 0)
(-0.0841298 0.160319 0)
(-0.0690622 0.136646 0)
(-0.0552742 0.100388 0)
(-0.0461005 0.0540468 0)
(-0.0444618 -0.00209384 0)
(-0.0523076 -0.072498 0)
(-0.0691072 -0.168103 0)
(-0.0858727 -0.299369 0)
(-0.0823811 -0.436216 0)
(-0.00436696 -0.399608 0)
(-0.0109582 0.0347972 0)
(-0.0367946 0.0603905 0)
(-0.0642039 0.0672646 0)
(-0.081725 0.0724393 0)
(-0.0893803 0.0814082 0)
(-0.0881268 0.0955146 0)
(-0.0784314 0.113601 0)
(-0.0613936 0.13209 0)
(-0.0385736 0.145738 0)
(-0.0118631 0.149551 0)
(0.0161281 0.140937 0)
(0.0418755 0.120266 0)
(0.0616569 0.0897176 0)
(0.0725696 0.0511018 0)
(0.0720482 0.00442494 0)
(0.059288 -0.0551692 0)
(0.0329479 -0.140227 0)
(0.000653894 -0.269779 0)
(-0.022676 -0.433985 0)
(0.0381197 -0.463936 0)
(-0.017576 0.0624545 0)
(-0.0524761 0.095598 0)
(-0.0856171 0.0904004 0)
(-0.0933651 0.0809662 0)
(-0.0880006 0.0790262 0)
(-0.0725269 0.0832688 0)
(-0.0476064 0.0920781 0)
(-0.0145584 0.102651 0)
(0.024334 0.11106 0)
(0.0660616 0.113422 0)
(0.10687 0.10766 0)
(0.142993 0.093578 0)
(0.170287 0.0726618 0)
(0.186683 0.0457293 0)
(0.188224 0.012513 0)
(0.176128 -0.0320234 0)
(0.144987 -0.0993885 0)
(0.104175 -0.210636 0)
(0.0565575 -0.374741 0)
(0.0963769 -0.457325 0)
(-0.092887 0.136612 0)
(-0.0969908 0.115328 0)
(-0.0681981 0.0791859 0)
(-0.040003 0.0630358 0)
(-0.0101015 0.0542451 0)
(0.0217816 0.0501582 0)
(0.0574308 0.0501845 0)
(0.0981596 0.053077 0)
(0.143215 0.0567777 0)
(0.19158 0.0586586 0)
(0.238989 0.0572407 0)
(0.283785 0.0515726 0)
(0.319193 0.0424214 0)
(0.346457 0.0296482 0)
(0.355731 0.0133583 0)
(0.3529 -0.010033 0)
(0.320324 -0.0479095 0)
(0.275146 -0.116924 0)
(0.195563 -0.242361 0)
(0.192362 -0.342883 0)
(0.188294 0.111964 0)
(0.231672 0.0976519 0)
(0.306052 0.0727171 0)
(0.368538 0.0554132 0)
(0.416127 0.0434589 0)
(0.454792 0.0347603 0)
(0.488788 0.0285598 0)
(0.522187 0.0243191 0)
(0.555255 0.0217173 0)
(0.590519 0.0198838 0)
(0.623694 0.0184662 0)
(0.657331 0.0165466 0)
(0.682268 0.0144053 0)
(0.704906 0.0111966 0)
(0.709502 0.00762599 0)
(0.709489 0.00165655 0)
(0.673373 -0.00701896 0)
(0.626347 -0.0253447 0)
(0.498868 -0.0570904 0)
(0.388582 -0.108858 0)
)
;

boundaryField
{
    movingWall
    {
        type            fixedValue;
        value           uniform (1 0 0);
    }
    fixedWalls
    {
        type            noSlip;
    }
    frontAndBack
    {
        type            empty;
    }
}


// ************************************************************************* //
