1.275 	2.15223e-18 	-2.76991e-20 	0.0186138 	-0.00460461 	-1.82874e-22
1.825 	2.15223e-18 	-1.39322e-20 	0.20752 	-0.00872857 	6.81152e-22
2.375 	2.15223e-18 	-2.66896e-23 	0.495703 	-0.00816932 	-1.9908e-22
