1.45 	0 	0 	-0.291485
2.35 	0 	0 	-0.126769
