/*--------------------------------*- C++ -*----------------------------------*\
  =========                 |
  \\      /  F ield         | OpenFOAM: The Open Source CFD Toolbox
   \\    /   O peration     | Website:  https://openfoam.org
    \\  /    A nd           | Version:  6.0
     \\/     M anipulation  |
\*---------------------------------------------------------------------------*/
FoamFile
{
    version     2.0;
    format      ascii;
    class       volScalarField;
    location    "0.3";
    object      p;
}
// * * * * * * * * * * * * * * * * * * * * * * * * * * * * * * * * * * * * * //

dimensions      [0 2 -2 0 0 0 0];

internalField   nonuniform List<scalar> 
800
(
5.42213e-06
-0.00680407
-0.0161948
-0.024843
-0.0306414
-0.0325353
-0.0301717
-0.0236236
-0.0131938
0.00071232
0.0176642
0.0372517
0.0591089
0.0829247
0.108445
0.13547
0.163847
0.193465
0.224243
0.25612
0.289043
0.322951
0.357758
0.393336
0.429488
0.465932
0.502272
0.537985
0.5724
0.604709
0.633975
0.659184
0.679321
0.693486
0.70105
0.701857
0.69648
0.686517
0.674919
0.666162
0.00679464
-0.000158658
-0.00747046
-0.0134844
-0.0171294
-0.0176237
-0.0146166
-0.00807706
0.00184057
0.0148824
0.0307507
0.0491416
0.0697674
0.0923695
0.116724
0.142642
0.169968
0.198575
0.228358
0.259226
0.291089
0.323848
0.35738
0.391522
0.426053
0.460677
0.495007
0.528549
0.560699
0.59075
0.617907
0.641339
0.660243
0.673943
0.682015
0.684429
0.681732
0.675145
0.666282
0.657449
0.0164824
0.00691045
-0.000660065
-0.0058153
-0.00848982
-0.00821868
-0.00476627
0.00187302
0.0115812
0.0241695
0.0394111
0.057066
0.0768981
0.0986865
0.122231
0.147353
0.173901
0.20174
0.230752
0.260829
0.291863
0.323736
0.356309
0.389407
0.422805
0.456213
0.48926
0.521489
0.552345
0.581188
0.607306
0.629957
0.648431
0.662125
0.670648
0.673926
0.672359
0.666784
0.657598
0.645586
0.0258963
0.012735
0.00370914
-0.00162941
-0.00407588
-0.00345928
0.000298632
0.0071113
0.0168302
0.0292746
0.0442437
0.061529
0.0809239
0.102231
0.125266
0.149861
0.175867
0.203146
0.231578
0.261048
0.291441
0.322637
0.354494
0.386845
0.419475
0.452114
0.484423
0.515979
0.546271
0.574703
0.600602
0.623256
0.641957
0.656077
0.66514
0.668927
0.667633
0.661763
0.650752
0.634451
0.0326852
0.0158978
0.00512293
-0.000732533
-0.00319704
-0.00235862
0.00170182
0.00878691
0.0186922
0.0312191
0.04617
0.0633493
0.0825656
0.103635
0.126384
0.150651
0.176289
0.203162
0.231147
0.26013
0.289999
0.320636
0.351912
0.383674
0.415734
0.447852
0.479727
0.51098
0.541146
0.569664
0.595887
0.619101
0.63856
0.653551
0.663456
0.667854
0.66671
0.660235
0.647096
0.626552
0.0351803
0.0149887
0.00246823
-0.00396879
-0.00647824
-0.00537765
-0.000902069
0.00663372
0.0169554
0.0298301
0.045047
0.0624085
0.081727
0.102824
0.125529
0.149685
0.175145
0.201778
0.229461
0.258086
0.287547
0.317742
0.348558
0.37987
0.411524
0.443323
0.475017
0.506279
0.536693
0.565739
0.59279
0.617112
0.637898
0.654309
0.665538
0.670914
0.67014
0.663144
0.647961
0.623471
0.0321131
0.00877849
-0.00533923
-0.0122325
-0.0146245
-0.0130524
-0.00790745
0.000371293
0.011429
0.024986
0.0408061
0.058679
0.0784119
0.0998239
0.122746
0.147021
0.172506
0.199071
0.226602
0.254998
0.284167
0.314027
0.344493
0.375474
0.406861
0.438511
0.470233
0.501767
0.532757
0.562735
0.591094
0.617085
0.639823
0.658318
0.671533
0.678496
0.678596
0.671447
0.65449
0.62633
0.0224022
-0.00386664
-0.0193321
-0.0263674
-0.0282686
-0.0258137
-0.0195675
-0.0101074
0.00212009
0.016779
0.0335996
0.052353
0.072836
0.094864
0.118267
0.14289
0.168594
0.195257
0.222775
0.25106
0.280041
0.309659
0.339864
0.370607
0.401832
0.433461
0.465374
0.497389
0.529229
0.560491
0.59061
0.618832
0.644198
0.665559
0.681611
0.691025
0.692798
0.68614
0.667823
0.636168
0.00497501
-0.0241274
-0.0405976
-0.047243
-0.0480259
-0.0440283
-0.0360297
-0.02477
-0.0108015
0.00547705
0.0237601
0.0437997
0.065385
0.0883299
0.112468
0.137652
0.163752
0.190658
0.218282
0.246556
0.275432
0.304882
0.334896
0.365472
0.396614
0.428315
0.460539
0.493197
0.526109
0.558963
0.591262
0.622278
0.651001
0.67613
0.696076
0.709086
0.713655
0.70844
0.689327
0.654224
-0.0214144
-0.0533877
-0.0703733
-0.0757871
-0.0744785
-0.0679553
-0.057279
-0.0433883
-0.0269538
-0.00843728
0.0118266
0.0335809
0.0566179
0.0807619
0.105861
0.131785
0.158422
0.185683
0.213503
0.241838
0.270671
0.300008
0.32988
0.36034
0.391454
0.423293
0.455915
0.489337
0.523497
0.558204
0.593071
0.627439
0.660297
0.690226
0.715349
0.733433
0.742338
0.739927
0.72082
0.682211
-0.0584396
-0.0934503
-0.110168
-0.113011
-0.108134
-0.0976674
-0.0830483
-0.0654525
-0.0456719
-0.024215
-0.0014221
0.0224666
0.0472707
0.0728468
0.0990764
0.125862
0.153124
0.180804
0.208868
0.237303
0.266125
0.29538
0.325142
0.355519
0.386641
0.418662
0.451738
0.486007
0.521547
0.558323
0.596104
0.634367
0.672178
0.708069
0.739918
0.764977
0.780319
0.782699
0.764843
0.722643
-0.108626
-0.146867
-0.161921
-0.160022
-0.149351
-0.132939
-0.112704
-0.0900758
-0.065939
-0.0407994
-0.0149506
0.0114323
0.0382381
0.06539
0.0928306
0.120516
0.148416
0.176516
0.204818
0.233348
0.262159
0.291336
0.320999
0.351306
0.382455
0.41468
0.44824
0.483404
0.52041
0.559413
0.6004
0.643069
0.686672
0.729818
0.770247
0.804721
0.829407
0.839551
0.82503
0.779343
-0.176143
-0.217457
-0.228186
-0.217981
-0.198184
-0.173069
-0.145089
-0.115881
-0.0863186
-0.0567995
-0.0274731
0.00162985
0.03053
0.0592644
0.0878714
0.116387
0.144845
0.173286
0.201759
0.23033
0.25909
0.288163
0.317711
0.347941
0.379112
0.411537
0.44558
0.481644
0.520145
0.561466
0.605873
0.653389
0.703604
0.755403
0.8066
0.853625
0.891706
0.914167
0.906677
0.858367
-0.268399
-0.311134
-0.312264
-0.287886
-0.254068
-0.216579
-0.178301
-0.140861
-0.104895
-0.0704879
-0.0374901
-0.00567199
0.0252012
0.0553367
0.0849063
0.114049
0.14288
0.1715
0.200008
0.228512
0.25714
0.286047
0.315434
0.34555
0.376708
0.409295
0.443771
0.480677
0.52062
0.564241
0.612153
0.664821
0.722367
0.784241
0.848707
0.912245
0.969381
1.01124
1.01762
0.969836
-0.399319
-0.437124
-0.418017
-0.369905
-0.315128
-0.260685
-0.209352
-0.162213
-0.119224
-0.0798322
-0.0433638
-0.00918236
0.0232527
0.0543743
0.0845184
0.113943
0.14285
0.171403
0.199747
0.228025
0.256394
0.285036
0.314178
0.344103
0.375168
0.407818
0.442604
0.480197
0.521397
0.567126
0.618402
0.676257
0.741574
0.814756
0.895108
0.97995
1.06389
1.13622
1.16945
1.13153
-0.595147
-0.60918
-0.548987
-0.462187
-0.377206
-0.300672
-0.233875
-0.176281
-0.126424
-0.0826521
-0.0434952
-0.00775867
0.0254816
0.0569189
0.0870644
0.116294
0.144885
0.173056
0.200984
0.228835
0.256783
0.285022
0.313794
0.3434
0.374225
0.406758
0.441621
0.479599
0.52167
0.569043
0.623176
0.685777
0.758729
0.84386
0.942377
1.05382
1.17468
1.29421
1.37829
1.3746
-0.904863
-0.845903
-0.706688
-0.55992
-0.433535
-0.330004
-0.246544
-0.179126
-0.123763
-0.0771552
-0.0367768
-0.000770441
0.0321979
0.0630722
0.0925149
0.120991
0.14883
0.176274
0.203516
0.230725
0.258069
0.285744
0.313985
0.343096
0.373467
0.405609
0.440187
0.478066
0.520372
0.568565
0.624541
0.690743
0.770259
0.866861
0.984791
1.12797
1.2979
1.48787
1.66458
1.75295
-1.43944
-1.17061
-0.880993
-0.648203
-0.470668
-0.338301
-0.240257
-0.166315
-0.108705
-0.0620491
-0.0226933
0.0118348
0.0431945
0.072494
0.100472
0.127623
0.154279
0.180671
0.206973
0.233331
0.259893
0.286826
0.314345
0.342731
0.372356
0.40372
0.437489
0.474554
0.516112
0.563789
0.619814
0.687281
0.770523
0.87562
1.0111
1.18814
1.41791
1.70735
2.05486
2.38443
-2.49326
-1.5969
-1.0027
-0.663924
-0.444388
-0.296889
-0.197149
-0.126977
-0.0747046
-0.0334168
0.00108705
0.0314301
0.0592612
0.0856171
0.111149
0.136264
0.161214
0.18616
0.211209
0.236449
0.261971
0.287892
0.314372
0.341638
0.370007
0.399914
0.431958
0.466956
0.50603
0.550747
0.603338
0.667066
0.746863
0.850464
0.990576
1.18748
1.46902
1.88322
2.5669
3.56847
-4.31678
-2.00847
-0.930884
-0.514431
-0.303053
-0.17916
-0.10393
-0.0545642
-0.0186081
0.0101978
0.0351771
0.058214
0.0803969
0.102349
0.124415
0.146771
0.169493
0.192597
0.216077
0.239917
0.264121
0.288719
0.313786
0.339459
0.365952
0.393584
0.422802
0.454234
0.488742
0.527536
0.572344
0.625741
0.69178
0.777398
0.895703
1.07202
1.35377
1.86708
3.06004
5.48659
)
;

boundaryField
{
    movingWall
    {
        type            zeroGradient;
    }
    fixedWalls
    {
        type            zeroGradient;
    }
    frontAndBack
    {
        type            empty;
    }
}


// ************************************************************************* //
