/*--------------------------------*- C++ -*----------------------------------*\
  =========                 |
  \\      /  F ield         | OpenFOAM: The Open Source CFD Toolbox
   \\    /   O peration     | Website:  https://openfoam.org
    \\  /    A nd           | Version:  6.0
     \\/     M anipulation  |
\*---------------------------------------------------------------------------*/
FoamFile
{
    version     2.0;
    format      ascii;
    class       surfaceScalarField;
    location    "0.3";
    object      phi;
}
// * * * * * * * * * * * * * * * * * * * * * * * * * * * * * * * * * * * * * //

dimensions      [0 3 -1 0 0 0 0];

internalField   nonuniform List<scalar> 
370
(
-7.91808e-08
7.91572e-08
-5.96788e-07
5.17607e-07
-1.34894e-06
7.52152e-07
-2.13418e-06
7.85239e-07
-2.84465e-06
7.10472e-07
-3.43918e-06
5.94529e-07
-3.91368e-06
4.74498e-07
-4.28014e-06
3.6646e-07
-4.55258e-06
2.72441e-07
-4.7382e-06
1.85623e-07
-4.83193e-06
9.37274e-08
-4.81346e-06
-1.84734e-08
-4.64743e-06
-1.66023e-07
-4.28905e-06
-3.5838e-07
-3.69857e-06
-5.9048e-07
-2.86784e-06
-8.30734e-07
-1.85817e-06
-1.00967e-06
-8.42806e-07
-1.01536e-06
-1.26528e-07
-7.1628e-07
-1.2653e-07
-5.64779e-07
6.43936e-07
-1.91968e-06
1.87251e-06
-3.64697e-06
2.47944e-06
-5.40483e-06
2.5431e-06
-6.99148e-06
2.29713e-06
-8.32091e-06
1.92395e-06
-9.37888e-06
1.53247e-06
-1.01847e-05
1.17229e-06
-1.07636e-05
8.51337e-07
-1.11287e-05
5.50697e-07
-1.12703e-05
2.35301e-07
-1.11511e-05
-1.37598e-07
-1.07086e-05
-6.08536e-07
-9.86636e-06
-1.20064e-06
-8.56065e-06
-1.89619e-06
-6.78539e-06
-2.60599e-06
-4.65461e-06
-3.14045e-06
-2.46716e-06
-3.20281e-06
-7.23671e-07
-2.45977e-06
-8.50202e-07
-9.9148e-07
1.63542e-06
-3.02594e-06
3.90697e-06
-5.41975e-06
4.87325e-06
-7.74122e-06
4.86457e-06
-9.76863e-06
4.32454e-06
-1.1424e-05
3.57937e-06
-1.27109e-05
2.81928e-06
-1.36665e-05
2.12793e-06
-1.4331e-05
1.51579e-06
-1.47274e-05
9.47178e-07
-1.48515e-05
3.59345e-07
-1.46662e-05
-3.22899e-07
-1.41035e-05
-1.1712e-06
-1.30743e-05
-2.22985e-06
-1.14919e-05
-3.47862e-06
-9.31685e-06
-4.78102e-06
-6.62964e-06
-5.82766e-06
-3.72732e-06
-6.10512e-06
-1.21221e-06
-4.97489e-06
-2.06241e-06
-1.34373e-06
2.97915e-06
-3.87634e-06
6.43958e-06
-6.63284e-06
7.62975e-06
-9.12907e-06
7.3608e-06
-1.11835e-05
6.37895e-06
-1.27755e-05
5.17144e-06
-1.39562e-05
3.99992e-06
-1.47954e-05
2.96711e-06
-1.53541e-05
2.07449e-06
-1.56703e-05
1.26344e-06
-1.57524e-05
4.41468e-07
-1.55753e-05
-5.0002e-07
-1.50788e-05
-1.66776e-06
-1.41691e-05
-3.13951e-06
-1.27295e-05
-4.91821e-06
-1.06512e-05
-6.85929e-06
-7.90693e-06
-8.57197e-06
-4.68996e-06
-9.32209e-06
-1.6283e-06
-8.03655e-06
-3.69071e-06
-1.68421e-06
4.66336e-06
-4.51154e-06
9.26692e-06
-7.25404e-06
1.03722e-05
-9.47268e-06
9.57945e-06
-1.11095e-05
8.01574e-06
-1.22495e-05
6.31147e-06
-1.30112e-05
4.76159e-06
-1.35003e-05
3.45621e-06
-1.37954e-05
2.36965e-06
-1.39465e-05
1.41449e-06
-1.39756e-05
4.70626e-07
-1.38769e-05
-5.98798e-07
-1.36108e-05
-1.9338e-06
-1.3095e-05
-3.65535e-06
-1.21924e-05
-5.82074e-06
-1.0714e-05
-8.33774e-06
-8.46845e-06
-1.08175e-05
-5.42363e-06
-1.23669e-05
-2.06828e-06
-1.13919e-05
-5.75899e-06
-2.08093e-06
6.74429e-06
-4.92189e-06
1.21079e-05
-7.12414e-06
1.25745e-05
-8.50038e-06
1.09557e-05
-9.23192e-06
8.74728e-06
-9.54514e-06
6.62468e-06
-9.6212e-06
4.83765e-06
-9.5824e-06
3.41742e-06
-9.50469e-06
2.29194e-06
-9.43436e-06
1.34416e-06
-9.40011e-06
4.36377e-07
-9.41717e-06
-5.81741e-07
-9.48126e-06
-1.86972e-06
-9.54909e-06
-3.58752e-06
-9.50329e-06
-5.86654e-06
-9.10969e-06
-8.73133e-06
-8.00415e-06
-1.19231e-05
-5.80311e-06
-1.4568e-05
-2.56664e-06
-1.46284e-05
-8.32563e-06
-2.55045e-06
9.29474e-06
-4.85954e-06
1.4417e-05
-5.72031e-06
1.34353e-05
-5.56144e-06
1.07968e-05
-4.90882e-06
8.09466e-06
-4.10772e-06
5.82357e-06
-3.34639e-06
4.07632e-06
-2.71123e-06
2.78226e-06
-2.23615e-06
1.81686e-06
-1.93756e-06
1.04557e-06
-1.8351e-06
3.33918e-07
-1.96057e-06
-4.5626e-07
-2.35486e-06
-1.47543e-06
-3.04737e-06
-2.89501e-06
-4.0074e-06
-4.90651e-06
-5.05649e-06
-7.68224e-06
-5.75153e-06
-1.1228e-05
-5.31722e-06
-1.50023e-05
-2.99876e-06
-1.69468e-05
-1.13244e-05
-2.82756e-06
1.21223e-05
-3.31986e-06
1.49093e-05
-1.64663e-06
1.1762e-05
7.26094e-07
8.42409e-06
3.02124e-06
5.79952e-06
4.94971e-06
3.8951e-06
6.44925e-06
2.57678e-06
7.55077e-06
1.68074e-06
8.30763e-06
1.06e-06
8.7585e-06
5.94696e-07
8.90887e-06
1.83551e-07
8.72186e-06
-2.69247e-07
8.1156e-06
-8.69173e-07
6.97123e-06
-1.75063e-06
5.16672e-06
-3.102e-06
2.66967e-06
-5.18519e-06
-2.58996e-07
-8.29935e-06
-2.70311e-06
-1.25582e-05
-2.8315e-06
-1.68184e-05
-1.41559e-05
-1.18914e-06
1.33114e-05
3.02852e-06
1.06916e-05
8.36886e-06
6.4217e-06
1.29024e-05
3.89054e-06
1.63256e-05
2.37637e-06
1.87766e-05
1.4441e-06
2.04762e-05
8.7716e-07
2.16235e-05
5.33433e-07
2.23651e-05
3.1837e-07
2.27895e-05
1.70347e-07
2.29271e-05
4.59433e-08
2.27493e-05
-9.15006e-08
2.2162e-05
-2.81904e-07
2.09931e-05
-5.81636e-07
1.89781e-05
-1.08701e-06
1.57722e-05
-1.97933e-06
1.10773e-05
-3.60443e-06
5.09613e-06
-6.57701e-06
-1.89127e-07
-1.15332e-05
-1.4345e-05
1.33114e-05
2.4003e-05
3.04247e-05
3.43153e-05
3.66916e-05
3.81357e-05
3.90129e-05
3.95463e-05
3.98647e-05
4.00351e-05
4.0081e-05
3.99895e-05
3.97076e-05
3.9126e-05
3.8039e-05
3.60596e-05
3.24552e-05
2.58782e-05
1.4345e-05
)
;

boundaryField
{
    movingWall
    {
        type            calculated;
        value           uniform 0;
    }
    fixedWalls
    {
        type            calculated;
        value           uniform 0;
    }
    frontAndBack
    {
        type            empty;
        value           nonuniform 0();
    }
}


// ************************************************************************* //
