1.45 	0 	0 	-0.290982
2.35 	0 	0 	-0.12689
