1.45 	0 	0 	-0.300866
2.35 	0 	0 	-0.133795
