1.45 	0 	0 	-0.304259
2.35 	0 	0 	-0.134486
