1.275 	2.15223e-18 	-2.76991e-20 	-0.0344481 	-0.000434487 	-1.91465e-22
1.825 	2.15223e-18 	-1.39322e-20 	-0.00943671 	-0.00275766 	1.6934e-21
2.375 	2.15223e-18 	-2.66896e-23 	0.115387 	-0.00324718 	-7.06419e-22
