1.45 	0 	0 	0.00646844 	-0.00411443 	3.93419e-21
2.35 	0 	0 	0.126561 	-0.00888859 	1.79978e-21
