1.45 	0 	0 	-0.305888
2.35 	0 	0 	-0.133041
