1.45 	0 	0 	-0.00803166 	-0.00257416 	3.7922e-21
2.35 	0 	0 	0.0615016 	-0.00663789 	2.29953e-21
