1.275 	2.15223e-18 	-2.76991e-20 	-0.0344281 	-0.000436592 	-1.92113e-22
1.825 	2.15223e-18 	-1.39322e-20 	-0.00940074 	-0.00276475 	1.70188e-21
2.375 	2.15223e-18 	-2.66896e-23 	0.115487 	-0.00325609 	-7.10041e-22
