1.275 	2.15223e-18 	-2.76991e-20 	-0.0344766 	-0.000437829 	-1.90526e-22
1.825 	2.15223e-18 	-1.39322e-20 	-0.00949088 	-0.0027532 	1.68116e-21
2.375 	2.15223e-18 	-2.66896e-23 	0.115229 	-0.00323038 	-7.01211e-22
