1.275 	2.15223e-18 	-2.76991e-20 	-0.0341944 	-0.000448615 	-1.96994e-22
1.825 	2.15223e-18 	-1.39322e-20 	-0.00897705 	-0.00276847 	1.76448e-21
2.375 	2.15223e-18 	-2.66896e-23 	0.116697 	-0.00325018 	-7.36593e-22
