1.275 	2.15223e-18 	-2.76991e-20 	-0.0331016 	-0.000488366 	-2.01676e-22
1.825 	2.15223e-18 	-1.39322e-20 	-0.00737965 	-0.00288136 	1.81121e-21
2.375 	2.15223e-18 	-2.66896e-23 	0.121662 	-0.00342719 	-7.54852e-22
