1.45 	0 	0 	0.00223209 	-0.00360982 	3.96321e-21
2.35 	0 	0 	0.106051 	-0.00821037 	2.04688e-21
