1.45 	0 	0 	-0.300279
2.35 	0 	0 	-0.0852338
