1.45 	0 	0 	-0.0686744
2.35 	0 	0 	0.0335902
