1.45 	0 	0 	-0.292605
2.35 	0 	0 	-0.127861
