1.45 	0 	0 	-0.30138
2.35 	0 	0 	-0.134033
