1.45 	0 	0 	-0.120153
2.35 	0 	0 	0.0261011
