/*--------------------------------*- C++ -*----------------------------------*\
  =========                 |
  \\      /  F ield         | OpenFOAM: The Open Source CFD Toolbox
   \\    /   O peration     | Website:  https://openfoam.org
    \\  /    A nd           | Version:  6.0
     \\/     M anipulation  |
\*---------------------------------------------------------------------------*/
FoamFile
{
    version     2.0;
    format      ascii;
    class       surfaceScalarField;
    location    "0.1";
    object      phi;
}
// * * * * * * * * * * * * * * * * * * * * * * * * * * * * * * * * * * * * * //

dimensions      [0 3 -1 0 0 0 0];

internalField   nonuniform List<scalar> 
370
(
-7.12623e-08
7.12624e-08
-3.57006e-07
2.85743e-07
-7.2432e-07
3.67314e-07
-1.09311e-06
3.68786e-07
-1.43935e-06
3.46247e-07
-1.75841e-06
3.19061e-07
-2.05029e-06
2.91878e-07
-2.3161e-06
2.65812e-07
-2.55714e-06
2.41041e-07
-2.77373e-06
2.16582e-07
-2.96287e-06
1.89148e-07
-3.11449e-06
1.51616e-07
-3.20596e-06
9.14707e-08
-3.19635e-06
-9.61627e-09
-3.02426e-06
-1.72084e-07
-2.61905e-06
-4.05214e-07
-1.9407e-06
-6.7835e-07
-1.06205e-06
-8.78642e-07
-2.69019e-07
-7.93035e-07
-2.69019e-07
-3.38966e-07
4.10229e-07
-1.03658e-06
9.83354e-07
-1.85117e-06
1.18191e-06
-2.65138e-06
1.16899e-06
-3.38607e-06
1.08093e-06
-4.04135e-06
9.74345e-07
-4.61679e-06
8.67321e-07
-5.11641e-06
7.65433e-07
-5.54488e-06
6.69503e-07
-5.90433e-06
5.76035e-07
-6.19031e-06
4.75129e-07
-6.38608e-06
3.47381e-07
-6.45536e-06
1.6076e-07
-6.33507e-06
-1.29913e-07
-5.93285e-06
-5.74299e-07
-5.14208e-06
-1.19598e-06
-3.89712e-06
-1.92332e-06
-2.29321e-06
-2.48255e-06
-7.45749e-07
-2.3405e-06
-1.01477e-06
-5.27678e-07
9.37906e-07
-1.50698e-06
1.96265e-06
-2.5904e-06
2.26533e-06
-3.61894e-06
2.19753e-06
-4.53758e-06
1.99957e-06
-5.33491e-06
1.77168e-06
-6.01533e-06
1.54774e-06
-6.58878e-06
1.33888e-06
-7.06619e-06
1.14692e-06
-7.45607e-06
9.65919e-07
-7.76053e-06
7.7958e-07
-7.9697e-06
5.56552e-07
-8.05368e-06
2.44746e-07
-7.9514e-06
-2.32199e-07
-7.55865e-06
-9.67047e-07
-6.72711e-06
-2.02753e-06
-5.30849e-06
-3.34193e-06
-3.30405e-06
-4.48699e-06
-1.15459e-06
-4.48996e-06
-2.16936e-06
-6.70451e-07
1.60836e-06
-1.85672e-06
3.14892e-06
-3.10959e-06
3.5182e-06
-4.25229e-06
3.34023e-06
-5.23943e-06
2.98672e-06
-6.07096e-06
2.60321e-06
-6.76092e-06
2.2377e-06
-7.3281e-06
1.90605e-06
-7.79236e-06
1.61117e-06
-8.17227e-06
1.34583e-06
-8.48257e-06
1.08988e-06
-8.72989e-06
8.03871e-07
-8.90395e-06
4.18803e-07
-8.96043e-06
-1.75719e-07
-8.79223e-06
-1.13524e-06
-8.19627e-06
-2.62348e-06
-6.88139e-06
-4.65682e-06
-4.63245e-06
-6.73593e-06
-1.78637e-06
-7.33604e-06
-3.95572e-06
-8.32978e-07
2.44133e-06
-2.21305e-06
4.529e-06
-3.58113e-06
4.88628e-06
-4.7618e-06
4.5209e-06
-5.73597e-06
3.96089e-06
-6.5233e-06
3.39054e-06
-7.15165e-06
2.86606e-06
-7.65079e-06
2.4052e-06
-8.05053e-06
2.01091e-06
-8.3802e-06
1.67549e-06
-8.66865e-06
1.37833e-06
-8.94286e-06
1.07808e-06
-9.22076e-06
6.96701e-07
-9.49034e-06
9.38644e-08
-9.66463e-06
-9.60958e-07
-9.50937e-06
-2.77874e-06
-8.58519e-06
-5.581e-06
-6.36012e-06
-8.96101e-06
-2.8178e-06
-1.08784e-05
-6.77352e-06
-1.08154e-06
3.52287e-06
-2.67485e-06
6.12231e-06
-4.08546e-06
6.29689e-06
-5.1906e-06
5.62604e-06
-6.02986e-06
4.80015e-06
-6.65559e-06
4.01627e-06
-7.11498e-06
3.32544e-06
-7.45019e-06
2.74042e-06
-7.69914e-06
2.25987e-06
-7.89727e-06
1.87362e-06
-8.08074e-06
1.56181e-06
-8.28968e-06
1.28702e-06
-8.56697e-06
9.73998e-07
-8.9425e-06
4.6939e-07
-9.3859e-06
-5.17558e-07
-9.71105e-06
-2.45359e-06
-9.44247e-06
-5.84959e-06
-7.77014e-06
-1.06333e-05
-4.06151e-06
-1.4587e-05
-1.0835e-05
-1.5052e-06
5.02808e-06
-3.27871e-06
7.89582e-06
-4.4901e-06
7.50827e-06
-5.22493e-06
6.36087e-06
-5.64757e-06
5.22279e-06
-5.86483e-06
4.23353e-06
-5.94756e-06
3.40817e-06
-5.94701e-06
2.73986e-06
-5.90087e-06
2.21373e-06
-5.83815e-06
1.81089e-06
-5.78547e-06
1.50913e-06
-5.77499e-06
1.27654e-06
-5.85258e-06
1.05159e-06
-6.08019e-06
6.96998e-07
-6.51576e-06
-8.19905e-08
-7.13674e-06
-1.83261e-06
-7.66283e-06
-5.3235e-06
-7.26993e-06
-1.10262e-05
-4.6596e-06
-1.71973e-05
-1.54946e-05
-2.27242e-06
7.3005e-06
-3.75808e-06
9.38148e-06
-3.94413e-06
7.69432e-06
-3.54932e-06
5.96605e-06
-2.96729e-06
4.64076e-06
-2.34219e-06
3.60843e-06
-1.73338e-06
2.79936e-06
-1.17156e-06
2.17804e-06
-6.69087e-07
1.71126e-06
-2.26659e-07
1.36846e-06
1.58825e-07
1.12365e-06
4.85432e-07
9.49931e-07
7.32038e-07
8.04985e-07
8.35163e-07
5.93873e-07
6.57278e-07
9.58936e-08
-1.356e-08
-1.16177e-06
-1.33564e-06
-4.00142e-06
-2.93597e-06
-9.4259e-06
-3.16896e-06
-1.69643e-05
-1.86636e-05
-3.33803e-06
1.06385e-05
-1.64208e-06
7.68553e-06
1.35698e-06
4.69526e-06
3.96843e-06
3.3546e-06
6.10316e-06
2.50602e-06
7.85742e-06
1.85417e-06
9.28988e-06
1.36691e-06
1.04507e-05
1.01725e-06
1.1392e-05
7.69927e-07
1.21635e-05
5.96964e-07
1.28079e-05
4.79228e-07
1.33571e-05
4.00737e-07
1.38202e-05
3.41864e-07
1.41537e-05
2.60386e-07
1.41896e-05
6.0027e-08
1.35276e-05
-4.99745e-07
1.1484e-05
-1.95781e-06
7.42687e-06
-5.36881e-06
2.1119e-06
-1.16494e-05
-1.65517e-05
1.06385e-05
1.83241e-05
2.30193e-05
2.63739e-05
2.888e-05
3.07341e-05
3.2101e-05
3.31183e-05
3.38882e-05
3.44852e-05
3.49644e-05
3.53651e-05
3.5707e-05
3.59674e-05
3.60274e-05
3.55277e-05
3.35699e-05
2.8201e-05
1.65517e-05
)
;

boundaryField
{
    movingWall
    {
        type            calculated;
        value           uniform 0;
    }
    fixedWalls
    {
        type            calculated;
        value           uniform 0;
    }
    frontAndBack
    {
        type            empty;
        value           nonuniform 0();
    }
}


// ************************************************************************* //
