1.45 	0 	0 	0.0172059 	-0.00521074 	3.84358e-21
2.35 	0 	0 	0.169989 	-0.0101259 	1.32099e-21
