/*--------------------------------*- C++ -*----------------------------------*\
  =========                 |
  \\      /  F ield         | OpenFOAM: The Open Source CFD Toolbox
   \\    /   O peration     | Website:  https://openfoam.org
    \\  /    A nd           | Version:  6.0
     \\/     M anipulation  |
\*---------------------------------------------------------------------------*/
FoamFile
{
    version     2.0;
    format      ascii;
    class       volScalarField;
    location    "0.3";
    object      p;
}
// * * * * * * * * * * * * * * * * * * * * * * * * * * * * * * * * * * * * * //

dimensions      [0 2 -2 0 0 0 0];

internalField   nonuniform List<scalar> 
800
(
4.17484e-06
-0.014584
-0.0344301
-0.0523629
-0.063802
-0.0664139
-0.0594039
-0.0429489
-0.0177798
0.015101
0.0546038
0.0996666
0.149323
0.202735
0.259205
0.318171
0.379195
0.441942
0.506159
0.571649
0.638245
0.70578
0.774051
0.842793
0.911635
0.980068
1.04741
1.11276
1.17501
1.23283
1.28467
1.32887
1.36376
1.38785
1.40007
1.40017
1.38916
1.36992
1.34786
1.33132
0.0145375
-0.000312262
-0.0156872
-0.0279982
-0.0348834
-0.0345989
-0.0263626
-0.0101314
0.0136863
0.0444237
0.0812911
0.123471
0.17018
0.220707
0.274429
0.330817
0.389433
0.449913
0.51196
0.575315
0.639742
0.705002
0.770822
0.836873
0.902736
0.967878
1.03162
1.09313
1.15141
1.20528
1.25345
1.2946
1.32741
1.35081
1.36412
1.36732
1.36139
1.34852
1.33159
1.31485
0.0349648
0.0145962
-0.00132145
-0.0118344
-0.0167029
-0.01485
-0.00573723
0.0106224
0.0338953
0.0635534
0.0989597
0.139438
0.184321
0.232986
0.284869
0.339471
0.396365
0.45518
0.515597
0.577329
0.640104
0.703646
0.767651
0.831765
0.895555
0.958493
1.01993
1.07908
1.13503
1.18672
1.23303
1.27276
1.3048
1.32822
1.34241
1.34728
1.34352
1.3326
1.31507
1.29225
0.0545694
0.0266768
0.00767899
-0.00325012
-0.00765341
-0.00506302
0.0047266
0.0214994
0.0448456
0.0742432
0.109103
0.148811
0.192766
0.240398
0.291184
0.344657
0.400403
0.458059
0.517302
0.577837
0.639386
0.701663
0.764362
0.827132
0.889555
0.95113
1.01125
1.06918
1.12408
1.17497
1.22078
1.26039
1.29272
1.3168
1.33189
1.33766
1.33441
1.32296
1.30197
1.27093
0.0685275
0.0330894
0.0104192
-0.00159613
-0.0059918
-0.00283437
0.00773829
0.0252581
0.0491755
0.0789114
0.11387
0.153458
0.197106
0.244279
0.294487
0.347287
0.402285
0.459129
0.517505
0.577128
0.637723
0.699018
0.760721
0.822504
0.883984
0.944702
1.00411
1.06153
1.11618
1.16714
1.2134
1.25383
1.2873
1.31271
1.32912
1.33583
1.33276
1.32012
1.29509
1.25589
0.0735094
0.0310237
0.00472342
-0.00845541
-0.0128099
-0.00888435
0.00283892
0.0216132
0.0467087
0.0774469
0.113186
0.153324
0.197299
0.244598
0.294753
0.347345
0.402
0.458389
0.516215
0.575212
0.635127
0.695714
0.756713
0.817839
0.878758
0.939073
0.998298
1.05584
1.11098
1.16285
1.21045
1.25265
1.2882
1.31583
1.33429
1.34247
1.33985
1.32611
1.29714
1.25035
0.0670359
0.0180533
-0.0115266
-0.025527
-0.0293871
-0.024121
-0.0105751
0.0101959
0.0372489
0.0697741
0.107058
0.148466
0.193433
0.241457
0.292091
0.34494
0.399658
0.455942
0.513527
0.572175
0.631671
0.691807
0.752372
0.813137
0.873838
0.934154
0.993685
1.05192
1.10823
1.16181
1.21168
1.25665
1.29538
1.32634
1.34792
1.35855
1.35716
1.34289
1.31047
1.25666
0.0469838
-0.00807537
-0.0403673
-0.054434
-0.0568889
-0.0492793
-0.032872
-0.00907404
0.020926
0.0561645
0.0958415
0.139283
0.185919
0.235257
0.286878
0.340419
0.395571
0.452068
0.509683
0.568225
0.627522
0.687422
0.747775
0.808424
0.869188
0.929839
0.990082
1.04952
1.10761
1.16365
1.21669
1.26551
1.30865
1.34432
1.37049
1.38501
1.38619
1.37248
1.33733
1.27689
0.0111779
-0.049771
-0.0840013
-0.0969078
-0.0965057
-0.0850343
-0.0642863
-0.0360864
-0.00190243
0.0371366
0.0801454
0.126421
0.175396
0.22661
0.279683
0.334299
0.390199
0.447169
0.505035
0.563659
0.62293
0.682757
0.743066
0.803782
0.864822
0.92607
0.987355
1.04841
1.10884
1.16804
1.22515
1.27897
1.32792
1.36996
1.4026
1.42301
1.42871
1.4172
1.38031
1.31337
-0.0430171
-0.109944
-0.145014
-0.154872
-0.149439
-0.131927
-0.10482
-0.0704409
-0.0305652
0.0135212
0.0608735
0.11079
0.162745
0.216336
0.271249
0.327243
0.384126
0.441754
0.50002
0.558851
0.618204
0.678064
0.738436
0.799341
0.860803
0.922834
0.985407
1.04842
1.11164
1.17465
1.23671
1.29673
1.35306
1.40345
1.44495
1.47394
1.48689
1.47997
1.44276
1.3692
-0.119244
-0.192465
-0.226634
-0.230506
-0.216825
-0.19022
-0.154071
-0.111287
-0.0639445
-0.0134384
0.0392919
0.0936134
0.149099
0.205456
0.262484
0.320041
0.378036
0.436409
0.495135
0.554219
0.613693
0.673623
0.734101
0.795246
0.857202
0.920119
0.984136
1.04934
1.11573
1.18309
1.25095
1.31837
1.38381
1.44489
1.49821
1.53932
1.56336
1.56463
1.52928
1.44886
-0.223047
-0.302854
-0.333062
-0.326274
-0.299594
-0.259674
-0.211014
-0.157136
-0.100338
-0.0419997
0.0170717
0.0764254
0.135827
0.195169
0.254415
0.31357
0.372666
0.431752
0.490897
0.550189
0.609745
0.669708
0.730262
0.791628
0.854068
0.917881
0.983387
1.0509
1.12067
1.19283
1.26721
1.34322
1.41958
1.49401
1.56283
1.62072
1.66129
1.67621
1.64647
1.5592
-0.363521
-0.449346
-0.469847
-0.444843
-0.398162
-0.339197
-0.273686
-0.205631
-0.137315
-0.069851
-0.00369697
0.0610529
0.124489
0.186782
0.248128
0.308722
0.368747
0.428377
0.487784
0.547146
0.606656
0.666541
0.727066
0.78855
0.851374
0.915986
0.982898
1.05267
1.12588
1.20304
1.28446
1.3701
1.45921
1.54993
1.63866
1.71945
1.78428
1.8214
1.80404
1.71118
-0.556623
-0.644569
-0.644148
-0.588634
-0.511776
-0.426231
-0.338724
-0.253253
-0.171566
-0.0940696
-0.0205339
0.0495441
0.116744
0.181622
0.244673
0.306321
0.366922
0.426784
0.486181
0.545375
0.604633
0.664248
0.724561
0.785974
0.848979
0.914165
0.982239
1.05403
1.13046
1.21252
1.30116
1.39712
1.50056
1.61059
1.72433
1.83587
1.93592
2.00875
2.01655
1.92349
-0.83189
-0.907982
-0.864313
-0.758444
-0.637098
-0.51565
-0.400653
-0.294937
-0.198755
-0.11112
-0.030648
0.0440525
0.114225
0.180912
0.244958
0.307035
0.367677
0.427318
0.486324
0.545025
0.603745
0.662826
0.722663
0.783725
0.846589
0.911973
0.980761
1.05404
1.13312
1.21953
1.315
1.4213
1.54
1.67191
1.81602
1.96786
2.11826
2.24819
2.30581
2.22951
-1.24406
-1.26815
-1.13804
-0.951022
-0.766228
-0.59849
-0.451261
-0.3239
-0.213614
-0.117069
-0.0311913
0.0465922
0.118329
0.1856
0.249608
0.311262
0.37125
0.430104
0.488255
0.546072
0.603907
0.662128
0.721152
0.781487
0.843766
0.908797
0.977612
1.05153
1.13222
1.22178
1.3228
1.43836
1.57193
1.727
1.90606
2.10874
2.32935
2.54895
2.70277
2.68889
-1.89351
-1.76305
-1.46878
-1.15708
-0.885982
-0.662074
-0.480292
-0.3326
-0.210921
-0.108476
-0.0199994
0.0584492
0.129756
0.19601
0.258714
0.318953
0.377509
0.434965
0.491768
0.548292
0.604878
0.661883
0.719716
0.778882
0.84003
0.904006
0.97193
1.04529
1.12604
1.21681
1.32103
1.44322
1.58922
1.76626
1.98263
2.24625
2.56085
2.91562
3.24721
3.40694
-3.00565
-2.44062
-1.83622
-1.3465
-0.969245
-0.685514
-0.473393
-0.311955
-0.185304
-0.0823914
0.00436451
0.0801555
0.148522
0.21188
0.271882
0.329663
0.386008
0.441473
0.496465
0.551308
0.606295
0.661731
0.717973
0.77548
0.834859
0.89693
0.962812
1.03404
1.11272
1.20178
1.30534
1.42921
1.58163
1.77436
2.02402
2.35247
2.78193
3.32817
3.99029
4.61597
-5.1721
-3.33051
-2.10207
-1.39212
-0.926792
-0.610996
-0.394478
-0.239827
-0.123224
-0.0304924
0.0470627
0.114938
0.176652
0.234475
0.289884
0.343842
0.396975
0.449694
0.502279
0.554935
0.607843
0.661199
0.715253
0.770349
0.826974
0.885813
0.947839
1.01442
1.08751
1.16989
1.26568
1.38099
1.52525
1.71344
1.97039
2.33561
2.86288
3.64809
4.96584
6.91255
-8.859
-4.19079
-1.98276
-1.10735
-0.654763
-0.385275
-0.216993
-0.102993
-0.0180735
0.0505395
0.109768
0.163632
0.214543
0.263959
0.31276
0.361457
0.410334
0.459526
0.509084
0.559017
0.609326
0.660038
0.711228
0.763055
0.815791
0.869871
0.925951
0.98499
1.04839
1.11818
1.19741
1.29078
1.40592
1.55627
1.76764
2.08949
2.61232
3.58438
5.90756
10.6939
)
;

boundaryField
{
    movingWall
    {
        type            zeroGradient;
    }
    fixedWalls
    {
        type            zeroGradient;
    }
    frontAndBack
    {
        type            empty;
    }
}


// ************************************************************************* //
