/*--------------------------------*- C++ -*----------------------------------*\
  =========                 |
  \\      /  F ield         | OpenFOAM: The Open Source CFD Toolbox
   \\    /   O peration     | Website:  https://openfoam.org
    \\  /    A nd           | Version:  6.0
     \\/     M anipulation  |
\*---------------------------------------------------------------------------*/
FoamFile
{
    version     2.0;
    format      ascii;
    class       volVectorField;
    location    "0.3";
    object      U;
}
// * * * * * * * * * * * * * * * * * * * * * * * * * * * * * * * * * * * * * //

dimensions      [0 1 -1 0 0 0 0];

internalField   nonuniform List<vector> 
200
(
(-0.000162088 6.93642e-05 0)
(-0.00620508 0.00391347 0)
(-0.0206777 0.00610989 0)
(-0.0379212 0.00639562 0)
(-0.0540958 0.00564576 0)
(-0.0676196 0.00452425 0)
(-0.0781203 0.00340007 0)
(-0.0858171 0.00243135 0)
(-0.0911304 0.00163853 0)
(-0.0944227 0.000961124 0)
(-0.0958496 0.000294812 0)
(-0.095285 -0.000484731 0)
(-0.0923055 -0.00149808 0)
(-0.0862465 -0.00282404 0)
(-0.0763787 -0.00443515 0)
(-0.0622606 -0.00610705 0)
(-0.0442821 -0.0073234 0)
(-0.02445 -0.00721094 0)
(-0.00752664 -0.0047233 0)
(-0.000300591 -0.000225204 0)
(-0.00440055 0.00617112 0)
(-0.0238565 0.0223223 0)
(-0.0583804 0.0307774 0)
(-0.0969092 0.0316553 0)
(-0.132542 0.028139 0)
(-0.162436 0.0228464 0)
(-0.18582 0.0173686 0)
(-0.20303 0.0124454 0)
(-0.214821 0.00821708 0)
(-0.221865 0.00445206 0)
(-0.224456 0.000714535 0)
(-0.22236 -0.00351361 0)
(-0.214804 -0.00871135 0)
(-0.200598 -0.0151472 0)
(-0.178481 -0.022619 0)
(-0.147755 -0.0301139 0)
(-0.10918 -0.0354865 0)
(-0.0661996 -0.0353542 0)
(-0.0271369 -0.0259131 0)
(-0.00500973 -0.00728583 0)
(-0.0083512 0.0228721 0)
(-0.0391227 0.0589614 0)
(-0.0882329 0.0755359 0)
(-0.139711 0.0759051 0)
(-0.18537 0.0669523 0)
(-0.222641 0.0542336 0)
(-0.251228 0.0411699 0)
(-0.271916 0.0293567 0)
(-0.28583 0.019091 0)
(-0.293898 0.00986073 0)
(-0.296553 0.000712175 0)
(-0.293591 -0.00947643 0)
(-0.284153 -0.0217279 0)
(-0.266831 -0.036608 0)
(-0.239987 -0.0536974 0)
(-0.202375 -0.0708994 0)
(-0.154059 -0.0837564 0)
(-0.0979278 -0.0852139 0)
(-0.0435282 -0.067024 0)
(-0.00926708 -0.0259143 0)
(-0.0118971 0.0477661 0)
(-0.0516624 0.108259 0)
(-0.109997 0.131441 0)
(-0.166631 0.12812 0)
(-0.21351 0.110767 0)
(-0.249665 0.0884343 0)
(-0.276125 0.0663613 0)
(-0.294526 0.0468028 0)
(-0.306476 0.0300129 0)
(-0.313165 0.0150527 0)
(-0.315181 0.000350527 0)
(-0.312445 -0.0159045 0)
(-0.304183 -0.0353968 0)
(-0.288937 -0.0591903 0)
(-0.264696 -0.0869643 0)
(-0.229283 -0.115916 0)
(-0.181066 -0.139468 0)
(-0.120724 -0.146339 0)
(-0.0571437 -0.121554 0)
(-0.0132037 -0.0533489 0)
(-0.0159467 0.079724 0)
(-0.0629799 0.165626 0)
(-0.123983 0.190642 0)
(-0.176433 0.178717 0)
(-0.214798 0.149912 0)
(-0.241156 0.116841 0)
(-0.258485 0.0859814 0)
(-0.269397 0.0596531 0)
(-0.275878 0.037677 0)
(-0.279227 0.0185111 0)
(-0.280112 -6.58461e-05 0)
(-0.27862 -0.0205404 0)
(-0.27423 -0.0453116 0)
(-0.265694 -0.0761872 0)
(-0.250872 -0.113502 0)
(-0.226654 -0.154637 0)
(-0.189122 -0.191852 0)
(-0.135098 -0.209812 0)
(-0.0698494 -0.184481 0)
(-0.0179253 -0.0886532 0)
(-0.021477 0.119512 0)
(-0.0739439 0.226491 0)
(-0.128002 0.244209 0)
(-0.163925 0.217477 0)
(-0.182627 0.175006 0)
(-0.190559 0.131852 0)
(-0.192658 0.09439 0)
(-0.192062 0.0640538 0)
(-0.190625 0.0397536 0)
(-0.189359 0.0192313 0)
(-0.188784 -0.000284835 0)
(-0.189123 -0.0217826 0)
(-0.190294 -0.0482662 0)
(-0.191684 -0.0824149 0)
(-0.191671 -0.125802 0)
(-0.186923 -0.177232 0)
(-0.171551 -0.229662 0)
(-0.137396 -0.265445 0)
(-0.0817509 -0.250565 0)
(-0.0242543 -0.132957 0)
(-0.0284975 0.170134 0)
(-0.0818523 0.283268 0)
(-0.112691 0.278461 0)
(-0.115613 0.231074 0)
(-0.103069 0.175785 0)
(-0.085691 0.126519 0)
(-0.0689811 0.0872912 0)
(-0.0553006 0.0575461 0)
(-0.0454051 0.0349638 0)
(-0.0394032 0.0166906 0)
(-0.0373349 -0.000258103 0)
(-0.0394508 -0.0189499 0)
(-0.0462465 -0.0425929 0)
(-0.0582293 -0.0745129 0)
(-0.0752875 -0.117765 0)
(-0.095456 -0.173779 0)
(-0.112873 -0.238964 0)
(-0.115441 -0.297925 0)
(-0.0877973 -0.310472 0)
(-0.0313079 -0.189085 0)
(-0.0311613 0.234609 0)
(-0.0717217 0.318718 0)
(-0.0514119 0.271515 0)
(-0.0022675 0.203383 0)
(0.0489953 0.143199 0)
(0.0925091 0.0969007 0)
(0.12598 0.0636343 0)
(0.149925 0.0403729 0)
(0.165786 0.0238672 0)
(0.174888 0.0112238 0)
(0.177926 -0.000133718 0)
(0.174762 -0.0126955 0)
(0.164358 -0.0291556 0)
(0.144863 -0.0527184 0)
(0.114038 -0.0872999 0)
(0.0703982 -0.137145 0)
(0.0155044 -0.204686 0)
(-0.0408313 -0.284418 0)
(-0.0695044 -0.343407 0)
(-0.0309635 -0.257136 0)
(0.00874904 0.281278 0)
(0.0155226 0.289471 0)
(0.12186 0.199878 0)
(0.230829 0.128654 0)
(0.311778 0.0808941 0)
(0.368281 0.0499896 0)
(0.406624 0.0304836 0)
(0.431699 0.0182392 0)
(0.44726 0.0103263 0)
(0.455812 0.00471666 0)
(0.458593 -0.000105546 0)
(0.455629 -0.00548389 0)
(0.4457 -0.0129098 0)
(0.426186 -0.0244165 0)
(0.392906 -0.0431443 0)
(0.340102 -0.0740542 0)
(0.260141 -0.124445 0)
(0.147284 -0.202838 0)
(0.0321648 -0.302138 0)
(0.017904 -0.296368 0)
(0.301181 0.14645 0)
(0.397183 0.126774 0)
(0.552942 0.0741345 0)
(0.662825 0.0409152 0)
(0.723663 0.0224235 0)
(0.758105 0.0122032 0)
(0.778395 0.00661217 0)
(0.790309 0.00355932 0)
(0.797104 0.00184296 0)
(0.800607 0.000774626 0)
(0.801642 -7.56069e-05 0)
(0.800262 -0.00104573 0)
(0.795773 -0.00251427 0)
(0.786523 -0.00506783 0)
(0.769415 -0.00979525 0)
(0.738785 -0.0188339 0)
(0.682357 -0.0363609 0)
(0.574977 -0.070053 0)
(0.414129 -0.126032 0)
(0.30974 -0.149047 0)
)
;

boundaryField
{
    movingWall
    {
        type            fixedValue;
        value           uniform (1 0 0);
    }
    fixedWalls
    {
        type            noSlip;
    }
    frontAndBack
    {
        type            empty;
    }
}


// ************************************************************************* //
