1.275 	2.15223e-18 	-2.76991e-20 	-0.0340477 	-0.000442483 	-1.98442e-22
1.825 	2.15223e-18 	-1.39322e-20 	-0.00870864 	-0.00277148 	1.78186e-21
2.375 	2.15223e-18 	-2.66896e-23 	0.117456 	-0.00327639 	-7.43802e-22
