/*--------------------------------*- C++ -*----------------------------------*\
  =========                 |
  \\      /  F ield         | OpenFOAM: The Open Source CFD Toolbox
   \\    /   O peration     | Website:  https://openfoam.org
    \\  /    A nd           | Version:  6.0
     \\/     M anipulation  |
\*---------------------------------------------------------------------------*/
FoamFile
{
    version     2.0;
    format      ascii;
    class       volScalarField;
    location    "10";
    object      p;
}
// * * * * * * * * * * * * * * * * * * * * * * * * * * * * * * * * * * * * * //

dimensions      [0 2 -2 0 0 0 0];

internalField   nonuniform List<scalar> 
62000
(
0.0152976
0.0160741
0.0167938
0.0175166
0.0182115
0.0189208
0.0196405
0.0204085
0.0212231
0.0221267
0.0231159
0.0242365
0.0254855
0.0269099
0.0285087
0.030327
0.0323667
0.0346699
0.0372406
0.0401183
0.0433081
0.0468482
0.0507428
0.0550292
0.0597088
0.0648167
0.0703515
0.0763452
0.08279
0.0897096
0.0970768
0.10488
0.113099
0.121698
0.130625
0.139807
0.149163
0.158589
0.167977
0.177184
0.186042
0.194287
0.201581
0.207306
0.210451
0.209479
0.202748
0.18899
0.168722
0.144955
0.123039
0.108628
0.104233
0.107318
0.112644
0.111537
0.101246
0.0818098
0.0571115
0.110894
0.0250137
0.0259688
0.0268299
0.0277217
0.0285645
0.0294024
0.0302152
0.0310377
0.0318579
0.0327188
0.0336115
0.0345856
0.0356368
0.0368185
0.038132
0.0396314
0.0413234
0.0432597
0.0454518
0.0479463
0.0507577
0.053926
0.0574665
0.0614108
0.0657723
0.0705716
0.0758172
0.0815207
0.0876856
0.0943139
0.101388
0.108884
0.11677
0.125008
0.133538
0.142294
0.151197
0.160163
0.169104
0.177918
0.186479
0.194588
0.201989
0.208153
0.212131
0.212412
0.207273
0.195206
0.176352
0.153345
0.131465
0.116858
0.113051
0.118376
0.127696
0.13104
0.123803
0.104132
0.0796378
0.0594765
0.0384923
0.039509
0.0405167
0.0416192
0.0427337
0.0438842
0.0450331
0.0461971
0.0473427
0.0484985
0.0496339
0.0507905
0.0519448
0.0531497
0.0543922
0.0557325
0.0571696
0.0587655
0.0605306
0.0625247
0.064767
0.0673108
0.0701806
0.0734189
0.0770498
0.0810999
0.0855867
0.0905226
0.0959203
0.101784
0.108107
0.114862
0.122024
0.129551
0.137389
0.145475
0.153742
0.162122
0.170546
0.178938
0.187206
0.195188
0.202694
0.209272
0.214023
0.215457
0.211765
0.201165
0.183281
0.160091
0.136363
0.118273
0.110147
0.11155
0.118446
0.121932
0.117186
0.100889
0.0840115
0.0872868
0.0482981
0.0493599
0.050503
0.0518057
0.0532033
0.0547166
0.0563065
0.0579825
0.0597015
0.0614757
0.0632585
0.065068
0.0668617
0.0686659
0.0704491
0.072248
0.0740463
0.0758903
0.0777804
0.0797706
0.0818769
0.0841554
0.0866341
0.0893641
0.0923779
0.0957131
0.0993966
0.103452
0.107902
0.112771
0.118059
0.123762
0.129859
0.136324
0.143114
0.150183
0.157484
0.164978
0.172626
0.180394
0.18823
0.196026
0.203683
0.210854
0.216737
0.219922
0.218585
0.210734
0.195503
0.174111
0.150566
0.130651
0.119107
0.116589
0.120303
0.12289
0.119747
0.106136
0.0950772
0.107119
0.0543113
0.0552503
0.0563036
0.0575398
0.0589183
0.0604714
0.0621735
0.0640462
0.0660542
0.068216
0.0704835
0.072872
0.0753257
0.0778579
0.0804128
0.0830062
0.0855917
0.0881902
0.0907725
0.0933693
0.0959729
0.0986217
0.10133
0.104139
0.107078
0.110182
0.113481
0.117003
0.120785
0.124857
0.129245
0.133955
0.13899
0.144339
0.149983
0.155902
0.162082
0.168519
0.175224
0.182215
0.189505
0.197065
0.204911
0.21284
0.220195
0.225709
0.227646
0.223932
0.21333
0.196359
0.176159
0.157809
0.145912
0.14162
0.143073
0.144255
0.140762
0.125947
0.112906
0.127827
0.0583804
0.0592272
0.0601719
0.0612703
0.0624963
0.0638884
0.0654355
0.0671714
0.0690797
0.0711932
0.0734838
0.0759781
0.0786359
0.0814736
0.0844407
0.087544
0.0907287
0.0939949
0.0972921
0.100623
0.103951
0.107285
0.11061
0.113944
0.11729
0.120669
0.124095
0.12759
0.131185
0.134918
0.138819
0.142909
0.147205
0.151715
0.156443
0.161398
0.166599
0.172085
0.177917
0.184172
0.190934
0.198264
0.206303
0.214998
0.223849
0.231764
0.237163
0.238006
0.232836
0.221594
0.206574
0.191965
0.181863
0.177465
0.177379
0.176519
0.170527
0.151341
0.132496
0.144399
0.062129
0.0629029
0.063755
0.0647299
0.0658034
0.067014
0.0683505
0.0698527
0.0715088
0.0733637
0.0753998
0.0776618
0.0801239
0.0828231
0.0857228
0.0888466
0.0921471
0.0956308
0.0992433
0.10298
0.106787
0.110654
0.11454
0.118436
0.122318
0.126177
0.130006
0.133802
0.137585
0.141379
0.145214
0.149108
0.153084
0.157163
0.161365
0.165721
0.170278
0.175112
0.180322
0.186038
0.192405
0.199567
0.207772
0.217097
0.22718
0.237103
0.245472
0.250365
0.250239
0.244623
0.235082
0.224938
0.217566
0.213846
0.21261
0.209426
0.200066
0.175527
0.150855
0.157977
0.0657881
0.0665335
0.0673429
0.0682476
0.0692257
0.0703095
0.0714874
0.072795
0.0742225
0.0758132
0.0775564
0.0795002
0.0816321
0.0839984
0.086581
0.0894177
0.0924808
0.0957909
0.0993086
0.103037
0.106928
0.110966
0.115105
0.119319
0.123566
0.127815
0.132034
0.136199
0.140305
0.144363
0.148383
0.152379
0.156368
0.160371
0.164415
0.168544
0.17282
0.177343
0.182238
0.18767
0.193824
0.200905
0.209238
0.218993
0.229922
0.241251
0.251779
0.259755
0.263659
0.262759
0.25806
0.252098
0.24752
0.244781
0.2427
0.237302
0.224536
0.195348
0.167165
0.169549
0.0692692
0.0699921
0.070774
0.0716384
0.0725627
0.073576
0.0746612
0.0758511
0.0771301
0.0785397
0.0800641
0.0817529
0.0835921
0.0856346
0.0878672
0.0903394
0.0930355
0.0959926
0.0991871
0.102639
0.106314
0.11021
0.114285
0.118516
0.122856
0.127267
0.131702
0.13612
0.1405
0.144832
0.149114
0.153341
0.157523
0.161671
0.165814
0.169995
0.174283
0.178784
0.183636
0.189016
0.19513
0.202218
0.210646
0.220639
0.232032
0.24417
0.256036
0.266069
0.27286
0.275546
0.274732
0.272333
0.270303
0.268587
0.265972
0.258864
0.24355
0.211197
0.181613
0.180028
0.0726917
0.073393
0.0741505
0.0749794
0.0758603
0.0768183
0.0778359
0.0789413
0.0801175
0.0813998
0.0827717
0.0842757
0.085898
0.0876866
0.0896311
0.0917812
0.0941282
0.0967162
0.0995337
0.102614
0.105937
0.109517
0.113326
0.117353
0.121559
0.125909
0.130354
0.134849
0.139363
0.143877
0.148373
0.152833
0.157256
0.161644
0.166017
0.170414
0.174898
0.179574
0.184577
0.190081
0.19629
0.203459
0.211957
0.222041
0.233593
0.246069
0.258601
0.26984
0.27852
0.283746
0.285861
0.286293
0.286416
0.285735
0.28292
0.274693
0.257691
0.223725
0.194628
0.189974
0.0758413
0.0765254
0.0772648
0.0780711
0.0789247
0.0798505
0.0808272
0.0818833
0.0829969
0.0842028
0.0854782
0.0868646
0.0883419
0.0899569
0.0916938
0.0936025
0.0956727
0.0979516
0.100432
0.103155
0.106113
0.109329
0.112793
0.116506
0.120443
0.124579
0.128876
0.133291
0.137795
0.142364
0.146973
0.151599
0.156229
0.160858
0.165497
0.170173
0.174944
0.179902
0.185171
0.190908
0.197304
0.204605
0.213164
0.223241
0.234755
0.247242
0.259975
0.2718
0.281622
0.288585
0.292869
0.295549
0.297509
0.297829
0.295125
0.286419
0.268764
0.234465
0.206723
0.199743
0.0789958
0.0796509
0.0803605
0.0811309
0.0819461
0.0828286
0.0837585
0.0847613
0.0858162
0.0869539
0.088152
0.0894469
0.090818
0.0923062
0.0938945
0.0956272
0.0974929
0.0995359
0.10175
0.104178
0.106816
0.109697
0.112819
0.116196
0.119816
0.123669
0.127727
0.131958
0.13634
0.140853
0.145474
0.150175
0.154942
0.159762
0.16464
0.169594
0.174669
0.179943
0.185524
0.191547
0.198178
0.205643
0.214264
0.224287
0.235655
0.247978
0.260636
0.272671
0.283145
0.29128
0.297165
0.301611
0.305124
0.306457
0.304132
0.295433
0.277744
0.24399
0.218237
0.209562
0.0818378
0.0824751
0.0831666
0.083916
0.0847075
0.0855644
0.0864641
0.0874336
0.0884491
0.0895424
0.0906872
0.0919209
0.0932183
0.0946201
0.0961046
0.0977146
0.0994345
0.101307
0.103322
0.105523
0.107908
0.110511
0.113337
0.116407
0.11972
0.123278
0.127066
0.131063
0.135258
0.13964
0.14419
0.148887
0.153713
0.158658
0.16372
0.168911
0.174263
0.179843
0.185737
0.192056
0.198939
0.206587
0.215278
0.225237
0.236425
0.248514
0.260979
0.273025
0.283873
0.292842
0.299976
0.305899
0.310798
0.313126
0.311383
0.303104
0.285999
0.253316
0.229486
0.219602
0.0847141
0.085317
0.085974
0.086685
0.0874374
0.0882527
0.0891098
0.0900338
0.0910023
0.0920443
0.0931354
0.0943092
0.0955419
0.0968703
0.0982728
0.0997881
0.101399
0.103145
0.105014
0.107046
0.109237
0.111623
0.11421
0.117023
0.120069
0.123357
0.126882
0.130638
0.134621
0.138832
0.143261
0.147891
0.152714
0.157719
0.162903
0.168273
0.173854
0.1797
0.185879
0.192477
0.199608
0.207443
0.216216
0.226127
0.237151
0.24902
0.261275
0.27328
0.284379
0.293997
0.302155
0.309335
0.315478
0.318822
0.317806
0.310176
0.293857
0.262478
0.240663
0.229852
0.0872318
0.08782
0.0884614
0.0891548
0.0898872
0.0906811
0.0915131
0.0924104
0.0933477
0.0943566
0.0954089
0.0965408
0.097725
0.099
0.100341
0.101786
0.103316
0.104968
0.106729
0.108635
0.110681
0.112903
0.115304
0.117913
0.120739
0.123798
0.127092
0.130621
0.134397
0.138425
0.142707
0.147236
0.15201
0.157022
0.162273
0.167766
0.173522
0.179585
0.186008
0.192855
0.200218
0.208236
0.217107
0.227
0.237909
0.249612
0.261714
0.2737
0.285028
0.295226
0.304312
0.312655
0.319984
0.324329
0.32413
0.317333
0.302068
0.272053
0.251989
0.240298
0.0898262
0.0903773
0.0909816
0.091635
0.0923274
0.0930799
0.0938705
0.0947247
0.0956188
0.0965819
0.0975883
0.0986711
0.0998049
0.101025
0.102309
0.103692
0.105154
0.106731
0.108407
0.110218
0.112155
0.114251
0.116511
0.118962
0.121614
0.124486
0.127585
0.130919
0.134505
0.138359
0.142491
0.146902
0.151599
0.156582
0.161855
0.167422
0.173301
0.17953
0.18615
0.193211
0.200781
0.208978
0.217958
0.227873
0.238725
0.250346
0.262377
0.274426
0.286021
0.296791
0.306752
0.316178
0.324631
0.329992
0.330665
0.324753
0.310497
0.281784
0.263495
0.250851
0.0920307
0.0925682
0.0931582
0.0937954
0.0944696
0.0952028
0.0959711
0.0968018
0.0976691
0.0986042
0.0995784
0.100627
0.101723
0.102904
0.104142
0.105477
0.106885
0.108402
0.110012
0.111748
0.113601
0.115603
0.117755
0.120084
0.1226
0.125324
0.128265
0.131435
0.134858
0.138558
0.142547
0.14684
0.151447
0.156378
0.161641
0.167244
0.173203
0.179555
0.186332
0.193571
0.201326
0.209694
0.218797
0.228771
0.239633
0.251257
0.263321
0.275524
0.287453
0.298829
0.309672
0.320177
0.329744
0.336104
0.337673
0.332707
0.319566
0.292062
0.275255
0.261514
0.0943238
0.0948232
0.0953756
0.0959734
0.096609
0.0973029
0.0980326
0.0988235
0.0996515
0.100545
0.101479
0.102484
0.103537
0.104672
0.105864
0.10715
0.108509
0.109973
0.111527
0.113202
0.114988
0.116915
0.118983
0.121218
0.123628
0.126236
0.129051
0.13209
0.135378
0.138943
0.14281
0.146989
0.151505
0.156372
0.161605
0.167213
0.173219
0.179656
0.186553
0.193938
0.201855
0.210385
0.219622
0.229691
0.240623
0.252335
0.264529
0.276986
0.289327
0.301351
0.313082
0.32464
0.335295
0.342666
0.345143
0.341099
0.328942
0.302517
0.287212
0.272226
0.0962144
0.0967075
0.0972519
0.0978395
0.0984616
0.0991402
0.0998506
0.100621
0.101424
0.102293
0.103197
0.104173
0.105193
0.106293
0.107449
0.108696
0.110014
0.111434
0.112941
0.114566
0.116298
0.118164
0.120166
0.122327
0.124655
0.127172
0.129888
0.132821
0.136
0.139457
0.143212
0.147292
0.151721
0.15652
0.161711
0.167308
0.173336
0.179831
0.18682
0.194326
0.202388
0.211073
0.220456
0.230651
0.24171
0.253583
0.265998
0.278798
0.291627
0.304349
0.317003
0.329637
0.341388
0.349755
0.353142
0.350035
0.338927
0.313471
0.299423
0.283022
0.098338
0.0987808
0.0992746
0.0998101
0.100382
0.101011
0.101674
0.102397
0.103157
0.103981
0.104843
0.105776
0.106755
0.107813
0.108929
0.110135
0.111412
0.112791
0.114257
0.115838
0.117524
0.119341
0.121289
0.12339
0.125653
0.128098
0.130737
0.133586
0.136677
0.14004
0.143708
0.147699
0.152048
0.156781
0.161923
0.167496
0.173528
0.180061
0.187119
0.194725
0.202915
0.211749
0.221284
0.231632
0.242865
0.254963
0.267675
0.280898
0.294282
0.307747
0.321336
0.335037
0.347872
0.35725
0.361549
0.359337
0.349135
0.324533
0.31183
0.293848
0.10006
0.100478
0.100948
0.101459
0.102006
0.10261
0.103247
0.103945
0.104677
0.105475
0.106309
0.107215
0.108164
0.109194
0.110279
0.111454
0.112699
0.114044
0.115474
0.117018
0.118665
0.120439
0.122342
0.124395
0.126606
0.128993
0.131569
0.134351
0.137371
0.140663
0.144252
0.148169
0.152446
0.157115
0.162209
0.167752
0.17378
0.180336
0.187449
0.195141
0.20345
0.212429
0.222125
0.232649
0.244094
0.25647
0.269545
0.283255
0.297255
0.311503
0.326061
0.340856
0.35479
0.36517
0.370382
0.369077
0.359852
0.336022
0.324499
0.304751
0.101634
0.102039
0.102494
0.102988
0.103516
0.104101
0.104717
0.105392
0.106101
0.106873
0.107681
0.108559
0.10948
0.110479
0.111533
0.112677
0.113889
0.115202
0.116599
0.118109
0.11972
0.121459
0.123323
0.125334
0.127501
0.129841
0.132366
0.135095
0.138057
0.141286
0.144815
0.148666
0.15288
0.157491
0.162537
0.168048
0.174063
0.180633
0.187789
0.195557
0.203976
0.213096
0.222958
0.233675
0.245363
0.258057
0.271545
0.285797
0.300459
0.315523
0.331058
0.346941
0.361971
0.373372
0.379503
0.379068
0.370696
0.347554
0.33733
0.315681
0.102969
0.10337
0.10382
0.104308
0.104828
0.105403
0.106007
0.106669
0.107362
0.108119
0.108908
0.109766
0.110666
0.111644
0.112674
0.113793
0.114979
0.116265
0.117632
0.119112
0.120692
0.122397
0.124227
0.126202
0.12833
0.130631
0.133114
0.135798
0.138713
0.141895
0.145367
0.149164
0.153322
0.15788
0.162881
0.168361
0.174364
0.180944
0.188138
0.195976
0.204501
0.213763
0.223797
0.234724
0.24668
0.259726
0.273669
0.288504
0.30387
0.319779
0.336319
0.353316
0.36946
0.38188
0.38894
0.389391
0.381958
0.359448
0.350338
0.326705
0.104319
0.104702
0.105135
0.105605
0.10611
0.106669
0.107257
0.107903
0.108578
0.109313
0.110081
0.110915
0.111789
0.112739
0.113741
0.11483
0.115986
0.117242
0.118579
0.120028
0.121578
0.123251
0.12505
0.126993
0.129088
0.131354
0.133802
0.136449
0.139325
0.142461
0.145892
0.149639
0.153748
0.158259
0.16322
0.16867
0.174658
0.181246
0.188473
0.196375
0.205002
0.214404
0.224614
0.235761
0.248005
0.261427
0.275856
0.291306
0.307407
0.324184
0.341735
0.359842
0.377102
0.390565
0.398565
0.399874
0.393278
0.371332
0.363407
0.337768
0.105621
0.105978
0.106385
0.106829
0.107308
0.107842
0.108404
0.109026
0.109677
0.110389
0.111134
0.111945
0.112796
0.113724
0.114702
0.115767
0.116897
0.118126
0.119435
0.120856
0.122376
0.124021
0.12579
0.127703
0.129768
0.132004
0.134421
0.137035
0.139877
0.14298
0.146367
0.150074
0.154139
0.15861
0.163535
0.168959
0.174936
0.181532
0.188793
0.19676
0.20549
0.215035
0.225426
0.236804
0.249351
0.263171
0.278111
0.294204
0.311068
0.328735
0.34732
0.366564
0.384961
0.399473
0.408429
0.410619
0.404959
0.383534
0.376579
0.348926
0.106971
0.107296
0.10767
0.108081
0.108527
0.109028
0.109559
0.110149
0.110768
0.111449
0.112161
0.11294
0.113758
0.114653
0.115598
0.11663
0.117728
0.118926
0.120205
0.121596
0.123087
0.124703
0.126444
0.128329
0.130366
0.132574
0.134962
0.137549
0.140361
0.14343
0.146788
0.150455
0.154483
0.158917
0.16381
0.16921
0.175177
0.181781
0.189074
0.197104
0.205935
0.215623
0.226199
0.237814
0.250676
0.264909
0.280378
0.297134
0.31478
0.333355
0.352979
0.373358
0.392899
0.408488
0.418418
0.421465
0.416655
0.395694
0.389775
0.360054
0.10819
0.108485
0.10883
0.109211
0.109625
0.110096
0.110594
0.111152
0.111739
0.112389
0.113071
0.11382
0.114609
0.115475
0.116391
0.117395
0.118465
0.119634
0.120884
0.122246
0.123709
0.125297
0.127011
0.128869
0.130879
0.133061
0.135423
0.137984
0.14077
0.143814
0.147136
0.150773
0.154766
0.159167
0.164034
0.169415
0.175375
0.181991
0.189319
0.197416
0.206351
0.216185
0.226952
0.238814
0.252001
0.26666
0.282675
0.300111
0.318559
0.338062
0.358749
0.380289
0.400997
0.417673
0.428598
0.432528
0.428676
0.408149
0.403077
0.371178
0.109395
0.109661
0.109975
0.110324
0.110706
0.111144
0.11161
0.112134
0.112687
0.113302
0.113947
0.11466
0.115411
0.11624
0.11712
0.118088
0.119123
0.120259
0.121478
0.12281
0.124244
0.125805
0.127491
0.129322
0.131307
0.133463
0.135801
0.138338
0.141099
0.144113
0.147413
0.151017
0.15498
0.159353
0.164194
0.169559
0.175514
0.182142
0.189505
0.197667
0.206706
0.216687
0.227647
0.23976
0.253279
0.268373
0.284946
0.303076
0.322342
0.342786
0.364541
0.387246
0.409132
0.426926
0.438868
0.443659
0.440688
0.420547
0.416406
0.382163
0.110427
0.110666
0.110953
0.111273
0.111625
0.112033
0.112468
0.112962
0.113484
0.114069
0.114684
0.115367
0.116089
0.116889
0.11774
0.118679
0.119686
0.120793
0.121983
0.123287
0.124693
0.126225
0.127884
0.129689
0.131648
0.133779
0.136093
0.138605
0.141342
0.144336
0.147603
0.151182
0.155118
0.159464
0.164286
0.169637
0.175591
0.182236
0.189639
0.19787
0.207016
0.217149
0.228307
0.240678
0.254539
0.270078
0.28722
0.306058
0.326158
0.347563
0.37041
0.394307
0.417397
0.436323
0.449307
0.454985
0.453001
0.433241
0.429842
0.393079
0.111402
0.111614
0.111872
0.112164
0.112488
0.112868
0.113274
0.113739
0.114232
0.114786
0.115369
0.116019
0.116707
0.117473
0.118289
0.119195
0.120168
0.121244
0.122403
0.123677
0.125054
0.126559
0.128191
0.129969
0.131901
0.134007
0.136296
0.138785
0.1415
0.144467
0.147715
0.151265
0.155175
0.159498
0.164299
0.169639
0.175592
0.182253
0.189694
0.197995
0.207249
0.217532
0.22889
0.241523
0.255731
0.271722
0.289442
0.308998
0.329944
0.352323
0.376272
0.401368
0.425677
0.445767
0.459817
0.466362
0.465288
0.445888
0.443295
0.403965
0.112159
0.11235
0.112587
0.112858
0.113159
0.113516
0.113898
0.114339
0.114808
0.115338
0.115897
0.116524
0.117188
0.11793
0.118722
0.119603
0.120551
0.121599
0.122731
0.123978
0.125328
0.126804
0.128409
0.13016
0.132066
0.134146
0.136411
0.138878
0.14157
0.144518
0.147735
0.151262
0.155146
0.159447
0.164232
0.169563
0.175519
0.1822
0.189684
0.198057
0.207422
0.217862
0.229425
0.242326
0.256888
0.27334
0.291649
0.311936
0.333744
0.357114
0.382191
0.408514
0.434069
0.455341
0.470486
0.477923
0.477853
0.458832
0.456814
0.415101
0.112879
0.113049
0.113262
0.113508
0.113786
0.11412
0.114478
0.114896
0.115339
0.115843
0.116375
0.116973
0.117608
0.118319
0.119081
0.119931
0.120849
0.121868
0.122972
0.12419
0.125512
0.126961
0.128539
0.130263
0.132143
0.134199
0.13644
0.138884
0.141554
0.144473
0.147673
0.151171
0.155031
0.15931
0.164078
0.169399
0.175357
0.182057
0.189582
0.198027
0.207502
0.218097
0.229867
0.243039
0.257959
0.274877
0.293782
0.314809
0.337491
0.361868
0.388082
0.415644
0.442463
0.464949
0.481215
0.489528
0.490376
0.471734
0.470178
0.426532
0.113417
0.113566
0.113759
0.113984
0.114239
0.114551
0.114887
0.115283
0.115704
0.116187
0.116698
0.117276
0.11789
0.118581
0.119321
0.12015
0.121045
0.12204
0.123119
0.124311
0.125608
0.127031
0.128582
0.13028
0.132135
0.134165
0.136382
0.138802
0.141448
0.144349
0.147516
0.150992
0.154826
0.159083
0.163835
0.169149
0.175111
0.181833
0.189402
0.197922
0.207511
0.218267
0.230248
0.243697
0.258983
0.276376
0.295887
0.317667
0.341238
0.36664
0.394019
0.42285
0.450961
0.474682
0.4921
0.50132
0.503162
0.484949
0.483485
0.438374
0.113927
0.114054
0.114223
0.114425
0.114659
0.114948
0.115263
0.115636
0.116035
0.116494
0.11698
0.117532
0.118119
0.118782
0.119494
0.120294
0.121161
0.12213
0.123181
0.124348
0.125618
0.127015
0.12854
0.130213
0.132041
0.134046
0.136238
0.138634
0.141257
0.144128
0.147277
0.150723
0.154531
0.158765
0.163499
0.168803
0.174768
0.181508
0.189119
0.197711
0.207412
0.218327
0.23052
0.244248
0.259902
0.277775
0.2979
0.320442
0.344915
0.371359
0.399915
0.430029
0.459455
0.484444
0.503037
0.513157
0.515899
0.498129
0.496846
0.450458
0.114248
0.114358
0.114511
0.114696
0.114912
0.115184
0.115479
0.115834
0.116214
0.116656
0.117122
0.117656
0.118225
0.118869
0.119562
0.120342
0.121187
0.122133
0.12316
0.124302
0.125547
0.126919
0.128418
0.130064
0.131867
0.133845
0.136012
0.138383
0.14098
0.143831
0.146943
0.150364
0.154144
0.158354
0.163071
0.168366
0.174334
0.181095
0.18875
0.197417
0.207233
0.218311
0.23072
0.244733
0.260763
0.279124
0.299873
0.323192
0.348583
0.376087
0.405849
0.437277
0.468046
0.494326
0.514129
0.525187
0.528899
0.5116
0.5105
0.462768
0.114594
0.114685
0.114818
0.114982
0.115178
0.11543
0.115705
0.116038
0.116396
0.116814
0.117256
0.117763
0.118304
0.11892
0.119583
0.120334
0.121151
0.122068
0.123069
0.124184
0.125402
0.126747
0.12822
0.129839
0.131615
0.133567
0.135706
0.13805
0.140621
0.143437
0.146528
0.149914
0.153666
0.15785
0.162546
0.167829
0.173796
0.180574
0.188268
0.197006
0.206934
0.218172
0.230797
0.245096
0.261504
0.280357
0.301737
0.325843
0.352166
0.380748
0.41173
0.44449
0.476627
0.504232
0.525268
0.537268
0.541865
0.525024
0.524362
0.475113
0.11481
0.114884
0.114998
0.115144
0.115319
0.115551
0.115805
0.116118
0.116455
0.116852
0.117274
0.117761
0.118281
0.118876
0.119518
0.120247
0.12104
0.121933
0.122908
0.123996
0.125188
0.126505
0.12795
0.129541
0.131287
0.13321
0.13532
0.137635
0.140174
0.142966
0.146017
0.149374
0.153095
0.157251
0.161926
0.167196
0.173162
0.179957
0.187692
0.196503
0.206544
0.217946
0.230791
0.245381
0.262174
0.281529
0.303552
0.328459
0.355733
0.385413
0.417645
0.451768
0.485303
0.51426
0.536562
0.54955
0.55511
0.538739
0.538526
0.487541
0.115057
0.115111
0.115204
0.115328
0.115482
0.115692
0.115924
0.116215
0.116527
0.116899
0.117293
0.117752
0.118241
0.118806
0.119416
0.120114
0.120876
0.121739
0.122684
0.123743
0.124906
0.126194
0.127609
0.12917
0.130885
0.132777
0.134856
0.137139
0.139648
0.142402
0.145428
0.148746
0.152433
0.156558
0.161207
0.16646
0.17242
0.179226
0.186996
0.195874
0.206023
0.217585
0.230647
0.245528
0.26271
0.28257
0.305243
0.330963
0.359202
0.389999
0.423498
0.459006
0.493965
0.524305
0.547899
0.561886
0.568342
0.552421
0.552864
0.499893
0.115138
0.115177
0.115255
0.115362
0.115498
0.115689
0.1159
0.11617
0.116462
0.116813
0.117186
0.117624
0.118093
0.118636
0.119224
0.119898
0.120636
0.121473
0.12239
0.123421
0.124555
0.125813
0.127197
0.128727
0.13041
0.132269
0.134315
0.136565
0.13904
0.141765
0.144745
0.14803
0.151679
0.15577
0.160392
0.165625
0.171578
0.178395
0.186199
0.195145
0.205404
0.217127
0.230409
0.245588
0.263164
0.283539
0.306874
0.333422
0.362646
0.394584
0.42938
0.466303
0.502718
0.534471
0.559391
0.574428
0.581862
0.566395
0.56749
0.512232
0.115234
0.115255
0.115313
0.1154
0.115515
0.115685
0.115875
0.116123
0.116391
0.116717
0.117064
0.117474
0.117913
0.118425
0.118982
0.119626
0.120333
0.12114
0.122028
0.12303
0.124134
0.125362
0.126715
0.128213
0.129863
0.131689
0.133701
0.135917
0.138357
0.141038
0.143988
0.147227
0.150836
0.154889
0.159478
0.164685
0.170624
0.177444
0.185274
0.19428
0.204642
0.21652
0.23002
0.245495
0.263468
0.284361
0.308366
0.335754
0.365981
0.399077
0.43519
0.473553
0.511453
0.544652
0.570921
0.587025
0.595382
0.580343
0.582284
0.524377
0.115111
0.115118
0.11516
0.115232
0.11533
0.115484
0.115656
0.115887
0.116138
0.116448
0.116778
0.117171
0.117593
0.118089
0.118628
0.119252
0.119939
0.120724
0.121589
0.122565
0.123642
0.124842
0.126165
0.127631
0.129249
0.13104
0.133017
0.135195
0.137596
0.140243
0.143141
0.14634
0.149905
0.153916
0.158468
0.163647
0.169568
0.176389
0.184245
0.193309
0.203775
0.215809
0.229529
0.245304
0.263682
0.285102
0.309787
0.338033
0.369284
0.403566
0.441026
0.48086
0.520276
0.554953
0.582607
0.599831
0.609199
0.594577
0.597383
0.536374
0.114904
0.114901
0.114934
0.114996
0.115085
0.115229
0.115392
0.115611
0.115848
0.116141
0.116452
0.116824
0.117225
0.117697
0.118214
0.118815
0.119478
0.12024
0.121081
0.122033
0.123085
0.124257
0.125552
0.126987
0.128571
0.130326
0.132266
0.134406
0.136768
0.139365
0.142226
0.145372
0.148888
0.152851
0.157359
0.1625
0.168396
0.175207
0.183079
0.192194
0.202754
0.214938
0.228873
0.244947
0.263728
0.285679
0.311053
0.340171
0.372465
0.407952
0.446781
0.488113
0.529077
0.565265
0.594327
0.612691
0.623032
0.60879
0.612676
0.548
0.114533
0.114519
0.114543
0.114598
0.114678
0.114813
0.114965
0.115175
0.115399
0.115682
0.115982
0.116344
0.116735
0.117198
0.117704
0.118293
0.118943
0.119689
0.120512
0.121443
0.122471
0.123617
0.124883
0.126286
0.127836
0.129556
0.131457
0.133556
0.135873
0.13843
0.14123
0.144326
0.147785
0.151695
0.156155
0.161255
0.16712
0.173919
0.181804
0.190966
0.201619
0.213953
0.228104
0.24448
0.263674
0.286163
0.312238
0.342245
0.375607
0.412328
0.452557
0.495419
0.537962
0.575696
0.606204
0.625759
0.637166
0.623273
0.62832
0.559273
0.114571
0.114512
0.11449
0.114496
0.11453
0.11462
0.114728
0.114894
0.115079
0.115322
0.115586
0.115913
0.116272
0.116706
0.117185
0.11775
0.118377
0.119101
0.119902
0.12081
0.121813
0.122933
0.124169
0.12554
0.127055
0.128736
0.130595
0.132651
0.134921
0.137417
0.140172
0.143203
0.146602
0.150451
0.154853
0.159901
0.165724
0.172499
0.180384
0.189583
0.20032
0.212794
0.227155
0.243831
0.263436
0.286469
0.313251
0.344163
0.378613
0.41659
0.458243
0.502665
0.546821
0.586134
0.61811
0.638877
0.651329
0.637731
0.644212
0.569938
0.113958
0.113913
0.113902
0.11392
0.113962
0.114058
0.11417
0.114338
0.114522
0.114764
0.115024
0.115349
0.115703
0.11613
0.1166
0.117154
0.117767
0.118475
0.119256
0.120142
0.121121
0.122212
0.123418
0.124755
0.126232
0.127872
0.129686
0.131692
0.133907
0.136355
0.139037
0.142007
0.145338
0.149119
0.153457
0.158447
0.164223
0.170969
0.17885
0.188081
0.198899
0.211513
0.226083
0.243063
0.263086
0.28667
0.314172
0.346008
0.381575
0.420838
0.463948
0.50996
0.555762
0.596691
0.630175
0.652203
0.665802
0.652445
0.660544
0.58001
0.113788
0.113719
0.113684
0.113674
0.113688
0.113755
0.113837
0.113974
0.114128
0.114339
0.114568
0.114862
0.115186
0.115585
0.116029
0.116557
0.117146
0.11783
0.118587
0.119448
0.1204
0.121462
0.122634
0.123935
0.125371
0.126966
0.128731
0.130684
0.132844
0.135222
0.137848
0.140741
0.143997
0.147701
0.151963
0.156882
0.162598
0.1693
0.177164
0.186413
0.197302
0.210043
0.224818
0.242094
0.262537
0.286674
0.314908
0.347679
0.384386
0.424959
0.469553
0.517189
0.564672
0.607251
0.642265
0.665576
0.680322
0.667134
0.677228
0.589298
0.112999
0.112952
0.112938
0.112951
0.112985
0.113072
0.113171
0.113324
0.113489
0.11371
0.113945
0.114242
0.114566
0.114962
0.115398
0.115916
0.11649
0.117156
0.117892
0.118729
0.119652
0.120683
0.121821
0.123082
0.124475
0.126022
0.127736
0.129632
0.131729
0.134048
0.136588
0.139407
0.142579
0.146198
0.150377
0.155218
0.160865
0.167517
0.175356
0.18462
0.195573
0.208442
0.223419
0.240996
0.261862
0.286562
0.315543
0.349267
0.387143
0.429061
0.475172
0.524463
0.57366
0.617928
0.654516
0.679152
0.695156
0.682058
0.694471
0.598072
0.112728
0.112652
0.112609
0.112592
0.112599
0.112659
0.112733
0.112862
0.113004
0.113201
0.113414
0.113687
0.113988
0.11436
0.114774
0.115269
0.11582
0.116463
0.117174
0.117985
0.11888
0.119878
0.120979
0.1222
0.123548
0.125045
0.126703
0.128539
0.130571
0.132808
0.135281
0.138008
0.141088
0.144612
0.148694
0.153442
0.159004
0.16559
0.173388
0.182651
0.193655
0.206639
0.221812
0.239682
0.260971
0.286235
0.31598
0.350672
0.389735
0.433022
0.480682
0.531662
0.582611
0.628604
0.666788
0.692769
0.710049
0.696962
0.712238
0.606499
0.111842
0.111789
0.111767
0.111774
0.111802
0.111884
0.111976
0.112124
0.11228
0.112492
0.112714
0.112997
0.113301
0.113676
0.114085
0.114573
0.115112
0.115739
0.11643
0.117216
0.118083
0.119049
0.120113
0.121291
0.122592
0.124036
0.125635
0.127405
0.129364
0.131533
0.133907
0.136545
0.139525
0.142943
0.14692
0.151564
0.157034
0.163543
0.171294
0.180547
0.191598
0.204693
0.220063
0.238227
0.259941
0.285784
0.316313
0.351991
0.392266
0.436959
0.486201
0.538903
0.591638
0.639398
0.679225
0.70659
0.725258
0.71209
0.730894
0.614998
0.111578
0.111493
0.111439
0.111411
0.111407
0.111457
0.111521
0.111638
0.111767
0.111951
0.112147
0.112403
0.112682
0.113031
0.113418
0.113882
0.114399
0.115003
0.115669
0.116429
0.117266
0.118198
0.119224
0.120359
0.12161
0.122998
0.124535
0.126237
0.128123
0.130199
0.132495
0.135025
0.137894
0.141194
0.145049
0.149574
0.154932
0.161348
0.169031
0.178258
0.189339
0.202533
0.218089
0.236539
0.258678
0.285104
0.316439
0.35311
0.394617
0.440742
0.4916
0.546062
0.600623
0.650185
0.691679
0.720449
0.740533
0.727281
0.750086
0.623444
0.110752
0.110685
0.110648
0.110637
0.110648
0.110712
0.110786
0.110915
0.111051
0.111241
0.111442
0.1117
0.111979
0.112326
0.112706
0.113161
0.113664
0.11425
0.114895
0.11563
0.116437
0.117334
0.11832
0.119409
0.120608
0.121938
0.123411
0.12504
0.126844
0.12884
0.131021
0.133447
0.136193
0.139364
0.143086
0.147483
0.152718
0.15903
0.166636
0.17583
0.186932
0.200221
0.21596
0.234699
0.257265
0.284293
0.316457
0.354142
0.3969
0.444493
0.497004
0.553257
0.609679
0.66109
0.704298
0.734513
0.756097
0.74285
0.769319
0.632007
0.110543
0.110441
0.110367
0.110318
0.110293
0.110321
0.110361
0.110455
0.11056
0.110718
0.110887
0.111115
0.111365
0.111683
0.112036
0.112465
0.112943
0.113505
0.114123
0.114829
0.115604
0.116465
0.117409
0.11845
0.119595
0.120864
0.122267
0.123821
0.125539
0.127427
0.129514
0.131809
0.134423
0.137452
0.141027
0.145275
0.150371
0.156558
0.164068
0.173207
0.184315
0.19768
0.213592
0.232608
0.255605
0.283241
0.316256
0.354966
0.39899
0.448077
0.502275
0.560362
0.618686
0.671983
0.716932
0.74862
0.771689
0.758603
0.788095
0.640693
0.109697
0.109616
0.109564
0.109537
0.10953
0.109577
0.109631
0.109739
0.109853
0.11002
0.110195
0.110426
0.110675
0.110991
0.111337
0.111755
0.112217
0.112759
0.113354
0.114032
0.114774
0.115597
0.116497
0.117488
0.118575
0.119779
0.121108
0.122576
0.124198
0.12599
0.127942
0.130112
0.132582
0.135458
0.138875
0.142964
0.147909
0.153961
0.161364
0.170439
0.181544
0.19498
0.211059
0.230355
0.253788
0.282051
0.315944
0.355698
0.401008
0.451625
0.507546
0.567498
0.627761
0.682993
0.729735
0.762943
0.787518
0.774691
0.806583
0.649766
0.109496
0.109383
0.109295
0.109231
0.10919
0.109201
0.109223
0.109298
0.109381
0.109517
0.109661
0.109862
0.110082
0.110369
0.110688
0.11108
0.111516
0.112031
0.112598
0.113245
0.113952
0.114735
0.115589
0.116526
0.117552
0.118684
0.119932
0.121309
0.122829
0.124494
0.126332
0.128354
0.130669
0.133379
0.136622
0.140535
0.145307
0.151204
0.158479
0.167469
0.178551
0.192041
0.208274
0.227841
0.251708
0.280606
0.315394
0.356207
0.402818
0.454991
0.512673
0.574533
0.636781
0.693987
0.742546
0.777317
0.803343
0.790897
0.824731
0.65914
0.108666
0.108574
0.108507
0.108464
0.10844
0.108469
0.108504
0.108592
0.108684
0.108829
0.108979
0.109184
0.109406