/*--------------------------------*- C++ -*----------------------------------*\
  =========                 |
  \\      /  F ield         | OpenFOAM: The Open Source CFD Toolbox
   \\    /   O peration     | Website:  https://openfoam.org
    \\  /    A nd           | Version:  6.0
     \\/     M anipulation  |
\*---------------------------------------------------------------------------*/
FoamFile
{
    version     2.0;
    format      ascii;
    class       volVectorField;
    location    "10";
    object      U;
}
// * * * * * * * * * * * * * * * * * * * * * * * * * * * * * * * * * * * * * //

dimensions      [0 1 -1 0 0 0 0];

internalField   nonuniform List<vector> 
62000
(
(1.00064 -0.00459495 -1.64175e-19)
(1.00043 -0.00453072 -8.79422e-19)
(1.00055 -0.00408517 1.13299e-19)
(1.00062 -0.00348983 -1.10088e-20)
(1.00066 -0.0028935 1.04703e-18)
(1.00069 -0.00223665 -8.71442e-20)
(1.00071 -0.00155192 -7.21153e-19)
(1.00072 -0.000849571 7.78437e-19)
(1.00072 -0.000144106 -9.60782e-19)
(1.00071 0.000552135 -7.01332e-19)
(1.00069 0.00122761 4.07262e-19)
(1.00067 0.00187277 1.20796e-18)
(1.00064 0.00247869 -7.89756e-19)
(1.0006 0.00304042 8.70738e-19)
(1.00055 0.0035518 -9.36959e-19)
(1.00049 0.00401213 1.53207e-18)
(1.00042 0.00441802 -2.01359e-18)
(1.00034 0.00477185 4.87898e-19)
(1.00024 0.00507277 1.88863e-19)
(1.00013 0.00532413 1.14637e-19)
(1.00001 0.00552655 -1.88921e-18)
(0.999882 0.00568272 9.88161e-19)
(0.999742 0.0057936 -1.25589e-19)
(0.999597 0.00586028 3.2921e-19)
(0.999449 0.00588339 -4.74658e-19)
(0.999305 0.00586313 -2.01316e-18)
(0.999168 0.00579895 2.22663e-18)
(0.999045 0.00568981 2.36945e-19)
(0.99894 0.00553358 3.62596e-19)
(0.99886 0.00532699 -2.39477e-18)
(0.998806 0.00507033 1.70305e-18)
(0.998789 0.0047738 -4.34932e-18)
(0.998813 0.00443919 -1.11865e-18)
(0.99888 0.00407274 3.94483e-19)
(0.998992 0.00368417 8.27965e-19)
(0.999146 0.00328995 -4.30958e-18)
(0.999338 0.00291084 9.51168e-19)
(0.999553 0.00257036 8.1191e-19)
(0.999773 0.0022898 1.07069e-18)
(0.999968 0.00208359 -1.57836e-18)
(1.0001 0.00195039 -1.22623e-18)
(1.00013 0.00186983 3.24471e-20)
(0.99999 0.00178358 -1.06445e-18)
(0.999636 0.00151865 2.08236e-18)
(0.999037 0.000902415 3.3371e-18)
(0.998195 -0.000209336 -5.8505e-18)
(0.997175 -0.00185915 1.06948e-17)
(0.996102 -0.00388089 1.38994e-17)
(0.995124 -0.00585737 -5.18085e-18)
(0.994322 -0.00726858 1.37493e-17)
(0.993577 -0.00783066 1.9576e-17)
(0.992516 -0.0078913 2.61216e-17)
(0.990642 -0.00857323 5.14494e-18)
(0.987637 -0.0113638 8.93127e-18)
(0.983593 -0.0178643 1.73178e-17)
(0.979466 -0.028988 4.4994e-17)
(0.976526 -0.0452186 7.19135e-18)
(0.973631 -0.0684952 8.60555e-17)
(0.986231 -0.18644 -8.33596e-17)
(0.559461 -0.822038 4.53145e-17)
(1.00075 -0.00946463 -8.16926e-20)
(1.00109 -0.00953379 5.41143e-19)
(1.00155 -0.00956976 -2.37304e-19)
(1.00202 -0.00919144 2.97525e-19)
(1.00237 -0.00878039 7.13675e-19)
(1.00267 -0.00818225 -8.47672e-20)
(1.00291 -0.00743534 -8.22556e-19)
(1.00311 -0.00654486 -4.94638e-20)
(1.00326 -0.00552405 7.12364e-19)
(1.00337 -0.00438912 -1.21219e-18)
(1.00345 -0.00316076 -4.61916e-19)
(1.00352 -0.00185874 1.61458e-18)
(1.00357 -0.000507806 -1.20337e-18)
(1.00361 0.000872716 8.343e-19)
(1.00364 0.00225743 -1.20382e-18)
(1.00366 0.00363108 6.80196e-19)
(1.00367 0.00497088 -2.93541e-19)
(1.00367 0.00626769 -2.35024e-19)
(1.00364 0.00750435 2.28046e-19)
(1.00359 0.00867644 -4.97345e-20)
(1.00351 0.00977312 5.01135e-19)
(1.00339 0.0107928 -5.9607e-19)
(1.00324 0.0117295 -4.66573e-19)
(1.00304 0.0125827 6.0223e-19)
(1.0028 0.0133492 -1.76191e-18)
(1.00253 0.014028 -3.44099e-19)
(1.00222 0.0146166 3.76218e-18)
(1.0019 0.0151067 -1.5813e-18)
(1.00155 0.015486 3.65202e-18)
(1.00119 0.0157299 -3.01854e-19)
(1.00083 0.0158298 -2.38717e-18)
(1.0005 0.01579 8.00951e-19)
(1.00021 0.0155961 1.02245e-19)
(0.999963 0.0152338 1.40243e-18)
(0.999782 0.0146841 -3.14817e-18)
(0.999671 0.0139386 9.74861e-19)
(0.999634 0.0129934 1.26901e-18)
(0.99966 0.011852 -6.54047e-19)
(0.999728 0.0105184 4.15044e-19)
(0.999798 0.00899925 1.91916e-19)
(0.999815 0.00729325 1.61367e-18)
(0.999704 0.0054015 -2.278e-19)
(0.999356 0.00326069 9.2504e-19)
(0.998705 0.000650456 9.92371e-19)
(0.99779 -0.00248132 -6.1903e-18)
(0.996709 -0.00598704 4.37322e-18)
(0.995652 -0.00946681 -1.49897e-17)
(0.99486 -0.012178 -7.98996e-18)
(0.994468 -0.0132 -3.65814e-18)
(0.99434 -0.0119746 -1.6675e-18)
(0.993883 -0.00883147 -2.20095e-17)
(0.992129 -0.00547375 -2.57322e-17)
(0.9882 -0.00479781 1.92909e-18)
(0.981762 -0.00954473 -3.6389e-18)
(0.973589 -0.0225356 -1.85539e-17)
(0.966423 -0.0439273 6.79966e-18)
(0.962077 -0.0723672 8.73443e-18)
(0.957498 -0.111618 -1.503e-17)
(0.935698 -0.254764 1.27486e-16)
(1.05293 -0.256392 -3.70534e-17)
(0.999859 -0.00032204 1.11918e-18)
(1.00038 -0.000996647 -3.37835e-19)
(1.00086 -0.00179651 -1.83381e-19)
(1.0014 -0.00229825 -8.58878e-20)
(1.00185 -0.00281738 2.65618e-18)
(1.00227 -0.00319072 -2.21034e-18)
(1.00262 -0.00341968 -8.66036e-19)
(1.00291 -0.00348369 5.56082e-19)
(1.00313 -0.00336443 1.53987e-18)
(1.00329 -0.00305347 6.81912e-19)
(1.00341 -0.00254781 -2.68464e-18)
(1.00347 -0.00185099 -1.33539e-18)
(1.00351 -0.00097427 1.24637e-18)
(1.00353 6.87158e-05 -5.00015e-19)
(1.00353 0.0012543 7.88939e-20)
(1.00353 0.00256308 2.27455e-18)
(1.00354 0.00396395 -2.26911e-18)
(1.00354 0.00543724 2.25645e-18)
(1.00355 0.00695084 -2.87742e-19)
(1.00355 0.00848764 1.6152e-18)
(1.00355 0.0100199 -7.24597e-19)
(1.00353 0.0115343 -1.37872e-18)
(1.00348 0.0130095 3.88872e-19)
(1.0034 0.0144365 1.79204e-18)
(1.00328 0.0157992 -1.3617e-18)
(1.00311 0.0170914 1.89549e-18)
(1.00291 0.0183017 -1.27042e-19)
(1.00265 0.0194138 -1.02991e-18)
(1.00235 0.0204027 -2.53398e-18)
(1.00201 0.021229 2.78204e-18)
(1.00162 0.0218729 4.9777e-19)
(1.00122 0.022323 7.21102e-19)
(1.00082 0.0225532 -2.02613e-18)
(1.00043 0.0225204 2.54693e-18)
(1.00007 0.0221734 -2.09654e-19)
(0.999755 0.0214682 1.95466e-18)
(0.999485 0.0203621 -1.39663e-19)
(0.999262 0.0188201 5.31448e-19)
(0.999079 0.0168116 -1.36302e-18)
(0.998903 0.014321 3.02711e-19)
(0.998698 0.0113446 -1.19708e-18)
(0.9984 0.00791653 6.04136e-20)
(0.997887 0.00398472 -1.53944e-18)
(0.997122 -0.000483279 -4.28392e-18)
(0.996216 -0.00532612 2.90208e-18)
(0.99532 -0.0100679 -7.36049e-19)
(0.99468 -0.0139476 1.19331e-18)
(0.994568 -0.0158953 -7.91027e-18)
(0.995106 -0.0148509 -6.86532e-19)
(0.996111 -0.0104866 -4.61336e-20)
(0.996891 -0.00365659 -2.72174e-17)
(0.996375 0.00323349 -1.00319e-17)
(0.993621 0.00664426 1.43073e-17)
(0.988162 0.00368304 1.49043e-17)
(0.981022 -0.00849117 1.66064e-17)
(0.974975 -0.0297037 -8.09292e-17)
(0.971488 -0.0573429 2.76651e-17)
(0.96585 -0.09392 -4.57636e-17)
(0.963733 -0.162097 -2.66569e-16)
(0.916369 -0.373391 2.74009e-17)
(0.999259 0.012335 9.52478e-19)
(0.999546 0.0115513 -6.50209e-19)
(0.99977 0.0106667 4.41213e-19)
(1.00011 0.0098588 6.48087e-19)
(1.00043 0.00891878 -1.34473e-18)
(1.00077 0.0079801 -1.36226e-18)
(1.00108 0.00705906 1.06283e-18)
(1.00136 0.00619164 1.74353e-19)
(1.00159 0.00541841 3.83267e-19)
(1.00175 0.00477378 -1.49684e-18)
(1.00185 0.00428941 -4.40838e-19)
(1.00189 0.00399186 3.08634e-19)
(1.00188 0.00389912 9.93295e-19)
(1.00181 0.00402388 1.2328e-19)
(1.00172 0.0043663 1.56514e-18)
(1.0016 0.00492439 -2.96328e-18)
(1.00146 0.0056818 1.2195e-18)
(1.00134 0.00662532 1.3611e-18)
(1.00122 0.00772664 -3.30234e-18)
(1.00112 0.00896623 3.45829e-18)
(1.00103 0.0103112 -3.69974e-19)
(1.00097 0.0117398 -3.3244e-18)
(1.00091 0.0132197 -8.14419e-19)
(1.00085 0.0147332 1.36333e-18)
(1.0008 0.01625 7.41894e-20)
(1.00073 0.017757 -1.9818e-18)
(1.00064 0.0192311 2.94187e-18)
(1.00053 0.0206487 -1.5349e-18)
(1.00038 0.0219731 2.21007e-19)
(1.00018 0.0231529 5.29132e-19)
(0.999944 0.0241616 3.40959e-19)
(0.999678 0.0249781 8.37775e-19)
(0.999392 0.0255658 3.34303e-19)
(0.999094 0.0258628 -1.50556e-18)
(0.998791 0.0257961 -6.17854e-19)
(0.998492 0.0252962 5.43582e-19)
(0.998204 0.0242915 -3.75088e-18)
(0.997927 0.022717 -1.12821e-19)
(0.997653 0.0205135 7.25114e-19)
(0.997357 0.0176431 -2.31475e-18)
(0.997008 0.0140941 -4.23327e-19)
(0.996546 0.00991746 -1.64958e-19)
(0.995851 0.00503941 2.89729e-18)
(0.994897 -0.000326787 7.71942e-19)
(0.993813 -0.00588051 5.71877e-18)
(0.992752 -0.010977 -1.98119e-18)
(0.991979 -0.0147067 7.74396e-18)
(0.991798 -0.0159188 2.52913e-19)
(0.992392 -0.0136006 3.05246e-17)
(0.993699 -0.00764816 -5.63319e-18)
(0.99517 0.000801953 5.21795e-17)
(0.995843 0.00912893 3.98452e-17)
(0.994763 0.0136962 -2.10712e-17)
(0.991184 0.0117255 1.93648e-17)
(0.986013 0.000449665 3.32547e-17)
(0.981493 -0.0203356 3.39806e-17)
(0.978468 -0.0479959 1.27547e-17)
(0.970832 -0.0849248 1.59194e-17)
(0.953155 -0.166732 1.72369e-16)
(0.9648 -0.36689 -4.025e-17)
(0.999798 0.0215621 -9.92427e-19)
(0.999753 0.0211516 -1.91083e-18)
(0.999659 0.0207006 2.83422e-20)
(0.999709 0.0202079 3.15081e-19)
(0.999796 0.0195109 -1.54832e-18)
(0.999946 0.0187024 2.68464e-18)
(1.00013 0.017788 -2.86519e-19)
(1.00032 0.0167932 1.51697e-18)
(1.00049 0.0157553 6.84727e-19)
(1.00063 0.0147114 -3.67991e-18)
(1.00072 0.0137033 1.71184e-18)
(1.00075 0.0127729 -1.58422e-19)
(1.0007 0.0119594 -4.68912e-20)
(1.00058 0.0112999 2.28433e-18)
(1.00039 0.0108213 -2.22419e-18)
(1.00015 0.0105481 4.6708e-19)
(0.999858 0.0104901 -5.73891e-19)
(0.999539 0.0106562 7.39479e-19)
(0.999207 0.0110374 -1.14342e-18)
(0.998879 0.0116283 1.87664e-18)
(0.998567 0.012406 -2.07312e-18)
(0.998282 0.0133531 1.75351e-18)
(0.99803 0.0144386 2.70433e-18)
(0.997816 0.0156426 -2.754e-18)
(0.997636 0.0169287 -8.36936e-19)
(0.997491 0.0182801 3.86014e-18)
(0.997373 0.0196653 -3.60948e-18)
(0.997274 0.0210547 1.11158e-18)
(0.997181 0.0224035 -3.10715e-18)
(0.99708 0.0236532 4.37071e-18)
(0.996968 0.0247728 -1.84865e-18)
(0.996852 0.0257353 -2.35797e-18)
(0.996732 0.0265018 -5.0706e-18)
(0.996604 0.0269986 1.54003e-18)
(0.996467 0.0271419 3.46295e-19)
(0.996321 0.0268498 -4.974e-19)
(0.996163 0.0260342 3.66347e-18)
(0.995984 0.024613 3.30986e-18)
(0.995765 0.0225085 -8.16044e-19)
(0.995476 0.0196653 1.36966e-18)
(0.995071 0.0160616 -4.25414e-19)
(0.994473 0.0117484 -2.80003e-19)
(0.993567 0.00661074 -2.55469e-18)
(0.992319 0.00106177 -5.15678e-18)
(0.990811 -0.00453368 -3.15874e-18)
(0.989166 -0.00951045 -5.0795e-18)
(0.987635 -0.0129802 -2.1192e-18)
(0.986536 -0.0138819 4.79583e-18)
(0.986136 -0.0113667 4.71772e-18)
(0.986544 -0.00555041 -1.02836e-17)
(0.98745 0.0022838 -2.04596e-18)
(0.988119 0.00953798 -2.15856e-17)
(0.987684 0.0127259 -1.78147e-18)
(0.985196 0.00927202 -1.98755e-17)
(0.981411 -0.00354553 2.75955e-17)
(0.978102 -0.0265068 -1.21887e-17)
(0.975466 -0.0574418 -1.72052e-18)
(0.966549 -0.0996891 -6.08592e-18)
(0.940392 -0.204353 1.08857e-16)
(0.958709 -0.397673 1.82127e-17)
(1.00125 0.027315 -6.63474e-19)
(1.00091 0.0272853 8.03054e-19)
(1.00052 0.0272984 1.33447e-18)
(1.00027 0.0272509 -1.26184e-19)
(1.00008 0.0270056 -8.65643e-19)
(0.999993 0.0266205 -9.92641e-19)
(0.999978 0.0260824 -3.6977e-19)
(1.00002 0.0253954 -1.78109e-18)
(1.0001 0.0245771 2.39538e-18)
(1.00019 0.0236486 2.23242e-18)
(1.00027 0.0226396 -2.76428e-18)
(1.00031 0.0215863 1.58993e-18)
(1.00029 0.0205276 -5.34523e-19)
(1.0002 0.0195067 1.35924e-18)
(1.00003 0.0185626 -2.31447e-19)
(0.999773 0.0177363 -6.79899e-19)
(0.999432 0.0170583 -3.68458e-18)
(0.99902 0.0165594 5.61941e-18)
(0.998547 0.0162543 -2.75667e-18)
(0.998038 0.0161591 1.84127e-18)
(0.997508 0.0162709 -2.78492e-18)
(0.99698 0.0165877 2.1301e-18)
(0.996471 0.0170923 -1.93866e-18)
(0.995998 0.0177719 -1.18507e-18)
(0.995571 0.0185952 3.92661e-20)
(0.995203 0.0195484 3.33447e-20)
(0.994896 0.0205986 1.88131e-18)
(0.99465 0.0217157 3.23632e-18)
(0.994456 0.022851 -1.04562e-18)
(0.994301 0.0239426 1.377e-18)
(0.994184 0.0249593 -9.98128e-19)
(0.994105 0.0258733 1.64466e-19)
(0.99406 0.026645 6.42423e-18)
(0.994038 0.0271972 -3.48038e-19)
(0.994026 0.0274434 4.12563e-18)
(0.994015 0.0272986 -2.55458e-18)
(0.993991 0.0266683 -5.95772e-18)
(0.993929 0.0254641 -3.33431e-18)
(0.993797 0.0235982 -6.50293e-19)
(0.993547 0.0210041 1.18277e-19)
(0.993111 0.0176511 4.17893e-19)
(0.992384 0.0135803 1.2882e-20)
(0.991257 0.00863663 -3.43037e-19)
(0.989683 0.00335378 4.54084e-18)
(0.987665 -0.00188305 -4.67561e-18)
(0.985264 -0.00648375 6.10572e-18)
(0.982701 -0.00968126 -1.57617e-18)
(0.980285 -0.0106006 -1.12015e-17)
(0.978349 -0.00861845 -1.83757e-17)
(0.977167 -0.00406202 2.40692e-17)
(0.976691 0.00171793 -2.10996e-17)
(0.976479 0.00627959 2.19485e-17)
(0.975847 0.00644025 6.44759e-18)
(0.973771 -9.61834e-05 -8.10667e-18)
(0.970948 -0.0159249 -1.33816e-16)
(0.968873 -0.0422597 4.03748e-17)
(0.967239 -0.0772133 -3.87799e-17)
(0.958571 -0.124708 3.07774e-17)
(0.92998 -0.240536 3.28551e-17)
(0.969078 -0.412503 -1.9701e-17)
(1.00299 0.0308555 -4.21213e-18)
(1.00244 0.0310987 2.41477e-18)
(1.00184 0.0314513 9.81142e-19)
(1.00135 0.0317655 8.16497e-19)
(1.00092 0.0319239 -1.9287e-18)
(1.00059 0.0319634 -2.18543e-18)
(1.00035 0.0318587 4.71725e-18)
(1.0002 0.0315973 -6.39804e-19)
(1.00012 0.0311783 5.8233e-19)
(1.0001 0.0306041 -4.0767e-18)
(1.00011 0.0298857 2.80763e-18)
(1.00014 0.0290428 -1.57704e-18)
(1.00016 0.0281006 -2.16097e-18)
(1.00013 0.0270929 4.45076e-18)
(1.00004 0.0260541 -8.01295e-19)
(0.999872 0.0250263 -1.70017e-18)
(0.999609 0.0240456 -2.10496e-18)
(0.99925 0.0231541 6.61672e-18)
(0.998795 0.022381 -3.1655e-18)
(0.998258 0.02176 -3.1913e-18)
(0.997653 0.0213069 3.68961e-18)
(0.997002 0.0210387 -2.86485e-19)
(0.996327 0.0209563 -2.063e-20)
(0.995654 0.0210618 -1.50495e-18)
(0.995001 0.0213375 7.01499e-19)
(0.994396 0.0217797 -2.93192e-18)
(0.993852 0.0223622 -2.51149e-18)
(0.993383 0.0230604 7.71377e-19)
(0.992988 0.023828 2.85836e-18)
(0.992665 0.0246057 1.90894e-18)
(0.992416 0.0253653 1.95306e-18)
(0.992244 0.0260813 -1.7462e-18)
(0.992145 0.0267185 7.14666e-19)
(0.992104 0.0272007 1.87383e-18)
(0.992103 0.0274448 -3.13221e-18)
(0.992124 0.0273688 -2.37951e-19)
(0.992143 0.0268792 -3.69793e-19)
(0.992125 0.0258893 2.3701e-18)
(0.992022 0.0243082 -3.58772e-19)
(0.991768 0.022064 1.15712e-18)
(0.991273 0.0191209 7.29218e-20)
(0.990404 0.0155049 -2.0547e-19)
(0.989068 0.0110324 1.9392e-18)
(0.987207 0.00627753 -1.13455e-18)
(0.98474 0.00162267 5.7083e-18)
(0.981656 -0.00246721 -2.26351e-19)
(0.978139 -0.00539137 2.1338e-17)
(0.974472 -0.00649601 1.27987e-17)
(0.97103 -0.00539375 -1.29719e-19)
(0.968218 -0.00259255 -3.47061e-17)
(0.966223 0.000550395 4.21245e-18)
(0.964894 0.00182755 -2.3924e-17)
(0.963768 -0.00155646 3.50725e-17)
(0.961844 -0.0115531 -6.8666e-18)
(0.959836 -0.0305373 4.94304e-17)
(0.959115 -0.0599411 -3.7263e-17)
(0.958966 -0.0979609 -1.3648e-17)
(0.951429 -0.148596 -8.44089e-17)
(0.924291 -0.26451 -3.27145e-16)
(0.980026 -0.421568 3.49318e-17)
(1.0048 0.033289 1.65808e-18)
(1.00414 0.0336539 3.16974e-18)
(1.0034 0.0341891 -1.74722e-18)
(1.00273 0.0347149 -2.24705e-18)
(1.0021 0.0351387 -6.66009e-19)
(1.00155 0.0354858 2.6672e-18)
(1.00109 0.035727 1.08934e-18)
(1.00073 0.035841 1.01003e-18)
(1.00045 0.035815 -1.31822e-18)
(1.00026 0.0356371 9.79719e-19)
(1.00014 0.035302 -1.65683e-18)
(1.00009 0.034812 -3.07211e-18)
(1.00007 0.0341751 4.00141e-18)
(1.00005 0.033409 -1.44687e-18)
(1.00002 0.0325345 -9.62381e-20)
(0.999941 0.0315831 -3.82777e-18)
(0.999794 0.0305851 2.45693e-18)
(0.99956 0.0295803 1.04631e-18)
(0.999225 0.0286018 -2.07936e-18)
(0.99879 0.0276901 6.35449e-18)
(0.998255 0.0268723 -2.41902e-18)
(0.997633 0.0261791 -5.34515e-18)
(0.996941 0.0256272 5.37978e-18)
(0.996203 0.025234 -6.28548e-18)
(0.995442 0.0249986 1.48556e-18)
(0.994691 0.0249306 3.67698e-18)
(0.993972 0.0250167 2.39192e-19)
(0.993309 0.0252431 -2.40798e-18)
(0.992714 0.025571 1.42046e-18)
(0.992192 0.0259492 -5.7347e-20)
(0.991756 0.0263567 -3.34682e-18)
(0.991416 0.0267749 -9.72356e-19)
(0.991172 0.0271754 -1.92001e-18)
(0.991009 0.0274874 -2.6275e-18)
(0.99091 0.0276359 -1.57404e-18)
(0.990853 0.0275462 3.9998e-18)
(0.990808 0.0271314 -1.4467e-19)
(0.990732 0.0263116 -2.00983e-18)
(0.990569 0.0249984 3.13151e-18)
(0.990239 0.0231201 -1.39149e-18)
(0.989635 0.0206396 6.98525e-20)
(0.988607 0.0175659 -3.32872e-19)
(0.987083 0.0137004 -4.2659e-18)
(0.985009 0.00959096 1.21569e-18)
(0.982227 0.00560339 2.53841e-18)
(0.978657 0.00205884 3.38725e-18)
(0.974447 -0.000616471 -9.4717e-18)
(0.969848 -0.00198512 1.08705e-17)
(0.965251 -0.00187295 -3.73242e-17)
(0.961151 -0.000923089 7.66635e-18)
(0.957916 -0.000451072 1.57818e-17)
(0.955639 -0.00238924 -1.45135e-17)
(0.954066 -0.00911159 -4.59986e-17)
(0.952264 -0.0222143 2.25557e-17)
(0.951011 -0.0438092 2.00118e-17)
(0.951665 -0.0753864 -9.66015e-17)
(0.953149 -0.115089 -2.99517e-17)
(0.946813 -0.166726 9.91839e-17)
(0.921657 -0.278286 3.10028e-16)
(0.990759 -0.42598 -3.31564e-17)
(1.00651 0.035 -3.6169e-18)
(1.0058 0.0354371 4.26737e-18)
(1.005 0.0360734 -2.38333e-18)
(1.00423 0.0367207 -2.92734e-19)
(1.00348 0.037308 1.34332e-18)
(1.00277 0.0378559 -6.97921e-19)
(1.00214 0.0383372 2.59263e-18)
(1.00158 0.038729 1.25466e-18)
(1.0011 0.0390145 -1.94431e-18)
(1.00072 0.0391751 -3.82206e-18)
(1.00042 0.039196 4.34901e-18)
(1.00021 0.0390677 3.10251e-19)
(1.00008 0.0387841 -2.50839e-19)
(0.999994 0.0383482 -5.55404e-19)
(0.999938 0.0377656 2.72688e-18)
(0.999885 0.0370535 -3.62817e-18)
(0.999806 0.0362293 3.94232e-18)
(0.999677 0.0353235 -6.37379e-18)
(0.999471 0.0343626 2.60863e-18)
(0.999176 0.0333847 -1.21484e-18)
(0.998778 0.0324183 5.70959e-20)
(0.998278 0.0314999 -2.81263e-18)
(0.997681 0.0306548 7.15625e-18)
(0.997002 0.0299113 -1.97318e-18)
(0.996259 0.0292821 1.99363e-18)
(0.995481 0.0287903 -2.89141e-18)
(0.994693 0.0284362 -3.41906e-18)
(0.993925 0.0282188 3.36205e-18)
(0.993194 0.0281111 -9.3877e-19)
(0.992514 0.028073 -5.67156e-19)
(0.991906 0.0280942 8.91683e-19)
(0.991388 0.0281661 2.41501e-18)
(0.990967 0.0282698 -1.03818e-19)
(0.990633 0.0283439 4.70056e-18)
(0.990372 0.0283238 -3.62213e-18)
(0.990161 0.0281457 2.29837e-18)
(0.989971 0.0277326 1.01916e-18)
(0.989756 0.0270155 1.19224e-18)
(0.989455 0.0259123 -9.5705e-19)
(0.988985 0.024356 1.89578e-19)
(0.988227 0.0223116 7.70576e-19)
(0.987028 0.0197715 1.63905e-19)
(0.985341 0.016534 1.98283e-18)
(0.983127 0.0130734 -1.26965e-19)
(0.980174 0.00972772 -3.2043e-18)
(0.976334 0.00667675 -8.99932e-20)
(0.97173 0.0041855 -1.12281e-17)
(0.966574 0.00250088 -1.08096e-17)
(0.96126 0.00162484 3.76965e-17)
(0.956327 0.000826348 -5.42178e-18)
(0.952267 -0.00113362 2.55918e-18)
(0.949355 -0.00590458 -8.23859e-18)
(0.947504 -0.0154514 1.76958e-17)
(0.945863 -0.0310339 -4.8649e-17)
(0.94529 -0.0545102 -1.8057e-17)
(0.947168 -0.0873578 1.06774e-16)
(0.950069 -0.127704 7.087e-18)
(0.944516 -0.179208 7.77604e-17)
(0.921169 -0.285302 -6.6825e-17)
(0.999896 -0.427682 6.07698e-17)
(1.00813 0.0363923 -1.87902e-19)
(1.0074 0.0368294 -3.44636e-18)
(1.00658 0.037491 1.58356e-18)
(1.00575 0.0381765 -1.93617e-18)
(1.00493 0.0388375 2.05322e-18)
(1.00413 0.0394916 -9.83929e-19)
(1.00336 0.040116 3.89095e-18)
(1.00265 0.0406893 -2.44651e-18)
(1.00201 0.0411947 3.07696e-18)
(1.00145 0.0416114 -1.50276e-18)
(1.00097 0.0419203 -3.99565e-19)
(1.00059 0.042105 1.23335e-18)
(1.00029 0.0421506 -3.85996e-18)
(1.00008 0.0420489 6.87355e-18)
(0.999925 0.0417933 3.27432e-19)
(0.999817 0.0413875 -1.15913e-19)
(0.999728 0.0408357 -4.99808e-18)
(0.999632 0.0401557 3.50093e-18)
(0.999499 0.0393633 -4.50963e-18)
(0.99931 0.0384879 3.00368e-18)
(0.999041 0.0375529 4.43067e-19)
(0.998679 0.0365923 2.20796e-18)
(0.998219 0.0356331 -2.24421e-18)
(0.997661 0.034708 -3.84354e-18)
(0.997014 0.0338376 2.94336e-18)
(0.9963 0.0330541 2.5097e-18)
(0.995539 0.0323693 -2.74924e-18)
(0.994757 0.0317942 3.0538e-19)
(0.993973 0.0313131 1.47498e-18)
(0.993205 0.0308993 -4.73947e-18)
(0.992478 0.030554 9.85568e-19)
(0.991817 0.0302802 2.88842e-19)
(0.991236 0.0300706 -6.30709e-19)
(0.99073 0.0298748 -1.03516e-18)
(0.990288 0.0296412 -1.16954e-18)
(0.989892 0.0293178 -4.44508e-19)
(0.989515 0.0288405 1.0091e-21)
(0.989114 0.0281528 -8.2394e-19)
(0.988628 0.0271821 2.58663e-18)
(0.987974 0.0258692 -6.05258e-19)
(0.987036 0.0241838 -2.80338e-19)
(0.985662 0.0221034 4.85081e-19)
(0.983835 0.0194317 2.49562e-18)
(0.98154 0.0165427 2.06906e-18)
(0.978532 0.0137362 -3.8003e-18)
(0.974602 0.0110661 4.7159e-18)
(0.969857 0.00865883 -3.70687e-18)
(0.964472 0.00660738 -1.60101e-17)
(0.958828 0.0047827 -2.35235e-17)
(0.953483 0.00241223 3.25663e-17)
(0.948996 -0.00164698 -2.89228e-17)
(0.945757 -0.00877296 1.47298e-17)
(0.943801 -0.0205567 -5.99114e-17)
(0.942354 -0.0379713 -8.11879e-18)
(0.942346 -0.0626712 -2.76851e-17)
(0.945206 -0.0961103 5.91715e-18)
(0.949157 -0.136464 5.18746e-17)
(0.94378 -0.187324 -8.27812e-17)
(0.921268 -0.288577 -1.42578e-16)
(1.00716 -0.428715 -8.45599e-17)
(1.00954 0.0374778 -7.45432e-19)
(1.00885 0.0379213 7.41367e-19)
(1.00804 0.0385913 1.56122e-18)
(1.00722 0.0392888 1.44394e-18)
(1.00637 0.039983 -2.64379e-18)
(1.00552 0.0406902 -1.09261e-18)
(1.00468 0.0413928 2.68973e-18)
(1.00387 0.0420734 1.69844e-18)
(1.00311 0.0427182 -3.49734e-18)
(1.0024 0.0433083 4.14583e-18)
(1.00177 0.0438244 -2.4054e-18)
(1.00122 0.0442486 -3.7777e-18)
(1.00075 0.0445617 2.94253e-18)
(1.00038 0.0447494 3.10672e-19)
(1.00008 0.0447968 -4.78933e-18)
(0.99986 0.0446978 3.30926e-18)
(0.999691 0.044445 1.14689e-18)
(0.999554 0.0440444 -5.13154e-19)
(0.999421 0.0435004 7.61299e-19)
(0.999271 0.0428313 2.58581e-18)
(0.999076 0.0420512 -5.62056e-18)
(0.998817 0.0411874 3.11007e-18)
(0.998475 0.0402623 -9.97174e-19)
(0.998044 0.0393076 6.29083e-18)
(0.997519 0.0383453 -5.0575e-18)
(0.996911 0.0374121 1.59235e-18)
(0.996231 0.0365264 -4.08344e-18)
(0.995499 0.0357077 2.70326e-18)
(0.994731 0.0349508 -1.09258e-18)
(0.993941 0.0342397 3.71817e-18)
(0.993157 0.0335869 1.76762e-18)
(0.992405 0.0330075 -4.52546e-18)
(0.991704 0.0325053 2.41287e-18)
(0.991053 0.032042 -8.14235e-20)
(0.990445 0.0315791 -1.66215e-18)
(0.989868 0.0310776 2.50345e-18)
(0.989298 0.0304866 3.21413e-19)
(0.988696 0.0297631 8.03984e-19)
(0.988006 0.0288458 -2.37251e-18)
(0.987154 0.0276849 9.11859e-19)
(0.986026 0.0262568 -5.51432e-19)
(0.984484 0.0245263 -3.01792e-20)
(0.982536 0.0223081 -1.66824e-18)
(0.980198 0.0198662 -3.32227e-19)
(0.977212 0.0174527 -1.00327e-18)
(0.973317 0.0150179 -5.37853e-18)
(0.968609 0.0125756 -3.11959e-18)
(0.963234 0.0101023 1.5938e-17)
(0.95755 0.00737714 2.92202e-17)
(0.952114 0.0036232 -1.56188e-17)
(0.947507 -0.00219669 2.29265e-17)
(0.944185 -0.011215 1.91015e-17)
(0.942255 -0.0247004 3.35791e-17)
(0.941005 -0.0433941 9.46683e-17)
(0.94142 -0.0688077 6.24089e-17)
(0.944974 -0.10239 -1.11064e-17)
(0.94956 -0.142456 -1.63451e-16)
(0.943821 -0.192678 -4.459e-17)
(0.921799 -0.289889 -2.16711e-17)
(1.01273 -0.429395 7.18533e-17)
(1.01085 0.0384806 2.29254e-18)
(1.01018 0.0388915 -2.39374e-18)
(1.0094 0.0395355 -8.85128e-19)
(1.00858 0.0402074 5.18608e-18)
(1.00773 0.0408937 -3.95249e-18)
(1.00687 0.0416087 -1.97583e-18)
(1.006 0.0423393 4.01475e-18)
(1.00513 0.0430717 -4.37157e-18)
(1.00429 0.0437954 4.19161e-18)
(1.00348 0.0444939 1.51417e-18)
(1.00273 0.0451499 -1.68559e-18)
(1.00204 0.0457459 -2.7212e-18)
(1.00142 0.0462619 2.16714e-18)
(1.00089 0.0466808 -1.66848e-18)
(1.00044 0.0469835 4.58287e-19)
(1.00008 0.0471575 -8.22034e-19)
(0.999787 0.0471875 2.06374e-18)
(0.999554 0.0470702 2.77126e-18)
(0.999359 0.0468001 -7.76163e-18)
(0.999182 0.0463849 5.10516e-18)
(0.998996 0.0458288 -3.1742e-18)
(0.998779 0.0451501 -2.86787e-18)
(0.998509 0.0443636 3.5073e-18)
(0.99817 0.0434956 -1.26515e-19)
(0.997748 0.0425654 -1.90605e-18)
(0.997246 0.0416088 4.17808e-19)
(0.996663 0.0406466 4.18648e-18)
(0.99601 0.0397027 6.86898e-19)
(0.995296 0.038778 -2.96834e-18)
(0.99453 0.0378657 2.1604e-18)
(0.993738 0.036987 -3.06387e-18)
(0.992944 0.0361665 3.46277e-18)
(0.992167 0.0354191 2.18008e-18)
(0.99141 0.0347178 1.05518e-18)
(0.990668 0.0340359 4.30455e-20)
(0.989934 0.0333472 9.15469e-19)
(0.989186 0.0326131 -2.21902e-18)
(0.988393 0.0318045 -2.51275e-18)
(0.987505 0.0308714 7.31911e-19)
(0.986456 0.0297746 8.13905e-19)
(0.985145 0.0284975 3.72259e-19)
(0.98345 0.0269949 4.29932e-20)
(0.981396 0.0250955 -3.74158e-18)
(0.979033 0.0229564 -1.21003e-18)
(0.976109 0.0207749 1.8578e-18)
(0.972319 0.018422 2.74809e-18)
(0.967755 0.0158237 1.58008e-17)
(0.962537 0.0128746 -2.28814e-18)
(0.957 0.00929426 8.09861e-18)
(0.951684 0.00432775 3.69609e-17)
(0.947164 -0.00295306 -2.65996e-18)
(0.943921 -0.0134657 -1.11757e-17)
(0.942092 -0.0282079 2.72035e-17)
(0.94101 -0.0477501 1.49534e-17)
(0.941707 -0.0735254 2.60313e-17)
(0.945688 -0.107007 9.12257e-17)
(0.950546 -0.146697 1.34227e-16)
(0.944003 -0.196408 1.39452e-17)
(0.921683 -0.29056 2.21016e-16)
(1.01698 -0.430696 1.56071e-17)
(1.01198 0.0393165 -3.44538e-18)
(1.01135 0.0397205 2.49246e-18)
(1.01061 0.0403475 2.86751e-18)
(1.00983 0.0409972 -1.07145e-18)
(1.009 0.0416691 -3.39196e-18)
(1.00814 0.0423758 6.75317e-18)
(1.00727 0.0431084 -8.22127e-18)
(1.00638 0.0438573 2.8549e-18)
(1.0055 0.0446156 1.50583e-18)
(1.00462 0.045371 2.89543e-18)
(1.00378 0.046109 -4.09902e-18)
(1.00299 0.0468152 -1.31953e-19)
(1.00225 0.0474706 -1.16756e-18)
(1.00158 0.0480585 6.56972e-18)
(1.00099 0.0485582 -3.56806e-18)
(1.00048 0.0489544 2.12022e-18)
(1.00005 0.0492267 -2.78261e-18)
(0.999694 0.0493658 3.89523e-19)
(0.999394 0.0493586 3.5362e-18)
(0.999139 0.0492041 -2.06085e-18)
(0.998906 0.0488973 -1.5086e-18)
(0.998674 0.0484477 -1.04245e-18)
(0.998419 0.0478614 3.33248e-18)
(0.998122 0.0471571 -1.97561e-18)
(0.997764 0.0463484 1.10182e-18)
(0.997338 0.0454669 -1.99541e-18)
(0.996837 0.0445319 1.70791e-18)
(0.996263 0.0435671 -2.2699e-18)
(0.995614 0.0425776 5.41817e-20)
(0.994894 0.04156 -2.00594e-18)
(0.994122 0.0405426 1.79724e-19)
(0.99332 0.0395575 1.41106e-19)
(0.992505 0.0386275 -1.38196e-19)
(0.991678 0.0377352 6.2848e-19)
(0.990837 0.0368641 -5.00451e-19)
(0.989975 0.0359991 2.08023e-18)
(0.989077 0.0351124 -1.19473e-18)
(0.988116 0.0341879 4.8715e-19)
(0.98705 0.0331861 5.81274e-19)
(0.985821 0.0320784 -6.96865e-19)
(0.984342 0.0308549 9.64061e-20)
(0.982512 0.0294629 -4.61346e-20)
(0.980363 0.027746 4.46131e-18)
(0.977979 0.025766 2.60575e-18)
(0.975127 0.0236613 1.56664e-18)
(0.971468 0.0212473 4.8944e-18)
(0.967095 0.0183841 -6.23501e-18)
(0.962109 0.0149133 -1.70859e-17)
(0.956819 0.0105216 -1.17435e-17)
(0.951741 0.00449265 -1.64571e-17)
(0.947426 -0.00399558 -6.6595e-18)
(0.944348 -0.0156791 -2.41748e-17)
(0.942649 -0.0313359 5.68974e-17)
(0.94169 -0.0514147 -9.44937e-17)
(0.942532 -0.077324 -3.58267e-17)
(0.946707 -0.110584 -8.50033e-17)
(0.951547 -0.149922 -7.26962e-17)
(0.943948 -0.199382 -1.1533e-16)
(0.921257 -0.291318 -5.52176e-17)
(1.02001 -0.432185 1.42455e-17)
(1.01302 0.0401546 4.2148e-18)
(1.01242 0.0405232 4.12116e-18)
(1.01172 0.0411137 -5.70417e-18)
(1.01095 0.0417221 1.6762e-18)
(1.01015 0.0423609 5.69633e-19)
(1.00932 0.0430398 3.72671e-18)
(1.00845 0.0437532 3.12591e-19)
(1.00756 0.044494 -5.18925e-18)
(1.00666 0.0452582 1.96002e-18)
(1.00576 0.0460365 1.63585e-18)
(1.00486 0.0468175 -1.85157e-19)
(1.004 0.0475891 1.64919e-18)
(1.00317 0.0483351 5.86453e-19)
(1.0024 0.04904 -4.63715e-18)
(1.00168 0.049684 1.18766e-18)
(1.00104 0.0502509 2.24205e-18)
(1.00048 0.0507186 -8.37873e-19)
(0.999987 0.0510739 -4.90842e-18)
(0.999563 0.051299 5.02849e-18)
(0.9992 0.0513868 -1.07263e-18)
(0.99888 0.0513249 -2.15746e-18)
(0.998586 0.051115 8.28148e-19)
(0.998297 0.0507552 -5.21036e-19)
(0.997993 0.0502561 5.74019e-19)
(0.997651 0.0496242 -2.82263e-18)
(0.997262 0.0488851 5.414e-19)
(0.996812 0.0480536 -2.62672e-18)
(0.996293 0.0471511 1.82691e-18)
(0.995699 0.0461814 2.2436e-18)
(0.995025 0.0451444 3.20756e-19)
(0.994284 0.0440712 -2.49147e-18)
(0.993492 0.0429964 -1.88512e-18)
(0.992661 0.0419511 1.78784e-18)
(0.991792 0.0409232 3.01558e-18)
(0.990881 0.0399044 -3.55384e-18)
(0.989922 0.0388882 1.26933e-18)
(0.988902 0.0378557 1.91085e-18)
(0.987801 0.0368019 1.53162e-18)
(0.98658 0.0356965 8.29265e-19)
(0.985194 0.0345205 8.42288e-19)
(0.983568 0.0332697 4.62383e-19)
(0.981621 0.031886 -1.86654e-19)
(0.979384 0.0302277 8.49362e-19)
(0.976973 0.0282771 -3.24164e-18)
(0.974183 0.0261132 -1.06608e-18)
(0.970653 0.0235168 -1.30437e-17)
(0.966475 0.0203005 1.32875e-17)
(0.96174 0.0162762 2.76288e-17)
(0.956731 0.0111152 -1.56416e-17)
(0.951938 0.00415145 -3.1937e-17)
(0.947878 -0.00533922 -3.29678e-17)
(0.944998 -0.0179412 5.95124e-17)
(0.943421 -0.0342559 -3.29771e-17)
(0.942527 -0.054655 3.23146e-17)
(0.943402 -0.0805675 2.07286e-17)
(0.947593 -0.11358 -5.37579e-17)
(0.952213 -0.152638 2.11375e-17)
(0.943399 -0.202019 1.78652e-17)
(0.919715 -0.292915 1.75666e-16)
(1.02212 -0.434498 -1.26401e-16)
(1.0139 0.0408709 -4.8193e-18)
(1.01335 0.0412354 7.11887e-18)
(1.01269 0.0418075 -9.62727e-19)
(1.01196 0.0423893 -4.17275e-18)
(1.0112 0.043003 6.38945e-18)
(1.01039 0.0436558 -5.08711e-18)
(1.00954 0.0443448 2.26478e-18)
(1.00867 0.0450658 -1.41884e-18)
(1.00777 0.0458177 -1.26363e-18)
(1.00685 0.0465942 4.10653e-18)
(1.00593 0.0473873 2.04879e-18)
(1.00502 0.0481884 -5.47367e-18)
(1.00413 0.0489839 3.15929e-19)
(1.00328 0.0497611 -1.77728e-18)
(1.00247 0.0505016 1.84118e-18)
(1.00172 0.0511907 1.01229e-18)
(1.00103 0.0518055 1.44216e-18)
(1.00042 0.0523319 -2.92389e-18)
(0.999866 0.0527494 2.49675e-18)
(0.999383 0.053047 -1.80454e-18)
(0.998955 0.0532069 1.38827e-19)
(0.998569 0.0532248 3.51009e-18)
(0.998208 0.0530919 -3.20573e-18)
(0.997855 0.0528114 4.08904e-18)
(0.997488 0.0523827 -1.63459e-18)
(0.997094 0.0518246 2.40476e-18)
(0.996656 0.0511462 1.20166e-18)
(0.996162 0.0503635 -8.1969e-19)
(0.9956 0.0494795 -5.2508e-19)
(0.994957 0.0484913 -1.96595e-18)
(0.994241 0.0474305 4.05402e-18)
(0.993462 0.0463349 -1.21265e-18)
(0.992627 0.0452374 1.09203e-18)
(0.991732 0.0441304 -2.04198e-18)
(0.990771 0.0430104 -1.34015e-18)
(0.989739 0.0418767 -2.25859e-18)
(0.988623 0.0407171 8.2885e-19)
(0.987406 0.039535 1.09753e-18)
(0.986056 0.0383081 8.38902e-19)
(0.984536 0.0370248 -5.04089e-19)
(0.982783 0.0356852 -3.02588e-19)