1.275 	2.15223e-18 	-2.76991e-20 	-0.0344809 	-0.000439504 	-1.9025e-22
1.825 	2.15223e-18 	-1.39322e-20 	-0.00949945 	-0.00275553 	1.67751e-21
2.375 	2.15223e-18 	-2.66896e-23 	0.1152 	-0.00323049 	-6.99647e-22
