1.45 	0 	0 	-0.00811017 	-0.00259299 	1.65448e-20
2.35 	0 	0 	0.0622937 	-0.00663543 	9.90067e-21
