1.45 	0 	0 	-0.296435
2.35 	0 	0 	-0.0761743
