1.45 	0 	0 	-0.00167795 	-0.003122 	3.97266e-21
2.35 	0 	0 	0.0854399 	-0.00746625 	2.30305e-21
