1.45 	0 	0 	-0.307144
2.35 	0 	0 	-0.130267
