1.275 	2.15223e-18 	-2.76991e-20 	-0.0328309 	-0.000498458 	-2.02256e-22
1.825 	2.15223e-18 	-1.39322e-20 	-0.00723618 	-0.00289552 	1.81367e-21
2.375 	2.15223e-18 	-2.66896e-23 	0.123076 	-0.00346283 	-7.55208e-22
