1.275 	2.15223e-18 	-2.76991e-20 	-0.0344878 	-0.00044055 	-1.89939e-22
1.825 	2.15223e-18 	-1.39322e-20 	-0.00951016 	-0.00275909 	1.67339e-21
2.375 	2.15223e-18 	-2.66896e-23 	0.115165 	-0.00323414 	-6.97886e-22
