/*--------------------------------*- C++ -*----------------------------------*\
  =========                 |
  \\      /  F ield         | OpenFOAM: The Open Source CFD Toolbox
   \\    /   O peration     | Website:  https://openfoam.org
    \\  /    A nd           | Version:  6.0
     \\/     M anipulation  |
\*---------------------------------------------------------------------------*/
FoamFile
{
    version     2.0;
    format      ascii;
    class       surfaceScalarField;
    location    "29";
    object      phi;
}
// * * * * * * * * * * * * * * * * * * * * * * * * * * * * * * * * * * * * * //

dimensions      [0 3 -1 0 0 0 0];

internalField   nonuniform List<scalar> 
68636
(
3.0243e-05
0.00310561
-5.68453e-09
6.08416e-05
0.00307083
9.10732e-05
0.00300277
0.000120458
0.00290179
0.000148608
0.00276882
0.000175167
0.00260546
0.000199814
0.00241364
0.000222267
0.00219546
0.000242268
0.00195329
0.000259596
0.0016897
0.000274049
0.00140765
0.00028547
0.00111012
0.000293748
0.000800578
0.000298746
0.000481812
0.000153991
0.000298556
2.99573e-05
0.00307566
-5.80894e-09
6.02682e-05
0.00304052
9.02266e-05
0.00297281
0.000119353
0.00287265
0.000147255
0.0027409
0.000173574
0.00257912
0.000197994
0.00238919
0.00022024
0.00217318
0.000240058
0.00193344
0.000257227
0.0016725
0.00027155
0.00139329
0.000282862
0.00109877
0.000291109
0.000792293
0.000295842
0.000477026
0.000153885
0.000295838
2.9672e-05
0.00304599
-1.10152e-09
5.97044e-05
0.00301048
8.93969e-05
0.00294313
0.000118268
0.00284379
0.00014592
0.00271324
0.000171999
0.00255304
0.000196194
0.00236499
0.000218235
0.00215115
0.000237871
0.00191381
0.000254884
0.0016555
0.000269077
0.00137911
0.000280279
0.0010876
0.000288455
0.000784137
0.000293259
0.00047226
0.000153515
0.000293729
2.93906e-05
0.00301659
5.53162e-09
5.9152e-05
0.00298072
8.85823e-05
0.0029137
0.000117196
0.00281517
0.000144597
0.00268583
0.000170436
0.00252719
0.000194408
0.002341
0.000216248
0.0021293
0.000235705
0.00189434
0.000252561
0.00163863
0.000266625
0.00136503
0.00027772
0.00107648
0.000285802
0.000776041
0.000290637
0.000467406
0.000152699
0.000291407
2.91139e-05
0.00298747
1.58043e-08
5.86101e-05
0.00295123
8.77797e-05
0.00288454
0.000116136
0.00278683
0.000143286
0.00265868
0.000168886
0.0025016
0.000192637
0.00231726
0.000214277
0.00210767
0.000233556
0.00187506
0.000250259
0.00162194
0.000264194
0.00135111
0.000275185
0.00106552
0.000283167
0.000768082
0.000287977
0.000462637
0.000151816
0.000288962
2.8842e-05
0.0029586
2.82016e-08
5.80769e-05
0.00292199
8.69868e-05
0.00285563
0.000115086
0.00275873
0.000141985
0.00263178
0.000167349
0.00247623
0.000190881
0.00229372
0.000212322
0.00208623
0.000231426
0.00185596
0.000247977
0.00160539
0.000261785
0.00133729
0.000272675
0.00105462
0.000280561
0.000760193
0.000285328
0.000457866
0.000150662
0.000286461
2.85746e-05
0.00292998
4.02999e-08
5.75507e-05
0.00289302
8.62016e-05
0.00282699
0.000114043
0.0027309
0.000140694
0.00260514
0.000165824
0.00245111
0.00018914
0.00227041
0.000210385
0.002065
0.000229315
0.00183703
0.000245715
0.00158901
0.000259397
0.00132363
0.000270189
0.00104386
0.000277985
0.000752418
0.000282702
0.000453185
0.000149526
0.00028393
2.83113e-05
0.00290162
5.18157e-08
5.70302e-05
0.0028643
8.54227e-05
0.0027986
0.000113009
0.00270331
0.000139413
0.00257873
0.000164312
0.00242621
0.000187415
0.0022473
0.000208467
0.00204394
0.000227224
0.00181828
0.000243474
0.00157276
0.000257032
0.00131007
0.000267726
0.00103316
0.000275439
0.000744708
0.000280104
0.000448522
0.000148217
0.000281402
2.80515e-05
0.00287351
5.99412e-08
5.65143e-05
0.00283584
8.46492e-05
0.00277047
0.000111982
0.00267599
0.000138143
0.00255257
0.000162814
0.00240155
0.000185706
0.00222442
0.000206566
0.0020231
0.000225153
0.0017997
0.000241255
0.00155667
0.000254688
0.00129665
0.000265287
0.00102258
0.00027292
0.000737091
0.000277536
0.000443936
0.000146943
0.00027889
2.77947e-05
0.00284566
6.35938e-08
5.60023e-05
0.00280763
8.38808e-05
0.0027426
0.000110962
0.00264891
0.000136882
0.00252665
0.000161328
0.00237711
0.000184012
0.00220173
0.000204683
0.00200243
0.000223101
0.00178128
0.000239057
0.00154071
0.000252366
0.00128334
0.00026287
0.00101208
0.000270429
0.000729535
0.000274997
0.000439372
0.000145547
0.000276384
2.75406e-05
0.00281805
6.29352e-08
5.54936e-05
0.00277968
8.31173e-05
0.00271498
0.000109949
0.00262208
0.000135632
0.00250097
0.000159854
0.00235289
0.000182334
0.00217926
0.000202817
0.00198195
0.000221068
0.00176303
0.000236879
0.00152491
0.000250066
0.00127016
0.000260475
0.00100169
0.000267964
0.00072206
0.000272484
0.000434875
0.000144215
0.000273884
2.72888e-05
0.00279071
5.81844e-08
5.49882e-05
0.00275198
8.2359e-05
0.00268761
0.000108945
0.0025955
0.000134392
0.00247553
0.000158394
0.00232889
0.00018067
0.00215698
0.000200968
0.00196165
0.000219054
0.00174495
0.00023472
0.00150925
0.000247787
0.00125709
0.000258101
0.000991369
0.000265522
0.000714642
0.000269996
0.000430405
0.000142804
0.000271399
2.7039e-05
0.00276362
5.16634e-08
5.44859e-05
0.00272454
8.16062e-05
0.00266049
0.000107949
0.00256916
0.000133164
0.00245031
0.000156947
0.00230511
0.000179021
0.00213491
0.000199136
0.00194155
0.000217058
0.00172703
0.000232582
0.00149373
0.000245528
0.00124416
0.000255749
0.000981164
0.000263102
0.0007073
0.000267533
0.000425992
0.000141457
0.000268939
2.67911e-05
0.00273678
4.5701e-08
5.39871e-05
0.00269734
8.08592e-05
0.00263362
0.000106962
0.00254306
0.000131947
0.00242533
0.000155514
0.00228154
0.000177387
0.00211304
0.00019732
0.00192161
0.000215079
0.00170927
0.000230462
0.00147835
0.00024329
0.00123133
0.000253417
0.000971034
0.000260704
0.000700015
0.000265093
0.000421606
0.000140033
0.000266506
2.6545e-05
0.0027102
4.25419e-08
5.3492e-05
0.0026704
8.01182e-05
0.002607
0.000105983
0.00251719
0.000130742
0.00240057
0.000154095
0.00225819
0.00017577
0.00209137
0.000195521
0.00190187
0.000213119
0.00169168
0.000228362
0.00146311
0.000241071
0.00121862
0.000251106
0.000961011
0.000258327
0.000692801
0.000262676
0.000417272
0.000138668
0.000264092
2.63008e-05
0.00268385
4.40324e-08
5.30008e-05
0.0026437
7.93837e-05
0.00258061
0.000105014
0.00249156
0.000129548
0.00237604
0.000152689
0.00223505
0.000174167
0.00206989
0.00019374
0.0018823
0.000211178
0.00167424
0.000226281
0.00144801
0.000238874
0.00120603
0.000248816
0.000951066
0.000255972
0.000685647
0.000260279
0.000412966
0.000137245
0.00026169
2.60586e-05
0.00265774
5.02592e-08
5.2514e-05
0.00261724
7.86558e-05
0.00255447
0.000104053
0.00246617
0.000128365
0.00235173
0.000151297
0.00221212
0.000172581
0.00204861
0.000191975
0.00186291
0.000209255
0.00165696
0.000224219
0.00143305
0.000236696
0.00119356
0.000246547
0.000941225
0.000253639
0.000678561
0.000257904
0.000408713
0.000135898
0.000259296
2.58185e-05
0.00263187
6.01278e-08
5.20318e-05
0.00259103
7.79347e-05
0.00252857
0.000103102
0.002441
0.000127193
0.00232764
0.000149917
0.0021894
0.000171009
0.00202751
0.000190227
0.00184369
0.000207349
0.00163984
0.000222177
0.00141822
0.000234539
0.00118119
0.000244299
0.00093146
0.000251327
0.000671532
0.00025555
0.000404489
0.000134519
0.000256913
2.55807e-05
0.00260622
7.133e-08
5.15544e-05
0.00256506
7.72206e-05
0.00250291
0.000102159
0.00241607
0.000126032
0.00230377
0.000148551
0.00216689
0.000169451
0.00200662
0.000188495
0.00182465
0.000205461
0.00162288
0.000220152
0.00140353
0.0002324
0.00116895
0.00024207
0.000921798
0.000249036
0.00066457
0.000253218
0.000400318
0.000133229
0.00025455
2.53452e-05
0.00258079
8.09032e-08
5.1082e-05
0.00253932
7.65136e-05
0.00247747
0.000101224
0.00239136
0.000124882
0.00228011
0.000147196
0.00214457
0.000167907
0.0019859
0.000186778
0.00180578
0.000203589
0.00160607
0.000218145
0.00138898
0.00023028
0.00115681
0.000239862
0.000912211
0.000246766
0.000657664
0.000250909
0.000396173
0.000131906
0.000252213
2.51122e-05
0.00255559
8.64521e-08
5.06143e-05
0.00251382
7.58137e-05
0.00245227
0.000100299
0.00236687
0.000123741
0.00225667
0.000145854
0.00212246
0.000166377
0.00196538
0.000185076
0.00178708
0.000201733
0.00158941
0.000216156
0.00137456
0.000228179
0.00114479
0.000237672
0.000902725
0.000244515
0.000650824
0.000248622
0.000392075
0.000130657
0.000249909
2.48814e-05
0.00253062
8.65665e-08
5.01514e-05
0.00248855
7.51207e-05
0.0024273
9.93827e-05
0.00234261
0.000122612
0.00223344
0.000144524
0.00210055
0.000164861
0.00194504
0.000183389
0.00176855
0.000199894
0.00157291
0.000214184
0.00136026
0.000226096
0.00113288
0.000235501
0.000893312
0.000242284
0.000644039
0.000246358
0.000387998
0.000129358
0.000247639
2.4653e-05
0.00250589
8.1448e-08
4.96929e-05
0.00246351
7.44344e-05
0.00240256
9.84748e-05
0.00231857
0.000121492
0.00221042
0.000143205
0.00207883
0.000163358
0.00192489
0.000181717
0.00175019
0.00019807
0.00155656
0.000212228
0.00134611
0.000224031
0.00112108
0.000233349
0.000884001
0.000240072
0.00063732
0.000244116
0.000383964
0.000128109
0.000245401
2.44268e-05
0.00248139
7.28323e-08
4.92388e-05
0.0024387
7.37547e-05
0.00237805
9.75755e-05
0.00229475
0.000120383
0.00218761
0.000141899
0.00205732
0.000161868
0.00190492
0.00018006
0.001732
0.000196262
0.00154035
0.00021029
0.00133208
0.000221984
0.00110938
0.000231217
0.000874761
0.000237879
0.000630655
0.000241895
0.000379946
0.000126796
0.000243192
2.42027e-05
0.00245713
6.33527e-08
4.87888e-05
0.00241412
7.30813e-05
0.00235376
9.66847e-05
0.00227115
0.000119285
0.00216501
0.000140604
0.002036
0.000160391
0.00188513
0.000178417
0.00171398
0.00019447
0.0015243
0.000208369
0.00131818
0.000219955
0.0010978
0.000229103
0.00086562
0.000235707
0.000624056
0.000239694
0.000375968
0.000125516
0.000241008
2.39807e-05
0.00243309
5.58582e-08
4.83428e-05
0.00238976
7.2414e-05
0.00232969
9.58021e-05
0.00224776
0.000118196
0.00214261
0.000139322
0.00201487
0.000158928
0.00186552
0.000176788
0.00169611
0.000192694
0.00150839
0.000206465
0.00130441
0.000217945
0.00108631
0.00022701
0.000856549
0.000233554
0.00061751
0.000237514
0.000372008
0.000124174
0.000238844
2.37605e-05
0.00240928
5.25194e-08
4.79007e-05
0.00236562
7.17527e-05
0.00230584
9.49276e-05
0.00222459
0.000117118
0.00212043
0.000138051
0.00199394
0.000157478
0.0018461
0.000175175
0.00167842
0.000190934
0.00149264
0.000204578
0.00129077
0.000215954
0.00107494
0.000224936
0.000847575
0.000231422
0.000611028
0.000235353
0.000368086
0.000122862
0.000236696
2.35423e-05
0.00238569
5.42777e-08
4.74625e-05
0.0023417
7.10973e-05
0.0022822
9.4061e-05
0.00220162
0.000116049
0.00209844
0.000136791
0.0019732
0.000156041
0.00182685
0.000173575
0.00166088
0.00018919
0.00147702
0.000202709
0.00127725
0.00021398
0.00106367
0.000222881
0.00083867
0.00022931
0.0006046
0.000233212
0.000364185
0.000121501
0.000234564
2.33259e-05
0.0023623
6.07223e-08
4.70281e-05
0.002318
7.04477e-05
0.00225879
9.32023e-05
0.00217887
0.00011499
0.00207665
0.000135543
0.00195265
0.000154617
0.00180778
0.00017199
0.00164352
0.000187461
0.00146155
0.000200856
0.00126386
0.000212026
0.00105251
0.000220846
0.000829857
0.000227219
0.000598232
0.00023109
0.000360322
0.000120174
0.000232446
2.31115e-05
0.00233912
7.0274e-08
4.65976e-05
0.00229452
6.98039e-05
0.00223558
9.23513e-05
0.00215633
0.000113941
0.00205507
0.000134306
0.00193229
0.000153206
0.00178888
0.000170419
0.0016263
0.000185748
0.00144623
0.000199021
0.00125058
0.000210089
0.00104144
0.000218831
0.000821113
0.000225148
0.000591918
0.000228988
0.000356485
0.00011881
0.000230343
2.28989e-05
0.00231614
8.07341e-08
4.61709e-05
0.00227125
6.91658e-05
0.00221259
9.15078e-05
0.00213399
0.0001129
0.00203368
0.00013308
0.00191211
0.000151806
0.00177016
0.000168862
0.00160925
0.000184051
0.00143104
0.000197203
0.00123744
0.000208171
0.00103048
0.000216835
0.000812456
0.000223097
0.00058566
0.000226905
0.000352684
0.000117486
0.000228255
2.26883e-05
0.00229337
8.98826e-08
4.57481e-05
0.00224819
6.85333e-05
0.00218981
9.06718e-05
0.00211186
0.000111869
0.00201248
0.000131865
0.00189212
0.000150419
0.00175161
0.000167318
0.00159236
0.000182369
0.00141599
0.000195401
0.00122441
0.000206271
0.00101961
0.000214858
0.000803867
0.000221066
0.000579455
0.000224843
0.000348911
0.000116138
0.000226184
2.24797e-05
0.00227079
9.59794e-08
4.53291e-05
0.00222534
6.79066e-05
0.00216724
8.98432e-05
0.00208992
0.000110847
0.00199148
0.00013066
0.00187231
0.000149044
0.00173323
0.000165789
0.00157562
0.000180702
0.00140108
0.000193617
0.00121149
0.000204389
0.00100884
0.000212901
0.000795361
0.000219055
0.000573303
0.0002228
0.000345172
0.000114828
0.000224131
2.22731e-05
0.00224842
9.8113e-08
4.49139e-05
0.00220271
6.72854e-05
0.00214487
8.90218e-05
0.00206819
0.000109834
0.00197068
0.000129465
0.00185268
0.000147682
0.00171501
0.000164273
0.00155903
0.00017905
0.00138631
0.000191849
0.0011987
0.000202525
0.000998166
0.000210962
0.000786924
0.000217063
0.000567205
0.000220776
0.000341462
0.0001135
0.000222097
2.20685e-05
0.00222626
9.62559e-08
4.45025e-05
0.00218027
6.66697e-05
0.0021227
8.82077e-05
0.00204666
0.00010883
0.00195006
0.000128281
0.00183324
0.000146331
0.00169697
0.000162771
0.00154259
0.000177414
0.00137167
0.000190098
0.00118602
0.000200679
0.00098759
0.000209042
0.000778566
0.000215091
0.000561157
0.000218773
0.000337786
0.00011221
0.000220082
2.18659e-05
0.0022043
9.11555e-08
4.40947e-05
0.00215805
6.60596e-05
0.00210074
8.74008e-05
0.00202532
0.000107834
0.00192963
0.000127108
0.00181397
0.000144992
0.00167909
0.000161283
0.00152631
0.000175794
0.00135716
0.000188363
0.00117345
0.000198851
0.000977103
0.00020714
0.000770275
0.000213138
0.000555161
0.000216789
0.000334138
0.000110905
0.000218087
2.16652e-05
0.00218256
8.40664e-08
4.36906e-05
0.00213602
6.54548e-05
0.00207898
8.66009e-05
0.00200417
0.000106848
0.00190938
0.000125945
0.00179487
0.000143666
0.00166137
0.000159808
0.00151017
0.000174188
0.00134279
0.000186646
0.001161
0.00019704
0.000966711
0.000205257
0.000762061
0.000211204
0.000549214
0.000214824
0.000330522
0.000109632
0.000216112
2.14664e-05
0.00216101
7.64302e-08
4.32902e-05
0.0021142
6.48554e-05
0.00205741
8.58081e-05
0.00198322
0.00010587
0.00188932
0.000124792
0.00177595
0.000142352
0.00164381
0.000158348
0.00149417
0.000172599
0.00132854
0.000184945
0.00114865
0.000195248
0.000956408
0.000203393
0.000753914
0.000209289
0.00054332
0.000212879
0.000326934
0.000108348
0.000214156
2.12695e-05
0.00213968
6.95921e-08
4.28933e-05
0.00209258
6.42614e-05
0.00203605
8.50224e-05
0.00196246
0.0001049
0.00186944
0.00012365
0.0017572
0.00014105
0.00162641
0.000156901
0.00147832
0.000171024
0.00131442
0.000183261
0.00113642
0.000193473
0.000946198
0.000201547
0.000745842
0.000207393
0.000537473
0.000210953
0.000323377
0.000107094
0.00021222
2.10743e-05
0.00211854
6.45728e-08
4.25e-05
0.00207115
6.36727e-05
0.00201487
8.42438e-05
0.00194189
0.00010394
0.00184975
0.000122518
0.00173863
0.000139761
0.00160917
0.000155469
0.00146262
0.000169466
0.00130042
0.000181593
0.00112429
0.000191715
0.000936075
0.000199719
0.000737836
0.000205515
0.000531679
0.000209046
0.000319848
0.000105829
0.000210303
2.08808e-05
0.00209759
6.19646e-08
4.21102e-05
0.00204992
6.30892e-05
0.0019939
8.34722e-05
0.00192151
0.000102989
0.00183023
0.000121398
0.00172022
0.000138484
0.00159209
0.000154051
0.00144705
0.000167922
0.00128655
0.000179942
0.00111227
0.000189976
0.000926044
0.00019791
0.000729903
0.000203655
0.000525932
0.000207157
0.000316349
0.000104591
0.000208405
2.0689e-05
0.00207684
6.19033e-08
4.17239e-05
0.00202889
6.25111e-05
0.00197311
8.27077e-05
0.00190131
0.000102046
0.0018109
0.000120288
0.00170198
0.000137219
0.00157516
0.000152646
0.00143162
0.000166394
0.0012728
0.000178308
0.00110036
0.000188253
0.000916097
0.000196118
0.000722035
0.000201814
0.000520236
0.000205286
0.000312878
0.000103346
0.000206524
2.04989e-05
0.00205628
6.41522e-08
4.13412e-05
0.00200805
6.19383e-05
0.00195251
8.19504e-05
0.0018813
0.000101113
0.00179173
0.000119189
0.0016839
0.000135968
0.00155838
0.000151256
0.00141633
0.000164882
0.00125918
0.00017669
0.00108855
0.000186548
0.000906241
0.000194344
0.00071424
0.00019999
0.000514587
0.000203433
0.000309437
0.000102125
0.000204662
2.03105e-05
0.0020359
6.82009e-08
4.0962e-05
0.0019874
6.13708e-05
0.0019321
8.12002e-05
0.00186147
0.000100188
0.00177275
0.0001181
0.00166599
0.000134728
0.00154175
0.00014988
0.00140118
0.000163385
0.00124567
0.000175089
0.00107684
0.000184859
0.000896468
0.000192587
0.00070651
0.000198184
0.00050899
0.000201597
0.000306025
0.000100901
0.000202816
2.01238e-05
0.00201571
7.34225e-08
4.05864e-05
0.00196693
6.08087e-05
0.00191188
8.04573e-05
0.00184183
9.92726e-05
0.00175393
0.000117023
0.00164824
0.000133501
0.00152527
0.000148518
0.00138616
0.000161903
0.00123229
0.000173503
0.00106524
0.000183188
0.000886784
0.000190847
0.000698851
0.000196395
0.000503439
0.000199779
0.000302643
9.96996e-05
0.000200987
1.99387e-05
0.00199569
7.91706e-08
4.02143e-05
0.00194666
6.0252e-05
0.00189184
7.97216e-05
0.00182236
9.83662e-05
0.00173529
0.000115956
0.00163065
0.000132287
0.00150894
0.00014717
0.00137128
0.000160435
0.00121902
0.000171933
0.00105375
0.000181532
0.000877183
0.000189124
0.000691256
0.000194623
0.00049794
0.000197978
0.00029929
9.84991e-05
0.000199173
1.97553e-05
0.00197585
8.48999e-08
3.98458e-05
0.00192657
5.97008e-05
0.00187199
7.89932e-05
0.00180306
9.7469e-05
0.00171681
0.000114901
0.00161322
0.000131085
0.00149276
0.000145835
0.00135653
0.000158983
0.00120587
0.000170379
0.00104235
0.000179893
0.00086767
0.000187417
0.000683731
0.000192868
0.000492487
0.000196193
0.000295967
9.73194e-05
0.000197377
1.95736e-05
0.00195619
9.019e-08
3.94809e-05
0.00190666
5.91549e-05
0.00185232
7.82721e-05
0.00178395
9.65808e-05
0.0016985
0.000113856
0.00159594
0.000129895
0.00147672
0.000144514
0.00134191
0.000157545
0.00119284
0.00016884
0.00103105
0.000178269
0.000858239
0.000185727
0.000676272
0.000191129
0.000487085
0.000194424
0.000292673
9.61447e-05
0.000195595
1.93936e-05
0.0019367
9.47926e-08
3.91196e-05
0.00188694
5.86145e-05
0.00183282
7.75583e-05
0.001765
9.57016e-05
0.00168036
0.000112821
0.00157882
0.000128717
0.00146082
0.000143206
0.00132742
0.000156121
0.00117993
0.000167315
0.00101986
0.000176661
0.000848893
0.000184052
0.00066888
0.000189406
0.000481728
0.000192671
0.000289409
9.49885e-05
0.000193829
1.92154e-05
0.00191738
9.85881e-08
3.87618e-05
0.00186739
5.80796e-05
0.00181351
7.68516e-05
0.00174623
9.48313e-05
0.00166238
0.000111797
0.00156186
0.000127551
0.00144507
0.000141911
0.00131306
0.000154711
0.00116713
0.000165806
0.00100876
0.000175068
0.000839629
0.000182393
0.000661553
0.000187699
0.000476423
0.000190933
0.000286176
9.38413e-05
0.000192078
1.90389e-05
0.00189824
1.01586e-07
3.84076e-05
0.00184802
5.755e-05
0.00179436
7.61522e-05
0.00172763
9.39699e-05
0.00164456
0.000110784
0.00154504
0.000126397
0.00142946
0.000140628
0.00129883
0.000153315
0.00115444
0.00016431
0.000997766
0.00017349
0.000830449
0.000180749
0.000654292
0.000186007
0.000471163
0.000189211
0.000282972
9.27109e-05
0.000190342
1.88641e-05
0.00187928
1.03858e-07
3.8057e-05
0.00182883
5.70258e-05
0.0017754
7.54598e-05
0.0017092
9.31172e-05
0.0016269
0.00010978
0.00152838
0.000125254
0.00141398
0.000139358
0.00128473
0.000151932
0.00114187
0.000162829
0.000986869
0.000171927
0.00082135
0.00017912
0.000647097
0.00018433
0.000465953
0.000187505
0.000279799
9.15928e-05
0.000188621
1.8691e-05
0.00186048
1.05531e-07
3.77099e-05
0.00180981
5.65069e-05
0.0017566
7.47745e-05
0.00169093
9.22731e-05
0.00160941
0.000108787
0.00151186
0.000124122
0.00139865
0.000138101
0.00127075
0.000150561
0.00112941
0.000161361
0.000976067
0.000170377
0.000812334
0.000177506
0.000639967
0.000182668
0.000460788
0.000185812
0.000276654
9.04884e-05
0.000186915
1.85197e-05
0.00184185
1.06729e-07
3.73663e-05
0.00179096
5.59932e-05
0.00173797
7.40961e-05
0.00167283
9.14374e-05
0.00159207
0.000107803
0.0014955
0.000123002
0.00138345
0.000136855
0.0012569
0.000149204
0.00111706
0.000159907
0.000965364
0.000168842
0.000803399
0.000175906
0.000632901
0.00018102
0.000455673
0.000184135
0.000273541
8.93998e-05
0.000185223
1.83501e-05
0.0018234
1.0758e-07
3.70261e-05
0.00177229
5.54847e-05
0.00171952
7.34244e-05
0.00165489
9.06099e-05
0.00157488
0.000106829
0.00147928
0.000121891
0.00136839
0.000135621
0.00124317
0.000147859
0.00110482
0.000158466
0.000954756
0.00016732
0.000794544
0.00017432
0.000625899
0.000179387
0.000450602
0.000182472
0.000270456
8.83225e-05
0.000183546
1.81821e-05
0.00180511
1.08182e-07
3.66894e-05
0.00175378
5.49813e-05
0.00170122
7.27593e-05
0.00163711
8.97905e-05
0.00155785
0.000105864
0.00146321
0.000120792
0.00135346
0.000134398
0.00122956
0.000146527
0.00109269
0.000157038
0.000944245
0.000165811
0.00078577
0.000172747
0.000618962
0.000177768
0.000445582
0.000180823
0.000267403
8.72634e-05
0.000181882
1.80158e-05
0.00178698
1.0862e-07
3.63559e-05
0.00173544
5.44828e-05
0.0016831
7.21008e-05
0.00161949
8.8979e-05
0.00154097
0.000104909
0.00144728
0.000119702
0.00133867
0.000133186
0.00121608
0.000145206
0.00108067
0.000155622
0.000933828
0.000164316
0.000777075
0.000171189
0.000612087
0.000176163
0.000440604
0.000179188
0.000264376
8.62122e-05
0.000180234
1.78512e-05
0.00176902
1.08946e-07
3.60258e-05
0.00171727
5.39892e-05
0.00166514
7.14486e-05
0.00160203
8.81752e-05
0.00152425
0.000103962
0.00143149
0.000118623
0.00132401
0.000131985
0.00120271
0.000143897
0.00106876
0.000154219
0.000923506
0.000162834
0.000768459
0.000169643
0.000605277
0.000174571
0.000435676
0.000177567
0.000261382
8.51818e-05
0.000178599
1.76881e-05
0.00175123
1.09205e-07
3.56988e-05
0.00169926
5.35004e-05
0.00164734
7.08026e-05
0.00158473
8.73788e-05
0.00150767
0.000103024
0.00141585
0.000117553
0.00130948
0.000130795
0.00118947
0.000142599
0.00105696
0.000152828
0.000913276
0.000161364
0.000759921
0.000168111
0.000598527
0.000172993
0.00043079
0.00017596
0.000258413
8.41567e-05
0.000176978
1.75266e-05
0.00173359
1.09415e-07
3.53749e-05
0.00168141
5.30161e-05
0.00162969
7.01627e-05
0.00156758
8.65899e-05
0.00149124
0.000102094
0.00140034
0.000116492
0.00129508
0.000129615
0.00117635
0.000141312
0.00104526
0.000151448
0.00090314
0.000159907
0.000751462
0.000166592
0.000591841
0.000171429
0.000425953
0.000174367
0.000255477
8.31541e-05
0.000175371
1.73667e-05
0.00171611
1.09599e-07
3.50541e-05
0.00166373
5.25364e-05
0.00161221
6.95287e-05
0.00155059
8.5808e-05
0.00147497
0.000101173
0.00138498
0.000115441
0.00128081
0.000128446
0.00116334
0.000140037
0.00103367
0.000150081
0.000893095
0.000158462
0.000743078
0.000165086
0.000585214
0.000169878
0.000421157
0.000172787
0.000252566
8.21532e-05
0.000173779
1.72082e-05
0.0016988
1.09759e-07
3.47363e-05
0.0016462
5.20612e-05
0.00159489
6.89004e-05
0.00153375
8.50332e-05
0.00145883
0.000100259
0.00136975
0.000114399
0.00126668
0.000127287
0.00115045
0.000138773
0.00102218
0.000148725
0.000883143
0.00015703
0.000734773
0.000163593
0.000578651
0.00016834
0.00041641
0.000171221
0.000249686
8.11771e-05
0.000172199
1.70512e-05
0.00168164
1.09909e-07
3.44215e-05
0.00162883
5.15902e-05
0.00157772
6.82778e-05
0.00151707
8.42653e-05
0.00144285
9.93542e-05
0.00135466
0.000113366
0.00125266
0.000126137
0.00113768
0.000137519
0.0010108
0.000147381
0.00087328
0.00015561
0.000726542
0.000162112
0.000572145
0.000166815
0.000411703
0.000169668
0.000246831
8.01999e-05
0.000170634
1.68957e-05
0.00166463
1.10047e-07
3.41094e-05
0.00161162
5.11235e-05
0.00156071
6.76607e-05
0.00150053
8.3504e-05
0.001427
9.84568e-05
0.00133971
0.000112342
0.00123878
0.000124997
0.00112503
0.000136276
0.00099952
0.000146048
0.000863508
0.000154202
0.000718388
0.000160644
0.000565702
0.000165303
0.000407044
0.000168128
0.000244007
7.92488e-05
0.000169083
1.67415e-05
0.00164778
1.10182e-07
3.38002e-05
0.00159456
5.06609e-05
0.00154385
6.7049e-05
0.00148414
8.27493e-05
0.0014113
9.7567e-05
0.00132489
0.000111327
0.00122502
0.000123867
0.00111249
0.000135043
0.000988343
0.000144726
0.000853823
0.000152805
0.000710306
0.000159188
0.000559314
0.000163804
0.000402424
0.000166602
0.000241206
7.82932e-05
0.000167545
1.65888e-05
0.00163108
1.10313e-07
3.34937e-05
0.00157765
5.02024e-05
0.00152714
6.64425e-05
0.0014679
8.20011e-05
0.00139575
9.66848e-05
0.00131021
0.00011032
0.00121138
0.000122747
0.00110006
0.000133821
0.00097727
0.000143416
0.000844229
0.000151421
0.0007023
0.000157745
0.00055299
0.000162318
0.000397851
0.000165089
0.000238437
7.73655e-05
0.00016602
1.64374e-05
0.00161453
1.10448e-07
3.31899e-05
0.0015609
4.97478e-05
0.00151058
6.58413e-05
0.00145181
8.12593e-05
0.00138033
9.58101e-05
0.00129566
0.000109322
0.00119787
0.000121635
0.00108775
0.000132609
0.000966295
0.000142116
0.00083472
0.000150048
0.000694366
0.000156315
0.000546719
0.000160845
0.000393316
0.000163589
0.000235689
7.64307e-05
0.00016451
1.62873e-05
0.00159814
1.10584e-07
3.28887e-05
0.0015443
4.92971e-05
0.00149418
6.52452e-05
0.00143586
8.05237e-05
0.00136505
9.49428e-05
0.00128124
0.000108332
0.00118448
0.000120534
0.00107554
0.000131408
0.000955422
0.000140828
0.000825299
0.000148688
0.000686506
0.000154896
0.00054051
0.000159384
0.000388828
0.000162102
0.000232972
7.5525e-05
0.000163012
1.61385e-05
0.00158189
1.10731e-07
3.25901e-05
0.00152785
4.88503e-05
0.00147792
6.46542e-05
0.00142006
7.97944e-05
0.00134991
9.40828e-05
0.00126695
0.000107351
0.00117122
0.000119441
0.00106345
0.000130216
0.000944646
0.000139551
0.000815963
0.000147338
0.000678715
0.00015349
0.000534353
0.000157936
0.000384376
0.000160629
0.000230276
7.4609e-05
0.000161529
1.5991e-05
0.00156579
1.10884e-07
3.22941e-05
0.00151155
4.84072e-05
0.0014618
6.40681e-05
0.0014044
7.90712e-05
0.00133491
9.323e-05
0.00125279
0.000106377
0.00115807
0.000118358
0.00105147
0.000129035
0.000933969
0.000138284
0.000806713
0.000146001
0.000670999
0.000152096
0.000528258
0.000156501
0.000379971
0.000159168
0.000227611
7.37237e-05
0.000160058
1.58448e-05
0.00154983
1.11051e-07
3.20005e-05
0.00149539
4.79679e-05
0.00144584
6.3487e-05
0.00138888
7.8354e-05
0.00132004
9.23843e-05
0.00123876
0.000105412
0.00114504
0.000117284
0.0010396
0.000127864
0.000923389
0.000137029
0.000797547
0.000144675
0.000663349
0.000150714
0.000522213
0.000155079
0.0003756
0.00015772
0.000224965
7.28258e-05
0.000158601
1.56998e-05
0.00153402
1.11229e-07
3.17095e-05
0.00147938
4.75323e-05
0.00143002
6.29107e-05
0.0013735
7.76429e-05
0.00130531
9.15459e-05
0.00122486
0.000104455
0.00113213
0.000116219
0.00102784
0.000126703
0.000912906
0.000135784
0.000788465
0.000143361
0.000655773
0.000149345
0.000516229
0.000153669
0.000371276
0.000156286
0.00022235
7.19597e-05
0.000157157
1.55561e-05
0.00151835
1.11421e-07
3.14209e-05
0.00146352
4.71003e-05
0.00141434
6.23393e-05
0.00135826
7.69378e-05
0.00129071
9.07145e-05
0.00121108
0.000103507
0.00111934
0.000115164
0.00101618
0.000125551
0.000902517
0.00013455
0.000779464
0.000142058
0.000648262
0.000147987
0.000510294
0.000152272
0.000366985
0.000154864
0.000219753
7.10781e-05
0.000155727
1.54136e-05
0.00150283
1.11625e-07
3.11347e-05
0.0014478
4.6672e-05
0.0013988
6.17727e-05
0.00134316
7.62386e-05
0.00127625
8.98901e-05
0.00119743
0.000102566
0.00110667
0.000114117
0.00100463
0.00012441
0.000892224
0.000133327
0.000770547
0.000140766
0.000640824
0.000146642
0.000504419
0.000150887
0.00036274
0.000153455
0.000217186
7.02298e-05
0.000154309
1.52723e-05
0.00148744
1.11844e-07
3.08509e-05
0.00143222
4.62473e-05
0.0013834
6.12109e-05
0.0013282
7.55454e-05
0.00126191
8.90728e-05
0.0011839
0.000101633
0.00109411
0.000113079
0.000993179
0.000123279
0.000882023
0.000132115
0.000761709
0.000139486
0.000633449
0.000145308
0.000498591
0.000149514
0.000358527
0.000152059
0.000214636
6.93639e-05
0.000152905
1.51322e-05
0.0014722
1.12075e-07
3.05696e-05
0.00141679
4.58261e-05
0.00136815
6.06538e-05
0.00131337
7.4858e-05
0.00124771
8.82625e-05
0.0011705
0.000100709
0.00108166
0.000112051
0.000981837
0.000122158
0.000871916
0.000130913
0.000752953
0.000138218
0.000626145
0.000143986
0.000492823
0.000148154
0.000354359
0.000150675
0.000212117
6.85325e-05
0.000151513
1.49933e-05
0.00145709
1.12318e-07
3.02906e-05
0.00140149
4.54086e-05
0.00135303
6.01015e-05
0.00129868
7.41765e-05
0.00123364
8.74591e-05
0.00115722
9.97923e-05
0.00106933
0.000111031
0.000970597
0.000121046
0.000861899
0.000129723
0.000744275
0.00013696
0.000618903
0.000142677
0.0004871
0.000146807
0.000350222
0.000149304
0.000209613
6.7681e-05
0.000150135
1.48556e-05
0.00144213
1.12572e-07
3.0014e-05
0.00138633
4.49945e-05
0.00133805
5.95539e-05
0.00128412
7.35009e-05
0.00121969
8.66627e-05
0.00114406
9.88838e-05
0.00105711
0.000110021
0.000959461
0.000119945
0.000851975
0.000128542
0.000735678
0.000135714
0.000611731
0.000141379
0.000481436
0.000145471
0.00034613
0.000147946
0.00020714
6.68651e-05
0.000148769
1.47191e-05
0.0014273
1.12835e-07
2.97398e-05
0.00137131
4.45841e-05
0.00132321
5.9011e-05
0.00126969
7.28311e-05
0.00120587
8.58733e-05
0.00113101
9.79833e-05
0.001045
0.000109019
0.000948424
0.000118853
0.00084214
0.000127373
0.000727156
0.00013448
0.00060462
0.000140093
0.000475817
0.000144148
0.000342068
0.0001466
0.000204681
6.60276e-05
0.000147416
1.45838e-05
0.0014126
1.13106e-07
2.94679e-05
0.00135643
4.41771e-05
0.0013085
5.84727e-05
0.0012554
7.21672e-05
0.00119218
8.50907e-05
0.00111809
9.70907e-05
0.001033
0.000108026
0.000937489
0.000117771
0.000832395
0.000126213
0.000718714
0.000133256
0.000597578
0.000138819
0.000470255
0.000142837
0.000338049
0.000145267
0.000202253
6.52267e-05
0.000146075
1.44496e-05
0.00139804
1.13381e-07
2.91984e-05
0.00134168
4.37737e-05
0.00129393
5.79392e-05
0.00124123
7.1509e-05
0.00117861
8.43151e-05
0.00110528
9.6206e-05
0.00102111
0.000107042
0.000926651
0.000116699
0.000822737
0.000125065
0.000710346
0.000132044
0.000590594
0.000137556
0.000464736
0.000141538
0.00033406
0.000143946
0.000199838
6.44021e-05
0.000144747
1.43166e-05
0.00138361
1.13662e-07
2.89312e-05
0.00132707
4.33737e-05
0.00127948
5.74103e-05
0.0012272
7.08566e-05
0.00116516
8.35463e-05
0.00109259
9.53292e-05
0.00100932
0.000106067
0.000915914
0.000115636
0.000813168
0.000123927
0.000702056
0.000130842