/*--------------------------------*- C++ -*----------------------------------*\
  =========                 |
  \\      /  F ield         | OpenFOAM: The Open Source CFD Toolbox
   \\    /   O peration     | Website:  https://openfoam.org
    \\  /    A nd           | Version:  6.0
     \\/     M anipulation  |
\*---------------------------------------------------------------------------*/
FoamFile
{
    version     2.0;
    format      ascii;
    class       volScalarField;
    location    "15";
    object      p;
}
// * * * * * * * * * * * * * * * * * * * * * * * * * * * * * * * * * * * * * //

dimensions      [0 2 -2 0 0 0 0];

internalField   nonuniform List<scalar> 
2000
(
-0.354719
-0.360608
-0.362299
-0.361617
-0.359741
-0.357049
-0.353819
-0.350339
-0.346881
-0.343172
-0.357438
-0.362911
-0.364261
-0.363276
-0.361112
-0.358145
-0.354651
-0.350911
-0.347201
-0.343368
-0.362897
-0.367516
-0.368172
-0.366578
-0.363832
-0.360308
-0.356278
-0.352001
-0.347768
-0.343679
-0.371137
-0.374423
-0.374014
-0.371492
-0.367865
-0.363493
-0.358636
-0.353516
-0.348444
-0.343948
-0.382219
-0.383632
-0.381756
-0.377981
-0.373168
-0.367651
-0.361659
-0.35534
-0.34903
-0.343914
-0.396208
-0.395128
-0.391359
-0.386004
-0.379711
-0.37276
-0.365314
-0.357391
-0.349317
-0.343247
-0.413138
-0.40887
-0.402764
-0.395521
-0.387488
-0.378861
-0.369695
-0.359786
-0.349305
-0.341688
-0.432954
-0.424759
-0.415879
-0.406471
-0.396486
-0.385998
-0.374919
-0.362658
-0.348757
-0.338059
-0.455446
-0.442622
-0.430587
-0.418811
-0.406744
-0.394262
-0.380969
-0.365398
-0.345375
-0.327582
-0.480177
-0.462192
-0.446791
-0.432692
-0.418884
-0.405148
-0.390736
-0.373065
-0.348034
-0.323372
-0.50646
-0.483044
-0.464218
-0.448023
-0.433275
-0.420333
-0.409552
-0.401568
-0.401515
-0.420591
-0.533468
-0.504595
-0.48225
-0.463693
-0.447339
-0.433635
-0.423071
-0.416684
-0.419483
-0.436731
-0.560474
-0.526386
-0.500611
-0.47958
-0.4612
-0.445816
-0.43381
-0.425879
-0.425045
-0.4329
-0.58683
-0.547943
-0.518988
-0.495512
-0.474859
-0.45719
-0.442679
-0.431563
-0.425264
-0.423949
-0.611784
-0.568598
-0.536756
-0.510844
-0.487611
-0.467016
-0.449027
-0.433516
-0.420878
-0.411241
-0.634345
-0.587414
-0.552969
-0.524568
-0.4984
-0.474288
-0.452121
-0.43159
-0.412527
-0.395694
-0.653226
-0.603179
-0.566394
-0.535396
-0.505934
-0.477837
-0.451076
-0.425359
-0.400293
-0.377558
-0.666865
-0.614435
-0.575566
-0.541844
-0.508784
-0.476402
-0.444925
-0.414224
-0.383892
-0.356598
-0.673497
-0.61954
-0.578861
-0.542317
-0.505471
-0.468727
-0.432705
-0.397519
-0.36286
-0.332314
-0.671252
-0.616753
-0.574582
-0.5352
-0.494562
-0.453641
-0.41353
-0.374605
-0.336682
-0.304114
-0.658271
-0.604328
-0.561056
-0.518964
-0.474765
-0.430137
-0.38667
-0.344958
-0.304909
-0.27146
-0.63282
-0.580622
-0.536746
-0.492269
-0.445021
-0.397457
-0.351619
-0.30824
-0.26725
-0.233976
-0.593423
-0.544228
-0.500373
-0.454076
-0.404591
-0.355151
-0.308151
-0.264355
-0.22364
-0.191527
-0.538984
-0.494084
-0.451026
-0.403736
-0.353123
-0.303123
-0.256347
-0.213486
-0.174283
-0.144257
-0.468904
-0.429595
-0.388259
-0.341053
-0.290674
-0.241624
-0.196584
-0.156084
-0.119655
-0.0925985
-0.383182
-0.350728
-0.312167
-0.266321
-0.217707
-0.171218
-0.129468
-0.0927693
-0.0603979
-0.0371876
-0.282513
-0.258093
-0.223435
-0.180341
-0.135082
-0.092751
-0.0557734
-0.0242495
0.00276084
0.0211399
-0.168342
-0.152981
-0.123352
-0.0844061
-0.0440379
-0.00736406
0.0234412
0.0483622
0.068298
0.0803436
-0.0428863
-0.0373719
-0.0137731
0.0198073
0.0540414
0.0838919
0.107329
0.123895
0.13377
0.136709
0.0908918
0.0860848
0.102883
0.130265
0.157828
0.180839
0.19733
0.205696
0.204677
0.198252
0.229409
0.214117
0.223507
0.244065
0.264857
0.281987
0.294233
0.299869
0.298761
0.311282
0.368765
0.343072
0.34448
0.357345
0.370405
0.3804
0.386513
0.387912
0.386729
0.398564
0.505014
0.469275
0.462389
0.466979
0.471669
0.473767
0.472759
0.468257
0.462444
0.466704
0.63431
0.589116
0.573944
0.570071
0.566203
0.56023
0.551938
0.541194
0.529826
0.526326
0.752995
0.699155
0.67605
0.663962
0.651821
0.638081
0.6228
0.606028
0.589273
0.578833
0.857688
0.796229
0.765891
0.74626
0.726572
0.705797
0.684228
0.662059
0.640491
0.624001
0.945377
0.877529
0.840982
0.814855
0.788708
0.761956
0.735083
0.708397
0.682803
0.661257
1.01351
0.940691
0.899233
0.867962
0.836729
0.805297
0.774297
0.744121
0.715414
0.689932
1.06009
0.983864
0.939008
0.904177
0.869439
0.834796
0.800978
0.76843
0.737602
0.709422
1.08373
1.00578
0.959181
0.922532
0.886008
0.849732
0.814485
0.780737
0.748836
0.719283
1.08373
1.00578
0.959181
0.922532
0.886008
0.849732
0.814485
0.780737
0.748837
0.719283
1.06009
0.983864
0.939008
0.904177
0.869439
0.834796
0.800978
0.76843
0.737603
0.709422
1.01351
0.940692
0.899233
0.867962
0.836729
0.805297
0.774298
0.744122
0.715415
0.689933
0.945378
0.87753
0.840983
0.814856
0.788709
0.761956
0.735084
0.708397
0.682804
0.661258
0.857689
0.796229
0.765891
0.746261
0.726572
0.705798
0.684229
0.662059
0.640491
0.624002
0.752996
0.699156
0.67605
0.663963
0.651822
0.638082
0.622801
0.606029
0.589273
0.578834
0.634311
0.589116
0.573944
0.570072
0.566204
0.56023
0.551938
0.541194
0.529827
0.526326
0.505015
0.469275
0.46239
0.46698
0.471669
0.473768
0.47276
0.468258
0.462445
0.466705
0.368766
0.343073
0.344481
0.357346
0.370406
0.380401
0.386514
0.387913
0.38673
0.398565
0.22941
0.214118
0.223508
0.244066
0.264858
0.281988
0.294234
0.29987
0.298762
0.311283
0.0908929
0.0860858
0.102884
0.130266
0.157829
0.18084
0.197331
0.205697
0.204678
0.198253
-0.0428851
-0.0373707
-0.013772
0.0198084
0.0540425
0.0838929
0.10733
0.123896
0.133771
0.13671
-0.168341
-0.15298
-0.123351
-0.084405
-0.0440367
-0.00736294
0.0234423
0.0483633
0.0682991
0.0803447
-0.282512
-0.258091
-0.223434
-0.180339
-0.135081
-0.0927499
-0.0557722
-0.0242483
0.00276199
0.021141
-0.383181
-0.350727
-0.312166
-0.266319
-0.217705
-0.171217
-0.129467
-0.0927681
-0.0603967
-0.0371865
-0.468902
-0.429594
-0.388258
-0.341052
-0.290673
-0.241622
-0.196583
-0.156082
-0.119654
-0.0925973
-0.538983
-0.494083
-0.451025
-0.403735
-0.353122
-0.303121
-0.256345
-0.213485
-0.174282
-0.144256
-0.593421
-0.544226
-0.500372
-0.454075
-0.40459
-0.35515
-0.30815
-0.264354
-0.223639
-0.191526
-0.632818
-0.580621
-0.536745
-0.492268
-0.445019
-0.397456
-0.351618
-0.308238
-0.267249
-0.233975
-0.65827
-0.604326
-0.561055
-0.518963
-0.474764
-0.430136
-0.386669
-0.344957
-0.304908
-0.271458
-0.67125
-0.616751
-0.57458
-0.535199
-0.494561
-0.453639
-0.413529
-0.374604
-0.336681
-0.304113
-0.673495
-0.619539
-0.57886
-0.542316
-0.50547
-0.468726
-0.432704
-0.397517
-0.362858
-0.332313
-0.666864
-0.614433
-0.575565
-0.541843
-0.508783
-0.4764
-0.444924
-0.414222
-0.383891
-0.356597
-0.653225
-0.603178
-0.566393
-0.535395
-0.505933
-0.477835
-0.451074
-0.425358
-0.400292
-0.377557
-0.634344
-0.587413
-0.552968
-0.524566
-0.498399
-0.474287
-0.45212
-0.431588
-0.412526
-0.395692
-0.611783
-0.568597
-0.536755
-0.510843
-0.48761
-0.467014
-0.449026
-0.433515
-0.420876
-0.41124
-0.586829
-0.547942
-0.518987
-0.495511
-0.474858
-0.457189
-0.442678
-0.431562
-0.425263
-0.423947
-0.560473
-0.526385
-0.50061
-0.479579
-0.461199
-0.445815
-0.433809
-0.425877
-0.425044
-0.432898
-0.533467
-0.504594
-0.482249
-0.463692
-0.447338
-0.433634
-0.42307
-0.416682
-0.419482
-0.43673
-0.50646
-0.483043
-0.464217
-0.448022
-0.433274
-0.420332
-0.409551
-0.401567
-0.401514
-0.42059
-0.480176
-0.462191
-0.44679
-0.432691
-0.418883
-0.405147
-0.390735
-0.373064
-0.348033
-0.323371
-0.455445
-0.442621
-0.430587
-0.41881
-0.406743
-0.394261
-0.380968
-0.365397
-0.345374
-0.327581
-0.432954
-0.424758
-0.415878
-0.40647
-0.396486
-0.385997
-0.374918
-0.362658
-0.348756
-0.338058
-0.413137
-0.408869
-0.402763
-0.39552
-0.387488
-0.37886
-0.369695
-0.359785
-0.349304
-0.341687
-0.396207
-0.395128
-0.391359
-0.386004
-0.37971
-0.37276
-0.365313
-0.35739
-0.349316
-0.343246
-0.382219
-0.383632
-0.381756
-0.377981
-0.373167
-0.367651
-0.361658
-0.35534
-0.34903
-0.343913
-0.371137
-0.374423
-0.374014
-0.371492
-0.367864
-0.363493
-0.358636
-0.353515
-0.348444
-0.343947
-0.362897
-0.367515
-0.368172
-0.366578
-0.363832
-0.360308
-0.356278
-0.352001
-0.347768
-0.343679
-0.357438
-0.36291
-0.36426
-0.363276
-0.361112
-0.358145
-0.354651
-0.350911
-0.347201
-0.343367
-0.354719
-0.360608
-0.362299
-0.361617
-0.359741
-0.357049
-0.353819
-0.350339
-0.346881
-0.343172
-0.297105
-0.131555
-0.0860823
-0.034548
-0.0229619
-0.0110733
-0.00719548
-0.00209624
-0.0012944
0.00340463
-0.298344
-0.132114
-0.0863635
-0.0347572
-0.0230403
-0.0111443
-0.00724035
-0.00213096
-0.0013144
0.00337808
-0.300752
-0.133216
-0.0869197
-0.0351761
-0.0231964
-0.0112856
-0.00732925
-0.0021999
-0.00135381
0.00332528
-0.304186
-0.134836
-0.0877383
-0.035806
-0.0234288
-0.0114955
-0.00746058
-0.00230203
-0.00141158
0.00324683
-0.308401
-0.136929
-0.0887923
-0.0366439
-0.0237342
-0.0117711
-0.00763189
-0.00243592
-0.0014861
0.0031435
-0.313052
-0.139424
-0.0900325
-0.0376751
-0.0241053
-0.0121069
-0.0078394
-0.00259934
-0.00157533
0.00301644
-0.317996
-0.14238
-0.0914587
-0.0388923
-0.0245398
-0.0124974
-0.00807952
-0.00278887
-0.00167786
0.0028681
-0.323627
-0.146391
-0.0933051
-0.0403842
-0.0250756
-0.0129522
-0.00835602
-0.00300239
-0.00179466
0.00270239
-0.328182
-0.151819
-0.0957385
-0.042306
-0.0257651
-0.0134995
-0.00868004
-0.00324831
-0.0019233
0.0025156
-0.32115
-0.154539
-0.0970216
-0.0440916
-0.0263492
-0.0140597
-0.0090088
-0.00353913
-0.00203284
0.00227738
-0.253358
-0.146237
-0.0934417
-0.0475239
-0.0269905
-0.0156049
-0.00995389
-0.00468587
-0.00228415
0.00121321
-0.19521
-0.1376
-0.0873478
-0.0488803
-0.0286951
-0.0179854
-0.0117826
-0.00635752
-0.00311855
-5.37465e-06
-0.154051
-0.119776
-0.0776271
-0.0471541
-0.0299155
-0.01997
-0.0133956
-0.00785219
-0.00398083
-0.00089982
-0.114302
-0.0986722
-0.0679292
-0.0449146
-0.0307331
-0.0215007
-0.0146778
-0.0090651
-0.00472593
-0.00150056
-0.0848309
-0.0811741
-0.0609754
-0.0434957
-0.0313734
-0.0226274
-0.0156763
-0.0100075
-0.0053474
-0.00188535
-0.0645007
-0.0681412
-0.055944
-0.042406
-0.0316464
-0.0233121
-0.0163951
-0.0107175
-0.00584787
-0.00212946
-0.0512906
-0.058738
-0.0520496
-0.041385
-0.0316331
-0.0236792
-0.0168953
-0.0112462
-0.00623636
-0.00228684
-0.0429109
-0.052175
-0.0490703
-0.0405027
-0.0315196
-0.0238734
-0.0172354
-0.011625
-0.0065204
-0.00238747
-0.0380023
-0.0480062
-0.0470547
-0.0398853
-0.0314236
-0.0239751
-0.0174448
-0.0118668
-0.0067057
-0.00244587
-0.0357227
-0.0459666
-0.0460401
-0.039583
-0.0313826
-0.0240192
-0.0175433
-0.0119808
-0.00679922
-0.00246946
-0.224951
-0.253009
-0.279012
-0.303239
-0.326064
-0.347976
-0.369577
-0.391487
-0.414178
-0.438176
-0.0727511
-0.0828374
-0.0919224
-0.100249
-0.108128
-0.115946
-0.124172
-0.133361
-0.144114
-0.158186
-0.0506606
-0.0598209
-0.0685938
-0.0769521
-0.0848572
-0.0922619
-0.0991195
-0.105399
-0.111093
-0.116309
-0.0237796
-0.0294726
-0.0349585
-0.0402563
-0.0453878
-0.0503763
-0.055245
-0.0600161
-0.0646857
-0.0691225
-0.0182578
-0.0226011
-0.0268186
-0.0309068
-0.0348619
-0.0386797
-0.0423567
-0.0458897
-0.0492555
-0.052414
-0.0131199
-0.0163261
-0.0194731
-0.0225602
-0.0255867
-0.0285522
-0.0314562
-0.0342976
-0.0370615
-0.0397449
-0.0120324
-0.0145624
-0.0170561
-0.0195094
-0.0219186
-0.0242809
-0.0265936
-0.0288545
-0.0310554
-0.0332057
-0.0112128
-0.0132644
-0.0152996
-0.0173143
-0.0193048
-0.0212677
-0.0232
-0.0250987
-0.026959
-0.0287861
-0.0111285
-0.0128977
-0.014659
-0.0164077
-0.0181397
-0.0198512
-0.0215386
-0.0231987
-0.0248285
-0.0264281
-0.0110667
-0.0126872
-0.014305
-0.0159162
-0.0175175
-0.0191054
-0.0206768
-0.0222289
-0.0237595
-0.0252659
0.161071
0.120035
0.0751131
0.0321996
-0.00950977
-0.050343
-0.0896843
-0.126985
-0.161998
-0.194648
0.112262
0.0864041
0.0599048
0.0371558
0.0170146
-0.00167921
-0.0189901
-0.0347191
-0.0488432
-0.0614725
0.0677542
0.0520537
0.0372024
0.0243208
0.0124574
0.000981589
-0.0101669
-0.0209056
-0.0312163
-0.0411268
0.0477852
0.0387605
0.0302139
0.0225463
0.0153024
0.00823173
0.00134064
-0.00531441
-0.0117137
-0.0178644
0.032278
0.0263458
0.0206431
0.0153684
0.0102834
0.00526789
0.000330799
-0.00449752
-0.00920523
-0.0137919
0.0220957
0.0182228
0.0144052
0.0107832
0.00725056
0.00374531
0.000269915
-0.00315966
-0.00653559
-0.00985599
0.0144167
0.0116973
0.00895856
0.00629102
0.00365034
0.00100739
-0.00163535
-0.00426713
-0.00688035
-0.00947019
0.0092627
0.00727592
0.00524304
0.00321747
0.00118525
-0.000864767
-0.00292985
-0.00500281
-0.00707749
-0.00914899
0.00594278
0.00435523
0.00272056
0.00106241
-0.000621795
-0.00233341
-0.00406839
-0.00582081
-0.00758506
-0.00935595
0.00435403
0.00294115
0.00148561
-2.33141e-06
-0.00152112
-0.00306826
-0.00463931
-0.00622931
-0.00783351
-0.00944744
0.329533
0.328846
0.327209
0.32422
0.319113
0.310646
0.297048
0.275945
0.244709
0.200128
0.23982
0.2388
0.236146
0.231548
0.224696
0.215146
0.202324
0.185578
0.164165
0.137571
0.169142
0.168105
0.165408
0.160858
0.154371
0.145822
0.135009
0.121713
0.105519
0.0865265
0.117626
0.116812
0.114682
0.111097
0.106059
0.0995808
0.0916461
0.0822645
0.0713587
0.0592773
0.0813686
0.0807766
0.0792183
0.0765889
0.0729107
0.0682262
0.0625619
0.0559551
0.048385
0.0400655
0.0562467
0.0558212
0.054699
0.0528054
0.0501647
0.0468211
0.0428111
0.038178
0.0329397
0.0272462
0.0391363
0.0388255
0.0380054
0.0366219
0.0346947
0.0322588
0.0293441
0.0259827
0.0221942
0.0180642
0.0278789
0.0276432
0.0270212
0.0259721
0.0245112
0.0226662
0.020461
0.0179201
0.0150642
0.0119465
0.0210615
0.0208702
0.0203654
0.0195141
0.0183287
0.0168309
0.0150398
0.0129737
0.0106505
0.00810247
0.0178475
0.0176765
0.0172262
0.0164671
0.0154098
0.0140735
0.0124748
0.0106296
0.00855481
0.0062739
0.480091
0.481772
0.488156
0.499316
0.515167
0.536029
0.562363
0.594691
0.633544
0.679154
0.477848
0.479505
0.485808
0.496813
0.512416
0.532901
0.558671
0.590163
0.627766
0.671593
0.473414
0.475028
0.481178
0.491881
0.507
0.526746
0.551407
0.581249
0.616378
0.656678
0.466889
0.468451
0.474391
0.484663
0.499084
0.517758
0.5408
0.568222
0.5997
0.634813
0.458411
0.459926
0.465619
0.475357
0.488897
0.506205
0.527174
0.551473
0.578201
0.606582
0.448147
0.449641
0.455069
0.464192
0.476697
0.492388
0.51089
0.531453
0.552453
0.572715
0.436292
0.437833
0.443017
0.451482
0.462842
0.476714
0.492413
0.508695
0.52313
0.534067
0.423049
0.424821
0.429892
0.437768
0.448008
0.460008
0.472705
0.484219
0.491216
0.491399
0.408495
0.410747
0.415897
0.423318
0.432551
0.442775
0.452479
0.458952
0.457711
0.444254
0.392308
0.394765
0.399538
0.405896
0.413399
0.421096
0.427188
0.428438
0.419992
0.392578
0.392309
0.394765
0.399539
0.405897
0.4134
0.421096
0.427189
0.428439
0.419993
0.392579
0.408496
0.410748
0.415898
0.423318
0.432552
0.442776
0.45248
0.458953
0.457712
0.444255
0.42305
0.424822
0.429892
0.437769
0.448009
0.460008
0.472706
0.48422
0.491217
0.4914
0.436292
0.437834
0.443018
0.451482
0.462843
0.476715
0.492414
0.508696
0.523131
0.534067
0.448147
0.449642
0.45507
0.464193
0.476698
0.492389
0.510891
0.531454
0.552454
0.572715
0.458411
0.459927
0.46562
0.475358
0.488898
0.506206
0.527174
0.551473
0.578202
0.606582
0.466889
0.468451
0.474392
0.484664
0.499085
0.517758
0.540801
0.568222
0.599701
0.634814
0.473414
0.475028
0.481179
0.491881
0.507
0.526746
0.551407
0.581249
0.616378
0.656679
0.477848
0.479505
0.485808
0.496813
0.512416
0.532901
0.558672
0.590164
0.627766
0.671593
0.480091
0.481772
0.488156
0.499316
0.515167
0.536029
0.562363
0.594691
0.633544
0.679155
0.0178499
0.017679
0.0172287
0.0164696
0.0154123
0.014076
0.0124773
0.0106321
0.0085573
0.00627642
0.021064
0.0208726
0.0203679
0.0195166
0.0183312
0.0168334
0.0150423
0.0129762
0.010653
0.00810496
0.0278813
0.0276456
0.0270236
0.0259745
0.0245136
0.0226687
0.0204634
0.0179225
0.0150667
0.0119489
0.0391386
0.0388278
0.0380077
0.0366242
0.034697
0.0322611
0.0293464
0.025985
0.0221965
0.0180665
0.0562489
0.0558234
0.0547012
0.0528076
0.0501669
0.0468233
0.0428133
0.0381801
0.0329419
0.0272483
0.0813705
0.0807785
0.0792202
0.0765908
0.0729126
0.0682281
0.0625639
0.055957
0.0483869
0.0400674
0.117628
0.116814
0.114684
0.111099
0.106061
0.0995825
0.0916479
0.0822662
0.0713605
0.0592791
0.169143
0.168106
0.165409
0.160859
0.154373
0.145824
0.135011
0.121715
0.10552
0.086528
0.239821
0.238801
0.236147
0.23155
0.224697
0.215147
0.202325
0.18558
0.164167
0.137572
0.329534
0.328847
0.32721
0.324221
0.319114
0.310647
0.297049
0.275946
0.24471
0.200129
0.0043565
0.00294359
0.00148807
1.42553e-07
-0.00151863
-0.00306576
-0.00463679
-0.00622677
-0.00783096
-0.00944487
0.00594527
0.0043577
0.00272302
0.00106486
-0.000619344
-0.00233097
-0.00406595
-0.00581837
-0.00758261
-0.0093535
0.0092651
0.0072783
0.00524541
0.00321983
0.0011876
-0.000862431
-0.00292753
-0.00500051
-0.00707519
-0.0091467
0.014419
0.0116995
0.00896078
0.00629322
0.00365251
0.00100954
-0.00163322
-0.00426503
-0.00687828
-0.00946814
0.0220978
0.0182249
0.0144073
0.0107852
0.00725256
0.00374728
0.000271846
-0.00315777
-0.00653375
-0.0098542
0.0322799
0.0263478
0.020645
0.0153703
0.0102852
0.00526971
0.000332586
-0.00449577
-0.00920353
-0.0137902
0.047787
0.0387623
0.0302156
0.022548
0.015304
0.00823337
0.00134224
-0.00531284
-0.0117121
-0.0178629
0.0677558
0.0520553
0.037204
0.0243223
0.0124589
0.000983074
-0.0101654
-0.0209042
-0.0312149
-0.0411255
0.112263
0.0864054
0.0599062
0.0371571
0.0170159
-0.00167791
-0.0189889
-0.0347179
-0.048842
-0.0614713
0.161072
0.120036
0.0751143
0.0322008
-0.00950856
-0.0503418
-0.0896831
-0.126984
-0.161997
-0.194647
-0.0110642
-0.0126847
-0.0143025
-0.0159139
-0.0175152
-0.0191031
-0.0206746
-0.0222267
-0.0237573
-0.0252638
-0.011126
-0.0128953
-0.0146566
-0.0164054
-0.0181375
-0.019849
-0.0215364
-0.0231966
-0.0248265
-0.0264261
-0.0112105
-0.0132622
-0.0152974
-0.0173121
-0.0193027
-0.0212656
-0.0231979
-0.0250967
-0.0269571
-0.0287842
-0.0120303
-0.0145604
-0.0170541
-0.0195074
-0.0219167
-0.024279
-0.0265918
-0.0288526
-0.0310536
-0.033204
-0.0131182
-0.0163243
-0.0194714
-0.0225584
-0.025585
-0.0285505
-0.0314546
-0.0342959
-0.0370599
-0.0397433
-0.0182562
-0.0225994
-0.026817
-0.0309052
-0.0348603
-0.0386782
-0.0423552
-0.0458883
-0.049254
-0.0524126
-0.0237782
-0.0294712
-0.0349571
-0.040255
-0.0453864
-0.0503749
-0.0552437
-0.0600148
-0.0646844
-0.0691212
-0.0506593
-0.0598196
-0.0685925
-0.0769509
-0.084856
-0.0922607
-0.0991183
-0.105398
-0.111092
-0.116308
-0.07275
-0.0828362
-0.0919213
-0.100248
-0.108127
-0.115944
-0.124171
-0.133359
-0.144113
-0.158184
-0.22495
-0.253008
-0.279011
-0.303237
-0.326062
-0.347975
-0.369575
-0.391486
-0.414176
-0.438174
-0.0357209
-0.0459653
-0.0460392
-0.0395823
-0.0313821
-0.0240188
-0.0175428
-0.0119804
-0.00679901
-0.00246937
-0.0380006
-0.048005
-0.0470538
-0.0398847
-0.031423
-0.0239746
-0.0174444
-0.0118664
-0.0067055
-0.00244578
-0.0429093
-0.0521738
-0.0490695
-0.0405022
-0.0315191
-0.0238729
-0.0172349
-0.0116247
-0.00652021
-0.00238739
-0.0512891
-0.058737
-0.0520489
-0.0413846
-0.0316327
-0.0236788
-0.0168948
-0.0112458
-0.00623617
-0.00228677
-0.0644993
-0.0681402
-0.0559435
-0.0424057
-0.0316461
-0.0233117
-0.0163946
-0.0107172
-0.00584768
-0.00212941
-0.0848297
-0.0811733
-0.060975
-0.0434956
-0.0313732
-0.022627
-0.0156758
-0.0100072
-0.00534721
-0.00188532
-0.114301
-0.0986715
-0.067929
-0.0449147
-0.030733
-0.0215002
-0.0146773
-0.00906471
-0.00472573
-0.00150055
-0.15405
-0.119776
-0.0776271
-0.0471545
-0.0299154
-0.0199693
-0.0133948
-0.0078517
-0.00398062
-0.000899853
-0.195209
-0.137599
-0.0873482
-0.0488811
-0.0286951
-0.0179847
-0.0117817
-0.00635688
-0.00311831
-5.46702e-06
-0.253357
-0.146236
-0.0934423
-0.047525
-0.0269908
-0.0156042
-0.00995296
-0.00468514
-0.00228387
0.00121309
-0.321149
-0.154538
-0.097022
-0.0440925
-0.0263495
-0.0140592
-0.00900808
-0.00353853
-0.00203259
0.00227728
-0.328181
-0.151818
-0.0957389
-0.0423069
-0.0257654
-0.013499
-0.00867938
-0.00324775
-0.00192307
0.00251551
-0.323626
-0.14639
-0.0933055
-0.040385
-0.0250758
-0.0129517
-0.00835541
-0.00300188
-0.00179444
0.00270231
-0.317995
-0.142379
-0.0914592
-0.038893
-0.0245401
-0.012497
-0.00807898
-0.00278841
-0.00167766
0.00286802
-0.313051
-0.139423
-0.0900329
-0.0376758
-0.0241055
-0.0121065
-0.00783892
-0.00259895
-0.00157515
0.00301638
-0.3084
-0.136929
-0.0887926
-0.0366444
-0.0237344
-0.0117708
-0.00763149
-0.00243559
-0.00148594
0.00314345
-0.304185
-0.134836
-0.0877386
-0.0358065
-0.0234289
-0.0114952
-0.00746027
-0.00230178
-0.00141145
0.00324679
-0.300752
-0.133216
-0.0869199
-0.0351765
-0.0231965
-0.0112854
-0.00732903
-0.00219973
-0.00135371
0.00332526
-0.298344
-0.132114
-0.0863636
-0.0347573
-0.0230404
-0.0111442
-0.00724022
-0.00213088
-0.00131432
0.00337807
-0.297105
-0.131555
-0.0860823
-0.0345481
-0.022962
-0.0110732
-0.00719544
-0.00209621
-0.00129437
0.00340462
)
;

boundaryField
{
    inlet
    {
        type            zeroGradient;
    }
    outlet
    {
        type            fixedValue;
        value           uniform 0;
    }
    cylinder
    {
        type            zeroGradient;
    }
    top
    {
        type            symmetryPlane;
    }
    bottom
    {
        type            symmetryPlane;
    }
    defaultFaces
    {
        type            empty;
    }
}


// ************************************************************************* //
