/*--------------------------------*- C++ -*----------------------------------*\
  =========                 |
  \\      /  F ield         | OpenFOAM: The Open Source CFD Toolbox
   \\    /   O peration     | Website:  https://openfoam.org
    \\  /    A nd           | Version:  6.0
     \\/     M anipulation  |
\*---------------------------------------------------------------------------*/
FoamFile
{
    version     2.0;
    format      ascii;
    class       surfaceScalarField;
    location    "15";
    object      phi;
}
// * * * * * * * * * * * * * * * * * * * * * * * * * * * * * * * * * * * * * //

dimensions      [0 3 -1 0 0 0 0];

internalField   nonuniform List<scalar> 
3880
(
-1.79699e-05
1.79703e-05
-4.23654e-10
-5.34589e-05
3.54899e-05
-9.91165e-10
-9.52777e-05
4.18202e-05
-1.38723e-09
-0.00013635
4.10741e-05
-1.65004e-09
-0.000172309
3.59607e-05
-1.80892e-09
-0.000200741
2.84337e-05
-1.88862e-09
-0.000220716
1.9977e-05
-1.90157e-09
-0.000232481
1.17673e-05
-1.85679e-09
-0.000237255
4.77559e-06
-1.75889e-09
-2.29557e-07
-1.62249e-09
-0.000237024
-1.72927e-05
3.5263e-05
-5.08142e-05
6.90114e-05
-8.95123e-05
8.05184e-05
-0.000126423
7.79845e-05
-0.000157218
6.67564e-05
-0.000179451
5.06661e-05
-0.000192102
3.26281e-05
-0.000195318
1.49831e-05
-0.00019026
-2.81641e-07
-1.15395e-05
-0.00017895
-1.5903e-05
5.11661e-05
-4.5408e-05
9.85163e-05
-7.7778e-05
0.000112888
-0.000106317
0.000106523
-0.000126821
8.72605e-05
-0.000136808
6.06535e-05
-0.000135101
3.09206e-05
-0.000121635
1.51724e-06
-9.74339e-05
-2.44825e-05
-4.44029e-05
-6.45705e-05
-1.37132e-05
6.48792e-05
-3.69573e-05
0.00012176
-5.95647e-05
0.000135496
-7.53455e-05
0.000122304
-8.03949e-05
9.23099e-05
-7.22828e-05
5.25414e-05
-4.96535e-05
8.29127e-06
-1.21235e-05
-3.60127e-05
3.95554e-05
-7.61614e-05
-0.000108137
0.000103289
-1.05591e-05
7.54383e-05
-2.49421e-05
0.000136143
-3.38992e-05
0.000144453
-3.20876e-05
0.000120492
-1.6209e-05
7.64313e-05
1.58752e-05
2.04573e-05
6.55842e-05
-4.14178e-05
0.000133684
-0.000104113
0.000219896
-0.000162373
-0.000210463
0.000322222
-6.18821e-06
8.16265e-05
-8.57016e-06
0.000138525
7.62351e-07
0.00013512
2.58868e-05
9.5368e-05
6.90413e-05
3.32768e-05
0.000131603
-4.2104e-05
0.000214668
-0.000124483
0.000319257
-0.000208702
0.000445801
-0.000288917
-0.000357235
0.000592573
-2.87099e-07
8.19136e-05
1.31395e-05
0.000125099
4.64225e-05
0.000101838
0.000101984
3.98066e-05
0.000180478
-4.52173e-05
0.000281801
-0.000143427
0.000405882
-0.000248564
0.000553294
-0.000356114
0.000725145
-0.000460768
-0.000552643
0.000920554
7.42972e-06
7.44839e-05
4.10753e-05
9.14532e-05
0.000105018
3.78945e-05
0.000199854
-5.50288e-05
0.000324288
-0.000169651
0.000475946
-0.000295086
0.000652222
-0.00042484
0.000851426
-0.000555319
0.00107406
-0.0006834
-0.000802189
0.0013236
1.70716e-05
5.74124e-05
7.55557e-05
3.29691e-05
0.000177452
-6.40016e-05
0.00032184
-0.000199417
0.00050576
-0.000353571
0.000724431
-0.000513757
0.000971569
-0.000671977
0.00124038
-0.000824134
0.00152715
-0.000970166
-0.00112096
0.00184592
2.83734e-05
2.90389e-05
0.000115667
-5.43249e-05
0.000262088
-0.000210422
0.000466223
-0.000403552
0.000725263
-0.000612611
0.00103471
-0.000823206
0.00138775
-0.00102501
0.00177359
-0.00120998
0.00217661
-0.00137318
-0.00151821
0.00257385
4.052e-05
-1.14811e-05
0.000158554
-0.000172359
0.000352487
-0.000404355
0.000621042
-0.000672108
0.000963586
-0.000955154
0.00138079
-0.00124041
0.00187588
-0.00152011
0.00245787
-0.00179196
0.00314943
-0.00206474
-0.00237646
0.00400768
5.24262e-05
-6.39073e-05
0.000200207
-0.00032014
0.000438549
-0.000642697
0.000763928
-0.000997486
0.00117365
-0.00136487
0.00166583
-0.00173259
0.00223938
-0.00209366
0.0028934
-0.00244599
0.00362242
-0.00279376
-0.0031462
0.00439216
6.3571e-05
-0.000127478
0.000238567
-0.000495136
0.000515529
-0.000919659
0.000886424
-0.00136838
0.00134347
-0.00182192
0.0018785
-0.00226763
0.0024823
-0.00269746
0.00314305
-0.00310674
0.00384219
-0.00349289
-0.00384999
0.00454598
7.3974e-05
-0.000201452
0.000273356
-0.000694518
0.000582878
-0.00122918
0.000988723
-0.00177423
0.00147698
-0.00231018
0.00203302
-0.00282366
0.002641
-0.00330544
0.00328318
-0.00374892
0.00393827
-0.00414799
-0.00449163
0.00457991
8.37787e-05
-0.000285231
0.000304719
-0.000915459
0.000640865
-0.00156533
0.00107199
-0.00220535
0.00157803
-0.00281622
0.00213877
-0.00338439
0.00273394
-0.00390062
0.00334343
-0.0043584
0.00394706
-0.00475162
-0.00506955
0.00452498
9.29748e-05
-0.000378206
0.000332398
-0.00115488
0.000688919
-0.00192185
0.00113569
-0.00265212
0.00164692
-0.00332745
0.00219802
-0.00393549
0.00276624
-0.00446884
0.00333126
-0.00492342
0.00387561
-0.00529598
-0.00557939
0.00438545
0.000101319
-0.000479524
0.00035551
-0.00140907
0.000725331
-0.00229167
0.00117741
-0.00310421
0.00168103
-0.00383107
0.00220862
-0.00446308
0.00273665
-0.00499686
0.00324627
-0.00543303
0.00372364
-0.00577335
-0.00601635
0.0041606
0.000108379
-0.000587904
0.00037271
-0.0016734
0.000747678
-0.00266663
0.00119389
-0.00355042
0.0016768
-0.00431398
0.00216742
-0.00495371
0.00264308
-0.00547253
0.00308771
-0.00587766
0.00349174
-0.00617737
-0.00637688
0.00385227
0.000113633
-0.000701537
0.000382483
-0.00194225
0.000753447
-0.0030376
0.00118204
-0.00397901
0.00163135
-0.00476329
0.00207263
-0.00539499
0.00248554
-0.00588544
0.00285778
-0.00624989
0.00318427
-0.00650387
-0.0066594
0.00346679
0.000116547
-0.000818084
0.000383414
-0.00220912
0.000740553
-0.00339474
0.00113978
-0.00437824
0.00154353
-0.00516704
0.00192491
-0.00577636
0.00226712
-0.00622765
0.00256218
-0.00654496
0.00280941
-0.0067511
-0.00686436
0.00301437
0.000116657
-0.000934741
0.000374397
-0.00246686
0.000707681
-0.00372802
0.00106643
-0.00473698
0.00141422
-0.00551484
0.00172749
-0.00608963
0.00199377
-0.00649394
0.00220957
-0.00676076
0.00237808
-0.00691961
-0.00699398
0.0025077
0.00011356
-0.0010483
0.000354667
-0.00270797
0.000654324
-0.00402768
0.000962632
-0.00504529
0.00124611
-0.00579832
0.00148561
-0.00632912
0.00167342
-0.00668175
0.00181024
-0.00689757
0.00190241
-0.00701178
-0.00705174
0.00196018
0.000106997
-0.0011553
0.000323942
-0.00292491
0.000580906
-0.00428464
0.000830382
-0.00529477
0.0010434
-0.00601133
0.00120596
-0.00649169
0.0013151
-0.00679089
0.00137508
-0.00695755
0.00139459
-0.00703129
-0.00704196
0.00138481
9.68225e-05
-0.00125212
0.000282348
-0.00311044
0.000488583
-0.00449088
0.000672587
-0.00547877
0.000811148
-0.00614989
0.0008958
-0.00657634
0.000927891
-0.00682298
0.000914525
-0.00694419
0.000865801
-0.00698257
-0.00696928
0.000793127
8.30183e-05
-0.00133514
0.000230403
-0.00325782
0.000379126
-0.0046396
0.000492782
-0.00559242
0.00055481
-0.00621192
0.000562264
-0.0065838
0.000520229
-0.00678094
0.000437754
-0.00686171
0.000325525
-0.00687034
-0.00683844
0.000194683
6.57034e-05
-0.00140084
0.000168997
-0.00336112
0.0002548
-0.00472541
0.000294863
-0.00563249
0.000279785
-0.00619684
0.000211876
-0.00651589
9.92885e-05
-0.00666835
-4.7825e-05
-0.0067146
-0.000218947
-0.00669922
-0.00665398
-0.00040341
4.515e-05
-0.00144599
9.93953e-05
-0.00341536
0.000118318
-0.00474433
8.29901e-05
-0.00559716
-8.71575e-06
-0.00610514
-0.000149658
-0.00637494
-0.000329237
-0.00648878
-0.000536863
-0.00650697
-0.000762811
-0.00647327
-0.00641964
-0.00099715
2.181e-05
-0.0014678
2.32736e-05
-0.00341682
-2.71263e-05
-0.00469393
-0.000138366
-0.00548592
-0.000305576
-0.00593793
-0.000517329
-0.00616319
-0.000761039
-0.00624507
-0.00102607
-0.00624194
-0.00130403
-0.00619531
-0.00613581
-0.00158786
-3.64363e-06
-0.00146416
-5.72033e-05
-0.00336327
-0.000177732
-0.0045734
-0.000364262
-0.00529939
-0.00060568
-0.00569651
-0.000887069
-0.0058818
-0.00119419
-0.00593795
-0.00151624
-0.00591988
-0.00184638
-0.00586517
-0.00579574
-0.00218644
-3.02531e-05
-0.00143391
-0.000139206
-0.00325431
-0.000328636
-0.00438397
-0.0005883
-0.00503973
-0.000902345
-0.00538246
-0.00125415
-0.00553
-0.00162916
-0.00556294
-0.00201696
-0.00553208
-0.00241385
-0.00546828
-0.0054046
-0.00280499
-5.6781e-05
-0.00137712
-0.000219205
-0.00309189
-0.000473412
-0.00412976
-0.000800535
-0.0047126
-0.00118142
-0.00500158
-0.00160013
-0.00511129
-0.0020454
-0.00511767
-0.00251004
-0.00506744
-0.00299283
-0.00498549
-0.00487065
-0.00352679
-8.21483e-05
-0.00129498
-0.00029415
-0.00287989
-0.000606298
-0.00381761
-0.000990826
-0.00432807
-0.00142417
-0.00456824
-0.00188827
-0.00464719
-0.00237013
-0.0046358
-0.00286074
-0.00457683
-0.00335376
-0.00449247
-0.00439079
-0.00383363
-0.000105719
-0.00118926
-0.000362667
-0.00262294
-0.00072595
-0.00345433
-0.00115952
-0.00389451
-0.00163583
-0.00409193
-0.00213515
-0.00414786
-0.00264405
-0.00412691
-0.00315347
-0.0040674
-0.00365625
-0.00398969
-0.00390418
-0.00414285
-0.000127154
-0.0010621
-0.000424183
-0.00232591
-0.000832289
-0.00304623
-0.00130824
-0.00341855
-0.00182148
-0.0035787
-0.00235152
-0.00361782
-0.00288528
-0.00359314
-0.0034146
-0.00353809
-0.0039339
-0.0034704
-0.00339944
-0.00443864
-0.000146195
-0.000915909
-0.000478274
-0.00199383
-0.000925154
-0.00259935
-0.00143761
-0.0029061
-0.00198287
-0.00303344
-0.0025403
-0.00306038
-0.00309761
-0.00303583
-0.00364779
-0.00298791
-0.00418687
-0.00293132
-0.00287375
-0.00471256
-0.000162598
-0.000753311
-0.000524493
-0.00163193
-0.00100413
-0.00211971
-0.0015474
-0.00236282
-0.00211999
-0.00246085
-0.00270139
-0.00247899
-0.00328015
-0.00245708
-0.00385034
-0.00241772
-0.00440916
-0.0023725
-0.00232742
-0.00495549
-0.000176114
-0.000577197
-0.000562335
-0.00124571
-0.00106856
-0.00161348
-0.0016369
-0.00179449
-0.00223192
-0.00186583
-0.00283334
-0.00187756
-0.00343048
-0.00185994
-0.00401827
-0.00182993
-0.00459467
-0.0017961
-0.00176283
-0.00515926
-0.000186505
-0.000390692
-0.000591282
-0.000840938
-0.00111774
-0.00108703
-0.00170515
-0.00120707
-0.00231736
-0.00125362
-0.00293434
-0.00126058
-0.00354597
-0.00124831
-0.00414779
-0.00122811
-0.00473829
-0.0012056
-0.00118367
-0.00531745
-0.000193562
-0.00019713
-0.000610871
-0.000423628
-0.00115095
-0.000546945
-0.00175125
-0.000606777
-0.00237511
-0.000629755
-0.00300271
-0.000632986
-0.00362432
-0.000626699
-0.00423588
-0.000616542
-0.00483618
-0.000605306
-0.000594414
-0.00542544
-0.00019713
-2.02201e-10
-0.000620758
-4.2791e-10
-0.0011677
-5.45378e-10
-0.00177448
-5.95074e-10
-0.00240423
-6.06095e-10
-0.00303722
-5.96324e-10
-0.00366392
-5.7631e-10
-0.00428046
-5.51606e-10
-0.00488576
-5.25074e-10
-4.99759e-10
-0.00548018
-0.00019713
0.00019713
-0.000620758
0.000423627
-0.0011677
0.000546944
-0.00177448
0.000606775
-0.00240423
0.000629754
-0.00303722
0.000632985
-0.00366392
0.000626697
-0.00428046
0.00061654
-0.00488576
0.000605305
0.000594413
-0.00548018
-0.000193562
0.000390691
-0.000610871
0.000840937
-0.00115095
0.00108703
-0.00175125
0.00120707
-0.00237511
0.00125362
-0.00300271
0.00126058
-0.00362432
0.00124831
-0.00423588
0.0012281
-0.00483618
0.0012056
0.00118367
-0.00542544
-0.000186505
0.000577196
-0.000591282
0.00124571
-0.00111774
0.00161348
-0.00170515
0.00179448
-0.00231736
0.00186583
-0.00293434
0.00187756
-0.00354597
0.00185994
-0.00414779
0.00182993
-0.00473829
0.0017961
0.00176283
-0.00531745
-0.000176114
0.000753311
-0.000562335
0.00163193
-0.00106857
0.00211971
-0.0016369
0.00236282
-0.00223192
0.00246085
-0.00283334
0.00247898
-0.00343048
0.00245708
-0.00401827
0.00241771
-0.00459467
0.0023725
0.00232742
-0.00515926
-0.000162598
0.000915908
-0.000524493
0.00199383
-0.00100413
0.00259934
-0.0015474
0.0029061
-0.00211999
0.00303344
-0.00270139
0.00306038
-0.00328015
0.00303583
-0.00385034
0.00298791
-0.00440916
0.00293132
0.00287375
-0.00495549
-0.000146195
0.0010621
-0.000478274
0.00232591
-0.000925154
0.00304622
-0.00143761
0.00341855
-0.00198287
0.0035787
-0.0025403
0.00361782
-0.00309761
0.00359314
-0.00364779
0.00353809
-0.00418687
0.0034704
0.00339944
-0.00471256
-0.000127154
0.00118926
-0.000424183
0.00262294
-0.000832289
0.00345433
-0.00130824
0.00389451
-0.00182148
0.00409193
-0.00235152
0.00414786
-0.00288528
0.00412691
-0.0034146
0.0040674
-0.0039339
0.00398969
0.00390418
-0.00443864
-0.000105719
0.00129498
-0.000362667
0.00287989
-0.00072595
0.00381761
-0.00115952
0.00432807
-0.00163583
0.00456824
-0.00213515
0.00464719
-0.00264405
0.0046358
-0.00315347
0.00457683
-0.00365625
0.00449247
0.00439078
-0.00414285
-8.21483e-05
0.00137712
-0.00029415
0.00309189
-0.000606298
0.00412976
-0.000990826
0.0047126
-0.00142417
0.00500158
-0.00188827
0.00511128
-0.00237013
0.00511767
-0.00286074
0.00506744
-0.00335376
0.00498549
0.00487065
-0.00383363
-5.67811e-05
0.00143391
-0.000219205
0.00325431
-0.000473412
0.00438397
-0.000800536
0.00503972
-0.00118142
0.00538246
-0.00160013
0.00553
-0.0020454
0.00556294
-0.00251004
0.00553208
-0.00299283
0.00546828
0.0054046
-0.00352679
-3.02531e-05
0.00146416
-0.000139206
0.00336326
-0.000328636
0.0045734
-0.0005883
0.00529939
-0.000902345
0.00569651
-0.00125415
0.0058818
-0.00162916
0.00593795
-0.00201696
0.00591988
-0.00241385
0.00586517
0.00579574
-0.00280499
-3.64364e-06
0.0014678
-5.72034e-05
0.00341682
-0.000177732
0.00469393
-0.000364262
0.00548592
-0.00060568
0.00593793
-0.000887069
0.00616319
-0.00119419
0.00624507
-0.00151624
0.00624194
-0.00184638
0.00619531
0.00613581
-0.00218644
2.18099e-05
0.00144599
2.32735e-05
0.00341536
-2.71264e-05
0.00474433
-0.000138366
0.00559716
-0.000305576
0.00610514
-0.00051733
0.00637494
-0.00076104
0.00648878
-0.00102607
0.00650697
-0.00130403
0.00647327
0.00641964
-0.00158786
4.51499e-05
0.00140084
9.93952e-05
0.00336112
0.000118317
0.0047254
8.299e-05
0.00563249
-8.71588e-06
0.00619684
-0.000149658
0.00651589
-0.000329237
0.00666835
-0.000536863
0.0067146
-0.000762811
0.00669921
0.00665398
-0.00099715
6.57034e-05
0.00133514
0.000168997
0.00325782
0.0002548
0.0046396
0.000294863
0.00559242
0.000279784
0.00621192
0.000211876
0.00658379
9.92884e-05
0.00678094
-4.78251e-05
0.00686171
-0.000218947
0.00687034
0.00683844
-0.00040341
8.30182e-05
0.00125212
0.000230403
0.00311044
0.000379126
0.00449088
0.000492782
0.00547877
0.00055481
0.00614989
0.000562264
0.00657634
0.000520229
0.00682298
0.000437754
0.00694418
0.000325525
0.00698257
0.00696928
0.000194683
9.68225e-05
0.0011553
0.000282348
0.00292491
0.000488583
0.00428464
0.000672587
0.00529476
0.000811148
0.00601133
0.0008958
0.00649169
0.000927891
0.00679089
0.000914525
0.00695755
0.000865801
0.00703129
0.00704196
0.000793127
0.000106997
0.0010483
0.000323942
0.00270797
0.000580906
0.00402768
0.000830382
0.00504529
0.0010434
0.00579832
0.00120596
0.00632912
0.0013151
0.00668175
0.00137508
0.00689757
0.00139459
0.00701178
0.00705174
0.00138481
0.00011356
0.000934741
0.000354667
0.00246686
0.000654324
0.00372802
0.000962632
0.00473698
0.00124611
0.00551484
0.00148561
0.00608962
0.00167342
0.00649394
0.00181024
0.00676075
0.00190241
0.0069196
0.00699398
0.00196018
0.000116657
0.000818084
0.000374397
0.00220912
0.000707681
0.00339474
0.00106643
0.00437824
0.00141422
0.00516704
0.00172749
0.00577636
0.00199377
0.00622765
0.00220957
0.00654496
0.00237808
0.00675109
0.00686436
0.0025077
0.000116547
0.000701537
0.000383414
0.00194225
0.000740553
0.0030376
0.00113978
0.00397901
0.00154353
0.00476329
0.00192491
0.00539499
0.00226712
0.00588544
0.00256218
0.00624989
0.00280941
0.00650386
0.0066594
0.00301437
0.000113633
0.000587904
0.000382483
0.0016734
0.000753447
0.00266663
0.00118204
0.00355042
0.00163135
0.00431398
0.00207263
0.00495371
0.00248554
0.00547253
0.00285778
0.00587766
0.00318427
0.00617737
0.00637688
0.00346679
0.000108379
0.000479524
0.00037271
0.00140907
0.000747678
0.00229167
0.00119389
0.00310421
0.0016768
0.00383107
0.00216742
0.00446308
0.00264308
0.00499686
0.00308771
0.00543303
0.00349174
0.00577335
0.00601635
0.00385227
0.000101318
0.000378206
0.00035551
0.00115488
0.00072533
0.00192185
0.00117741
0.00265212
0.00168103
0.00332745
0.00220862
0.00393549
0.00273665
0.00446883
0.00324627
0.00492342
0.00372364
0.00529598
0.00557939
0.0041606
9.29748e-05
0.000285231
0.000332398
0.000915459
0.000688918
0.00156533
0.00113569
0.00220535
0.00164692
0.00281622
0.00219802
0.00338439
0.00276624
0.00390062
0.00333126
0.0043584
0.00387561
0.00475162
0.00506955
0.00438545
8.37787e-05
0.000201452
0.000304719
0.000694518
0.000640864
0.00122918
0.00107199
0.00177423
0.00157803
0.00231018
0.00213877
0.00282366
0.00273394
0.00330544
0.00334343
0.00374892
0.00394706
0.00414799
0.00449163
0.00452498
7.3974e-05
0.000127478
0.000273356
0.000495136
0.000582878
0.000919659
0.000988722
0.00136838
0.00147698
0.00182192
0.00203302
0.00226763
0.002641
0.00269746
0.00328318
0.00310674
0.00393827
0.00349289
0.00384999
0.00457991
6.3571e-05
6.39074e-05
0.000238567
0.00032014
0.000515529
0.000642698
0.000886424
0.000997486
0.00134347
0.00136487
0.0018785
0.00173259
0.0024823
0.00209365
0.00314305
0.00244599
0.00384219
0.00279376
0.0031462
0.00454598
5.24262e-05
1.14812e-05
0.000200207
0.000172359
0.000438549
0.000404355
0.000763927
0.000672108
0.00117365
0.000955154
0.00166582
0.00124041
0.00223937
0.00152011
0.0028934
0.00179196
0.00362242
0.00206474
0.00237646
0.00439216
4.052e-05
-2.90387e-05
0.000158554
5.43253e-05
0.000352486
0.000210423
0.000621042
0.000403553
0.000963585
0.000612611
0.00138079
0.000823206
0.00187588
0.00102501
0.00245787
0.00120998
0.00314943
0.00137318
0.00151821
0.00400768
2.83734e-05
-5.74121e-05
0.000115667
-3.29685e-05
0.000262088
6.40024e-05
0.000466222
0.000199418
0.000725262
0.000353572
0.00103471
0.000513758
0.00138775
0.000671978
0.00177359
0.000824134
0.0021766
0.000970166
0.00112096
0.00257385
1.70715e-05
-7.44836e-05
7.55554e-05
-9.14525e-05
0.000177451
-3.78935e-05
0.000321839
5.503e-05
0.000505759
0.000169652
0.000724429
0.000295087
0.000971567
0.00042484
0.00124038
0.000555319
0.00152715
0.0006834
0.000802189
0.00184592
7.42963e-06
-8.19132e-05
4.1075e-05
-0.000125098
0.000105018
-0.000101836
0.000199853
-3.98051e-05
0.000324286
4.52189e-05
0.000475945
0.000143429
0.00065222
0.000248566
0.000851423
0.000356115
0.00107405
0.000460769
0.000552643
0.0013236
-2.87192e-07
-8.1626e-05
1.31392e-05
-0.000138524
4.64218e-05
-0.000135119
0.000101983
-9.53661e-05
0.000180477
-3.32748e-05
0.000281799
4.2106e-05
0.00040588
0.000124485
0.000553291
0.000208703
0.000725142
0.000288919
0.000357236
0.00092055
-6.18831e-06
-7.54377e-05
-8.57046e-06
-0.000136142
7.61739e-07
-0.000144451
2.58858e-05
-0.00012049
6.90399e-05
-7.64289e-05
0.000131601
-2.04548e-05
0.000214666
4.14202e-05
0.000319254
0.000104115
0.000445798
0.000162375
0.000210465
0.000592569
-1.05592e-05
-6.48786e-05
-2.49424e-05
-0.000121759
-3.38998e-05
-0.000135494
-3.20885e-05
-0.000122301
-1.62103e-05
-9.23071e-05
1.58734e-05
-5.25385e-05
6.5582e-05
-8.28844e-06
0.000133682
3.60154e-05
0.000219893
7.61639e-05
0.000108139
0.000322219
-1.37132e-05
-5.11653e-05
-3.69575e-05
-9.85146e-05
-5.95652e-05
-0.000112886
-7.53463e-05
-0.00010652
-8.0396e-05
-8.72573e-05
-7.22843e-05
-6.06503e-05
-4.96554e-05
-3.09174e-05
-1.21258e-05
-1.51414e-06
3.95526e-05
2.44854e-05
4.44054e-05
0.000103286
-1.59031e-05
-3.52622e-05
-4.54082e-05
-6.90095e-05
-7.77784e-05
-8.05157e-05
-0.000106317
-7.79814e-05
-0.000126822
-6.6753e-05
-0.000136809
-5.06626e-05
-0.000135102
-3.26245e-05
-0.000121637
-1.49797e-05
-9.7436e-05
2.84859e-07
1.15425e-05
-6.4573e-05
-1.72928e-05
-1.79695e-05
-5.08143e-05
-3.5488e-05
-8.95126e-05
-4.18175e-05
-0.000126423
-4.10708e-05
-0.000157219
-3.59572e-05
-0.000179452
-2.843e-05
-0.000192103
-1.99733e-05
-0.000195319
-1.17636e-05
-0.000190262
-4.77215e-06
2.32726e-07
-0.000178952
-1.79699e-05
-5.34589e-05
-9.52777e-05
-0.00013635
-0.000172309
-0.000200741
-0.000220716
-0.000232482
-0.000237256
-0.000237025
0.000190533
-0.000427557
1.81613e-10
0.00134014
-0.00114972
1.15656e-07
0.00252366
-0.00118362
1.08583e-07
0.00328985
-0.000766133
-5.74791e-08
0.00394252
-0.000652424
-2.47788e-07
0.00439834
-0.000455625
-1.91983e-07
0.00480804
-0.000409655
-5.28231e-08
0.00510286
-0.000294928
1.09822e-07
0.00540892
-0.000306336
2.76676e-07
-0.000217588
1.16677e-07
0.000302614
-0.000909121
0.00142286
-0.00226997
0.00257991
-0.00234067
0.00332946
-0.00151569
0.00397034
-0.0012933
0.00441943
-0.000904718
0.00482457
-0.000814795
0.00511742
-0.000587773
0.00542241
-0.000611327
-0.000435777
0.000519533
-0.00149323
0.00158256
-0.003333
0.00268813
-0.00344623
0.00340567
-0.00223323
0.00402385
-0.00191148
0.00446012
-0.00134099
0.00485659
-0.00121126
0.00514581
-0.000876997
0.00544891
-0.000914426
-0.000655548
0.000827285
-0.00221722
0.00180816
-0.00431387
0.00284011
-0.00447818
0.00351262
-0.00290574
0.00409899
-0.00249785
0.00451754
-0.00175954
0.00490212
-0.00159584
0.00518669
-0.00116157
0.00548755
-0.00121529
-0.000878045
0.00120609
-0.00310109
0.00208419
-0.00519197
0.00302438
-0.00541837
0.00364216
-0.00352352
0.00419002
-0.00304571
0.00458762
-0.00215714
0.00495835
-0.00196657
0.0052381
-0.00144132
0.00553704
-0.00151423
-0.00110481
0.00163168
-0.0041402
0.00239187
-0.00595216
0.00322711
-0.00625361
0.00378442
-0.00408083
0.00429
-0.00355129
0.00466542
-0.00253256
0.00502182
-0.00232298
0.00529762
-0.00171712
0.00559577
-0.00181237
-0.00133785
0.0020759
-0.00529554
0.00270988
-0.00658614
0.00343295
-0.00697669
0.0039285
-0.00457637
0.00439125
-0.00401404
0.00474543
-0.00288674
0.00508866
-0.00266621
0.00536251
-0.00199097
0.00566186
-0.00211173
-0.00157972
0.00250865
-0.00648059
0.00301519
-0.00709267
0.00362589
-0.00758739
0.00406311
-0.0050136
0.00448584
-0.00443677
0.00482193
-0.00322283
0.00515479
-0.00299907
0.00542982
-0.002266
0.00573329
-0.00241519
-0.00183349
0.00291149
-0.00754616
0.00328851
-0.00746969
0.00379172
-0.0080906
0.00417772
-0.00539959
0.00456622
-0.00482527
0.00488932
-0.00354594
0.00521615
-0.0033259
0.00549658
-0.00254643
0.00580792
-0.00272653
-0.00210274
0.00328867
-0.00826097
0.00352823
-0.00770925
0.00391952
-0.00848189
0.00426501
-0.00574508
0.00462564
-0.0051859
0.00494274
-0.00386303
0.00526863
-0.00365179
0.00556019
-0.002838
0.00588304
-0.00304938
-0.00239213
0.0434585
-0.00104635
-0.0506731
0.0392197
-0.00347046
0.0372066
-0.00646875
0.0371274
-0.00566592
0.0371165
-0.00517499
0.0374303
-0.00417682
0.037842
-0.00406352
0.0384121
-0.00340811
0.0389749
-0.00361218
-0.00302709
0.052331
0.00318022
-0.0565576
0.0501955
-0.00133489
0.0476444
-0.00391766
0.0461642
-0.00418578
0.0450283
-0.004039
0.0442895
-0.00343802
0.0437262
-0.00350027
0.0434904
-0.00317235
0.0432912
-0.00341294
-0.00298813
0.0538722
0.00440102
-0.055093
0.0525946
-5.72889e-05
0.050981
-0.00230401
0.0496855
-0.0028903
0.0485865
-0.00293997
0.0477387
-0.00259025
0.0469434
-0.00270496
0.0464051
-0.00263404
0.0458939
-0.0029017
-0.00259937
0.0520131
0.0042724
-0.0518845
0.0515948
0.000361039
0.0507355
-0.0014447
0.0498757
-0.00203051
0.0490807
-0.00214493
0.0484339
-0.00194346
0.0477582
-0.00202931
0.0472227
-0.00209852
0.0466934
-0.00237238
-0.00212491
0.0499679
0.00360883
-0.0493044
0.0498178
0.000511159
0.0493556
-0.00098252
0.0488136
-0.00148853
0.0482656
-0.00159687
0.0478065
-0.00148442
0.047303
-0.00152581
0.0468541
-0.00164962
0.0463941
-0.00191236
-0.00168064
0.048274
0.00282703
-0.0474922
0.0482759
0.000509328
0.047981
-0.000687594
0.0475995
-0.00110705
0.0471916
-0.00118902
0.046839
-0.00113183
0.0464569
-0.00114372
0.0460813
-0.00127401
0.0456779
-0.00150895
-0.00128923
0.0470703
0.00205449
-0.0462977
0.0471408
0.000438761
0.0469223
-0.000469047
0.0466133
-0.000798114
0.0462771
-0.000852763
0.0459736
-0.000828331
0.0456577
-0.000827837
0.0453234
-0.000939732
0.0449453
-0.0011308
-0.000939337
0.0462584
0.0013316
-0.0455355
0.0463804
0.000316686
0.0462034
-0.000292044
0.0459251
-0.000519737
0.0456242
-0.000551917
0.045341
-0.000545103
0.0450555
-0.000542349
0.0447388
-0.000623042
0.044365
-0.000756972
-0.000615172
0.0457634
0.000653324
-0.0450851
0.045918
0.000162115
0.0457671
-0.000141217
0.045502
-0.00025463
0.0452188
-0.000268701
0.044944
-0.000270282
0.0446706
-0.000268953
0.0443595
-0.000311931
0.0439819
-0.00037939
-0.000305084
0.0455287
-0.0448754
0.0456908
0.0455496
0.0452949
0.0450262
0.044756
0.044487
0.0441751
0.0437957
0.0567969
0.00229559
-0.0560781
0.0573589
0.00290479
0.0577155
0.00349565
0.057817
0.00405915
0.0576163
0.00458615
0.0570733
0.0050679
0.0561565
0.00549675
0.0548359
0.00586664
0.0530553
0.00617276
0.00638981
0.0513902
0.00168782
-0.0507825
0.0520426
0.00225239
0.0527257
0.00281256
0.0534217
0.00336324
0.0541091
0.0038987
0.0547642
0.00441275
0.055362
0.00489895
0.0558777
0.00535094
0.0562875
0.00576302
0.00611968
0.0480829
0.00121389
-0.047609
0.0486378
0.00169752
0.0492704
0.00217997
0.0499752
0.00265837
0.0507444
0.00312957
0.051567
0.00359009
0.0524299
0.00403612
0.0533173
0.00446349
0.0542127
0.00486767
0.00523931
0.0454814
0.000888283
-0.0451558
0.0458871
0.00129187
0.0463733
0.00169371
0.0469401
0.00209155
0.0475866
0.00248314
0.0483105
0.00286614
0.0491085
0.00323815
0.0499753
0.00359666
0.0509041
0.0039389
0.00425891
0.0438972
0.000649265
-0.0436582
0.0442103
0.000978832
0.0445975
0.00130651
0.0450586
0.00163045
0.045593
0.00194876
0.0461995
0.0022596
0.0468765
0.00256109
0.0476219
0.00285135
0.0484325
0.00312829
0.00338701
0.0428019
0.00046769
-0.0426204
0.0430535
0.000727315
0.0433748
0.000985165
0.0437655
0.00123973
0.0442248
0.00148949
0.0447514
0.00173297
0.0453438
0.00196868
0.046
0.00219517
0.0467175
0.00241083
0.00261224
0.04211
0.000323408
-0.0419657
0.0423211
0.000516168
0.0425988
0.00070751
0.0429422
0.000896282
0.0433504
0.00108134
0.0438218
0.00126155
0.0443547
0.0014358
0.0449468
0.00160299
0.0455957
0.00176192
0.00191027
0.0416586
0.000203221
-0.0415384
0.0418439
0.000330877
0.0420938
0.000457572
0.0424075
0.000582535
0.0427839
0.000704997
0.0432212
0.000824197
0.0437176
0.00093939
0.0442708
0.00104984
0.044878
0.00115475
0.00125276
0.0413945
9.77784e-05
-0.041289
0.0415639
0.000161399
0.041797
0.000224558
0.0420926
0.000286865
0.0424497
0.000347935
0.0428665
0.000407384
0.0433411
0.000464835
0.043871
0.000519916
0.0444535
0.000572236
0.000621148
0.0412691
-0.0411713
0.0414305
0.041655
0.0419419
0.0422898
0.0426972
0.0431621
0.043682
0.0442542
0.0481232
-0.00335513
-0.0475731
0.0488332
-0.00289641
0.0496528
-0.00240747
0.0505424
-0.00188683
0.0514749
-0.00133588
0.0524316
-0.000762029
0.0533944
-0.000169622
0.0543416
0.000437606
0.0552469
0.00105489
0.00167644
0.0479708
-0.003409
-0.0479169
0.0480685
-0.00299406
0.0482091
-0.00254813
0.0483984
-0.00207616
0.0486422
-0.0015796
0.0489444
-0.0010643
0.0493087
-0.000533903
0.0497371
9.24935e-06
0.0502293
0.000562642
0.0011233
0.0468963
-0.00314951
-0.0471558
0.0466917
-0.00278951
0.0465478
-0.00240421
0.0464698
-0.00199818
0.0464638
-0.00157362
0.0465334
-0.00113387
0.0466809
-0.000681404
0.0469084
-0.000218225
0.0472174
0.000253579
0.000731747
0.0455756
-0.00277278
-0.0459523
0.0452567
-0.00247064
0.0449993
-0.00214675
0.0448068
-0.00180568
0.0446825
-0.00144933
0.0446287
-0.0010801
0.0446474
-0.000700049
0.0447403
-0.000311138
0.0449092
8.46255e-05
0.000485149
0.0446565
-0.00235076
-0.0450785
0.0442883
-0.00210237
0.0439783
-0.00183681
0.0437298
-0.00155719
0.0435456
-0.00126513
0.043428
-0.000962475
0.0433789
-0.000650944
0.0434
-0.000332239
0.0434928
-8.10072e-06
0.000319678
0.043986
-0.00190117
-0.0444356
0.0435884
-0.00170472
0.0432465
-0.00149495
0.0429635
-0.00127413
0.0427418
-0.00104351
0.0425838
-0.000804471
0.0424913
-0.000558411
0.0424658
-0.000306719
0.0425085
-5.08223e-05
0.000207813
0.0435563
-0.00143657
-0.0440209
0.0431421
-0.00129049
0.0427818
-0.0011347
0.0424784
-0.00097069
0.0422342
-0.000799384
0.0420516
-0.000621794
0.0419321
-0.000438955
0.0418773
-0.000251919
0.0418883
-6.17696e-05
0.000130384
0.0432777
-0.000961877
-0.0437524
0.0428524
-0.000865209
0.0424799
-0.00076215
0.0421628
-0.000653637
0.0419037
-0.000540276
0.0417046
-0.000422727
0.0415673
-0.000301674
0.0414932
-0.000177819
0.0414834
-5.18872e-05
7.53791e-05
0.0431171
-0.000481748
-0.0435972
0.0426856
-0.000433736
0.042306
-0.000382554
0.041981
-0.000328643
0.041713
-0.000272302
0.0415042
-0.000213854
0.0413561
-0.000153636
0.0412703
-9.19986e-05
0.0412477
-2.93012e-05
3.40845e-05
0.0430432
-0.043525
0.0426095
0.042227
0.0418983
0.041626
0.0414122
0.0412585
0.0411665
0.0411372
0.0429487
0.000174129
-0.000193931
0.0429949
0.000519879
-0.000566067
0.0430724
0.000870944
-0.000948395
0.0431984
0.00123491
-0.00136094
0.0434028
0.00161704
-0.0018214
0.0437287
0.00202153
-0.00234746
0.0442346
0.00245046
-0.00295633
0.0449917
0.00290624
-0.00366336
0.0460939
0.00336482
-0.004467
0.00391434
-0.00539355
0.0429655
0.000137591
0.0430721
0.000413232
0.0432528
0.000690273
0.0435178
0.000969877
0.043882
0.00125284
0.0443641
0.00153942
0.0449859
0.00182869
0.0457713
0.0021208
0.0467359
0.00240022
0.00273335
0.0429664
0.000100087
0.0430775
0.000302214
0.0432619
0.000505809
0.0435239
0.000707913
0.0438691
0.000907646
0.0443048
0.00110371
0.0448395
0.00129399
0.0454835
0.00147678
0.0462417
0.00164207
0.00181926
0.0429586
7.04044e-05
0.0430475
0.000213357
0.0431956
0.000357628
0.0434039
0.000499637
0.0436734
0.000638204
0.044005
0.000772043
0.0443994
0.000899583
0.0448566
0.00101962
0.0453715
0.00112716
0.00123842
0.0429506
4.87791e-05
0.0430159
0.000147983
0.0431255
0.000248084
0.0432789
0.000346189
0.0434759
0.000441258
0.0437157
0.000532249
0.0439972
0.000618019
0.0443192
0.000697634
0.0446781
0.000768297
0.00083796
0.0429445
3.32244e-05
0.0429917
0.000100805
0.0430708
0.000168963
0.0431813
0.000235649
0.0433225
0.000300099
0.0434931
0.000361583
0.0436918
0.000419357
0.0439166
0.000472828
0.0441644
0.000520524
0.000566721
0.0429403
2.18597e-05
0.0429748
6.63131e-05
0.0430326
0.000111127
0.0431133
0.000154943
0.0432162
0.000197247
0.0433402
0.000237554
0.0434842
0.000275386
0.0436467
0.000310355
0.0438255
0.00034163
0.000371375
0.0429376
1.32392e-05
0.0429637
4.01508e-05
0.0430076
6.72698e-05
0.0430687
9.37848e-05
0.0431466
0.000119387
0.0432404
0.000143788
0.043349
0.000166711
0.0434715
0.000187932
0.0436061
0.000207015
0.000225067
0.0429359
6.24254e-06
0.0429572
1.89273e-05
0.0429927
3.17068e-05
0.0430423
4.4202e-05
0.0431054
5.62689e-05