/*--------------------------------*- C++ -*----------------------------------*\
  =========                 |
  \\      /  F ield         | OpenFOAM: The Open Source CFD Toolbox
   \\    /   O peration     | Website:  https://openfoam.org
    \\  /    A nd           | Version:  6.0
     \\/     M anipulation  |
\*---------------------------------------------------------------------------*/
FoamFile
{
    version     2.0;
    format      ascii;
    class       surfaceScalarField;
    location    "22";
    object      phi;
}
// * * * * * * * * * * * * * * * * * * * * * * * * * * * * * * * * * * * * * //

dimensions      [0 3 -1 0 0 0 0];

internalField   nonuniform List<scalar> 
3880
(
-1.79842e-05
1.79844e-05
-2.16085e-10
-5.35331e-05
3.55495e-05
-5.31037e-10
-9.54668e-05
4.19344e-05
-7.45251e-10
-0.000136714
4.12479e-05
-8.87287e-10
-0.000172909
3.61962e-05
-9.71716e-10
-0.000201639
2.87305e-05
-1.00741e-09
-0.00022197
2.03324e-05
-9.99487e-10
-0.000234145
1.2176e-05
-9.48779e-10
-0.000239374
5.22986e-06
-8.57812e-10
2.6002e-07
-7.21893e-10
-0.000239633
-1.73088e-05
3.52931e-05
-5.08944e-05
6.91351e-05
-8.97137e-05
8.07537e-05
-0.000126807
7.83413e-05
-0.00015785
6.72389e-05
-0.000180393
5.12741e-05
-0.000193417
3.33564e-05
-0.000197063
1.58217e-05
-0.000192485
6.51943e-07
-1.05314e-05
-0.000181694
-1.59224e-05
5.12155e-05
-4.54994e-05
9.87121e-05
-7.80024e-05
0.000113257
-0.00010674
0.000107079
-0.000127511
8.80103e-05
-0.000137835
6.15977e-05
-0.000136531
3.20524e-05
-0.000123532
2.82257e-06
-9.98538e-05
-2.3026e-05
-4.28258e-05
-6.75595e-05
-1.37371e-05
6.49526e-05
-3.70641e-05
0.000122039
-5.98207e-05
0.000136013
-7.58218e-05
0.00012308
-8.11655e-05
9.3354e-05
-7.34228e-05
5.38549e-05
-5.12368e-05
9.86645e-06
-1.42208e-05
-3.41934e-05
3.688e-05
-7.41268e-05
-0.000105928
9.99822e-05
-1.05884e-05
7.5541e-05
-2.50669e-05
0.000136518
-3.4192e-05
0.000145139
-3.26256e-05
0.000121513
-1.70723e-05
7.78007e-05
1.46053e-05
2.21773e-05
6.38276e-05
-3.93558e-05
0.000131364
-0.00010173
0.000216941
-0.000159704
-0.000207561
0.000318574
-6.22311e-06
8.17641e-05
-8.7137e-06
0.000139008
4.31223e-07
0.000135994
2.52849e-05
9.66598e-05
6.80828e-05
3.50028e-05
0.000130201
-3.99407e-05
0.000212738
-0.000121893
0.000316718
-0.00020571
0.000442581
-0.000285566
-0.00035359
0.00058861
-3.27225e-07
8.20913e-05
1.29786e-05
0.000125702
4.60561e-05
0.000102916
0.000101324
4.13919e-05
0.000179434
-4.31073e-05
0.000280283
-0.000140789
0.000403802
-0.000245412
0.000550572
-0.00035248
0.000721711
-0.000456706
-0.000548233
0.000916354
7.38532e-06
7.4706e-05
4.09005e-05
9.21873e-05
0.000104625
3.91915e-05
0.000199151
-5.31344e-05
0.000323184
-0.00016714
0.00047435
-0.000291956
0.000650046
-0.000421108
0.000848594
-0.000551027
0.00107051
-0.000678618
-0.000797021
0.00131929
1.70243e-05
5.76817e-05
7.53725e-05
3.38391e-05
0.000177045
-6.24807e-05
0.000321121
-0.000197211
0.000504641
-0.00035066
0.000722827
-0.000510142
0.000969398
-0.000667679
0.00123757
-0.000819204
0.00152365
-0.000964691
-0.00111509
0.00184172
2.83248e-05
2.9357e-05
0.000115482
-5.33181e-05
0.000261683
-0.000208682
0.000465521
-0.000401049
0.000724193
-0.000609332
0.00103321
-0.000819158
0.00138575
-0.00102022
0.00177106
-0.00120451
0.0021735
-0.00136713
-0.00151174
0.00257015
4.04707e-05
-1.11138e-05
0.000158371
-0.000171218
0.000352097
-0.000402408
0.00062039
-0.000669341
0.000962631
-0.000951573
0.00137952
-0.00123605
0.0018743
-0.00151501
0.00245602
-0.00178623
0.00314742
-0.00205853
-0.00237002
0.00400569
5.23757e-05
-6.34895e-05
0.000200026
-0.000318868
0.000438178
-0.00064056
0.00076333
-0.000994493
0.00117281
-0.00136106
0.00166479
-0.00172802
0.00223819
-0.00208841
0.00289215
-0.0024402
0.00362122
-0.0027876
-0.00313992
0.00439113
6.35183e-05
-0.000127008
0.000238386
-0.000493736
0.000515172
-0.000917346
0.000885876
-0.0013652
0.00134274
-0.00181793
0.00187766
-0.00226293
0.00248142
-0.00269217
0.00314224
-0.00310102
0.00384157
-0.00348693
-0.003844
0.00454564
7.3919e-05
-0.000200927
0.000273177
-0.000692994
0.000582539
-0.00122671
0.000988227
-0.00177088
0.00147637
-0.00230607
0.00203236
-0.00281892
0.00264039
-0.00330021
0.00328275
-0.00374337
0.00393814
-0.00414231
-0.00448602
0.00458016
8.37228e-05
-0.00028465
0.000304546
-0.000913817
0.000640555
-0.00156272
0.00107157
-0.0022019
0.00157755
-0.00281205
0.00213831
-0.00337968
0.00273364
-0.00389553
0.00334338
-0.00435312
0.00394739
-0.00474632
-0.0050644
0.00452577
9.29207e-05
-0.00037757
0.00033224
-0.00115314
0.000688654
-0.00191913
0.00113536
-0.0026486
0.00164659
-0.00332329
0.00219781
-0.00393089
0.00276625
-0.00446398
0.00333161
-0.00491848
0.00387641
-0.00529112
-0.00557474
0.00438675
0.000101269
-0.00047884
0.000355377
-0.00140724
0.000725129
-0.00228888
0.0011772
-0.00310067
0.0016809
-0.00382699
0.00220868
-0.00445867
0.00273701
-0.00499231
0.00324702
-0.0054285
0.00372488
-0.00576897
-0.00601224
0.00416238
0.000108338
-0.000587178
0.000372611
-0.00167152
0.000747554
-0.00266383
0.00119381
-0.00354693
0.00167687
-0.00431004
0.00216775
-0.00494955
0.00264377
-0.00546833
0.00308884
-0.00587357
0.00349337
-0.0061735
-0.00637331
0.00385444
0.000113602
-0.00070078
0.000382424
-0.00194034
0.000753411
-0.00303481
0.00118211
-0.00397563
0.00163163
-0.00475956
0.00207322
-0.00539114
0.00248653
-0.00588164
0.00285922
-0.00624627
0.00318622
-0.0065005
-0.00665634
0.00346925
0.000116529
-0.00081731
0.0003834
-0.00220721
0.000740608
-0.00339202
0.00113999
-0.00437501
0.001544
-0.00516357
0.00192572
-0.00577286
0.00226835
-0.00622426
0.00256387
-0.00654179
0.00281158
-0.00674821
-0.00686177
0.00301701
0.000116652
-0.000933962
0.000374428
-0.00246499
0.000707823
-0.00372542
0.00106677
-0.00473396
0.00141486
-0.00551166
0.00172848
-0.00608648
0.00199519
-0.00649096
0.00221142
-0.00675803
0.00238037
-0.00691716
-0.00699181
0.00251042
0.000113569
-0.00104753
0.000354741
-0.00270616
0.000654546
-0.00402522
0.000963087
-0.0050425
0.00124688
-0.00579545
0.00148674
-0.00632635
0.00167495
-0.00667918
0.00181217
-0.00689525
0.00190474
-0.00700973
-0.00704996
0.00196289
0.000107019
-0.00115455
0.000324056
-0.00292319
0.000581194
-0.00428236
0.000830924
-0.00529223
0.00104425
-0.00600878
0.00120718
-0.00648927
0.00131668
-0.00678868
0.00137704
-0.0069556
0.0013969
-0.00702959
-0.0070405
0.00138744
9.68559e-05
-0.00125141
0.000282494
-0.00310883
0.000488923
-0.00448879
0.000673191
-0.0054765
0.000812063
-0.00614765
0.00089705
-0.00657426
0.00092948
-0.00682111
0.000916439
-0.00694256
0.00086802
-0.00698117
-0.0069681
0.000795624
8.30615e-05
-0.00133447
0.000230575
-0.00325635
0.000379503
-0.00463772
0.000493422
-0.00559042
0.000555747
-0.00620998
0.00056351
-0.00658202
0.000521777
-0.00677938
0.000439587
-0.00686037
0.000327619
-0.0068692
-0.00683749
0.000197012
6.57544e-05
-0.00140022
0.000169187
-0.00335978
0.000255198
-0.00472373
0.000295516
-0.00563073
0.000280714
-0.00619518
0.000213084
-0.00651439
0.000100763
-0.00666706
-4.61047e-05
-0.0067135
-0.000217004
-0.0066983
-0.00665323
-0.000401269
4.52063e-05
-0.00144543
9.95949e-05
-0.00341417
0.000118722
-0.00474286
8.36357e-05
-0.00559565
-7.81738e-06
-0.00610372
-0.000148512
-0.00637369
-0.000327859
-0.00648771
-0.000535276
-0.00650609
-0.000761036
-0.00647254
-0.00641906
-0.000995208
2.18695e-05
-0.0014673
2.34763e-05
-0.00341577
-2.67271e-05
-0.00469265
-0.000137744
-0.00548463
-0.000304727
-0.00593674
-0.000516264
-0.00616216
-0.000759775
-0.0062442
-0.00102463
-0.00624123
-0.00130243
-0.00619474
-0.00613537
-0.00158612
-3.58317e-06
-0.00146371
-5.70038e-05
-0.00336235
-0.000177348
-0.00457231
-0.000363677
-0.0052983
-0.000604894
-0.00569552
-0.000886096
-0.00588096
-0.00119305
-0.00593725
-0.00151495
-0.00591933
-0.00184495
-0.00586474
-0.00579542
-0.0021849
-3.01936e-05
-0.00143352
-0.000139014
-0.00325353
-0.000328276
-0.00438305
-0.000587759
-0.00503882
-0.000901631
-0.00538165
-0.00125327
-0.00552931
-0.00162814
-0.00556238
-0.00201583
-0.00553164
-0.00241261
-0.00546796
-0.00540438
-0.00280365
-5.67242e-05
-0.0013768
-0.000219026
-0.00309123
-0.000473081
-0.00412899
-0.000800046
-0.00471185
-0.00118078
-0.00500092
-0.00159936
-0.00511073
-0.00204451
-0.00511723
-0.00250906
-0.0050671
-0.00299178
-0.00498524
-0.00487048
-0.00352567
-8.20952e-05
-0.0012947
-0.000293986
-0.00287934
-0.000605999
-0.00381698
-0.000990389
-0.00432746
-0.0014236
-0.0045677
-0.00188759
-0.00464675
-0.00236936
-0.00463545
-0.00285989
-0.00457657
-0.00335285
-0.00449228
-0.00439067
-0.00383267
-0.000105671
-0.00118903
-0.000362519
-0.00262249
-0.000725684
-0.00345381
-0.00115913
-0.00389401
-0.00163533
-0.0040915
-0.00213457
-0.00414751
-0.00264338
-0.00412664
-0.00315275
-0.0040672
-0.00365547
-0.00398956
-0.0039041
-0.00414204
-0.00012711
-0.00106192
-0.000424051
-0.00232555
-0.000832053
-0.00304581
-0.00130791
-0.00341816
-0.00182105
-0.00357836
-0.00235101
-0.00361755
-0.00288472
-0.00359293
-0.00341398
-0.00353794
-0.00393324
-0.0034703
-0.00339939
-0.00443795
-0.000146156
-0.000915765
-0.000478158
-0.00199355
-0.000924947
-0.00259902
-0.00143731
-0.00290579
-0.0019825
-0.00303318
-0.00253987
-0.00306018
-0.00309713
-0.00303568
-0.00364726
-0.0029878
-0.00418631
-0.00293125
-0.00287372
-0.00471198
-0.000162563
-0.000753202
-0.000524391
-0.00163172
-0.00100395
-0.00211947
-0.00154715
-0.00236259
-0.00211967
-0.00246065
-0.00270102
-0.00247883
-0.00327973
-0.00245696
-0.00384989
-0.00241764
-0.00440869
-0.00237245
-0.0023274
-0.00495501
-0.000176084
-0.000577119
-0.000562244
-0.00124556
-0.0010684
-0.00161331
-0.00163668
-0.00179432
-0.00223163
-0.00186569
-0.00283302
-0.00187745
-0.00343012
-0.00185986
-0.00401788
-0.00182988
-0.00459426
-0.00179607
-0.00176282
-0.00515884
-0.000186477
-0.000390641
-0.000591199
-0.000840838
-0.00111759
-0.00108692
-0.00170495
-0.00120696
-0.00231711
-0.00125353
-0.00293405
-0.00126051
-0.00354565
-0.00124826
-0.00414745
-0.00122807
-0.00473794
-0.00120558
-0.00118366
-0.00531709
-0.000193536
-0.000197106
-0.000610795
-0.000423579
-0.00115082
-0.00054689
-0.00175106
-0.000606725
-0.00237488
-0.000629712
-0.00300244
-0.000632952
-0.00362403
-0.000626674
-0.00423557
-0.000616525
-0.00483586
-0.000605297
-0.000594411
-0.00542511
-0.000197105
-8.56041e-11
-0.000620684
-1.9564e-10
-0.00116757
-2.3551e-10
-0.0017743
-2.34721e-10
-0.00240401
-2.10431e-10
-0.00303696
-1.74073e-10
-0.00366364
-1.33027e-10
-0.00428016
-9.14201e-11
-0.00488546
-5.20186e-11
-1.07879e-11
-0.00547987
-0.000197105
0.000197105
-0.000620684
0.000423579
-0.00116757
0.000546889
-0.0017743
0.000606724
-0.00240401
0.000629711
-0.00303696
0.000632952
-0.00366364
0.000626674
-0.00428016
0.000616525
-0.00488546
0.000605297
0.000594411
-0.00547987
-0.000193536
0.000390641
-0.000610795
0.000840838
-0.00115082
0.00108692
-0.00175106
0.00120696
-0.00237488
0.00125353
-0.00300244
0.00126051
-0.00362403
0.00124826
-0.00423557
0.00122807
-0.00483586
0.00120558
0.00118366
-0.00542511
-0.000186477
0.000577119
-0.000591199
0.00124556
-0.00111759
0.00161331
-0.00170495
0.00179432
-0.00231711
0.00186569
-0.00293405
0.00187745
-0.00354565
0.00185986
-0.00414745
0.00182988
-0.00473794
0.00179607
0.00176282
-0.00531709
-0.000176084
0.000753202
-0.000562244
0.00163172
-0.0010684
0.00211947
-0.00163668
0.00236259
-0.00223163
0.00246065
-0.00283302
0.00247883
-0.00343012
0.00245696
-0.00401788
0.00241764
-0.00459426
0.00237245
0.0023274
-0.00515884
-0.000162563
0.000915765
-0.000524391
0.00199355
-0.00100395
0.00259902
-0.00154715
0.00290579
-0.00211967
0.00303318
-0.00270102
0.00306018
-0.00327973
0.00303567
-0.00384989
0.0029878
-0.00440869
0.00293125
0.00287372
-0.00495501
-0.000146156
0.00106192
-0.000478158
0.00232555
-0.000924947
0.00304581
-0.00143731
0.00341816
-0.0019825
0.00357836
-0.00253987
0.00361755
-0.00309713
0.00359293
-0.00364726
0.00353794
-0.00418631
0.0034703
0.00339939
-0.00471198
-0.00012711
0.00118903
-0.000424051
0.00262249
-0.000832053
0.00345381
-0.00130791
0.00389401
-0.00182105
0.0040915
-0.00235101
0.00414751
-0.00288472
0.00412664
-0.00341398
0.0040672
-0.00393324
0.00398956
0.0039041
-0.00443795
-0.000105671
0.0012947
-0.000362519
0.00287934
-0.000725684
0.00381698
-0.00115913
0.00432746
-0.00163533
0.0045677
-0.00213457
0.00464675
-0.00264338
0.00463545
-0.00315275
0.00457657
-0.00365547
0.00449228
0.00439067
-0.00414204
-8.20952e-05
0.0013768
-0.000293986
0.00309123
-0.000605999
0.00412899
-0.000990389
0.00471185
-0.0014236
0.00500092
-0.00188759
0.00511073
-0.00236936
0.00511723
-0.00285989
0.0050671
-0.00335285
0.00498524
0.00487048
-0.00383267
-5.67242e-05
0.00143352
-0.000219026
0.00325353
-0.000473081
0.00438305
-0.000800046
0.00503882
-0.00118078
0.00538165
-0.00159936
0.00552931
-0.00204451
0.00556238
-0.00250906
0.00553164
-0.00299178
0.00546796
0.00540438
-0.00352567
-3.01936e-05
0.00146371
-0.000139014
0.00336235
-0.000328276
0.00457231
-0.00058776
0.0052983
-0.000901631
0.00569552
-0.00125327
0.00588096
-0.00162814
0.00593725
-0.00201583
0.00591933
-0.00241261
0.00586474
0.00579542
-0.00280365
-3.58319e-06
0.0014673
-5.70039e-05
0.00341577
-0.000177348
0.00469265
-0.000363677
0.00548463
-0.000604894
0.00593674
-0.000886096
0.00616216
-0.00119305
0.0062442
-0.00151495
0.00624123
-0.00184495
0.00619474
0.00613537
-0.0021849
2.18694e-05
0.00144543
2.34762e-05
0.00341417
-2.67272e-05
0.00474286
-0.000137745
0.00559565
-0.000304727
0.00610372
-0.000516265
0.00637369
-0.000759776
0.00648771
-0.00102463
0.00650608
-0.00130243
0.00647254
0.00641906
-0.00158612
4.52063e-05
0.00140022
9.95949e-05
0.00335978
0.000118722
0.00472373
8.36355e-05
0.00563073
-7.81765e-06
0.00619518
-0.000148513
0.00651439
-0.00032786
0.00666706
-0.000535276
0.0067135
-0.000761036
0.0066983
0.00665323
-0.000995209
6.57543e-05
0.00133447
0.000169187
0.00325635
0.000255198
0.00463772
0.000295516
0.00559042
0.000280714
0.00620998
0.000213084
0.00658202
0.000100763
0.00677938
-4.61051e-05
0.00686037
-0.000217005
0.0068692
0.00683749
-0.00040127
8.30615e-05
0.00125141
0.000230575
0.00310883
0.000379503
0.00448879
0.000493421
0.0054765
0.000555747
0.00614765
0.000563509
0.00657426
0.000521777
0.00682111
0.000439586
0.00694256
0.000327618
0.00698117
0.0069681
0.000197012
9.68559e-05
0.00115455
0.000282494
0.00292319
0.000488923
0.00428236
0.00067319
0.00529223
0.000812063
0.00600878
0.00089705
0.00648927
0.000929479
0.00678868
0.000916439
0.0069556
0.000868019
0.00702959
0.0070405
0.000795623
0.000107019
0.00104753
0.000324056
0.00270616
0.000581194
0.00402522
0.000830924
0.0050425
0.00104425
0.00579545
0.00120718
0.00632635
0.00131668
0.00667918
0.00137703
0.00689525
0.0013969
0.00700973
0.00704996
0.00138743
0.000113569
0.000933962
0.000354741
0.00246499
0.000654546
0.00372542
0.000963087
0.00473396
0.00124688
0.00551166
0.00148674
0.00608648
0.00167495
0.00649096
0.00181217
0.00675803
0.00190474
0.00691716
0.00699181
0.00196289
0.000116652
0.00081731
0.000374428
0.00220721
0.000707823
0.00339202
0.00106677
0.00437501
0.00141486
0.00516357
0.00172848
0.00577286
0.00199518
0.00622426
0.00221142
0.00654179
0.00238037
0.00674821
0.00686177
0.00251042
0.000116529
0.00070078
0.0003834
0.00194034
0.000740608
0.00303481
0.00113999
0.00397563
0.001544
0.00475956
0.00192572
0.00539114
0.00226835
0.00588164
0.00256387
0.00624627
0.00281158
0.0065005
0.00665634
0.00301701
0.000113602
0.000587178
0.000382424
0.00167152
0.000753411
0.00266383
0.00118211
0.00354693
0.00163163
0.00431004
0.00207322
0.00494955
0.00248653
0.00546833
0.00285922
0.00587357
0.00318622
0.0061735
0.00637331
0.00346925
0.000108338
0.00047884
0.000372611
0.00140724
0.000747554
0.00228888
0.00119381
0.00310067
0.00167687
0.00382699
0.00216775
0.00445867
0.00264377
0.00499231
0.00308884
0.0054285
0.00349337
0.00576897
0.00601224
0.00385444
0.000101269
0.00037757
0.000355377
0.00115314
0.000725129
0.00191913
0.0011772
0.0026486
0.0016809
0.00332329
0.00220867
0.00393089
0.002737
0.00446398
0.00324702
0.00491848
0.00372488
0.00529112
0.00557474
0.00416238
9.29207e-05
0.00028465
0.00033224
0.000913818
0.000688654
0.00156272
0.00113536
0.0022019
0.00164659
0.00281205
0.00219781
0.00337968
0.00276625
0.00389553
0.00333161
0.00435312
0.00387641
0.00474632
0.0050644
0.00438675
8.37228e-05
0.000200927
0.000304546
0.000692994
0.000640555
0.00122671
0.00107157
0.00177088
0.00157755
0.00230607
0.00213831
0.00281892
0.00273363
0.00330021
0.00334338
0.00374337
0.00394739
0.00414231
0.00448602
0.00452577
7.3919e-05
0.000127008
0.000273177
0.000493737
0.000582539
0.000917347
0.000988227
0.0013652
0.00147637
0.00181793
0.00203236
0.00226293
0.00264039
0.00269217
0.00328275
0.00310102
0.00393813
0.00348693
0.003844
0.00458016
6.35183e-05
6.34896e-05
0.000238386
0.000318868
0.000515172
0.000640561
0.000885876
0.000994494
0.00134274
0.00136106
0.00187766
0.00172802
0.00248142
0.00208841
0.00314224
0.0024402
0.00384157
0.0027876
0.00313992
0.00454564
5.23757e-05
1.11139e-05
0.000200026
0.000171219
0.000438177
0.000402409
0.00076333
0.000669342
0.00117281
0.000951574
0.00166478
0.00123605
0.00223818
0.00151501
0.00289215
0.00178623
0.00362122
0.00205853
0.00237002
0.00439113
4.04707e-05
-2.93568e-05
0.000158371
5.33186e-05
0.000352097
0.000208683
0.000620389
0.00040105
0.000962631
0.000609333
0.00137952
0.000819159
0.0018743
0.00102023
0.00245602
0.00120451
0.00314742
0.00136713
0.00151175
0.00400569
2.83247e-05
-5.76815e-05
0.000115482
-3.38385e-05
0.000261683
6.24815e-05
0.000465521
0.000197212
0.000724193
0.000350661
0.00103321
0.000510143
0.00138575
0.000667681
0.00177106
0.000819205
0.0021735
0.000964692
0.00111509
0.00257015
1.70243e-05
-7.47058e-05
7.53724e-05
-9.21866e-05
0.000177044
-3.91906e-05
0.000321121
5.31355e-05
0.000504641
0.000167141
0.000722826
0.000291957
0.000969398
0.000421109
0.00123757
0.000551029
0.00152365
0.000678619
0.000797022
0.00184172
7.38529e-06
-8.20911e-05
4.09004e-05
-0.000125702
0.000104625
-0.000102915
0.000199151
-4.13907e-05
0.000323184
4.31087e-05
0.00047435
0.000140791
0.000650046
0.000245414
0.000848593
0.000352481
0.00107051
0.000456707
0.000548234
0.00131929
-3.27267e-07
-8.17638e-05
1.29784e-05
-0.000139007
4.60559e-05
-0.000135992
0.000101324
-9.66584e-05
0.000179434
-3.50013e-05
0.000280282
3.99423e-05
0.000403801
0.000121895
0.000550571
0.000205711
0.00072171
0.000285568
0.000353591
0.000916353
-6.22315e-06
-7.55407e-05
-8.71383e-06
-0.000136517
4.30998e-07
-0.000145137
2.52846e-05
-0.000121512
6.80824e-05
-7.7799e-05
0.0001302
-2.21756e-05
0.000212737
3.93575e-05
0.000316717
0.000101731
0.00044258
0.000159705
0.000207562
0.000588609
-1.05884e-05
-6.49523e-05
-2.5067e-05
-0.000122038
-3.41922e-05
-0.000136012
-3.26259e-05
-0.000123078
-1.70727e-05
-9.33523e-05
1.46048e-05
-5.38531e-05
6.3827e-05
-9.86463e-06
0.000131363
3.41951e-05
0.00021694
7.41283e-05
0.000105929
0.000318573
-1.37371e-05
-5.12151e-05
-3.70642e-05
-9.87112e-05
-5.98209e-05
-0.000113255
-7.5822e-05
-0.000107077
-8.11658e-05
-8.80085e-05
-7.34232e-05
-6.15958e-05
-5.12373e-05
-3.20505e-05
-1.42214e-05
-2.82077e-06
3.68794e-05
2.30276e-05
4.28271e-05
9.99815e-05
-1.59224e-05
-3.52927e-05
-4.54995e-05
-6.91341e-05
-7.80026e-05
-8.07523e-05
-0.00010674
-7.83396e-05
-0.000127511
-6.7237e-05
-0.000137835
-5.12721e-05
-0.000136531
-3.33544e-05
-0.000123532
-1.58199e-05
-9.98543e-05
-6.50268e-07
1.05328e-05
-6.756e-05
-1.73088e-05
-1.79839e-05
-5.08944e-05
-3.55485e-05
-8.97138e-05
-4.1933e-05
-0.000126807
-4.12461e-05
-0.00015785
-3.61943e-05
-0.000180394
-2.87285e-05
-0.000193418
-2.03304e-05
-0.000197063
-1.21741e-05
-0.000192485
-5.22816e-06
-2.58586e-07
-0.000181694
-1.79842e-05
-5.35331e-05
-9.54668e-05
-0.000136714
-0.000172909
-0.000201639
-0.00022197
-0.000234145
-0.000239374
-0.000239633
0.000180577
-0.000420224
1.32378e-08
0.00131944
-0.0011389
4.38776e-08
0.00249024
-0.0011708
-3.09327e-09
0.00323608
-0.000745727
-1.18712e-07
0.00386267
-0.000626494
-9.55911e-08
0.00429321
-0.00043056
2.09463e-08
0.00464282
-0.000349725
1.17573e-07
0.00488426
-0.000241654
2.13861e-07
0.00510105
-0.000216847
6.03277e-08
-0.000136874
-8.02446e-08
0.000292336
-0.000894253
0.00140196
-0.00224853
0.00254638
-0.00231522
0.00327566
-0.00147501
0.00389068
-0.00124151
0.00431456
-0.000854438
0.00465999
-0.000695162
0.00489963
-0.000481289
0.00511566
-0.00043288
-0.000274881
0.000508686
-0.0014705
0.00156132
-0.00330116
0.00265446
-0.00340836
0.00335186
-0.00217242
0.00394462
-0.00183427
0.0043558
-0.00126562
0.00469335
-0.00103271
0.00492969
-0.000717627
0.00514446
-0.000647644
-0.000415128
0.000815756
-0.00218627
0.00178659
-0.00427199
0.00280638
-0.00442815
0.00345896
-0.002825
0.00402052
-0.00239582
0.00441418
-0.00165929
0.00474099
-0.00135952
0.00497315
-0.000949784
0.00518659
-0.00086108
-0.000559062
0.00119394
-0.00306164
0.00206244
-0.00514049
0.00299084
-0.00535655
0.00358897
-0.00342313
0.00411277
-0.00291962
0.00448577
-0.00203229
0.00480019
-0.00167394
0.00502813
-0.00117772
0.00524082
-0.00107377
-0.000708501
0.00161914
-0.00409218
0.00237024
-0.00589158
0.00319417
-0.00618048
0.00373218
-0.00396114
0.00421456
-0.003402
0.00456575
-0.00238349
0.0048676
-0.00197579
0.00509229
-0.00140242
0.0053056
-0.00128707
-0.000865707
0.00206337
-0.0052392
0.00268882
-0.00651702
0.00340114
-0.00689281
0.00387783
-0.00443783
0.00431831
-0.00384248
0.00464874
-0.00271391
0.0049394
-0.00226645
0.00516296
-0.00162598
0.00537911
-0.00150322
-0.00103344
0.00249665
-0.00641656
0.00299523
-0.0070156
0.00359583
-0.0074934
0.00401473
-0.00485673
0.00441615
-0.0042439
0.00472907
-0.00302684
0.00501158
-0.00254895
0.00523725
-0.00185165
0.00545935
-0.00172532
-0.00121498
0.00290056
-0.0074754
0.00327022
-0.00738526
0.00376407
-0.00798724
0.00413239
-0.00522505
0.00450055
-0.00461206
0.00480121
-0.0033275
0.00508007
-0.00282781
0.00531218
-0.00208376
0.00554419
-0.00195733
-0.00141408
0.00327936
-0.00818461
0.00351213
-0.00761803
0.00389482
-0.00836993
0.00422355
-0.00555379
0.00456473
-0.00495324
0.00486029
-0.00362306
0.00514085
-0.00310838
0.00538503
-0.00232793
0.00563113
-0.00220343
-0.00163531
0.0433867
-0.000938365
-0.0506329
0.0390879
-0.00331926
0.0370027
-0.00628476
0.0368358
-0.00538682
0.0366994
-0.00481685
0.0368983
-0.00382202
0.0370929
-0.00330299
0.0374029
-0.00263787
0.0376495
-0.00245005
-0.00198395
0.0523152
0.00329122
-0.0565448
0.0501535
-0.00115747
0.0475557
-0.00368695
0.046027
-0.00385813
0.0448216
-0.00361152
0.0440245
-0.00302491
0.0433707
-0.00264917
0.0429868
-0.002254
0.042616
-0.00207926
-0.00182992
0.0538864
0.00449982
-0.055095
0.0526197
0.000109229
0.0510009
-0.00206817
0.0496955
-0.00255271
0.0485917
-0.00250779
0.0477496
-0.00218282
0.046985
-0.00188451
0.046428
-0.00169702
0.0458877
-0.00153898
-0.001463
0.0520374
0.00435588
-0.0518934
0.0516462
0.000500466
0.0508103
-0.00123233
0.0499688
-0.0017112
0.0492156
-0.00175458
0.0486195
-0.00158668
0.0480541
-0.00131911
0.0476008
-0.00124375
0.0471609
-0.00109912
-0.00110597
0.0499951
0.00367706
-0.0493162
0.0498738
0.00062173
0.0494469
-0.000805465
0.0489403
-0.00120456
0.0484576
-0.00127187
0.0480675
-0.00119657
0.047705
-0.000956614
0.0473912
-0.000930013
0.0470987
-0.000806537
-0.000832564
0.0483018
0.0028806
-0.0475053
0.0483293
0.000594237
0.0480719
-0.000548031
0.0477364
-0.000869149
0.0474009
-0.000936316
0.047118
-0.000913672
0.0468751
-0.000713699
0.046651
-0.0007059
0.0464553
-0.000610872
-0.000629987
0.0470978
0.00209394
-0.0463111
0.047191
0.000501
0.0470089
-0.000365888
0.0467534
-0.00061373
0.0464875
-0.000670411
0.0462473
-0.000673458
0.0460561
-0.000522455
0.0458719
-0.000521705
0.045717
-0.000455963
-0.000464336
0.0462852
0.00135754
-0.0455488
0.0464283
0.000357839
0.0462864
-0.000223953
0.0460668
-0.000394146
0.0458311
-0.000434659
0.045604
-0.000446382
0.0454285
-0.000346936
0.0452556
-0.000348833
0.0451081
-0.000308474
-0.000310385
0.0457895
0.000666297
-0.0450982
0.0459646
0.000182682
0.045848
-0.000107332
0.045645
-0.000191173
0.0454218
-0.000211471
0.0451981
-0.000222617
0.0450245
-0.000173401
0.0448519
-0.000176198
0.0446994
-0.000155983
-0.00015664
0.0455546
-0.0448883
0.0457373
0.04563
0.0454388
0.0452273
0.0450047
0.0448313
0.0446551
0.0444991
0.0567853
0.00229965
-0.0560679
0.0573455
0.00290903
0.0576999
0.0035
0.0577988
0.00406354
0.057595
0.00459047
0.0570488
0.00507205
0.0561283
0.00550062
0.0548038
0.0058701
0.0530193
0.00617567
0.00639207
0.0513879
0.00169194
-0.0507802
0.0520401
0.00225677
0.052723
0.00281719
0.0534184
0.00336809
0.0541051
0.00390374
0.0547593
0.00441791
0.0553557
0.00490416
0.0558697
0.00535612
0.0562773
0.00576808
0.00612455
0.0480849
0.00121765
-0.0476106
0.0486401
0.00170155
0.049273
0.00218427
0.0499782
0.00266293
0.0507476
0.00313437
0.0515703
0.00359512
0.0524332
0.00404135
0.0533204
0.00446888
0.0542153
0.00487317
0.00524488
0.0454858
0.000891535
-0.0451597
0.045892
0.00129536
0.0463788
0.00169744
0.0469462
0.00209553
0.0475932
0.00248736
0.0483178
0.0028706
0.0491163
0.00324284
0.0499836
0.00360157
0.0509128
0.003944
0.0042642
0.0439028
0.000651959
-0.0436632
0.0442164
0.000981722
0.0446042
0.00130961
0.045066
0.00163375
0.0456011
0.00195227
0.0462084
0.00226332
0.0468862
0.00256503
0.0476323
0.0028555
0.0484436
0.00313264
0.00339157
0.0428081
0.000469813
-0.042626
0.0430603
0.000729591
0.0433823
0.000987601
0.0437737
0.00124233
0.0442337
0.00149226
0.0447611
0.00173592
0.0453543
0.00197181
0.0460114
0.00219848
0.0467297
0.00241431
0.00261591
0.0421164
0.000324971
-0.0419716
0.0423282
0.000517843
0.0426065
0.000709302
0.0429506
0.000898196
0.0433595
0.00108338
0.0438317
0.00126373
0.0443654
0.00143812
0.0449584
0.00160544
0.0456082
0.00176451
0.00191301
0.0416651
0.000204243
-0.0415444
0.041851
0.000331972
0.0421016
0.000458744
0.042416
0.000583788
0.042793
0.000706335
0.0432311
0.000825626
0.0437283
0.000940912
0.0442823
0.00105145
0.0448904
0.00115647
0.00125458
0.041401
9.8281e-05
-0.0412951
0.0415711
0.000161937
0.0418047
0.000225134
0.042101
0.000287482
0.0424587
0.000348595
0.0428763
0.00040809
0.0433516
0.000465589
0.0438823
0.000520721
0.0444657
0.000573093
0.000622059
0.0412756
-0.0411774
0.0414376
0.0416627
0.0419502
0.0422988
0.0427069
0.0431725
0.0436932
0.0442663
0.0481181
-0.00335354
-0.0475682
0.0488277
-0.00289457
0.049647
-0.00240541
0.0505364
-0.00188455
0.0514684
-0.00133334
0.0524247
-0.00075923
0.0533869
-0.000166555
0.0543334
0.000440943
0.0552378
0.00105848
0.00168029
0.0479684
-0.00340736
-0.0479145
0.048066
-0.0029922
0.0482066
-0.00254606
0.048396
-0.00207388
0.0486397
-0.00157709
0.048942
-0.00106154
0.0493063
-0.000530881
0.0497348
1.25392e-05
0.050227
0.000566206
0.00112714
0.0468957
-0.00314796
-0.0471551
0.0466913
-0.00278778
0.0465476
-0.00240229
0.0464697
-0.00199607
0.046464
-0.00157131
0.0465338
-0.00113135
0.0466816
-0.000678651
0.0469093
-0.000215233
0.0472187
0.00025682
0.000735246
0.0455765
-0.00277139
-0.0459531
0.0452578
-0.0024691
0.0450006
-0.00214506
0.0448084
-0.00180383
0.0446844
-0.00144731
0.0446309
-0.0010779
0.0446499
-0.000697658
0.0447432
-0.000308546
0.0449126
8.74286e-05
0.000488173
0.0446582
-0.00234956
-0.0450801
0.0442902
-0.00210106
0.0439805
-0.00183538
0.0437323
-0.00155563
0.0435484
-0.00126343
0.0434312
-0.000960632
0.0433825
-0.000648949
0.043404
-0.000330082
0.0434972
-5.77298e-06
0.000322185
0.0439883
-0.00190018
-0.0444376
0.0435909
-0.00170365
0.0432493
-0.00149379
0.0429665
-0.00127288
0.0427452
-0.00104215
0.0425876
-0.000803001
0.0424955
-0.000556825
0.0424704
-0.000305009
0.0425136
-4.89825e-05
0.000209791
0.0435588
-0.00143581
-0.0440232
0.0431448
-0.00128967
0.0427848
-0.00113382
0.0424817
-0.000969742
0.0422379
-0.000798364
0.0420556
-0.000620698
0.0419366
-0.000437776
0.0418822
-0.000250653
0.0418936
-6.04106e-05
0.000131842
0.0432803
-0.000961359
-0.0437548
0.0428553
-0.000864656
0.0424831
-0.000761558
0.0421663
-0.000653004
0.0419076
-0.000539598
0.0417089
-0.000422001
0.041572
-0.000300896
0.0414983
-0.000176986
0.0414889
-5.09956e-05
7.63342e-05
0.0431198
-0.000481483
-0.0435997
0.0426886
-0.000433456
0.0423093
-0.000382256
0.0419846
-0.000328326
0.041717
-0.000271964
0.0415085
-0.000213494
0.0413608
-0.000153252
0.0412754
-9.15877e-05
0.0412533
-2.88621e-05
3.45541e-05
0.043046
-0.0435275
0.0426125
0.0422303
0.041902
0.04163
0.0414165
0.0412632
0.0411717
0.0411428
0.0429487
0.000174219
-0.000193987
0.0429948
0.000520155
-0.000566238
0.0430721
0.000871411
-0.000948685
0.0431978
0.00123558
-0.00136135
0.0434018
0.00161793
-0.00182194
0.0437273
0.00202266
-0.00234813
0.0442326
0.00245185
-0.00295714
0.044989
0.00290791
-0.0036643
0.0460902
0.00336683
-0.00446806
0.00391666
-0.00539464
0.0429654
0.000137702
0.043072
0.00041357
0.0432526
0.000690847
0.0435175
0.0009707
0.0438815
0.00125393
0.0443633
0.0015408
0.0449848
0.00183038
0.0457699
0.00212284
0.0467341
0.00240265
0.00273617
0.0429664
0.000100203
0.0430774
0.000302571
0.0432619
0.000506413
0.0435238
0.000708781
0.0438689
0.000908795
0.0443046
0.00110516
0.0448392
0.00129577
0.0454831
0.00147891
0.0462412
0.00164458
0.0018222
0.0429586
7.05155e-05
0.0430475
0.000213698
0.0431957
0.000358207
0.043404
0.000500467
0.0436735
0.000639302
0.0440052
0.000773426
0.0443997
0.00090127
0.044857
0.00102164
0.0453721
0.00112953
0.00124117
0.0429506
4.8878e-05
0.043016
0.000148287
0.0431256
0.0002486
0.0432791
0.00034693
0.0434762
0.000442236
0.0437161
0.000533478
0.0439979
0.000619514
0.0443201
0.000699413
0.0446793
0.000770378
0.000840376
0.0429445
3.33067e-05
0.0429917
0.000101058
0.0430709
0.000169394
0.0431816
0.000236266
0.0433229
0.000300913
0.0434938
0.000362603
0.0436927
0.000420595
0.0439178
0.000474298
0.044166
0.000522238
0.000568703
0.0429403
2.19228e-05
0.0429749
6.65074e-05
0.0430328
0.000111458
0.0431136
0.000155417
0.0432167
0.000197871
0.043341
0.000238335
0.0434852
0.000276334
0.043648
0.000311478
0.0438273
0.000342936
0.000372882
0.0429376
1.32818e-05
0.0429638
4.0282e-05
0.0430078
6.74932e-05
0.0430691
9.41048e-05
0.0431471
0.000119808
0.0432412
0.000144315
0.0433501
0.00016735
0.0434729
0.000188687
0.043608
0.000207892
0.000226076
0.0429359
6.26398e-06
0.0429572
1.89934e-05
0.0429929
3.18193e-05
0.0430427
4.4363e-05