/*--------------------------------*- C++ -*----------------------------------*\
  =========                 |
  \\      /  F ield         | OpenFOAM: The Open Source CFD Toolbox
   \\    /   O peration     | Website:  https://openfoam.org
    \\  /    A nd           | Version:  6.0
     \\/     M anipulation  |
\*---------------------------------------------------------------------------*/
FoamFile
{
    version     2.0;
    format      ascii;
    class       volScalarField;
    location    "8";
    object      p;
}
// * * * * * * * * * * * * * * * * * * * * * * * * * * * * * * * * * * * * * //

dimensions      [0 2 -2 0 0 0 0];

internalField   nonuniform List<scalar> 
2000
(
-0.368268
-0.374117
-0.375675
-0.374826
-0.372751
-0.369833
-0.366356
-0.36262
-0.358919
-0.354959
-0.371058
-0.376472
-0.377682
-0.376527
-0.374161
-0.370965
-0.367224
-0.363225
-0.359267
-0.355189
-0.376662
-0.381186
-0.38169
-0.379917
-0.376964
-0.373209
-0.368929
-0.364388
-0.359895
-0.355576
-0.38511
-0.388252
-0.387672
-0.384962
-0.381121
-0.376514
-0.371405
-0.366013
-0.360664
-0.355959
-0.396447
-0.397657
-0.395592
-0.391618
-0.386583
-0.380828
-0.37458
-0.36798
-0.36137
-0.356077
-0.410721
-0.409378
-0.405402
-0.399837
-0.393315
-0.386122
-0.378417
-0.370202
-0.361799
-0.355589
-0.42795
-0.42336
-0.417035
-0.409572
-0.401304
-0.392431
-0.383005
-0.37279
-0.36194
-0.354222
-0.448064
-0.439498
-0.430394
-0.420758
-0.410532
-0.399793
-0.388448
-0.375858
-0.361527
-0.350795
-0.470843
-0.457612
-0.445358
-0.433351
-0.421036
-0.408297
-0.394728
-0.37879
-0.358275
-0.340647
-0.495846
-0.47743
-0.461822
-0.447491
-0.433429
-0.419425
-0.404715
-0.386655
-0.361172
-0.336849
-0.522386
-0.498526
-0.479512
-0.463081
-0.448057
-0.434793
-0.423606
-0.4151
-0.414496
-0.433178
-0.549637
-0.520316
-0.497808
-0.479018
-0.462374
-0.448309
-0.437274
-0.430299
-0.432455
-0.448827
-0.576869
-0.542332
-0.516424
-0.495166
-0.476485
-0.460715
-0.448204
-0.439652
-0.438128
-0.445037
-0.603415
-0.564082
-0.535023
-0.51132
-0.490346
-0.472257
-0.457198
-0.445414
-0.43836
-0.436094
-0.628502
-0.584879
-0.552956
-0.526806
-0.50322
-0.482158
-0.463575
-0.44735
-0.4339
-0.423342
-0.651119
-0.603765
-0.569256
-0.540595
-0.51403
-0.489401
-0.466592
-0.445309
-0.425399
-0.407701
-0.669961
-0.619514
-0.582674
-0.551386
-0.521478
-0.49281
-0.465367
-0.438874
-0.412941
-0.389418
-0.683457
-0.630656
-0.591737
-0.557689
-0.52413
-0.49113
-0.458942
-0.427454
-0.396252
-0.368259
-0.689839
-0.635546
-0.594816
-0.557906
-0.520514
-0.483115
-0.446367
-0.410399
-0.374879
-0.343732
-0.687241
-0.632443
-0.590215
-0.550432
-0.509209
-0.46761
-0.426775
-0.387086
-0.348323
-0.31526
-0.673813
-0.619608
-0.57627
-0.533747
-0.488939
-0.443628
-0.399455
-0.357009
-0.316151
-0.282322
-0.647834
-0.59541
-0.551458
-0.506529
-0.458664
-0.41043
-0.363921
-0.319848
-0.278089
-0.244563
-0.607847
-0.558457
-0.514517
-0.467761
-0.417669
-0.36759
-0.319966
-0.275524
-0.234088
-0.201859
-0.552776
-0.50771
-0.464557
-0.416816
-0.365623
-0.315029
-0.267686
-0.224233
-0.184365
-0.154362
-0.482042
-0.442594
-0.401157
-0.35352
-0.302604
-0.253017
-0.207473
-0.166434
-0.129403
-0.102505
-0.395666
-0.363099
-0.324432
-0.278189
-0.229091
-0.182129
-0.139938
-0.102754
-0.0698439
-0.0469166
-0.294362
-0.269854
-0.235089
-0.19164
-0.14596
-0.10322
-0.0658606
-0.0338984
-0.00641165
0.0115742
-0.17959
-0.164169
-0.134432
-0.0951823
-0.0544573
-0.0174393
0.0136959
0.0390116
0.059349
0.0709338
-0.053578
-0.0480356
-0.0243298
0.00950039
0.0440225
0.0741546
0.0978698
0.114759
0.12491
0.12744
0.0807037
0.07589
0.0927934
0.120369
0.148152
0.171384
0.188085
0.196641
0.195771
0.18917
0.21967
0.204332
0.213826
0.234523
0.255472
0.272766
0.285129
0.290741
0.289793
0.303846
0.359421
0.33364
0.33515
0.348106
0.361269
0.371371
0.377536
0.378871
0.377873
0.390916
0.496012
0.46014
0.453358
0.458
0.462745
0.464905
0.463912
0.459349
0.453708
0.458897
0.6256
0.580225
0.56516
0.561307
0.557457
0.551511
0.543211
0.532407
0.521177
0.51839
0.744528
0.690462
0.667468
0.655373
0.643221
0.629482
0.614179
0.59735
0.580689
0.570774
0.849417
0.787689
0.757468
0.73781
0.718087
0.697295
0.675695
0.653472
0.631951
0.615809
0.937257
0.869104
0.832679
0.80651
0.780311
0.753527
0.726618
0.699883
0.674291
0.652933
1.0055
0.932346
0.891014
0.85969
0.828393
0.796919
0.765881
0.735661
0.706916
0.681491
1.05215
0.975568
0.930841
0.895951
0.861141
0.826449
0.792592
0.760003
0.729109
0.700892
1.07582
0.997499
0.951038
0.914325
0.877726
0.841398
0.806112
0.772325
0.740343
0.710704
1.07581
0.997493
0.951032
0.914319
0.87772
0.841393
0.806108
0.772322
0.740339
0.710701
1.05213
0.975549
0.930823
0.895933
0.861125
0.826434
0.792579
0.759991
0.729098
0.700882
1.00547
0.932315
0.890985
0.859661
0.828366
0.796894
0.765859
0.735641
0.706898
0.681474
0.937213
0.869061
0.832638
0.80647
0.780274
0.753492
0.726587
0.699855
0.674266
0.65291
0.849362
0.787634
0.757415
0.73776
0.71804
0.697251
0.675655
0.653435
0.631919
0.61578
0.744462
0.690396
0.667404
0.655313
0.643164
0.629429
0.61413
0.597305
0.580649
0.570738
0.625523
0.580149
0.565086
0.561236
0.55739
0.551448
0.543153
0.532354
0.521129
0.518348
0.495924
0.460052
0.453273
0.457918
0.462667
0.464832
0.463845
0.459288
0.453653
0.458848
0.359322
0.333541
0.335054
0.348014
0.361181
0.371289
0.37746
0.378801
0.37781
0.39086
0.21956
0.204223
0.213719
0.23442
0.255374
0.272674
0.285043
0.290661
0.289721
0.303783
0.0805824
0.0757693
0.0926754
0.120255
0.148043
0.171281
0.187989
0.19655
0.195687
0.189092
-0.05371
-0.0481672
-0.0244587
0.00937593
0.0439035
0.0740415
0.0977629
0.114658
0.124814
0.127349
-0.179732
-0.164311
-0.134572
-0.0953168
-0.0545863
-0.0175623
0.0135791
0.0389
0.0592421
0.070832
-0.294513
-0.270005
-0.235237
-0.191784
-0.146098
-0.103352
-0.0659865
-0.034019
-0.0065275
0.0114633
-0.395826
-0.363258
-0.324589
-0.278341
-0.229237
-0.182269
-0.140072
-0.102883
-0.0699677
-0.0470354
-0.482209
-0.44276
-0.401321
-0.353679
-0.302757
-0.253164
-0.207614
-0.16657
-0.129534
-0.10263
-0.552949
-0.507882
-0.464727
-0.416981
-0.365783
-0.315183
-0.267834
-0.224375
-0.184501
-0.154493
-0.608025
-0.558634
-0.514691
-0.467931
-0.417834
-0.367749
-0.320119
-0.275671
-0.234229
-0.201994
-0.648016
-0.595591
-0.551636
-0.506703
-0.458832
-0.410593
-0.364078
-0.319999
-0.278234
-0.244702
-0.673999
-0.619792
-0.576452
-0.533924
-0.489111
-0.443794
-0.399615
-0.357163
-0.316298
-0.282464
-0.687428
-0.632629
-0.590398
-0.550611
-0.509383
-0.467778
-0.426937
-0.387243
-0.348473
-0.315404
-0.690026
-0.635732
-0.594999
-0.558086
-0.520689
-0.483284
-0.446531
-0.410556
-0.375031
-0.343878
-0.683643
-0.63084
-0.591919
-0.557868
-0.524304
-0.491299
-0.459106
-0.427612
-0.396404
-0.368406
-0.670143
-0.619695
-0.582853
-0.551563
-0.521651
-0.492978
-0.46553
-0.439032
-0.413094
-0.389566
-0.651297
-0.603942
-0.569431
-0.540768
-0.5142
-0.489567
-0.466754
-0.445466
-0.425551
-0.407849
-0.628675
-0.58505
-0.553126
-0.526975
-0.503386
-0.482321
-0.463735
-0.447505
-0.434051
-0.423489
-0.603582
-0.564248
-0.535188
-0.511483
-0.490507
-0.472416
-0.457354
-0.445567
-0.438509
-0.436239
-0.57703
-0.542491
-0.516582
-0.495323
-0.47664
-0.460869
-0.448355
-0.4398
-0.438274
-0.44518
-0.549791
-0.520467
-0.497958
-0.479167
-0.462522
-0.448455
-0.437419
-0.430442
-0.432598
-0.448966
-0.522532
-0.498669
-0.479654
-0.463222
-0.448198
-0.434932
-0.423744
-0.415237
-0.414632
-0.433312
-0.495983
-0.477565
-0.461955
-0.447623
-0.433561
-0.419556
-0.404845
-0.386784
-0.3613
-0.336974
-0.470971
-0.457736
-0.445481
-0.433473
-0.421158
-0.408418
-0.394848
-0.37891
-0.358394
-0.340763
-0.448181
-0.439613
-0.430507
-0.42087
-0.410644
-0.399903
-0.388558
-0.375968
-0.361636
-0.350903
-0.428055
-0.423463
-0.417137
-0.409673
-0.401404
-0.39253
-0.383103
-0.372888
-0.362038
-0.354319
-0.410814
-0.409467
-0.405491
-0.399925
-0.393402
-0.386208
-0.378503
-0.370288
-0.361885
-0.355675
-0.396525
-0.397733
-0.395667
-0.391692
-0.386657
-0.380901
-0.374652
-0.368053
-0.361443
-0.356149
-0.385172
-0.388312
-0.387731
-0.385021
-0.38118
-0.376573
-0.371463
-0.36607
-0.360722
-0.356017
-0.376708
-0.381229
-0.381733
-0.37996
-0.377007
-0.373252
-0.368971
-0.36443
-0.359937
-0.355618
-0.371086
-0.376498
-0.377708
-0.376553
-0.374186
-0.370991
-0.36725
-0.36325
-0.359292
-0.355214
-0.368277
-0.374126
-0.375684
-0.374835
-0.37276
-0.369841
-0.366365
-0.362628
-0.358928
-0.354968
-0.306345
-0.12841
-0.0752913
-0.0178386
-0.00464901
0.0050839
0.00617202
0.00619722
0.00370342
0.00303463
-0.30769
-0.129103
-0.0757126
-0.0181628
-0.00480119
0.00496968
0.00611117
0.00616114
0.00368607
0.00301866
-0.31031
-0.130465
-0.0765342
-0.0188024
-0.00510038
0.00474414
0.00599067
0.00608934
0.00365208
0.00298692
-0.314049
-0.132456
-0.0777267
-0.0197473
-0.00553921
0.00441212
0.00581268
0.00598292
0.00360228
0.00294
-0.318643
-0.135011
-0.0792377
-0.0209777
-0.00610551
0.00398105
0.00558034
0.00584346
0.00353735
0.00287848
-0.323707
-0.138026
-0.0809849
-0.0224565
-0.00678054
0.00346182
0.00529809
0.00567301
0.00345806
0.00280315
-0.32909
-0.14155
-0.0829472
-0.0241567
-0.00755104
0.0028662
0.00497149
0.00547491
0.00336548
0.0027155
-0.335327
-0.146278
-0.0854072
-0.0261827
-0.00845356
0.00218967
0.00460216
0.00525316
0.00326111
0.00261817
-0.340669
-0.152664
-0.0885755
-0.0287236
-0.00955067
0.00140298
0.00418086
0.00500472
0.00314712
0.00251023
-0.333131
-0.155779
-0.0902167
-0.0309922
-0.0105263
0.000585186
0.00371829
0.00470901
0.00302356
0.002374
-0.266238
-0.148856
-0.0872372
-0.0354241
-0.0124498
-0.00187306
0.00213027
0.00353915
0.00255495
0.001788
-0.204539
-0.139049
-0.0811133
-0.0376531
-0.0157528
-0.0057879
-0.00087466
0.00144661
0.00144796
0.000965804
-0.15943
-0.119681
-0.0716087
-0.0369727
-0.0184432
-0.00917442
-0.00369578
-0.000602853
0.0003042
0.000278075
-0.1173
-0.097729
-0.0626976
-0.0361166
-0.0206547
-0.0119213
-0.00610856
-0.00244413
-0.000750908
-0.000250844
-0.0866406
-0.0799759
-0.0565709
-0.0359036
-0.0223975
-0.0140205
-0.00807633
-0.00402136
-0.00168107
-0.000637651
-0.0657624
-0.0668841
-0.0520619
-0.0356496
-0.0234993
-0.0154811
-0.00958672
-0.00530093
-0.0024581
-0.000911764
-0.0522631
-0.0574367
-0.0484509
-0.0352266
-0.0241483
-0.0164677
-0.0106981
-0.00628934
-0.00307447
-0.00110447
-0.0437079
-0.0508371
-0.0456535
-0.0347921
-0.0245393
-0.0171141
-0.0114705
-0.00700535
-0.00353138
-0.00123612
-0.0386921
-0.0466538
-0.0437658
-0.034476
-0.0247678
-0.0174968
-0.0119516
-0.00746907
-0.00383302
-0.00131733
-0.036367
-0.0446153
-0.0428203
-0.0343274
-0.0248808
-0.0176691
-0.0121784
-0.00769581
-0.00398424
-0.00135323
-0.233516
-0.261575
-0.287561
-0.311758
-0.334549
-0.356421
-0.377968
-0.399804
-0.422357
-0.446394
-0.0806223
-0.09075
-0.0999037
-0.108326
-0.116322
-0.124274
-0.132642
-0.141973
-0.152846
-0.167062
-0.0563847
-0.0654841
-0.0742009
-0.0825098
-0.0903745
-0.0977512
-0.104597
-0.110885
-0.116612
-0.121905
-0.0288421
-0.0344545
-0.0398615
-0.0450824
-0.0501401
-0.0550589
-0.0598631
-0.0645754
-0.0691968
-0.0736192
-0.0224048
-0.0266483
-0.0307659
-0.0347548
-0.0386117
-0.0423324
-0.0459142
-0.0493546
-0.0526352
-0.0557346
-0.0167512
-0.0198561
-0.0228996
-0.0258812
-0.0288006
-0.0316576
-0.0344523
-0.0371836
-0.0398405
-0.0424324
-0.0152135
-0.0176426
-0.0200325
-0.022379
-0.0246791
-0.0269303
-0.0291305
-0.0312772
-0.0333651
-0.0354108
-0.0141039
-0.0160571
-0.0179906
-0.0199006
-0.0217835
-0.0236362
-0.0254557
-0.0272392
-0.0289837
-0.0306983
-0.0138238
-0.0154968
-0.0171585
-0.0188046
-0.020431
-0.0220337
-0.0236093
-0.0251547
-0.0266679
-0.0281515
-0.0136715
-0.0151981
-0.0167185
-0.0182291
-0.0197264
-0.0212069
-0.0226674
-0.0241053
-0.0255191
-0.0269076
0.153731
0.112608
0.0672358
0.0241433
-0.017636
-0.0585583
-0.0980056
-0.135403
-0.17049
-0.203189
0.104459
0.0785413
0.0518401
0.0290792
0.00900822
-0.00962605
-0.0268982
-0.0425985
-0.056703
-0.0693275
0.0613359
0.0456794
0.0308437
0.0180406
0.00627858
-0.00510369
-0.0161702
-0.0268338
-0.037073
-0.0469155
0.042026
0.0330234
0.0245155
0.0169203
0.0097574
0.00276644
-0.00404575
-0.010621
-0.0169394
-0.0230084
0.0272488
0.0213708
0.0157376
0.0105517
0.00556027
0.000638238
-0.00420483
-0.00893779
-0.0135488
-0.0180377
0.0176224
0.0138081
0.0100591
0.00651719
0.00306843
-0.000351368
-0.00373915
-0.00707839
-0.0103612
-0.0135858
0.0104053
0.00774696
0.0050759
0.0024846
-7.56357e-05
-0.00263545
-0.00519214
-0.00773465
-0.0102554
-0.0127497
0.0055868
0.00365812
0.00168802
-0.000267306
-0.00222471
-0.00419677
-0.00618067
-0.00816897
-0.0101554
-0.0121352
0.00249082
0.00095928
-0.000615505
-0.00220686
-0.00381953
-0.00545622
-0.0071129
-0.00878346
-0.0104622
-0.012144
0.00101267
-0.000345583
-0.00174317
-0.00316627
-0.00461537
-0.00608947
-0.00758424
-0.00909452
-0.0106155
-0.0121426
0.322312
0.3216
0.320025
0.317107
0.312061
0.303648
0.290095
0.269001
0.237719
0.192863
0.232928
0.231806
0.229156
0.224547
0.217643
0.208016
0.195094
0.178221
0.156646
0.129814
0.162719
0.161588
0.158919
0.154389
0.147891
0.139319
0.128483
0.11517
0.0989716
0.0799718
0.111754
0.11087
0.108772
0.105218
0.100191
0.0937156
0.0857876
0.0764172
0.0655276
0.0534527
0.0760275
0.0753872
0.0738579
0.0712613
0.0676049
0.0629414
0.0573056
0.0507363
0.0432149
0.034949
0.0513848
0.0509267
0.0498309
0.0479704
0.0453586
0.0420471
0.0380778
0.0334954
0.0283184
0.0226926
0.0346767
0.0343442
0.0335484
0.0321975
0.0303033
0.027906
0.0250397
0.0217375
0.0180193
0.013969
0.0237298
0.0234794
0.02288
0.0218627
0.020437
0.0186341
0.016481
0.0140031
0.0112213
0.00818761
0.017122
0.01692
0.0164368
0.0156168
0.0144675
0.0130137
0.0112767
0.00927557
0.00702851
0.0045669
0.0140159
0.013836
0.0134065
0.012678
0.011657
0.010365
0.00882096
0.0070412
0.00504288
0.00284902
0.47182
0.473566
0.479882
0.490999
0.506814
0.527632
0.553924
0.586218
0.625058
0.6707
0.469587
0.471308
0.477543
0.488504
0.50407
0.52451
0.550236
0.58169
0.619281
0.663107
0.46517
0.466845
0.472928
0.483586
0.498665
0.518363
0.542975
0.572773
0.607888
0.648126
0.458669
0.46029
0.466161
0.476387
0.490765
0.509384
0.532372
0.55974
0.591204
0.626163
0.450223
0.451794
0.457416
0.467105
0.480595
0.497842
0.518748
0.542981
0.569695
0.597805
0.44
0.441542
0.446897
0.455966
0.468414
0.484035
0.502463
0.522945
0.543929
0.563788
0.428195
0.429777
0.434884
0.443288
0.454583
0.468373
0.483986
0.500171
0.514587
0.524979
0.415015
0.416823
0.421815
0.429628
0.439794
0.451702
0.464302
0.475701
0.482667
0.482171
0.400531
0.402812
0.407879
0.415224
0.424365
0.434471
0.444044
0.450363
0.449034
0.434839
0.384379
0.386802
0.391439
0.397651
0.40497
0.412446
0.418304
0.419319
0.410714
0.382832
0.384344
0.386767
0.391404
0.397616
0.404935
0.41241
0.418267
0.419281
0.410672
0.382784
0.400498
0.402779
0.407846
0.415191
0.424332
0.434438
0.444009
0.450326
0.448994
0.434793
0.414985
0.416793
0.421785
0.429597
0.439764
0.451672
0.46427
0.475668
0.482629
0.482128
0.428168
0.42975
0.434857
0.443261
0.454555
0.468345
0.483957
0.50014
0.514553
0.524941
0.439976
0.441519
0.446874
0.455942
0.46839
0.48401
0.502437
0.522917
0.543899
0.563755
0.450204
0.451774
0.457397
0.467085
0.480575
0.497821
0.518726
0.542957
0.569669
0.597778
0.458654
0.460275
0.466147
0.476372
0.490748
0.509367
0.532354
0.559721
0.591184
0.626141
0.465159
0.466835
0.472917
0.483575
0.498653
0.51835
0.542961
0.572759
0.607873
0.64811
0.46958
0.471301
0.477536
0.488498
0.504063
0.524502
0.550228
0.581682
0.619272
0.663098
0.471818
0.473564
0.47988
0.490997
0.506812
0.52763
0.553921
0.586215
0.625055
0.670697
0.0139852
0.0138053
0.013376
0.0126479
0.0116272
0.0103358
0.00879232
0.00701311
0.00501532
0.00282194
0.0170905
0.0168884
0.0164053
0.0155855
0.0144367
0.0129835
0.0112471
0.00924657
0.00700008
0.00453905
0.0236979
0.0234476
0.0228483
0.0218312
0.0204057
0.0186031
0.0164502
0.0139725
0.011191
0.00815749
0.034644
0.0343115
0.0335158
0.032165
0.0302709
0.0278737
0.0250074
0.0217053
0.0179873
0.0139373
0.0513507
0.0508926
0.0497969
0.0479363
0.0453245
0.0420129
0.0380435
0.0334611
0.0282843
0.0226588
0.0759917
0.0753514
0.0738222
0.0712255
0.067569
0.0629054
0.0572695
0.0507001
0.0431786
0.0349127
0.111716
0.110832
0.108735
0.10518
0.100153
0.0936775
0.0857494
0.0763789
0.0654891
0.0534145
0.162679
0.161549
0.158879
0.154349
0.147851
0.139278
0.128442
0.115129
0.0989299
0.0799299
0.232888
0.231766
0.229115
0.224506
0.217602
0.207974
0.195052
0.178178
0.156602
0.129769
0.322272
0.321561
0.319986
0.317067
0.312021
0.303607
0.290053
0.268958
0.237674
0.192816
0.000986336
-0.000370911
-0.00176742
-0.00318968
-0.00463803
-0.00611128
-0.00760507
-0.00911425
-0.010634
-0.0121599
0.00246368
0.000932814
-0.000641336
-0.00223199
-0.00384382
-0.0054795
-0.007135
-0.00880421
-0.0104815
-0.0121617
0.00555707
0.00362902
0.00165977
-0.000294604
-0.00225096
-0.00422187
-0.00620451
-0.00819142
-0.0101764
-0.0121547
0.0103741
0.00771617
0.00504574
0.00245538
-0.000103741
-0.00266241
-0.00521794
-0.00775929
-0.0102789
-0.012772
0.0175889
0.0137751
0.0100268
0.00648564
0.00303771
-0.000381239
-0.00376816
-0.00710651
-0.0103884
-0.0136121
0.0272129
0.0213358
0.0157034
0.0105177
0.00552615
0.000604002
-0.00423911
-0.00897204
-0.013583
-0.0180717
0.0419881
0.0329853
0.0244765
0.0168804
0.00971677
0.00272501
-0.00408807
-0.0106643
-0.0169836
-0.0230534
0.0612936
0.0456356
0.0307979
0.017993
0.0062292
-0.00515517
-0.016224
-0.02689
-0.0371314
-0.0469756
0.104413
0.0784933
0.0517886
0.0290236
0.00894791
-0.00969142
-0.0269685
-0.0426732
-0.0567812
-0.0694084
0.153679
0.112547
0.0671617
0.0240582
-0.0177305
-0.0586608
-0.0981145
-0.135517
-0.170608
-0.20331
-0.0136876
-0.015213
-0.0167321
-0.0182413
-0.0197371
-0.0212161
-0.0226754
-0.0241122
-0.025525
-0.0269126
-0.01384
-0.0155117
-0.017172
-0.0188166
-0.0204414
-0.0220427
-0.0236171
-0.0251614
-0.0266738
-0.0281565
-0.0141218
-0.0160735
-0.0180056
-0.0199142
-0.0217958
-0.0236472
-0.0254654
-0.0272478
-0.0289912
-0.0307048
-0.0152345
-0.0176621
-0.0200505
-0.022396
-0.0246952
-0.0269452
-0.0291439
-0.0312891
-0.0333754
-0.0354195
-0.0167767
-0.0198809
-0.0229236
-0.0259041
-0.028822
-0.0316774
-0.0344702
-0.0371993
-0.0398541
-0.0424438
-0.0224386
-0.0266821
-0.0307993
-0.0347871
-0.038642
-0.0423605
-0.0459397
-0.0493773
-0.0526548
-0.0557511
-0.0288874
-0.0344994
-0.0399054
-0.0451249
-0.0501807
-0.0550971
-0.0598981
-0.0646068
-0.0692241
-0.0736422
-0.0564462
-0.0655466
-0.0742637
-0.0825718
-0.0904346
-0.0978082
-0.10465
-0.110933
-0.116654
-0.121939
-0.0807051
-0.0908337
-0.0999873
-0.108408
-0.116402
-0.124351
-0.132715
-0.14204
-0.152907
-0.167114
-0.23364
-0.261701
-0.287689
-0.311887
-0.334678
-0.35655
-0.378095
-0.399927
-0.422474
-0.446501
-0.0363668
-0.0446135
-0.0428209
-0.034329
-0.0248806
-0.0176699
-0.0121801
-0.00769692
-0.00398364
-0.00135381
-0.0386921
-0.0466516
-0.0437657
-0.0344773
-0.0247675
-0.0174974
-0.0119531
-0.00747012
-0.00383243
-0.0013179
-0.0437082
-0.050834
-0.045652
-0.0347927
-0.0245387
-0.017114
-0.0114718
-0.00700638
-0.00353087
-0.00123663
-0.0522638
-0.0574322
-0.048447
-0.0352259
-0.0241469
-0.0164667
-0.0106991
-0.00629043
-0.00307413
-0.0011049
-0.0657635
-0.0668775
-0.0520543
-0.0356461
-0.0234962
-0.015479
-0.00958745
-0.00530225
-0.00245803
-0.000912121
-0.0866421
-0.0799662
-0.0565575
-0.0358952
-0.0223913
-0.0140171
-0.00807734
-0.00402322
-0.00168148
-0.000637938
-0.117302
-0.0977134
-0.0626751
-0.036101
-0.0206444
-0.0119169
-0.00611071
-0.00244705
-0.000752057
-0.000251082
-0.159433
-0.119655
-0.0715701
-0.0369459
-0.0184278
-0.0091701
-0.00370027
-0.000607405
0.000302132
0.000277847
-0.204553
-0.139012
-0.0810504
-0.0376088
-0.0157308
-0.0057845
-0.000882255
0.00144008
0.0014449
0.000965449
-0.266281
-0.148821
-0.0871576
-0.0353647
-0.0124211
-0.00186947
0.00212145
0.00353156
0.00255116
0.00178716
-0.333188
-0.155755
-0.0901468
-0.0309411
-0.0105004
0.000589709
0.00371322
0.00470428
0.00302154
0.00237364
-0.340731
-0.152643
-0.0885086
-0.0286755
-0.00952642
0.00140725
0.00417642
0.0050005
0.00314548
0.00250996
-0.335389
-0.146256
-0.0853436
-0.0261383
-0.00843174
0.00219322
0.00459803
0.00524922
0.00325979
0.00261799
-0.329149
-0.14153
-0.0828883
-0.0241166
-0.00753181
0.00286917
0.00496785
0.00547138
0.00336454
0.00271542
-0.323761
-0.138008
-0.0809321
-0.0224211
-0.00676398
0.00346438
0.00529506
0.00566989
0.00345739
0.00280305
-0.318689
-0.134996
-0.0791923
-0.0209478
-0.00609195
0.00398322
0.00557808
0.00584085
0.00353704
0.00287839
-0.314086
-0.132444
-0.0776898
-0.0197234
-0.00552892
0.00441393
0.00581127
0.00598088
0.00360241
0.00293992
-0.310337
-0.130457
-0.076507
-0.0187851
-0.00509343
0.00474551
0.00599002
0.00608791
0.00365263
0.00298689
-0.307707
-0.129098
-0.0756959
-0.0181522
-0.00479724
0.00497057
0.00611101
0.00616029
0.00368661
0.00301861
-0.30635
-0.128408
-0.0752857
-0.017835
-0.00464777
0.00508419
0.00617203
0.00619695
0.00370367
0.00303465
)
;

boundaryField
{
    inlet
    {
        type            zeroGradient;
    }
    outlet
    {
        type            fixedValue;
        value           uniform 0;
    }
    cylinder
    {
        type            zeroGradient;
    }
    top
    {
        type            symmetryPlane;
    }
    bottom
    {
        type            symmetryPlane;
    }
    defaultFaces
    {
        type            empty;
    }
}


// ************************************************************************* //
