/*--------------------------------*- C++ -*----------------------------------*\
  =========                 |
  \\      /  F ield         | OpenFOAM: The Open Source CFD Toolbox
   \\    /   O peration     | Website:  https://openfoam.org
    \\  /    A nd           | Version:  6.0
     \\/     M anipulation  |
\*---------------------------------------------------------------------------*/
FoamFile
{
    version     2.0;
    format      ascii;
    class       surfaceScalarField;
    location    "8";
    object      phi;
}
// * * * * * * * * * * * * * * * * * * * * * * * * * * * * * * * * * * * * * //

dimensions      [0 3 -1 0 0 0 0];

internalField   nonuniform List<scalar> 
3880
(
-1.80992e-05
1.80735e-05
2.57043e-08
-5.35509e-05
3.53957e-05
5.60237e-08
-9.49612e-05
4.13385e-05
7.17167e-08
-0.00013513
4.00956e-05
7.37252e-08
-0.000169615
3.44182e-05
6.64616e-08
-0.000195957
2.62891e-05
5.32518e-08
-0.00021321
1.72162e-05
3.58312e-08
-0.000221624
8.39953e-06
1.52429e-08
-0.000222456
8.42143e-07
-1.06674e-08
-4.65484e-06
-3.68231e-08
-0.000217764
-1.73747e-05
3.54481e-05
-5.07539e-05
6.87749e-05
-8.88945e-05
7.94791e-05
-0.000124714
7.59148e-05
-0.000153809
6.35136e-05
-0.000173687
4.61668e-05
-0.000183308
2.6837e-05
-0.00018282
7.91203e-06
-0.000173419
-8.55907e-06
-2.08784e-05
-0.000157195
-1.58948e-05
5.13429e-05
-4.5058e-05
9.79381e-05
-7.65877e-05
0.000111009
-0.000103679
0.000103006
-0.000122056
8.18906e-05
-0.000129191
5.33022e-05
-0.000123883
2.15288e-05
-0.000106065
-9.90609e-06
-7.67877e-05
-3.78363e-05
-5.94737e-05
-3.81925e-05
-1.35835e-05
6.49264e-05
-3.62161e-05
0.000120571
-5.76002e-05
0.000132393
-7.1451e-05
0.000116857
-7.37985e-05
8.4238e-05
-6.21704e-05
4.16741e-05
-3.51887e-05
-5.45293e-06
7.53339e-06
-5.26282e-05
6.52188e-05
-9.55217e-05
-0.000129958
0.000135703
-1.02918e-05
7.52182e-05
-2.3756e-05
0.000134035
-3.10515e-05
0.000139688
-2.67577e-05
0.000112563
-7.52124e-06
6.50016e-05
2.8828e-05
5.3249e-06
8.37202e-05
-6.03453e-05
0.000157914
-0.000126822
0.000251095
-0.000188703
-0.000240047
0.000361185
-5.78435e-06
8.10026e-05
-6.93971e-06
0.00013519
4.49534e-06
0.000128253
3.26591e-05
8.43993e-05
7.98314e-05
1.78293e-05
0.000147404
-6.22473e-05
0.000236459
-0.000149401
0.000347978
-0.000238341
0.000482322
-0.000323047
-0.000395383
0.000637658
2.35287e-07
8.07673e-05
1.51576e-05
0.000120268
5.09298e-05
9.24812e-05
0.000110019
2.53102e-05
0.000193108
-6.52598e-05
0.000300089
-0.000169228
0.000430843
-0.000280155
0.00058585
-0.000393347
0.000766074
-0.000503271
-0.000599779
0.00097047
8.03797e-06
7.27293e-05
4.33742e-05
8.49317e-05
0.000110081
2.57742e-05
0.000208781
-7.33897e-05
0.000338197
-0.000194676
0.000495939
-0.000326971
0.000679328
-0.000463544
0.000886526
-0.000600545
0.0011178
-0.000734545
-0.00085823
0.00137625
1.77242e-05
5.50051e-05
7.7994e-05
2.46619e-05
0.000182767
-7.89984e-05
0.000331118
-0.000221741
0.000520085
-0.000383642
0.000744865
-0.000551751
0.000999104
-0.000717783
0.00127583
-0.000877276
0.00157103
-0.00102974
-0.00118526
0.00189805
2.90294e-05
2.59757e-05
0.000118097
-6.44059e-05
0.000267315
-0.000228216
0.000475201
-0.000429627
0.000738876
-0.000647318
0.00105378
-0.000866651
0.00141299
-0.001077
0.00180556
-0.00126985
0.00221551
-0.00143968
-0.0015898
0.00262005
4.11528e-05
-1.51771e-05
0.000160867
-0.00018412
0.000357352
-0.000424701
0.000629143
-0.000701418
0.000975382
-0.000993557
0.00139647
-0.00128774
0.0018953
-0.00157583
0.00248049
-0.00185504
0.00317429
-0.00213348
-0.0024482
0.00403269
5.30367e-05
-6.82138e-05
0.000202381
-0.000333465
0.000442981
-0.000665301
0.000771013
-0.00102945
0.00118343
-0.00140597
0.00167795
-0.00178226
0.00225306
-0.00215093
0.00290746
-0.00250945
0.00363536
-0.00286138
-0.00321487
0.00440203
6.41731e-05
-0.000132387
0.000240627
-0.000509919
0.000519568
-0.000944243
0.000892592
-0.00140247
0.0013515
-0.00186488
0.0018877
-0.00231847
0.0024916
-0.00275482
0.00315106
-0.00316891
0.00384743
-0.00355775
-0.00391466
0.00454722
7.45742e-05
-0.000206961
0.000275308
-0.000710652
0.000586533
-0.00125547
0.000994006
-0.00180995
0.00148339
-0.00235426
0.00203962
-0.0028747
0.00264658
-0.00336177
0.00328632
-0.00380866
0.0039376
-0.00420903
-0.00455147
0.00457441
8.43668e-05
-0.000291328
0.000306523
-0.000932809
0.000644052
-0.001593
0.00107627
-0.00224217
0.00158268
-0.00286067
0.0021427
-0.00343472
0.00273585
-0.00395492
0.00334191
-0.00441472
0.00394087
-0.004808
-0.00512387
0.00451328
9.35253e-05
-0.000384853
0.000333973
-0.00117326
0.000691485
-0.00195051
0.00113874
-0.00268942
0.00164955
-0.00337148
0.00219902
-0.0039842
0.00276428
-0.00452018
0.00332504
-0.00497548
0.00386406
-0.00534702
-0.00562773
0.00436792
0.000101798
-0.000486651
0.000356758
-0.00142822
0.000727104
-0.00232085
0.00117901
-0.00314133
0.00168139
-0.00387386
0.0022065
-0.00450931
0.00273077
-0.00504445
0.00323548
-0.00548019
0.00370709
-0.00581863
-0.00605851
0.00413788
0.000108756
-0.000595408
0.000373542
-0.001693
0.000748516
-0.00269583
0.00119387
-0.00358668
0.00167478
-0.00435478
0.00216219
-0.00499672
0.00263349
-0.00551575
0.00307282
-0.00591953
0.00347094
-0.00621674
-0.00641293
0.00382536
0.000113881
-0.000709288
0.000382835
-0.00196196
0.000753274
-0.00306627
0.00118036
-0.00401377
0.00162703
-0.00480144
0.00206454
-0.00543422
0.00247272
-0.00592393
0.00283953
-0.00628634
0.00316023
-0.00653744
-0.00668963
0.00343693
0.00011665
-0.000825938
0.000383259
-0.00222856
0.000739366
-0.00342237
0.00113653
-0.00441093
0.00153714
-0.00520205
0.00191441
-0.00581149
0.00225177
-0.00626129
0.00254153
-0.0065761
0.00278328
-0.00677919
-0.00688924
0.00298289
0.000116609
-0.000942547
0.000373743
-0.0024857
0.000705551
-0.00375418
0.0010618
-0.00476719
0.00140614
-0.00554639
0.00171517
-0.00612052
0.00197671
-0.00652283
0.00218751
-0.0067869
0.00235102
-0.0069427
-0.00701405
0.00247584
0.000113366
-0.00105591
0.000353557
-0.00272589
0.000651381
-0.004052
0.000956905
-0.00507271
0.00123679
-0.00582628
0.00147212
-0.00635584
0.00165546
-0.00670617
0.00178772
-0.00691917
0.00187546
-0.00703044
-0.00706762
0.00192903
0.000106671
-0.00116259
0.000322445
-0.00294166
0.00057732
-0.00430688
0.000823863
-0.00531925
0.0010333
-0.00603572
0.00119192
-0.00651446
0.00129697
-0.00681122
0.00135293
-0.00697513
0.0013686
-0.00704611
-0.00705425
0.00135523
9.63854e-05
-0.00125897
0.000280549
-0.00312583
0.000484547
-0.00451088
0.0006656
-0.00550031
0.000800739
-0.00617086
0.00088176
-0.00659548
0.000910228
-0.00683968
0.00089339
-0.00695829
0.000841415
-0.00699413
-0.00697858
0.00076574
8.24957e-05
-0.00134147
0.000228399
-0.00327173
0.000374839
-0.00465732
0.000485632
-0.0056111
0.000544484
-0.00622971
0.00054869
-0.00659969
0.000503516
-0.00679451
0.000418109
-0.00687288
0.00030319
-0.00687921
-0.00684528
0.000169892
6.51238e-05
-0.00140659
0.000166885
-0.00337349
0.000250446
-0.00474088
0.000287821
-0.00564848
0.000269873
-0.00621176
0.000199125
-0.00652894
8.3871e-05
-0.00667925
-6.56706e-05
-0.00672334
-0.000238968
-0.00670592
-0.00665886
-0.000425387
4.45423e-05
-0.00145113
9.72675e-05
-0.00342622
0.000114061
-0.00475767
7.62818e-05
-0.0056107
-1.7954e-05
-0.00611753
-0.000161325
-0.00638557
-0.000343127
-0.00649745
-0.000552729
-0.00651374
-0.000780389
-0.00647826
-0.00642305
-0.0010162
2.1201e-05
-0.00147233
2.12098e-05
-0.00342623
-3.11497e-05
-0.00470531
-0.000144567
-0.00549728
-0.000313949
-0.00594814
-0.00052773
-0.00617179
-0.000773248
-0.00625193
-0.00103984
-0.00624714
-0.00131907
-0.00619903
-0.00613825
-0.00160387
-4.2314e-06
-0.0014681
-5.91415e-05
-0.00337132
-0.000181426
-0.00458303
-0.000369841
-0.00530886
-0.000613073
-0.00570491
-0.000896095
-0.00588877
-0.00120462
-0.00594341
-0.00152781
-0.00592396
-0.00185864
-0.00586819
-0.00579742
-0.00219946
-3.08031e-05
-0.0014373
-0.000140979
-0.00326114
-0.000331951
-0.00439206
-0.000593212
-0.0050476
-0.000908737
-0.00538939
-0.00126181
-0.00553569
-0.00163786
-0.00556736
-0.00202651
-0.00553531
-0.00242383
-0.00547087
-0.00540896
-0.00281229
-5.72845e-05
-0.00138001
-0.000220799
-0.00309763
-0.000476343
-0.00413651
-0.000804808
-0.00471914
-0.00118689
-0.0050073
-0.00160659
-0.00511599
-0.00205257
-0.00512138
-0.00251755
-0.00507033
-0.00300064
-0.00498778
-0.00487175
-0.00353786
-8.26051e-05
-0.00129741
-0.000295572
-0.00288466
-0.000608882
-0.0038232
-0.000994552
-0.00433347
-0.00142889
-0.00457296
-0.00189379
-0.0046511
-0.00237622
-0.00463894
-0.00286722
-0.00457934
-0.00336062
-0.00449438
-0.00439215
-0.00384021
-0.000106132
-0.00119128
-0.000363935
-0.00262686
-0.000728233
-0.0034589
-0.00116279
-0.00389891
-0.00163997
-0.00409578
-0.00214
-0.00415106
-0.00264944
-0.0041295
-0.0031593
-0.00406948
-0.00366241
-0.00399127
-0.00390536
-0.0041492
-0.000127527
-0.00106375
-0.000425313
-0.00232907
-0.00083431
-0.00304991
-0.00131113
-0.00342209
-0.00182513
-0.00358179
-0.0023558
-0.00362039
-0.00289008
-0.00359522
-0.00341983
-0.00353973
-0.00393948
-0.00347162
-0.00340036
-0.00444448
-0.000146532
-0.000917218
-0.000479282
-0.00199632
-0.000926948
-0.00260224
-0.00144016
-0.00290887
-0.0019861
-0.00303586
-0.0025441
-0.00306239
-0.00310188
-0.00303744
-0.00365245
-0.00298916
-0.00419185
-0.00293221
-0.0028744
-0.00471781
-0.000162903
-0.000754315
-0.000525395
-0.00163383
-0.00100573
-0.00212191
-0.00154968
-0.00236492
-0.00212286
-0.00246267
-0.00270476
-0.00248049
-0.00328393
-0.00245827
-0.00385446
-0.00241862
-0.00441356
-0.00237311
-0.00232784
-0.00496012
-0.000176393
-0.000577922
-0.000563148
-0.00124707
-0.00107
-0.00161506
-0.00163894
-0.00179599
-0.00223448
-0.00186713
-0.00283634
-0.00187862
-0.00343384
-0.00186077
-0.00402192
-0.00183055
-0.00459854
-0.00179649
-0.00176308
-0.0051633
-0.000186762
-0.000391161
-0.000592025
-0.000841811
-0.00111904
-0.00108804
-0.001707
-0.00120803
-0.00231969
-0.00125445
-0.00293705
-0.00126126
-0.00354899
-0.00124883
-0.00415106
-0.00122848
-0.00474172
-0.00120583
-0.0011838
-0.005321
-0.000193803
-0.000197358
-0.000611566
-0.000424048
-0.00115218
-0.000547428
-0.00175297
-0.000607235
-0.00237727
-0.000630148
-0.00300522
-0.000633304
-0.00362711
-0.000626945
-0.00423888
-0.000616716
-0.0048393
-0.000605406
-0.000594471
-0.00542863
-0.000197364
5.9275e-09
-0.000621428
1.67221e-08
-0.00116888
2.37409e-08
-0.00177614
2.43864e-08
-0.00240631
2.15275e-08
-0.00303963
1.73868e-08
-0.00366659
1.31225e-08
-0.00428331
9.23064e-09
-0.00488872
4.98293e-09
-3.65757e-10
-0.00548319
-0.000197364
0.00019737
-0.000621429
0.000424082
-0.00116888
0.000547476
-0.00177614
0.000607284
-0.00240631
0.000630191
-0.00303963
0.000633339
-0.00366659
0.000626971
-0.00428332
0.000616735
-0.00488873
0.000605416
0.00059447
-0.0054832
-0.000193803
0.000391173
-0.000611567
0.000841846
-0.00115218
0.00108809
-0.00175297
0.00120808
-0.00237727
0.00125449
-0.00300523
0.00126129
-0.00362712
0.00124886
-0.00423888
0.0012285
-0.00483931
0.00120584
0.0011838
-0.00542864
-0.000186762
0.000577935
-0.000592027
0.00124711
-0.00111905
0.00161511
-0.00170701
0.00179604
-0.00231969
0.00186718
-0.00293706
0.00187866
-0.003549
0.0018608
-0.00415107
0.00183057
-0.00474173
0.0017965
0.00176308
-0.00532101
-0.000176393
0.000754329
-0.000563151
0.00163387
-0.00107001
0.00212196
-0.00163894
0.00236498
-0.00223449
0.00246272
-0.00283635
0.00248053
-0.00343385
0.0024583
-0.00402193
0.00241864
-0.00459855
0.00237312
0.00232784
-0.00516331
-0.000162904
0.000917233
-0.000525399
0.00199636
-0.00100573
0.0026023
-0.00154968
0.00290893
-0.00212287
0.00303591
-0.00270477
0.00306243
-0.00328394
0.00303747
-0.00385448
0.00298918
-0.00441358
0.00293222
0.0028744
-0.00496014
-0.000146534
0.00106377
-0.000479287
0.00232912
-0.000926957
0.00304996
-0.00144018
0.00342215
-0.00198611
0.00358184
-0.00254412
0.00362043
-0.0031019
0.00359525
-0.00365247
0.00353975
-0.00419187
0.00347163
0.00340036
-0.00471783
-0.000127529
0.0011913
-0.000425318
0.0026269
-0.00083432
0.00345897
-0.00131115
0.00389897
-0.00182514
0.00409584
-0.00235582
0.00415111
-0.00289011
0.00412954
-0.00341986
0.0040695
-0.00393951
0.00399128
0.00390536
-0.00444451
-0.000106134
0.00129743
-0.000363941
0.00288471
-0.000728245
0.00382327
-0.00116281
0.00433354
-0.00163999
0.00457302
-0.00214003
0.00465115
-0.00264947
0.00463898
-0.00315933
0.00457936
-0.00366245
0.0044944
0.00439215
-0.00414924
-8.26073e-05
0.00138004
-0.000295579
0.00309768
-0.000608895
0.00413659
-0.000994572
0.00471922
-0.00142892
0.00500737
-0.00189382
0.00511605
-0.00237626
0.00512142
-0.00286726
0.00507036
-0.00336066
0.00498779
0.00487175
-0.00384026
-5.72868e-05
0.00143732
-0.000220806
0.0032612
-0.000476357
0.00439214
-0.00080483
0.00504769
-0.00118692
0.00538946
-0.00160663
0.00553575
-0.00205261
0.00556741
-0.0025176
0.00553535
-0.00300069
0.00547089
0.00540898
-0.00353792
-3.08053e-05
0.00146813
-0.000140986
0.00337138
-0.000331966
0.00458312
-0.000593235
0.00530896
-0.000908769
0.005705
-0.00126185
0.00588884
-0.00163791
0.00594346
-0.00202656
0.005924
-0.00242389
0.00586822
0.00579744
-0.00281235
-4.23342e-06
0.00147236
-5.91487e-05
0.0034263
-0.000181441
0.00470541
-0.000369864
0.00549738
-0.000613105
0.00594824
-0.000896137
0.00617187
-0.00120467
0.006252
-0.00152787
0.0062472
-0.00185871
0.00619906
0.00613827
-0.00219954
2.11992e-05
0.00145116
2.12032e-05
0.00342629
-3.11634e-05
0.00475778
-0.000144589
0.00561081
-0.000313981
0.00611763
-0.000527771
0.00638566
-0.000773298
0.00649753
-0.0010399
0.0065138
-0.00131914
0.0064783
0.00642307
-0.00160395
4.45408e-05
0.00140662
9.72617e-05
0.00337357
0.000114049
0.00474099
7.62611e-05
0.00564859
-1.79838e-05
0.00621188
-0.000161364
0.00652904
-0.000343175
0.00667934
-0.000552784
0.00672341
-0.000780453
0.00670597
0.00665889
-0.00101627
6.51227e-05
0.0013415
0.00016688
0.00327182
0.000250435
0.00465743
0.000287803
0.00561123
0.000269845
0.00622983
0.000199089
0.0065998
8.38264e-05
0.0067946
-6.57228e-05
0.00687296
-0.000239028
0.00687927
0.00684532
-0.000425453
8.24948e-05
0.00125901
0.000228395
0.00312592
0.00037483
0.004511
0.000485616
0.00550044
0.00054446
0.00617099
0.000548658
0.0065956
0.000503475
0.00683978
0.000418061
0.00695837
0.000303135
0.0069942
0.00697862
0.00016983
9.63849e-05
0.00116262
0.000280547
0.00294175
0.000484541
0.004307
0.000665587
0.00531939
0.000800719
0.00603586
0.000881732
0.00651458
0.000910192
0.00681133
0.000893347
0.00697522
0.000841366
0.00704618
0.0070543
0.000765684
0.000106671
0.00105595
0.000322444
0.00272598
0.000577315
0.00405213
0.000823854
0.00507286
0.00103329
0.00582642
0.0011919
0.00635598
0.00129694
0.00670628
0.00135289
0.00691926
0.00136855
0.00703052
0.00706768
0.00135518
0.000113367
0.000942583
0.000353557
0.00248579
0.000651379
0.00375431
0.000956899
0.00476734
0.00123678
0.00554654
0.0014721
0.00612066
0.00165543
0.00652295
0.00178769
0.00678701
0.00187542
0.00694279
0.00701412
0.00192899
0.000116609
0.000825973
0.000373744
0.00222866
0.000705551
0.0034225
0.0010618
0.00441109
0.00140614
0.00520221
0.00171516
0.00581164
0.00197669
0.00626142
0.00218749
0.00657621
0.00235099
0.00677928
0.00688931
0.0024758
0.000116651
0.000709323
0.000383261
0.00196205
0.000739369
0.0030664
0.00113654
0.00401392
0.00153714
0.0048016
0.0019144
0.00543437
0.00225176
0.00592406
0.00254151
0.00628645
0.00278326
0.00653753
0.00668971
0.00298286
0.000113881
0.000595441
0.000382838
0.00169309
0.000753279
0.00269596
0.00118037
0.00358683
0.00162703
0.00435494
0.00206454
0.00499687
0.00247272
0.00551589
0.00283952
0.00591965
0.00316021
0.00621684
0.00641301
0.00343691
0.000108757
0.000486684
0.000373546
0.0014283
0.000748524
0.00232098
0.00119388
0.00314147
0.00167479
0.00387402
0.0021622
0.00450947
0.00263349
0.00504459
0.00307282
0.00548032
0.00347093
0.00581873
0.0060586
0.00382535
0.000101799
0.000384885
0.000356763
0.00117334
0.000727114
0.00195063
0.00117902
0.00268956
0.00168141
0.00337163
0.00220652
0.00398436
0.00273079
0.00452032
0.0032355
0.00497561
0.0037071
0.00534713
0.00562782
0.00413788
9.35267e-05
0.000291358
0.000333979
0.000932885
0.000691499
0.00159311
0.00113876
0.0022423
0.00164957
0.00286082
0.00219905
0.00343488
0.00276431
0.00395506
0.00332507
0.00441485
0.00386408
0.00480811
0.00512397
0.00436793
8.43686e-05
0.00020699
0.000306531
0.000710723
0.000644069
0.00125557
0.0010763
0.00181007
0.00158272
0.0023544
0.00214274
0.00287485
0.00273589
0.00336192
0.00334195
0.00380879
0.00394091
0.00420915
0.00455157
0.0045133
7.45765e-05
0.000132413
0.000275318
0.000509981
0.000586553
0.000944333
0.000994039
0.00140259
0.00148343
0.00186501
0.00203967
0.00231861
0.00264663
0.00275496
0.00328637
0.00316905
0.00393765
0.00355787
0.00391478
0.00457445
6.41762e-05
6.82369e-05
0.000240639
0.000333518
0.000519594
0.000665378
0.000892632
0.00102955
0.00135155
0.00140609
0.00188777
0.00178239
0.00249167
0.00215107
0.00315113
0.00250958
0.0038475
0.00286151
0.00321499
0.00454728
5.30408e-05
1.51962e-05
0.000202396
0.000184163
0.000443012
0.000424762
0.000771063
0.0007015
0.0011835
0.000993658
0.00167803
0.00128786
0.00225315
0.00157595
0.00290756
0.00185517
0.00363544
0.00213362
0.00244833
0.00440211
4.1158e-05
-2.59618e-05
0.000160886
6.44353e-05
0.000357389
0.000228259
0.000629202
0.000429686
0.000975464
0.000647396
0.00139657
0.000866746
0.00189542
0.00107711
0.00248062
0.00126997
0.00317442
0.00143982
0.00158995
0.0040328
2.90359e-05
-5.49977e-05
0.000118119
-2.46482e-05
0.000267359
7.90187e-05
0.00047527
0.000221775
0.000738972
0.000383694
0.0010539
0.000551821
0.00141313
0.000717871
0.00180572
0.000877384
0.00221567
0.00102987
0.00118542
0.0026202
1.77319e-05
-7.27296e-05
7.80193e-05
-8.49356e-05
0.000182816
-2.57781e-05
0.000331196
7.33959e-05
0.000520192
0.000194698
0.000744999
0.000327013
0.000999263
0.000463608
0.00127601
0.000600634
0.00157121
0.00073467
0.000858396
0.00189824
8.04647e-06
-8.0776e-05
4.34017e-05
-0.000120291
0.000110134
-9.25105e-05
0.000208863
-2.53328e-05
0.000338308
6.52527e-05
0.000496079
0.000169242
0.000679493
0.000280194
0.000886711
0.000393416
0.001118
0.000503382
0.000599937
0.00137646
2.44194e-07
-8.10202e-05
1.51858e-05
-0.000135232
5.09834e-05
-0.000128308
0.000110101
-8.44502e-05
0.000193219
-1.78653e-05
0.000300227
6.22335e-05
0.000431006
0.000149415
0.000586033
0.000238389
0.000766274
0.000323142
0.000395527
0.000970683
-5.77558e-06
-7.52446e-05
-6.9123e-06
-0.000134096
4.54673e-06
-0.000139767
3.2737e-05
-0.00011264
7.99361e-05
-6.50645e-05
0.000147534
-5.36427e-06
0.000236613
6.03364e-05
0.000348152
0.00012685
0.000482514
0.000188779
0.000240176
0.000637866
-1.02837e-05
-6.49609e-05
-2.3731e-05
-0.000120648
-3.1005e-05
-0.000132493
-2.66879e-05
-0.000116958
-7.42784e-06
-8.43245e-05
2.8944e-05
-4.17361e-05
8.38573e-05
5.42314e-06
0.00015807
5.26369e-05
0.000251269
9.55807e-05
0.000130069
0.000361375
-1.35766e-05
-5.13843e-05
-3.6195e-05
-9.803e-05
-5.75612e-05
-0.000111127
-7.13927e-05
-0.000103126
-7.37206e-05
-8.19966e-05
-6.20739e-05
-5.33828e-05
-3.50747e-05
-2.15761e-05
7.6637e-06
9.89852e-06
6.53647e-05
3.78797e-05
5.95695e-05
0.000135864
-1.58895e-05
-3.54948e-05
-4.50418e-05
-6.88776e-05
-7.6558e-05
-7.96108e-05
-0.000103634
-7.60497e-05
-0.000121997
-6.3634e-05
-0.000129119
-4.62613e-05
-0.000123797
-2.68975e-05
-0.000105967
-7.93203e-06
-7.66773e-05
8.5904e-06
2.09619e-05
-3.80698e-05
-1.73711e-05
-1.81237e-05
-5.07434e-05
-3.55053e-05
-8.88754e-05
-4.14787e-05
-0.000124685
-4.02397e-05
-0.000153772
-3.45479e-05
-0.00017364
-2.63925e-05
-0.000183253
-1.72849e-05
-0.000182758
-8.42727e-06
-0.000173349
-8.18471e-07
4.73063e-06
-0.000157118
-1.8098e-05
-5.35473e-05
-9.49544e-05
-0.00013512
-0.000169602
-0.000195941
-0.00021319
-0.000221602
-0.000222431
-0.000217737
0.000314429
-0.000526444
-5.74935e-06
0.00161374
-0.00128968
-9.63391e-06
0.00300805
-0.00139348
-8.31321e-07
0.00404468
-0.00104488
8.26039e-06
0.00492388
-0.000892388
1.31884e-05
0.00557965
-0.000668809
1.30301e-05
0.00607783
-0.000506711
8.53353e-06
0.00641069
-0.000336849
3.99312e-06
0.00665726
-0.000247356
7.86017e-07
-9.50704e-05
-1.56644e-06
0.000430923
-0.00111456
0.00169833
-0.00255708
0.00306165
-0.0027568
0.00407635
-0.00205959
0.00493968
-0.00175571
0.00558585
-0.00131499
0.00607879
-0.000999651
0.00641009
-0.000668145
0.00665729
-0.000494553
-0.000194649
0.000655531
-0.00180829
0.00186064
-0.0037622
0.00316373
-0.00405989
0.0041363
-0.00303215
0.00496915
-0.00258856
0.005597
-0.00194284
0.00608002
-0.00148267
0.00640851
-0.00099663
0.00665714
-0.00074319
-0.000300183
0.0009723
-0.00264488
0.00208807
-0.00487797
0.0033053
-0.00527712
0.0042187
-0.00394555
0.00500887
-0.00337874
0.00561124
-0.0025452
0.00608062
-0.00195204
0.00640556
-0.00132157
0.0066567
-0.000994329
-0.000414729
0.001359
-0.0036427
0.00236319
-0.00588215
0.00347385
-0.00638778
0.00431539
-0.0047871
0.0050539
-0.00411724
0.00562575
-0.00311706
0.00607909
-0.00240538
0.0064005
-0.00164299
0.00665559
-0.00124942
-0.000541456
0.00178892
-0.00479396
0.00266535
-0.00675858
0.00365467
-0.0073771
0.00441677
-0.0055492
0.00509842
-0.0047989
0.00563725
-0.00365589
0.00607374
-0.00284187
0.0063925
-0.00196174
0.00665345
-0.00151037
-0.000683639
0.00223171
-0.0060552
0.00297171
-0.00749859
0.00383188
-0.00823728
0.00451249
-0.0062298
0.00513617
-0.00542258
0.00564216
-0.00416187
0.00606268
-0.0032624
0.00638061
-0.00227967
0.00664982
-0.00177958
-0.000844668
0.00265545
-0.0073344
0.00325813
-0.00810127
0.00398933
-0.00896848
0.00459214
-0.00683262
0.00516086
-0.00599129
0.00563687
-0.00463789
0.00604401
-0.00366954
0.00636388
-0.00259954
0.00664424
-0.00205994
-0.00102804
0.00304241
-0.00847876
0.00350574
-0.00856459
0.00411364
-0.00957638
0.00464653
-0.00736551
0.00516681
-0.00651156
0.00561804
-0.00508912
0.00601593
-0.00406743
0.00634138
-0.00292499
0.00663625
-0.00235481
-0.00123732
0.00339769
-0.0092564
0.00371439
-0.00888128
0.00419522
-0.0100572
0.00466984
-0.00784013
0.00514916
-0.00699089
0.00558278
-0.00552274
0.00597667
-0.00446131
0.00631241
-0.00326073
0.00662516
-0.00266756
-0.00147652
0.0441417
-0.00235864
-0.0510395
0.0406778
-0.00541736
0.0391665
-0.0085459
0.0394714
-0.00814511
0.0397112
-0.00723062
0.0401661
-0.00597764
0.0406697
-0.00496497
0.0411857
-0.00377674
0.0416924
-0.00317424
-0.00187456
0.0524469
0.00189572
-0.0567012
0.0504858
-0.00345625
0.0481482
-0.00620831
0.0465614
-0.00655839
0.0452062
-0.00587539
0.0441604
-0.00493183
0.0434263
-0.00423085
0.0429943
-0.0033448
0.0427718
-0.00295168
-0.00187081
0.0536289
0.00333609
-0.0550692
0.0521295
-0.00195688
0.0503886
-0.00446741
0.048735
-0.00490484
0.0472062
-0.00434655
0.0458702
-0.00359578
0.0447802
-0.00314086
0.0439959
-0.00256056
0.0434376
-0.00239332
-0.00164119
0.0516906
0.00343379
-0.0517883
0.0509063
-0.00117256
0.0497292
-0.00329036
0.0484301
-0.00360569
0.0471779
-0.00309438
0.046048
-0.00246585
0.0450703
-0.00216322
0.0443149
-0.00180517
0.0437161
-0.00179444
-0.00133775
0.0496488
0.00296327
-0.0491782
0.0491487
-0.000672535
0.0483138
-0.0024554
0.0473583
-0.00265021
0.0464338
-0.00216987
0.0456058
-0.00163789
0.0448707
-0.00142816
0.0442784
-0.00121287
0.0437681
-0.00128412
-0.00104056
0.0479826
0.00233912
-0.0473585
0.0476822
-0.000372089
0.04703
-0.00180323
0.0463048
-0.00192501
0.0456341
-0.00149919
0.0450595
-0.00106322
0.0445472
-0.0009159
0.0441226
-0.000788265
0.0437258
-0.000887302
-0.000777262
0.0468009
0.0017027
-0.0461645
0.0466145
-0.000185708
0.0460759
-0.00126461
0.0454959
-0.001345
0.0449986
-0.00100191
0.0446038
-0.000668437
0.0442556
-0.000567676
0.0439608
-0.000493442
0.0436603
-0.000586877
-0.000549876
0.0460051
0.00110308
-0.0454055
0.0459027
-8.33492e-05
0.0454402
-0.000802136
0.0449477
-0.00085245
0.0445597
-0.000613943
0.0442812
-0.000389914
0.0440405
-0.000326963
0.0438332
-0.000286119
0.0436018
-0.000355485
-0.000351086
0.0455205
0.000540696
-0.0449581
0.0454712
-3.4026e-05
0.0450588
-0.000389763
0.0446162
-0.000409858
0.0442916
-0.000289343
0.0440816
-0.000179834
0.043904
-0.000149451
0.043749
-0.000131043
0.0435605
-0.000167032
-0.000171377
0.045291
-0.0447504
0.045257
0.0448673
0.0444574
0.0441681
0.0439882
0.0438388
0.0437077
0.0435407
0.0569042
0.00225396
-0.0561753
0.0574795
0.0028617
0.0578531
0.00345172
0.0579758
0.00401518
0.0578006
0.00454308
0.0572871
0.00502677
0.0564028
0.0054587
0.0551173
0.0058328
0.0533748
0.00614447
0.00636807
0.0514145
0.00164571
-0.0508062
0.0520688
0.00220739
0.0527556
0.00276486
0.0534576
0.00331317
0.054154
0.00384675
0.0548212
0.00435954
0.0554346
0.00484525
0.0559698
0.00529768
0.056403
0.00571128
0.00606979
0.0480601
0.00117594
-0.0475903
0.0486107
0.00165677
0.0492392
0.00213641
0.0499403
0.00261202
0.0507065
0.00308053
0.0515275
0.00353855
0.0523904
0.00398236
0.0532802
0.0044079
0.0541807
0.00481075
0.0051813
0.045438
0.000855916
-0.045118
0.0458377
0.00125708
0.0463177
0.00165641
0.046878
0.00205171
0.0475178
0.00244073
0.0482352
0.00282117
0.0490269
0.0031907
0.0498879
0.00354685
0.0508118
0.0038869
0.00420477
0.0438404
0.000622742
-0.0436072
0.0441471
0.000950342
0.0445276
0.00127598
0.0449815
0.0015978
0.0455083
0.00191395
0.0461068
0.00222258
0.0467757
0.00252186
0.0475126
0.00280992
0.0483148
0.0030847
0.00334134
0.0427404
0.00044698
-0.0425647
0.0429857
0.000705096
0.0433003
0.000961367
0.0436838
0.00121428
0.0441354
0.00146234
0.044654
0.00170406
0.0452378
0.00193798
0.0458851
0.00216266
0.0465933
0.00237649
0.00257616
0.0420462
0.000308254
-0.0419075
0.0422514
0.000499925
0.0425226
0.000690119
0.0428592
0.000877685
0.0432601
0.00106148
0.0437238
0.00124039
0.0442485
0.00141329
0.044832
0.00157909
0.0454719
0.00173661
0.00188362
0.0415947
0.000193345
-0.0414798
0.0417744
0.000320299
0.0420182
0.00044625
0.0423255
0.000570422
0.0426949
0.000692051
0.0431249
0.000810378
0.0436136
0.000924658
0.0441585
0.00103416
0.044757
0.0011381
0.00123517
0.041331
9.29363e-05
-0.0412305
0.041495
0.000156214
0.0417223
0.000219005
0.0420118
0.000280918
0.0423623
0.000341569
0.0427721
0.000400573
0.0432392
0.000457555
0.0437612
0.000512144
0.0443353
0.000563952
0.000612364
0.0412061
-0.0411131
0.0413623
0.0415813
0.0418622
0.0422038
0.0426043
0.0430619
0.043574
0.044138
0.0481668
-0.00337179
-0.0476073
0.0488831
-0.00291583
0.049709
-0.00242979
0.0506047
-0.0019119
0.0515426
-0.0013633
0.0525044
-0.000791863
0.0534721
-0.000201994
0.0544247
0.000402675
0.0553362
0.00101748
0.00163677
0.0480102
-0.00342511
-0.0479569
0.0481065
-0.00301204
0.0482451
-0.00256848
0.0484322
-0.00209896
0.0486737
-0.00160477
0.0489738
-0.00109197
0.049336
-0.000564254
0.0497627
-2.39382e-05
0.0502536
0.000526515
0.00108418
0.0469003
-0.00316448
-0.0471609
0.0466946
-0.00280636
0.0465492
-0.00242305
0.0464693
-0.00201908
0.0464612
-0.00159662
0.0465283
-0.00115908
0.0466729
-0.000708938
0.0468972
-0.000248208
0.0472027
0.000221035
0.000696542
0.0455692
-0.00278636
-0.0459473
0.0452485
-0.00248568
0.0449888
-0.00216336
0.0447937
-0.00182391
0.0446663
-0.00146925
0.044609
-0.00110182
0.0446238
-0.000723683
0.0447124
-0.000336795
0.0448766
5.6836e-05
0.000455121
0.0446394
-0.00236238
-0.0450634
0.0442689
-0.00211513
0.0439563
-0.00185078
0.0437048
-0.00157244
0.0435173
-0.00128172
0.043396
-0.000980491
0.0433428
-0.00067048
0.0433594
-0.000353385
0.0434471
-3.09485e-05
0.000295037
0.0439645
-0.00191071
-0.0444161
0.0435644
-0.00171509
0.0432199
-0.00150622
0.0429338
-0.00128635
0.0427088
-0.00105673
0.0425471
-0.000818757
0.0424504
-0.000573835
0.0424204
-0.000323352
0.0424582
-6.87392e-05
0.000188537
0.0435319
-0.00144387
-0.0439987
0.0431151
-0.00129836
0.0427521
-0.00114319
0.0424456
-0.000979838
0.0421981
-0.000809231
0.0420117
-0.000632389
0.0418882
-0.000450349
0.041829
-0.000264167
0.0418352
-7.49272e-05
0.000116258
0.043252
-0.000966842
-0.0437291
0.0428242
-0.000870519
0.0424489
-0.000767843
0.0421288
-0.000659736
0.0418663
-0.000546807
0.0416637
-0.000429722
0.0415225
-0.000309167
0.0414442
-0.000185848
0.0414297
-6.04902e-05
6.6161e-05
0.0430908
-0.000484281
-0.0435734
0.0426567
-0.000436427
0.0422743
-0.000385421
0.0419463
-0.000331696
0.041675
-0.000275556
0.0414626
-0.000217324
0.0413108
-0.000157339
0.0412209
-9.5954e-05
0.0411939
-3.35297e-05
2.95607e-05
0.0430168
-0.0435011
0.0425804
0.042195
0.0418633
0.0415877
0.0413704
0.041213
0.0411171
0.0410836
0.0429479
0.000173608
-0.00019254
0.042993
0.000518194
-0.000563294
0.0430694
0.000867435
-0.000943854
0.0431948
0.00122944
-0.00135484
0.0433993
0.00160955
-0.0018141
0.0437268
0.00201197
-0.00233941
0.0442362
0.00243874
-0.00294815
0.0449997
0.00289229
-0.00365586
0.0461122
0.00334831
-0.00446081
0.00389704
-0.00539207
0.0429659
0.000136646
0.0430738
0.000410294
0.043256
0.000685202
0.043523
0.000962465
0.0438897
0.00124287
0.0443751
0.00152661
0.0450011
0.00181269
0.0457922
0.00210117
0.0467642
0.00237636
0.0027043
0.0429666
9.89948e-05
0.043078
0.000298828
0.0432632
0.000500095
0.0435259
0.000699716
0.043872
0.000896767
0.0443087
0.00108992
0.0448443
0.00127704
0.0454891
0.00145638
0.0462476
0.00161794
0.00179094
0.0429586
6.93551e-05
0.0430473
0.000210078
0.0431954
0.000352055
0.0434034
0.000491651
0.0436725
0.000627644
0.0440038
0.000758714
0.0443975
0.000883263
0.0448539
0.00100006
0.0453677
0.00110409
0.00121132
0.0429505
4.78341e-05
0.0430155
0.000145037
0.0431245
0.000243073
0.0432771
0.000339022
0.0434729
0.000431812
0.0437113
0.000520376
0.043991
0.000603557
0.0443106
0.000680401
0.0446666
0.000748127
0.000814504
0.0429443
3.24309e-05
0.042991
9.83412e-05
0.0430693
0.000164775
0.0431787
0.000229664
0.0433183
0.000292226
0.0434869
0.000351713
0.0436831
0.000407372
0.0439049
0.000458597
0.0441491
0.000503923
0.000547488
0.0429401
2.12476e-05
0.042974
6.4419e-05
0.0430309
0.000107908
0.0431102
0.000150346
0.0432112
0.000191209
0.043333
0.00023
0.0434741
0.000266237
0.0436332
0.000299521
0.0438081
0.000329033
0.000356843
0.0429374
1.28262e-05
0.0429629
3.88738e-05
0.0430057
6.5097e-05
0.0430654
9.06821e-05
0.0431413
0.000115314
0.0432326
0.000138699
0.0433382
0.000160556
0.0434571
0.000180656
0.0435876
0.00019857
0.000215344
0.0429357
6.03499e-06
0.0429563
1.82912e-05
0.0429908
3.06189e-05
0.0430388
4.26457e-05
0.0430999
5.42251e-05
0.0431734
6.52198e-05