1.45 	0 	0 	-0.299975
2.35 	0 	0 	-0.13334
