/*--------------------------------*- C++ -*----------------------------------*\
  =========                 |
  \\      /  F ield         | OpenFOAM: The Open Source CFD Toolbox
   \\    /   O peration     | Website:  https://openfoam.org
    \\  /    A nd           | Version:  6.0
     \\/     M anipulation  |
\*---------------------------------------------------------------------------*/
FoamFile
{
    version     2.0;
    format      ascii;
    class       volVectorField;
    location    "20";
    object      U;
}
// * * * * * * * * * * * * * * * * * * * * * * * * * * * * * * * * * * * * * //

dimensions      [0 1 -1 0 0 0 0];

internalField   nonuniform List<vector> 
8000
(
(-0.000398548 0.000443477 -1.36765e-21)
(-0.00209848 0.00106846 7.96996e-21)
(-0.00514616 0.00147651 -9.94203e-21)
(-0.00877584 0.00171906 7.72986e-21)
(-0.012591 0.00183346 3.83716e-21)
(-0.0163654 0.00184872 -1.17082e-20)
(-0.0199365 0.0017885 -1.04586e-21)
(-0.0231965 0.00167215 -3.66541e-22)
(-0.0260815 0.00151554 -6.27957e-21)
(-0.0285596 0.00133196 -3.41979e-21)
(-0.0306227 0.0011326 2.60041e-21)
(-0.0322801 0.000927009 9.85439e-21)
(-0.0335544 0.00072339 -7.80942e-22)
(-0.0344776 0.000528758 1.03894e-21)
(-0.0350888 0.000349083 -1.00584e-20)
(-0.0354322 0.00018934 6.21775e-21)
(-0.0355552 5.35378e-05 -8.89e-21)
(-0.0354985 -5.51002e-05 1.35217e-20)
(-0.0352935 -0.000133827 -1.54919e-23)
(-0.0350455 -0.000181866 3.37337e-21)
(-0.000466101 0.00132435 4.53819e-21)
(-0.00225099 0.00318893 -2.53364e-20)
(-0.00533398 0.00440487 -1.7972e-20)
(-0.0089609 0.00512619 -1.24683e-20)
(-0.012743 0.00546459 -1.63338e-20)
(-0.0164599 0.00550683 3.6381e-21)
(-0.0199537 0.00532361 -1.93836e-20)
(-0.0231203 0.00497263 -4.37441e-21)
(-0.0258989 0.00450133 1.46068e-21)
(-0.0282597 0.00394932 1.4945e-20)
(-0.0301963 0.00335004 -1.63882e-20)
(-0.0317193 0.00273207 2.29506e-20)
(-0.0328524 0.00211993 -1.72674e-20)
(-0.0336288 0.00153469 -2.05251e-20)
(-0.0340882 0.00099432 -2.82728e-20)
(-0.0342761 0.000513824 1.83134e-20)
(-0.0342406 0.00010533 -5.8078e-21)
(-0.0340235 -0.000221349 -2.1367e-20)
(-0.0336561 -0.000457793 2.03245e-20)
(-0.0332475 -0.00060175 -1.75066e-20)
(-0.000599823 0.00218852 4.43762e-20)
(-0.00255188 0.00526416 2.52874e-20)
(-0.00570283 0.00726574 2.90772e-20)
(-0.00932178 0.00844881 2.48546e-21)
(-0.0130356 0.00899864 1.67029e-20)
(-0.0166356 0.00905887 2.10571e-20)
(-0.0199735 0.00874635 -3.90465e-20)
(-0.0229526 0.00815631 -2.08104e-20)
(-0.0255177 0.00736703 -2.7376e-20)
(-0.0276436 0.00644384 2.94802e-20)
(-0.0293272 0.00544199 -2.26934e-20)
(-0.0305817 0.00440877 -2.93426e-20)
(-0.031433 0.00338492 -1.078e-20)
(-0.0319161 0.00240559 1.02799e-20)
(-0.0320727 0.0015009 -2.71883e-21)
(-0.0319501 0.000696177 4.23131e-21)
(-0.0315986 1.19791e-05 4.77186e-20)
(-0.0310613 -0.000534851 -6.94721e-21)
(-0.03037 -0.000929661 -4.86665e-20)
(-0.0296415 -0.00116896 7.43823e-20)
(-0.000796934 0.0030249 1.5625e-20)
(-0.00299283 0.00726418 -2.38496e-20)
(-0.00623899 0.0100146 -6.22004e-21)
(-0.00983986 0.0116315 1.18567e-20)
(-0.013446 0.0123724 3.40843e-20)
(-0.0168662 0.0124363 7.56856e-20)
(-0.0199666 0.0119847 7.4925e-20)
(-0.0226619 0.011149 6.29304e-21)
(-0.0249054 0.0100371 4.68745e-20)
(-0.0266782 0.00873891 7.23411e-20)
(-0.0279822 0.00733074 -5.7951e-20)
(-0.0288346 0.00587807 8.67967e-20)
(-0.0292642 0.00443763 -1.94825e-20)
(-0.0293089 0.0030587 5.14348e-21)
(-0.0290129 0.00178382 2.05416e-20)
(-0.0284264 0.000649065 2.7258e-20)
(-0.0276027 -0.000315972 -4.35812e-20)
(-0.0265871 -0.00108665 -3.62685e-20)
(-0.025412 -0.00164112 -6.40134e-20)
(-0.0242068 -0.00197507 1.08282e-19)
(-0.00105319 0.00382243 -8.07716e-21)
(-0.00356111 0.00915923 -9.13813e-20)
(-0.00692149 0.0126075 -2.77597e-20)
(-0.0104866 0.0146202 -6.89069e-20)
(-0.0139389 0.0155248 2.66195e-20)
(-0.017111 0.0155738 -4.23723e-20)
(-0.0198883 0.0149711 1.4922e-20)
(-0.0222003 0.0138822 -9.18714e-20)
(-0.0240118 0.0124427 4.90971e-20)
(-0.0253124 0.0107658 -5.88607e-20)
(-0.0261104 0.00894758 -5.26132e-20)
(-0.0264277 0.00707088 -5.92157e-20)
(-0.0262972 0.00520805 5.3939e-20)
(-0.0257599 0.00342247 -4.86065e-20)
(-0.0248636 0.00176951 6.80108e-20)
(-0.0236619 0.000296639 1.95465e-20)
(-0.0222123 -0.000956652 4.84496e-20)
(-0.0205625 -0.00195675 2.10928e-20)
(-0.0187466 -0.00267315 -8.46103e-20)
(-0.0169115 -0.00310133 1.59513e-19)
(-0.00136279 0.00457005 3.63064e-20)
(-0.00423929 0.0109197 2.75708e-21)
(-0.00772158 0.0150014 1.67681e-20)
(-0.0112229 0.0173626 5.94932e-20)
(-0.0144663 0.0183978 -8.99501e-21)
(-0.0173143 0.0184103 9.98261e-20)
(-0.0196767 0.0176437 4.49854e-20)
(-0.0215016 0.0162948 3.91371e-21)
(-0.0227679 0.0145245 1.1748e-19)
(-0.0234758 0.0124671 3.86069e-20)
(-0.023641 0.0102366 1.85057e-20)
(-0.0232914 0.00793237 5.90378e-20)
(-0.0224641 0.00564156 5.42589e-20)
(-0.021204 0.00344161 9.90972e-20)
(-0.0195625 0.00140113 -8.92547e-20)
(-0.0175975 -0.000420116 1.2553e-19)
(-0.0153712 -0.00197154 9.85996e-22)
(-0.0129349 -0.00320887 -1.61126e-19)
(-0.0103247 -0.00409093 2.08949e-19)
(-0.00771143 -0.00461383 9.98403e-20)
(-0.00171821 0.00525658 -2.12658e-20)
(-0.00500482 0.0125162 -4.29302e-20)
(-0.00860204 0.0171542 -9.11679e-20)
(-0.0119981 0.0198084 -2.80326e-21)
(-0.0149658 0.0209371 1.63286e-20)
(-0.0174041 0.0208905 -1.22158e-19)
(-0.0192519 0.0199485 -9.1655e-20)
(-0.02048 0.0183357 -1.33317e-20)
(-0.0210841 0.0162352 -1.18058e-19)
(-0.0210767 0.0137995 -8.21689e-20)
(-0.0204822 0.0111587 -2.41217e-20)
(-0.0193347 0.00842649 -7.8094e-20)
(-0.0176762 0.00570408 -1.50212e-21)
(-0.0155555 0.00308265 -1.04427e-19)
(-0.0130278 0.000644497 4.36227e-20)
(-0.0101555 -0.00153727 -5.03015e-20)
(-0.00700626 -0.00339933 3.80569e-20)
(-0.00363544 -0.00488444 -4.9597e-20)
(-8.20004e-05 -0.00593799 -1.40047e-19)
(0.00345104 -0.00655782 -4.93074e-20)
(-0.00210999 0.00587064 -8.35701e-21)
(-0.00582945 0.0139192 -9.89123e-21)
(-0.00951648 0.0190247 7.67808e-20)
(-0.0127494 0.0219099 -1.27851e-19)
(-0.01536 0.0230922 1.89991e-20)
(-0.0172905 0.0229651 -7.63383e-20)
(-0.0185141 0.0218399 3.61608e-20)
(-0.0190282 0.0199651 1.64541e-19)
(-0.0188478 0.017542 -1.10591e-20)
(-0.0179994 0.0147377 -1.24635e-19)
(-0.0165174 0.0116953 2.27111e-20)
(-0.0144425 0.00854077 4.6616e-21)
(-0.0118214 0.00538765 -2.54466e-20)
(-0.00870634 0.00234025 3.24586e-21)
(-0.00515621 -0.000505141 2.27979e-19)
(-0.00123798 -0.00306083 -3.29662e-20)
(0.00297483 -0.0052487 -6.34703e-20)
(0.00742264 -0.00699543 -1.13222e-19)
(0.0120621 -0.00822928 1.16375e-19)
(0.0166489 -0.008951 5.80578e-20)
(-0.00252645 0.00640049 4.05146e-20)
(-0.00667865 0.0150993 -5.83622e-20)
(-0.0104084 0.0205726 8.43708e-20)
(-0.0134002 0.0236216 8.69654e-20)
(-0.015555 0.0248177 8.12649e-20)
(-0.0168647 0.0245919 1.66385e-19)
(-0.0173423 0.0232824 1.08555e-19)
(-0.0170153 0.0211563 -2.35646e-19)
(-0.0159212 0.0184284 1.21463e-19)
(-0.0141021 0.0152764 9.56842e-20)
(-0.0116033 0.0118523 -1.72747e-21)
(-0.00847239 0.00829109 1.07925e-19)
(-0.00476027 0.00471629 8.37329e-20)
(-0.00052221 0.00124408 -4.63987e-20)
(0.00418028 -0.00201531 1.54999e-19)
(0.00927617 -0.00495835 -1.93376e-19)
(0.0146861 -0.00748966 7.71382e-20)
(0.0203462 -0.00951571 9.89833e-20)
(0.0262073 -0.0109426 -2.29626e-20)
(0.0319724 -0.0117753 2.31106e-19)
(-0.00295337 0.00683394 8.32745e-20)
(-0.0075109 0.0160266 5.05313e-21)
(-0.0112105 0.0217587 -3.30531e-20)
(-0.0138601 0.0249013 -3.53482e-20)
(-0.0154395 0.0260726 -1.67478e-19)
(-0.0159976 0.025736 2.47318e-20)
(-0.0155921 0.0242505 6.85923e-20)
(-0.014285 0.0218962 -3.3844e-20)
(-0.0121387 0.0188962 2.80041e-20)
(-0.00921325 0.0154331 -7.50779e-21)
(-0.00556561 0.0116633 -3.66699e-20)
(-0.00125051 0.00772624 3.52605e-20)
(0.00367748 0.00375206 -1.5076e-19)
(0.00916144 -0.000133638 1.46155e-19)
(0.0151386 -0.00380745 -1.25735e-19)
(0.0215351 -0.0071491 3.93257e-20)
(0.0282667 -0.0100431 8.82639e-20)
(0.0352653 -0.0123704 -1.8882e-20)
(0.0424748 -0.0140084 -6.12488e-20)
(0.049532 -0.0149668 -4.83492e-20)
(-0.00337362 0.00715831 -1.05413e-19)
(-0.00827711 0.0166714 -7.59231e-21)
(-0.0118441 0.0225451 2.47231e-20)
(-0.0140235 0.0257092 6.42693e-20)
(-0.0148846 0.026821 -9.21099e-20)
(-0.0145394 0.0263697 -8.11221e-20)
(-0.0130959 0.0247288 1.90505e-19)
(-0.0106543 0.0221855 -1.07198e-19)
(-0.00730536 0.0189647 -6.93074e-20)
(-0.0031292 0.0152485 -9.94768e-20)
(0.00180417 0.0111913 6.61586e-20)
(0.00743258 0.00693154 -2.40667e-21)
(0.0136984 0.00260062 -1.24742e-19)
(0.0205447 -0.00167036 -2.02388e-19)
(0.0279097 -0.00574707 1.55189e-19)
(0.035719 -0.0094924 -1.2457e-19)
(0.0438851 -0.0127679 1.77345e-19)
(0.0523372 -0.0154228 -5.02716e-20)
(0.0610111 -0.0172962 1.02549e-19)
(0.0694616 -0.0184029 -4.11175e-19)
(-0.00376685 0.00736057 -2.18465e-19)
(-0.00892013 0.0170043 1.55707e-19)
(-0.0122186 0.0228957 2.11802e-20)
(-0.0137705 0.026009 4.35048e-21)
(-0.0137437 0.0270318 -9.95956e-20)
(-0.0123198 0.026472 1.48463e-19)
(-0.00966195 0.024711 1.56614e-20)
(-0.00591293 0.0220367 -3.06729e-20)
(-0.00119521 0.01867 -9.96661e-20)
(0.00438837 0.0147856 1.0829e-19)
(0.0107527 0.0105291 2.74173e-19)
(0.0178272 0.00603048 -6.12287e-20)
(0.0255515 0.0014154 1.37563e-19)
(0.0338704 -0.00318601 -1.61748e-19)
(0.0427259 -0.00763321 -1.54438e-19)
(0.0520469 -0.0117742 9.37503e-20)
(0.0617457 -0.0154457 1.52473e-19)
(0.071752 -0.0184575 -4.96127e-19)
(0.0819937 -0.0205983 5.95967e-20)
(0.0919252 -0.0218854 9.25296e-20)
(-0.00410928 0.00742767 1.63179e-19)
(-0.00937479 0.0169972 6.10928e-20)
(-0.0122327 0.0227767 3.10127e-19)
(-0.0129674 0.0257681 1.62494e-20)
(-0.0118542 0.0266786 -3.48349e-20)
(-0.00914972 0.0260273 -1.68532e-19)
(-0.00507686 0.0241975 1.45751e-19)
(0.000175163 0.0214717 2.62924e-19)
(0.00644836 0.0180606 1.74406e-19)
(0.0136136 0.0141252 1.27098e-19)
(0.0215677 0.00979493 1.09593e-19)
(0.0302296 0.00518264 -1.96933e-19)
(0.0395355 0.000398571 -6.07234e-20)
(0.0494329 -0.00443783 -4.51768e-20)
(0.0598712 -0.00918841 4.84146e-19)
(0.0707872 -0.0136921 -3.25422e-21)
(0.0820991 -0.0177613 -1.19664e-19)
(0.0937424 -0.0211592 -3.53705e-20)
(0.105641 -0.0236071 3.43708e-19)
(0.117126 -0.0251187 5.30841e-20)
(-0.00437367 0.00734712 -6.36668e-21)
(-0.00956829 0.0166241 -1.6895e-19)
(-0.0117748 0.0221584 -2.55622e-19)
(-0.011469 0.0249583 -7.21992e-20)
(-0.00904055 0.0257392 4.12421e-20)
(-0.00482516 0.0250243 9.28503e-21)
(0.000890988 0.0231924 2.34249e-19)
(0.00786844 0.0205158 -2.93057e-19)
(0.0159098 0.0171904 -1.12342e-19)
(0.0248554 0.0133578 -2.25708e-19)
(0.0345796 0.00912385 -1.9184e-19)
(0.0449869 0.00457539 -1.6992e-19)
(0.0560073 -0.000204456 4.29065e-20)
(0.0675907 -0.00512061 -5.53425e-20)
(0.0796963 -0.0100516 2.3468e-19)
(0.0922748 -0.0148397 -1.30456e-19)
(0.105259 -0.0192802 -4.01033e-19)
(0.1186 -0.0230843 -7.78896e-20)
(0.132226 -0.0258849 1.9674e-19)
(0.145323 -0.0276781 -1.99445e-19)
(-0.00452969 0.00710787 -2.53981e-20)
(-0.00942154 0.0158634 2.12806e-19)
(-0.0107262 0.0210164 -2.74194e-19)
(-0.00912263 0.0235572 6.38441e-20)
(-0.0051192 0.0241964 -1.32176e-19)
(0.00086706 0.023454 2.99814e-19)
(0.00848437 0.0216995 -2.14859e-19)
(0.0174403 0.0191916 2.46047e-19)
(0.0274945 0.0161083 -2.35878e-19)
(0.0384521 0.0125687 9.94691e-20)
(0.0501592 0.00865025 -4.94932e-20)
(0.0624994 0.00440556 -1.22796e-19)
(0.0753909 -0.000121587 -1.5051e-19)
(0.0887816 -0.00487756 1.49855e-19)
(0.10264 -0.00977889 -1.25039e-19)
(0.116936 -0.0146941 -2.70162e-19)
(0.131628 -0.0194203 2.81442e-19)
(0.146701 -0.0236209 -3.56084e-19)
(0.162108 -0.026815 1.59481e-19)
(0.176862 -0.0289568 4.05918e-21)
(-0.00454452 0.00670143 -2.51544e-19)
(-0.00885117 0.0147 -2.92187e-19)
(-0.00896449 0.0193349 3.35086e-20)
(-0.00577303 0.0215504 -2.87201e-19)
(9.46232e-05 0.0220385 -2.57777e-20)
(0.00814039 0.0213093 -2.13725e-19)
(0.0179468 0.0197186 -4.95464e-20)
(0.0291673 0.0175103 -1.45052e-19)
(0.0415163 0.0148447 4.58146e-22)
(0.0547593 0.0118187 -6.43442e-20)
(0.0687081 0.00848118 3.08358e-21)
(0.083217 0.00484662 -1.83707e-19)
(0.098182 0.000910424 1.99688e-19)
(0.113539 -0.00333252 -2.85633e-19)
(0.129261 -0.00786377 9.92749e-20)
(0.145334 -0.0126144 2.40847e-21)
(0.161752 -0.0174236 -1.57376e-19)
(0.178564 -0.0219327 3.85439e-19)
(0.19579 -0.0255299 -9.21596e-20)
(0.212246 -0.0280909 -6.94608e-20)
(-0.00438409 0.00612322 2.86425e-19)
(-0.00777261 0.0131278 1.66151e-19)
(-0.00636808 0.0171089 1.55073e-19)
(-0.00126916 0.0189338 2.28816e-20)
(0.00677791 0.0192616 2.15565e-19)
(0.0171971 0.0185846 3.10972e-19)
(0.0295078 0.0172427 2.56491e-19)
(0.0433112 0.0154647 2.11024e-20)
(0.0582764 0.0133968 1.87322e-19)
(0.0741277 0.0111195 2.90888e-19)
(0.0906375 0.00865887 -7.59803e-20)
(0.107622 0.00599692 1.2732e-19)
(0.124943 0.00308078 1.03903e-19)
(0.142509 -0.000162849 1.04724e-19)
(0.160277 -0.00380594 6.05648e-19)
(0.178241 -0.00788951 -2.27547e-19)
(0.196428 -0.0123665 -1.35958e-20)
(0.214981 -0.0169357 2.54112e-19)
(0.234075 -0.0208765 -1.43025e-19)
(0.252323 -0.0239334 8.41125e-20)
(-0.0040145 0.00537386 -2.36422e-19)
(-0.00610369 0.0111527 1.85199e-20)
(-0.00282205 0.0143482 -2.04642e-19)
(0.00452821 0.0157183 -2.52048e-20)
(0.0150897 0.015873 1.52682e-19)
(0.0282148 0.0152797 -4.53908e-19)
(0.0433653 0.0142588 3.06391e-21)
(0.0600954 0.0130257 2.1234e-19)
(0.0780334 0.011718 2.00102e-19)
(0.0968654 0.0104094 -8.85943e-20)
(0.116325 0.0091183 2.85051e-20)
(0.136186 0.00781141 6.79666e-20)
(0.156265 0.00640585 -3.25615e-20)
(0.176423 0.00477254 -3.54522e-19)
(0.196577 0.002745 9.07792e-20)
(0.216695 0.000132593 2.41037e-19)
(0.236805 -0.00323358 -3.41343e-19)
(0.257154 -0.00726999 1.6685e-19)
(0.278211 -0.0112421 4.25079e-20)
(0.298487 -0.0146957 2.55029e-19)
(-0.00340386 0.00446043 -3.6748e-20)
(-0.00376872 0.00879495 -1.79791e-19)
(0.00177617 0.0110809 8.14711e-20)
(0.0117388 0.0119338 -2.35612e-21)
(0.025161 0.0118977 -3.6865e-19)
(0.0413322 0.0114063 5.82771e-20)
(0.0596656 0.0107557 -1.00342e-20)
(0.0796775 0.0101479 7.47612e-20)
(0.100965 0.00971715 -3.43903e-19)
(0.123186 0.00954224 -2.19144e-20)
(0.146046 0.00965315 -7.87532e-20)
(0.169284 0.0100318 7.38977e-20)
(0.192673 0.0106077 2.41578e-19)
(0.216017 0.0112505 -3.78764e-20)
(0.239159 0.0117587 1.34314e-20)
(0.261976 0.011832 9.50133e-20)
(0.284396 0.0110628 -2.27225e-20)
(0.306663 0.00921743 1.74481e-19)
(0.329679 0.00695941 -1.1224e-19)
(0.352225 0.00459666 -1.87504e-19)
(-0.00252406 0.00339716 3.31841e-20)
(-0.000702397 0.00609123 7.46215e-21)
(0.00751164 0.00735684 7.42408e-20)
(0.0204563 0.00763496 1.81774e-19)
(0.0370856 0.00738605 1.01629e-19)
(0.0566369 0.00699868 1.01852e-20)
(0.0784856 0.00673754 -1.23015e-19)
(0.102122 0.00678708 3.2401e-20)
(0.127126 0.00727802 1.65592e-19)
(0.153148 0.00829995 -2.82811e-19)
(0.179887 0.0099091 2.14067e-19)
(0.207083 0.0121318 -1.6097e-19)
(0.234504 0.0149634 1.3638e-19)
(0.261944 0.0183632 -2.93085e-19)
(0.289212 0.0222385 3.18909e-19)
(0.316117 0.0263966 -3.42262e-19)
(0.342447 0.0305061 -8.59983e-20)
(0.368269 0.0344041 2.60458e-19)
(0.394577 0.0387076 -9.48544e-20)
(0.420477 0.0417259 3.98479e-20)
(-0.00135228 0.00220571 -2.62451e-20)
(0.00314718 0.00309551 2.59528e-19)
(0.0144481 0.00325001 -3.30845e-21)
(0.0307439 0.00290589 -1.62958e-19)
(0.0509151 0.00242196 -1.09276e-19)
(0.0741581 0.00212847 2.02599e-19)
(0.0998206 0.00224705 -8.10874e-20)
(0.127378 0.00293412 -1.05683e-20)
(0.15641 0.00430684 1.66574e-19)
(0.186576 0.00645559 -2.10681e-19)
(0.217607 0.00945346 2.23432e-20)
(0.249292 0.0133641 -2.73696e-19)
(0.281488 0.0182487 1.43803e-19)
(0.314128 0.0241718 -4.13446e-19)
(0.34726 0.0312009 6.58592e-19)
(0.381104 0.0393886 -1.19484e-19)
(0.416236 0.0487924 1.25336e-19)
(0.454064 0.0595843 -3.31447e-19)
(0.497455 0.0711946 4.70764e-21)
(0.550946 0.0778602 4.67504e-19)
(0.000128042 0.000914531 -8.14511e-20)
(0.00781665 -0.000121543 7.41224e-20)
(0.0226264 -0.00114087 -2.70139e-19)
(0.0426333 -0.00213662 4.02026e-19)
(0.0666591 -0.00286914 -2.9171e-19)
(0.093868 -0.00308114 1.44914e-20)
(0.123587 -0.00260841 -3.14922e-19)
(0.155284 -0.00133826 2.26421e-19)
(0.188541 0.000813927 -3.38536e-20)
(0.223037 0.00391392 -2.01321e-19)
(0.258535 0.0080151 -1.16401e-19)
(0.294883 0.0131624 1.23147e-19)
(0.332021 0.0193923 8.19711e-20)
(0.370008 0.0267262 -3.67999e-19)
(0.409057 0.0351457 1.34378e-19)
(0.44961 0.0445458 -1.97278e-19)
(0.492479 0.0547026 2.14763e-20)
(0.539049 0.0651507 -1.7358e-19)
(0.590956 0.0740555 8.03987e-20)
(0.648883 0.0760566 -3.21607e-19)
(0.00192695 -0.000442278 2.29329e-19)
(0.0133271 -0.00347453 -1.45869e-19)
(0.0320648 -0.00569373 1.20852e-19)
(0.0561271 -0.00734317 -1.52688e-19)
(0.0842903 -0.00831793 2.60397e-19)
(0.115693 -0.00844767 -5.6869e-21)
(0.149646 -0.0076398 -3.17632e-20)
(0.185607 -0.00584092 -2.36216e-20)
(0.223157 -0.00301731 1.45781e-19)
(0.261984 0.000849359 2.47254e-19)
(0.301865 0.00576343 -1.48873e-19)
(0.342669 0.0117133 1.43349e-19)
(0.384359 0.0186639 2.63303e-19)
(0.42701 0.0265391 -1.87461e-19)
(0.470822 0.0351871 -3.831e-19)
(0.516148 0.0443306 7.04855e-19)
(0.563548 0.0535307 -1.27762e-19)
(0.613802 0.0620552 -4.29727e-20)
(0.66739 0.0680766 4.65369e-19)
(0.723593 0.0680126 -1.19064e-19)
(0.00404849 -0.00182673 -3.781e-19)
(0.019685 -0.00686685 -2.67747e-19)
(0.0427615 -0.0102674 -1.02777e-19)
(0.0712031 -0.0125363 1.98912e-19)
(0.103753 -0.013716 -4.50423e-19)
(0.139531 -0.0137348 2.32441e-19)
(0.177828 -0.0125833 2.94008e-20)
(0.21809 -0.0102791 2.84105e-20)
(0.25989 -0.00685167 -3.09065e-19)
(0.302905 -0.00234306 -1.10301e-19)
(0.346902 0.00318967 -1.9403e-19)
(0.391734 0.00966861 1.87479e-19)
(0.437334 0.0169844 5.32249e-20)
(0.483716 0.0249779 9.12941e-21)
(0.530971 0.0334108 2.49936e-19)
(0.579262 0.0419316 -2.54784e-19)
(0.628832 0.0500648 -1.09574e-20)
(0.679954 0.0571243 5.32179e-21)
(0.73249 0.0616506 3.44045e-20)
(0.785495 0.0613043 2.50134e-19)
(0.00649159 -0.00319885 1.2189e-19)
(0.0268844 -0.0101949 3.32559e-19)
(0.0546968 -0.0147077 2.66967e-19)
(0.0878189 -0.0175187 -9.18298e-20)
(0.124972 -0.0188268 3.18856e-19)
(0.165259 -0.0186678 -2.7455e-20)
(0.207955 -0.0171232 -3.84086e-20)
(0.252486 -0.0142889 2.2858e-20)
(0.298409 -0.0102635 3.14104e-19)
(0.345377 -0.00515276 1.84441e-19)
(0.393131 0.000924672 5.37517e-20)
(0.441482 0.00783074 3.32825e-21)
(0.490308 0.0153981 -3.63591e-19)
(0.539537 0.023416 3.17759e-19)
(0.589138 0.0316105 5.53465e-20)
(0.639106 0.039629 -9.11741e-20)
(0.689455 0.0470507 -4.00964e-19)
(0.740169 0.0533298 -3.50786e-20)
(0.790862 0.057347 1.62374e-19)
(0.840694 0.0575362 -3.77689e-20)
(0.00925126 -0.00451841 -3.08834e-19)
(0.0349085 -0.0133525 1.37469e-19)
(0.0678365 -0.018854 -6.7105e-19)
(0.105915 -0.0220824 2.74959e-19)
(0.147854 -0.0233991 -2.20868e-19)
(0.192744 -0.0229529 1.63827e-19)
(0.239843 -0.0209208 -2.54317e-19)
(0.28856 -0.01748 2.41383e-20)
(0.338424 -0.0127988 -1.26177e-20)
(0.389062 -0.00704519 6.84193e-20)
(0.440178 -0.000392803 9.94961e-20)
(0.491538 0.00697209 -1.90492e-19)
(0.542957 0.0148434 1.00949e-19)
(0.594286 0.0229859 9.34424e-20)
(0.645396 0.0311244 4.07016e-19)
(0.696164 0.0389407 -1.78091e-19)
(0.746469 0.0460948 -1.19954e-19)
(0.796152 0.0521757 2.03541e-19)
(0.844757 0.0563115 1.11696e-19)
(0.891603 0.0574404 -2.5952e-19)
(0.0123196 -0.00574623 2.72062e-19)
(0.0437315 -0.0162343 2.78078e-19)
(0.0821329 -0.0225457 8.06205e-20)
(0.125415 -0.0260189 3.39527e-19)
(0.17229 -0.0271811 1.6536e-19)
(0.221839 -0.0262968 -3.02877e-19)
(0.273307 -0.0236407 4.5936e-19)
(0.326083 -0.0194714 -2.28016e-19)
(0.379673 -0.0140253 2.27336e-19)
(0.433675 -0.00752763 2.94614e-19)
(0.487757 -0.000199499 -1.69598e-19)
(0.541642 0.00773613 3.24693e-20)
(0.595096 0.0160493 1.81363e-19)
(0.647911 0.0244975 1.28431e-19)
(0.699892 0.0328207 2.97919e-19)
(0.750848 0.0407446 -1.19987e-19)
(0.800588 0.0480044 -1.47493e-20)
(0.848891 0.0542937 1.9284e-19)
(0.895304 0.0589154 -4.14177e-20)
(0.939286 0.0611617 1.00642e-21)
(0.0156863 -0.00684498 -1.41684e-19)
(0.0533202 -0.0187392 -5.47976e-19)
(0.0975263 -0.0256278 1.29145e-19)
(0.14623 -0.0291274 -9.93996e-20)
(0.198156 -0.0299317 -2.28041e-19)
(0.252383 -0.0284226 -1.6202e-19)
(0.30815 -0.0249722 -9.98498e-20)
(0.364828 -0.0199189 2.47759e-19)
(0.421903 -0.0135646 -1.4802e-19)
(0.478949 -0.00618673 -1.51959e-19)
(0.535606 0.0019531 -1.92714e-19)
(0.591565 0.0106037 -3.2091e-20)
(0.646559 0.0195205 -2.22653e-20)
(0.700343 0.0284624 -4.521e-19)
(0.752687 0.037189 2.20431e-19)
(0.803369 0.0454669 -2.92268e-19)
(0.852171 0.0530913 9.24437e-20)
(0.898856 0.0598315 -7.09514e-19)
(0.943002 0.0651206 2.14909e-19)
(0.984179 0.0685128 3.28244e-19)
(0.0193394 -0.00777953 -3.46985e-20)
(0.063634 -0.0207715 2.67568e-19)
(0.113945 -0.0279545 1.76913e-20)
(0.168254 -0.0312208 4.13372e-20)
(0.225309 -0.0314302 -8.43818e-20)
(0.2842 -0.0290813 -1.72946e-21)
(0.344159 -0.0246427 -1.44544e-21)
(0.404551 -0.0185309 -5.03796e-20)
(0.464849 -0.0111094 1.83793e-19)
(0.52461 -0.00270357 7.14936e-20)
(0.583457 0.00638974 3.24262e-19)
(0.641064 0.0158969 -8.95804e-20)
(0.697146 0.025564 6.24039e-20)
(0.751446 0.035154 -8.05705e-21)
(0.803723 0.0444458 1.7503e-19)
(0.85375 0.0532398 1.07777e-19)
(0.901312 0.0613767 2.61415e-19)
(0.946179 0.0686798 -4.25568e-19)
(0.987979 0.0746864 5.39443e-19)
(1.02637 0.0791501 -2.06974e-19)
(0.0232648 -0.00851696 -3.24093e-19)
(0.074625 -0.0222423 -1.0607e-19)
(0.131304 -0.0293923 8.57945e-20)
(0.191364 -0.0321304 5.42552e-20)
(0.25359 -0.0314813 5.5731e-20)
(0.317088 -0.028059 5.52154e-20)
(0.3811 -0.0224266 -1.41768e-19)
(0.444989 -0.0150758 -5.75412e-20)
(0.508225 -0.0064287 1.90448e-20)
(0.570361 0.00314528 -1.74918e-19)
(0.631014 0.0133184 -7.90517e-20)
(0.689858 0.0237985 4.83438e-19)
(0.746607 0.0343249 -1.25868e-19)
(0.801009 0.044666 -1.74085e-19)
(0.852834 0.0546172 -8.29579e-20)
(0.901872 0.0640066 5.80607e-20)
(0.947927 0.0727086 7.0946e-20)
(0.990798 0.0805872 -3.42616e-19)
(1.03017 0.0872682 4.98705e-19)
(1.06576 0.0926572 -5.21621e-19)
(0.027446 -0.00902646 -3.58591e-20)
(0.0862374 -0.0230702 1.07844e-20)
(0.149507 -0.0298207 -1.40084e-20)
(0.21542 -0.0317082 2.0771e-19)
(0.282815 -0.029919 1.15459e-20)
(0.350827 -0.0251804 7.6538e-20)
(0.418715 -0.0181472 -1.62139e-19)
(0.485854 -0.0093836 -5.60169e-21)
(0.551723 0.00063354 2.27035e-19)
(0.615881 0.0114944 3.15266e-20)
(0.677956 0.0228442 -2.00136e-19)
(0.737634 0.0343751 -1.7652e-20)
(0.794646 0.0458225 -1.661e-19)
(0.848764 0.0569602 1.67162e-19)
(0.899785 0.0675988 2.33182e-19)
(0.947529 0.0775892 -2.59007e-20)
(0.991838 0.0868322 -3.15865e-20)
(1.03255 0.0952247 9.70108e-20)
(1.06941 0.102471 -3.13298e-19)
(1.1022 0.108591 3.33306e-19)
(0.0318636 -0.00927921 3.60915e-20)
(0.098407 -0.0231808 -2.49471e-19)
(0.168443 -0.0291339 6.83807e-20)
(0.240265 -0.0298281 -2.08026e-19)
(0.312783 -0.0266076 7.30044e-20)
(0.385173 -0.0203098 -2.68633e-19)
(0.456724 -0.0116777 1.09303e-19)
(0.526837 -0.00134381 -3.54728e-20)
(0.59501 0.0101639 -1.43747e-21)
(0.660824 0.0223996 3.61649e-20)
(0.723933 0.0349849 -1.32896e-19)
(0.78405 0.0476006 -1.91148e-19)
(0.84094 0.0599798 -3.93642e-20)
(0.894409 0.0719038 -1.78208e-20)
(0.944298 0.0831978 -4.56319e-20)
(0.990473 0.0937332 -1.49476e-20)
(1.03282 0.103433 -4.50223e-20)
(1.07123 0.112224 -3.92461e-20)
(1.1055 0.119882 -1.17052e-19)
(1.1355 0.126509 2.18932e-19)
(0.0364945 -0.00924829 8.66722e-20)
(0.11106 -0.0225079 -1.01435e-19)
(0.187986 -0.0272408 2.18235e-19)
(0.265724 -0.026387 -9.57495e-20)
(0.343272 -0.0214428 2.5707e-19)
(0.419861 -0.0133512 4.69707e-21)
(0.494827 -0.00293868 1.3036e-19)
(0.567607 0.00909856 -3.59154e-20)
(0.637735 0.0221865 1.48129e-19)
(0.704831 0.0358481 1.04256e-20)
(0.768585 0.0496864 3.58637e-19)
(0.828754 0.0633746 -2.49882e-19)
(0.88515 0.0766477 3.40411e-20)
(0.93763 0.0892967 6.54515e-20)
(0.986088 0.101163 3.44293e-19)
(1.03045 0.112138 -1.24673e-19)
(1.07065 0.122167 -2.47909e-20)
(1.10663 0.131202 -1.31408e-19)
(1.13828 0.139089 -1.35567e-20)
(1.1655 0.145986 7.81223e-20)
(0.0413119 -0.0089089 -3.9488e-20)
(0.124112 -0.0209928 1.24163e-19)
(0.207997 -0.0240656 -1.28554e-19)
(0.291605 -0.0213046 5.04272e-20)
(0.37404 -0.0143506 -6.21244e-20)
(0.454609 -0.00424631 2.2749e-19)
(0.532704 0.00810429 -3.28491e-20)
(0.607819 0.0219477 7.86024e-20)
(0.679538 0.03667 -4.76128e-20)
(0.747532 0.0517689 -1.65522e-21)
(0.811545 0.0668351 5.48089e-20)
(0.871392 0.0815395 -4.3154e-20)
(0.926943 0.0956238 1.12833e-19)
(0.978119 0.108892 -5.68311e-20)
(1.02488 0.121206 -2.51724e-19)
(1.06721 0.132478 2.51975e-19)
(1.10511 0.142674 -1.13884e-19)
(1.13858 0.151777 9.14705e-20)
(1.16759 0.159696 1.5871e-19)
(1.19207 0.166622 7.68271e-20)
(0.0462842 -0.00823859 9.86999e-20)
(0.137469 -0.0185859 -2.17631e-19)
(0.228322 -0.0195482 4.08273e-20)
(0.317699 -0.0145237 -3.05514e-20)
(0.404832 -0.00528751 -1.25471e-19)
(0.489118 0.00702613 -9.84939e-20)
(0.570028 0.0214436 -1.99421e-20)
(0.647123 0.0371618 -1.79617e-19)
(0.720055 0.0535346 -1.14686e-20)
(0.788561 0.0700422 -3.42703e-20)
(0.852456 0.0862699 -9.40028e-20)
(0.911622 0.101893 -2.10737e-20)
(0.966004 0.116667 -7.34801e-20)
(1.01559 0.130413 -1.23859e-19)
(1.06042 0.143017 1.27825e-19)
(1.10054 0.154415 1.75003e-20)
(1.13603 0.1646 3.4945e-20)
(1.16694 0.17358 -1.49547e-19)
(1.19331 0.181328 -4.24051e-21)
(1.21513 0.188052 -2.70371e-19)
(0.0513755 -0.00721777 1.05191e-19)
(0.151026 -0.0152469 7.48641e-20)
(0.248795 -0.0136456 -1.22479e-19)
(0.343784 -0.00601113 1.92764e-19)
(0.435378 0.00576014 -2.17575e-20)
(0.523081 0.0204524 7.33266e-20)
(0.606461 0.0370324 2.59005e-20)
(0.685164 0.0546572 9.26706e-20)
(0.758925 0.072658 -7.36203e-20)
(0.827564 0.0905066 2.50837e-20)
(0.890976 0.107792 -2.4196e-20)
(0.949127 0.124201 -1.06887e-20)
(1.00204 0.139509 2.08336e-20)
(1.0498 0.153564 -3.87092e-20)
(1.0925 0.166276 -1.19814e-20)
(1.13028 0.177615 -3.68503e-20)
(1.16328 0.187595 -6.0131e-20)
(1.19162 0.19626 3.91974e-20)
(1.2154 0.20364 -5.31444e-20)
(1.23466 0.209945 2.69672e-19)
(0.0565452 -0.00583023 -5.12224e-20)
(0.16467 -0.0109462 -1.55488e-19)
(0.269236 -0.00633206 -1.98657e-20)
(0.369627 0.00424247 -6.54148e-21)
(0.465399 0.0187763 -7.1718e-20)
(0.556187 0.0359848 -1.19685e-19)
(0.641668 0.0547874 3.96992e-20)
(0.721595 0.074313 -5.54338e-20)
(0.795802 0.0938814 -6.30726e-20)
(0.864202 0.112967 3.59171e-20)
(0.926788 0.13117 -2.74594e-20)
(0.983619 0.148202 -5.66194e-20)
(1.03481 0.163865 -2.0637e-21)
(1.08053 0.178037 3.93269e-20)
(1.12095 0.190664 -4.04513e-20)
(1.1563 0.201746 5.66722e-20)
(1.18677 0.211329 1.55044e-20)
(1.21256 0.21949 3.87829e-20)
(1.23383 0.226316 7.50356e-20)
(1.25066 0.232005 -7.47951e-20)
(0.0617485 -0.00406376 4.78864e-20)
(0.178276 -0.00566589 -3.74751e-21)
(0.289457 0.00239914 2.39294e-20)
(0.394984 0.0162216 -3.1925e-20)
(0.494611 0.0337157 3.36285e-21)
(0.588119 0.0535433 1.14619e-19)
(0.675319 0.0745913 -7.59957e-20)
(0.756082 0.0959743 3.3288e-20)
(0.830355 0.117014 3.01315e-20)
(0.898165 0.137198 -8.48677e-20)
(0.959608 0.156153 8.13676e-20)
(1.01485 0.173621 9.42206e-22)
(1.0641 0.189439 -5.9136e-20)
(1.10761 0.203526 7.20671e-20)
(1.14565 0.215865 -2.87868e-20)
(1.17851 0.226494 2.21809e-20)
(1.20647 0.235492 -2.51294e-20)
(1.22977 0.242971 -1.02041e-20)
(1.24864 0.249073 -8.7309e-20)
(1.26319 0.253976 3.09929e-20)
(0.0669367 -0.0019108 -1.52545e-20)
(0.191714 0.000598904 4.54103e-20)
(0.309262 0.0125351 7.41426e-21)
(0.41961 0.0298857 3.01542e-20)
(0.52273 0.0505039 1.48379e-20)
(0.618571 0.0730167 7.08922e-21)
(0.707093 0.0962953 4.06183e-20)
(0.788305 0.119456 -4.78428e-21)
(0.862282 0.141837 1.88667e-20)
(0.929171 0.162955 3.07704e-20)
(0.989188 0.182471 1.5224e-20)
(1.0426 0.200169 1.1145e-20)
(1.08973 0.215932 4.56885e-20)
(1.13092 0.229724 -4.4534e-20)
(1.16652 0.241574 9.67845e-21)
(1.19689 0.251559 -9.04649e-21)
(1.22238 0.259794 1.42458e-20)
(1.24329 0.266429 1.19798e-20)
(1.25989 0.271658 2.4803e-20)
(1.27234 0.27563 1.17774e-21)
(0.072058 0.000631023 9.27647e-21)
(0.204849 0.00783923 8.7724e-21)
(0.32845 0.0240421 -1.2303e-20)
(0.443254 0.0451686 7.80074e-21)
(0.549473 0.0690381 4.52216e-21)
(0.647243 0.0942639 -1.43819e-20)
(0.736688 0.119722 4.87246e-21)
(0.81797 0.144547 9.72096e-22)
(0.891306 0.168111 8.80204e-21)
(0.956976 0.189972 -2.42867e-20)
(1.01532 0.20984 -1.41231e-22)
(1.06672 0.227552 7.00204e-21)
(1.11159 0.243045 -5.62834e-21)
(1.15038 0.256335 5.82595e-21)
(1.18352 0.2675 1.53315e-20)
(1.21145 0.276662 -8.75315e-21)
(1.23455 0.283972 2.49739e-21)
(1.2532 0.28962 9.63293e-21)
(1.26769 0.293848 -1.58887e-20)
(1.27823 0.296774 8.90952e-21)
(0.0770585 0.00355838 2.39403e-20)
(0.217541 0.0160314 -1.41222e-20)
(0.346819 0.0368655 1.6859e-20)
(0.465672 0.0619786 -1.27549e-20)
(0.574569 0.0891876 -5.89718e-21)
(0.673849 0.117116 1.85309e-21)
(0.763821 0.144666 -6.11037e-21)
(0.844811 0.171013 2.24814e-20)
(0.917188 0.195576 -1.93123e-20)
(0.981372 0.217971 4.68552e-21)
(1.03783 0.237972 -3.48763e-21)
(1.08707 0.255477 -2.36543e-20)
(1.1296 0.270485 2.32901e-20)
(1.16597 0.283071 8.99656e-21)
(1.19668 0.293367 -9.04742e-21)
(1.22223 0.301542 2.13364e-20)
(1.24307 0.307785 -3.62284e-22)
(1.2596 0.312324 -2.07654e-20)
(1.27216 0.315449 1.53673e-20)
(1.281 0.31724 5.44659e-21)
(0.0818826 0.00686195 -8.60846e-21)
(0.229649 0.0251364 2.5058e-20)
(0.36417 0.050929 2.96279e-20)
(0.486624 0.080199 -1.45221e-20)
(0.597756 0.110795 2.54331e-20)
(0.698126 0.141379 4.19638e-20)
(0.788237 0.170901 -2.55075e-21)
(0.868592 0.198598 -8.0567e-21)
(0.939722 0.223957 3.91285e-20)
(1.00219 0.246667 1.96831e-20)
(1.0566 0.266574 -3.80515e-21)
(1.10357 0.283651 3.07651e-20)
(1.14372 0.297967 -3.38697e-20)
(1.17768 0.30966 5.30139e-20)
(1.20602 0.318919 -8.96769e-21)
(1.22931 0.32596 2.56904e-20)
(1.24803 0.331014 4.54354e-21)
(1.26263 0.334346 1.83729e-20)
(1.27346 0.336288 -1.76141e-20)
(1.2808 0.336884 4.80234e-21)
(0.0864734 0.0105259 -1.26328e-20)
(0.241034 0.0350996 3.04182e-20)
(0.380305 0.0661346 2.27294e-20)
(0.505879 0.0996884 -3.59277e-21)
(0.61879 0.133679 3.85009e-20)
(0.71983 0.166834 -3.13117e-20)
(0.809708 0.198179 -3.13995e-21)
(0.889113 0.227032 2.80866e-20)
(0.958742 0.252969 8.67407e-21)
(1.01931 0.275765 1.35651e-20)