1.45 	0 	0 	-0.291595
2.35 	0 	0 	-0.126905
