1.275 	2.15223e-18 	-2.76991e-20 	-0.0344627 	-0.000434634 	-1.90976e-22
1.825 	2.15223e-18 	-1.39322e-20 	-0.00946302 	-0.00275348 	1.68698e-21
2.375 	2.15223e-18 	-2.66896e-23 	0.115314 	-0.00323876 	-7.03678e-22
