1.45 	0 	0 	-0.301278
2.35 	0 	0 	-0.133988
