1.275 	2.15223e-18 	-2.76991e-20 	-0.0337843 	-0.000446296 	-1.99923e-22
1.825 	2.15223e-18 	-1.39322e-20 	-0.00824599 	-0.00280502 	1.79795e-21
2.375 	2.15223e-18 	-2.66896e-23 	0.118726 	-0.00333876 	-7.50276e-22
