1.45 	0 	0 	-0.305199
2.35 	0 	0 	-0.132292
