1.45 	0 	0 	-0.00282211 	-0.00299024 	1.73612e-20
2.35 	0 	0 	0.0798447 	-0.00711595 	1.03013e-20
