1.275 	2.15223e-18 	-2.76991e-20 	-0.0344834 	-0.000440117 	-1.90123e-22
1.825 	2.15223e-18 	-1.39322e-20 	-0.00950356 	-0.00275695 	1.67583e-21
2.375 	2.15223e-18 	-2.66896e-23 	0.115186 	-0.00323152 	-6.98931e-22
