1.45 	0 	0 	-0.295893
2.35 	0 	0 	-0.130636
