/*--------------------------------*- C++ -*----------------------------------*\
  =========                 |
  \\      /  F ield         | OpenFOAM: The Open Source CFD Toolbox
   \\    /   O peration     | Website:  https://openfoam.org
    \\  /    A nd           | Version:  6.0
     \\/     M anipulation  |
\*---------------------------------------------------------------------------*/
FoamFile
{
    version     2.0;
    format      ascii;
    class       volScalarField;
    location    "500";
    object      nut;
}
// * * * * * * * * * * * * * * * * * * * * * * * * * * * * * * * * * * * * * //

dimensions      [0 2 -1 0 0 0 0];

internalField   nonuniform List<scalar> 
9800
(
0.139991
0.140034
0.140016
0.140007
0.139998
0.139989
0.139977
0.139968
0.139986
0.139998
0.140005
0.14001
0.140016
0.14002
0.140026
0.140032
0.140039
0.140044
0.140045
0.140046
0.140048
0.140044
0.140023
0.140021
0.140043
0.140047
0.140046
0.140044
0.140044
0.14004
0.140034
0.140027
0.140022
0.140017
0.140012
0.140007
0.140001
0.139993
0.139972
0.139975
0.139985
0.139994
0.140002
0.14001
0.140018
0.140027
0.140037
0.140049
0.140063
0.14008
0.1401
0.140125
0.140155
0.140192
0.140239
0.140298
0.140375
0.140476
0.140615
0.140807
0.141114
0.141522
0.142615
0.144064
0.145625
0.147196
0.147772
0.148392
0.148817
0.14925
0.14967
0.15006
0.150381
0.150604
0.150718
0.150728
0.150657
0.150535
0.150392
0.15025
0.15012
0.150006
0.149901
0.149797
0.149682
0.149548
0.14938
0.149269
0.149223
0.149241
0.149324
0.149467
0.149662
0.1499
0.150169
0.150465
0.150904
0.153799
0.18313
0.301197
0.140293
0.140266
0.140208
0.14017
0.140136
0.140107
0.140085
0.140077
0.140083
0.140083
0.140082
0.140081
0.140081
0.140081
0.140079
0.140071
0.140054
0.140033
0.140068
0.14009
0.140106
0.140103
0.140063
0.140063
0.140106
0.14011
0.140095
0.140075
0.140035
0.140047
0.140065
0.140075
0.140078
0.140077
0.140077
0.140078
0.14008
0.14008
0.140072
0.140073
0.140086
0.140107
0.140131
0.140158
0.140186
0.140216
0.140249
0.140286
0.140327
0.140374
0.140427
0.140488
0.140559
0.140641
0.140737
0.140851
0.140985
0.141147
0.141343
0.141583
0.141892
0.142258
0.14281
0.143432
0.143898
0.144247
0.144478
0.144687
0.144884
0.145076
0.14526
0.145433
0.14559
0.145726
0.145836
0.14592
0.14598
0.146019
0.14604
0.146041
0.146065
0.14612
0.146212
0.146341
0.146506
0.146701
0.146919
0.147152
0.147388
0.147617
0.147829
0.148014
0.148169
0.148288
0.148372
0.148424
0.14845
0.148494
0.149214
0.155295
0.140389
0.14033
0.140271
0.140228
0.140192
0.140166
0.140149
0.140142
0.140138
0.140133
0.140127
0.140117
0.140102
0.140081
0.140052
0.140029
0.140042
0.140057
0.140103
0.14014
0.140164
0.140158
0.140106
0.140107
0.140162
0.140172
0.140149
0.140114
0.140064
0.140045
0.140025
0.140032
0.140066
0.140092
0.140108
0.140117
0.140123
0.140128
0.14013
0.140132
0.140139
0.140154
0.140175
0.140201
0.140231
0.140263
0.140298
0.140335
0.140375
0.140418
0.140466
0.140517
0.140574
0.140636
0.140705
0.14078
0.140863
0.140953
0.141053
0.141141
0.141266
0.141419
0.141604
0.141819
0.142051
0.142307
0.142578
0.142866
0.143167
0.143476
0.143793
0.144107
0.144412
0.144703
0.144974
0.145219
0.145438
0.145629
0.145795
0.145939
0.146062
0.146166
0.146254
0.146325
0.146379
0.146417
0.146437
0.146441
0.146427
0.146398
0.146355
0.146299
0.146233
0.14616
0.146083
0.146004
0.145927
0.145855
0.145801
0.145859
0.140389
0.140328
0.140275
0.140235
0.140204
0.140181
0.140164
0.14015
0.140134
0.140114
0.140087
0.140054
0.14004
0.140032
0.140039
0.140044
0.140073
0.140111
0.140161
0.140204
0.140226
0.140208
0.140149
0.140148
0.14021
0.140232
0.140212
0.140171
0.140118
0.140077
0.14004
0.140021
0.140013
0.140022
0.140039
0.140072
0.140101
0.140122
0.140138
0.140148
0.140158
0.140169
0.140185
0.140206
0.140231
0.140261
0.140293
0.140328
0.140366
0.140406
0.140449
0.140494
0.140543
0.140595
0.14065
0.140708
0.14077
0.140834
0.140901
0.140967
0.141032
0.141101
0.141168
0.141236
0.141312
0.141401
0.141502
0.14161
0.141722
0.141832
0.141942
0.142048
0.14215
0.142245
0.142331
0.14241
0.142482
0.142545
0.142601
0.142648
0.14269
0.142728
0.142763
0.142797
0.142833
0.142872
0.142916
0.142966
0.143024
0.143089
0.143161
0.14324
0.143324
0.143412
0.143503
0.143596
0.14369
0.143784
0.143875
0.143961
0.140381
0.140329
0.140284
0.140249
0.140219
0.140195
0.140172
0.140148
0.140121
0.140089
0.140051
0.140012
0.139981
0.139975
0.140006
0.140064
0.140114
0.140168
0.140223
0.140265
0.140279
0.14025
0.140189
0.140184
0.140249
0.140282
0.14027
0.140229
0.140173
0.140116
0.140058
0.139995
0.139961
0.139975
0.140003
0.140038
0.140075
0.140108
0.140136
0.140159
0.140178
0.140195
0.140212
0.140231
0.140253
0.140279
0.140308
0.14034
0.140375
0.140413
0.140453
0.140495
0.140539
0.140585
0.140633
0.140683
0.140735
0.140787
0.140841
0.140895
0.140947
0.140998
0.141045
0.141088
0.141129
0.14117
0.141214
0.141261
0.141311
0.141363
0.141417
0.141474
0.141534
0.141596
0.14166
0.141724
0.141789
0.141854
0.141918
0.14198
0.142042
0.142103
0.142163
0.142225
0.142289
0.142355
0.142425
0.142499
0.142575
0.142655
0.142736
0.142819
0.142904
0.142989
0.143074
0.14316
0.143245
0.14333
0.143414
0.143476
0.140351
0.140311
0.140275
0.140245
0.140217
0.140189
0.140159
0.140124
0.14008
0.140027
0.139967
0.139914
0.139901
0.139935
0.140011
0.140099
0.140166
0.14023
0.140286
0.140322
0.140325
0.140285
0.140222
0.140216
0.140281
0.140323
0.140323
0.140287
0.140231
0.140164
0.14009
0.139984
0.139911
0.139892
0.139927
0.139978
0.140031
0.140078
0.140118
0.140151
0.140178
0.140202
0.140223
0.140244
0.140265
0.140287
0.140311
0.140338
0.140368
0.140399
0.140433
0.140469
0.140506
0.140546
0.140586
0.140628
0.14067
0.140714
0.140758
0.140803
0.140848
0.140893
0.140937
0.14098
0.141022
0.141062
0.141102
0.141142
0.141183
0.141225
0.141269
0.141316
0.141365
0.141418
0.141473
0.141532
0.141593
0.141656
0.14172
0.141786
0.141854
0.141922
0.141992
0.142063
0.142135
0.142208
0.142282
0.142357
0.142432
0.142507
0.142582
0.142657
0.142732
0.142805
0.142878
0.142949
0.14302
0.14309
0.143157
0.1432
0.140302
0.14027
0.140236
0.1402
0.140159
0.140111
0.140052
0.139983
0.139912
0.139863
0.139831
0.139837
0.139893
0.139986
0.140079
0.140165
0.140238
0.140303
0.140352
0.140376
0.140364
0.140313
0.140247
0.14024
0.140306
0.140358
0.140371
0.140348
0.140298
0.140231
0.140151
0.14005
0.139947
0.139856
0.139823
0.139835
0.139873
0.139932
0.140001
0.140064
0.140117
0.140159
0.140193
0.140222
0.140247
0.14027
0.140293
0.140317
0.140341
0.140367
0.140395
0.140425
0.140456
0.140488
0.140522
0.140557
0.140594
0.140631
0.140669
0.140707
0.140746
0.140786
0.140827
0.140868
0.140909
0.14095
0.140991
0.141033
0.141075
0.141118
0.141161
0.141206
0.141252
0.141299
0.141349
0.141401
0.141455
0.141512
0.14157
0.141629
0.14169
0.141752
0.141815
0.141879
0.141942
0.142007
0.142071
0.142135
0.142199
0.142263
0.142326
0.142388
0.142449
0.142509
0.142568
0.142625
0.142681
0.142736
0.14279
0.142813
0.140202
0.140158
0.140099
0.140032
0.139957
0.13988
0.139819
0.13977
0.13974
0.139745
0.13979
0.139879
0.139978
0.140078
0.140169
0.140251
0.140322
0.140379
0.140415
0.140422
0.140394
0.140333
0.140258
0.140239
0.140319
0.140382
0.140411
0.140404
0.140366
0.140307
0.140231
0.140138
0.140034
0.13992
0.139806
0.13974
0.139719
0.139734
0.139776
0.139833
0.139909
0.139985
0.140053
0.140111
0.14016
0.140201
0.140235
0.140266
0.140293
0.140319
0.140344
0.140369
0.140395
0.140421
0.140449
0.140478
0.140508
0.140539
0.140571
0.140604
0.140638
0.140673
0.140708
0.140744
0.140782
0.14082
0.140859
0.140899
0.14094
0.140982
0.141025
0.141068
0.141112
0.141158
0.141204
0.141252
0.141301
0.141351
0.141403
0.141455
0.141509
0.141562
0.141616
0.141671
0.141725
0.141779
0.141833
0.141886
0.141938
0.14199
0.14204
0.14209
0.142138
0.142186
0.142232
0.142276
0.14232
0.142362
0.142404
0.142417
0.139894
0.139841
0.139777
0.139717
0.139664
0.139626
0.139612
0.139624
0.13967
0.139756
0.139878
0.139988
0.14009
0.140184
0.140269
0.140343
0.140404
0.140447
0.140466
0.140454
0.140407
0.140325
0.140216
0.140195
0.140306
0.140389
0.140436
0.140447
0.140427
0.140381
0.140316
0.140235
0.140139
0.140029
0.139904
0.139771
0.139671
0.13961
0.139585
0.139591
0.139622
0.13967
0.139728
0.139792
0.139864
0.139936
0.140004
0.140065
0.14012
0.140169
0.140213
0.140251
0.140287
0.140318
0.140348
0.140376
0.140404
0.140431
0.140459
0.140488
0.140517
0.140548
0.140579
0.140611
0.140644
0.140679
0.140714
0.140751
0.140788
0.140827
0.140866
0.140907
0.140948
0.14099
0.141032
0.141075
0.141119
0.141164
0.141208
0.141254
0.141299
0.141344
0.14139
0.141434
0.141479
0.141523
0.141566
0.141608
0.141649
0.141689
0.141728
0.141766
0.141803
0.141839
0.141874
0.141907
0.14194
0.141971
0.142002
0.142004
0.13953
0.139493
0.139468
0.139459
0.13947
0.139508
0.139577
0.139678
0.139791
0.139909
0.140026
0.140127
0.140219
0.140302
0.140375
0.140435
0.140479
0.140502
0.140498
0.140463
0.140392
0.140283
0.140143
0.140131
0.140262
0.140369
0.140438
0.140472
0.140474
0.140448
0.1404
0.140334
0.140253
0.140158
0.140049
0.139925
0.139794
0.139662
0.139554
0.139477
0.139432
0.139413
0.139417
0.139439
0.139475
0.139521
0.139574
0.139631
0.139689
0.139747
0.139807
0.13987
0.139936
0.140001
0.140064
0.140123
0.140177
0.140228
0.140274
0.140316
0.140354
0.14039
0.140425
0.140458
0.140492
0.140525
0.140559
0.140593
0.140628
0.140663
0.140699
0.140735
0.140772
0.140809
0.140846
0.140884
0.140921
0.140959
0.140996
0.141033
0.14107
0.141106
0.141141
0.141176
0.14121
0.141243
0.141275
0.141306
0.141335
0.141364
0.141392
0.141418
0.141444
0.141468
0.141492
0.141515
0.141538
0.14156
0.141582
0.141577
0.139264
0.13927
0.139318
0.139393
0.139494
0.139616
0.139741
0.139863
0.139979
0.140086
0.140185
0.140272
0.140349
0.140416
0.140471
0.140511
0.140532
0.140529
0.140498
0.140434
0.140335
0.1402
0.140053
0.140049
0.140189
0.14032
0.140415
0.140475
0.140501
0.1405
0.140476
0.14043
0.140369
0.140294
0.140206
0.140106
0.139993
0.139869
0.139738
0.139607
0.139479
0.139372
0.139291
0.139237
0.139206
0.139194
0.139197
0.139213
0.139239
0.139273
0.139314
0.139361
0.139413
0.139469
0.139529
0.139591
0.139651
0.13971
0.13977
0.139841
0.139918
0.139995
0.140068
0.140136
0.140198
0.140254
0.140305
0.140352
0.140396
0.140437
0.140476
0.140514
0.14055
0.140585
0.140619
0.140652
0.140684
0.140715
0.140745
0.140774
0.140801
0.140828
0.140853
0.140878
0.140901
0.140923
0.140944
0.140964
0.140983
0.141001
0.141019
0.141036
0.141052
0.141068
0.141084
0.1411
0.141116
0.141132
0.141148
0.141137
0.139335
0.139399
0.139504
0.139624
0.139748
0.13987
0.139985
0.140091
0.140187
0.140276
0.140355
0.140423
0.140481
0.140526
0.140557
0.14057
0.140562
0.140529
0.140467
0.140373
0.140243
0.140081
0.139938
0.139925
0.140035
0.140205
0.140338
0.14043
0.140488
0.140516
0.140519
0.1405
0.140462
0.140409
0.140343
0.140265
0.140175
0.140073
0.13996
0.139836
0.139701
0.139558
0.139409
0.139264
0.13914
0.139042
0.138969
0.138919
0.138888
0.138873
0.13887
0.138878
0.138894
0.138919
0.138952
0.138991
0.139035
0.139082
0.139132
0.139188
0.139247
0.139309
0.139371
0.139435
0.139505
0.139587
0.139674
0.139759
0.139838
0.13991
0.139975
0.140033
0.140084
0.14013
0.14017
0.140206
0.140237
0.140266
0.14029
0.140313
0.140332
0.140349
0.140365
0.140379
0.140391
0.140402
0.140413
0.140423
0.140432
0.140441
0.14045
0.140459
0.140468
0.140477
0.140486
0.140496
0.140506
0.140517
0.140525
0.140485
0.13945
0.139541
0.13967
0.139806
0.139932
0.140045
0.140147
0.140238
0.14032
0.140391
0.140454
0.140503
0.140538
0.140557
0.140559
0.140541
0.140498
0.140427
0.140322
0.14018
0.140003
0.13983
0.139737
0.139747
0.139858
0.140061
0.140233
0.140361
0.14045
0.140508
0.14054
0.140548
0.140535
0.140506
0.140462
0.140405
0.140337
0.140257
0.140166
0.140063
0.139948
0.13982
0.139678
0.139525
0.139364
0.1392
0.139036
0.138884
0.138755
0.138652
0.138574
0.138515
0.138472
0.138444
0.138427
0.138419
0.138421
0.138429
0.138442
0.13846
0.138483
0.13851
0.138541
0.138574
0.138612
0.138653
0.138697
0.138741
0.138783
0.138824
0.138862
0.138905
0.138957
0.139011
0.139064
0.139113
0.139156
0.139195
0.139228
0.139257
0.139281
0.139302
0.13932
0.139335
0.139349
0.139361
0.139373
0.139384
0.139396
0.139407
0.13942
0.139433
0.139447
0.139461
0.139476
0.139492
0.139507
0.139523
0.139534
0.139492
0.139824
0.139931
0.140044
0.140153
0.140252
0.14034
0.140417
0.140484
0.14054
0.140586
0.140622
0.140643
0.140649
0.140639
0.140609
0.140554
0.140472
0.140358
0.140208
0.140022
0.139807
0.139594
0.139478
0.139453
0.139516
0.139649
0.139828
0.140022
0.140178
0.140293
0.140373
0.140419
0.140439
0.140436
0.140415
0.140377
0.140324
0.140256
0.140175
0.140079
0.139965
0.139831
0.139674
0.139493
0.139291
0.139082
0.138879
0.138692
0.138522
0.138372
0.138243
0.138132
0.138038
0.137958
0.13789
0.137834
0.137788
0.13775
0.137718
0.137694
0.137675
0.137662
0.137653
0.137647
0.137643
0.137643
0.137643
0.137643
0.137644
0.137643
0.137642
0.137641
0.13764
0.13764
0.137639
0.137637
0.137635
0.137634
0.137636
0.13764
0.137645
0.137652
0.137659
0.137667
0.137675
0.137685
0.137695
0.137707
0.13772
0.137734
0.137749
0.137764
0.13778
0.137795
0.13781
0.137823
0.137835
0.137845
0.137847
0.137795
0.139469
0.139474
0.139539
0.13962
0.139703
0.139784
0.139863
0.139934
0.139994
0.140044
0.140089
0.140093
0.140062
0.139994
0.139897
0.139779
0.139651
0.139518
0.139379
0.139236
0.139102
0.139
0.138959
0.13899
0.139101
0.139305
0.139533
0.13975
0.139938
0.140094
0.140216
0.140304
0.140363
0.140397
0.140408
0.140398
0.140369
0.140323
0.14026
0.14018
0.140082
0.139966
0.139829
0.139673
0.1395
0.139314
0.13912
0.138919
0.138715
0.138509
0.138307
0.138115
0.137942
0.137791
0.137659
0.137543
0.137441
0.13735
0.137268
0.137194
0.137126
0.137063
0.137005
0.13695
0.136897
0.136846
0.136797
0.136749
0.136702
0.136654
0.136608
0.136561
0.136514
0.136469
0.136423
0.136378
0.136333
0.136289
0.136245
0.136203
0.13616
0.136119
0.136078
0.136037
0.135996
0.135956
0.135917
0.135878
0.135842
0.135812
0.135795
0.13579
0.135793
0.135801
0.135813
0.135826
0.135838
0.135848
0.135848
0.135789
0.13968
0.139688
0.139713
0.139747
0.139784
0.13982
0.139851
0.139876
0.139891
0.139891
0.139875
0.139837
0.139774
0.139686
0.139578
0.139454
0.139317
0.139172
0.139021
0.138866
0.138707
0.138548
0.138394
0.138267
0.138226
0.138256
0.13833
0.138427
0.138535
0.138643
0.138742
0.138828
0.138896
0.138948
0.138982
0.139
0.139001
0.138987
0.138958
0.138914
0.138856
0.138785
0.138701
0.138604
0.138496
0.138377
0.138249
0.138113
0.13797
0.137821
0.13767
0.13752
0.137374
0.137234
0.1371
0.136973
0.136852
0.136736
0.136626
0.13652
0.136418
0.136318
0.136222
0.136128
0.136037
0.135947
0.135858
0.135771
0.135686
0.135602
0.135519
0.135438
0.135359
0.135281
0.135204
0.135129
0.135056
0.134983
0.134912
0.134841
0.134772
0.134703
0.134634
0.134565
0.134496
0.134426
0.134355
0.134283
0.134211
0.134137
0.134063
0.133989
0.133913
0.133835
0.133755
0.133673
0.133588
0.1335
0.133409
0.133321
0.138112
0.138146
0.138174
0.138182
0.138168
0.138145
0.138118
0.138089
0.138051
0.138
0.137933
0.137868
0.137801
0.137732
0.137663
0.137597
0.13754
0.137495
0.137469
0.137464
0.137481
0.137514
0.137556
0.137607
0.137668
0.137739
0.137819
0.137904
0.137995
0.138086
0.138175
0.138257
0.138332
0.138399
0.138455
0.138502
0.138537
0.138561
0.138574
0.138576
0.138567
0.138548
0.138519
0.138481
0.138434
0.138378
0.138313
0.13824
0.13816
0.138071
0.137974
0.137871
0.137761
0.137644
0.137522
0.137393
0.137258
0.137117
0.136971
0.136819
0.136666
0.136508
0.136345
0.136174
0.135993
0.135805
0.135615
0.135426
0.135243
0.135065
0.134894
0.134729
0.13457
0.134418
0.13427
0.134126
0.133987
0.133851
0.133718
0.133586
0.133458
0.13333
0.133203
0.133077
0.132951
0.132825
0.1327
0.132575
0.132452
0.13233
0.132208
0.132087
0.131966
0.131845
0.131722
0.131597
0.131471
0.131345
0.131219
0.131101
0.137866
0.137837
0.137801
0.137759
0.137715
0.13767
0.137627
0.137584
0.137543
0.137504
0.137466
0.137432
0.1374
0.137369
0.137341
0.137317
0.137297
0.137283
0.137275
0.137273
0.137275
0.13728
0.137286
0.137291
0.137291
0.137287
0.137278
0.137264
0.137245
0.137219
0.13719
0.137165
0.137146
0.137132
0.137119
0.137106
0.137088
0.137066
0.137039
0.13701
0.136978
0.136939
0.136893
0.136842
0.136785
0.136723
0.136656
0.136587
0.136511
0.136429
0.136341
0.136248
0.13615
0.136047
0.135939
0.135828
0.135712
0.135592
0.135469
0.135341
0.135208
0.135073
0.134939
0.134807
0.134678
0.134545
0.134412
0.134282
0.134154
0.134031
0.133908
0.133788
0.133675
0.133562
0.133451
0.133341
0.133234
0.133131
0.133028
0.132926
0.132827
0.132727
0.132626
0.132524
0.132422
0.132319
0.132216
0.132112
0.132007
0.131902
0.131796
0.131689
0.131581
0.131471
0.131357
0.131236
0.131098
0.130938
0.130753
0.130566
0.139542
0.139871
0.140139
0.140343
0.140492
0.140598
0.140667
0.140705
0.140712
0.140691
0.140681
0.140659
0.14063
0.140598
0.140564
0.140529
0.140494
0.140458
0.140422
0.140386
0.140349
0.140312
0.140273
0.140233
0.140191
0.140147
0.140101
0.140052
0.139998
0.139937
0.139871
0.139834
0.139783
0.13973
0.139674
0.139616
0.139555
0.139491
0.139425
0.139354
0.13928
0.139202
0.139121
0.139037
0.13895
0.138857
0.13876
0.138658
0.138553
0.138441
0.138323
0.138198
0.138067
0.137929
0.137785
0.137635
0.137481
0.137325
0.137167
0.13701
0.136848
0.136686
0.136536
0.136366
0.136187
0.135995
0.135792
0.135579
0.135352
0.135111
0.13486
0.134594
0.134314
0.134027
0.133739
0.133447
0.13316
0.132875
0.132593
0.132314
0.132039
0.131767
0.131496
0.131226
0.130956
0.130686
0.130414
0.130142
0.129869
0.129593
0.129316
0.129035
0.128751
0.128461
0.128169
0.127875
0.12758
0.127293
0.127031
0.126821
0.124016
0.123014
0.12255
0.122377
0.12235
0.122376
0.122337
0.122131
0.121758
0.121304
0.121595
0.121015
0.120339
0.119702
0.1191
0.118527
0.117979
0.117456
0.116954
0.116473
0.116015
0.115579
0.115166
0.114775
0.114404
0.114052
0.113714
0.113389
0.113074
0.112775
0.112606
0.113087
0.1128
0.112508
0.112209
0.111901
0.111586
0.111263
0.110933
0.110596
0.110253
0.109905
0.10955
0.109191
0.108827
0.108459
0.108086
0.107709
0.107329
0.106945
0.106558
0.106168
0.105776
0.105381
0.104986
0.104593
0.104201
0.10381
0.103421
0.103034
0.102649
0.10245
0.102619
0.102345
0.102048
0.101738
0.101417
0.101084
0.100741
0.100389
0.100028
0.0996588
0.0992823
0.0988991
0.0985101
0.0981158
0.0977168
0.0973136
0.0969068
0.0964965
0.0960832
0.0956672
0.0952485
0.0948274
0.0944039
0.0939781
0.09355
0.0931198
0.0926879
0.0922553
0.0918235
0.0913944
0.0909711
0.0905585
0.090164
0.0897992
0.0894819
0.0892408
0.0891205
0.0891965
0.415434
0.429577
0.442947
0.455603
0.467616
0.479046
0.489945
0.500356
0.51032
0.519871
0.529037
0.537847
0.546325
0.554491
0.562367
0.569969
0.57733
0.584425
0.591288
0.597939
0.604389
0.610649
0.616729
0.622637
0.628384
0.633976
0.639422
0.644729
0.649905
0.654958
0.659892
0.664716
0.669364
0.673825
0.678349
0.682789
0.68715
0.691437
0.695655
0.69981
0.703907
0.707952
0.711949
0.715904
0.719823
0.72371
0.727571
0.731223
0.734777
0.738617
0.742454
0.74629
0.750129
0.753976
0.757836
0.761712
0.765609
0.76953
0.773479
0.777061
0.780716
0.78489
0.789103
0.793353
0.797642
0.80197
0.806339
0.809659
0.814788
0.819234
0.159748
0.160591
0.161536
0.162565
0.163671
0.164846
0.166084
0.167379
0.168728
0.170127
0.171575
0.17307
0.174609
0.176191
0.177815
0.179479
0.181188
0.182927
0.184701
0.186513
0.188362
0.190245
0.192163
0.194114
0.196096
0.19811
0.200154
0.202227
0.204329
0.20646
0.20862
0.210808
0.212993
0.215173
0.217461
0.219783
0.222136
0.224518
0.22693
0.229371
0.23184
0.234339
0.236869
0.23943
0.242024
0.244653
0.247321
0.249931
0.252561
0.255426
0.258348
0.261327
0.26437
0.267485
0.270681
0.27397
0.277364
0.280879
0.28453
0.288098
0.291929
0.296313
0.300912
0.305742
0.310829
0.316202
0.321889
0.32723
0.334344
0.341224
0.145822
0.145828
0.145846
0.145872
0.145904
0.145939
0.145975
0.14601
0.146046
0.14608
0.146115
0.14615
0.146186
0.146224
0.146264
0.146307
0.146353
0.146402
0.146454
0.146509
0.146568
0.14663
0.146695
0.146763
0.146833
0.146907
0.146983
0.147062
0.147142
0.147225
0.147309
0.147395
0.147478
0.147555
0.147643
0.14773
0.147817
0.147904
0.147991
0.148079
0.148168
0.14826
0.148355
0.148453
0.148555
0.148661
0.148773
0.148871
0.148968
0.149106
0.149256
0.149415
0.149585
0.149768
0.149964
0.150175
0.150404
0.150654
0.150929
0.151172
0.151466
0.151886
0.152361
0.152899
0.153513
0.154219
0.155038
0.155799
0.157143
0.158533
0.143775
0.143723
0.14367
0.143619
0.143569
0.143522
0.143478
0.143436
0.143396
0.143359
0.143323
0.143287
0.143252
0.143216
0.14318
0.143145
0.14311
0.143075
0.143042
0.143009
0.142978
0.142948
0.14292
0.142893
0.142866
0.142841
0.142815
0.14279
0.142766
0.142741
0.142717
0.142693
0.142669
0.142645
0.142621
0.142598
0.142574
0.142551
0.142527
0.142504
0.14248
0.142455
0.14243
0.142404
0.142377
0.142349
0.14232
0.142288
0.142253
0.142219
0.142185
0.142149
0.142112
0.142075
0.142036
0.141996
0.141955
0.141913
0.14187
0.141821
0.14177
0.141725
0.141682
0.141641
0.141605
0.141573
0.141549
0.141515
0.14153
0.141553
0.143334
0.143291
0.143248
0.143205
0.143162
0.143119
0.143076
0.143033
0.142991
0.14295
0.142909
0.142869
0.142831
0.142794
0.142758
0.142722
0.142687
0.142651
0.142616
0.142581
0.142545
0.14251
0.142475
0.14244
0.142406
0.142372
0.142338
0.142306
0.142274
0.142243
0.142213
0.142184
0.142155
0.142128
0.1421
0.142074
0.142048
0.142022
0.141997
0.141972
0.141948
0.141924
0.1419
0.141876
0.141853
0.14183
0.141808
0.141786
0.141764
0.141741
0.141718
0.141696
0.141673
0.141651
0.141629
0.141607
0.141586
0.141565
0.141545
0.141525
0.141505
0.141485
0.141466
0.141448
0.141433
0.14142
0.14141
0.141403
0.141402
0.141407
0.143084
0.143049
0.143014
0.14298
0.142946
0.14291
0.142874
0.142837
0.1428
0.142762
0.142725
0.142689
0.142654
0.142619
0.142586
0.142553
0.142521
0.142489
0.142457
0.142424
0.142392
0.142359
0.142326
0.142293
0.14226
0.142227
0.142195
0.142163
0.142132
0.142101
0.142071
0.142042
0.142013
0.141986
0.141958
0.141931
0.141905
0.141879
0.141853
0.141828
0.141804
0.141779
0.141755
0.141732
0.141708
0.141686
0.141664
0.141642
0.14162
0.141598
0.141576
0.141554
0.141532
0.14151
0.141489
0.141468
0.141447
0.141427
0.141409
0.141391
0.141372
0.141354
0.141337
0.141321
0.141307
0.141296
0.141288
0.141282
0.141282
0.141287
0.142712
0.142683
0.142656
0.14263
0.142603
0.142575
0.142546
0.142515
0.142483
0.14245
0.142417
0.142385
0.142352
0.142321
0.14229
0.142261
0.142232
0.142203
0.142174
0.142145
0.142116
0.142086
0.142056
0.142025
0.141995
0.141964
0.141933
0.141903
0.141872
0.141843
0.141814
0.141785
0.141758
0.141731
0.141705
0.141679
0.141654
0.141629
0.141605
0.141582
0.141558
0.141536
0.141513
0.141491
0.141469
0.141448
0.141427
0.141407
0.141386
0.141365
0.141344
0.141322
0.141301
0.141279
0.141258
0.141236
0.141216
0.141196
0.141177
0.141159
0.14114
0.141121
0.141103
0.141087
0.141072
0.141059
0.14105
0.141043
0.141042
0.141045
0.142334
0.142309
0.142286
0.142265
0.142244
0.142221
0.142197
0.142171
0.142144
0.142115
0.142086
0.142057
0.142027
0.141998
0.141969
0.141941
0.141913
0.141886
0.14186
0.141834
0.141808
0.141781
0.141754
0.141726
0.141697
0.141668
0.141639
0.141609
0.141579
0.141549
0.141519
0.14149
0.141462
0.141435
0.141408
0.141381
0.141355
0.14133
0.141304
0.141279
0.141254
0.14123
0.141205
0.141181
0.141158
0.141135
0.141112
0.14109
0.141068
0.141046
0.141024
0.141002
0.14098
0.140959
0.140938
0.140917
0.140897
0.140878
0.14086
0.140842
0.140824
0.140804
0.140786
0.140769
0.140754
0.140742
0.140734
0.140728
0.140726
0.140729
0.141942
0.141922
0.141904
0.141887
0.141871
0.141853
0.141834
0.141813
0.14179
0.141765
0.14174
0.141714
0.141689
0.141665
0.141641
0.141616
0.14159
0.141564
0.141538
0.141513
0.141488
0.141464
0.141439
0.141415
0.141392
0.141368
0.141345
0.141322
0.1413
0.141278
0.141258
0.141238
0.141218
0.141199
0.14118
0.141161
0.141143
0.141125
0.141106
0.141088
0.141069
0.141049
0.141029
0.141008
0.140988
0.140967
0.140945
0.140924
0.140902
0.140881
0.140861
0.140842
0.140824
0.140806
0.140789
0.140772
0.140756
0.140739
0.140722
0.140706
0.14069
0.140673
0.140658
0.140643
0.14063
0.140618
0.140609
0.140603
0.140601
0.140603
0.141533
0.141519
0.141506
0.141492
0.141478
0.141465
0.141449
0.141431
0.141411
0.141389
0.141367
0.141347
0.141327
0.141307
0.141286
0.141264
0.141242
0.141218
0.141194
0.14117
0.141146
0.141123
0.141102
0.141082
0.141063
0.141046
0.14103
0.141016
0.141002
0.140989
0.140977
0.140964
0.140952
0.140938
0.140924
0.14091
0.140896
0.140881
0.140866
0.14085
0.140835
0.140819
0.140803
0.140787
0.140771
0.140755
0.140739
0.140723
0.140708
0.140692
0.140676
0.14066
0.140645
0.14063
0.140614
0.140599
0.140584
0.140569
0.140555
0.140541
0.140526
0.140511
0.140496
0.140481
0.140466
0.140452
0.14044
0.140429
0.140424
0.140424
0.141108
0.1411
0.141091
0.141079
0.141066
0.141052
0.141037
0.14102
0.141001
0.140981
0.140963
0.140945
0.140928
0.140911
0.140892
0.140872
0.140852
0.140831
0.140809
0.140788
0.140767
0.140747
0.140729
0.140711
0.140695
0.140681
0.140668
0.140656
0.140644
0.140632
0.14062
0.140608
0.140596
0.140583
0.14057
0.140557
0.140543
0.140529
0.140514
0.140499
0.140484
0.140469
0.140454
0.140439
0.140423
0.140408
0.140393
0.140378
0.140363
0.140347
0.140332
0.140316
0.140301
0.140286
0.14027
0.140255
0.14024
0.140225
0.140211
0.140196
0.140181
0.140166
0.14015
0.140134
0.140119
0.140104
0.14009
0.140076
0.140068
0.140068
0.14047
0.140471
0.140468
0.14046
0.140448
0.140432
0.140415
0.140398
0.14038
0.140364
0.140348
0.140333
0.140318
0.140302
0.140285
0.140267
0.140248
0.140229
0.14021
0.140191
0.140173
0.140155
0.140138
0.140122
0.140107
0.140093
0.140079
0.140065
0.140052
0.140039
0.140026
0.140012
0.139999
0.139985
0.139971
0.139957
0.139942
0.139927
0.139912
0.139897
0.139881
0.139865
0.139849
0.139833
0.139817
0.139801
0.139785
0.13977
0.139754
0.139738
0.139722
0.139706
0.13969
0.139674
0.139658
0.139642
0.139626
0.13961
0.139595
0.13958
0.139565
0.139549
0.139533
0.139517
0.139501
0.139485
0.139472
0.139456
0.139446
0.139444
0.139481
0.139487
0.139487
0.139479
0.139466
0.13945
0.139433
0.139416
0.139399
0.139383
0.139368
0.139354
0.139339
0.139324
0.139307
0.139288
0.139269
0.13925
0.139231
0.139211
0.139193
0.139176
0.139159
0.139144
0.139129
0.139116
0.139103
0.13909
0.139078
0.139066
0.139054
0.139042
0.13903
0.139017
0.139005
0.138992
0.138979
0.138965
0.138952
0.138938
0.138924
0.13891
0.138895
0.138881
0.138866
0.138852
0.138838
0.138824
0.13881
0.138796
0.138783
0.138769
0.138756
0.138742
0.138729
0.138716
0.138702
0.138689
0.138677
0.138665
0.138652
0.138639
0.138626
0.138613
0.138599
0.138586
0.138574
0.138559
0.138549
0.138545
0.137768
0.137773
0.137775
0.137772
0.137765
0.137757
0.137748
0.137741
0.137734
0.137728
0.137722
0.137717
0.13771
0.137702
0.137691
0.137679
0.137666
0.137653
0.13764
0.137627
0.137615
0.137603
0.137593
0.137584
0.137576
0.137568
0.137562
0.137556
0.13755
0.137544
0.137539
0.137533
0.137526
0.13752
0.137513
0.137506
0.1375
0.137493
0.137486
0.137479
0.137472
0.137464
0.137456
0.137449
0.137441
0.137433
0.137425
0.137417
0.137408
0.137401
0.137394
0.137387
0.137381
0.137375
0.137368
0.137362
0.137355
0.137349
0.137342
0.137335
0.137328
0.137322
0.137316
0.137309
0.137301
0.137292
0.137282
0.137266
0.137253
0.137243
0.135737
0.135738
0.135737
0.135733
0.135729
0.135725
0.135722
0.135717
0.135712
0.135706
0.135699
0.13569
0.135681
0.13567
0.135658
0.135645
0.135632
0.135619
0.135606
0.135593
0.135582
0.135571
0.135561
0.135552
0.135545
0.135539
0.135535
0.135532
0.13553
0.135528
0.135526
0.135523
0.135519
0.135513
0.135509
0.135505
0.135502
0.135499
0.135497
0.135494
0.135492
0.13549
0.135488
0.135485
0.135481
0.135476
0.135469
0.135461
0.135453
0.135447
0.135444
0.135442
0.135442
0.135443
0.135444
0.135446
0.135447
0.135447
0.135446
0.135442
0.135439
0.13544
0.135442
0.135444
0.135443
0.135439
0.135433
0.135417
0.135408
0.135399
0.133244
0.133242
0.133241
0.133241
0.13324
0.133239
0.133238
0.133237
0.133236
0.133234
0.133232
0.13323
0.133227
0.133223
0.13322
0.133216
0.133212
0.133208
0.133203
0.133199
0.133195
0.133191
0.133187
0.133183
0.13318
0.133177
0.133174
0.133172
0.133169
0.133167
0.133164
0.133162
0.133158
0.133154
0.13315
0.133146
0.133143
0.133139
0.133136
0.133134
0.133131
0.133129
0.133127
0.133125
0.133123
0.133121
0.133119
0.133114
0.133109
0.133105
0.133102
0.1331
0.133099
0.133098
0.133098
0.133099
0.133099
0.1331
0.133099
0.133094
0.13309
0.133089
0.13309
0.133092
0.133094
0.133095
0.133094
0.133081
0.133076
0.133066
0.131015
0.130998
0.130983
0.130968
0.130953
0.130939
0.130924
0.130909
0.130894
0.130879
0.130865
0.13085
0.130836
0.130821
0.130807
0.130793
0.130778
0.130764
0.13075
0.130735
0.13072
0.130706
0.130691
0.130678
0.130664
0.130651
0.130638
0.130626
0.130614
0.130603
0.130591
0.13058
0.130567
0.130554
0.13054
0.130528
0.130515
0.130504
0.130493
0.130482
0.130473
0.130464
0.130456
0.130448
0.130441
0.130433
0.130425
0.130414
0.130401
0.13039
0.13038
0.130372
0.130365
0.13036
0.130355
0.130352
0.130349
0.130346
0.130341
0.130331
0.130319
0.130312
0.130308
0.130306
0.130305
0.130303
0.130298
0.130277
0.130265
0.130245
0.130371
0.130304
0.130241
0.130178
0.130115
0.130052
0.129989
0.129927
0.129865
0.129804
0.129743
0.129683
0.129624
0.129565
0.129506
0.129447
0.129389
0.12933
0.129272
0.129213
0.129154
0.129096
0.129038
0.12898
0.128922
0.128865
0.128809
0.128753
0.128697
0.128641
0.128587
0.128532
0.128476
0.128417
0.128357
0.128298
0.128241
0.128184
0.128128
0.128073
0.128019
0.127967
0.127915
0.127866
0.127817
0.12777
0.127723
0.127671
0.127613
0.127556
0.127502
0.127451
0.127402
0.127356
0.127312
0.127271
0.127233
0.127195
0.127158
0.12711
0.127055
0.127005
0.126962
0.126925
0.126892
0.126862
0.126833
0.126773
0.126732
0.126687
0.125665
0.125499
0.125393
0.12529
0.125185
0.125078
0.124969
0.124859
0.124747
0.124633
0.124518
0.124402
0.124286
0.124168
0.12405
0.123931
0.123813
0.123694
0.123574
0.123453
0.123332
0.123212
0.123092
0.122972
0.122852
0.122732
0.122613
0.122495
0.122378
0.122263
0.122148
0.122035
0.121915