/*--------------------------------*- C++ -*----------------------------------*\
  =========                 |
  \\      /  F ield         | OpenFOAM: The Open Source CFD Toolbox
   \\    /   O peration     | Website:  https://openfoam.org
    \\  /    A nd           | Version:  6.0
     \\/     M anipulation  |
\*---------------------------------------------------------------------------*/
FoamFile
{
    version     2.0;
    format      ascii;
    class       volVectorField;
    location    "500";
    object      U;
}
// * * * * * * * * * * * * * * * * * * * * * * * * * * * * * * * * * * * * * //

dimensions      [0 1 -1 0 0 0 0];

internalField   nonuniform List<vector> 
9800
(
(18.3584 5.4016 -1.86695e-15)
(18.5434 5.28641 -1.24359e-15)
(18.6846 5.15861 3.35871e-15)
(18.8032 5.02426 1.45558e-15)
(18.9056 4.88759 -4.10619e-15)
(18.9967 4.75139 2.53029e-15)
(19.0795 4.61703 -1.03945e-15)
(19.1559 4.48517 -1.12313e-15)
(19.2271 4.35596 2.15272e-15)
(19.2942 4.22919 -1.45158e-15)
(19.3584 4.10549 7.04156e-16)
(19.4201 3.98413 9.40138e-17)
(19.4793 3.8652 -9.00105e-16)
(19.5361 3.74851 6.44927e-16)
(19.5906 3.63394 -2.42075e-16)
(19.6427 3.5214 -1.04002e-16)
(19.6919 3.4109 -1.82087e-16)
(19.7378 3.30254 4.24097e-16)
(19.7794 3.19663 -8.06247e-16)
(19.8152 3.09385 -1.91645e-16)
(19.8431 2.99573 1.29274e-15)
(19.8599 2.90608 3.89931e-16)
(19.8637 2.83203 -3.15013e-16)
(19.8719 2.76998 -2.65527e-16)
(19.888 2.69819 -1.68292e-15)
(19.8963 2.60788 2.38595e-15)
(19.8964 2.50619 1.31568e-16)
(19.8901 2.39771 -3.38901e-15)
(19.8791 2.28461 -1.28384e-16)
(19.8647 2.16796 3.25121e-15)
(19.8478 2.04812 -9.42079e-16)
(19.8292 1.92605 -1.3555e-15)
(19.8092 1.8013 1.46751e-15)
(19.7878 1.67384 1.10841e-15)
(19.7653 1.54363 1.73233e-15)
(19.7417 1.41057 -2.32832e-15)
(19.7171 1.27449 3.47414e-16)
(19.6915 1.1352 -1.04867e-15)
(19.6647 0.992443 -4.79482e-16)
(19.6367 0.845943 -1.16869e-15)
(19.6074 0.695391 1.43365e-15)
(19.5766 0.540427 1.08581e-15)
(19.5442 0.380654 9.90006e-16)
(19.5099 0.21562 1.22496e-15)
(19.4736 0.0448145 -6.38058e-15)
(19.4349 -0.132348 1.70809e-15)
(19.3936 -0.316534 4.46029e-15)
(19.3492 -0.508513 -2.49236e-15)
(19.3014 -0.709171 -1.77113e-15)
(19.2495 -0.919547 2.18809e-15)
(19.1929 -1.14086 -5.86398e-15)
(19.1306 -1.37454 -3.98184e-16)
(19.0614 -1.62232 4.82371e-15)
(18.9834 -1.88628 -1.01383e-16)
(18.8942 -2.16897 -3.22887e-16)
(18.7897 -2.47359 -3.85846e-15)
(18.6639 -2.80423 6.1977e-15)
(18.5072 -3.16636 -3.59026e-15)
(18.3036 -3.56777 -5.00567e-16)
(18.0251 -4.02018 2.58729e-15)
(17.6306 -4.54306 2.25986e-15)
(17.0066 -5.18343 -4.44071e-15)
(16.1205 -5.96133 2.30908e-15)
(14.0106 -7.53641 -3.50364e-15)
(12.1462 -8.50475 4.41425e-15)
(10.1519 -9.53934 -3.36364e-15)
(9.41551 -8.76644 7.98303e-15)
(9.1519 -8.50772 -7.72743e-15)
(9.00571 -8.20156 7.80489e-15)
(8.81912 -7.91423 -1.18195e-14)
(8.62234 -7.63825 5.62612e-15)
(8.44042 -7.39669 -1.01435e-15)
(8.26842 -7.18383 1.01424e-14)
(8.10193 -6.98864 -1.52549e-14)
(7.94583 -6.80493 2.72804e-15)
(7.80443 -6.62991 1.15808e-15)
(7.67575 -6.46061 2.84331e-16)
(7.5544 -6.29381 -2.87179e-15)
(7.43618 -6.12744 -1.25365e-15)
(7.31942 -5.96098 -4.43412e-15)
(7.20401 -5.79478 2.44915e-15)
(7.08995 -5.62922 -2.74161e-15)
(6.97676 -5.46421 5.77854e-15)
(6.86347 -5.29902 -4.50276e-16)
(6.74886 -5.13239 5.13294e-15)
(6.63169 -4.96271 -1.10696e-15)
(6.51083 -4.78825 -3.55771e-15)
(6.38542 -4.60733 -2.49891e-15)
(6.25493 -4.41849 7.5709e-15)
(6.11924 -4.22058 -1.20117e-15)
(5.9785 -4.01272 -3.09458e-15)
(5.83302 -3.79426 2.81936e-15)
(5.68312 -3.56467 -3.40196e-15)
(5.529 -3.3234 4.66302e-15)
(5.37065 -3.06968 -7.68204e-16)
(5.20796 -2.80238 -8.13546e-16)
(5.04085 -2.51941 -2.13832e-15)
(4.8701 -2.21196 3.16891e-15)
(4.68972 -1.78045 -7.55915e-16)
(4.61723 -0.528531 4.18983e-17)
(14.5433 6.20441 1.61302e-15)
(14.6387 6.02521 1.08976e-15)
(14.7187 5.83673 -9.56157e-16)
(14.7943 5.64672 6.93755e-16)
(14.8633 5.45411 -1.99023e-15)
(14.9262 5.26043 9.67944e-16)
(14.9833 5.06634 -1.82863e-16)
(15.035 4.87256 2.29075e-15)
(15.0817 4.67953 -4.20887e-15)
(15.1236 4.48725 6.00591e-16)
(15.1611 4.2958 2.89566e-16)
(15.1954 4.10571 7.37881e-16)
(15.2259 3.91715 -1.11207e-16)
(15.2527 3.73005 -6.89685e-16)
(15.2757 3.54457 7.20539e-16)
(15.2946 3.36098 2.8504e-17)
(15.3091 3.1797 -3.75885e-16)
(15.3187 3.00146 6.85256e-16)
(15.3227 2.82732 -1.8381e-15)
(15.3202 2.65873 2.08031e-15)
(15.3106 2.49745 -8.34063e-16)
(15.2946 2.34713 -3.21888e-15)
(15.2796 2.21769 1.28989e-16)
(15.2936 2.10728 -4.02832e-16)
(15.3415 1.98792 4.62462e-15)
(15.3969 1.84876 -6.9939e-16)
(15.4496 1.69687 -3.23526e-15)
(15.4977 1.53574 -3.94661e-15)
(15.5413 1.36737 4.92055e-15)
(15.5808 1.19349 7.60279e-16)
(15.6166 1.01506 1.70894e-15)
(15.649 0.832862 3.24033e-15)
(15.6787 0.647544 -3.33646e-15)
(15.7058 0.459404 -3.46377e-16)
(15.7303 0.268537 -3.15568e-15)
(15.7524 0.074921 3.44672e-15)
(15.7721 -0.121553 1.48078e-15)
(15.7896 -0.321073 -3.24791e-15)
(15.8047 -0.523892 2.53483e-16)
(15.8176 -0.730327 -1.30474e-15)
(15.8281 -0.940737 7.00941e-16)
(15.8363 -1.15555 -7.59745e-15)
(15.842 -1.37524 1.4615e-14)
(15.845 -1.60036 -9.0727e-15)
(15.8454 -1.8315 -2.77236e-15)
(15.8428 -2.06935 2.81757e-15)
(15.837 -2.3147 -6.86879e-15)
(15.8279 -2.56841 3.79935e-15)
(15.8151 -2.8315 1.77552e-15)
(15.7983 -3.10513 7.52099e-15)
(15.7769 -3.39062 -1.10664e-14)
(15.7503 -3.68952 1.18104e-14)
(15.718 -4.00362 -7.48898e-17)
(15.679 -4.33501 -8.99517e-16)
(15.6323 -4.68613 -5.80934e-16)
(15.5764 -5.05986 -1.74909e-15)
(15.5097 -5.45948 -5.36795e-15)
(15.4301 -5.88874 2.63637e-15)
(15.3351 -6.3518 2.17102e-15)
(15.2203 -6.85234 2.24919e-16)
(15.0849 -7.39336 -2.78567e-15)
(14.9104 -7.97395 -1.16314e-15)
(14.7198 -8.57055 4.2813e-15)
(14.3867 -9.18047 -1.04055e-15)
(14.1325 -9.35704 -5.97204e-15)
(13.6622 -9.33327 6.94929e-15)
(13.2136 -8.97723 -6.40633e-15)
(12.6967 -8.57276 1.12836e-14)
(12.2341 -8.22435 -8.49066e-15)
(11.8323 -7.93116 -3.87131e-16)
(11.4626 -7.66146 1.19646e-14)
(11.1087 -7.40408 -5.28952e-15)
(10.7744 -7.15975 -2.9972e-15)
(10.4644 -6.9276 7.14718e-17)
(10.1761 -6.70377 -1.24066e-15)
(9.90396 -6.48535 3.42677e-15)
(9.6431 -6.2711 1.07609e-15)
(9.39105 -6.06045 -3.09652e-15)
(9.14699 -5.85269 5.09543e-15)
(8.91092 -5.64703 -2.19701e-15)
(8.68301 -5.44269 7.167e-16)
(8.46314 -5.23893 -8.91481e-17)
(8.2508 -5.03497 -5.27498e-15)
(8.04516 -4.83 -2.71347e-15)
(7.84522 -4.62316 2.41389e-15)
(7.65002 -4.4137 1.13446e-15)
(7.45875 -4.20097 1.73353e-15)
(7.27097 -3.98454 -4.17972e-15)
(7.0867 -3.76409 -6.91046e-16)
(6.90646 -3.53942 2.1005e-16)
(6.73112 -3.31032 -2.45071e-15)
(6.5618 -3.07652 7.02883e-15)
(6.39966 -2.83761 -5.61179e-15)
(6.24595 -2.59292 2.3104e-15)
(6.102 -2.34146 1.36983e-16)
(5.96939 -2.08181 1.28708e-15)
(5.84986 -1.81207 2.89454e-17)
(5.74779 -1.52982 -2.46161e-15)
(5.66696 -1.23486 2.35008e-16)
(5.67689 -0.901887 2.32248e-16)
(16.2844 5.88189 -3.89782e-15)
(16.3285 5.6793 1.74398e-15)
(16.3667 5.49411 -1.29171e-15)
(16.4029 5.31971 1.38107e-16)
(16.4358 5.15312 -5.48994e-16)
(16.4652 4.99219 2.56786e-15)
(16.4907 4.83514 -1.55483e-15)
(16.5119 4.68087 1.84747e-15)
(16.529 4.52874 -1.85818e-17)
(16.5419 4.37819 -3.16662e-15)
(16.5508 4.22796 2.53207e-15)
(16.5554 4.07949 -8.72961e-16)
(16.5555 3.93127 8.94568e-17)
(16.5512 3.78333 2.30381e-16)
(16.5425 3.63554 -2.1899e-16)
(16.5295 3.48769 -3.55929e-17)
(16.5122 3.33958 -3.52699e-16)
(16.4908 3.19087 3.46792e-16)
(16.4656 3.0411 9.99325e-16)
(16.4371 2.8895 -3.61221e-16)
(16.4067 2.73434 -5.32074e-17)
(16.3779 2.57273 -1.79101e-15)
(16.3615 2.40512 -2.23271e-15)
(16.3826 2.23993 3.6037e-15)
(16.4416 2.08244 -7.34927e-16)
(16.5117 1.93393 3.06491e-15)
(16.5822 1.79214 -2.88978e-15)
(16.65 1.65324 3.79266e-15)
(16.7144 1.5151 -6.17904e-15)
(16.7749 1.37679 2.12459e-15)
(16.8315 1.23793 -9.29244e-16)
(16.8837 1.09723 2.36893e-16)
(16.932 0.955721 2.88242e-15)
(16.9765 0.812688 8.74323e-16)
(17.0171 0.667903 2.38656e-15)
(17.0539 0.521225 -3.71535e-15)
(17.0868 0.372457 -1.27967e-15)
(17.1158 0.221362 4.66387e-15)
(17.1409 0.0676963 -2.32728e-15)
(17.1621 -0.0888149 2.75855e-15)
(17.1793 -0.248465 -1.76796e-15)
(17.1925 -0.411583 1.28308e-15)
(17.2013 -0.578525 -4.4257e-15)
(17.2057 -0.749686 -3.95504e-15)
(17.2055 -0.92549 3.9136e-15)
(17.2001 -1.1064 2.52791e-15)
(17.1894 -1.29293 4.2136e-15)
(17.1727 -1.48562 -5.4408e-15)
(17.1494 -1.68505 -8.37354e-16)
(17.1188 -1.89185 3.89562e-15)
(17.0799 -2.10667 -1.10896e-15)
(17.0315 -2.33018 4.92157e-15)
(16.9721 -2.56303 -1.05505e-15)
(16.8999 -2.80587 -3.43458e-15)
(16.8124 -3.0592 1.12114e-15)
(16.7067 -3.32335 -4.57106e-15)
(16.5788 -3.59835 7.77597e-15)
(16.4236 -3.88365 -3.04953e-15)
(16.2347 -4.17805 -2.97588e-15)
(16.0032 -4.47895 2.62192e-15)
(15.7189 -4.78247 -4.01856e-16)
(15.3661 -5.0813 -5.69207e-15)
(14.9325 -5.36698 4.51167e-15)
(14.3977 -5.61772 2.12085e-16)
(13.774 -5.81151 3.51178e-15)
(13.1283 -5.93392 -6.02621e-15)
(12.52 -5.99319 5.28427e-15)
(11.9898 -5.9966 -4.17371e-15)
(11.534 -5.96059 -4.78076e-15)
(11.1278 -5.89806 1.04061e-14)
(10.7558 -5.81281 -8.42318e-15)
(10.42 -5.71103 9.45399e-15)
(10.1197 -5.59722 4.20294e-15)
(9.84679 -5.47354 -1.32307e-14)
(9.59208 -5.3416 5.17407e-15)
(9.35033 -5.20371 3.23013e-16)
(9.11938 -5.06183 -4.67297e-15)
(8.89853 -4.9172 3.07749e-15)
(8.68755 -4.77049 4.58932e-15)
(8.486 -4.62192 -2.77681e-15)
(8.29314 -4.47152 -1.22021e-15)
(8.10821 -4.31928 2.05735e-15)
(7.93053 -4.16517 2.41013e-15)
(7.75955 -4.00914 -1.15039e-14)
(7.59479 -3.85108 5.85067e-15)
(7.43588 -3.69086 3.58732e-15)
(7.28266 -3.52826 -3.99733e-15)
(7.13529 -3.36308 -1.48483e-15)
(6.99429 -3.19503 3.68527e-15)
(6.86039 -3.02382 -4.35766e-15)
(6.7344 -2.84908 5.42638e-16)
(6.61708 -2.67046 4.70377e-15)
(6.50912 -2.48757 -1.10614e-15)
(6.41124 -2.30004 -6.79768e-16)
(6.32427 -2.10753 -1.98385e-15)
(6.24921 -1.9097 2.25073e-15)
(6.18763 -1.70636 3.46513e-16)
(6.14049 -1.49729 -1.66319e-15)
(6.11386 -1.28378 2.40575e-16)
(6.08219 -1.06579 -8.43076e-17)
(15.8034 5.47097 5.20571e-15)
(15.9446 5.32597 -3.32582e-15)
(16.066 5.18235 -5.15737e-17)
(16.1727 5.03864 4.18742e-15)
(16.2676 4.89628 -4.01611e-15)
(16.353 4.75567 -5.03253e-16)
(16.4304 4.61703 6.38671e-16)
(16.501 4.48042 7.98918e-17)
(16.5655 4.34576 -1.41185e-15)
(16.6248 4.21299 1.99107e-15)
(16.6797 4.08236 -1.65896e-17)
(16.7299 3.95343 -1.14268e-17)
(16.7756 3.82564 -1.20428e-16)
(16.8168 3.69885 2.00658e-16)
(16.8536 3.57264 1.19219e-17)
(16.8861 3.44658 4.75026e-17)
(16.9142 3.32006 5.01547e-17)
(16.9378 3.19232 -4.55799e-17)
(16.9566 3.06235 4.72634e-16)
(16.9703 2.92906 -2.17928e-16)
(16.979 2.79119 8.1632e-17)
(16.9843 2.64679 -3.2796e-15)
(16.9916 2.49387 3.37004e-15)
(17.0118 2.33747 6.55375e-16)
(17.0442 2.18711 -4.27421e-15)
(17.0764 2.04529 2.0907e-15)
(17.1036 1.90885 -1.70933e-15)
(17.1247 1.77534 5.48367e-15)
(17.1401 1.64345 -3.17725e-15)
(17.1502 1.51213 1.43532e-15)
(17.1556 1.38067 -2.72348e-15)
(17.1566 1.24824 -1.08889e-15)
(17.1536 1.11452 2.72255e-15)
(17.1469 0.978901 1.38259e-16)
(17.1365 0.840999 -3.4228e-15)
(17.1222 0.700521 4.18571e-15)
(17.104 0.557204 -8.43575e-16)
(17.0818 0.410788 -3.31463e-16)
(17.0555 0.261043 -1.66751e-15)
(17.0249 0.107733 9.30412e-16)
(16.9897 -0.0493699 9.55021e-16)
(16.9497 -0.210507 1.2073e-15)
(16.9047 -0.375918 4.03547e-15)
(16.8541 -0.54586 -1.1871e-14)
(16.7976 -0.720583 2.19183e-15)
(16.7347 -0.900358 8.64715e-15)
(16.6647 -1.08544 -1.12064e-14)
(16.5869 -1.27609 -4.54359e-16)
(16.5006 -1.47255 6.58277e-15)
(16.4048 -1.67504 3.13072e-15)
(16.2985 -1.88373 -8.18132e-15)
(16.1805 -2.09874 5.47846e-16)
(16.0493 -2.32009 8.13277e-15)
(15.9036 -2.54767 -1.9474e-15)
(15.7416 -2.78117 -3.32444e-16)
(15.5616 -3.02005 -3.8692e-15)
(15.3618 -3.26342 7.37474e-15)
(15.1403 -3.50987 -6.96961e-15)
(14.8958 -3.75742 4.73417e-15)
(14.6272 -4.00313 -6.66046e-16)
(14.3344 -4.24299 -2.37701e-15)
(14.0189 -4.47126 2.43305e-15)
(13.684 -4.68071 1.48894e-16)
(13.3367 -4.8603 8.69951e-16)
(12.9838 -5.00163 -8.70831e-15)
(12.633 -5.09821 3.96712e-15)
(12.289 -5.14921 -3.38786e-15)
(11.9531 -5.15951 5.00522e-15)
(11.6282 -5.13799 3.50401e-15)
(11.3184 -5.09376 -8.31688e-15)
(11.0266 -5.0324 -6.42418e-16)
(10.7522 -4.95727 4.43161e-15)
(10.4916 -4.87098 2.61209e-15)
(10.2416 -4.77586 3.45394e-15)
(10.0008 -4.67393 -6.04928e-15)
(9.76887 -4.5663 4.27678e-15)
(9.5469 -4.45407 6.49047e-16)
(9.33575 -4.33814 -5.13198e-15)
(9.13536 -4.2189 8.93067e-15)
(8.94505 -4.09643 -1.27884e-15)
(8.76407 -3.97063 -2.94883e-15)
(8.59171 -3.84155 -6.04057e-15)
(8.42735 -3.70921 -1.3642e-17)
(8.27046 -3.57366 1.79043e-15)
(8.12056 -3.43495 6.52478e-15)
(7.97737 -3.29312 -8.57392e-15)
(7.84082 -3.14822 1.0642e-14)
(7.71116 -3.00028 -4.28373e-15)
(7.58881 -2.84931 2.99408e-15)
(7.47424 -2.69531 -4.53618e-15)
(7.36786 -2.53829 -3.80875e-16)
(7.27002 -2.37829 3.93573e-15)
(7.18103 -2.21536 -3.74228e-15)
(7.10128 -2.04965 2.7071e-15)
(7.03124 -1.88131 1.54494e-15)
(6.97151 -1.71063 -1.3305e-15)
(6.92307 -1.53799 1.44068e-15)
(6.88585 -1.36394 -2.63478e-17)
(6.86471 -1.18961 -5.47218e-16)
(6.83463 -1.01491 -1.02293e-17)
(14.9992 5.23523 -3.4746e-15)
(15.1076 5.10111 4.13751e-15)
(15.2094 4.96605 -7.6787e-16)
(15.3054 4.83124 1.91992e-15)
(15.3956 4.69665 -2.88313e-15)
(15.4801 4.5624 3.70169e-15)
(15.5594 4.42864 -9.97599e-16)
(15.6339 4.29546 7.44874e-16)
(15.7039 4.16277 -5.3623e-16)
(15.7698 4.03064 -2.14755e-15)
(15.8318 3.90019 2.87e-16)
(15.8906 3.76997 3.88418e-16)
(15.9457 3.64062 2.55163e-16)
(15.9973 3.5119 -5.72652e-16)
(16.0452 3.38369 3.37221e-16)
(16.0892 3.25585 -5.09958e-17)
(16.1291 3.12825 2.28351e-16)
(16.1641 3.00074 1.61377e-16)
(16.1936 2.87319 -3.86941e-16)
(16.2167 2.74565 -1.08103e-15)
(16.2332 2.6187 1.32417e-15)
(16.2445 2.49363 1.37117e-15)
(16.2543 2.37142 -3.69954e-15)
(16.2691 2.25133 5.27371e-15)
(16.2893 2.13062 -9.14448e-16)
(16.3091 2.00669 -3.03808e-15)
(16.3244 1.87918 -6.77558e-16)
(16.3336 1.74891 4.71027e-15)
(16.3367 1.61657 -6.43817e-15)
(16.3345 1.4824 5.61162e-15)
(16.3277 1.3464 -5.39767e-15)
(16.3172 1.20934 8.49094e-15)
(16.3035 1.07027 -7.07633e-15)
(16.2866 0.929482 2.74505e-15)
(16.2667 0.786899 -2.0618e-15)
(16.2439 0.642357 2.55896e-15)
(16.2182 0.495758 2.28724e-15)
(16.1893 0.347003 -7.36326e-15)
(16.1573 0.196006 3.35208e-15)
(16.1219 0.0426699 -2.31618e-15)
(16.0829 -0.113084 1.49373e-15)
(16.04 -0.271339 -4.57629e-15)
(15.993 -0.432159 6.85177e-15)
(15.9415 -0.595606 -4.99505e-15)
(15.8852 -0.761713 2.64205e-16)
(15.8238 -0.930508 1.59447e-15)
(15.7568 -1.10197 6.79639e-15)
(15.6837 -1.27606 -5.70296e-15)
(15.604 -1.45267 -1.07229e-15)
(15.5172 -1.63166 4.35617e-15)
(15.4227 -1.81279 -9.40486e-15)
(15.3199 -1.99572 9.67609e-15)
(15.2082 -2.18001 -9.82609e-16)
(15.0868 -2.36505 7.49896e-16)
(14.9551 -2.55007 -1.06079e-15)
(14.8124 -2.73404 -6.34213e-15)
(14.6579 -2.91571 7.14662e-15)
(14.4912 -3.09349 3.86828e-15)
(14.3114 -3.26547 -1.18488e-14)
(14.1181 -3.42933 2.78981e-15)
(13.9108 -3.5824 -6.44065e-15)
(13.6894 -3.72172 4.93217e-15)
(13.4541 -3.84418 -1.9738e-15)
(13.2056 -3.94684 3.6092e-15)
(12.9452 -4.02785 -5.72687e-15)
(12.6748 -4.08678 2.29975e-15)
(12.3985 -4.12482 8.95714e-15)
(12.1215 -4.14418 2.59652e-15)
(11.8491 -4.14701 -8.28721e-15)
(11.5843 -4.13522 7.02858e-15)
(11.3279 -4.11033 -6.93206e-15)
(11.0792 -4.07366 2.10993e-15)
(10.838 -4.02654 9.05084e-15)
(10.6048 -3.9702 -7.60779e-15)
(10.3805 -3.90564 -4.84376e-15)
(10.1659 -3.83366 3.76971e-15)
(9.96102 -3.75497 -5.30022e-15)
(9.7657 -3.67028 5.72335e-16)
(9.57942 -3.58023 5.0909e-15)
(9.40159 -3.48538 -3.86649e-16)
(9.23168 -3.38627 -1.72021e-15)
(9.06922 -3.28329 1.63422e-15)
(8.91384 -3.17674 -3.87148e-15)
(8.76527 -3.06694 2.25874e-15)
(8.62341 -2.95418 -5.94986e-15)
(8.48835 -2.83871 5.39527e-15)
(8.36037 -2.72068 -2.34206e-15)
(8.23984 -2.60022 2.2613e-15)
(8.12712 -2.47742 -1.98848e-15)
(8.02246 -2.35238 -2.84878e-15)
(7.92599 -2.2252 1.363e-15)
(7.83779 -2.09601 3.45456e-15)
(7.75793 -1.96498 -6.93628e-16)
(7.68656 -1.8323 -3.07242e-16)
(7.62389 -1.69823 -1.41022e-15)
(7.57014 -1.56309 5.57155e-16)
(7.52583 -1.42728 2.43596e-15)
(7.49029 -1.29125 -1.70013e-15)
(7.46778 -1.15589 3.21792e-16)
(7.43292 -1.02171 -2.46292e-17)
(14.6735 4.98592 -7.09794e-15)
(14.7602 4.86405 5.63415e-15)
(14.8412 4.74156 -5.61636e-15)
(14.9172 4.61885 4.86417e-15)
(14.9884 4.49593 -1.96552e-15)
(15.055 4.37288 2.11122e-15)
(15.1172 4.24974 -8.40633e-16)
(15.1752 4.12649 7.8553e-16)
(15.229 4.00294 -2.94166e-15)
(15.2787 3.87911 7.12579e-16)
(15.3244 3.75583 6.26134e-16)
(15.3664 3.63214 -2.11543e-16)
(15.4045 3.50841 -1.12814e-16)
(15.4386 3.3844 -3.84807e-17)
(15.4687 3.26014 5.14386e-16)
(15.4945 3.13565 -2.02544e-16)
(15.5157 3.01096 -4.17233e-16)
(15.532 2.88616 6.96309e-16)
(15.5431 2.76139 -7.20665e-16)
(15.5492 2.63691 1.02693e-15)
(15.5511 2.51326 -2.97955e-16)
(15.5518 2.39163 -4.70029e-15)
(15.5559 2.27361 5.73668e-15)
(15.5692 2.15874 3.18463e-16)
(15.5922 2.04348 -4.72052e-15)
(15.6198 1.92555 3.51094e-15)
(15.647 1.80502 -2.36594e-15)
(15.6706 1.68223 5.32583e-15)
(15.6896 1.55746 -4.11778e-15)
(15.7036 1.43094 9.68469e-16)
(15.7131 1.30272 -3.55404e-15)
(15.7184 1.1737 8.62316e-19)
(15.7198 1.0432 -1.50223e-15)
(15.7173 0.911584 5.04187e-15)
(15.7111 0.778929 2.7347e-15)
(15.7011 0.645171 -2.77067e-15)
(15.6875 0.510303 -8.32144e-17)
(15.6701 0.374312 -1.13108e-15)
(15.6487 0.237187 -1.64053e-15)
(15.6233 0.0988964 4.98081e-15)
(15.5937 -0.0405676 -3.04726e-15)
(15.5595 -0.181222 8.60083e-15)
(15.5207 -0.323053 -1.66776e-14)
(15.4769 -0.466051 -4.68974e-16)
(15.4278 -0.610166 1.07033e-14)
(15.3732 -0.755343 3.86859e-15)
(15.3126 -0.901475 -1.60018e-15)
(15.2457 -1.04844 -4.64166e-15)
(15.1722 -1.19605 -3.37671e-15)
(15.0915 -1.34408 6.14618e-15)
(15.0032 -1.49224 -3.77685e-15)
(14.9068 -1.64018 -3.92854e-15)
(14.8019 -1.78745 1.10317e-14)
(14.688 -1.93352 1.10043e-15)
(14.5644 -2.07778 -5.04596e-15)
(14.4308 -2.21949 -1.53448e-15)
(14.2867 -2.35782 5.85767e-15)
(14.1317 -2.4918 -7.74245e-15)
(13.9657 -2.6204 -1.98692e-15)
(13.7887 -2.74247 1.32172e-15)
(13.6009 -2.85681 3.48364e-15)
(13.4031 -2.9622 -1.95607e-15)
(13.1966 -3.05747 1.11937e-15)
(12.9831 -3.14155 -1.28068e-15)
(12.7649 -3.21359 5.00391e-15)
(12.5443 -3.27291 -5.24734e-15)
(12.3237 -3.31908 5.76765e-15)
(12.1047 -3.3521 -6.06696e-15)
(11.8882 -3.37227 2.98916e-15)
(11.6744 -3.38025 4.13369e-15)
(11.4639 -3.37688 3.46847e-17)
(11.2572 -3.36305 -4.64576e-15)
(11.0553 -3.33963 1.14436e-15)
(10.859 -3.30741 2.73737e-15)
(10.6688 -3.26715 -8.1201e-15)
(10.4849 -3.21954 9.35193e-15)
(10.3074 -3.16526 -6.27478e-15)
(10.1363 -3.10497 -2.76813e-15)
(9.97154 -3.03925 1.18494e-14)
(9.81308 -2.96863 -3.41274e-15)
(9.66081 -2.89354 3.8544e-15)
(9.51462 -2.81437 -1.1342e-14)
(9.37446 -2.73143 4.4413e-15)
(9.24041 -2.64503 5.32423e-15)
(9.11267 -2.55536 -3.04856e-15)
(8.99152 -2.46265 1.46551e-15)
(8.87723 -2.36707 -1.13485e-15)
(8.76999 -2.26883 -2.68975e-15)
(8.66987 -2.16811 2.09222e-15)
(8.57688 -2.06512 -4.68692e-15)
(8.491 -1.9601 4.81305e-15)
(8.41222 -1.85332 1.46779e-15)
(8.34057 -1.74505 -4.28277e-15)
(8.27618 -1.63559 1.10062e-15)
(8.21918 -1.52522 -3.46939e-16)
(8.16969 -1.41427 5.34647e-16)
(8.12808 -1.3031 -1.90889e-15)
(8.0936 -1.19205 5.13224e-16)
(8.07013 -1.08175 7.95668e-16)
(8.03447 -0.973096 1.59505e-16)
(14.3262 4.65622 -6.10895e-16)
(14.4168 4.55593 7.06097e-15)
(14.5012 4.45423 -3.97659e-15)
(14.5799 4.35115 1.54889e-15)
(14.6531 4.24686 -2.86991e-15)
(14.7212 4.14154 3.78893e-15)
(14.7843 4.0353 1.4698e-16)
(14.8425 3.92821 -2.74778e-15)
(14.896 3.82017 2.48397e-15)
(14.9447 3.71127 -1.81166e-15)
(14.989 3.60242 -1.31045e-15)
(15.029 3.49286 1.12214e-15)
(15.0646 3.38267 -2.20174e-18)
(15.0956 3.27168 -5.13679e-16)
(15.1221 3.15984 7.8629e-16)
(15.1438 3.04708 -4.86878e-17)
(15.1607 2.93331 -3.58731e-16)
(15.1727 2.81845 6.63766e-16)
(15.18 2.70248 -1.23458e-15)
(15.1833 2.58543 1.55077e-15)
(15.1841 2.46748 5.81535e-16)
(15.1852 2.34899 -5.9206e-16)
(15.1906 2.23069 3.0039e-15)
(15.2038 2.11333 -5.04533e-15)
(15.2249 1.99693 7.42094e-16)
(15.2504 1.88121 3.71747e-15)
(15.2761 1.76586 -7.34499e-16)
(15.2993 1.65045 2.6013e-15)
(15.3184 1.53471 -9.00791e-15)
(15.3328 1.41848 6.16709e-15)
(15.3422 1.30159 -3.38597e-17)
(15.3469 1.18454 6.40052e-16)
(15.3471 1.0667 -3.4064e-15)
(15.3426 0.948202 -2.70668e-15)
(15.3336 0.829045 3.74976e-15)
(15.3202 0.709147 -1.6962e-18)
(15.3025 0.588494 -2.52702e-15)
(15.2804 0.467076 3.16844e-15)
(15.2538 0.3449 -4.59049e-16)
(15.2228 0.221967 2.11519e-15)
(15.1871 0.098303 -3.61859e-15)
(15.1467 -0.0260633 2.60569e-15)
(15.1014 -0.151074 -6.88755e-15)
(15.0511 -0.276665 3.35109e-15)
(14.9957 -0.402739 8.63423e-16)
(14.9348 -0.529185 3.30685e-16)
(14.8684 -0.655855 -7.09712e-15)
(14.7962 -0.782578 6.35426e-15)
(14.7181 -0.909141 6.12376e-15)
(14.6338 -1.0353 -1.8965e-16)
(14.5432 -1.16075 -7.72174e-15)
(14.4461 -1.28517 4.7502e-15)
(14.3423 -1.40817 -3.6348e-15)
(14.2318 -1.52929 3.50918e-16)
(14.1144 -1.64805 -1.97032e-15)
(13.9901 -1.7639 5.31172e-16)
(13.8591 -1.87622 1.14995e-14)
(13.7215 -1.98435 -1.3229e-14)
(13.5776 -2.08759 7.15865e-15)
(13.4278 -2.18519 -7.91256e-15)
(13.2726 -2.27639 1.13077e-15)
(13.1126 -2.36043 3.13254e-15)
(12.9487 -2.43662 5.73399e-15)
(12.7815 -2.50432 -3.28965e-15)
(12.6116 -2.56305 -8.16623e-15)
(12.4395 -2.61243 5.77982e-15)
(12.266 -2.65232 2.4479e-15)
(12.0915 -2.68281 6.21148e-15)
(11.9167 -2.70416 6.39847e-16)
(11.7424 -2.71674 -1.27729e-14)
(11.5695 -2.72098 4.06435e-15)
(11.3988 -2.71732 3.87315e-15)
(11.2309 -2.7062 6.44304e-15)
(11.0663 -2.68805 -1.40378e-15)
(10.9054 -2.66335 -9.25551e-15)
(10.7485 -2.63254 1.61102e-15)
(10.5957 -2.59607 3.71419e-15)
(10.4473 -2.55437 -4.46057e-15)
(10.3033 -2.50783 4.54937e-15)
(10.1638 -2.45683 -4.09291e-15)
(10.029 -2.40169 -2.56756e-16)
(9.89909 -2.34274 2.37112e-15)
(9.77418 -2.28024 -1.13206e-15)
(9.65455 -2.21448 -3.54479e-15)
(9.54047 -2.14567 1.34917e-15)
(9.43213 -2.07407 -6.08129e-15)
(9.32965 -1.99991 1.09673e-14)
(9.23305 -1.92344 -7.53057e-15)
(9.14233 -1.84491 3.66086e-15)
(9.05747 -1.7646 -4.16268e-16)
(8.97849 -1.68276 -9.34831e-16)
(8.90542 -1.59964 -2.6608e-15)
(8.83834 -1.51548 8.24531e-16)
(8.77734 -1.43054 6.11735e-16)
(8.72251 -1.34505 1.74384e-16)
(8.67389 -1.2593 -2.04054e-16)
(8.63173 -1.17358 -1.44507e-15)
(8.59527 -1.08818 2.82577e-15)
(8.56803 -1.00359 -1.62367e-16)
(8.52856 -0.921352 5.73353e-17)
(13.957 4.33372 4.97747e-15)
(14.0382 4.24794 -5.20922e-15)
(14.1152 4.16044 1.33804e-15)
(14.1883 4.07147 4.37948e-15)
(14.2573 3.98111 -5.95781e-15)
(14.3223 3.88946 1.18278e-15)
(14.3833 3.79662 8.46876e-16)
(14.44 3.70263 -3.46894e-15)
(14.4927 3.60735 2.49144e-15)
(14.5411 3.51087 -6.02301e-16)
(14.5855 3.41441 8.22523e-16)
(14.6262 3.31693 9.86293e-18)
(14.6629 3.21865 -5.71056e-16)
(14.6954 3.1194 -1.36778e-16)
(14.7236 3.01915 1.09344e-15)
(14.7474 2.91785 -2.22226e-16)
(14.7667 2.81543 -4.13547e-16)
(14.7815 2.71188 6.36818e-16)
(14.7922 2.6072 1.07647e-15)
(14.7993 2.50151 -2.61087e-15)
(14.8044 2.39505 8.67729e-16)
(14.8094 2.2881 -3.39728e-15)
(14.8166 2.18091 5.04115e-15)
(14.8279 2.07389 1.91013e-15)
(14.8434 1.96746 -3.75863e-15)
(14.8609 1.86156 1.59299e-15)
(14.8782 1.75585 -3.11031e-15)
(14.8932 1.65003 6.48139e-15)
(14.9046 1.54396 -5.08725e-15)
(14.9117 1.43753 3.27741e-15)
(14.9143 1.3306 -3.46964e-15)
(14.9124 1.2238 -2.87962e-16)
(14.9063 1.11633 -1.01016e-15)
(14.8959 1.00843 4.24519e-15)
(14.8813 0.900119 -2.41378e-15)
(14.8625 0.791343 -3.1314e-15)
(14.8398 0.682127 7.82705e-15)
(14.8132 0.572503 -5.44566e-15)
(14.7826 0.462519 3.57288e-16)
(14.7481 0.352223 -1.64028e-15)
(14.7097 0.241687 -1.02309e-15)
(14.6672 0.13099 -2.73793e-17)
(14.6207 0.0202307 6.41038e-15)
(14.57 -0.0904826 -1.2441e-14)
(14.5152 -0.201016 2.555e-15)
(14.456 -0.311223 1.01048e-14)
(14.3925 -0.420931 -1.1029e-14)
(14.3245 -0.529951 9.43252e-15)
(14.252 -0.638068 -1.45492e-15)
(14.1748 -0.74504 2.97509e-15)
(14.093 -0.850605 -5.74802e-15)
(14.0065 -0.954469 -3.64764e-15)
(13.9153 -1.05632 8.84414e-15)
(13.8193 -1.15581 -2.52769e-15)
(13.7186 -1.25259 -8.15172e-15)
(13.6132 -1.34625 2.89342e-15)
(13.5033 -1.43641 1.09793e-14)
(13.3888 -1.52264 -7.79937e-15)
(13.2701 -1.60453 4.43001e-15)
(13.1472 -1.68165 -2.20733e-15)
(13.0204 -1.75363 9.59645e-16)
(12.89 -1.82007 -8.76033e-15)
(12.7565 -1.88068 1.38352e-16)
(12.6201 -1.93518 5.08351e-15)
(12.4811 -1.9834 -6.75042e-15)
(12.34 -2.02519 -1.62566e-15)
(12.1974 -2.06053 1.26196e-14)
(12.0537 -2.0894 -4.3072e-15)
(11.9098 -2.11188 -5.91147e-15)
(11.7662 -2.12807 7.23238e-15)
(11.6234 -2.13812 -3.11894e-15)
(11.4819 -2.1422 1.35473e-15)
(11.3422 -2.14053 2.63071e-17)
(11.2046 -2.13336 3.67349e-15)
(11.0693 -2.12093 -7.98124e-15)
(10.9366 -2.10351 7.29414e-15)
(10.8068 -2.08138 -5.59245e-15)
(10.6801 -2.05481 1.82154e-15)
(10.5566 -2.02406 -6.36736e-16)
(10.4366 -1.98939 1.51187e-15)
(10.3203 -1.95105 1.11869e-15)
(10.208 -1.90928 8.29831e-16)
(10.1 -1.86431 -3.30794e-15)
(9.99635 -1.81635 -2.65591e-15)
(9.89725 -1.76562 4.31709e-15)
(9.80277 -1.71235 -3.75074e-15)
(9.71291 -1.65677 7.20937e-15)
(9.62769 -1.5991 -5.48171e-15)
(9.54711 -1.53957 3.18715e-15)
(9.47123 -1.47841 -3.77172e-15)
(9.40008 -1.41584 1.94106e-15)
(9.33375 -1.35208 8.7265e-16)
(9.27229 -1.28733 -2.38129e-15)
(9.21578 -1.22182 3.35025e-15)
(9.16427 -1.15577 -1.69063e-15)
(9.11777 -1.08942 2.67104e-15)
(9.07646 -1.02302 -3.6005e-16)
(9.03957 -0.956798 -6.43599e-16)
(9.01036 -0.891112 -1.87468e-16)
(8.96973 -0.827627 -3.19504e-16)
(13.6437 4.01815 -5.19619e-15)
(13.7126 3.94651 8.06287e-15)
(13.7781 3.87272 -2.83968e-15)
(13.8404 3.79708 1.13089e-15)
(13.8994 3.71963 -3.92031e-15)
(13.9549 3.6405 -1.95773e-16)
(14.007 3.5598 3.26092e-15)
(14.0556 3.47758 -1.30647e-15)
(14.1005 3.3937 1.97484e-15)
(14.1417 3.30829 -2.35479e-15)
(14.1794 3.22269 1.8311e-16)
(14.2139 3.13581 -1.2856e-16)
(14.2448 3.04792 1.81008e-16)
(14.272 2.95892 -5.02312e-16)
(14.2953 2.86884 4.08077e-16)
(14.3147 2.7777 -1.35728e-17)
(14.3302 2.68558 2.67888e-16)
(14.342 2.59256 1.16304e-16)
(14.3504 2.49878 -1.4952e-16)
(14.3563 2.40447 -5.66055e-17)
(14.3607 2.3099 5.64298e-16)
(14.3651 2.21538 3.32559e-16)
(14.3711 2.12116 -1.05341e-15)
(14.3798 2.02724 -3.58796e-15)
(14.3912 1.93348 3.1726e-15)
(14.4043 1.83958 -8.09813e-16)
(14.4173 1.74533 -2.95596e-16)
(14.4288 1.65062 5.55515e-15)
(14.4376 1.55543 -8.27304e-15)
(14.443 1.45973 6.0973e-15)
(14.4446 1.36346 -4.22933e-15)
(14.4425 1.26743 -2.47266e-15)
(14.4367 1.17078 2.90769e-16)
(14.427 1.07387 4.95339e-15)
(14.4135 0.976807 -2.50104e-15)
(14.3962 0.87957 4.21691e-15)
(14.3752 0.782231 -5.39213e-15)
(14.3507 0.68487 1.33091e-15)
(14.3227 0.587572 1.3478e-16)
(14.2911 0.490411 4.41149e-15)
(14.256 0.393479 -6.73245e-15)
(14.2175 0.296872 -6.20325e-15)
(14.1753 0.200696 7.71461e-15)
(14.1296 0.105059 -7.03172e-15)
(14.0803 0.0100867 3.62224e-15)
(14.0274 -0.0840859 6.5792e-16)
(13.9707 -0.177313 7.3613e-15)
(13.9104 -0.269438 -1.07872e-14)
(13.8463 -0.360295 9.0292e-15)
(13.7784 -0.449697 1.37299e-15)
(13.7068 -0.537456 -5.01139e-15)
(13.6314 -0.623364 9.13179e-16)
(13.5522 -0.707214 -3.68336e-15)
(13.4693 -0.788774 9.95115e-15)
(13.3827 -0.86782 -3.72391e-15)
(13.2925 -0.94411 -6.5567e-15)
(13.1988 -1.01741 1.23969e-14)
(13.1017 -1.08748 -1.03751e-14)
(13.0014 -1.15409 5.24852e-15)
(12.898 -1.217 -5.42795e-15)
(12.7917 -1.27601 -6.49429e-15)
(12.6829 -1.33089 1.60785e-14)
(12.572 -1.38149 -1.55141e-14)
(12.4592 -1.42763 1.09571e-14)
(12.3448 -1.46924 -1.08436e-14)
(12.229 -1.50619 2.46694e-15)
(12.1122 -1.53843 8.76196e-15)
(11.9949 -1.56594 3.1509e-15)
(11.8774 -1.58872 -1.27274e-14)
(11.76 -1.60682 1.30061e-14)
(11.6429 -1.62031 -1.83002e-15)
(11.5266 -1.62928 -4.81284e-15)
(11.4113 -1.63387 9.50392e-15)
(11.2973 -1.63421 -1.01789e-14)
(11.1847 -1.63044 -1.09066e-15)
(11.0739 -1.62274 3.68482e-15)
(10.965 -1.61127 3.49634e-16)
(10.8584 -1.59622 -4.58008e-15)
(10.7542 -1.57776 7.98588e-15)
(10.6528 -1.55607 -4.97072e-15)
(10.5542 -1.53134 -5.03444e-16)
(10.4588 -1.50375 -4.30799e-15)
(10.3665 -1.47348 3.69929e-15)
(10.2776 -1.44071 -4.94289e-15)
(10.1921 -1.40564 7.53306e-15)
(10.1099 -1.36845 1.25734e-16)
(10.0313 -1.32934 3.66372e-15)
(9.9561 -1.28849 -1.00648e-14)
(9.88453 -1.24609 4.75079e-15)
(9.81663 -1.20233 -3.01538e-15)
(9.75246 -1.15738 9.44012e-16)
(9.69211 -1.11143 1.5646e-15)
(9.63564 -1.06464 6.66614e-16)
(9.58309 -1.0172 -9.13607e-16)
(9.5345 -0.969274 9.80981e-16)
(9.48987 -0.921041 9.49819e-16)
(9.44934 -0.872655 -1.81771e-15)
(9.41221 -0.824266 2.80423e-16)
(9.38134 -0.776134 -4.72362e-16)
(9.3392 -0.72995 -9.23956e-17)
(13.3506 3.72442 -6.47142e-15)
(13.4094 3.66421 -2.04897e-15)
(13.4655 3.602 6.10909e-15)
(13.5187 3.538 -3.53742e-15)
(13.5689 3.47223 -6.90296e-16)
(13.616 3.40475 -1.30708e-15)
(13.6599 3.33562 7.92771e-16)
(13.7006 3.26487 4.82723e-15)
(13.7378 3.19234 -2.54297e-15)
(13.7716 3.11813 2.021e-15)
(13.8021 3.04364 -1.82405e-15)
(13.8296 2.96779 -1.45887e-16)
(13.8537 2.8908 -1.54871e-16)
(13.8744 2.81258 -1.89232e-16)
(13.8916 2.73318 -6.72637e-16)
(13.9053 2.65268 4.79422e-16)
(13.9158 2.57117 9.33128e-17)
(13.9233 2.48879 -1.40533e-16)
(13.9282 2.40569 2.20634e-15)
(13.9315 2.32206 -3.78687e-15)
(13.934 2.23813 2.67845e-15)
(13.9367 2.15411 -1.10931e-15)
(13.9409 2.07019 5.56677e-15)
(13.9473 1.98647 -2.67712e-15)
(13.9561 1.90291 1.09704e-15)
(13.9662 1.81936 -2.75874e-15)
(13.9766 1.73571 2.50335e-15)
(13.9861 1.65186 -5.405e-15)
(13.9937 1.56776 6.69213e-15)
(13.9987 1.48338 -5.82005e-15)
(14.0007 1.39865 -2.13957e-16)
(13.9996 1.31437 -4.82266e-15)
(13.9953 1.22967 3.92867e-15)
(13.9874 1.14492 -1.42551e-15)
(13.976 1.06021 5.99044e-15)
(13.961 0.975545 1.72409e-15)
(13.9427 0.890992 -4.04864e-15)
(13.921 0.806638 -1.94796e-15)
(13.896 0.722567 1.25986e-15)
(13.8677 0.638855 -1.3788e-16)
(13.8362 0.55559 -3.178e-15)
(13.8016 0.472863 3.53642e-15)
(13.7638 0.390766 -1.03393e-14)
(13.7228 0.309393 3.98399e-15)
(13.6787 0.228848 -1.19727e-15)
(13.6315 0.14924 8.14068e-15)
(13.5811 0.0706844 -8.82343e-15)