1.45 	0 	0 	-0.00717063 	-0.0026283 	3.87488e-21
2.35 	0 	0 	0.0639269 	-0.0067164 	2.40512e-21
