1.45 	0 	0 	-0.308306
2.35 	0 	0 	-0.117653
