1.45 	0 	0 	-0.00379772 	-0.0028908 	3.96061e-21
2.35 	0 	0 	0.0753084 	-0.00707992 	2.41494e-21
