1.45 	0 	0 	-0.204153
2.35 	0 	0 	0.00941606
