1.45 	0 	0 	-0.291795
2.35 	0 	0 	-0.127121
