1.45 	0 	0 	-0.00819598 	-0.0025673 	3.7791e-21
2.35 	0 	0 	0.0613194 	-0.00662614 	2.27817e-21
