1.45 	0 	0 	-0.00696818 	-0.00264364 	3.88679e-21
2.35 	0 	0 	0.0646004 	-0.00673484 	2.41656e-21
