1.45 	0 	0 	-0.304919
2.35 	0 	0 	-0.134124
