1.275 	2.15223e-18 	-2.76991e-20 	-0.034482 	-0.000439796 	-1.90194e-22
1.825 	2.15223e-18 	-1.39322e-20 	-0.00950122 	-0.00275613 	1.67677e-21
2.375 	2.15223e-18 	-2.66896e-23 	0.115194 	-0.00323086 	-6.99334e-22
