1.275 	2.15223e-18 	-2.76991e-20 	-0.0328498 	-0.000508729 	-2.06319e-22
1.825 	2.15223e-18 	-1.39322e-20 	-0.00405587 	-0.0034237 	1.7707e-21
2.375 	2.15223e-18 	-2.66896e-23 	0.1571 	-0.0046896 	-7.13156e-22
