/*--------------------------------*- C++ -*----------------------------------*\
  =========                 |
  \\      /  F ield         | OpenFOAM: The Open Source CFD Toolbox
   \\    /   O peration     | Website:  https://openfoam.org
    \\  /    A nd           | Version:  6.0
     \\/     M anipulation  |
\*---------------------------------------------------------------------------*/
FoamFile
{
    version     2.0;
    format      ascii;
    class       volScalarField;
    location    "51";
    object      p;
}
// * * * * * * * * * * * * * * * * * * * * * * * * * * * * * * * * * * * * * //

dimensions      [0 2 -2 0 0 0 0];

internalField   nonuniform List<scalar> 
2000
(
-0.348046
-0.353952
-0.35564
-0.354972
-0.353112
-0.350435
-0.34722
-0.343758
-0.340338
-0.336642
-0.350764
-0.35625
-0.357599
-0.356628
-0.354481
-0.351529
-0.348051
-0.344329
-0.340654
-0.336838
-0.356219
-0.360847
-0.361504
-0.359925
-0.357196
-0.353689
-0.349675
-0.345416
-0.341213
-0.337153
-0.364454
-0.367742
-0.367337
-0.364831
-0.361221
-0.356868
-0.35203
-0.346928
-0.341877
-0.337427
-0.375526
-0.376932
-0.375066
-0.371307
-0.366513
-0.361017
-0.355048
-0.348747
-0.342448
-0.337405
-0.389501
-0.388403
-0.384651
-0.379314
-0.37304
-0.366114
-0.358696
-0.350791
-0.342716
-0.336756
-0.406412
-0.402112
-0.396033
-0.38881
-0.380798
-0.372199
-0.363069
-0.353178
-0.342679
-0.335222
-0.426203
-0.417962
-0.40912
-0.399734
-0.389771
-0.379315
-0.36828
-0.356038
-0.342095
-0.331652
-0.448663
-0.435778
-0.423797
-0.412044
-0.399999
-0.387555
-0.374315
-0.358754
-0.338669
-0.321358
-0.473356
-0.455297
-0.439964
-0.42589
-0.412104
-0.398408
-0.384044
-0.366379
-0.341339
-0.317362
-0.499596
-0.476092
-0.457353
-0.441183
-0.426454
-0.413542
-0.402788
-0.394831
-0.394968
-0.414501
-0.52656
-0.497586
-0.475345
-0.456814
-0.440477
-0.426795
-0.416242
-0.409878
-0.412834
-0.430105
-0.553523
-0.519321
-0.493668
-0.472666
-0.454302
-0.43894
-0.426947
-0.419041
-0.418333
-0.426151
-0.579838
-0.540825
-0.512009
-0.488565
-0.467929
-0.450285
-0.435793
-0.424708
-0.418506
-0.417168
-0.604755
-0.561432
-0.529744
-0.503867
-0.480654
-0.460089
-0.442131
-0.426656
-0.414086
-0.404459
-0.627285
-0.580207
-0.545929
-0.517567
-0.491424
-0.46735
-0.445224
-0.424734
-0.405713
-0.388925
-0.646145
-0.595939
-0.559334
-0.528379
-0.498948
-0.470897
-0.444189
-0.418518
-0.393466
-0.370813
-0.659774
-0.607175
-0.568495
-0.534823
-0.501799
-0.469472
-0.438059
-0.407405
-0.377059
-0.349884
-0.666411
-0.612275
-0.571793
-0.535303
-0.498501
-0.461821
-0.42587
-0.390729
-0.356028
-0.325641
-0.664189
-0.609501
-0.567531
-0.528209
-0.487622
-0.446771
-0.406737
-0.367853
-0.32986
-0.297494
-0.651252
-0.59711
-0.55404
-0.512013
-0.46787
-0.423318
-0.379931
-0.33825
-0.298106
-0.264909
-0.625866
-0.573461
-0.529784
-0.485376
-0.438188
-0.390702
-0.344945
-0.301585
-0.260478
-0.227517
-0.586557
-0.537146
-0.493484
-0.44726
-0.397838
-0.348476
-0.301553
-0.257763
-0.216913
-0.185181
-0.532228
-0.487107
-0.44423
-0.397013
-0.346464
-0.296539
-0.249835
-0.206965
-0.167614
-0.138042
-0.462276
-0.422746
-0.381573
-0.33444
-0.284123
-0.235143
-0.190167
-0.14964
-0.113058
-0.0865268
-0.376699
-0.344027
-0.305606
-0.25983
-0.211274
-0.164849
-0.123151
-0.0864071
-0.0538806
-0.0312603
-0.276186
-0.251556
-0.217011
-0.173983
-0.128777
-0.0864985
-0.0495571
-0.0179652
0.00919825
0.0269311
-0.162175
-0.146619
-0.117073
-0.078188
-0.0378667
-0.00123331
0.0295569
0.0545674
0.0746367
0.0860177
-0.0368771
-0.0311912
-0.00764238
0.0258821
0.0600728
0.0898943
0.113333
0.129977
0.139911
0.142282
0.096753
0.0920871
0.108868
0.136197
0.163718
0.186708
0.203195
0.211563
0.210528
0.203799
0.235139
0.21995
0.229356
0.249863
0.270613
0.287727
0.299931
0.305413
0.304366
0.318284
0.374387
0.348752
0.350207
0.363026
0.376047
0.386021
0.392074
0.393316
0.392238
0.405161
0.510551
0.474822
0.468014
0.472566
0.477219
0.479298
0.478235
0.473614
0.467921
0.473024
0.639787
0.59455
0.579485
0.575583
0.571684
0.565696
0.55736
0.546526
0.535268
0.532426
0.758431
0.704498
0.681525
0.669416
0.657251
0.643502
0.628191
0.611354
0.594684
0.584737
0.863099
0.801498
0.771316
0.751672
0.731964
0.711187
0.6896
0.667388
0.645873
0.629717
0.950774
0.882743
0.846371
0.820235
0.794073
0.767323
0.740444
0.713733
0.688158
0.6668
1.0189
0.945866
0.904595
0.87332
0.842074
0.810648
0.779652
0.749465
0.720744
0.695329
1.06548
0.989013
0.944354
0.909522
0.874773
0.840137
0.806329
0.773778
0.742913
0.714713
1.08912
1.01091
0.96452
0.92787
0.891336
0.855069
0.819834
0.786089
0.754137
0.724518
1.08912
1.01091
0.96452
0.92787
0.891336
0.855069
0.819834
0.786089
0.754137
0.724518
1.06548
0.989013
0.944354
0.909522
0.874773
0.840138
0.806329
0.773779
0.742913
0.714713
1.0189
0.945866
0.904596
0.87332
0.842074
0.810648
0.779652
0.749465
0.720744
0.695329
0.950775
0.882744
0.846371
0.820236
0.794073
0.767323
0.740444
0.713733
0.688158
0.6668
0.863099
0.801499
0.771316
0.751672
0.731964
0.711187
0.689601
0.667388
0.645873
0.629717
0.758432
0.704498
0.681525
0.669417
0.657251
0.643503
0.628191
0.611355
0.594685
0.584738
0.639787
0.594551
0.579485
0.575584
0.571685
0.565697
0.55736
0.546527
0.535268
0.532426
0.510552
0.474822
0.468015
0.472567
0.47722
0.479299
0.478235
0.473614
0.467922
0.473025
0.374387
0.348753
0.350208
0.363027
0.376047
0.386021
0.392074
0.393316
0.392239
0.405162
0.23514
0.219951
0.229356
0.249864
0.270614
0.287727
0.299932
0.305414
0.304367
0.318285
0.0967535
0.0920877
0.108869
0.136198
0.163719
0.186709
0.203196
0.211564
0.210529
0.2038
-0.0368765
-0.0311906
-0.00764177
0.0258827
0.0600734
0.0898949
0.113333
0.129978
0.139912
0.142283
-0.162175
-0.146619
-0.117073
-0.0781873
-0.0378661
-0.00123265
0.0295576
0.0545681
0.0746374
0.0860183
-0.276186
-0.251555
-0.217011
-0.173982
-0.128777
-0.0864978
-0.0495564
-0.0179645
0.00919893
0.0269318
-0.376699
-0.344026
-0.305606
-0.259829
-0.211274
-0.164848
-0.12315
-0.0864064
-0.0538799
-0.0312596
-0.462276
-0.422745
-0.381572
-0.334439
-0.284122
-0.235142
-0.190167
-0.149639
-0.113058
-0.0865261
-0.532227
-0.487106
-0.444229
-0.397013
-0.346463
-0.296538
-0.249834
-0.206964
-0.167614
-0.138041
-0.586556
-0.537146
-0.493483
-0.447259
-0.397837
-0.348475
-0.301552
-0.257763
-0.216912
-0.18518
-0.625865
-0.57346
-0.529783
-0.485375
-0.438187
-0.390701
-0.344944
-0.301585
-0.260477
-0.227516
-0.651251
-0.597109
-0.554039
-0.512012
-0.46787
-0.423317
-0.37993
-0.33825
-0.298105
-0.264909
-0.664188
-0.6095
-0.56753
-0.528208
-0.487621
-0.44677
-0.406736
-0.367852
-0.329859
-0.297493
-0.66641
-0.612274
-0.571792
-0.535302
-0.4985
-0.46182
-0.425869
-0.390728
-0.356027
-0.32564
-0.659773
-0.607174
-0.568494
-0.534822
-0.501798
-0.469471
-0.438058
-0.407404
-0.377058
-0.349883
-0.646144
-0.595938
-0.559333
-0.528379
-0.498947
-0.470896
-0.444188
-0.418517
-0.393465
-0.370812
-0.627284
-0.580206
-0.545928
-0.517566
-0.491423
-0.46735
-0.445223
-0.424733
-0.405712
-0.388924
-0.604754
-0.561431
-0.529743
-0.503866
-0.480654
-0.460088
-0.44213
-0.426655
-0.414085
-0.404458
-0.579837
-0.540825
-0.512008
-0.488564
-0.467928
-0.450284
-0.435793
-0.424707
-0.418505
-0.417168
-0.553522
-0.51932
-0.493667
-0.472665
-0.454301
-0.438939
-0.426946
-0.41904
-0.418332
-0.42615
-0.526559
-0.497585
-0.475344
-0.456813
-0.440476
-0.426794
-0.416241
-0.409877
-0.412833
-0.430104
-0.499596
-0.476091
-0.457352
-0.441182
-0.426453
-0.413541
-0.402787
-0.39483
-0.394967
-0.4145
-0.473355
-0.455296
-0.439964
-0.425889
-0.412103
-0.398407
-0.384043
-0.366378
-0.341338
-0.317361
-0.448662
-0.435777
-0.423797
-0.412043
-0.399998
-0.387554
-0.374314
-0.358753
-0.338668
-0.321357
-0.426203
-0.417961
-0.40912
-0.399733
-0.38977
-0.379314
-0.368279
-0.356037
-0.342094
-0.331651
-0.406411
-0.402111
-0.396033
-0.388809
-0.380797
-0.372198
-0.363068
-0.353177
-0.342678
-0.335221
-0.389501
-0.388402
-0.38465
-0.379314
-0.37304
-0.366114
-0.358696
-0.35079
-0.342715
-0.336755
-0.375526
-0.376931
-0.375065
-0.371307
-0.366512
-0.361017
-0.355048
-0.348747
-0.342447
-0.337404
-0.364453
-0.367741
-0.367336
-0.36483
-0.36122
-0.356867
-0.35203
-0.346927
-0.341876
-0.337427
-0.356219
-0.360847
-0.361504
-0.359924
-0.357195
-0.353688
-0.349675
-0.345416
-0.341213
-0.337152
-0.350764
-0.35625
-0.357599
-0.356628
-0.35448
-0.351529
-0.34805
-0.344328
-0.340654
-0.336838
-0.348046
-0.353952
-0.35564
-0.354971
-0.353112
-0.350435
-0.347219
-0.343758
-0.340338
-0.336642
-0.290432
-0.126295
-0.0812246
-0.0303229
-0.019218
-0.00778439
-0.00434448
-0.000873974
-0.00045647
0.00217167
-0.291663
-0.126842
-0.0814949
-0.0305214
-0.019286
-0.00784419
-0.00437426
-0.000894786
-0.000465464
0.00215591
-0.294054
-0.127924
-0.0820302
-0.0309197
-0.0194217
-0.00796348
-0.00443356
-0.000936312
-0.000483503
0.00212445
-0.297465
-0.129515
-0.0828191
-0.0315198
-0.0196247
-0.00814178
-0.00452221
-0.000998426
-0.00051044
0.00207764
-0.301651
-0.131571
-0.0838356
-0.0323199
-0.0198931
-0.0083777
-0.00463972
-0.00108093
-0.000545994
0.00201592
-0.306255
-0.134017
-0.0850301
-0.0333064
-0.020221
-0.00866766
-0.00478486
-0.00118331
-0.000589809
0.00193993
-0.311147
-0.136922
-0.0864082
-0.0344745
-0.0206091
-0.00900891
-0.00495711
-0.00130459
-0.000642086
0.00185125
-0.31685
-0.140937
-0.0882325
-0.0359248
-0.0211007
-0.0094149
-0.0051625
-0.00144513
-0.000704358
0.00175267
-0.321627
-0.146442
-0.0906813
-0.0378227
-0.0217464
-0.0099127
-0.00541019
-0.00161028
-0.000775049
0.00164162
-0.313822
-0.148818
-0.0917922
-0.0395241
-0.0222487
-0.0104047
-0.00565498
-0.00180129
-0.000834664
0.0014951
-0.247291
-0.14072
-0.0881717
-0.0427791
-0.0227473
-0.0117367
-0.00637158
-0.00254107
-0.00100039
0.00084197
-0.189196
-0.131711
-0.0821698
-0.044238
-0.0244808
-0.014129
-0.00822027
-0.00402453
-0.00176231
-3.35113e-07
-0.14778
-0.113853
-0.0727414
-0.0428078
-0.0259064
-0.016335
-0.0101552
-0.00561601
-0.0026973
-0.000680637
-0.108187
-0.0929512
-0.0633219
-0.040839
-0.026956
-0.0181301
-0.0118299
-0.00705105
-0.00358854
-0.00115195
-0.0789493
-0.0756788
-0.0565218
-0.039584
-0.0277802
-0.0194754
-0.0131422
-0.00820505
-0.00433619
-0.00145071
-0.0588579
-0.0628317
-0.0515618
-0.0385845
-0.0281914
-0.0203224
-0.014069
-0.00905936
-0.00491463
-0.00164443
-0.0458325
-0.0535707
-0.0477001
-0.0376144
-0.0282795
-0.0208038
-0.0146927
-0.00966754
-0.00534327
-0.00178116
-0.0375883
-0.0471114
-0.0447381
-0.0367615
-0.0282346
-0.0210735
-0.0151009
-0.0100845
-0.00564602
-0.00188001
-0.0327665
-0.0430106
-0.0427306
-0.0361585
-0.0281784
-0.0212199
-0.0153458
-0.0103438
-0.00583898
-0.00194462
-0.030536
-0.0410091
-0.0417196
-0.0358616
-0.0281546
-0.0212847
-0.0154589
-0.0104658
-0.00593335
-0.0019749
-0.218589
-0.246486
-0.272265
-0.296209
-0.318703
-0.340253
-0.361477
-0.383021
-0.405387
-0.42923
-0.067944
-0.0780866
-0.0872512
-0.0956812
-0.103684
-0.111639
-0.120005
-0.129322
-0.140168
-0.154335
-0.0451729
-0.0543548
-0.063151
-0.0715348
-0.0794689
-0.0869082
-0.0938095
-0.100146
-0.105914
-0.111235
-0.0187498
-0.0244698
-0.0299835
-0.0353098
-0.0404705
-0.0454891
-0.0503886
-0.0551912
-0.0598967
-0.0643847
-0.0130406
-0.0173965
-0.0216278
-0.0257311
-0.0297024
-0.033538
-0.0372341
-0.0407878
-0.0441796
-0.047378
-0.00798626
-0.0112036
-0.0143615
-0.0174591
-0.0204957
-0.0234709
-0.0263841
-0.029234
-0.0320088
-0.0347121
-0.0068627
-0.0093996
-0.0119002
-0.0143604
-0.0167768
-0.0191462
-0.021466
-0.0237338
-0.0259435
-0.0281085
-0.00606173
-0.00811965
-0.010161
-0.0121818
-0.0141783
-0.016147
-0.0180849
-0.0199889
-0.0218556
-0.0236925
-0.00597414
-0.00774883
-0.00951559
-0.0112699
-0.0130076
-0.0147248
-0.0164179
-0.0180837
-0.0197202
-0.0213285
-0.00591815
-0.00754413
-0.00916751
-0.0107845
-0.0123917
-0.0139856
-0.0155631
-0.0171215
-0.0186592
-0.0201744
0.16801
0.127023
0.0816753
0.0386061
-0.00313233
-0.0440114
-0.0834147
-0.12076
-0.155778
-0.188385
0.117541
0.0916261
0.0648342
0.0419954
0.0218753
0.00320147
-0.0141089
-0.0298449
-0.04398
-0.0566295
0.0734209
0.0577229
0.0427698
0.0298577
0.0180064
0.00653972
-0.00461323
-0.0153645
-0.025691
-0.0356193
0.053165
0.044092
0.035463
0.0277526
0.0204862
0.0133937
0.00647706
-0.000204869
-0.00663084
-0.012808
0.0376283
0.031677
0.0259368
0.0206461
0.0155558
0.0105348
0.00558974
0.000752099
-0.00396565
-0.00856307
0.0273668
0.0234779
0.0196326
0.0159948
0.0124523
0.00893696
0.00545022
0.00200882
-0.00137889
-0.00471091
0.0196642
0.0169358
0.0141806
0.011504
0.00885795
0.00620959
0.00356069
0.000922415
-0.00169736
-0.00429382
0.0144839
0.0124888
0.0104435
0.00841042
0.00637294
0.00431746
0.00224634
0.000167122
-0.00191385
-0.00399164
0.0111533
0.00955835
0.00791442
0.0062507
0.00456241
0.00284643
0.00110663
-0.000650822
-0.00242019
-0.00419629
0.00955717
0.00813656
0.00667262
0.00517957
0.00365681
0.00210539
0.000529647
-0.00106526
-0.00267449
-0.00429356
0.335426
0.334726
0.333176
0.330302
0.325318
0.316986
0.303537
0.282576
0.251469
0.206852
0.245528
0.244411
0.241776
0.237191
0.230321
0.220735
0.207864
0.191049
0.169541
0.142786
0.174697
0.173568
0.170901
0.166376
0.159886
0.151323
0.140496
0.127193
0.111004
0.0920177
0.123087
0.122202
0.120099
0.116537
0.111497
0.105006
0.0970562
0.0876579
0.0767331
0.0646168
0.0867535
0.086109
0.0845701
0.081957
0.078277
0.0735826
0.0679079
0.061291
0.0537123
0.0453806
0.0615744
0.061111
0.0600025
0.0581203
0.0554778
0.0521262
0.048107
0.0434644
0.0382158
0.0325076
0.0444232
0.0440846
0.0432745
0.0418992
0.0399704
0.0375285
0.034607
0.0312388
0.0274432
0.0233044
0.0331376
0.0328808
0.0322663
0.0312232
0.029761
0.0279109
0.0256999
0.023153
0.0202907
0.0171648
0.0263019
0.0260934
0.0255947
0.0247483
0.0235616
0.0220597
0.0202637
0.0181927
0.0158643
0.01331
0.0230815
0.022895
0.0224498
0.0216947
0.0206359
0.0192955
0.0176921
0.015842
0.013762
0.0114748
0.4854
0.487153
0.493486
0.504632
0.520484
0.541343
0.567678
0.60001
0.638877
0.684525
0.483159
0.484886
0.491139
0.502129
0.517732
0.538214
0.563984
0.595478
0.633098
0.676933
0.478728
0.48041
0.48651
0.497197
0.512314
0.532056
0.556715
0.586556
0.621706
0.661956
0.472209
0.473835
0.479725
0.489981
0.504397
0.523063
0.5461
0.573518
0.605025
0.640002
0.463738
0.465315
0.470956
0.480675
0.494206
0.511502
0.532462
0.556752
0.583518
0.611657
0.453485
0.455034
0.460408
0.469509
0.482
0.497673
0.51616
0.536706
0.557758
0.577658
0.441646
0.443235
0.448362
0.456801
0.468141
0.481987
0.497664
0.513921
0.52842
0.53887
0.428427
0.430243
0.435258
0.443107
0.453322
0.465291
0.47796
0.489441
0.496505
0.496089
0.413898
0.416189
0.421283
0.428669
0.437865
0.448037
0.457688
0.464099
0.462888
0.448809
0.397696
0.400131
0.404798
0.411055
0.418435
0.425985
0.431933
0.433057
0.424591
0.396888
0.397696
0.400132
0.404799
0.411056
0.418435
0.425986
0.431934
0.433057
0.424592
0.396889
0.413898
0.41619
0.421284
0.42867
0.437865
0.448038
0.457689
0.464099
0.462888
0.448809
0.428428
0.430243
0.435258
0.443108
0.453323
0.465291
0.477961
0.489441
0.496505
0.496089
0.441647
0.443235
0.448362
0.456801
0.468141
0.481987
0.497665
0.513922
0.52842
0.538871
0.453485
0.455034
0.460408
0.469509
0.482
0.497673
0.516161
0.536706
0.557758
0.577658
0.463738
0.465315
0.470956
0.480675
0.494207
0.511503
0.532463
0.556752
0.583519
0.611658
0.472209
0.473836
0.479725
0.489981
0.504397
0.523063
0.546101
0.573518
0.605025
0.640003
0.478728
0.48041
0.48651
0.497198
0.512314
0.532056
0.556715
0.586556
0.621707
0.661956
0.483159
0.484886
0.491139
0.502129
0.517732
0.538214
0.563984
0.595479
0.633098
0.676933
0.4854
0.487153
0.493486
0.504632
0.520484
0.541343
0.567678
0.60001
0.638877
0.684525
0.0230822
0.0228956
0.0224504
0.0216953
0.0206366
0.0192961
0.0176927
0.0158426
0.0137626
0.0114755
0.0263026
0.0260941
0.0255953
0.0247489
0.0235622
0.0220603
0.0202643
0.0181933
0.0158649
0.0133106
0.0331383
0.0328815
0.032267
0.0312239
0.0297616
0.0279116
0.0257005
0.0231537
0.0202913
0.0171654
0.0444238
0.0440853
0.0432751
0.0418998
0.0399711
0.0375291
0.0346076
0.0312394
0.0274439
0.023305
0.0615751
0.0611116
0.0600031
0.058121
0.0554784
0.0521268
0.0481076
0.043465
0.0382164
0.0325082
0.0867541
0.0861096
0.0845707
0.0819576
0.0782777
0.0735832
0.0679085
0.0612916
0.053713
0.0453812
0.123088
0.122202
0.1201
0.116537
0.111498
0.105006
0.0970568
0.0876585
0.0767337
0.0646174
0.174697
0.173568
0.170902
0.166377
0.159887
0.151323
0.140497
0.127193
0.111005
0.0920183
0.245528
0.244412
0.241776
0.237192
0.230321
0.220736
0.207865
0.191049
0.169542
0.142787
0.335426
0.334726
0.333177
0.330302
0.325318
0.316987
0.303538
0.282577
0.251469
0.206852
0.00955779
0.00813717
0.00667322
0.00518017
0.00365741
0.002106
0.000530251
-0.00106465
-0.00267388
-0.00429295
0.0111539
0.00955896
0.00791502
0.0062513
0.00456301
0.00284704
0.00110724
-0.00065021
-0.00241958
-0.00419568
0.0144845
0.0124894
0.0104441
0.00841103
0.00637355
0.00431807
0.00224696
0.000167739
-0.00191323
-0.00399102
0.0196649
0.0169364
0.0141812
0.0115046
0.00885856
0.0062102
0.0035613
0.000923032
-0.00169674
-0.00429319
0.0273674
0.0234785
0.0196332
0.0159955
0.0124529
0.00893758
0.00545083
0.00200944
-0.00137827
-0.00471029
0.0376289
0.0316776
0.0259374
0.0206468
0.0155564
0.0105354
0.00559036
0.000752717
-0.00396503
-0.00856245
0.0531656
0.0440927
0.0354636
0.0277532
0.0204869
0.0133943
0.00647768
-0.000204252
-0.00663022
-0.0128074
0.0734215
0.0577235
0.0427704
0.0298583
0.018007
0.00654034
-0.0046126
-0.0153639
-0.0256904
-0.0356187
0.117542
0.0916267
0.0648348
0.041996
0.0218759
0.00320212
-0.0141083
-0.0298443
-0.0439794
-0.0566288
0.168011
0.127024
0.0816759
0.0386068
-0.00313165
-0.0440107
-0.083414
-0.120759
-0.155777
-0.188384
-0.00591755
-0.00754353
-0.00916692
-0.0107839
-0.0123911
-0.013985
-0.0155626
-0.0171209
-0.0186586
-0.0201739
-0.00597353
-0.00774822
-0.00951499
-0.0112693
-0.013007
-0.0147242
-0.0164173
-0.0180831
-0.0197196
-0.021328
-0.00606112
-0.00811904
-0.0101604
-0.0121812
-0.0141777
-0.0161464
-0.0180843
-0.0199883
-0.0218551
-0.023692
-0.00686208
-0.00939899
-0.0118996
-0.0143598
-0.0167762
-0.0191456
-0.0214654
-0.0237332
-0.0259429
-0.0281079
-0.00798565
-0.011203
-0.0143609
-0.0174585
-0.0204951
-0.0234703
-0.0263835
-0.0292334
-0.0320082
-0.0347115
-0.01304
-0.0173959
-0.0216272
-0.0257305
-0.0297018
-0.0335374
-0.0372335
-0.0407872
-0.044179
-0.0473774
-0.0187492
-0.0244692
-0.0299829
-0.0353092
-0.0404699
-0.0454885
-0.0503881
-0.0551906
-0.0598962
-0.0643842
-0.0451723
-0.0543542
-0.0631504
-0.0715342
-0.0794683
-0.0869077
-0.0938089
-0.100145
-0.105913
-0.111235
-0.0679433
-0.0780859
-0.0872506
-0.0956806
-0.103683
-0.111638
-0.120005
-0.129321
-0.140167
-0.154334
-0.218588
-0.246485
-0.272265
-0.296208
-0.318703
-0.340252
-0.361477
-0.383021
-0.405387
-0.429229
-0.0305355
-0.0410086
-0.0417191
-0.0358611
-0.028154
-0.0212841
-0.0154583
-0.0104654
-0.00593313
-0.00197489
-0.032766
-0.0430101
-0.0427301
-0.0361581
-0.0281778
-0.0212192
-0.0153452
-0.0103434
-0.00583877
-0.00194464
-0.0375878
-0.0471109
-0.0447377
-0.0367611
-0.028234
-0.0210727
-0.0151003
-0.010084
-0.00564582
-0.00188006
-0.0458321
-0.0535703
-0.0476998
-0.0376141
-0.0282788
-0.020803
-0.014692
-0.00966703
-0.00534312
-0.00178129
-0.0588574
-0.0628314
-0.0515615
-0.0385843
-0.0281907
-0.0203215
-0.0140681
-0.00905877
-0.00491458
-0.00164468
-0.0789489
-0.0756785
-0.0565217
-0.0395838
-0.0277793
-0.0194742
-0.0131411
-0.00820434
-0.00433633
-0.00145116
-0.108187
-0.0929511
-0.063322
-0.0408389
-0.0269549
-0.0181287
-0.0118285
-0.00705019
-0.00358901
-0.0011527
-0.147779
-0.113853
-0.072742
-0.042808
-0.0259051
-0.0163332
-0.0101534
-0.00561494
-0.00269823
-0.000681786
-0.189195
-0.131711
-0.082171
-0.0442386
-0.0244792
-0.0141268
-0.00821782
-0.00402317
-0.00176376
-1.93052e-06
-0.24729
-0.14072
-0.0881735
-0.04278
-0.0227459
-0.0117343
-0.0063686
-0.00253945
-0.00100222
0.000840051
-0.313821
-0.148818
-0.091794
-0.039525
-0.0222474
-0.0104027
-0.00565217
-0.0017998
-0.000836531
0.00149332
-0.321626
-0.146443
-0.0906831
-0.0378236
-0.0217451
-0.00991082
-0.00540755
-0.00160891
-0.000776834
0.00163996
-0.316849
-0.140938
-0.0882341
-0.0359256
-0.0210996
-0.00941319
-0.00516012
-0.00144394
-0.00070597
0.00175121
-0.311146
-0.136922
-0.0864097
-0.0344751
-0.0206081
-0.00900737
-0.00495501
-0.00130357
-0.000643507
0.00184998
-0.306254
-0.134017
-0.0850315
-0.0333069
-0.0202201
-0.00866631
-0.00478305
-0.00118245
-0.00059104
0.00193885
-0.30165
-0.131571
-0.0838367
-0.0323204
-0.0198923
-0.00837657
-0.0046382
-0.00108023
-0.000547025
0.00201502
-0.297465
-0.129515
-0.0828201
-0.0315201
-0.0196241
-0.00814088
-0.004521
-0.000997877
-0.000511262
0.00207694
-0.294054
-0.127924
-0.0820309
-0.0309199
-0.0194212
-0.00796283
-0.00443268
-0.00093592
-0.000484104
0.00212394
-0.291663
-0.126843
-0.0814953
-0.0305215
-0.0192857
-0.0078438
-0.00437372
-0.000894562
-0.00046583
0.0021556
-0.290432
-0.126295
-0.0812247
-0.030323
-0.0192179
-0.00778426
-0.00434429
-0.000873906
-0.000456592
0.00217157
)
;

boundaryField
{
    inlet
    {
        type            zeroGradient;
    }
    outlet
    {
        type            fixedValue;
        value           uniform 0;
    }
    cylinder
    {
        type            zeroGradient;
    }
    top
    {
        type            symmetryPlane;
    }
    bottom
    {
        type            symmetryPlane;
    }
    defaultFaces
    {
        type            empty;
    }
}


// ************************************************************************* //
