1.45 	0 	0 	0.00181472 	-0.00355782 	3.96538e-21
2.35 	0 	0 	0.1039 	-0.00813561 	2.07351e-21
