1.275 	2.15223e-18 	-2.76991e-20 	-0.0331994 	-0.000483012 	-2.01478e-22
1.825 	2.15223e-18 	-1.39322e-20 	-0.00746483 	-0.0028745 	1.81017e-21
2.375 	2.15223e-18 	-2.66896e-23 	0.12123 	-0.0034178 	-7.54599e-22
