1.45 	0 	0 	-0.298503
2.35 	0 	0 	-0.13249
