1.45 	0 	0 	-0.00748085 	-0.00260502 	3.85069e-21
2.35 	0 	0 	0.0629125 	-0.00668423 	2.37822e-21
