/*--------------------------------*- C++ -*----------------------------------*\
  =========                 |
  \\      /  F ield         | OpenFOAM: The Open Source CFD Toolbox
   \\    /   O peration     | Website:  https://openfoam.org
    \\  /    A nd           | Version:  6.0
     \\/     M anipulation  |
\*---------------------------------------------------------------------------*/
FoamFile
{
    version     2.0;
    format      ascii;
    class       surfaceScalarField;
    location    "3.5";
    object      phi;
}
// * * * * * * * * * * * * * * * * * * * * * * * * * * * * * * * * * * * * * //

dimensions      [1 0 -1 0 0 0 0];

internalField   nonuniform List<scalar> 
8300
(
0.000641435
1.90482e-08
0.000201212
0.000568854
2.68786e-08
7.25578e-05
0.000528271
9.13561e-08
4.04826e-05
0.000464675
1.81963e-07
6.3405e-05
0.000380554
3.63938e-07
8.37464e-05
0.000265807
9.28554e-07
0.000113788
0.000387466
3.02398e-06
-0.000124599
0.000318882
6.9045e-06
6.24703e-05
0.000347783
8.28596e-05
-0.000111239
8.17232e-05
0.000266832
0.000641491
4.09866e-08
0.000201154
0.00056882
5.69289e-08
7.26453e-05
0.000528403
1.94893e-07
4.03032e-05
0.000464876
3.88042e-07
6.33109e-05
0.000380956
7.73146e-07
8.34989e-05
0.000266037
1.90712e-06
0.000113914
0.000384677
5.9604e-06
-0.00012152
0.000314503
1.80635e-05
5.94854e-05
0.000329466
0.000142079
-7.53536e-05
0.000180395
0.000229876
0.000641606
6.83149e-08
0.000201035
0.000568748
9.0847e-08
7.28288e-05
0.000528685
3.18895e-07
3.9928e-05
0.000465277
6.35761e-07
6.31498e-05
0.000381502
1.26869e-06
8.32657e-05
0.000266862
3.13127e-06
0.000113389
0.000386535
9.59853e-06
-0.000123274
0.00031119
3.04194e-05
6.35578e-05
0.000320309
0.000199676
-6.71987e-05
0.000296013
0.000204483
0.0006418
1.01864e-07
0.000200836
0.00056863
1.32526e-07
7.31329e-05
0.00052916
4.68719e-07
3.93085e-05
0.000465935
9.37711e-07
6.29111e-05
0.000382351
1.86354e-06
8.29742e-05
0.000268471
4.52679e-06
0.000112456
0.000394866
1.34136e-05
-0.000130165
0.000312482
3.87563e-05
7.48556e-05
0.000316451
0.000289667
-9.40553e-05
0.000422295
0.000190422
0.000642082
1.48551e-07
0.000200544
0.000568458
1.84763e-07
7.35767e-05
0.00052985
6.73138e-07
3.83912e-05
0.000466848
1.34484e-06
6.25826e-05
0.000383402
2.6706e-06
8.26223e-05
0.000269774
6.49506e-06
0.000111633
0.000401137
1.89675e-05
-0.000136873
0.000311696
5.48091e-05
7.41958e-05
0.000313603
0.000402204
-0.000114508
0.000559999
0.000176407
0.0006425
2.07268e-07
0.000200118
0.000568208
2.62986e-07
7.42195e-05
0.000530872
9.46124e-07
3.70504e-05
0.000468194
1.87557e-06
6.21354e-05
0.000385099
3.64374e-06
8.21042e-05
0.000271591
8.56274e-06
0.000111422
0.000411791
2.49406e-05
-0.000146148
0.000309815
6.79557e-05
8.9473e-05
0.000309577
0.000529581
-0.000127276
0.000712851
0.000157154
0.000643026
2.95581e-07
0.000199571
0.000567851
3.94304e-07
7.50483e-05
0.000532151
1.37544e-06
3.52587e-05
0.000469801
2.59513e-06
6.16197e-05
0.000386905
4.89227e-06
8.16327e-05
0.000273722
1.17447e-05
0.000109981
0.000419391
3.31064e-05
-0.000153815
0.000306378
8.78263e-05
9.34331e-05
0.000302182
0.000672732
-0.000139267
0.000884102
0.000131269
0.000643597
3.89809e-07
0.000199003
0.000567316
6.48579e-07
7.60311e-05
0.000533488
1.77295e-06
3.34199e-05
0.000472242
3.22361e-06
6.06087e-05
0.000392455
5.67872e-06
7.89813e-05
0.000272802
1.2133e-05
0.000119284
0.000419647
3.79688e-05
-0.000151822
0.000300317
9.67026e-05
0.000110393
0.000291964
0.000831751
-0.000151241
0.00107531
0.000100878
0.000643641
5.08734e-07
0.000198947
0.000566601
8.50634e-07
7.684e-05
0.000534086
2.28742e-06
3.1992e-05
0.000474036
4.11041e-06
5.9155e-05
0.000394956
7.22101e-06
7.75245e-05
0.000279991
1.56835e-05
0.000111411
0.000409272
4.92926e-05
-0.000140618
0.000298521
0.000125207
8.22354e-05
0.00028084
0.00101481
-0.000166006
0.00130509
5.10985e-05
0.000643741
0.00019883
6.61466e-07
0.000565656
7.79261e-05
1.00986e-06
0.000534896
3.02395e-05
2.79916e-06
0.000476813
5.72678e-05
4.91792e-06
0.00040073
7.45923e-05
8.70064e-06
0.000289609
0.000107808
1.8983e-05
0.000392206
-0.000117229
6.39318e-05
0.000298824
6.62926e-05
0.000152212
0.000268359
-0.000210524
0.00125519
-5.25276e-05
0.00162586
0.000903248
3.17542e-08
0.000137484
0.000858263
7.94998e-08
0.000117459
0.000788045
1.87475e-07
0.000110506
0.000757339
4.31446e-07
9.36689e-05
0.000756202
9.87434e-07
8.38816e-05
0.000781227
2.34833e-06
8.63984e-05
0.000581762
6.41089e-06
6.82711e-05
0.00060822
2.66823e-05
9.25646e-06
-6.73434e-05
0.000327617
0.000235208
0.000185152
1.42296e-05
0.000903215
6.65272e-08
0.000137456
0.000858353
1.65801e-07
0.000117417
0.00078797
3.88801e-07
0.000110477
0.000757231
8.85801e-07
9.35844e-05
0.000756032
1.99629e-06
8.36739e-05
0.000781659
4.69977e-06
8.59164e-05
0.000587447
1.20906e-05
6.68863e-05
0.000629707
4.31746e-05
5.59772e-07
0.000420965
0.000381116
7.84551e-05
0.000631721
0.000203199
0.000903146
1.08512e-07
0.000137398
0.000858526
2.69187e-07
0.000117342
0.000787742
6.29969e-07
0.000110463
0.000756873
1.42594e-06
9.34665e-05
0.000755539
3.18969e-06
8.3389e-05
0.000780787
7.47951e-06
8.53395e-05
0.00058429
1.91373e-05
6.60444e-05
0.000629292
6.40749e-05
-2.53897e-06
0.000282155
0.000619622
3.96658e-05
0.000992268
0.000125812
0.000903035
1.60695e-07
0.000137302
0.000858797
3.99981e-07
0.000117235
0.000787295
9.34152e-07
0.000110498
0.000756225
2.09963e-06
9.32941e-05
0.000754764
4.64686e-06
8.29579e-05
0.000779389
1.07638e-05
8.45263e-05
0.000576208
2.72083e-05
6.4777e-05
0.000621631
9.37368e-05
-3.89558e-07
0.000255555
0.000886897
2.65504e-06
0.00134876
8.94355e-05
0.000902869
2.34131e-07
0.000137155
0.000859155
5.83242e-07
0.000117103
0.000786533
1.35307e-06
0.000110585
0.000755127
3.00227e-06
9.30717e-05
0.000753427
6.55561e-06
8.23926e-05
0.0007772
1.50245e-05
8.358e-05
0.000565306
3.81462e-05
6.39098e-05
0.000608139
0.00012601
-1.04894e-06
0.000242626
0.00116824
-3.2569e-05
0.00172523
4.27546e-05
0.000902625
3.45712e-07
0.000136937
0.000859599
8.74935e-07
0.000116949
0.000785279
1.96487e-06
0.000110751
0.000753461
4.18428e-06
9.27574e-05
0.000751664
8.88098e-06
8.15514e-05
0.000775766
2.0131e-05
8.22031e-05
0.000554976
5.06178e-05
6.20312e-05
0.000601088
0.000167451
1.86463e-06
0.000221723
0.00147153
-5.34151e-05
0.0021034
1.05979e-06
0.000902266
6.0205e-07
0.000136608
0.000859962
1.42109e-06
0.000116801
0.000783288
2.84681e-06
0.000111042
0.000751163
5.63072e-06
9.22851e-05
0.000749642
1.16411e-05
8.03722e-05
0.000773542
2.57717e-05
8.04226e-05
0.000543452
6.61753e-05
6.06262e-05
0.000589951
0.000211707
2.57674e-06
0.000205657
0.00178922
-7.47517e-05
0.00247569
-3.50337e-05
0.000902098
1.10849e-06
0.000135963
0.000860597
2.29706e-06
0.00011665
0.000782475
4.00049e-06
0.00011038
0.00074988
7.30217e-06
9.15219e-05
0.000746434
1.46989e-05
7.93434e-05
0.00077831
3.34097e-05
7.97778e-05
0.000545811
8.69466e-05
5.99363e-05
0.000593374
0.000270547
4.03036e-06
0.000197196
0.0021273
-9.49325e-05
0.00284781
-7.38984e-05
0.000903617
1.4171e-06
0.000134596
0.000863617
2.97157e-06
0.00011616
0.000785478
5.12942e-06
0.000108995
0.000752258
9.15976e-06
9.05062e-05
0.000748154
1.82049e-05
7.81027e-05
0.000775011
4.11339e-05
7.68207e-05
0.000555189
0.000109573
5.65642e-05
0.000587216
0.000328945
-8.11119e-06
0.000206298
0.00246576
-0.000125202
0.00321671
-0.000111268
0.000905201
0.000132917
1.71649e-06
0.00086707
0.000115574
3.44989e-06
0.000789369
0.000107182
5.8795e-06
0.000756068
8.92079e-05
1.05096e-05
0.000751619
7.65553e-05
2.06733e-05
0.000781093
7.33884e-05
4.60584e-05
0.000599711
5.096e-05
0.000122737
0.00060266
-2.91279e-05
0.000421466
0.000236168
-0.000166792
0.0027871
-0.000138393
0.00353858
0.00091517
1.39214e-08
6.17325e-05
0.000953291
6.31027e-08
7.92716e-05
0.000983129
1.79837e-07
8.04844e-05
0.000998448
4.41272e-07
7.79051e-05
0.000997815
1.06253e-06
8.34463e-05
0.000993971
2.69311e-06
8.75417e-05
0.000965692
7.54194e-06
8.89313e-05
0.000911657
2.9243e-05
3.42087e-05
0.00083763
0.000289959
1.73496e-05
0.000415807
0.00043434
0.000915148
2.74528e-08
6.17271e-05
0.000953238
1.36599e-07
7.92499e-05
0.000983046
3.78392e-07
8.04671e-05
0.000998329
9.11448e-07
7.7826e-05
0.0009976
2.17304e-06
8.32869e-05
0.000993564
5.47426e-06
8.71613e-05
0.000964744
1.5134e-05
8.8057e-05
0.000910326
5.44055e-05
2.9941e-05
0.000731303
0.000566214
-2.0598e-05
0.00109746
0.000251383
0.000915099
4.14007e-08
6.17172e-05
0.000953124
2.33758e-07
7.92165e-05
0.000982962
6.21977e-07
8.03778e-05
0.000998178
1.46735e-06
7.76885e-05
0.0009972
3.46652e-06
8.30657e-05
0.000992613
8.69866e-06
8.6691e-05
0.000962697
2.39696e-05
8.70611e-05
0.000904272
8.50844e-05
2.53195e-05
0.000607072
0.000966849
-6.56381e-05
0.00159223
0.000236774
0.000915016
5.81737e-08
6.17014e-05
0.000952933
3.66864e-07
7.91818e-05
0.000983054
9.53539e-07
8.0041e-05
0.000998156
2.18943e-06
7.74645e-05
0.000996669
5.07731e-06
8.28234e-05
0.000991059
1.26201e-05
8.62009e-05
0.000958752
3.47746e-05
8.61975e-05
0.000896353
0.000124293
2.29028e-05
0.000602004
0.00136833
-0.000106392
0.00209868
0.000183699
0.000914884
8.33465e-08
6.16793e-05
0.000952634
5.72115e-07
7.91439e-05
0.000983236
1.42784e-06
7.95045e-05
0.00099822
3.1451e-06
7.71245e-05
0.000996086
7.10084e-06
8.24933e-05
0.00098926
1.74451e-05
8.55656e-05
0.000954828
4.80677e-05
8.49639e-05
0.00088794
0.000169224
2.10029e-05
0.000583622
0.00176933
-0.000131121
0.00257582
0.000148167
0.000914673
1.35041e-07
6.16457e-05
0.000952173
9.16925e-07
7.91001e-05
0.000983543
2.11603e-06
7.86875e-05
0.000998592
4.23117e-06
7.66155e-05
0.000995813
9.38035e-06
8.2039e-05
0.000987632
2.31401e-05
8.46742e-05
0.000949935
6.43087e-05
8.34179e-05
0.000879032
0.000223128
1.89193e-05
0.000565707
0.00218136
-0.000153943
0.00302839
0.000113066
0.000914334
2.67252e-07
6.15761e-05
0.000951478
1.5297e-06
7.90401e-05
0.000984832
2.45136e-06
7.73475e-05
0.00100032
5.16518e-06
7.58596e-05
0.000996661
1.19527e-05
8.14432e-05
0.000986611
3.01052e-05
8.34915e-05
0.000945771
8.45868e-05
8.11398e-05
0.000869695
0.00028585
1.59633e-05
0.000549389
0.00260034
-0.000175269
0.00345822
8.3624e-05
0.000913726
5.24016e-07
6.14154e-05
0.000950708
2.30757e-06
7.88858e-05
0.000983697
3.24949e-06
7.65876e-05
0.000998607
6.50492e-06
7.52634e-05
0.000994302
1.50903e-05
8.04975e-05
0.000984124
3.85289e-05
8.15157e-05
0.000941031
0.000109496
7.80909e-05
0.000861042
0.000358408
1.14635e-05
0.000537046
0.00302805
-0.000200389
0.00386787
5.25795e-05
0.000912769
6.9714e-07
6.10935e-05
0.000949686
2.93674e-06
7.8608e-05
0.000982192
4.03977e-06
7.56926e-05
0.000996667
7.99558e-06
7.45319e-05
0.000992368
1.852e-05
7.89552e-05
0.0009814
4.73814e-05
7.89136e-05
0.00093828
0.000136053
7.30848e-05
0.000852871
0.000432399
3.28436e-06
0.000526312
0.0034525
-0.000224782
0.00426743
1.47489e-05
0.000911567
6.06661e-05
8.2627e-07
0.000948465
7.82617e-05
3.34505e-06
0.000980467
7.46412e-05
4.57283e-06
0.000994788
7.36666e-05
9.20433e-06
0.00099158
7.70966e-05
2.11674e-05
0.000983277
7.56233e-05
5.34193e-05
0.000949317
6.67388e-05
0.000154183
0.000855342
-9.3156e-06
0.000506512
0.000487739
-0.000264339
0.00391596
-1.88763e-05
0.00463492
0.000887893
3.59364e-09
1.35101e-05
0.000922991
4.07097e-08
4.41309e-05
0.000960125
1.40886e-07
4.32073e-05
0.000985929
3.73322e-07
5.17272e-05
0.00102097
9.77382e-07
4.74318e-05
0.00105824
2.63544e-06
4.76432e-05
0.00108682
7.63385e-06
5.26963e-05
0.00106332
2.98649e-05
2.81675e-05
0.000810003
0.000304135
-3.61023e-05
0.000870591
0.00037213
0.000887877
6.30913e-09
1.35212e-05
0.000922946
9.59418e-08
4.41239e-05
0.00096017
2.79127e-07
4.31033e-05
0.00098597
7.49504e-07
5.1648e-05
0.00102088
2.0079e-06
4.73475e-05
0.00105767
5.47988e-06
4.75294e-05
0.00108515
1.59912e-05
5.22058e-05
0.00105649
6.24083e-05
2.63654e-05
0.000626453
0.000763137
-5.21864e-05
0.00152689
0.000220044
0.000887839
7.80742e-09
1.35511e-05
0.000922861
1.80882e-07
4.41074e-05
0.000960191
4.07455e-07
4.29164e-05
0.000985978
1.16303e-06
5.14865e-05
0.00102066
3.19261e-06
4.71953e-05
0.00105669
8.78119e-06
4.73654e-05
0.00108252
2.57618e-05
5.14469e-05
0.00104397
0.000102665
2.38977e-05
0.00054299
0.00127267
-7.67741e-05
0.00214153
0.000163742
0.00088776
9.86015e-09
1.36141e-05
0.000922745
3.0405e-07
4.40713e-05
0.000959804
6.39259e-07
4.27468e-05
0.000985476
1.72206e-06
5.12308e-05
0.00101993
4.65492e-06
4.69059e-05
0.00105506
1.27667e-05
4.70896e-05
0.0010787
3.76454e-05
5.06571e-05
0.00103164
0.000151147
2.17665e-05
0.000541007
0.0017444
-8.99781e-05
0.00272601
0.000138941
0.000887625
1.47387e-08
1.37238e-05
0.000922558
5.02929e-07
4.40106e-05
0.000959247
9.75369e-07
4.24754e-05
0.000984826
2.44042e-06
5.08232e-05
0.00101909
6.42982e-06
4.64483e-05
0.00105329
1.75222e-05
4.66156e-05
0.00107428
5.17785e-05
4.98343e-05
0.00101966
0.000207049
1.98603e-05
0.000515748
0.00221518
-0.000100565
0.00327156
0.000117308
0.000887402
3.04328e-08
1.39029e-05
0.000922261
8.29416e-07
4.39117e-05
0.000958495
1.39135e-06
4.20344e-05
0.000984128
3.18798e-06
5.02311e-05
0.00101839
8.36971e-06
4.58337e-05
0.00105137
2.30997e-05
4.6118e-05
0.00106824
6.90691e-05
4.92493e-05
0.00100576
0.000270342
1.82002e-05
0.000497467
0.00268699
-0.000119932
0.00377896
0.000102151
0.000887035
6.9066e-08
1.41772e-05
0.000921834
1.33924e-06
4.37291e-05
0.000957567
1.54738e-06
4.14542e-05
0.000983543
3.66181e-06
4.94053e-05
0.00101808
1.03044e-05
4.49615e-05
0.00104967
2.95761e-05
4.54225e-05
0.00106165
8.99406e-05
4.82838e-05
0.000990906
0.000341131
1.59745e-05
0.000478026
0.00315992
-0.000137634
0.00425019
8.95879e-05
0.000886432
1.43726e-07
1.45846e-05
0.000921397
1.89593e-06
4.33604e-05
0.00095673
1.88637e-06
4.09118e-05
0.000982852
4.35313e-06
4.84447e-05
0.0010169
1.26633e-05
4.40808e-05
0.0010464
3.71703e-05
4.44121e-05
0.00105355
0.000114337
4.6534e-05
0.000975757
0.000417647
1.27465e-05
0.000462831
0.00361591
-0.000145522
0.00468271
8.20803e-05
0.000885579
1.98443e-07
1.5137e-05
0.000920894
2.34755e-06
4.28363e-05
0.00095589
2.22443e-06
4.03549e-05
0.00098249
5.2175e-06
4.70609e-05
0.00101562
1.54471e-05
4.30353e-05
0.00104291
4.56512e-05
4.31167e-05
0.00104514
0.000141232
4.39396e-05
0.00096138
0.000497009
7.65716e-06
0.000491039
0.00408236
-0.000222996
0.00507098
0.000117081
0.000884525
1.57887e-05
2.29607e-07
0.000920342
4.21804e-05
2.60776e-06
0.000955002
3.9741e-05
2.46039e-06
0.000982243
4.54554e-05
6.17895e-06
0.00101478
4.18467e-05
1.81422e-05
0.00104169
4.16249e-05
5.27194e-05
0.00104416
4.09227e-05
0.000164536
0.000956913
3.19856e-07
0.000574576
0.000345744
-0.000258453
0.00468555
9.0826e-05
0.00530657
0.000853366
4.9756e-09
-5.0429e-10
0.000897462
3.40529e-08
-5.63361e-10
0.000940592
7.73962e-08
-1.34571e-09
0.000992053
2.63138e-07
3.457e-09
0.00103866
8.22145e-07
1.25175e-08
0.00108383
2.44687e-06
3.43399e-08
0.00112908
7.41219e-06
7.30663e-08
0.00112789
2.94871e-05
1.74962e-07
0.000766292
0.000322645
-2.18887e-07
0.00113553
1.32637e-06
0.000853374
1.29209e-08
-4.0902e-10
0.000897444
8.77713e-08
-2.82139e-10
0.000940483
1.40451e-07
-1.10653e-09
0.000991879
5.10653e-07
5.03408e-09
0.00103836
1.68029e-06
1.58097e-08
0.00108318
5.122e-06
4.2148e-08
0.00112696
1.57769e-05
9.31975e-08
0.00111791
6.49976e-05
2.14169e-07
0.000511145
0.000873631
5.34089e-07
0.00186533
-9.56701e-08
0.000853398
2.62326e-08
-1.9993e-10
0.000897416
1.77035e-07
8.05087e-11
0.000940284
1.88422e-07
-2.18722e-09
0.000991519
7.55372e-07
5.33113e-09
0.00103775
2.6269e-06
1.88953e-08
0.00108201
8.18206e-06
5.26676e-08
0.00112348
2.56684e-05
1.25473e-07
0.00110208
0.000110273
3.07836e-07
0.000456573
0.00143955
-1.95695e-07
0.00248502
-7.68177e-07
0.000853455
4.63288e-08
-4.96092e-11
0.00089739
3.12326e-07
4.02587e-10
0.000940015
3.09035e-07
-2.40578e-09
0.000990901
1.09282e-06
6.5762e-09
0.00103664
3.77498e-06
2.21338e-08
0.00108005
1.18146e-05
5.864e-08
0.00111863
3.75964e-05
1.56641e-07
0.00108744
0.000163211
2.9426e-07
0.000486764
0.00194796
-6.39094e-07
0.00310953
-1.01158e-07
0.000853553
7.85473e-08
6.91534e-11
0.000897345
5.30219e-07
6.82539e-10
0.000939654
4.73296e-07
-2.36213e-09
0.000990075
1.4859e-06
7.73889e-09
0.00103516
5.11394e-06
2.47742e-08
0.00107739
1.61401e-05
6.42087e-08
0.00111286
5.1806e-05
1.62428e-07
0.00107335
0.000222626
2.11904e-07
0.000461083
0.00245711
-3.14082e-07
0.00368669
4.31739e-08
0.000853715
1.27944e-07
1.85241e-10
0.000897294
8.61215e-07
9.57199e-10
0.000939179
6.2211e-07
-2.47233e-09
0.000989051
1.83428e-06
8.06775e-09
0.00103342
6.55492e-06
2.51981e-08
0.00107442
2.11929e-05
6.32496e-08
0.00110647
6.88658e-05
1.4715e-07
0.00105759
0.000289829
9.75656e-08
0.000436287
0.00295618
-4.01908e-07
0.00422392
1.49352e-07
0.000853975
1.93327e-07
3.23522e-10
0.000897268
1.29531e-06
8.01447e-10
0.000938653
6.90533e-07
-2.42358e-09
0.000987818
2.06465e-06
6.86897e-09
0.00103127
8.04127e-06
2.16449e-08
0.00107084
2.69918e-05
5.35804e-08
0.00109888
8.8978e-05
1.18169e-07
0.00104083
0.00036401
5.84365e-08
0.000397546
0.00345981
-5.85186e-07
0.00470973
3.88776e-07
0.000854383
2.59415e-07
6.27333e-10
0.000897303
1.73301e-06
5.72598e-10
0.000938185
7.19847e-07
-2.00752e-09
0.000986386
2.30286e-06
1.82926e-09
0.00102871
9.77683e-06
1.11951e-08
0.00106634
3.37322e-05
3.37724e-08
0.00108969
0.000112063
8.69281e-08
0.00102379
0.000442561
1.42559e-07
0.000413752
0.00392263
-6.29952e-07
0.00520229
2.59518e-06
0.000854952
3.12925e-07
7.06272e-10
0.000897433
2.08362e-06
2.33729e-10
0.000937792
7.15432e-07
-1.65801e-09
0.000984491
2.65991e-06
5.83001e-10
0.00102534
1.19518e-05
6.78803e-09
0.0010605
4.16416e-05
2.30542e-08
0.00107782
0.000138608
6.20439e-08
0.00100356
0.00052444
1.02886e-08
0.000281371
0.0044259
-6.69219e-06
0.00559137
9.61854e-06
0.000855628
6.42048e-10
3.45863e-07
0.000897673
6.46571e-11
2.21578e-06
0.000937439
-1.28045e-09
6.88121e-07
0.000982179
-1.95723e-10
3.37069e-06
0.00102139
3.48617e-09
1.45722e-05
0.00105534
1.39787e-08
4.92813e-05
0.00106937
3.82155e-08
0.000165427
0.000992718
5.36297e-08
0.000601291
-1.75478e-05
-6.89307e-07
0.00517607
-8.51349e-08
0.00566434
0.000853364
4.92238e-09
-1.35093e-05
0.000897463
3.36613e-08
-4.41338e-05
0.00094059
7.64383e-08
-4.32058e-05
0.000992052
2.61272e-07
-5.172e-05
0.00103866
8.19433e-07
-4.74108e-05
0.00108387
2.44402e-06
-4.76075e-05
0.00112912
7.41257e-06
-5.25558e-05
0.00112788
2.95033e-05
-2.7803e-05
0.000765935
0.00032253
3.61325e-05
0.0011371
-0.000371383
0.000853372
1.28437e-08
-1.35199e-05
0.000897445
8.72173e-08
-4.41271e-05
0.000940481
1.37604e-07
-4.31004e-05
0.000991877
5.06401e-07
-5.1636e-05
0.00103837
1.67476e-06
-4.7324e-05
0.00108322
5.11545e-06
-4.7478e-05
0.001127
1.57711e-05
-5.20111e-05
0.00111789
6.50043e-05
-2.58899e-05
0.000510292
0.000874146
5.3472e-05
0.00186852
-0.000222703
0.000853396
2.61287e-08
-1.35495e-05
0.000897418
1.76293e-07
-4.41108e-05
0.000940283
1.86321e-07
-4.29184e-05
0.000991513
7.51823e-07
-5.14711e-05
0.00103776
2.62212e-06
-4.71699e-05
0.00108206
8.17632e-06
-4.73006e-05
0.00112352
2.56699e-05
-5.12064e-05
0.00110204
0.000110296
-2.32267e-05
0.000456169
0.00144057
7.62474e-05
0.00248745
-0.000164925
0.000853452
4.62272e-08
-1.36119e-05
0.000897393
3.11598e-07
-4.40753e-05
0.000940015
3.07392e-07
-4.27489e-05
0.000990892
1.0905e-06
-5.12104e-05
0.00103664
3.7726e-06
-4.68775e-05
0.00108007
1.18138e-05
-4.70039e-05
0.00111868
3.7603e-05
-5.03689e-05
0.00108738
0.000163195
-2.10491e-05
0.000486478
0.00194822
8.96846e-05
0.00311152
-0.000138997
0.00085355
7.84674e-08
-1.37211e-05
0.000897348
5.29692e-07
-4.40151e-05
0.000939654
4.72129e-07
-4.24773e-05
0.000990065
1.48434e-06
-5.07982e-05
0.00103517
5.112e-06
-4.64156e-05
0.00107743
1.6137e-05
-4.65135e-05
0.0011129
5.17962e-05
-4.94985e-05
0.00107328
0.000222485
-1.92123e-05
0.000460594
0.00245708
0.000100635
0.00368863
-0.000117667
0.000853712
1.27889e-07
-1.38997e-05
0.000897298
8.60904e-07
-4.39167e-05
0.000939179
6.21636e-07
-4.20358e-05
0.000989039
1.83277e-06
-5.02031e-05
0.00103342
6.55016e-06
-4.57975e-05
0.00107445
2.11775e-05
-4.60059e-05
0.00110648
6.881e-05
-4.88904e-05
0.00105749
0.000289527
-1.77418e-05
0.000435521
0.00295578
0.000120164
0.0042259
-0.000102675
0.000853972
1.93308e-07
-1.41742e-05
0.000897272
1.29526e-06
-4.37342e-05
0.000938653
6.90552e-07
-4.14559e-05
0.000987807
2.06235e-06
-4.93795e-05
0.00103127
8.03242e-06
-4.49287e-05
0.00107086
2.69622e-05
-4.53201e-05
0.00109887
8.88747e-05
-4.79688e-05
0.00104074
0.00036359
-1.56615e-05
0.000396526
0.00345878
0.000138001
0.00471236
-9.04797e-05
0.000854382
2.59425e-07
-1.45817e-05
0.000897307
1.73317e-06
-4.3365e-05
0.000938187
7.20571e-07
-4.09147e-05
0.00098639
2.30219e-06
-4.84444e-05
0.00102872
9.77023e-06
-4.40596e-05
0.00106635
3.37069e-05
-4.43567e-05
0.0010897
0.000111971
-4.63641e-05
0.0010237
0.000442137
-1.23605e-05
0.000414246
0.00391919
0.000146083
0.0052137
-8.51497e-05
0.000854951
3.1297e-07
-1.51347e-05
0.000897437
2.08397e-06
-4.28406e-05
0.000937794
7.16506e-07
-4.03577e-05
0.000984496
2.66042e-06
-4.70637e-05
0.00102534
1.19486e-05
-4.30247e-05
0.00106051
4.1626e-05
-4.30802e-05
0.00107781
0.000138548
-4.38339e-05
0.00100308
0.000524255
-7.39914e-06
0.000244329
0.00442871
0.000239641
0.00559576
-0.00012762
0.000855628
-1.57867e-05
3.45934e-07
0.000897676
-4.21845e-05
2.21626e-06
0.000937442
-3.97435e-05
6.89327e-07
0.000982186
-4.546e-05
3.37182e-06
0.0010214
-4.1843e-05
1.45713e-05
0.00105534
-4.16021e-05
4.92729e-05
0.00106936
-4.08577e-05
0.00016539
0.000992608
-1.93836e-07
0.00060119
-1.68629e-05
0.000259976
0.00517515
-9.15603e-05
0.00566982
0.000887895
3.2651e-09
-6.17335e-05
0.000922993
3.89769e-08
-7.92715e-05
0.000960133
1.37237e-07
-8.04845e-05
0.00098595
3.6583e-07
-7.7904e-05
0.00102102
9.64216e-07
-8.34452e-05
0.00105833
2.6119e-06
-8.75274e-05
0.00108707
7.5911e-06
-8.88966e-05
0.0010631
2.98039e-05
-3.33656e-05
0.000811947
0.000303346
-1.86695e-05
0.000875268
-0.000436225
0.00088788
5.75585e-09
-6.17285e-05
0.000922949
9.34879e-08
-7.92515e-05
0.000960183
2.70858e-07
-8.04698e-05
0.000986005
7.36481e-07
-7.78296e-05
0.00102095
1.98705e-06
-8.32886e-05
0.00105778
5.44215e-06
-8.71438e-05
0.00108541
1.5915e-05
-8.79751e-05
0.00105641
6.22424e-05
-2.90644e-05
0.000625195
0.000765762
1.96684e-05
0.00153557
-0.000259241
0.000887843
7.22221e-09
-6.17192e-05
0.000922867
1.77903e-07
-7.92205e-05
0.000960191
4.00606e-07
-8.03755e-05
0.000986001
1.15095e-06
-7.7697e-05
0.00102072
3.17331e-06
-8.30755e-05
0.00105681
8.74971e-06
-8.66942e-05
0.00108281
2.57184e-05
-8.7026e-05
0.00104379
0.000102684
-2.44015e-05
0.000542529
0.00127546
6.52329e-05
0.00214781
-0.00023598
0.000887764
9.32067e-09
-6.17041e-05
0.000922753
3.01218e-07
-7.91882e-05
0.000959807
6.33564e-07
-8.00391e-05
0.000985509
1.71344e-06
-7.74775e-05
0.00102
4.64323e-06
-8.28379e-05
0.00105521
1.27527e-05
-8.62149e-05
0.00107905
3.7645e-05
-8.61495e-05
0.00103147
0.000151176
-2.1712e-05
0.000539919
0.00174531
0.000108868
0.002731
-0.000183548
0.000887631
1.42997e-08
-6.16826e-05
0.000922567
5.00797e-07
-7.91523e-05
0.000959252
9.71521e-07
-7.9503e-05
0.000984868
2.43527e-06
-7.71396e-05
0.00101918
6.42361e-06
-8.25062e-05
0.00105347
1.75156e-05
-8.55706e-05
0.00107466
5.17752e-05
-8.48284e-05
0.00101939
0.000206786
-1.9449e-05
0.000514822
0.00221538
0.000132551
0.00327585
-0.00014876
0.000887409
3.00827e-08
-6.16495e-05
0.000922272
8.28386e-07
-7.91101e-05
0.0009585
1.38975e-06
-7.86858e-05
0.000984174
3.18483e-06
-7.66299e-05
0.00101848
8.36215e-06
-8.20448e-05
0.00105157
2.30761e-05
-8.4661e-05
0.00106859
6.89737e-05
-8.31223e-05
0.00100544
0.000269542
-1.72609e-05
0.000496562
0.00268628
0.000155628
0.00378235
-0.000113597
0.000887043
6.8684e-08
-6.15804e-05
0.000921845
1.33909e-06
-7.90505e-05
0.000957574
1.54708e-06
-7.73458e-05
0.000983586
3.66003e-06
-7.58717e-05
0.00101816
1.0293e-05
-8.14442e-05
0.00104986
2.95254e-05
-8.34678e-05
0.00106191
8.97187e-05
-8.07781e-05
0.000990617
0.000339861
-1.46263e-05
0.000477059
0.00315794
0.00017753
0.00425304
-8.49612e-05
0.000886439
1.43704e-07
-6.14203e-05
0.000921409
1.89672e-06
-7.88962e-05
0.000956738
1.88848e-06
-7.65893e-05
0.000982859
4.35236e-06
-7.52625e-05
0.00101693
1.26509e-05
-8.04977e-05
0.0010465
3.71177e-05
-8.15255e-05
0.00105368
0.000114125
-7.79703e-05
0.000975575
0.000416572
-1.09425e-05
0.00046296
0.00361136
0.000203074
0.00468447
-5.44127e-05
0.000885586
1.98706e-07
-6.10987e-05
0.000920906
2.34891e-06
-7.86172e-05
0.0009559
2.22759e-06
-7.56951e-05
0.000982496
5.21978e-06
-7.45342e-05
0.00101563
1.54423e-05
-7.8964e-05
0.00104296
4.56209e-05
-7.89301e-05
0.00104516
0.000141103
-7.3042e-05
0.000960973
0.000496471
-3.12329e-06
0.000496674
0.00408339
0.000229468
0.00506972
-1.64639e-05
0.000884532
-6.0671e-05
2.29997e-07
0.000920352
-7.82699e-05
2.60944e-06
0.000955012
-7.46442e-05
2.46396e-06
0.00098225
-7.367e-05
6.18268e-06
0.0010148
-7.71073e-05
1.81424e-05
0.00104173
-7.56435e-05
5.27052e-05
0.0010442
-6.67219e-05
0.000164458
0.00095692
9.25794e-06
0.000574251
0.000347543
0.000266537
0.00468404
1.7609e-05
0.0053077
0.000915171
1.24943e-08
-0.000137485
0.000953293
5.90421e-08
-0.000117455
0.00098314
1.71726e-07
-0.000110506
0.000998481
4.25029e-07
-9.36734e-05
0.000997897
1.02731e-06
-8.38933e-05
0.000994226
2.60639e-06
-8.6471e-05
0.000966449
7.31565e-06
-6.84783e-05
0.000912375
2.87574e-05
-7.96665e-06
0.000843625
0.000285078
-0.000236754
0.000437478
-3.15041e-05
0.000915151
2.54113e-08
-0.000137459
0.000953242
1.30751e-07
-0.000117417
0.000983056
3.66344e-07
-0.000110482
0.000998362
8.8809e-07
-9.36024e-05
0.000997693
2.12527e-06
-8.37234e-05
0.00099388
5.36252e-06
-8.60955e-05
0.000965789
1.4847e-05
-6.74501e-05
0.000909974
5.36335e-05
1.95233e-06
0.000727146
0.000572714
-8.69592e-05
0.00110043
-0.000196351
0.000915105
3.92146e-08
-0.000137405
0.000953132
2.27264e-07
-0.000117347
0.000982982
6.09352e-07
-0.000110471
0.00099822
1.44387e-06
-9.3495e-05
0.000997306
3.4202e-06
-8.34639e-05
0.000992942
8.5942e-06
-8.5574e-05
0.00096378
2.37283e-05
-6.67842e-05
0.000903745
8.49162e-05
4.41636e-06
0.00060942
0.000967426
-3.69693e-05
0.00159963
-0.000126933
0.000915024
5.60998e-08
-0.000137312
0.000952945
3.60806e-07
-0.000117246
0.000983079
9.42623e-07
-0.00011051
0.000998202
2.17089e-06
-9.33338e-05
0.000996792
5.04423e-06
-8.3061e-05
0.000991435
1.25538e-05
-8.48319e-05
0.000960143
3.46563e-05
-6.58362e-05
0.000896229
0.00012431
2.86744e-06
0.00060177
0.0013703
-1.33134e-06
0.00210624
-8.95264e-05
0.000914894
8.17063e-08
-0.000137169
0.000952649
5.67652e-07
-0.000117117
0.000983263
1.42059e-06
-0.0001106
0.000998276
3.1342e-06
-9.31215e-05
0.00099624
7.08438e-06
-8.25217e-05
0.000989728
1.74199e-05
-8.39412e-05
0.000956701
4.80467e-05
-6.52525e-05
0.000887775
0.000168984
4.86701e-06
0.000584218
0.00177005
3.45182e-05
0.00257995
-3.92746e-05
0.000914685
1.34359e-07
-0.000136953
0.000952191
9.15148e-07
-0.000116968
0.000983574
2.11355e-06
-0.000110766
0.000998656
4.22832e-06
-9.28138e-05
0.000996004
9.37833e-06
-8.16984e-05
0.000988177
2.31416e-05
-8.25751e-05
0.000952375
6.43046e-05
-6.36479e-05
0.000879035
0.000221911
3.20395e-06
0.000568703
0.00217996
5.43091e-05
0.00303033
3.69943e-06
0.000914347
2.66299e-07
-0.000136625
0.000951497
1.52937e-06
-0.00011682
0.000984864
2.45171e-06
-0.000111056
0.00100038
5.16908e-06
-9.23385e-05
0.000996849
1.19639e-05
-8.05106e-05
0.000987137
3.01297e-05
-8.0763e-05
0.000948213
8.45625e-05
-6.21894e-05
0.000869869
0.00028362
2.04263e-06
0.00055472
0.00259753
7.32943e-05
0.0034574
4.18489e-05
0.00091374
5.24658e-07
-0.000135983
0.000950727
2.30965e-06
-0.00011667
0.000983719
3.25356e-06
-0.000110388
0.000998662
6.50849e-06
-9.15538e-05
0.000994443
1.5088e-05
-7.94185e-05
0.000984372
3.84979e-05
-7.98415e-05
0.000942035
0.000109329
-6.04484e-05
0.000860785
0.000357003
-3.07726e-06
0.000544747
0.00302498
8.98732e-05
0.00386584
8.10484e-05
0.000912781
6.98269e-07
-0.000134614
0.000949704
2.93987e-06
-0.000116176
0.000982214
4.04547e-06
-0.000109003
0.000996707
8.00262e-06
-9.05317e-05
0.000992453
1.85253e-05
-7.81651e-05
0.000981561
4.73737e-05
-7.69404e-05
0.000938918
0.000135977
-5.71062e-05
0.000852591
0.000431661
8.51731e-06
0.000534488
0.00345166
0.000119068
0.00426481
0.000118353
0.000911579
-0.000132934
8.2753e-07
0.000948482
-0.000115587
3.34846e-06
0.000980487
-0.00010719
4.57889e-06
0.000994823
-8.9228e-05
9.21253e-06
0.000991648
-7.66036e-05
2.11766e-05
0.000983406
-7.34873e-05
5.34253e-05
0.00094984
-5.13846e-05
0.000154147
0.000855283
2.95077e-05
0.000505904
0.000494703
0.000161582
0.00391541
0.000143272
0.00463319
0.000903248
2.83845e-08
-0.000201209
0.000858285
7.32133e-08
-7.25677e-05
0.000788067
1.74756e-07
-4.04681e-05
0.000757369
4.03254e-07
-6.33871e-05
0.000756188
9.179e-07
-8.3642e-05
0.00078178
2.14353e-06
-0.00011422
0.000582785
5.80128e-06
0.000124607
0.000617411
2.46565e-05
-6.73237e-05
-4.3947e-05
0.000319003
0.000104174
0.000178449
-0.000254662
0.000903219
6.2155e-08
-0.000201159
0.000858356
1.57052e-07
-7.26411e-05
0.000787987
3.71563e-07
-4.03156e-05
0.000757245
8.49923e-07
-6.33153e-05
0.000755963
1.91622e-06
-8.34523e-05
0.000782168
4.49541e-06
-0.000114668
0.000590777
1.15386e-05
0.000118126
0.000629929
4.08597e-05
-5.35449e-05
0.0004049
0.000383558
7.20668e-05
0.000643386
-0.000257316
0.000903155
1.03856e-07
-0.000201048
0.000858513
2.598e-07
-7.28106e-05
0.000787764
6.11676e-07
-3.99692e-05
0.000756895
1.3886e-06
-6.31744e-05
0.000755474
3.10768e-06
-8.32481e-05
0.000781264
7.26759e-06
-0.000114156
0.000588296
1.85845e-05
0.000119055
0.000629706
6.28966e-05
-5.91833e-05
0.000281178
0.000618948
7.46332e-05
0.00100172
-0.000204933
0.000903048
1.56169e-07
-0.000200858
0.000858768
3.91259e-07
-7.31006e-05
0.000787324
9.17782e-07
-3.93793e-05
0.000756256
2.06722e-06
-6.29548e-05
0.000754685
4.57731e-06
-8.29764e-05
0.000779801
1.05872e-05
-0.000113289
0.000581051
2.67891e-05
0.000124601
0.000622095
9.31192e-05
-6.85654e-05
0.00025875
0.000887038
9.22632e-05
0.00135167
-0.00018148
0.000902887
2.30403e-07
-0.000200575
0.000859109
5.76877e-07
-7.35294e-05
0.000786572
1.34164e-06
-3.84935e-05
0.000755173
2.98068e-06
-6.26487e-05
0.000753363
6.51071e-06
-8.26632e-05
0.000777566
1.49261e-05
-0.000112508