/*--------------------------------*- C++ -*----------------------------------*\
  =========                 |
  \\      /  F ield         | OpenFOAM: The Open Source CFD Toolbox
   \\    /   O peration     | Website:  https://openfoam.org
    \\  /    A nd           | Version:  6.0
     \\/     M anipulation  |
\*---------------------------------------------------------------------------*/
FoamFile
{
    version     2.0;
    format      ascii;
    class       volScalarField;
    location    "174";
    object      p;
}
// * * * * * * * * * * * * * * * * * * * * * * * * * * * * * * * * * * * * * //

dimensions      [0 2 -2 0 0 0 0];

internalField   nonuniform List<scalar> 
34500
(
1.00567
1.0058
1.00576
1.00555
1.00519
1.00472
1.00417
1.00359
1.00301
1.00246
1.00194
1.00151
1.00107
1.00085
1.00079
1.00567
1.00584
1.00585
1.00572
1.00544
1.00506
1.00459
1.00406
1.0035
1.00294
1.00239
1.00191
1.0014
1.00118
1.00104
1.00567
1.00583
1.00581
1.00565
1.00534
1.00493
1.00442
1.00386
1.00329
1.00273
1.00218
1.00172
1.00124
1.0011
1.00093
1.00568
1.00582
1.00579
1.0056
1.00526
1.00482
1.00429
1.00373
1.00314
1.00259
1.00206
1.00161
1.00118
1.00109
1.001
1.00568
1.00583
1.0058
1.00562
1.00528
1.00485
1.00433
1.00377
1.0032
1.00264
1.00211
1.00167
1.00124
1.00116
1.0011
1.00569
1.00584
1.00581
1.00564
1.00532
1.0049
1.00439
1.00384
1.00326
1.00271
1.00217
1.00173
1.00129
1.00121
1.00115
1.0057
1.00585
1.00583
1.00566
1.00534
1.00492
1.00441
1.00386
1.00328
1.00272
1.00219
1.00174
1.00131
1.00123
1.00118
1.00571
1.00586
1.00584
1.00567
1.00535
1.00492
1.00441
1.00386
1.00328
1.00272
1.00219
1.00174
1.00132
1.00124
1.00122
1.00572
1.00587
1.00585
1.00568
1.00536
1.00494
1.00443
1.00387
1.0033
1.00274
1.0022
1.00176
1.00134
1.00126
1.00124
1.00573
1.00588
1.00586
1.0057
1.00538
1.00496
1.00445
1.0039
1.00332
1.00276
1.00222
1.00178
1.00136
1.00128
1.00126
1.00574
1.00589
1.00588
1.00572
1.00541
1.00499
1.00448
1.00392
1.00335
1.00279
1.00225
1.0018
1.00139
1.00129
1.00128
1.00576
1.00591
1.0059
1.00574
1.00543
1.00501
1.00451
1.00395
1.00337
1.00281
1.00227
1.00182
1.00141
1.0013
1.00128
1.00577
1.00593
1.00592
1.00576
1.00546
1.00504
1.00454
1.00398
1.0034
1.00284
1.0023
1.00184
1.00143
1.00131
1.00128
1.00579
1.00594
1.00594
1.00579
1.00548
1.00507
1.00457
1.00402
1.00344
1.00287
1.00232
1.00186
1.00145
1.00131
1.00128
1.00581
1.00596
1.00596
1.00581
1.00551
1.0051
1.0046
1.00404
1.00346
1.00289
1.00234
1.00188
1.00146
1.00131
1.00127
1.00583
1.00598
1.00598
1.00583
1.00553
1.00513
1.00463
1.00407
1.00349
1.00291
1.00236
1.00189
1.00147
1.0013
1.00125
1.00585
1.00601
1.006
1.00586
1.00556
1.00515
1.00465
1.00409
1.0035
1.00293
1.00237
1.00189
1.00147
1.0013
1.00124
1.00587
1.00603
1.00603
1.00588
1.00558
1.00517
1.00467
1.00411
1.00352
1.00294
1.00238
1.0019
1.00148
1.00129
1.00122
1.00589
1.00605
1.00605
1.00591
1.00561
1.0052
1.00469
1.00413
1.00354
1.00295
1.00239
1.00191
1.00148
1.00128
1.0012
1.00591
1.00608
1.00608
1.00593
1.00563
1.00522
1.00472
1.00416
1.00356
1.00297
1.0024
1.00192
1.00149
1.00127
1.00118
1.00594
1.00611
1.00611
1.00596
1.00566
1.00525
1.00475
1.00418
1.00358
1.00299
1.00242
1.00192
1.0015
1.00126
1.00116
1.00596
1.00613
1.00614
1.00599
1.00569
1.00528
1.00478
1.00421
1.0036
1.00301
1.00243
1.00193
1.0015
1.00125
1.00114
1.00599
1.00616
1.00617
1.00602
1.00573
1.00531
1.00481
1.00423
1.00363
1.00303
1.00245
1.00194
1.0015
1.00124
1.00111
1.00602
1.0062
1.0062
1.00606
1.00576
1.00535
1.00484
1.00426
1.00365
1.00305
1.00246
1.00195
1.0015
1.00123
1.00109
1.00605
1.00623
1.00623
1.00609
1.0058
1.00538
1.00487
1.00429
1.00368
1.00307
1.00247
1.00196
1.00151
1.00122
1.00106
1.00608
1.00626
1.00627
1.00613
1.00583
1.00542
1.0049
1.00432
1.0037
1.00308
1.00249
1.00196
1.0015
1.0012
1.00104
1.00612
1.0063
1.00631
1.00617
1.00587
1.00545
1.00493
1.00435
1.00373
1.0031
1.0025
1.00196
1.0015
1.00119
1.00101
1.00615
1.00633
1.00635
1.00621
1.00591
1.00549
1.00497
1.00438
1.00375
1.00312
1.00251
1.00197
1.0015
1.00117
1.00098
1.00619
1.00637
1.00638
1.00625
1.00595
1.00553
1.005
1.00441
1.00378
1.00314
1.00252
1.00197
1.00149
1.00115
1.00095
1.00622
1.00641
1.00642
1.00629
1.00599
1.00557
1.00504
1.00444
1.0038
1.00316
1.00253
1.00197
1.00149
1.00114
1.00092
1.00626
1.00645
1.00647
1.00633
1.00603
1.00561
1.00508
1.00447
1.00383
1.00318
1.00254
1.00198
1.00148
1.00112
1.00089
1.0063
1.00649
1.00651
1.00637
1.00607
1.00565
1.00511
1.0045
1.00385
1.00319
1.00255
1.00198
1.00147
1.0011
1.00085
1.00634
1.00654
1.00655
1.00642
1.00612
1.00569
1.00515
1.00454
1.00388
1.00321
1.00256
1.00197
1.00146
1.00107
1.00082
1.00638
1.00658
1.0066
1.00646
1.00616
1.00573
1.00519
1.00457
1.0039
1.00323
1.00257
1.00197
1.00145
1.00105
1.00079
1.00642
1.00662
1.00664
1.00651
1.0062
1.00577
1.00522
1.0046
1.00392
1.00324
1.00257
1.00197
1.00144
1.00103
1.00075
1.00647
1.00667
1.00669
1.00656
1.00625
1.00581
1.00526
1.00463
1.00395
1.00325
1.00258
1.00196
1.00143
1.001
1.00072
1.00651
1.00672
1.00674
1.0066
1.00629
1.00585
1.0053
1.00466
1.00397
1.00327
1.00258
1.00196
1.00141
1.00098
1.00068
1.00656
1.00677
1.00679
1.00665
1.00634
1.0059
1.00533
1.00469
1.00399
1.00328
1.00259
1.00195
1.0014
1.00095
1.00064
1.00661
1.00682
1.00684
1.0067
1.00639
1.00594
1.00537
1.00472
1.00402
1.0033
1.00259
1.00195
1.00138
1.00093
1.00061
1.00666
1.00687
1.00689
1.00676
1.00644
1.00599
1.00541
1.00475
1.00404
1.00331
1.0026
1.00194
1.00137
1.0009
1.00057
1.00671
1.00693
1.00695
1.00681
1.00649
1.00603
1.00545
1.00479
1.00407
1.00333
1.00261
1.00194
1.00135
1.00087
1.00053
1.00676
1.00699
1.00701
1.00687
1.00654
1.00608
1.0055
1.00482
1.00409
1.00335
1.00261
1.00193
1.00134
1.00084
1.00049
1.00682
1.00704
1.00707
1.00693
1.0066
1.00613
1.00554
1.00486
1.00412
1.00336
1.00262
1.00193
1.00132
1.00081
1.00045
1.00688
1.0071
1.00713
1.00699
1.00666
1.00619
1.00559
1.0049
1.00415
1.00338
1.00262
1.00192
1.0013
1.00078
1.00041
1.00693
1.00716
1.00719
1.00705
1.00672
1.00624
1.00564
1.00494
1.00418
1.00339
1.00263
1.00191
1.00128
1.00075
1.00037
1.00699
1.00723
1.00725
1.00711
1.00678
1.0063
1.00568
1.00497
1.0042
1.00341
1.00263
1.0019
1.00126
1.00072
1.00032
1.00705
1.00729
1.00732
1.00718
1.00684
1.00635
1.00573
1.00501
1.00423
1.00343
1.00263
1.00189
1.00124
1.00068
1.00028
1.00712
1.00736
1.00738
1.00724
1.0069
1.00641
1.00578
1.00505
1.00426
1.00344
1.00264
1.00188
1.00121
1.00065
1.00023
1.00718
1.00742
1.00745
1.00731
1.00696
1.00647
1.00583
1.00509
1.00429
1.00346
1.00264
1.00187
1.00119
1.00061
1.00018
1.00725
1.00749
1.00752
1.00738
1.00703
1.00652
1.00588
1.00513
1.00431
1.00347
1.00264
1.00186
1.00116
1.00057
1.00014
1.00731
1.00756
1.00759
1.00745
1.00709
1.00658
1.00593
1.00517
1.00434
1.00348
1.00264
1.00184
1.00114
1.00054
1.00009
1.00738
1.00764
1.00766
1.00752
1.00716
1.00664
1.00598
1.00521
1.00437
1.0035
1.00264
1.00183
1.00111
1.0005
1.00004
1.00745
1.00771
1.00774
1.00759
1.00723
1.0067
1.00603
1.00525
1.0044
1.00351
1.00264
1.00181
1.00108
1.00046
0.999986
1.00752
1.00779
1.00781
1.00767
1.0073
1.00677
1.00609
1.00529
1.00443
1.00353
1.00264
1.0018
1.00105
1.00041
0.999934
1.0076
1.00786
1.00789
1.00774
1.00737
1.00683
1.00614
1.00534
1.00446
1.00354
1.00264
1.00178
1.00102
1.00037
0.99988
1.00767
1.00794
1.00797
1.00782
1.00744
1.0069
1.0062
1.00538
1.00449
1.00356
1.00264
1.00177
1.00099
1.00033
0.999825
1.00775
1.00802
1.00805
1.0079
1.00752
1.00697
1.00626
1.00543
1.00452
1.00357
1.00264
1.00175
1.00096
1.00028
0.999769
1.00783
1.00811
1.00814
1.00799
1.0076
1.00704
1.00632
1.00547
1.00455
1.00359
1.00263
1.00173
1.00092
1.00024
0.999711
1.00791
1.00819
1.00822
1.00807
1.00767
1.00711
1.00638
1.00552
1.00458
1.0036
1.00263
1.00171
1.00089
1.00019
0.999651
1.00799
1.00828
1.00831
1.00816
1.00776
1.00718
1.00644
1.00557
1.00461
1.00362
1.00263
1.00169
1.00085
1.00014
0.999591
1.00808
1.00837
1.0084
1.00824
1.00784
1.00725
1.0065
1.00561
1.00464
1.00363
1.00263
1.00167
1.00082
1.00009
0.999528
1.00817
1.00846
1.00849
1.00833
1.00792
1.00733
1.00656
1.00566
1.00467
1.00365
1.00262
1.00165
1.00078
1.00004
0.999464
1.00825
1.00855
1.00858
1.00842
1.00801
1.0074
1.00663
1.00571
1.00471
1.00366
1.00262
1.00163
1.00074
0.999982
0.999399
1.00834
1.00865
1.00868
1.00852
1.00809
1.00748
1.00669
1.00576
1.00474
1.00367
1.00261
1.0016
1.0007
0.999926
0.999331
1.00844
1.00874
1.00877
1.00861
1.00818
1.00756
1.00676
1.00581
1.00477
1.00369
1.0026
1.00158
1.00066
0.999869
0.999263
1.00853
1.00884
1.00887
1.00871
1.00827
1.00764
1.00682
1.00586
1.0048
1.0037
1.0026
1.00155
1.00061
0.999811
0.999192
1.00863
1.00894
1.00897
1.00881
1.00836
1.00772
1.00689
1.00591
1.00484
1.00371
1.00259
1.00153
1.00057
0.999752
0.99912
1.00872
1.00905
1.00908
1.00891
1.00846
1.00781
1.00696
1.00597
1.00487
1.00373
1.00258
1.0015
1.00052
0.99969
0.999046
1.00883
1.00915
1.00918
1.00901
1.00855
1.00789
1.00703
1.00602
1.00491
1.00374
1.00258
1.00147
1.00048
0.999628
0.998971
1.00893
1.00926
1.00929
1.00912
1.00865
1.00798
1.00711
1.00608
1.00494
1.00375
1.00257
1.00144
1.00043
0.999563
0.998893
1.00903
1.00937
1.0094
1.00923
1.00875
1.00807
1.00718
1.00613
1.00498
1.00377
1.00256
1.00141
1.00038
0.999497
0.998813
1.00914
1.00949
1.00952
1.00934
1.00885
1.00816
1.00726
1.00619
1.00501
1.00378
1.00255
1.00138
1.00033
0.999429
0.998732
1.00925
1.0096
1.00963
1.00945
1.00896
1.00826
1.00734
1.00625
1.00505
1.0038
1.00254
1.00135
1.00028
0.999359
0.998648
1.00936
1.00972
1.00975
1.00956
1.00907
1.00835
1.00741
1.00631
1.00509
1.00381
1.00253
1.00132
1.00022
0.999287
0.998562
1.00948
1.00984
1.00987
1.00968
1.00918
1.00845
1.0075
1.00637
1.00513
1.00382
1.00252
1.00128
1.00017
0.999214
0.998474
1.00959
1.00996
1.00999
1.0098
1.00929
1.00855
1.00758
1.00643
1.00517
1.00384
1.00251
1.00125
1.00011
0.999138
0.998383
1.00971
1.01009
1.01012
1.00992
1.0094
1.00865
1.00766
1.0065
1.0052
1.00385
1.0025
1.00121
1.00005
0.99906
0.998291
1.00983
1.01021
1.01024
1.01005
1.00952
1.00875
1.00775
1.00656
1.00524
1.00386
1.00249
1.00117
0.999988
0.99898
0.998195
1.00996
1.01034
1.01037
1.01018
1.00963
1.00886
1.00783
1.00662
1.00528
1.00388
1.00247
1.00113
0.999925
0.998898
0.998098
1.01008
1.01048
1.01051
1.01031
1.00976
1.00896
1.00792
1.00669
1.00532
1.00389
1.00246
1.00109
0.99986
0.998813
0.997998
1.01021
1.01061
1.01064
1.01044
1.00988
1.00907
1.00801
1.00675
1.00536
1.0039
1.00244
1.00105
0.999794
0.998727
0.997896
1.01035
1.01075
1.01078
1.01057
1.01
1.00918
1.0081
1.00682
1.0054
1.00391
1.00242
1.00101
0.999726
0.998638
0.997791
1.01048
1.01089
1.01092
1.01071
1.01013
1.00929
1.00819
1.00689
1.00544
1.00393
1.00241
1.00096
0.999656
0.998548
0.997684
1.01062
1.01104
1.01107
1.01085
1.01026
1.00941
1.00829
1.00696
1.00548
1.00394
1.00239
1.00092
0.999584
0.998455
0.997574
1.01076
1.01118
1.01121
1.01099
1.01039
1.00953
1.00838
1.00703
1.00553
1.00395
1.00237
1.00087
0.999511
0.998359
0.997461
1.0109
1.01133
1.01136
1.01114
1.01053
1.00965
1.00848
1.0071
1.00557
1.00396
1.00235
1.00082
0.999435
0.998261
0.997346
1.01105
1.01149
1.01152
1.01129
1.01067
1.00977
1.00858
1.00718
1.00561
1.00397
1.00233
1.00077
0.999357
0.998161
0.997227
1.0112
1.01164
1.01167
1.01144
1.01081
1.00989
1.00869
1.00725
1.00566
1.00398
1.00231
1.00072
0.999277
0.998058
0.997106
1.01135
1.0118
1.01183
1.0116
1.01095
1.01002
1.00879
1.00733
1.0057
1.004
1.00229
1.00066
0.999195
0.997952
0.996981
1.0115
1.01197
1.012
1.01176
1.0111
1.01015
1.0089
1.00741
1.00575
1.00401
1.00227
1.00061
0.999111
0.997844
0.996854
1.01166
1.01213
1.01216
1.01192
1.01125
1.01028
1.00901
1.00749
1.0058
1.00402
1.00224
1.00055
0.999024
0.997732
0.996723
1.01183
1.0123
1.01233
1.01209
1.01141
1.01042
1.00912
1.00757
1.00584
1.00403
1.00222
1.00049
0.998935
0.997618
0.996589
1.01199
1.01247
1.0125
1.01225
1.01156
1.01056
1.00923
1.00765
1.00589
1.00404
1.00219
1.00043
0.998843
0.997501
0.996451
1.01216
1.01265
1.01268
1.01243
1.01172
1.0107
1.00934
1.00773
1.00594
1.00405
1.00216
1.00037
0.998749
0.99738
0.996311
1.01233
1.01283
1.01286
1.0126
1.01188
1.01084
1.00946
1.00781
1.00598
1.00406
1.00213
1.0003
0.998652
0.997257
0.996167
1.01251
1.01301
1.01304
1.01278
1.01205
1.01099
1.00958
1.0079
1.00603
1.00407
1.0021
1.00024
0.998552
0.99713
0.996019
1.01269
1.0132
1.01323
1.01296
1.01222
1.01113
1.0097
1.00799
1.00608
1.00408
1.00207
1.00017
0.99845
0.997001
0.995868
1.01287
1.01339
1.01342
1.01315
1.01239
1.01129
1.00982
1.00807
1.00613
1.00408
1.00204
1.0001
0.998345
0.996868
0.995712
1.01306
1.01359
1.01362
1.01334
1.01257
1.01144
1.00995
1.00816
1.00618
1.00409
1.00201
1.00003
0.998238
0.996731
0.995554
1.01325
1.01379
1.01382
1.01353
1.01275
1.0116
1.01007
1.00825
1.00623
1.0041
1.00197
0.99995
0.998127
0.996592
0.995391
1.01344
1.01399
1.01402
1.01373
1.01293
1.01176
1.0102
1.00835
1.00628
1.00411
1.00193
0.999873
0.998014
0.996448
0.995225
1.01364
1.0142
1.01423
1.01393
1.01312
1.01192
1.01034
1.00844
1.00633
1.00411
1.0019
0.999793
0.997897
0.996301
0.995054
1.01384
1.01441
1.01444
1.01414
1.01331
1.01209
1.01047
1.00854
1.00638
1.00412
1.00186
0.999711
0.997777
0.996151
0.994879
1.01405
1.01462
1.01466
1.01435
1.0135
1.01226
1.01061
1.00863
1.00644
1.00412
1.00181
0.999626
0.997654
0.995996
0.9947
1.01426
1.01484
1.01488
1.01456
1.0137
1.01243
1.01075
1.00873
1.00649
1.00413
1.00177
0.999539
0.997528
0.995838
0.994517
1.01447
1.01507
1.0151
1.01478
1.0139
1.01261
1.01089
1.00883
1.00654
1.00413
1.00173
0.999449
0.997398
0.995675
0.994329
1.01469
1.0153
1.01533
1.01501
1.01411
1.01279
1.01104
1.00894
1.00659
1.00413
1.00168
0.999356
0.997264
0.995508
0.994136
1.01491
1.01553
1.01556
1.01523
1.01432
1.01298
1.01118
1.00904
1.00665
1.00414
1.00163
0.99926
0.997127
0.995337
0.993939
1.01514
1.01577
1.0158
1.01547
1.01454
1.01316
1.01133
1.00914
1.0067
1.00414
1.00158
0.999161
0.996986
0.995162
0.993738
1.01537
1.01601
1.01604
1.0157
1.01475
1.01335
1.01149
1.00925
1.00676
1.00414
1.00153
0.999059
0.996841
0.994983
0.993531
1.01561
1.01626
1.01629
1.01595
1.01498
1.01355
1.01164
1.00936
1.00681
1.00414
1.00147
0.998955
0.996693
0.994799
0.99332
1.01585
1.01651
1.01655
1.01619
1.01521
1.01375
1.0118
1.00947
1.00687
1.00413
1.00141
0.998846
0.99654
0.99461
0.993103
1.0161
1.01677
1.0168
1.01645
1.01544
1.01395
1.01196
1.00958
1.00692
1.00413
1.00136
0.998735
0.996384
0.994417
0.992882
1.01635
1.01703
1.01707
1.0167
1.01568
1.01416
1.01213
1.00969
1.00698
1.00413
1.00129
0.998621
0.996223
0.994219
0.992654
1.0166
1.0173
1.01734
1.01696
1.01592
1.01437
1.01229
1.00981
1.00703
1.00412
1.00123
0.998503
0.996058
0.994016
0.992422
1.01686
1.01757
1.01761
1.01723
1.01617
1.01458
1.01246
1.00992
1.00709
1.00412
1.00116
0.998381
0.995889
0.993807
0.992184
1.01713
1.01785
1.01789
1.01751
1.01642
1.0148
1.01264
1.01004
1.00714
1.00411
1.00109
0.998256
0.995715
0.993594
0.991941
1.0174
1.01814
1.01818
1.01778
1.01668
1.01503
1.01281
1.01016
1.0072
1.0041
1.00102
0.998126
0.995536
0.993375
0.991692
1.01768
1.01843
1.01847
1.01807
1.01694
1.01525
1.01299
1.01028
1.00726
1.00409
1.00095
0.997993
0.995352
0.99315
0.991437
1.01796
1.01872
1.01877
1.01836
1.01721
1.01549
1.01318
1.0104
1.00731
1.00408
1.00087
0.997855
0.995162
0.99292
0.991175
1.01825
1.01903
1.01907
1.01866
1.01748
1.01572
1.01336
1.01053
1.00737
1.00406
1.00079
0.997713
0.994968
0.992684
0.990908
1.01854
1.01933
1.01938
1.01896
1.01776
1.01597
1.01355
1.01065
1.00743
1.00405
1.0007
0.997566
0.994769
0.992443
0.990634
1.01884
1.01965
1.0197
1.01927
1.01805
1.01621
1.01374
1.01078
1.00748
1.00403
1.00061
0.997415
0.994564
0.992195
0.990355
1.01915
1.01997
1.02002
1.01958
1.01834
1.01646
1.01394
1.01091
1.00754
1.00401
1.00052
0.997259
0.994353
0.991941
0.990068
1.01946
1.0203
1.02035
1.01991
1.01863
1.01672
1.01414
1.01104
1.00759
1.00399
1.00043
0.997098
0.994137
0.991681
0.989776
1.01978
1.02063
1.02069
1.02023
1.01894
1.01698
1.01434
1.01117
1.00764
1.00396
1.00033
0.996932
0.993915
0.991415
0.989476
1.0201
1.02098
1.02104
1.02057
1.01925
1.01724
1.01455
1.01131
1.0077
1.00394
1.00023
0.996762
0.993688
0.991142
0.989169
1.02044
1.02132
1.02139
1.02091
1.01956
1.01751
1.01476
1.01144
1.00775
1.00391
1.00012
0.996586
0.993454
0.990862
0.988856
1.02077
1.02168
1.02175
1.02126
1.01988
1.01779
1.01497
1.01158
1.0078
1.00387
1.00001
0.996405
0.993214
0.990576
0.988535
1.02112
1.02204
1.02211
1.02162
1.02021
1.01807
1.01519
1.01171
1.00786
1.00384
0.999892
0.996218
0.992967
0.990282
0.988206
1.02147
1.02242
1.02249
1.02199
1.02055
1.01836
1.01541
1.01185
1.00791
1.0038
0.999772
0.996025
0.992713
0.989981
0.987871
1.02183
1.02279
1.02287
1.02236
1.02089
1.01865
1.01563
1.012
1.00796
1.00376
0.999647
0.995826
0.992452
0.989672
0.987527
1.0222
1.02318
1.02326
1.02274
1.02124
1.01895
1.01586
1.01214
1.00801
1.00372
0.999517
0.99562
0.992185
0.989357
0.987176
1.02257
1.02358
1.02366
1.02313
1.0216
1.01926
1.01609
1.01228
1.00805
1.00367
0.999381
0.995408
0.991909
0.989032
0.986816
1.02295
1.02398
1.02407
1.02352
1.02196
1.01957
1.01632
1.01242
1.0081
1.00362
0.999241
0.995189
0.991627
0.988701
0.986449
1.02335
1.02439
1.02448
1.02393
1.02233
1.01988
1.01656
1.01257
1.00815
1.00357
0.999094
0.994963
0.991336
0.98836
0.986073
1.02374
1.02481
1.02491
1.02434
1.02271
1.0202
1.0168
1.01272
1.00819
1.00351
0.998941
0.994731
0.991038
0.988012
0.985689
1.02415
1.02524
1.02534
1.02477
1.0231
1.02053
1.01705
1.01286
1.00823
1.00344
0.998783
0.99449
0.990731
0.987655
0.985296
1.02457
1.02568
1.02578
1.0252
1.0235
1.02087
1.0173
1.01301
1.00827
1.00338
0.998618
0.994242
0.990417
0.98729
0.984894
1.02499
1.02613
1.02624
1.02564
1.0239
1.02121
1.01755
1.01316
1.0083
1.0033
0.998446
0.993986
0.990093
0.986915
0.984483
1.02542
1.02659
1.0267
1.02609
1.02431
1.02155
1.01781
1.01331
1.00834
1.00323
0.998268
0.993723
0.989761
0.986532
0.984064
1.02587
1.02705
1.02717
1.02655
1.02474
1.02191
1.01807
1.01346
1.00837
1.00314
0.998082
0.99345
0.98942
0.986139
0.983634
1.02632
1.02753
1.02766
1.02703
1.02517
1.02227
1.01833
1.01361
1.0084
1.00305
0.997889
0.993169
0.98907
0.985737
0.983196
1.02678
1.02802
1.02815
1.02751
1.02561
1.02264
1.0186
1.01376
1.00843
1.00296
0.997688
0.992879
0.988709
0.985324
0.982747
1.02725
1.02852
1.02866
1.028
1.02605
1.02301
1.01887
1.01391
1.00845
1.00286
0.997479
0.99258
0.988339
0.984902
0.982289
1.02773
1.02903
1.02918
1.0285
1.02651
1.02339
1.01915
1.01406
1.00847
1.00275
0.997261
0.992271
0.987959
0.984469
0.98182
1.02822
1.02955
1.0297
1.02902
1.02698
1.02378
1.01943
1.01421
1.00848
1.00264
0.997035
0.991952
0.987569
0.984027
0.981342
1.02873
1.03008
1.03024
1.02954
1.02746
1.02417
1.01971
1.01436
1.00849
1.00252
0.9968
0.991623
0.987167
0.983573
0.980853
1.02924
1.03063
1.0308
1.03008
1.02795
1.02458
1.02
1.01451
1.0085
1.00239
0.996555
0.991284
0.986755
0.983109
0.980354
1.02976
1.03118
1.03136
1.03063
1.02845
1.02499
1.02028
1.01465
1.0085
1.00226
0.9963
0.990933
0.986332
0.982633
0.979843
1.0303
1.03175
1.03194
1.0312
1.02896
1.02541
1.02058
1.0148
1.00849
1.00211
0.996035
0.990571
0.985897
0.982147
0.979322
1.03085
1.03234
1.03253
1.03177
1.02948
1.02583
1.02087
1.01494
1.00848
1.00196
0.995759
0.990198
0.98545
0.981648
0.97879
1.03141
1.03293
1.03314
1.03236
1.03001
1.02626
1.02117
1.01509
1.00847
1.0018
0.995473
0.989813
0.984992
0.981138
0.978246
1.03198
1.03354
1.03376
1.03296
1.03055
1.02671
1.02147
1.01523
1.00845
1.00162
0.995174
0.989415
0.98452
0.980616
0.977691
1.03257
1.03416
1.03439
1.03358
1.03111
1.02715
1.02178
1.01536
1.00842
1.00144
0.994864
0.989004
0.984036
0.980081
0.977124
1.03316
1.0348
1.03504
1.03421
1.03167
1.02761
1.02208
1.0155
1.00838
1.00125
0.994541
0.98858
0.983538
0.979533
0.976545
1.03378
1.03545
1.0357
1.03485
1.03225
1.02807
1.02239
1.01563
1.00834
1.00104
0.994205
0.988142
0.983028
0.978973
0.975954
1.0344
1.03612
1.03638
1.03551
1.03284
1.02855
1.0227
1.01576
1.00828
1.00083
0.993855
0.98769
0.982502
0.978399
0.97535
1.03504
1.0368
1.03707
1.03619
1.03345
1.02903
1.02302
1.01588
1.00822
1.0006
0.993491
0.987223
0.981963
0.977812
0.974734
1.0357
1.03749
1.03779
1.03688
1.03406
1.02951
1.02333
1.016
1.00815
1.00036
0.993112
0.986741
0.981409
0.977211
0.974106
1.03637
1.03821
1.03852
1.03759
1.0347
1.03001
1.02365
1.01612
1.00806
1.0001
0.992717
0.986244
0.98084
0.976596
0.973465
1.03705
1.03894
1.03926
1.03831
1.03534
1.03051
1.02396
1.01622
1.00797
0.999832
0.992307
0.98573
0.980255
0.975967
0.97281
1.03775
1.03969
1.04003
1.03905
1.036
1.03102
1.02428
1.01633
1.00786
0.999547
0.99188
0.9852
0.979655
0.975323
0.972143
1.03847
1.04045
1.04081
1.03981
1.03667
1.03154
1.02459
1.01642
1.00774
0.999246
0.991436
0.984653
0.979039
0.974665
0.971462
1.0392
1.04124
1.04161
1.04059
1.03735
1.03207
1.02491
1.01651
1.00761
0.998928
0.990975
0.984088
0.978406
0.973991
0.970767
1.03995
1.04204
1.04244
1.04138
1.03805
1.0326
1.02523
1.01658
1.00747
0.998593
0.990494
0.983505
0.977756
0.973302
0.970058
1.04072
1.04287
1.04328
1.0422
1.03877
1.03315
1.02554
1.01665
1.0073
0.99824
0.989995
0.982904
0.97709
0.972598
0.969336
1.04151
1.04371
1.04414
1.04303
1.0395
1.03369
1.02585
1.01671
1.00713
0.997868
0.989476
0.982283
0.976405
0.971877
0.968599
1.04231
1.04457
1.04503
1.04389
1.04025
1.03425
1.02616
1.01675
1.00693
0.997475
0.988936
0.981643
0.975702
0.97114
0.967847
1.04314
1.04546
1.04594
1.04477
1.04101
1.03481
1.02646
1.01679
1.00672
0.997061
0.988375
0.980982
0.974981
0.970386
0.96708
1.04398
1.04637
1.04687
1.04567
1.04179
1.03538
1.02676
1.01681
1.00649
0.996626
0.987791
0.9803
0.974241
0.969616
0.966299
1.04485
1.0473
1.04783
1.04659
1.04258
1.03595
1.02706
1.01681
1.00623
0.996167
0.987184
0.979596
0.97348
0.968827
0.965501
1.04574
1.04825
1.04881
1.04753
1.04339
1.03653
1.02735
1.0168
1.00596
0.995684
0.986554
0.978871
0.972701
0.968022
0.964689
1.04664
1.04923
1.04981
1.0485
1.04421
1.03712
1.02763
1.01678
1.00566
0.995176
0.985898
0.978122
0.9719
0.967198
0.96386
1.04757
1.05024
1.05085
1.04949
1.04506
1.0377
1.0279
1.01673
1.00534
0.994641
0.985217
0.97735
0.971079
0.966356
0.963015
1.04853
1.05127
1.05191
1.05051
1.04591
1.0383
1.02816
1.01666
1.00499
0.994079
0.984509
0.976553
0.970236
0.965495
0.962154
1.04951
1.05232
1.053
1.05155
1.04679
1.03889
1.02842
1.01657
1.00461
0.993488
0.983774
0.975732
0.969372
0.964616
0.961277
1.05051
1.05341
1.05412
1.05262
1.04768
1.03949
1.02865
1.01646
1.00421
0.992866
0.98301
0.974886
0.968485
0.963716
0.960383
1.05154
1.05452
1.05527
1.05371
1.04859
1.04008
1.02888
1.01632
1.00377
0.992214
0.982217
0.974013
0.967576
0.962798
0.959472
1.05259
1.05567
1.05645
1.05484
1.04951
1.04068
1.02908
1.01616
1.0033
0.991528
0.981394
0.973114
0.966644
0.96186
0.958544
1.05367
1.05684
1.05766
1.05599
1.05045
1.04128
1.02927
1.01596
1.0028
0.990809
0.980539
0.972187
0.965688
0.960902
0.957599
1.05478
1.05805
1.05891
1.05717
1.05141
1.04187
1.02944
1.01574
1.00226
0.990054
0.979653
0.971232
0.964708
0.959923
0.956637
1.05592
1.05929
1.06019
1.05838
1.05238
1.04246
1.02959
1.01548
1.00169
0.989263
0.978733
0.970249
0.963704
0.958924
0.955657
1.05709
1.06057
1.06151
1.05962
1.05337
1.04304
1.02971
1.01518
1.00107
0.988433
0.977779
0.969236
0.962675
0.957904
0.954659
1.05829
1.06188
1.06287
1.0609
1.05437
1.04361
1.0298
1.01485
1.00041
0.987564
0.97679
0.968193
0.961621
0.956863
0.953644
1.05953
1.06323
1.06427
1.0622
1.05539
1.04417
1.02987
1.01447
0.999711
0.986653
0.975765
0.96712
0.960541
0.9558
0.95261
1.06079
1.06462
1.06571
1.06354
1.05641
1.04473
1.0299
1.01405
0.998964
0.9857
0.974703
0.966015
0.959436
0.954716
0.951559
1.06209
1.06605
1.06719
1.06492
1.05745
1.04526
1.02989
1.01358
0.998168
0.984702
0.973602
0.964879
0.958304
0.95361
0.950489
1.06343
1.06752
1.06872
1.06632
1.0585
1.04578
1.02984
1.01307
0.997321
0.983659
0.972462
0.96371
0.957145
0.952482
0.949401
1.06481
1.06903
1.07029
1.06777
1.05956
1.04627
1.02975
1.01249
0.996421
0.982568
0.971282
0.962508
0.955959
0.951332
0.948295
1.06622
1.0706
1.07191
1.06924
1.06063
1.04674
1.02961
1.01187
0.995466
0.981428
0.970062
0.961272
0.954747
0.95016
0.94717
1.06768
1.0722
1.07358
1.07076
1.0617
1.04718
1.02942
1.01118
0.994453
0.980238
0.968799
0.960002
0.953506
0.948965
0.946027
1.06917
1.07386
1.0753
1.07231
1.06277
1.04759
1.02918
1.01043
0.993379
0.978995
0.967493
0.958698
0.952238
0.947748
0.944865
1.07071
1.07557
1.07708
1.07389
1.06384
1.04796
1.02887
1.00961
0.992243
0.977699
0.966143
0.957359
0.950942
0.946508
0.943685
1.0723
1.07734
1.07891
1.07551
1.06491
1.04829
1.02849
1.00871
0.991041
0.976348
0.964749
0.955984
0.949618
0.945246
0.942486
1.07393
1.07916
1.0808
1.07717
1.06597
1.04857
1.02805
1.00775
0.989771
0.97494
0.96331
0.954574
0.948265
0.943961
0.941269
1.07561
1.08105
1.08275
1.07886
1.06702
1.04879
1.02752
1.0067
0.988431
0.973474
0.961825
0.953127
0.946885
0.942653
0.940033
1.07735
1.08299
1.08476
1.08058
1.06806
1.04895
1.02691
1.00557
0.987019
0.971949
0.960293
0.951645
0.945475
0.941323
0.938778
1.07913
1.08501
1.08684
1.08234
1.06907
1.04905
1.02622
1.00435
0.98553
0.970364
0.958714
0.950126
0.944038
0.93997
0.937506
1.08098
1.08709
1.08899
1.08413
1.07005
1.04907
1.02543
1.00304
0.983964
0.968717
0.957087
0.94857
0.942572
0.938594
0.936214
1.08288
1.08924
1.09121
1.08595
1.071
1.049
1.02453
1.00164
0.982319
0.967007
0.955412
0.946978
0.941078
0.937197
0.934905
1.08484
1.09148
1.0935
1.08779
1.07191
1.04884
1.02352
1.00013
0.980591
0.965233
0.953689
0.945349
0.939555
0.935776
0.933576
1.08687
1.09379
1.09586
1.08965
1.07277
1.04858
1.0224
0.998519
0.978779
0.963395
0.951918
0.943684
0.938005
0.934334
0.93223
1.08896
1.09619
1.0983
1.09154
1.07357
1.04821
1.02116
0.996799
0.97688
0.961492
0.950097
0.941982
0.936426
0.93287
0.930866
1.09112
1.09868
1.10082
1.09343
1.0743
1.04771
1.01978
0.994965
0.974895
0.959523
0.948229
0.940245
0.93482
0.931384
0.929484
1.09336
1.10127
1.10342
1.09534
1.07494
1.04707
1.01826
0.993015
0.972819
0.957488
0.946312
0.938471
0.933187
0.929876
0.928083
1.09567
1.10396
1.1061
1.09724
1.07549
1.04629
1.0166
0.990945
0.970654
0.955386
0.944346
0.936662
0.931527
0.928348
0.926666
1.09807
1.10675
1.10887
1.09913
1.07593
1.04535
1.01478
0.988751
0.968396
0.953218
0.942333
0.934818
0.92984
0.926798
0.925231
1.10055
1.10966
1.11171
1.101
1.07624
1.04424
1.01279
0.986431
0.966047
0.950985
0.940273
0.93294
0.928128
0.925227
0.923779
1.10313
1.11269
1.11464
1.10285
1.07642
1.04293
1.01064
0.983981
0.963604
0.948685
0.938166
0.931028
0.92639
0.923636
0.922309
1.10579
1.11585
1.11765
1.10464
1.07643
1.04143
1.00831
0.9814
0.961069
0.946321
0.936014
0.929083
0.924627
0.922026
0.920824
1.10856
1.11915
1.12074
1.10638
1.07626
1.03971
1.0058
0.978687
0.958441
0.943892
0.933817
0.927106
0.922839
0.920396
0.919322
1.11144
1.12258
1.1239
1.10804
1.07588
1.03776
1.0031
0.975839
0.955722
0.9414
0.931577
0.925099
0.921029
0.918747
0.917804
1.11444
1.12617
1.12713
1.1096
1.07529
1.03556
1.00021
0.972857
0.952911
0.938847
0.929294
0.923061
0.919195
0.91708
0.916271
1.11755
1.12992
1.13042
1.11103
1.07444
1.03311
0.997113
0.96974
0.950012
0.936234
0.926971
0.920994
0.917339
0.915395
0.914722
1.1208
1.13384
1.13376
1.11232
1.07331
1.03037
0.993816
0.966491
0.947024
0.933563
0.924609
0.9189
0.915462
0.913692
0.913158
1.12419
1.13793
1.13714
1.11343
1.07188
1.02735
0.990314
0.963109
0.943952
0.930837
0.922209
0.916779
0.913566
0.911973
0.91158
1.12774
1.1422
1.14054
1.11432
1.07012
1.02403
0.986606
0.959599
0.940797
0.928057
0.919775
0.914634
0.911649
0.910237
0.909987
1.13144
1.14667
1.14395
1.11497
1.06799
1.0204
0.982692
0.955964
0.937564
0.925226
0.917308
0.912466
0.909715
0.908486
0.908381
1.13532
1.15133
1.14734
1.11534
1.06548
1.01644
0.978575
0.952207
0.934255
0.922348
0.91481
0.910276
0.907763
0.90672
0.906761
1.1394
1.1562
1.15067
1.11537
1.06254
1.01215
0.974257
0.948334
0.930875
0.919426
0.912284
0.908066
0.905796
0.904941
0.905129
1.14368
1.16128
1.15393
1.11502
1.05914
1.00753
0.969744
0.944351
0.927428
0.916463
0.909732
0.905837
0.903813
0.903147
0.903484
1.14819
1.16656
1.15706
1.11424
1.05527
1.00257
0.965044
0.940265
0.923919
0.913463
0.907158
0.903593
0.901817
0.901342
0.901827
1.15295
1.17204
1.16002
1.11298
1.05088
0.997263
0.960166
0.936084
0.920355
0.910431
0.904564
0.901334
0.899808
0.899524
0.900158
1.15799
1.17773
1.16277
1.11118
1.04597
0.991626
0.955122
0.931815
0.916739
0.90737
0.901953
0.899063
0.897787
0.897695
0.898478
1.16331
1.18361
1.16522
1.10877
1.04049
0.985661
0.949925
0.927468
0.913079
0.904285
0.899328
0.896781
0.895757
0.895855
0.896787
1.16897
1.18965
1.16733
1.1057
1.03444
0.979383
0.944591
0.923053
0.909381
0.901182
0.896693
0.89449
0.893718
0.894006
0.895087
1.17498
1.19585
1.169
1.10189
1.0278
0.972808
0.939137
0.918579
0.905651
0.898063
0.894051
0.892193
0.89167
0.892148
0.893376
1.18138
1.20215
1.17016
1.09729
1.02056
0.96596
0.933581
0.914056
0.901896
0.894936
0.891405
0.889891
0.889617
0.890282
0.891656
1.18822
1.20853
1.17069
1.09184
1.01273
0.958866
0.927943
0.909495
0.898124
0.891804
0.888758
0.887587
0.887558
0.888407
0.889927
1.19552
1.21492
1.1705
1.08546
1.00432
0.95156
0.922244
0.904907
0.894342
0.888674
0.886113
0.885282
0.885495
0.886527
0.88819
1.20333
1.22126
1.16947
1.07811
0.995345
0.944079
0.916505
0.900301
0.890557
0.88555
0.883475
0.882977
0.883429
0.88464
0.886446
1.2117
1.22745
1.16747
1.06974
0.985844
0.936466
0.910746
0.895689
0.886778
0.882439
0.880845
0.880676
0.881361
0.882748
0.884694
1.22067
1.23339
1.16436
1.06031
0.975861
0.928767
0.904989
0.89108
0.883012
0.879345
0.878227
0.878379
0.879292
0.880852
0.882936
1.23028
1.23895
1.16001
1.04979
0.965456
0.92103
0.899252
0.886485
0.879268
0.876274
0.875625
0.876089
0.877224
0.878951
0.881173
1.24058
1.24397
1.15426
1.03818
0.954705
0.913307
0.893552
0.881914
0.875554
0.873231
0.87304
0.873806
0.875157
0.877048
0.879405
1.25161
1.24827
1.14697
1.0255
0.943696
0.905644
0.887907
0.877378
0.871878
0.870221
0.870476
0.871533
0.873092
0.875144
0.877634
1.26339
1.25164
1.13798
1.01178
0.932533
0.898091
0.882329
0.872885
0.868248
0.867249
0.867934
0.869271
0.871031
0.873238
0.875861
1.27593
1.25383
1.12716
0.997106
0.921327
0.890688
0.87683
0.868448
0.864675
0.864321
0.865417
0.867021
0.868974
0.871334
0.874087
1.28923