1.45 	0 	0 	-0.290492
2.35 	0 	0 	-0.126331
