1.45 	0 	0 	-0.00772497 	-0.00258934 	3.8255e-21
2.35 	0 	0 	0.0622263 	-0.00665977 	2.34544e-21
