/*--------------------------------*- C++ -*----------------------------------*\
  =========                 |
  \\      /  F ield         | OpenFOAM: The Open Source CFD Toolbox
   \\    /   O peration     | Website:  https://openfoam.org
    \\  /    A nd           | Version:  6.0
     \\/     M anipulation  |
\*---------------------------------------------------------------------------*/
FoamFile
{
    version     2.0;
    format      ascii;
    class       volScalarField;
    location    "40";
    object      p;
}
// * * * * * * * * * * * * * * * * * * * * * * * * * * * * * * * * * * * * * //

dimensions      [0 2 -2 0 0 0 0];

internalField   nonuniform List<scalar> 
2000
(
-0.348072
-0.353978
-0.355667
-0.354998
-0.353138
-0.350461
-0.347245
-0.343784
-0.340363
-0.336667
-0.35079
-0.356277
-0.357625
-0.356655
-0.354507
-0.351555
-0.348077
-0.344354
-0.340679
-0.336863
-0.356246
-0.360874
-0.361531
-0.359951
-0.357222
-0.353715
-0.349701
-0.345442
-0.341239
-0.337178
-0.364481
-0.367769
-0.367364
-0.364858
-0.361247
-0.356894
-0.352057
-0.346954
-0.341903
-0.337453
-0.375554
-0.376959
-0.375093
-0.371335
-0.36654
-0.361044
-0.355075
-0.348774
-0.342474
-0.337431
-0.389529
-0.38843
-0.384679
-0.379342
-0.373068
-0.366141
-0.358723
-0.350818
-0.342742
-0.336782
-0.40644
-0.40214
-0.396061
-0.388837
-0.380825
-0.372226
-0.363096
-0.353205
-0.342706
-0.335249
-0.426232
-0.41799
-0.409148
-0.399761
-0.389798
-0.379343
-0.368308
-0.356066
-0.342123
-0.33168
-0.448692
-0.435806
-0.423826
-0.412072
-0.400027
-0.387583
-0.374342
-0.358782
-0.338697
-0.321385
-0.473385
-0.455325
-0.439993
-0.425918
-0.412132
-0.398436
-0.384072
-0.366407
-0.341367
-0.31739
-0.499626
-0.476121
-0.457381
-0.441211
-0.426483
-0.413571
-0.402816
-0.394859
-0.394996
-0.414529
-0.526589
-0.497615
-0.475374
-0.456843
-0.440506
-0.426823
-0.41627
-0.409906
-0.412862
-0.430133
-0.553552
-0.51935
-0.493697
-0.472694
-0.45433
-0.438968
-0.426975
-0.419069
-0.418361
-0.426178
-0.579867
-0.540855
-0.512038
-0.488594
-0.467957
-0.450314
-0.435822
-0.424736
-0.418534
-0.417196
-0.604784
-0.561461
-0.529773
-0.503896
-0.480683
-0.460118
-0.442159
-0.426684
-0.414113
-0.404486
-0.627315
-0.580236
-0.545958
-0.517596
-0.491453
-0.467379
-0.445253
-0.424762
-0.405741
-0.388953
-0.646174
-0.595969
-0.559363
-0.528408
-0.498977
-0.470926
-0.444217
-0.418546
-0.393494
-0.37084
-0.659804
-0.607204
-0.568524
-0.534852
-0.501828
-0.469501
-0.438087
-0.407433
-0.377087
-0.349911
-0.66644
-0.612305
-0.571822
-0.535332
-0.498529
-0.461849
-0.425898
-0.390757
-0.356056
-0.325668
-0.664218
-0.60953
-0.56756
-0.528238
-0.48765
-0.446799
-0.406765
-0.36788
-0.329887
-0.297521
-0.651281
-0.597139
-0.554069
-0.512042
-0.467899
-0.423346
-0.379958
-0.338278
-0.298133
-0.264936
-0.625894
-0.573489
-0.529812
-0.485405
-0.438216
-0.39073
-0.344972
-0.301613
-0.260505
-0.227544
-0.586585
-0.537175
-0.493513
-0.447288
-0.397866
-0.348503
-0.30158
-0.25779
-0.216939
-0.185207
-0.532256
-0.487135
-0.444258
-0.397041
-0.346491
-0.296566
-0.249862
-0.206992
-0.167641
-0.138068
-0.462304
-0.422774
-0.381601
-0.334467
-0.28415
-0.23517
-0.190194
-0.149667
-0.113085
-0.0865531
-0.376727
-0.344054
-0.305634
-0.259857
-0.211301
-0.164875
-0.123178
-0.0864336
-0.0539069
-0.0312865
-0.276213
-0.251583
-0.217038
-0.17401
-0.128804
-0.0865251
-0.0495836
-0.0179915
0.00917208
0.0269051
-0.162202
-0.146646
-0.1171
-0.0782147
-0.0378933
-0.00125972
0.0295306
0.0545412
0.0746107
0.0859917
-0.0369036
-0.0312178
-0.00766893
0.0258557
0.0600465
0.0898681
0.113307
0.129951
0.139885
0.142256
0.0967267
0.0920608
0.108842
0.136171
0.163692
0.186682
0.203169
0.211537
0.210503
0.203774
0.235113
0.219924
0.22933
0.249837
0.270587
0.287701
0.299905
0.305387
0.304341
0.318259
0.374361
0.348726
0.350182
0.363001
0.376021
0.385995
0.392048
0.39329
0.392212
0.405136
0.510526
0.474796
0.467989
0.472541
0.477194
0.479272
0.478209
0.473588
0.467896
0.472999
0.639761
0.594525
0.579459
0.575558
0.571659
0.565671
0.557334
0.546501
0.535243
0.532401
0.758406
0.704473
0.6815
0.669391
0.657225
0.643477
0.628166
0.611329
0.594659
0.584712
0.863074
0.801473
0.771291
0.751646
0.731938
0.711162
0.689575
0.667363
0.645848
0.629692
0.950749
0.882718
0.846346
0.82021
0.794047
0.767298
0.740419
0.713708
0.688132
0.666774
1.01888
0.94584
0.90457
0.873295
0.842049
0.810623
0.779627
0.749439
0.720719
0.695304
1.06545
0.988988
0.944329
0.909497
0.874748
0.840112
0.806304
0.773753
0.742888
0.714688
1.08909
1.01089
0.964495
0.927845
0.891311
0.855044
0.819809
0.786064
0.754112
0.724493
1.08909
1.01089
0.964495
0.927845
0.891311
0.855044
0.819809
0.786064
0.754112
0.724493
1.06545
0.988988
0.944329
0.909497
0.874748
0.840113
0.806304
0.773754
0.742889
0.714688
1.01888
0.945841
0.904571
0.873296
0.84205
0.810623
0.779627
0.74944
0.720719
0.695304
0.95075
0.882719
0.846346
0.820211
0.794048
0.767298
0.740419
0.713709
0.688133
0.666775
0.863075
0.801474
0.771292
0.751647
0.731939
0.711162
0.689576
0.667364
0.645848
0.629693
0.758407
0.704474
0.681501
0.669392
0.657226
0.643478
0.628167
0.61133
0.59466
0.584713
0.639762
0.594526
0.57946
0.575559
0.57166
0.565672
0.557336
0.546502
0.535244
0.532402
0.510527
0.474797
0.46799
0.472542
0.477195
0.479274
0.478211
0.47359
0.467897
0.473
0.374362
0.348728
0.350183
0.363002
0.376022
0.385996
0.392049
0.393291
0.392214
0.405137
0.235115
0.219926
0.229331
0.249839
0.270589
0.287702
0.299907
0.305389
0.304342
0.31826
0.0967283
0.0920624
0.108844
0.136173
0.163694
0.186684
0.203171
0.211539
0.210504
0.203775
-0.0369019
-0.031216
-0.00766712
0.0258575
0.0600483
0.0898699
0.113308
0.129953
0.139887
0.142258
-0.1622
-0.146644
-0.117098
-0.0782127
-0.0378913
-0.00125778
0.0295326
0.0545431
0.0746125
0.0859935
-0.276211
-0.251581
-0.217036
-0.174008
-0.128802
-0.086523
-0.0495816
-0.0179896
0.00917399
0.0269069
-0.376725
-0.344052
-0.305632
-0.259855
-0.211299
-0.164873
-0.123175
-0.0864315
-0.053905
-0.0312846
-0.462302
-0.422771
-0.381599
-0.334465
-0.284148
-0.235168
-0.190192
-0.149665
-0.113083
-0.0865512
-0.532254
-0.487133
-0.444255
-0.397039
-0.346489
-0.296564
-0.24986
-0.20699
-0.167639
-0.138066
-0.586583
-0.537172
-0.49351
-0.447285
-0.397863
-0.348501
-0.301578
-0.257788
-0.216937
-0.185205
-0.625892
-0.573487
-0.52981
-0.485402
-0.438214
-0.390728
-0.34497
-0.30161
-0.260503
-0.227542
-0.651278
-0.597136
-0.554066
-0.512039
-0.467896
-0.423343
-0.379956
-0.338276
-0.298131
-0.264934
-0.664215
-0.609527
-0.567557
-0.528235
-0.487648
-0.446796
-0.406763
-0.367878
-0.329885
-0.297519
-0.666438
-0.612302
-0.571819
-0.535329
-0.498527
-0.461847
-0.425896
-0.390754
-0.356053
-0.325666
-0.659801
-0.607202
-0.568522
-0.534849
-0.501825
-0.469498
-0.438085
-0.40743
-0.377084
-0.349909
-0.646171
-0.595966
-0.55936
-0.528406
-0.498974
-0.470923
-0.444215
-0.418544
-0.393492
-0.370838
-0.627312
-0.580233
-0.545956
-0.517593
-0.49145
-0.467377
-0.44525
-0.42476
-0.405739
-0.38895
-0.604782
-0.561459
-0.529771
-0.503894
-0.480681
-0.460115
-0.442157
-0.426682
-0.414111
-0.404484
-0.579864
-0.540852
-0.512035
-0.488591
-0.467955
-0.450311
-0.43582
-0.424734
-0.418531
-0.417194
-0.55355
-0.519348
-0.493694
-0.472692
-0.454328
-0.438966
-0.426973
-0.419067
-0.418358
-0.426176
-0.526586
-0.497612
-0.475371
-0.45684
-0.440503
-0.426821
-0.416268
-0.409904
-0.412859
-0.430131
-0.499623
-0.476118
-0.457379
-0.441209
-0.42648
-0.413568
-0.402814
-0.394857
-0.394994
-0.414527
-0.473383
-0.455323
-0.439991
-0.425916
-0.41213
-0.398434
-0.38407
-0.366405
-0.341365
-0.317388
-0.448689
-0.435804
-0.423824
-0.41207
-0.400025
-0.387581
-0.374341
-0.35878
-0.338695
-0.321383
-0.42623
-0.417988
-0.409147
-0.39976
-0.389797
-0.379341
-0.368306
-0.356064
-0.342121
-0.331678
-0.406438
-0.402138
-0.396059
-0.388836
-0.380824
-0.372225
-0.363094
-0.353203
-0.342704
-0.335247
-0.389527
-0.388429
-0.384677
-0.37934
-0.373066
-0.36614
-0.358722
-0.350817
-0.342741
-0.336781
-0.375552
-0.376958
-0.375092
-0.371333
-0.366538
-0.361043
-0.355074
-0.348772
-0.342473
-0.337429
-0.36448
-0.367768
-0.367363
-0.364857
-0.361246
-0.356893
-0.352056
-0.346953
-0.341902
-0.337452
-0.356245
-0.360873
-0.361531
-0.359951
-0.357222
-0.353714
-0.349701
-0.345442
-0.341238
-0.337178
-0.35079
-0.356277
-0.357625
-0.356654
-0.354506
-0.351555
-0.348076
-0.344354
-0.340679
-0.336863
-0.348072
-0.353978
-0.355667
-0.354998
-0.353138
-0.350461
-0.347245
-0.343784
-0.340363
-0.336667
-0.290456
-0.126305
-0.0812527
-0.0303419
-0.0192376
-0.00780319
-0.00435878
-0.000886146
-0.00046411
0.00216994
-0.291686
-0.126852
-0.0815227
-0.0305403
-0.0193058
-0.00786322
-0.00438886
-0.000907075
-0.0004729
0.00215431
-0.294078
-0.127934
-0.0820578
-0.0309385
-0.0194416
-0.00798277
-0.0044485
-0.000948737
-0.000490767
0.00212295
-0.297489
-0.129525
-0.0828465
-0.0315386
-0.0196448
-0.00816134
-0.00453753
-0.00101103
-0.00051756
0.00207621
-0.301675
-0.131581
-0.0838628
-0.0323389
-0.0199134
-0.00839756
-0.00465544
-0.00109375
-0.000553003
0.00201453
-0.306279
-0.134026
-0.0850571
-0.0333255
-0.0202415
-0.00868783
-0.004801
-0.00119636
-0.000596742
0.00193855
-0.311172
-0.136931
-0.0864349
-0.0344937
-0.0206298
-0.00902939
-0.00497367
-0.00131791
-0.000648976
0.00184984
-0.316876
-0.140946
-0.0882588
-0.0359444
-0.0211215
-0.00943571
-0.00517951
-0.00145875
-0.000711235
0.00175121
-0.321654
-0.146452
-0.0907072
-0.0378425
-0.0217673
-0.00993383
-0.00542767
-0.00162424
-0.000781949
0.00164007
-0.31385
-0.148828
-0.0918174
-0.0395443
-0.0222697
-0.010426
-0.0056728
-0.00181545
-0.000841611
0.00149348
-0.247317
-0.140732
-0.0881934
-0.0428006
-0.0227688
-0.011758
-0.00638998
-0.00255525
-0.00100743
0.000840282
-0.189221
-0.131726
-0.0821888
-0.0442598
-0.024502
-0.0141494
-0.00823784
-0.00403789
-0.00176933
-2.31639e-06
-0.147803
-0.11387
-0.0727595
-0.0428287
-0.0259269
-0.0163539
-0.0101714
-0.00562827
-0.00270408
-0.000682781
-0.108209
-0.0929694
-0.0633399
-0.0408589
-0.0269755
-0.0181477
-0.0118446
-0.00706221
-0.00359495
-0.00115412
-0.0789705
-0.0756976
-0.0565399
-0.0396031
-0.0277986
-0.019492
-0.0131558
-0.00821531
-0.00434223
-0.00145288
-0.0588781
-0.0628507
-0.0515801
-0.0386031
-0.0282091
-0.0203382
-0.0140818
-0.00906897
-0.00492038
-0.00164661
-0.0458521
-0.0535897
-0.0477187
-0.0376328
-0.0282966
-0.0208191
-0.014705
-0.00967671
-0.00534882
-0.00178334
-0.0376074
-0.0471304
-0.0447568
-0.0367797
-0.0282513
-0.0210883
-0.0151128
-0.0100934
-0.00565141
-0.00188218
-0.0327854
-0.0430295
-0.0427493
-0.0361767
-0.0281949
-0.0212345
-0.0153575
-0.0103526
-0.00584427
-0.00194678
-0.0305548
-0.0410279
-0.0417383
-0.0358797
-0.028171
-0.0212992
-0.0154705
-0.0104744
-0.00593859
-0.00197703
-0.218615
-0.246512
-0.272291
-0.296235
-0.318729
-0.340279
-0.361504
-0.383048
-0.405414
-0.429256
-0.0679684
-0.078111
-0.0872756
-0.0957054
-0.103708
-0.111663
-0.120029
-0.129346
-0.140191
-0.154358
-0.0451969
-0.0543786
-0.0631747
-0.0715585
-0.0794925
-0.0869318
-0.0938329
-0.100169
-0.105937
-0.111258
-0.0187733
-0.0244933
-0.030007
-0.0353332
-0.0404939
-0.0455124
-0.0504119
-0.0552143
-0.0599198
-0.0644077
-0.013064
-0.0174198
-0.0216511
-0.0257543
-0.0297256
-0.0335611
-0.0372572
-0.0408109
-0.0442026
-0.047401
-0.00800942
-0.0112267
-0.0143846
-0.0174821
-0.0205187
-0.0234938
-0.026407
-0.0292568
-0.0320316
-0.0347348
-0.0068857
-0.00942254
-0.0119231
-0.0143833
-0.0167996
-0.0191689
-0.0214887
-0.0237564
-0.0259661
-0.028131
-0.00608459
-0.00814246
-0.0101838
-0.0122045
-0.0142009
-0.0161696
-0.0181074
-0.0200113
-0.0218781
-0.0237149
-0.00599691
-0.00777155
-0.00953826
-0.0112925
-0.0130302
-0.0147473
-0.0164403
-0.0181061
-0.0197425
-0.0213507
-0.00594089
-0.00756681
-0.00919013
-0.0108071
-0.0124141
-0.014008
-0.0155855
-0.0171438
-0.0186814
-0.0201965
0.167985
0.126998
0.0816496
0.0385805
-0.00315797
-0.044037
-0.0834403
-0.120785
-0.155804
-0.188411
0.117516
0.091601
0.0648092
0.0419705
0.0218504
0.00317671
-0.0141336
-0.0298696
-0.0440046
-0.056654
0.0733963
0.0576983
0.0427453
0.0298333
0.017982
0.00651543
-0.00463745
-0.0153887
-0.0257151
-0.0356433
0.0531408
0.0440679
0.0354389
0.0277285
0.0204623
0.0133698
0.00645325
-0.000228615
-0.00665451
-0.0128316
0.0376044
0.0316531
0.025913
0.0206224
0.0155321
0.0105111
0.00556615
0.00072856
-0.00398913
-0.0085865
0.0273431
0.0234543
0.019609
0.0159713
0.0124288
0.00891355
0.00542685
0.00198551
-0.00140215
-0.00473411
0.0196408
0.0169124
0.0141572
0.0114806
0.00883463
0.00618632
0.00353747
0.000899248
-0.00172048
-0.00431688
0.0144605
0.0124655
0.0104203
0.00838721
0.00634977
0.00429434
0.00222327
0.000144107
-0.00193681
-0.00401454
0.0111301
0.00953517
0.00789126
0.00622758
0.00453932
0.00282339
0.00108365
-0.000673756
-0.00244307
-0.00421911
0.00953401
0.00811343
0.00664951
0.0051565
0.00363378
0.00208241
0.000506705
-0.00108815
-0.00269733
-0.00431635
0.335401
0.3347
0.333151
0.330277
0.325293
0.316961
0.303512
0.282551
0.251443
0.206826
0.245503
0.244387
0.241751
0.237166
0.230296
0.220711
0.207839
0.191024
0.169516
0.142761
0.174672
0.173543
0.170877
0.166352
0.159862
0.151298
0.140472
0.127168
0.11098
0.0919932
0.123063
0.122177
0.120075
0.116512
0.111473
0.104981
0.0970319
0.0876336
0.0767088
0.0645926
0.0867294
0.086085
0.084546
0.081933
0.078253
0.0735586
0.0678839
0.0612671
0.0536884
0.0453566
0.0615506
0.0610872
0.0599787
0.0580965
0.055454
0.0521024
0.0480833
0.0434406
0.038192
0.0324839
0.0443995
0.044061
0.0432508
0.0418756
0.0399468
0.0375049
0.0345834
0.0312152
0.0274197
0.0232809
0.0331141
0.0328573
0.0322428
0.0311998
0.0297375
0.0278875
0.0256765
0.0231296
0.0202673
0.0171414
0.0262785
0.02607
0.0255713
0.0247249
0.0235382
0.0220363
0.0202404
0.0181693
0.015841
0.0132867
0.0230582
0.0228716
0.0224264
0.0216713
0.0206126
0.0192722
0.0176688
0.0158187
0.0137387
0.0114516
0.485375
0.487128
0.493461
0.504607
0.520459
0.541318
0.567653
0.599985
0.638852
0.6845
0.483134
0.484861
0.491114
0.502104
0.517707
0.538189
0.563959
0.595453
0.633073
0.676907
0.478703
0.480385
0.486485
0.497172
0.512289
0.532031
0.55669
0.586531
0.621681
0.661931
0.472183
0.47381
0.4797
0.489956
0.504372
0.523038
0.546075
0.573493
0.605
0.639977
0.463713
0.46529
0.470931
0.48065
0.494181
0.511477
0.532437
0.556727
0.583493
0.611632
0.45346
0.455009
0.460383
0.469484
0.481975
0.497648
0.516135
0.536681
0.557732
0.577633
0.441621
0.44321
0.448337
0.456776
0.468115
0.481961
0.497639
0.513896
0.528394
0.538845
0.428402
0.430217
0.435233
0.443082
0.453297
0.465265
0.477935
0.489415
0.496479
0.496064
0.413873
0.416164
0.421258
0.428644
0.437839
0.448012
0.457663
0.464074
0.462863
0.448783
0.397671
0.400106
0.404773
0.41103
0.418409
0.42596
0.431908
0.433031
0.424566
0.396863
0.397672
0.400107
0.404774
0.411031
0.41841
0.425961
0.431909
0.433033
0.424567
0.396864
0.413874
0.416165
0.421259
0.428645
0.43784
0.448013
0.457664
0.464075
0.462864
0.448785
0.428403
0.430218
0.435233
0.443083
0.453298
0.465267
0.477936
0.489416
0.49648
0.496065
0.441622
0.443211
0.448338
0.456776
0.468116
0.481962
0.49764
0.513897
0.528395
0.538846
0.453461
0.45501
0.460384
0.469485
0.481976
0.497649
0.516136
0.536682
0.557733
0.577634
0.463714
0.46529
0.470931
0.480651
0.494182
0.511478
0.532438
0.556727
0.583494
0.611633
0.472184
0.473811
0.4797
0.489956
0.504372
0.523038
0.546076
0.573493
0.605
0.639978
0.478704
0.480385
0.486486
0.497173
0.51229
0.532031
0.55669
0.586532
0.621682
0.661932
0.483134
0.484861
0.491114
0.502104
0.517707
0.53819
0.563959
0.595454
0.633073
0.676908
0.485375
0.487128
0.493461
0.504607
0.520459
0.541319
0.567653
0.599985
0.638852
0.6845
0.0230594
0.0228729
0.0224277
0.0216726
0.0206138
0.0192734
0.01767
0.0158199
0.0137399
0.0114528
0.0262797
0.0260712
0.0255725
0.0247261
0.0235394
0.0220375
0.0202416
0.0181706
0.0158422
0.0132879
0.0331154
0.0328586
0.0322441
0.031201
0.0297388
0.0278887
0.0256777
0.0231309
0.0202685
0.0171426
0.0444008
0.0440623
0.0432521
0.0418769
0.0399481
0.0375061
0.0345847
0.0312165
0.027421
0.0232822
0.0615519
0.0610885
0.05998
0.0580978
0.0554553
0.0521037
0.0480846
0.0434419
0.0381933
0.0324852
0.0867308
0.0860863
0.0845474
0.0819343
0.0782544
0.0735599
0.0678852
0.0612684
0.0536897
0.045358
0.123064
0.122179
0.120076
0.116514
0.111474
0.104983
0.0970332
0.087635
0.0767102
0.0645939
0.174674
0.173545
0.170878
0.166353
0.159863
0.1513
0.140473
0.127169
0.110981
0.0919946
0.245504
0.244388
0.241752
0.237168
0.230297
0.220712
0.207841
0.191025
0.169518
0.142763
0.335402
0.334702
0.333152
0.330278
0.325294
0.316963
0.303513
0.282552
0.251445
0.206828
0.00953518
0.00811456
0.00665062
0.00515757
0.00363482
0.00208342
0.000507685
-0.00108721
-0.00269641
-0.00431546
0.0111312
0.00953631
0.00789237
0.00622865
0.00454037
0.00282441
0.00108463
-0.000672806
-0.00244215
-0.00421823
0.0144617
0.0124667
0.0104214
0.0083883
0.00635083
0.00429536
0.00222426
0.000145057
-0.00193589
-0.00401365
0.019642
0.0169136
0.0141584
0.0114818
0.00883574
0.0061874
0.00353851
0.00090026
-0.00171949
-0.00431592
0.0273444
0.0234555
0.0196102
0.0159725
0.01243
0.00891465
0.00542793
0.00198656
-0.00140113
-0.00473312
0.0376057
0.0316544
0.0259142
0.0206236
0.0155333
0.0105123
0.00556732
0.000729702
-0.00398802
-0.00858541
0.0531422
0.0440692
0.0354403
0.0277299
0.0204636
0.013371
0.00645448
-0.000227415
-0.00665334
-0.0128304
0.0733977
0.0576997
0.0427467
0.0298347
0.0179834
0.00651681
-0.00463609
-0.0153873
-0.0257138
-0.0356421
0.117517
0.0916025
0.0648108
0.041972
0.0218519
0.00317821
-0.0141321
-0.0298681
-0.0440032
-0.0566526
0.167986
0.126999
0.0816513
0.0385822
-0.00315625
-0.0440353
-0.0834386
-0.120784
-0.155802
-0.188409
-0.00594003
-0.00756598
-0.00918933
-0.0108063
-0.0124134
-0.0140073
-0.0155848
-0.0171431
-0.0186808
-0.020196
-0.00599605
-0.0077707
-0.00953744
-0.0112917
-0.0130294
-0.0147465
-0.0164396
-0.0181054
-0.0197418
-0.0213501
-0.00608372
-0.00814161
-0.010183
-0.0122037
-0.0142002
-0.0161688
-0.0181067
-0.0200107
-0.0218774
-0.0237143
-0.00688478
-0.00942166
-0.0119222
-0.0143825
-0.0167988
-0.0191682
-0.021488
-0.0237557
-0.0259655
-0.0281304
-0.00800845
-0.0112257
-0.0143836
-0.0174812
-0.0205178
-0.023493
-0.0264062
-0.0292561
-0.0320309
-0.0347342
-0.0130629
-0.0174188
-0.0216501
-0.0257533
-0.0297247
-0.0335602
-0.0372563
-0.0408101
-0.0442019
-0.0474002
-0.0187722
-0.0244922
-0.0300059
-0.0353321
-0.0404929
-0.0455114
-0.0504109
-0.0552135
-0.059919
-0.0644069
-0.0451956
-0.0543774
-0.0631736
-0.0715574
-0.0794914
-0.0869307
-0.0938319
-0.100168
-0.105936
-0.111257
-0.067967
-0.0781096
-0.0872741
-0.0957041
-0.103706
-0.111662
-0.120028
-0.129344
-0.14019
-0.154357
-0.218613
-0.24651
-0.272289
-0.296233
-0.318728
-0.340277
-0.361502
-0.383046
-0.405412
-0.429255
-0.0305543
-0.0410274
-0.0417379
-0.0358792
-0.02817
-0.0212979
-0.0154693
-0.0104737
-0.00593829
-0.00197716
-0.0327849
-0.043029
-0.0427489
-0.0361762
-0.0281939
-0.0212331
-0.0153562
-0.0103518
-0.00584401
-0.00194696
-0.0376069
-0.0471299
-0.0447564
-0.0367793
-0.0282503
-0.0210868
-0.0151114
-0.0100926
-0.00565122
-0.00188248
-0.0458516
-0.0535892
-0.0477184
-0.0376325
-0.0282954
-0.0208174
-0.0147034
-0.00967584
-0.0053488
-0.00178384
-0.0588776
-0.0628503
-0.0515801
-0.0386031
-0.0282077
-0.0203362
-0.0140799
-0.00906796
-0.0049207
-0.00164745
-0.07897
-0.0756972
-0.0565402
-0.0396033
-0.0277969
-0.0194895
-0.0131534
-0.00821408
-0.00434316
-0.00145427
-0.108209
-0.0929692
-0.0633408
-0.0408595
-0.0269732
-0.0181445
-0.0118415
-0.00706069
-0.00359688
-0.00115632
-0.147803
-0.11387
-0.0727615
-0.04283
-0.0259239
-0.0163497
-0.0101671
-0.00562632
-0.00270744
-0.000686044
-0.18922
-0.131726
-0.0821924
-0.0442623
-0.0244983
-0.014144
-0.00823193
-0.00403533
-0.0017743
-6.76297e-06
-0.247316
-0.140732
-0.0881985
-0.0428042
-0.0227651
-0.0117522
-0.00638256
-0.00255207
-0.00101354
0.000834973
-0.313848
-0.148828
-0.0918224
-0.0395475
-0.0222665
-0.0104211
-0.0056657
-0.00181251
-0.000847702
0.00148862
-0.321652
-0.146452
-0.0907121
-0.0378455
-0.0217642
-0.00992924
-0.00542097
-0.00162156
-0.000787735
0.00163555
-0.316874
-0.140947
-0.0882634
-0.035947
-0.0211186
-0.00943151
-0.0051735
-0.00145646
-0.000716418
0.00174721
-0.311171
-0.136931
-0.0864391
-0.034496
-0.0206271
-0.00902564
-0.00496838
-0.00131597
-0.000653511
0.00184638
-0.306278
-0.134027
-0.0850609
-0.0333274
-0.0202391
-0.00868455
-0.00479644
-0.00119475
-0.000600635
0.0019356
-0.301674
-0.131581
-0.083866
-0.0323405
-0.0199114
-0.00839481
-0.00465164
-0.00109244
-0.000556228
0.00201211
-0.297488
-0.129525
-0.0828492
-0.0315399
-0.0196432
-0.00815916
-0.00453453
-0.00101002
-0.000520089
0.00207432
-0.294077
-0.127934
-0.0820597
-0.0309394
-0.0194404
-0.00798118
-0.00444633
-0.000948017
-0.00049258
0.0021216
-0.291686
-0.126853
-0.0815239
-0.0305408
-0.019305
-0.00786227
-0.00438755
-0.000906644
-0.000473987
0.0021535
-0.290455
-0.126305
-0.0812531
-0.030342
-0.0192374
-0.00780287
-0.00435834
-0.000886
-0.000464472
0.00216967
)
;

boundaryField
{
    inlet
    {
        type            zeroGradient;
    }
    outlet
    {
        type            fixedValue;
        value           uniform 0;
    }
    cylinder
    {
        type            zeroGradient;
    }
    top
    {
        type            symmetryPlane;
    }
    bottom
    {
        type            symmetryPlane;
    }
    defaultFaces
    {
        type            empty;
    }
}


// ************************************************************************* //
