/*--------------------------------*- C++ -*----------------------------------*\
  =========                 |
  \\      /  F ield         | OpenFOAM: The Open Source CFD Toolbox
   \\    /   O peration     | Website:  https://openfoam.org
    \\  /    A nd           | Version:  6.0
     \\/     M anipulation  |
\*---------------------------------------------------------------------------*/
FoamFile
{
    version     2.0;
    format      ascii;
    class       surfaceScalarField;
    location    "40";
    object      phi;
}
// * * * * * * * * * * * * * * * * * * * * * * * * * * * * * * * * * * * * * //

dimensions      [0 3 -1 0 0 0 0];

internalField   nonuniform List<scalar> 
3880
(
-1.79764e-05
1.79768e-05
-3.60037e-10
-5.3495e-05
3.55191e-05
-5.19591e-10
-9.53883e-05
4.18937e-05
-4.09559e-10
-0.000136591
4.1203e-05
-1.63202e-10
-0.000172743
3.61518e-05
1.51598e-10
-0.000201433
2.86894e-05
5.04322e-10
-0.000221728
2.02941e-05
8.75436e-10
-0.000233866
1.21366e-05
1.24641e-09
-0.000239054
5.18617e-06
1.6154e-09
2.17312e-07
1.96744e-09
-0.000239273
-1.72978e-05
3.52746e-05
-5.08462e-05
6.90675e-05
-8.96163e-05
8.06637e-05
-0.000126656
7.82423e-05
-0.000157645
6.71409e-05
-0.000180139
5.11835e-05
-0.000193118
3.32734e-05
-0.000196721
1.57393e-05
-0.000192099
5.64087e-07
-1.06144e-05
-0.000181267
-1.59053e-05
5.11799e-05
-4.54322e-05
9.85944e-05
-7.7869e-05
0.000113101
-0.000106532
0.000106906
-0.000127229
8.78373e-05
-0.000137483
6.14371e-05
-0.000136116
3.19069e-05
-0.000123061
2.68378e-06
-9.9331e-05
-2.31656e-05
-4.29508e-05
-6.69945e-05
-1.37116e-05
6.48915e-05
-3.69709e-05
0.000121854
-5.96376e-05
0.000135767
-7.55361e-05
0.000122804
-8.07732e-05
9.30744e-05
-7.29279e-05
5.35918e-05
-5.06495e-05
9.62855e-06
-1.3553e-05
-3.44127e-05
3.76155e-05
-7.43341e-05
-0.000106101
0.000100766
-1.05535e-05
7.54449e-05
-2.49447e-05
0.000136245
-3.39526e-05
0.000144775
-3.22488e-05
0.0001211
-1.65474e-05
7.73729e-05
1.52781e-05
2.17663e-05
6.46378e-05
-3.97311e-05
0.000132294
-0.000102069
0.000217968
-0.000160008
-0.000207796
0.000319663
-6.1796e-06
8.16245e-05
-8.56519e-06
0.000138631
7.23008e-07
0.000135487
2.57501e-05
9.60733e-05
6.87429e-05
3.43801e-05
0.000131065
-4.0556e-05
0.000213801
-0.000122467
0.00031796
-0.000206228
0.000443963
-0.000286011
-0.000353915
0.000590082
-2.78267e-07
8.19028e-05
1.31431e-05
0.000125209
4.63813e-05
0.000102249
0.000101851
4.06038e-05
0.000180199
-4.39679e-05
0.000281312
-0.000141669
0.000405105
-0.00024626
0.000552134
-0.000353257
0.000723483
-0.00045736
-0.000548684
0.000918252
7.4342e-06
7.44686e-05
4.10626e-05
9.15807e-05
0.000104948
3.83637e-05
0.000199683
-5.41314e-05
0.000323976
-0.000168261
0.000475453
-0.000293146
0.000651498
-0.000422306
0.000850407
-0.000552166
0.00107265
-0.000679601
-0.000797624
0.00132159
1.70658e-05
5.74028e-05
7.55071e-05
3.31394e-05
0.000177313
-6.3442e-05
0.000321569
-0.000198387
0.000505326
-0.000352018
0.00072382
-0.00051164
0.000970776
-0.000669261
0.00123938
-0.000820771
0.00152587
-0.000966093
-0.00111593
0.00184418
2.83507e-05
2.90521e-05
0.000115562
-5.40717e-05
0.000261837
-0.000209718
0.000465776
-0.000402326
0.000724587
-0.000610829
0.0010338
-0.000820857
0.00138663
-0.00102209
0.00177228
-0.00120641
0.00217504
-0.00136885
-0.00151339
0.0025725
4.04751e-05
-1.1423e-05
0.000158375
-0.000171972
0.000352089
-0.000403432
0.000620354
-0.00067059
0.000962551
-0.000953026
0.00137938
-0.00123768
0.00187408
-0.0015168
0.00245576
-0.0017881
0.00314736
-0.00206045
-0.00237221
0.00400618
5.23595e-05
-6.37825e-05
0.000199955
-0.000319567
0.000438007
-0.000641484
0.000763003
-0.000995587
0.00117226
-0.00136229
0.00166393
-0.00172934
0.00223692
-0.00208979
0.00289039
-0.00244157
0.00361883
-0.00278889
-0.00314081
0.00438743
6.3485e-05
-0.000127268
0.000238251
-0.000494334
0.000514864
-0.000918097
0.000885315
-0.00136604
0.00134184
-0.00181881
0.00187631
-0.00226381
0.00247952
-0.002693
0.00313969
-0.00310174
0.00383825
-0.00348745
-0.00384401
0.00454145
7.38716e-05
-0.000201139
0.000272989
-0.000693451
0.000582122
-0.00122723
0.000987489
-0.0017714
0.00147522
-0.00230654
0.0020307
-0.0028193
0.00263816
-0.00330046
0.00327987
-0.00374345
0.00393458
-0.00414216
-0.00448538
0.00457596
8.36629e-05
-0.000284802
0.000304314
-0.000914102
0.000640049
-0.00156296
0.00107069
-0.00220205
0.00157622
-0.00281207
0.00213646
-0.00337953
0.00273121
-0.0038952
0.00334036
-0.0043526
0.0039438
-0.0047456
-0.00506328
0.00452169
9.28484e-05
-0.00037765
0.000331967
-0.00115322
0.000688073
-0.00191907
0.00113437
-0.00264835
0.00164514
-0.00332283
0.00219582
-0.00393022
0.00276372
-0.0044631
0.00332854
-0.00491743
0.00387285
-0.00528991
-0.00557324
0.00438282
0.000101185
-0.000478835
0.000355067
-0.0014071
0.000724485
-0.00228849
0.00117614
-0.0031
0.00167935
-0.00382605
0.00220662
-0.00445749
0.00273444
-0.00499092
0.00324397
-0.00542696
0.00372141
-0.00576734
-0.00601044
0.0041586
0.000108242
-0.000587077
0.000372269
-0.00167113
0.000746863
-0.00266308
0.0011927
-0.00354584
0.00167529
-0.00430864
0.00216569
-0.00494789
0.00264125
-0.00546647
0.00308589
-0.00587161
0.00349006
-0.0061715
-0.00637125
0.00385087
0.000113496
-0.000700572
0.00038206
-0.00193969
0.000752695
-0.00303372
0.00118098
-0.00397413
0.00163007
-0.00475773
0.00207123
-0.00538905
0.00248414
-0.00587938
0.00285647
-0.00624394
0.00318315
-0.00649818
-0.00665405
0.00346596
0.000116416
-0.000816988
0.000383026
-0.0022063
0.000739894
-0.00339058
0.0011389
-0.00437314
0.00154253
-0.00516135
0.00192389
-0.00577041
0.00226619
-0.00622168
0.00256142
-0.00653917
0.00280887
-0.00674563
-0.00685929
0.0030141
0.000116537
-0.000933525
0.00037406
-0.00246383
0.000707144
-0.00372367
0.00106576
-0.00473176
0.00141354
-0.00550913
0.00172689
-0.00608375
0.00199334
-0.00648813
0.00220936
-0.00675519
0.00237811
-0.00691438
-0.00698916
0.00250798
0.000113457
-0.00104698
0.000354397
-0.00270477
0.000653934
-0.00402321
0.000962214
-0.00504004
0.00124578
-0.00579269
0.00148545
-0.00632342
0.00167351
-0.00667619
0.00181059
-0.00689227
0.00190302
-0.00700682
-0.00704716
0.00196103
0.000106917
-0.0011539
0.000323755
-0.00292161
0.000580683
-0.00428013
0.000830229
-0.00528958
0.00104342
-0.00600588
0.00120625
-0.00648625
0.00131569
-0.00678564
0.00137599
-0.00695257
0.00139578
-0.0070266
-0.00703761
0.00138622
9.67701e-05
-0.00125067
0.000282253
-0.00310709
0.00048854
-0.00448642
0.000672708
-0.00547375
0.000811531
-0.0061447
0.000896517
-0.00657124
0.000928976
-0.0068181
0.000915968
-0.00693957
0.000867552
-0.00697819
-0.00696517
0.000795116
8.29981e-05
-0.00133367
0.00023041
-0.0032545
0.000379271
-0.00463528
0.000493174
-0.00558765
0.000555539
-0.00620707
0.000563386
-0.00657909
0.000521768
-0.00677648
0.000439692
-0.00685749
0.000327809
-0.0068663
-0.0068346
0.000197236
6.57184e-05
-0.00139939
0.000169109
-0.00335789
0.000255131
-0.0047213
0.000295517
-0.00562804
0.000280835
-0.00619239
0.000213366
-0.00651162
0.000101232
-0.00666434
-4.54454e-05
-0.00671081
-0.000216173
-0.00669558
-0.00665045
-0.000400316
4.52015e-05
-0.00144459
9.96127e-05
-0.0034123
0.000118827
-0.00474052
8.38873e-05
-0.0055931
-7.37251e-06
-0.00610113
-0.000147841
-0.00637115
-0.000326941
-0.00648524
-0.000534101
-0.00650365
-0.000759597
-0.00647008
-0.00641654
-0.000993513
2.18972e-05
-0.00146648
2.35903e-05
-0.003414
-2.64528e-05
-0.00469047
-0.00013725
-0.0054823
-0.00030397
-0.00593441
-0.000515218
-0.0061599
-0.000758425
-0.00624204
-0.00102295
-0.00623912
-0.00130037
-0.00619267
-0.00613332
-0.00158359
-3.52413e-06
-0.00146296
-5.68005e-05
-0.00336072
-0.00017692
-0.00457035
-0.000362964
-0.00529626
-0.000603853
-0.00569352
-0.000884698
-0.00587906
-0.00119127
-0.00593546
-0.00151273
-0.00591766
-0.00184205
-0.00586335
-0.00579383
-0.00218154
-3.01079e-05
-0.00143285
-0.000138739
-0.00325209
-0.000327728
-0.00438136
-0.00058688
-0.00503711
-0.000900373
-0.00538002
-0.0012516
-0.00552783
-0.00162604
-0.00556103
-0.00201327
-0.00553043
-0.00240934
-0.00546729
-0.00540647
-0.00279669
-5.66206e-05
-0.00137623
-0.000218706
-0.00309
-0.000472467
-0.0041276
-0.000799082
-0.00471049
-0.00117942
-0.00499968
-0.00159758
-0.00510967
-0.00204225
-0.00511636
-0.00250617
-0.00506651
-0.00298843
-0.00498502
-0.00486994
-0.00352497
-8.19863e-05
-0.00129424
-0.000293656
-0.00287833
-0.000605385
-0.00381588
-0.000989451
-0.00432643
-0.00142231
-0.00456682
-0.00188592
-0.00464606
-0.00236727
-0.004635
-0.0028574
-0.00457639
-0.00335011
-0.00449231
-0.00439084
-0.00382921
-0.000105567
-0.00118868
-0.000362211
-0.00262169
-0.000725123
-0.00345296
-0.0011583
-0.00389325
-0.00163423
-0.00409089
-0.00213319
-0.0041471
-0.00264175
-0.00412645
-0.0031509
-0.00406724
-0.00365346
-0.00398974
-0.00390445
-0.00413985
-0.00012702
-0.00106166
-0.00042378
-0.00232493
-0.000831572
-0.00304517
-0.00130721
-0.00341761
-0.00182016
-0.00357795
-0.00234994
-0.00361731
-0.00288351
-0.00359288
-0.00341269
-0.00353806
-0.00393191
-0.00347052
-0.00339976
-0.0044366
-0.000146081
-0.000915577
-0.000477931
-0.00199308
-0.000924551
-0.00259855
-0.00143676
-0.0029054
-0.0019818
-0.0030329
-0.00253907
-0.00306004
-0.00309627
-0.00303569
-0.00364639
-0.00298793
-0.00418547
-0.00293145
-0.00287403
-0.00471121
-0.000162504
-0.000753072
-0.000524206
-0.00163138
-0.00100363
-0.00211913
-0.00154671
-0.00236232
-0.00211914
-0.00246047
-0.00270043
-0.00247876
-0.00327912
-0.00245699
-0.00384931
-0.00241775
-0.00440816
-0.00237259
-0.00232762
-0.00495457
-0.000176039
-0.000577034
-0.000562095
-0.00124532
-0.00106815
-0.00161308
-0.00163633
-0.00179414
-0.00223123
-0.00186558
-0.00283257
-0.00187741
-0.00342968
-0.00185989
-0.00401747
-0.00182996
-0.00459391
-0.00179615
-0.00176296
-0.00515857
-0.000186443
-0.000390591
-0.000591077
-0.000840689
-0.00111738
-0.00108677
-0.00170467
-0.00120685
-0.00231679
-0.00125346
-0.0029337
-0.00126049
-0.00354531
-0.00124828
-0.00414715
-0.00122812
-0.00473767
-0.00120563
-0.00118375
-0.00531689
-0.000193509
-0.000197082
-0.000610691
-0.000423507
-0.00115064
-0.00054682
-0.00175082
-0.00060667
-0.0023746
-0.000629677
-0.00300215
-0.00063294
-0.00362375
-0.000626683
-0.00423532
-0.000616546
-0.00483563
-0.000605315
-0.000594447
-0.00542493
-0.000197082
1.76131e-10
-0.000620589
4.94058e-10
-0.00116741
6.69565e-10
-0.00177408
7.20547e-10
-0.00240376
6.79134e-10
-0.0030367
5.78129e-10
-0.00366338
4.44547e-10
-0.00427993
2.97463e-10
-0.00488524
1.50348e-10
8.01309e-12
-0.00547969
-0.000197082
0.000197082
-0.000620589
0.000423508
-0.00116741
0.000546821
-0.00177408
0.000606672
-0.00240376
0.000629678
-0.0030367
0.000632941
-0.00366338
0.000626684
-0.00427993
0.000616547
-0.00488524
0.000605316
0.000594447
-0.00547969
-0.000193509
0.000390591
-0.000610691
0.00084069
-0.00115064
0.00108677
-0.00175082
0.00120685
-0.0023746
0.00125346
-0.00300215
0.00126049
-0.00362375
0.00124828
-0.00423532
0.00122812
-0.00483563
0.00120563
0.00118375
-0.00542493
-0.000186443
0.000577034
-0.000591077
0.00124532
-0.00111738
0.00161308
-0.00170467
0.00179414
-0.00231679
0.00186558
-0.0029337
0.00187741
-0.00354531
0.00185989
-0.00414715
0.00182996
-0.00473767
0.00179615
0.00176296
-0.00531689
-0.000176039
0.000753073
-0.000562094
0.00163138
-0.00106815
0.00211913
-0.00163633
0.00236232
-0.00223123
0.00246047
-0.00283257
0.00247876
-0.00342968
0.00245699
-0.00401747
0.00241775
-0.00459391
0.00237259
0.00232762
-0.00515857
-0.000162504
0.000915577
-0.000524206
0.00199308
-0.00100363
0.00259855
-0.00154671
0.0029054
-0.00211914
0.0030329
-0.00270043
0.00306004
-0.00327912
0.00303569
-0.00384931
0.00298793
-0.00440816
0.00293145
0.00287403
-0.00495457
-0.000146081
0.00106166
-0.000477931
0.00232493
-0.000924551
0.00304517
-0.00143676
0.00341761
-0.0019818
0.00357795
-0.00253907
0.00361731
-0.00309627
0.00359288
-0.00364639
0.00353806
-0.00418547
0.00347053
0.00339976
-0.00471121
-0.00012702
0.00118868
-0.00042378
0.00262169
-0.000831572
0.00345296
-0.00130721
0.00389325
-0.00182016
0.00409089
-0.00234994
0.0041471
-0.00288351
0.00412645
-0.00341269
0.00406724
-0.00393191
0.00398975
0.00390445
-0.0044366
-0.000105567
0.00129425
-0.00036221
0.00287833
-0.000725123
0.00381588
-0.0011583
0.00432643
-0.00163423
0.00456682
-0.00213319
0.00464606
-0.00264175
0.004635
-0.0031509
0.00457639
-0.00365346
0.00449231
0.00439084
-0.00413985
-8.19863e-05
0.00137623
-0.000293656
0.00309
-0.000605385
0.0041276
-0.00098945
0.00471049
-0.00142231
0.00499968
-0.00188592
0.00510967
-0.00236727
0.00511636
-0.0028574
0.00506652
-0.00335011
0.00498502
0.00486994
-0.00382921
-5.66205e-05
0.00143285
-0.000218706
0.00325209
-0.000472467
0.00438137
-0.000799081
0.00503711
-0.00117942
0.00538003
-0.00159758
0.00552783
-0.00204225
0.00556103
-0.00250617
0.00553043
-0.00298843
0.00546729
0.00540647
-0.00352497
-3.01078e-05
0.00146296
-0.000138739
0.00336072
-0.000327728
0.00457035
-0.000586879
0.00529626
-0.000900372
0.00569352
-0.0012516
0.00587906
-0.00162604
0.00593546
-0.00201327
0.00591767
-0.00240934
0.00586335
0.00579383
-0.00279669
-3.52405e-06
0.00146648
-5.68003e-05
0.003414
-0.00017692
0.00469047
-0.000362963
0.0054823
-0.000603852
0.00593441
-0.000884697
0.0061599
-0.00119127
0.00624204
-0.00151273
0.00623913
-0.00184205
0.00619267
0.00613332
-0.00218153
2.18973e-05
0.00144459
2.35906e-05
0.0034123
-2.64523e-05
0.00474052
-0.000137249
0.0055931
-0.000303969
0.00610113
-0.000515217
0.00637115
-0.000758423
0.00648524
-0.00102295
0.00650365
-0.00130037
0.00647008
0.00641654
-0.00158359
4.52016e-05
0.00139938
9.9613e-05
0.00335789
0.000118828
0.0047213
8.38881e-05
0.00562804
-7.37144e-06
0.00619239
-0.00014784
0.00651162
-0.00032694
0.00666434
-0.000534099
0.00671081
-0.000759595
0.00669558
0.00665045
-0.000993512
6.57185e-05
0.00133367
0.00016911
0.0032545
0.000255132
0.00463528
0.000295518
0.00558765
0.000280836
0.00620707
0.000213368
0.00657909
0.000101233
0.00677648
-4.54437e-05
0.00685749
-0.000216171
0.00686631
0.0068346
-0.000400314
8.29982e-05
0.00125067
0.00023041
0.00310709
0.000379272
0.00448642
0.000493175
0.00547375
0.00055554
0.0061447
0.000563388
0.00657124
0.000521769
0.0068181
0.000439694
0.00693957
0.000327811
0.00697819
0.00696517
0.000197238
9.67702e-05
0.0011539
0.000282254
0.0029216
0.000488541
0.00428013
0.000672709
0.00528958
0.000811532
0.00600588
0.000896518
0.00648625
0.000928978
0.00678564
0.00091597
0.00695257
0.000867554
0.0070266
0.00703761
0.000795118
0.000106917
0.00104698
0.000323755
0.00270477
0.000580683
0.0040232
0.00083023
0.00504003
0.00104342
0.00579269
0.00120625
0.00632342
0.00131569
0.00667619
0.00137599
0.00689227
0.00139578
0.00700682
0.00704716
0.00138623
0.000113457
0.000933524
0.000354398
0.00246383
0.000653935
0.00372367
0.000962215
0.00473175
0.00124578
0.00550913
0.00148545
0.00608375
0.00167351
0.00648813
0.00181059
0.00675519
0.00190302
0.00691438
0.00698916
0.00196103
0.000116537
0.000816987
0.00037406
0.0022063
0.000707144
0.00339058
0.00106576
0.00437313
0.00141354
0.00516135
0.00172689
0.00577041
0.00199334
0.00622167
0.00220936
0.00653917
0.00237811
0.00674563
0.00685929
0.00250799
0.000116416
0.000700572
0.000383026
0.00193969
0.000739894
0.00303371
0.0011389
0.00397412
0.00154253
0.00475772
0.00192389
0.00538904
0.00226619
0.00587938
0.00256142
0.00624394
0.00280887
0.00649818
0.00665405
0.00301411
0.000113496
0.000587076
0.00038206
0.00167113
0.000752695
0.00266308
0.00118098
0.00354583
0.00163007
0.00430864
0.00207123
0.00494788
0.00248414
0.00546647
0.00285647
0.00587161
0.00318315
0.0061715
0.00637125
0.00346596
0.000108242
0.000478834
0.000372269
0.0014071
0.000746863
0.00228849
0.0011927
0.0031
0.00167529
0.00382605
0.00216569
0.00445748
0.00264125
0.00499091
0.0030859
0.00542696
0.00349006
0.00576734
0.00601043
0.00385087
0.000101185
0.00037765
0.000355067
0.00115322
0.000724485
0.00191907
0.00117614
0.00264834
0.00167936
0.00332283
0.00220662
0.00393022
0.00273444
0.0044631
0.00324397
0.00491742
0.00372141
0.0052899
0.00557324
0.0041586
9.28483e-05
0.000284801
0.000331967
0.0009141
0.000688073
0.00156296
0.00113437
0.00220204
0.00164514
0.00281207
0.00219582
0.00337953
0.00276372
0.0038952
0.00332854
0.0043526
0.00387285
0.0047456
0.00506327
0.00438282
8.36629e-05
0.000201139
0.000304314
0.000693449
0.000640049
0.00122723
0.00107069
0.0017714
0.00157622
0.00230654
0.00213646
0.00281929
0.00273121
0.00330045
0.00334036
0.00374345
0.0039438
0.00414216
0.00448538
0.00452169
7.38716e-05
0.000127267
0.000272989
0.000494332
0.000582122
0.000918094
0.000987489
0.00136603
0.00147522
0.00181881
0.0020307
0.00226381
0.00263816
0.002693
0.00327987
0.00310173
0.00393459
0.00348744
0.00384401
0.00457596
6.3485e-05
6.37821e-05
0.000238251
0.000319566
0.000514864
0.000641481
0.000885314
0.000995584
0.00134184
0.00136228
0.00187631
0.00172934
0.00247952
0.00208978
0.00313969
0.00244156
0.00383825
0.00278889
0.0031408
0.00454145
5.23594e-05
1.14226e-05
0.000199955
0.000171971
0.000438006
0.00040343
0.000763002
0.000670587
0.00117226
0.000953022
0.00166393
0.00123768
0.00223692
0.00151679
0.00289039
0.00178809
0.00361883
0.00206044
0.00237221
0.00438743
4.0475e-05
-2.90524e-05
0.000158375
5.40708e-05
0.000352089
0.000209716
0.000620353
0.000402323
0.000962549
0.000610826
0.00137937
0.000820853
0.00187408
0.00102209
0.00245576
0.00120641
0.00314736
0.00136885
0.00151338
0.00400618
2.83506e-05
-5.74029e-05
0.000115561
-3.31401e-05
0.000261837
6.34406e-05
0.000465775
0.000198385
0.000724585
0.000352015
0.0010338
0.000511636
0.00138663
0.000669257
0.00177228
0.000820765
0.00217503
0.000966087
0.00111592
0.00257249
1.70656e-05
-7.44686e-05
7.55067e-05
-9.15811e-05
0.000177312
-3.83647e-05
0.000321568
5.41297e-05
0.000505325
0.000168258
0.000723818
0.000293143
0.000970773
0.000422302
0.00123938
0.000552161
0.00152587
0.000679595
0.000797618
0.00184417
7.43406e-06
-8.19026e-05
4.10622e-05
-0.000125209
0.000104947
-0.000102249
0.000199682
-4.06051e-05
0.000323974
4.39658e-05
0.00047545
0.000141666
0.000651496
0.000246256
0.000850404
0.000353253
0.00107264
0.000457354
0.000548678
0.00132158
-2.78404e-07
-8.16242e-05
1.31427e-05
-0.00013863
4.63806e-05
-0.000135487
0.00010185
-9.60742e-05
0.000180197
-3.43817e-05
0.00028131
4.05536e-05
0.000405102
0.000122464
0.000552131
0.000206224
0.000723479
0.000286006
0.000353909
0.000918248
-6.17973e-06
-7.54445e-05
-8.56557e-06
-0.000136245
7.22317e-07
-0.000144775
2.57491e-05
-0.000121101
6.87415e-05
-7.73742e-05
0.000131063
-2.17683e-05
0.000213799
3.97283e-05
0.000317957
0.000102065
0.00044396
0.000160003
0.000207791
0.000590078
-1.05536e-05
-6.48909e-05
-2.4945e-05
-0.000121853
-3.39532e-05
-0.000135767
-3.22497e-05
-0.000122804
-1.65486e-05
-9.30753e-05
1.52766e-05
-5.35934e-05
6.46358e-05
-9.63097e-06
0.000132292
3.44095e-05
0.000217965
7.43301e-05
0.000106096
0.000319659
-1.37117e-05
-5.11792e-05
-3.69712e-05
-9.85936e-05
-5.96381e-05
-0.0001131
-7.55368e-05
-0.000106906
-8.07741e-05
-8.7838e-05
-7.29291e-05
-6.14384e-05
-5.0651e-05
-3.19091e-05
-1.35549e-05
-2.68671e-06
3.76133e-05
2.31619e-05
4.29464e-05
0.000100763
-1.59053e-05
-3.52739e-05
-4.54324e-05
-6.90666e-05
-7.78693e-05
-8.0663e-05
-0.000106533
-7.82421e-05
-0.00012723
-6.71413e-05
-0.000137483
-5.11847e-05
-0.000136117
-3.32753e-05
-0.000123062
-1.5742e-05
-9.93326e-05
-5.67543e-07
1.06102e-05
-6.69964e-05
-1.72978e-05
-1.79761e-05
-5.08464e-05
-3.55181e-05
-8.96165e-05
-4.18929e-05
-0.000126656
-4.12027e-05
-0.000157645
-3.61522e-05
-0.000180139
-2.86904e-05
-0.000193119
-2.02959e-05
-0.000196722
-1.21391e-05
-0.0001921
-5.18946e-06
-2.21319e-07
-0.000181268
-1.79764e-05
-5.3495e-05
-9.53884e-05
-0.000136591
-0.000172743
-0.000201433
-0.000221728
-0.000233866
-0.000239054
-0.000239273
0.000183835
-0.000423218
1.09151e-07
0.00132177
-0.0011383
3.69343e-07
0.00248557
-0.00116375
-4.54074e-08
0.00323267
-0.000746268
-8.36413e-07
0.00385243
-0.000619157
-6.03976e-07
0.00428086
-0.000428296
-1.26013e-07
0.00462493
-0.000344673
6.02947e-07
0.00485694
-0.000233796
1.78305e-06
0.00506642
-0.00021024
7.61312e-07
-0.000124015
-4.69137e-07
0.000295512
-0.000899996
0.00140417
-0.00224696
0.00254168
-0.00230126
0.00327223
-0.00147682
0.00388045
-0.00122738
0.00430222
-0.000850074
0.00464214
-0.000684584
0.00487237
-0.000464026
0.00508107
-0.000418946
-0.00024955
0.000511705
-0.00147869
0.0015633
-0.00329855
0.00264969
-0.00338766
0.00334837
-0.00217549
0.0039344
-0.00181341
0.00434352
-0.00125919
0.00467557
-0.00101664
0.00490256
-0.000691013
0.00510996
-0.000626343
-0.000377317
0.000818557
-0.00219649
0.00178827
-0.00426826
0.00280156
-0.00440095
0.00345541
-0.00282935
0.00401034
-0.00236834
0.00440199
-0.00165084
0.00472335
-0.00133799
0.00494623
-0.000913897
0.00515224
-0.000832351
-0.000508761
0.0011965
-0.00307332
0.00206379
-0.00513555
0.00298599
-0.00532315
0.00358537
-0.00342873
0.00410269
-0.00288566
0.00447371
-0.00202186
0.00478276
-0.00164704
0.00500152
-0.00113266
0.00520671
-0.00103753
-0.000645692
0.00162147
-0.00410471
0.0023713
-0.00588538
0.00318934
-0.00614119
0.00372857
-0.00396797
0.00420465
-0.00336174
0.0045539
-0.00237111
0.00485047
-0.0019436
0.00506612
-0.00134831
0.00527182
-0.00124324
-0.000790375
0.00206541
-0.00525186
0.0026896
-0.00650957
0.00339639
-0.00684798
0.00387427
-0.00444585
0.00430867
-0.00379613
0.00463717
-0.00269961
0.00492269
-0.00222912
0.00513735
-0.00156298
0.00534579
-0.00145168
-0.000945572
0.002498
-0.00642827
0.00299564
-0.00700722
0.00359118
-0.00744351
0.00401127
-0.00486594
0.00440688
-0.00419175
0.00471788
-0.00301061
0.0049954
-0.00250665
0.00521234
-0.00177991
0.00542663
-0.00166597
-0.00111456
0.00290165
-0.00748574
0.00327049
-0.00737606
0.00375965
-0.00793267
0.0041291
-0.0052354
0.00449179
-0.00455443
0.0047905
-0.00330932
0.00506458
-0.00278073
0.00528814
-0.00200347
0.00551224
-0.00189008
-0.00130112
0.00328113
-0.00819438
0.00351248
-0.00760741
0.00389094
-0.00831113
0.00422049
-0.00556494
0.00455668
-0.00489063
0.0048501
-0.00360274
0.00512622
-0.00305685
0.005362
-0.00223926
0.00560014
-0.00212822
-0.00151001
0.0432805
-0.000916117
-0.0505588
0.0390646
-0.00339146
0.0369861
-0.0062327
0.0368005
-0.00537933
0.0366539
-0.00474402
0.0368198
-0.00376863
0.0370102
-0.00324722
0.0372637
-0.00249279
0.0374743
-0.00233876
-0.00179912
0.052339
0.00331246
-0.0565676
0.0501433
-0.00119568
0.0475496
-0.00363906
0.0460089
-0.0038386
0.0448018
-0.00353696
0.043976
-0.00294279
0.0433288
-0.00260002
0.0429108
-0.00207478
0.0425092
-0.00193716
-0.00160653
0.0539038
0.00452374
-0.0551151
0.0526219
8.62535e-05
0.0510055
-0.00202274
0.049696
-0.0025291
0.0485976
-0.00243855
0.047738
-0.00208311
0.0469855
-0.00184757
0.0464228
-0.00151212
0.0458662
-0.00138056
-0.00122453
0.0520604
0.00437423
-0.0519109
0.0516515
0.000495171
0.0508182
-0.00118938
0.0499785
-0.00168948
0.0492353
-0.00169535
0.0486342
-0.00148194
0.0480829
-0.00129626
0.0476463
-0.0010756
0.0472077
-0.000941898
-0.000874487
0.0500073
0.00369103
-0.0493241
0.0498798
0.000622684
0.0494567
-0.000766341
0.0489537
-0.00118641
0.048482
-0.00122373
0.0480973
-0.00109722
0.0477471
-0.000946063
0.0474619
-0.000790393
0.047184
-0.000663996
-0.00062515
0.0483081
0.00289046
-0.0475076
0.0483332
0.000597591
0.0480817
-0.000514851
0.0477502
-0.000854896
0.0474253
-0.000898814
0.0471555
-0.000827392
0.0469213
-0.000711857
0.0467287
-0.000597803
0.0465558
-0.000491143
-0.000457526
0.0470995
0.00210085
-0.0463099
0.0471932
0.00050387
0.0470185
-0.000340139
0.0467667
-0.00060313
0.0465107
-0.000642774
0.0462887
-0.000605359
0.0461021
-0.000525317
0.045948
-0.000443657
0.0458203
-0.000363463
-0.000332581
0.0462851
0.00136195
-0.0455462
0.0464291
0.00035978
0.0462956
-0.000206587
0.0460795
-0.000387082
0.0458532
-0.000416467
0.0456474
-0.000399508
0.0454731
-0.000351041
0.0453277
-0.000298287
0.04521
-0.0002457
-0.000221846
0.0457885
0.000668588
-0.0450951
0.0459645
0.000183697
0.0458568
-9.88828e-05
0.0456574
-0.000187626
0.0454436
-0.000202669
0.0452425
-0.00019844
0.0450679
-0.000176399
0.0449207
-0.000151065
0.0447995
-0.000124519
-0.000112155
0.0455539
-0.0448853
0.0457376
0.0456387
0.0454511
0.0452484
0.04505
0.0448736
0.0447225
0.044598
0.0567753
0.00230157
-0.0560628
0.0573298
0.00291152
0.0576776
0.00350307
0.057769
0.00406716
0.0575573
0.00459455
0.0570025
0.00507645
0.0560733
0.00550514
0.0547403
0.0058745
0.0529481
0.00617964
0.00639545
0.0513979
0.00169288
-0.0507892
0.0520516
0.00225782
0.0527363
0.0028184
0.0534339
0.00336953
0.054123
0.00390548
0.0547794
0.00442004
0.0553778
0.00490677
0.055893
0.00535929
0.0563008
0.00577187
0.00612859
0.0480918
0.00121798
-0.0476169
0.0486476
0.00170195
0.0492813
0.00218475
0.0499873
0.00266351
0.0507577
0.00313506
0.0515818
0.00359594
0.0524463
0.00404231
0.0533356
0.00447002
0.0542329
0.00487453
0.00524641
0.0454945
0.000891375
-0.0451679
0.0459013
0.0012952
0.0463887
0.00169727
0.0469569
0.00209537
0.0476047
0.00248721
0.0483302
0.00287047
0.0491298
0.00324275
0.0499983
0.00360153
0.0509288
0.00394402
0.00426423
0.0439058
0.000651545
-0.043666
0.0442197
0.000981265
0.0446079
0.0013091
0.0450701
0.0016332
0.0456056
0.00195168
0.0462134
0.00226269
0.0468918
0.00256435
0.0476385
0.00285478
0.0484506
0.00313189
0.00339079
0.04281
0.000469373
-0.0426279
0.0430622
0.000729111
0.0433842
0.00098708
0.0437757
0.00124176
0.0442357
0.00149165
0.0447631
0.00173526
0.0453564
0.0019711
0.0460134
0.00219772
0.0467318
0.0024135
0.00261506
0.0421162
0.000324603
-0.0419714
0.0423279
0.000517442
0.0426061
0.000708866
0.0429501
0.000897724
0.0433589
0.00108287
0.043831
0.00126318
0.0443645
0.00143752
0.0449575
0.00160481
0.0456071
0.00176383
0.0019123
0.0416643
0.000203993
-0.0415436
0.04185
0.000331702
0.0421004
0.000458454
0.0424147
0.000583477
0.0427915
0.000706001
0.0432294
0.000825268
0.0437264
0.00094053
0.0442802
0.00105105
0.044888
0.00115603
0.00125413
0.0413996
9.81574e-05
-0.0412938
0.0415695
0.000161805
0.041803
0.000224992
0.0420991
0.000287331
0.0424567
0.000348434
0.042874
0.000407918
0.0433492
0.000465407
0.0438797
0.000520528
0.0444628
0.00057289
0.000621852
0.0412741
-0.041176
0.0414359
0.0416609
0.0419483
0.0422967
0.0427046
0.04317
0.0436906
0.0442634
0.0481094
-0.00335375
-0.0475524
0.0488228
-0.0028949
0.0496454
-0.00240623
0.0505376
-0.00188566
0.0514714
-0.00133415
0.0524283
-0.000759611
0.0533899
-0.000166543
0.0543348
0.00044136
0.0552365
0.00105935
0.00168166
0.0479852
-0.00340684
-0.0479321
0.0480815
-0.00299121
0.0482205
-0.00254527
0.0484082
-0.00207331
0.0486505
-0.00157647
0.0489517
-0.00106081
0.0493152
-0.000530105
0.0497433
1.3341e-05
0.0502356
0.000567035
0.00112801
0.046897
-0.0031475
-0.0471564
0.0466931
-0.00278731
0.0465499
-0.00240199
0.0464725
-0.00199592
0.0464672
-0.00157119
0.0465376
-0.00113121
0.046686
-0.000678495
0.0469144
-0.000215049
0.0472244
0.000257042
0.000735517
0.0455818
-0.00277138
-0.0459579
0.0452636
-0.00246907
0.0450067
-0.0021451
0.0448147
-0.00180393
0.0446909
-0.00144743
0.0446377
-0.00107802
0.044657
-0.000697782
0.0447507
-0.000308678
0.0449204
8.72866e-05
0.000488021
0.0446599
-0.0023496
-0.0450817
0.0442919
-0.00210112
0.0439823
-0.00183549
0.0437342
-0.0015558
0.0435504
-0.00126363
0.0434332
-0.000960858
0.0433847
-0.000649208
0.0434064
-0.000330376
0.0434998
-6.10575e-06
0.000321812
0.0439897
-0.00190032
-0.0444389
0.0435923
-0.0017038
0.0432508
-0.00149398
0.0429681
-0.0012731
0.0427469
-0.0010424
0.0425893
-0.000803277
0.0424972
-0.00055713
0.0424722
-0.000305345
0.0425154
-4.93509e-05
0.000209388
0.043559
-0.00143594
-0.0440234
0.043145
-0.00128981
0.042785
-0.00113398
0.0424818
-0.000969933
0.042238
-0.000798577
0.0420557
-0.000620932
0.0419366
-0.000438033
0.0418822
-0.000250935
0.0418935
-6.07197e-05
0.000131505
0.0432802
-0.000961462
-0.0437546
0.0428551
-0.000864768
0.0424828
-0.000761686
0.042166
-0.000653147
0.0419072
-0.000539754
0.0417085
-0.000422171
0.0415715
-0.00030108
0.0414978
-0.000177185
0.0414882
-5.12108e-05
7.61019e-05
0.0431192
-0.000481538
-0.0435992
0.042688
-0.000433516
0.0423086
-0.000382323
0.0419839
-0.0003284
0.0417162
-0.000272045
0.0415076
-0.000213581
0.0413598
-0.000153346
0.0412744
-9.16884e-05
0.0412521
-2.897e-05
3.44386e-05
0.0430454
-0.0435269
0.0426119
0.0422296
0.0419012
0.0416291
0.0414155
0.0412622
0.0411705
0.0411415
0.0429475
0.00017463
-0.000193169
0.0429914
0.000521276
-0.000565199
0.0430658
0.00087267
-0.000947118
0.0431884
0.00123699
-0.00135953
0.043389
0.00161961
-0.00182026
0.0437114
0.00202474
-0.0023471
0.0442143
0.00245452
-0.0029574
0.0449695
0.00291137
-0.00366664
0.0460712
0.0033713
-0.00447302
0.00392366
-0.00540479
0.0429657
0.000137881
0.0430729
0.000414035
0.043254
0.000691547
0.0435194
0.000971601
0.043884
0.00125501
0.0443668
0.00154201
0.0449896
0.00183166
0.0457769
0.00212406
0.0467446
0.00240363
0.00273617
0.0429665
0.000100273
0.0430779
0.000302716
0.0432627
0.000506704
0.0435251
0.000709225
0.0438707
0.000909381
0.0443068
0.00110588
0.0448419
0.00129663
0.045486
0.00147993
0.0462438
0.0016458
0.00182362
0.0429586
7.05592e-05
0.0430476
0.00021375
0.043196
0.000358306
0.0434046
0.000500635
0.0436744
0.000639532
0.0440066
0.000773704
0.0444017
0.000901578
0.0448596
0.00102195
0.0453756
0.00112981
0.00124132
0.0429506
4.88959e-05
0.0430161
0.000148278
0.0431258
0.000248592
0.0432795
0.000346943
0.0434767
0.000442272
0.0437169
0.000533529
0.0439989
0.000619573
0.0443214
0.000699473
0.0446808
0.000770439
0.00084042
0.0429445
3.33079e-05
0.0429918
0.000101019
0.043071
0.000169334
0.0431818
0.0002362
0.0433232
0.000300841
0.0434942
0.000362519
0.0436933
0.000420491
0.0439186
0.000474165
0.044167
0.000522065
0.000568462
0.0429403
2.19174e-05
0.0429749
6.64635e-05
0.0430328
0.000111387
0.0431137
0.00015533
0.0432168
0.00019777
0.0433411
0.000238216
0.0434854
0.000276192
0.0436482
0.000311309
0.0438275
0.000342738
0.000372644
0.0429376
1.32769e-05
0.0429638
4.02492e-05
0.0430077
6.74372e-05
0.043069
9.40321e-05
0.0431471
0.000119719
0.0432411
0.000144208
0.0433501
0.000167222
0.0434728
0.000188536
0.0436079
0.000207714
0.000225861
0.0429359
6.26131e-06
0.0429572
1.8982e-05
0.0429929
3.17939e-05
0.0430426
4.43269e-05
0.0431058
5.64348e-05
0.0431821