/*--------------------------------*- C++ -*----------------------------------*\
  =========                 |
  \\      /  F ield         | OpenFOAM: The Open Source CFD Toolbox
   \\    /   O peration     | Website:  https://openfoam.org
    \\  /    A nd           | Version:  6.0
     \\/     M anipulation  |
\*---------------------------------------------------------------------------*/
FoamFile
{
    version     2.0;
    format      ascii;
    class       volVectorField;
    location    "40";
    object      U;
}
// * * * * * * * * * * * * * * * * * * * * * * * * * * * * * * * * * * * * * //

dimensions      [0 1 -1 0 0 0 0];

internalField   nonuniform List<vector> 
2000
(
(-0.00199129 0.00173847 5.72946e-20)
(-0.00762178 0.00330273 6.80484e-20)
(-0.0153305 0.00366197 -6.48732e-20)
(-0.0223329 0.00333758 -1.32375e-19)
(-0.027681 0.00263983 -9.24712e-20)
(-0.031222 0.00177187 1.23191e-19)
(-0.0330533 0.000879094 7.17553e-20)
(-0.033444 6.82113e-05 -2.90273e-20)
(-0.0328263 -0.000581651 -7.24628e-20)
(-0.0314949 -0.0010066 5.2835e-20)
(-0.00248977 0.00512152 -1.42018e-19)
(-0.00837088 0.00968578 1.96052e-19)
(-0.0157255 0.0106977 1.955e-20)
(-0.0220255 0.00969744 -1.13561e-19)
(-0.0264598 0.00759803 5.43401e-19)
(-0.0289522 0.00499633 -2.39157e-19)
(-0.0296479 0.00232068 -2.58737e-19)
(-0.0288424 -0.000110621 3.1207e-19)
(-0.0269844 -0.00205584 -3.07774e-19)
(-0.024446 -0.00332252 1.55267e-19)
(-0.00343584 0.00822515 2.35867e-20)
(-0.00972829 0.0154099 8.38888e-21)
(-0.0163018 0.0168864 5.87563e-19)
(-0.0211439 0.0151404 2.06112e-19)
(-0.0237178 0.0116331 4.08787e-20)
(-0.0240983 0.00731644 3.38049e-19)
(-0.0225236 0.00287612 -6.42079e-19)
(-0.019338 -0.00116502 1.39255e-20)
(-0.0150193 -0.0043902 -3.7968e-19)
(-0.0101015 -0.0064758 4.18263e-19)
(-0.00472415 0.0108683 -4.43688e-20)
(-0.0114036 0.0200607 2.55261e-19)
(-0.0166179 0.0217193 -7.43713e-19)
(-0.0191363 0.0191493 -9.6132e-20)
(-0.0188319 0.0142674 -5.47398e-19)
(-0.0160031 0.00831112 5.6692e-19)
(-0.011022 0.00217533 -6.01326e-19)
(-0.0042953 -0.00343093 4.22302e-19)
(0.00366457 -0.00789788 1.77537e-19)
(0.0120656 -0.0107664 -2.00613e-19)
(-0.00618718 0.0128751 -4.93826e-19)
(-0.0129401 0.0232578 4.45617e-21)
(-0.0159823 0.0247668 9.16146e-19)
(-0.0151341 0.0213429 2.74658e-19)
(-0.0108141 0.015225 -8.73313e-19)
(-0.00361491 0.00783487 5.43044e-19)
(0.00591962 0.000195374 6.15532e-19)
(0.0173158 -0.00684005 -5.48794e-19)
(0.0300381 -0.0124541 3.91287e-19)
(0.0429269 -0.0160491 9.60851e-20)
(-0.00758387 0.0140746 6.75027e-20)
(-0.0136958 0.0246653 1.25197e-20)
(-0.013429 0.0257009 -1.17129e-18)
(-0.00792018 0.0215116 -6.55273e-19)
(0.00173661 0.0144919 7.81685e-19)
(0.0145802 0.00611489 -9.15387e-19)
(0.0298516 -0.00259073 1.04894e-18)
(0.0470116 -0.0107158 -9.06052e-20)
(0.0655431 -0.0172509 -2.951e-19)
(0.0838037 -0.021473 -8.57693e-19)
(-0.0085879 0.0143043 -1.46882e-19)
(-0.0128317 0.0240059 -2.68268e-19)
(-0.00771293 0.0243089 -3.29582e-19)
(0.00408024 0.0196268 7.03088e-19)
(0.0206611 0.0123265 1.30423e-18)
(0.0406199 0.00378395 -2.69565e-19)
(0.0629172 -0.00513335 -6.56077e-19)
(0.086933 -0.0136338 2.00104e-19)
(0.112254 -0.0206168 -1.26018e-18)
(0.136679 -0.0252858 1.38419e-18)
(-0.00878378 0.0134243 8.98338e-19)
(-0.00932784 0.0210861 -4.90355e-19)
(0.00264679 0.0205023 9.57325e-19)
(0.0227369 0.0158172 -1.56407e-18)
(0.0481755 0.00920503 -7.47341e-19)
(0.077017 0.00182526 -1.03516e-18)
(0.107833 -0.0057955 3.00744e-19)
(0.139847 -0.0132505 -8.37337e-19)
(0.172882 -0.0195756 1.82344e-18)
(0.20428 -0.0240831 5.10438e-19)
(-0.0076822 0.0113476 6.61327e-20)
(-0.00204427 0.015839 7.98749e-19)
(0.0192564 0.0143222 1.5873e-18)
(0.0500664 0.0102996 4.85047e-19)
(0.0867046 0.00565843 1.43566e-18)
(0.126598 0.00135877 7.86914e-20)
(0.167737 -0.00240894 -7.11092e-22)
(0.208925 -0.00569469 5.78802e-19)
(0.250239 -0.00784162 4.68152e-19)
(0.289122 -0.00926613 -1.51941e-18)
(-0.00477034 0.00808573 -5.32136e-19)
(0.0101475 0.00838427 -8.91252e-19)
(0.0436449 0.00593736 -1.29547e-18)
(0.0879983 0.00320829 3.06119e-20)
(0.138753 0.00175568 -6.60422e-19)
(0.192809 0.00254125 1.0409e-18)
(0.247592 0.00588729 -2.86573e-18)
(0.301166 0.0120126 1.28658e-18)
(0.352889 0.0215119 4.83596e-19)
(0.400037 0.0302438 1.51728e-18)
(0.000388899 0.0038084 2.66193e-19)
(0.0281188 -0.000874849 -1.01901e-18)
(0.0768111 -0.00427358 9.09881e-19)
(0.137565 -0.00546251 -3.53004e-19)
(0.205557 -0.00344391 3.83972e-19)
(0.277824 0.00270588 8.35934e-19)
(0.352533 0.0137234 -1.12234e-18)
(0.42928 0.0305501 1.45822e-19)
(0.509043 0.0524497 -5.37811e-19)
(0.594177 0.0694497 1.09118e-18)
(0.00806052 -0.00110812 3.81389e-19)
(0.0522612 -0.0110936 -9.23866e-19)
(0.118758 -0.0153303 1.25877e-18)
(0.197751 -0.01502 -7.83923e-19)
(0.284052 -0.010281 -2.87577e-19)
(0.374608 -0.000973998 1.7026e-19)
(0.467611 0.0128126 8.80277e-20)
(0.562494 0.030767 1.19404e-18)
(0.658909 0.0501734 3.43738e-19)
(0.754565 0.0623362 1.46952e-18)
(0.0183524 -0.00610216 -3.4042e-19)
(0.0826139 -0.0209192 1.19451e-18)
(0.169009 -0.0252646 -9.96706e-19)
(0.267058 -0.0228323 -1.16893e-18)
(0.371092 -0.0151024 1.63547e-18)
(0.47762 -0.00286783 -1.24352e-18)
(0.584244 0.0129406 3.28471e-19)
(0.689411 0.0312109 -1.94723e-18)
(0.791339 0.0492607 1.45861e-18)
(0.886047 0.0617456 7.28778e-20)
(0.0312707 -0.010546 -4.43648e-19)
(0.118978 -0.0287944 -4.28458e-19)
(0.226871 -0.0317852 -9.12371e-19)
(0.344066 -0.0258926 1.10591e-18)
(0.464451 -0.014041 -5.58585e-20)
(0.584065 0.00207422 7.14971e-19)
(0.699973 0.0208518 1.30431e-18)
(0.809935 0.0407938 -4.00819e-19)
(0.911582 0.059806 -1.41771e-18)
(1.00091 0.0748749 2.8147e-18)
(0.0467458 -0.0138318 -2.29317e-19)
(0.160912 -0.0332174 -2.7353e-19)
(0.291342 -0.032781 4.92244e-19)
(0.427117 -0.0216658 -9.14951e-19)
(0.561888 -0.00426311 1.56314e-19)
(0.691445 0.0168786 1.39105e-19)
(0.812668 0.0396107 6.10045e-20)
(0.923205 0.0622277 -9.85859e-21)
(1.02086 0.0832265 -1.49438e-19)
(1.10226 0.100989 -2.37957e-18)
(0.0646191 -0.0153978 9.30866e-19)
(0.207684 -0.0328637 -6.49642e-19)
(0.360985 -0.026538 8.30804e-21)
(0.514057 -0.00833944 -9.89406e-19)
(0.660657 0.0159055 -3.53983e-19)
(0.796706 0.0428741 3.30978e-19)
(0.919365 0.0699923 2.57035e-19)
(1.02674 0.0954694 -9.15932e-19)
(1.11735 0.11834 7.48647e-19)
(1.18885 0.13779 -9.81584e-19)
(0.0846117 -0.0147327 4.01765e-19)
(0.25823 -0.0266436 -3.57064e-19)
(0.433902 -0.0118361 1.4831e-18)
(0.602227 0.0151 1.51214e-19)
(0.757554 0.0470181 3.47516e-19)
(0.896416 0.0799681 1.5489e-18)
(1.01678 0.111129 -2.36827e-19)
(1.11772 0.138796 2.15788e-19)
(1.19888 0.162562 8.93555e-20)
(1.25919 0.182094 -1.09977e-19)
(0.106294 -0.0113862 2.8069e-19)
(0.311143 -0.0137431 6.74848e-19)
(0.507783 0.0120116 -7.22927e-19)
(0.688611 0.0488888 -2.44739e-19)
(0.849162 0.0886652 -3.02329e-19)
(0.987147 0.127017 4.68443e-19)
(1.10186 0.161146 -2.43663e-19)
(1.19375 0.189673 6.55547e-19)
(1.26384 0.212844 2.206e-19)
(1.3125 0.230664 -3.59647e-19)
(0.129072 -0.00499464 -3.02479e-19)
(0.364703 0.0063283 2.68856e-19)
(0.580018 0.0451368 -5.73689e-19)
(0.770042 0.0925425 2.47462e-19)
(0.932162 0.139655 -2.56775e-19)
(1.06584 0.182157 -3.20466e-19)
(1.17214 0.217627 -2.57348e-19)
(1.25319 0.245299 2.87604e-19)
(1.3115 0.266202 -5.42249e-19)
(1.34885 0.280635 3.27699e-19)
(0.152192 0.00468202 -1.07819e-19)
(0.416947 0.0336823 -2.10908e-19)
(0.647856 0.0871016 1.00434e-19)
(0.843435 0.144924 6.19194e-21)
(1.0036 0.198185 8.33343e-20)
(1.13007 0.243067 1.14328e-19)
(1.22601 0.277936 1.05958e-19)
(1.29535 0.302933 -1.40505e-19)
(1.34202 0.319978 1.19617e-19)
(1.36911 0.329674 -1.87196e-19)
(0.174776 0.0177191 -6.24123e-20)
(0.465775 0.0680016 -2.34128e-20)
(0.708581 0.1369 9.31671e-20)
(0.90601 0.204326 -4.28907e-20)
(1.0611 0.262006 1.14317e-19)
(1.17821 0.307192 -1.47604e-19)
(1.26274 0.339449 3.42103e-20)
(1.32037 0.360076 3.67072e-20)
(1.35627 0.37195 -1.53861e-20)
(1.37465 0.375984 5.82123e-20)
(0.195857 0.0339918 -6.73313e-20)
(0.509072 0.10851 -3.04694e-19)
(0.759692 0.192986 -2.1104e-20)
(0.95547 0.268575 6.27211e-21)
(1.10299 0.328579 -3.963e-19)
(1.20944 0.371907 5.23906e-20)
(1.2824 0.399692 -4.46034e-20)
(1.3291 0.414555 -1.07586e-19)
(1.35567 0.420328 2.24302e-19)
(1.36715 0.41823 -4.08974e-19)
(0.214445 0.0531506 -3.2519e-20)
(0.544852 0.15397 6.17095e-19)
(0.799066 0.253335 9.94304e-20)
(0.990136 0.335148 -5.43274e-19)
(1.12837 0.395217 -4.40548e-20)
(1.22372 0.434652 -5.20617e-19)
(1.28575 0.456424 3.81625e-19)
(1.32289 0.464537 -1.38463e-19)
(1.34192 0.463702 2.45628e-19)
(1.34842 0.455419 -1.79474e-19)
(0.229587 0.0746123 -2.05063e-19)
(0.571394 0.202718 1.95853e-19)
(0.825094 0.315541 -1.41364e-19)
(1.00902 0.401307 1.06552e-18)
(1.13708 0.459222 5.25873e-19)
(1.22173 0.493027 -1.21926e-19)
(1.27409 0.507671 4.10766e-19)
(1.30345 0.508498 -2.70288e-19)
(1.31688 0.500955 -7.53018e-20)
(1.32028 0.486797 4.94066e-19)
(0.240436 0.0975686 -3.54939e-19)
(0.587357 0.252731 4.51685e-19)
(0.836775 0.376931 -8.88686e-19)
(1.01185 0.464234 1.24805e-19)
(1.12967 0.51799 2.78899e-19)
(1.20469 0.544843 -4.27694e-19)
(1.24914 0.551725 -4.97996e-19)
(1.27272 0.545171 2.18601e-19)
(1.28252 0.531183 -2.63229e-19)
(1.28453 0.511754 3.16055e-19)
(0.246312 0.121013 -8.96802e-20)
(0.591874 0.301725 -4.59604e-19)
(0.833756 0.434708 2.5427e-19)
(0.999032 0.521159 4.26415e-19)
(1.10725 0.569097 -2.56429e-19)
(1.17428 0.588156 -1.91054e-19)
(1.21287 0.587119 -1.04353e-19)
(1.23273 0.573484 -5.1588e-20)
(1.24078 0.553597 1.07785e-20)
(1.24291 0.529719 1.07623e-19)
(0.246759 0.143785 6.58288e-20)
(0.584618 0.347278 -3.85672e-19)
(0.816341 0.486098 6.43263e-19)
(0.971583 0.569494 -3.81122e-19)
(1.07145 0.610386 1.06515e-19)
(1.13248 0.62129 -1.51101e-19)
(1.16741 0.612602 1.62669e-19)
(1.18559 0.592495 3.11956e-20)
(1.19356 0.56743 -7.79074e-20)
(1.19711 0.540021 1.51326e-19)
(0.241593 0.164636 -1.73058e-19)
(0.565834 0.386975 3.38103e-19)
(0.785449 0.528509 -1.52015e-20)
(0.931027 0.60695 -7.32487e-20)
(1.02419 0.640034 -2.01321e-19)
(1.08145 0.642882 2.48177e-20)
(1.11501 0.627183 6.1445e-20)
(1.1335 0.601457 -1.51453e-19)
(1.14303 0.571983 1.7688e-19)
(1.1492 0.541878 1.50283e-19)
(0.230936 0.182311 3.84857e-20)
(0.536326 0.418562 -8.09459e-20)
(0.742533 0.559669 2.4209e-20)
(0.87924 0.631621 1.25479e-20)
(0.967554 0.656554 7.78706e-20)
(1.02334 0.651785 -1.44007e-19)
(1.05788 0.629967 -3.01286e-19)
(1.07891 0.599657 -1.22912e-19)
(1.09214 0.566623 -1.57106e-19)
(1.10255 0.5347 1.331e-19)
(0.215231 0.195654 1.1073e-19)
(0.49743 0.440131 -1.71665e-19)
(0.689468 0.577805 1.65696e-19)
(0.818264 0.64211 -3.14766e-19)
(0.903422 0.658818 7.6365e-20)
(0.959696 0.646834 5.16127e-19)
(0.997279 0.619363 -1.58273e-19)
(1.02317 0.584702 1.88136e-19)
(1.04271 0.548005 2.75437e-19)
(1.05903 0.515027 1.00185e-18)
(0.195249 0.203726 6.80387e-19)
(0.450968 0.450296 -4.62958e-19)
(0.628514 0.581864 1.1267e-18)
(0.750269 0.637905 -1.9296e-19)
(0.83339 0.646759 9.66681e-19)
(0.891058 0.628052 6.06488e-19)
(0.932311 0.594737 -1.42484e-18)
(0.963571 0.55388 2.16332e-18)
(0.989457 0.507899 -4.57175e-19)
(1.00632 0.461006 8.99609e-19)
(0.17205 0.205874 -3.75322e-19)
(0.399205 0.448255 -2.67589e-19)
(0.562391 0.57153 2.58798e-19)
(0.677929 0.619482 -6.40963e-19)
(0.759662 0.622009 -2.00201e-18)
(0.8187 0.598991 -8.05145e-19)
(0.862693 0.563188 -7.25691e-19)
(0.897114 0.521741 3.51202e-19)
(0.925117 0.478159 2.92705e-18)
(0.942606 0.437392 -6.08862e-19)
(0.146894 0.201721 1.97526e-19)
(0.344728 0.433649 -7.99392e-19)
(0.494241 0.546774 1.75823e-19)
(0.604666 0.587133 -1.2804e-18)
(0.686058 0.585016 2.80332e-18)
(0.747293 0.559929 -3.24909e-19)
(0.794584 0.52408 1.52756e-18)
(0.832424 0.484256 -2.18822e-18)
(0.863342 0.443962 6.86501e-19)
(0.884648 0.407477 1.06202e-19)
(0.121118 0.191156 1.45612e-19)
(0.290163 0.40655 8.81683e-19)
(0.427119 0.507894 -2.58984e-18)
(0.533587 0.541229 1.26023e-18)
(0.615632 0.535983 -4.15704e-21)
(0.679888 0.510616 -4.25267e-19)
(0.731205 0.476429 5.35206e-19)
(0.773236 0.439624 -5.31908e-19)
(0.808165 0.403351 -1.82841e-18)
(0.834248 0.370865 -5.00983e-19)
(0.0960487 0.174334 4.76461e-19)
(0.238033 0.367474 5.34601e-19)
(0.363854 0.455615 2.20812e-18)
(0.467419 0.482513 -1.22839e-18)
(0.550831 0.4755 2.53203e-18)
(0.618566 0.451352 -5.45402e-19)
(0.674213 0.420139 -5.76506e-19)
(0.720699 0.387299 6.81275e-19)
(0.759932 0.355514 4.44188e-19)
(0.79087 0.327124 1.61052e-18)
(0.0729449 0.15167 -4.83545e-19)
(0.190664 0.317377 1.57838e-19)
(0.306988 0.391112 4.26867e-20)
(0.408535 0.412151 1.2523e-18)
(0.493703 0.404589 -3.12595e-18)
(0.56499 0.382953 5.31034e-19)
(0.624864 0.35582 1.17258e-18)
(0.675617 0.327751 -1.41759e-18)
(0.718933 0.30091 4.99408e-19)
(0.754394 0.276898 -2.31778e-18)
(0.0529469 0.123826 1.03047e-19)
(0.150114 0.257626 5.55903e-19)
(0.258722 0.315974 2.16209e-19)
(0.358945 0.331692 2.93013e-19)
(0.445941 0.324635 5.61455e-19)
(0.520504 0.306609 1.67163e-18)
(0.584155 0.284488 -2.0467e-18)
(0.638655 0.261882 -1.15275e-18)
(0.685522 0.240441 1.91032e-19)
(0.724903 0.221195 1.50292e-18)
(0.0370318 0.0916908 -6.23134e-19)
(0.118111 0.189953 -7.41285e-20)
(0.220875 0.23216 -6.2096e-19)
(0.320288 0.243022 8.84343e-20)
(0.408909 0.237333 -5.31575e-19)
(0.486184 0.2238 -6.06889e-19)
(0.552891 0.207442 -9.04418e-19)
(0.610384 0.190868 2.43715e-18)
(0.660066 0.175233 4.20468e-19)
(0.702562 0.161149 -6.4093e-19)
(0.0259729 0.0563424 3.35838e-19)
(0.0960029 0.116392 4.439e-19)
(0.194847 0.141927 1.74888e-19)
(0.293812 0.148292 -9.43874e-19)
(0.38364 0.144613 -4.39415e-19)
(0.462844 0.136226 -9.4621e-20)
(0.531693 0.126185 1.84891e-19)
(0.591265 0.116066 1.48459e-19)
(0.642892 0.106552 -1.14799e-18)
(0.687548 0.0979586 6.58742e-19)
(0.0203063 0.0190052 -1.74891e-19)
(0.0847141 0.0392055 -1.98967e-19)
(0.181592 0.0477519 1.5858e-19)
(0.280362 0.0498476 1.40791e-19)
(0.370831 0.0485767 1.4429e-19)
(0.451036 0.045736 2.20668e-19)
(0.520987 0.0423507 -1.16022e-20)
(0.581621 0.0389483 -2.89457e-19)
(0.634242 0.0357542 2.74952e-19)
(0.680003 0.0328652 -4.13676e-19)
(0.0203063 -0.0190052 -1.76041e-19)
(0.0847141 -0.0392057 -1.89611e-19)
(0.181592 -0.0477522 1.7474e-19)
(0.280362 -0.0498478 3.42124e-19)
(0.370831 -0.0485769 2.27961e-19)
(0.451036 -0.0457362 -3.00368e-19)
(0.520987 -0.0423509 -1.63217e-19)
(0.581621 -0.0389484 7.11783e-20)
(0.634242 -0.0357542 1.60027e-19)
(0.680003 -0.0328652 -9.52935e-20)
(0.0259729 -0.0563425 4.20111e-19)
(0.096003 -0.116392 -5.33915e-19)
(0.194847 -0.141927 -4.4408e-20)
(0.293812 -0.148292 2.95825e-19)
(0.38364 -0.144614 -1.33748e-18)
(0.462844 -0.136227 5.71489e-19)
(0.531693 -0.126185 5.89939e-19)
(0.591265 -0.116066 -6.96449e-19)
(0.642892 -0.106552 6.65274e-19)
(0.687548 -0.0979586 -2.91995e-19)
(0.0370318 -0.0916909 -7.2634e-20)
(0.118111 -0.189953 -9.26653e-21)
(0.220875 -0.23216 -1.44214e-18)
(0.320288 -0.243022 -4.58771e-19)
(0.408909 -0.237333 -4.83691e-20)
(0.486184 -0.2238 -7.5472e-19)
(0.552891 -0.207442 1.40624e-18)
(0.610384 -0.190868 -4.94198e-20)
(0.660066 -0.175233 8.02992e-19)
(0.702562 -0.161149 -7.06055e-19)
(0.0529469 -0.123826 1.2267e-19)
(0.150114 -0.257626 -5.67928e-19)
(0.258722 -0.315974 1.74752e-18)
(0.358945 -0.331692 2.47292e-19)
(0.445941 -0.324635 1.21573e-18)
(0.520504 -0.306609 -1.18854e-18)
(0.584155 -0.284488 1.24774e-18)
(0.638655 -0.261882 -8.9958e-19)
(0.685522 -0.240441 -3.95052e-19)
(0.724903 -0.221195 3.35601e-19)
(0.0729449 -0.15167 1.09537e-18)
(0.190664 -0.317377 2.80502e-21)
(0.306988 -0.391112 -1.84172e-18)
(0.408535 -0.412151 -5.34338e-19)
(0.493703 -0.404589 1.77422e-18)
(0.56499 -0.382954 -1.0398e-18)
(0.624864 -0.355821 -1.20375e-18)
(0.675617 -0.327751 1.08307e-18)
(0.718933 -0.300911 -7.37351e-19)
(0.754394 -0.276898 -1.58968e-19)
(0.0960487 -0.174334 -1.63512e-19)
(0.238033 -0.367474 -7.75502e-21)
(0.363855 -0.455616 1.9987e-18)
(0.467419 -0.482513 1.14603e-18)
(0.550831 -0.4755 -1.35145e-18)
(0.618566 -0.451352 1.63632e-18)
(0.674214 -0.420139 -1.77558e-18)
(0.720699 -0.387299 1.76695e-19)
(0.759932 -0.355514 5.28857e-19)
(0.79087 -0.327124 1.22371e-18)
(0.121118 -0.191156 1.8743e-19)
(0.290163 -0.40655 3.01829e-19)
(0.427119 -0.507895 3.28318e-19)
(0.533588 -0.541229 -1.05554e-18)
(0.615632 -0.535983 -1.88021e-18)
(0.679888 -0.510616 3.95946e-19)
(0.731205 -0.47643 1.1458e-18)
(0.773236 -0.439624 -3.2798e-19)
(0.808165 -0.403351 1.9746e-18)
(0.834248 -0.370865 -1.92469e-18)
(0.146894 -0.201721 -1.06101e-18)
(0.344728 -0.433649 4.07697e-19)
(0.494241 -0.546775 -1.10087e-18)
(0.604666 -0.587134 1.77971e-18)
(0.686058 -0.585017 8.89929e-19)
(0.747293 -0.559929 1.25648e-18)
(0.794584 -0.52408 -2.90773e-19)
(0.832424 -0.484257 1.14567e-18)
(0.863342 -0.443962 -2.42561e-18)
(0.884648 -0.407477 -6.32373e-19)
(0.17205 -0.205874 6.24653e-20)
(0.399205 -0.448255 -7.12791e-19)
(0.562391 -0.57153 -1.14131e-18)
(0.677929 -0.619482 -4.83573e-19)
(0.759662 -0.622009 -1.36649e-18)
(0.8187 -0.598991 -1.38986e-19)
(0.862693 -0.563188 1.1883e-19)
(0.897114 -0.521741 -5.33977e-19)
(0.925117 -0.478159 -5.96759e-19)
(0.942606 -0.437392 1.5738e-18)
(0.195249 -0.203726 3.35388e-19)
(0.450968 -0.450296 4.68362e-19)
(0.628514 -0.581864 8.39071e-19)
(0.750269 -0.637906 3.72169e-20)
(0.83339 -0.646759 5.59848e-19)
(0.891058 -0.628052 -7.66619e-19)
(0.932311 -0.594737 2.34058e-18)
(0.963571 -0.55388 -1.03341e-18)
(0.989457 -0.507899 -5.07531e-19)
(1.00632 -0.461006 -1.53042e-18)
(0.215231 -0.195654 -1.32099e-19)
(0.49743 -0.440131 2.33344e-19)
(0.689468 -0.577805 -2.39125e-19)
(0.818264 -0.64211 1.28925e-19)
(0.903422 -0.658818 -1.52354e-19)
(0.959696 -0.646834 -3.90748e-19)
(0.997279 -0.619363 5.14007e-19)
(1.02317 -0.584702 -1.68143e-19)
(1.04271 -0.548005 2.60835e-19)
(1.05903 -0.515027 -5.6918e-19)
(0.230936 -0.182311 -7.37189e-21)
(0.536326 -0.418562 -1.06512e-19)
(0.742533 -0.559669 2.12448e-20)
(0.87924 -0.631621 1.44526e-19)
(0.967554 -0.656554 -6.53487e-20)
(1.02334 -0.651785 1.755e-20)
(1.05788 -0.629967 -1.71842e-20)
(1.07891 -0.599657 -3.83288e-19)
(1.09214 -0.566623 -1.77936e-19)
(1.10255 -0.534701 -5.59885e-19)
(0.241593 -0.164636 -9.61458e-20)
(0.565833 -0.386975 3.39298e-19)
(0.785449 -0.528509 -2.10811e-19)
(0.931027 -0.60695 -7.60239e-20)
(1.02419 -0.640034 3.40106e-20)
(1.08145 -0.642882 7.14441e-20)
(1.11501 -0.627183 -7.00271e-21)
(1.1335 -0.601457 2.92338e-19)
(1.14303 -0.571983 -2.52631e-19)
(1.1492 -0.541878 -3.57512e-21)
(0.246759 -0.143785 -2.36726e-19)
(0.584618 -0.347278 -1.48261e-19)
(0.816341 -0.486098 -3.68147e-19)
(0.971583 -0.569494 4.18783e-19)
(1.07145 -0.610386 -3.07057e-20)
(1.13248 -0.621291 1.36144e-19)
(1.16741 -0.612602 1.53672e-19)
(1.18559 -0.592495 -5.58972e-20)
(1.19356 -0.567431 5.04084e-20)
(1.19711 -0.540021 -1.59689e-19)
(0.246312 -0.121013 -1.61027e-19)
(0.591874 -0.301725 -2.06845e-19)
(0.833756 -0.434708 3.11682e-19)
(0.999032 -0.521159 -4.68306e-19)
(1.10725 -0.569097 8.22656e-20)
(1.17428 -0.588156 4.15817e-20)
(1.21287 -0.587119 9.19907e-20)
(1.23273 -0.573484 -6.04725e-20)
(1.24078 -0.553597 -7.24297e-20)
(1.24291 -0.529719 -2.36047e-19)
(0.240436 -0.0975686 6.7134e-19)
(0.587357 -0.252731 -5.25401e-19)
(0.836775 -0.376931 2.45466e-20)
(1.01185 -0.464234 -6.7325e-19)
(1.12967 -0.51799 -1.95447e-19)
(1.20469 -0.544843 1.56362e-19)
(1.24914 -0.551725 1.1456e-19)
(1.27272 -0.545171 -3.82121e-19)
(1.28252 -0.531183 1.67735e-19)
(1.28453 -0.511754 -3.02502e-19)
(0.229587 -0.0746123 3.33166e-19)
(0.571394 -0.202718 -3.29735e-19)
(0.825094 -0.315541 1.18324e-18)
(1.00902 -0.401307 9.43551e-20)
(1.13708 -0.459223 2.68341e-19)
(1.22173 -0.493027 9.57244e-19)
(1.27409 -0.507671 -1.98975e-19)
(1.30345 -0.508498 4.833e-20)
(1.31688 -0.500955 -2.84314e-20)
(1.32028 -0.486798 -4.95352e-20)
(0.214445 -0.0531506 2.56817e-19)
(0.544852 -0.15397 5.8356e-19)
(0.799066 -0.253335 -5.94814e-19)
(0.990136 -0.335148 -1.80676e-19)
(1.12837 -0.395217 -1.91285e-19)
(1.22372 -0.434653 3.76572e-19)
(1.28575 -0.456424 -1.77698e-19)
(1.32289 -0.464538 4.18977e-19)
(1.34192 -0.463702 1.00821e-19)
(1.34842 -0.455419 -1.77312e-19)
(0.195857 -0.0339918 -2.77415e-19)
(0.509071 -0.10851 2.57436e-19)
(0.759692 -0.192986 -5.28521e-19)
(0.95547 -0.268575 2.21279e-19)
(1.10299 -0.328579 -2.21777e-19)
(1.20944 -0.371907 -2.63715e-19)
(1.2824 -0.399693 -2.0462e-19)
(1.3291 -0.414556 2.25759e-19)
(1.35567 -0.420329 -3.92401e-19)
(1.36715 -0.41823 2.48414e-19)
(0.174776 -0.0177191 -1.0393e-19)
(0.465774 -0.0680016 -2.03946e-19)
(0.708581 -0.1369 9.59404e-20)
(0.906009 -0.204326 7.08321e-21)
(1.0611 -0.262007 7.63577e-20)
(1.17821 -0.307192 1.09404e-19)
(1.26274 -0.33945 9.3157e-20)
(1.32037 -0.360076 -1.2604e-19)
(1.35627 -0.37195 1.02746e-19)
(1.37465 -0.375985 -1.62303e-19)
(0.152192 -0.00468202 -6.54888e-20)
(0.416947 -0.0336823 -2.63964e-20)
(0.647856 -0.0871017 9.83548e-20)
(0.843434 -0.144924 -4.43719e-20)
(1.0036 -0.198185 1.24178e-19)
(1.13007 -0.243068 -1.56961e-19)
(1.22601 -0.277937 4.03239e-20)
(1.29535 -0.302933 3.46056e-20)
(1.34202 -0.319979 -1.23631e-20)
(1.36911 -0.329674 5.674e-20)
(0.129071 0.00499462 -7.85644e-20)
(0.364703 -0.00632835 -3.33078e-19)
(0.580017 -0.0451369 -2.68259e-20)
(0.770041 -0.0925426 1.07075e-20)
(0.932162 -0.139655 -4.62017e-19)
(1.06584 -0.182157 4.87886e-20)
(1.17214 -0.217627 -5.16906e-20)
(1.25319 -0.2453 -1.40595e-19)
(1.3115 -0.266203 3.11095e-19)
(1.34885 -0.280635 -5.6598e-19)
(0.106294 0.0113862 -4.45405e-20)
(0.311142 0.013743 7.144e-19)
(0.507782 -0.0120117 9.52848e-20)
(0.688611 -0.048889 -6.45346e-19)
(0.849162 -0.0886654 -7.72755e-20)
(0.987146 -0.127017 -7.27749e-19)
(1.10186 -0.161147 5.65874e-19)
(1.19375 -0.189673 -2.29674e-19)
(1.26384 -0.212845 4.35331e-19)
(1.3125 -0.230665 -3.8405e-19)
(0.0846116 0.0147326 -2.51908e-19)
(0.25823 0.0266435 2.93313e-19)
(0.433902 0.0118359 -2.0488e-19)
(0.602227 -0.0151002 1.41619e-18)
(0.757553 -0.0470184 7.4964e-19)
(0.896416 -0.0799684 -1.96299e-19)
(1.01678 -0.11113 7.63292e-19)
(1.11772 -0.138796 -4.99069e-19)
(1.19888 -0.162562 -1.60496e-19)
(1.25919 -0.182095 1.1596e-18)
(0.064619 0.0153978 -4.6569e-19)
(0.207684 0.0328636 6.95303e-19)
(0.360984 0.0265378 -1.31859e-18)
(0.514056 0.00833922 2.28245e-19)
(0.660657 -0.0159058 5.69084e-19)
(0.796705 -0.0428744 -7.15144e-19)
(0.919364 -0.0699927 -1.26661e-18)
(1.02674 -0.0954698 6.79009e-19)
(1.11735 -0.118341 -8.83067e-19)
(1.18885 -0.137791 1.41319e-18)
(0.0467457 0.0138318 -1.15121e-19)
(0.160912 0.0332172 -6.99844e-19)
(0.291341 0.0327808 3.45471e-19)
(0.427117 0.0216655 8.64205e-19)
(0.561887 0.00426281 -4.64209e-19)
(0.691444 -0.016879 -4.58107e-19)
(0.812667 -0.0396111 -7.76702e-19)
(0.923205 -0.0622282 -3.55903e-19)
(1.02086 -0.083227 -8.54733e-20)
(1.10226 -0.100989 1.41231e-18)
(0.0312706 0.010546 1.93294e-19)
(0.118978 0.0287942 -9.50708e-19)
(0.226871 0.031785 1.62614e-18)
(0.344066 0.0258923 -9.05495e-19)
(0.46445 0.0140407 5.86672e-19)
(0.584064 -0.00207461 -7.29997e-19)
(0.699972 -0.0208523 8.13041e-19)
(0.809934 -0.0407944 7.10077e-19)
(0.911582 -0.0598066 1.55143e-18)
(1.00091 -0.0748755 -2.56487e-18)
(0.0183523 0.00610211 -6.00613e-19)
(0.0826137 0.020919 1.20605e-18)
(0.169009 0.0252644 1.60955e-20)
(0.267057 0.0228321 -4.34404e-19)
(0.371091 0.015102 -2.30687e-19)
(0.477619 0.00286741 1.8438e-19)
(0.584244 -0.0129411 -1.309e-18)
(0.68941 -0.0312115 1.01134e-18)
(0.791338 -0.0492613 -1.30342e-18)
(0.886046 -0.0617464 -5.94955e-19)
(0.00806044 0.00110808 1.03354e-18)
(0.052261 0.0110935 -3.22415e-19)
(0.118758 0.0153301 -6.04808e-19)
(0.197751 0.0150197 1.64264e-18)
(0.284051 0.0102807 -1.61359e-18)
(0.374607 0.000973564 9.01531e-19)
(0.46761 -0.0128132 9.60173e-19)
(0.562493 -0.0307677 2.62745e-19)
(0.658908 -0.0501741 2.73271e-19)
(0.754564 -0.062337 -3.87651e-19)
(0.000388843 -0.00380843 -9.88447e-19)
(0.0281186 0.000874731 9.39507e-19)
(0.0768108 0.00427339 -8.3143e-19)
(0.137565 0.00546225 1.04315e-18)
(0.205556 0.00344357 -3.11655e-19)
(0.277824 -0.00270631 -1.08238e-18)
(0.352532 -0.0137239 3.10397e-19)
(0.429279 -0.0305508 -5.12128e-19)
(0.509042 -0.0524505 -6.06571e-19)
(0.594176 -0.0694505 -1.89233e-18)
(-0.00477038 -0.00808575 -1.23476e-18)
(0.0101474 -0.00838436 9.81657e-19)
(0.0436446 -0.00593752 -1.92337e-18)
(0.0879978 -0.00320852 3.43932e-19)
(0.138752 -0.00175599 -1.33249e-18)
(0.192808 -0.00254165 -7.99161e-19)
(0.247591 -0.00588779 1.91249e-18)
(0.301165 -0.0120132 -2.61465e-18)
(0.352888 -0.0215126 5.03266e-19)
(0.400036 -0.0302446 -8.28744e-19)
(-0.00768222 -0.0113476 6.08225e-19)
(-0.00204438 -0.015839 2.57349e-19)
(0.0192561 -0.0143224 -7.65463e-20)
(0.050066 -0.0102998 7.309e-19)
(0.0867041 -0.0056587 2.14624e-18)
(0.126597 -0.00135913 7.4076e-19)
(0.167737 0.00240847 7.6541e-19)
(0.208925 0.00569412 -2.6466e-19)
(0.250238 0.00784095 -2.46873e-18)
(0.289121 0.00926536 6.26095e-19)
(-0.00878378 -0.0134243 -1.71709e-19)
(-0.00932792 -0.0210861 5.46516e-19)
(0.0026466 -0.0205023 -1.43168e-19)
(0.0227366 -0.0158174 1.01088e-18)
(0.048175 -0.00920527 -2.33724e-18)
(0.0770164 -0.00182559 1.98386e-19)
(0.107833 0.00579506 -1.11235e-18)
(0.139846 0.0132499 1.6368e-18)
(0.172881 0.0195749 -4.78424e-19)
(0.204279 0.0240823 -6.83644e-20)
(-0.00858789 -0.0143042 -1.16893e-19)
(-0.0128318 -0.0240058 -6.57248e-19)
(-0.00771308 -0.0243089 1.65293e-18)
(0.00407997 -0.0196269 -8.71516e-19)
(0.0206608 -0.0123267 6.12525e-20)
(0.0406194 -0.00378426 2.79684e-19)
(0.0629165 0.00513293 -2.556e-19)
(0.0869322 0.0136333 3.32187e-19)
(0.112253 0.0206162 1.15108e-18)
(0.136678 0.025285 3.01213e-19)
(-0.00758385 -0.0140745 -2.62184e-19)
(-0.0136958 -0.0246652 -2.91623e-19)
(-0.0134291 -0.0257009 -1.29442e-18)
(-0.00792039 -0.0215116 6.89233e-19)
(0.00173629 -0.0144921 -1.42161e-18)
(0.0145798 -0.00611517 3.22961e-19)
(0.0298511 0.00259032 3.63147e-19)
(0.047011 0.0107152 -3.83773e-19)
(0.0655424 0.0172502 -2.48294e-19)
(0.0838029 0.0214721 -1.11589e-18)
(-0.00618715 -0.012875 2.04815e-19)
(-0.0129401 -0.0232576 -4.81768e-20)
(-0.0159824 -0.0247667 9.78466e-22)
(-0.0151343 -0.0213429 -6.22048e-19)
(-0.0108143 -0.0152251 1.57469e-18)
(-0.00361525 -0.00783513 -2.45613e-19)
(0.00591919 -0.000195768 -6.12937e-19)
(0.0173153 0.00683951 7.50208e-19)
(0.0300375 0.0124534 -2.63636e-19)
(0.0429262 0.0160483 1.45721e-18)
(-0.00472412 -0.0108682 -3.84427e-20)
(-0.0114035 -0.0200606 -2.25387e-19)
(-0.016618 -0.0217192 -8.8954e-20)
(-0.0191364 -0.0191493 -1.13643e-19)
(-0.0188321 -0.0142675 -2.44328e-19)
(-0.0160034 -0.00831135 -7.6728e-19)
(-0.0110223 -0.00217571 9.59773e-19)
(-0.0042957 0.0034304 5.60654e-19)
(0.0036641 0.00789721 -1.00435e-19)
(0.012065 0.0107656 -8.9382e-19)
(-0.00343582 -0.00822502 2.18304e-19)
(-0.00972828 -0.0154098 3.81485e-20)
(-0.0163018 -0.0168863 2.58221e-19)
(-0.021144 -0.0151403 -2.95547e-20)
(-0.0237179 -0.0116332 2.35129e-19)
(-0.0240984 -0.00731666 2.65281e-19)
(-0.0225238 -0.00287648 3.97709e-19)
(-0.0193383 0.00116451 -1.12664e-18)
(-0.0150196 0.00438953 -2.07943e-19)
(-0.0101019 0.006475 3.72677e-19)
(-0.00248976 -0.00512138 -1.10231e-19)
(-0.00837087 -0.00968558 -1.56673e-19)
(-0.0157256 -0.0106976 -7.53695e-20)
(-0.0220255 -0.00969739 3.68641e-19)
(-0.0264599 -0.0075981 1.78939e-19)
(-0.0289523 -0.00499654 3.66965e-20)
(-0.029648 -0.00232104 -7.95609e-20)
(-0.0288426 0.000110116 -6.17174e-20)
(-0.0269846 0.00205519 5.29757e-19)
(-0.0244463 0.00332173 -3.60804e-19)
(-0.00199128 -0.00173833 5.61947e-20)
(-0.00762178 -0.00330253 6.99221e-20)
(-0.0153305 -0.00366181 -5.96219e-20)
(-0.0223329 -0.00333751 -5.45335e-20)
(-0.0276811 -0.00263989 -5.6543e-20)
(-0.031222 -0.00177207 -9.02232e-20)
(-0.0330533 -0.000879444 2.89791e-21)
(-0.033444 -6.87106e-05 1.25184e-19)
(-0.0328263 0.000581003 -1.25694e-19)
(-0.031495 0.00100581 2.2869e-19)
(-0.00813107 -0.00258807 1.65357e-20)
(0.0621768 -0.00663069 9.88849e-21)
(0.277509 -0.00671052 1.3386e-21)
(0.377031 -0.00437994 -9.02786e-22)
(0.479656 -0.00367528 -6.3572e-23)
(0.553634 -0.00263739 1.48258e-22)
(0.606078 -0.00219096 1.66948e-22)
(0.660456 -0.00160087 -3.42645e-23)
(0.683665 -0.00147238 -2.46209e-24)
(0.733976 -0.00100605 2.43667e-22)
(0.00866964 -0.00806533 2.62227e-20)
(0.0774295 -0.0197212 1.25285e-21)
(0.289 -0.0199774 -1.74877e-20)
(0.385787 -0.0130565 1.40524e-20)
(0.486365 -0.0109623 8.88019e-22)
(0.558869 -0.00786365 -5.95863e-22)
(0.61035 -0.00652055 6.91161e-22)
(0.663815 -0.00473598 7.0601e-23)
(0.686596 -0.00437803 1.42368e-22)
(0.736198 -0.0030153 -2.23312e-22)
(0.0419761 -0.0144228 2.68593e-20)
(0.107461 -0.0323306 -3.61054e-20)
(0.311554 -0.0327854 1.78757e-20)
(0.402987 -0.0214324 -1.16417e-20)
(0.49955 -0.0180221 8.29305e-22)
(0.569173 -0.0129383 -6.46413e-22)
(0.618768 -0.010735 -2.57721e-22)
(0.670446 -0.00779128 1.27503e-24)
(0.692391 -0.00721781 -1.08922e-22)
(0.7406 -0.00498499 -3.26112e-22)
(0.0911865 -0.0221386 -4.16305e-20)
(0.15135 -0.0441599 -5.01146e-20)
(0.344342 -0.0448493 -2.31269e-20)
(0.428024 -0.029324 1.2134e-20)
(0.518758 -0.0247149 -1.45522e-20)
(0.584219 -0.0177681 3.85276e-21)
(0.631088 -0.0147629 -2.09675e-22)
(0.680177 -0.010717 1.22485e-22)
(0.700918 -0.00995014 -1.30659e-22)
(0.747102 -0.00688974 1.21e-22)
(0.155369 -0.0314856 1.15138e-19)
(0.207769 -0.0549213 7.22419e-20)
(0.386176 -0.0559057 2.59864e-20)
(0.460031 -0.0365692 -2.35804e-20)
(0.543343 -0.0309167 1.19451e-20)
(0.603543 -0.02227 3.16693e-21)
(0.64696 -0.0185398 2.21752e-21)
(0.692764 -0.013468 2.4201e-22)
(0.711985 -0.0125367 2.90502e-22)
(0.755584 -0.00870577 -6.42367e-22)
(0.233243 -0.0423911 -5.08302e-20)
(0.275043 -0.0642999 3.90031e-20)
(0.435575 -0.065701 4.81972e-21)
(0.497927 -0.0430245 2.62999e-20)
(0.572504 -0.0365206 -5.95154e-21)
(0.626565 -0.0263736 -3.69256e-21)
(0.665944 -0.0220105 -2.29071e-21)
(0.707895 -0.0160057 -1.50842e-22)
(0.725349 -0.0149437 -1.57239e-22)
(0.765894 -0.0104114 6.88942e-22)
(0.323179 -0.0545749 -3.86815e-20)
(0.351202 -0.0720312 -1.00788e-19)
(0.490842 -0.0740324 -1.70543e-20)
(0.540476 -0.0485741 -1.46458e-20)
(0.605324 -0.0414441 6.98001e-21)
(0.652619 -0.0300234 -1.94491e-21)
(0.687532 -0.025131 2.46261e-21)
(0.725208 -0.0182982 4.5324e-22)
(0.740723 -0.0171428 -4.7206e-23)
(0.777846 -0.0119871 2.65333e-22)