1.45 	0 	0 	-0.0081342 	-0.00258532 	1.65348e-20
2.35 	0 	0 	0.062141 	-0.00662457 	9.88781e-21
