/*--------------------------------*- C++ -*----------------------------------*\
  =========                 |
  \\      /  F ield         | OpenFOAM: The Open Source CFD Toolbox
   \\    /   O peration     | Website:  https://openfoam.org
    \\  /    A nd           | Version:  6.0
     \\/     M anipulation  |
\*---------------------------------------------------------------------------*/
FoamFile
{
    version     2.0;
    format      ascii;
    class       volScalarField;
    location    "10";
    object      p;
}
// * * * * * * * * * * * * * * * * * * * * * * * * * * * * * * * * * * * * * //

dimensions      [0 2 -2 0 0 0 0];

internalField   nonuniform List<scalar> 
8000
(
-0.335196
-0.33947
-0.341961
-0.343413
-0.344267
-0.3446
-0.344491
-0.344023
-0.343262
-0.342263
-0.341073
-0.339732
-0.338273
-0.336727
-0.33512
-0.333475
-0.331811
-0.330112
-0.328382
-0.326945
-0.335868
-0.340094
-0.342543
-0.343956
-0.344771
-0.345066
-0.34492
-0.344415
-0.343618
-0.342584
-0.341361
-0.339986
-0.338496
-0.336919
-0.335282
-0.333609
-0.331918
-0.330194
-0.328438
-0.326991
-0.337212
-0.341341
-0.343707
-0.345041
-0.345778
-0.345996
-0.345775
-0.345197
-0.344329
-0.343226
-0.341934
-0.340493
-0.338938
-0.337299
-0.335601
-0.333872
-0.332128
-0.330352
-0.328543
-0.327078
-0.339234
-0.343215
-0.345455
-0.34667
-0.347288
-0.34739
-0.347056
-0.346368
-0.345393
-0.344185
-0.34279
-0.341249
-0.339596
-0.337861
-0.336072
-0.334256
-0.33243
-0.330575
-0.328687
-0.327194
-0.341938
-0.345719
-0.347787
-0.348841
-0.349301
-0.349247
-0.348761
-0.347926
-0.346806
-0.345457
-0.343924
-0.342247
-0.340462
-0.338598
-0.336684
-0.334749
-0.332812
-0.330847
-0.328852
-0.327325
-0.345334
-0.348857
-0.350707
-0.351557
-0.351815
-0.351564
-0.350888
-0.349867
-0.348566
-0.347039
-0.345332
-0.343483
-0.341529
-0.339499
-0.337425
-0.335337
-0.333256
-0.331149
-0.329014
-0.327448
-0.34943
-0.352635
-0.354216
-0.354817
-0.354829
-0.35434
-0.353434
-0.352189
-0.35067
-0.348928
-0.347009
-0.344951
-0.342789
-0.340556
-0.338283
-0.336003
-0.33374
-0.331454
-0.329144
-0.327536
-0.354241
-0.357059
-0.358317
-0.35862
-0.358341
-0.357572
-0.356396
-0.354889
-0.353114
-0.35112
-0.348951
-0.346646
-0.344237
-0.341759
-0.339244
-0.33673
-0.334243
-0.331732
-0.329207
-0.327552
-0.35978
-0.362135
-0.363011
-0.362966
-0.36235
-0.361257
-0.35977
-0.357964
-0.355896
-0.353614
-0.351159
-0.348566
-0.345869
-0.343101
-0.340297
-0.3375
-0.334737
-0.33195
-0.32916
-0.32745
-0.36606
-0.367867
-0.368298
-0.367851
-0.36685
-0.365391
-0.363554
-0.361411
-0.359016
-0.356411
-0.353632
-0.350712
-0.347684
-0.344579
-0.341434
-0.338296
-0.335198
-0.332069
-0.328949
-0.327171
-0.373094
-0.374258
-0.374173
-0.37327
-0.371835
-0.369966
-0.367743
-0.365229
-0.362474
-0.359513
-0.356376
-0.353093
-0.34969
-0.346196
-0.342651
-0.339107
-0.3356
-0.332045
-0.32851
-0.32664
-0.380888
-0.381304
-0.380631
-0.379215
-0.377296
-0.374976
-0.37233
-0.369415
-0.366271
-0.362926
-0.359403
-0.355721
-0.351901
-0.347967
-0.343957
-0.339928
-0.335921
-0.331833
-0.327766
-0.325753
-0.389444
-0.388998
-0.387659
-0.38567
-0.383219
-0.380408
-0.377308
-0.373965
-0.37041
-0.36666
-0.362727
-0.358618
-0.354344
-0.349919
-0.345374
-0.34077
-0.336148
-0.331384
-0.32662
-0.324376
-0.39875
-0.397322
-0.395237
-0.392617
-0.389587
-0.386249
-0.382665
-0.378874
-0.374893
-0.370727
-0.366371
-0.361819
-0.357063
-0.352101
-0.346951
-0.341669
-0.336292
-0.330663
-0.32496
-0.322326
-0.408782
-0.406249
-0.403338
-0.400031
-0.396377
-0.392477
-0.388389
-0.384136
-0.379723
-0.37514
-0.370365
-0.36537
-0.360122
-0.354594
-0.348776
-0.342705
-0.336403
-0.32965
-0.322647
-0.319338
-0.419497
-0.415738
-0.411925
-0.407878
-0.403559
-0.39907
-0.39446
-0.38974
-0.384902
-0.379918
-0.374748
-0.369335
-0.363618
-0.357525
-0.351003
-0.344044
-0.336623
-0.328405
-0.319561
-0.315108
-0.430834
-0.425739
-0.420953
-0.416118
-0.411099
-0.405997
-0.400856
-0.395673
-0.390429
-0.38508
-0.379565
-0.373802
-0.367688
-0.361101
-0.353913
-0.34604
-0.337363
-0.327337
-0.315933
-0.309527
-0.442714
-0.436186
-0.430369
-0.424705
-0.418958
-0.413226
-0.407549
-0.401917
-0.396298
-0.39064
-0.384865
-0.378867
-0.372503
-0.365588
-0.357898
-0.34923
-0.339323
-0.327203
-0.311991
-0.301513
-0.45504
-0.447007
-0.440112
-0.433589
-0.42709
-0.420718
-0.414508
-0.408445
-0.402496
-0.396605
-0.39069
-0.384631
-0.378256
-0.371305
-0.363424
-0.354205
-0.34302
-0.327752
-0.305055
-0.284802
-0.467702
-0.458118
-0.450117
-0.442713
-0.435449
-0.428429
-0.421693
-0.415223
-0.408994
-0.402965
-0.397073
-0.391226
-0.385277
-0.378983
-0.371956
-0.36364
-0.352864
-0.3358
-0.305971
-0.275522
-0.480585
-0.469434
-0.460314
-0.452021
-0.443985
-0.436316
-0.429056
-0.422195
-0.415723
-0.40963
-0.403907
-0.398555
-0.393582
-0.389029
-0.385016
-0.381829
-0.379771
-0.379028
-0.383458
-0.408214
-0.493573
-0.480868
-0.470635
-0.461456
-0.452648
-0.444328
-0.436543
-0.429287
-0.422564
-0.416391
-0.410801
-0.405855
-0.401654
-0.398365
-0.396278
-0.395832
-0.397465
-0.402037
-0.414238
-0.441502
-0.506556
-0.492335
-0.481012
-0.470961
-0.461391
-0.452424
-0.444108
-0.436441
-0.429434
-0.42312
-0.417552
-0.412818
-0.409047
-0.406432
-0.405261
-0.405893
-0.408621
-0.414081
-0.425546
-0.445772
-0.519433
-0.503754
-0.49138
-0.480483
-0.470169
-0.460564
-0.451716
-0.443619
-0.436288
-0.429757
-0.424088
-0.419368
-0.415724
-0.413327
-0.412408
-0.413212
-0.415882
-0.420819
-0.430297
-0.444736
-0.532112
-0.515049
-0.501673
-0.489967
-0.478936
-0.468709
-0.459329
-0.450785
-0.443086
-0.436263
-0.430367
-0.425473
-0.421681
-0.419118
-0.417937
-0.418268
-0.420118
-0.423729
-0.430821
-0.440649
-0.544511
-0.526143
-0.511823
-0.499353
-0.48764
-0.476811
-0.466904
-0.457896
-0.449788
-0.442596
-0.436357
-0.43112
-0.426949
-0.42392
-0.422114
-0.421567
-0.422194
-0.424151
-0.428827
-0.434796
-0.556547
-0.536958
-0.521759
-0.508575
-0.496218
-0.484811
-0.474382
-0.464896
-0.456336
-0.448704
-0.442014
-0.436287
-0.431551
-0.427834
-0.425159
-0.423495
-0.42271
-0.42292
-0.425286
-0.427968
-0.568137
-0.547409
-0.531398
-0.517554
-0.504595
-0.492635
-0.48169
-0.471708
-0.462655
-0.454515
-0.447277
-0.440937
-0.435487
-0.430919
-0.427212
-0.424297
-0.422019
-0.420484
-0.420675
-0.420517
-0.57919
-0.557404
-0.540648
-0.526199
-0.512679
-0.50019
-0.488733
-0.478237
-0.468652
-0.459939
-0.452068
-0.445009
-0.43873
-0.433195
-0.428354
-0.424118
-0.420333
-0.417105
-0.415257
-0.412631
-0.589599
-0.566837
-0.549405
-0.534406
-0.520365
-0.507369
-0.495401
-0.484373
-0.474213
-0.464869
-0.45629
-0.448428
-0.441233
-0.43465
-0.428618
-0.423039
-0.417772
-0.412926
-0.409183
-0.404412
-0.599246
-0.575589
-0.55755
-0.542055
-0.527532
-0.514047
-0.501568
-0.489986
-0.479214
-0.469184
-0.459833
-0.451102
-0.442928
-0.43525
-0.428001
-0.421087
-0.414391
-0.40802
-0.402529
-0.395906
-0.607993
-0.583527
-0.564949
-0.549012
-0.534043
-0.520087
-0.507094
-0.494936
-0.483515
-0.472754
-0.46258
-0.452927
-0.443733
-0.434936
-0.426471
-0.418257
-0.4102
-0.402408
-0.395319
-0.387111
-0.615687
-0.590502
-0.571458
-0.555131
-0.539751
-0.525339
-0.511826
-0.499073
-0.486971
-0.475438
-0.4644
-0.453793
-0.443556
-0.433635
-0.423976
-0.414514
-0.405179
-0.396075
-0.38754
-0.377991
-0.622161
-0.596354
-0.576919
-0.560256
-0.544497
-0.529642
-0.515606
-0.502238
-0.489428
-0.477092
-0.465161
-0.453579
-0.442294
-0.431264
-0.420449
-0.409803
-0.399282
-0.388981
-0.37915
-0.368485
-0.627232
-0.600914
-0.581166
-0.564219
-0.548115
-0.532829
-0.518266
-0.504268
-0.490727
-0.477566
-0.464727
-0.452163
-0.439841
-0.427731
-0.415812
-0.404058
-0.392448
-0.381067
-0.370088
-0.358511
-0.630713
-0.604003
-0.584024
-0.566848
-0.550431
-0.534729
-0.519636
-0.504997
-0.490711
-0.476712
-0.462959
-0.449422
-0.436086
-0.42294
-0.409981
-0.397203
-0.384607
-0.372263
-0.360279
-0.347974
-0.632408
-0.605436
-0.585315
-0.567964
-0.551268
-0.535165
-0.519545
-0.504259
-0.48922
-0.474382
-0.459722
-0.445233
-0.43092
-0.416793
-0.402868
-0.389157
-0.375681
-0.362491
-0.349641
-0.336776
-0.632121
-0.605029
-0.584856
-0.56739
-0.55045
-0.533963
-0.517821
-0.50189
-0.486101
-0.470432
-0.454886
-0.439479
-0.424239
-0.409198
-0.394387
-0.379841
-0.365592
-0.351673
-0.33809
-0.324817
-0.629657
-0.602597
-0.582469
-0.564946
-0.547801
-0.530951
-0.5143
-0.497732
-0.481206
-0.464727
-0.448326
-0.432048
-0.415944
-0.400064
-0.38446
-0.369179
-0.354267
-0.339734
-0.325544
-0.312001
-0.624828
-0.597961
-0.577978
-0.56046
-0.543151
-0.525964
-0.508822
-0.491635
-0.474395
-0.457139
-0.43993
-0.42284
-0.405944
-0.389312
-0.37301
-0.357101
-0.341637
-0.326603
-0.311929
-0.298241
-0.617459
-0.590951
-0.571216
-0.553768
-0.536338
-0.518847
-0.501239
-0.483462
-0.465542
-0.447555
-0.429596
-0.411766
-0.394162
-0.376873
-0.359977
-0.343548
-0.327645
-0.312221
-0.29718
-0.283459
-0.607378
-0.581404
-0.562021
-0.54471
-0.527209
-0.509451
-0.491413
-0.473085
-0.454533
-0.435875
-0.417237
-0.39875
-0.380532
-0.362689
-0.345308
-0.328472
-0.312241
-0.29654
-0.281243
-0.267593
-0.594437
-0.569174
-0.550252
-0.533147
-0.515627
-0.497648
-0.479227
-0.460397
-0.441275
-0.422016
-0.402784
-0.383735
-0.365008
-0.34672
-0.328968
-0.31184
-0.295394
-0.279525
-0.264077
-0.250592
-0.578508
-0.554135
-0.535783
-0.518954
-0.501475
-0.483329
-0.464578
-0.44531
-0.425691
-0.405917
-0.386187
-0.366681
-0.347557
-0.328941
-0.310936
-0.293632
-0.277084
-0.261154
-0.245659
-0.232424
-0.559485
-0.53618
-0.518505
-0.502028
-0.484653
-0.466401
-0.447387
-0.427757
-0.407727
-0.387536
-0.367416
-0.347569
-0.328167
-0.309345
-0.291208
-0.273845
-0.257308
-0.241423
-0.225978
-0.21307
-0.537287
-0.515226
-0.498336
-0.482287
-0.465085
-0.446797
-0.427598
-0.407693
-0.387352
-0.366854
-0.346462
-0.326398
-0.306845
-0.287944
-0.269798
-0.252495
-0.23608
-0.220343
-0.205041
-0.192527
-0.511861
-0.491216
-0.475217
-0.459673
-0.442721
-0.424477
-0.405181
-0.385102
-0.36456
-0.343877
-0.32334
-0.30319
-0.28362
-0.26477
-0.24674
-0.229614
-0.21343
-0.197944
-0.182872
-0.170811
-0.483182
-0.46412
-0.449116
-0.434159
-0.417537
-0.399426
-0.380132
-0.359989
-0.33937
-0.318632
-0.298087
-0.277991
-0.25854
-0.239873
-0.222085
-0.205254
-0.189409
-0.174271
-0.159512
-0.147953
-0.45126
-0.433939
-0.420031
-0.405744
-0.38954
-0.371659
-0.352476
-0.332392
-0.311827
-0.291174
-0.270766
-0.250866
-0.231674
-0.213324
-0.195904
-0.179484
-0.164084
-0.149391
-0.135023
-0.124005
-0.416134
-0.400705
-0.387991
-0.374458
-0.358764
-0.341218
-0.322266
-0.302371
-0.282003
-0.261582
-0.241459
-0.221904
-0.203113
-0.185216
-0.168289
-0.152395
-0.137545
-0.123389
-0.109485
-0.0990357
-0.37788
-0.364484
-0.353058
-0.340363
-0.325277
-0.308177
-0.289582
-0.270017
-0.249993
-0.229957
-0.210273
-0.191212
-0.172968
-0.155659
-0.139352
-0.124098
-0.1099
-0.0963737
-0.0830049
-0.0731404
-0.336605
-0.325372
-0.315324
-0.303554
-0.289175
-0.27264
-0.254534
-0.235443
-0.215916
-0.196423
-0.177333
-0.158919
-0.141367
-0.124784
-0.109222
-0.0947241
-0.0812812
-0.0684784
-0.0557133
-0.0464401
-0.292453
-0.283501
-0.274915
-0.264156
-0.250588
-0.234738
-0.217258
-0.19879
-0.179915
-0.161122
-0.142783
-0.125169
-0.108454
-0.0927346
-0.0780481
-0.0644232
-0.0518436
-0.0398624
-0.0277743
-0.0190903
-0.2456
-0.239034
-0.231989
-0.222325
-0.209672
-0.19463
-0.177915
-0.160218
-0.142151
-0.124214
-0.106783
-0.0901189
-0.0743874
-0.0596703
-0.0459909
-0.0333638
-0.0217643
-0.0107154
0.000609041
0.00871055
-0.196257
-0.19217
-0.186737
-0.178248
-0.166613
-0.152501
-0.136688
-0.119909
-0.102802
-0.0858738
-0.0694992
-0.0539327
-0.0393281
-0.0257545
-0.0132204
-0.00172682
0.00875794
0.018737
0.0291796
0.0367
-0.144667
-0.143135
-0.139378
-0.132143
-0.121625
-0.108562
-0.0937825
-0.0780623
-0.0620581
-0.0462821
-0.0311053
-0.016775
-0.00343512
0.0088555
0.0200999
0.0303084
0.0395153
0.0482409
0.0576215
0.0645299
-0.0911051
-0.0921893
-0.0901626
-0.084253
-0.0749475
-0.063046
-0.0494246
-0.0348932
-0.0201228
-0.00562751
0.00822589
0.021197
0.0331482
0.0440261
0.0538384
0.0626009
0.0703432
0.0775793
0.0856112
0.0917726
-0.0358744
-0.0396181
-0.0393669
-0.0348474
-0.0268418
-0.0162064
-0.00385724
0.00936863
0.022791
0.0358967
0.0483238
0.0598368
0.0702998
0.0796553
0.0879037
0.0950565
0.101128
0.10655
0.112656
0.117593
0.0206952
0.0142668
0.0127085
0.0157808
0.0224073
0.0316825
0.0426585
0.0544785
0.0664591
0.0780918
0.0890209
0.0990136
0.107929
0.11569
0.122264
0.127632
0.131735
0.134658
0.137286
0.139494
0.0782488
0.0691305
0.0657403
0.0673175
0.0724956
0.0803278
0.0898435
0.100175
0.110642
0.120748
0.130149
0.13862
0.146017
0.152243
0.157224
0.160895
0.163031
0.162858
0.160012
0.157636
0.13641
0.124617
0.119385
0.11943
0.123101
0.129419
0.1374
0.146174
0.155074
0.163622
0.171496
0.178496
0.184506
0.189457
0.193331
0.196199
0.19796
0.197304
0.193295
0.198799
0.194809
0.18037
0.173296
0.171779
0.173892
0.178635
0.185017
0.192174
0.199457
0.206414
0.212748
0.21829
0.222956
0.226718
0.229621
0.231822
0.233348
0.233301
0.231709
0.239532
0.253046
0.236011
0.227107
0.224008
0.224526
0.227643
0.232372
0.237861
0.243482
0.248808
0.253572
0.257628
0.260916
0.263434
0.26525
0.266524
0.267291
0.266835
0.265417
0.272298
0.310724
0.291157
0.280448
0.275761
0.274656
0.276109
0.279144
0.282922
0.286841
0.290503
0.293663
0.296197
0.298062
0.299272
0.2999
0.3001
0.299891
0.298643
0.296632
0.301896
0.367444
0.345428
0.332949
0.326678
0.323937
0.323703
0.325014
0.327053
0.329244
0.331214
0.332744
0.333724
0.334125
0.333969
0.333329
0.332342
0.331017
0.328788
0.32595
0.329574
0.422817
0.398446
0.384244
0.376405
0.37203
0.370099
0.369675
0.369962
0.370412
0.37068
0.370564
0.369974
0.368887
0.36733
0.365373
0.363137
0.36062
0.35732
0.353556
0.355562
0.47646
0.449842
0.433975
0.424597
0.418601
0.414984
0.412829
0.411369
0.410085
0.408656
0.406901
0.404743
0.402168
0.399202
0.395914
0.392411
0.388683
0.384293
0.379575
0.379991
0.528003
0.499254
0.48179
0.470915
0.463332
0.458053
0.454192
0.451011
0.448018
0.444918
0.44155
0.437848
0.433805
0.429451
0.424848
0.420092
0.415172
0.409711
0.404048
0.402919
0.57709
0.546337
0.527355
0.515037
0.505913
0.499017
0.493494
0.488636
0.48398
0.479256
0.474321
0.46912
0.463653
0.45795
0.452072
0.446103
0.440033
0.433543
0.426963
0.424349
0.623381
0.590761
0.570347
0.556654
0.546053
0.537603
0.530481
0.524009
0.517756
0.511473
0.505037
0.498401
0.491572
0.484581
0.477485
0.470361
0.463199
0.455737
0.448282
0.444256
0.666557
0.632212
0.610465
0.595477
0.583477
0.573552
0.564912
0.556911
0.549144
0.541388
0.533532
0.525543
0.51743
0.509226
0.500987
0.492779
0.484597
0.476228
0.467951
0.462597
0.70632
0.6704
0.647425
0.631234
0.617929
0.606625
0.596567
0.587137
0.577959
0.568829
0.559653
0.550406
0.541101
0.531775
0.522476
0.513267
0.504147
0.494946
0.485906
0.47932
0.742394
0.705056
0.680967
0.663676
0.649173
0.636603
0.625242
0.6145
0.604027
0.59364
0.583257
0.57286
0.562469
0.552118
0.541857
0.531739
0.521767
0.511814
0.502081
0.494369
0.774528
0.735936
0.710854
0.692576
0.676997
0.663286
0.650752
0.63883
0.627194
0.615677
0.604212
0.592786
0.581423
0.570158
0.559038
0.548109
0.537381
0.526761
0.516407
0.507687
0.8025
0.762822
0.736876
0.717734
0.701209
0.686497
0.672932
0.659975
0.647319
0.634814
0.622401
0.610077
0.597865
0.585803
0.573933
0.5623
0.550915
0.539715
0.528821
0.519219
0.826116
0.785523
0.758848
0.738973
0.721645
0.706081
0.691639
0.677802
0.66428
0.650937
0.637722
0.624636
0.611707
0.598971
0.586469
0.574241
0.562302
0.550615
0.539263
0.528913
0.845209
0.803881
0.776615
0.756145
0.738164
0.721907
0.706753
0.692201
0.677976
0.663952
0.650086
0.636384
0.622873
0.609592
0.596579
0.58387
0.571484
0.559405
0.547682
0.536725
0.859647
0.817764
0.790052
0.769131
0.750653
0.73387
0.718175
0.70308
0.688322
0.673781
0.659423
0.645253
0.631303
0.617609
0.60421
0.591138
0.578415
0.566039
0.554036
0.542617
0.869329
0.827075
0.799063
0.777838
0.759027
0.74189
0.725831
0.710371
0.695254
0.680368
0.665678
0.651195
0.636949
0.622979
0.60932
0.596004
0.583055
0.570481
0.55829
0.546562
0.874187
0.831747
0.803585
0.782208
0.763229
0.745913
0.729672
0.714029
0.698731
0.683671
0.668814
0.654174
0.63978
0.625671
0.611882
0.598444
0.585382
0.572708
0.560423
0.548539
0.874187
0.831747
0.803585
0.782208
0.763229
0.745913
0.729672
0.714029
0.698731
0.683671
0.668815
0.654174
0.63978
0.625671
0.611882
0.598445
0.585382
0.572709
0.560423
0.548539
0.869329
0.827075
0.799063
0.777839
0.759028
0.74189
0.725831
0.710372
0.695255
0.680368
0.665678
0.651195
0.636949
0.622979
0.60932
0.596005
0.583056
0.570481
0.55829
0.546562
0.859647
0.817765
0.790052
0.769131
0.750653
0.73387
0.718175
0.703081
0.688322
0.673782
0.659423
0.645254
0.631303
0.61761
0.60421
0.591138
0.578415
0.566039
0.554036
0.542618
0.845209
0.803881
0.776615
0.756146
0.738164
0.721907
0.706753
0.692201
0.677976
0.663952
0.650087
0.636384
0.622874
0.609593
0.596579
0.583871
0.571485
0.559406
0.547683
0.536725
0.826116
0.785524
0.758848
0.738973
0.721645
0.706081
0.69164
0.677803
0.664281
0.650937
0.637722
0.624637
0.611707
0.598972
0.58647
0.574242
0.562303
0.550616
0.539264
0.528914
0.802501
0.762822
0.736876
0.717734
0.70121
0.686498
0.672933
0.659976
0.64732
0.634814
0.622402
0.610078
0.597866
0.585804
0.573934
0.562301
0.550916
0.539716
0.528822
0.51922
0.774529
0.735936
0.710855
0.692577
0.676998
0.663287
0.650753
0.638831
0.627195
0.615678
0.604213
0.592787
0.581424
0.57016
0.559039
0.548111
0.537383
0.526762
0.516409
0.507689
0.742395
0.705057
0.680968
0.663676
0.649174
0.636604
0.625243
0.614502
0.604029
0.593641
0.583258
0.572861
0.56247
0.55212
0.541859
0.531741
0.521769
0.511816
0.502082
0.494371
0.706321
0.670401
0.647426
0.631235
0.61793
0.606626
0.596569
0.587139
0.57796
0.568831
0.559655
0.550407
0.541103
0.531776
0.522478
0.513269
0.504148
0.494947
0.485908
0.479322
0.666559
0.632213
0.610466
0.595478
0.583478
0.573553
0.564914
0.556912
0.549146
0.54139
0.533534
0.525545
0.517431
0.509228
0.500989
0.492781
0.484599
0.47623
0.467953
0.462598
0.623383
0.590762
0.570349
0.556656
0.546054
0.537604
0.530482
0.524011
0.517757
0.511475
0.505039
0.498403
0.491574
0.484583
0.477487
0.470363
0.463201
0.455739
0.448284
0.444258
0.577091
0.546339
0.527356
0.515039
0.505914
0.499019
0.493496
0.488637
0.483982
0.479258
0.474323
0.469122
0.463655
0.457953
0.452074
0.446105
0.440035
0.433545
0.426965
0.424351
0.528005
0.499256
0.481792
0.470917
0.463333
0.458055
0.454194
0.451013
0.44802
0.44492
0.441552
0.437851
0.433808
0.429453
0.42485
0.420095
0.415174
0.409713
0.404051
0.402921
0.476462
0.449844
0.433977
0.424599
0.418603
0.414986
0.412831
0.411372
0.410088
0.408658
0.406904
0.404746
0.40217
0.399205
0.395917
0.392414
0.388686
0.384296
0.379578
0.379993
0.422819
0.398448
0.384247
0.376408
0.372032
0.370102
0.369677
0.369964
0.370415
0.370682
0.370567
0.369977
0.36889
0.367333
0.365375
0.36314
0.360623
0.357323
0.353559
0.355564
0.367447
0.34543
0.332951
0.32668
0.32394
0.323705
0.325017
0.327056
0.329247
0.331217
0.332747
0.333727
0.334128
0.333972
0.333332
0.332345
0.33102
0.328791
0.325953
0.329577
0.310726
0.291159
0.28045
0.275764
0.274659
0.276112
0.279147
0.282925
0.286845
0.290506
0.293667
0.296201
0.298066
0.299276
0.299904
0.300103
0.299894
0.298647
0.296635
0.301899
0.253049
0.236014
0.22711
0.224012
0.224529
0.227646
0.232375
0.237864
0.243485
0.248811
0.253576
0.257632
0.260919
0.263438
0.265253
0.266528
0.267294
0.266839
0.26542
0.272301
0.194812
0.180373
0.1733
0.171782
0.173896
0.178638
0.185021
0.192178
0.199461
0.206417
0.212752
0.218294
0.222959
0.226722
0.229625
0.231826
0.233352
0.233305
0.231712
0.239536
0.136413
0.12462
0.119389
0.119433
0.123104
0.129422
0.137404
0.146178
0.155078
0.163626
0.1715
0.178501
0.18451
0.189461
0.193335
0.196203
0.197964
0.197307
0.193299
0.198803
0.0782525
0.0691344
0.0657442
0.0673215
0.0724997
0.0803319
0.0898477
0.100179
0.110646
0.120753
0.130153
0.138624
0.146021
0.152248
0.157228
0.160899
0.163035
0.162862
0.160016
0.15764
0.0206992
0.014271
0.0127128
0.0157851
0.0224118
0.031687
0.042663
0.0544831
0.0664637
0.0780964
0.0890255
0.0990183
0.107933
0.115695
0.122269
0.127636
0.13174
0.134662
0.13729
0.139498
-0.03587
-0.0396136
-0.0393622
-0.0348427
-0.026837
-0.0162016
-0.00385237
0.00937353
0.0227959
0.0359016
0.0483288
0.0598417
0.0703046
0.0796601
0.0879084
0.0950613
0.101133
0.106555
0.11266
0.117598
-0.0911004
-0.0921845
-0.0901576
-0.0842479
-0.0749423
-0.0630408
-0.0494194
-0.034888
-0.0201175
-0.00562226
0.00823112
0.0212022
0.0331534
0.0440312
0.0538435
0.0626059
0.0703481
0.0775841
0.085616
0.0917773
-0.144662
-0.14313
-0.139373
-0.132138
-0.12162
-0.108557
-0.0937769
-0.0780567
-0.0620525
-0.0462765
-0.0310998
-0.0167695
-0.0034297
0.00886086
0.0201052
0.0303136
0.0395205
0.048246
0.0576265
0.064535
-0.196251
-0.192164
-0.186731
-0.178243
-0.166607
-0.152495
-0.136682
-0.119903
-0.102796
-0.0858679
-0.0694933
-0.0539269
-0.0393224
-0.0257488
-0.0132149
-0.00172131
0.00876339
0.0187424
0.0291849
0.0367053
-0.245594
-0.239028
-0.231983
-0.222318
-0.209666
-0.194623
-0.177908
-0.160211
-0.142145
-0.124208
-0.106777
-0.0901128
-0.0743814
-0.0596644
-0.0459851
-0.033358
-0.0217586
-0.0107098
0.000614591
0.00871604
-0.292447
-0.283494
-0.274908
-0.264149
-0.250581
-0.234731
-0.217252
-0.198783
-0.179909
-0.161115
-0.142777
-0.125163
-0.108448
-0.0927284
-0.078042
-0.0644172
-0.0518377
-0.0398565
-0.0277685
-0.0190846
-0.336599
-0.325365
-0.315317
-0.303547
-0.289168
-0.272633
-0.254527
-0.235436
-0.215909
-0.196416
-0.177326
-0.158913
-0.14136
-0.124777
-0.109216
-0.0947178
-0.0812749
-0.0684722
-0.0557072
-0.0464342
-0.377873
-0.364476
-0.35305
-0.340356
-0.325269
-0.30817
-0.289574
-0.270009
-0.249985
-0.22995
-0.210265
-0.191205
-0.172961
-0.155652
-0.139345
-0.124092
-0.109893
-0.0963673
-0.0829986
-0.0731342
-0.416127
-0.400697
-0.387983
-0.37445
-0.358756
-0.34121
-0.322258
-0.302363
-0.281995
-0.261575
-0.241451
-0.221896
-0.203106
-0.185209
-0.168282
-0.152389
-0.137538
-0.123382
-0.109479
-0.0990292
-0.451252
-0.433931
-0.420022
-0.405735
-0.389531
-0.37165
-0.352468
-0.332384
-0.311819
-0.291166
-0.270758
-0.250859
-0.231666
-0.213317
-0.195897
-0.179477
-0.164077
-0.149384
-0.135016
-0.123998
-0.483174
-0.464111
-0.449107
-0.43415
-0.417528
-0.399418
-0.380123
-0.359981
-0.339361
-0.318623
-0.298079
-0.277983
-0.258532
-0.239865
-0.222077
-0.205246
-0.189402
-0.174264
-0.159505
-0.147946
-0.511851
-0.491207
-0.475208
-0.459664
-0.442712
-0.424468
-0.405172
-0.385092
-0.364551
-0.343868
-0.323331
-0.303182
-0.283612
-0.264762
-0.246732
-0.229607
-0.213423
-0.197936
-0.182864
-0.170803
-0.537278
-0.515217
-0.498327
-0.482277
-0.465076
-0.446788
-0.427588
-0.407684
-0.387342
-0.366845
-0.346453
-0.326389
-0.306837
-0.287936
-0.26979
-0.252487
-0.236072
-0.220336
-0.205033
-0.192519
-0.559475
-0.53617
-0.518495
-0.502018
-0.484643
-0.46639
-0.447377
-0.427747
-0.407717
-0.387527
-0.367406
-0.347559
-0.328158
-0.309336
-0.291199
-0.273837
-0.2573
-0.241415
-0.22597
-0.213062
-0.578498
-0.554124
-0.535772
-0.518944
-0.501465
-0.483318
-0.464567
-0.4453
-0.425681
-0.405907
-0.386177
-0.366672
-0.347547
-0.328932
-0.310927
-0.293623
-0.277075
-0.261145
-0.245651
-0.232416
-0.594426
-0.569163
-0.550241
-0.533136
-0.515616
-0.497637
-0.479216
-0.460386
-0.441265
-0.422006
-0.402774
-0.383725
-0.364998
-0.34671
-0.328959
-0.311831
-0.295385
-0.279516
-0.264069
-0.250584
-0.607366
-0.581392
-0.56201
-0.544698
-0.527197
-0.509439
-0.491402
-0.473074
-0.454523
-0.435864
-0.417227
-0.39874
-0.380522
-0.362679
-0.345299
-0.328463
-0.312232
-0.296531
-0.281234
-0.267584
-0.617448
-0.59094
-0.571204
-0.553756
-0.536326
-0.518835
-0.501227
-0.48345
-0.465531
-0.447544
-0.429585
-0.411755
-0.394151
-0.376862
-0.359967
-0.343538
-0.327635
-0.312212
-0.297171
-0.28345
-0.624816
-0.597949
-0.577966
-0.560448
-0.543139
-0.525952
-0.50881
-0.491623
-0.474383
-0.457127
-0.439919
-0.422829
-0.405933
-0.389301
-0.373
-0.357091
-0.341628
-0.326593
-0.31192
-0.298232
-0.629644
-0.602585
-0.582457
-0.564934
-0.547789
-0.530939
-0.514288
-0.49772
-0.481194
-0.464715
-0.448315
-0.432037
-0.415932
-0.400053
-0.384449
-0.369168
-0.354257
-0.339724
-0.325535
-0.311992
-0.632108
-0.605017
-0.584844
-0.567377
-0.550438
-0.53395
-0.517809
-0.501878
-0.486089
-0.47042
-0.454874
-0.439467
-0.424228
-0.409187
-0.394376
-0.37983
-0.365582
-0.351663
-0.33808
-0.324808
-0.632395
-0.605423
-0.585302
-0.567951
-0.551255
-0.535152
-0.519532
-0.504247
-0.489208
-0.47437
-0.45971
-0.445221
-0.430909
-0.416782
-0.402856
-0.389146
-0.37567
-0.362481
-0.349631
-0.336767
-0.6307
-0.60399
-0.584011
-0.566834
-0.550417
-0.534715
-0.519623
-0.504985
-0.490698
-0.4767
-0.462946
-0.44941
-0.436074
-0.422928
-0.409969
-0.397191
-0.384596
-0.372253
-0.360269
-0.347964
-0.627219
-0.600901
-0.581153
-0.564205
-0.548101
-0.532816
-0.518253
-0.504255
-0.490714
-0.477553
-0.464714
-0.452151
-0.439828
-0.427719
-0.4158
-0.404047
-0.392437
-0.381057
-0.370078
-0.358501
-0.622147
-0.596341
-0.576906
-0.560242
-0.544483
-0.529629
-0.515592
-0.502225
-0.489415
-0.477079
-0.465149
-0.453566
-0.442282
-0.431252
-0.420437
-0.409791
-0.39927
-0.38897
-0.379139
-0.368475
-0.615674
-0.590488
-0.571444
-0.555117
-0.539737
-0.525325
-0.511813
-0.499059
-0.486958
-0.475425
-0.464387
-0.45378
-0.443544
-0.433623
-0.423964
-0.414502
-0.405167
-0.396064
-0.387529
-0.377981
-0.607979
-0.583513
-0.564935
-0.548998
-0.534029
-0.520074
-0.50708
-0.494922
-0.483502
-0.47274
-0.462567
-0.452914
-0.443721
-0.434923
-0.426458
-0.418245
-0.410188
-0.402396
-0.395308
-0.3871
-0.599232
-0.575575
-0.557536
-0.542041
-0.527518
-0.514034
-0.501555
-0.489972
-0.4792
-0.469171
-0.45982
-0.451088
-0.442915
-0.435237
-0.427988
-0.421075
-0.414379
-0.408008
-0.402517
-0.395895
-0.589585
-0.566823
-0.549391
-0.534392
-0.520351
-0.507355
-0.495388
-0.484359
-0.4742
-0.464855
-0.456276
-0.448414
-0.44122
-0.434637
-0.428605
-0.423026
-0.41776
-0.412914
-0.409171
-0.404401
-0.579175
-0.55739
-0.540634
-0.526185
-0.512665
-0.500176
-0.488719
-0.478224
-0.468638
-0.459925
-0.452054
-0.444996
-0.438717
-0.433181
-0.428341
-0.424105
-0.42032
-0.417092
-0.415245
-0.412619
-0.568123
-0.547395
-0.531384
-0.51754
-0.504581
-0.492621
-0.481676
-0.471694
-0.462642
-0.454502
-0.447264
-0.440923
-0.435474
-0.430906
-0.427199
-0.424284
-0.422006
-0.420472
-0.420662
-0.420506
-0.556533
-0.536944
-0.521745
-0.508561
-0.496205
-0.484797
-0.474368
-0.464882
-0.456322
-0.448691
-0.442
-0.436274
-0.431538
-0.427821
-0.425146
-0.423482
-0.422697
-0.422907
-0.425274
-0.427957
-0.544497
-0.526129
-0.51181
-0.49934
-0.487627
-0.476797
-0.46689
-0.457883
-0.449774
-0.442583
-0.436343
-0.431106
-0.426936
-0.423907
-0.422101
-0.421554
-0.422182
-0.424138
-0.428814
-0.434784
-0.532098
-0.515035
-0.501659
-0.489953
-0.478923
-0.468695
-0.459315
-0.450771
-0.443073
-0.436249
-0.430354
-0.42546
-0.421668
-0.419105
-0.417923
-0.418254
-0.420105
-0.423716
-0.430809
-0.440637
-0.519419
-0.503741
-0.491366
-0.48047
-0.470156
-0.460551
-0.451702
-0.443606
-0.436274
-0.429744
-0.424074
-0.419354
-0.41571
-0.413314
-0.412394
-0.413199
-0.415869
-0.420806
-0.430284
-0.444724
-0.506542
-0.492321
-0.480999
-0.470948
-0.461377
-0.452411
-0.444095
-0.436428
-0.429421
-0.423107
-0.417539
-0.412804
-0.409033
-0.406419
-0.405247
-0.405879
-0.408608
-0.414067
-0.425533
-0.44576
-0.493559
-0.480855
-0.470622
-0.461443
-0.452635
-0.444315
-0.43653
-0.429274
-0.422551
-0.416378
-0.410788
-0.405842
-0.40164
-0.398351
-0.396265
-0.395818
-0.397452
-0.402023
-0.414225
-0.44149
-0.480571
-0.469421
-0.460301
-0.452009
-0.443972
-0.436303
-0.429043
-0.422182
-0.41571
-0.409617
-0.403894
-0.398541
-0.393569
-0.389015
-0.385002
-0.381816
-0.379758
-0.379014
-0.383444
-0.408201
-0.467689
-0.458105
-0.450104
-0.442701
-0.435436
-0.428417
-0.42168
-0.41521
-0.408981
-0.402952
-0.39706
-0.391213
-0.385264
-0.37897
-0.371942
-0.363626
-0.352851
-0.335787
-0.305957
-0.275509
-0.455027
-0.446994
-0.4401
-0.433577
-0.427078
-0.420705
-0.414496
-0.408433
-0.402484
-0.396593
-0.390678
-0.384619
-0.378243
-0.371292
-0.363411
-0.354192
-0.343007
-0.327738
-0.305042
-0.284789
-0.442701
-0.436174
-0.430357
-0.424693
-0.418946
-0.413214
-0.407538
-0.401905
-0.396286
-0.390628
-0.384853
-0.378854
-0.372491
-0.365575
-0.357885
-0.349217
-0.33931
-0.327189
-0.311977
-0.3015
-0.430822
-0.425727
-0.420941
-0.416106
-0.411088
-0.405986
-0.400844
-0.395662
-0.390417
-0.385068
-0.379553
-0.37379
-0.367676
-0.361088
-0.3539
-0.346027
-0.33735
-0.327324
-0.31592
-0.309514
-0.419485
-0.415727
-0.411913
-0.407866
-0.403548
-0.399059
-0.394449
-0.389729
-0.384891
-0.379907
-0.374736
-0.369324
-0.363606
-0.357513
-0.350991
-0.344032
-0.33661
-0.328392
-0.319548
-0.315095
-0.408771
-0.406238
-0.403327
-0.40002
-0.396366
-0.392467
-0.388378
-0.384125
-0.379713
-0.375129
-0.370354
-0.365358
-0.360111
-0.354582
-0.348764
-0.342693
-0.336391
-0.329638
-0.322635
-0.319326
-0.398739
-0.397312
-0.395227
-0.392607
-0.389577
-0.386239
-0.382655
-0.378864
-0.374883
-0.370716
-0.366361
-0.361808
-0.357052
-0.35209
-0.34694
-0.341657
-0.336281
-0.330651
-0.324948
-0.322314
-0.389434
-0.388989
-0.387649
-0.38566
-0.38321
-0.380399
-0.377298
-0.373955
-0.3704
-0.366651
-0.362717
-0.358608
-0.354334
-0.349909
-0.345364
-0.340759
-0.336137
-0.331373
-0.326609
-0.324365
-0.380879
-0.381295
-0.380622
-0.379206
-0.377287
-0.374967
-0.372321
-0.369406
-0.366262
-0.362917
-0.359394
-0.355711
-0.351891
-0.347957
-0.343947
-0.339918
-0.335911
-0.331822
-0.327755
-0.325743
-0.373085
-0.374249
-0.374165
-0.373262
-0.371827
-0.369958
-0.367735
-0.365221
-0.362465
-0.359504
-0.356368
-0.353084
-0.349681
-0.346187
-0.342642
-0.339098
-0.335591
-0.332035
-0.3285
-0.32663
-0.366052
-0.367859
-0.36829
-0.367843
-0.366842
-0.365383
-0.363547
-0.361404
-0.359008
-0.356403
-0.353624
-0.350704
-0.347676
-0.34457
-0.341425
-0.338287
-0.335189
-0.33206
-0.328939
-0.327162
-0.359773
-0.362128
-0.363004
-0.362959
-0.362343
-0.36125
-0.359764
-0.357957
-0.355889
-0.353607
-0.351151
-0.348558
-0.345861
-0.343093
-0.340289
-0.337492
-0.334729
-0.331942