1.45 	0 	0 	-0.294619
2.35 	0 	0 	-0.129582
