/*--------------------------------*- C++ -*----------------------------------*\
  =========                 |
  \\      /  F ield         | OpenFOAM: The Open Source CFD Toolbox
   \\    /   O peration     | Website:  https://openfoam.org
    \\  /    A nd           | Version:  6.0
     \\/     M anipulation  |
\*---------------------------------------------------------------------------*/
FoamFile
{
    version     2.0;
    format      ascii;
    class       volScalarField;
    location    "23";
    object      p;
}
// * * * * * * * * * * * * * * * * * * * * * * * * * * * * * * * * * * * * * //

dimensions      [0 2 -2 0 0 0 0];

internalField   nonuniform List<scalar> 
2000
(
-0.348957
-0.354863
-0.356549
-0.355878
-0.354015
-0.351334
-0.348115
-0.34465
-0.341226
-0.337523
-0.351677
-0.357162
-0.358508
-0.357535
-0.355384
-0.352429
-0.348947
-0.345221
-0.341543
-0.337721
-0.357135
-0.361761
-0.362416
-0.360833
-0.358101
-0.35459
-0.350573
-0.34631
-0.342104
-0.338037
-0.365373
-0.368659
-0.368251
-0.365742
-0.362128
-0.357772
-0.35293
-0.347824
-0.34277
-0.338314
-0.376449
-0.377852
-0.375983
-0.372222
-0.367423
-0.361924
-0.355951
-0.349646
-0.343343
-0.338294
-0.390429
-0.389327
-0.385572
-0.380232
-0.373955
-0.367025
-0.359603
-0.351693
-0.343615
-0.337649
-0.407345
-0.403041
-0.396958
-0.389731
-0.381716
-0.373113
-0.363979
-0.354084
-0.343582
-0.336119
-0.427141
-0.418895
-0.41005
-0.400659
-0.390693
-0.380234
-0.369195
-0.356948
-0.343001
-0.332553
-0.449605
-0.436716
-0.424731
-0.412974
-0.400926
-0.388478
-0.375234
-0.359668
-0.339579
-0.322263
-0.474303
-0.456239
-0.440903
-0.426825
-0.413036
-0.399335
-0.384968
-0.367298
-0.342255
-0.318274
-0.500548
-0.477039
-0.458296
-0.442122
-0.42739
-0.414474
-0.403714
-0.39575
-0.395879
-0.415401
-0.527516
-0.498537
-0.476293
-0.457758
-0.441418
-0.42773
-0.417171
-0.410799
-0.413745
-0.431004
-0.554483
-0.520277
-0.49462
-0.473615
-0.455246
-0.439879
-0.427879
-0.419965
-0.419246
-0.427051
-0.580802
-0.541785
-0.512965
-0.489518
-0.468877
-0.451228
-0.436729
-0.425634
-0.41942
-0.41807
-0.605722
-0.562395
-0.530704
-0.504823
-0.481606
-0.461034
-0.443067
-0.427582
-0.415
-0.405361
-0.628254
-0.581172
-0.546891
-0.518525
-0.492376
-0.468296
-0.44616
-0.42566
-0.406627
-0.389827
-0.647114
-0.596906
-0.560297
-0.529338
-0.4999
-0.471841
-0.445124
-0.419442
-0.394378
-0.371713
-0.660743
-0.608141
-0.569458
-0.53578
-0.50275
-0.470414
-0.43899
-0.408325
-0.377968
-0.350782
-0.667377
-0.613239
-0.572753
-0.536258
-0.499448
-0.462758
-0.426797
-0.391645
-0.356934
-0.326536
-0.665151
-0.610461
-0.568488
-0.52916
-0.488564
-0.447703
-0.407659
-0.368764
-0.330761
-0.298386
-0.652208
-0.598065
-0.554992
-0.512958
-0.468807
-0.424244
-0.380847
-0.339157
-0.299003
-0.265798
-0.626815
-0.574409
-0.530729
-0.486315
-0.439118
-0.391622
-0.345855
-0.302486
-0.26137
-0.228401
-0.587498
-0.538088
-0.494422
-0.44819
-0.398759
-0.349388
-0.302456
-0.258658
-0.217799
-0.186061
-0.53316
-0.48804
-0.445159
-0.397935
-0.347377
-0.297443
-0.250731
-0.207854
-0.168496
-0.138918
-0.463199
-0.423669
-0.382493
-0.335353
-0.285028
-0.23604
-0.191057
-0.150523
-0.113935
-0.0873988
-0.377612
-0.34494
-0.306516
-0.260734
-0.212171
-0.165738
-0.124034
-0.0872844
-0.0547529
-0.0321285
-0.277088
-0.252459
-0.217912
-0.174878
-0.129666
-0.087381
-0.0504342
-0.0188374
0.0083303
0.0260665
-0.163068
-0.147514
-0.117965
-0.0790745
-0.0387478
-0.00210931
0.0286855
0.0536999
0.0737727
0.0851563
-0.0377604
-0.0320762
-0.00852514
0.0250035
0.0591987
0.0890243
0.112466
0.129114
0.139051
0.141424
0.0958782
0.0912106
0.107994
0.135326
0.162851
0.185844
0.202334
0.210704
0.209671
0.202944
0.234272
0.219081
0.228488
0.248999
0.269751
0.286867
0.299074
0.304557
0.303512
0.317431
0.373526
0.34789
0.349346
0.362167
0.37519
0.385165
0.39122
0.392463
0.391387
0.404312
0.509697
0.473966
0.467159
0.471712
0.476366
0.478446
0.477384
0.472764
0.467072
0.472176
0.638937
0.593699
0.578634
0.574733
0.570835
0.564847
0.556512
0.545679
0.534421
0.53158
0.757586
0.703651
0.680678
0.66857
0.656404
0.642656
0.627345
0.610509
0.593839
0.583892
0.862257
0.800655
0.770472
0.750828
0.73112
0.710343
0.688756
0.666544
0.645029
0.628873
0.949935
0.881903
0.845529
0.819394
0.793231
0.76648
0.739601
0.71289
0.687314
0.665956
1.01807
0.945027
0.903756
0.87248
0.841234
0.809807
0.77881
0.748622
0.719901
0.694486
1.06464
0.988175
0.943516
0.908683
0.873933
0.839297
0.805488
0.772937
0.742071
0.71387
1.08828
1.01007
0.963682
0.927032
0.890497
0.854229
0.818994
0.785248
0.753296
0.723676
1.08828
1.01008
0.963683
0.927033
0.890497
0.85423
0.818994
0.785248
0.753296
0.723677
1.06464
0.988177
0.943517
0.908684
0.873935
0.839298
0.805489
0.772938
0.742072
0.713871
1.01807
0.94503
0.903759
0.872483
0.841236
0.809809
0.778812
0.748624
0.719903
0.694487
0.949939
0.881906
0.845533
0.819397
0.793233
0.766483
0.739604
0.712892
0.687316
0.665958
0.862262
0.800659
0.770477
0.750832
0.731123
0.710346
0.688759
0.666547
0.645031
0.628875
0.757592
0.703657
0.680683
0.668575
0.656409
0.64266
0.627349
0.610512
0.593842
0.583895
0.638944
0.593705
0.57864
0.574739
0.57084
0.564852
0.556516
0.545683
0.534425
0.531583
0.509704
0.473973
0.467165
0.471718
0.476372
0.478452
0.477389
0.472768
0.467076
0.47218
0.373535
0.347898
0.349354
0.362174
0.375196
0.385171
0.391225
0.392468
0.391391
0.404316
0.234281
0.21909
0.228496
0.249006
0.269758
0.286873
0.29908
0.304563
0.303517
0.317436
0.0958876
0.0912196
0.108002
0.135334
0.162858
0.185851
0.20234
0.21071
0.209677
0.202949
-0.0377507
-0.0320668
-0.00851624
0.0250119
0.0592064
0.0890315
0.112473
0.129121
0.139057
0.14143
-0.163058
-0.147504
-0.117956
-0.0790659
-0.0387398
-0.00210179
0.0286925
0.0537066
0.073779
0.0851623
-0.277078
-0.252449
-0.217903
-0.174869
-0.129658
-0.0873733
-0.0504269
-0.0188306
0.00833676
0.0260727
-0.377602
-0.344931
-0.306507
-0.260725
-0.212163
-0.16573
-0.124027
-0.0872774
-0.0547463
-0.0321222
-0.463188
-0.423659
-0.382483
-0.335344
-0.285019
-0.236032
-0.191049
-0.150516
-0.113928
-0.0873924
-0.53315
-0.48803
-0.445149
-0.397927
-0.347369
-0.297435
-0.250724
-0.207846
-0.168489
-0.138911
-0.587488
-0.538078
-0.494413
-0.448182
-0.398751
-0.34938
-0.302449
-0.25865
-0.217792
-0.186054
-0.626806
-0.574401
-0.53072
-0.486306
-0.439109
-0.391614
-0.345847
-0.302478
-0.261363
-0.228395
-0.652199
-0.598056
-0.554984
-0.51295
-0.468799
-0.424237
-0.380839
-0.339149
-0.298996
-0.265791
-0.665142
-0.610453
-0.56848
-0.529152
-0.488557
-0.447696
-0.407652
-0.368757
-0.330754
-0.298379
-0.667369
-0.613232
-0.572746
-0.536251
-0.499441
-0.462751
-0.42679
-0.391639
-0.356927
-0.32653
-0.660736
-0.608134
-0.569451
-0.535774
-0.502743
-0.470407
-0.438984
-0.408319
-0.377962
-0.350776
-0.647108
-0.596899
-0.56029
-0.529332
-0.499894
-0.471835
-0.445117
-0.419436
-0.394372
-0.371707
-0.628248
-0.581166
-0.546886
-0.518519
-0.492371
-0.46829
-0.446155
-0.425654
-0.406621
-0.389821
-0.605716
-0.56239
-0.530699
-0.504818
-0.481601
-0.461029
-0.443062
-0.427577
-0.414995
-0.405355
-0.580797
-0.54178
-0.512961
-0.489513
-0.468873
-0.451223
-0.436724
-0.425629
-0.419415
-0.418065
-0.554479
-0.520272
-0.494616
-0.473611
-0.455242
-0.439875
-0.427875
-0.419961
-0.419241
-0.427046
-0.527512
-0.498533
-0.476289
-0.457755
-0.441414
-0.427727
-0.417168
-0.410795
-0.41374
-0.430999
-0.500544
-0.477035
-0.458292
-0.442119
-0.427387
-0.414471
-0.40371
-0.395746
-0.395875
-0.415396
-0.474299
-0.456235
-0.4409
-0.426822
-0.413033
-0.399333
-0.384965
-0.367295
-0.342251
-0.318269
-0.449601
-0.436712
-0.424728
-0.412972
-0.400923
-0.388475
-0.375231
-0.359665
-0.339576
-0.322259
-0.427137
-0.418891
-0.410047
-0.400657
-0.390691
-0.380231
-0.369192
-0.356946
-0.342999
-0.33255
-0.407341
-0.403037
-0.396955
-0.389729
-0.381714
-0.373111
-0.363977
-0.354082
-0.343579
-0.336116
-0.390425
-0.389324
-0.385569
-0.38023
-0.373953
-0.367023
-0.359601
-0.351691
-0.343612
-0.337646
-0.376446
-0.377849
-0.375981
-0.37222
-0.367421
-0.361923
-0.355949
-0.349644
-0.343341
-0.338292
-0.36537
-0.368656
-0.368249
-0.36574
-0.362127
-0.35777
-0.352929
-0.347822
-0.342768
-0.338312
-0.357133
-0.361759
-0.362415
-0.360832
-0.3581
-0.354589
-0.350572
-0.346309
-0.342102
-0.338036
-0.351675
-0.357161
-0.358507
-0.357534
-0.355384
-0.352428
-0.348946
-0.34522
-0.341542
-0.33772
-0.348957
-0.354862
-0.356549
-0.355877
-0.354014
-0.351334
-0.348115
-0.344649
-0.341226
-0.337523
-0.291167
-0.127092
-0.081939
-0.0308665
-0.0199375
-0.0082009
-0.0049005
-0.00118966
-0.000701238
0.00218317
-0.292399
-0.127642
-0.0822118
-0.0310641
-0.0200057
-0.00826164
-0.00493208
-0.00121342
-0.000712282
0.00216574
-0.294793
-0.128726
-0.0827517
-0.031462
-0.0201433
-0.0083829
-0.0049944
-0.00125941
-0.000733422
0.0021312
-0.298208
-0.130319
-0.0835473
-0.0320624
-0.0203497
-0.00856423
-0.00508718
-0.00132744
-0.000764431
0.00207977
-0.302398
-0.132378
-0.0845719
-0.0328634
-0.0206226
-0.00880421
-0.00520966
-0.00141722
-0.000804896
0.00201208
-0.307008
-0.134826
-0.0857757
-0.0338515
-0.0209556
-0.0090992
-0.00536029
-0.00152804
-0.000854268
0.00192885
-0.311906
-0.137732
-0.0871638
-0.0350218
-0.0213493
-0.00944622
-0.00553834
-0.00165867
-0.00091262
0.00183183
-0.317616
-0.14175
-0.0889994
-0.0364747
-0.0218469
-0.00985837
-0.00574995
-0.00180925
-0.000981575
0.00172382
-0.322403
-0.147256
-0.0914612
-0.0383759
-0.0224988
-0.0103637
-0.00600373
-0.00198561
-0.00105923
0.00160233
-0.314606
-0.149631
-0.0925812
-0.0400843
-0.023003
-0.0108682
-0.00625095
-0.00219075
-0.0011236
0.00144429
-0.248084
-0.141525
-0.088966
-0.0433746
-0.023483
-0.0122588
-0.00695595
-0.00298747
-0.001294
0.000750241
-0.189956
-0.132476
-0.082948
-0.0448476
-0.0251836
-0.0146749
-0.00877649
-0.00448805
-0.00204928
-0.00011461
-0.148502
-0.114578
-0.0734857
-0.0434227
-0.0265595
-0.0168717
-0.0106667
-0.00604933
-0.00296112
-0.000790342
-0.108879
-0.0936472
-0.0640324
-0.0414569
-0.0275571
-0.0186458
-0.0122925
-0.00743646
-0.00382003
-0.00124654
-0.0796201
-0.0763555
-0.0572048
-0.0402013
-0.0283403
-0.0199689
-0.0135643
-0.00854695
-0.0045388
-0.00153415
-0.0595127
-0.0634965
-0.0522236
-0.0391982
-0.028724
-0.0207974
-0.0144621
-0.00937083
-0.00509809
-0.00172394
-0.0464769
-0.0542283
-0.0483464
-0.0382235
-0.0287953
-0.021265
-0.0150667
-0.00996093
-0.00551632
-0.00186087
-0.0382267
-0.0477649
-0.0453735
-0.0373661
-0.0287411
-0.0215251
-0.0154628
-0.0103681
-0.00581406
-0.001961
-0.0334024
-0.0436619
-0.0433593
-0.0367598
-0.0286801
-0.0216654
-0.0157007
-0.0106223
-0.00600506
-0.00202648
-0.0311716
-0.041659
-0.0423451
-0.0364606
-0.0286551
-0.0217266
-0.0158112
-0.0107415
-0.00609929
-0.00205671
-0.219443
-0.247341
-0.273121
-0.297067
-0.319564
-0.341116
-0.362344
-0.38389
-0.406258
-0.4301
-0.0687707
-0.0789126
-0.0880766
-0.0965059
-0.104508
-0.112462
-0.120828
-0.130144
-0.140989
-0.155155
-0.0459816
-0.0551618
-0.0639563
-0.0723386
-0.0802709
-0.0877086
-0.0946081
-0.100943
-0.106709
-0.112028
-0.0195476
-0.025266
-0.0307782
-0.0361029
-0.0412621
-0.0462791
-0.051177
-0.0559779
-0.0606818
-0.065167
-0.0138322
-0.0181869
-0.022417
-0.0265191
-0.0304893
-0.0343236
-0.0380185
-0.0415711
-0.0449619
-0.0481578
-0.00877257
-0.0119888
-0.0151457
-0.0182423
-0.0212779
-0.0242522
-0.0271645
-0.0300136
-0.0327879
-0.0354891
-0.00764459
-0.0101804
-0.01268
-0.0151392
-0.0175546
-0.019923
-0.0222419
-0.0245088
-0.0267181
-0.0288809
-0.00683944
-0.00889619
-0.0109364
-0.012956
-0.0149513
-0.0169188
-0.0188554
-0.0207583
-0.0226244
-0.0244587
-0.00674867
-0.0085221
-0.0102875
-0.0120405
-0.0137768
-0.0154924
-0.017184
-0.0188483
-0.0204836
-0.0220891
-0.00669088
-0.00831551
-0.00993747
-0.011553
-0.0131586
-0.0147508
-0.0163267
-0.0178832
-0.0194195
-0.0209315
0.167159
0.12617
0.0808226
0.0377537
-0.00398465
-0.0448637
-0.084267
-0.121612
-0.156631
-0.189238
0.116705
0.0907901
0.0639998
0.0411624
0.0210433
0.00237049
-0.0149389
-0.030674
-0.0448083
-0.0574569
0.0725973
0.0569001
0.0419488
0.0290384
0.0171885
0.00572326
-0.00542821
-0.016178
-0.0265029
-0.0364296
0.0523527
0.0432807
0.0346533
0.0269445
0.0196796
0.0125884
0.00567324
-0.0010072
-0.00743167
-0.0136073
0.0368245
0.0308741
0.0251352
0.0198459
0.0147568
0.00973695
0.00479315
-4.32492e-05
-0.00475974
-0.0093559
0.0265698
0.0226818
0.0188376
0.0152009
0.0116595
0.00814518
0.00465952
0.00121922
-0.0021674
-0.00549831
0.0188727
0.016145
0.0133907
0.0107151
0.00806997
0.00542258
0.00277467
0.000137411
-0.00248134
-0.00507675
0.0136965
0.0117022
0.00965775
0.00762555
0.00558898
0.00353445
0.00146432
-0.000613873
-0.00269378
-0.00477049
0.0103689
0.00877471
0.00713159
0.00546873
0.00378134
0.00206633
0.000327546
-0.00142885
-0.0031971
-0.00497203
0.00877436
0.0073545
0.00589138
0.00439919
0.00287734
0.0013269
-0.000247807
-0.00184162
-0.0034497
-0.00506755
0.334589
0.333888
0.332339
0.329464
0.324479
0.316147
0.302696
0.281733
0.250624
0.206004
0.244697
0.243581
0.240945
0.23636
0.229489
0.219903
0.207031
0.190215
0.168707
0.141951
0.173874
0.172745
0.170078
0.165553
0.159063
0.150499
0.139673
0.126369
0.110181
0.0911945
0.122272
0.121386
0.119284
0.115721
0.110682
0.104191
0.0962417
0.0868439
0.0759196
0.063804
0.0859452
0.0853008
0.083762
0.0811491
0.0774694
0.0727754
0.0671012
0.0604849
0.052907
0.044576
0.0607723
0.060309
0.0592006
0.0573187
0.0546766
0.0513254
0.0473068
0.0426648
0.0374171
0.0317098
0.0436262
0.0432877
0.0424777
0.0411027
0.0391744
0.0367329
0.033812
0.0304446
0.0266499
0.022512
0.0323446
0.0320879
0.0314735
0.0304307
0.0289689
0.0271194
0.024909
0.0223629
0.0195014
0.0163766
0.0255115
0.0253031
0.0248045
0.0239584
0.0227722
0.0212708
0.0194756
0.0174053
0.0150779
0.0125247
0.0222925
0.022106
0.021661
0.0209062
0.0198479
0.018508
0.0169053
0.0150561
0.012977
0.010691
0.48456
0.486312
0.492645
0.503791
0.519642
0.540502
0.566836
0.599168
0.638035
0.683683
0.482318
0.484045
0.490298
0.501288
0.516891
0.537373
0.563142
0.594636
0.632256
0.67609
0.477888
0.479569
0.485669
0.496356
0.511473
0.531214
0.555873
0.585714
0.620864
0.661114
0.471368
0.472995
0.478884
0.48914
0.503555
0.522221
0.545258
0.572675
0.604182
0.639159
0.462897
0.464474
0.470115
0.479834
0.493365
0.51066
0.53162
0.555909
0.582675
0.610814
0.452645
0.454194
0.459567
0.468668
0.481159
0.496831
0.515318
0.535863
0.556914
0.576814
0.440806
0.442394
0.447522
0.45596
0.467299
0.481144
0.496822
0.513078
0.527576
0.538026
0.427587
0.429403
0.434417
0.442266
0.452481
0.464449
0.477118
0.488597
0.49566
0.495244
0.413058
0.41535
0.420443
0.427829
0.437023
0.447195
0.456845
0.463255
0.462043
0.447962
0.396857
0.399292
0.403959
0.410215
0.417594
0.425143
0.43109
0.432212
0.423745
0.39604
0.396859
0.399295
0.403962
0.410218
0.417597
0.425146
0.431094
0.432216
0.423749
0.396044
0.413061
0.415352
0.420446
0.427832
0.437026
0.447198
0.456848
0.463258
0.462046
0.447966
0.42759
0.429405
0.43442
0.442269
0.452484
0.464451
0.47712
0.4886
0.495663
0.495247
0.440808
0.442397
0.447524
0.455962
0.467301
0.481147
0.496824
0.51308
0.527578
0.538029
0.452647
0.454195
0.459569
0.46867
0.481161
0.496833
0.51532
0.535865
0.556916
0.576817
0.462899
0.464476
0.470116
0.479835
0.493366
0.510662
0.531622
0.555911
0.582677
0.610816
0.471369
0.472996
0.478885
0.489141
0.503557
0.522222
0.545259
0.572677
0.604183
0.639161
0.477888
0.47957
0.48567
0.496357
0.511474
0.531215
0.555874
0.585715
0.620865
0.661115
0.482319
0.484046
0.490299
0.501289
0.516891
0.537373
0.563143
0.594637
0.632257
0.676091
0.48456
0.486312
0.492645
0.503792
0.519643
0.540502
0.566836
0.599168
0.638035
0.683683
0.0222968
0.0221103
0.0216653
0.0209105
0.0198522
0.0185124
0.0169097
0.0150604
0.0129814
0.0106955
0.0255158
0.0253074
0.0248089
0.0239628
0.0227765
0.0212752
0.01948
0.0174097
0.0150823
0.0125291
0.0323489
0.0320922
0.0314778
0.030435
0.0289732
0.0271237
0.0249134
0.0223673
0.0195059
0.016381
0.0436305
0.043292
0.042482
0.0411071
0.0391787
0.0367372
0.0338164
0.030449
0.0266543
0.0225165
0.0607766
0.0603133
0.0592049
0.057323
0.0546809
0.0513297
0.0473112
0.0426692
0.0374215
0.0317143
0.0859494
0.085305
0.0837662
0.0811534
0.0774737
0.0727797
0.0671055
0.0604893
0.0529114
0.0445805
0.122276
0.12139
0.119288
0.115726
0.110686
0.104195
0.096246
0.0868482
0.075924
0.0638084
0.173878
0.172749
0.170082
0.165557
0.159067
0.150504
0.139677
0.126374
0.110186
0.0911989
0.244701
0.243584
0.240949
0.236364
0.229493
0.219907
0.207035
0.19022
0.168711
0.141956
0.334592
0.333892
0.332342
0.329467
0.324483
0.31615
0.3027
0.281737
0.250628
0.206008
0.00877876
0.00735888
0.00589572
0.0044035
0.00288161
0.00133112
-0.00024365
-0.00183752
-0.00344566
-0.00506357
0.0103733
0.0087791
0.00713594
0.00547304
0.0037856
0.00207052
0.000331683
-0.00142477
-0.00319308
-0.00496807
0.013701
0.0117066
0.00966214
0.0076299
0.00559328
0.00353869
0.00146851
-0.000609746
-0.00268971
-0.00476647
0.0188771
0.0161494
0.0133951
0.0107194
0.00807425
0.0054268
0.00277884
0.000141533
-0.00247726
-0.00507273
0.0265743
0.0226862
0.018842
0.0152053
0.0116637
0.0081494
0.00466368
0.00122333
-0.00216334
-0.00549431
0.0368289
0.0308785
0.0251396
0.0198502
0.0147611
0.0097412
0.00479735
-3.90968e-05
-0.00475564
-0.00935186
0.0523571
0.0432852
0.0346577
0.0269488
0.0196839
0.0125927
0.00567748
-0.001003
-0.00742751
-0.0136032
0.0726019
0.0569046
0.0419533
0.0290429
0.017193
0.00572777
-0.0054237
-0.0161735
-0.0264984
-0.0364252
0.116709
0.0907947
0.0640043
0.0411669
0.0210479
0.00237509
-0.0149343
-0.0306694
-0.0448036
-0.0574523
0.167164
0.126176
0.080828
0.0377592
-0.00397916
-0.0448582
-0.0842613
-0.121606
-0.156625
-0.189232
-0.00668696
-0.00831166
-0.0099337
-0.0115493
-0.013155
-0.0147473
-0.0163232
-0.0178799
-0.0194162
-0.0209284
-0.00674477
-0.00851825
-0.0102838
-0.0120368
-0.0137731
-0.0154889
-0.0171806
-0.018845
-0.0204804
-0.022086
-0.00683551
-0.00889234
-0.0109326
-0.0129523
-0.0149477
-0.0169152
-0.018852
-0.0207549
-0.0226211
-0.0244555
-0.00764062
-0.0101765
-0.0126761
-0.0151354
-0.0175509
-0.0199193
-0.0222383
-0.0245053
-0.0267147
-0.0288776
-0.00876864
-0.0119849
-0.0151419
-0.0182385
-0.0212742
-0.0242485
-0.0271609
-0.0300101
-0.0327845
-0.0354858
-0.0138282
-0.0181829
-0.0224131
-0.0265151
-0.0304854
-0.0343197
-0.0380147
-0.0415674
-0.0449583
-0.0481543
-0.0195435
-0.025262
-0.0307742
-0.036099
-0.0412582
-0.0462752
-0.0511731
-0.055974
-0.060678
-0.0651632
-0.0459771
-0.0551573
-0.0639519
-0.0723341
-0.0802664
-0.087704
-0.0946035
-0.100938
-0.106704
-0.112023
-0.068766
-0.0789079
-0.0880719
-0.0965011
-0.104503
-0.112457
-0.120823
-0.130139
-0.140984
-0.155149
-0.219436
-0.247334
-0.273115
-0.29706
-0.319557
-0.341109
-0.362336
-0.383882
-0.40625
-0.430092
-0.0311702
-0.0416577
-0.042344
-0.0364604
-0.0286547
-0.021725
-0.0158079
-0.0107379
-0.00609637
-0.00205513
-0.0334011
-0.0436605
-0.0433582
-0.0367598
-0.02868
-0.0216639
-0.0156973
-0.0106185
-0.00600192
-0.00202481
-0.0382254
-0.0477635
-0.0453726
-0.0373666
-0.0287414
-0.0215236
-0.015459
-0.0103638
-0.00581048
-0.00195916
-0.0464754
-0.0542268
-0.0483457
-0.0382247
-0.0287964
-0.0212635
-0.0150623
-0.00995577
-0.00551202
-0.00185883
-0.059511
-0.0634948
-0.0522232
-0.0392007
-0.0287262
-0.0207958
-0.0144568
-0.00936422
-0.00509275
-0.00172175
-0.079618
-0.0763536
-0.0572049
-0.0402057
-0.0283443
-0.019967
-0.0135575
-0.00853801
-0.00453207
-0.00153204
-0.108876
-0.0936449
-0.0640335
-0.0414644
-0.0275637
-0.0186433
-0.0122835
-0.00742396
-0.00381147
-0.00124491
-0.148497
-0.114574
-0.0734882
-0.0434355
-0.0265703
-0.0168686
-0.0106548
-0.00603193
-0.00295014
-0.000789528
-0.189949
-0.132468
-0.0829507
-0.0448668
-0.0252005
-0.0146726
-0.00876225
-0.0044656
-0.00203548
-0.000114427
-0.248074
-0.141511
-0.0889661
-0.0433967
-0.0235046
-0.0122592
-0.0069425
-0.00296304
-0.00127878
0.000750473
-0.314597
-0.149616
-0.0925796
-0.0401032
-0.0230219
-0.0108691
-0.00624106
-0.0021699
-0.00111082
0.00144439
-0.322394
-0.147241
-0.0914595
-0.0383938
-0.0225166
-0.0103645
-0.00599467
-0.0019661
-0.00104739
0.00160236
-0.317608
-0.141736
-0.0889981
-0.0364916
-0.0218634
-0.00985895
-0.00574157
-0.00179142
-0.000970895
0.00172377
-0.311898
-0.137719
-0.0871629
-0.0350375
-0.0213643
-0.00944663
-0.00553091
-0.00164278
-0.000903241
0.00183159
-0.307
-0.134814
-0.0857749
-0.0338655
-0.0209688
-0.0090995
-0.00535375
-0.00151414
-0.000846108
0.0019287
-0.302391
-0.132367
-0.0845712
-0.0328754
-0.0206338
-0.00880442
-0.00520417
-0.00140553
-0.000798074
0.00201193
-0.298202
-0.130311
-0.0835467
-0.032072
-0.0203587
-0.00856438
-0.00508283
-0.00131812
-0.000759029
0.00207964
-0.294789
-0.128719
-0.0827513
-0.0314691
-0.0201499
-0.008383
-0.00499128
-0.00125264
-0.000729529
0.00213105
-0.292396
-0.127638
-0.0822116
-0.0310685
-0.0200098
-0.00826169
-0.00493016
-0.00120927
-0.000709894
0.00216571
-0.291166
-0.127091
-0.081939
-0.030868
-0.0199389
-0.00820093
-0.00489992
-0.00118831
-0.000700477
0.00218308
)
;

boundaryField
{
    inlet
    {
        type            zeroGradient;
    }
    outlet
    {
        type            fixedValue;
        value           uniform 0;
    }
    cylinder
    {
        type            zeroGradient;
    }
    top
    {
        type            symmetryPlane;
    }
    bottom
    {
        type            symmetryPlane;
    }
    defaultFaces
    {
        type            empty;
    }
}


// ************************************************************************* //
