/*--------------------------------*- C++ -*----------------------------------*\
  =========                 |
  \\      /  F ield         | OpenFOAM: The Open Source CFD Toolbox
   \\    /   O peration     | Website:  https://openfoam.org
    \\  /    A nd           | Version:  6.0
     \\/     M anipulation  |
\*---------------------------------------------------------------------------*/
FoamFile
{
    version     2.0;
    format      ascii;
    class       volVectorField;
    location    "23";
    object      U;
}
// * * * * * * * * * * * * * * * * * * * * * * * * * * * * * * * * * * * * * //

dimensions      [0 1 -1 0 0 0 0];

internalField   nonuniform List<vector> 
2000
(
(-0.00199162 0.00174026 5.74398e-20)
(-0.00762218 0.00330679 6.82176e-20)
(-0.0153298 0.00366748 -6.50339e-20)
(-0.0223299 0.00334393 -1.32703e-19)
(-0.0276744 0.00264656 -9.27008e-20)
(-0.0312105 0.00177862 1.23498e-19)
(-0.0330358 0.000885591 7.19358e-20)
(-0.0334197 7.42518e-05 -2.90996e-20)
(-0.0327952 -0.000576217 -7.26465e-20)
(-0.0314557 -0.00100178 5.29691e-20)
(-0.00249019 0.00512343 -1.42375e-19)
(-0.00837121 0.00968922 1.96538e-19)
(-0.0157244 0.0107014 1.95986e-20)
(-0.0220215 0.00970048 -1.13843e-19)
(-0.0264515 0.00759984 5.44745e-19)
(-0.0289383 0.00499648 -2.39751e-19)
(-0.0296272 0.00231891 -2.59385e-19)
(-0.0288142 -0.000114443 3.12854e-19)
(-0.0269485 -0.00206178 -3.08555e-19)
(-0.0244013 -0.00333032 1.5566e-19)
(-0.00343629 0.00822699 2.36463e-20)
(-0.00972822 0.0154124 8.40697e-21)
(-0.0162994 0.0168879 5.88997e-19)
(-0.0211375 0.0151397 2.06614e-19)
(-0.023706 0.0116297 4.09766e-20)
(-0.0240796 0.00730972 3.38886e-19)
(-0.0224968 0.00286587 -6.43679e-19)
(-0.0193023 -0.00117888 1.39601e-20)
(-0.0149745 -0.00440763 -3.80639e-19)
(-0.0100467 -0.00649634 4.19325e-19)
(-0.00472452 0.0108698 -4.44786e-20)
(-0.0114026 0.0200618 2.55872e-19)
(-0.0166134 0.021718 -7.45514e-19)
(-0.0191262 0.0191446 -9.63709e-20)
(-0.0188148 0.0142583 -5.48738e-19)
(-0.0159774 0.00829726 5.68314e-19)
(-0.0109863 0.00215645 -6.02815e-19)
(-0.00424882 -0.00345487 4.23352e-19)
(0.0037219 -0.00792681 1.77979e-19)
(0.0121347 -0.0107996 -2.01125e-19)
(-0.00618731 0.0128761 -4.94997e-19)
(-0.0129378 0.023257 4.46154e-21)
(-0.0159748 0.0247623 9.18314e-19)
(-0.0151192 0.0213335 2.75323e-19)
(-0.0107898 0.01521 -8.7542e-19)
(-0.00357988 0.00781373 5.44356e-19)
(0.00596677 0.000167863 6.17059e-19)
(0.017376 -0.00687393 -5.50161e-19)
(0.0301113 -0.0124942 3.92276e-19)
(0.0430137 -0.0160947 9.63306e-20)
(-0.00758355 0.0140748 6.76658e-20)
(-0.0136916 0.0246622 1.25479e-20)
(-0.0134175 0.0256928 -1.17399e-18)
(-0.00789896 0.0214973 -6.56813e-19)
(0.00176955 0.0144708 7.83545e-19)
(0.0146265 0.00608645 -9.17586e-19)
(0.0299125 -0.00262666 1.05151e-18)
(0.0470879 -0.0107591 -9.08111e-20)
(0.0656348 -0.0173016 -2.95831e-19)
(0.0839108 -0.0215302 -8.59894e-19)
(-0.00858686 0.0143035 -1.47199e-19)
(-0.0128249 0.0240002 -2.68847e-19)
(-0.00769654 0.0242969 -3.3031e-19)
(0.00410896 0.0196075 7.04692e-19)
(0.0207043 0.0122992 1.30728e-18)
(0.0406791 0.00374835 -2.70188e-19)
(0.0629936 -0.00517727 -6.57688e-19)
(0.0870273 -0.0136859 2.00593e-19)
(0.112366 -0.020677 -1.26342e-18)
(0.136808 -0.0253534 1.38773e-18)
(-0.00878174 0.0134224 9.00259e-19)
(-0.00931781 0.0210776 -4.91374e-19)
(0.00266898 0.0204861 9.59441e-19)
(0.0227742 0.0157927 -1.56758e-18)
(0.0482299 0.00917162 -7.49068e-19)
(0.0770902 0.0017828 -1.03761e-18)
(0.107926 -0.00584684 3.01444e-19)
(0.13996 -0.0133103 -8.39459e-19)
(0.173015 -0.0196437 1.82808e-18)
(0.20443 -0.0241591 5.11778e-19)
(-0.00767892 0.0113445 6.62218e-20)
(-0.00203042 0.0158277 8.00412e-19)
(0.0192851 0.0143022 1.59066e-18)
(0.0501128 0.0102702 4.86142e-19)
(0.0867709 0.00561925 1.4389e-18)
(0.126685 0.00130983 7.88777e-20)
(0.167847 -0.00246727 -7.64271e-22)
(0.209057 -0.00576174 5.80184e-19)
(0.250391 -0.00791689 4.6945e-19)
(0.289292 -0.00934928 -1.52344e-18)
(-0.00476559 0.00808166 -5.33178e-19)
(0.0101656 0.00837057 -8.93053e-19)
(0.0436805 0.00591387 -1.29822e-18)
(0.0880542 0.00317458 3.06372e-20)
(0.138831 0.00171142 -6.61906e-19)
(0.192909 0.00248637 1.04328e-18)
(0.247716 0.00582207 -2.87247e-18)
(0.301313 0.0119376 1.28968e-18)
(0.353057 0.0214278 4.84912e-19)
(0.400221 0.0301512 1.52144e-18)
(0.000395275 0.0038035 2.66723e-19)
(0.0281415 -0.000890419 -1.02099e-18)
(0.0768538 -0.00429959 9.11694e-19)
(0.13763 -0.00549923 -3.53741e-19)
(0.205645 -0.00349171 3.84779e-19)
(0.277936 0.0026467 8.37775e-19)
(0.352667 0.0136527 -1.12481e-18)
(0.429433 0.030468 1.46188e-19)
(0.509211 0.0523573 -5.39039e-19)
(0.594353 0.06935 1.09338e-18)
(0.00806865 -0.0011136 3.82072e-19)
(0.0522886 -0.0111103 -9.25571e-19)
(0.118808 -0.0153576 1.26121e-18)
(0.197825 -0.0150578 -7.85514e-19)
(0.284149 -0.0103297 -2.88158e-19)
(0.374728 -0.00103387 1.70608e-19)
(0.46775 0.0127414 8.82138e-20)
(0.562649 0.0306846 1.19665e-18)
(0.659074 0.0500813 3.44512e-19)
(0.754732 0.062238 1.47252e-18)
(0.0183624 -0.00610793 -3.40996e-19)
(0.0826462 -0.0209361 1.19663e-18)
(0.169066 -0.0252917 -9.98596e-19)
(0.267139 -0.0228693 -1.17128e-18)
(0.371197 -0.0151494 1.63877e-18)
(0.477746 -0.00292496 -1.24613e-18)
(0.584388 0.0128732 3.29153e-19)
(0.689566 0.0311335 -1.95138e-18)
(0.7915 0.0491748 1.46171e-18)
(0.886206 0.0616543 7.30339e-20)
(0.0312827 -0.0105518 -4.44357e-19)
(0.119015 -0.0288108 -4.29212e-19)
(0.226935 -0.0318109 -9.14054e-19)
(0.344155 -0.025927 1.10796e-18)
(0.464562 -0.0140842 -5.59747e-20)
(0.584196 0.00202207 7.16418e-19)
(0.700118 0.0207906 1.30704e-18)
(0.810088 0.0407239 -4.01654e-19)
(0.911738 0.0597284 -1.4207e-18)
(1.00106 0.074792 2.82065e-18)
(0.0467599 -0.0138374 -2.29664e-19)
(0.160954 -0.0332326 -2.73958e-19)
(0.291411 -0.0328042 4.93117e-19)
(0.427212 -0.0216965 -9.16641e-19)
(0.562004 -0.00430137 1.56587e-19)
(0.691578 0.0168326 1.39377e-19)
(0.812812 0.0395567 6.11291e-20)
(0.923355 0.0621657 -9.85717e-21)
(1.02101 0.0831573 -1.49744e-19)
(1.1024 0.100914 -2.38476e-18)
(0.0646352 -0.0154029 9.32287e-19)
(0.207731 -0.0328771 -6.5065e-19)
(0.36106 -0.0265579 8.31803e-21)
(0.514156 -0.00836561 -9.91161e-19)
(0.660776 0.0158728 -3.54677e-19)
(0.796839 0.0428345 3.31603e-19)
(0.919506 0.0699453 2.57575e-19)
(1.02688 0.0954148 -9.17854e-19)
(1.11749 0.118278 7.50286e-19)
(1.18898 0.137722 -9.83808e-19)
(0.0846298 -0.014737 4.02351e-19)
(0.25828 -0.0266545 -3.57617e-19)
(0.433981 -0.0118521 1.48558e-18)
(0.602329 0.0150789 1.51506e-19)
(0.757673 0.0469912 3.48142e-19)
(0.896546 0.0799347 1.55193e-18)
(1.01692 0.111089 -2.37257e-19)
(1.11786 0.138748 2.16297e-19)
(1.19901 0.162507 8.95898e-20)
(1.25931 0.182032 -1.10185e-19)
(0.106314 -0.0113895 2.81084e-19)
(0.311196 -0.013751 6.75888e-19)
(0.507864 0.0119999 -7.24148e-19)
(0.688714 0.0488728 -2.45204e-19)
(0.84928 0.0886438 -3.02921e-19)
(0.987272 0.126989 4.69347e-19)
(1.10198 0.161111 -2.4418e-19)
(1.19387 0.18963 6.56972e-19)
(1.26396 0.212794 2.21137e-19)
(1.3126 0.230607 -3.60499e-19)
(0.129093 -0.00499658 -3.02911e-19)
(0.364758 0.00632367 2.69269e-19)
(0.5801 0.0451296 -5.74618e-19)
(0.770143 0.0925315 2.47889e-19)
(0.932275 0.139639 -2.57237e-19)
(1.06596 0.182134 -3.21088e-19)
(1.17225 0.217596 -2.57906e-19)
(1.2533 0.245261 2.88255e-19)
(1.3116 0.266156 -5.43612e-19)
(1.34895 0.280582 3.28525e-19)
(0.152214 0.00468153 -1.0797e-19)
(0.417003 0.0336812 -2.11232e-19)
(0.647937 0.0870989 1.00589e-19)
(0.843533 0.144918 6.19586e-21)
(1.00371 0.198174 8.34809e-20)
(1.13018 0.243049 1.14561e-19)
(1.22612 0.27791 1.06203e-19)
(1.29545 0.302899 -1.40827e-19)
(1.34211 0.319937 1.1994e-19)
(1.36919 0.329625 -1.87723e-19)
(0.174798 0.0177201 -6.2504e-20)
(0.46583 0.068004 -2.34493e-20)
(0.70866 0.136901 9.33338e-20)
(0.906103 0.204324 -4.29604e-20)
(1.0612 0.261999 1.14553e-19)
(1.17831 0.307177 -1.47919e-19)
(1.26284 0.339427 3.42782e-20)
(1.32046 0.360045 3.6782e-20)
(1.35635 0.371912 -1.54354e-20)
(1.37472 0.37594 5.83768e-20)
(0.19588 0.0339944 -6.74344e-20)
(0.509126 0.108516 -3.05197e-19)
(0.759767 0.192991 -2.11549e-20)
(0.955558 0.268577 6.29132e-21)
(1.10309 0.328575 -3.97146e-19)
(1.20953 0.371895 5.24827e-20)
(1.28248 0.399673 -4.46977e-20)
(1.32918 0.414528 -1.07893e-19)
(1.35574 0.420294 2.25084e-19)
(1.36721 0.418189 -4.10472e-19)
(0.214467 0.0531547 -3.25787e-20)
(0.544904 0.153979 6.18179e-19)
(0.799136 0.253344 9.96045e-20)
(0.990216 0.335153 -5.4433e-19)
(1.12846 0.395216 -4.41551e-20)
(1.2238 0.434644 -5.21973e-19)
(1.28582 0.456407 3.82737e-19)
(1.32296 0.464513 -1.38975e-19)
(1.34198 0.463671 2.46581e-19)
(1.34847 0.455382 -1.80456e-19)
(0.229608 0.0746177 -2.05418e-19)
(0.571443 0.202729 1.96319e-19)
(0.825159 0.315553 -1.41703e-19)
(1.00909 0.401315 1.0679e-18)
(1.13716 0.459224 5.27222e-19)
(1.2218 0.493021 -1.22304e-19)
(1.27416 0.507657 4.12243e-19)
(1.30352 0.508477 -2.71327e-19)
(1.31694 0.500928 -7.57313e-20)
(1.32033 0.486765 4.96873e-19)
(0.240456 0.0975752 -3.55619e-19)
(0.587401 0.252745 4.52757e-19)
(0.836833 0.376945 -8.90852e-19)
(1.01192 0.464244 1.25191e-19)
(1.12973 0.517993 2.79949e-19)
(1.20475 0.544839 -4.28996e-19)
(1.2492 0.551714 -5.00473e-19)
(1.27277 0.545153 2.19942e-19)
(1.28257 0.531159 -2.65114e-19)
(1.28457 0.511725 3.19337e-19)
(0.24633 0.12102 -8.9844e-20)
(0.591913 0.30174 -4.6071e-19)
(0.833808 0.434723 2.54813e-19)
(0.999089 0.52117 4.27929e-19)
(1.10731 0.569102 -2.57237e-19)
(1.17433 0.588154 -1.91904e-19)
(1.21292 0.58711 -1.05878e-19)
(1.23278 0.573469 -5.23289e-20)
(1.24082 0.553577 1.05725e-20)
(1.24295 0.529694 1.10868e-19)
(0.246775 0.143793 6.61326e-20)
(0.584653 0.347294 -3.87229e-19)
(0.816387 0.486115 6.46071e-19)
(0.971633 0.569507 -3.82685e-19)
(1.0715 0.610392 1.07617e-19)
(1.13252 0.62129 -1.52484e-19)
(1.16745 0.612595 1.64237e-19)
(1.18563 0.592483 3.26018e-20)
(1.1936 0.567414 -7.47844e-20)
(1.19715 0.54 1.4557e-19)
(0.241607 0.164644 -1.73995e-19)
(0.565864 0.386991 3.40124e-19)
(0.785489 0.528525 -1.51509e-20)
(0.93107 0.606963 -7.40022e-20)
(1.02423 0.640041 -2.01697e-19)
(1.08149 0.642883 2.51807e-20)
(1.11505 0.627178 5.88653e-20)
(1.13353 0.601448 -1.49428e-19)
(1.14306 0.571969 1.74265e-19)
(1.14923 0.541861 1.48968e-19)
(0.230947 0.182319 4.01752e-20)
(0.536352 0.418578 -8.14795e-20)
(0.742566 0.559686 2.31057e-20)
(0.879277 0.631634 1.55867e-20)
(0.967592 0.656562 7.48016e-20)
(1.02338 0.651787 -1.4223e-19)
(1.05791 0.629964 -2.99327e-19)
(1.07894 0.59965 -1.22358e-19)
(1.09217 0.566612 -1.5654e-19)
(1.10257 0.534687 1.32246e-19)
(0.215241 0.195662 1.0906e-19)
(0.497452 0.440146 -1.69989e-19)
(0.689497 0.577821 1.64173e-19)
(0.818295 0.642123 -3.12766e-19)
(0.903454 0.658826 7.57693e-20)
(0.959727 0.646837 5.13911e-19)
(0.997308 0.619362 -1.57646e-19)
(1.02319 0.584697 1.87088e-19)
(1.04274 0.547996 2.74195e-19)
(1.05905 0.515016 9.97594e-19)
(0.195257 0.203734 6.78165e-19)
(0.450985 0.45031 -4.61142e-19)
(0.628538 0.581879 1.12301e-18)
(0.750295 0.637918 -1.9228e-19)
(0.833417 0.646767 9.63972e-19)
(0.891084 0.628056 6.04784e-19)
(0.932336 0.594737 -1.42066e-18)
(0.963595 0.553877 2.15744e-18)
(0.989479 0.507893 -4.56031e-19)
(1.00634 0.460998 8.97599e-19)
(0.172056 0.205881 -3.74209e-19)
(0.399219 0.448268 -2.6706e-19)
(0.562411 0.571544 2.58604e-19)
(0.67795 0.619493 -6.39508e-19)
(0.759684 0.622017 -1.99757e-18)
(0.818722 0.598995 -8.03543e-19)
(0.862714 0.563189 -7.23975e-19)
(0.897134 0.521739 3.50622e-19)
(0.925136 0.478155 2.92097e-18)
(0.942623 0.437386 -6.07537e-19)
(0.146899 0.201727 1.97183e-19)
(0.344739 0.433661 -7.98282e-19)
(0.494257 0.546787 1.75523e-19)
(0.604684 0.587144 -1.27828e-18)
(0.686077 0.585024 2.79838e-18)
(0.747311 0.559934 -3.24449e-19)
(0.794602 0.524082 1.52507e-18)
(0.832441 0.484256 -2.18438e-18)
(0.863358 0.443959 6.85408e-19)
(0.884663 0.407472 1.06058e-19)
(0.121122 0.191162 1.45384e-19)
(0.290172 0.406561 8.8035e-19)
(0.427132 0.507906 -2.58635e-18)
(0.533602 0.541239 1.2584e-18)
(0.615648 0.53599 -4.04839e-21)
(0.679903 0.510621 -4.24667e-19)
(0.73122 0.476432 5.3459e-19)
(0.773251 0.439624 -5.31147e-19)
(0.808179 0.40335 -1.82562e-18)
(0.83426 0.370863 -5.00309e-19)
(0.0960516 0.174339 4.75916e-19)
(0.23804 0.367483 5.33981e-19)
(0.363864 0.455626 2.20537e-18)
(0.467431 0.482522 -1.22689e-18)
(0.550844 0.475507 2.52889e-18)
(0.618579 0.451357 -5.44694e-19)
(0.674226 0.420142 -5.75691e-19)
(0.720712 0.3873 6.80352e-19)
(0.759943 0.355514 4.43569e-19)
(0.790881 0.327123 1.60817e-18)
(0.0729469 0.151674 -4.83094e-19)
(0.190669 0.317385 1.57728e-19)
(0.306996 0.391121 4.26793e-20)
(0.408544 0.412159 1.25092e-18)
(0.493713 0.404595 -3.12244e-18)
(0.565001 0.382958 5.30482e-19)
(0.624875 0.355824 1.17116e-18)
(0.675628 0.327753 -1.41584e-18)
(0.718943 0.300911 4.9877e-19)
(0.754404 0.276897 -2.31478e-18)
(0.0529483 0.12383 1.0296e-19)
(0.150118 0.257633 5.55398e-19)
(0.258728 0.315982 2.16008e-19)
(0.358953 0.331699 2.92755e-19)
(0.445949 0.324641 5.60903e-19)
(0.520513 0.306613 1.66986e-18)
(0.584163 0.284491 -2.04446e-18)
(0.638664 0.261884 -1.15142e-18)
(0.685531 0.240442 1.90802e-19)
(0.724911 0.221195 1.50109e-18)
(0.0370328 0.0916936 -6.22636e-19)
(0.118114 0.189958 -7.40461e-20)
(0.220879 0.232166 -6.20383e-19)
(0.320294 0.243028 8.83603e-20)
(0.408916 0.237338 -5.31047e-19)
(0.486192 0.223804 -6.06281e-19)
(0.552898 0.207446 -9.03483e-19)
(0.610391 0.19087 2.43449e-18)
(0.660074 0.175234 4.19965e-19)
(0.702569 0.16115 -6.40175e-19)
(0.0259735 0.0563445 3.35583e-19)
(0.096005 0.116397 4.4354e-19)
(0.194851 0.141932 1.74718e-19)
(0.293817 0.148297 -9.43034e-19)
(0.383646 0.144618 -4.39006e-19)
(0.462851 0.13623 -9.45362e-20)
(0.5317 0.126188 1.84707e-19)
(0.591271 0.116069 1.48313e-19)
(0.642899 0.106554 -1.14672e-18)
(0.687555 0.0979602 6.58017e-19)
(0.0203067 0.0190066 -1.7476e-19)
(0.0847156 0.0392085 -1.98806e-19)
(0.181596 0.0477556 1.58444e-19)
(0.280366 0.0498514 1.40666e-19)
(0.370836 0.0485804 1.44161e-19)
(0.451042 0.0457394 2.20458e-19)
(0.520993 0.0423538 -1.15972e-20)
(0.581628 0.038951 -2.89161e-19)
(0.634248 0.0357565 2.74648e-19)
(0.680009 0.0328672 -4.13212e-19)
(0.0203066 -0.0190045 -1.75908e-19)
(0.0847155 -0.039204 -1.89455e-19)
(0.181595 -0.0477499 1.74592e-19)
(0.280366 -0.0498451 3.41821e-19)
(0.370836 -0.0485741 2.27747e-19)
(0.451041 -0.0457333 -3.00082e-19)
(0.520993 -0.0423481 -1.63046e-19)
(0.581627 -0.0389457 7.11105e-20)
(0.634248 -0.0357517 1.59853e-19)
(0.680009 -0.0328628 -9.51869e-20)
(0.0259733 -0.0563424 4.19785e-19)
(0.0960045 -0.116392 -5.3347e-19)
(0.19485 -0.141926 -4.43618e-20)
(0.293817 -0.148291 2.95564e-19)
(0.383646 -0.144612 -1.33623e-18)
(0.46285 -0.136224 5.70936e-19)
(0.5317 -0.126183 5.89331e-19)
(0.591271 -0.116063 -6.9571e-19)
(0.642899 -0.106549 6.64531e-19)
(0.687554 -0.0979558 -2.91689e-19)
(0.0370324 -0.0916916 -7.25797e-20)
(0.118113 -0.189954 -9.25064e-21)
(0.220878 -0.232161 -1.44082e-18)
(0.320293 -0.243022 -4.58307e-19)
(0.408915 -0.237332 -4.82771e-20)
(0.486191 -0.223798 -7.53938e-19)
(0.552897 -0.20744 1.40474e-18)
(0.610391 -0.190865 -4.93878e-20)
(0.660073 -0.17523 8.02088e-19)
(0.702568 -0.161146 -7.05198e-19)
(0.0529478 -0.123828 1.2257e-19)
(0.150116 -0.257628 -5.67369e-19)
(0.258727 -0.315976 1.74587e-18)
(0.358951 -0.331693 2.47071e-19)
(0.445948 -0.324635 1.21449e-18)
(0.520512 -0.306608 -1.18725e-18)
(0.584162 -0.284486 1.24634e-18)
(0.638663 -0.261879 -8.98597e-19)
(0.685529 -0.240438 -3.94637e-19)
(0.72491 -0.221191 3.35186e-19)
(0.0729463 -0.151672 1.09431e-18)
(0.190668 -0.317381 2.80787e-21)
(0.306994 -0.391115 -1.83973e-18)
(0.408542 -0.412153 -5.33721e-19)
(0.493711 -0.404589 1.77228e-18)
(0.564999 -0.382953 -1.03859e-18)
(0.624873 -0.355818 -1.20232e-18)
(0.675626 -0.327748 1.08179e-18)
(0.718942 -0.300907 -7.36421e-19)
(0.754403 -0.276893 -1.58778e-19)
(0.0960509 -0.174337 -1.63364e-19)
(0.238038 -0.36748 -7.72863e-21)
(0.363862 -0.455621 1.99623e-18)
(0.467429 -0.482517 1.14461e-18)
(0.550842 -0.475501 -1.34973e-18)
(0.618576 -0.451351 1.63428e-18)
(0.674224 -0.420136 -1.77318e-18)
(0.72071 -0.387295 1.76506e-19)
(0.759942 -0.35551 5.28175e-19)
(0.790879 -0.327119 1.22195e-18)
(0.121121 -0.19116 1.87142e-19)
(0.29017 -0.406557 3.01301e-19)
(0.427129 -0.507901 3.27649e-19)
(0.5336 -0.541233 -1.05407e-18)
(0.615645 -0.535985 -1.8774e-18)
(0.679901 -0.510615 3.95374e-19)
(0.731217 -0.476427 1.1443e-18)
(0.773248 -0.439619 -3.27525e-19)
(0.808177 -0.403346 1.97155e-18)
(0.834259 -0.370859 -1.92183e-18)
(0.146898 -0.201726 -1.05927e-18)
(0.344737 -0.433658 4.06771e-19)
(0.494254 -0.546783 -1.09893e-18)
(0.604681 -0.587139 1.77649e-18)
(0.686074 -0.585019 8.88337e-19)
(0.747309 -0.559929 1.25423e-18)
(0.794599 -0.524077 -2.90128e-19)
(0.832438 -0.484251 1.14369e-18)
(0.863356 -0.443955 -2.42127e-18)
(0.884661 -0.407469 -6.31264e-19)
(0.172056 -0.20588 6.25442e-20)
(0.399217 -0.448265 -7.11279e-19)
(0.562408 -0.571539 -1.13823e-18)
(0.677947 -0.619489 -4.82565e-19)
(0.759681 -0.622012 -1.36351e-18)
(0.818719 -0.59899 -1.38814e-19)
(0.862711 -0.563185 1.18777e-19)
(0.897131 -0.521734 -5.32696e-19)
(0.925134 -0.47815 -5.95542e-19)
(0.942621 -0.437382 1.57047e-18)
(0.195256 -0.203733 3.34445e-19)
(0.450983 -0.450308 4.66716e-19)
(0.628535 -0.581875 8.36547e-19)
(0.750292 -0.637913 3.72388e-20)
(0.833413 -0.646762 5.58481e-19)
(0.891081 -0.628051 -7.64426e-19)
(0.932333 -0.594732 2.33434e-18)
(0.963592 -0.553873 -1.03054e-18)
(0.989476 -0.507889 -5.06301e-19)
(1.00634 -0.460994 -1.52688e-18)
(0.21524 -0.195661 -1.31616e-19)
(0.49745 -0.440144 2.31531e-19)
(0.689494 -0.577817 -2.37459e-19)
(0.818292 -0.642119 1.28246e-19)
(0.903451 -0.658822 -1.51611e-19)
(0.959724 -0.646833 -3.89045e-19)
(0.997304 -0.619357 5.11718e-19)
(1.02319 -0.584693 -1.67799e-19)
(1.04273 -0.547992 2.5969e-19)
(1.05905 -0.515012 -5.66787e-19)
(0.230947 -0.182318 -6.7473e-21)
(0.53635 -0.418576 -1.08087e-19)
(0.742563 -0.559682 2.34996e-20)
(0.879274 -0.63163 1.43059e-19)
(0.967588 -0.656558 -6.58886e-20)
(1.02338 -0.651783 1.78728e-20)
(1.05791 -0.62996 -1.70161e-20)
(1.07894 -0.599646 -3.80855e-19)
(1.09216 -0.566608 -1.77212e-19)
(1.10257 -0.534683 -5.56652e-19)
(0.241606 -0.164643 -9.66771e-20)
(0.565862 -0.386989 3.41267e-19)
(0.785486 -0.528522 -2.12565e-19)
(0.931067 -0.60696 -7.81958e-20)
(1.02423 -0.640037 3.70649e-20)
(1.08149 -0.642879 6.90255e-20)
(1.11504 -0.627174 -6.36997e-21)
(1.13353 -0.601444 2.88446e-19)
(1.14306 -0.571965 -2.49717e-19)
(1.14923 -0.541858 -3.40474e-21)
(0.246774 -0.143792 -2.37386e-19)
(0.584651 -0.347292 -1.48962e-19)
(0.816384 -0.486112 -3.69717e-19)
(0.97163 -0.569504 4.20694e-19)
(1.0715 -0.610389 -3.08153e-20)
(1.13252 -0.621286 1.37492e-19)
(1.16745 -0.612592 1.56223e-19)
(1.18563 -0.59248 -5.6679e-20)
(1.19359 -0.56741 4.75674e-20)
(1.19714 -0.539997 -1.53402e-19)
(0.246329 -0.12102 -1.61353e-19)
(0.591911 -0.301739 -2.07251e-19)
(0.833806 -0.434721 3.12507e-19)
(0.999086 -0.521168 -4.69892e-19)
(1.10731 -0.569099 8.25207e-20)
(1.17433 -0.588151 4.18352e-20)
(1.21292 -0.587106 9.21169e-20)
(1.23278 -0.573465 -6.04662e-20)
(1.24082 -0.553574 -7.27123e-20)
(1.24295 -0.529691 -2.41506e-19)
(0.240455 -0.0975749 6.72681e-19)
(0.587399 -0.252744 -5.26363e-19)
(0.836831 -0.376943 2.45578e-20)
(1.01191 -0.464241 -6.74915e-19)
(1.12973 -0.517991 -1.96103e-19)
(1.20475 -0.544836 1.56947e-19)
(1.24919 -0.55171 1.15075e-19)
(1.27277 -0.54515 -3.83948e-19)
(1.28257 -0.531156 1.69303e-19)
(1.28457 -0.511723 -3.04818e-19)
(0.229608 -0.0746175 3.33724e-19)
(0.571441 -0.202729 -3.30273e-19)
(0.825157 -0.315552 1.18562e-18)
(1.00909 -0.401313 9.46328e-20)
(1.13715 -0.459222 2.68941e-19)
(1.22179 -0.493018 9.60129e-19)
(1.27415 -0.507654 -1.99386e-19)
(1.30351 -0.508474 4.8819e-20)
(1.31694 -0.500925 -2.82037e-20)
(1.32032 -0.486762 -4.9743e-20)
(0.214467 -0.0531546 2.57199e-19)
(0.544903 -0.153978 5.84564e-19)
(0.799134 -0.253343 -5.95988e-19)
(0.990214 -0.335151 -1.81122e-19)
(1.12845 -0.395214 -1.91848e-19)
(1.2238 -0.434641 3.77447e-19)
(1.28582 -0.456405 -1.78201e-19)
(1.32296 -0.464511 4.20354e-19)
(1.34197 -0.463668 1.01342e-19)
(1.34847 -0.45538 -1.78178e-19)
(0.195879 -0.0339943 -2.77835e-19)
(0.509125 -0.108515 2.57841e-19)
(0.759765 -0.19299 -5.29428e-19)
(0.955555 -0.268575 2.21695e-19)
(1.10308 -0.328573 -2.22226e-19)
(1.20952 -0.371893 -2.64319e-19)
(1.28248 -0.39967 -2.05164e-19)
(1.32918 -0.414525 2.26396e-19)
(1.35574 -0.420291 -3.93739e-19)
(1.36721 -0.418187 2.49247e-19)
(0.174798 -0.0177201 -1.04078e-19)
(0.46583 -0.0680036 -2.04266e-19)
(0.708659 -0.136901 9.60936e-20)
(0.906101 -0.204323 7.08732e-21)
(1.0612 -0.261997 7.65014e-20)
(1.17831 -0.307175 1.09634e-19)
(1.26283 -0.339425 9.33989e-20)
(1.32046 -0.360043 -1.26358e-19)
(1.35635 -0.371909 1.03065e-19)
(1.37471 -0.375937 -1.62828e-19)
(0.152214 -0.00468147 -6.55812e-20)
(0.417003 -0.0336809 -2.64339e-20)
(0.647936 -0.0870983 9.85224e-20)
(0.843531 -0.144917 -4.44417e-20)
(1.0037 -0.198172 1.24416e-19)
(1.13018 -0.243047 -1.57277e-19)
(1.22611 -0.277908 4.03928e-20)
(1.29545 -0.302897 3.46797e-20)
(1.3421 -0.319934 -1.24116e-20)
(1.36919 -0.329623 5.69021e-20)
(0.129093 0.00499666 -7.86712e-20)
(0.364758 -0.0063234 -3.33588e-19)
(0.5801 -0.045129 -2.68781e-20)
(0.770142 -0.0925305 1.07279e-20)
(0.932273 -0.139637 -4.62877e-19)
(1.06595 -0.182132 4.88797e-20)
(1.17225 -0.217595 -5.17865e-20)
(1.2533 -0.245259 -1.40906e-19)
(1.3116 -0.266154 3.11884e-19)
(1.34894 -0.28058 -5.67449e-19)
(0.106314 0.0113896 -4.46038e-20)
(0.311196 0.0137513 7.15511e-19)
(0.507864 -0.0119993 9.54576e-20)
(0.688713 -0.0488719 -6.46428e-19)
(0.849278 -0.0886425 -7.73852e-20)
(0.987269 -0.126988 -7.29146e-19)
(1.10198 -0.16111 5.67018e-19)
(1.19386 -0.189628 -2.30196e-19)
(1.26395 -0.212792 4.36306e-19)
(1.3126 -0.230605 -3.85004e-19)
(0.0846302 0.0147371 -2.52276e-19)
(0.258281 0.0266549 2.93802e-19)
(0.433981 0.0118528 -2.05236e-19)
(0.602329 -0.0150779 1.41866e-18)
(0.757672 -0.04699 7.51037e-19)
(0.896544 -0.0799332 -1.9669e-19)
(1.01691 -0.111087 7.64829e-19)
(1.11785 -0.138746 -5.0014e-19)
(1.19901 -0.162505 -1.60927e-19)
(1.2593 -0.182031 1.1623e-18)
(0.0646357 0.0154031 -4.66399e-19)
(0.207732 0.0328775 6.9643e-19)
(0.361061 0.0265587 -1.32085e-18)
(0.514156 0.00836667 2.28652e-19)
(0.660776 -0.0158715 5.70189e-19)
(0.796837 -0.0428329 -7.16504e-19)
(0.919503 -0.0699436 -1.2692e-18)
(1.02688 -0.0954131 6.80414e-19)
(1.11749 -0.118277 -8.85012e-19)
(1.18898 -0.137721 1.41632e-18)
(0.0467604 0.0138377 -1.15292e-19)
(0.160955 0.0332332 -7.01001e-19)
(0.291412 0.0328051 3.46036e-19)
(0.427213 0.0216977 8.65803e-19)
(0.562004 0.00430287 -4.65059e-19)
(0.691578 -0.0168309 -4.59004e-19)
(0.81281 -0.0395549 -7.78319e-19)
(0.923352 -0.0621638 -3.56673e-19)
(1.02101 -0.0831554 -8.56761e-20)
(1.1024 -0.100912 1.41537e-18)
(0.0312833 0.0105521 1.93619e-19)
(0.119016 0.0288116 -9.5236e-19)
(0.226936 0.0318121 1.62912e-18)
(0.344156 0.0259286 -9.0715e-19)
(0.464563 0.014086 5.87848e-19)
(0.584196 -0.00202004 -7.31468e-19)
(0.700117 -0.0207885 8.14706e-19)
(0.810086 -0.0407217 7.11567e-19)
(0.911735 -0.0597262 1.55469e-18)
(1.00106 -0.0747898 -2.57027e-18)
(0.018363 0.00610831 -6.01618e-19)
(0.0826475 0.0209371 1.2082e-18)
(0.169067 0.0252933 1.61507e-20)
(0.267141 0.0228713 -4.35208e-19)
(0.371198 0.0151517 -2.31082e-19)
(0.477746 0.00292755 1.84765e-19)
(0.584387 -0.0128705 -1.31175e-18)
(0.689565 -0.0311308 1.01348e-18)
(0.791497 -0.049172 -1.30618e-18)
(0.886203 -0.0616516 -5.96172e-19)
(0.00806922 0.00111406 1.03537e-18)
(0.05229 0.0111116 -3.22985e-19)
(0.118809 0.0153596 -6.05992e-19)
(0.197827 0.0150605 1.64589e-18)
(0.28415 0.0103328 -1.61688e-18)
(0.374728 0.00103728 9.03434e-19)
(0.46775 -0.0127378 9.62263e-19)
(0.562648 -0.030681 2.63329e-19)
(0.659072 -0.0500777 2.73865e-19)
(0.754728 -0.0622344 -3.88433e-19)
(0.000395852 -0.00380292 -9.90256e-19)
(0.0281429 0.000892071 9.41315e-19)
(0.0768556 0.00430224 -8.33069e-19)
(0.137632 0.00550272 1.0453e-18)
(0.205646 0.00349584 -3.12295e-19)
(0.277937 -0.00264215 -1.08476e-18)
(0.352667 -0.0136479 3.11073e-19)
(0.429432 -0.0304632 -5.13237e-19)
(0.509209 -0.0523524 -6.07872e-19)
(0.594349 -0.0693452 -1.89622e-18)
(-0.00476499 -0.00808093 -1.23718e-18)
(0.0101671 -0.00836843 9.83623e-19)
(0.0436824 -0.0059104 -1.92736e-18)
(0.0880559 -0.00316999 3.44666e-19)
(0.138832 -0.00170597 -1.33541e-18)
(0.19291 -0.0024803 -8.00994e-19)
(0.247716 -0.00581558 1.91697e-18)
(0.301312 -0.0119309 -2.62094e-18)
(0.353054 -0.0214209 5.04488e-19)
(0.400218 -0.0301442 -8.3108e-19)
(-0.00767829 -0.0113436 6.09437e-19)
(-0.00202889 -0.0158249 2.5792e-19)
(0.0192869 -0.0142977 -7.67591e-20)
(0.0501146 -0.0102643 7.32474e-19)
(0.0867722 -0.0056122 2.15104e-18)
(0.126686 -0.00130193 7.42484e-19)
(0.167846 0.00247577 7.67249e-19)
(0.209055 0.00577064 -2.65283e-19)
(0.250388 0.00792605 -2.47521e-18)
(0.289288 0.00935863 6.27705e-19)
(-0.00878107 -0.0134212 -1.72082e-19)
(-0.00931623 -0.021074 5.47727e-19)
(0.00267084 -0.0204805 -1.43493e-19)
(0.0227759 -0.0157853 1.01317e-18)
(0.0482311 -0.00916281 -2.34257e-18)
(0.0770905 -0.00177292 1.98878e-19)
(0.107926 0.00585749 -1.11502e-18)
(0.139959 0.0133215 1.6409e-18)
(0.173011 0.0196552 -4.79591e-19)
(0.204426 0.0241707 -6.85299e-20)
(-0.00858616 -0.0143019 -1.17142e-19)
(-0.0128233 -0.0239958 -6.58699e-19)
(-0.00769472 -0.0242899 1.65672e-18)
(0.00411053 -0.0195985 -8.73497e-19)
(0.0207053 -0.0122885 6.13718e-20)
(0.0406793 -0.00373645 2.80333e-19)
(0.0629927 0.00519007 -2.56254e-19)
(0.0870252 0.0136993 3.33e-19)
(0.112362 0.0206907 1.15403e-18)
(0.136803 0.0253672 3.01996e-19)
(-0.00758283 -0.0140728 -2.62781e-19)
(-0.01369 -0.0246568 -2.92298e-19)
(-0.0134158 -0.0256845 -1.29741e-18)
(-0.00789753 -0.0214867 6.90855e-19)
(0.00177038 -0.0144583 -1.425e-18)
(0.0146264 -0.00607259 3.23724e-19)
(0.0299115 0.00264149 3.64022e-19)
(0.0470857 0.0107746 -3.84751e-19)
(0.0656313 0.0173173 -2.48944e-19)
(0.0839061 0.021546 -1.11875e-18)
(-0.00618662 -0.0128737 2.05307e-19)
(-0.0129364 -0.0232507 -4.82981e-20)
(-0.0159732 -0.0247528 9.70962e-22)
(-0.0151179 -0.0213214 -6.23545e-19)
(-0.0107892 -0.0151958 1.57848e-18)
(-0.00358003 -0.00779808 -2.46208e-19)
(0.00596567 -0.000151198 -6.14455e-19)
(0.0173738 0.00689121 7.52075e-19)
(0.030108 0.0125118 -2.64308e-19)
(0.0430092 0.0161123 1.46091e-18)
(-0.0047239 -0.0108671 -3.85372e-20)
(-0.0114014 -0.0200546 -2.25936e-19)
(-0.0166121 -0.0217073 -8.91715e-20)
(-0.0191252 -0.019131 -1.13922e-19)
(-0.0188143 -0.0142426 -2.44924e-19)
(-0.0159776 -0.00828008 -7.69171e-19)
(-0.0109873 -0.00213823 9.62154e-19)
(-0.00425076 0.00347369 5.62069e-19)
(0.00371898 0.00794587 -1.00683e-19)
(0.0121308 0.0108187 -8.96085e-19)
(-0.0034358 -0.00822387 2.18847e-19)
(-0.00972722 -0.0154045 3.82379e-20)
(-0.0162984 -0.0168762 2.58848e-19)
(-0.0211368 -0.0151251 -2.96329e-20)
(-0.0237056 -0.0116129 2.35701e-19)
(-0.0240798 -0.00729132 2.65934e-19)
(-0.0224977 -0.00284643 3.98704e-19)
(-0.0193038 0.00119889 -1.12947e-18)
(-0.0149768 0.00442785 -2.08473e-19)
(-0.0100497 0.00651649 3.73622e-19)
(-0.00248987 -0.00512006 -1.1051e-19)
(-0.00837058 -0.00968077 -1.57064e-19)
(-0.0157238 -0.010689 -7.55532e-20)
(-0.022021 -0.00968507 3.6955e-19)
(-0.0264513 -0.00758218 1.7938e-19)
(-0.0289384 -0.00497724 3.67878e-20)
(-0.0296277 -0.00229864 -7.97581e-20)
(-0.0288152 0.000135274 -6.18727e-20)
(-0.02695 0.00208278 5.311e-19)
(-0.0244032 0.00335123 -3.61717e-19)
(-0.00199151 -0.00173677 5.63373e-20)
(-0.00762196 -0.00329806 7.00965e-20)
(-0.0153296 -0.00365472 -5.97693e-20)
(-0.0223298 -0.00332811 -5.4668e-20)
(-0.0276743 -0.00262849 -5.66827e-20)
(-0.0312106 -0.00175896 -9.04481e-20)
(-0.033036 -0.000864902 2.90407e-21)
(-0.03342 -5.30105e-05 1.25498e-19)
(-0.0327957 0.000597621 -1.26013e-19)
(-0.0314564 0.00102308 2.29269e-19)
(-0.00794613 -0.00258642 1.6583e-20)
(0.0624578 -0.00664322 9.96745e-21)
(0.277802 -0.00676964 1.35549e-21)
(0.378494 -0.00440844 -9.11103e-22)
(0.479785 -0.00367983 -6.19463e-23)
(0.556667 -0.00260522 1.53402e-22)
(0.606854 -0.00216954 1.87049e-22)
(0.665026 -0.00161486 -4.13624e-23)
(0.686671 -0.00156022 -1.82593e-24)
(0.740634 -0.00112377 2.44613e-22)
(0.00886689 -0.00808149 2.62674e-20)
(0.0777186 -0.0197374 1.20686e-21)
(0.289316 -0.0200863 -1.7655e-20)
(0.387239 -0.0130798 1.42611e-20)
(0.486505 -0.0110295 9.18376e-22)
(0.561893 -0.00786143 -6.30386e-22)
(0.611139 -0.00655946 7.7145e-22)
(0.668386 -0.00484215 9.13038e-23)
(0.689615 -0.00454763 2.12035e-22)
(0.742851 -0.00327852 -2.24595e-22)
(0.0421945 -0.0144568 2.69432e-20)
(0.107759 -0.0323508 -3.62788e-20)
(0.31191 -0.0329427 1.80317e-20)
(0.404419 -0.0214503 -1.18332e-20)
(0.499717 -0.0181516 8.55438e-22)
(0.572173 -0.0129658 -6.75529e-22)
(0.61958 -0.010834 -2.95314e-22)
(0.674996 -0.00798841 8.48708e-24)
(0.695418 -0.0074684 -1.61959e-22)
(0.747222 -0.00539218 -3.2796e-22)
(0.0914331 -0.0221906 -4.16812e-20)
(0.151658 -0.0441843 -5.02783e-20)
(0.34475 -0.045053 -2.32996e-20)
(0.429431 -0.029336 1.23024e-20)
(0.518967 -0.0249057 -1.50569e-20)
(0.58719 -0.0178246 4.02597e-21)
(0.631933 -0.0149215 -2.39412e-22)
(0.684703 -0.0110036 1.61892e-22)
(0.703956 -0.010281 -1.8812e-22)
(0.753685 -0.00743842 1.21538e-22)
(0.155648 -0.0315553 1.15453e-19)
(0.208086 -0.0549502 7.27375e-20)
(0.386641 -0.0561533 2.61956e-20)
(0.461405 -0.0365751 -2.39108e-20)
(0.543604 -0.0311674 1.23908e-20)
(0.606475 -0.0223547 3.30536e-21)
(0.647844 -0.0187572 2.47824e-21)
(0.697249 -0.0138418 3.08702e-22)
(0.71503 -0.0129467 4.39926e-22)
(0.762109 -0.00939288 -6.43723e-22)
(0.233554 -0.0424779 -5.10701e-20)
(0.275366 -0.0643335 3.8985e-20)
(0.436098 -0.0659896 4.83726e-21)
(0.499262 -0.0430242 2.67448e-20)
(0.572819 -0.0368293 -6.10786e-21)
(0.629447 -0.0264853 -3.8641e-21)
(0.666868 -0.0222855 -2.55209e-21)
(0.712325 -0.0164636 -2.24631e-22)
(0.728394 -0.0154315 -2.2013e-22)
(0.772342 -0.0112331 6.84485e-22)
(0.323519 -0.0546775 -3.86945e-20)
(0.351526 -0.0720694 -1.01276e-19)
(0.491415 -0.0743587 -1.72135e-20)
(0.541767 -0.0485677 -1.48445e-20)
(0.605692 -0.0418083 7.21094e-21)
(0.655439 -0.030161 -2.05487e-21)
(0.688495 -0.0254617 2.66204e-21)
(0.729565 -0.0188368 5.4667e-22)
(0.743758 -0.017707 -6.67606e-23)