1.45 	0 	0 	-0.305683
2.35 	0 	0 	-0.133333
