1.275 	2.15223e-18 	-2.76991e-20 	-0.0343647 	-0.000446847 	-1.93938e-22
1.825 	2.15223e-18 	-1.39322e-20 	-0.00928677 	-0.00277788 	1.72567e-21
2.375 	2.15223e-18 	-2.66896e-23 	0.115808 	-0.00326035 	-7.20182e-22
