/*--------------------------------*- C++ -*----------------------------------*\
  =========                 |
  \\      /  F ield         | OpenFOAM: The Open Source CFD Toolbox
   \\    /   O peration     | Website:  https://openfoam.org
    \\  /    A nd           | Version:  6.0
     \\/     M anipulation  |
\*---------------------------------------------------------------------------*/
FoamFile
{
    version     2.0;
    format      ascii;
    class       surfaceScalarField;
    location    "60";
    object      phi;
}
// * * * * * * * * * * * * * * * * * * * * * * * * * * * * * * * * * * * * * //

dimensions      [0 3 -1 0 0 0 0];

internalField   nonuniform List<scalar> 
3880
(
-1.79759e-05
1.79757e-05
2.26967e-10
-5.34935e-05
3.55171e-05
5.33962e-10
-9.53857e-05
4.18915e-05
7.45661e-10
-0.000136588
4.12011e-05
8.86313e-10
-0.000172739
3.61505e-05
9.75102e-10
-0.000201429
2.86889e-05
1.02793e-09
-0.000221725
2.02946e-05
1.05772e-09
-0.000233864
1.21382e-05
1.07508e-09
-0.000239054
5.1891e-06
1.08931e-09
2.21628e-07
1.10781e-09
-0.000239277
-1.72974e-05
3.5273e-05
-5.0845e-05
6.90647e-05
-8.96143e-05
8.06607e-05
-0.000126653
7.82397e-05
-0.000157642
6.71393e-05
-0.000180136
5.11833e-05
-0.000193116
3.32748e-05
-0.000196721
1.57427e-05
-0.000192102
5.69773e-07
-1.06062e-05
-0.000181274
-1.5905e-05
5.1178e-05
-4.54314e-05
9.85911e-05
-7.78678e-05
0.000113097
-0.000106531
0.000106903
-0.000127228
8.7836e-05
-0.000137482
6.14376e-05
-0.000136117
3.19099e-05
-0.000123064
2.68957e-06
-9.93378e-05
-2.31566e-05
-4.29383e-05
-6.70058e-05
-1.37115e-05
6.48895e-05
-3.69707e-05
0.00012185
-5.96375e-05
0.000135764
-7.55365e-05
0.000122802
-8.07744e-05
9.3074e-05
-7.29306e-05
5.35939e-05
-5.06545e-05
9.63371e-06
-1.3561e-05
-3.44039e-05
3.76035e-05
-7.43211e-05
-0.000106084
0.000100749
-1.05535e-05
7.5443e-05
-2.49451e-05
0.000136242
-3.39537e-05
0.000144772
-3.2251e-05
0.000121099
-1.65513e-05
7.73742e-05
1.5272e-05
2.17706e-05
6.46286e-05
-3.9723e-05
0.000132281
-0.000102056
0.00021795
-0.00015999
-0.000207773
0.000319639
-6.17989e-06
8.16229e-05
-8.56627e-06
0.000138628
7.20624e-07
0.000135486
2.57459e-05
9.60741e-05
6.87363e-05
3.43838e-05
0.000131055
-4.05486e-05
0.000213788
-0.000122455
0.000317942
-0.000206211
0.000443941
-0.000285988
-0.000353886
0.000590053
-2.78743e-07
8.19016e-05
1.31414e-05
0.000125208
4.63778e-05
0.000102249
0.000101845
4.06071e-05
0.00018019
-4.39611e-05
0.000281299
-0.000141658
0.000405088
-0.000246244
0.000552112
-0.000353236
0.000723456
-0.000457332
-0.000548649
0.000918219
7.43359e-06
7.4468e-05
4.10605e-05
9.15812e-05
0.000104943
3.83665e-05
0.000199675
-5.41252e-05
0.000323965
-0.00016825
0.000475437
-0.000293131
0.000651478
-0.000422285
0.000850383
-0.00055214
0.00107262
-0.000679567
-0.000797584
0.00132155
1.70651e-05
5.7403e-05
7.55048e-05
3.31415e-05
0.000177308
-6.34367e-05
0.000321561
-0.000198378
0.000505314
-0.000352004
0.000723804
-0.00051162
0.000970755
-0.000669236
0.00123935
-0.000820739
0.00152584
-0.000966055
-0.00111588
0.00184414
2.835e-05
2.9053e-05
0.000115559
-5.40679e-05
0.000261833
-0.00020971
0.000465768
-0.000402313
0.000724575
-0.000610811
0.00103379
-0.000820833
0.00138661
-0.00102206
0.00177225
-0.00120638
0.00217501
-0.00136881
-0.00151334
0.00257247
4.04745e-05
-1.14215e-05
0.000158373
-0.000171967
0.000352085
-0.000403422
0.000620346
-0.000670575
0.00096254
-0.000953005
0.00137936
-0.00123766
0.00187406
-0.00151676
0.00245574
-0.00178806
0.00314734
-0.00206041
-0.00237217
0.00400617
5.23589e-05
-6.37804e-05
0.000199953
-0.00031956
0.000438002
-0.000641471
0.000762997
-0.000995569
0.00117226
-0.00136226
0.00166391
-0.00172931
0.0022369
-0.00208975
0.00289037
-0.00244153
0.00361882
-0.00278885
-0.00314077
0.00438742
6.34845e-05
-0.000127265
0.000238249
-0.000494325
0.000514861
-0.000918083
0.000885309
-0.00136602
0.00134183
-0.00181879
0.0018763
-0.00226378
0.00247951
-0.00269297
0.00313969
-0.0031017
0.00383824
-0.00348741
-0.00384397
0.00454145
7.38712e-05
-0.000201136
0.000272987
-0.000693442
0.000582119
-0.00122721
0.000987484
-0.00177138
0.00147521
-0.00230651
0.00203069
-0.00281926
0.00263815
-0.00330042
0.00327987
-0.00374341
0.00393458
-0.00414212
-0.00448535
0.00457596
8.36624e-05
-0.000284799
0.000304312
-0.000914091
0.000640046
-0.00156295
0.00107069
-0.00220202
0.00157622
-0.00281204
0.00213646
-0.0033795
0.0027312
-0.00389517
0.00334036
-0.00435257
0.0039438
-0.00474556
-0.00506324
0.00452169
9.2848e-05
-0.000377646
0.000331966
-0.00115321
0.000688071
-0.00191905
0.00113437
-0.00264832
0.00164513
-0.00332281
0.00219582
-0.00393019
0.00276372
-0.00446307
0.00332854
-0.00491739
0.00387285
-0.00528987
-0.00557322
0.00438282
0.000101184
-0.000478831
0.000355066
-0.00140709
0.000724483
-0.00228847
0.00117614
-0.00309998
0.00167935
-0.00382602
0.00220662
-0.00445746
0.00273444
-0.00499089
0.00324398
-0.00542693
0.00372141
-0.00576731
-0.00601041
0.00415861
0.000108241
-0.000587072
0.000372269
-0.00167112
0.000746862
-0.00266306
0.0011927
-0.00354581
0.00167529
-0.00430862
0.00216569
-0.00494786
0.00264125
-0.00546645
0.0030859
-0.00587158
0.00349007
-0.00617148
-0.00637123
0.00385088
0.000113495
-0.000700568
0.00038206
-0.00193968
0.000752694
-0.0030337
0.00118098
-0.0039741
0.00163007
-0.0047577
0.00207123
-0.00538902
0.00248414
-0.00587936
0.00285648
-0.00624392
0.00318317
-0.00649816
-0.00665403
0.00346597
0.000116416
-0.000816983
0.000383025
-0.00220629
0.000739894
-0.00339057
0.0011389
-0.00437311
0.00154253
-0.00516133
0.00192389
-0.00577038
0.00226619
-0.00622165
0.00256143
-0.00653915
0.00280888
-0.00674562
-0.00685927
0.00301412
0.000116537
-0.00093352
0.00037406
-0.00246382
0.000707145
-0.00372365
0.00106577
-0.00473174
0.00141355
-0.00550911
0.00172689
-0.00608373
0.00199335
-0.00648811
0.00220937
-0.00675518
0.00237813
-0.00691437
-0.00698915
0.002508
0.000113457
-0.00104698
0.000354398
-0.00270476
0.000653936
-0.00402319
0.000962217
-0.00504002
0.00124578
-0.00579267
0.00148546
-0.00632341
0.00167352
-0.00667618
0.0018106
-0.00689226
0.00190304
-0.0070068
-0.00704715
0.00196104
0.000106917
-0.00115389
0.000323755
-0.00292159
0.000580685
-0.00428012
0.000830233
-0.00528957
0.00104342
-0.00600586
0.00120626
-0.00648624
0.0013157
-0.00678562
0.001376
-0.00695256
0.00139579
-0.00702659
-0.0070376
0.00138624
9.67703e-05
-0.00125066
0.000282254
-0.00310708
0.000488542
-0.00448641
0.000672712
-0.00547373
0.000811537
-0.00614469
0.000896525
-0.00657123
0.000928986
-0.00681808
0.000915981
-0.00693956
0.000867566
-0.00697818
-0.00696516
0.000795132
8.29983e-05
-0.00133366
0.000230411
-0.00325449
0.000379273
-0.00463527
0.000493178
-0.00558764
0.000555545
-0.00620706
0.000563394
-0.00657908
0.000521778
-0.00677647
0.000439704
-0.00685748
0.000327823
-0.0068663
-0.00683459
0.00019725
6.57187e-05
-0.00139938
0.000169111
-0.00335788
0.000255134
-0.00472129
0.000295521
-0.00562803
0.000280841
-0.00619238
0.000213374
-0.00651161
0.000101241
-0.00666433
-4.54345e-05
-0.00671081
-0.000216161
-0.00669557
-0.00665045
-0.000400303
4.52019e-05
-0.00144458
9.9614e-05
-0.0034123
0.00011883
-0.00474051
8.38914e-05
-0.00559309
-7.36671e-06
-0.00610112
-0.000147834
-0.00637114
-0.000326932
-0.00648524
-0.000534091
-0.00650365
-0.000759586
-0.00647008
-0.00641653
-0.000993501
2.18976e-05
-0.00146648
2.35916e-05
-0.00341399
-2.64502e-05
-0.00469047
-0.000137246
-0.00548229
-0.000303965
-0.0059344
-0.000515212
-0.00615989
-0.000758417
-0.00624203
-0.00102294
-0.00623912
-0.00130036
-0.00619266
-0.00613332
-0.00158358
-3.52374e-06
-0.00146296
-5.67992e-05
-0.00336071
-0.000176918
-0.00457035
-0.00036296
-0.00529625
-0.000603848
-0.00569351
-0.000884692
-0.00587905
-0.00119126
-0.00593546
-0.00151272
-0.00591766
-0.00184204
-0.00586335
-0.00579383
-0.00218153
-3.01075e-05
-0.00143285
-0.000138738
-0.00325208
-0.000327726
-0.00438136
-0.000586876
-0.0050371
-0.000900369
-0.00538002
-0.0012516
-0.00552782
-0.00162603
-0.00556103
-0.00201326
-0.00553043
-0.00240933
-0.00546728
-0.00540647
-0.00279668
-5.66202e-05
-0.00137623
-0.000218705
-0.00309
-0.000472465
-0.0041276
-0.000799079
-0.00471049
-0.00117942
-0.00499968
-0.00159758
-0.00510966
-0.00204225
-0.00511636
-0.00250616
-0.00506651
-0.00298843
-0.00498502
-0.00486994
-0.00352496
-8.1986e-05
-0.00129424
-0.000293655
-0.00287833
-0.000605383
-0.00381587
-0.000989448
-0.00432642
-0.00142231
-0.00456682
-0.00188591
-0.00464606
-0.00236727
-0.004635
-0.00285739
-0.00457639
-0.0033501
-0.00449231
-0.00439084
-0.0038292
-0.000105567
-0.00118868
-0.00036221
-0.00262169
-0.000725121
-0.00345296
-0.0011583
-0.00389324
-0.00163423
-0.00409089
-0.00213319
-0.0041471
-0.00264174
-0.00412645
-0.00315089
-0.00406724
-0.00365346
-0.00398974
-0.00390445
-0.00413984
-0.000127019
-0.00106166
-0.000423779
-0.00232493
-0.00083157
-0.00304517
-0.00130721
-0.0034176
-0.00182015
-0.00357795
-0.00234994
-0.00361731
-0.00288351
-0.00359288
-0.00341269
-0.00353806
-0.00393191
-0.00347052
-0.00339976
-0.0044366
-0.000146081
-0.000915576
-0.00047793
-0.00199308
-0.00092455
-0.00259855
-0.00143675
-0.0029054
-0.0019818
-0.0030329
-0.00253907
-0.00306004
-0.00309626
-0.00303569
-0.00364639
-0.00298793
-0.00418547
-0.00293145
-0.00287403
-0.0047112
-0.000162504
-0.000753072
-0.000524205
-0.00163138
-0.00100363
-0.00211913
-0.00154671
-0.00236232
-0.00211914
-0.00246047
-0.00270043
-0.00247875
-0.00327912
-0.00245699
-0.0038493
-0.00241775
-0.00440816
-0.00237259
-0.00232762
-0.00495457
-0.000176038
-0.000577033
-0.000562094
-0.00124532
-0.00106815
-0.00161307
-0.00163633
-0.00179414
-0.00223122
-0.00186558
-0.00283257
-0.00187741
-0.00342968
-0.00185988
-0.00401747
-0.00182996
-0.00459391
-0.00179615
-0.00176296
-0.00515857
-0.000186443
-0.00039059
-0.000591077
-0.000840688
-0.00111738
-0.00108677
-0.00170467
-0.00120685
-0.00231678
-0.00125346
-0.0029337
-0.00126049
-0.00354531
-0.00124828
-0.00414715
-0.00122812
-0.00473767
-0.00120563
-0.00118374
-0.00531689
-0.000193509
-0.000197082
-0.00061069
-0.000423507
-0.00115064
-0.00054682
-0.00175082
-0.00060667
-0.0023746
-0.000629677
-0.00300215
-0.00063294
-0.00362375
-0.000626682
-0.00423532
-0.000616546
-0.00483563
-0.000605315
-0.000594447
-0.00542493
-0.000197082
1.70843e-10
-0.000620589
3.65881e-10
-0.00116741
4.69929e-10
-0.00177408
5.19551e-10
-0.00240376
5.38219e-10
-0.0030367
5.39287e-10
-0.00366338
5.2954e-10
-0.00427993
5.12188e-10
-0.00488524
4.88795e-10
4.60363e-10
-0.00547969
-0.000197082
0.000197082
-0.000620589
0.000423507
-0.00116741
0.000546821
-0.00177408
0.000606671
-0.00240376
0.000629678
-0.0030367
0.000632941
-0.00366338
0.000626684
-0.00427993
0.000616547
-0.00488524
0.000605316
0.000594448
-0.00547969
-0.000193509
0.000390591
-0.00061069
0.000840689
-0.00115064
0.00108677
-0.00175082
0.00120685
-0.0023746
0.00125346
-0.00300215
0.00126049
-0.00362375
0.00124828
-0.00423532
0.00122812
-0.00483563
0.00120563
0.00118375
-0.00542493
-0.000186443
0.000577033
-0.000591077
0.00124532
-0.00111738
0.00161308
-0.00170467
0.00179414
-0.00231678
0.00186558
-0.0029337
0.00187741
-0.00354531
0.00185989
-0.00414715
0.00182996
-0.00473767
0.00179615
0.00176296
-0.00531689
-0.000176038
0.000753072
-0.000562094
0.00163138
-0.00106815
0.00211913
-0.00163633
0.00236232
-0.00223122
0.00246047
-0.00283257
0.00247876
-0.00342968
0.00245699
-0.00401747
0.00241775
-0.00459391
0.00237259
0.00232762
-0.00515857
-0.000162504
0.000915576
-0.000524205
0.00199308
-0.00100363
0.00259855
-0.00154671
0.0029054
-0.00211914
0.0030329
-0.00270043
0.00306004
-0.00327912
0.00303569
-0.0038493
0.00298793
-0.00440816
0.00293145
0.00287403
-0.00495457
-0.000146081
0.00106166
-0.00047793
0.00232493
-0.00092455
0.00304517
-0.00143675
0.00341761
-0.0019818
0.00357795
-0.00253907
0.00361731
-0.00309626
0.00359288
-0.00364639
0.00353806
-0.00418547
0.00347052
0.00339976
-0.0047112
-0.000127019
0.00118868
-0.000423779
0.00262169
-0.00083157
0.00345296
-0.00130721
0.00389324
-0.00182015
0.00409089
-0.00234994
0.0041471
-0.00288351
0.00412645
-0.00341269
0.00406724
-0.00393191
0.00398974
0.00390445
-0.0044366
-0.000105567
0.00129424
-0.00036221
0.00287833
-0.000725121
0.00381587
-0.0011583
0.00432642
-0.00163422
0.00456682
-0.00213319
0.00464606
-0.00264174
0.004635
-0.00315089
0.00457639
-0.00365346
0.00449231
0.00439084
-0.00413984
-8.1986e-05
0.00137623
-0.000293655
0.00309
-0.000605383
0.0041276
-0.000989448
0.00471049
-0.00142231
0.00499968
-0.00188591
0.00510967
-0.00236727
0.00511636
-0.00285739
0.00506651
-0.0033501
0.00498502
0.00486994
-0.0038292
-5.66202e-05
0.00143285
-0.000218705
0.00325208
-0.000472465
0.00438136
-0.000799079
0.0050371
-0.00117942
0.00538002
-0.00159758
0.00552782
-0.00204225
0.00556103
-0.00250616
0.00553043
-0.00298843
0.00546728
0.00540647
-0.00352496
-3.01075e-05
0.00146296
-0.000138738
0.00336071
-0.000327726
0.00457035
-0.000586876
0.00529625
-0.000900368
0.00569351
-0.0012516
0.00587905
-0.00162603
0.00593546
-0.00201326
0.00591766
-0.00240933
0.00586335
0.00579383
-0.00279668
-3.52372e-06
0.00146648
-5.67992e-05
0.00341399
-0.000176918
0.00469047
-0.00036296
0.00548229
-0.000603848
0.0059344
-0.000884692
0.0061599
-0.00119126
0.00624203
-0.00151272
0.00623912
-0.00184204
0.00619267
0.00613332
-0.00218153
2.18976e-05
0.00144458
2.35917e-05
0.0034123
-2.64501e-05
0.00474051
-0.000137246
0.00559309
-0.000303965
0.00610112
-0.000515211
0.00637114
-0.000758416
0.00648524
-0.00102294
0.00650365
-0.00130036
0.00647008
0.00641654
-0.00158358
4.52019e-05
0.00139938
9.96141e-05
0.00335788
0.00011883
0.00472129
8.38916e-05
0.00562803
-7.36654e-06
0.00619238
-0.000147833
0.00651161
-0.000326932
0.00666433
-0.000534091
0.00671081
-0.000759585
0.00669557
0.00665045
-0.000993501
6.57187e-05
0.00133366
0.000169111
0.00325449
0.000255134
0.00463527
0.000295521
0.00558764
0.000280841
0.00620706
0.000213374
0.00657908
0.000101241
0.00677647
-4.54342e-05
0.00685748
-0.000216161
0.0068663
0.00683459
-0.000400302
8.29984e-05
0.00125066
0.000230411
0.00310708
0.000379273
0.00448641
0.000493179
0.00547374
0.000555545
0.00614469
0.000563395
0.00657123
0.000521778
0.00681808
0.000439704
0.00693956
0.000327823
0.00697818
0.00696516
0.000197251
9.67703e-05
0.00115389
0.000282254
0.00292159
0.000488543
0.00428012
0.000672712
0.00528957
0.000811537
0.00600587
0.000896525
0.00648624
0.000928986
0.00678562
0.000915981
0.00695256
0.000867566
0.00702659
0.0070376
0.000795132
0.000106917
0.00104698
0.000323755
0.00270476
0.000580685
0.00402319
0.000830233
0.00504002
0.00104343
0.00579267
0.00120626
0.00632341
0.0013157
0.00667618
0.001376
0.00689226
0.00139579
0.00700681
0.00704715
0.00138624
0.000113457
0.00093352
0.000354398
0.00246382
0.000653936
0.00372365
0.000962218
0.00473174
0.00124578
0.00550911
0.00148546
0.00608373
0.00167352
0.00648811
0.0018106
0.00675518
0.00190304
0.00691437
0.00698915
0.00196104
0.000116537
0.000816983
0.00037406
0.00220629
0.000707145
0.00339057
0.00106577
0.00437312
0.00141355
0.00516133
0.00172689
0.00577039
0.00199335
0.00622166
0.00220937
0.00653915
0.00237813
0.00674562
0.00685927
0.002508
0.000116416
0.000700568
0.000383025
0.00193968
0.000739894
0.0030337
0.0011389
0.0039741
0.00154253
0.0047577
0.00192389
0.00538902
0.00226619
0.00587936
0.00256143
0.00624392
0.00280888
0.00649816
0.00665403
0.00301412
0.000113496
0.000587072
0.00038206
0.00167112
0.000752694
0.00266306
0.00118098
0.00354581
0.00163007
0.00430862
0.00207123
0.00494786
0.00248414
0.00546645
0.00285648
0.00587158
0.00318317
0.00617148
0.00637123
0.00346597
0.000108241
0.000478831
0.000372269
0.00140709
0.000746862
0.00228847
0.0011927
0.00309998
0.00167529
0.00382602
0.00216569
0.00445746
0.00264125
0.00499089
0.0030859
0.00542693
0.00349007
0.00576731
0.00601041
0.00385088
0.000101184
0.000377646
0.000355066
0.00115321
0.000724483
0.00191905
0.00117614
0.00264833
0.00167935
0.00332281
0.00220662
0.00393019
0.00273444
0.00446307
0.00324398
0.00491739
0.00372141
0.00528987
0.00557322
0.00415861
9.2848e-05
0.000284799
0.000331966
0.000914091
0.000688071
0.00156295
0.00113437
0.00220202
0.00164513
0.00281204
0.00219582
0.0033795
0.00276372
0.00389517
0.00332854
0.00435257
0.00387286
0.00474556
0.00506325
0.00438283
8.36625e-05
0.000201136
0.000304312
0.000693442
0.000640046
0.00122721
0.00107069
0.00177138
0.00157622
0.00230651
0.00213646
0.00281926
0.0027312
0.00330042
0.00334036
0.00374341
0.0039438
0.00414213
0.00448535
0.00452169
7.38712e-05
0.000127265
0.000272987
0.000494325
0.000582119
0.000918083
0.000987484
0.00136602
0.00147521
0.00181879
0.00203069
0.00226378
0.00263815
0.00269297
0.00327987
0.0031017
0.00393458
0.00348741
0.00384397
0.00457596
6.34845e-05
6.37804e-05
0.00023825
0.00031956
0.000514861
0.000641471
0.000885309
0.000995569
0.00134183
0.00136226
0.0018763
0.00172931
0.00247951
0.00208975
0.00313969
0.00244153
0.00383825
0.00278885
0.00314077
0.00454145
5.23589e-05
1.14214e-05
0.000199953
0.000171966
0.000438003
0.000403421
0.000762997
0.000670575
0.00117226
0.000953005
0.00166392
0.00123766
0.0022369
0.00151676
0.00289037
0.00178806
0.00361882
0.00206041
0.00237217
0.00438742
4.04745e-05
-2.90531e-05
0.000158373
5.40677e-05
0.000352085
0.00020971
0.000620347
0.000402313
0.00096254
0.000610811
0.00137936
0.000820833
0.00187406
0.00102206
0.00245574
0.00120638
0.00314734
0.00136881
0.00151334
0.00400617
2.835e-05
-5.74031e-05
0.000115559
-3.31418e-05
0.000261833
6.34363e-05
0.000465768
0.000198378
0.000724576
0.000352003
0.00103379
0.00051162
0.00138661
0.000669236
0.00177225
0.000820739
0.00217501
0.000966055
0.00111588
0.00257247
1.70651e-05
-7.44682e-05
7.55049e-05
-9.15816e-05
0.000177308
-3.8367e-05
0.000321561
5.41246e-05
0.000505315
0.00016825
0.000723805
0.00029313
0.000970756
0.000422285
0.00123936
0.000552139
0.00152584
0.000679567
0.000797583
0.00184414
7.43363e-06
-8.19018e-05
4.10606e-05
-0.000125209
0.000104943
-0.00010225
0.000199676
-4.06079e-05
0.000323965
4.39603e-05
0.000475438
0.000141657
0.00065148
0.000246243
0.000850384
0.000353235
0.00107262
0.000457331
0.000548648
0.00132156
-2.78699e-07
-8.16231e-05
1.31416e-05
-0.000138629
4.63781e-05
-0.000135486
0.000101845
-9.6075e-05
0.00018019
-3.43849e-05
0.0002813
4.05475e-05
0.000405089
0.000122454
0.000552114
0.00020621
0.000723458
0.000285987
0.000353885
0.000918221
-6.17985e-06
-7.54433e-05
-8.56612e-06
-0.000136243
7.20939e-07
-0.000144773
2.57464e-05
-0.000121101
6.8737e-05
-7.73755e-05
0.000131056
-2.17719e-05
0.000213789
3.97217e-05
0.000317944
0.000102055
0.000443942
0.000159989
0.000207772
0.000590055
-1.05535e-05
-6.48898e-05
-2.4945e-05
-0.000121851
-3.39534e-05
-0.000135765
-3.22506e-05
-0.000122803
-1.65506e-05
-9.30755e-05
1.52729e-05
-5.35954e-05
6.46298e-05
-9.63529e-06
0.000132283
3.44023e-05
0.000217952
7.43196e-05
0.000106082
0.000319642
-1.37114e-05
-5.11784e-05
-3.69706e-05
-9.85921e-05
-5.96372e-05
-0.000113098
-7.5536e-05
-0.000106905
-8.07738e-05
-8.78377e-05
-7.29298e-05
-6.14394e-05
-5.06534e-05
-3.19117e-05
-1.35597e-05
-2.69138e-06
3.7605e-05
2.31548e-05
4.29364e-05
0.000100751
-1.59049e-05
-3.52734e-05
-4.54313e-05
-6.90657e-05
-7.78676e-05
-8.06621e-05
-0.000106531
-7.82414e-05
-0.000127227
-6.71411e-05
-0.000137482
-5.11852e-05
-0.000136117
-3.32768e-05
-0.000123063
-1.57447e-05
-9.93367e-05
-5.71786e-07
1.06042e-05
-6.70045e-05
-1.72973e-05
-1.79761e-05
-5.08449e-05
-3.55181e-05
-8.96141e-05
-4.18929e-05
-0.000126653
-4.12028e-05
-0.000157641
-3.61524e-05
-0.000180136
-2.86909e-05
-0.000193116
-2.02966e-05
-0.00019672
-1.21403e-05
-0.000192101
-5.19123e-06
-2.238e-07
-0.000181273
-1.79759e-05
-5.34935e-05
-9.53857e-05
-0.000136588
-0.000172739
-0.000201429
-0.000221725
-0.000233864
-0.000239054
-0.000239277
0.000183608
-0.000422909
2.40328e-08
0.00132169
-0.00113804
-4.05601e-08
0.00248541
-0.00116362
-1.11741e-07
0.00323241
-0.00074693
-6.99475e-08
0.00385214
-0.000619796
7.34521e-08
0.00428039
-0.000428399
1.45688e-07
0.00462434
-0.000344175
2.24104e-07
0.00485614
-0.000231959
1.55495e-07
0.00506541
-0.000209103
-1.6046e-07
-0.000124008
-1.77461e-07
0.000295289
-0.000899472
0.00140409
-0.00224684
0.00254152
-0.00230105
0.00327196
-0.00147737
0.00388014
-0.00122797
0.00430175
-0.000850012
0.00464155
-0.00068397
0.00487158
-0.000461991
0.00508007
-0.000417596
-0.000249243
0.000511489
-0.00147797
0.00156323
-0.00329858
0.00264954
-0.00338737
0.00334811
-0.00217593
0.0039341
-0.00181396
0.00434305
-0.00125897
0.004675
-0.00101591
0.00490179
-0.000688786
0.00510898
-0.000624782
-0.00037671
0.000818352
-0.00219557
0.0017882
-0.00426843
0.00280141
-0.00440058
0.00345515
-0.00282967
0.00401003
-0.00236884
0.00440152
-0.00165046
0.00472278
-0.00133717
0.00494548
-0.000911489
0.00515129
-0.000830583
-0.000507854
0.00119631
-0.00307224
0.00206374
-0.00513586
0.00298585
-0.00532269
0.00358512
-0.00342894
0.00410238
-0.00288611
0.00447326
-0.00202134
0.00478221
-0.00164612
0.0050008
-0.00113009
0.00520578
-0.00103557
-0.000644491
0.00162129
-0.00410347
0.00237125
-0.00588582
0.0031892
-0.00614064
0.00372833
-0.00396807
0.00420435
-0.00336213
0.00455346
-0.00237044
0.00484993
-0.00194259
0.00506543
-0.00134558
0.00527094
-0.00124108
-0.000788885
0.00206525
-0.0052505
0.00268956
-0.00651014
0.00339626
-0.00684734
0.00387404
-0.00444584
0.00430838
-0.00379647
0.00463675
-0.00269881
0.00492218
-0.00222803
0.0051367
-0.00156009
0.00534495
-0.00144934
-0.000943801
0.00249786
-0.0064268
0.00299561
-0.00700789
0.00359106
-0.0074428
0.00401105
-0.00486583
0.0044066
-0.00419203
0.00471748
-0.00300969
0.00499493
-0.00250547
0.00521173
-0.0017769
0.00542585
-0.00166345
-0.00111252
0.00290153
-0.00748419
0.00327046
-0.00737682
0.00375955
-0.00793188
0.0041289
-0.00523518
0.00449153
-0.00455466
0.00479013
-0.00330829
0.00506414
-0.00277948
0.00528757
-0.00200033
0.00551151
-0.00188739
-0.00129883
0.00328103
-0.00819276
0.00351245
-0.00760823
0.00389086
-0.00831029
0.00422031
-0.00556463
0.00455644
-0.0048908
0.00484976
-0.00360161
0.00512581
-0.00305553
0.00536149
-0.00223601
0.00559948
-0.00212538
-0.00150747
0.0432804
-0.000914649
-0.0505585
0.0390638
-0.00339163
0.0369858
-0.00623229
0.0367996
-0.00537846
0.0366526
-0.00474376
0.036818
-0.003767
0.0370079
-0.00324546
0.0372612
-0.00248926
0.0374713
-0.00233548
-0.00179577
0.0523394
0.00331358
-0.0565676
0.0501429
-0.00119519
0.0475495
-0.00363887
0.0460087
-0.00383762
0.0448012
-0.00353631
0.0439751
-0.00294092
0.0433277
-0.00259804
0.0429096
-0.00207119
0.042508
-0.0019338
-0.00160291
0.0539042
0.00452449
-0.0551151
0.052622
8.70667e-05
0.0510057
-0.00202255
0.0496962
-0.00252821
0.0485977
-0.00243773
0.0477379
-0.0020812
0.0469855
-0.00184562
0.046423
-0.00150869
0.0458666
-0.00137738
-0.00122097
0.0520608
0.00437469
-0.051911
0.0516518
0.000496043
0.0508184
-0.00118916
0.049979
-0.00168873
0.0492358
-0.00169452
0.0486347
-0.00148014
0.0480836
-0.0012945
0.0476474
-0.00107254
0.0472091
-0.00093908
-0.000871233
0.0500075
0.0036913
-0.0493241
0.0498801
0.000623473
0.049457
-0.000766112
0.0489541
-0.00118582
0.0484826
-0.001223
0.0480981
-0.00109564
0.0477482
-0.0009446
0.0474635
-0.000787807
0.047186
-0.000661647
-0.000622365
0.0483083
0.00289063
-0.0475076
0.0483335
0.00059824
0.0480821
-0.000514647
0.0477507
-0.000854437
0.0474259
-0.000898226
0.0471564
-0.000826082
0.0469225
-0.000710706
0.0467304
-0.000595734
0.046558
-0.000489298
-0.000455293
0.0470996
0.00210095
-0.0463099
0.0471935
0.000504363
0.0470188
-0.000339981
0.0467672
-0.000602795
0.0465113
-0.000642333
0.0462896
-0.000604354
0.0461033
-0.000524471
0.0459497
-0.000442113
0.0458225
-0.000362113
-0.000330924
0.0462852
0.001362
-0.0455462
0.0464294
0.000360112
0.0462959
-0.000206481
0.04608
-0.000386861
0.0458538
-0.000416175
0.0456483
-0.000398827
0.0454743
-0.000350488
0.0453295
-0.000297261
0.0452122
-0.00024482
-0.000220756
0.0457886
0.000668608
-0.0450952
0.0459648
0.000183867
0.0458572
-9.88282e-05
0.0456578
-0.000187511
0.0454442
-0.000202526
0.0452434
-0.000198093
0.0450691
-0.00017613
0.0449224
-0.00015055
0.0448016
-0.000124088
-0.000111615
0.045554
-0.0448854
0.0457378
0.045639
0.0454515
0.045249
0.0450509
0.0448747
0.0447242
0.0446001
0.0567753
0.00230159
-0.0560627
0.0573297
0.00291155
0.0576775
0.0035031
0.0577689
0.00406718
0.0575571
0.00459458
0.0570024
0.00507648
0.0560731
0.00550517
0.0547401
0.00587452
0.0529478
0.00617966
0.00639547
0.0513979
0.0016929
-0.0507892
0.0520516
0.00225785
0.0527363
0.00281843
0.0534339
0.00336956
0.054123
0.00390551
0.0547794
0.00442007
0.0553778
0.0049068
0.055893
0.00535932
0.0563007
0.0057719
0.00612862
0.0480918
0.001218
-0.0476169
0.0486477
0.00170197
0.0492813
0.00218477
0.0499874
0.00266353
0.0507578
0.00313508
0.0515819
0.00359596
0.0524463
0.00404234
0.0533356
0.00447005
0.054233
0.00487456
0.00524644
0.0454945
0.000891391
-0.0451679
0.0459013
0.00129521
0.0463888
0.00169729
0.0469569
0.00209539
0.0476048
0.00248723
0.0483302
0.00287049
0.0491298
0.00324277
0.0499983
0.00360155
0.0509288
0.00394405
0.00426426
0.0439058
0.000651558
-0.043666
0.0442198
0.000981279
0.0446079
0.00130912
0.0450701
0.00163322
0.0456056
0.0019517
0.0462134
0.00226271
0.0468918
0.00256437
0.0476386
0.0028548
0.0484507
0.00313191
0.00339082
0.0428101
0.000469384
-0.0426279
0.0430622
0.000729122
0.0433843
0.000987092
0.0437757
0.00124178
0.0442357
0.00149167
0.0447632
0.00173527
0.0453564
0.00197112
0.0460135
0.00219774
0.0467319
0.00241352
0.00261508
0.0421162
0.000324611
-0.0419714
0.0423279
0.00051745
0.0426061
0.000708875
0.0429501
0.000897734
0.0433589
0.00108288
0.043831
0.00126319
0.0443646
0.00143754
0.0449575
0.00160482
0.0456072
0.00176385
0.00191232
0.0416643
0.000203998
-0.0415437
0.04185
0.000331708
0.0421004
0.00045846
0.0424147
0.000583483
0.0427916
0.000706008
0.0432295
0.000825275
0.0437265
0.000940538
0.0442802
0.00105106
0.0448881
0.00115604
0.00125414
0.0413996
9.81601e-05
-0.0412938
0.0415695
0.000161808
0.041803
0.000224996
0.0420992
0.000287334
0.0424567
0.000348437
0.0428741
0.000407922
0.0433492
0.000465411
0.0438797
0.000520533
0.0444629
0.000572894
0.000621857
0.0412742
-0.041176
0.041436
0.041661
0.0419483
0.0422967
0.0427047
0.0431701
0.0436906
0.0442635
0.0481094
-0.00335374
-0.0475523
0.0488228
-0.00289489
0.0496454
-0.00240622
0.0505376
-0.00188565
0.0514714
-0.00133414
0.0524282
-0.000759595
0.0533899
-0.000166524
0.0543348
0.00044138
0.0552364
0.00105938
0.00168168
0.0479852
-0.00340684
-0.0479321
0.0480815
-0.0029912
0.0482205
-0.00254526
0.0484082
-0.00207329
0.0486505
-0.00157645
0.0489517
-0.0010608
0.0493152
-0.000530088
0.0497433
1.33594e-05
0.0502356
0.000567055
0.00112803
0.046897
-0.00314749
-0.0471564
0.0466931
-0.0027873
0.0465499
-0.00240198
0.0464725
-0.00199591
0.0464672
-0.00157118
0.0465376
-0.0011312
0.046686
-0.000678481
0.0469144
-0.000215033
0.0472244
0.000257059
0.000735535
0.0455818
-0.00277137
-0.0459579
0.0452636
-0.00246906
0.0450067
-0.0021451
0.0448147
-0.00180392
0.0446909
-0.00144742
0.0446377
-0.001078
0.044657
-0.00069777
0.0447507
-0.000308665
0.0449204
8.73006e-05
0.000488036
0.0446599
-0.0023496
-0.0450817
0.044292
-0.00210111
0.0439823
-0.00183548
0.0437342
-0.00155579
0.0435504
-0.00126362
0.0434333
-0.000960849
0.0433847
-0.000649198
0.0434064
-0.000330366
0.0434998
-6.09427e-06
0.000321824
0.0439897
-0.00190031
-0.044439
0.0435923
-0.00170379
0.0432508
-0.00149397
0.0429681
-0.00127309
0.0427469
-0.00104239
0.0425893
-0.00080327
0.0424973
-0.000557122
0.0424722
-0.000305337
0.0425155
-4.93418e-05
0.000209397
0.043559
-0.00143593
-0.0440234
0.043145
-0.00128981
0.042785
-0.00113398
0.0424819
-0.000969928
0.042238
-0.000798571
0.0420557
-0.000620926
0.0419366
-0.000438027
0.0418822
-0.000250929
0.0418936
-6.07128e-05
0.000131512
0.0432802
-0.00096146
-0.0437547
0.0428551
-0.000864765
0.0424828
-0.000761683
0.0421661
-0.000653143
0.0419072
-0.000539751
0.0417085
-0.000422167
0.0415715
-0.000301076
0.0414978
-0.000177181
0.0414883
-5.12061e-05
7.61069e-05
0.0431193
-0.000481536
-0.0435992
0.042688
-0.000433514
0.0423086
-0.000382322
0.0419839
-0.000328399
0.0417162
-0.000272043
0.0415076
-0.000213579
0.0413599
-0.000153344
0.0412744
-9.16862e-05
0.0412521
-2.89676e-05
3.44411e-05
0.0430454
-0.043527
0.0426119
0.0422296
0.0419012
0.0416291
0.0414156
0.0412622
0.0411705
0.0411416
0.0429475
0.000174631
-0.000193169
0.0429914
0.000521277
-0.0005652
0.0430658
0.000872672
-0.000947119
0.0431884
0.001237
-0.00135953
0.043389
0.00161961
-0.00182026
0.0437114
0.00202475
-0.0023471
0.0442142
0.00245453
-0.0029574
0.0449695
0.00291138
-0.00366664
0.0460712
0.00337131
-0.00447303
0.00392367
-0.0054048
0.0429657
0.000137881
0.0430729
0.000414037
0.043254
0.00069155
0.0435194
0.000971605
0.043884
0.00125502
0.0443668
0.00154202
0.0449896
0.00183167
0.0457769
0.00212407
0.0467446
0.00240365
0.00273618
0.0429665
0.000100273
0.0430779
0.000302718
0.0432627
0.000506707
0.0435251
0.000709229
0.0438707
0.000909388
0.0443068
0.00110589
0.0448419
0.00129664
0.045486
0.00147994
0.0462438
0.00164582
0.00182364
0.0429586
7.05598e-05
0.0430476
0.000213752
0.043196
0.000358309
0.0434046
0.000500639
0.0436744
0.000639538
0.0440066
0.000773711
0.0444017
0.000901587
0.0448597
0.00102196
0.0453756
0.00112983
0.00124134
0.0429506
4.88964e-05
0.0430161
0.00014828
0.0431258
0.000248595
0.0432795
0.000346947
0.0434767
0.000442277
0.0437169
0.000533535
0.0439989
0.00061958
0.0443214
0.000699482
0.0446808
0.00077045
0.000840432
0.0429445
3.33083e-05
0.0429918
0.00010102
0.043071
0.000169336
0.0431818
0.000236203
0.0433232
0.000300845
0.0434942
0.000362524
0.0436933
0.000420497
0.0439186
0.000474172
0.044167
0.000522074
0.000568472
0.0429403
2.19177e-05
0.0429749
6.64646e-05
0.0430328
0.000111389
0.0431137
0.000155333
0.0432168
0.000197773
0.0433411
0.00023822
0.0434854
0.000276197
0.0436482
0.000311315
0.0438276
0.000342744
0.000372651
0.0429376
1.32771e-05
0.0429638
4.02499e-05
0.0430077
6.74384e-05
0.043069
9.40338e-05
0.0431471
0.000119722
0.0432411
0.000144211
0.0433501
0.000167226
0.0434728
0.000188539
0.0436079
0.000207718
0.000225866
0.0429359
6.26142e-06
0.0429572
1.89824e-05
0.0429929
3.17945e-05
0.0430426
4.43278e-05
0.0431058
5.64359e-05