/*--------------------------------*- C++ -*----------------------------------*\
  =========                 |
  \\      /  F ield         | OpenFOAM: The Open Source CFD Toolbox
   \\    /   O peration     | Website:  https://openfoam.org
    \\  /    A nd           | Version:  6.0
     \\/     M anipulation  |
\*---------------------------------------------------------------------------*/
FoamFile
{
    version     2.0;
    format      ascii;
    class       surfaceScalarField;
    location    "0.5";
    object      phi;
}
// * * * * * * * * * * * * * * * * * * * * * * * * * * * * * * * * * * * * * //

dimensions      [0 3 -1 0 0 0 0];

internalField   nonuniform List<scalar> 
1540
(
6.08434e-09
-6.08547e-09
1.56358e-08
-9.55141e-09
2.33486e-08
-7.71286e-09
2.79852e-08
-4.6365e-09
3.01e-08
-2.11472e-09
3.06479e-08
-5.48038e-10
3.03598e-08
2.87962e-10
2.95323e-08
8.27503e-10
2.80172e-08
1.5152e-09
2.52741e-08
2.74318e-09
2.04145e-08
4.85952e-09
1.22163e-08
8.19811e-09
-8.95584e-10
1.31118e-08
-2.0903e-08
2.00074e-08
-5.02867e-08
2.93838e-08
-9.21607e-08
4.18741e-08
-1.50434e-07
5.82729e-08
-2.29944e-07
7.9511e-08
-3.36463e-07
1.06518e-07
-4.76382e-07
1.3992e-07
-6.55924e-07
1.79542e-07
-8.79718e-07
2.23794e-07
-1.14878e-06
2.69059e-07
-1.45811e-06
3.09329e-07
-1.79448e-06
3.36372e-07
-2.13513e-06
3.40657e-07
-2.44823e-06
3.13093e-07
-2.69545e-06
2.47219e-07
-2.83675e-06
1.41308e-07
-2.83677e-06
2.02666e-11
-2.67231e-06
-1.64469e-07
-2.3404e-06
-3.31901e-07
-1.86584e-06
-4.74564e-07
-1.30532e-06
-5.60517e-07
-7.43697e-07
-5.61626e-07
-2.76799e-07
-4.66897e-07
1.96363e-08
-2.96436e-07
1.23063e-07
-1.03427e-07
7.87675e-08
4.42961e-08
7.87674e-08
9.8115e-09
-1.5897e-08
2.1138e-08
-2.0878e-08
2.70209e-08
-1.35959e-08
2.60363e-08
-3.65185e-09
1.91923e-08
4.72959e-09
8.1173e-09
1.05274e-08
-5.97913e-09
1.43845e-08
-2.27685e-08
1.76168e-08
-4.29281e-08
2.16746e-08
-6.81356e-08
2.79506e-08
-1.01062e-07
3.77857e-08
-1.45412e-07
5.25484e-08
-2.06027e-07
7.37271e-08
-2.89032e-07
1.03013e-07
-4.02011e-07
1.42362e-07
-5.54147e-07
1.9401e-07
-7.56226e-07
2.60353e-07
-1.02027e-06
3.43553e-07
-1.35845e-06
4.44705e-07
-1.78099e-06
5.62453e-07
-2.2927e-06
6.91249e-07
-2.8887e-06
8.19801e-07
-3.55032e-06
9.30679e-07
-4.24302e-06
1.00202e-06
-4.91806e-06
1.01141e-06
-5.51811e-06
9.40715e-07
-5.98491e-06
7.79893e-07
-6.2664e-06
5.28701e-07
-6.3218e-06
1.96708e-07
-6.1249e-06
-1.96879e-07
-5.66697e-06
-6.22396e-07
-4.96106e-06
-1.03781e-06
-4.04838e-06
-1.38725e-06
-3.00531e-06
-1.60358e-06
-1.94629e-06
-1.62064e-06
-1.01301e-06
-1.40018e-06
-3.39281e-07
-9.70165e-07
6.44999e-09
-4.49158e-07
6.74334e-08
-1.66876e-08
1.46201e-07
6.79628e-09
-2.26934e-08
9.25502e-09
-2.33366e-08
1.6353e-09
-5.97616e-09
-1.62192e-08
1.42024e-08
-4.24137e-08
3.0924e-08
-7.48481e-08
4.29621e-08
-1.12248e-07
5.17845e-08
-1.54638e-07
6.00072e-08
-2.035e-07
7.05368e-08
-2.61821e-07
8.62713e-08
-3.34158e-07
1.10122e-07
-4.26761e-07
1.45151e-07
-5.4774e-07
1.94706e-07
-7.07229e-07
2.62501e-07
-9.17448e-07
3.52582e-07
-1.19251e-06
4.69076e-07
-1.54768e-06
6.15523e-07
-1.99765e-06
7.93525e-07
-2.55348e-06
1.00053e-06
-3.21805e-06
1.22702e-06
-3.9809e-06
1.4541e-06
-4.81437e-06
1.65326e-06
-5.67355e-06
1.78986e-06
-6.5015e-06
1.82997e-06
-7.23813e-06
1.74804e-06
-7.82902e-06
1.53161e-06
-8.23093e-06
1.1818e-06
-8.41294e-06
7.10718e-07
-8.35484e-06
1.38599e-07
-8.04473e-06
-5.0698e-07
-7.47823e-06
-1.1889e-06
-6.66065e-06
-1.85539e-06
-5.61414e-06
-2.43376e-06
-4.38993e-06
-2.82779e-06
-3.08327e-06
-2.9273e-06
-1.84097e-06
-2.64249e-06
-8.4103e-07
-1.9701e-06
-2.22881e-07
-1.06731e-06
7.23551e-09
-2.46804e-07
1.53436e-07
-2.6034e-10
-2.24331e-08
-1.39344e-08
-9.66254e-09
-4.33216e-08
2.34115e-08
-8.61644e-08
5.70453e-08
-1.39171e-07
8.3931e-08
-1.99703e-07
1.03494e-07
-2.66578e-07
1.18659e-07
-3.4039e-07
1.3382e-07
-4.23607e-07
1.53753e-07
-5.20623e-07
1.83287e-07
-6.37875e-07
2.27375e-07
-7.83999e-07
2.91275e-07
-9.69963e-07
3.8067e-07
-1.20906e-06
5.01603e-07
-1.51659e-06
6.60109e-07
-1.90883e-06
8.61315e-07
-2.40104e-06
1.10774e-06
-3.00405e-06
1.39653e-06
-3.71947e-06
1.71596e-06
-4.53473e-06
2.04228e-06
-5.41991e-06
2.33928e-06
-6.3291e-06
2.56246e-06
-7.20709e-06
2.66785e-06
-7.99921e-06
2.6221e-06
-8.66007e-06
2.40889e-06
-9.15763e-06
2.02917e-06
-9.47233e-06
1.4965e-06
-9.59298e-06
8.31369e-07
-9.51181e-06
5.74307e-08
-9.22012e-06
-7.98673e-07
-8.70577e-06
-1.70325e-06
-7.95408e-06
-2.60708e-06
-6.95428e-06
-3.43356e-06
-5.71456e-06
-4.06752e-06
-4.28714e-06
-4.35472e-06
-2.79832e-06
-4.13131e-06
-1.45989e-06
-3.30853e-06
-5.11449e-07
-2.01575e-06
-6.49014e-08
-6.93352e-07
8.85348e-08
-9.79263e-09
-1.26406e-08
-4.46429e-08
2.51875e-08
-1.01562e-07
8.0331e-08
-1.74891e-07
1.30375e-07
-2.59509e-07
1.68549e-07
-3.52128e-07
1.96113e-07
-4.51707e-07
2.18239e-07
-5.59489e-07
2.41603e-07
-6.78945e-07
2.73209e-07
-8.15781e-07
3.20123e-07
-9.78023e-07
3.89617e-07
-1.1761e-06
4.89357e-07
-1.42281e-06
6.27378e-07
-1.73289e-06
8.11681e-07
-2.12201e-06
1.04923e-06
-2.60479e-06
1.34409e-06
-3.19155e-06
1.69449e-06
-3.88398e-06
2.08896e-06
-4.6707e-06
2.50268e-06
-5.52461e-06
2.89619e-06
-6.40432e-06
3.21899e-06
-7.26048e-06
3.41861e-06
-8.04519e-06
3.45256e-06
-8.72037e-06
3.29727e-06
-9.26169e-06
2.95021e-06
-9.65759e-06
2.42507e-06
-9.90518e-06
1.7441e-06
-1.00052e-05
9.31408e-07
-9.95701e-06
9.2221e-09
-9.75359e-06
-1.00209e-06
-9.37747e-06
-2.07937e-06
-8.79823e-06
-3.18632e-06
-7.9749e-06
-4.25689e-06
-6.86799e-06
-5.17442e-06
-5.46788e-06
-5.75483e-06
-3.84362e-06
-5.75557e-06
-2.19905e-06
-4.95311e-06
-8.71659e-07
-3.34314e-06
-1.50718e-07
-1.41429e-06
-6.21837e-08
-2.10768e-08
8.43636e-09
-8.06079e-08
8.47184e-08
-1.68886e-07
1.6861e-07
-2.7605e-07
2.37538e-07
-3.94801e-07
2.87301e-07
-5.21099e-07
3.2241e-07
-6.54012e-07
3.51152e-07
-7.95363e-07
3.82954e-07
-9.49447e-07
4.27293e-07
-1.12291e-06
4.93587e-07
-1.32472e-06
5.91423e-07
-1.56604e-06
7.30679e-07
-1.85988e-06
9.21219e-07
-2.22016e-06
1.17196e-06
-2.65999e-06
1.48906e-06
-3.18898e-06
1.87309e-06
-3.80962e-06
2.31513e-06
-4.51351e-06
2.79285e-06
-5.27897e-06
3.26814e-06
-6.07177e-06
3.689e-06
-6.85006e-06
3.99727e-06
-7.57228e-06
4.14084e-06
-8.20499e-06
4.08527e-06
-8.72726e-06
3.81955e-06
-9.13078e-06
3.35373e-06
-9.41699e-06
2.71128e-06
-9.59336e-06
1.92047e-06
-9.66959e-06
1.00764e-06
-9.65335e-06
-7.02331e-09
-9.54488e-06
-1.11057e-06
-9.33046e-06
-2.29379e-06
-8.97565e-06
-3.54113e-06
-8.4211e-06
-4.81144e-06
-7.58689e-06
-6.00864e-06
-6.3953e-06
-6.94641e-06
-4.82571e-06
-7.32516e-06
-3.00862e-06
-6.77019e-06
-1.31685e-06
-5.03491e-06
-2.60492e-07
-2.47065e-06
-3.22675e-07
-3.37752e-08
4.22119e-08
-1.20524e-07
1.71467e-07
-2.42587e-07
2.90672e-07
-3.85245e-07
3.80196e-07
-5.38774e-07
4.40831e-07
-6.98284e-07
4.81921e-07
-8.62856e-07
5.15724e-07
-1.03469e-06
5.54783e-07
-1.21851e-06
6.11114e-07
-1.42128e-06
6.96355e-07
-1.65194e-06
8.22088e-07
-1.92108e-06
9.99815e-07
-2.24014e-06
1.24028e-06
-2.62013e-06
1.55195e-06
-3.0695e-06
1.93844e-06
-3.59142e-06
2.395e-06
-4.18075e-06
2.90446e-06
-4.82188e-06
3.43398e-06
-5.48872e-06
3.93497e-06
-6.14782e-06
4.3481e-06
-6.76435e-06
4.6138e-06
-7.30874e-06
4.68523e-06
-7.76143e-06
4.53796e-06
-8.11412e-06
4.17223e-06
-8.36832e-06
3.60793e-06
-8.53308e-06
2.87604e-06
-8.62274e-06
2.01013e-06
-8.65457e-06
1.03948e-06
-8.64536e-06
-1.6235e-08
-8.60597e-06
-1.14996e-06
-8.5335e-06
-2.36626e-06
-8.40115e-06
-3.67347e-06
-8.14772e-06
-5.06488e-06
-7.67175e-06
-6.4846e-06
-6.84142e-06
-7.77675e-06
-5.53932e-06
-8.62726e-06
-3.7694e-06
-8.54012e-06
-1.83151e-06
-6.9728e-06
-4.04741e-07
-3.89742e-06
-7.27416e-07
-4.7784e-08
8.9996e-08
-1.63784e-07
2.87467e-07
-3.21143e-07
4.48032e-07
-4.99714e-07
5.58767e-07
-6.87171e-07
6.28289e-07
-8.77712e-07
6.72462e-07
-1.07028e-06
7.08295e-07
-1.26714e-06
7.51638e-07
-1.47292e-06
8.16893e-07
-1.69411e-06
9.17545e-07
-1.9386e-06
1.06658e-06
-2.21509e-06
1.27631e-06
-2.53209e-06
1.55727e-06
-2.89641e-06
1.91627e-06
-3.31123e-06
2.35326e-06
-3.77391e-06
2.85768e-06
-4.27417e-06
3.40472e-06
-4.79368e-06
3.95349e-06
-5.30773e-06
4.44902e-06
-5.78917e-06
4.82954e-06
-6.21355e-06
5.03819e-06
-6.5635e-06
5.03518e-06
-6.83064e-06
4.8051e-06
-7.01527e-06
4.35686e-06
-7.12481e-06
3.71747e-06
-7.17244e-06
2.92367e-06
-7.17606e-06
2.01375e-06
-7.15699e-06
1.02041e-06
-7.13763e-06
-3.55903e-08
-7.1373e-06
-1.15029e-06
-7.16518e-06
-2.33838e-06
-7.20938e-06
-3.62927e-06
-7.22226e-06
-5.052e-06
-7.10508e-06
-6.60179e-06
-6.7015e-06
-8.18032e-06
-5.82055e-06
-9.50821e-06
-4.32755e-06
-1.00331e-05
-2.35471e-06
-8.94564e-06
-5.92206e-07
-5.65992e-06
-1.31962e-06
-6.32262e-08
1.53222e-07
-2.10446e-07
4.34687e-07
-4.04159e-07
6.41745e-07
-6.18221e-07
7.7283e-07
-8.37619e-07
8.47686e-07
-1.05563e-06
8.90476e-07
-1.27093e-06
9.23597e-07
-1.48548e-06
9.66185e-07
-1.70325e-06
1.03466e-06
-1.9295e-06
1.1438e-06
-2.17019e-06
1.30727e-06
-2.43122e-06
1.53734e-06
-2.71746e-06
1.84351e-06
-3.03137e-06
2.23017e-06
-3.37156e-06
2.69346e-06
-3.73156e-06
3.21767e-06
-4.09925e-06
3.77242e-06
-4.4578e-06
4.31204e-06
-4.78803e-06
4.77926e-06
-5.07207e-06
5.11357e-06
-5.2968e-06
5.26291e-06
-5.45592e-06
5.1943e-06
-5.55011e-06
4.8993e-06
-5.58586e-06
4.39261e-06
-5.57414e-06
3.70575e-06
-5.5296e-06
2.87913e-06
-5.4701e-06
1.95424e-06
-5.41615e-06
9.66461e-07
-5.38998e-06
-6.176e-08
-5.4135e-06
-1.12677e-06
-5.50381e-06
-2.24807e-06
-5.66433e-06
-3.46875e-06
-5.86938e-06
-4.84695e-06
-6.04278e-06
-6.42838e-06
-6.03641e-06
-8.1867e-06
-5.62656e-06
-9.91806e-06
-4.56933e-06
-1.10903e-05
-2.7945e-06
-1.07205e-05
-8.24124e-07
-7.6303e-06
-2.14375e-06
-8.05366e-08
2.33759e-07
-2.61375e-07
6.15525e-07
-4.92478e-07
8.72849e-07
-7.411e-07
1.02145e-06
-9.8959e-07
1.09618e-06
-1.23045e-06
1.13134e-06
-1.46203e-06
1.15517e-06
-1.68569e-06
1.18985e-06
-1.90427e-06
1.25324e-06
-2.12123e-06
1.36075e-06
-2.34003e-06
1.52607e-06
-2.56344e-06
1.76076e-06
-2.79273e-06
2.0728e-06
-3.0267e-06
2.46414e-06
-3.2609e-06
2.92766e-06
-3.48737e-06
3.44414e-06
-3.69513e-06
3.98018e-06
-3.87182e-06
4.48872e-06
-4.00612e-06
4.91356e-06
-4.09044e-06
5.1979e-06
-4.12264e-06
5.29512e-06
-4.10631e-06
5.17796e-06
-4.04961e-06
4.84261e-06
-3.96379e-06
4.30678e-06
-3.86187e-06
3.60383e-06
-3.75804e-06
2.7753e-06
-3.66744e-06
1.86364e-06
-3.60616e-06
9.05189e-07
-3.59159e-06
-7.63336e-08
-3.64236e-06
-1.076e-06
-3.77697e-06
-2.11345e-06
-4.00857e-06
-3.23716e-06
-4.33261e-06
-4.52291e-06
-4.70465e-06
-6.05633e-06
-5.00926e-06
-7.88209e-06
-5.03151e-06
-9.89582e-06
-4.46804e-06
-1.16538e-05
-3.06874e-06
-1.21198e-05
-1.08328e-06
-9.61576e-06
-3.22703e-06
-1.00638e-07
3.34397e-07
-3.18536e-07
8.33424e-07
-5.88426e-07
1.14274e-06
-8.70332e-07
1.30336e-06
-1.14431e-06
1.37015e-06
-1.4025e-06
1.38953e-06
-1.64308e-06
1.39575e-06
-1.86671e-06
1.41348e-06
-2.07481e-06
1.46134e-06
-2.26873e-06
1.55467e-06
-2.44927e-06
1.70661e-06
-2.61623e-06
1.92772e-06
-2.76786e-06
2.22442e-06
-2.90043e-06
2.59671e-06
-3.00816e-06
3.03539e-06
-3.08361e-06
3.5196e-06
-3.11896e-06
4.01553e-06
-3.10786e-06
4.47762e-06
-3.04753e-06
4.85323e-06
-2.94031e-06
5.09068e-06
-2.79399e-06
5.14879e-06
-2.62064e-06
5.00461e-06
-2.43474e-06
4.65671e-06
-2.25129e-06
4.12333e-06
-2.08452e-06
3.43706e-06
-1.94732e-06
2.6381e-06
-1.85116e-06
1.76748e-06
-1.80655e-06
8.60583e-07
-1.82407e-06
-5.88101e-08
-1.91567e-06
-9.84407e-07
-2.09552e-06
-1.9336e-06
-2.37868e-06
-2.954e-06
-2.77408e-06
-4.12751e-06
-3.26686e-06
-5.56356e-06
-3.78548e-06
-7.36347e-06
-4.15543e-06
-9.52586e-06
-4.06522e-06
-1.1744e-05
-3.13723e-06
-1.30477e-05
-1.33169e-06
-1.14213e-05
-4.55872e-06
-1.25263e-07
4.5966e-07
-3.85487e-07
1.09365e-06
-6.96152e-07
1.4534e-06
-1.00955e-06
1.61676e-06
-1.30437e-06
1.66497e-06
-1.57331e-06
1.65847e-06
-1.8149e-06
1.63734e-06
-2.02925e-06
1.62784e-06
-2.21636e-06
1.64845e-06
-2.37548e-06
1.71379e-06
-2.50492e-06
1.83605e-06
-2.60191e-06
2.02471e-06
-2.66252e-06
2.28503e-06
-2.68169e-06
2.61589e-06
-2.65368e-06
3.00738e-06
-2.573e-06
3.43892e-06
-2.43596e-06
3.87849e-06
-2.24249e-06
4.28415e-06
-1.99778e-06
4.60852e-06
-1.71285e-06
4.80575e-06
-1.4038e-06
4.83974e-06
-1.08976e-06
4.69057e-06
-7.90436e-07
4.35738e-06
-5.23958e-07
3.85685e-06
-3.05551e-07
3.21865e-06
-1.46972e-07
2.47952e-06
-5.65882e-08
1.67709e-06
-4.00489e-08
8.44044e-07
-1.01546e-07
2.68714e-09
-2.45584e-07
-8.4037e-07
-4.7901e-07
-1.70018e-06
-8.12444e-07
-2.62057e-06
-1.25868e-06
-3.68128e-06
-1.82279e-06
-4.99945e-06
-2.47549e-06
-6.71077e-06
-3.10045e-06
-8.9009e-06
-3.42234e-06
-1.14221e-05
-2.99648e-06
-1.34736e-05
-1.5212e-06
-1.28966e-05
-6.07992e-06
-1.57584e-07
6.17244e-07
-4.68243e-07
1.40431e-06
-8.22098e-07
1.80726e-06
-1.16378e-06
1.95843e-06
-1.47266e-06
1.97386e-06
-1.74379e-06
1.9296e-06
-1.97702e-06
1.87057e-06
-2.17248e-06
1.8233e-06
-2.32909e-06
1.80506e-06
-2.44433e-06
1.82903e-06
-2.51442e-06
1.90614e-06
-2.53456e-06
2.04485e-06
-2.49931e-06
2.24978e-06
-2.40311e-06
2.51969e-06
-2.24112e-06
2.84538e-06
-2.01039e-06
3.20819e-06
-1.71148e-06
3.57957e-06
-1.35001e-06
3.92269e-06
-9.37793e-07
4.1963e-06
-4.92724e-07
4.36068e-06
-3.73609e-08
4.38437e-06
4.03639e-07
4.24957e-06
8.06346e-07
3.95468e-06
1.14989e-06
3.51331e-06
1.41787e-06
2.95067e-06
1.59895e-06
2.29844e-06
1.6867e-06
1.58934e-06
1.67888e-06
8.51868e-07
1.57616e-06
1.05404e-07
1.3804e-06
-6.44607e-07
1.0922e-06
-1.41198e-06
7.08099e-07
-2.23646e-06
2.18212e-07
-3.19139e-06
-3.91477e-07
-4.38976e-06
-1.12364e-06
-5.97861e-06
-1.9236e-06
-8.10094e-06
-2.58501e-06
-1.07607e-05
-2.65386e-06
-1.34048e-05
-1.6086e-06
-1.39418e-05
-7.68852e-06
-2.03502e-07
8.20745e-07
-5.76827e-07
1.77763e-06
-9.75515e-07
2.20595e-06
-1.33833e-06
2.32125e-06
-1.64965e-06
2.28518e-06
-1.90977e-06
2.18972e-06
-2.12153e-06
2.08232e-06
-2.28607e-06
1.98784e-06
-2.40209e-06
1.92109e-06
-2.46607e-06
1.89301e-06
-2.47277e-06
1.91284e-06
-2.41592e-06
1.988e-06
-2.28898e-06
2.12284e-06
-2.08611e-06
2.31682e-06
-1.80336e-06
2.56263e-06
-1.44002e-06
2.84486e-06
-1.00016e-06
3.13971e-06
-4.93837e-07
3.41637e-06
6.22422e-08
3.64022e-06
6.45278e-07
3.77765e-06
1.22819e-06
3.80147e-06
1.78238e-06
3.69538e-06
2.28073e-06
3.45632e-06
2.70007e-06
3.09398e-06
3.02271e-06
2.62803e-06
3.23712e-06
2.08403e-06
3.33778e-06
1.48868e-06
3.32445e-06
8.65202e-07
3.20093e-06
2.28926e-07
2.97333e-06
-4.17005e-07
2.64758e-06
-1.08624e-06
2.22608e-06
-1.81496e-06
1.70351e-06
-2.66882e-06
1.06398e-06
-3.75023e-06
2.85451e-07
-5.20008e-06
-6.30485e-07
-7.18501e-06
-1.5646e-06
-9.82661e-06
-2.10618e-06
-1.28632e-05
-1.5644e-06
-1.44836e-05
-9.25291e-06
-2.74366e-07
1.09511e-06
-7.28096e-07
2.23136e-06
-1.16853e-06
2.64638e-06
-1.53528e-06
2.688e-06
-1.8261e-06
2.576e-06
-2.05099e-06
2.41461e-06
-2.21803e-06
2.24936e-06
-2.33107e-06
2.10088e-06
-2.39009e-06
1.98011e-06
-2.39196e-06
1.89488e-06
-2.33117e-06
1.85205e-06
-2.20076e-06
1.85758e-06
-1.99334e-06
1.91542e-06
-1.70248e-06
2.02596e-06
-1.32421e-06
2.18436e-06
-8.58662e-07
2.37931e-06
-3.11541e-07
2.59259e-06
3.04788e-07
2.80004e-06
9.7102e-07
2.97399e-06
1.66174e-06
3.08693e-06
2.34741e-06
3.11579e-06
2.99723e-06
3.04556e-06
3.58213e-06
2.87143e-06
4.07734e-06
2.59876e-06
4.46411e-06
2.24127e-06
4.73041e-06
1.81773e-06
4.87086e-06
1.34822e-06
4.88595e-06
8.50112e-07
4.7806e-06
3.34279e-07
4.56231e-06
-1.98711e-07
4.2385e-06
-7.62433e-07
3.81318e-06
-1.38964e-06
3.28223e-06
-2.13787e-06
2.6288e-06
-3.0968e-06
1.82084e-06
-4.39212e-06
8.23372e-07
-6.18754e-06
-3.31729e-07
-8.67151e-06
-1.3241e-06
-1.18708e-05
-1.36113e-06
-1.44466e-05
-1.0614e-05
-3.92877e-07
1.48799e-06
-9.5053e-07
2.78902e-06
-1.41252e-06
3.10838e-06
-1.74039e-06
3.01587e-06
-1.96092e-06
2.79653e-06
-2.10005e-06
2.55374e-06
-2.17427e-06
2.32358e-06
-2.1926e-06
2.11921e-06
-2.15868e-06
1.94618e-06
-2.07185e-06
1.80805e-06
-1.92805e-06
1.70825e-06
-1.72074e-06
1.65028e-06
-1.44218e-06
1.63686e-06
-1.08494e-06
1.66871e-06
-6.4369e-07
1.74312e-06
-1.17122e-07
1.85274e-06
4.90386e-07
1.98508e-06
1.16758e-06
2.12285e-06
1.89603e-06
2.24553e-06
2.65101e-06
2.33195e-06
3.4034e-06
2.3634e-06
4.12249e-06
2.32647e-06
4.77895e-06
2.21496e-06
5.34749e-06
2.03023e-06
5.80861e-06
1.78015e-06
6.14951e-06
1.47683e-06
6.36393e-06
1.1338e-06
6.45132e-06
7.62722e-07
6.41513e-06
3.70474e-07
6.26068e-06
-4.42689e-08
5.99223e-06
-4.93977e-07
5.60958e-06
-1.007e-06
5.10348e-06
-1.63176e-06
4.45141e-06
-2.44473e-06
3.61334e-06
-3.55405e-06
2.53515e-06
-5.10934e-06
1.18118e-06
-7.31755e-06
-2.49266e-07
-1.04404e-05
-9.53761e-07
-1.37421e-05
-1.15678e-05
-6.07698e-07
2.09569e-06
-1.28674e-06
3.46806e-06
-1.69028e-06
3.51192e-06
-1.86673e-06
3.19232e-06
-1.90059e-06
2.83039e-06
-1.84372e-06
2.49688e-06
-1.725e-06
2.20486e-06
-1.56108e-06
1.95529e-06
-1.36092e-06
1.74602e-06
-1.1275e-06
1.57463e-06
-8.59015e-07
1.43976e-06
-5.50036e-07
1.3413e-06
-1.92774e-07
1.2796e-06
2.21426e-07
1.25451e-06
7.00302e-07
1.26424e-06
1.24871e-06
1.30434e-06
1.86669e-06
1.3671e-06
2.54804e-06
1.44149e-06
3.27962e-06
1.51396e-06
4.04174e-06
1.56983e-06
4.80973e-06
1.5954e-06
5.55634e-06
1.57987e-06
6.25442e-06
1.51687e-06
6.87959e-06
1.40506e-06
7.41203e-06
1.2477e-06
7.83758e-06
1.05129e-06
8.14764e-06
8.23739e-07
8.33841e-06
5.71949e-07
8.40906e-06
2.99824e-07
8.35951e-06
5.28617e-09
8.18695e-06
-3.2142e-07
7.88241e-06
-7.02458e-07
7.42521e-06
-1.17456e-06
6.77947e-06
-1.799e-06
5.88982e-06
-2.6644e-06
4.68821e-06
-3.90773e-06
3.10027e-06
-5.72961e-06
1.2047e-06
-8.54478e-06
-2.72163e-07
-1.22652e-05
-1.184e-05
-1.03831e-06
3.134e-06
-1.72604e-06
4.15579e-06
-1.76297e-06
3.54885e-06
-1.47361e-06
2.90295e-06
-1.05978e-06
2.41656e-06
-5.99554e-07
2.03665e-06
-1.24063e-07
1.72936e-06
3.50208e-07
1.48102e-06
8.15333e-07
1.2809e-06
1.26995e-06
1.12001e-06
1.71741e-06
9.92299e-07
2.16448e-06
8.94224e-07
2.62034e-06
8.23743e-07
3.09554e-06
7.79318e-07
3.6007e-06
7.5908e-07
4.1449e-06
7.60134e-07
4.73395e-06
7.78047e-07
5.36878e-06
8.06664e-07
6.04439e-06
8.38341e-07
6.74961e-06
8.64614e-07
7.4678e-06
8.77217e-07
8.17848e-06
8.69192e-07
8.85949e-06
8.35864e-07
9.48924e-06
7.75306e-07
1.00486e-05
6.88357e-07
1.0522e-05
5.77853e-07
1.0898e-05
4.47795e-07
1.11683e-05
3.01633e-07
1.13267e-05
1.41403e-07
1.13668e-05
-3.47889e-08
1.12782e-05
-2.32872e-07
1.1043e-05
-4.67271e-07
1.06284e-05
-7.59915e-07
9.9808e-06
-1.1514e-06
9.01801e-06
-1.70161e-06
7.63818e-06
-2.52789e-06
5.73171e-06
-3.82314e-06
3.25512e-06
-6.06819e-06
7.93231e-07
-9.80335e-06
-1.10467e-05
-1.89008e-06
5.02407e-06
-1.23735e-06
3.50305e-06
1.58524e-07
2.15298e-06
1.4452e-06
1.61627e-06
2.57621e-06
1.28555e-06
3.58707e-06
1.02578e-06
4.49095e-06
8.25488e-07
5.29719e-06
6.74779e-07
6.01784e-06
5.60251e-07
6.66605e-06
4.718e-07
7.25501e-06
4.03346e-07
7.79791e-06
3.51317e-07
8.30822e-06
3.13433e-07
8.79951e-06
2.88033e-07
9.28496e-06
2.73626e-07
9.77654e-06
2.68557e-07
1.02838e-05
2.70757e-07
1.08129e-05
2.77633e-07
1.13651e-05
2.86124e-07
1.19368e-05
2.92912e-07
1.25192e-05
2.94784e-07
1.30994e-05
2.89021e-07
1.36615e-05
2.7379e-07
1.41885e-05
2.48307e-07
1.46639e-05
2.1291e-07
1.50731e-05
1.68702e-07
1.54035e-05
1.17322e-07
1.56451e-05
6.00623e-08
1.57887e-05
-2.23806e-09
1.58246e-05
-7.06645e-08
1.57393e-05
-1.47558e-07
1.55113e-05
-2.39296e-07
1.51052e-05
-3.53803e-07
1.44612e-05
-5.07402e-07
1.34811e-05
-7.21505e-07
1.20083e-05
-1.05511e-06
9.83388e-06
-1.6487e-06
6.71042e-06
-2.94473e-06
2.71852e-06
-5.81145e-06
-8.32822e-06
5.02407e-06
8.52713e-06
1.06801e-05
1.22964e-05
1.35819e-05
1.46077e-05
1.54332e-05
1.6108e-05
1.66682e-05
1.714e-05
1.75434e-05
1.78947e-05
1.82081e-05
1.84962e-05
1.87698e-05
1.90383e-05
1.93091e-05
1.95867e-05
1.98729e-05
2.01658e-05
2.04606e-05
2.07496e-05
2.10234e-05
2.12717e-05
2.14846e-05
2.16533e-05
2.17706e-05
2.18307e-05
2.18284e-05
2.17578e-05
2.16102e-05
2.13709e-05
2.10171e-05
2.05097e-05
1.97882e-05
1.87331e-05
1.70844e-05
1.41397e-05
8.32822e-06
)
;

boundaryField
{
    movingWall
    {
        type            calculated;
        value           uniform 0;
    }
    fixedWalls
    {
        type            calculated;
        value           uniform 0;
    }
    frontAndBack
    {
        type            empty;
        value           nonuniform 0();
    }
}


// ************************************************************************* //
