1.45 	0 	0 	-0.290678
2.35 	0 	0 	-0.126509
