1.45 	0 	0 	-0.00807143 	-0.00259284 	1.65499e-20
2.35 	0 	0 	0.0623508 	-0.00661275 	9.90953e-21
