/*--------------------------------*- C++ -*----------------------------------*\
  =========                 |
  \\      /  F ield         | OpenFOAM: The Open Source CFD Toolbox
   \\    /   O peration     | Website:  https://openfoam.org
    \\  /    A nd           | Version:  6.0
     \\/     M anipulation  |
\*---------------------------------------------------------------------------*/
FoamFile
{
    version     2.0;
    format      ascii;
    class       volScalarField;
    location    "48";
    object      p;
}
// * * * * * * * * * * * * * * * * * * * * * * * * * * * * * * * * * * * * * //

dimensions      [0 2 -2 0 0 0 0];

internalField   nonuniform List<scalar> 
2000
(
-0.348049
-0.353955
-0.355644
-0.354975
-0.353115
-0.350438
-0.347223
-0.343761
-0.340341
-0.336645
-0.350767
-0.356254
-0.357602
-0.356631
-0.354484
-0.351532
-0.348054
-0.344332
-0.340657
-0.336841
-0.356222
-0.36085
-0.361508
-0.359928
-0.357199
-0.353692
-0.349678
-0.345419
-0.341216
-0.337156
-0.364457
-0.367745
-0.36734
-0.364834
-0.361224
-0.356871
-0.352033
-0.34693
-0.34188
-0.33743
-0.375529
-0.376935
-0.375069
-0.37131
-0.366516
-0.36102
-0.355051
-0.34875
-0.342451
-0.337407
-0.389504
-0.388405
-0.384654
-0.379317
-0.373043
-0.366117
-0.358699
-0.350794
-0.342718
-0.336759
-0.406415
-0.402115
-0.396036
-0.388813
-0.380801
-0.372202
-0.363072
-0.353181
-0.342682
-0.335225
-0.426206
-0.417965
-0.409123
-0.399736
-0.389774
-0.379318
-0.368283
-0.356041
-0.342098
-0.331655
-0.448666
-0.435781
-0.4238
-0.412047
-0.400001
-0.387558
-0.374317
-0.358757
-0.338672
-0.321361
-0.473359
-0.455299
-0.439967
-0.425893
-0.412107
-0.398411
-0.384047
-0.366382
-0.341342
-0.317365
-0.499599
-0.476095
-0.457356
-0.441186
-0.426457
-0.413545
-0.40279
-0.394833
-0.394971
-0.414504
-0.526563
-0.497589
-0.475348
-0.456817
-0.44048
-0.426798
-0.416245
-0.409881
-0.412837
-0.430108
-0.553526
-0.519324
-0.493671
-0.472669
-0.454304
-0.438943
-0.426949
-0.419044
-0.418336
-0.426153
-0.579841
-0.540828
-0.512012
-0.488568
-0.467932
-0.450288
-0.435796
-0.424711
-0.418509
-0.417171
-0.604758
-0.561435
-0.529747
-0.50387
-0.480657
-0.460092
-0.442134
-0.426659
-0.414088
-0.404462
-0.627288
-0.58021
-0.545932
-0.51757
-0.491427
-0.467353
-0.445227
-0.424737
-0.405716
-0.388928
-0.646148
-0.595942
-0.559337
-0.528382
-0.498951
-0.4709
-0.444192
-0.418521
-0.393469
-0.370816
-0.659777
-0.607178
-0.568498
-0.534826
-0.501802
-0.469475
-0.438062
-0.407408
-0.377062
-0.349887
-0.666414
-0.612278
-0.571796
-0.535306
-0.498504
-0.461824
-0.425873
-0.390732
-0.356031
-0.325643
-0.664192
-0.609504
-0.567534
-0.528212
-0.487625
-0.446774
-0.40674
-0.367855
-0.329863
-0.297497
-0.651255
-0.597113
-0.554043
-0.512016
-0.467873
-0.423321
-0.379934
-0.338253
-0.298109
-0.264912
-0.625869
-0.573464
-0.529787
-0.485379
-0.438191
-0.390705
-0.344948
-0.301588
-0.260481
-0.22752
-0.58656
-0.537149
-0.493487
-0.447263
-0.397841
-0.348479
-0.301556
-0.257766
-0.216915
-0.185183
-0.532231
-0.48711
-0.444233
-0.397016
-0.346467
-0.296542
-0.249838
-0.206968
-0.167617
-0.138045
-0.462279
-0.422749
-0.381576
-0.334443
-0.284126
-0.235146
-0.19017
-0.149643
-0.113061
-0.0865297
-0.376702
-0.34403
-0.305609
-0.259833
-0.211277
-0.164851
-0.123154
-0.08641
-0.0538835
-0.0312632
-0.276189
-0.251559
-0.217014
-0.173986
-0.12878
-0.0865014
-0.04956
-0.0179681
0.00919538
0.0269283
-0.162178
-0.146622
-0.117076
-0.0781909
-0.0378696
-0.00123622
0.029554
0.0545645
0.0746338
0.0860148
-0.0368801
-0.0311942
-0.00764534
0.0258792
0.0600699
0.0898914
0.11333
0.129974
0.139908
0.142279
0.09675
0.0920841
0.108865
0.136194
0.163715
0.186705
0.203192
0.21156
0.210525
0.203796
0.235136
0.219947
0.229353
0.24986
0.27061
0.287724
0.299928
0.30541
0.304363
0.318281
0.374384
0.348749
0.350204
0.363023
0.376044
0.386018
0.39207
0.393313
0.392235
0.405158
0.510548
0.474819
0.468011
0.472563
0.477216
0.479295
0.478232
0.473611
0.467918
0.473021
0.639784
0.594547
0.579482
0.57558
0.571681
0.565693
0.557357
0.546523
0.535265
0.532423
0.758428
0.704495
0.681522
0.669413
0.657247
0.643499
0.628188
0.611351
0.594681
0.584734
0.863096
0.801495
0.771313
0.751669
0.73196
0.711184
0.689597
0.667385
0.64587
0.629714
0.950771
0.88274
0.846367
0.820232
0.794069
0.76732
0.740441
0.71373
0.688154
0.666796
1.0189
0.945862
0.904592
0.873317
0.842071
0.810645
0.779649
0.749461
0.72074
0.695325
1.06547
0.989009
0.94435
0.909518
0.874769
0.840134
0.806326
0.773775
0.74291
0.714709
1.08911
1.01091
0.964516
0.927867
0.891332
0.855065
0.819831
0.786086
0.754134
0.724515
1.08911
1.01091
0.964516
0.927867
0.891332
0.855065
0.819831
0.786086
0.754134
0.724515
1.06547
0.989009
0.94435
0.909518
0.874769
0.840134
0.806325
0.773775
0.74291
0.714709
1.0189
0.945862
0.904592
0.873317
0.842071
0.810645
0.779648
0.749461
0.72074
0.695325
0.950771
0.88274
0.846367
0.820232
0.794069
0.767319
0.740441
0.71373
0.688154
0.666796
0.863096
0.801495
0.771313
0.751668
0.73196
0.711183
0.689597
0.667385
0.645869
0.629714
0.758428
0.704494
0.681522
0.669413
0.657247
0.643499
0.628187
0.611351
0.594681
0.584734
0.639783
0.594547
0.579481
0.57558
0.571681
0.565693
0.557356
0.546523
0.535265
0.532423
0.510548
0.474818
0.468011
0.472563
0.477216
0.479295
0.478232
0.47361
0.467918
0.473021
0.374383
0.348749
0.350204
0.363023
0.376043
0.386017
0.39207
0.393312
0.392235
0.405158
0.235136
0.219947
0.229352
0.24986
0.27061
0.287723
0.299928
0.30541
0.304363
0.318281
0.0967494
0.0920835
0.108865
0.136194
0.163715
0.186705
0.203192
0.21156
0.210525
0.203796
-0.0368808
-0.0311948
-0.00764597
0.0258786
0.0600693
0.0898908
0.113329
0.129974
0.139908
0.142279
-0.162179
-0.146623
-0.117077
-0.0781916
-0.0378702
-0.00123679
0.0295535
0.054564
0.0746334
0.0860143
-0.27619
-0.251559
-0.217015
-0.173986
-0.128781
-0.086502
-0.0495606
-0.0179686
0.00919487
0.0269278
-0.376703
-0.344031
-0.30561
-0.259834
-0.211278
-0.164852
-0.123154
-0.0864105
-0.053884
-0.0312637
-0.46228
-0.422749
-0.381577
-0.334443
-0.284126
-0.235146
-0.190171
-0.149644
-0.113062
-0.0865302
-0.532232
-0.487111
-0.444233
-0.397017
-0.346467
-0.296542
-0.249839
-0.206969
-0.167618
-0.138045
-0.586561
-0.53715
-0.493488
-0.447263
-0.397841
-0.348479
-0.301557
-0.257767
-0.216916
-0.185184
-0.625869
-0.573464
-0.529787
-0.48538
-0.438192
-0.390706
-0.344948
-0.301589
-0.260481
-0.22752
-0.651256
-0.597113
-0.554044
-0.512017
-0.467874
-0.423321
-0.379934
-0.338254
-0.298109
-0.264913
-0.664192
-0.609505
-0.567535
-0.528213
-0.487625
-0.446774
-0.406741
-0.367856
-0.329863
-0.297497
-0.666415
-0.612279
-0.571796
-0.535307
-0.498504
-0.461824
-0.425873
-0.390732
-0.356032
-0.325644
-0.659778
-0.607179
-0.568499
-0.534826
-0.501803
-0.469476
-0.438062
-0.407408
-0.377063
-0.349888
-0.646148
-0.595943
-0.559337
-0.528383
-0.498952
-0.470901
-0.444193
-0.418522
-0.39347
-0.370817
-0.627289
-0.58021
-0.545933
-0.51757
-0.491427
-0.467354
-0.445228
-0.424738
-0.405717
-0.388929
-0.604758
-0.561435
-0.529748
-0.503871
-0.480658
-0.460093
-0.442134
-0.426659
-0.414089
-0.404462
-0.579841
-0.540829
-0.512012
-0.488568
-0.467932
-0.450288
-0.435797
-0.424712
-0.418509
-0.417172
-0.553526
-0.519325
-0.493671
-0.472669
-0.454305
-0.438943
-0.42695
-0.419045
-0.418336
-0.426154
-0.526563
-0.497589
-0.475348
-0.456817
-0.440481
-0.426798
-0.416245
-0.409881
-0.412837
-0.430108
-0.4996
-0.476095
-0.457356
-0.441186
-0.426458
-0.413546
-0.402791
-0.394834
-0.394972
-0.414505
-0.473359
-0.4553
-0.439968
-0.425893
-0.412107
-0.398411
-0.384047
-0.366382
-0.341343
-0.317366
-0.448666
-0.435781
-0.423801
-0.412047
-0.400002
-0.387558
-0.374318
-0.358757
-0.338672
-0.321361
-0.426207
-0.417965
-0.409124
-0.399737
-0.389774
-0.379318
-0.368284
-0.356041
-0.342098
-0.331655
-0.406415
-0.402115
-0.396037
-0.388813
-0.380801
-0.372202
-0.363072
-0.353181
-0.342682
-0.335225
-0.389505
-0.388406
-0.384654
-0.379317
-0.373044
-0.366117
-0.3587
-0.350794
-0.342719
-0.336759
-0.375529
-0.376935
-0.375069
-0.371311
-0.366516
-0.361021
-0.355051
-0.34875
-0.342451
-0.337408
-0.364457
-0.367745
-0.36734
-0.364834
-0.361224
-0.356871
-0.352033
-0.346931
-0.34188
-0.33743
-0.356223
-0.36085
-0.361508
-0.359928
-0.357199
-0.353692
-0.349678
-0.345419
-0.341216
-0.337156
-0.350767
-0.356254
-0.357602
-0.356631
-0.354484
-0.351532
-0.348054
-0.344332
-0.340657
-0.336841
-0.348049
-0.353955
-0.355644
-0.354975
-0.353115
-0.350438
-0.347223
-0.343761
-0.340341
-0.336645
-0.290435
-0.126296
-0.0812277
-0.0303253
-0.0192203
-0.00778656
-0.00434623
-0.000875364
-0.000457636
0.00217124
-0.291666
-0.126843
-0.0814982
-0.0305241
-0.0192883
-0.00784628
-0.00437573
-0.000895788
-0.000466592
0.00215534
-0.294057
-0.127925
-0.0820336
-0.0309226
-0.019424
-0.00796546
-0.00443477
-0.00093695
-0.000484568
0.00212375
-0.297468
-0.129516
-0.0828227
-0.031523
-0.0196271
-0.00814367
-0.00452319
-0.000998717
-0.000511447
0.00207681
-0.301653
-0.131572
-0.0838393
-0.0323233
-0.0198955
-0.0083795
-0.00464048
-0.0010809
-0.000546946
0.00201495
-0.306257
-0.134018
-0.0850339
-0.03331
-0.0202235
-0.00866939
-0.00478542
-0.00118295
-0.000590706
0.00193884
-0.31115
-0.136922
-0.086412
-0.0344783
-0.0206116
-0.00901058
-0.00495748
-0.00130393
-0.000642926
0.00185003
-0.316852
-0.140938
-0.0882363
-0.0359289
-0.0211033
-0.00941653
-0.0051627
-0.00144416
-0.00070514
0.0017513
-0.321629
-0.146443
-0.0906851
-0.0378269
-0.021749
-0.0099143
-0.00541024
-0.00160902
-0.000775764
0.00164011
-0.313825
-0.148818
-0.091796
-0.0395284
-0.0222514
-0.0104063
-0.00565493
-0.00179985
-0.000835306
0.00149352
-0.247293
-0.140721
-0.0881751
-0.0427837
-0.0227502
-0.0117379
-0.00637132
-0.00253946
-0.00100078
0.000840405
-0.189198
-0.131712
-0.0821727
-0.0442421
-0.0244833
-0.01413
-0.00822019
-0.00402334
-0.00176257
-1.60518e-06
-0.147782
-0.113855
-0.0727439
-0.0428112
-0.0259087
-0.016336
-0.0101554
-0.00561535
-0.00269747
-0.000681522
-0.108189
-0.0929533
-0.0633241
-0.0408418
-0.0269581
-0.0181312
-0.0118303
-0.00705081
-0.00358865
-0.00115251
-0.0789517
-0.075681
-0.0565239
-0.0395865
-0.0277821
-0.0194765
-0.0131427
-0.00820509
-0.00433629
-0.00145104
-0.0588602
-0.0628339
-0.0515639
-0.0385868
-0.0281933
-0.0203236
-0.0140696
-0.0090596
-0.00491475
-0.00164464
-0.0458348
-0.0535728
-0.0477022
-0.0376166
-0.0282812
-0.020805
-0.0146934
-0.0096679
-0.00534344
-0.00178131
-0.0375905
-0.0471135
-0.0447401
-0.0367635
-0.0282363
-0.0210747
-0.0151017
-0.0100849
-0.00564621
-0.00188013
-0.0327687
-0.0430127
-0.0427326
-0.0361605
-0.02818
-0.0212211
-0.0153466
-0.0103443
-0.00583921
-0.00194473
-0.0305382
-0.0410112
-0.0417216
-0.0358635
-0.0281562
-0.021286
-0.0154597
-0.0104663
-0.00593358
-0.001975
-0.218592
-0.246489
-0.272268
-0.296212
-0.318706
-0.340256
-0.36148
-0.383024
-0.40539
-0.429232
-0.0679466
-0.0780892
-0.0872538
-0.0956838
-0.103686
-0.111642
-0.120008
-0.129324
-0.14017
-0.154337
-0.0451756
-0.0543574
-0.0631535
-0.0715374
-0.0794714
-0.0869108
-0.093812
-0.100148
-0.105916
-0.111238
-0.0187524
-0.0244724
-0.029986
-0.0353123
-0.0404731
-0.0454916
-0.0503912
-0.0551937
-0.0598993
-0.0643872
-0.0130431
-0.0173991
-0.0216304
-0.0257336
-0.029705
-0.0335405
-0.0372366
-0.0407903
-0.0441821
-0.0473805
-0.00798877
-0.0112061
-0.014364
-0.0174616
-0.0204982
-0.0234734
-0.0263866
-0.0292364
-0.0320113
-0.0347145
-0.00686518
-0.00940208
-0.0119027
-0.0143629
-0.0167793
-0.0191486
-0.0214685
-0.0237362
-0.025946
-0.0281109
-0.0060642
-0.00812211
-0.0101635
-0.0121843
-0.0141807
-0.0161494
-0.0180873
-0.0199913
-0.0218581
-0.023695
-0.0059766
-0.00775128
-0.00951803
-0.0112724
-0.01301
-0.0147272
-0.0164203
-0.0180861
-0.0197226
-0.0213309
-0.0059206
-0.00754658
-0.00916995
-0.010787
-0.0123941
-0.013988
-0.0155655
-0.0171239
-0.0186616
-0.0201768
0.168007
0.127021
0.0816724
0.0386033
-0.00313513
-0.0440142
-0.0834175
-0.120762
-0.155781
-0.188388
0.117538
0.0916233
0.0648314
0.0419926
0.0218725
0.00319874
-0.0141116
-0.0298476
-0.0439827
-0.0566322
0.0734181
0.0577201
0.0427671
0.029855
0.0180037
0.00653704
-0.00461589
-0.0153672
-0.0256937
-0.035622
0.0531623
0.0440894
0.0354604
0.0277499
0.0204836
0.013391
0.00647444
-0.000207474
-0.00663343
-0.0128106
0.0376257
0.0316743
0.0259341
0.0206435
0.0155532
0.0105322
0.00558717
0.00074953
-0.00396821
-0.00856562
0.0273642
0.0234753
0.01963
0.0159923
0.0124497
0.00893441
0.00544767
0.00200628
-0.00138142
-0.00471343
0.0196617
0.0169332
0.0141781
0.0115014
0.00885541
0.00620706
0.00355817
0.000919906
-0.00169986
-0.00429631
0.0144813
0.0124863
0.010441
0.0084079
0.00637043
0.00431495
0.00224385
0.000164633
-0.00191633
-0.00399411
0.0111508
0.00955584
0.0079119
0.00624819
0.0045599
0.00284393
0.00110415
-0.0006533
-0.00242266
-0.00419875
0.00955467
0.00813405
0.00667011
0.00517707
0.00365431
0.00210291
0.000527167
-0.00106773
-0.00267695
-0.00429601
0.335423
0.334722
0.333173
0.330299
0.325315
0.316983
0.303534
0.282573
0.251466
0.206849
0.245525
0.244409
0.241773
0.237188
0.230318
0.220733
0.207861
0.191046
0.169538
0.142784
0.174694
0.173565
0.170898
0.166374
0.159884
0.15132
0.140494
0.12719
0.111002
0.092015
0.123085
0.122199
0.120096
0.116534
0.111494
0.105003
0.0970534
0.0876552
0.0767304
0.0646141
0.0867508
0.0861064
0.0845674
0.0819543
0.0782744
0.07358
0.0679053
0.0612884
0.0537097
0.0453779
0.0615718
0.0611084
0.0599999
0.0581177
0.0554752
0.0521236
0.0481044
0.0434618
0.0382132
0.032505
0.0444206
0.044082
0.0432719
0.0418966
0.0399679
0.0375259
0.0346044
0.0312362
0.0274407
0.0233019
0.0331351
0.0328783
0.0322638
0.0312207
0.0297584
0.0279084
0.0256974
0.0231505
0.0202881
0.0171622
0.0262994
0.0260909
0.0255922
0.0247458
0.0235591
0.0220571
0.0202612
0.0181901
0.0158618
0.0133075
0.023079
0.0228925
0.0224473
0.0216922
0.0206334
0.019293
0.0176896
0.0158395
0.0137595
0.0114723
0.485397
0.487149
0.493483
0.504629
0.52048
0.54134
0.567674
0.600006
0.638874
0.684521
0.483155
0.484883
0.491136
0.502126
0.517729
0.538211
0.563981
0.595475
0.633095
0.676929
0.478725
0.480407
0.486507
0.497194
0.512311
0.532052
0.556711
0.586553
0.621703
0.661953
0.472205
0.473832
0.479722
0.489977
0.504394
0.52306
0.546097
0.573514
0.605022
0.639999
0.463735
0.465311
0.470952
0.480672
0.494203
0.511499
0.532459
0.556748
0.583515
0.611654
0.453482
0.455031
0.460405
0.469506
0.481997
0.49767
0.516157
0.536703
0.557754
0.577655
0.441643
0.443232
0.448359
0.456797
0.468137
0.481983
0.497661
0.513918
0.528416
0.538867
0.428424
0.430239
0.435254
0.443104
0.453319
0.465288
0.477957
0.489437
0.496501
0.496086
0.413895
0.416186
0.42128
0.428666
0.437861
0.448034
0.457685
0.464096
0.462885
0.448806
0.397693
0.400128
0.404795
0.411052
0.418431
0.425982
0.43193
0.433054
0.424588
0.396885
0.397692
0.400128
0.404795
0.411052
0.418431
0.425982
0.43193
0.433053
0.424588
0.396885
0.413895
0.416186
0.42128
0.428666
0.437861
0.448034
0.457685
0.464096
0.462885
0.448805
0.428424
0.430239
0.435254
0.443104
0.453319
0.465287
0.477957
0.489437
0.496501
0.496086
0.441643
0.443231
0.448359
0.456797
0.468137
0.481983
0.497661
0.513918
0.528416
0.538867
0.453482
0.455031
0.460405
0.469506
0.481997
0.49767
0.516157
0.536703
0.557754
0.577655
0.463735
0.465311
0.470952
0.480672
0.494203
0.511499
0.532459
0.556748
0.583515
0.611654
0.472205
0.473832
0.479722
0.489977
0.504394
0.523059
0.546097
0.573514
0.605021
0.639999
0.478725
0.480407
0.486507
0.497194
0.512311
0.532052
0.556711
0.586553
0.621703
0.661953
0.483155
0.484883
0.491136
0.502126
0.517728
0.538211
0.563981
0.595475
0.633095
0.676929
0.485397
0.487149
0.493483
0.504629
0.52048
0.54134
0.567674
0.600006
0.638874
0.684521
0.0230788
0.0228923
0.0224471
0.021692
0.0206332
0.0192928
0.0176894
0.0158393
0.0137593
0.0114722
0.0262992
0.0260907
0.025592
0.0247456
0.0235589
0.0220569
0.020261
0.01819
0.0158616
0.0133073
0.0331349
0.0328781
0.0322636
0.0312205
0.0297582
0.0279082
0.0256972
0.0231503
0.020288
0.0171621
0.0444204
0.0440818
0.0432717
0.0418964
0.0399677
0.0375257
0.0346042
0.031236
0.0274405
0.0233017
0.0615716
0.0611082
0.0599997
0.0581175
0.055475
0.0521233
0.0481042
0.0434615
0.038213
0.0325048
0.0867506
0.0861061
0.0845672
0.0819541
0.0782742
0.0735797
0.067905
0.0612882
0.0537095
0.0453777
0.123084
0.122199
0.120096
0.116534
0.111494
0.105003
0.0970532
0.0876549
0.0767301
0.0646138
0.174694
0.173565
0.170898
0.166373
0.159883
0.15132
0.140493
0.12719
0.111001
0.0920147
0.245525
0.244408
0.241773
0.237188
0.230318
0.220732
0.207861
0.191046
0.169538
0.142783
0.335422
0.334722
0.333173
0.330299
0.325315
0.316983
0.303534
0.282573
0.251465
0.206848
0.0095545
0.00813389
0.00666994
0.0051769
0.00365415
0.00210274
0.000527
-0.0010679
-0.00267712
-0.00429618
0.0111506
0.00955567
0.00791173
0.00624801
0.00455973
0.00284376
0.00110398
-0.00065347
-0.00242283
-0.00419892
0.0144811
0.0124861
0.0104408
0.00840772
0.00637025
0.00431477
0.00224367
0.000164455
-0.0019165
-0.00399429
0.0196615
0.0169331
0.0141779
0.0115012
0.00885522
0.00620687
0.00355798
0.000919715
-0.00170005
-0.0042965
0.027364
0.0234751
0.0196298
0.0159921
0.0124495
0.0089342
0.00544746
0.00200608
-0.00138163
-0.00471364
0.0376254
0.0316741
0.0259339
0.0206433
0.015553
0.010532
0.00558693
0.000749298
-0.00396844
-0.00856585
0.0531621
0.0440891
0.0354601
0.0277497
0.0204833
0.0133908
0.00647419
-0.000207735
-0.00663369
-0.0128108
0.0734178
0.0577198
0.0427668
0.0298547
0.0180034
0.00653674
-0.0046162
-0.0153675
-0.025694
-0.0356223
0.117538
0.091623
0.0648311
0.0419923
0.0218722
0.0031984
-0.014112
-0.029848
-0.0439831
-0.0566325
0.168007
0.12702
0.081672
0.0386029
-0.00313556
-0.0440146
-0.0834179
-0.120763
-0.155781
-0.188388
-0.00592077
-0.00754674
-0.00917012
-0.0107871
-0.0123943
-0.0139882
-0.0155657
-0.017124
-0.0186618
-0.020177
-0.00597677
-0.00775145
-0.00951821
-0.0112725
-0.0130102
-0.0147274
-0.0164205
-0.0180863
-0.0197228
-0.0213311
-0.00606438
-0.00812229
-0.0101637
-0.0121845
-0.0141809
-0.0161496
-0.0180875
-0.0199915
-0.0218583
-0.0236951
-0.00686537
-0.00940227
-0.0119029
-0.0143631
-0.0167795
-0.0191488
-0.0214687
-0.0237364
-0.0259462
-0.0281111
-0.00798898
-0.0112063
-0.0143642
-0.0174618
-0.0204984
-0.0234736
-0.0263868
-0.0292367
-0.0320115
-0.0347148
-0.0130434
-0.0173993
-0.0216306
-0.0257338
-0.0297052
-0.0335407
-0.0372368
-0.0407906
-0.0441824
-0.0473807
-0.0187526
-0.0244726
-0.0299863
-0.0353126
-0.0404734
-0.0454919
-0.0503915
-0.055194
-0.0598996
-0.0643875
-0.0451759
-0.0543577
-0.0631539
-0.0715377
-0.0794718
-0.0869111
-0.0938124
-0.100149
-0.105917
-0.111238
-0.067947
-0.0780896
-0.0872542
-0.0956842
-0.103687
-0.111642
-0.120008
-0.129325
-0.140171
-0.154338
-0.218592
-0.246489
-0.272269
-0.296212
-0.318706
-0.340256
-0.361481
-0.383025
-0.405391
-0.429233
-0.0305382
-0.0410112
-0.0417217
-0.0358635
-0.0281563
-0.0212863
-0.0154604
-0.0104671
-0.00593425
-0.00197535
-0.0327687
-0.0430128
-0.0427327
-0.0361605
-0.0281801
-0.0212215
-0.0153473
-0.0103451
-0.00583992
-0.0019451
-0.0375905
-0.0471136
-0.0447402
-0.0367634
-0.0282363
-0.021075
-0.0151024
-0.0100858
-0.00564703
-0.00188053
-0.0458349
-0.0535729
-0.0477023
-0.0376164
-0.0282811
-0.0208054
-0.0146942
-0.00966897
-0.00534443
-0.00178175
-0.0588603
-0.062834
-0.0515639
-0.0385864
-0.028193
-0.020324
-0.0140705
-0.00906094
-0.00491601
-0.00164512
-0.0789519
-0.0756811
-0.0565239
-0.0395859
-0.0277816
-0.0194769
-0.0131437
-0.00820686
-0.00433792
-0.00145153
-0.10819
-0.0929535
-0.063324
-0.0408408
-0.0269573
-0.0181315
-0.0118315
-0.0070532
-0.00359077
-0.00115294
-0.147783
-0.113855
-0.0727436
-0.0428094
-0.0259074
-0.0163363
-0.0101569
-0.00561862
-0.00270016
-0.000681815
-0.189199
-0.131713
-0.0821723
-0.0442396
-0.0244813
-0.0141301
-0.00822186
-0.00402761
-0.00176585
-1.67295e-06
-0.247294
-0.140722
-0.0881749
-0.0427806
-0.0227476
-0.0117375
-0.00637295
-0.00254445
-0.00100436
0.000840571
-0.313826
-0.14882
-0.0917958
-0.0395257
-0.0222492
-0.0104057
-0.00565625
-0.00180462
-0.000838483
0.00149389
-0.32163
-0.146444
-0.090685
-0.0378243
-0.0217469
-0.0099138
-0.0054115
-0.00161353
-0.000778694
0.0016405
-0.316853
-0.140939
-0.0882361
-0.0359264
-0.0211014
-0.00941612
-0.00516388
-0.00144822
-0.000707722
0.00175167
-0.31115
-0.136923
-0.0864118
-0.034476
-0.02061
-0.00901024
-0.00495856
-0.00130752
-0.000645162
0.00185035
-0.306258
-0.134019
-0.0850336
-0.033308
-0.0202221
-0.0086691
-0.00478638
-0.00118606
-0.000592607
0.00193913
-0.301654
-0.131573
-0.083839
-0.0323216
-0.0198943
-0.00837927
-0.0046413
-0.00108349
-0.00054851
0.0020152
-0.297468
-0.129516
-0.0828225
-0.0315216
-0.0196261
-0.00814348
-0.00452385
-0.00100077
-0.00051267
0.00207701
-0.294057
-0.127925
-0.0820335
-0.0309216
-0.0194233
-0.00796532
-0.00443526
-0.000938452
-0.000485442
0.0021239
-0.291666
-0.126844
-0.0814981
-0.0305235
-0.0192878
-0.00784618
-0.00437603
-0.000896723
-0.000467102
0.00215544
-0.290435
-0.126296
-0.0812277
-0.0303251
-0.0192201
-0.00778652
-0.00434634
-0.000875692
-0.000457801
0.00217128
)
;

boundaryField
{
    inlet
    {
        type            zeroGradient;
    }
    outlet
    {
        type            fixedValue;
        value           uniform 0;
    }
    cylinder
    {
        type            zeroGradient;
    }
    top
    {
        type            symmetryPlane;
    }
    bottom
    {
        type            symmetryPlane;
    }
    defaultFaces
    {
        type            empty;
    }
}


// ************************************************************************* //
