/*--------------------------------*- C++ -*----------------------------------*\
  =========                 |
  \\      /  F ield         | OpenFOAM: The Open Source CFD Toolbox
   \\    /   O peration     | Website:  https://openfoam.org
    \\  /    A nd           | Version:  6.0
     \\/     M anipulation  |
\*---------------------------------------------------------------------------*/
FoamFile
{
    version     2.0;
    format      ascii;
    class       volVectorField;
    location    "48";
    object      U;
}
// * * * * * * * * * * * * * * * * * * * * * * * * * * * * * * * * * * * * * //

dimensions      [0 1 -1 0 0 0 0];

internalField   nonuniform List<vector> 
2000
(
(-0.00199124 0.00173826 5.72908e-20)
(-0.00762162 0.00330233 6.80439e-20)
(-0.0153302 0.0036615 -6.4869e-20)
(-0.0223325 0.00333712 -1.32367e-19)
(-0.0276806 0.00263943 -9.24652e-20)
(-0.0312216 0.00177156 1.23183e-19)
(-0.0330529 0.000878897 7.17506e-20)
(-0.0334438 6.81387e-05 -2.90254e-20)
(-0.0328263 -0.000581594 -7.24581e-20)
(-0.0314953 -0.00100642 5.28316e-20)
(-0.0024897 0.00512124 -1.42008e-19)
(-0.0083707 0.00968527 1.96039e-19)
(-0.0157253 0.0106971 1.95488e-20)
(-0.0220252 0.00969691 -1.13553e-19)
(-0.0264595 0.00759762 5.43365e-19)
(-0.0289519 0.00499608 -2.39142e-19)
(-0.0296477 0.00232064 -2.5872e-19)
(-0.0288425 -0.000110433 3.12049e-19)
(-0.0269848 -0.0020554 -3.07754e-19)
(-0.0244468 -0.00332182 1.55257e-19)
(-0.00343576 0.00822482 2.35851e-20)
(-0.0097281 0.0154094 8.38834e-21)
(-0.0163015 0.0168858 5.87525e-19)
(-0.0211437 0.0151398 2.06098e-19)
(-0.0237177 0.0116327 4.0876e-20)
(-0.0240982 0.00731628 3.38026e-19)
(-0.0225238 0.00287624 -6.42036e-19)
(-0.0193385 -0.00116457 1.39247e-20)
(-0.0150202 -0.00438938 -3.79655e-19)
(-0.0101029 -0.0064746 4.18235e-19)
(-0.00472404 0.010868 -4.43658e-20)
(-0.0114034 0.0200601 2.55244e-19)
(-0.0166178 0.0217186 -7.43665e-19)
(-0.0191362 0.0191488 -9.61256e-20)
(-0.018832 0.014267 -5.47362e-19)
(-0.0160035 0.00831107 5.66883e-19)
(-0.0110227 0.00217563 -6.01286e-19)
(-0.00429641 -0.0034302 4.22274e-19)
(0.00366297 -0.0078967 1.77525e-19)
(0.0120634 -0.0107647 -2.006e-19)
(-0.00618706 0.0128748 -4.93794e-19)
(-0.0129399 0.0232572 4.45595e-21)
(-0.0159822 0.0247662 9.16087e-19)
(-0.0151343 0.0213424 2.7464e-19)
(-0.0108145 0.0152247 -8.73256e-19)
(-0.00361574 0.00783496 5.43009e-19)
(0.00591834 0.000195875 6.15491e-19)
(0.017314 -0.00683907 -5.48757e-19)
(0.0300357 -0.0124526 3.9126e-19)
(0.0429238 -0.016047 9.60786e-20)
(-0.00758377 0.0140743 6.74983e-20)
(-0.0136957 0.0246648 1.25189e-20)
(-0.0134291 0.0257004 -1.17121e-18)
(-0.00792061 0.0215112 -6.5523e-19)
(0.00173576 0.0144918 7.81634e-19)
(0.0145788 0.00611516 -9.15327e-19)
(0.0298497 -0.00259003 1.04887e-18)
(0.047009 -0.0107146 -9.05996e-20)
(0.0655398 -0.017249 -2.9508e-19)
(0.0837996 -0.0214705 -8.57633e-19)
(-0.00858782 0.014304 -1.46873e-19)
(-0.0128317 0.0240055 -2.68252e-19)
(-0.00771323 0.0243086 -3.29561e-19)
(0.00407949 0.0196267 7.03044e-19)
(0.0206598 0.0123266 1.30415e-18)
(0.040618 0.00378442 -2.69548e-19)
(0.0629145 -0.00513244 -6.56032e-19)
(0.0869296 -0.0136324 2.00091e-19)
(0.11225 -0.0206148 -1.26009e-18)
(0.136674 -0.025283 1.38409e-18)
(-0.00878373 0.0134242 8.98285e-19)
(-0.00932797 0.0210859 -4.90327e-19)
(0.00264625 0.0205021 9.57266e-19)
(0.0227358 0.0158173 -1.56398e-18)
(0.0481737 0.00920539 -7.47293e-19)
(0.0770145 0.00182596 -1.0351e-18)
(0.10783 -0.00579437 3.00725e-19)
(0.139843 -0.0132488 -8.37278e-19)
(0.172877 -0.0195733 1.82331e-18)
(0.204274 -0.0240801 5.104e-19)
(-0.00768222 0.0113475 6.61301e-20)
(-0.00204456 0.015839 7.98702e-19)
(0.0192556 0.0143224 1.5872e-18)
(0.0500649 0.0102999 4.85016e-19)
(0.0867024 0.00565905 1.43557e-18)
(0.126595 0.00135974 7.86863e-20)
(0.167733 -0.00240756 -7.0961e-22)
(0.208921 -0.00569283 5.78763e-19)
(0.250233 -0.0078392 4.68115e-19)
(0.289115 -0.009263 -1.5193e-18)
(-0.00477043 0.00808575 -5.32107e-19)
(0.010147 0.00838443 -8.91202e-19)
(0.0436438 0.00593771 -1.2954e-18)
(0.0879965 0.00320888 3.06112e-20)
(0.13875 0.00175658 -6.60381e-19)
(0.192805 0.00254251 1.04084e-18)
(0.247587 0.00588895 -2.86554e-18)
(0.301161 0.0120147 1.28649e-18)
(0.352883 0.0215145 4.83559e-19)
(0.40003 0.0302471 1.51716e-18)
(0.000388734 0.00380849 2.66178e-19)
(0.0281181 -0.000874533 -1.01895e-18)
(0.0768098 -0.00427303 9.0983e-19)
(0.137563 -0.00546169 -3.52983e-19)
(0.205554 -0.00344276 3.83949e-19)
(0.27782 0.00270741 8.35882e-19)
(0.352529 0.0137253 -1.12227e-18)
(0.429275 0.0305525 1.45812e-19)
(0.509037 0.0524526 -5.37776e-19)
(0.594171 0.0694529 1.09112e-18)
(0.00806027 -0.00110798 3.81369e-19)
(0.0522603 -0.0110932 -9.23818e-19)
(0.118756 -0.0153297 1.2587e-18)
(0.197749 -0.015019 -7.83878e-19)
(0.284049 -0.0102797 -2.87561e-19)
(0.374604 -0.000972319 1.7025e-19)
(0.467606 0.0128147 8.80226e-20)
(0.562488 0.0307696 1.19397e-18)
(0.658903 0.0501764 3.43716e-19)
(0.754559 0.0623395 1.46943e-18)
(0.0183521 -0.00610199 -3.40404e-19)
(0.0826129 -0.0209187 1.19445e-18)
(0.169007 -0.0252639 -9.96653e-19)
(0.267055 -0.0228313 -1.16886e-18)
(0.371088 -0.015101 1.63537e-18)
(0.477615 -0.00286613 -1.24345e-18)
(0.584239 0.0129427 3.28451e-19)
(0.689405 0.0312133 -1.94711e-18)
(0.791333 0.0492635 1.45852e-18)
(0.886041 0.0617487 7.28735e-20)
(0.0312703 -0.0105458 -4.43628e-19)
(0.118977 -0.0287939 -4.28437e-19)
(0.226869 -0.0317844 -9.12323e-19)
(0.344063 -0.0258916 1.10585e-18)
(0.464447 -0.0140397 -5.58552e-20)
(0.584061 0.00207584 7.1493e-19)
(0.699968 0.0208537 1.30423e-18)
(0.809929 0.0407961 -4.00796e-19)
(0.911577 0.0598086 -1.41763e-18)
(1.00091 0.0748777 2.81453e-18)
(0.0467453 -0.0138317 -2.29308e-19)
(0.160911 -0.0332169 -2.73518e-19)
(0.291339 -0.0327802 4.92219e-19)
(0.427114 -0.0216648 -9.14904e-19)
(0.561884 -0.0042619 1.56306e-19)
(0.691441 0.0168801 1.39097e-19)
(0.812663 0.0396125 6.1001e-20)
(0.9232 0.0622297 -9.85867e-21)
(1.02086 0.0832288 -1.49429e-19)
(1.10226 0.100991 -2.37942e-18)
(0.0646185 -0.0153976 9.30826e-19)
(0.207683 -0.0328633 -6.49613e-19)
(0.360982 -0.0265373 8.30776e-21)
(0.514053 -0.00833858 -9.89357e-19)
(0.660653 0.0159066 -3.53964e-19)
(0.796701 0.0428754 3.30961e-19)
(0.91936 0.0699938 2.5702e-19)
(1.02673 0.0954712 -9.15878e-19)
(1.11735 0.118342 7.48601e-19)
(1.18885 0.137792 -9.81522e-19)
(0.0846111 -0.0147325 4.01749e-19)
(0.258228 -0.0266432 -3.57048e-19)
(0.4339 -0.0118355 1.48303e-18)
(0.602224 0.0151008 1.51206e-19)
(0.75755 0.047019 3.47499e-19)
(0.896412 0.0799692 1.54882e-18)
(1.01678 0.111131 -2.36815e-19)
(1.11772 0.138798 2.15774e-19)
(1.19888 0.162564 8.93489e-20)
(1.25919 0.182096 -1.09971e-19)
(0.106293 -0.0113861 2.80679e-19)
(0.311141 -0.0137428 6.74819e-19)
(0.50778 0.012012 -7.22893e-19)
(0.688608 0.0488894 -2.44726e-19)
(0.849159 0.0886659 -3.02312e-19)
(0.987143 0.127018 4.68418e-19)
(1.10185 0.161148 -2.43648e-19)
(1.19374 0.189674 6.55507e-19)
(1.26384 0.212846 2.20585e-19)
(1.31249 0.230666 -3.59623e-19)
(0.129071 -0.00499457 -3.02467e-19)
(0.364701 0.00632846 2.68845e-19)
(0.580015 0.045137 -5.73663e-19)
(0.770038 0.0925429 2.4745e-19)
(0.932159 0.139656 -2.56762e-19)
(1.06584 0.182157 -3.20449e-19)
(1.17213 0.217628 -2.57332e-19)
(1.25319 0.2453 2.87586e-19)
(1.3115 0.266204 -5.4221e-19)
(1.34885 0.280637 3.27676e-19)
(0.152192 0.00468203 -1.07815e-19)
(0.416946 0.0336823 -2.10899e-19)
(0.647853 0.0871017 1.00429e-19)
(0.843432 0.144924 6.19183e-21)
(1.0036 0.198186 8.33302e-20)
(1.13007 0.243068 1.14321e-19)
(1.22601 0.277937 1.05951e-19)
(1.29535 0.302934 -1.40496e-19)
(1.34201 0.31998 1.19608e-19)
(1.36911 0.329675 -1.87181e-19)
(0.174775 0.017719 -6.24097e-20)
(0.465773 0.0680015 -2.34117e-20)
(0.708578 0.1369 9.31625e-20)
(0.906007 0.204326 -4.28887e-20)
(1.0611 0.262007 1.1431e-19)
(1.17821 0.307192 -1.47595e-19)
(1.26274 0.33945 3.42085e-20)
(1.32037 0.360077 3.67051e-20)
(1.35627 0.371951 -1.53847e-20)
(1.37465 0.375986 5.82077e-20)
(0.195856 0.0339917 -6.73284e-20)
(0.50907 0.10851 -3.0468e-19)
(0.759689 0.192986 -2.11026e-20)
(0.955468 0.268575 6.27158e-21)
(1.10299 0.328579 -3.96276e-19)
(1.20943 0.371907 5.2388e-20)
(1.2824 0.399693 -4.46008e-20)
(1.3291 0.414556 -1.07578e-19)
(1.35567 0.420329 2.24281e-19)
(1.36715 0.418231 -4.08932e-19)
(0.214444 0.0531505 -3.25174e-20)
(0.544851 0.15397 6.17064e-19)
(0.799063 0.253335 9.94256e-20)
(0.990134 0.335148 -5.43244e-19)
(1.12837 0.395217 -4.4052e-20)
(1.22372 0.434653 -5.20579e-19)
(1.28574 0.456424 3.81594e-19)
(1.32289 0.464538 -1.38449e-19)
(1.34191 0.463703 2.45601e-19)
(1.34841 0.45542 -1.79447e-19)
(0.229587 0.0746121 -2.05053e-19)
(0.571393 0.202718 1.9584e-19)
(0.825092 0.315541 -1.41354e-19)
(1.00902 0.401307 1.06546e-18)
(1.13708 0.459222 5.25836e-19)
(1.22172 0.493027 -1.21916e-19)
(1.27409 0.507671 4.10724e-19)
(1.30345 0.508498 -2.70259e-19)
(1.31688 0.500956 -7.52899e-20)
(1.32028 0.486798 4.93988e-19)
(0.240436 0.0975684 -3.5492e-19)
(0.587355 0.252731 4.51655e-19)
(0.836773 0.376931 -8.88625e-19)
(1.01185 0.464233 1.24794e-19)
(1.12967 0.51799 2.7887e-19)
(1.20469 0.544843 -4.27658e-19)
(1.24914 0.551725 -4.97927e-19)
(1.27272 0.545172 2.18564e-19)
(1.28252 0.531183 -2.63177e-19)
(1.28453 0.511755 3.15964e-19)
(0.246312 0.121013 -8.96757e-20)
(0.591872 0.301725 -4.59573e-19)
(0.833754 0.434708 2.54255e-19)
(0.99903 0.521159 4.26373e-19)
(1.10725 0.569097 -2.56407e-19)
(1.17428 0.588156 -1.9103e-19)
(1.21287 0.587119 -1.04311e-19)
(1.23273 0.573484 -5.15675e-20)
(1.24077 0.553598 1.07842e-20)
(1.24291 0.529719 1.07533e-19)
(0.246759 0.143785 6.58205e-20)
(0.584617 0.347278 -3.85629e-19)
(0.81634 0.486098 6.43185e-19)
(0.971581 0.569494 -3.81079e-19)
(1.07145 0.610386 1.06484e-19)
(1.13247 0.621291 -1.51062e-19)
(1.16741 0.612602 1.62626e-19)
(1.18559 0.592496 3.11566e-20)
(1.19356 0.567431 -7.79938e-20)
(1.19711 0.540021 1.51486e-19)
(0.241593 0.164636 -1.73032e-19)
(0.565833 0.386974 3.38047e-19)
(0.785448 0.528508 -1.52029e-20)
(0.931025 0.60695 -7.32279e-20)
(1.02419 0.640034 -2.01311e-19)
(1.08145 0.642882 2.48076e-20)
(1.11501 0.627183 6.15164e-20)
(1.1335 0.601458 -1.51509e-19)
(1.14302 0.571983 1.76953e-19)
(1.1492 0.541879 1.50319e-19)
(0.230935 0.18231 3.84392e-20)
(0.536325 0.418562 -8.09312e-20)
(0.742531 0.559669 2.42394e-20)
(0.879239 0.631621 1.2464e-20)
(0.967553 0.656554 7.79554e-20)
(1.02334 0.651785 -1.44056e-19)
(1.05788 0.629967 -3.0134e-19)
(1.07891 0.599657 -1.22927e-19)
(1.09213 0.566623 -1.57121e-19)
(1.10255 0.534701 1.33123e-19)
(0.21523 0.195653 1.10776e-19)
(0.49743 0.44013 -1.71711e-19)
(0.689467 0.577805 1.65738e-19)
(0.818263 0.64211 -3.14821e-19)
(0.903421 0.658818 7.63814e-20)
(0.959695 0.646834 5.16188e-19)
(0.997278 0.619363 -1.5829e-19)
(1.02316 0.584702 1.88165e-19)
(1.04271 0.548005 2.75471e-19)
(1.05903 0.515027 1.00196e-18)
(0.195249 0.203726 6.80448e-19)
(0.450967 0.450296 -4.63007e-19)
(0.628513 0.581864 1.1268e-18)
(0.750268 0.637905 -1.92978e-19)
(0.833389 0.646758 9.66755e-19)
(0.891057 0.628052 6.06535e-19)
(0.93231 0.594737 -1.42495e-18)
(0.96357 0.55388 2.16348e-18)
(0.989456 0.507899 -4.57206e-19)
(1.00632 0.461006 8.99665e-19)
(0.17205 0.205874 -3.75352e-19)
(0.399204 0.448254 -2.67603e-19)
(0.562391 0.571529 2.58803e-19)
(0.677928 0.619481 -6.41003e-19)
(0.759661 0.622009 -2.00213e-18)
(0.818699 0.598991 -8.05188e-19)
(0.862692 0.563188 -7.25738e-19)
(0.897113 0.521741 3.51218e-19)
(0.925117 0.478159 2.92722e-18)
(0.942605 0.437392 -6.08898e-19)
(0.146894 0.201721 1.97535e-19)
(0.344727 0.433649 -7.99422e-19)
(0.494241 0.546774 1.75831e-19)
(0.604666 0.587133 -1.28046e-18)
(0.686058 0.585016 2.80345e-18)
(0.747292 0.559929 -3.24922e-19)
(0.794584 0.52408 1.52763e-18)
(0.832423 0.484256 -2.18832e-18)
(0.863342 0.443962 6.86531e-19)
(0.884648 0.407477 1.06206e-19)
(0.121118 0.191156 1.45618e-19)
(0.290163 0.40655 8.81719e-19)
(0.427119 0.507894 -2.58993e-18)
(0.533587 0.541229 1.26028e-18)
(0.615632 0.535982 -4.16005e-21)
(0.679887 0.510616 -4.25283e-19)
(0.731204 0.476429 5.35223e-19)
(0.773236 0.439624 -5.31928e-19)
(0.808165 0.403351 -1.82849e-18)
(0.834247 0.370865 -5.01001e-19)
(0.0960486 0.174334 4.76476e-19)
(0.238033 0.367474 5.34618e-19)
(0.363854 0.455615 2.2082e-18)
(0.467419 0.482513 -1.22843e-18)
(0.550831 0.4755 2.53211e-18)
(0.618565 0.451352 -5.45421e-19)
(0.674213 0.420139 -5.76528e-19)
(0.720699 0.387299 6.813e-19)
(0.759931 0.355514 4.44205e-19)
(0.790869 0.327124 1.61058e-18)
(0.0729448 0.15167 -4.83557e-19)
(0.190664 0.317376 1.57841e-19)
(0.306988 0.391111 4.26869e-20)
(0.408535 0.412151 1.25234e-18)
(0.493702 0.404588 -3.12604e-18)
(0.56499 0.382953 5.31049e-19)
(0.624864 0.35582 1.17262e-18)
(0.675617 0.327751 -1.41764e-18)
(0.718933 0.30091 4.99425e-19)
(0.754394 0.276897 -2.31786e-18)
(0.0529468 0.123826 1.03049e-19)
(0.150114 0.257626 5.55917e-19)
(0.258722 0.315974 2.16215e-19)
(0.358945 0.331692 2.9302e-19)
(0.445941 0.324635 5.6147e-19)
(0.520504 0.306609 1.67168e-18)
(0.584154 0.284488 -2.04676e-18)
(0.638655 0.261882 -1.15279e-18)
(0.685522 0.240441 1.91038e-19)
(0.724903 0.221195 1.50297e-18)
(0.0370318 0.0916908 -6.23147e-19)
(0.118111 0.189953 -7.41307e-20)
(0.220874 0.23216 -6.20976e-19)
(0.320288 0.243022 8.84363e-20)
(0.408909 0.237333 -5.3159e-19)
(0.486184 0.2238 -6.06905e-19)
(0.55289 0.207442 -9.04443e-19)
(0.610384 0.190868 2.43722e-18)
(0.660066 0.175232 4.20482e-19)
(0.702561 0.161149 -6.40951e-19)
(0.0259729 0.0563423 3.35844e-19)
(0.0960029 0.116392 4.43909e-19)
(0.194847 0.141927 1.74893e-19)
(0.293812 0.148292 -9.43897e-19)
(0.38364 0.144613 -4.39426e-19)
(0.462844 0.136226 -9.46233e-20)
(0.531693 0.126185 1.84896e-19)
(0.591264 0.116066 1.48463e-19)
(0.642892 0.106552 -1.14803e-18)
(0.687548 0.0979585 6.58762e-19)
(0.0203063 0.0190051 -1.74894e-19)
(0.084714 0.0392055 -1.98971e-19)
(0.181592 0.0477519 1.58583e-19)
(0.280362 0.0498475 1.40794e-19)
(0.370831 0.0485766 1.44294e-19)
(0.451036 0.0457359 2.20674e-19)
(0.520987 0.0423506 -1.16023e-20)
(0.581621 0.0389481 -2.89465e-19)
(0.634242 0.035754 2.7496e-19)
(0.680003 0.032865 -4.13689e-19)
(0.0203063 -0.0190053 -1.76044e-19)
(0.084714 -0.0392057 -1.89615e-19)
(0.181592 -0.0477522 1.74744e-19)
(0.280362 -0.0498479 3.42132e-19)
(0.370831 -0.048577 2.27966e-19)
(0.451036 -0.0457363 -3.00376e-19)
(0.520987 -0.042351 -1.63221e-19)
(0.581621 -0.0389485 7.11801e-20)
(0.634242 -0.0357544 1.60031e-19)
(0.680003 -0.0328654 -9.52963e-20)
(0.0259729 -0.0563425 4.20119e-19)
(0.0960029 -0.116392 -5.33926e-19)
(0.194847 -0.141927 -4.44092e-20)
(0.293812 -0.148292 2.95832e-19)
(0.38364 -0.144614 -1.33751e-18)
(0.462844 -0.136227 5.71504e-19)
(0.531693 -0.126185 5.89955e-19)
(0.591264 -0.116066 -6.96468e-19)
(0.642892 -0.106552 6.65293e-19)
(0.687548 -0.0979588 -2.92003e-19)
(0.0370318 -0.0916909 -7.26355e-20)
(0.118111 -0.189953 -9.26691e-21)
(0.220874 -0.23216 -1.44217e-18)
(0.320288 -0.243022 -4.58783e-19)
(0.408909 -0.237333 -4.83714e-20)
(0.486184 -0.2238 -7.5474e-19)
(0.55289 -0.207442 1.40628e-18)
(0.610384 -0.190868 -4.94207e-20)
(0.660066 -0.175233 8.03015e-19)
(0.702562 -0.161149 -7.06078e-19)
(0.0529469 -0.123826 1.22672e-19)
(0.150114 -0.257626 -5.67942e-19)
(0.258722 -0.315974 1.74756e-18)
(0.358945 -0.331692 2.47297e-19)
(0.445941 -0.324635 1.21577e-18)
(0.520504 -0.306609 -1.18858e-18)
(0.584154 -0.284488 1.24777e-18)
(0.638655 -0.261882 -8.99606e-19)
(0.685522 -0.240441 -3.95062e-19)
(0.724903 -0.221195 3.35612e-19)
(0.0729448 -0.15167 1.0954e-18)
(0.190664 -0.317377 2.80498e-21)
(0.306988 -0.391112 -1.84177e-18)
(0.408535 -0.412151 -5.34354e-19)
(0.493703 -0.404589 1.77427e-18)
(0.56499 -0.382954 -1.03983e-18)
(0.624864 -0.355821 -1.20379e-18)
(0.675617 -0.327751 1.0831e-18)
(0.718933 -0.300911 -7.37375e-19)
(0.754394 -0.276898 -1.58973e-19)
(0.0960487 -0.174334 -1.63516e-19)
(0.238033 -0.367474 -7.75569e-21)
(0.363854 -0.455616 1.99876e-18)
(0.467419 -0.482513 1.14607e-18)
(0.550831 -0.4755 -1.35149e-18)
(0.618565 -0.451352 1.63637e-18)
(0.674213 -0.420139 -1.77564e-18)
(0.720699 -0.387299 1.76699e-19)
(0.759931 -0.355515 5.28874e-19)
(0.790869 -0.327125 1.22376e-18)
(0.121118 -0.191156 1.87437e-19)
(0.290163 -0.40655 3.01842e-19)
(0.427119 -0.507894 3.28334e-19)
(0.533587 -0.541229 -1.05557e-18)
(0.615632 -0.535983 -1.88028e-18)
(0.679887 -0.510616 3.95961e-19)
(0.731204 -0.47643 1.14584e-18)
(0.773236 -0.439624 -3.27992e-19)
(0.808165 -0.403352 1.97468e-18)
(0.834247 -0.370865 -1.92477e-18)
(0.146894 -0.201721 -1.06105e-18)
(0.344727 -0.433649 4.07721e-19)
(0.494241 -0.546774 -1.10092e-18)
(0.604666 -0.587133 1.77979e-18)
(0.686058 -0.585016 8.8997e-19)
(0.747292 -0.559929 1.25654e-18)
(0.794584 -0.52408 -2.90789e-19)
(0.832423 -0.484257 1.14572e-18)
(0.863342 -0.443962 -2.42572e-18)
(0.884648 -0.407477 -6.32402e-19)
(0.17205 -0.205874 6.24634e-20)
(0.399204 -0.448254 -7.1283e-19)
(0.562391 -0.571529 -1.14138e-18)
(0.677928 -0.619482 -4.83598e-19)
(0.759661 -0.622009 -1.36657e-18)
(0.818699 -0.598991 -1.3899e-19)
(0.862692 -0.563188 1.18832e-19)
(0.897113 -0.521741 -5.34009e-19)
(0.925117 -0.478159 -5.9679e-19)
(0.942605 -0.437392 1.57388e-18)
(0.195249 -0.203726 3.35412e-19)
(0.450967 -0.450296 4.68403e-19)
(0.628514 -0.581864 8.39135e-19)
(0.750268 -0.637905 3.72164e-20)
(0.833389 -0.646759 5.59882e-19)
(0.891057 -0.628052 -7.66674e-19)
(0.93231 -0.594737 2.34074e-18)
(0.963571 -0.553881 -1.03348e-18)
(0.989456 -0.507899 -5.07562e-19)
(1.00632 -0.461007 -1.53051e-18)
(0.21523 -0.195653 -1.32111e-19)
(0.49743 -0.44013 2.33389e-19)
(0.689467 -0.577805 -2.39167e-19)
(0.818263 -0.64211 1.28942e-19)
(0.903422 -0.658818 -1.52373e-19)
(0.959696 -0.646834 -3.90791e-19)
(0.997278 -0.619363 5.14064e-19)
(1.02316 -0.584703 -1.68152e-19)
(1.04271 -0.548005 2.60864e-19)
(1.05903 -0.515028 -5.6924e-19)
(0.230935 -0.18231 -7.38746e-21)
(0.536325 -0.418562 -1.06473e-19)
(0.742532 -0.559669 2.11887e-20)
(0.879239 -0.631621 1.44563e-19)
(0.967553 -0.656554 -6.53354e-20)
(1.02334 -0.651785 1.7542e-20)
(1.05788 -0.629967 -1.71883e-20)
(1.07891 -0.599657 -3.83349e-19)
(1.09214 -0.566623 -1.77955e-19)
(1.10255 -0.534701 -5.59966e-19)
(0.241593 -0.164636 -9.61326e-20)
(0.565833 -0.386974 3.39249e-19)
(0.785448 -0.528508 -2.10767e-19)
(0.931026 -0.60695 -7.59699e-20)
(1.02419 -0.640034 3.39347e-20)
(1.08145 -0.642882 7.15043e-20)
(1.11501 -0.627183 -7.01845e-21)
(1.1335 -0.601458 2.92435e-19)
(1.14303 -0.571983 -2.52704e-19)
(1.1492 -0.541879 -3.5794e-21)
(0.246759 -0.143785 -2.36709e-19)
(0.584617 -0.347278 -1.48243e-19)
(0.81634 -0.486098 -3.68108e-19)
(0.971582 -0.569494 4.18736e-19)
(1.07145 -0.610386 -3.0703e-20)
(1.13247 -0.621291 1.36111e-19)
(1.16741 -0.612602 1.53609e-19)
(1.18559 -0.592496 -5.58778e-20)
(1.19356 -0.567431 5.04793e-20)
(1.19711 -0.540021 -1.59846e-19)
(0.246312 -0.121013 -1.61019e-19)
(0.591872 -0.301725 -2.06835e-19)
(0.833755 -0.434708 3.11662e-19)
(0.99903 -0.521159 -4.68267e-19)
(1.10725 -0.569097 8.22593e-20)
(1.17428 -0.588156 4.15754e-20)
(1.21287 -0.587119 9.19877e-20)
(1.23273 -0.573484 -6.04727e-20)
(1.24077 -0.553598 -7.24227e-20)
(1.24291 -0.52972 -2.35911e-19)
(0.240436 -0.0975684 6.71307e-19)
(0.587355 -0.252731 -5.25377e-19)
(0.836773 -0.376931 2.45463e-20)
(1.01185 -0.464234 -6.73209e-19)
(1.12967 -0.51799 -1.95431e-19)
(1.20469 -0.544843 1.56348e-19)
(1.24914 -0.551725 1.14547e-19)
(1.27272 -0.545172 -3.82076e-19)
(1.28252 -0.531184 1.67696e-19)
(1.28453 -0.511755 -3.02444e-19)
(0.229587 -0.0746121 3.33152e-19)
(0.571393 -0.202718 -3.29722e-19)
(0.825092 -0.315541 1.18318e-18)
(1.00902 -0.401307 9.43482e-20)
(1.13708 -0.459223 2.68327e-19)
(1.22172 -0.493027 9.57173e-19)
(1.27409 -0.507671 -1.98965e-19)
(1.30345 -0.508499 4.83178e-20)
(1.31688 -0.500956 -2.84371e-20)
(1.32028 -0.486799 -4.95301e-20)
(0.214444 -0.0531505 2.56808e-19)
(0.544851 -0.15397 5.83536e-19)
(0.799064 -0.253335 -5.94785e-19)
(0.990134 -0.335148 -1.80665e-19)
(1.12837 -0.395217 -1.91271e-19)
(1.22372 -0.434653 3.7655e-19)
(1.28574 -0.456425 -1.77686e-19)
(1.32289 -0.464538 4.18943e-19)
(1.34191 -0.463703 1.00808e-19)
(1.34841 -0.45542 -1.77291e-19)
(0.195856 -0.0339917 -2.77405e-19)
(0.50907 -0.10851 2.57426e-19)
(0.75969 -0.192986 -5.28499e-19)
(0.955468 -0.268575 2.21269e-19)
(1.10299 -0.328579 -2.21766e-19)
(1.20943 -0.371907 -2.63701e-19)
(1.2824 -0.399693 -2.04606e-19)
(1.3291 -0.414556 2.25744e-19)
(1.35567 -0.420329 -3.92368e-19)
(1.36715 -0.418231 2.48393e-19)
(0.174775 -0.017719 -1.03926e-19)
(0.465773 -0.0680015 -2.03938e-19)
(0.708578 -0.1369 9.59366e-20)
(0.906007 -0.204326 7.08311e-21)
(1.0611 -0.262007 7.63541e-20)
(1.17821 -0.307192 1.09398e-19)
(1.26274 -0.33945 9.3151e-20)
(1.32037 -0.360077 -1.26032e-19)
(1.35627 -0.371951 1.02738e-19)
(1.37465 -0.375986 -1.62289e-19)
(0.152192 -0.00468204 -6.54866e-20)
(0.416946 -0.0336823 -2.63955e-20)
(0.647853 -0.0871017 9.83507e-20)
(0.843432 -0.144924 -4.43701e-20)
(1.0036 -0.198186 1.24172e-19)
(1.13007 -0.243068 -1.56954e-19)
(1.22601 -0.277937 4.03222e-20)
(1.29535 -0.302934 3.46038e-20)
(1.34201 -0.31998 -1.23619e-20)
(1.36911 -0.329675 5.6736e-20)
(0.129071 0.00499457 -7.85617e-20)
(0.364701 -0.00632846 -3.33065e-19)
(0.580015 -0.045137 -2.68246e-20)
(0.770039 -0.0925429 1.0707e-20)
(0.932159 -0.139656 -4.61996e-19)
(1.06584 -0.182157 4.87864e-20)
(1.17213 -0.217628 -5.16883e-20)
(1.25319 -0.2453 -1.40588e-19)
(1.3115 -0.266204 3.11076e-19)
(1.34885 -0.280637 -5.65943e-19)
(0.106293 0.0113861 -4.45389e-20)
(0.311141 0.0137428 7.14373e-19)
(0.50778 -0.012012 9.52805e-20)
(0.688608 -0.0488894 -6.45319e-19)
(0.849159 -0.0886659 -7.72727e-20)
(0.987143 -0.127018 -7.27714e-19)
(1.10185 -0.161148 5.65845e-19)
(1.19374 -0.189674 -2.29661e-19)
(1.26384 -0.212846 4.35306e-19)
(1.3125 -0.230666 -3.84027e-19)
(0.0846111 0.0147325 -2.51899e-19)
(0.258228 0.0266432 2.93301e-19)
(0.4339 0.0118355 -2.04872e-19)
(0.602224 -0.0151007 1.41613e-18)
(0.75755 -0.047019 7.49606e-19)
(0.896412 -0.0799692 -1.96289e-19)
(1.01678 -0.111131 7.63254e-19)
(1.11772 -0.138798 -4.99043e-19)
(1.19888 -0.162564 -1.60486e-19)
(1.25919 -0.182096 1.15953e-18)
(0.0646186 0.0153976 -4.65672e-19)
(0.207683 0.0328633 6.95276e-19)
(0.360982 0.0265373 -1.31854e-18)
(0.514053 0.00833859 2.28235e-19)
(0.660654 -0.0159065 5.69057e-19)
(0.796702 -0.0428754 -7.1511e-19)
(0.919361 -0.0699938 -1.26654e-18)
(1.02673 -0.0954712 6.78973e-19)
(1.11735 -0.118342 -8.83018e-19)
(1.18885 -0.137792 1.41311e-18)
(0.0467453 0.0138317 -1.15117e-19)
(0.160911 0.0332169 -6.99815e-19)
(0.29134 0.0327802 3.45457e-19)
(0.427114 0.0216648 8.64166e-19)
(0.561884 0.0042619 -4.64188e-19)
(0.691441 -0.0168801 -4.58085e-19)
(0.812663 -0.0396125 -7.76662e-19)
(0.9232 -0.0622297 -3.55884e-19)
(1.02086 -0.0832288 -8.54681e-20)
(1.10226 -0.100991 1.41223e-18)
(0.0312703 0.0105458 1.93286e-19)
(0.118977 0.0287938 -9.50666e-19)
(0.226869 0.0317844 1.62607e-18)
(0.344063 0.0258915 -9.05454e-19)
(0.464447 0.0140397 5.86642e-19)
(0.584061 -0.00207585 -7.2996e-19)
(0.699968 -0.0208537 8.12999e-19)
(0.80993 -0.0407961 7.1004e-19)
(0.911577 -0.0598085 1.55135e-18)
(1.00091 -0.0748776 -2.56474e-18)
(0.0183521 0.00610198 -6.00588e-19)
(0.0826129 0.0209187 1.20599e-18)
(0.169007 0.0252639 1.60941e-20)
(0.267055 0.0228313 -4.34384e-19)
(0.371088 0.015101 -2.30677e-19)
(0.477615 0.0028661 1.8437e-19)
(0.58424 -0.0129427 -1.30893e-18)
(0.689406 -0.0312133 1.01128e-18)
(0.791334 -0.0492635 -1.30335e-18)
(0.886041 -0.0617487 -5.94924e-19)
(0.00806026 0.00110797 1.03349e-18)
(0.0522603 0.0110932 -3.22401e-19)
(0.118756 0.0153296 -6.04778e-19)
(0.197749 0.015019 1.64255e-18)
(0.284049 0.0102797 -1.61351e-18)
(0.374604 0.000972259 9.01483e-19)
(0.467606 -0.0128148 9.6012e-19)
(0.562489 -0.0307696 2.6273e-19)
(0.658903 -0.0501764 2.73255e-19)
(0.754559 -0.0623395 -3.87631e-19)
(0.000388715 -0.00380851 -9.88402e-19)
(0.0281181 0.000874475 9.39462e-19)
(0.0768098 0.00427294 -8.31389e-19)
(0.137563 0.00546158 1.04309e-18)
(0.205554 0.00344265 -3.11638e-19)
(0.277821 -0.00270752 -1.08232e-18)
(0.352529 -0.0137254 3.1038e-19)
(0.429275 -0.0305526 -5.12099e-19)
(0.509037 -0.0524527 -6.06537e-19)
(0.594171 -0.069453 -1.89223e-18)
(-0.00477045 -0.00808579 -1.2347e-18)
(0.010147 -0.00838452 9.81608e-19)
(0.0436438 -0.00593784 -1.92327e-18)
(0.0879965 -0.00320905 3.43913e-19)
(0.13875 -0.00175677 -1.33241e-18)
(0.192805 -0.0025427 -7.99115e-19)
(0.247587 -0.00588914 1.91237e-18)
(0.301161 -0.0120149 -2.61449e-18)
(0.352883 -0.0215147 5.03235e-19)
(0.40003 -0.0302473 -8.28683e-19)
(-0.00768225 -0.0113475 6.08194e-19)
(-0.00204461 -0.0158391 2.57334e-19)
(0.0192555 -0.0143226 -7.65407e-20)
(0.0500649 -0.0103002 7.3086e-19)
(0.0867025 -0.00565932 2.14612e-18)
(0.126595 -0.00136002 7.40716e-19)
(0.167734 0.00240727 7.65363e-19)
(0.208921 0.00569254 -2.64644e-19)
(0.250234 0.0078389 -2.46857e-18)
(0.289116 0.00926269 6.26054e-19)
(-0.00878377 -0.0134242 -1.71699e-19)
(-0.00932804 -0.0210861 5.46485e-19)
(0.0026462 -0.0205024 -1.4316e-19)
(0.0227358 -0.0158176 1.01082e-18)
(0.0481738 -0.00920574 -2.3371e-18)
(0.0770146 -0.00182634 1.98373e-19)
(0.10783 0.00579398 -1.11228e-18)
(0.139843 0.0132484 1.63669e-18)
(0.172877 0.0195729 -4.78394e-19)
(0.204274 0.0240796 -6.83601e-20)
(-0.00858785 -0.0143041 -1.16887e-19)
(-0.0128318 -0.0240058 -6.57211e-19)
(-0.00771329 -0.0243089 1.65284e-18)
(0.00407947 -0.0196271 -8.71465e-19)
(0.0206599 -0.0123271 6.12495e-20)
(0.0406181 -0.0037849 2.79668e-19)
(0.0629147 0.00513194 -2.55583e-19)
(0.0869298 0.0136319 3.32166e-19)
(0.11225 0.0206143 1.151e-18)
(0.136674 0.0252825 3.01193e-19)
(-0.00758381 -0.0140744 -2.62169e-19)
(-0.0136958 -0.0246651 -2.91605e-19)
(-0.0134291 -0.0257008 -1.29434e-18)
(-0.00792063 -0.0215117 6.89192e-19)
(0.00173579 -0.0144924 -1.42153e-18)
(0.0145789 -0.00611574 3.22941e-19)
(0.0298499 0.00258943 3.63124e-19)
(0.0470093 0.0107139 -3.83748e-19)
(0.0655401 0.0172484 -2.48278e-19)
(0.0838 0.0214698 -1.11582e-18)
(-0.0061871 -0.0128749 2.04803e-19)
(-0.01294 -0.0232575 -4.81737e-20)
(-0.0159823 -0.0247667 9.78679e-22)
(-0.0151343 -0.021343 -6.2201e-19)
(-0.0108145 -0.0152254 1.57459e-18)
(-0.00361566 -0.00783563 -2.45598e-19)
(0.00591848 -0.000196557 -6.12899e-19)
(0.0173142 0.00683837 7.5016e-19)
(0.030036 0.0124519 -2.6362e-19)
(0.0429241 0.0160462 1.45712e-18)
(-0.00472408 -0.0108681 -3.84402e-20)
(-0.0114034 -0.0200605 -2.25373e-19)
(-0.0166178 -0.0217192 -8.89484e-20)
(-0.0191362 -0.0191494 -1.13635e-19)
(-0.018832 -0.0142677 -2.44313e-19)
(-0.0160034 -0.0083118 -7.67232e-19)
(-0.0110226 -0.00217639 9.59712e-19)
(-0.00429623 0.00342944 5.60618e-19)
(0.00366319 0.00789592 -1.00429e-19)
(0.0120637 0.0107639 -8.93763e-19)
(-0.00343578 -0.00822501 2.1829e-19)
(-0.00972816 -0.0154098 3.81463e-20)
(-0.0163016 -0.0168864 2.58205e-19)
(-0.0211437 -0.0151405 -2.95526e-20)
(-0.0237177 -0.0116335 2.35115e-19)
(-0.0240982 -0.00731708 2.65264e-19)
(-0.0225237 -0.00287706 3.97684e-19)
(-0.0193384 0.00116374 -1.12657e-18)
(-0.01502 0.00438854 -2.07929e-19)
(-0.0101027 0.00647374 3.72653e-19)
(-0.00248972 -0.00512144 -1.10224e-19)
(-0.00837074 -0.00968573 -1.56663e-19)
(-0.0157253 -0.0106978 -7.53647e-20)
(-0.0220252 -0.00969765 3.68618e-19)
(-0.0264595 -0.00759842 1.78928e-19)
(-0.0289519 -0.00499693 3.66942e-20)
(-0.0296477 -0.0023215 -7.95559e-20)
(-0.0288424 0.000109562 -6.17134e-20)
(-0.0269847 0.00205452 5.29723e-19)
(-0.0244466 0.00332092 -3.60781e-19)
(-0.00199124 -0.00173847 5.6191e-20)
(-0.00762163 -0.0033028 6.99176e-20)
(-0.0153302 -0.00366215 -5.96181e-20)
(-0.0223325 -0.00333788 -5.453e-20)
(-0.0276806 -0.00264026 -5.65393e-20)
(-0.0312216 -0.00177242 -9.02173e-20)
(-0.0330529 -0.000879779 2.89773e-21)
(-0.0334438 -6.90315e-05 1.25176e-19)
(-0.0328263 0.000580689 -1.25685e-19)
(-0.0314953 0.00100549 2.28675e-19)
(-0.00813457 -0.00258647 1.65346e-20)
(0.0621343 -0.00662568 9.8875e-21)
(0.277541 -0.00670727 1.33773e-21)
(0.376971 -0.00438829 -9.0247e-22)
(0.479667 -0.00368548 -6.35494e-23)
(0.553564 -0.0026428 1.48079e-22)
(0.606048 -0.00218977 1.66436e-22)
(0.660358 -0.00157995 -3.40445e-23)
(0.683585 -0.00145491 -2.48385e-24)
(0.733827 -0.00100558 2.43812e-22)
(0.00866512 -0.00806182 2.62209e-20)
(0.0773877 -0.0197176 1.2533e-21)
(0.289032 -0.0199736 -1.74813e-20)
(0.385728 -0.0130639 1.40459e-20)
(0.486375 -0.0109721 8.87301e-22)
(0.558799 -0.00786737 -5.94373e-22)
(0.610319 -0.00651823 6.89122e-22)
(0.663716 -0.0047131 6.98129e-23)
(0.686518 -0.00435858 1.40521e-22)
(0.73605 -0.00301205 -2.23434e-22)
(0.04197 -0.0144175 2.68573e-20)
(0.107421 -0.0323285 -3.61029e-20)
(0.311586 -0.0327809 1.78702e-20)
(0.402929 -0.0214387 -1.16359e-20)
(0.499559 -0.0180314 8.28423e-22)
(0.569102 -0.0129404 -6.45595e-22)
(0.618736 -0.0107316 -2.56968e-22)
(0.670347 -0.00776658 8.41691e-25)
(0.692315 -0.00719644 -1.0761e-22)
(0.740455 -0.00497897 -3.26197e-22)
(0.0911783 -0.0221316 -4.16275e-20)
(0.151312 -0.0441592 -5.01136e-20)
(0.344372 -0.0448442 -2.31236e-20)
(0.427968 -0.0293292 1.21289e-20)
(0.518765 -0.0247237 -1.4539e-20)
(0.584148 -0.0177685 3.84572e-21)
(0.631054 -0.0147585 -2.08983e-22)
(0.68008 -0.0106906 1.20922e-22)
(0.700844 -0.00992691 -1.29186e-22)
(0.74696 -0.00688099 1.21064e-22)
(0.155359 -0.031477 1.1513e-19)
(0.207735 -0.054922 7.22384e-20)
(0.386204 -0.0558999 2.5981e-20)
(0.459978 -0.0365732 -2.35704e-20)
(0.543349 -0.0309249 1.19343e-20)
(0.603473 -0.0222689 3.16132e-21)
(0.646925 -0.0185345 2.21037e-21)
(0.692669 -0.0134402 2.39368e-22)
(0.711914 -0.0125117 2.87033e-22)
(0.755446 -0.00869435 -6.4237e-22)
(0.23323 -0.0423812 -5.08269e-20)
(0.275013 -0.064302 3.90013e-20)
(0.435601 -0.0656946 4.82026e-21)
(0.497876 -0.0430274 2.6287e-20)
(0.572508 -0.0365282 -5.94729e-21)
(0.626497 -0.026371 -3.68449e-21)
(0.665909 -0.0220044 -2.28323e-21)
(0.707802 -0.0159766 -1.47696e-22)
(0.725281 -0.0149171 -1.55749e-22)
(0.765761 -0.0103974 6.89149e-22)
(0.323164 -0.0545639 -3.86785e-20)
(0.351175 -0.0720345 -1.0078e-19)
(0.490865 -0.0740253 -1.70479e-20)
(0.540428 -0.048576 -1.464e-20)
(0.605326 -0.041451 6.97339e-21)
(0.652552 -0.0300196 -1.94234e-21)
(0.687497 -0.025124 2.45612e-21)
(0.725117 -0.018268 4.49647e-22)
(0.740658 -0.0171147 -4.66419e-23)
(0.77772 -0.0119707 2.65353e-22)