1.45 	0 	0 	-0.255167
2.35 	0 	0 	-0.0191067
