1.275 	2.15223e-18 	-2.76991e-20 	0.358012 	-0.0121152 	-8.96875e-23
1.825 	2.15223e-18 	-1.39322e-20 	0.63521 	-0.00850223 	-2.5495e-22
2.375 	2.15223e-18 	-2.66896e-23 	0.831264 	-0.00454575 	-6.34336e-25
