/*--------------------------------*- C++ -*----------------------------------*\
  =========                 |
  \\      /  F ield         | OpenFOAM: The Open Source CFD Toolbox
   \\    /   O peration     | Website:  https://openfoam.org
    \\  /    A nd           | Version:  6.0
     \\/     M anipulation  |
\*---------------------------------------------------------------------------*/
FoamFile
{
    version     2.0;
    format      ascii;
    class       surfaceScalarField;
    location    "32";
    object      phi;
}
// * * * * * * * * * * * * * * * * * * * * * * * * * * * * * * * * * * * * * //

dimensions      [0 3 -1 0 0 0 0];

internalField   nonuniform List<scalar> 
3880
(
-1.79766e-05
1.79785e-05
-1.8514e-09
-5.34951e-05
3.55229e-05
-4.44666e-09
-9.53876e-05
4.18988e-05
-6.31022e-09
-0.000136589
4.12088e-05
-7.64201e-09
-0.000172738
3.61578e-05
-8.5895e-09
-0.000201424
2.86951e-05
-9.2613e-09
-0.000221713
2.02992e-05
-9.73164e-09
-0.000233844
1.21409e-05
-1.00642e-08
-0.000239023
5.1896e-06
-1.03262e-08
2.19796e-07
-1.05806e-08
-0.000239233
-1.72979e-05
3.52764e-05
-5.0846e-05
6.9071e-05
-8.96149e-05
8.06677e-05
-0.000126652
7.82459e-05
-0.000157638
6.71435e-05
-0.000180127
5.11846e-05
-0.0001931
3.32724e-05
-0.000196696
1.5736e-05
-0.000192064
5.58345e-07
-1.06227e-05
-0.000181222
-1.59052e-05
5.11816e-05
-4.54314e-05
9.85972e-05
-7.78666e-05
0.000113103
-0.000106527
0.000106907
-0.00012722
8.7836e-05
-0.000137468
6.14328e-05
-0.000136095
3.18992e-05
-0.000123031
2.67213e-06
-9.92911e-05
-2.31814e-05
-4.29708e-05
-6.69429e-05
-1.37113e-05
6.48929e-05
-3.69695e-05
0.000121855
-5.9634e-05
0.000135767
-7.5529e-05
0.000122802
-8.07613e-05
9.30683e-05
-7.29098e-05
5.35813e-05
-5.06237e-05
9.61303e-06
-1.35179e-05
-3.44337e-05
3.76617e-05
-7.43609e-05
-0.000106134
0.000100825
-1.0553e-05
7.54459e-05
-2.49426e-05
0.000136245
-3.39476e-05
0.000144772
-3.22396e-05
0.000121094
-1.65326e-05
7.73612e-05
1.53e-05
2.17487e-05
6.46682e-05
-3.97552e-05
0.000132335
-0.0001021
0.00021802
-0.000160046
-0.000207842
0.000319728
-6.17891e-06
8.16248e-05
-8.56243e-06
0.000138629
7.29245e-07
0.000135481
2.57613e-05
9.60617e-05
6.87605e-05
3.43621e-05
0.000131091
-4.05814e-05
0.000213836
-0.000122501
0.000318005
-0.00020627
0.000444021
-0.000286062
-0.000353975
0.000590153
-2.77393e-07
8.19022e-05
1.31464e-05
0.000125205
4.63886e-05
0.000102239
0.000101864
4.05868e-05
0.000180219
-4.3993e-05
0.00028134
-0.000141703
0.000405143
-0.000246303
0.000552183
-0.00035331
0.000723544
-0.000457423
-0.000548757
0.000918326
7.4352e-06
7.4467e-05
4.10663e-05
9.15736e-05
0.000104956
3.83493e-05
0.000199697
-5.41543e-05
0.000323997
-0.000168293
0.000475483
-0.000293188
0.000651538
-0.000422359
0.000850458
-0.00055223
0.00107271
-0.000679675
-0.000797709
0.00132166
1.70668e-05
5.74002e-05
7.5511e-05
3.31294e-05
0.000177321
-6.34608e-05
0.000321583
-0.000198416
0.000505348
-0.000352058
0.00072385
-0.000511691
0.000970815
-0.000669324
0.00123943
-0.000820844
0.00152593
-0.000966177
-0.00111602
0.00184424
2.83517e-05
2.90484e-05
0.000115566
-5.40844e-05
0.000261846
-0.000209741
0.00046579
-0.00040236
0.000724607
-0.000610875
0.00103383
-0.000820915
0.00138667
-0.00102216
0.00177232
-0.0012065
0.00217509
-0.00136894
-0.00151349
0.00257255
4.04761e-05
-1.14277e-05
0.000158379
-0.000171987
0.000352097
-0.000403459
0.000620366
-0.000670629
0.000962568
-0.000953078
0.0013794
-0.00123775
0.00187411
-0.00151687
0.00245579
-0.00178818
0.00314739
-0.00206054
-0.00237231
0.00400621
5.23604e-05
-6.37881e-05
0.000199958
-0.000319585
0.000438013
-0.000641514
0.000763014
-0.00099563
0.00117228
-0.00136234
0.00166394
-0.00172941
0.00223694
-0.00208986
0.00289041
-0.00244165
0.00361885
-0.00278898
-0.0031409
0.00438744
6.34859e-05
-0.000127274
0.000238254
-0.000494353
0.00051487
-0.00091813
0.000885324
-0.00136608
0.00134185
-0.00181887
0.00187632
-0.00226388
0.00247954
-0.00269308
0.00313971
-0.00310182
0.00383826
-0.00348753
-0.00384409
0.00454145
7.38725e-05
-0.000201147
0.000272992
-0.000693473
0.000582128
-0.00122727
0.000987497
-0.00177145
0.00147523
-0.0023066
0.00203071
-0.00281936
0.00263817
-0.00330053
0.00327988
-0.00374353
0.00393458
-0.00414224
-0.00448546
0.00457595
8.36637e-05
-0.00028481
0.000304316
-0.000914125
0.000640053
-0.001563
0.0010707
-0.0022021
0.00157623
-0.00281213
0.00213647
-0.0033796
0.00273121
-0.00389528
0.00334036
-0.00435268
0.00394379
-0.00474567
-0.00506335
0.00452168
9.28491e-05
-0.000377659
0.000331969
-0.00115325
0.000688077
-0.00191911
0.00113438
-0.0026484
0.00164514
-0.00332289
0.00219583
-0.00393029
0.00276372
-0.00446317
0.00332854
-0.0049175
0.00387284
-0.00528997
-0.00557331
0.0043828
0.000101185
-0.000478845
0.000355069
-0.00140713
0.000724488
-0.00228853
0.00117614
-0.00310005
0.00167936
-0.00382611
0.00220662
-0.00445755
0.00273443
-0.00499098
0.00324396
-0.00542703
0.00372139
-0.0057674
-0.00601049
0.00415857
0.000108242
-0.000587087
0.000372271
-0.00167116
0.000746865
-0.00266312
0.0011927
-0.00354589
0.00167529
-0.0043087
0.00216568
-0.00494795
0.00264124
-0.00546653
0.00308588
-0.00587167
0.00349004
-0.00617156
-0.0063713
0.00385084
0.000113496
-0.000700583
0.000382061
-0.00193972
0.000752695
-0.00303376
0.00118098
-0.00397418
0.00163007
-0.00475778
0.00207122
-0.0053891
0.00248412
-0.00587944
0.00285645
-0.00624399
0.00318313
-0.00649823
-0.0066541
0.00346592
0.000116416
-0.000816999
0.000383026
-0.00220633
0.000739893
-0.00339062
0.0011389
-0.00437318
0.00154252
-0.0051614
0.00192388
-0.00577046
0.00226617
-0.00622173
0.00256139
-0.00653922
0.00280884
-0.00674568
-0.00685933
0.00301407
0.000116537
-0.000933536
0.000374059
-0.00246385
0.000707142
-0.00372371
0.00106576
-0.0047318
0.00141353
-0.00550918
0.00172687
-0.0060838
0.00199332
-0.00648818
0.00220934
-0.00675523
0.00237808
-0.00691442
-0.00698919
0.00250795
0.000113457
-0.00104699
0.000354397
-0.00270479
0.000653932
-0.00402324
0.000962209
-0.00504008
0.00124577
-0.00579273
0.00148543
-0.00632347
0.00167349
-0.00667623
0.00181056
-0.00689231
0.00190299
-0.00700685
-0.00704719
0.00196099
0.000106917
-0.00115391
0.000323753
-0.00292163
0.000580679
-0.00428017
0.000830222
-0.00528962
0.00104341
-0.00600592
0.00120623
-0.00648629
0.00131567
-0.00678567
0.00137597
-0.0069526
0.00139575
-0.00702663
-0.00703763
0.00138619
9.67697e-05
-0.00125068
0.000282252
-0.00310711
0.000488536
-0.00448645
0.0006727
-0.00547378
0.000811519
-0.00614474
0.000896501
-0.00657127
0.000928955
-0.00681813
0.000915944
-0.00693959
0.000867523
-0.00697821
-0.00696519
0.000795084
8.29976e-05
-0.00133368
0.000230408
-0.00325452
0.000379266
-0.00463531
0.000493166
-0.00558768
0.000555527
-0.0062071
0.00056337
-0.00657912
0.000521748
-0.0067765
0.000439669
-0.00685751
0.000327783
-0.00686632
-0.00683461
0.000197206
6.57178e-05
-0.00139939
0.000169107
-0.00335791
0.000255126
-0.00472133
0.000295509
-0.00562807
0.000280824
-0.00619242
0.000213351
-0.00651164
0.000101213
-0.00666436
-4.54674e-05
-0.00671083
-0.000216198
-0.00669559
-0.00665047
-0.000400343
4.52008e-05
-0.0014446
9.96103e-05
-0.00341232
0.000118822
-0.00474054
8.38792e-05
-0.00559312
-7.38386e-06
-0.00610115
-0.000147856
-0.00637117
-0.000326959
-0.00648526
-0.000534121
-0.00650367
-0.000759619
-0.0064701
-0.00641655
-0.000993538
2.18966e-05
-0.00146649
2.35879e-05
-0.00341401
-2.64577e-05
-0.0046905
-0.000137258
-0.00548232
-0.000303981
-0.00593443
-0.000515232
-0.00615992
-0.000758441
-0.00624205
-0.00102297
-0.00623914
-0.00130039
-0.00619268
-0.00613333
-0.00158361
-3.52484e-06
-0.00146297
-5.68029e-05
-0.00336074
-0.000176925
-0.00457037
-0.000362971
-0.00529628
-0.000603863
-0.00569354
-0.00088471
-0.00587907
-0.00119129
-0.00593548
-0.00151275
-0.00591768
-0.00184206
-0.00586336
-0.00579384
-0.00218156
-3.01086e-05
-0.00143286
-0.000138741
-0.0032521
-0.000327733
-0.00438138
-0.000586886
-0.00503712
-0.000900382
-0.00538004
-0.00125161
-0.00552784
-0.00162605
-0.00556104
-0.00201329
-0.00553044
-0.00240935
-0.00546729
-0.00540648
-0.00279671
-5.66212e-05
-0.00137624
-0.000218708
-0.00309002
-0.000472471
-0.00412762
-0.000799088
-0.00471051
-0.00117943
-0.0049997
-0.00159759
-0.00510968
-0.00204226
-0.00511637
-0.00250618
-0.00506652
-0.00298845
-0.00498503
-0.00486994
-0.00352498
-8.1987e-05
-0.00129425
-0.000293658
-0.00287834
-0.000605389
-0.00381589
-0.000989456
-0.00432644
-0.00142232
-0.00456683
-0.00188593
-0.00464607
-0.00236728
-0.00463501
-0.00285741
-0.0045764
-0.00335012
-0.00449231
-0.00439084
-0.00382922
-0.000105568
-0.00118868
-0.000362212
-0.0026217
-0.000725126
-0.00345297
-0.00115831
-0.00389326
-0.00163423
-0.0040909
-0.0021332
-0.00414711
-0.00264176
-0.00412646
-0.00315091
-0.00406725
-0.00365347
-0.00398975
-0.00390446
-0.00413986
-0.00012702
-0.00106166
-0.000423782
-0.00232494
-0.000831575
-0.00304518
-0.00130722
-0.00341762
-0.00182016
-0.00357796
-0.00234995
-0.00361732
-0.00288352
-0.00359289
-0.0034127
-0.00353806
-0.00393192
-0.00347053
-0.00339977
-0.00443661
-0.000146082
-0.00091558
-0.000477932
-0.00199309
-0.000924554
-0.00259856
-0.00143676
-0.00290541
-0.00198181
-0.00303291
-0.00253908
-0.00306005
-0.00309627
-0.00303569
-0.0036464
-0.00298794
-0.00418548
-0.00293145
-0.00287403
-0.00471122
-0.000162505
-0.000753075
-0.000524207
-0.00163139
-0.00100363
-0.00211914
-0.00154671
-0.00236233
-0.00211915
-0.00246048
-0.00270043
-0.00247876
-0.00327913
-0.002457
-0.00384931
-0.00241775
-0.00440817
-0.0023726
-0.00232762
-0.00495458
-0.000176039
-0.000577036
-0.000562096
-0.00124533
-0.00106815
-0.00161308
-0.00163633
-0.00179414
-0.00223123
-0.00186558
-0.00283258
-0.00187741
-0.00342969
-0.00185989
-0.00401748
-0.00182996
-0.00459392
-0.00179616
-0.00176296
-0.00515858
-0.000186443
-0.000390593
-0.000591078
-0.000840694
-0.00111738
-0.00108678
-0.00170467
-0.00120685
-0.00231679
-0.00125347
-0.00293371
-0.00126049
-0.00354532
-0.00124828
-0.00414715
-0.00122812
-0.00473768
-0.00120563
-0.00118375
-0.0053169
-0.000193509
-0.000197084
-0.000610692
-0.000423511
-0.00115064
-0.000546825
-0.00175082
-0.000606676
-0.00237461
-0.000629682
-0.00300216
-0.000632945
-0.00362375
-0.000626687
-0.00423533
-0.00061655
-0.00483564
-0.000605319
-0.00059445
-0.00542494
-0.000197082
-1.26056e-09
-0.00062059
-2.70642e-09
-0.00116741
-3.44199e-09
-0.00177408
-3.72236e-09
-0.00240376
-3.73927e-09
-0.0030367
-3.61943e-09
-0.00366339
-3.43904e-09
-0.00427993
-3.23916e-09
-0.00488525
-3.03523e-09
-2.82989e-09
-0.0054797
-0.000197082
0.000197081
-0.00062059
0.000423505
-0.00116741
0.000546818
-0.00177408
0.000606668
-0.00240376
0.000629675
-0.0030367
0.000632937
-0.00366339
0.00062668
-0.00427993
0.000616544
-0.00488525
0.000605313
0.000594444
-0.0054797
-0.000193509
0.00039059
-0.000610692
0.000840688
-0.00115064
0.00108677
-0.00175082
0.00120685
-0.00237461
0.00125346
-0.00300216
0.00126049
-0.00362375
0.00124828
-0.00423533
0.00122812
-0.00483564
0.00120562
0.00118374
-0.00542494
-0.000186444
0.000577034
-0.000591079
0.00124532
-0.00111738
0.00161308
-0.00170467
0.00179414
-0.00231679
0.00186558
-0.00293371
0.0018774
-0.00354532
0.00185988
-0.00414715
0.00182995
-0.00473768
0.00179615
0.00176296
-0.0053169
-0.000176039
0.000753073
-0.000562096
0.00163138
-0.00106815
0.00211913
-0.00163633
0.00236232
-0.00223123
0.00246047
-0.00283258
0.00247875
-0.00342969
0.00245699
-0.00401748
0.00241775
-0.00459392
0.00237259
0.00232762
-0.00515858
-0.000162505
0.000915578
-0.000524207
0.00199308
-0.00100363
0.00259855
-0.00154671
0.0029054
-0.00211915
0.0030329
-0.00270043
0.00306004
-0.00327913
0.00303569
-0.00384931
0.00298793
-0.00440817
0.00293144
0.00287403
-0.00495458
-0.000146082
0.00106166
-0.000477933
0.00232493
-0.000924554
0.00304517
-0.00143676
0.00341761
-0.00198181
0.00357795
-0.00253908
0.00361731
-0.00309628
0.00359288
-0.0036464
0.00353806
-0.00418548
0.00347052
0.00339976
-0.00471122
-0.00012702
0.00118868
-0.000423782
0.00262169
-0.000831575
0.00345297
-0.00130722
0.00389325
-0.00182016
0.0040909
-0.00234995
0.0041471
-0.00288352
0.00412645
-0.0034127
0.00406724
-0.00393192
0.00398974
0.00390445
-0.00443661
-0.000105568
0.00129425
-0.000362213
0.00287834
-0.000725127
0.00381588
-0.00115831
0.00432643
-0.00163424
0.00456683
-0.0021332
0.00464607
-0.00264176
0.00463501
-0.00315091
0.00457639
-0.00365347
0.00449231
0.00439084
-0.00413986
-8.19871e-05
0.00137624
-0.000293659
0.00309001
-0.000605389
0.00412761
-0.000989457
0.0047105
-0.00142232
0.00499969
-0.00188593
0.00510967
-0.00236729
0.00511636
-0.00285741
0.00506652
-0.00335012
0.00498502
0.00486994
-0.00382922
-5.66214e-05
0.00143286
-0.000218708
0.0032521
-0.000472472
0.00438138
-0.000799089
0.00503712
-0.00117943
0.00538003
-0.00159759
0.00552783
-0.00204226
0.00556104
-0.00250618
0.00553043
-0.00298845
0.00546729
0.00540648
-0.00352499
-3.01088e-05
0.00146297
-0.000138742
0.00336073
-0.000327733
0.00457037
-0.000586887
0.00529627
-0.000900383
0.00569353
-0.00125162
0.00587907
-0.00162605
0.00593547
-0.00201329
0.00591767
-0.00240936
0.00586336
0.00579383
-0.00279671
-3.525e-06
0.00146649
-5.68034e-05
0.00341401
-0.000176926
0.00469049
-0.000362972
0.00548232
-0.000603864
0.00593442
-0.000884712
0.00615991
-0.00119129
0.00624205
-0.00151275
0.00623913
-0.00184207
0.00619267
0.00613332
-0.00218156
2.18964e-05
0.00144459
2.35874e-05
0.00341232
-2.64585e-05
0.00474054
-0.000137259
0.00559312
-0.000303982
0.00610115
-0.000515234
0.00637116
-0.000758442
0.00648525
-0.00102297
0.00650366
-0.00130039
0.00647009
0.00641654
-0.00158361
4.52007e-05
0.00139939
9.96098e-05
0.00335791
0.000118821
0.00472132
8.3878e-05
0.00562806
-7.38531e-06
0.00619241
-0.000147857
0.00651164
-0.000326961
0.00666436
-0.000534123
0.00671083
-0.000759622
0.00669559
0.00665046
-0.00099354
6.57176e-05
0.00133368
0.000169107
0.00325452
0.000255125
0.00463531
0.000295507
0.00558768
0.000280822
0.00620709
0.000213349
0.00657911
0.000101211
0.0067765
-4.54695e-05
0.00685751
-0.0002162
0.00686632
0.00683461
-0.000400346
8.29974e-05
0.00125068
0.000230407
0.00310711
0.000379265
0.00448645
0.000493165
0.00547378
0.000555526
0.00614473
0.000563369
0.00657127
0.000521746
0.00681812
0.000439667
0.00693959
0.00032778
0.0069782
0.00696518
0.000197203
9.67696e-05
0.00115391
0.000282251
0.00292163
0.000488535
0.00428016
0.000672699
0.00528962
0.000811518
0.00600591
0.000896499
0.00648629
0.000928953
0.00678566
0.000915941
0.0069526
0.000867521
0.00702663
0.00703762
0.000795081
0.000106917
0.00104699
0.000323753
0.00270479
0.000580678
0.00402324
0.000830221
0.00504007
0.00104341
0.00579273
0.00120623
0.00632346
0.00131567
0.00667623
0.00137596
0.0068923
0.00139575
0.00700684
0.00704719
0.00138619
0.000113457
0.000933535
0.000354396
0.00246385
0.000653931
0.0037237
0.000962207
0.0047318
0.00124576
0.00550917
0.00148543
0.00608379
0.00167349
0.00648817
0.00181056
0.00675523
0.00190299
0.00691442
0.00698919
0.00196099
0.000116537
0.000816999
0.000374059
0.00220633
0.000707141
0.00339062
0.00106576
0.00437318
0.00141353
0.0051614
0.00172687
0.00577045
0.00199332
0.00622172
0.00220933
0.00653921
0.00237808
0.00674567
0.00685932
0.00250794
0.000116416
0.000700583
0.000383025
0.00193972
0.000739892
0.00303375
0.0011389
0.00397417
0.00154252
0.00475778
0.00192388
0.0053891
0.00226617
0.00587943
0.00256139
0.00624399
0.00280883
0.00649823
0.00665409
0.00301407
0.000113496
0.000587087
0.000382061
0.00167116
0.000752694
0.00266312
0.00118098
0.00354588
0.00163007
0.00430869
0.00207122
0.00494794
0.00248412
0.00546653
0.00285645
0.00587166
0.00318312
0.00617155
0.00637129
0.00346592
0.000108242
0.000478845
0.00037227
0.00140713
0.000746864
0.00228853
0.0011927
0.00310005
0.00167529
0.00382611
0.00216568
0.00445755
0.00264123
0.00499098
0.00308588
0.00542702
0.00349003
0.0057674
0.00601049
0.00385084
0.000101185
0.000377659
0.000355068
0.00115324
0.000724487
0.00191911
0.00117614
0.0026484
0.00167936
0.00332289
0.00220662
0.00393028
0.00273443
0.00446317
0.00324396
0.00491749
0.00372139
0.00528997
0.0055733
0.00415857
9.28491e-05
0.00028481
0.000331969
0.000914125
0.000688076
0.001563
0.00113438
0.0022021
0.00164514
0.00281213
0.00219582
0.0033796
0.00276372
0.00389527
0.00332853
0.00435267
0.00387283
0.00474567
0.00506335
0.00438279
8.36636e-05
0.000201147
0.000304316
0.000693473
0.000640053
0.00122727
0.0010707
0.00177145
0.00157623
0.0023066
0.00213646
0.00281936
0.00273121
0.00330053
0.00334036
0.00374353
0.00394379
0.00414224
0.00448546
0.00452167
7.38724e-05
0.000127274
0.000272991
0.000494354
0.000582127
0.00091813
0.000987495
0.00136608
0.00147522
0.00181887
0.00203071
0.00226388
0.00263816
0.00269308
0.00327987
0.00310182
0.00393458
0.00348753
0.00384409
0.00457595
6.34858e-05
6.37885e-05
0.000238254
0.000319586
0.000514869
0.000641514
0.000885322
0.00099563
0.00134185
0.00136234
0.00187632
0.00172941
0.00247953
0.00208986
0.0031397
0.00244165
0.00383825
0.00278898
0.0031409
0.00454145
5.23603e-05
1.14281e-05
0.000199958
0.000171988
0.000438012
0.00040346
0.000763012
0.00067063
0.00117228
0.000953078
0.00166394
0.00123775
0.00223693
0.00151687
0.0028904
0.00178818
0.00361884
0.00206054
0.0023723
0.00438743
4.04759e-05
-2.90478e-05
0.000158378
5.40859e-05
0.000352095
0.000209743
0.000620363
0.000402362
0.000962565
0.000610877
0.00137939
0.000820916
0.0018741
0.00102216
0.00245579
0.0012065
0.00314738
0.00136894
0.00151348
0.0040062
2.83515e-05
-5.73993e-05
0.000115565
-3.31273e-05
0.000261844
6.34636e-05
0.000465786
0.000198419
0.000724602
0.000352061
0.00103383
0.000511693
0.00138666
0.000669326
0.00177231
0.000820846
0.00217508
0.000966178
0.00111602
0.00257254
1.70665e-05
-7.44658e-05
7.55099e-05
-9.15707e-05
0.000177319
-3.83453e-05
0.000321579
5.41589e-05
0.000505342
0.000168298
0.000723842
0.000293193
0.000970805
0.000422363
0.00123942
0.000552234
0.00152592
0.000679678
0.000797712
0.00184423
7.43482e-06
-8.19006e-05
4.1065e-05
-0.000125201
0.000104953
-0.000102233
0.000199692
-4.05804e-05
0.00032399
4.39997e-05
0.000475474
0.00014171
0.000651527
0.00024631
0.000850444
0.000353316
0.00107269
0.000457429
0.000548763
0.00132164
-2.77812e-07
-8.16228e-05
1.3145e-05
-0.000138624
4.63858e-05
-0.000135474
0.000101859
-9.60535e-05
0.000180212
-3.43531e-05
0.000281331
4.05906e-05
0.000405131
0.00012251
0.000552169
0.000206279
0.000723526
0.000286071
0.000353984
0.000918305
-6.17933e-06
-7.54435e-05
-8.56387e-06
-0.000136239
7.26328e-07
-0.000144764
2.57565e-05
-0.000121084
6.87536e-05
-7.73502e-05
0.000131081
-2.17371e-05
0.000213824
3.97671e-05
0.000317991
0.000102112
0.000444003
0.000160058
0.000207854
0.000590133
-1.05534e-05
-6.48901e-05
-2.4944e-05
-0.000121849
-3.39503e-05
-0.000135758
-3.22441e-05
-0.00012279
-1.6539e-05
-9.30552e-05
1.52913e-05
-5.35674e-05
6.46571e-05
-9.59868e-06
0.000132321
3.44483e-05
0.000218003
7.43757e-05
0.000106149
0.000319709
-1.37117e-05
-5.11784e-05
-3.69707e-05
-9.85895e-05
-5.96363e-05
-0.000113092
-7.55329e-05
-0.000106893
-8.07669e-05
-8.78212e-05
-7.29173e-05
-6.1417e-05
-5.06333e-05
-3.18827e-05
-1.35298e-05
-2.65524e-06
3.76473e-05
2.31986e-05
4.29883e-05
0.000100808
-1.59055e-05
-3.52729e-05
-4.54323e-05
-6.90627e-05
-7.78684e-05
-8.06559e-05
-0.00010653
-7.82316e-05
-0.000127224
-6.71274e-05
-0.000137474
-5.11673e-05
-0.000136102
-3.32543e-05
-0.00012304
-1.57174e-05
-9.93022e-05
-5.393e-07
1.06421e-05
-6.6956e-05
-1.72981e-05
-1.79748e-05
-5.08466e-05
-3.55142e-05
-8.96161e-05
-4.18864e-05
-0.000126654
-4.11938e-05
-0.00015764
-3.61409e-05
-0.000180131
-2.86769e-05
-0.000193105
-2.02801e-05
-0.000196701
-1.21212e-05
-0.000192071
-5.16936e-06
-1.99084e-07
-0.00018123
-1.79767e-05
-5.34953e-05
-9.5388e-05
-0.000136589
-0.000172739
-0.000201425
-0.000221715
-0.000233846
-0.000239026
-0.000239235
0.000184218
-0.000423216
-2.34724e-07
0.00132179
-0.00113794
3.66599e-07
0.00248627
-0.00116598
1.49124e-06
0.00323359
-0.000747846
5.30651e-07
0.00385361
-0.000618469
-1.55517e-06
0.00428255
-0.000427025
-1.91218e-06
0.00462695
-0.000342266
-2.13692e-06
0.00485966
-0.00023272
9.05651e-09
0.00506969
-0.000213217
3.19579e-06
-0.000127357
1.85296e-06
0.000295898
-0.000900337
0.0014042
-0.00224623
0.00254237
-0.00230415
0.00327311
-0.00147859
0.00388161
-0.00122697
0.00430392
-0.000849332
0.00464418
-0.000682524
0.00487511
-0.000463648
0.00508434
-0.000422449
-0.000253901
0.000512091
-0.00147937
0.00156334
-0.00329749
0.00265038
-0.00339118
0.00334923
-0.00217744
0.00393555
-0.00181329
0.00434521
-0.00125899
0.00467762
-0.00101494
0.0049053
-0.000691331
0.00511321
-0.000630357
-0.000382664
0.000818938
-0.00219748
0.00178833
-0.00426688
0.00280223
-0.00440508
0.00345624
-0.00283145
0.00401146
-0.00236851
0.00440365
-0.00165118
0.00472538
-0.00133667
0.00494896
-0.000914907
0.00515546
-0.00083686
-0.000515088
0.00119687
-0.00307462
0.00206387
-0.00513388
0.00298664
-0.00532786
0.00358616
-0.00343096
0.00410377
-0.00288613
0.00447534
-0.00202275
0.00478477
-0.0016461
0.00500422
-0.00113436
0.00520989
-0.00104253
-0.000652984
0.00162182
-0.00410629
0.00237138
-0.00588343
0.00318996
-0.00614644
0.00372932
-0.00397032
0.00420569
-0.0033625
0.00455548
-0.00237254
0.00485244
-0.00194305
0.00506877
-0.00135069
0.00527494
-0.0012487
-0.000798611
0.00206574
-0.00525371
0.00268969
-0.00650738
0.00339698
-0.00685373
0.00387496
-0.00444831
0.00430965
-0.00379719
0.00463869
-0.00270158
0.0049246
-0.00222897
0.00513993
-0.00156601
0.00534883
-0.00145761
-0.00095473
0.00249831
-0.00643035
0.00299572
-0.00700479
0.00359171
-0.00744971
0.0040119
-0.0048685
0.00440779
-0.00419308
0.00471931
-0.00301311
0.00499723
-0.00250689
0.00521483
-0.00178361
0.00542957
-0.00167235
-0.00112462
0.00290193
-0.00748804
0.00327055
-0.00737342
0.0037601
-0.00793926
0.00412967
-0.00523807
0.00449261
-0.00455602
0.00479183
-0.00331232
0.00506631
-0.00278137
0.0052905
-0.0020078
0.00551505
-0.00189689
-0.00131204
0.00328137
-0.00819685
0.00351253
-0.00760458
0.00389131
-0.00831804
0.00422099
-0.00556775
0.0045574
-0.00489244
0.0048513
-0.00360622
0.00512781
-0.00305788
0.00536422
-0.00224421
0.00560279
-0.00213547
-0.00152175
0.043281
-0.000918532
-0.0505593
0.0390671
-0.00339072
0.0369875
-0.00623839
0.0368043
-0.0053846
0.0366578
-0.00474589
0.036826
-0.00377446
0.0370186
-0.00325052
0.0372754
-0.00250094
0.0374879
-0.002348
-0.00181388
0.0523385
0.0033106
-0.0565677
0.0501449
-0.00119707
0.0475495
-0.00364297
0.0460102
-0.00384536
0.0448033
-0.00353903
0.0439787
-0.00294977
0.0433331
-0.00260499
0.0429172
-0.002085
0.0425168
-0.00194765
-0.00162279
0.0539029
0.00452268
-0.0551149
0.0526222
8.35813e-05
0.0510044
-0.00202514
0.0496952
-0.00253613
0.0485969
-0.00244079
0.0477374
-0.00209029
0.0469858
-0.00185332
0.046424
-0.00152318
0.0458676
-0.00139126
-0.00124088
0.0520596
0.00437386
-0.0519108
0.0516512
0.000492048
0.0508167
-0.00119067
0.0499766
-0.00169599
0.0492333
-0.00169748
0.0486316
-0.00148864
0.0480803
-0.00130197
0.0476435
-0.00108643
0.0472041
-0.00095183
-0.000889679
0.0500068
0.00369108
-0.049324
0.0498791
0.000619712
0.0494553
-0.000766879
0.0489514
-0.00119204
0.0484794
-0.00122554
0.0480938
-0.00110302
0.047743
-0.000951212
0.0474568
-0.000800186
0.0471775
-0.00067252
-0.000638304
0.0483079
0.00289069
-0.0475075
0.0483325
0.000595103
0.0480806
-0.00051493
0.047748
-0.000859487
0.0474227
-0.000900217
0.0471517
-0.000832072
0.0469167
-0.000716157
0.0467226
-0.000606053
0.046548
-0.000497976
-0.000468162
0.0470994
0.00210109
-0.0463098
0.0471925
0.000501999
0.0470176
-0.000339998
0.0467647
-0.000606633
0.0465083
-0.000643754
0.046285
-0.000608855
0.0460975
-0.000528629
0.0459415
-0.000450057
0.0458121
-0.000368537
-0.000340529
0.046285
0.00136215
-0.045546
0.0464284
0.000358541
0.0462948
-0.000206406
0.0460777
-0.000389463
0.045851
-0.000417061
0.0456439
-0.000401821
0.0454686
-0.000353285
0.0453212
-0.000302652
0.0452017
-0.000249037
-0.0002271
0.0457883
0.000668749
-0.0450949
0.0459638
0.000183053
0.0458562
-9.87795e-05
0.0456556
-0.000188865
0.0454414
-0.000202911
0.0452392
-0.0001996
0.0450634
-0.000177515
0.0449141
-0.0001533
0.0447912
-0.000126154
-0.000114769
0.0455538
-0.0448851
0.0457369
0.0456381
0.0454492
0.0452463
0.0450467
0.0448692
0.0447159
0.0445897
0.0567755
0.00230152
-0.0560629
0.0573299
0.00291147
0.0576777
0.00350302
0.0577692
0.0040671
0.0575575
0.0045945
0.0570028
0.0050764
0.0560736
0.00550509
0.0547406
0.00587445
0.0529485
0.0061796
0.00639541
0.0513979
0.00169283
-0.0507892
0.0520516
0.00225778
0.0527363
0.00281835
0.0534339
0.00336948
0.054123
0.00390543
0.0547794
0.00441999
0.0553778
0.00490671
0.055893
0.00535923
0.0563008
0.00577181
0.00612853
0.0480917
0.00121794
-0.0476168
0.0486476
0.00170191
0.0492812
0.00218471
0.0499872
0.00266346
0.0507577
0.00313501
0.0515817
0.00359589
0.0524462
0.00404227
0.0533354
0.00446997
0.0542328
0.00487448
0.00524636
0.0454945
0.000891344
-0.0451679
0.0459012
0.00129516
0.0463887
0.00169724
0.0469568
0.00209533
0.0476047
0.00248717
0.0483301
0.00287043
0.0491297
0.00324271
0.0499982
0.00360149
0.0509287
0.00394398
0.00426419
0.0439058
0.000651517
-0.0436659
0.0442197
0.000981235
0.0446078
0.00130907
0.04507
0.00163317
0.0456055
0.00195165
0.0462133
0.00226265
0.0468917
0.00256432
0.0476384
0.00285475
0.0484506
0.00313186
0.00339076
0.04281
0.000469347
-0.0426278
0.0430622
0.000729084
0.0433842
0.000987051
0.0437756
0.00124173
0.0442356
0.00149162
0.0447631
0.00173522
0.0453563
0.00197107
0.0460134
0.00219769
0.0467318
0.00241346
0.00261502
0.0421161
0.000324581
-0.0419714
0.0423278
0.000517418
0.042606
0.00070884
0.04295
0.000897697
0.0433588
0.00108284
0.0438309
0.00126315
0.0443645
0.00143749
0.0449574
0.00160477
0.0456071
0.0017638
0.00191227
0.0416642
0.000203977
-0.0415436
0.0418499
0.000331684
0.0421003
0.000458435
0.0424146
0.000583456
0.0427914
0.000705979
0.0432293
0.000825244
0.0437263
0.000940504
0.0442801
0.00105102
0.0448879
0.001156
0.0012541
0.0413995
9.81487e-05
-0.0412937
0.0415694
0.000161796
0.0418029
0.000224982
0.042099
0.00028732
0.0424566
0.000348422
0.0428739
0.000407905
0.043349
0.000465393
0.0438795
0.000520513
0.0444626
0.000572873
0.000621835
0.041274
-0.0411759
0.0414358
0.0416608
0.0419481
0.0422966
0.0427045
0.0431699
0.0436904
0.0442632
0.0481095
-0.00335377
-0.0475524
0.0488229
-0.00289493
0.0496455
-0.00240626
0.0505377
-0.00188569
0.0514715
-0.00133418
0.0524284
-0.000759645
0.05339
-0.000166579
0.0543349
0.000441321
0.0552366
0.00105931
0.00168161
0.0479852
-0.00340686
-0.0479321
0.0480815
-0.00299123
0.0482205
-0.00254529
0.0484082
-0.00207333
0.0486505
-0.00157649
0.0489517
-0.00106085
0.0493153
-0.000530138
0.0497433
1.33054e-05
0.0502356
0.000566997
0.00112797
0.046897
-0.00314752
-0.0471564
0.0466931
-0.00278733
0.0465499
-0.00240201
0.0464725
-0.00199594
0.0464672
-0.00157122
0.0465376
-0.00113124
0.046686
-0.000678523
0.0469144
-0.000215079
0.0472243
0.00025701
0.000735483
0.0455818
-0.0027714
-0.0459579
0.0452636
-0.00246908
0.0450067
-0.00214512
0.0448147
-0.00180395
0.0446909
-0.00144745
0.0446377
-0.00107804
0.044657
-0.000697807
0.0447506
-0.000308705
0.0449204
8.72587e-05
0.000487992
0.0446599
-0.00234962
-0.0450817
0.0442919
-0.00210113
0.0439823
-0.00183551
0.0437342
-0.00155581
0.0435504
-0.00126365
0.0434332
-0.000960879
0.0433846
-0.00064923
0.0434063
-0.0003304
0.0434997
-6.13107e-06
0.000321785
0.0439896
-0.00190033
-0.0444389
0.0435923
-0.00170381
0.0432508
-0.00149399
0.0429681
-0.00127312
0.0427469
-0.00104241
0.0425893
-0.000803296
0.0424972
-0.00055715
0.0424722
-0.000305366
0.0425154
-4.93738e-05
0.000209363
0.043559
-0.00143595
-0.0440233
0.043145
-0.00128982
0.042785
-0.001134
0.0424818
-0.000969946
0.042238
-0.000798591
0.0420556
-0.000620947
0.0419365
-0.00043805
0.0418821
-0.000250953
0.0418935
-6.0739e-05
0.000131484
0.0432801
-0.00096147
-0.0437546
0.0428551
-0.000864776
0.0424828
-0.000761695
0.042166
-0.000653156
0.0419072
-0.000539765
0.0417084
-0.000422182
0.0415715
-0.000301092
0.0414977
-0.000177198
0.0414882
-5.12248e-05
7.60868e-05
0.0431192
-0.000481542
-0.0435991
0.0426879
-0.00043352
0.0423086
-0.000382328
0.0419838
-0.000328405
0.0417161
-0.000272051
0.0415075
-0.000213587
0.0413598
-0.000153352
0.0412743
-9.16953e-05
0.041252
-2.89774e-05
3.44306e-05
0.0430454
-0.0435269
0.0426118
0.0422295
0.0419011
0.0416291
0.0414155
0.0412621
0.0411704
0.0411415
0.0429475
0.000174629
-0.000193168
0.0429914
0.000521272
-0.000565197
0.0430658
0.000872664
-0.000947114
0.0431884
0.00123699
-0.00135952
0.043389
0.00161959
-0.00182025
0.0437114
0.00202473
-0.00234709
0.0442143
0.0024545
-0.00295739
0.0449696
0.00291135
-0.00366663
0.0460713
0.00337128
-0.00447301
0.00392363
-0.00540478
0.0429657
0.00013788
0.0430729
0.000414031
0.043254
0.00069154
0.0435194
0.00097159
0.043884
0.001255
0.0443668
0.001542
0.0449896
0.00183164
0.0457769
0.00212403
0.0467446
0.00240361
0.00273614
0.0429665
0.000100272
0.0430779
0.000302712
0.0432627
0.000506696
0.0435251
0.000709214
0.0438707
0.000909367
0.0443068
0.00110586
0.0448419
0.00129661
0.045486
0.0014799
0.0462438
0.00164577
0.00182359
0.0429586
7.05582e-05
0.0430476
0.000213746
0.043196
0.000358299
0.0434046
0.000500625
0.0436744
0.000639519
0.0440066
0.000773688
0.0444017
0.000901558
0.0448596
0.00102193
0.0453756
0.00112979
0.00124129
0.0429506
4.8895e-05
0.0430161
0.000148275
0.0431258
0.000248586
0.0432795
0.000346934
0.0434767
0.00044226
0.0437169
0.000533514
0.0439989
0.000619555
0.0443214
0.000699452
0.0446808
0.000770415
0.000840392
0.0429445
3.33071e-05
0.0429918
0.000101016
0.043071
0.000169328
0.0431818
0.000236192
0.0433232
0.000300831
0.0434942
0.000362506
0.0436933
0.000420476
0.0439186
0.000474146
0.044167
0.000522044
0.000568437
0.0429403
2.19168e-05
0.0429749
6.64611e-05
0.0430328
0.000111383
0.0431137
0.000155324
0.0432168
0.000197761
0.0433411
0.000238206
0.0434854
0.00027618
0.0436482
0.000311294
0.0438275
0.00034272
0.000372623
0.0429376
1.32765e-05
0.0429638
4.02475e-05
0.0430077
6.74341e-05
0.043069
9.40276e-05
0.0431471
0.000119714
0.0432411
0.000144201
0.04335
0.000167213
0.0434728
0.000188525
0.0436078
0.000207701
0.000225847
0.0429359
6.26108e-06
0.0429572
1.89811e-05
0.0429929
3.17922e-05
0.0430426