/*--------------------------------*- C++ -*----------------------------------*\
  =========                 |
  \\      /  F ield         | OpenFOAM: The Open Source CFD Toolbox
   \\    /   O peration     | Website:  https://openfoam.org
    \\  /    A nd           | Version:  6.0
     \\/     M anipulation  |
\*---------------------------------------------------------------------------*/
FoamFile
{
    version     2.0;
    format      ascii;
    class       volVectorField;
    location    "32";
    object      U;
}
// * * * * * * * * * * * * * * * * * * * * * * * * * * * * * * * * * * * * * //

dimensions      [0 1 -1 0 0 0 0];

internalField   nonuniform List<vector> 
2000
(
(-0.00199134 0.00173879 5.73108e-20)
(-0.00762187 0.00330352 6.80672e-20)
(-0.0153305 0.00366309 -6.48911e-20)
(-0.0223327 0.00333893 -1.32412e-19)
(-0.0276805 0.00264134 -9.24968e-20)
(-0.0312209 0.00177347 1.23225e-19)
(-0.0330515 0.000880756 7.17754e-20)
(-0.0334414 6.98991e-05 -2.90353e-20)
(-0.0328228 -0.000579953 -7.24832e-20)
(-0.0314904 -0.0010049 5.28499e-20)
(-0.00248984 0.00512186 -1.42057e-19)
(-0.00837098 0.00968652 1.96106e-19)
(-0.0157255 0.0106986 1.95554e-20)
(-0.0220252 0.00969845 -1.13592e-19)
(-0.0264591 0.00759901 5.43551e-19)
(-0.0289508 0.0049972 -2.39223e-19)
(-0.0296457 0.00232138 -2.58809e-19)
(-0.0288394 -0.000110121 3.12157e-19)
(-0.0269803 -0.00205556 -3.07861e-19)
(-0.0244408 -0.00332246 1.5531e-19)
(-0.00343592 0.00822549 2.35933e-20)
(-0.00972836 0.0154106 8.3909e-21)
(-0.0163016 0.0168871 5.87723e-19)
(-0.0211434 0.015141 2.06168e-19)
(-0.0237167 0.0116335 4.08897e-20)
(-0.0240963 0.00731653 3.38142e-19)
(-0.0225208 0.00287583 -6.42257e-19)
(-0.0193341 -0.00116573 1.39293e-20)
(-0.0150141 -0.00439134 -3.79787e-19)
(-0.0100951 -0.00647739 4.18382e-19)
(-0.00472422 0.0108686 -4.4381e-20)
(-0.0114035 0.0200612 2.55329e-19)
(-0.0166176 0.0217197 -7.43914e-19)
(-0.0191353 0.0191495 -9.61585e-20)
(-0.0188302 0.0142671 -5.47548e-19)
(-0.0160004 0.00831038 5.67076e-19)
(-0.0110181 0.00217402 -6.01491e-19)
(-0.00429018 -0.00343285 4.22419e-19)
(0.0036711 -0.00790044 1.77586e-19)
(0.0120736 -0.0107696 -2.0067e-19)
(-0.00618723 0.0128753 -4.93956e-19)
(-0.0129399 0.023258 4.4568e-21)
(-0.0159816 0.0247668 9.16388e-19)
(-0.0151326 0.0213425 2.74732e-19)
(-0.0108115 0.015224 -8.73548e-19)
(-0.00361116 0.00783329 5.43191e-19)
(0.00592473 0.000193063 6.15702e-19)
(0.0173224 -0.00684314 -5.48946e-19)
(0.0300464 -0.012458 3.91397e-19)
(0.0429368 -0.0160538 9.61114e-20)
(-0.00758388 0.0140747 6.75209e-20)
(-0.0136954 0.0246652 1.25229e-20)
(-0.0134278 0.0257005 -1.17159e-18)
(-0.00791799 0.0215106 -6.55444e-19)
(0.00174009 0.0144902 7.81893e-19)
(0.0145852 0.00611247 -9.15632e-19)
(0.0298582 -0.00259402 1.04923e-18)
(0.04702 -0.01072 -9.06283e-20)
(0.0655533 -0.017256 -2.95182e-19)
(0.0838158 -0.0214791 -8.57937e-19)
(-0.00858783 0.0143043 -1.46917e-19)
(-0.0128311 0.0240055 -2.68333e-19)
(-0.00771126 0.024308 -3.29663e-19)
(0.00408324 0.0196253 7.03267e-19)
(0.0206657 0.0123242 1.30457e-18)
(0.0406263 0.0037807 -2.69635e-19)
(0.0629253 -0.00513755 -6.56256e-19)
(0.0869431 -0.013639 2.00159e-19)
(0.112266 -0.0206231 -1.26054e-18)
(0.136693 -0.0252931 1.38458e-18)
(-0.00878359 0.0134242 8.98553e-19)
(-0.00932683 0.0210854 -4.90469e-19)
(0.00264909 0.0205009 9.57561e-19)
(0.0227408 0.015815 -1.56447e-18)
(0.0481812 0.00920195 -7.47534e-19)
(0.0770247 0.00182122 -1.03544e-18)
(0.107843 -0.00580054 3.00823e-19)
(0.139859 -0.0132565 -8.37574e-19)
(0.172896 -0.0195827 1.82396e-18)
(0.204296 -0.0240913 5.10588e-19)
(-0.00768187 0.0113473 6.61428e-20)
(-0.00204284 0.0158379 7.98935e-19)
(0.0192594 0.0143204 1.58767e-18)
(0.0500712 0.0102968 4.85169e-19)
(0.0867116 0.00565467 1.43602e-18)
(0.126607 0.001354 7.87122e-20)
(0.167749 -0.00241474 -7.16923e-22)
(0.208939 -0.00570151 5.78957e-19)
(0.250255 -0.00784945 4.68297e-19)
(0.28914 -0.00927501 -1.51986e-18)
(-0.00476984 0.00808533 -5.32253e-19)
(0.0101494 0.00838292 -8.91454e-19)
(0.0436486 0.00593506 -1.29578e-18)
(0.0880041 0.00320499 3.06148e-20)
(0.138761 0.00175134 -6.60588e-19)
(0.192819 0.00253583 1.04117e-18)
(0.247604 0.00588078 -2.86648e-18)
(0.301181 0.012005 1.28693e-18)
(0.352906 0.0215033 4.83743e-19)
(0.400055 0.0302342 1.51775e-18)
(0.000389575 0.00380789 2.66252e-19)
(0.0281212 -0.00087643 -1.01923e-18)
(0.0768156 -0.00427619 9.10084e-19)
(0.137572 -0.00546617 -3.53087e-19)
(0.205566 -0.00344868 3.84062e-19)
(0.277836 0.00269998 8.3614e-19)
(0.352547 0.0137163 -1.12262e-18)
(0.429295 0.0305419 1.45863e-19)
(0.509059 0.0524404 -5.37949e-19)
(0.594195 0.0694397 1.09143e-18)
(0.00806138 -0.00110869 3.81465e-19)
(0.0522641 -0.0110954 -9.24057e-19)
(0.118763 -0.0153331 1.25904e-18)
(0.197759 -0.0150238 -7.84101e-19)
(0.284062 -0.0102859 -2.87643e-19)
(0.37462 -0.000980017 1.70299e-19)
(0.467625 0.0128055 8.80486e-20)
(0.562509 0.0307588 1.19433e-18)
(0.658925 0.0501642 3.43825e-19)
(0.754581 0.0623264 1.46986e-18)
(0.0183535 -0.00610277 -3.40485e-19)
(0.0826173 -0.0209209 1.19474e-18)
(0.169015 -0.0252674 -9.96918e-19)
(0.267066 -0.0228361 -1.16919e-18)
(0.371102 -0.0151072 1.63584e-18)
(0.477632 -0.00287361 -1.24381e-18)
(0.584258 0.0129338 3.28547e-19)
(0.689426 0.0312031 -1.9477e-18)
(0.791354 0.0492521 1.45896e-18)
(0.886062 0.0617366 7.28954e-20)
(0.031272 -0.0105466 -4.43727e-19)
(0.118982 -0.0287961 -4.28543e-19)
(0.226878 -0.0317879 -9.1256e-19)
(0.344075 -0.0258961 1.10614e-18)
(0.464462 -0.0140454 -5.58716e-20)
(0.584078 0.00206892 7.15134e-19)
(0.699987 0.0208456 1.30462e-18)
(0.809949 0.0407868 -4.00913e-19)
(0.911597 0.0597983 -1.41805e-18)
(1.00092 0.0748667 2.81537e-18)
(0.0467472 -0.0138324 -2.29356e-19)
(0.160917 -0.033219 -2.73578e-19)
(0.291349 -0.0327834 4.92342e-19)
(0.427127 -0.021669 -9.15141e-19)
(0.561899 -0.00426705 1.56345e-19)
(0.691458 0.0168739 1.39135e-19)
(0.812682 0.0396053 6.10188e-20)
(0.923219 0.0622215 -9.85839e-21)
(1.02088 0.0832196 -1.49472e-19)
(1.10228 0.100981 -2.38016e-18)
(0.0646207 -0.0153983 9.31026e-19)
(0.207689 -0.0328651 -6.49755e-19)
(0.360992 -0.0265401 8.30922e-21)
(0.514066 -0.00834216 -9.89604e-19)
(0.660669 0.0159021 -3.54062e-19)
(0.796719 0.04287 3.31048e-19)
(0.919379 0.0699875 2.57096e-19)
(1.02675 0.0954639 -9.16149e-19)
(1.11737 0.118334 7.48832e-19)
(1.18886 0.137783 -9.81836e-19)
(0.0846135 -0.0147331 4.01831e-19)
(0.258235 -0.0266447 -3.57126e-19)
(0.43391 -0.0118377 1.48338e-18)
(0.602237 0.0150978 1.51247e-19)
(0.757565 0.0470154 3.47587e-19)
(0.896429 0.0799647 1.54924e-18)
(1.0168 0.111125 -2.36876e-19)
(1.11773 0.138791 2.15846e-19)
(1.1989 0.162557 8.93821e-20)
(1.2592 0.182088 -1.1e-19)
(0.106296 -0.0113866 2.80735e-19)
(0.311148 -0.0137439 6.74965e-19)
(0.507791 0.0120104 -7.23065e-19)
(0.688622 0.0488872 -2.44791e-19)
(0.849174 0.088663 -3.02396e-19)
(0.987159 0.127014 4.68546e-19)
(1.10187 0.161143 -2.43721e-19)
(1.19376 0.189669 6.55709e-19)
(1.26385 0.212839 2.20661e-19)
(1.31251 0.230659 -3.59744e-19)
(0.129074 -0.00499484 -3.02528e-19)
(0.364708 0.0063278 2.68903e-19)
(0.580026 0.045136 -5.73794e-19)
(0.770052 0.0925413 2.4751e-19)
(0.932173 0.139653 -2.56827e-19)
(1.06585 0.182154 -3.20537e-19)
(1.17215 0.217624 -2.57411e-19)
(1.2532 0.245295 2.87678e-19)
(1.31151 0.266198 -5.42404e-19)
(1.34886 0.28063 3.27793e-19)
(0.152194 0.00468196 -1.07837e-19)
(0.416953 0.0336821 -2.10944e-19)
(0.647864 0.0871013 1.00451e-19)
(0.843444 0.144923 6.19238e-21)
(1.00361 0.198184 8.33509e-20)
(1.13008 0.243066 1.14354e-19)
(1.22602 0.277934 1.05986e-19)
(1.29536 0.30293 -1.40541e-19)
(1.34202 0.319975 1.19654e-19)
(1.36912 0.329669 -1.87256e-19)
(0.174778 0.0177192 -6.24227e-20)
(0.46578 0.0680018 -2.34169e-20)
(0.708589 0.1369 9.31861e-20)
(0.906019 0.204326 -4.28986e-20)
(1.06111 0.262006 1.14344e-19)
(1.17822 0.30719 -1.4764e-19)
(1.26275 0.339447 3.42181e-20)
(1.32038 0.360073 3.67157e-20)
(1.35628 0.371946 -1.53918e-20)
(1.37465 0.37598 5.82311e-20)
(0.195859 0.033992 -6.73431e-20)
(0.509077 0.10851 -3.04751e-19)
(0.759699 0.192986 -2.11098e-20)
(0.955479 0.268575 6.27432e-21)
(1.103 0.328578 -3.96396e-19)
(1.20945 0.371906 5.24011e-20)
(1.28241 0.399691 -4.46142e-20)
(1.32911 0.414553 -1.07621e-19)
(1.35568 0.420325 2.24392e-19)
(1.36715 0.418226 -4.09145e-19)
(0.214447 0.053151 -3.25258e-20)
(0.544858 0.153971 6.17218e-19)
(0.799073 0.253336 9.94502e-20)
(0.990144 0.335148 -5.43394e-19)
(1.12838 0.395217 -4.40663e-20)
(1.22373 0.434652 -5.20772e-19)
(1.28575 0.456423 3.81753e-19)
(1.3229 0.464535 -1.38522e-19)
(1.34192 0.463699 2.45737e-19)
(1.34842 0.455416 -1.79587e-19)
(0.229589 0.0746128 -2.05104e-19)
(0.571399 0.202719 1.95907e-19)
(0.825101 0.315542 -1.41403e-19)
(1.00903 0.401308 1.0658e-18)
(1.13709 0.459223 5.26028e-19)
(1.22173 0.493027 -1.2197e-19)
(1.2741 0.50767 4.10935e-19)
(1.30346 0.508496 -2.70407e-19)
(1.31689 0.500953 -7.53512e-20)
(1.32028 0.486795 4.94389e-19)
(0.240438 0.0975693 -3.55017e-19)
(0.587361 0.252733 4.51808e-19)
(0.836781 0.376933 -8.88934e-19)
(1.01186 0.464235 1.24849e-19)
(1.12967 0.51799 2.79019e-19)
(1.20469 0.544843 -4.27843e-19)
(1.24915 0.551724 -4.9828e-19)
(1.27272 0.54517 2.18756e-19)
(1.28253 0.531181 -2.63446e-19)
(1.28453 0.511751 3.16433e-19)
(0.246314 0.121014 -8.96989e-20)
(0.591878 0.301727 -4.59731e-19)
(0.833761 0.43471 2.54332e-19)
(0.999038 0.52116 4.26589e-19)
(1.10726 0.569098 -2.56522e-19)
(1.17428 0.588156 -1.91152e-19)
(1.21287 0.587118 -1.04529e-19)
(1.23274 0.573483 -5.16734e-20)
(1.24078 0.553596 1.07547e-20)
(1.24291 0.529717 1.07997e-19)
(0.246761 0.143786 6.58638e-20)
(0.584622 0.34728 -3.85851e-19)
(0.816346 0.4861 6.43585e-19)
(0.971588 0.569496 -3.81302e-19)
(1.07145 0.610387 1.06641e-19)
(1.13248 0.621291 -1.5126e-19)
(1.16741 0.612602 1.6285e-19)
(1.18559 0.592495 3.13577e-20)
(1.19356 0.567429 -7.75469e-20)
(1.19711 0.540019 1.50662e-19)
(0.241595 0.164637 -1.73166e-19)
(0.565837 0.386976 3.38336e-19)
(0.785454 0.528511 -1.51957e-20)
(0.931031 0.606952 -7.33354e-20)
(1.0242 0.640035 -2.01364e-19)
(1.08146 0.642883 2.48596e-20)
(1.11501 0.627183 6.11476e-20)
(1.1335 0.601457 -1.51219e-19)
(1.14303 0.571982 1.76578e-19)
(1.14921 0.541877 1.50131e-19)
(0.230937 0.182311 3.86804e-20)
(0.536329 0.418564 -8.10073e-20)
(0.742536 0.559671 2.40819e-20)
(0.879244 0.631623 1.28979e-20)
(0.967558 0.656556 7.7517e-20)
(1.02335 0.651786 -1.43802e-19)
(1.05788 0.629967 -3.01059e-19)
(1.07892 0.599657 -1.22848e-19)
(1.09214 0.566622 -1.5704e-19)
(1.10255 0.5347 1.33001e-19)
(0.215232 0.195655 1.10538e-19)
(0.497433 0.440132 -1.71472e-19)
(0.689471 0.577807 1.6552e-19)
(0.818267 0.642112 -3.14536e-19)
(0.903426 0.658819 7.62963e-20)
(0.9597 0.646835 5.15871e-19)
(0.997282 0.619363 -1.58201e-19)
(1.02317 0.584702 1.88015e-19)
(1.04271 0.548004 2.75293e-19)
(1.05903 0.515027 1.00135e-18)
(0.19525 0.203727 6.8013e-19)
(0.450969 0.450298 -4.62748e-19)
(0.628517 0.581866 1.12627e-18)
(0.750272 0.637907 -1.92881e-19)
(0.833393 0.64676 9.66369e-19)
(0.891061 0.628053 6.06291e-19)
(0.932314 0.594737 -1.42436e-18)
(0.963574 0.55388 2.16264e-18)
(0.98946 0.507899 -4.57043e-19)
(1.00632 0.461006 8.99376e-19)
(0.172051 0.205875 -3.75193e-19)
(0.399206 0.448256 -2.67528e-19)
(0.562394 0.571531 2.58775e-19)
(0.677931 0.619483 -6.40795e-19)
(0.759664 0.62201 -2.0015e-18)
(0.818702 0.598992 -8.0496e-19)
(0.862695 0.563189 -7.25493e-19)
(0.897116 0.521741 3.51135e-19)
(0.925119 0.478159 2.92635e-18)
(0.942608 0.437392 -6.08709e-19)
(0.146895 0.201722 1.97486e-19)
(0.344729 0.433651 -7.99264e-19)
(0.494243 0.546776 1.75789e-19)
(0.604668 0.587135 -1.28016e-18)
(0.68606 0.585018 2.80275e-18)
(0.747295 0.55993 -3.24856e-19)
(0.794586 0.524081 1.52728e-18)
(0.832426 0.484257 -2.18777e-18)
(0.863344 0.443962 6.86375e-19)
(0.88465 0.407477 1.06186e-19)
(0.121119 0.191157 1.45585e-19)
(0.290164 0.406552 8.81529e-19)
(0.427121 0.507896 -2.58943e-18)
(0.533589 0.54123 1.26002e-18)
(0.615634 0.535984 -4.1445e-21)
(0.679889 0.510617 -4.25198e-19)
(0.731206 0.47643 5.35135e-19)
(0.773238 0.439624 -5.3182e-19)
(0.808167 0.403352 -1.82809e-18)
(0.834249 0.370865 -5.00905e-19)
(0.0960491 0.174335 4.76398e-19)
(0.238034 0.367475 5.34529e-19)
(0.363856 0.455617 2.20781e-18)
(0.467421 0.482515 -1.22822e-18)
(0.550833 0.475501 2.53167e-18)
(0.618567 0.451353 -5.4532e-19)
(0.674215 0.420139 -5.76412e-19)
(0.720701 0.3873 6.81168e-19)
(0.759933 0.355515 4.44116e-19)
(0.790871 0.327125 1.61025e-18)
(0.0729451 0.151671 -4.83493e-19)
(0.190665 0.317378 1.57826e-19)
(0.306989 0.391113 4.26859e-20)
(0.408536 0.412152 1.25214e-18)
(0.493704 0.40459 -3.12554e-18)
(0.564991 0.382955 5.30971e-19)
(0.624866 0.355821 1.17242e-18)
(0.675619 0.327752 -1.41739e-18)
(0.718935 0.300911 4.99335e-19)
(0.754396 0.276898 -2.31744e-18)
(0.0529471 0.123827 1.03037e-19)
(0.150114 0.257627 5.55845e-19)
(0.258723 0.315975 2.16186e-19)
(0.358946 0.331693 2.92983e-19)
(0.445942 0.324636 5.61392e-19)
(0.520505 0.30661 1.67142e-18)
(0.584156 0.284489 -2.04644e-18)
(0.638656 0.261883 -1.1526e-18)
(0.685523 0.240442 1.91005e-19)
(0.724904 0.221195 1.50271e-18)
(0.0370319 0.0916913 -6.23077e-19)
(0.118111 0.189954 -7.4119e-20)
(0.220875 0.232161 -6.20894e-19)
(0.320289 0.243023 8.84258e-20)
(0.40891 0.237334 -5.31514e-19)
(0.486185 0.223801 -6.06819e-19)
(0.552892 0.207443 -9.0431e-19)
(0.610385 0.190869 2.43685e-18)
(0.660067 0.175233 4.2041e-19)
(0.702563 0.16115 -6.40843e-19)
(0.025973 0.0563428 3.35808e-19)
(0.0960032 0.116393 4.43858e-19)
(0.194848 0.141928 1.74868e-19)
(0.293813 0.148293 -9.43777e-19)
(0.383641 0.144614 -4.39368e-19)
(0.462845 0.136227 -9.46113e-20)
(0.531694 0.126186 1.8487e-19)
(0.591265 0.116067 1.48443e-19)
(0.642893 0.106552 -1.14785e-18)
(0.687549 0.0979591 6.58658e-19)
(0.0203063 0.0190055 -1.74876e-19)
(0.0847142 0.0392062 -1.98948e-19)
(0.181593 0.0477528 1.58564e-19)
(0.280362 0.0498485 1.40776e-19)
(0.370831 0.0485776 1.44275e-19)
(0.451036 0.0457368 2.20644e-19)
(0.520988 0.0423515 -1.16016e-20)
(0.581622 0.038949 -2.89423e-19)
(0.634243 0.0357548 2.74917e-19)
(0.680004 0.0328658 -4.13623e-19)
(0.0203063 -0.019005 -1.76025e-19)
(0.0847142 -0.0392051 -1.89593e-19)
(0.181593 -0.0477514 1.74723e-19)
(0.280362 -0.049847 3.42089e-19)
(0.370831 -0.0485761 2.27936e-19)
(0.451036 -0.0457354 -3.00335e-19)
(0.520988 -0.0423501 -1.63197e-19)
(0.581622 -0.0389477 7.11705e-20)
(0.634243 -0.0357536 1.60006e-19)
(0.680004 -0.0328646 -9.52812e-20)
(0.0259729 -0.0563423 4.20073e-19)
(0.0960031 -0.116392 -5.33863e-19)
(0.194847 -0.141927 -4.44026e-20)
(0.293813 -0.148291 2.95795e-19)
(0.383641 -0.144613 -1.33734e-18)
(0.462845 -0.136226 5.71425e-19)
(0.531694 -0.126185 5.89868e-19)
(0.591265 -0.116065 -6.96364e-19)
(0.642893 -0.106551 6.65188e-19)
(0.687549 -0.097958 -2.9196e-19)
(0.0370318 -0.0916908 -7.26278e-20)
(0.118111 -0.189953 -9.2647e-21)
(0.220875 -0.23216 -1.44199e-18)
(0.320289 -0.243022 -4.58718e-19)
(0.40891 -0.237332 -4.83584e-20)
(0.486185 -0.2238 -7.5463e-19)
(0.552891 -0.207442 1.40607e-18)
(0.610385 -0.190867 -4.94161e-20)
(0.660067 -0.175232 8.02887e-19)
(0.702562 -0.161148 -7.05956e-19)
(0.052947 -0.123826 1.22658e-19)
(0.150114 -0.257626 -5.67863e-19)
(0.258722 -0.315974 1.74733e-18)
(0.358946 -0.331692 2.47266e-19)
(0.445942 -0.324635 1.21559e-18)
(0.520505 -0.306608 -1.18839e-18)
(0.584155 -0.284488 1.24757e-18)
(0.638656 -0.261881 -8.99467e-19)
(0.685523 -0.240441 -3.95004e-19)
(0.724904 -0.221194 3.35553e-19)
(0.072945 -0.15167 1.09525e-18)
(0.190664 -0.317377 2.80534e-21)
(0.306989 -0.391112 -1.84149e-18)
(0.408536 -0.412151 -5.34267e-19)
(0.493704 -0.404588 1.774e-18)
(0.564991 -0.382953 -1.03966e-18)
(0.624865 -0.35582 -1.20358e-18)
(0.675618 -0.32775 1.08292e-18)
(0.718934 -0.30091 -7.37243e-19)
(0.754395 -0.276897 -1.58946e-19)
(0.0960489 -0.174334 -1.63495e-19)
(0.238034 -0.367474 -7.75197e-21)
(0.363855 -0.455616 1.99841e-18)
(0.46742 -0.482513 1.14587e-18)
(0.550832 -0.4755 -1.35125e-18)
(0.618567 -0.451352 1.63608e-18)
(0.674214 -0.420138 -1.7753e-18)
(0.7207 -0.387298 1.76673e-19)
(0.759933 -0.355514 5.28778e-19)
(0.79087 -0.327124 1.22351e-18)
(0.121118 -0.191156 1.87397e-19)
(0.290164 -0.406551 3.01768e-19)
(0.42712 -0.507895 3.2824e-19)
(0.533589 -0.541229 -1.05537e-18)
(0.615634 -0.535983 -1.87988e-18)
(0.679889 -0.510615 3.9588e-19)
(0.731206 -0.476429 1.14563e-18)
(0.773237 -0.439623 -3.27928e-19)
(0.808166 -0.40335 1.97425e-18)
(0.834249 -0.370864 -1.92436e-18)
(0.146895 -0.201721 -1.06081e-18)
(0.344728 -0.43365 4.07591e-19)
(0.494243 -0.546775 -1.10064e-18)
(0.604668 -0.587134 1.77934e-18)
(0.68606 -0.585016 8.89745e-19)
(0.747294 -0.559929 1.25622e-18)
(0.794586 -0.524079 -2.90698e-19)
(0.832425 -0.484256 1.14544e-18)
(0.863343 -0.443961 -2.42511e-18)
(0.884649 -0.407476 -6.32245e-19)
(0.17205 -0.205875 6.24743e-20)
(0.399206 -0.448256 -7.12617e-19)
(0.562393 -0.57153 -1.14095e-18)
(0.67793 -0.619482 -4.83456e-19)
(0.759664 -0.622009 -1.36615e-18)
(0.818702 -0.598991 -1.38966e-19)
(0.862695 -0.563188 1.18824e-19)
(0.897115 -0.52174 -5.33829e-19)
(0.925119 -0.478158 -5.96618e-19)
(0.942607 -0.437391 1.57341e-18)
(0.19525 -0.203727 3.35279e-19)
(0.450969 -0.450297 4.68172e-19)
(0.628516 -0.581865 8.3878e-19)
(0.750271 -0.637906 3.72193e-20)
(0.833392 -0.646759 5.5969e-19)
(0.89106 -0.628052 -7.66366e-19)
(0.932313 -0.594736 2.33986e-18)
(0.963573 -0.553879 -1.03308e-18)
(0.989459 -0.507898 -5.07389e-19)
(1.00632 -0.461005 -1.53001e-18)
(0.215232 -0.195654 -1.32043e-19)
(0.497432 -0.440132 2.33135e-19)
(0.68947 -0.577806 -2.38933e-19)
(0.818266 -0.642111 1.28846e-19)
(0.903425 -0.658818 -1.52268e-19)
(0.959699 -0.646834 -3.90551e-19)
(0.997281 -0.619362 5.13742e-19)
(1.02317 -0.584701 -1.68103e-19)
(1.04271 -0.548003 2.60703e-19)
(1.05903 -0.515026 -5.68902e-19)
(0.230937 -0.182311 -7.30003e-21)
(0.536328 -0.418563 -1.06694e-19)
(0.742535 -0.55967 2.15045e-20)
(0.879243 -0.631622 1.44357e-19)
(0.967557 -0.656555 -6.5411e-20)
(1.02335 -0.651785 1.75873e-20)
(1.05788 -0.629966 -1.71648e-20)
(1.07891 -0.599656 -3.83007e-19)
(1.09214 -0.566621 -1.77853e-19)
(1.10255 -0.534699 -5.5951e-19)
(0.241595 -0.164636 -9.62069e-20)
(0.565836 -0.386976 3.39525e-19)
(0.785453 -0.52851 -2.11013e-19)
(0.93103 -0.606951 -7.62743e-20)
(1.02419 -0.640034 3.43629e-20)
(1.08145 -0.642882 7.11648e-20)
(1.11501 -0.627182 -6.92964e-21)
(1.1335 -0.601456 2.91887e-19)
(1.14303 -0.571981 -2.52294e-19)
(1.14921 -0.541876 -3.55537e-21)
(0.246761 -0.143786 -2.36802e-19)
(0.584621 -0.34728 -1.48341e-19)
(0.816345 -0.4861 -3.68327e-19)
(0.971587 -0.569495 4.19003e-19)
(1.07145 -0.610386 -3.07183e-20)
(1.13248 -0.62129 1.363e-19)
(1.16741 -0.612601 1.53967e-19)
(1.18559 -0.592494 -5.59875e-20)
(1.19356 -0.567428 5.00796e-20)
(1.19711 -0.540018 -1.58961e-19)
(0.246314 -0.121013 -1.61065e-19)
(0.591877 -0.301727 -2.06892e-19)
(0.833761 -0.434709 3.11777e-19)
(0.999037 -0.52116 -4.68488e-19)
(1.10726 -0.569097 8.22949e-20)
(1.17428 -0.588155 4.16109e-20)
(1.21287 -0.587117 9.20052e-20)
(1.23274 -0.573482 -6.04717e-20)
(1.24078 -0.553595 -7.24622e-20)
(1.24291 -0.529716 -2.36679e-19)
(0.240438 -0.0975692 6.71494e-19)
(0.587361 -0.252732 -5.25511e-19)
(0.83678 -0.376932 2.45478e-20)
(1.01186 -0.464234 -6.73441e-19)
(1.12967 -0.51799 -1.95523e-19)
(1.20469 -0.544842 1.5643e-19)
(1.24914 -0.551723 1.14619e-19)
(1.27272 -0.545169 -3.82332e-19)
(1.28253 -0.53118 1.67916e-19)
(1.28453 -0.511751 -3.02769e-19)
(0.229589 -0.0746128 3.33229e-19)
(0.571399 -0.202719 -3.29797e-19)
(0.8251 -0.315542 1.18351e-18)
(1.00903 -0.401308 9.4387e-20)
(1.13709 -0.459222 2.6841e-19)
(1.22173 -0.493026 9.57576e-19)
(1.2741 -0.507669 -1.99022e-19)
(1.30346 -0.508495 4.83865e-20)
(1.31689 -0.500952 -2.84049e-20)
(1.32028 -0.486794 -4.95592e-20)
(0.214447 -0.053151 2.56861e-19)
(0.544857 -0.153971 5.83675e-19)
(0.799072 -0.253336 -5.94949e-19)
(0.990143 -0.335148 -1.80727e-19)
(1.12838 -0.395217 -1.9135e-19)
(1.22373 -0.434651 3.76672e-19)
(1.28575 -0.456422 -1.77756e-19)
(1.3229 -0.464535 4.19136e-19)
(1.34192 -0.463699 1.00881e-19)
(1.34842 -0.455415 -1.77412e-19)
(0.195859 -0.033992 -2.77463e-19)
(0.509077 -0.10851 2.57482e-19)
(0.759699 -0.192986 -5.28625e-19)
(0.955478 -0.268575 2.21327e-19)
(1.103 -0.328578 -2.21828e-19)
(1.20944 -0.371905 -2.63785e-19)
(1.28241 -0.39969 -2.04682e-19)
(1.32911 -0.414552 2.25832e-19)
(1.35568 -0.420325 -3.92555e-19)
(1.36715 -0.418226 2.4851e-19)
(0.174778 -0.0177191 -1.03947e-19)
(0.46578 -0.0680017 -2.03982e-19)
(0.708588 -0.1369 9.59579e-20)
(0.906018 -0.204326 7.08367e-21)
(1.06111 -0.262005 7.63741e-20)
(1.17822 -0.30719 1.0943e-19)
(1.26275 -0.339447 9.31847e-20)
(1.32038 -0.360073 -1.26077e-19)
(1.35628 -0.371946 1.02783e-19)
(1.37465 -0.37598 -1.62363e-19)
(0.152194 -0.00468196 -6.54993e-20)
(0.416953 -0.0336821 -2.64007e-20)
(0.647863 -0.0871012 9.83739e-20)
(0.843444 -0.144923 -4.43798e-20)
(1.00361 -0.198184 1.24205e-19)
(1.13008 -0.243065 -1.56997e-19)
(1.22602 -0.277934 4.03317e-20)
(1.29536 -0.302929 3.46141e-20)
(1.34202 -0.319974 -1.23687e-20)
(1.36912 -0.329669 5.67586e-20)
(0.129074 0.00499484 -7.85765e-20)
(0.364708 -0.00632779 -3.33136e-19)
(0.580026 -0.045136 -2.68318e-20)
(0.770051 -0.0925412 1.07098e-20)
(0.932173 -0.139653 -4.62115e-19)
(1.06585 -0.182154 4.8799e-20)
(1.17215 -0.217624 -5.17016e-20)
(1.2532 -0.245295 -1.40631e-19)
(1.31151 -0.266198 3.11186e-19)
(1.34886 -0.28063 -5.66148e-19)
(0.106296 0.0113866 -4.45476e-20)
(0.311148 0.0137439 7.14527e-19)
(0.507791 -0.0120103 9.53045e-20)
(0.688621 -0.0488871 -6.45469e-19)
(0.849173 -0.0886629 -7.72878e-20)
(0.987158 -0.127014 -7.27908e-19)
(1.10187 -0.161143 5.66004e-19)
(1.19376 -0.189669 -2.29734e-19)
(1.26385 -0.212839 4.35442e-19)
(1.31251 -0.230658 -3.84159e-19)
(0.0846135 0.0147331 -2.5195e-19)
(0.258235 0.0266447 2.93368e-19)
(0.43391 0.0118378 -2.04921e-19)
(0.602237 -0.0150978 1.41647e-18)
(0.757565 -0.0470153 7.49799e-19)
(0.896428 -0.0799646 -1.96343e-19)
(1.01679 -0.111125 7.63467e-19)
(1.11773 -0.138791 -4.99192e-19)
(1.19889 -0.162556 -1.60546e-19)
(1.2592 -0.182088 1.1599e-18)
(0.0646208 0.0153983 -4.6577e-19)
(0.207689 0.0328651 6.95431e-19)
(0.360992 0.0265401 -1.31885e-18)
(0.514066 0.00834219 2.28291e-19)
(0.660669 -0.0159021 5.6921e-19)
(0.796718 -0.04287 -7.15298e-19)
(0.919378 -0.0699875 -1.2669e-18)
(1.02675 -0.0954639 6.79168e-19)
(1.11736 -0.118334 -8.83288e-19)
(1.18886 -0.137783 1.41355e-18)
(0.0467472 0.0138324 -1.15141e-19)
(0.160916 0.033219 -6.99975e-19)
(0.291349 0.0327834 3.45535e-19)
(0.427127 0.021669 8.64387e-19)
(0.561899 0.00426711 -4.64305e-19)
(0.691458 -0.0168738 -4.58209e-19)
(0.812681 -0.0396052 -7.76886e-19)
(0.923219 -0.0622214 -3.55991e-19)
(1.02088 -0.0832195 -8.54964e-20)
(1.10227 -0.100981 1.41266e-18)
(0.031272 0.0105467 1.93331e-19)
(0.118982 0.0287961 -9.50895e-19)
(0.226878 0.031788 1.62648e-18)
(0.344075 0.0258962 -9.05683e-19)
(0.464461 0.0140455 5.86805e-19)
(0.584077 -0.00206881 -7.30164e-19)
(0.699987 -0.0208455 8.1323e-19)
(0.809949 -0.0407867 7.10247e-19)
(0.911596 -0.0597982 1.5518e-18)
(1.00092 -0.0748666 -2.56549e-18)
(0.0183535 0.0061028 -6.00727e-19)
(0.0826173 0.020921 1.20629e-18)
(0.169015 0.0252676 1.61018e-20)
(0.267066 0.0228363 -4.34496e-19)
(0.371102 0.0151074 -2.30732e-19)
(0.477632 0.0028738 1.84424e-19)
(0.584258 -0.0129337 -1.30931e-18)
(0.689425 -0.0312029 1.01158e-18)
(0.791353 -0.0492519 -1.30373e-18)
(0.886061 -0.0617364 -5.95093e-19)
(0.00806143 0.00110875 1.03375e-18)
(0.0522641 0.0110955 -3.2248e-19)
(0.118763 0.0153333 -6.04942e-19)
(0.197759 0.0150241 1.643e-18)
(0.284062 0.0102863 -1.61396e-18)
(0.374619 0.000980354 9.01747e-19)
(0.467624 -0.0128051 9.6041e-19)
(0.562508 -0.0307585 2.62812e-19)
(0.658924 -0.0501639 2.73338e-19)
(0.75458 -0.0623261 -3.8774e-19)
(0.00038964 -0.00380781 -9.88652e-19)
(0.0281213 0.000876652 9.39712e-19)
(0.0768156 0.00427654 -8.31616e-19)
(0.137572 0.00546662 1.04339e-18)
(0.205566 0.00344919 -3.11727e-19)
(0.277835 -0.00269943 -1.08265e-18)
(0.352546 -0.0137157 3.10474e-19)
(0.429295 -0.0305414 -5.12254e-19)
(0.509058 -0.0524399 -6.06719e-19)
(0.594193 -0.0694391 -1.89278e-18)
(-0.00476976 -0.00808521 -1.23503e-18)
(0.0101496 -0.00838258 9.8188e-19)
(0.0436487 -0.00593454 -1.92382e-18)
(0.0880041 -0.00320432 3.44015e-19)
(0.138761 -0.00175056 -1.33282e-18)
(0.192819 -0.00253497 -7.99369e-19)
(0.247604 -0.00587988 1.913e-18)
(0.30118 -0.0120041 -2.61536e-18)
(0.352905 -0.0215023 5.03404e-19)
(0.400054 -0.0302332 -8.29014e-19)
(-0.00768177 -0.0113471 6.08362e-19)
(-0.00204264 -0.0158374 2.57413e-19)
(0.0192595 -0.0143196 -7.65701e-20)
(0.0500713 -0.0102959 7.31078e-19)
(0.0867114 -0.00565356 2.14678e-18)
(0.126606 -0.00135277 7.40955e-19)
(0.167748 0.00241605 7.65619e-19)
(0.208938 0.00570289 -2.64731e-19)
(0.250254 0.00785091 -2.46946e-18)
(0.289138 0.00927658 6.26276e-19)
(-0.00878346 -0.0134239 -1.71751e-19)
(-0.0093266 -0.0210847 5.46652e-19)
(0.00264928 -0.0204999 -1.43205e-19)
(0.0227409 -0.0158138 1.01113e-18)
(0.0481811 -0.00920047 -2.33784e-18)
(0.0770243 -0.00181959 1.98441e-19)
(0.107842 0.00580229 -1.11265e-18)
(0.139858 0.0132584 1.63726e-18)
(0.172895 0.0195846 -4.78556e-19)
(0.204294 0.0240934 -6.8384e-20)
(-0.00858769 -0.0143039 -1.16921e-19)
(-0.0128308 -0.0240047 -6.57412e-19)
(-0.00771103 -0.0243067 1.65336e-18)
(0.00408333 -0.0196237 -8.71739e-19)
(0.0206656 -0.0123223 6.1266e-20)
(0.0406259 -0.00377865 2.79757e-19)
(0.0629247 0.00513975 -2.55674e-19)
(0.0869422 0.0136413 3.32278e-19)
(0.112265 0.0206255 1.15141e-18)
(0.136692 0.0252957 3.01305e-19)
(-0.00758373 -0.0140743 -2.62251e-19)
(-0.0136952 -0.0246642 -2.91698e-19)
(-0.0134276 -0.0256989 -1.29475e-18)
(-0.00791787 -0.0215086 6.89416e-19)
(0.00174001 -0.014488 -1.422e-18)
(0.0145848 -0.00611001 3.23047e-19)
(0.0298576 0.00259663 3.63245e-19)
(0.0470191 0.0107227 -3.83883e-19)
(0.0655522 0.0172588 -2.48367e-19)
(0.0838144 0.021482 -1.11622e-18)
(-0.00618709 -0.0128748 2.0487e-19)
(-0.0129397 -0.0232568 -4.81903e-20)
(-0.0159813 -0.024765 9.77687e-22)
(-0.0151325 -0.0213402 -6.22216e-19)
(-0.0108116 -0.0152214 1.57511e-18)
(-0.00361144 -0.00783045 -2.4568e-19)
(0.00592421 -0.000190057 -6.13108e-19)
(0.0173217 0.00684628 7.50417e-19)
(0.0300454 0.0124612 -2.63712e-19)
(0.0429355 0.0160572 1.45763e-18)
(-0.00472409 -0.010868 -3.84532e-20)
(-0.0114033 -0.0200598 -2.25449e-19)
(-0.0166173 -0.0217176 -8.89783e-20)
(-0.0191352 -0.0191469 -1.13674e-19)
(-0.0188302 -0.0142642 -2.44395e-19)
(-0.0160006 -0.00830721 -7.67492e-19)
(-0.0110186 -0.00217068 9.6004e-19)
(-0.00429082 0.00343632 5.60812e-19)
(0.00367023 0.00790402 -1.00463e-19)
(0.0120725 0.0107733 -8.94074e-19)
(-0.00343582 -0.00822483 2.18364e-19)
(-0.00972817 -0.015409 3.81586e-20)
(-0.0163014 -0.0168848 2.58292e-19)
(-0.0211432 -0.0151382 -2.95634e-20)
(-0.0237167 -0.0116304 2.35193e-19)
(-0.0240965 -0.0073131 2.65354e-19)
(-0.0225211 -0.00287222 3.9782e-19)
(-0.0193346 0.00116948 -1.12696e-18)
(-0.0150148 0.00439519 -2.08002e-19)
(-0.010096 0.00648134 3.72782e-19)
(-0.00248977 -0.00512115 -1.10262e-19)
(-0.00837086 -0.0096848 -1.56716e-19)
(-0.0157254 -0.0106962 -7.539e-20)
(-0.0220251 -0.00969548 3.68743e-19)
(-0.0264591 -0.00759566 1.78989e-19)
(-0.0289509 -0.00499359 3.67067e-20)
(-0.0296459 -0.00231759 -7.9583e-20)
(-0.0288397 0.000114051 -6.17347e-20)
(-0.0269807 0.00205959 5.29907e-19)
(-0.0244413 0.0033266 -3.60905e-19)
(-0.00199131 -0.00173805 5.62106e-20)
(-0.00762183 -0.00330174 6.99416e-20)
(-0.0153305 -0.00366057 -5.96384e-20)
(-0.0223327 -0.00333587 -5.45485e-20)
(-0.0276805 -0.0026379 -5.65586e-20)
(-0.0312209 -0.00176977 -9.02483e-20)
(-0.0330516 -0.000876864 2.8986e-21)
(-0.0334415 -6.58738e-05 1.25219e-19)
(-0.0328229 0.000584083 -1.25729e-19)
(-0.0314906 0.00100913 2.28755e-19)
(-0.00811764 -0.00258617 1.65414e-20)
(0.0622641 -0.00662865 9.89612e-21)
(0.277423 -0.00673144 1.34178e-21)
(0.377309 -0.00439652 -9.03824e-22)
(0.479619 -0.00366613 -6.34983e-23)
(0.553987 -0.00262053 1.48918e-22)
(0.606184 -0.00216235 1.68913e-22)
(0.660904 -0.00158518 -3.51293e-23)
(0.683972 -0.00150261 -2.36238e-24)
(0.734583 -0.00103783 2.42203e-22)
(0.00868453 -0.00806731 2.62289e-20)
(0.0775166 -0.0197152 1.24853e-21)
(0.288918 -0.0200058 -1.75141e-20)
(0.38606 -0.0130756 1.40746e-20)
(0.486326 -0.0109561 8.90892e-22)
(0.559221 -0.00785293 -6.00827e-22)
(0.610457 -0.00649587 6.98583e-22)
(0.664266 -0.00472856 7.35641e-23)
(0.686906 -0.00441449 1.50365e-22)
(0.736802 -0.00305882 -2.22022e-22)
(0.0419936 -0.0144286 2.687e-20)
(0.107546 -0.0323208 -3.61228e-20)
(0.311481 -0.0328209 1.79e-20)
(0.403255 -0.0214538 -1.1661e-20)
(0.499511 -0.018019 8.32301e-22)
(0.569522 -0.0129338 -6.49376e-22)
(0.618877 -0.0107144 -2.60703e-22)
(0.670898 -0.00779188 2.71536e-24)
(0.692703 -0.00726019 -1.14727e-22)
(0.741201 -0.00504005 -3.24173e-22)
(0.0912073 -0.0221481 -4.16402e-20)
(0.151432 -0.0441464 -5.01267e-20)
(0.344279 -0.0448917 -2.31452e-20)
(0.428287 -0.0293474 1.21534e-20)
(0.51872 -0.024715 -1.46024e-20)
(0.584564 -0.0177698 3.87606e-21)
(0.631199 -0.0147464 -2.12128e-22)
(0.680629 -0.0107256 1.28085e-22)
(0.701232 -0.00999823 -1.37566e-22)
(0.747697 -0.00695599 1.20275e-22)
(0.155394 -0.0314986 1.15175e-19)
(0.207847 -0.0549045 7.22833e-20)
(0.386124 -0.0559545 2.60142e-20)
(0.460287 -0.0365942 -2.36155e-20)
(0.543307 -0.0309201 1.19875e-20)
(0.603883 -0.0222779 3.18499e-21)
(0.647073 -0.0185276 2.24107e-21)
(0.693213 -0.0134844 2.51273e-22)
(0.7123 -0.0125902 3.08538e-22)
(0.756171 -0.00878283 -6.38173e-22)
(0.233271 -0.0424073 -5.08515e-20)
(0.275116 -0.06428 3.90044e-20)
(0.435534 -0.0657558 4.81982e-21)
(0.498175 -0.0430509 2.63446e-20)
(0.57247 -0.0365273 -5.96713e-21)
(0.626897 -0.0263875 -3.71789e-21)
(0.666059 -0.0220027 -2.31539e-21)
(0.708339 -0.0160296 -1.62264e-22)
(0.725663 -0.0150023 -1.64563e-22)
(0.766469 -0.0104988 6.83656e-22)
(0.32321 -0.0545941 -3.8692e-20)
(0.35127 -0.0720085 -1.00841e-19)
(0.490811 -0.0740927 -1.70856e-20)
(0.540715 -0.0486017 -1.46685e-20)
(0.605293 -0.041454 7.00346e-21)
(0.652941 -0.0300432 -1.95409e-21)
(0.687649 -0.0251275 2.48253e-21)
(0.725643 -0.0183293 4.65362e-22)
(0.741034 -0.0172063 -4.96698e-23)