1.45 	0 	0 	-0.29053
2.35 	0 	0 	-0.126362
