1.45 	0 	0 	-0.00790057 	-0.00258041 	3.80578e-21
2.35 	0 	0 	0.0618023 	-0.00664658 	2.3182e-21
