1.275 	2.15223e-18 	-2.76991e-20 	-0.0344594 	-0.000434432 	-1.91089e-22
1.825 	2.15223e-18 	-1.39322e-20 	-0.00945697 	-0.00275425 	1.68847e-21
2.375 	2.15223e-18 	-2.66896e-23 	0.115331 	-0.00324073 	-7.04314e-22
