1.275 	2.15223e-18 	-2.76991e-20 	-0.0342724 	-0.000451472 	-1.95864e-22
1.825 	2.15223e-18 	-1.39322e-20 	-0.00911984 	-0.00277402 	1.75036e-21
2.375 	2.15223e-18 	-2.66896e-23 	0.116288 	-0.00324911 	-7.30655e-22
