1.45 	0 	0 	-0.00577384 	-0.00277419 	1.7166e-20
2.35 	0 	0 	0.0684984 	-0.00686373 	1.06069e-20
