1.45 	0 	0 	-0.00445194 	-0.00283166 	3.95295e-21
2.35 	0 	0 	0.0727185 	-0.00698218 	2.43505e-21
