1.45 	0 	0 	-0.261539
2.35 	0 	0 	-0.176933
