/*--------------------------------*- C++ -*----------------------------------*\
  =========                 |
  \\      /  F ield         | OpenFOAM: The Open Source CFD Toolbox
   \\    /   O peration     | Website:  https://openfoam.org
    \\  /    A nd           | Version:  6.0
     \\/     M anipulation  |
\*---------------------------------------------------------------------------*/
FoamFile
{
    version     2.0;
    format      ascii;
    class       surfaceScalarField;
    location    "2.6";
    object      phi;
}
// * * * * * * * * * * * * * * * * * * * * * * * * * * * * * * * * * * * * * //

dimensions      [0 3 -1 0 0 0 0];

internalField   nonuniform List<scalar> 
47678
(
2.98097e-05
0.00388594
2.96881e-09
5.98483e-05
0.0038184
8.91144e-05
0.00368575
0.000116964
0.00349
0.000142855
0.00323456
0.000166314
0.00292389
0.000186917
0.00256343
0.000204298
0.00215936
0.000218147
0.00171872
0.000228222
0.00124891
0.000234336
0.000758878
0.00026041
0.000237017
2.96206e-05
0.00385631
4.63761e-09
5.94698e-05
0.00378855
8.85504e-05
0.00365666
0.000116222
0.00346232
0.000141948
0.00320882
0.000165257
0.00290058
0.000185727
0.00254296
0.000202996
0.00214209
0.000216758
0.00170495
0.000226762
0.00123891
0.000232956
0.000752689
0.000257639
0.000235741
2.94327e-05
0.00382687
5.69569e-09
5.90932e-05
0.00375889
8.79897e-05
0.00362777
0.000115486
0.00343482
0.000141048
0.00318326
0.000164208
0.00287742
0.000184547
0.00252262
0.000201705
0.00212494
0.00021538
0.00169128
0.000225314
0.00122897
0.00023149
0.000746513
0.000254907
0.000234221
2.92459e-05
0.00379762
6.51826e-09
5.87188e-05
0.00372942
8.74323e-05
0.00359905
0.000114755
0.0034075
0.000140154
0.00315786
0.000163165
0.0028544
0.000183374
0.00250241
0.000200422
0.00210789
0.000214011
0.00167769
0.000223879
0.00121911
0.00023
0.000740399
0.00025228
0.000232642
2.90603e-05
0.00376855
6.88769e-09
5.83466e-05
0.00370013
8.68784e-05
0.00357051
0.000114027
0.00338035
0.000139265
0.00313262
0.000162129
0.00283154
0.000182208
0.00248233
0.000199147
0.00209095
0.000212649
0.00166419
0.000222455
0.0012093
0.000228517
0.000734335
0.000249717
0.000231079
2.8876e-05
0.00373966
6.97111e-09
5.79768e-05
0.00367103
8.63278e-05
0.00354216
0.000113304
0.00335337
0.000138381
0.00310754
0.000161099
0.00280882
0.000181049
0.00246238
0.000197879
0.00207412
0.000211297
0.00165077
0.000221043
0.00119956
0.000227052
0.000728333
0.000247242
0.000229544
2.86927e-05
0.00371096
6.89706e-09
5.76091e-05
0.00364211
8.57805e-05
0.00351399
0.000112586
0.00332657
0.000137503
0.00308262
0.000160075
0.00278625
0.000179898
0.00244255
0.000196621
0.0020574
0.000209954
0.00163744
0.000219642
0.00118987
0.000225604
0.000722369
0.000244814
0.000228031
2.85106e-05
0.00368245
6.6227e-09
5.72437e-05
0.00361338
8.52366e-05
0.00348599
0.000111872
0.00329993
0.00013663
0.00305786
0.000159058
0.00276382
0.000178754
0.00242286
0.00019537
0.00204078
0.000208619
0.00162419
0.00021825
0.00118025
0.000224169
0.000716456
0.000242464
0.000226536
2.83297e-05
0.00365411
6.27862e-09
5.68806e-05
0.00358483
8.4696e-05
0.00345818
0.000111162
0.00327347
0.000135762
0.00303326
0.000158047
0.00274154
0.000177617
0.00240329
0.000194127
0.00202427
0.000207293
0.00161103
0.000216867
0.00117067
0.000222745
0.000710576
0.000240147
0.00022506
2.815e-05
0.00362595
5.90717e-09
5.65198e-05
0.00355646
8.41588e-05
0.00343054
0.000110456
0.00324717
0.0001349
0.00300882
0.000157042
0.00271939
0.000176487
0.00238384
0.000192892
0.00200787
0.000205974
0.00159795
0.000215493
0.00116116
0.000221332
0.000704743
0.000237894
0.000223601
2.79714e-05
0.00359798
5.50153e-09
5.61613e-05
0.00352827
8.36248e-05
0.00340307
0.000109755
0.00322104
0.000134042
0.00298453
0.000156044
0.00269739
0.000175365
0.00236452
0.000191665
0.00199157
0.000204665
0.00158495
0.000214127
0.00115169
0.000219928
0.000698939
0.000235659
0.000222159
2.7794e-05
0.00357018
5.08712e-09
5.5805e-05
0.00350026
8.3094e-05
0.00337578
0.000109058
0.00319507
0.00013319
0.0029604
0.000155051
0.00267553
0.000174249
0.00234532
0.000190446
0.00197537
0.000203364
0.00157203
0.000212769
0.00114229
0.000218533
0.00069318
0.000233476
0.00022073
2.76177e-05
0.00354255
4.6443e-09
5.54509e-05
0.00347242
8.25665e-05
0.00334867
0.000108365
0.00316928
0.000132344
0.00293642
0.000154065
0.00265381
0.000173141
0.00232625
0.000189235
0.00195928
0.000202071
0.0015592
0.00021142
0.00113294
0.000217148
0.000687449
0.000231305
0.000219314
2.74425e-05
0.0035151
4.15832e-09
5.50989e-05
0.00344477
8.20422e-05
0.00332172
0.000107676
0.00314364
0.000131502
0.00291259
0.000153085
0.00263223
0.00017204
0.00230729
0.000188032
0.00194329
0.000200787
0.00154644
0.00021008
0.00112365
0.000215772
0.000681762
0.00022918
0.000217908
2.72684e-05
0.00348783
3.63083e-09
5.47491e-05
0.00341729
8.15211e-05
0.00329495
0.000106992
0.00311817
0.000130666
0.00288892
0.000152112
0.00261078
0.000170946
0.00228846
0.000186837
0.0019274
0.000199511
0.00153377
0.000208747
0.00111441
0.000214404
0.000676101
0.000227061
0.000216514
2.70953e-05
0.00346073
3.07019e-09
5.44014e-05
0.00338998
8.10031e-05
0.00326835
0.000106311
0.00309286
0.000129835
0.00286539
0.000151144
0.00258947
0.000169859
0.00226975
0.000185649
0.00191161
0.000198243
0.00152118
0.000207423
0.00110523
0.000213045
0.000670484
0.000224985
0.00021513
2.69233e-05
0.00343381
2.51971e-09
5.40557e-05
0.00336285
8.04882e-05
0.00324191
0.000105635
0.00306772
0.000129009
0.00284202
0.000150183
0.0025683
0.000168779
0.00225115
0.000184469
0.00189592
0.000196984
0.00150866
0.000206108
0.00109611
0.000211695
0.000664893
0.000222914
0.000213756
2.67522e-05
0.00340705
2.04539e-09
5.3712e-05
0.00333589
7.99764e-05
0.00321565
0.000104963
0.00304273
0.000128188
0.00281879
0.000149228
0.00254726
0.000167706
0.00223267
0.000183297
0.00188033
0.000195733
0.00149623
0.000204801
0.00108704
0.000210353
0.000659344
0.000220881
0.000212392
2.65822e-05
0.00338047
1.73924e-09
5.33704e-05
0.0033091
7.94677e-05
0.00318955
0.000104295
0.0030179
0.000127373
0.00279572
0.000148279
0.00252636
0.000166639
0.00221431
0.000182132
0.00186483
0.00019449
0.00148387
0.000203502
0.00107803
0.00020902
0.000653822
0.000218852
0.000211038
2.64131e-05
0.00335405
1.70146e-09
5.30309e-05
0.00328248
7.8962e-05
0.00316362
0.000103632
0.00299323
0.000126562
0.00277279
0.000147336
0.00250558
0.00016558
0.00219607
0.000180975
0.00184944
0.000193255
0.00147159
0.000202211
0.00106908
0.000207695
0.000648342
0.000216859
0.000209692
2.6245e-05
0.0033278
2.02167e-09
5.26933e-05
0.00325603
7.84594e-05
0.00313785
0.000102972
0.00296872
0.000125757
0.00275
0.000146399
0.00248494
0.000164527
0.00217794
0.000179825
0.00183414
0.000192028
0.00145938
0.000200929
0.00106017
0.000206379
0.000642887
0.00021487
0.000208357
2.60778e-05
0.00330172
2.75952e-09
5.23577e-05
0.00322975
7.79599e-05
0.00311225
0.000102317
0.00294436
0.000124957
0.00272736
0.000145467
0.00246443
0.000163482
0.00215993
0.000178683
0.00181894
0.000190809
0.00144726
0.000199655
0.00105133
0.000205071
0.000637475
0.000212915
0.00020703
2.59116e-05
0.00327581
3.93177e-09
5.20242e-05
0.00320364
7.74634e-05
0.00308681
0.000101665
0.00292016
0.000124162
0.00270486
0.000144542
0.00244405
0.000162443
0.00214203
0.000177548
0.00180384
0.000189598
0.00143521
0.000198389
0.00104253
0.000203772
0.000632088
0.000210964
0.000205713
2.57462e-05
0.00325005
5.50542e-09
5.16926e-05
0.00317769
7.697e-05
0.00306153
0.000101018
0.00289611
0.000123372
0.00268251
0.000143623
0.0024238
0.00016141
0.00212424
0.000176421
0.00178883
0.000188395
0.00142324
0.000197131
0.0010338
0.00020248
0.000626742
0.000209045
0.000204405
2.55818e-05
0.00322447
7.41134e-09
5.13631e-05
0.00315191
7.64796e-05
0.00303642
0.000100375
0.00287222
0.000122587
0.0026603
0.00014271
0.00240368
0.000160384
0.00210656
0.0001753
0.00177391
0.000187199
0.00141134
0.000195881
0.00102512
0.000201197
0.000621422
0.000207129
0.000203105
2.54182e-05
0.00319904
9.55415e-09
5.10355e-05
0.00312629
7.59922e-05
0.00301146
9.97357e-05
0.00284848
0.000121807
0.00263823
0.000141802
0.00238368
0.000159365
0.002089
0.000174187
0.00175909
0.000186011
0.00139951
0.000194639
0.00101649
0.000199922
0.000616143
0.000205245
0.000201814
2.52556e-05
0.00317377
1.18381e-08
5.07098e-05
0.00310084
7.55079e-05
0.00298666
9.91006e-05
0.00282488
0.000121032
0.0026163
0.000140901
0.00236381
0.000158353
0.00207155
0.000173081
0.00174436
0.000184831
0.00138776
0.000193405
0.00100791
0.000198655
0.000610888
0.000203362
0.000200531
2.50938e-05
0.00314866
1.41802e-08
5.03862e-05
0.00307555
7.50265e-05
0.00296202
9.84694e-05
0.00280144
0.000120261
0.0025945
0.000140005
0.00234407
0.000157347
0.00205421
0.000171983
0.00172972
0.000183659
0.00137609
0.000192179
0.000999394
0.000197396
0.000605675
0.000201511
0.000199257
2.49329e-05
0.00312371
1.65247e-08
5.00645e-05
0.00305042
7.45482e-05
0.00293754
9.78423e-05
0.00277815
0.000119496
0.00257285
0.000139115
0.00232445
0.000156347
0.00203698
0.000170891
0.00171518
0.000182494
0.00136448
0.000190961
0.000990923
0.000196145
0.000600486
0.00019966
0.000197991
2.4773e-05
0.00309892
1.88435e-08
4.97447e-05
0.00302544
7.40728e-05
0.00291321
9.72191e-05
0.002755
0.000118736
0.00255133
0.00013823
0.00230496
0.000155354
0.00201985
0.000169806
0.00170073
0.000181336
0.00135295
0.000189751
0.00098251
0.000194902
0.000595337
0.000197839
0.000196734
2.46139e-05
0.00307428
2.1134e-08
4.94269e-05
0.00300063
7.36004e-05
0.00288903
9.65998e-05
0.002732
0.00011798
0.00252995
0.000137351
0.00228559
0.000154367
0.00200284
0.000168728
0.00168636
0.000180186
0.00134149
0.000188548
0.000974146
0.000193667
0.000590213
0.000196018
0.000195484
2.44558e-05
0.0030498
2.34069e-08
4.9111e-05
0.00297597
7.31309e-05
0.00286501
9.59844e-05
0.00270915
0.000117229
0.00250871
0.000136478
0.00226634
0.000153386
0.00198593
0.000167657
0.00167209
0.000179043
0.00133011
0.000187353
0.000965838
0.00019244
0.000585128
0.000194225
0.000194243
2.42985e-05
0.00302548
2.56783e-08
4.87971e-05
0.00295148
7.26644e-05
0.00284115
9.53729e-05
0.00268644
0.000116483
0.0024876
0.00013561
0.00224721
0.000152412
0.00196913
0.000166593
0.00165791
0.000177908
0.00131879
0.000186165
0.000957577
0.000191221
0.000580068
0.00019243
0.00019301
2.41422e-05
0.00300131
2.79574e-08
4.8485e-05
0.00292713
7.22008e-05
0.00281743
9.47652e-05
0.00266388
0.000115742
0.00246662
0.000134748
0.0022282
0.000151444
0.00195243
0.000165536
0.00164382
0.00017678
0.00130755
0.000184986
0.000949373
0.000190009
0.000575047
0.000190663
0.000191785
2.39867e-05
0.00297729
3.02433e-08
4.81749e-05
0.00290295
7.174e-05
0.00279386
9.41614e-05
0.00264146
0.000115006
0.00244578
0.000133892
0.00220932
0.000150482
0.00193584
0.000164486
0.00162981
0.000175659
0.00129638
0.000183813
0.000941216
0.000188805
0.000570051
0.000188893
0.000190568
2.38322e-05
0.00295342
3.25202e-08
4.78667e-05
0.00287891
7.12822e-05
0.00277045
9.35615e-05
0.00261918
0.000114274
0.00242507
0.000133041
0.00219055
0.000149527
0.00191935
0.000163442
0.0016159
0.000174545
0.00128527
0.000182648
0.000933113
0.000187609
0.000565092
0.00018715
0.000189359
2.36786e-05
0.00292971
3.47608e-08
4.75604e-05
0.00285503
7.08272e-05
0.00274718
9.29653e-05
0.00259704
0.000113546
0.00240449
0.000132195
0.0021719
0.000148577
0.00190297
0.000162405
0.00160207
0.000173439
0.00127424
0.000181491
0.000925058
0.00018642
0.000560158
0.000185404
0.000188158
2.35259e-05
0.00290615
3.69294e-08
4.7256e-05
0.0028313
7.03751e-05
0.00272406
9.23729e-05
0.00257504
0.000112824
0.00238403
0.000131355
0.00215337
0.000147634
0.00188669
0.000161375
0.00158833
0.000172339
0.00126328
0.000180341
0.000917057
0.000185239
0.000555262
0.000183684
0.000186964
2.33741e-05
0.00288273
3.8988e-08
4.69535e-05
0.00280772
6.99258e-05
0.00270109
9.17842e-05
0.00255318
0.000112106
0.00236371
0.00013052
0.00213496
0.000146696
0.00187052
0.000160351
0.00157467
0.000171247
0.00125238
0.000179198
0.000909103
0.000184066
0.000550389
0.000181963
0.000185778
2.32233e-05
0.00285947
4.09016e-08
4.66528e-05
0.00278429
6.94794e-05
0.00267826
9.11993e-05
0.00253146
0.000111393
0.00234352
0.00012969
0.00211666
0.000145765
0.00185444
0.000159334
0.0015611
0.000170161
0.00124155
0.000178063
0.000901202
0.0001829
0.000545554
0.000180265
0.0001846
2.30734e-05
0.00283635
4.26439e-08
4.63541e-05
0.00276101
6.90358e-05
0.00265558
9.06181e-05
0.00250988
0.000110684
0.00232345
0.000128866
0.00209848
0.000144839
0.00183847
0.000158323
0.00154762
0.000169083
0.00123079
0.000176935
0.000893346
0.000181741
0.000540743
0.000178567
0.000183429
2.29244e-05
0.00281338
4.41998e-08
4.60573e-05
0.00273788
6.8595e-05
0.00263304
9.00407e-05
0.00248844
0.000109979
0.00230352
0.000128047
0.00208041
0.00014392
0.00182259
0.000157319
0.00153422
0.000168011
0.0012201
0.000175814
0.000885544
0.00018059
0.000535968
0.000176892
0.000182266
2.27764e-05
0.00279056
4.5567e-08
4.57623e-05
0.00271489
6.8157e-05
0.00261065
8.94669e-05
0.00246713
0.00010928
0.0022837
0.000127233
0.00206246
0.000143006
0.00180682
0.000156321
0.0015209
0.000166946
0.00120947
0.0001747
0.000877787
0.000179446
0.000531216
0.000175219
0.00018111
2.26294e-05
0.00276788
4.67542e-08
4.54692e-05
0.00269205
6.77219e-05
0.00258839
8.88968e-05
0.00244595
0.000108584
0.00226402
0.000126425
0.00204461
0.000142098
0.00179115
0.00015533
0.00150767
0.000165888
0.00119892
0.000173593
0.000870082
0.000178309
0.000526501
0.000173566
0.000179962
2.24833e-05
0.00274535
4.77784e-08
4.51781e-05
0.00266936
6.72895e-05
0.00256628
8.83304e-05
0.00242491
0.000107894
0.00224445
0.000125622
0.00202689
0.000141196
0.00177557
0.000154344
0.00149452
0.000164836
0.00118842
0.000172493
0.000862423
0.00017718
0.000521809
0.000171917
0.000178821
2.23382e-05
0.00272297
4.866e-08
4.48888e-05
0.00264681
6.68599e-05
0.00254431
8.77676e-05
0.00240401
0.000107207
0.00222501
0.000124823
0.00200927
0.0001403
0.00176009
0.000153365
0.00148146
0.000163792
0.001178
0.0001714
0.000854814
0.000176058
0.000517152
0.000170287
0.000177688
2.21941e-05
0.00270072
4.94187e-08
4.46013e-05
0.0026244
6.64331e-05
0.00252248
8.72084e-05
0.00238323
0.000106525
0.0022057
0.00012403
0.00199177
0.00013941
0.00174472
0.000152393
0.00146847
0.000162754
0.00116764
0.000170314
0.000847251
0.000174943
0.000512518
0.000168661
0.000176562
2.20509e-05
0.00267862
5.00699e-08
4.43158e-05
0.00260213
6.6009e-05
0.00250079
8.66528e-05
0.00236259
0.000105848
0.0021865
0.000123242
0.00197437
0.000138525
0.00172943
0.000151426
0.00145557
0.000161722
0.00115734
0.000169235
0.000839737
0.000173835
0.000507919
0.000167053
0.000175443
2.19087e-05
0.00265666
5.06229e-08
4.40321e-05
0.00258001
6.55877e-05
0.00247923
8.61008e-05
0.00234208
0.000105174
0.00216743
0.000122459
0.00195709
0.000137646
0.00171425
0.000150466
0.00144275
0.000160697
0.00114711
0.000168163
0.000832268
0.000172734
0.000503343
0.000165451
0.000174332
2.17675e-05
0.00263484
5.10827e-08
4.37502e-05
0.00255803
6.51691e-05
0.00245781
8.55524e-05
0.00232169
0.000104505
0.00214848
0.000121681
0.00193991
0.000136772
0.00169915
0.000149512
0.00143001
0.000159679
0.00113694
0.000167098
0.000824849
0.00017164
0.000498801
0.000163865
0.000173228
2.16273e-05
0.00261316
5.14516e-08
4.34702e-05
0.00253619
6.47533e-05
0.00243653
8.50075e-05
0.00230144
0.000103841
0.00212965
0.000120908
0.00192284
0.000135904
0.00168416
0.000148564
0.00141735
0.000158667
0.00112684
0.000166039
0.000817474
0.000170553
0.000494282
0.000162284
0.00017213
2.1488e-05
0.00259162
5.17349e-08
4.31921e-05
0.00251448
6.43401e-05
0.00241538
8.44661e-05
0.00228131
0.00010318
0.00211093
0.00012014
0.00190588
0.000135042
0.00166926
0.000147622
0.00140477
0.000157661
0.0011168
0.000164988
0.000810147
0.000169473
0.000489796
0.00016072
0.00017104
2.13496e-05
0.00257022
5.1944e-08
4.29158e-05
0.00249292
6.39297e-05
0.00239437
8.39282e-05
0.00226132
0.000102524
0.00209234
0.000119377
0.00188903
0.000134185
0.00165445
0.000146686
0.00139227
0.000156662
0.00110682
0.000163943
0.000802865
0.0001684
0.000485335
0.00015916
0.000169957
2.12123e-05
0.00254896
5.21002e-08
4.26413e-05
0.00247149
6.35219e-05
0.00237349
8.33938e-05
0.00224145
0.000101872
0.00207386
0.000118619
0.00187228
0.000133333
0.00163974
0.000145756
0.00137984
0.00015567
0.00109691
0.000162904
0.00079563
0.000167333
0.000480905
0.000157616
0.000168881
2.10759e-05
0.00252783
5.2235e-08
4.23686e-05
0.0024502
6.31167e-05
0.00235274
8.28629e-05
0.0022217
0.000101224
0.0020555
0.000117866
0.00185564
0.000132487
0.00162511
0.000144831
0.0013675
0.000154683
0.00108705
0.000161872
0.000788439
0.000166274
0.0004765
0.000156076
0.000167811
2.09404e-05
0.00250683
5.23887e-08
4.20977e-05
0.00242904
6.27142e-05
0.00233212
8.23353e-05
0.00220208
0.000100581
0.00203725
0.000117117
0.00183911
0.000131646
0.00161058
0.000143913
0.00135523
0.000153703
0.00107726
0.000160847
0.000781295
0.000165221
0.000472126
0.000154552
0.000166749
2.08058e-05
0.00248598
5.26054e-08
4.18286e-05
0.00240802
6.23143e-05
0.00231164
8.18112e-05
0.00218259
9.99414e-05
0.00201912
0.000116373
0.00182268
0.000130811
0.00159615
0.000143001
0.00134304
0.000152729
0.00106754
0.000159828
0.000774194
0.000164175
0.000467777
0.000153031
0.000165693
2.06722e-05
0.00246525
5.29278e-08
4.15613e-05
0.00238713
6.19171e-05
0.00229128
8.12904e-05
0.00216321
9.9306e-05
0.00200111
0.000115634
0.00180635
0.000129981
0.0015818
0.000142094
0.00133093
0.000151761
0.00105787
0.000158816
0.000767138
0.000163135
0.000463457
0.000151525
0.000164644
2.05395e-05
0.00244466
5.33904e-08
4.12958e-05
0.00236637
6.15223e-05
0.00227106
8.0773e-05
0.00214396
9.86747e-05
0.00198321
0.0001149
0.00179013
0.000129156
0.00156754
0.000141193
0.00131889
0.0001508
0.00104826
0.00015781
0.000760126
0.000162103
0.000459163
0.000150023
0.000163601
2.04077e-05
0.00242419
5.40154e-08
4.1032e-05
0.00234575
6.11302e-05
0.00225096
8.0259e-05
0.00212483
9.80474e-05
0.00196542
0.00011417
0.001774
0.000128337
0.00155338
0.000140298
0.00130693
0.000149844
0.00103871
0.000156811
0.000753159
0.000161076
0.000454897
0.000148536
0.000162565
2.02768e-05
0.00240386
5.48094e-08
4.07699e-05
0.00232526
6.07406e-05
0.00223099
7.97482e-05
0.00210583
9.74242e-05
0.00194774
0.000113445
0.00175798
0.000127522
0.0015393
0.000139408
0.00129504
0.000148895
0.00102923
0.000155818
0.000746235
0.000160057
0.000450656
0.000147054
0.000161536
2.01468e-05
0.00238366
5.57639e-08
4.05096e-05
0.00230489
6.03535e-05
0.00221114
7.92407e-05
0.00208694
9.68049e-05
0.00193018
0.000112725
0.00174206
0.000126713
0.00152531
0.000138525
0.00128323
0.000147952
0.0010198
0.000154832
0.000739355
0.000159044
0.000446443
0.000145585
0.000160514
2.00177e-05
0.00236359
5.68579e-08
4.0251e-05
0.00228466
5.99689e-05
0.00219143
7.87364e-05
0.00206818
9.61896e-05
0.00191273
0.000112009
0.00172625
0.000125909
0.00151141
0.000137646
0.00127149
0.000147015
0.00101043
0.000153851
0.000732517
0.000158037
0.000442256
0.000144122
0.000159498
1.98894e-05
0.00234364
5.8062e-08
3.9994e-05
0.00226456
5.95868e-05
0.00217183
7.82354e-05
0.00204953
9.55782e-05
0.00189539
0.000111298
0.00171053
0.000125111
0.0014976
0.000136774
0.00125983
0.000146083
0.00100112
0.000152877
0.000725723
0.000157037
0.000438095
0.000142671
0.000158489
1.9762e-05
0.00232382
5.93442e-08
3.97388e-05
0.00224458
5.92072e-05
0.00215237
7.77376e-05
0.002031
9.49707e-05
0.00187815
0.000110591
0.00169491
0.000124317
0.00148387
0.000135907
0.00124824
0.000145158
0.000991873
0.00015191
0.000718971
0.000156044
0.00043396
0.000141227
0.000157487
1.96354e-05
0.00230412
6.06742e-08
3.94852e-05
0.00222473
5.883e-05
0.00213302
7.7243e-05
0.00201259
9.43671e-05
0.00186103
0.000109889
0.00167939
0.000123528
0.00147023
0.000135046
0.00123672
0.000144239
0.00098268
0.000150948
0.000712261
0.000155056
0.00042985
0.000139793
0.000156491
1.95097e-05
0.00228455
6.20273e-08
3.92332e-05
0.00220501
5.84552e-05
0.0021138
7.67515e-05
0.00199429
9.37673e-05
0.00184402
0.000109191
0.00166396
0.000122745
0.00145668
0.00013419
0.00122528
0.000143325
0.000973546
0.000149993
0.000705593
0.000154076
0.000425766
0.000138367
0.000155501
1.93847e-05
0.0022651
6.33861e-08
3.89829e-05
0.00218541
5.80828e-05
0.0020947
7.62632e-05
0.00197611
9.31714e-05
0.00182711
0.000108498
0.00164864
0.000121966
0.00144321
0.000133339
0.00121391
0.000142418
0.000964468
0.000149043
0.000698967
0.000153101
0.000421706
0.000136949
0.000154518
1.92606e-05
0.00224577
6.47404e-08
3.87342e-05
0.00216594
5.77128e-05
0.00207572
7.5778e-05
0.00195805
9.25792e-05
0.00181031
0.000107809
0.00163341
0.000121193
0.00142983
0.000132494
0.0012026
0.000141516
0.000955447
0.0001481
0.000692382
0.000152133
0.000417672
0.000135539
0.000153542
1.91373e-05
0.00222657
6.60854e-08
3.84871e-05
0.00214659
5.73452e-05
0.00205686
7.52959e-05
0.0019401
9.19909e-05
0.00179362
0.000107124
0.00161828
0.000120424
0.00141653
0.000131655
0.00119137
0.00014062
0.000946482
0.000147163
0.000685838
0.000151171
0.000413662
0.000134137
0.000152571
1.90147e-05
0.00220749
6.74195e-08
3.82416e-05
0.00212737
5.69799e-05
0.00203813
7.48168e-05
0.00192227
9.14062e-05
0.00177703
0.000106444
0.00160324
0.00011966
0.00140332
0.000130821
0.00118022
0.00013973
0.000937575
0.000146232
0.000679335
0.000150215
0.000409678
0.000132741
0.000151607
1.88929e-05
0.00218852
6.87414e-08
3.79976e-05
0.00210826
5.6617e-05
0.00201951
7.43408e-05
0.00190454
9.08254e-05
0.00176054
0.000105769
0.0015883
0.000118901
0.00139019
0.000129992
0.00116913
0.000138845
0.000928722
0.000145307
0.000672872
0.000149266
0.000405717
0.000131355
0.00015065
1.87719e-05
0.00216968
7.00476e-08
3.77552e-05
0.00208928
5.62564e-05
0.00200101
7.38679e-05
0.00188693
9.02482e-05
0.00174417
0.000105097
0.00157345
0.000118147
0.00137714
0.000129168
0.00115811
0.000137966
0.000919925
0.000144388
0.000666451
0.000148322
0.000401781
0.000129973
0.000149698
1.86517e-05
0.00215096
7.1332e-08
3.75143e-05
0.00207042
5.5898e-05
0.00198263
7.33979e-05
0.00186943
8.96747e-05
0.00172789
0.00010443
0.0015587
0.000117398
0.00136417
0.00012835
0.00114716
0.000137093
0.000911182
0.000143475
0.000660068
0.000147385
0.000397869
0.000128602
0.000148753
1.85322e-05
0.00213235
7.25844e-08
3.7275e-05
0.00205168
5.5542e-05
0.00196436
7.2931e-05
0.00185205
8.91049e-05
0.00171172
0.000103767
0.00154404
0.000116654
0.00135129
0.000127537
0.00113628
0.000136226
0.000902495
0.000142568
0.000653726
0.000146453
0.000393981
0.000127235
0.000147813
1.84134e-05
0.00211386
7.37929e-08
3.70372e-05
0.00203305
5.51882e-05
0.00194621
7.2467e-05
0.00183477
8.85387e-05
0.00169565
0.000103109
0.00152947
0.000115914
0.00133848
0.000126729
0.00112546
0.000135364
0.000893861
0.000141666
0.000647422
0.000145528
0.000390116
0.000125879
0.00014688
1.82954e-05
0.00209549
7.49441e-08
3.68008e-05
0.00201455
5.48366e-05
0.00192818
7.2006e-05
0.0018176
8.79761e-05
0.00167968
0.000102454
0.001515
0.000115179
0.00132576
0.000125927
0.00111472
0.000134507
0.000885283
0.000140771
0.000641158
0.000144609
0.000386276
0.000124527
0.000145953
1.8178e-05
0.00207724
7.60262e-08
3.6566e-05
0.00199616
5.44873e-05
0.00191025
7.15479e-05
0.00180054
8.74171e-05
0.00166381
0.000101804
0.00150061
0.000114449
0.00131312
0.00012513
0.00110404
0.000133656
0.000876756
0.000139881
0.000634932
0.000143695
0.000382459
0.000123186
0.000145031
1.80614e-05
0.0020591
7.70296e-08
3.63326e-05
0.00197789
5.41401e-05
0.00189245
7.10927e-05
0.00178359
8.68617e-05
0.00164805
0.000101158
0.00148632
0.000113724
0.00130055
0.000124337
0.00109343
0.000132811
0.000868284
0.000138997
0.000628746
0.000142788
0.000378666
0.000121849
0.000144116
1.79456e-05
0.00204108
7.79491e-08
3.61007e-05
0.00195974
5.37952e-05
0.00187476
7.06405e-05
0.00176675
8.63098e-05
0.00163238
0.000100516
0.00147211
0.000113003
0.00128807
0.00012355
0.00108288
0.000131971
0.000859863
0.000138119
0.000622597
0.000141887
0.000374895
0.000120523
0.000143207
1.78304e-05
0.00202317
7.87831e-08
3.58702e-05
0.0019417
5.34525e-05
0.00185718
7.01911e-05
0.00175001
8.57615e-05
0.00161681
9.98786e-05
0.001458
0.000112287
0.00127566
0.000122768
0.0010724
0.000131137
0.000851496
0.000137247
0.000616487
0.000140991
0.000371149
0.0001192
0.000142303
1.77159e-05
0.00200537
7.95342e-08
3.56412e-05
0.00192377
5.31119e-05
0.00183971
6.97446e-05
0.00173338
8.52167e-05
0.00160134
9.9245e-05
0.00144397
0.000111576
0.00126333
0.000121992
0.00106199
0.000130308
0.00084318
0.00013638
0.000610414
0.000140101
0.000367424
0.000117889
0.000141406
1.76021e-05
0.00198769
8.02069e-08
3.54136e-05
0.00190596
5.27735e-05
0.00182235
6.93009e-05
0.00171686
8.46754e-05
0.00158597
9.86154e-05
0.00143004
0.000110869
0.00125108
0.00012122
0.00105164
0.000129484
0.000834917
0.000135519
0.000604379
0.000139217
0.000363723
0.000116581
0.000140514
1.74891e-05
0.00197012
8.0808e-08
3.51874e-05
0.00188827
5.24372e-05
0.0018051
6.88601e-05
0.00170044
8.41376e-05
0.0015707
9.799e-05
0.00141619
0.000110167
0.00123891
0.000120453
0.00104136
0.000128666
0.000826704
0.000134663
0.00059838
0.000138339
0.000360044
0.000115284
0.000139628
1.73767e-05
0.00195266
8.13431e-08
3.49627e-05
0.00187068
5.21031e-05
0.00178796
6.8422e-05
0.00168412
8.36032e-05
0.00155552
9.73686e-05
0.00140243
0.000109469
0.00122681
0.000119691
0.00103114
0.000127853
0.000818544
0.000133814
0.00059242
0.000137467
0.000356388
0.000113992
0.000138748
1.7265e-05
0.00193531
8.18184e-08
3.47393e-05
0.00185321
5.17711e-05
0.00177093
6.79868e-05
0.00166791
8.30723e-05
0.00154044
9.67511e-05
0.00138875
0.000108776
0.00121479
0.000118934
0.00102098
0.000127046
0.000810432
0.000132969
0.000586495
0.0001366
0.000352754
0.00011271
0.000137874
1.71539e-05
0.00191807
8.22385e-08
3.45174e-05
0.00183585
5.14412e-05
0.00175401
6.75544e-05
0.0016518
8.25448e-05
0.00152545
9.61378e-05
0.00137516
0.000108087
0.00120284
0.000118182
0.00101089
0.000126243
0.000802373
0.00013213
0.000580607
0.000135739
0.000349142
0.000111431
0.000137005
1.70436e-05
0.00190095
8.2609e-08
3.42968e-05
0.0018186
5.11134e-05
0.00173719
6.71248e-05
0.00163579
8.20207e-05
0.00151056
9.55283e-05
0.00136165
0.000107403
0.00119097
0.000117435
0.00100086
0.000125446
0.000794362
0.000131297
0.000574755
0.000134884
0.000345552
0.000110164
0.000136142
1.6934e-05
0.00188393
8.29355e-08
3.40777e-05
0.00180145
5.07877e-05
0.00172049
6.66979e-05
0.00161988
8.15e-05
0.00149576
9.49229e-05
0.00134824
0.000106723
0.00117917
0.000116693
0.00099089
0.000124654
0.000786402
0.000130469
0.00056894
0.000134034
0.000341984
0.0001089
0.000135285
1.6825e-05
0.00186702
8.32274e-08
3.38599e-05
0.00178442
5.0464e-05
0.00170388
6.62738e-05
0.00160408
8.09826e-05
0.00148105
9.43213e-05
0.0013349
0.000106048
0.00116745
0.000115956
0.000980983
0.000123868
0.00077849
0.000129647
0.00056316
0.00013319
0.000338438
0.000107648
0.000134434
1.67167e-05
0.00185022
8.34964e-08
3.36434e-05
0.0017675
5.01425e-05
0.00168739
6.58524e-05
0.00158837
8.04686e-05
0.00146644
9.37237e-05
0.00132165
0.000105377
0.0011558
0.000115223
0.00097114
0.000123086
0.000770628
0.00012883
0.000557416
0.000132351
0.000334913
0.000106399
0.000133588
1.66091e-05
0.00183353
8.37593e-08
3.34284e-05
0.00175068
4.9823e-05
0.001671
6.54337e-05
0.00157276
7.9958e-05
0.00145192
9.313e-05
0.00130848
0.000104711
0.00114422
0.000114495
0.000961357
0.00012231
0.000762814
0.000128018
0.000551706
0.000131518
0.00033141
0.00010516
0.000132748
1.65022e-05
0.00181694
8.40354e-08
3.32147e-05
0.00173397
4.95055e-05
0.00165471
6.50177e-05
0.00155725
7.94506e-05
0.00143749
9.25401e-05
0.00129539
0.000104049
0.00113272
0.000113772
0.000951635
0.000121538
0.000755049
0.000127212
0.000546033
0.00013069
0.000327927
0.000103925
0.000131913
1.63959e-05
0.00180046
8.43475e-08
3.30024e-05
0.00171736
4.91901e-05
0.00163852
6.46045e-05
0.00154184
7.89466e-05
0.00142315
9.19541e-05
0.00128239
0.000103391
0.00112128
0.000113054
0.000941973
0.000120772
0.000747332
0.000126411
0.000540393
0.000129868
0.000324467
0.000102701
0.000131084
1.62903e-05
0.00178409
8.47178e-08
3.27914e-05
0.00170087
4.88767e-05
0.00162244
6.41939e-05
0.00152653
7.84458e-05
0.0014089
9.13719e-05
0.00126947
0.000102737
0.00110992
0.000112341
0.000932372
0.000120011
0.000739662
0.000125615
0.000534789
0.000129051
0.000321026
0.000101481
0.00013026
1.61854e-05
0.00176781
8.51678e-08
3.25818e-05
0.00168447
4.85653e-05
0.00160646
6.37859e-05
0.00151131
7.79483e-05
0.00139474
9.07935e-05
0.00125663
0.000102088
0.00109863
0.000111632
0.00092283
0.000119255
0.00073204
0.000124824
0.000529219
0.00012824
0.000317608
0.000100271
0.000129441
1.60811e-05
0.00175165
8.57138e-08
3.23735e-05
0.00166818
4.82559e-05
0.00159058
6.33806e-05
0.00149619
7.7454e-05
0.00138068
9.0219e-05
0.00124386
0.000101443
0.00108741
0.000110928
0.000913347
0.000118504
0.000724465
0.000124039
0.000523683
0.000127434
0.000314209
9.9065e-05
0.000128628
1.59776e-05
0.00173558
8.63679e-08
3.21666e-05
0.00165199
4.79486e-05
0.0015748
6.2978e-05
0.00148117
7.6963e-05
0.00136669
8.96482e-05
0.00123118
0.000100802
0.00107625
0.000110228
0.000903923
0.000117757
0.000716936
0.000123259
0.000518181
0.000126633
0.000310832
9.78696e-05
0.000127821
1.58747e-05
0.00171962
8.71338e-08
3.1961e-05
0.00163591
4.76432e-05
0.00155912
6.25779e-05
0.00146624
7.64752e-05
0.0013528
8.90811e-05
0.00121858
0.000100166
0.00106517
0.000109533
0.000894557
0.000117016
0.000709454
0.000122484
0.000512712
0.000125838
0.000307474
9.66775e-05
0.000127019
1.57724e-05
0.00170376
8.80105e-08
3.17567e-05
0.00161993
4.73398e-05
0.00154354
6.21805e-05
0.0014514
7.59905e-05
0.00133899
8.85178e-05
0.00120606
9.95334e-05
0.00105416
0.000108843
0.000885249
0.00011628
0.000702017
0.000121714
0.000507278
0.000125048
0.000304137
9.54963e-05
0.000126222
1.56708e-05
0.001688
8.89892e-08
3.15538e-05
0.00160405
4.70384e-05
0.00152806
6.17857e-05
0.00143665
7.55091e-05
0.00132527
8.79582e-05
0.00119361
9.89052e-05
0.00104321
0.000108158
0.000875999
0.000115548
0.000694627
0.00012095
0.000501876
0.000124263
0.000300819
9.43183e-05
0.00012543
1.55699e-05
0.00167234
9.00586e-08
3.13522e-05
0.00158827
4.6739e-05
0.00151268
6.13935e-05
0.001422
7.50308e-05
0.00131164
8.74022e-05
0.00118124
9.82812e-05
0.00103234
0.000107476