1.45 	0 	0 	-0.12637
2.35 	0 	0 	0.0273265
