/*--------------------------------*- C++ -*----------------------------------*\
  =========                 |
  \\      /  F ield         | OpenFOAM: The Open Source CFD Toolbox
   \\    /   O peration     | Website:  https://openfoam.org
    \\  /    A nd           | Version:  6.0
     \\/     M anipulation  |
\*---------------------------------------------------------------------------*/
FoamFile
{
    version     2.0;
    format      ascii;
    class       volVectorField;
    location    "20";
    object      U;
}
// * * * * * * * * * * * * * * * * * * * * * * * * * * * * * * * * * * * * * //

dimensions      [0 1 -1 0 0 0 0];

internalField   nonuniform List<vector> 
2000
(
(-0.00199163 0.00173935 5.76371e-20)
(-0.00762117 0.00330333 6.84475e-20)
(-0.015326 0.00366117 -6.52522e-20)
(-0.0223216 0.0033347 -1.33148e-19)
(-0.0276602 0.00263449 -9.30129e-20)
(-0.0311891 0.00176384 1.23916e-19)
(-0.0330062 0.000868291 7.21817e-20)
(-0.0333813 5.46452e-05 -2.91981e-20)
(-0.0327477 -0.000597904 -7.28965e-20)
(-0.031399 -0.00102533 5.31515e-20)
(-0.00249008 0.00512222 -1.4286e-19)
(-0.00836967 0.00968409 1.97198e-19)
(-0.0157195 0.0106917 1.96648e-20)
(-0.0220115 0.00968599 -1.14226e-19)
(-0.0264351 0.00758059 5.46572e-19)
(-0.0289141 0.00497271 -2.40559e-19)
(-0.0295942 0.00229097 -2.60266e-19)
(-0.0287718 -0.000146092 3.13923e-19)
(-0.0268965 -0.00209657 -3.09621e-19)
(-0.0243394 -0.00336758 1.56188e-19)
(-0.00343597 0.00822547 2.37274e-20)
(-0.00972571 0.0154056 8.43145e-21)
(-0.0162925 0.0168748 5.90946e-19)
(-0.0211245 0.01512 2.07296e-19)
(-0.0236852 0.0116034 4.111e-20)
(-0.0240498 0.00727714 3.40026e-19)
(-0.0224571 0.0028275 -6.45858e-19)
(-0.0192518 -0.00122233 1.4007e-20)
(-0.0149132 -0.00445529 -3.81945e-19)
(-0.00997439 -0.00654711 4.20781e-19)
(-0.00472388 0.0108679 -4.46277e-20)
(-0.0113987 0.0200531 2.56702e-19)
(-0.0166036 0.0217015 -7.4796e-19)
(-0.0191086 0.0191197 -9.66957e-20)
(-0.0187876 0.0142251 -5.5056e-19)
(-0.0159394 0.00825611 5.70211e-19)
(-0.0109365 0.00210795 -6.04841e-19)
(-0.00418647 -0.0035098 4.24781e-19)
(0.00379695 -0.007987 1.78581e-19)
(0.0122222 -0.0108636 -2.01826e-19)
(-0.00618618 0.0128736 -4.96585e-19)
(-0.0129318 0.0232463 4.46837e-21)
(-0.0159609 0.0247422 9.21259e-19)
(-0.0150952 0.0213035 2.76228e-19)
(-0.0107541 0.0151701 -8.78285e-19)
(-0.00353098 0.0077643 5.46139e-19)
(0.00602985 0.000109668 6.19138e-19)
(0.0174539 -0.00693981 -5.52022e-19)
(0.0302041 -0.0125664 3.93621e-19)
(0.0431207 -0.0161713 9.66558e-20)
(-0.00758173 0.0140716 6.78872e-20)
(-0.0136829 0.0246493 1.25862e-20)
(-0.0133986 0.0256691 -1.17765e-18)
(-0.00786726 0.0214622 -6.58904e-19)
(0.00181586 0.0144244 7.86071e-19)
(0.0146888 0.00602921 -9.20575e-19)
(0.0299917 -0.00269388 1.05501e-18)
(0.0471845 -0.0108351 -9.10919e-20)
(0.0657485 -0.0173846 -2.96824e-19)
(0.0840407 -0.0216183 -8.62874e-19)
(-0.00858409 0.0142994 -1.47629e-19)
(-0.0128129 0.023985 -2.69633e-19)
(-0.00767137 0.0242694 -3.31299e-19)
(0.00414993 0.0195674 7.0687e-19)
(0.020763 0.0122467 1.31142e-18)
(0.040757 0.00368394 -2.71034e-19)
(0.0630913 -0.00525261 -6.59879e-19)
(0.0871451 -0.0137708 2.01258e-19)
(0.112503 -0.0207695 -1.26783e-18)
(0.136963 -0.0254514 1.39252e-18)
(-0.00877775 0.0134175 9.02861e-19)
(-0.00930173 0.0210599 -4.92753e-19)
(0.00270138 0.0204551 9.62313e-19)
(0.0228257 0.015748 -1.57234e-18)
(0.0483025 0.00911351 -7.51413e-19)
(0.0771851 0.00171197 -1.04092e-18)
(0.108044 -0.00592926 3.02393e-19)
(0.140101 -0.0134027 -8.42337e-19)
(0.173177 -0.0197439 1.83438e-18)
(0.204611 -0.0242646 5.13606e-19)
(-0.00767343 0.0113387 6.63415e-20)
(-0.00200963 0.0158078 8.02665e-19)
(0.0193255 0.0142679 1.59521e-18)
(0.0501758 0.0102214 4.87628e-19)
(0.0868582 0.00555625 1.4433e-18)
(0.126798 0.00123338 7.91311e-20)
(0.167985 -0.00255588 -8.36644e-22)
(0.20922 -0.00586059 5.82057e-19)
(0.250577 -0.00802339 4.71207e-19)
(0.289497 -0.00946086 -1.52888e-18)
(-0.00475834 0.00807493 -5.34588e-19)
(0.0101917 0.0083487 -8.95491e-19)
(0.0437297 0.00587692 -1.30195e-18)
(0.0881289 0.00312256 3.06711e-20)
(0.138933 0.00164457 -6.63919e-19)
(0.193039 0.00240527 1.0465e-18)
(0.247873 0.00572777 -2.88161e-18)
(0.301496 0.0118319 1.29388e-18)
(0.353262 0.0213131 4.86688e-19)
(0.400446 0.0300307 1.52712e-18)
(0.00040451 0.00379607 2.6744e-19)
(0.0281732 -0.000913688 -1.02366e-18)
(0.0769118 -0.00433817 9.14149e-19)
(0.137717 -0.005553 -3.5474e-19)
(0.20576 -0.00356059 3.85872e-19)
(0.278079 0.00256297 8.4027e-19)
(0.352837 0.0135545 -1.12816e-18)
(0.429626 0.0303565 1.46682e-19)
(0.509421 0.0522345 -5.40702e-19)
(0.59457 0.0692205 1.09636e-18)
(0.00808007 -0.00112148 3.82996e-19)
(0.0523263 -0.0111342 -9.27878e-19)
(0.118875 -0.0153964 1.26451e-18)
(0.197922 -0.0151113 -7.87672e-19)
(0.284276 -0.0103977 -2.88945e-19)
(0.374882 -0.00111618 1.7108e-19)
(0.467928 0.012645 8.84659e-20)
(0.562846 0.030575 1.20019e-18)
(0.659282 0.0499606 3.45561e-19)
(0.754942 0.0621109 1.4766e-18)
(0.0183762 -0.006116 -3.41776e-19)
(0.0826901 -0.0209598 1.1995e-18)
(0.169142 -0.0253293 -1.00115e-18)
(0.267247 -0.0229203 -1.17445e-18)
(0.371334 -0.0152135 1.64324e-18)
(0.477909 -0.0030021 -1.24966e-18)
(0.584572 0.0127834 3.30078e-19)
(0.689764 0.0310317 -1.95701e-18)
(0.791705 0.0490628 1.46592e-18)
(0.886408 0.0615363 7.32467e-20)
(0.0312991 -0.0105598 -4.45316e-19)
(0.119065 -0.0288334 -4.30232e-19)
(0.227019 -0.0318459 -9.16332e-19)
(0.344272 -0.0259738 1.11073e-18)
(0.464708 -0.0141425 -5.6132e-20)
(0.584365 0.00195242 7.18379e-19)
(0.700305 0.0207098 1.31073e-18)
(0.810285 0.0406323 -4.02787e-19)
(0.911937 0.0596275 -1.42475e-18)
(1.00125 0.0746849 2.82872e-18)
(0.0467789 -0.013845 -2.30131e-19)
(0.161011 -0.0332533 -2.74536e-19)
(0.291504 -0.0328355 4.94297e-19)
(0.427337 -0.0217378 -9.18927e-19)
(0.562156 -0.00435256 1.56956e-19)
(0.691751 0.0167714 1.39746e-19)
(0.812998 0.0394856 6.12979e-20)
(0.923546 0.0620847 -9.85389e-21)
(1.0212 0.0830674 -1.50159e-19)
(1.10258 0.100817 -2.39181e-18)
(0.0646569 -0.0154097 9.34206e-19)
(0.207793 -0.032895 -6.52012e-19)
(0.361159 -0.0265847 8.33132e-21)
(0.514286 -0.00840069 -9.93534e-19)
(0.660931 0.0158292 -3.55614e-19)
(0.797011 0.042782 3.32447e-19)
(0.919687 0.0698834 2.58306e-19)
(1.02706 0.0953435 -9.20456e-19)
(1.11767 0.118198 7.5251e-19)
(1.18915 0.137635 -9.86828e-19)
(0.084654 -0.0147427 4.03141e-19)
(0.258347 -0.0266691 -3.58364e-19)
(0.434085 -0.0118736 1.48893e-18)
(0.602463 0.0150505 1.51902e-19)
(0.757828 0.0469553 3.48987e-19)
(0.896714 0.0798903 1.55603e-18)
(1.01709 0.111035 -2.37837e-19)
(1.11803 0.138685 2.16988e-19)
(1.19917 0.162434 8.99092e-20)
(1.25946 0.181952 -1.10467e-19)
(0.10634 -0.0113938 2.81616e-19)
(0.311266 -0.0137617 6.77293e-19)
(0.507971 0.0119841 -7.25798e-19)
(0.688848 0.0488512 -2.45833e-19)
(0.849432 0.0886151 -3.03722e-19)
(0.987433 0.126952 4.70568e-19)
(1.10214 0.161065 -2.4488e-19)
(1.19403 0.189574 6.58901e-19)
(1.2641 0.212728 2.21865e-19)
(1.31273 0.230532 -3.61655e-19)
(0.129121 -0.0049992 -3.03493e-19)
(0.364831 0.00631741 2.69826e-19)
(0.580208 0.0451197 -5.75872e-19)
(0.770275 0.0925166 2.48466e-19)
(0.932421 0.139617 -2.57862e-19)
(1.06611 0.182103 -3.21928e-19)
(1.1724 0.217556 -2.58661e-19)
(1.25344 0.245211 2.89137e-19)
(1.31173 0.266096 -5.4546e-19)
(1.34906 0.280513 3.29644e-19)
(0.152244 0.00468085 -1.08173e-19)
(0.417077 0.0336795 -2.1167e-19)
(0.648043 0.087095 1.008e-19)
(0.84366 0.144909 6.20107e-21)
(1.00385 0.198158 8.36789e-20)
(1.13032 0.243024 1.14875e-19)
(1.22626 0.277875 1.06536e-19)
(1.29558 0.302853 -1.41262e-19)
(1.34222 0.319881 1.20377e-19)
(1.3693 0.32956 -1.88436e-19)
(0.174828 0.0177215 -6.26275e-20)
(0.465903 0.0680069 -2.34985e-20)
(0.708763 0.136903 9.35586e-20)
(0.906224 0.204321 -4.30543e-20)
(1.06133 0.261988 1.14872e-19)
(1.17844 0.307157 -1.48345e-19)
(1.26296 0.339396 3.43695e-20)
(1.32058 0.360004 3.68829e-20)
(1.35646 0.371861 -1.55023e-20)
(1.37481 0.37588 5.85995e-20)
(0.195909 0.0339979 -6.75733e-20)
(0.509197 0.108523 -3.05874e-19)
(0.759865 0.192998 -2.12234e-20)
(0.95567 0.268579 6.31718e-21)
(1.1032 0.328569 -3.98287e-19)
(1.20964 0.371879 5.2607e-20)
(1.28259 0.399646 -4.48249e-20)
(1.32928 0.414491 -1.08307e-19)
(1.35583 0.420247 2.26142e-19)
(1.36729 0.418134 -4.12499e-19)
(0.214496 0.0531601 -3.26589e-20)
(0.544971 0.15399 6.1964e-19)
(0.799227 0.253355 9.98396e-20)
(0.99032 0.335159 -5.45752e-19)
(1.12856 0.395214 -4.42897e-20)
(1.22391 0.434631 -5.23803e-19)
(1.28592 0.456384 3.84239e-19)
(1.32305 0.46448 -1.39667e-19)
(1.34206 0.463629 2.47868e-19)
(1.34854 0.455333 -1.81783e-19)
(0.229635 0.0746248 -2.05896e-19)
(0.571505 0.202744 1.96945e-19)
(0.825243 0.315567 -1.42161e-19)
(1.00919 0.401324 1.07111e-18)
(1.13725 0.459224 5.29039e-19)
(1.22189 0.493011 -1.22814e-19)
(1.27424 0.507637 4.14238e-19)
(1.30359 0.508447 -2.7273e-19)
(1.31701 0.500891 -7.63125e-20)
(1.32039 0.486721 5.00666e-19)
(0.240481 0.0975837 -3.56535e-19)
(0.587458 0.252762 4.542e-19)
(0.836909 0.376962 -8.93768e-19)
(1.012 0.464255 1.2571e-19)
(1.12982 0.517996 2.81365e-19)
(1.20483 0.544832 -4.30752e-19)
(1.24927 0.551696 -5.03815e-19)
(1.27284 0.545127 2.21751e-19)
(1.28263 0.531126 -2.6766e-19)
(1.28463 0.511686 3.23771e-19)
(0.246353 0.12103 -9.00644e-20)
(0.591964 0.301759 -4.62197e-19)
(0.833875 0.434742 2.55543e-19)
(0.999163 0.521183 4.29967e-19)
(1.10739 0.569106 -2.58325e-19)
(1.1744 0.588149 -1.9305e-19)
(1.21299 0.587095 -1.07936e-19)
(1.23284 0.573447 -5.33293e-20)
(1.24087 0.553548 1.02937e-20)
(1.243 0.52966 1.1525e-19)
(0.246795 0.143803 6.6541e-20)
(0.584698 0.347314 -3.89322e-19)
(0.816446 0.486134 6.4985e-19)
(0.971697 0.56952 -3.84789e-19)
(1.07156 0.610397 1.09103e-19)
(1.13259 0.621287 -1.54349e-19)
(1.16751 0.612583 1.6635e-19)
(1.18568 0.592464 3.44985e-20)
(1.19365 0.567389 -7.05696e-20)
(1.19719 0.539971 1.378e-19)
(0.241625 0.164654 -1.75254e-19)
(0.565903 0.38701 3.42841e-19)
(0.785539 0.528545 -1.50825e-20)
(0.931125 0.606977 -7.50155e-20)
(1.02429 0.640047 -2.02203e-19)
(1.08155 0.642881 2.56704e-20)
(1.1151 0.627169 5.53877e-20)
(1.13358 0.601432 -1.46696e-19)
(1.1431 0.571948 1.70736e-19)
(1.14927 0.541836 1.47194e-19)
(0.230962 0.182329 4.24466e-20)
(0.536385 0.418597 -8.2197e-20)
(0.742609 0.559704 2.16211e-20)
(0.879324 0.631648 1.96774e-20)
(0.967639 0.656569 7.06683e-20)
(1.02343 0.651786 -1.39836e-19)
(1.05796 0.629956 -2.96685e-19)
(1.07898 0.599637 -1.21611e-19)
(1.0922 0.566594 -1.55776e-19)
(1.10261 0.534665 1.31094e-19)
(0.215253 0.195672 1.06814e-19)
(0.497479 0.440164 -1.67735e-19)
(0.689532 0.577839 1.62123e-19)
(0.818334 0.642136 -3.10073e-19)
(0.903494 0.658833 7.49673e-20)
(0.959766 0.646837 5.10924e-19)
(0.997344 0.619356 -1.56802e-19)
(1.02323 0.584686 1.85674e-19)
(1.04277 0.547981 2.72521e-19)
(1.05908 0.514998 9.91858e-19)
(0.195267 0.203743 6.75179e-19)
(0.451007 0.450327 -4.587e-19)
(0.628567 0.581896 1.11804e-18)
(0.750328 0.63793 -1.91364e-19)
(0.83345 0.646773 9.60324e-19)
(0.891116 0.628056 6.02489e-19)
(0.932367 0.594733 -1.41504e-18)
(0.963624 0.553868 2.14953e-18)
(0.989506 0.507881 -4.54489e-19)
(1.00637 0.460983 8.94886e-19)
(0.172064 0.20589 -3.72711e-19)
(0.399237 0.448283 -2.66348e-19)
(0.562434 0.571558 2.58342e-19)
(0.677977 0.619504 -6.3755e-19)
(0.759712 0.622023 -1.99158e-18)
(0.818749 0.598996 -8.01386e-19)
(0.86274 0.563186 -7.21662e-19)
(0.897159 0.521732 3.4984e-19)
(0.925159 0.478145 2.91276e-18)
(0.942645 0.437374 -6.0575e-19)
(0.146905 0.201735 1.96722e-19)
(0.344753 0.433674 -7.96788e-19)
(0.494276 0.5468 1.75119e-19)
(0.604706 0.587154 -1.27543e-18)
(0.686099 0.58503 2.79173e-18)
(0.747334 0.559935 -3.23828e-19)
(0.794624 0.52408 1.52172e-18)
(0.832462 0.484251 -2.1792e-18)
(0.863378 0.443952 6.83933e-19)
(0.884682 0.407463 1.05864e-19)
(0.121126 0.191168 1.45079e-19)
(0.290182 0.406572 8.78557e-19)
(0.427146 0.507917 -2.58165e-18)
(0.533619 0.541247 1.25594e-18)
(0.615666 0.535995 -3.90243e-21)
(0.679922 0.510622 -4.2386e-19)
(0.731238 0.476431 5.3376e-19)
(0.773268 0.43962 -5.30121e-19)
(0.808196 0.403344 -1.82185e-18)
(0.834276 0.370855 -4.99399e-19)
(0.0960548 0.174344 4.75182e-19)
(0.238048 0.367492 5.33145e-19)
(0.363876 0.455635 2.20165e-18)
(0.467445 0.482529 -1.22487e-18)
(0.550859 0.475511 2.52466e-18)
(0.618594 0.451358 -5.43741e-19)
(0.674241 0.420141 -5.74592e-19)
(0.720727 0.387297 6.79107e-19)
(0.759958 0.35551 4.42734e-19)
(0.790894 0.327117 1.605e-18)
(0.0729492 0.151678 -4.82488e-19)
(0.190675 0.317392 1.5758e-19)
(0.307005 0.391127 4.26691e-20)
(0.408555 0.412164 1.24905e-18)
(0.493725 0.404598 -3.1177e-18)
(0.565013 0.382959 5.29737e-19)
(0.624888 0.355823 1.16924e-18)
(0.67564 0.32775 -1.41347e-18)
(0.718956 0.300907 4.97909e-19)
(0.754416 0.276893 -2.31074e-18)
(0.0529498 0.123832 1.02843e-19)
(0.150122 0.257637 5.54717e-19)
(0.258735 0.315986 2.15737e-19)
(0.358962 0.331703 2.92406e-19)
(0.445959 0.324643 5.60159e-19)
(0.520524 0.306614 1.66748e-18)
(0.584174 0.28449 -2.04145e-18)
(0.638675 0.261882 -1.14961e-18)
(0.685541 0.24044 1.90492e-19)
(0.724921 0.221192 1.49863e-18)
(0.0370337 0.0916954 -6.21965e-19)
(0.118117 0.189961 -7.39352e-20)
(0.220885 0.232169 -6.19606e-19)
(0.320301 0.24303 8.82601e-20)
(0.408924 0.237339 -5.30334e-19)
(0.486201 0.223804 -6.05462e-19)
(0.552908 0.207444 -9.02221e-19)
(0.610401 0.190869 2.43089e-18)
(0.660083 0.175232 4.19284e-19)
(0.702578 0.161147 -6.39156e-19)
(0.0259742 0.0563453 3.3524e-19)
(0.0960073 0.116398 4.43056e-19)
(0.194855 0.141933 1.74488e-19)
(0.293824 0.148297 -9.41901e-19)
(0.383654 0.144617 -4.38454e-19)
(0.462859 0.136229 -9.44216e-20)
(0.531709 0.126187 1.84458e-19)
(0.59128 0.116067 1.48115e-19)
(0.642908 0.106552 -1.145e-18)
(0.687563 0.0979581 6.57038e-19)
(0.0203072 0.0190064 -1.74584e-19)
(0.0847177 0.0392079 -1.9859e-19)
(0.1816 0.0477546 1.5826e-19)
(0.280372 0.04985 1.40498e-19)
(0.370843 0.0485787 1.43986e-19)
(0.45105 0.0457376 2.20174e-19)
(0.521001 0.042352 -1.15906e-20)
(0.581636 0.0389492 -2.88761e-19)
(0.634257 0.0357548 2.74239e-19)
(0.680017 0.0328656 -4.12586e-19)
(0.0203072 -0.0190056 -1.75729e-19)
(0.0847176 -0.0392063 -1.89246e-19)
(0.1816 -0.0477527 1.74392e-19)
(0.280372 -0.0498481 3.41412e-19)
(0.370843 -0.0485768 2.27459e-19)
(0.45105 -0.0457358 -2.99694e-19)
(0.521001 -0.0423502 -1.62816e-19)
(0.581636 -0.0389474 7.1019e-20)
(0.634257 -0.0357531 1.59618e-19)
(0.680017 -0.0328639 -9.50429e-20)
(0.0259741 -0.0563444 4.19344e-19)
(0.0960071 -0.116396 -5.32868e-19)
(0.194855 -0.141931 -4.42996e-20)
(0.293823 -0.148295 2.95212e-19)
(0.383654 -0.144616 -1.33455e-18)
(0.462859 -0.136227 5.70188e-19)
(0.531709 -0.126185 5.88509e-19)
(0.59128 -0.116065 -6.94712e-19)
(0.642908 -0.10655 6.63528e-19)
(0.687563 -0.0979563 -2.91274e-19)
(0.0370335 -0.0916946 -7.25063e-20)
(0.118116 -0.18996 -9.22895e-21)
(0.220884 -0.232167 -1.43904e-18)
(0.320301 -0.243028 -4.57679e-19)
(0.408924 -0.237337 -4.81527e-20)
(0.4862 -0.223802 -7.52881e-19)
(0.552907 -0.207443 1.40272e-18)
(0.610401 -0.190867 -4.93445e-20)
(0.660083 -0.17523 8.00866e-19)
(0.702578 -0.161146 -7.0404e-19)
(0.0529496 -0.123832 1.22435e-19)
(0.150121 -0.257636 -5.66612e-19)
(0.258734 -0.315985 1.74363e-18)
(0.358961 -0.331701 2.46772e-19)
(0.445959 -0.324641 1.21281e-18)
(0.520523 -0.306612 -1.18549e-18)
(0.584174 -0.284489 1.24446e-18)
(0.638674 -0.26188 -8.97267e-19)
(0.685541 -0.240438 -3.94076e-19)
(0.724921 -0.22119 3.34626e-19)
(0.0729489 -0.151677 1.09287e-18)
(0.190674 -0.31739 2.81202e-21)
(0.307004 -0.391126 -1.83704e-18)
(0.408554 -0.412162 -5.32887e-19)
(0.493724 -0.404596 1.76965e-18)
(0.565013 -0.382957 -1.03694e-18)
(0.624887 -0.355821 -1.20039e-18)
(0.67564 -0.327749 1.08006e-18)
(0.718955 -0.300906 -7.35165e-19)
(0.754415 -0.276891 -1.58522e-19)
(0.0960545 -0.174343 -1.63163e-19)
(0.238047 -0.367491 -7.69292e-21)
(0.363875 -0.455633 1.99288e-18)
(0.467444 -0.482527 1.1427e-18)
(0.550858 -0.475509 -1.34741e-18)
(0.618593 -0.451357 1.63153e-18)
(0.674241 -0.420139 -1.76994e-18)
(0.720726 -0.387296 1.7625e-19)
(0.759957 -0.355508 5.27254e-19)
(0.790893 -0.327116 1.21956e-18)
(0.121126 -0.191167 1.86753e-19)
(0.290182 -0.406571 3.00585e-19)
(0.427145 -0.507915 3.26743e-19)
(0.533618 -0.541245 -1.05208e-18)
(0.615665 -0.535993 -1.8736e-18)
(0.679921 -0.51062 3.94599e-19)
(0.731237 -0.476429 1.14227e-18)
(0.773267 -0.439619 -3.2691e-19)
(0.808195 -0.403343 1.96743e-18)
(0.834276 -0.370854 -1.91795e-18)
(0.146905 -0.201734 -1.05691e-18)
(0.344752 -0.433673 4.05516e-19)
(0.494275 -0.546799 -1.0963e-18)
(0.604705 -0.587152 1.77213e-18)
(0.686098 -0.585028 8.86182e-19)
(0.747333 -0.559934 1.25117e-18)
(0.794623 -0.524078 -2.89254e-19)
(0.832461 -0.48425 1.14101e-18)
(0.863377 -0.44395 -2.41541e-18)
(0.884681 -0.407462 -6.29766e-19)
(0.172064 -0.205889 6.26517e-20)
(0.399236 -0.448282 -7.09228e-19)
(0.562433 -0.571557 -1.13405e-18)
(0.677976 -0.619503 -4.81201e-19)
(0.75971 -0.622022 -1.35947e-18)
(0.818748 -0.598995 -1.38582e-19)
(0.862739 -0.563185 1.18705e-19)
(0.897158 -0.521731 -5.30964e-19)
(0.925158 -0.478144 -5.93896e-19)
(0.942644 -0.437373 1.56597e-18)
(0.195267 -0.203742 3.33165e-19)
(0.451006 -0.450326 4.64486e-19)
(0.628566 -0.581894 8.33127e-19)
(0.750326 -0.637928 3.72691e-20)
(0.833448 -0.646772 5.56631e-19)
(0.891115 -0.628055 -7.61457e-19)
(0.932366 -0.594731 2.32589e-18)
(0.963622 -0.553867 -1.02665e-18)
(0.989504 -0.50788 -5.04638e-19)
(1.00637 -0.460982 -1.52209e-18)
(0.215253 -0.195671 -1.30961e-19)
(0.497478 -0.440163 2.29073e-19)
(0.68953 -0.577838 -2.352e-19)
(0.818333 -0.642135 1.27327e-19)
(0.903492 -0.658831 -1.50605e-19)
(0.959764 -0.646836 -3.86741e-19)
(0.997343 -0.619355 5.0862e-19)
(1.02323 -0.584685 -1.67335e-19)
(1.04277 -0.54798 2.58141e-19)
(1.05908 -0.514997 -5.63549e-19)
(0.230962 -0.182329 -5.90035e-21)
(0.536383 -0.418596 -1.10221e-19)
(0.742607 -0.559703 2.65542e-20)
(0.879322 -0.631646 1.41071e-19)
(0.967637 -0.656567 -6.66191e-20)
(1.02342 -0.651785 1.83095e-20)
(1.05795 -0.629955 -1.67884e-20)
(1.07898 -0.599636 -3.77564e-19)
(1.0922 -0.566593 -1.76233e-19)
(1.10261 -0.534664 -5.52277e-19)
(0.241624 -0.164654 -9.73972e-20)
(0.565901 -0.387009 3.43934e-19)
(0.785538 -0.528544 -2.14941e-19)
(0.931123 -0.606976 -8.11365e-20)
(1.02429 -0.640046 4.12002e-20)
(1.08154 -0.64288 6.57524e-20)
(1.1151 -0.627168 -5.51359e-21)
(1.13358 -0.601431 2.83181e-19)
(1.1431 -0.571947 -2.45775e-19)
(1.14927 -0.541835 -3.17423e-21)
(0.246795 -0.143803 -2.38279e-19)
(0.584697 -0.347313 -1.49912e-19)
(0.816444 -0.486133 -3.71844e-19)
(0.971695 -0.569519 4.23281e-19)
(1.07156 -0.610397 -3.09635e-20)
(1.13258 -0.621286 1.39317e-19)
(1.16751 -0.612583 1.59673e-19)
(1.18568 -0.592464 -5.77368e-20)
(1.19364 -0.567389 4.37244e-20)
(1.19719 -0.53997 -1.44897e-19)
(0.246352 -0.121029 -1.61793e-19)
(0.591963 -0.301758 -2.078e-19)
(0.833873 -0.434741 3.13623e-19)
(0.999161 -0.521182 -4.72038e-19)
(1.10738 -0.569106 8.2866e-20)
(1.1744 -0.588148 4.21783e-20)
(1.21298 -0.587095 9.22872e-20)
(1.23284 -0.573446 -6.04576e-20)
(1.24087 -0.553548 -7.30946e-20)
(1.243 -0.52966 -2.48892e-19)
(0.24048 -0.0975834 6.74494e-19)
(0.587456 -0.252761 -5.27664e-19)
(0.836907 -0.376961 2.45727e-20)
(1.012 -0.464254 -6.77165e-19)
(1.12982 -0.517995 -1.96989e-19)
(1.20483 -0.544831 1.57737e-19)
(1.24927 -0.551696 1.15771e-19)
(1.27284 -0.545127 -3.86419e-19)
(1.28263 -0.531126 1.71424e-19)
(1.28463 -0.511686 -3.0795e-19)
(0.229635 -0.0746246 3.34479e-19)
(0.571503 -0.202743 -3.30999e-19)
(0.825241 -0.315567 1.18883e-18)
(1.00918 -0.401323 9.50082e-20)
(1.13725 -0.459224 2.69751e-19)
(1.22189 -0.493011 9.64029e-19)
(1.27424 -0.507636 -1.99942e-19)
(1.30359 -0.508447 4.94808e-20)
(1.31701 -0.500891 -2.78953e-20)
(1.32039 -0.486721 -5.00238e-20)
(0.214495 -0.0531599 2.57715e-19)
(0.544969 -0.15399 5.85919e-19)
(0.799225 -0.253355 -5.97574e-19)
(0.990317 -0.335159 -1.81724e-19)
(1.12856 -0.395213 -1.92609e-19)
(1.2239 -0.434631 3.7863e-19)
(1.28592 -0.456384 -1.78879e-19)
(1.32305 -0.46448 4.22216e-19)
(1.34206 -0.46363 1.02047e-19)
(1.34854 -0.455333 -1.79348e-19)
(0.195908 -0.0339978 -2.784e-19)
(0.509195 -0.108523 2.58388e-19)
(0.759862 -0.192998 -5.30652e-19)
(0.955667 -0.268579 2.22257e-19)
(1.1032 -0.328569 -2.22833e-19)
(1.20964 -0.371879 -2.65135e-19)
(1.28259 -0.399646 -2.05901e-19)
(1.32928 -0.414491 2.27257e-19)
(1.35583 -0.420248 -3.95548e-19)
(1.36729 -0.418135 2.50373e-19)
(0.174827 -0.0177215 -1.04278e-19)
(0.465901 -0.0680068 -2.04697e-19)
(0.70876 -0.136903 9.63002e-20)
(0.906221 -0.204321 7.09278e-21)
(1.06133 -0.261988 7.66951e-20)
(1.17843 -0.307157 1.09944e-19)
(1.26296 -0.339397 9.37258e-20)
(1.32057 -0.360005 -1.26787e-19)
(1.35645 -0.371862 1.03496e-19)
(1.37481 -0.375881 -1.6354e-19)
(0.152243 -0.00468087 -6.57056e-20)
(0.417075 -0.0336796 -2.64843e-20)
(0.648041 -0.0870951 9.8748e-20)
(0.843657 -0.144909 -4.45358e-20)
(1.00384 -0.198158 1.24736e-19)
(1.13032 -0.243024 -1.57703e-19)
(1.22625 -0.277876 4.04856e-20)
(1.29557 -0.302854 3.47797e-20)
(1.34222 -0.319882 -1.24774e-20)
(1.36929 -0.329562 5.71212e-20)
(0.12912 0.00499912 -7.88147e-20)
(0.364829 -0.00631758 -3.34275e-19)
(0.580205 -0.04512 -2.69483e-20)
(0.770272 -0.092517 1.07552e-20)
(0.932418 -0.139617 -4.64034e-19)
(1.0661 -0.182104 4.90026e-20)
(1.1724 -0.217557 -5.19155e-20)
(1.25344 -0.245212 -1.41325e-19)
(1.31173 -0.266098 3.12951e-19)
(1.34906 -0.280515 -5.69436e-19)
(0.106339 0.0113937 -4.46888e-20)
(0.311265 0.0137614 7.17004e-19)
(0.507968 -0.0119845 9.56905e-20)
(0.688845 -0.0488518 -6.47883e-19)
(0.849428 -0.088616 -7.75315e-20)
(0.987429 -0.126953 -7.31028e-19)
(1.10214 -0.161066 5.68559e-19)
(1.19402 -0.189576 -2.30902e-19)
(1.2641 -0.21273 4.37623e-19)
(1.31273 -0.230535 -3.86294e-19)
(0.0846533 0.0147426 -2.5277e-19)
(0.258345 0.0266687 2.94458e-19)
(0.434082 0.0118731 -2.05713e-19)
(0.60246 -0.0150512 1.42197e-18)
(0.757824 -0.0469563 7.52914e-19)
(0.89671 -0.0798917 -1.97216e-19)
(1.01709 -0.111037 7.66899e-19)
(1.11802 -0.138687 -5.01583e-19)
(1.19917 -0.162437 -1.61511e-19)
(1.25945 -0.181955 1.16594e-18)
(0.0646563 0.0154095 -4.67351e-19)
(0.207791 0.0328946 6.97941e-19)
(0.361156 0.026584 -1.32389e-18)
(0.514283 0.00839979 2.29198e-19)
(0.660927 -0.0158305 5.71674e-19)
(0.797006 -0.0427836 -7.18333e-19)
(0.919682 -0.0698855 -1.2727e-18)
(1.02706 -0.0953461 6.82306e-19)
(1.11766 -0.118201 -8.8764e-19)
(1.18914 -0.137638 1.42055e-18)
(0.0467783 0.0138448 -1.15522e-19)
(0.161009 0.0332528 -7.02555e-19)
(0.291501 0.0328348 3.46795e-19)
(0.427334 0.0217368 8.67947e-19)
(0.562152 0.00435121 -4.66201e-19)
(0.691746 -0.0167732 -4.6021e-19)
(0.812992 -0.0394879 -7.80492e-19)
(0.92354 -0.0620877 -3.57712e-19)
(1.02119 -0.083071 -8.59531e-20)
(1.10258 -0.100821 1.4195e-18)
(0.0312987 0.0105596 1.94055e-19)
(0.119064 0.0288329 -9.54577e-19)
(0.227017 0.0318453 1.63311e-18)
(0.344269 0.0259729 -9.09371e-19)
(0.464704 0.0141411 5.89426e-19)
(0.58436 -0.00195433 -7.33444e-19)
(0.700299 -0.0207123 8.16941e-19)
(0.810279 -0.0406356 7.1357e-19)
(0.911931 -0.0596315 1.55908e-18)
(1.00125 -0.0746895 -2.57755e-18)
(0.0183759 0.00611587 -6.02966e-19)
(0.082689 0.0209595 1.21109e-18)
(0.16914 0.0253288 1.62248e-20)
(0.267244 0.0229195 -4.36287e-19)
(0.37133 0.0152122 -2.31612e-19)
(0.477904 0.00300021 1.85282e-19)
(0.584566 -0.012786 -1.31544e-18)
(0.689757 -0.0310352 1.01635e-18)
(0.791697 -0.0490673 -1.30989e-18)
(0.886401 -0.0615415 -5.97814e-19)
(0.00807987 0.00112146 1.03781e-18)
(0.0523255 0.0111341 -3.23749e-19)
(0.118873 0.0153962 -6.0758e-19)
(0.197919 0.0151108 1.65026e-18)
(0.284272 0.0103967 -1.62129e-18)
(0.374877 0.00111447 9.05987e-19)
(0.467922 -0.0126476 9.65066e-19)
(0.562838 -0.0305786 2.64111e-19)
(0.659274 -0.0499653 2.74662e-19)
(0.754933 -0.0621166 -3.89491e-19)
(0.000404466 -0.00379594 -9.92681e-19)
(0.0281726 0.000913927 9.43739e-19)
(0.0769104 0.00433838 -8.35269e-19)
(0.137714 0.00555293 1.04819e-18)
(0.205756 0.00355999 -3.13155e-19)
(0.278074 -0.00256432 -1.08795e-18)
(0.35283 -0.0135568 3.11979e-19)
(0.429618 -0.0303599 -5.14726e-19)
(0.509412 -0.0522393 -6.09618e-19)
(0.594561 -0.0692265 -1.90146e-18)
(-0.00475822 -0.00807459 -1.24043e-18)
(0.0101914 -0.00834804 9.86261e-19)
(0.0437286 -0.00587621 -1.93272e-18)
(0.0881267 -0.00312211 3.4565e-19)
(0.138929 -0.00164467 -1.33933e-18)
(0.193034 -0.00240618 -8.0345e-19)
(0.247866 -0.00572972 1.92297e-18)
(0.301488 -0.0118351 -2.62936e-18)
(0.353253 -0.021318 5.06124e-19)
(0.400435 -0.0300376 -8.34251e-19)
(-0.00767316 -0.0113381 6.11064e-19)
(-0.00200954 -0.0158067 2.58688e-19)
(0.0193249 -0.0142666 -7.70463e-20)
(0.0501741 -0.0102204 7.3459e-19)
(0.0868552 -0.0055559 2.15748e-18)
(0.126793 -0.00123395 7.44798e-19)
(0.167979 0.00255411 7.69713e-19)
(0.209212 0.00585732 -2.66121e-19)
(0.250568 0.00801821 -2.48388e-18)
(0.289486 0.00945332 6.29841e-19)
(-0.00877736 -0.0134166 -1.72584e-19)
(-0.00930137 -0.0210583 5.49359e-19)
(0.00270109 -0.0204533 -1.4393e-19)
(0.0228244 -0.0157466 1.01625e-18)
(0.0483001 -0.0091128 -2.34973e-18)
(0.0771814 -0.00171235 1.99541e-19)
(0.108039 0.00592745 -1.11861e-18)
(0.140094 0.0133991 1.6464e-18)
(0.173168 0.0197381 -4.81161e-19)
(0.204601 0.0242562 -6.87628e-20)
(-0.00858362 -0.0142983 -1.17477e-19)
(-0.0128124 -0.0239829 -6.60651e-19)
(-0.00767135 -0.0242671 1.66181e-18)
(0.0041491 -0.0195656 -8.76165e-19)
(0.0207611 -0.0122457 6.15313e-20)
(0.040754 -0.00368426 2.81205e-19)
(0.0630871 0.00525063 -2.57137e-19)
(0.0871396 0.0137668 3.34096e-19)
(0.112496 0.020763 1.15802e-18)
(0.136954 0.0254421 3.03092e-19)
(-0.00758123 -0.0140702 -2.63587e-19)
(-0.0136823 -0.0246468 -2.93209e-19)
(-0.0133983 -0.0256663 -1.30144e-18)
(-0.00786771 -0.02146 6.93042e-19)
(0.00181454 -0.0144232 -1.42957e-18)
(0.0146865 -0.00602955 3.24753e-19)
(0.0299884 0.00269167 3.652e-19)
(0.0471801 0.0108307 -3.86069e-19)
(0.0657429 0.0173775 -2.49821e-19)
(0.0840338 0.0216083 -1.12264e-18)
(-0.0061857 -0.012872 2.05972e-19)
(-0.0129312 -0.0232434 -4.84629e-20)
(-0.0159605 -0.0247392 9.6009e-22)
(-0.0150954 -0.0213011 -6.25566e-19)
(-0.010755 -0.0151688 1.58359e-18)
(-0.0035326 -0.00776471 -2.47013e-19)
(0.00602739 -0.000112115 -6.16505e-19)
(0.0174505 0.00693497 7.54597e-19)
(0.0301998 0.0125587 -2.65217e-19)
(0.0431153 0.0161606 1.46592e-18)
(-0.00472345 -0.0108662 -3.86654e-20)
(-0.011398 -0.02005 -2.2668e-19)
(-0.0166032 -0.0216982 -8.94662e-20)
(-0.0191085 -0.0191171 -1.14302e-19)
(-0.0187881 -0.0142238 -2.4573e-19)
(-0.0159404 -0.0082566 -7.71732e-19)
(-0.0109382 -0.00211061 9.65377e-19)
(-0.00418886 0.00350463 5.63985e-19)
(0.00379386 0.00797897 -1.01015e-19)
(0.0122183 0.0108524 -8.9916e-19)
(-0.00343565 -0.00822359 2.19585e-19)
(-0.0097252 -0.0154022 3.83587e-20)
(-0.0162921 -0.0168713 2.59696e-19)
(-0.0211244 -0.0151173 -2.97397e-20)
(-0.0236855 -0.0116021 2.36473e-19)
(-0.0240505 -0.00727772 2.66817e-19)
(-0.0224582 -0.00283035 4.00054e-19)
(-0.0192534 0.00121689 -1.1333e-18)
(-0.0149152 0.00444694 -2.09191e-19)
(-0.009977 0.00653558 3.74901e-19)
(-0.00248987 -0.00512028 -1.10888e-19)
(-0.00836934 -0.00968061 -1.57595e-19)
(-0.0157192 -0.0106881 -7.5802e-20)
(-0.0220114 -0.00968321 3.70783e-19)
(-0.0264351 -0.00757929 1.79978e-19)
(-0.0289143 -0.00497336 3.69118e-20)
(-0.0295948 -0.00229394 -8.00255e-20)
(-0.0287726 0.000140483 -6.20842e-20)
(-0.0268975 0.00208802 5.32927e-19)
(-0.0243409 0.00335582 -3.62954e-19)
(-0.00199156 -0.00173737 5.65312e-20)
(-0.00762105 -0.0032998 7.03334e-20)
(-0.0153259 -0.00365753 -5.99694e-20)
(-0.0223215 -0.00333191 -5.48506e-20)
(-0.0276601 -0.0026332 -5.68723e-20)
(-0.0311892 -0.00176453 -9.07537e-20)
(-0.0330064 -0.000871332 2.91224e-21)
(-0.0333815 -6.03452e-05 1.25926e-19)
(-0.032748 0.000589256 -1.26447e-19)
(-0.0313995 0.00101346 2.30059e-19)
(-0.00778955 -0.00262637 1.66523e-20)
(0.0627487 -0.00665178 1.00683e-20)
(0.27847 -0.00672038 1.37802e-21)
(0.379351 -0.00434422 -9.27694e-22)
(0.481105 -0.00371846 -6.42522e-23)
(0.559238 -0.00270076 1.60709e-22)
(0.608905 -0.00232635 2.13015e-22)
(0.67062 -0.00173616 -4.95013e-23)
(0.69017 -0.00158782 -6.72854e-25)
(0.749598 -0.00115697 2.4609e-22)
(0.00903428 -0.00813604 2.63356e-20)
(0.0780099 -0.0197677 1.15511e-21)
(0.289986 -0.0200627 -1.78775e-20)
(0.388103 -0.0130426 1.46227e-20)
(0.487858 -0.0111401 9.51527e-22)
(0.564473 -0.00798781 -6.92176e-22)
(0.613216 -0.00683715 8.76296e-22)
(0.673972 -0.00502484 1.0995e-22)
(0.693118 -0.00470551 3.50372e-22)
(0.751799 -0.00353046 -2.268e-22)
(0.0423817 -0.014526 2.70737e-20)
(0.108062 -0.0324027 -3.65131e-20)
(0.312591 -0.0329449 1.82324e-20)
(0.405295 -0.0214404 -1.21688e-20)
(0.501114 -0.0183328 8.95852e-22)
(0.574753 -0.0131219 -7.11984e-22)
(0.62169 -0.0112311 -3.42049e-22)
(0.680558 -0.0082318 9.79048e-24)
(0.698931 -0.007756 -2.75209e-22)
(0.756116 -0.00586066 -3.31579e-22)
(0.0916474 -0.0222746 -4.17795e-20)
(0.151981 -0.0442571 -5.05154e-20)
(0.345452 -0.0450806 -2.35428e-20)
(0.430321 -0.0293542 1.25645e-20)
(0.520421 -0.025156 -1.56589e-20)
(0.589766 -0.0180095 4.31083e-21)
(0.634093 -0.0154359 -2.7644e-22)
(0.690234 -0.0113061 2.0407e-22)
(0.707495 -0.0106962 -2.97912e-22)
(0.762519 -0.00811947 1.22426e-22)
(0.155894 -0.0316541 1.15908e-19)
(0.208434 -0.0550434 7.33752e-20)
(0.387369 -0.0562055 2.64722e-20)
(0.46231 -0.0366214 -2.45148e-20)
(0.545119 -0.0314844 1.28761e-20)
(0.609036 -0.022567 3.52946e-21)
(0.650057 -0.0193863 2.81576e-21)
(0.702736 -0.014202 3.7964e-22)
(0.718599 -0.0134875 7.42754e-22)
(0.770859 -0.0102814 -6.47428e-22)
(0.233832 -0.0425912 -5.13653e-20)
(0.27574 -0.0644462 3.90024e-20)
(0.436852 -0.0660654 4.85655e-21)
(0.500178 -0.0430986 2.75132e-20)
(0.574397 -0.0372099 -6.32191e-21)
(0.631982 -0.0267237 -4.17775e-21)
(0.669135 -0.023026 -2.8915e-21)
(0.717753 -0.01688 -2.93406e-22)
(0.731996 -0.0160949 -3.46617e-22)
(0.780985 -0.0123225 6.76479e-22)
(0.323825 -0.0548044 -3.87847e-20)
(0.351922 -0.0722005 -1.01927e-19)
(0.492194 -0.0744566 -1.73781e-20)
(0.542685 -0.0486696 -1.51689e-20)
(0.607325 -0.0422488 7.51252e-21)
(0.657934 -0.0304237 -2.1796e-21)
(0.690809 -0.0263099 2.94755e-21)
(0.734914 -0.0193077 6.46878e-22)
(0.74739 -0.0184895 -1.00113e-22)
(0.792705 -0.0142213 2.60153e-22)