/*--------------------------------*- C++ -*----------------------------------*\
  =========                 |
  \\      /  F ield         | OpenFOAM: The Open Source CFD Toolbox
   \\    /   O peration     | Website:  https://openfoam.org
    \\  /    A nd           | Version:  6.0
     \\/     M anipulation  |
\*---------------------------------------------------------------------------*/
FoamFile
{
    version     2.0;
    format      ascii;
    class       volScalarField;
    location    "0.1";
    object      p;
}
// * * * * * * * * * * * * * * * * * * * * * * * * * * * * * * * * * * * * * //

dimensions      [0 2 -2 0 0 0 0];

internalField   nonuniform List<scalar> 
200
(
-2.118e-09
-0.000434558
-0.0005684
-0.000352201
0.000190355
0.00108349
0.00236146
0.00405372
0.00618379
0.00877062
0.0118306
0.0153772
0.0194149
0.0239214
0.02881
0.0338656
0.0386615
0.0425006
0.0445409
0.044549
0.000403662
-5.77695e-05
-0.000181934
-5.76529e-06
0.000457133
0.00125884
0.00244629
0.00405283
0.00610115
0.00860642
0.0115799
0.0150309
0.0189638
0.0233661
0.0281769
0.0332253
0.0381311
0.0421982
0.0444593
0.0444373
0.000309413
-0.000241144
-0.000406645
-0.000290664
9.06117e-05
0.000808127
0.00191841
0.00345654
0.00544159
0.00788217
0.010783
0.014151
0.0179994
0.0223451
0.0271902
0.0324633
0.0378781
0.0426957
0.045603
0.0456338
-0.000500966
-0.00114073
-0.00135393
-0.00129361
-0.000979218
-0.000322873
0.000739695
0.00224217
0.00419566
0.00659708
0.00943943
0.0127233
0.0164691
0.0207295
0.0255956
0.03117
0.0373993
0.0436047
0.0479531
0.0485651
-0.00211935
-0.00283476
-0.00306202
-0.00302693
-0.00275335
-0.00212798
-0.00107627
0.000431655
0.00239326
0.00478581
0.00758054
0.0107585
0.0143307
0.0183657
0.0230378
0.0286986
0.0357982
0.0441049
0.0512807
0.0539636
-0.00473335
-0.00548711
-0.00563261
-0.00555681
-0.00528384
-0.0046482
-0.00355592
-0.00198235
4.87124e-05
0.0024836
0.00525652
0.0083065
0.0115975
0.0151523
0.0191364
0.0240969
0.0312013
0.0414155
0.0530161
0.0613401
-0.0087723
-0.00939739
-0.00918888
-0.0089533
-0.00863135
-0.00793047
-0.00671943
-0.00498318
-0.00278007
-0.00020916
0.00261058
0.00555104
0.00847828
0.0112664
0.0138703
0.0167235
0.0216012
0.0318807
0.0495583
0.0700437
-0.0153083
-0.0149654
-0.0137051
-0.0131622
-0.0126898
-0.011806
-0.0103386
-0.00829429
-0.00578146
-0.00295102
2.35417e-05
0.00294522
0.00556156
0.00755718
0.00858436
0.00887426
0.0109626
0.0223157
0.0515437
0.0944897
-0.0264459
-0.0225084
-0.018574
-0.0166785
-0.0157419
-0.0145902
-0.0128524
-0.0105374
-0.00777752
-0.00474653
-0.00165421
0.00125978
0.00365636
0.00517448
0.00552867
0.00577928
0.0105892
0.0328612
0.0874341
0.169466
-0.0633987
-0.0259165
-0.013937
-0.0127947
-0.0129487
-0.0123876
-0.0111042
-0.00921886
-0.00684155
-0.00413075
-0.00132585
0.00130273
0.00333075
0.0044846
0.00475579
0.00684767
0.0185473
0.0593323
0.150727
0.286787
)
;

boundaryField
{
    movingWall
    {
        type            zeroGradient;
    }
    fixedWalls
    {
        type            zeroGradient;
    }
    frontAndBack
    {
        type            empty;
    }
}


// ************************************************************************* //
