/*--------------------------------*- C++ -*----------------------------------*\
  =========                 |
  \\      /  F ield         | OpenFOAM: The Open Source CFD Toolbox
   \\    /   O peration     | Website:  https://openfoam.org
    \\  /    A nd           | Version:  6.0
     \\/     M anipulation  |
\*---------------------------------------------------------------------------*/
FoamFile
{
    version     2.0;
    format      ascii;
    class       surfaceScalarField;
    location    "5";
    object      phi;
}
// * * * * * * * * * * * * * * * * * * * * * * * * * * * * * * * * * * * * * //

dimensions      [0 3 -1 0 0 0 0];

internalField   nonuniform List<scalar> 
15760
(
-2.46168e-06
2.46553e-06
-3.8565e-09
-8.46866e-06
6.01845e-06
-1.14599e-08
-1.69632e-05
8.51356e-06
-1.89999e-08
-2.70989e-05
1.0162e-05
-2.63466e-08
-3.81961e-05
1.11307e-05
-3.34497e-08
-4.97115e-05
1.15557e-05
-4.02689e-08
-6.12139e-05
1.15491e-05
-4.67742e-08
-7.23649e-05
1.1204e-05
-5.2949e-08
-8.29049e-05
1.05988e-05
-5.87851e-08
-9.26416e-05
9.801e-06
-6.4277e-08
-0.000101442
8.86948e-06
-6.94251e-08
-0.000109224
7.8562e-06
-7.42357e-08
-0.000115952
6.80752e-06
-7.87149e-08
-0.000121634
5.76485e-06
-8.28724e-08
-0.000126313
4.76513e-06
-8.67233e-08
-0.000130063
3.84092e-06
-9.02846e-08
-0.00013299
3.02027e-06
-9.35734e-08
-0.00013522
2.3267e-06
-9.6619e-08
-0.000136901
1.78051e-06
-9.94404e-08
1.39987e-06
-1.02113e-07
-0.000138199
-2.43554e-06
4.90107e-06
-8.36733e-06
1.19502e-05
-1.67405e-05
1.68868e-05
-2.67116e-05
2.01331e-05
-3.76032e-05
2.20223e-05
-4.88739e-05
2.28263e-05
-6.00931e-05
2.27684e-05
-7.09227e-05
2.20336e-05
-8.11021e-05
2.07782e-05
-9.04375e-05
1.91363e-05
-9.87931e-05
1.72251e-05
-0.000106085
1.5148e-05
-0.000112275
1.29977e-05
-0.000117367
1.0857e-05
-0.000121402
8.80022e-06
-0.000124454
6.89297e-06
-0.000126626
5.19211e-06
-0.000128045
3.74552e-06
-0.000128859
2.5947e-06
1.77656e-06
-0.000129236
-2.38334e-06
7.28441e-06
-8.16469e-06
1.77316e-05
-1.62952e-05
2.50173e-05
-2.5937e-05
2.97749e-05
-3.6418e-05
3.25033e-05
-4.72002e-05
3.36086e-05
-5.78554e-05
3.34235e-05
-6.80454e-05
3.22236e-05
-7.75082e-05
3.0241e-05
-8.60467e-05
2.76749e-05
-9.3521e-05
2.46994e-05
-9.98418e-05
2.14687e-05
-0.000104965
1.81213e-05
-0.00010889
1.47817e-05
-0.000111652
1.15621e-05
-0.000113321
8.56247e-06
-0.000113999
5.86992e-06
-0.000113812
3.55847e-06
-0.00011291
1.69279e-06
3.30022e-07
-0.000111464
-2.30499e-06
9.5894e-06
-7.86018e-06
2.32868e-05
-1.56259e-05
3.27829e-05
-2.47735e-05
3.89225e-05
-3.4639e-05
4.23688e-05
-4.46907e-05
4.36603e-05
-5.45038e-05
4.32367e-05
-6.37414e-05
4.14612e-05
-7.21396e-05
3.86391e-05
-7.9497e-05
3.50323e-05
-8.56673e-05
3.08697e-05
-9.05532e-05
2.63547e-05
-9.41028e-05
2.16708e-05
-9.63056e-05
1.69845e-05
-9.71904e-05
1.24468e-05
-9.68215e-05
8.19366e-06
-9.52963e-05
4.34471e-06
-9.27409e-05
1.00298e-06
-8.93075e-05
-1.74059e-06
-3.80607e-06
-8.51714e-05
-2.20018e-06
1.17896e-05
-7.45238e-06
2.8539e-05
-1.47296e-05
4.00602e-05
-2.32167e-05
4.74096e-05
-3.22615e-05
5.14136e-05
-4.13416e-05
5.27404e-05
-5.00386e-05
5.19336e-05
-5.80178e-05
4.94403e-05
-6.50139e-05
4.56352e-05
-7.08208e-05
4.08392e-05
-7.5284e-05
3.53329e-05
-7.8296e-05
2.93668e-05
-7.97933e-05
2.31681e-05
-7.97538e-05
1.6945e-05
-7.81952e-05
1.08883e-05
-7.51737e-05
5.1721e-06
-7.07809e-05
-4.80749e-08
-6.51416e-05
-4.63633e-06
-5.84113e-05
-8.47088e-06
-1.1445e-05
-5.07723e-05
-2.06823e-06
1.38578e-05
-6.93846e-06
3.34092e-05
-1.36007e-05
4.67225e-05
-2.12579e-05
5.50668e-05
-2.92745e-05
5.94301e-05
-3.71418e-05
6.06077e-05
-4.44509e-05
5.92427e-05
-5.0872e-05
5.58615e-05
-5.614e-05
5.09033e-05
-6.0044e-05
4.47432e-05
-6.24205e-05
3.77094e-05
-6.31496e-05
3.00959e-05
-6.21532e-05
2.21716e-05
-5.93936e-05
1.41854e-05
-5.48742e-05
6.36891e-06
-4.8639e-05
-1.06306e-06
-4.07719e-05
-7.9152e-06
-3.13949e-05
-1.40134e-05
-2.06672e-05
-1.91985e-05
-2.33313e-05
-8.78097e-06
-1.90781e-06
1.57656e-05
-6.31352e-06
3.78149e-05
-1.22291e-05
5.26381e-05
-1.88814e-05
6.17191e-05
-2.56573e-05
6.6206e-05
-3.20672e-05
6.70176e-05
-3.77164e-05
6.48919e-05
-4.22839e-05
6.0429e-05
-4.55075e-05
5.41268e-05
-4.71728e-05
4.64085e-05
-4.71075e-05
3.7644e-05
-4.51777e-05
2.81662e-05
-4.12877e-05
1.82816e-05
-3.53806e-05
8.27827e-06
-2.74407e-05
-1.57099e-06
-1.74955e-05
-1.10082e-05
-5.61735e-06
-1.97934e-05
8.0765e-06
-2.77072e-05
2.34229e-05
-3.4545e-05
-4.01257e-05
4.02173e-05
-1.71679e-06
1.74824e-05
-5.56997e-06
4.16681e-05
-1.05996e-05
5.76677e-05
-1.60631e-05
6.71826e-05
-2.13768e-05
7.15197e-05
-2.60766e-05
7.17174e-05
-2.97886e-05
6.86039e-05
-3.22061e-05
6.28465e-05
-3.30739e-05
5.49947e-05
-3.21777e-05
4.55123e-05
-2.93376e-05
3.48039e-05
-2.44055e-05
2.3234e-05
-1.72657e-05
1.11419e-05
-7.83818e-06
-1.14928e-06
3.91724e-06
-1.33264e-05
1.79952e-05
-2.50861e-05
3.43402e-05
-3.61384e-05
5.28433e-05
-4.62103e-05
7.33383e-05
-5.50399e-05
-6.23923e-05
9.56049e-05
-1.49211e-06
1.89745e-05
-4.6972e-06
4.48732e-05
-8.69063e-06
6.16611e-05
-1.27685e-05
7.12605e-05
-1.63842e-05
7.51354e-05
-1.91075e-05
7.44407e-05
-2.05925e-05
7.00889e-05
-2.05544e-05
6.28084e-05
-1.87519e-05
5.31922e-05
-1.49762e-05
4.17366e-05
-9.04364e-06
2.88713e-05
-7.9339e-07
1.49838e-05
9.91099e-06
4.37478e-07
2.31767e-05
-1.4415e-05
3.90742e-05
-2.92238e-05
5.76275e-05
-4.36395e-05
7.88054e-05
-5.73164e-05
0.000102513
-6.99179e-05
0.000128583
-8.11102e-05
-9.05865e-05
0.000156777
-1.22972e-06
2.02042e-05
-3.68154e-06
4.7325e-05
-6.47472e-06
6.44543e-05
-8.95265e-06
7.37384e-05
-1.06148e-05
7.67975e-05
-1.10733e-05
7.48992e-05
-1.00199e-05
6.90355e-05
-7.20075e-06
5.99893e-05
-2.39803e-06
4.83895e-05
4.5833e-06
3.47553e-05
1.39235e-05
1.95311e-05
2.57914e-05
3.11593e-06
4.03427e-05
-1.41139e-05
5.77142e-05
-3.17865e-05
7.80125e-05
-4.95221e-05
0.0001013
-6.69272e-05
0.000127581
-8.35967e-05
0.000156782
-9.91191e-05
0.000188741
-0.00011307
-0.000125045
0.000223199
-9.24761e-07
2.1129e-05
-2.50677e-06
4.8907e-05
-3.91909e-06
6.58666e-05
-4.56163e-06
7.43809e-05
-3.9888e-06
7.62247e-05
-1.86469e-06
7.27751e-05
2.07123e-06
6.50996e-05
8.03049e-06
5.403e-05
1.61957e-05
4.02243e-05
2.67358e-05
2.42152e-05
3.98161e-05
6.45079e-06
5.56042e-05
-1.26721e-05
7.42694e-05
-3.27791e-05
9.5977e-05
-5.34941e-05
0.000120875
-7.44199e-05
0.000149074
-9.51266e-05
0.000180627
-0.000115149
0.000215498
-0.00013399
0.00025354
-0.000151111
-0.000165976
0.000294471
-5.71894e-07
2.17009e-05
-1.15533e-06
4.94904e-05
-9.88159e-07
6.56994e-05
4.6413e-07
7.29286e-05
3.58366e-06
7.31052e-05
8.64543e-06
6.77133e-05
1.58519e-05
5.78931e-05
2.536e-05
4.45219e-05
3.73027e-05
2.82815e-05
5.18067e-05
9.71123e-06
6.90056e-05
-1.07481e-05
8.90498e-05
-3.27163e-05
0.00011211
-5.58389e-05
0.000138372
-7.97562e-05
0.000168026
-0.000104075
0.000201244
-0.000128344
0.000238141
-0.000152047
0.000278744
-0.000174593
0.000322934
-0.000195301
-0.000213456
0.000370413
-1.6587e-07
2.18668e-05
3.8972e-07
4.89348e-05
2.35258e-06
6.37366e-05
6.18348e-06
6.90977e-05
1.21941e-05
6.70946e-05
2.05912e-05
5.93162e-05
3.151e-05
4.69743e-05
4.50408e-05
3.0991e-05
6.12517e-05
1.20707e-05
8.02075e-05
-9.24453e-06
0.000101988
-3.25283e-05
0.000126701
-5.74295e-05
0.000154496
-8.36336e-05
0.000185563
-0.000110823
0.000220127
-0.000138639
0.000258422
-0.00016664
0.000300654
-0.000194278
0.000346935
-0.000220874
0.000397211
-0.000245577
-0.000267422
0.000451177
2.97655e-07
2.15691e-05
2.14204e-06
4.70905e-05
6.13114e-06
5.97475e-05
1.26456e-05
6.25833e-05
2.19224e-05
5.78178e-05
3.40958e-05
4.71428e-05
4.92279e-05
3.18422e-05
6.73334e-05
1.28855e-05
8.84008e-05
-8.99671e-06
0.000112413
-3.32566e-05
0.000139368
-5.9483e-05
0.000169299
-8.73611e-05
0.000202298
-0.000116632
0.000238523
-0.000147049
0.000278211
-0.000178326
0.000321653
-0.000210082
0.000369157
-0.000241782
0.000420969
-0.000272686
0.000477146
-0.000301755
-0.000327682
0.000537407
8.21163e-07
2.07479e-05
4.10881e-06
4.38028e-05
1.03624e-05
5.34939e-05
1.98787e-05
5.3067e-05
3.28194e-05
4.48771e-05
4.92468e-05
3.07154e-05
6.91497e-05
1.19393e-05
9.24635e-05
-1.04283e-05
0.000119089
-3.56218e-05
0.000148909
-6.30768e-05
0.000181813
-9.23876e-05
0.000217723
-0.000123271
0.000256618
-0.000155527
0.000298572
-0.000189003
0.000343775
-0.000223529
0.000392542
-0.000258848
0.000445284
-0.000294525
0.000502428
-0.00032983
0.000564229
-0.000363556
-0.000393938
0.000630485
1.40428e-06
1.93437e-05
6.28744e-06
3.89197e-05
1.50413e-05
4.474e-05
2.78777e-05
4.02306e-05
4.48868e-05
2.7868e-05
6.60657e-05
9.53658e-06
9.13369e-05
-1.3332e-05
0.000120563
-3.96544e-05
0.000153558
-6.86171e-05
0.000190102
-9.96208e-05
0.000229958
-0.000132243
0.000272894
-0.000166207
0.000318727
-0.00020136
0.000367361
-0.000237637
0.000418847
-0.000275015
0.00047343
-0.000313431
0.000531577
-0.000352672
0.00059393
-0.000392183
0.000661068
-0.000430694
-0.000465814
0.000732944
2.04296e-06
1.73007e-05
8.66276e-06
3.22999e-05
2.01363e-05
3.32665e-05
3.65925e-05
2.37744e-05
5.80576e-05
6.40283e-06
8.44754e-05
-1.68812e-05
0.000115719
-4.45752e-05
0.000151595
-7.55313e-05
0.000191853
-0.000108875
0.000236183
-0.00014395
0.000284225
-0.000180285
0.000335589
-0.000217571
0.00038988
-0.00025565
0.000446747
-0.000294505
0.00050597
-0.000334237
0.000567553
-0.000375015
0.00063185
-0.000416969
0.00069964
-0.000459973
0.000771963
-0.000503017
-0.000542981
0.00084913
2.72903e-06
1.45717e-05
1.12056e-05
2.38233e-05
2.55863e-05
1.88857e-05
4.59205e-05
3.44031e-06
7.21802e-05
-1.9857e-05
0.000104272
-4.89735e-05
0.000142043
-8.23457e-05
0.000185276
-0.000118765
0.000233691
-0.00015729
0.000286935
-0.000197194
0.000344575
-0.000237925
0.000406097
-0.000279094
0.000470911
-0.000320464
0.000538378
-0.000361972
0.000607876
-0.000403736
0.000678929
-0.000446067
0.000751412
-0.000489451
0.000825859
-0.00053442
0.000903673
-0.000580831
-0.000626256
0.000986948
3.4504e-06
1.11213e-05
1.38732e-05
1.34005e-05
3.13008e-05
1.45811e-06
5.57056e-05
-2.09644e-05
8.70145e-05
-5.11659e-05
0.000125113
-8.70721e-05
0.000169845
-0.000127078
0.000221009
-0.000169928
0.000278348
-0.000214629
0.000341538
-0.000260384
0.000410173
-0.00030656
0.000483737
-0.000352658
0.000561581
-0.000398308
0.000642894
-0.000443285
0.000726702
-0.000487543
0.000811914
-0.00053128
0.000897505
-0.000575043
0.00098296
-0.000619875
0.00106934
-0.000667206
-0.000720611
0.00116369
4.19203e-06
6.92923e-06
1.66125e-05
9.79997e-07
3.71659e-05
-1.90952e-05
6.57474e-05
-4.9546e-05
0.000102243
-8.7661e-05
0.000146525
-0.000131354
0.000198453
-0.000179006
0.000257869
-0.000229344
0.000324592
-0.000281351
0.000398411
-0.000334204
0.000479079
-0.000387228
0.000566288
-0.000439867
0.000659651
-0.000491671
0.000758655
-0.000542289
0.000862607
-0.000591495
0.000970585
-0.000639258
0.00108139
-0.000685851
0.00119342
-0.000731896
0.00130532
-0.000779111
-0.000829902
0.00141461
4.9376e-06
1.99164e-06
1.93657e-05
-1.34481e-05
4.30561e-05
-4.27856e-05
7.58216e-05
-8.23115e-05
0.000117501
-0.00012934
0.000167951
-0.000181804
0.000227043
-0.000238099
0.000294668
-0.000296969
0.000370734
-0.000357417
0.00045518
-0.00041865
0.000547992
-0.000480039
0.000649229
-0.000541104
0.000759076
-0.000601518
0.000877927
-0.000661141
0.00100655
-0.000720116
0.00114634
-0.000779054
0.00129985
-0.000839359
0.00147188
-0.000903923
0.00167208
-0.000979309
-0.00108228
0.00192445
5.67155e-06
-3.67991e-06
2.20764e-05
-2.9853e-05
4.88478e-05
-6.95569e-05
8.57046e-05
-0.000119168
0.000132423
-0.000176059
0.000188823
-0.000238204
0.000254764
-0.00030404
0.000330146
-0.000372351
0.000414918
-0.000442189
0.000509093
-0.000512826
0.000612774
-0.00058372
0.000726184
-0.000654515
0.000849725
-0.000725058
0.000984039
-0.000795455
0.00113009
-0.000866169
0.00128923
-0.000938193
0.00146316
-0.00101329
0.00165367
-0.00109444
0.00186106
-0.0011867
-0.00129776
0.00207654
6.38114e-06
-1.00611e-05
2.46978e-05
-4.81696e-05
5.44366e-05
-9.92958e-05
9.52069e-05
-0.000159939
0.000146699
-0.00022755
0.000208663
-0.000300169
0.000280905
-0.000376281
0.000363275
-0.000454721
0.000455681
-0.000534595
0.000558091
-0.000615235
0.000670547
-0.000696175
0.000793179
-0.000777147
0.000926214
-0.000858094
0.00106997
-0.000939213
0.00122482
-0.00102101
0.00139103
-0.00110441
0.00156853
-0.00119079
0.00175629
-0.0012822
0.00195101
-0.00138141
-0.00149133
0.00214459
7.05782e-06
-1.71189e-05
2.71961e-05
-6.83079e-05
5.97465e-05
-0.000131846
0.00010419
-0.000204382
0.000160104
-0.000283464
0.000227136
-0.000367201
0.00030499
-0.000454134
0.00039341
-0.000543141
0.000492184
-0.000633369
0.000601135
-0.000724187
0.000720121
-0.000815161
0.000849021
-0.000906046
0.000987711
-0.000996784
0.00113601
-0.00108752
0.00129361
-0.00117861
0.00145985
-0.00127065
0.00163355
-0.00136449
0.00181254
-0.00146118
0.00199313
-0.00156201
-0.00166797
0.00216977
7.69747e-06
-2.48163e-05
2.95527e-05
-9.01631e-05
6.47326e-05
-0.000167026
0.000112571
-0.00025222
0.000172509
-0.000343402
0.000244059
-0.000438751
0.000326783
-0.000536858
0.000420275
-0.000636634
0.000524151
-0.000737245
0.000638032
-0.000838068
0.000761532
-0.000938662
0.000894233
-0.00103875
0.00103565
-0.0011382
0.00118515
-0.00123702
0.00134192
-0.00133537
0.00150478
-0.00143351
0.00167207
-0.00153178
0.00184146
-0.00163058
0.00200979
-0.00173034
-0.00183126
0.00217307
8.29973e-06
-3.31161e-05
3.17616e-05
-0.000113625
6.93775e-05
-0.000204642
0.000120318
-0.000303161
0.000183866
-0.00040695
0.000259374
-0.000514259
0.000346238
-0.000623721
0.000443871
-0.000734267
0.000551692
-0.000845065
0.000669101
-0.000955477
0.000795465
-0.00106503
0.000930088
-0.00117337
0.00107218
-0.00128029
0.0012208
-0.00138565
0.00137482
-0.00148939
0.00153284
-0.00159152
0.00169309
-0.00169203
0.00185345
-0.00179093
0.00201131
-0.0018882
-0.00198364
0.00216369
8.86678e-06
-4.19829e-05
3.38255e-05
-0.000138584
7.3683e-05
-0.0002445
0.000127432
-0.000356911
0.000194181
-0.000473699
0.000273107
-0.000593185
0.000363421
-0.000714036
0.000464347
-0.000835194
0.0005751
-0.000955819
0.000694869
-0.00107525
0.000822794
-0.00119295
0.000957954
-0.00130853
0.00109933
-0.00142167
0.0012458
-0.00153211
0.00139606
-0.00163966
0.00154866
-0.00174412
0.00170192
-0.0018453
0.00185396
-0.00194297
0.00200265
-0.00203689
-0.00212666
0.00214567
9.40178e-06
-5.13846e-05
3.57516e-05
-0.000164933
7.76598e-05
-0.000286408
0.000133931
-0.000413181
0.000203485
-0.000543254
0.000285315
-0.000675014
0.000378442
-0.000807163
0.000481899
-0.000938651
0.000594707
-0.00106863
0.000715859
-0.0011964
0.000844309
-0.0013214
0.000978958
-0.00144318
0.00111864
-0.00156135
0.00126211
-0.00167558
0.00140803
-0.00178558
0.00155497
-0.00189106
0.00170138
-0.00199171
0.00184563
-0.00208722
0.00198598
-0.00217724
-0.00226126
0.00212057
9.90758e-06
-6.12922e-05
3.75464e-05
-0.000192572
8.13193e-05
-0.000330181
0.000139831
-0.000471693
0.000211811
-0.000615233
0.000296056
-0.00075926
0.000391403
-0.00090251
0.000496698
-0.00104395
0.000610781
-0.00118271
0.000732479
-0.00131809
0.000860591
-0.00144951
0.000993889
-0.00157648
0.00113111
-0.00169857
0.00127096
-0.00181543
0.00141211
-0.00192673
0.00155319
-0.00203214
0.00169281
-0.00213133
0.00182957
-0.00222397
0.00196202
-0.00230969
-0.00238794
0.0020887
1.03857e-05
-7.1678e-05
3.92131e-05
-0.0002214
8.46662e-05
-0.000375634
0.000145143
-0.000532171
0.000219173
-0.000689263
0.000305364
-0.00084545
0.000402365
-0.000999511
0.000508849
-0.00115043
0.000623495
-0.00129736
0.000744983
-0.00143958
0.000871994
-0.00157652
0.00100321
-0.00170769
0.00113731
-0.00183267
0.00127299
-0.00195111
0.00140896
-0.0020627
0.00154395
-0.00216713
0.00167672
-0.0022641
0.00180606
-0.00235332
0.0019308
-0.00243443
-0.00250691
0.00204978
1.0836e-05
-8.25139e-05
4.07497e-05
-0.000251313
8.76954e-05
-0.00042258
0.000149858
-0.000594333
0.000225565
-0.00076497
0.000313235
-0.000933119
0.000411339
-0.00109762
0.000518387
-0.00125748
0.000632914
-0.00141188
0.000753482
-0.00156015
0.000878679
-0.00170172
0.00100713
-0.00183614
0.00113748
-0.00196303
0.00126846
-0.00208209
0.00139884
-0.00219307
0.00152744
-0.00229573
0.00165317
-0.00238984
0.00177503
-0.00247517
0.00189205
-0.00255145
-0.00261821
0.00200335
1.1256e-05
-9.37699e-05
4.2148e-05
-0.000282205
9.03905e-05
-0.000470822
0.00015395
-0.000657893
0.000230953
-0.000841973
0.000319629
-0.0010218
0.000418284
-0.00119627
0.000525277
-0.00136447
0.000639019
-0.00152562
0.000757974
-0.00167911
0.000880664
-0.00182441
0.00100568
-0.00196115
0.00113168
-0.00208903
0.00125742
-0.00220783
0.00138175
-0.0023174
0.00150361
-0.00241759
0.00162206
-0.00250828
0.00173625
-0.00258937
0.00184544
-0.00266065
-0.00272174
0.00194897
1.16418e-05
-0.000105412
4.33945e-05
-0.000313958
9.27248e-05
-0.000520152
0.000157378
-0.000722546
0.000235279
-0.000919874
0.000324479
-0.001111
0.000423123
-0.00129491
0.000529437
-0.00147078
0.000641728
-0.00163792
0.000758384
-0.00179576
0.000877883
-0.00194391
0.000998805
-0.00208207
0.00111984
-0.00221007
0.0012398
-0.00232779
0.00135761
-0.00243521
0.00147235
-0.00253232
0.00158321
-0.00261914
0.00168951
-0.00269566
0.00179069
-0.00276183
-0.00281736
0.00188631
1.19879e-05
-0.0001174
4.44713e-05
-0.000346442
9.46636e-05
-0.000570345
0.000160088
-0.00078797
0.000238471
-0.000998258
0.000327693
-0.00120022
0.000425752
-0.00139297
0.000530757
-0.00157579
0.000640927
-0.00174809
0.000754597
-0.00190943
0.000870227
-0.00205954
0.000986407
-0.00219825
0.00110187
-0.00232553
0.00121551
-0.00244143
0.00132635
-0.00254605
0.00143357
-0.00263955
0.00153653
-0.00272209
0.00163468
-0.00279382
0.00172766
-0.0028548
-0.00290489
0.00181519
1.22878e-05
-0.000129687
4.53576e-05
-0.000379511
9.61667e-05
-0.000621154
0.000162018
-0.000853821
0.000240447
-0.00107669
0.000329171
-0.00128894
0.000426056
-0.00148986
0.000529112
-0.00167885
0.000636492
-0.00185547
0.000746498
-0.00201944
0.00085759
-0.00217063
0.000968393
-0.00230906
0.00107771
-0.00243485
0.0011845
-0.00254822
0.00128791
-0.00264946
0.00138725
-0.00273889
0.001482
-0.00281684
0.00157178
-0.00288361
0.00165637
-0.00293939
-0.00298418
0.00173566
1.25346e-05
-0.000142222
4.60308e-05
-0.000413007
9.71919e-05
-0.000672315
0.000163105
-0.000919734
0.000241123
-0.00115471
0.000328812
-0.00137663
0.000423925
-0.00158497
0.000524389
-0.00177931
0.000628312
-0.00195939
0.000733985
-0.00212511
0.000839892
-0.00227654
0.00094471
-0.00241388
0.00104731
-0.00253745
0.00114677
-0.00264767
0.00124234
-0.00274503
0.00133346
-0.00283001
0.00141974
-0.00290312
0.00150094
-0.00296481
0.00157698
-0.00301543
-0.0030551
0.0016479
1.27211e-05
-0.000154943
4.64685e-05
-0.000446755
9.76971e-05
-0.000723544
0.000163286
-0.000985323
0.000240418
-0.00123184
0.000326525
-0.00146274
0.00041926
-0.0016777
0.000516491
-0.00187654
0.000616303
-0.0020592
0.000716999
-0.00222581
0.000817102
-0.00237664
0.000915362
-0.00251214
0.00101074
-0.00263283
0.00110242
-0.00273936
0.00118978
-0.00283239
0.00127239
-0.00291262
0.00134998
-0.00298071
0.00142245
-0.00303728
0.00148983
-0.00308281
-0.00311757
0.00155229
1.28404e-05
-0.000167784
4.66493e-05
-0.000480564
9.76432e-05
-0.000774537
0.000162506
-0.00105019
0.000238264
-0.0013076
0.000322231
-0.0015467
0.000411985
-0.00176746
0.000505355
-0.00196991
0.000600423
-0.00215427
0.000695525
-0.00232091
0.000789246
-0.00247036
0.000880421
-0.00260331
0.000968119
-0.00272053
0.00105164
-0.00282287
0.00113048
-0.00291123
0.00120433
-0.00298647
0.00127306
-0.00304944
0.00133668
-0.0031009
0.00139534
-0.00314147
-0.00317155
0.00144932
1.2886e-05
-0.00018067
4.65537e-05
-0.000514232
9.69955e-05
-0.000824979
0.000160716
-0.00111391
0.000234603
-0.00138148
0.000315875
-0.00162798
0.000402053
-0.00185364
0.000490951
-0.00205881
0.000580673
-0.00224399
0.000669605
-0.00240984
0.000756413
-0.00255717
0.000840031
-0.00268693
0.000919645
-0.00280014
0.000994672
-0.0028979
0.00106474
-0.0029813
0.00112967
-0.0030514
0.00118943
-0.00310921
0.00124415
-0.00315562
0.00129408
-0.0031914
-0.00321705
0.00133958
1.28523e-05
-0.000193522
4.61649e-05
-0.000547544
9.57257e-05
-0.00087454
0.000157879
-0.00117606
0.000229396
-0.001453
0.000307423
-0.001706
0.000389447
-0.00193566
0.000473292
-0.00214265
0.000557101
-0.0023278
0.000639335
-0.00249207
0.000718755
-0.00263659
0.000794406
-0.00276258
0.000865596
-0.00287133
0.00093187
-0.00296417
0.00099298
-0.00304241
0.00104886
-0.00310728
0.0010996
-0.00315995
0.00114543
-0.00320145
0.00118666
-0.00323263
-0.00325412
0.00122374
1.27373e-05
-0.000206259
4.54747e-05
-0.000580282
9.38195e-05
-0.000922885
0.000153979
-0.00123622
0.000222634
-0.00152166
0.00029688
-0.00178025
0.000374198
-0.00201298
0.000452442
-0.0022209
0.00052982
-0.00240518
0.000604881
-0.00256714
0.000676497
-0.00270821
0.000743834
-0.00282992
0.000806329
-0.00293383
0.000863653
-0.0030215
0.000915681
-0.00309444
0.000962461
-0.00315406
0.00100418
-0.00320167
0.00104115
-0.00323841
0.00107376
-0.00326524
-0.00328287
0.00110251
1.25321e-05
-0.000218791
4.44637e-05
-0.000612213
9.12498e-05
-0.000969671
0.000148989
-0.00129396
0.000214295
-0.00158696
0.000284243
-0.0018502
0.000356332
-0.00208507
0.000428469
-0.00229304
0.000498947
-0.00247566
0.00056642
-0.00263461
0.000629881
-0.00277167
0.000688624
-0.00288866
0.000742218
-0.00298742
0.000790458
-0.00306974
0.000833339
-0.00313732
0.000871014
-0.00319174
0.000903763
-0.00323442
0.000931965
-0.00326662
0.000956079
-0.00328936
-0.00330343
0.000976633
1.22367e-05
-0.000231028
4.31308e-05
-0.000643107
8.80177e-05
-0.00101456
0.000142917
-0.00134886
0.000204408
-0.00164845
0.000269569
-0.00191536
0.000335944
-0.00215144
0.000401518
-0.00235861
0.000464682
-0.00253882
0.000524214
-0.00269414
0.000579233
-0.00282669
0.000629169
-0.0029386
0.000673719
-0.00303197
0.000712804
-0.00310882
0.000746528
-0.00317104
0.000775143
-0.00322035
0.000799008
-0.00325828
0.000818568
-0.00328618
0.000834327
-0.00330512
-0.00331594
0.000846841
1.18493e-05
-0.000242877
4.14737e-05
-0.000672732
8.41255e-05
-0.00105721
0.000135779
-0.00140051
0.000193008
-0.00170568
0.000252926
-0.00197527
0.000313147
-0.00221167
0.000371751
-0.00241721
0.00042725
-0.00259432
0.000478549
-0.00274544
0.000524906
-0.00287304
0.000565886
-0.00297958
0.000601313
-0.0030674
0.000631225
-0.00313874
0.000655833
-0.00319565
0.000675473
-0.00323999
0.00069058
-0.00327339
0.000701648
-0.00329724
0.00070922
-0.00331269
-0.00332059
0.000713867
1.13693e-05
-0.000254246
3.94943e-05
-0.000700857
7.95836e-05
-0.0010973
0.000127602
-0.00144853
0.000180151
-0.00175823
0.000234408
-0.00202953
0.00028808
-0.00226534
0.000339365
-0.0024685
0.000386905
-0.00264186
0.000429747
-0.00278828
0.000467286
-0.00291058
0.000499222
-0.00301151
0.000525502
-0.00309368
0.000546277
-0.00315951
0.00056185
-0.00321122
0.000572639
-0.00325078
0.000579137
-0.00327989
0.000581886
-0.00329999
0.000581454
-0.00331225
-0.00331755
0.00057842
1.07972e-05
-0.000265044
3.71978e-05
-0.000727257
7.44094e-05
-0.00113451
0.000118425
-0.00149255
0.000165907
-0.00180571
0.000214126
-0.00207775
0.000260905
-0.00231212
0.000304577
-0.00251217
0.000343929
-0.00268121
0.00037815
-0.0028225
0.000406779
-0.00293921
0.000429642
-0.00303438
0.000446806
-0.00311084
0.000458523
-0.00317123
0.000465181
-0.00321788
0.000467269
-0.00325287
0.000465331
-0.00327795
0.000459947
-0.00329461
0.000451702
-0.00330401
-0.00330703
0.000441181
1.01346e-05
-0.000275178
3.45932e-05
-0.000751716
6.86273e-05
-0.00116854
0.000108297
-0.00153222
0.000150361
-0.00184778
0.000192209
-0.0021196
0.000231804
-0.00235171
0.000267628
-0.00254799
0.000298622
-0.0027122
0.000324122
-0.002848
0.000343805
-0.00295889
0.000357622
-0.00304819
0.000365749
-0.00311897
0.000368528
-0.00317401
0.000366424
-0.00321578
0.000359984
-0.00324643
0.000349798
-0.00326777
0.000336474
-0.00328129
0.000320613
-0.00328815
-0.00328922
0.000302798
9.38381e-06
-0.000284562
3.16925e-05
-0.000774025
6.22676e-05
-0.00119912
9.72773e-05
-0.00156723
0.000133608
-0.00188411
0.000168798
-0.00215479
0.000200971
-0.00238388
0.00022877
-0.00257579
0.000251295
-0.00273473
0.000268033
-0.00286474
0.000278792
-0.00296965
0.000283642
-0.00305304
0.000282854
-0.00311818
0.000276852
-0.003168
0.000266166
-0.00320509
0.00025139
-0.00323165
0.000233154
-0.00324953
0.000212088
-0.00326022
0.000188807
-0.00326487
-0.0032643
0.000163889
8.54826e-06
-0.00029311
2.85104e-05
-0.000793987
5.53659e-05
-0.00122598
8.54308e-05
-0.00159729
0.000115754
-0.00191443
0.000144047
-0.00218308
0.00016861
-0.00240845
0.000188262
-0.00259544
0.000202265
-0.00274873
0.000210255
-0.00287273
0.000212166
-0.00297156
0.000208174
-0.00304905
0.000198636
-0.00310864
0.000184044
-0.00315341
0.000164979
-0.00318603
0.000142076
-0.00320875
0.000115994
-0.00322345
8.73851e-05
-0.00323161
5.68749e-05
-0.00323436
-0.00323246
2.50404e-05
7.63202e-06
-0.000300742
2.50642e-05
-0.000811419
4.79622e-05
-0.00124887
7.28296e-05
-0.00162216
9.69101e-05
-0.00193851
0.000118112
-0.00220428
0.00013493
-0.00242527
0.000146366
-0.00260688
0.000151849
-0.00275422
0.000151156
-0.00287204
0.000144343
-0.00296475
0.000131679
-0.00303639
0.000113595
-0.00309056
9.06339e-05
-0.00313045
6.34169e-05
-0.00315881
3.26092e-05
-0.00317794
-1.10786e-06
-0.00318973
-3.7063e-05
-0.00319566
-7.46169e-05
-0.0031968
-0.00319389
-0.000113189
6.63987e-06
-0.000307382
2.13733e-05
-0.000826153
4.00997e-05
-0.0012676
5.95499e-05
-0.00164161
7.71924e-05
-0.00195615
9.11549e-05
-0.00221824
0.000100141
-0.00243425
0.000103341
-0.00261008
0.000100353
-0.00275123
9.10908e-05
-0.00286277
7.57221e-05
-0.00294938
5.45984e-05
-0.00301526
2.8207e-05
-0.00306417
-2.87041e-06
-0.00309937
-3.79884e-05
-0.00312369
-7.6464e-05
-0.00313946
-0.0001176
-0.00314859
-0.000160706
-0.00315255
-0.000205126
-0.00315238
-0.00314875
-0.000250265
5.57721e-06
-0.000312959
1.74586e-05
-0.000838034
3.18248e-05
-0.00128197
4.56712e-05
-0.00165545
5.67198e-05
-0.0019672
6.33376e-05
-0.00222486
6.44481e-05
-0.00243536
5.94385e-05
-0.00260507
4.80702e-05
-0.00273986
3.03941e-05
-0.0028451
6.67739e-06
-0.00292567
-2.26578e-05
-0.00298593
-5.70819e-05
-0.00302974
-9.59916e-05
-0.00306046
-0.000138734
-0.00308095
-0.000184622
-0.00309358
-0.000232952
-0.00310026
-0.000283017
-0.00310248
-0.000334134
-0.00310127
-0.00309721
-0.000385678
4.44996e-06
-0.000317409
1.33429e-05
-0.000846927
2.31861e-05
-0.00129181
3.12754e-05
-0.00166354
3.5612e-05
-0.00197154
3.48198e-05
-0.00222407
2.80521e-05
-0.00242859
1.48954e-05
-0.00259191
-4.72427e-06
-0.00272024
-3.06267e-05
-0.0028192
-6.24515e-05
-0.00289384
-9.97179e-05
-0.00294866
-0.000141868
-0.00298759
-0.000188293
-0.00301404
-0.000238353
-0.00303089
-0.000291374
-0.00304056
-0.000346658
-0.00304498
-0.000403487
-0.00304565
-0.000461141
-0.00304361
-0.00303941
-0.000518942
3.26463e-06
-0.000320674
9.05032e-06
-0.000852712
1.42347e-05
-0.00129699
1.64465e-05
-0.00166576
1.39895e-05
-0.00196908
5.75882e-06
-0.00221584
-8.85491e-06
-0.00241398
-3.00642e-05
-0.00257071
-5.77797e-05
-0.00269252
-9.16965e-05
-0.00278528
-0.000131367
-0.00285417
-0.000176261
-0.00290377
-0.000225802
-0.00293805
-0.000279396
-0.00296044
-0.00033643
-0.00297385
-0.000396271
-0.00298071
-0.000458247
-0.002983
-0.000521637
-0.00298226
-0.000585676
-0.00297957
-0.00297548
-0.0006496
2.02828e-06
-0.000322702
4.60672e-06
-0.000855291
5.02367e-06
-0.00129741
1.27066e-06
-0.001662
-8.02635e-06
-0.00195979
-2.36899e-05
-0.00220017
-4.60875e-05
-0.00239158
-7.52304e-05
-0.00254156
-0.000110869
-0.00265689
-0.000152576
-0.00274357
-0.000199821
-0.00280692
-0.000252028
-0.00285156
-0.000308611
-0.00288147
-0.000368997
-0.00290006
-0.000432627
-0.00291022
-0.00049893
-0.00291441
-0.000567294
-0.00291464
-0.000637023
-0.00291253
-0.000707304
-0.00290929
-0.00290555
-0.000777237
7.48636e-07
-0.000323451
3.95851e-08
-0.000854582
-4.39096e-06
-0.00129298
-1.41629e-05
-0.00165223
-3.03121e-05
-0.00194364
-5.33713e-05
-0.00217712
-8.34643e-05
-0.00236149
-0.000120404
-0.00250462
-0.000163783
-0.00261351
-0.000213057
-0.0026943
-0.000267615
-0.00275237
-0.000326831
-0.00279235
-0.000390111
-0.00281819
-0.000456906
-0.00283326
-0.000526719
-0.00284041
-0.000599075
-0.00284206
-0.000673466
-0.00284025
-0.000749275
-0.00283673
-0.000825666
-0.0028329
-0.00282969
-0.000901526
-5.65906e-07
-0.000322885
-4.62161e-06
-0.000850526
-1.39502e-05
-0.00128365
-2.97611e-05
-0.00163642
-5.27404e-05
-0.00192066
-8.31267e-05
-0.00214673
-0.000120803
-0.00232381
-0.000165388
-0.00246004
-0.000216325
-0.00256257
-0.000272957
-0.00263767
-0.00033459
-0.00269073
-0.000400551
-0.00272639
-0.000470222
-0.00274852
-0.000543071
-0.00276041
-0.000618658
-0.00276482
-0.000696617
-0.0027641
-0.0007766
-0.00276027
-0.000858163
-0.00275516
-0.000940535
-0.00275053
-0.00274792
-0.00102231
-1.90618e-06
-0.000320979
-9.34533e-06
-0.000843087
-2.35915e-05
-0.0012694
-4.54264e-05
-0.00161458
-7.51779e-05
-0.00189091
-0.000112791
-0.00210912
-0.000157913
-0.00227869
-0.000209978
-0.00240797
-0.00026829
-0.00250426
-0.000332089
-0.00257387
-0.000400605
-0.00262222
-0.000473109
-0.00265388
-0.000548952
-0.00267268
-0.000627589
-0.00268178
-0.000708608
-0.0026838
-0.000791734
-0.00268097
-0.000876805
-0.0026752
-0.000963677
-0.00266829
-0.00105186
-0.00266235
-0.0026599
-0.00113988
-3.26234e-06
-0.000317717
-1.40981e-05
-0.000832251
-3.32492e-05
-0.00125025
-6.10561e-05
-0.00158678
-9.74846e-05
-0.00185448
-0.000142189
-0.00206441
-0.000194588
-0.00222629
-0.000253948
-0.00234861
-0.000319446
-0.00243876
-0.000390233
-0.00250308
-0.00046548
-0.00254697
-0.000544413
-0.00257495
-0.00062634
-0.00259075
-0.000710684
-0.00259743
-0.000797003
-0.00259749
-0.000885037
-0.00259294
-0.000974753
-0.00258548
-0.00106639
-0.00257666
-0.00116013
-0.0025686
-0.00256408
-0.00125595
-4.624e-06
-0.000313093
-1.8845e-05
-0.00081803
-4.28548e-05
-0.00122624
-7.65439e-05
-0.00155309
-0.000119514
-0.00181151
-0.000171134
-0.00201279
-0.000230607
-0.00216682
-0.00029704
-0.00228218
-0.000369506
-0.00236629
-0.000447092
-0.0024255
-0.000528934
-0.00246513
-0.000614242
-0.00248964
-0.00070232
-0.00250267
-0.000792577
-0.00250718
-0.000884549
-0.00250551
-0.000977934
-0.00249955
-0.0010727
-0.00249071
-0.00116936