1.275 	2.15223e-18 	-2.76991e-20 	-0.0338319 	-0.000444345 	-1.99721e-22
1.825 	2.15223e-18 	-1.39322e-20 	-0.00832629 	-0.00279795 	1.79592e-21
2.375 	2.15223e-18 	-2.66896e-23 	0.118507 	-0.00332841 	-7.49478e-22
