1.45 	0 	0 	-0.300407
2.35 	0 	0 	-0.133566
