/*--------------------------------*- C++ -*----------------------------------*\
  =========                 |
  \\      /  F ield         | OpenFOAM: The Open Source CFD Toolbox
   \\    /   O peration     | Website:  https://openfoam.org
    \\  /    A nd           | Version:  6.0
     \\/     M anipulation  |
\*---------------------------------------------------------------------------*/
FoamFile
{
    version     2.0;
    format      ascii;
    class       volScalarField;
    location    "0.5";
    object      p;
}
// * * * * * * * * * * * * * * * * * * * * * * * * * * * * * * * * * * * * * //

dimensions      [0 2 -2 0 0 0 0];

internalField   nonuniform List<scalar> 
200
(
5.43924e-07
-0.00230672
-0.00419919
-0.00510495
-0.00511677
-0.00429486
-0.00257002
0.000264772
0.00456254
0.0108267
0.0196933
0.0318499
0.0478352
0.0676665
0.0903036
0.113139
0.132026
0.142502
0.142426
0.135674
0.00237275
-0.000140183
-0.00157159
-0.0020366
-0.00182473
-0.000906164
0.000858245
0.00367246
0.00781798
0.0136691
0.0217034
0.0324795
0.0465248
0.0640531
0.0844538
0.105697
0.124166
0.135543
0.136713
0.129378
0.00423057
0.000799563
-0.000652401
-0.000948742
-0.000703338
0.000127309
0.00169495
0.00415794
0.00770195
0.0125798
0.0191715
0.0280375
0.0398943
0.0553948
0.0745912
0.0961505
0.116772
0.131395
0.134496
0.125297
0.00362508
-0.000815634
-0.00240954
-0.00265711
-0.0024624
-0.00176931
-0.000454475
0.00153981
0.00425416
0.00779308
0.0124483
0.0188321
0.027939
0.0409945
0.0589336
0.0814827
0.106058
0.126819
0.134891
0.125797
-0.00126384
-0.00634731
-0.00770711
-0.0076148
-0.00719042
-0.00632962
-0.00496859
-0.00320063
-0.00117014
0.00106093
0.00369515
0.0073966
0.0134204
0.0235415
0.0396353
0.0628087
0.0919359
0.12127
0.138717
0.134626
-0.0125151
-0.0172241
-0.0171558
-0.0157853
-0.014348
-0.0126164
-0.0105942
-0.00853292
-0.00673977
-0.00539553
-0.00433731
-0.0028327
0.000583349
0.00810341
0.0223664
0.0458092
0.0792466
0.118468
0.150066
0.158859
-0.033215
-0.0347218
-0.0304609
-0.0260265
-0.0223388
-0.0188289
-0.0154836
-0.0126173
-0.0105789
-0.00954077
-0.00927096
-0.00890568
-0.00677793
-0.000380695
0.0134596
0.0381477
0.0762628
0.12627
0.176954
0.20938
-0.0704684
-0.0596145
-0.0456361
-0.0356243
-0.0283708
-0.0224557
-0.0175699
-0.0138275
-0.0114005
-0.0102904
-0.0100855
-0.00972462
-0.00731107
-2.39679e-05
0.015821
0.0444942
0.0901506
0.15468
0.233658
0.30829
-0.146771
-0.0895523
-0.0539257
-0.0366845
-0.0264515
-0.0191638
-0.0138819
-0.0102546
-0.00809404
-0.00717526
-0.00692999
-0.00616053
-0.00281771
0.00616712
0.0250248
0.0592914
0.115936
0.203176
0.331813
0.494682
-0.307933
-0.112668
-0.0367018
-0.0176
-0.0101222
-0.00528793
-0.00236414
-0.000835783
-0.000294381
-0.000479065
-0.000882781
-0.000394018
0.00295103
0.0121787
0.0316782
0.0678965
0.131484
0.242215
0.437272
0.752282
)
;

boundaryField
{
    movingWall
    {
        type            zeroGradient;
    }
    fixedWalls
    {
        type            zeroGradient;
    }
    frontAndBack
    {
        type            empty;
    }
}


// ************************************************************************* //
