/*--------------------------------*- C++ -*----------------------------------*\
  =========                 |
  \\      /  F ield         | OpenFOAM: The Open Source CFD Toolbox
   \\    /   O peration     | Website:  https://openfoam.org
    \\  /    A nd           | Version:  6.0
     \\/     M anipulation  |
\*---------------------------------------------------------------------------*/
FoamFile
{
    version     2.0;
    format      ascii;
    class       volVectorField;
    location    "0.5";
    object      U;
}
// * * * * * * * * * * * * * * * * * * * * * * * * * * * * * * * * * * * * * //

dimensions      [0 1 -1 0 0 0 0];

internalField   nonuniform List<vector> 
200
(
(0.000320676 -0.000429171 0)
(-0.00184013 0.00133182 0)
(-0.00830275 0.00251911 0)
(-0.0167013 0.00297422 0)
(-0.0256648 0.00314973 0)
(-0.0348962 0.00332345 0)
(-0.0445293 0.0036122 0)
(-0.0548214 0.00404957 0)
(-0.0659913 0.00461354 0)
(-0.0780657 0.00521438 0)
(-0.0906855 0.00565906 0)
(-0.102867 0.00561823 0)
(-0.112779 0.00463949 0)
(-0.117695 0.0022678 0)
(-0.114387 -0.00167709 0)
(-0.100201 -0.00669116 0)
(-0.0748355 -0.0112128 0)
(-0.0424302 -0.0126559 0)
(-0.013211 -0.00862101 0)
(-0.000541039 -0.000618979 0)
(-0.00200456 0.0020232 0)
(-0.0117558 0.0100735 0)
(-0.0300368 0.0150672 0)
(-0.0518547 0.0171567 0)
(-0.0746352 0.017995 0)
(-0.0977419 0.0186458 0)
(-0.121203 0.0195729 0)
(-0.145218 0.020853 0)
(-0.169832 0.022263 0)
(-0.19461 0.023263 0)
(-0.21833 0.0229448 0)
(-0.238728 0.020046 0)
(-0.252415 0.0131494 0)
(-0.255129 0.00117592 0)
(-0.242512 -0.0157843 0)
(-0.211484 -0.0354018 0)
(-0.162136 -0.0521399 0)
(-0.100199 -0.0572968 0)
(-0.0406586 -0.0425097 0)
(-0.0069757 -0.0108115 0)
(-0.00476896 0.011064 0)
(-0.0225536 0.0303634 0)
(-0.0516888 0.0409388 0)
(-0.0840848 0.0450975 0)
(-0.116315 0.0463974 0)
(-0.147691 0.0470361 0)
(-0.178172 0.0479535 0)
(-0.207856 0.0492182 0)
(-0.236653 0.0502176 0)
(-0.26397 0.0497071 0)
(-0.288475 0.0458499 0)
(-0.30797 0.0363965 0)
(-0.319419 0.0191258 0)
(-0.319163 -0.00736626 0)
(-0.303367 -0.0424837 0)
(-0.268739 -0.0820455 0)
(-0.213669 -0.116462 0)
(-0.140817 -0.129797 0)
(-0.0638599 -0.104007 0)
(-0.0132272 -0.0368025 0)
(-0.00748834 0.0263057 0)
(-0.0326085 0.0605044 0)
(-0.0704497 0.0764028 0)
(-0.109509 0.081146 0)
(-0.145762 0.0811453 0)
(-0.17881 0.0799727 0)
(-0.208823 0.0790866 0)
(-0.236094 0.0785663 0)
(-0.260806 0.0774755 0)
(-0.282814 0.074024 0)
(-0.301514 0.0657167 0)
(-0.31579 0.0496418 0)
(-0.323998 0.0229904 0)
(-0.323916 -0.0161257 0)
(-0.312611 -0.0674384 0)
(-0.286221 -0.126584 0)
(-0.24006 -0.182077 0)
(-0.171056 -0.21175 0)
(-0.0872013 -0.183671 0)
(-0.0209744 -0.076566 0)
(-0.0104227 0.0472735 0)
(-0.0419507 0.0983204 0)
(-0.0851526 0.117308 0)
(-0.125501 0.119504 0)
(-0.15923 0.115265 0)
(-0.186869 0.109719 0)
(-0.209231 0.104854 0)
(-0.227149 0.100819 0)
(-0.241407 0.0965241 0)
(-0.252636 0.0899214 0)
(-0.261298 0.0782195 0)
(-0.267692 0.0581738 0)
(-0.271878 0.026508 0)
(-0.273433 -0.0194807 0)
(-0.270863 -0.0809269 0)
(-0.26049 -0.155412 0)
(-0.235163 -0.23282 0)
(-0.185486 -0.288048 0)
(-0.109511 -0.273712 0)
(-0.0312104 -0.131847 0)
(-0.0143687 0.0743135 0)
(-0.0516562 0.141426 0)
(-0.095347 0.158669 0)
(-0.129555 0.153768 0)
(-0.152875 0.141879 0)
(-0.167812 0.129532 0)
(-0.176221 0.119027 0)
(-0.179606 0.110498 0)
(-0.179302 0.102769 0)
(-0.176559 0.0937426 0)
(-0.17266 0.0806359 0)
(-0.169027 0.0601994 0)
(-0.167198 0.0289497 0)
(-0.168604 -0.0165817 0)
(-0.173908 -0.0793987 0)
(-0.181399 -0.160636 0)
(-0.184168 -0.255276 0)
(-0.168628 -0.341492 0)
(-0.120414 -0.361114 0)
(-0.0413264 -0.204467 0)
(-0.0207375 0.110015 0)
(-0.0632086 0.186442 0)
(-0.0985664 0.192754 0)
(-0.114949 0.175137 0)
(-0.117651 0.15292 0)
(-0.112217 0.132777 0)
(-0.101475 0.116545 0)
(-0.087219 0.103954 0)
(-0.0708321 0.0936298 0)
(-0.0535921 0.0835172 0)
(-0.0369666 0.0710774 0)
(-0.0228276 0.0534129 0)
(-0.0135525 0.0273291 0)
(-0.0119801 -0.0107429 0)
(-0.0210738 -0.064986 0)
(-0.0426454 -0.140155 0)
(-0.0738862 -0.239195 0)
(-0.102428 -0.352039 0)
(-0.102807 -0.423043 0)
(-0.0429741 -0.290434 0)
(-0.0301467 0.161718 0)
(-0.0734817 0.224973 0)
(-0.0788715 0.203281 0)
(-0.0574441 0.168698 0)
(-0.0269252 0.1375 0)
(0.00564484 0.112425 0)
(0.0381879 0.0934867 0)
(0.0698738 0.0795681 0)
(0.100263 0.0689994 0)
(0.128877 0.0598665 0)
(0.154814 0.0501003 0)
(0.176486 0.0374909 0)
(0.191443 0.0196563 0)
(0.196266 -0.00614949 0)
(0.186503 -0.0436434 0)
(0.156937 -0.0988745 0)
(0.103539 -0.181904 0)
(0.029413 -0.301244 0)
(-0.0360613 -0.424282 0)
(-0.0190665 -0.365019 0)
(-0.0236161 0.229006 0)
(-0.0369309 0.229771 0)
(0.035789 0.165437 0)
(0.117114 0.120755 0)
(0.185534 0.090235 0)
(0.242087 0.0683448 0)
(0.289785 0.0529239 0)
(0.330663 0.0423009 0)
(0.366201 0.0348351 0)
(0.397322 0.0290313 0)
(0.42415 0.0235274 0)
(0.445845 0.0170251 0)
(0.460499 0.00822561 0)
(0.464993 -0.00429591 0)
(0.454714 -0.0224964 0)
(0.422908 -0.0501436 0)
(0.359815 -0.0971152 0)
(0.252354 -0.185611 0)
(0.115961 -0.321694 0)
(0.0691354 -0.354322 0)
(0.268754 0.136058 0)
(0.335662 0.120754 0)
(0.462935 0.0795278 0)
(0.565192 0.0524096 0)
(0.6323 0.0354636 0)
(0.678044 0.0242995 0)
(0.711582 0.0169361 0)
(0.737317 0.0121789 0)
(0.75775 0.00910048 0)
(0.774383 0.00698132 0)
(0.787827 0.00526129 0)
(0.797857 0.00348113 0)
(0.803465 0.00123855 0)
(0.802845 -0.00185422 0)
(0.793217 -0.00627872 0)
(0.769957 -0.0129378 0)
(0.724694 -0.0244624 0)
(0.637591 -0.0494744 0)
(0.475389 -0.107669 0)
(0.347258 -0.151288 0)
)
;

boundaryField
{
    movingWall
    {
        type            fixedValue;
        value           uniform (1 0 0);
    }
    fixedWalls
    {
        type            noSlip;
    }
    frontAndBack
    {
        type            empty;
    }
}


// ************************************************************************* //
