1.275 	2.15223e-18 	-2.76991e-20 	-0.0328018 	-0.000498462 	-2.06166e-22
1.825 	2.15223e-18 	-1.39322e-20 	-0.00470829 	-0.00336675 	1.77698e-21
2.375 	2.15223e-18 	-2.66896e-23 	0.154008 	-0.00459472 	-7.17764e-22
