/*--------------------------------*- C++ -*----------------------------------*\
  =========                 |
  \\      /  F ield         | OpenFOAM: The Open Source CFD Toolbox
   \\    /   O peration     | Website:  https://openfoam.org
    \\  /    A nd           | Version:  6.0
     \\/     M anipulation  |
\*---------------------------------------------------------------------------*/
FoamFile
{
    version     2.0;
    format      ascii;
    class       volScalarField;
    location    "0.7";
    object      p;
}
// * * * * * * * * * * * * * * * * * * * * * * * * * * * * * * * * * * * * * //

dimensions      [0 2 -2 0 0 0 0];

internalField   nonuniform List<scalar> 
1600
(
8.58492e-06
-0.00117692
-0.00390633
-0.00758014
-0.0115253
-0.015246
-0.0183842
-0.0206876
-0.0219887
-0.0221877
-0.0212389
-0.0191405
-0.0159258
-0.0116578
-0.00642377
-0.000331444
0.00649421
0.0139138
0.0217758
0.0299195
0.0381765
0.0463744
0.0543386
0.0618962
0.0688796
0.0751303
0.0805034
0.0848733
0.0881382
0.0902266
0.0911038
0.0907783
0.0893105
0.0868215
0.0835047
0.0796392
0.0756053
0.0719116
0.0692267
0.0681105
0.00120349
1.28494e-05
-0.00220453
-0.00505705
-0.00810103
-0.0109712
-0.0133827
-0.0151226
-0.0160406
-0.0160407
-0.0150728
-0.0131254
-0.0102195
-0.00640313
-0.00174748
0.00365677
0.00970243
0.0162685
0.0232225
0.030423
0.037722
0.0449676
0.0520066
0.0586875
0.0648646
0.0704009
0.075173
0.0790754
0.0820249
0.0839666
0.0848785
0.0847775
0.0837256
0.0818358
0.0792788
0.0762886
0.0731672
0.0702904
0.0681072
0.0669964
0.00394826
0.00222179
-2.62264e-05
-0.00258632
-0.00521569
-0.00764465
-0.00964955
-0.0110587
-0.0117464
-0.0116289
-0.0106601
-0.00882698
-0.00614471
-0.00265315
0.00158683
0.00649623
0.0119806
0.0179325
0.0242336
0.0307572
0.0373701
0.0439356
0.0503161
0.0563757
0.0619836
0.0670178
0.071369
0.0749442
0.0776716
0.0795048
0.080427
0.0804562
0.0796487
0.0781033
0.0759643
0.0734226
0.0707183
0.068133
0.0659255
0.0643088
0.00771196
0.00510302
0.00246014
-0.000169632
-0.00272522
-0.00500711
-0.006841
-0.00809512
-0.00867107
-0.00850203
-0.00755131
-0.0058095
-0.00329144
-3.33742e-05
0.00390971
0.00846643
0.0135512
0.0190665
0.0249043
0.0309488
0.0370779
0.0431663
0.0490871
0.0547152
0.0599304
0.0646201
0.0686834
0.0720347
0.0746074
0.076358
0.0772696
0.0773554
0.076662
0.075271
0.0732995
0.0708994
0.0682631
0.0656053
0.0630128
0.0605463
0.0119008
0.00826449
0.00505315
0.00217155
-0.000486673
-0.00277816
-0.00457025
-0.00576827
-0.00630107
-0.0061203
-0.00520096
-0.00354009
-0.00115475
0.00191976
0.00563189
0.00991553
0.0146918
0.0198707
0.0253528
0.0310308
0.0367918
0.0425189
0.0480941
0.0534002
0.0583244
0.0627607
0.0666135
0.069801
0.0722587
0.0739426
0.0748322
0.0749338
0.0742817
0.0729396
0.0709983
0.0685748
0.0658226
0.0629046
0.0597489
0.0562823
0.0160884
0.0113819
0.00750941
0.0042582
0.00137513
-0.00103957
-0.00288677
-0.00410447
-0.00464691
-0.00448404
-0.00360354
-0.00201039
0.000274226
0.00321402
0.00675885
0.0108459
0.015401
0.0203398
0.0255692
0.0309887
0.036492
0.041969
0.0473077
0.0523968
0.0571279
0.061399
0.065117
0.0682009
0.0705854
0.0722233
0.0730886
0.0731783
0.0725138
0.0711411
0.0691274
0.0665597
0.0635618
0.0602583
0.0564396
0.0519225
0.0199655
0.0141938
0.00961369
0.00591692
0.00272431
0.000104486
-0.00186937
-0.00316298
-0.00375329
-0.00362749
-0.00278597
-0.00124246
0.000976487
0.0038321
0.00727402
0.011241
0.0156618
0.0204559
0.0255347
0.0308023
0.0361575
0.0414944
0.0467052
0.0516816
0.0563179
0.060513
0.0641738
0.0672178
0.0695762
0.0711965
0.0720451
0.0721086
0.0713953
0.0699345
0.0677727
0.0649725
0.0616361
0.0578626
0.0533255
0.0477536
0.023299
0.0164863
0.0111808
0.00699495
0.00344022
0.000562558
-0.00158451
-0.0029899
-0.00365042
-0.00356907
-0.00275844
-0.00124127
0.000949837
0.00377253
0.007175
0.0110962
0.0154663
0.0202071
0.0252329
0.0304508
0.0357625
0.0410649
0.0462521
0.0512173
0.0558546
0.0600622
0.0637444
0.0668151
0.0691999
0.0708391
0.07169
0.071728
0.0709482
0.0693647
0.0670058
0.0639147
0.0601794
0.0558828
0.0505984
0.043984
0.0259067
0.0180802
0.0120463
0.00734892
0.0034024
0.000236451
-0.00211014
-0.00364572
-0.00438446
-0.00434361
-0.00354731
-0.00202719
0.000177671
0.00302067
0.00644757
0.0103965
0.0147977
0.0195742
0.0246417
0.0299089
0.0352789
0.0406497
0.0459157
0.0509695
0.0557037
0.0600135
0.0637988
0.0669677
0.0694385
0.0711425
0.0720266
0.0720544
0.0712079
0.0694867
0.0669039
0.0634869
0.0593149
0.0544621
0.0484145
0.0407692
0.0276382
0.0188198
0.0120603
0.00684177
0.00248928
-0.00097907
-0.00353566
-0.00520541
-0.00601777
-0.00600297
-0.00519602
-0.00363723
-0.00137233
0.00154731
0.00506434
0.00911508
0.0136292
0.0185297
0.0237323
0.0291467
0.0346757
0.0402172
0.0456645
0.0509079
0.055837
0.0603421
0.0643172
0.0676625
0.0702874
0.0721127
0.0730734
0.0731208
0.0722232
0.0703668
0.0675509
0.0637904
0.0591597
0.0537297
0.0469061
0.0382322
0.0283604
0.0185635
0.0110823
0.00534035
0.000578376
-0.00319427
-0.0059587
-0.00775435
-0.00862452
-0.00861151
-0.00776061
-0.00612072
-0.00374429
-0.000687812
0.00298773
0.00721623
0.0119259
0.0170389
0.0224706
0.0281298
0.033919
0.0397343
0.0454668
0.0510035
0.0562291
0.0610278
0.0652858
0.0688941
0.0717512
0.0737658
0.0748599
0.0749708
0.0740531
0.0720796
0.0690368
0.064929
0.0598286
0.0538069
0.0461929
0.0364791
0.0279478
0.0171761
0.00897541
0.00271207
-0.00245542
-0.00652482
-0.00948448
-0.0113872
-0.0122892
-0.0122443
-0.011308
-0.00953761
-0.00699248
-0.00373449
0.000171333
0.00465599
0.00964569
0.0150611
0.0208165
0.0268197
0.0329714
0.0391655
0.04529
0.0512273
0.0568561
0.0620532
0.0666956
0.0706631
0.0738418
0.0761266
0.0774245
0.0776579
0.0767663
0.0747086
0.0714588
0.0670113
0.0614384
0.0548139
0.0463907
0.0356109
0.0262749
0.0145226
0.00560167
-0.00117857
-0.00674209
-0.011093
-0.0142263
-0.0162075
-0.0171058
-0.0169864
-0.0159149
-0.0139573
-0.0111801
-0.00765086
-0.00343897
0.00138335
0.00673996
0.0125497
0.0187255
0.0251733
0.0317921
0.0384729
0.0450997
0.0515498
0.057695
0.0634031
0.0685406
0.0729747
0.076577
0.0792268
0.0808144
0.0812448
0.0804412
0.0783471
0.0749234
0.0701544
0.064113
0.0568767
0.0476199
0.035733
0.0232108
0.010463
0.000817948
-0.0064733
-0.0124188
-0.0170291
-0.0203059
-0.022328
-0.0231775
-0.0229316
-0.0216663
-0.019457
-0.0163777
-0.0125019
-0.00790354
-0.00265832
0.00315508
0.0094536
0.0161485
0.0231441
0.0303372
0.0376158
0.0448598
0.0519406
0.0587222
0.0650629
0.070817
0.0758375
0.0799798
0.0831051
0.0850846
0.0858038
0.0851669
0.0831002
0.0795493
0.0744876
0.0679882
0.0601325
0.0500118
0.0369619
0.0186153
0.00484843
-0.00552802
-0.0133232
-0.0196323
-0.0244731
-0.0278547
-0.0298702
-0.0306158
-0.0301814
-0.0286547
-0.0261207
-0.0226616
-0.0183575
-0.0132871
-0.00752955
-0.00116611
0.0057184
0.0130338
0.0206829
0.0285604
0.0365518
0.0445324
0.0523678
0.0599139
0.0670184
0.0735223
0.0792629
0.0840773
0.087806
0.0902983
0.0914171
0.0910446
0.0890863
0.0854702
0.0801562
0.0732165
0.0647358
0.0537154
0.0394327
0.0123349
-0.00248284
-0.0136012
-0.0218917
-0.0285413
-0.0335762
-0.0370145
-0.0389652
-0.0395404
-0.0388444
-0.0369778
-0.0340365
-0.0301117
-0.0252903
-0.0196563
-0.0132924
-0.00628196
0.0012887
0.00932842
0.0177392
0.0264143
0.0352367
0.0440782
0.0527984
0.0612452
0.0692549
0.0766546
0.0832642
0.0889
0.0933795
0.0965265
0.0981775
0.0981882
0.0964397
0.0928379
0.0873257
0.0799722
0.070864
0.0589033
0.0433045
0.00419973
-0.0117093
-0.0235832
-0.0323585
-0.0393196
-0.0445032
-0.0479385
-0.0497533
-0.0500783
-0.0490345
-0.0467371
-0.0432947
-0.0388084
-0.0333727
-0.027077
-0.0200074
-0.0122491
-0.00388925
0.00498104
0.0142638
0.0238518
0.0336269
0.0434578
0.0531991
0.0626906
0.0717577
0.0802125
0.087856
0.0944818
0.0998811
0.103848
0.106189
0.106727
0.105313
0.101826
0.0961865
0.0884572
0.0787236
0.0657784
0.0487667
-0.00597975
-0.0230303
-0.0356763
-0.0449227
-0.0521585
-0.0574339
-0.0607924
-0.0623846
-0.0623631
-0.0608692
-0.0580353
-0.0539846
-0.0488295
-0.042673
-0.03561
-0.0277297
-0.0191188
-0.00986385
-5.4938e-05
0.0102115
0.0208294
0.0316809
0.0426331
0.0535369
0.0642249
0.0745119
0.0841946
0.0930541
0.100859
0.107371
0.112351
0.115567
0.116805
0.11588
0.112634
0.106959
0.0989065
0.0885572
0.0745807
0.0560463
-0.018417
-0.0366707
-0.0501086
-0.0598077
-0.0672711
-0.0725662
-0.0757559
-0.0770183
-0.0765336
-0.0744672
-0.0709727
-0.0661902
-0.0602455
-0.0532505
-0.0453061
-0.0365043
-0.0269318
-0.0166736
-0.00581696
0.00554521
0.0173103
0.0293626
0.0415701
0.0537815
0.0658243
0.0775031
0.0886
0.0988754
0.108071
0.115915
0.12213
0.126441
0.128588
0.128338
0.125491
0.119899
0.111596
0.100651
0.0855954
0.0654146
-0.0333543
-0.0528876
-0.0671405
-0.0772671
-0.0848963
-0.0901188
-0.093023
-0.0938225
-0.0927314
-0.0899452
-0.0856431
-0.0799857
-0.0731138
-0.0651499
-0.0562004
-0.0463594
-0.0357126
-0.0243415
-0.012328
0.000240853
0.0132687
0.0266451
0.0402415
0.0539076
0.0674677
0.0807188
0.0934289
0.105338
0.116159
0.125583
0.13329
0.138954
0.142258
0.142914
0.140662
0.135307
0.126851
0.115346
0.0991634
0.0771973
-0.05107
-0.0719782
-0.0870732
-0.0975916
-0.105304
-0.110334
-0.112804
-0.112973
-0.111098
-0.107413
-0.102128
-0.095428
-0.087472
-0.0783934
-0.0683043
-0.0572999
-0.0454626
-0.0328681
-0.0195904
-0.00570699
0.00869528
0.023515
0.0386312
0.0538978
0.0691398
0.0841493
0.0986826
0.112459
0.125164
0.136449
0.145943
0.153262
0.158022
0.159863
0.158454
0.153532
0.145055
0.133047
0.115693
0.0917854
-0.0718879
-0.094292
-0.11026
-0.121119
-0.128805
-0.133483
-0.135325
-0.13465
-0.13177
-0.126967
-0.120488
-0.112549
-0.103329
-0.0929722
-0.0815972
-0.0692978
-0.0561513
-0.042224
-0.0275783
-0.0122783
0.00360308
0.0199782
0.0367381
0.0537463
0.070833
0.0877897
0.104364
0.12026
0.13513
0.148589
0.160208
0.169535
0.176108
0.179478
0.179221
0.174985
0.166666
0.15424
0.135675
0.10965
-0.0961911
-0.120246
-0.137122
-0.148247
-0.155753
-0.159867
-0.16083
-0.159038
-0.154875
-0.148682
-0.140756
-0.131346
-0.120653
-0.108836
-0.0960158
-0.0822836
-0.0677075
-0.052341
-0.03623
-0.0194205
-0.00196606
0.0160649
0.0345815
0.0534628
0.0725504
0.091641
0.11048
0.128757
0.146099
0.162078
0.176206
0.187955
0.196768
0.202087
0.203371
0.200149
0.192229
0.179511
0.159706
0.131361
-0.124443
-0.15035
-0.16817
-0.179451
-0.186564
-0.189828
-0.189578
-0.186315
-0.180518
-0.172601
-0.16292
-0.151765
-0.139361
-0.12588
-0.111443
-0.0961346
-0.0800098
-0.0631035
-0.04544
-0.0270412
-0.00793518
0.0118356
0.0322051
0.0530756
0.0743078
0.0957116
0.117037
0.137967
0.158107
0.176988
0.194062
0.208714
0.220278
0.228063
0.231377
0.229596
0.222398
0.209572
0.188514
0.157613
-0.157214
-0.185238
-0.204036
-0.215305
-0.221725
-0.223747
-0.221841
-0.21665
-0.208772
-0.198719
-0.186914
-0.173691
-0.159304
-0.143932
-0.127696
-0.110665
-0.0928766
-0.0743402
-0.0550517
-0.0350021
-0.0141867
0.00738522
0.0296811
0.0526348
0.0761355
0.100016
0.124043
0.147899
0.17118
0.19338
0.213891
0.232004
0.246928
0.257814
0.263782
0.264
0.257964
0.245298
0.222998
0.189262
-0.195232
-0.225717
-0.245515
-0.256517
-0.261812
-0.262052
-0.257898
-0.250183
-0.239661
-0.226962
-0.212589
-0.196925
-0.180247
-0.162739
-0.144512
-0.125616
-0.106058
-0.0858173
-0.0648519
-0.0431144
-0.0205593
0.00284605
0.0271112
0.0522119
0.0780769
0.104575
0.1315
0.158552
0.185326
0.211292
0.235786
0.258006
0.27702
0.291791
0.301203
0.304156
0.299886
0.28777
0.264283
0.227376
-0.239439
-0.272842
-0.293628
-0.303964
-0.30751
-0.305215
-0.298017
-0.287004
-0.27313
-0.257163
-0.239696
-0.221162
-0.201854
-0.181951
-0.161541
-0.140645
-0.119231
-0.0972344
-0.0745685
-0.0511378
-0.0268473
-0.00161356
0.0246253
0.0518977
0.0801849
0.109406
0.139399
0.169899
0.20052
0.230724
0.259805
0.286872
0.310845
0.33047
0.34434
0.351004
0.349338
0.338345
0.313799
0.273308
-0.291107
-0.328024
-0.349709
-0.35875
-0.359629
-0.353748
-0.342437
-0.327124
-0.30901
-0.289025
-0.267854
-0.245969
-0.223667
-0.201105
-0.178334
-0.155325
-0.131995
-0.108226
-0.0838733
-0.0587847
-0.0328064
-0.00579471
0.0223747
0.0517947
0.0825132
0.114516
0.147705
0.181875
0.216683
0.25161
0.285934
0.318691
0.348654
0.37433
0.393964
0.40565
0.407763
0.398751
0.373398
0.328813
-0.351991
-0.393195
-0.415529
-0.422267
-0.419118
-0.408174
-0.391317
-0.370414
-0.346966
-0.322076
-0.296509
-0.270757
-0.245092
-0.219622
-0.194337
-0.16914
-0.14388
-0.118367
-0.0923911
-0.0657307
-0.0381649
-0.00948024
0.0205196
0.052004
0.0851015
0.119883
0.15634
0.194352
0.233654
0.273787
0.31405
0.353442
0.390609
0.423812
0.450893
0.469372
0.476937
0.471208
0.445534
0.396224
-0.424617
-0.471075
-0.493472
-0.496269
-0.487062
-0.46898
-0.444663
-0.416535
-0.38643
-0.355614
-0.3249
-0.294752
-0.265377
-0.236795
-0.208899
-0.181501
-0.154357
-0.127193
-0.0997178
-0.0716336
-0.0426427
-0.0124543
0.0192092
0.0526041
0.0879545
0.125436
0.165152
0.207105
0.251151
0.296941
0.343856
0.390919
0.436703
0.479242
0.515941
0.543623
0.559047
0.558619
0.533536
0.478752
-0.512752
-0.565578
-0.586775
-0.582947
-0.564635
-0.536505
-0.502206
-0.464815
-0.426502
-0.388637
-0.352007
-0.316974
-0.283611
-0.251795
-0.221283
-0.191757
-0.162861
-0.134219
-0.105447
-0.0761604
-0.0459794
-0.0145297
0.0185541
0.0536246
0.0910134
0.131019
0.173887
0.219777
0.268718
0.320543
0.374798
0.430628
0.486632
0.540696
0.589802
0.629968
0.656758
0.66481
0.642041
0.580998
-0.622268
-0.682476
-0.69984
-0.684951
-0.652964
-0.610747
-0.563198
-0.514087
-0.465826
-0.419761
-0.376511
-0.336219
-0.298726
-0.263696
-0.230692
-0.199236
-0.168831
-0.138983
-0.109206
-0.0790232
-0.0479686
-0.0155816
0.0185944
0.0550129
0.0941231
0.136363
0.182143
0.231823
0.285665
0.343766
0.405953
0.471637
0.539611
0.607786
0.672834
0.729948
0.773233
0.794851
0.777685
0.709878
-0.762784
-0.830449
-0.838605
-0.805311
-0.75284
-0.691019
-0.626121
-0.562463
-0.502453
-0.447144
-0.396764
-0.351063
-0.309523
-0.271503
-0.236317
-0.203286
-0.17175
-0.141087
-0.1107
-0.0800205
-0.0484966
-0.0155837
0.0192641
0.0566018
0.0969997
0.141045
0.189337
0.242472
0.301006
0.365398
0.435899
0.512388
0.594115
0.679326
0.76469
0.844752
0.912032
0.955418
0.950189
0.876383
-0.950988
-1.02277
-1.01081
-0.947
-0.864073
-0.775349
-0.688216
-0.607032
-0.533658
-0.468406
-0.410778
-0.359893
-0.31472
-0.274218
-0.237395
-0.203335
-0.171207
-0.140248
-0.109757
-0.0790781
-0.0475799
-0.0146422
0.0203617
0.0580812
0.0992037
0.144468
0.194672
0.250678
0.313396
0.383742
0.46256
0.550452
0.647504
0.752806
0.863645
0.974506
1.07662
1.15503
1.1741
1.09914
-1.21738
-1.27976
-1.22557
-1.11157
-0.984077
-0.859369
-0.744748
-0.64342
-0.555731
-0.48056
-0.41623
-0.36095
-0.313019
-0.270906
-0.233272
-0.198953
-0.166939
-0.136343
-0.106367
-0.0762817
-0.0453926
-0.0130197
0.0215286
0.0589802
0.100125
0.14584
0.197122
0.255104
0.321088
0.396535
0.483041
0.582227
0.6955
0.823552
0.965368
1.11672
1.26888
1.40355
1.47122
1.41147
-1.61792
-1.63106
-1.49159
-1.29672
-1.10589
-0.934995
-0.788301
-0.665534
-0.563972
-0.48013
-0.410631
-0.352507
-0.30326
-0.260825
-0.223513
-0.189927
-0.158904
-0.129454
-0.100711
-0.0718955
-0.0422746
-0.0111323
0.0222633
0.0586922
0.0990187
0.144232
0.195493
0.254193
0.322016
0.401011
0.493647
0.602836
0.731848
0.883964
1.06154
1.26422
1.48651
1.71015
1.87254
1.87303
-2.25456
-2.11601
-1.81355
-1.49436
-1.2174
-0.990504
-0.809405
-0.666444
-0.553617
-0.464005
-0.39206
-0.333464
-0.284897
-0.2438
-0.208184
-0.176482
-0.147427
-0.119972
-0.0932231
-0.0663839
-0.0387154
-0.00949631
0.0220131
0.0566097
0.0951914
0.13881
0.188739
0.24656
0.314283
0.394494
0.490557
0.606846
0.748977
0.92393
1.13976
1.40418
1.72086
2.07931
2.418
2.5893
-3.35472
-2.78424
-2.17258
-1.67557
-1.29248
-1.00568
-0.794107
-0.63724
-0.519303
-0.429152
-0.358955
-0.303168
-0.257827
-0.22005
-0.187695
-0.159131
-0.133076
-0.108492
-0.0845059
-0.0603504
-0.035317
-0.00871608
0.0201619
0.0520869
0.0879373
0.12876
0.175849
0.230864
0.295984
0.374154
0.469433
0.587521
0.736494
0.92785
1.17792
1.50824
1.94069
2.49093
3.15908
3.79321
-5.51245
-3.66717
-2.4315
-1.71354
-1.24144
-0.921581
-0.70467
-0.553811
-0.445371
-0.365114
-0.304112
-0.256511
-0.218355
-0.186883
-0.160099
-0.136513
-0.114971
-0.0945473
-0.0744665
-0.0540508
-0.0326755
-0.00973299
0.0154029
0.0434135
0.0750797
0.111339
0.153363
0.202674
0.261315
0.332126
0.419188
0.528561
0.66953
0.856883
1.11519
1.48358
2.01539
2.80602
4.13004
6.08273
-9.19495
-4.52333
-2.30673
-1.42098
-0.959045
-0.683081
-0.512387
-0.40068
-0.322989
-0.266472
-0.223935
-0.190947
-0.164598
-0.142878
-0.124329
-0.107854
-0.0925924
-0.0778464
-0.0630253
-0.0476078
-0.031111
-0.0130635
0.00701958
0.0296641
0.0554688
0.0851467
0.119582
0.159913
0.207662
0.264937
0.334803
0.421924
0.53385
0.68387
0.89761
1.22422
1.75375
2.7338
5.06517
9.85708
)
;

boundaryField
{
    movingWall
    {
        type            zeroGradient;
    }
    fixedWalls
    {
        type            zeroGradient;
    }
    frontAndBack
    {
        type            empty;
    }
}


// ************************************************************************* //
