1.275 	2.15223e-18 	-2.76991e-20 	-0.0344767 	-0.000437853 	-1.90522e-22
1.825 	2.15223e-18 	-1.39322e-20 	-0.009491 	-0.00275323 	1.68111e-21
2.375 	2.15223e-18 	-2.66896e-23 	0.115229 	-0.00323037 	-7.01188e-22
