/*--------------------------------*- C++ -*----------------------------------*\
  =========                 |
  \\      /  F ield         | OpenFOAM: The Open Source CFD Toolbox
   \\    /   O peration     | Website:  https://openfoam.org
    \\  /    A nd           | Version:  6.0
     \\/     M anipulation  |
\*---------------------------------------------------------------------------*/
FoamFile
{
    version     2.0;
    format      ascii;
    class       surfaceScalarField;
    location    "18";
    object      phi;
}
// * * * * * * * * * * * * * * * * * * * * * * * * * * * * * * * * * * * * * //

dimensions      [0 3 -1 0 0 0 0];

internalField   nonuniform List<scalar> 
15760
(
-2.25022e-06
2.25053e-06
-3.12839e-10
-7.78021e-06
5.53069e-06
-7.00282e-10
-1.56384e-05
7.85907e-06
-8.99026e-10
-2.50553e-05
9.41784e-06
-9.4921e-10
-3.54092e-05
1.03548e-05
-8.78768e-10
-4.6201e-05
1.07926e-05
-7.09399e-10
-5.7034e-05
1.08334e-05
-4.58588e-10
-6.75971e-05
1.05632e-05
-1.40761e-10
-7.76523e-05
1.0055e-05
2.32676e-10
-8.70247e-05
9.37173e-06
6.52204e-10
-9.55943e-05
8.56856e-06
1.10964e-09
-0.00010329
7.6941e-06
1.59854e-09
-0.000110084
6.7915e-06
2.11366e-09
-0.000115985
5.89906e-06
2.64976e-09
-0.000121039
5.05057e-06
3.20233e-09
-0.000125318
4.27541e-06
3.76818e-09
-0.000128921
3.59843e-06
4.34359e-09
-0.000131966
3.04e-06
4.92577e-09
-0.000134589
2.61708e-06
5.51113e-09
2.34408e-06
6.10184e-09
-0.000136939
-2.23189e-06
4.48242e-06
-7.70619e-06
1.1005e-05
-1.54719e-05
1.56247e-05
-2.47608e-05
1.87067e-05
-3.49525e-05
2.05465e-05
-4.55492e-05
2.13892e-05
-5.61544e-05
2.14387e-05
-6.6457e-05
2.08657e-05
-7.62179e-05
1.98159e-05
-8.52606e-05
1.84145e-05
-9.34632e-05
1.67711e-05
-0.000100752
1.49829e-05
-0.000107096
1.31358e-05
-0.000112504
1.13068e-05
-0.000117017
9.56386e-06
-0.000120708
7.96624e-06
-0.000123674
6.56444e-06
-0.000126034
5.40003e-06
-0.000127925
4.50786e-06
3.91744e-06
-0.000129498
-2.19498e-06
6.6774e-06
-7.55712e-06
1.63671e-05
-1.51367e-05
2.32043e-05
-2.41685e-05
2.77385e-05
-3.40351e-05
3.04131e-05
-4.42409e-05
3.15951e-05
-5.43908e-05
3.15886e-05
-6.41734e-05
3.06483e-05
-7.33479e-05
2.89904e-05
-8.17348e-05
2.68014e-05
-8.9208e-05
2.42443e-05
-9.56889e-05
2.14637e-05
-0.000101142
1.85888e-05
-0.00010557
1.57349e-05
-0.000109011
1.30052e-05
-0.000111535
1.049e-05
-0.000113238
8.26709e-06
-0.000114238
6.40085e-06
-0.000114677
4.94594e-06
3.94852e-06
-0.000114708
-2.13892e-06
8.81633e-06
-7.33076e-06
2.1559e-05
-1.46283e-05
3.05019e-05
-2.32712e-05
3.63814e-05
-3.26473e-05
3.97892e-05
-4.22652e-05
4.1213e-05
-5.17323e-05
4.10556e-05
-6.07373e-05
3.96533e-05
-6.90374e-05
3.72906e-05
-7.64488e-05
3.42128e-05
-8.28393e-05
3.06347e-05
-8.81229e-05
2.67474e-05
-9.22563e-05
2.27222e-05
-9.52351e-05
1.87137e-05
-9.70908e-05
1.48609e-05
-9.78882e-05
1.12874e-05
-9.77212e-05
8.10009e-06
-9.67096e-05
5.38924e-06
-9.49959e-05
3.2323e-06
1.69458e-06
-9.2742e-05
-2.06271e-06
1.0879e-05
-7.02331e-06
2.65195e-05
-1.39389e-05
3.74175e-05
-2.20567e-05
4.44992e-05
-3.07729e-05
4.85054e-05
-3.96029e-05
5.0043e-05
-4.81586e-05
4.96113e-05
-5.613e-05
4.76247e-05
-6.32725e-05
4.44331e-05
-6.93972e-05
4.03375e-05
-7.43641e-05
3.56016e-05
-7.80776e-05
3.04609e-05
-8.04836e-05
2.51281e-05
-8.1567e-05
1.97971e-05
-8.135e-05
1.4644e-05
-7.98901e-05
9.82752e-06
-7.72775e-05
5.48747e-06
-7.36319e-05
1.74362e-06
-6.91002e-05
-1.29938e-06
-3.5531e-06
-6.38525e-05
-1.96475e-06
1.28438e-05
-6.62887e-06
3.11837e-05
-1.30564e-05
4.3845e-05
-2.05061e-05
5.19489e-05
-2.83862e-05
5.63855e-05
-3.62228e-05
5.78796e-05
-4.36351e-05
5.70236e-05
-5.0317e-05
5.43065e-05
-5.60228e-05
5.0139e-05
-6.05587e-05
4.48733e-05
-6.37756e-05
3.88185e-05
-6.5566e-05
3.22513e-05
-6.58621e-05
2.54242e-05
-6.46343e-05
1.85693e-05
-6.18919e-05
1.19015e-05
-5.76817e-05
5.6174e-06
-5.20878e-05
-1.06498e-07
-4.52286e-05
-5.11557e-06
-3.72561e-05
-9.27182e-06
-1.2458e-05
-2.83513e-05
-1.84269e-06
1.46865e-05
-6.13895e-06
3.54799e-05
-1.19636e-05
4.96697e-05
-1.8592e-05
5.85773e-05
-2.54495e-05
6.3243e-05
-3.20777e-05
6.45078e-05
-3.81079e-05
6.30538e-05
-4.32407e-05
5.94393e-05
-4.72323e-05
5.41306e-05
-4.98846e-05
4.75257e-05
-5.10395e-05
3.99734e-05
-5.05756e-05
3.17875e-05
-4.8408e-05
2.32566e-05
-4.4489e-05
1.46503e-05
-3.88099e-05
6.22242e-06
-3.14028e-05
-1.78965e-06
-2.23417e-05
-9.16769e-06
-1.17418e-05
-1.57155e-05
2.39822e-07
-2.12534e-05
-2.5627e-05
1.34088e-05
-1.69323e-06
1.63797e-05
-5.54202e-06
3.93287e-05
-1.06372e-05
5.47649e-05
-1.62769e-05
6.42169e-05
-2.19103e-05
6.88763e-05
-2.71008e-05
6.96983e-05
-3.14972e-05
6.74502e-05
-3.48124e-05
6.27546e-05
-3.68083e-05
5.61265e-05
-3.72854e-05
4.80028e-05
-3.60774e-05
3.87653e-05
-3.30483e-05
2.87583e-05
-2.80934e-05
1.83017e-05
-2.11422e-05
7.69912e-06
-1.21626e-05
-2.75711e-06
-1.16604e-06
-1.27862e-05
1.17891e-05
-2.21228e-05
2.65942e-05
-3.05206e-05
4.30881e-05
-3.77473e-05
-4.35993e-05
6.10604e-05
-1.51209e-06
1.78918e-05
-4.82322e-06
4.26398e-05
-9.04723e-06
5.89889e-05
-1.35125e-05
6.86822e-05
-1.76997e-05
7.30636e-05
-2.12018e-05
7.32003e-05
-2.36925e-05
6.9941e-05
-2.49042e-05
6.39662e-05
-2.46105e-05
5.58328e-05
-2.26156e-05
4.6008e-05
-1.8748e-05
3.48977e-05
-1.2858e-05
2.28683e-05
-4.8195e-06
1.02632e-05
5.46519e-06
-2.58557e-06
1.80579e-05
-1.53499e-05
3.29761e-05
-2.77044e-05
5.01841e-05
-3.93308e-05
6.95862e-05
-4.99227e-05
9.10196e-05
-5.91807e-05
-6.6835e-05
0.000114255
-1.29395e-06
1.91857e-05
-3.96449e-06
4.53104e-05
-7.15711e-06
6.21815e-05
-1.02393e-05
7.17644e-05
-1.27319e-05
7.55562e-05
-1.42659e-05
7.47344e-05
-1.45494e-05
7.02245e-05
-1.33429e-05
6.27597e-05
-1.04408e-05
5.29306e-05
-5.65891e-06
4.12261e-05
1.17319e-06
2.80656e-05
1.02151e-05
1.38264e-05
2.1614e-05
-1.13573e-06
3.5498e-05
-1.64695e-05
5.19656e-05
-3.18175e-05
7.10726e-05
-4.68114e-05
9.28172e-05
-6.10753e-05
0.000117126
-7.42312e-05
0.000143839
-8.58943e-05
-9.57043e-05
0.000172709
-1.03269e-06
2.02184e-05
-2.94524e-06
4.72229e-05
-4.92521e-06
6.41615e-05
-6.38863e-06
7.32278e-05
-6.90569e-06
7.60732e-05
-6.15504e-06
7.39837e-05
-3.88908e-06
6.79586e-05
9.26167e-08
5.8778e-05
5.96329e-06
4.706e-05
1.38839e-05
3.33055e-05
2.4013e-05
1.79365e-05
3.6512e-05
1.32736e-06
5.15445e-05
-1.61682e-05
6.92694e-05
-3.41945e-05
8.98285e-05
-5.23766e-05
0.000113327
-7.03099e-05
0.000139811
-8.75597e-05
0.000169245
-0.000103665
0.000201482
-0.000118132
-0.000130476
0.000236254
-7.21731e-07
2.09402e-05
-1.74366e-06
4.82449e-05
-2.30723e-06
6.47251e-05
-1.88668e-06
7.28072e-05
-1.1031e-07
7.42969e-05
3.28638e-06
7.0587e-05
8.4963e-06
6.27486e-05
1.56684e-05
5.16059e-05
2.49296e-05
3.77988e-05
3.64019e-05
2.18332e-05
5.02161e-05
4.12228e-06
6.65205e-05
-1.4977e-05
8.54837e-05
-3.51313e-05
0.00010729
-5.60012e-05
0.000132128
-7.72142e-05
0.000160163
-9.83451e-05
0.00019151
-0.000118906
0.00022619
-0.000138345
0.000264089
-0.000156031
-0.000171308
0.000304921
-3.54696e-07
2.12949e-05
-3.38818e-07
4.8229e-05
7.39546e-07
6.36467e-05
3.3391e-06
7.02077e-05
7.76594e-06
6.987e-05
1.42201e-05
6.41329e-05
2.28304e-05
5.41383e-05
3.36824e-05
4.07539e-05
4.68409e-05
2.46403e-05
6.237e-05
6.30399e-06
8.03507e-05
-1.38584e-05
0.000100895
-3.55209e-05
0.000124154
-5.83909e-05
0.000150324
-8.21711e-05
0.000179632
-0.000106522
0.000212314
-0.000131027
0.000248573
-0.000155165
0.000288522
-0.000178294
0.00033211
-0.000199619
-0.000218239
0.000379041
7.37715e-08
2.12211e-05
1.28649e-06
4.70163e-05
4.25055e-06
6.06826e-05
9.35038e-06
6.51078e-05
1.68217e-05
6.23987e-05
2.67954e-05
5.41591e-05
3.93303e-05
4.16035e-05
5.44385e-05
2.56457e-05
7.21087e-05
6.97011e-06
9.23264e-05
-1.39137e-05
0.000115095
-3.66273e-05
0.000140458
-6.08839e-05
0.000168516
-8.64487e-05
0.000199441
-0.000113096
0.000233478
-0.000140559
0.00027093
-0.000168478
0.000312108
-0.000196344
0.000357263
-0.000223449
0.000406453
-0.000248809
-0.000271192
0.000459406
5.66973e-07
2.06541e-05
3.14238e-06
4.44408e-05
8.24697e-06
5.55781e-05
1.61862e-05
5.71686e-05
2.71246e-05
5.14604e-05
4.11239e-05
4.01597e-05
5.81722e-05
2.45552e-05
7.8205e-05
5.61293e-06
0.000101125
-1.59498e-05
0.000126822
-3.96104e-05
0.000155194
-6.49997e-05
0.000186176
-9.18662e-05
0.000219767
-0.00012004
0.000256061
-0.00014939
0.000295269
-0.000179767
0.000337726
-0.000210935
0.00038386
-0.000242478
0.000434107
-0.000273696
0.000488725
-0.000303427
-0.000329987
0.00054752
1.12511e-06
1.9529e-05
5.22839e-06
4.03376e-05
1.27284e-05
4.80781e-05
2.38501e-05
4.60468e-05
3.869e-05
3.66205e-05
5.72475e-05
2.16022e-05
7.9447e-05
2.35579e-06
0.000105153
-2.0093e-05
0.000134184
-4.49809e-05
0.000166328
-7.1754e-05
0.000201359
-0.000100031
0.000239065
-0.000129573
0.000279285
-0.00016026
0.000321953
-0.000192058
0.000367153
-0.000224967
0.000415166
-0.000258948
0.000466489
-0.000293801
0.000521786
-0.000328993
0.000581646
-0.000363286
-0.000394366
0.000646025
1.74437e-06
1.77846e-05
7.53047e-06
3.45515e-05
1.76661e-05
3.79425e-05
3.22973e-05
3.14156e-05
5.14603e-05
1.74575e-05
7.51045e-05
-2.04207e-06
0.000103107
-2.56466e-05
0.00013528
-5.2266e-05
0.000171377
-8.1078e-05
0.000211098
-0.000111475
0.000254098
-0.00014303
0.000300004
-0.000175479
0.000348449
-0.000208705
0.000399118
-0.000242727
0.000451833
-0.000277682
0.000506648
-0.000313763
0.000563967
-0.00035112
0.000624614
-0.000389639
0.000689653
-0.000428326
-0.000464109
0.000759395
2.4165e-06
1.53681e-05
1.00194e-05
2.69486e-05
2.29994e-05
2.49624e-05
4.14271e-05
1.2988e-05
6.52884e-05
-6.4038e-06
9.44999e-05
-3.12535e-05
0.000128915
-6.00617e-05
0.000168326
-9.16767e-05
0.000212459
-0.000125211
0.000260973
-0.000159988
0.000313448
-0.000195506
0.000369391
-0.000231422
0.000428236
-0.00026755
0.000489381
-0.000303872
0.00055225
-0.000340551
0.000616425
-0.000377938
0.000681849
-0.000416545
0.000749128
-0.000456918
0.000819717
-0.000498914
-0.000540117
0.000895725
3.12893e-06
1.22392e-05
1.26511e-05
1.74265e-05
2.86359e-05
8.97755e-06
5.10811e-05
-9.45721e-06
7.99323e-05
-3.5255e-05
0.00011509
-6.64111e-05
0.00015641
-0.000101382
0.000203704
-0.00013897
0.000256726
-0.000178234
0.000315168
-0.00021843
0.000378638
-0.000258976
0.000446639
-0.000299423
0.000518545
-0.000339456
0.000593577
-0.000378904
0.000670799
-0.000417774
0.000749178
-0.000456316
0.000827757
-0.000495124
0.000906106
-0.000535268
0.000985371
-0.000578179
-0.000627452
0.00107271
3.86579e-06
8.37341e-06
1.53701e-05
5.92222e-06
3.44571e-05
-1.01095e-05
6.10523e-05
-3.60524e-05
9.50657e-05
-6.92684e-05
0.000136392
-0.000107737
0.00018491
-0.0001499
0.00024048
-0.00019454
0.000302941
-0.000240695
0.000372105
-0.000287594
0.000447743
-0.000334614
0.000529573
-0.000381253
0.000617231
-0.000427114
0.000710232
-0.000471905
0.000807916
-0.000515458
0.000909403
-0.000557803
0.00101355
-0.000599272
0.00111882
-0.000640537
0.00122399
-0.000683353
-0.000730129
0.00132667
4.60967e-06
3.76374e-06
1.81151e-05
-7.58323e-06
4.03312e-05
-3.23256e-05
7.11064e-05
-6.68277e-05
0.000110311
-0.000108473
0.00015783
-0.000155257
0.000213565
-0.000205635
0.000277435
-0.00025841
0.000349378
-0.000312639
0.000429367
-0.000367582
0.000517419
-0.000422666
0.000613633
-0.000477466
0.00071823
-0.000531712
0.000831654
-0.000585328
0.00095472
-0.000638524
0.0010889
-0.000691985
0.00123683
-0.000747203
0.00140346
-0.000807166
0.00159865
-0.000878542
-0.000978138
0.00184666
5.34389e-06
-1.58015e-06
2.08264e-05
-2.30658e-05
4.61277e-05
-5.76269e-05
8.10085e-05
-0.000101708
0.000125284
-0.000152748
0.000178812
-0.000208784
0.00024149
-0.000268314
0.000313261
-0.00033018
0.000394114
-0.000393492
0.00048411
-0.000457578
0.000583398
-0.000521955
0.000692258
-0.000586326
0.000811147
-0.000650601
0.000940773
-0.000714954
0.00108218
-0.000779926
0.00123678
-0.000846594
0.0014064
-0.000916819
0.00159293
-0.000993692
0.00179676
-0.00108237
-0.00119058
0.0020092
6.05459e-06
-7.63474e-06
2.34535e-05
-4.04646e-05
5.1735e-05
-8.59084e-05
9.05569e-05
-0.00014053
0.000139656
-0.000201847
0.000198832
-0.00026796
0.000267937
-0.000337419
0.000346875
-0.000409119
0.000435609
-0.000482226
0.000534164
-0.000556133
0.000642645
-0.000630436
0.000761249
-0.00070493
0.000890274
-0.000779625
0.00103011
-0.000854792
0.0011812
-0.000931018
0.00134391
-0.0010093
0.00151823
-0.00109114
0.0017032
-0.00117866
0.00189557
-0.00127474
-0.00138231
0.00208729
6.73238e-06
-1.43671e-05
2.59598e-05
-5.96921e-05
5.70714e-05
-0.00011702
9.96034e-05
-0.000183062
0.000153189
-0.000255433
0.000217533
-0.000332304
0.000292396
-0.000412282
0.000377587
-0.000494309
0.000472957
-0.000577596
0.0005784
-0.000661576
0.000693844
-0.00074588
0.000819243
-0.000830328
0.000954549
-0.000914931
0.00109966
-0.000999902
0.00125432
-0.00108568
0.00141797
-0.00117295
0.00158945
-0.00126262
0.00176664
-0.00135586
0.00194591
-0.00145401
-0.00155812
0.00212172
7.37264e-06
-2.17398e-05
2.83251e-05
-8.06445e-05
6.20884e-05
-0.000150783
0.00010806
-0.000229034
0.000165743
-0.000313116
0.000234717
-0.000401278
0.000314611
-0.000492176
0.00040509
-0.000584789
0.000505843
-0.000678349
0.000616568
-0.000772302
0.000736958
-0.00086627
0.00086667
-0.000960041
0.00100529
-0.00105355
0.00115228
-0.00114689
0.00130686
-0.00124026
0.00146792
-0.00133401
0.00163384
-0.00142854
0.00180232
-0.00152434
0.00197021
-0.0016219
-0.00172147
0.00213357
7.97496e-06
-2.97147e-05
3.05428e-05
-0.000103212
6.67677e-05
-0.000187008
0.000115891
-0.000278157
0.000177267
-0.000374492
0.000250321
-0.000474332
0.000334525
-0.00057638
0.000429371
-0.000679635
0.000534358
-0.000783336
0.000648967
-0.000886911
0.000772645
-0.000989948
0.000904776
-0.00109217
0.00104464
-0.00119342
0.00119137
-0.00129362
0.00134389
-0.00139278
0.00150084
-0.00149095
0.0016605
-0.0015882
0.00182074
-0.00168458
0.00197898
-0.00178014
-0.00187474
0.00213224
8.54179e-06
-3.82565e-05
3.26167e-05
-0.000127287
7.11121e-05
-0.000225504
0.0001231
-0.000330145
0.000187768
-0.000439159
0.000264372
-0.000550937
0.000352209
-0.000664216
0.000450585
-0.000778011
0.000558801
-0.000891551
0.000676128
-0.00100424
0.000801791
-0.00111561
0.000934944
-0.00122532
0.00107464
-0.00133312
0.00121981
-0.00143879
0.00136922
-0.00154219
0.00152144
-0.00164317
0.00167482
-0.00174158
0.00182748
-0.00183723
0.00197729
-0.00192995
-0.00201938
0.00212194
9.07689e-06
-4.73334e-05
3.45553e-05
-0.000152766
7.51356e-05
-0.000266084
0.000129709
-0.000384718
0.000197283
-0.000506734
0.000276937
-0.00063059
0.000367781
-0.000755061
0.000468938
-0.000879168
0.000579516
-0.00100213
0.000698594
-0.00112332
0.000825207
-0.00124222
0.000958332
-0.00135845
0.00109687
-0.00147165
0.00123962
-0.00158155
0.00138531
-0.00168788
0.00153252
-0.00179038
0.00167972
-0.00188878
0.00182527
-0.00198279
0.00196743
-0.00207211
-0.00215626
0.0021043
9.58383e-06
-5.69172e-05
3.63674e-05
-0.000179549
7.88531e-05
-0.00030857
0.000135741
-0.000441606
0.000205853
-0.000576846
0.000288082
-0.000712819
0.000381357
-0.000848336
0.000484616
-0.000982427
0.00059679
-0.0011143
0.000716791
-0.00124332
0.000843498
-0.00136893
0.000975753
-0.0014907
0.00111236
-0.00160826
0.00125206
-0.00172125
0.00139356
-0.00182938
0.00153553
-0.00193234
0.00167656
-0.00202982
0.00181525
-0.00212148
0.00195013
-0.00220698
-0.00228581
0.00207967
1.00649e-05
-6.69821e-05
3.80585e-05
-0.000207543
8.22738e-05
-0.000352785
0.000141212
-0.000500544
0.000213502
-0.000649136
0.000297851
-0.000797168
0.000393007
-0.000943492
0.000497736
-0.00108716
0.000610808
-0.00122738
0.000730988
-0.0013635
0.000857032
-0.00149498
0.000987685
-0.00162136
0.00112169
-0.00174226
0.00125777
-0.00185733
0.00139466
-0.00196628
0.00153111
-0.00206879
0.00166586
-0.00216457
0.0017977
-0.00225332
0.00192541
-0.00233468
-0.00240815
0.00204775
1.05206e-05
-7.75027e-05
3.96285e-05
-0.000236651
8.53958e-05
-0.000398552
0.000146118
-0.000561266
0.000220228
-0.000723247
0.000306248
-0.000883188
0.000402751
-0.00103999
0.000508341
-0.00119275
0.000621644
-0.00134068
0.0007413
-0.00148315
0.00086597
-0.00161964
0.000994332
-0.00174972
0.00112509
-0.00187302
0.001257
-0.00198923
0.00138882
-0.0020981
0.00151941
-0.00219938
0.00164765
-0.00229281
0.0017725
-0.00237816
0.00189295
-0.00245513
-0.00252325
0.00200804
1.0949e-05
-8.84518e-05
4.10707e-05
-0.000266772
8.82054e-05
-0.000445687
0.000150436
-0.000623497
0.000226001
-0.000798811
0.000313237
-0.000970425
0.000410551
-0.00113731
0.000516397
-0.00129859
0.000629273
-0.00145355
0.000747718
-0.0016016
0.000870319
-0.00174225
0.000995713
-0.00187511
0.0011226
-0.00199991
0.00124976
-0.00211639
0.00137602
-0.00222437
0.00150035
-0.0023237
0.00162175
-0.00241422
0.00173935
-0.00249577
0.00185235
-0.00256813
-0.00263091
0.00196001
1.13466e-05
-9.97984e-05
4.23725e-05
-0.000297798
9.06772e-05
-0.000493991
0.000154128
-0.000686948
0.000230765
-0.000875449
0.000318749
-0.00105841
0.000416325
-0.00123488
0.000521814
-0.00140408
0.000633603
-0.00156534
0.000750148
-0.00171814
0.000869986
-0.00186208
0.000991735
-0.00199686
0.00111411
-0.00212228
0.00123593
-0.00223821
0.00135613
-0.00234457
0.00147374
-0.00244131
0.00158794
-0.00252841
0.00169799
-0.00260582
0.00180328
-0.00267342
-0.00273091
0.00190328
1.1708e-05
-0.000111506
4.35163e-05
-0.000329607
9.27765e-05
-0.000543252
0.000157138
-0.000751309
0.000234446
-0.000952756
0.000322687
-0.00114665
0.000419962
-0.00133216
0.000524468
-0.00150859
0.000634499
-0.00167537
0.000748452
-0.0018321
0.000864831
-0.00197846
0.000982259
-0.00211429
0.00109948
-0.00223951
0.00121539
-0.00235411
0.00132899
-0.00245817
0.00143944
-0.00255177
0.00154604
-0.00263502
0.00164822
-0.002708
0.00174552
-0.00277072
-0.002823
0.00183761
1.20266e-05
-0.000123533
4.44808e-05
-0.000362061
9.44622e-05
-0.000593233
0.000159402
-0.000816249
0.000236955
-0.00103031
0.000324945
-0.00123464
0.000421335
-0.00142855
0.000524218
-0.00161147
0.000631816
-0.00178297
0.000742481
-0.00194276
0.000854711
-0.00209069
0.000967149
-0.00222673
0.0010786
-0.00235095
0.00118801
-0.00246352
0.0012945
-0.00256466
0.00139735
-0.00265462
0.00149599
-0.00273365
0.00158999
-0.00280199
0.00167904
-0.00285977
-0.00290694
0.00176298
1.22952e-05
-0.000135828
4.52428e-05
-0.000395008
9.56897e-05
-0.00064368
0.000160852
-0.000881411
0.000238202
-0.00110766
0.000325409
-0.00132185
0.000420316
-0.00152346
0.000520929
-0.00171208
0.000625414
-0.00188746
0.000732104
-0.00204945
0.000839507
-0.00219809
0.000946307
-0.00233353
0.00105137
-0.00245602
0.00115375
-0.0025659
0.00125266
-0.00266358
0.00134751
-0.00274947
0.00143785
-0.00282399
0.00152338
-0.00288753
0.00160396
-0.00294035
-0.00298254
0.00167956
1.25064e-05
-0.000148335
4.57784e-05
-0.00042828
9.64141e-05
-0.000694316
0.000161421
-0.000946418
0.000238098
-0.00118434
0.000323975
-0.00140772
0.000416791
-0.00161627
0.000514483
-0.00180977
0.000615183
-0.00198816
0.000717224
-0.00215149
0.000819147
-0.00230002
0.000919695
-0.00243408
0.00101782
-0.00255414
0.00111266
-0.00266075
0.00120357
-0.00275448
0.00129005
-0.00283595
0.0013718
-0.00290574
0.00144865
-0.00296438
0.00152058
-0.00301228
-0.00304965
0.00158769
1.2653e-05
-0.000160988
4.60647e-05
-0.000461692
9.65929e-05
-0.000744844
0.000161047
-0.00101087
0.000236564
-0.00125985
0.000320552
-0.00149171
0.000410665
-0.00170639
0.000504791
-0.0019039
0.00060105
-0.00208441
0.000697797
-0.00224824
0.000793623
-0.00239584
0.000887346
-0.0025278
0.000978013
-0.00264481
0.00106488
-0.00274761
0.00114741
-0.00283701
0.00122523
-0.00291378
0.00129817
-0.00297868
0.00136617
-0.00303238
0.00142933
-0.00307544
-0.00310819
0.00148786
1.27279e-05
-0.000173715
4.60805e-05
-0.000495045
9.61877e-05
-0.000794951
0.000159675
-0.00107436
0.000233534
-0.00133371
0.000315071
-0.00157325
0.000401873
-0.00179319
0.000491803
-0.00199383
0.000582991
-0.0021756
0.000673835
-0.00233909
0.000762991
-0.002485
0.000849373
-0.00261418
0.000932131
-0.00272756
0.00101064
-0.00282612
0.00108448
-0.00291085
0.00115342
-0.00298272
0.00121738
-0.00304263
0.00127642
-0.00309142
0.00133075
-0.00312977
-0.00315812
0.00138068
1.2725e-05
-0.00018644
4.58073e-05
-0.000528127
9.51663e-05
-0.00084431
0.000157261
-0.00113645
0.000228959
-0.00140541
0.000307484
-0.00165177
0.000390382
-0.00187609
0.000475511
-0.00207896
0.000561033
-0.00226113
0.000645408
-0.00242346
0.000727379
-0.00256697
0.000805961
-0.00269277
0.000880424
-0.00280203
0.000950264
-0.00289596
0.00101518
-0.00297577
0.00107506
-0.0030426
0.00112994
-0.00309751
0.00117999
-0.00314147
0.00122549
-0.00317527
-0.00319946
0.00126683
1.26417e-05
-0.000199082
4.52348e-05
-0.00056072
9.35103e-05
-0.000892586
0.000153783
-0.00119673
0.000222819
-0.00147445
0.000297784
-0.00172674
0.000376205
-0.00195451
0.000455961
-0.00215872
0.000535267
-0.00234043
0.000612661
-0.00250085
0.00068699
-0.0026413
0.000757384
-0.00276316
0.000823233
-0.00286788
0.000884159
-0.00295689
0.000939987
-0.0030316
0.000990713
-0.00309332
0.00103648
-0.00314328
0.00107754
-0.00318253
0.00111425
-0.00321198
-0.00323229
0.00114708
1.2469e-05
-0.000211551
4.43423e-05
-0.000592593
9.11895e-05
-0.000939433
0.000149207
-0.00125474
0.000215085
-0.00154033
0.000285957
-0.00179761
0.000359357
-0.00202791
0.000433206
-0.00223257
0.000505795
-0.00241302
0.000575757
-0.00257082
0.000642052
-0.00270759
0.000703935
-0.00282504
0.000760922
-0.00292486
0.000812762
-0.00300873
0.000859396
-0.00307823
0.000900928
-0.00313485
0.000937592
-0.00317994
0.000969727
-0.00321467
0.000997756
-0.00324001
-0.00325671
0.00102218
1.2206e-05
-0.000223757
4.31266e-05
-0.000623514
8.82012e-05
-0.000984507
0.000143537
-0.00131008
0.000205778
-0.00160257
0.000272049
-0.00186388
0.00033992
-0.00209578
0.000407378
-0.00230002
0.000472804
-0.00247844
0.000534944
-0.00263296
0.000592883
-0.00276553
0.000646002
-0.00287816
0.00069395
-0.00297281
0.000736595
-0.00305137
0.000773992
-0.00311563
0.000806347
-0.00316721
0.000833977
-0.00320757
0.00085729
-0.00323798
0.000876761
-0.00325948
-0.00327287
0.00089292
1.18508e-05
-0.000235608
4.15842e-05
-0.000653247
8.45449e-05
-0.00102747
0.000136783
-0.00136232
0.000194926
-0.00166071
0.000256122
-0.00192508
0.000317999
-0.00215766
0.000378632
-0.00236066
0.00043651
-0.00253632
0.000490505
-0.00268695
0.000539831
-0.00281486
0.000584004
-0.00292234
0.000622799
-0.00301161
0.000656202
-0.00308478
0.000684377
-0.0031438
0.000707619
-0.00319045
0.000726321
-0.00322627
0.00074095
-0.00325261
0.000752022
-0.00327055
-0.00328093
0.000760089
1.14022e-05
-0.00024701
3.97154e-05
-0.000681561
8.02279e-05
-0.00106798
0.000128968
-0.00141106
0.000182579
-0.00171432
0.000238262
-0.00198076
0.000293727
-0.00221312
0.000347155
-0.00241408
0.000397163
-0.00258633
0.000442756
-0.00273254
0.000483283
-0.00285539
0.000518393
-0.00295744
0.000547983
-0.0030412
0.000572156
-0.00310895
0.00059117
-0.00316282
0.000605404
-0.00320468
0.000615318
-0.00323619
0.000621428
-0.00325872
0.000624279
-0.0032734
-0.00328109
0.000624439
1.08603e-05
-0.00025787
3.75242e-05
-0.000708225
7.52655e-05
-0.00110572
0.000120128
-0.00145592
0.000168804
-0.001763
0.000218575
-0.00203053
0.000267259
-0.0022618
0.000313165
-0.00245999
0.000355044
-0.00262821
0.000392043
-0.00276954
0.000423649
-0.00288699
0.000449641
-0.00298344
0.000470036
-0.00306159
0.000485038
-0.00312395
0.000494997
-0.00317278
0.000500363
-0.00321005
0.000501655
-0.00323748
0.000499427
-0.00325649
0.000494252
-0.00326823
-0.00327354
0.0004867
1.02264e-05
-0.000268097
3.50186e-05
-0.000733017
6.968e-05
-0.00114038
0.000110308
-0.00149655
0.000153681
-0.00180637
0.000197187
-0.00207404
0.000238776
-0.00230339
0.000276898
-0.00249811
0.000310452
-0.00266176
0.000338731
-0.00279782
0.000361359
-0.00290962
0.000378239
-0.00300032
0.000389498
-0.00307285
0.000395436
-0.00312989
0.000396481
-0.00317382
0.000393148
-0.00320672
0.000386002
-0.00323033
0.000375633
-0.00324612
0.00036263
-0.00325523
-0.00325848
0.000347569
9.50263e-06
-0.000277599
3.22095e-05
-0.000755724
6.35002e-05
-0.00117167
9.9567e-05
-0.00153261
0.000137304
-0.00184411
0.000174239
-0.00211097
0.000208471
-0.00233763
0.000238608
-0.00252825
0.000263704
-0.00268686
0.000283199
-0.00281732
0.00029685
-0.00292327
0.000304679
-0.00300815
0.000306912
-0.00307508
0.000303934
-0.00312691
0.000296239
-0.00316613
0.000284396
-0.00319487
0.000269012
-0.00321495
0.000250704
-0.00322782
0.000230076
-0.0032346
-0.00323611
0.000207704
8.69209e-06
-0.000286292
2.91111e-05
-0.000776143
5.67605e-05
-0.00119932
8.79674e-05
-0.00156382
0.000119777
-0.00187592
0.000149881
-0.00214108
0.000176549
-0.00236429
0.000198557
-0.00255026
0.000215122
-0.00270343
0.000225828
-0.00282802
0.000230561
-0.002928
0.000229451
-0.00300704
0.000222813
-0.00306844
0.000211101
-0.0031152
0.000194868
-0.00314989
0.000174725
-0.00317473
0.000151312
-0.00319154
0.000125271
-0.00320177
9.72196e-05
-0.00320655
-0.00320662
6.7734e-05
7.79869e-06
-0.00029409
2.57402e-05
-0.000794084
4.95e-05
-0.00122308
7.55809e-05
-0.0015899
0.000101212
-0.00190155
0.000124273
-0.00216414
0.000143221
-0.00238324
0.000157014
-0.00256405
0.000165029
-0.00271144
0.000166996
-0.00282999
0.000162922
-0.00292393
0.000153032
-0.00299715
0.000137719
-0.00305313
0.000117494
-0.00309497
9.295e-05
-0.00312535
6.47329e-05
-0.00314651
3.35089e-05
-0.00316031
-5.99285e-08
-0.0031682
-3.53388e-05
-0.00317127
-0.00317021
-7.17469e-05
6.82706e-06
-0.000300917
2.21157e-05
-0.000809373
4.17618e-05
-0.00124273
6.24833e-05
-0.00161062
8.17243e-05
-0.00192079
9.7577e-05
-0.00217999
0.000108701
-0.00239437
0.000114241
-0.00256959
0.000113741
-0.00271094
0.000107068
-0.00282332
9.43447e-05
-0.00291121
7.58808e-05
-0.00297868
5.21288e-05
-0.00302938
2.36415e-05
-0.00306649
-8.95888e-06
-0.00309275
-4.50069e-05
-0.00311047
-8.38173e-05
-0.0031215
-0.000124708
-0.00312731
-0.000167026
-0.00312895
-0.00312707
-0.000210173
5.7825e-06
-0.0003067
1.82585e-05
-0.000821849
3.35921e-05
-0.00125806
4.87548e-05
-0.00162579
6.1435e-05
-0.00193347
6.9958e-05
-0.00218851
7.31995e-05
-0.00239761
7.04963e-05
-0.00256689
6.15593e-05
-0.002702
4.6392e-05
-0.00280815
2.52187e-05
-0.00289003
-1.57609e-06
-0.00295189
-3.34939e-05
-0.00299746
-6.99572e-05
-0.00303002
-0.000110333
-0.00305237
-0.000153949
-0.00306685
-0.000200111
-0.00307534
-0.000248119
-0.0030793
-0.000297293
-0.00307978
-0.00307735
-0.000347005
4.6709e-06
-0.000311371
1.41913e-05
-0.000831369
2.50398e-05
-0.00126891
3.4478e-05
-0.00163522
4.04657e-05
-0.00193946
4.15792e-05
-0.00218963
3.69209e-05
-0.00239295
2.60253e-05
-0.00255599
8.76893e-06
-0.00268475
-1.47138e-05
-0.00278467
-4.41026e-05
-0.00286064
-7.89505e-05
-0.00291704
-0.000118727
-0.00295769
-0.000162847
-0.0029859
-0.000210684
-0.00300454
-0.00026158
-0.00301595
-0.000314844
-0.00302208
-0.000369763
-0.00302439
-0.000425619
-0.00302392
-0.00302124
-0.000481733
3.49875e-06
-0.000314869
9.9384e-06
-0.000837809
1.61564e-05
-0.00127513
1.97383e-05
-0.00163881
1.89392e-05
-0.00193866
1.2602e-05
-0.00218329
6.38459e-08
-0.00238041
-1.89401e-05
-0.00253699
-4.43692e-05
-0.00265932
-7.59618e-05
-0.00275307
-0.000113308
-0.0028233
-0.000155906
-0.00287444
-0.000203206
-0.00291039
-0.00025463
-0.00293448
-0.00030958
-0.00294959
-0.000367434
-0.0029581
-0.000427525
-0.00296198
-0.000489139
-0.00296277
-0.000551513
-0.00296155
-0.00295887
-0.00061388
2.27316e-06
-0.000317143
5.52586e-06
-0.000841062
6.99604e-06
-0.0012766
4.62352e-06
-0.00163643
-3.02024e-06
-0.00193101
-1.68138e-05
-0.0021695
-3.71799e-05
-0.00236004
-6.4182e-05
-0.00250998
-9.76174e-05
-0.00262588
-0.0001371
-0.00271359
-0.000182135
-0.00277826
-0.00023217
-0.00282441
-0.00028664
-0.00285591
-0.00034499
-0.00287613
-0.000406667
-0.00288791
-0.000471111
-0.00289366
-0.000537716
-0.00289538
-0.00060579
-0.0028947
-0.000674524
-0.00289281
-0.00289038
-0.000743017
1.00192e-06
-0.000318145
9.81583e-07
-0.000841041
-2.38448e-06
-0.00127323
-1.07751e-05
-0.00162804
-2.52858e-05
-0.0019165
-4.65082e-05
-0.00214827
-7.46224e-05
-0.00233193
-0.000109493
-0.00247511
-0.000150758
-0.00258462
-0.000197911
-0.00266644
-0.000250372
-0.0027258
-0.000307539
-0.00276724
-0.000368834
-0.00279462
-0.000433721
-0.00281124
-0.000501709
-0.00281992
-0.000572327
-0.00282304
-0.000645074
-0.00282263
-0.000719336
-0.00282044
-0.000794283
-0.00281787
-0.00281586
-0.000868804
-3.06469e-07
-0.000317838
-3.66447e-06
-0.000837683
-1.19249e-05
-0.00126497
-2.63624e-05
-0.0016136
-4.77267e-05
-0.00189514
-7.63176e-05
-0.00211968
-0.000112074
-0.00229617
-0.000154667
-0.00243252
-0.000203582
-0.0025357
-0.000258197
-0.00261182
-0.000317849
-0.00266615
-0.000381882
-0.00270321
-0.000449693
-0.00272681
-0.000520759
-0.00274018
-0.000594644
-0.00274604
-0.000670983
-0.0027467
-0.000749431
-0.00274419
-0.000829544
-0.00274032
-0.000910561
-0.00273685
-0.00273534
-0.000991081
-1.64269e-06
-0.000316195
-8.38019e-06
-0.000830946
-2.15614e-05
-0.00125179
-4.20383e-05
-0.00159313
-7.02059e-05
-0.00186697
-0.000106071
-0.00208382
-0.000149338
-0.00225291
-0.000199492
-0.00238237
-0.000255876
-0.00247932
-0.000317762
-0.00254994
-0.00038441
-0.0025995
-0.000455106
-0.00263251
-0.000529212
-0.0026527
-0.000606191
-0.0026632
-0.00068563
-0.0026666
-0.000767252
-0.00266508
-0.000850893
-0.00266054
-0.000936407
-0.00265481
-0.00102331
-0.00264995
-0.00264851
-0.00111014
-2.99676e-06
-0.000313199
-1.31315e-05
-0.000820811
-3.12267e-05
-0.0012337
-5.76978e-05
-0.00156666
-9.25796e-05
-0.00183209
-0.000135589
-0.00204081
-0.000186203
-0.00220229
-0.000243732
-0.00232484
-0.000307395
-0.00241566
-0.000376375
-0.00248096
-0.000449864
-0.00252602
-0.000527105
-0.00255527
-0.000607416
-0.00257239
-0.000690224
-0.00258039
-0.000775087
-0.00258173
-0.000861738
-0.00257843
-0.000950137
-0.00257215
-0.00104051
-0.00256443
-0.00113305
-0.00255741
-0.00255382
-0.00122773
-4.3581e-06
-0.000308841
-1.78827e-05
-0.000807286
-4.08513e-05
-0.00121073
-7.32319e-05
-0.00153428
-0.000114698
-0.00179062
-0.00016468
-0.00199083
-0.000222437
-0.00214454
-0.000287124
-0.00226015
-0.000357848
-0.00234493
-0.000433727
-0.00240508
-0.000513917
-0.00244583
-0.000597644
-0.00247154
-0.000684222
-0.00248581
-0.000773063
-0.00249155
-0.000863703
-0.00249109
-0.000955838
-0.00248629
-0.00104942
-0.00247856
-0.00114496
-0.0024689
-0.00124405