1.45 	0 	0 	-0.291334
2.35 	0 	0 	-0.126551
