1.45 	0 	0 	-0.0080669 	-0.00257241 	3.78867e-21
2.35 	0 	0 	0.0614314 	-0.00663527 	2.29448e-21
