1.275 	2.15223e-18 	-2.76991e-20 	-0.033747 	-0.000448093 	-2.00068e-22
1.825 	2.15223e-18 	-1.39322e-20 	-0.00818454 	-0.00281058 	1.79935e-21
2.375 	2.15223e-18 	-2.66896e-23 	0.118894 	-0.00334637 	-7.50823e-22
