1.45 	0 	0 	-0.268088
2.35 	0 	0 	-0.0318409
