/*--------------------------------*- C++ -*----------------------------------*\
  =========                 |
  \\      /  F ield         | OpenFOAM: The Open Source CFD Toolbox
   \\    /   O peration     | Website:  https://openfoam.org
    \\  /    A nd           | Version:  6.0
     \\/     M anipulation  |
\*---------------------------------------------------------------------------*/
FoamFile
{
    version     2.0;
    format      ascii;
    class       volVectorField;
    location    "3.1";
    object      U;
}
// * * * * * * * * * * * * * * * * * * * * * * * * * * * * * * * * * * * * * //

dimensions      [0 1 -1 0 0 0 0];

internalField   nonuniform List<vector> 
24000
(
(0.999994 3.56246e-06 -7.96329e-17)
(0.999945 -1.87772e-05 1.08442e-16)
(0.999859 -6.76408e-05 -1.90678e-16)
(0.999758 -0.000150269 2.10408e-16)
(0.999675 -0.000259693 -1.03806e-15)
(0.99963 -0.000376362 -6.15359e-16)
(0.999638 -0.000474396 6.29979e-16)
(0.999692 -0.000533656 -1.39577e-15)
(0.999783 -0.000525328 4.38148e-16)
(0.999887 -0.000453633 -3.22175e-16)
(0.999989 -0.000167716 -3.11733e-16)
(1.00102 0.00100373 -4.62756e-16)
(0.999987 6.44168e-06 1.16738e-16)
(0.999897 -4.5933e-05 -1.60467e-16)
(0.999743 -0.000144425 3.56305e-16)
(0.999564 -0.000302048 -8.89771e-17)
(0.99942 -0.00050656 4.6202e-16)
(0.99935 -0.000717541 6.22341e-16)
(0.999375 -0.000888651 -3.50468e-16)
(0.999484 -0.000984248 1.48282e-15)
(0.99966 -0.000953367 -3.11122e-16)
(0.999863 -0.000810665 1.59648e-17)
(0.999991 -0.000302611 8.14329e-17)
(1.00193 0.00146342 1.54046e-16)
(0.999985 6.73132e-06 -8.89165e-17)
(0.999905 -6.38388e-05 2.16217e-16)
(0.999767 -0.000173484 -1.23494e-16)
(0.999608 -0.000335448 4.51612e-16)
(0.999482 -0.000539519 2.51637e-16)
(0.999426 -0.000743274 2.31466e-16)
(0.999461 -0.000901425 5.18401e-16)
(0.999575 -0.000984455 -6.59187e-16)
(0.99975 -0.000943664 -3.67875e-16)
(0.99996 -0.000808493 -1.29873e-16)
(1.00001 -0.000344423 -2.90541e-17)
(1.00203 0.0010058 4.87387e-16)
(0.999983 4.87565e-06 -3.79669e-17)
(0.999916 -8.25695e-05 -2.04573e-16)
(0.999803 -0.000199783 -3.15909e-16)
(0.999672 -0.000359711 -2.23891e-16)
(0.99957 -0.000555397 -1.31134e-16)
(0.999527 -0.000746866 -9.05989e-16)
(0.999564 -0.000892778 -1.43526e-15)
(0.999673 -0.000970619 1.63985e-16)
(0.999835 -0.000935342 4.69558e-17)
(1.00005 -0.000818983 6.45498e-16)
(1.00004 -0.000424349 -4.12068e-16)
(1.00188 0.000622876 -5.70227e-16)
(0.999978 1.7837e-06 6.76384e-17)
(0.999915 -0.00010379 3.30255e-17)
(0.999811 -0.000235126 1.60096e-16)
(0.999694 -0.000404626 -7.56809e-17)
(0.999603 -0.000606533 2.07955e-16)
(0.999566 -0.000801459 1.87192e-16)
(0.999607 -0.000949691 1.45196e-15)
(0.999719 -0.00103049 -9.48672e-17)
(0.999884 -0.00099867 -2.79863e-16)
(1.00012 -0.000877925 7.60616e-17)
(1.0001 -0.00050095 2.84377e-16)
(1.00175 0.00047943 -1.51013e-16)
(0.999973 -1.9623e-06 3.91415e-18)
(0.99991 -0.000125351 -1.90028e-17)
(0.999812 -0.000272648 -2.13683e-17)
(0.999704 -0.000454216 -3.86905e-18)
(0.999626 -0.000663299 -8.63027e-16)
(0.9996 -0.000859911 1.05613e-15)
(0.99965 -0.00100572 2.93071e-17)
(0.999772 -0.00108048 1.46237e-16)
(0.999946 -0.00103898 6.91702e-16)
(1.00021 -0.000897736 -3.40468e-16)
(1.00019 -0.000515468 5.16047e-16)
(1.00167 0.000446831 3.45961e-16)
(0.999966 -6.17688e-06 -3.54214e-18)
(0.999906 -0.000146375 2.04924e-16)
(0.999814 -0.000308799 -2.07835e-16)
(0.99972 -0.000500437 -1.01342e-16)
(0.999658 -0.000712465 4.43511e-16)
(0.999647 -0.000904418 -2.18172e-16)
(0.99971 -0.0010405 -6.04231e-16)
(0.999844 -0.00110206 -3.13473e-16)
(1.00002 -0.00104558 1.22174e-16)
(1.00031 -0.000886857 6.02155e-16)
(1.00031 -0.000509379 -1.21817e-15)
(1.00163 0.000392795 3.17248e-16)
(0.999959 -1.08093e-05 -5.23193e-17)
(0.999901 -0.000167227 7.93339e-17)
(0.999817 -0.000344905 2.39487e-16)
(0.999735 -0.0005471 4.53393e-16)
(0.999688 -0.000762751 2.41366e-16)
(0.999691 -0.000951314 -2.67825e-16)
(0.999766 -0.00108021 -2.91206e-16)
(0.99991 -0.00113273 -1.39583e-16)
(1.0001 -0.00106735 4.82236e-17)
(1.00039 -0.000902119 -1.30421e-16)
(1.00042 -0.000542837 1.043e-15)
(1.00161 0.000272485 -5.48568e-16)
(0.999951 -1.57958e-05 2.05997e-17)
(0.999895 -0.000188165 -1.94822e-16)
(0.999816 -0.000381894 1.46157e-17)
(0.999742 -0.0005967 -7.23516e-17)
(0.999706 -0.000819383 7.30138e-17)
(0.999721 -0.00100955 -6.11367e-17)
(0.999805 -0.00113796 5.12242e-17)
(0.999958 -0.00118924 5.58958e-16)
(1.00015 -0.00112302 -6.92625e-17)
(1.00046 -0.000957494 -7.90088e-16)
(1.00053 -0.000617727 -8.79905e-16)
(1.00161 0.000123526 9.75971e-16)
(0.999943 -2.10985e-05 7.32121e-17)
(0.999888 -0.000209102 4.8698e-18)
(0.999813 -0.00041904 1.84539e-16)
(0.999746 -0.000647271 -4.83832e-16)
(0.999718 -0.000878488 -1.15471e-16)
(0.999743 -0.00107251 5.22588e-16)
(0.999836 -0.00120343 -4.43885e-16)
(0.999999 -0.00125667 -6.69416e-16)
(1.0002 -0.00119245 2.05023e-16)
(1.00053 -0.00102538 2.05569e-16)
(1.00063 -0.000697924 6.54297e-16)
(1.00164 -3.33358e-06 -1.38024e-16)
(0.999933 -2.67157e-05 -1.00417e-16)
(0.999881 -0.000229936 -2.3122e-17)
(0.999811 -0.00045544 -2.19934e-16)
(0.99975 -0.000696343 3.65938e-17)
(0.999732 -0.000935216 1.67303e-16)
(0.999768 -0.001132 -3.60648e-16)
(0.999871 -0.00126403 2.70935e-16)
(1.00004 -0.00131735 7.54284e-16)
(1.00026 -0.0012531 -5.62388e-16)
(1.0006 -0.00108009 2.24329e-16)
(1.00074 -0.000757731 -8.47616e-16)
(1.00169 -9.30428e-05 -9.04448e-16)
(0.999924 -3.26769e-05 6.51916e-18)
(0.999873 -0.000250714 1.9206e-16)
(0.999811 -0.000490878 -1.9263e-16)
(0.999757 -0.000743227 1.48979e-16)
(0.999749 -0.000988389 -4.57824e-16)
(0.999797 -0.00118628 -2.03976e-16)
(0.999911 -0.00131697 6.64107e-17)
(1.0001 -0.00136724 -3.0293e-16)
(1.00032 -0.00129977 -3.94332e-16)
(1.00067 -0.00111781 3.63049e-16)
(1.00085 -0.000797322 2.85731e-16)
(1.00176 -0.00016056 1.00667e-17)
(0.999913 -3.89982e-05 2.4529e-17)
(0.999866 -0.000271536 -1.91936e-17)
(0.999811 -0.000525563 5.30775e-16)
(0.999766 -0.000788368 1.53124e-16)
(0.999768 -0.00103919 2.61698e-16)
(0.999828 -0.00123784 -2.92516e-16)
(0.999955 -0.00136626 -1.47925e-16)
(1.00015 -0.00141197 1.2061e-16)
(1.00039 -0.00133966 4.6574e-16)
(1.00075 -0.00114848 -1.21974e-15)
(1.00096 -0.00082972 -4.86742e-16)
(1.00183 -0.000224305 5.42302e-16)
(0.999902 -4.56788e-05 -7.57569e-17)
(0.999858 -0.000292468 -6.74323e-17)
(0.999812 -0.000559707 -4.19483e-16)
(0.999774 -0.000832184 -3.31489e-16)
(0.999787 -0.00108862 -2.32315e-16)
(0.999859 -0.00128886 3.65141e-16)
(0.999998 -0.00141582 2.51082e-16)
(1.00021 -0.00145743 -2.76597e-16)
(1.00045 -0.00138054 -3.71163e-16)
(1.00083 -0.0011815 -1.3296e-16)
(1.00107 -0.000864906 6.91241e-16)
(1.0019 -0.000291439 -4.819e-16)
(0.99989 -5.26852e-05 4.07781e-17)
(0.99985 -0.000313519 3.22359e-17)
(0.999812 -0.000593417 4.95512e-17)
(0.999784 -0.000874776 7.90647e-17)
(0.999806 -0.0011368 8.22053e-17)
(0.999889 -0.00133966 -1.48306e-16)
(1.00004 -0.00146655 7.77376e-18)
(1.00026 -0.00150543 -3.83116e-16)
(1.00052 -0.00142507 3.62723e-16)
(1.00091 -0.00121959 1.38268e-15)
(1.00118 -0.000904727 -2.0555e-16)
(1.00198 -0.00035993 6.71139e-16)
(0.999878 -5.99614e-05 -3.93742e-17)
(0.999841 -0.000334668 1.48686e-18)
(0.999811 -0.000626775 1.47877e-16)
(0.999793 -0.000916199 2.09125e-16)
(0.999826 -0.00118346 2.31329e-16)
(0.999919 -0.00138943 -1.50298e-16)
(1.00008 -0.00151725 -2.42019e-16)
(1.00031 -0.00155453 5.91827e-16)
(1.00059 -0.00147165 1.43312e-16)
(1.00099 -0.00126062 -1.49028e-15)
(1.00128 -0.000946416 2.35616e-16)
(1.00206 -0.000426074 2.22512e-17)
(0.999864 -6.74191e-05 9.009e-17)
(0.99983 -0.000355874 3.31001e-17)
(0.999809 -0.000659903 -3.1963e-16)
(0.999802 -0.000956743 1.3795e-16)
(0.999846 -0.00122875 -5.61502e-17)
(0.99995 -0.00143775 3.67519e-16)
(1.00012 -0.00156686 6.25708e-16)
(1.00037 -0.00160306 1.05354e-16)
(1.00065 -0.00151818 5.10847e-16)
(1.00106 -0.00130214 1.23897e-15)
(1.00138 -0.000987782 1.43349e-15)
(1.00214 -0.000489052 -5.35513e-16)
(0.99985 -7.49493e-05 3.46267e-17)
(0.999818 -0.000377073 -2.74528e-17)
(0.999806 -0.000692941 3.04016e-16)
(0.999809 -0.000996922 -2.77328e-16)
(0.999865 -0.00127337 3.92564e-16)
(0.999981 -0.00148516 4.03417e-18)
(1.00017 -0.00161555 -4.06777e-16)
(1.00042 -0.00165086 1.28261e-16)
(1.00072 -0.0015643 -4.42318e-16)
(1.00114 -0.00134388 -2.16506e-16)
(1.00148 -0.00102914 -5.74974e-16)
(1.00223 -0.00055078 -1.06316e-16)
(0.999835 -8.24201e-05 -4.15262e-17)
(0.999805 -0.000398175 -2.31166e-16)
(0.9998 -0.000725979 -1.26534e-16)
(0.999815 -0.00103728 1.55312e-16)
(0.999883 -0.0013183 -2.82082e-17)
(1.00001 -0.0015329 -2.62128e-16)
(1.00021 -0.00166462 -5.46686e-17)
(1.00048 -0.00169925 -3.37774e-17)
(1.00079 -0.00161131 -5.30961e-16)
(1.00122 -0.00138726 -3.89529e-16)
(1.00158 -0.0010721 -1.72394e-15)
(1.00232 -0.00061303 1.02309e-15)
(0.999819 -8.96935e-05 -3.95668e-17)
(0.999789 -0.000419063 2.40661e-16)
(0.999792 -0.000759001 -1.718e-16)
(0.999818 -0.00107814 7.6685e-17)
(0.999898 -0.00136431 -1.88264e-16)
(1.00004 -0.00158211 -4.26518e-16)
(1.00025 -0.00171546 5.41094e-17)
(1.00053 -0.00174971 -6.90884e-17)
(1.00086 -0.00166068 2.87431e-16)
(1.0013 -0.00143356 4.46783e-16)
(1.00168 -0.0011176 1.54279e-15)
(1.0024 -0.000675844 -9.89426e-16)
(0.999802 -9.663e-05 2.84597e-17)
(0.999773 -0.000439607 -1.12041e-17)
(0.999781 -0.000791882 2.72435e-17)
(0.999818 -0.00111954 -6.35999e-17)
(0.999911 -0.00141165 -2.36565e-16)
(1.00007 -0.00163329 -9.467e-18)
(1.00029 -0.00176869 -1.25501e-16)
(1.00059 -0.00180288 -6.70431e-16)
(1.00092 -0.00171288 4.03987e-16)
(1.00138 -0.00148281 2.18813e-16)
(1.00178 -0.00116512 6.52805e-17)
(1.00249 -0.000737886 2.22451e-16)
(0.999784 -0.000103104 3.25531e-17)
(0.999755 -0.00045969 -2.64032e-16)
(0.99977 -0.000824443 5.17025e-16)
(0.999816 -0.00116125 4.92062e-17)
(0.999921 -0.00146008 1.43498e-16)
(1.00009 -0.00168621 8.69993e-16)
(1.00033 -0.00182406 7.15547e-16)
(1.00064 -0.00185833 3.62175e-16)
(1.00099 -0.00176721 -9.59778e-16)
(1.00146 -0.00153398 -2.79934e-16)
(1.00188 -0.00121343 9.26136e-17)
(1.00258 -0.000798019 -3.32175e-17)
(0.999765 -0.000109007 -6.10055e-17)
(0.999736 -0.000479217 1.0518e-16)
(0.999757 -0.000856517 -6.97129e-17)
(0.999813 -0.00120296 -8.85416e-17)
(0.99993 -0.00150912 -2.55295e-16)
(1.00011 -0.00174028 -5.05171e-16)
(1.00037 -0.00188083 -2.74599e-16)
(1.00069 -0.00191519 -2.17803e-17)
(1.00106 -0.00182267 2.78158e-16)
(1.00154 -0.00158594 -2.65302e-16)
(1.00197 -0.00126164 -1.56542e-15)
(1.00268 -0.00085612 7.93303e-16)
(0.999746 -0.000114255 4.45422e-17)
(0.999717 -0.000498132 6.34649e-18)
(0.999743 -0.000888008 -1.89714e-16)
(0.999808 -0.0012444 -1.45114e-16)
(0.999938 -0.00155834 -8.05369e-17)
(1.00013 -0.00179489 -1.19055e-16)
(1.0004 -0.00193833 -2.17198e-16)
(1.00075 -0.00197276 -2.31742e-16)
(1.00113 -0.00187857 -6.75657e-17)
(1.00162 -0.0016382 -2.46158e-16)
(1.00207 -0.00130975 9.29203e-17)
(1.00277 -0.000912902 -1.5786e-16)
(0.999725 -0.000118785 1.52679e-17)
(0.999697 -0.000516414 1.49453e-16)
(0.999729 -0.000918902 4.09137e-17)
(0.999804 -0.00128548 -1.57144e-17)
(0.999946 -0.00160749 9.88989e-17)
(1.00016 -0.00184974 2.77965e-16)
(1.00044 -0.00199626 1.07007e-16)
(1.0008 -0.00203082 2.6767e-16)
(1.0012 -0.00193488 3.1382e-16)
(1.0017 -0.00169101 -3.06306e-16)
(1.00217 -0.0013584 1.00544e-15)
(1.00287 -0.000969148 -6.22904e-16)
(0.999703 -0.000122557 -2.07037e-17)
(0.999676 -0.000534066 -1.95534e-17)
(0.999715 -0.000949258 -1.47822e-16)
(0.999799 -0.00132623 -9.73039e-17)
(0.999954 -0.00165656 -3.48846e-17)
(1.00018 -0.00190478 -1.79031e-16)
(1.00048 -0.00205462 1.04212e-17)
(1.00085 -0.00208953 -3.11585e-16)
(1.00126 -0.00199198 -2.7075e-17)
(1.00178 -0.00174493 1.05264e-15)
(1.00227 -0.00140831 4.96574e-16)
(1.00296 -0.00102547 5.31428e-17)
(0.99968 -0.000125548 -9.8502e-18)
(0.999654 -0.00055111 -1.14719e-16)
(0.9997 -0.000979171 -5.05588e-17)
(0.999793 -0.00136677 -7.55489e-17)
(0.999961 -0.0017057 5.57822e-16)
(1.0002 -0.00196016 -1.29256e-16)
(1.00051 -0.00211362 1.53887e-16)
(1.0009 -0.0021492 -1.59912e-16)
(1.00133 -0.0020503 -2.55521e-16)
(1.00187 -0.0018004 -2.65438e-16)
(1.00236 -0.00145979 -1.96489e-17)
(1.00306 -0.00108212 -2.01412e-16)
(0.999656 -0.000127751 3.41075e-17)
(0.999632 -0.000567569 -4.08737e-17)
(0.999684 -0.00100874 1.71717e-16)
(0.999787 -0.00140727 3.4672e-16)
(0.999967 -0.0017551 -5.27462e-16)
(1.00022 -0.00201611 4.99301e-16)
(1.00055 -0.00217348 -2.76142e-16)
(1.00096 -0.00221007 -1.44213e-16)
(1.0014 -0.00211005 -1.94308e-16)
(1.00195 -0.00185752 -3.55409e-16)
(1.00246 -0.00151275 -1.50861e-16)
(1.00315 -0.00113872 -1.20858e-16)
(0.99963 -0.000129168 -5.82585e-18)
(0.999608 -0.000583467 -1.56761e-17)
(0.999667 -0.00103802 -1.57908e-17)
(0.99978 -0.00144785 -3.35631e-16)
(0.999973 -0.00180496 -1.44114e-16)
(1.00024 -0.0020728 -1.30559e-17)
(1.00059 -0.00223436 -3.90009e-16)
(1.00101 -0.00227222 7.18906e-16)
(1.00147 -0.00217122 -5.87514e-18)
(1.00203 -0.00191611 2.5108e-16)
(1.00256 -0.00156681 1.77935e-16)
(1.00325 -0.00119471 -5.44061e-18)
(0.999603 -0.000129812 -1.89016e-17)
(0.999584 -0.000598823 1.07938e-16)
(0.999649 -0.00106705 3.21491e-17)
(0.999772 -0.00148857 4.61308e-16)
(0.999977 -0.00185538 2.51777e-16)
(1.00026 -0.00213037 -4.22454e-16)
(1.00062 -0.00229633 1.91845e-16)
(1.00106 -0.00233562 -3.7877e-16)
(1.00154 -0.00223366 1.31165e-15)
(1.00211 -0.00197582 -1.01988e-16)
(1.00265 -0.00162147 2.24458e-17)
(1.00335 -0.00124973 -1.40901e-16)
(0.999575 -0.000129705 -1.97231e-17)
(0.999559 -0.000613657 7.54069e-17)
(0.99963 -0.00109582 -9.05965e-17)
(0.999762 -0.00152943 -4.47721e-16)
(0.999981 -0.00190636 4.63662e-16)
(1.00028 -0.00218883 2.71269e-16)
(1.00066 -0.00235936 3.43144e-16)
(1.00111 -0.00240015 1.53569e-16)
(1.00161 -0.0022971 -1.0895e-16)
(1.0022 -0.00203627 5.47228e-16)
(1.00275 -0.00167632 -9.92824e-16)
(1.00345 -0.00130364 1.12165e-15)
(0.999545 -0.000128875 2.74828e-17)
(0.999533 -0.000627992 -1.44323e-16)
(0.99961 -0.00112432 -8.42745e-17)
(0.999752 -0.00157035 -2.68528e-17)
(0.999984 -0.00195781 -1.77338e-16)
(1.0003 -0.00224805 -5.03624e-18)
(1.00069 -0.00242331 -2.82072e-16)
(1.00117 -0.00246559 -2.13529e-16)
(1.00168 -0.00236126 -1.20484e-15)
(1.00228 -0.0020971 -3.97769e-16)
(1.00285 -0.001731 -2.55818e-16)
(1.00355 -0.00135636 -3.00691e-17)
(0.999514 -0.000127359 1.05397e-17)
(0.999506 -0.000641859 -1.18653e-17)
(0.99959 -0.00115252 -4.2641e-17)
(0.999741 -0.00161124 3.25722e-16)
(0.999986 -0.00200956 -5.53093e-16)
(1.00031 -0.00230785 -4.10514e-16)
(1.00073 -0.00248796 3.52751e-16)
(1.00122 -0.0025317 -2.33521e-17)
(1.00175 -0.00242586 7.29992e-17)
(1.00236 -0.00215805 4.21581e-16)
(1.00295 -0.00178535 -1.68559e-16)
(1.00365 -0.00140809 3.04107e-16)
(0.999482 -0.000125199 -1.51825e-17)
(0.999479 -0.000655299 1.70176e-16)
(0.999569 -0.00118042 2.88704e-16)
(0.99973 -0.001652 -9.6202e-17)
(0.999987 -0.00206142 4.35818e-17)
(1.00033 -0.00236798 1.82392e-16)
(1.00076 -0.00255307 -4.21146e-16)
(1.00127 -0.00259824 4.43513e-16)
(1.00182 -0.00249069 3.44904e-16)
(1.00245 -0.002219 -2.8425e-16)
(1.00305 -0.00183938 3.22573e-18)
(1.00375 -0.00145912 -1.90508e-17)
(0.999449 -0.000122444 -4.29701e-18)
(0.99945 -0.000668368 -2.47222e-16)
(0.999547 -0.00120806 -4.85296e-17)
(0.999718 -0.00169261 5.79779e-17)
(0.999988 -0.00211327 6.5251e-16)
(1.00035 -0.00242829 5.21061e-17)
(1.0008 -0.00261846 3.91038e-16)
(1.00132 -0.00266507 -7.24414e-16)
(1.00189 -0.00255568 3.63878e-16)
(1.00253 -0.00227997 -4.3722e-16)
(1.00314 -0.0018933 9.38271e-16)
(1.00385 -0.00150981 -4.66489e-16)
(0.999414 -0.000119146 2.14791e-17)
(0.99942 -0.000681127 1.09607e-16)
(0.999525 -0.00123552 -1.16417e-16)
(0.999706 -0.00173312 4.79304e-17)
(0.999989 -0.0021651 -3.92518e-16)
(1.00037 -0.00248869 -1.3822e-16)
(1.00083 -0.00268406 2.26953e-17)
(1.00137 -0.00273216 5.19098e-16)
(1.00196 -0.00262093 3.13381e-16)
(1.00262 -0.0023412 -2.16419e-17)
(1.00324 -0.00194745 1.23629e-15)
(1.00395 -0.00156069 -6.10299e-16)
(0.999378 -0.000115363 1.44397e-18)
(0.999389 -0.000693644 1.19631e-16)
(0.999501 -0.0012629 1.1953e-16)
(0.999693 -0.00177364 -1.44102e-17)
(0.99999 -0.00221702 2.87061e-16)
(1.00038 -0.00254931 3.71259e-16)
(1.00086 -0.00275 -1.13307e-16)
(1.00143 -0.0027997 5.21466e-16)
(1.00203 -0.00268667 -1.19684e-15)
(1.0027 -0.00240301 -1.32802e-16)
(1.00334 -0.00200225 -1.7797e-15)
(1.00405 -0.00161231 1.40818e-16)
(0.999341 -0.000111151 -6.2297e-17)
(0.999357 -0.000705984 7.44341e-17)
(0.999477 -0.00129034 -2.12729e-17)
(0.999679 -0.00181437 1.55197e-16)
(0.999991 -0.00226925 -2.13735e-16)
(1.0004 -0.00261034 -5.20996e-16)
(1.0009 -0.00281651 -4.00828e-17)
(1.00148 -0.00286796 -3.71693e-16)
(1.0021 -0.00275325 1.2749e-15)
(1.00279 -0.00246578 -4.29634e-17)
(1.00344 -0.00205803 3.81939e-16)
(1.00416 -0.00166495 7.03848e-16)
(0.999302 -0.000106573 1.54921e-17)
(0.999324 -0.000718208 -3.19121e-16)
(0.999451 -0.00131795 1.09998e-16)
(0.999664 -0.00185551 -5.10235e-16)
(0.99999 -0.00232205 2.5532e-16)
(1.00041 -0.00267212 8.45492e-16)
(1.00093 -0.00288393 -2.19259e-16)
(1.00153 -0.00293729 -5.19275e-16)
(1.00217 -0.00282101 -4.05724e-16)
(1.00287 -0.0025298 -8.02453e-17)
(1.00354 -0.00211506 3.95889e-16)
(1.00426 -0.00171846 -6.43625e-16)
(0.999263 -0.000101686 3.55296e-17)
(0.999289 -0.000730363 9.27148e-17)
(0.999423 -0.00134583 -3.34047e-16)
(0.999648 -0.00189723 4.62722e-16)
(0.999988 -0.00237568 -6.95816e-16)
(1.00043 -0.00273494 -6.9518e-16)
(1.00097 -0.00295256 2.65062e-16)
(1.00158 -0.00300797 9.32324e-16)
(1.00224 -0.0028902 -5.2529e-16)
(1.00296 -0.00259527 2.11419e-16)
(1.00364 -0.00217343 -1.70841e-16)
(1.00436 -0.00177289 6.02914e-17)
(0.999222 -9.65533e-05 -6.05204e-18)
(0.999253 -0.000742488 2.00099e-16)
(0.999394 -0.00137403 2.66517e-16)
(0.99963 -0.00193966 -3.17282e-16)
(0.999985 -0.00243035 1.54379e-16)
(1.00044 -0.00279905 4.28242e-16)
(1.001 -0.00302264 1.44034e-16)
(1.00163 -0.0030802 -9.66316e-17)
(1.00231 -0.00296094 7.36336e-16)
(1.00305 -0.00266219 3.74775e-16)
(1.00374 -0.00223305 7.04978e-17)
(1.00447 -0.00182807 6.3617e-17)
(0.99918 -9.12364e-05 1.36055e-17)
(0.999216 -0.000754613 -2.23224e-16)
(0.999363 -0.00140259 -5.89782e-17)
(0.99961 -0.00198287 1.24259e-16)
(0.99998 -0.00248616 7.51298e-16)
(1.00046 -0.00286455 -3.85419e-16)
(1.00103 -0.00309429 -3.28416e-16)
(1.00168 -0.00315406 -7.46446e-17)
(1.00238 -0.00303324 -7.28303e-16)
(1.00313 -0.00273051 4.23556e-16)
(1.00383 -0.00229378 -5.89437e-17)
(1.00457 -0.00188391 3.78434e-16)
(0.999136 -8.57994e-05 -1.07958e-17)
(0.999177 -0.000766766 1.39771e-16)
(0.999331 -0.00143152 -9.64495e-17)
(0.999589 -0.00202684 3.61966e-16)
(0.999973 -0.00254311 -7.05799e-16)
(1.00047 -0.00293147 4.95986e-16)
(1.00106 -0.00316749 -4.82611e-17)
(1.00173 -0.00322948 -5.04235e-17)
(1.00245 -0.003107 7.53611e-16)
(1.00321 -0.00280005 -2.90595e-16)
(1.00393 -0.00235547 -2.3787e-16)
(1.00468 -0.00193998 -9.55846e-17)
(0.999092 -8.03053e-05 1.51958e-18)
(0.999137 -0.000778976 -2.60514e-17)
(0.999298 -0.00146079 1.17526e-16)
(0.999566 -0.00207154 -4.01489e-16)
(0.999966 -0.00260114 3.48471e-16)
(1.00048 -0.00299973 1.16617e-16)
(1.00109 -0.00324214 1.67982e-16)
(1.00178 -0.00330634 -8.77184e-16)
(1.00251 -0.00318205 -3.68092e-16)
(1.0033 -0.00287065 -1.32417e-15)
(1.00403 -0.00241806 -6.92319e-16)
(1.00478 -0.00199633 -7.1122e-16)
(0.999048 -7.48214e-05 -1.97275e-17)
(0.999096 -0.000791274 1.80591e-17)
(0.999263 -0.0014904 -2.20231e-16)
(0.999542 -0.0021169 1.44803e-17)
(0.999957 -0.00266014 -8.85289e-17)
(1.00049 -0.00306917 5.26893e-18)
(1.00112 -0.00331808 3.10327e-16)
(1.00183 -0.00338446 1.18591e-15)
(1.00258 -0.00325822 1.03114e-16)
(1.00338 -0.00294215 8.26436e-16)
(1.00413 -0.00248135 -1.2129e-16)
(1.00489 -0.00205268 1.2908e-15)
(0.999002 -6.94117e-05 1.89807e-17)
(0.999053 -0.000803702 1.09643e-17)
(0.999227 -0.00152036 2.97628e-16)
(0.999517 -0.00216288 -1.74094e-16)
(0.999947 -0.00272002 -2.03876e-16)
(1.00049 -0.00313968 -2.35505e-16)
(1.00115 -0.00339516 -1.42868e-16)
(1.00188 -0.0034637 -4.75499e-16)
(1.00265 -0.0033354 8.55946e-17)
(1.00347 -0.00301447 8.21129e-16)
(1.00423 -0.00254533 7.97171e-16)
(1.00499 -0.0021091 -1.14635e-15)
(0.998955 -6.41432e-05 -1.93782e-17)
(0.99901 -0.000816308 -2.39726e-16)
(0.999191 -0.00155067 -1.27631e-16)
(0.999491 -0.00220945 2.92393e-17)
(0.999936 -0.0027807 5.11095e-16)
(1.0005 -0.00321113 -4.0533e-16)
(1.00117 -0.00347325 -3.61788e-16)
(1.00193 -0.00354395 -4.47299e-16)
(1.00272 -0.0034135 -5.36329e-16)
(1.00355 -0.00308756 -1.77418e-15)
(1.00433 -0.00261013 -5.93351e-16)
(1.0051 -0.00216557 5.81203e-16)
(0.998908 -5.90779e-05 9.6982e-18)
(0.998966 -0.000829144 2.00213e-16)
(0.999153 -0.00158139 6.03888e-17)
(0.999465 -0.00225662 3.72621e-16)
(0.999925 -0.00284216 -5.89913e-16)
(1.00051 -0.00328348 5.75122e-16)
(1.0012 -0.00355231 -6.85981e-18)
(1.00198 -0.00362515 1.05408e-15)
(1.00279 -0.00349251 3.80615e-16)
(1.00364 -0.00316141 2.31373e-15)
(1.00442 -0.0026758 3.2995e-16)
(1.00521 -0.00222218 5.41666e-16)
(0.99886 -5.4279e-05 -1.98004e-17)
(0.99892 -0.000842267 4.3009e-17)
(0.999115 -0.00161255 9.36759e-17)
(0.999437 -0.00230443 -1.45726e-16)
(0.999913 -0.0029044 5.04047e-16)
(1.00051 -0.00335672 -6.06785e-16)
(1.00123 -0.00363231 5.54071e-16)
(1.00202 -0.00370732 -1.4224e-16)
(1.00285 -0.00357243 2.32209e-16)
(1.00372 -0.00323603 -1.68733e-15)
(1.00452 -0.00274209 1.00263e-15)
(1.00531 -0.00227865 -1.20882e-15)
(0.998811 -4.98024e-05 2.12975e-17)
(0.998874 -0.000855732 -1.1906e-16)
(0.999075 -0.00164422 -1.73108e-16)
(0.999409 -0.00235291 -1.71163e-16)
(0.9999 -0.00296746 5.22125e-17)
(1.00052 -0.00343089 -1.59749e-16)
(1.00125 -0.00371327 -3.018e-16)
(1.00207 -0.00379045 -6.69805e-16)
(1.00292 -0.00365328 -2.39931e-16)
(1.00381 -0.00331143 3.94358e-16)
(1.00462 -0.00280894 -9.84906e-16)
(1.00542 -0.00233492 6.9889e-16)
(0.998762 -4.57022e-05 5.13171e-17)
(0.998827 -0.00086959 1.44777e-17)
(0.999035 -0.00167645 -4.60645e-17)
(0.99938 -0.00240212 1.24385e-16)
(0.999886 -0.00303139 -6.88309e-16)
(1.00052 -0.00350601 1.16525e-16)
(1.00128 -0.00379524 5.05004e-16)
(1.00212 -0.00387457 -2.81962e-16)
(1.00299 -0.00373504 9.4732e-17)
(1.00389 -0.00338757 -1.24145e-16)
(1.00472 -0.00287634 2.24811e-16)
(1.00553 -0.00239114 -5.26679e-16)
(0.998712 -4.20229e-05 -3.34992e-17)
(0.998778 -0.000883891 7.3585e-17)
(0.998994 -0.00170928 -1.34658e-16)
(0.99935 -0.00245211 -8.06814e-17)
(0.999872 -0.00309622 5.12054e-16)
(1.00053 -0.0035821 2.1181e-16)
(1.0013 -0.0038782 -2.23593e-16)
(1.00216 -0.00395966 4.58689e-16)
(1.00305 -0.0038177 1.51011e-16)
(1.00398 -0.00346441 2.97975e-16)
(1.00482 -0.00294425 -3.06993e-16)
(1.00564 -0.0024473 -1.10628e-17)
(0.998661 -3.88063e-05 -5.13024e-17)
(0.998729 -0.000898678 -2.67068e-17)
(0.998952 -0.00174277 1.38817e-16)
(0.999319 -0.00250289 1.22721e-16)
(0.999857 -0.00316197 1.59635e-16)
(1.00053 -0.00365918 4.31854e-16)
(1.00133 -0.00396216 -1.93818e-16)
(1.00221 -0.00404569 -8.6447e-17)
(1.00312 -0.00390119 -1.83213e-16)
(1.00406 -0.00354188 -6.69999e-18)
(1.00492 -0.00301244 6.64096e-18)
(1.00575 -0.00250331 3.85558e-16)
(0.99861 -3.60814e-05 8.63091e-17)
(0.998678 -0.00091399 -1.39973e-17)
(0.998908 -0.00177693 1.6046e-16)
(0.999287 -0.00255449 -7.33156e-17)
(0.999841 -0.00322862 -1.40547e-16)
(1.00054 -0.00373721 -5.68564e-16)
(1.00135 -0.00404706 -3.4435e-16)
(1.00225 -0.00413262 2.24233e-16)
(1.00319 -0.00398547 3.53169e-17)
(1.00415 -0.00361994 5.36937e-17)
(1.00502 -0.00308089 8.30808e-17)
(1.00586 -0.00255936 3.44628e-17)
(0.998558 -3.38723e-05 -8.60852e-17)
(0.998627 -0.000929865 1.31747e-16)
(0.998864 -0.00181181 -2.36237e-16)
(0.999255 -0.00260692 1.62586e-16)
(0.999824 -0.00329618 -3.7741e-18)
(1.00054 -0.00381617 3.85988e-16)
(1.00138 -0.00413287 3.36073e-16)
(1.0023 -0.0042204 -2.24453e-16)
(1.00325 -0.00407051 3.69253e-16)
(1.00423 -0.0036986 -2.39298e-16)
(1.00512 -0.00314956 7.14552e-16)
(1.00597 -0.00261566 7.21846e-16)
(0.998505 -3.21889e-05 6.59713e-17)
(0.998574 -0.000946337 -9.53692e-17)
(0.998819 -0.00184743 -4.00783e-17)
(0.999221 -0.00266018 1.21029e-16)
(0.999806 -0.00336462 -1.51935e-16)
(1.00054 -0.00389602 -2.36347e-16)
(1.0014 -0.00421956 3.61011e-16)
(1.00234 -0.00430902 -2.11451e-16)
(1.00332 -0.00415633 -4.49629e-16)
(1.00431 -0.00377792 2.41842e-16)
(1.00522 -0.00321863 -4.10144e-16)
(1.00608 -0.00267248 -5.65523e-16)
(0.998451 -3.10364e-05 2.74265e-17)
(0.99852 -0.000963437 -1.01425e-16)
(0.998772 -0.00188383 4.14536e-16)
(0.999186 -0.00271431 -2.02629e-16)
(0.999788 -0.00343398 8.28209e-17)
(1.00054 -0.00397679 -1.92149e-16)
(1.00142 -0.00430714 -4.74438e-16)
(1.00239 -0.00439851 4.12104e-16)
(1.00338 -0.00424296 4.74883e-16)
(1.0044 -0.00385797 -5.99337e-16)
(1.00532 -0.00328826 -2.33823e-16)
(1.00618 -0.00273013 -1.77307e-16)
(0.998397 -3.04058e-05 -7.86123e-17)
(0.998465 -0.000981191 3.06331e-17)
(0.998725 -0.00192104 -1.87632e-16)
(0.999151 -0.00276935 2.56778e-17)
(0.999769 -0.00350427 1.14307e-16)
(1.00054 -0.0040585 4.66833e-16)
(1.00144 -0.00439567 5.04945e-18)
(1.00243 -0.00448895 -2.43807e-17)
(1.00345 -0.00433053 -6.52976e-16)
(1.00448 -0.00393891 9.58344e-17)
(1.00542 -0.00335871 -1.34918e-16)
(1.00629 -0.00278879 7.22864e-17)
(0.998342 -3.02841e-05 -1.26933e-17)
(0.998409 -0.000999622 -2.3369e-17)
(0.998676 -0.00195909 -2.73818e-16)
(0.999114 -0.00282533 -5.00441e-17)
(0.999749 -0.00357556 -1.79908e-16)
(1.00054 -0.00414124 -1.30203e-16)
(1.00147 -0.00448525 -1.32799e-16)
(1.00248 -0.00458045 1.63182e-16)
(1.00352 -0.00441915 1.83654e-16)
(1.00457 -0.00402086 3.14179e-16)
(1.00552 -0.00343011 4.42702e-16)
(1.0064 -0.00284831 -2.28628e-16)
(0.998285 -3.06461e-05 3.06963e-17)
(0.998351 -0.00101874 1.59558e-17)
(0.998625 -0.00199802 2.61429e-16)
(0.999076 -0.00288231 -5.25328e-17)
(0.999728 -0.00364792 -9.6938e-17)
(1.00054 -0.00422509 -1.49401e-16)
(1.00149 -0.00457598 4.43122e-16)
(1.00252 -0.00467315 -2.97187e-16)
(1.00358 -0.00450898 1.04992e-16)
(1.00465 -0.00410399 4.09214e-16)
(1.00562 -0.00350262 -2.60223e-16)
(1.00652 -0.00290888 -4.06793e-17)
(0.998228 -3.14665e-05 -4.19708e-17)
(0.998293 -0.00103856 4.34299e-17)
(0.998574 -0.00203783 8.91015e-17)
(0.999037 -0.00294033 1.89872e-16)
(0.999705 -0.00372142 3.4221e-16)
(1.00054 -0.00431015 -2.5477e-16)
(1.00151 -0.00466798 -1.68993e-16)
(1.00256 -0.00476715 1.78205e-17)
(1.00365 -0.00460011 -3.1163e-16)
(1.00474 -0.00418833 -4.48486e-16)
(1.00572 -0.00357634 5.9733e-16)
(1.00663 -0.00297046 2.49975e-16)
(0.998169 -3.27105e-05 6.75514e-17)
(0.998232 -0.00105906 8.2542e-17)
(0.998521 -0.00207854 -8.46377e-17)
(0.998996 -0.0029994 -1.7218e-16)
(0.999682 -0.00379611 4.47877e-17)
(1.00053 -0.0043965 4.17145e-16)
(1.00153 -0.00476135 -2.97819e-16)
(1.0026 -0.00486256 -1.07602e-17)
(1.00371 -0.00469262 3.97699e-16)
(1.00482 -0.00427397 -3.89784e-16)
(1.00582 -0.00365135 -5.07225e-16)
(1.00674 -0.00303312 -1.29752e-16)
(0.998109 -3.4346e-05 8.35732e-18)
(0.998171 -0.00108023 8.4511e-18)
(0.998466 -0.00212013 -2.78487e-16)
(0.998954 -0.00305953 -2.27198e-16)
(0.999657 -0.00387201 -3.82343e-16)
(1.00053 -0.00448417 5.20855e-17)
(1.00154 -0.00485612 8.54171e-17)
(1.00265 -0.0049594 -5.94419e-17)
(1.00377 -0.00478653 -3.2671e-16)
(1.0049 -0.00436087 7.32072e-16)
(1.00592 -0.00372753 3.7903e-16)
(1.00685 -0.00309641 -1.16745e-16)
(0.998048 -3.63337e-05 -3.96798e-17)
(0.998108 -0.00110206 -7.73519e-17)
(0.998411 -0.00216257 3.71248e-16)
(0.99891 -0.00312069 3.38208e-16)
(0.99963 -0.0039491 -7.43782e-18)
(1.00052 -0.00457318 7.23925e-17)
(1.00156 -0.00495231 -1.12409e-16)
(1.00269 -0.00505769 8.26057e-17)
(1.00384 -0.00488184 3.47802e-16)
(1.00499 -0.00444902 -1.8076e-16)
(1.00602 -0.00380485 1.28734e-16)
(1.00696 -0.00316033 2.16845e-16)
(0.997985 -3.86407e-05 -2.48283e-18)
(0.998044 -0.0011245 5.35196e-17)
(0.998353 -0.00220583 -1.62537e-16)
(0.998866 -0.00318285 -3.19651e-16)
(0.999603 -0.00402736 1.93621e-16)
(1.00052 -0.00466348 -4.44143e-16)
(1.00158 -0.00504988 1.31264e-16)
(1.00273 -0.00515736 -1.94967e-16)
(1.0039 -0.00497846 3.08298e-17)
(1.00507 -0.00453832 1.85401e-16)
(1.00612 -0.00388326 -1.59691e-16)
(1.00708 -0.00322471 -4.83257e-16)
(0.997921 -4.12269e-05 2.29374e-17)
(0.997978 -0.00114753 -1.48599e-16)
(0.998295 -0.00224986 1.66775e-16)
(0.998819 -0.00324593 2.80183e-16)
(0.999574 -0.00410671 -3.60425e-16)
(1.00051 -0.00475502 -3.05082e-17)
(1.00159 -0.00514877 2.1948e-16)
(1.00277 -0.00525837 -2.64927e-16)
(1.00396 -0.00507635 -3.21003e-16)
(1.00516 -0.00462872 9.07957e-17)
(1.00622 -0.00396282 -2.78236e-16)
(1.00719 -0.00328969 4.25615e-16)
(0.997855 -4.40598e-05 1.50732e-17)
(0.997911 -0.00117111 7.83204e-17)
(0.998235 -0.00229461 -7.73818e-17)
(0.998772 -0.0033099 2.36108e-16)
(0.999544 -0.00418709 1.75158e-16)
(1.0005 -0.00484774 1.47538e-16)
(1.00161 -0.00524891 -2.48176e-16)
(1.0028 -0.00536064 3.78261e-16)
(1.00403 -0.00517544 -3.36495e-18)
(1.00524 -0.00472017 -7.19813e-16)
(1.00633 -0.00404326 1.37644e-16)
(1.00731 -0.00335505 -2.67847e-17)
(0.997787 -4.70996e-05 -2.40288e-17)
(0.997843 -0.00119521 8.09052e-17)
(0.998173 -0.00234005 -2.69578e-16)
(0.998723 -0.00337469 -1.97809e-16)
(0.999512 -0.00426845 4.02747e-17)
(1.00049 -0.00494156 1.55137e-16)
(1.00162 -0.00535025 2.59229e-16)
(1.00284 -0.00546413 3.53831e-17)
(1.00409 -0.00527571 2.80349e-17)
(1.00533 -0.00481267 4.79312e-16)
(1.00643 -0.00412455 1.45816e-16)
(1.00742 -0.00342087 -2.32383e-16)
(0.997718 -5.03147e-05 -1.89932e-17)
(0.997773 -0.00121979 -2.24497e-17)
(0.998111 -0.00238614 2.85732e-16)
(0.998673 -0.00344026 4.56587e-18)
(0.99948 -0.00435075 2.46291e-16)
(1.00048 -0.00503646 -2.3224e-16)
(1.00163 -0.00545274 -1.52043e-16)
(1.00288 -0.00556879 -4.51739e-17)
(1.00415 -0.00537712 5.44577e-18)
(1.00541 -0.00490618 2.91168e-16)
(1.00653 -0.00420669 -4.53779e-16)
(1.00754 -0.00348737 -2.67223e-16)
(0.997647 -5.36658e-05 5.17932e-18)
(0.997702 -0.00124482 -7.88629e-17)
(0.998047 -0.00243285 -2.76394e-16)
(0.998621 -0.00350658 4.92868e-17)
(0.999446 -0.00443394 2.30284e-17)
(1.00046 -0.00513239 2.92841e-18)
(1.00164 -0.00555636 -8.03372e-17)
(1.00292 -0.00567463 3.49335e-16)
(1.00421 -0.0054797 3.83045e-16)
(1.0055 -0.00500077 -2.54764e-16)