1.45 	0 	0 	-0.00750325 	-0.00260344 	3.8486e-21
2.35 	0 	0 	0.0628438 	-0.00668182 	2.37565e-21
