1.275 	2.15223e-18 	-2.76991e-20 	-0.0342113 	-0.000449438 	-1.96777e-22
1.825 	2.15223e-18 	-1.39322e-20 	-0.00900806 	-0.00276933 	1.7618e-21
2.375 	2.15223e-18 	-2.66896e-23 	0.116608 	-0.00324893 	-7.35468e-22
