1.45 	0 	0 	-0.0892276
2.35 	0 	0 	0.0338494
