/*--------------------------------*- C++ -*----------------------------------*\
  =========                 |
  \\      /  F ield         | OpenFOAM: The Open Source CFD Toolbox
   \\    /   O peration     | Website:  https://openfoam.org
    \\  /    A nd           | Version:  6.0
     \\/     M anipulation  |
\*---------------------------------------------------------------------------*/
FoamFile
{
    version     2.0;
    format      ascii;
    class       volScalarField;
    location    "75";
    object      p;
}
// * * * * * * * * * * * * * * * * * * * * * * * * * * * * * * * * * * * * * //

dimensions      [0 2 -2 0 0 0 0];

internalField   nonuniform List<scalar> 
34500
(
1.00611
1.00613
1.00595
1.00563
1.00516
1.00462
1.00405
1.00349
1.00295
1.00245
1.00198
1.00161
1.00117
1.00103
1.0011
1.00612
1.00616
1.00604
1.0058
1.00541
1.00495
1.00443
1.00391
1.00338
1.00287
1.00237
1.00196
1.00145
1.00139
1.00138
1.00612
1.00615
1.00601
1.00573
1.00531
1.00479
1.00423
1.00366
1.00309
1.00255
1.00203
1.00163
1.00118
1.00122
1.0012
1.00612
1.00615
1.00598
1.00569
1.00524
1.0047
1.00412
1.00353
1.00294
1.0024
1.00189
1.0015
1.00109
1.0012
1.00128
1.00613
1.00616
1.00599
1.00571
1.00527
1.00475
1.00418
1.0036
1.00303
1.00249
1.00198
1.00159
1.00118
1.0013
1.00141
1.00613
1.00617
1.00601
1.00574
1.00531
1.0048
1.00424
1.00366
1.00309
1.00256
1.00204
1.00164
1.00122
1.00134
1.00145
1.00614
1.00617
1.00602
1.00574
1.00532
1.00481
1.00424
1.00366
1.00308
1.00254
1.00201
1.00161
1.0012
1.00132
1.00146
1.00615
1.00618
1.00603
1.00575
1.00532
1.0048
1.00423
1.00364
1.00305
1.0025
1.00197
1.00157
1.00117
1.0013
1.00147
1.00616
1.00619
1.00603
1.00576
1.00533
1.00481
1.00424
1.00364
1.00305
1.00249
1.00196
1.00156
1.00117
1.00129
1.00148
1.00617
1.0062
1.00605
1.00577
1.00534
1.00483
1.00426
1.00366
1.00306
1.0025
1.00196
1.00156
1.00117
1.00128
1.00147
1.00619
1.00622
1.00606
1.00578
1.00535
1.00484
1.00427
1.00367
1.00307
1.0025
1.00196
1.00155
1.00116
1.00125
1.00145
1.0062
1.00623
1.00607
1.00579
1.00536
1.00484
1.00427
1.00367
1.00307
1.0025
1.00195
1.00154
1.00115
1.00123
1.00142
1.00621
1.00625
1.00609
1.0058
1.00537
1.00485
1.00428
1.00368
1.00307
1.00249
1.00195
1.00152
1.00114
1.00119
1.00138
1.00623
1.00627
1.00611
1.00582
1.00538
1.00486
1.00428
1.00368
1.00307
1.00249
1.00194
1.00151
1.00112
1.00116
1.00134
1.00625
1.00629
1.00613
1.00585
1.00541
1.00488
1.0043
1.00369
1.00307
1.00249
1.00193
1.0015
1.00111
1.00113
1.00129
1.00627
1.00631
1.00616
1.00587
1.00544
1.00491
1.00432
1.0037
1.00308
1.00249
1.00193
1.00149
1.0011
1.00109
1.00123
1.00629
1.00633
1.00618
1.00591
1.00547
1.00494
1.00435
1.00372
1.00309
1.0025
1.00193
1.00148
1.00108
1.00104
1.00117
1.00631
1.00636
1.00621
1.00593
1.0055
1.00497
1.00438
1.00375
1.00311
1.0025
1.00192
1.00146
1.00106
1.001
1.0011
1.00634
1.00638
1.00623
1.00596
1.00553
1.00501
1.0044
1.00377
1.00312
1.0025
1.00191
1.00144
1.00103
1.00095
1.00104
1.00636
1.00641
1.00626
1.00599
1.00556
1.00503
1.00443
1.00379
1.00313
1.0025
1.0019
1.00142
1.001
1.00089
1.00096
1.00639
1.00643
1.00628
1.00601
1.00558
1.00505
1.00445
1.0038
1.00313
1.0025
1.00188
1.00139
1.00096
1.00083
1.00089
1.00642
1.00646
1.0063
1.00603
1.00559
1.00506
1.00446
1.0038
1.00313
1.00248
1.00186
1.00136
1.00092
1.00077
1.00081
1.00645
1.00649
1.00633
1.00605
1.00561
1.00507
1.00446
1.0038
1.00312
1.00247
1.00184
1.00132
1.00088
1.00071
1.00073
1.00648
1.00652
1.00635
1.00607
1.00562
1.00508
1.00446
1.0038
1.00311
1.00245
1.00181
1.00129
1.00084
1.00065
1.00065
1.00651
1.00656
1.00638
1.00609
1.00564
1.00509
1.00447
1.0038
1.00311
1.00244
1.00179
1.00126
1.0008
1.00059
1.00058
1.00654
1.00659
1.00642
1.00612
1.00566
1.00511
1.00448
1.0038
1.0031
1.00243
1.00177
1.00123
1.00077
1.00053
1.0005
1.00658
1.00663
1.00646
1.00616
1.00569
1.00513
1.0045
1.00381
1.00311
1.00242
1.00176
1.0012
1.00073
1.00048
1.00042
1.00661
1.00667
1.0065
1.0062
1.00573
1.00517
1.00452
1.00383
1.00312
1.00242
1.00175
1.00118
1.00069
1.00042
1.00034
1.00665
1.00671
1.00655
1.00625
1.00578
1.00521
1.00456
1.00386
1.00313
1.00242
1.00174
1.00115
1.00065
1.00036
1.00025
1.00669
1.00675
1.00659
1.0063
1.00583
1.00525
1.00459
1.00388
1.00315
1.00242
1.00173
1.00113
1.00061
1.00029
1.00017
1.00673
1.0068
1.00664
1.00635
1.00588
1.0053
1.00463
1.00391
1.00316
1.00243
1.00171
1.0011
1.00057
1.00022
1.00008
1.00677
1.00684
1.00669
1.0064
1.00593
1.00535
1.00467
1.00394
1.00318
1.00242
1.0017
1.00106
1.00052
1.00015
0.999986
1.00682
1.00688
1.00673
1.00645
1.00598
1.00539
1.00471
1.00396
1.00318
1.00242
1.00167
1.00102
1.00046
1.00008
0.999894
1.00686
1.00693
1.00677
1.00649
1.00602
1.00543
1.00473
1.00398
1.00319
1.0024
1.00165
1.00098
1.0004
1
0.999799
1.00691
1.00697
1.00681
1.00653
1.00606
1.00546
1.00476
1.00399
1.00319
1.00239
1.00162
1.00093
1.00034
0.999924
0.999705
1.00696
1.00702
1.00685
1.00657
1.00609
1.00549
1.00478
1.004
1.00318
1.00237
1.00158
1.00088
1.00028
0.999844
0.999608
1.00701
1.00707
1.0069
1.0066
1.00612
1.00551
1.0048
1.00401
1.00318
1.00235
1.00155
1.00083
1.00022
0.999764
0.999512
1.00706
1.00712
1.00694
1.00664
1.00614
1.00553
1.00481
1.00401
1.00317
1.00233
1.00151
1.00078
1.00015
0.999682
0.999415
1.00711
1.00717
1.00698
1.00667
1.00617
1.00555
1.00482
1.00401
1.00316
1.0023
1.00148
1.00073
1.00009
0.999602
0.999319
1.00717
1.00722
1.00703
1.00671
1.0062
1.00556
1.00482
1.00401
1.00314
1.00228
1.00144
1.00068
1.00002
0.999521
0.999223
1.00723
1.00728
1.00708
1.00675
1.00623
1.00559
1.00483
1.004
1.00313
1.00225
1.0014
1.00063
0.999963
0.999442
0.999128
1.00729
1.00735
1.00714
1.0068
1.00627
1.00561
1.00485
1.00401
1.00312
1.00224
1.00137
1.00059
0.999903
0.999364
0.999032
1.00735
1.00741
1.0072
1.00686
1.00632
1.00565
1.00487
1.00402
1.00313
1.00223
1.00135
1.00055
0.999847
0.999288
0.998937
1.00742
1.00748
1.00727
1.00693
1.00638
1.0057
1.00491
1.00405
1.00314
1.00222
1.00133
1.00051
0.99979
0.999211
0.998838
1.00749
1.00755
1.00735
1.007
1.00645
1.00576
1.00496
1.00409
1.00316
1.00223
1.00131
1.00047
0.999734
0.999132
0.998739
1.00756
1.00762
1.00742
1.00708
1.00652
1.00583
1.00502
1.00413
1.00319
1.00223
1.0013
1.00044
0.999674
0.999049
0.998635
1.00762
1.0077
1.0075
1.00716
1.0066
1.0059
1.00508
1.00418
1.00321
1.00224
1.00128
1.0004
0.999611
0.998964
0.998529
1.0077
1.00777
1.00758
1.00724
1.00668
1.00597
1.00514
1.00422
1.00324
1.00224
1.00126
1.00035
0.999542
0.998873
0.99842
1.00777
1.00785
1.00766
1.00731
1.00675
1.00603
1.00519
1.00425
1.00325
1.00223
1.00123
1.0003
0.999469
0.998781
0.99831
1.00784
1.00792
1.00773
1.00739
1.00681
1.00609
1.00523
1.00428
1.00326
1.00222
1.0012
1.00024
0.999393
0.998685
0.998197
1.00792
1.008
1.0078
1.00746
1.00687
1.00614
1.00527
1.0043
1.00326
1.0022
1.00116
1.00018
0.999316
0.99859
0.998084
1.00799
1.00807
1.00788
1.00752
1.00693
1.00619
1.0053
1.00431
1.00326
1.00218
1.00112
1.00012
0.999237
0.998493
0.997969
1.00807
1.00815
1.00795
1.00759
1.00699
1.00624
1.00534
1.00433
1.00326
1.00216
1.00108
1.00006
0.999159
0.998395
0.997853
1.00814
1.00823
1.00802
1.00766
1.00706
1.00629
1.00538
1.00436
1.00326
1.00215
1.00104
1.00001
0.999079
0.998295
0.997733
1.00822
1.0083
1.0081
1.00773
1.00712
1.00635
1.00542
1.00438
1.00327
1.00213
1.00101
0.999947
0.998998
0.998193
0.997612
1.0083
1.00838
1.00817
1.00781
1.00719
1.00641
1.00547
1.00441
1.00328
1.00212
1.00097
0.999884
0.998912
0.998086
0.997487
1.00839
1.00846
1.00825
1.00788
1.00726
1.00647
1.00552
1.00444
1.00329
1.0021
1.00093
0.999817
0.998822
0.997976
0.997359
1.00847
1.00854
1.00833
1.00795
1.00733
1.00652
1.00556
1.00447
1.00329
1.00208
1.00088
0.999744
0.998727
0.997861
0.997229
1.00856
1.00862
1.0084
1.00802
1.00739
1.00657
1.00559
1.00448
1.00328
1.00205
1.00082
0.999666
0.998629
0.997745
0.997099
1.00865
1.00871
1.00848
1.00809
1.00744
1.00661
1.00562
1.00448
1.00326
1.00201
1.00076
0.999583
0.998528
0.997628
0.996968
1.00874
1.0088
1.00856
1.00815
1.00749
1.00665
1.00563
1.00448
1.00324
1.00196
1.0007
0.999501
0.998428
0.997512
0.996839
1.00884
1.00889
1.00864
1.00821
1.00754
1.00667
1.00564
1.00447
1.00321
1.00192
1.00063
0.99942
0.998331
0.997398
0.99671
1.00894
1.00899
1.00872
1.00828
1.00759
1.0067
1.00565
1.00446
1.00319
1.00188
1.00058
0.999345
0.99824
0.997289
0.996584
1.00905
1.00909
1.00881
1.00836
1.00764
1.00674
1.00567
1.00447
1.00317
1.00184
1.00053
0.999278
0.998154
0.997183
0.996459
1.00915
1.0092
1.00891
1.00845
1.00771
1.00679
1.0057
1.00448
1.00317
1.00183
1.00049
0.999221
0.998075
0.99708
0.996334
1.00926
1.00931
1.00903
1.00855
1.0078
1.00686
1.00576
1.00452
1.00319
1.00182
1.00046
0.999171
0.997999
0.996978
0.996207
1.00938
1.00943
1.00915
1.00866
1.0079
1.00695
1.00583
1.00457
1.00322
1.00183
1.00045
0.999129
0.997927
0.996877
0.996078
1.00949
1.00955
1.00927
1.00879
1.00802
1.00706
1.00592
1.00465
1.00327
1.00185
1.00044
0.999088
0.997853
0.996772
0.995944
1.00961
1.00968
1.00941
1.00893
1.00816
1.00719
1.00603
1.00473
1.00333
1.00188
1.00043
0.999046
0.997776
0.996663
0.995806
1.00973
1.00981
1.00955
1.00907
1.0083
1.00732
1.00615
1.00482
1.00339
1.00191
1.00043
0.998999
0.997693
0.996547
0.995662
1.00985
1.00994
1.00968
1.00922
1.00845
1.00745
1.00626
1.00491
1.00345
1.00193
1.00041
0.998946
0.997603
0.996425
0.995513
1.00997
1.01007
1.00982
1.00936
1.00859
1.00759
1.00638
1.005
1.0035
1.00195
1.00038
0.998881
0.997503
0.996295
0.995358
1.01009
1.01019
1.00995
1.00949
1.00872
1.00771
1.00648
1.00507
1.00354
1.00195
1.00035
0.998807
0.997395
0.99616
0.995199
1.01022
1.01032
1.01008
1.00962
1.00884
1.00782
1.00657
1.00513
1.00357
1.00193
1.0003
0.998721
0.997279
0.996018
0.995035
1.01034
1.01044
1.0102
1.00974
1.00895
1.00791
1.00664
1.00517
1.00358
1.00191
1.00024
0.998629
0.997158
0.995873
0.99487
1.01047
1.01057
1.01032
1.00985
1.00905
1.00799
1.00669
1.0052
1.00357
1.00187
1.00017
0.998529
0.997032
0.995724
0.994702
1.0106
1.01069
1.01044
1.00996
1.00914
1.00806
1.00674
1.00522
1.00356
1.00183
1.00009
0.998427
0.996905
0.995576
0.994534
1.01073
1.01082
1.01055
1.01006
1.00922
1.00812
1.00678
1.00523
1.00354
1.00178
1.00001
0.998323
0.996777
0.995426
0.994364
1.01086
1.01094
1.01067
1.01016
1.0093
1.00818
1.00681
1.00524
1.00352
1.00173
0.999939
0.998222
0.996651
0.995277
0.994194
1.011
1.01108
1.01079
1.01026
1.00939
1.00824
1.00685
1.00524
1.0035
1.00168
0.999866
0.998122
0.996527
0.995129
0.994024
1.01114
1.01122
1.01092
1.01037
1.00948
1.00831
1.00689
1.00526
1.00349
1.00164
0.999799
0.998028
0.996406
0.994982
0.993854
1.01129
1.01136
1.01105
1.01049
1.00957
1.00838
1.00694
1.00528
1.00348
1.00161
0.999737
0.997937
0.996287
0.994835
0.993681
1.01144
1.01151
1.01119
1.01061
1.00968
1.00847
1.007
1.00532
1.00349
1.00159
0.999682
0.997851
0.99617
0.994689
0.993509
1.01159
1.01166
1.01133
1.01075
1.0098
1.00856
1.00707
1.00536
1.0035
1.00157
0.999631
0.997767
0.996053
0.994541
0.993333
1.01175
1.01182
1.01149
1.01089
1.00993
1.00867
1.00715
1.00542
1.00353
1.00156
0.999586
0.997686
0.995937
0.994392
0.993155
1.01191
1.01198
1.01165
1.01104
1.01006
1.00879
1.00725
1.00548
1.00356
1.00155
0.999542
0.997604
0.995819
0.994241
0.992974
1.01207
1.01215
1.01182
1.0112
1.01021
1.00892
1.00735
1.00555
1.00359
1.00155
0.9995
0.997523
0.995701
0.994088
0.99279
1.01224
1.01232
1.01199
1.01137
1.01036
1.00905
1.00746
1.00563
1.00363
1.00155
0.999458
0.997439
0.995578
0.99393
0.992601
1.01241
1.01249
1.01216
1.01154
1.01052
1.00919
1.00757
1.0057
1.00367
1.00155
0.999414
0.997354
0.995453
0.99377
0.99241
1.01258
1.01267
1.01234
1.01171
1.01068
1.00933
1.00768
1.00578
1.00371
1.00154
0.999367
0.997264
0.995324
0.993605
0.992214
1.01276
1.01285
1.01252
1.01189
1.01084
1.00947
1.00779
1.00586
1.00375
1.00154
0.999317
0.997172
0.995192
0.993438
0.992016
1.01293
1.01303
1.0127
1.01206
1.01101
1.00961
1.00791
1.00594
1.00378
1.00153
0.999263
0.997075
0.995055
0.993265
0.991813
1.01312
1.01322
1.01288
1.01224
1.01117
1.00975
1.00802
1.00601
1.00382
1.00152
0.999207
0.996976
0.994916
0.993091
0.991607
1.0133
1.0134
1.01307
1.01242
1.01133
1.00989
1.00813
1.00608
1.00385
1.0015
0.999147
0.996872
0.994772
0.992912
0.991397
1.01349
1.01359
1.01326
1.0126
1.0115
1.01003
1.00824
1.00615
1.00387
1.00149
0.999084
0.996766
0.994626
0.99273
0.991184
1.01368
1.01379
1.01345
1.01278
1.01166
1.01017
1.00834
1.00622
1.0039
1.00147
0.999019
0.996657
0.994477
0.992545
0.990967
1.01387
1.01399
1.01364
1.01296
1.01183
1.01031
1.00845
1.00629
1.00392
1.00144
0.998952
0.996546
0.994326
0.992358
0.990748
1.01407
1.01419
1.01384
1.01315
1.012
1.01045
1.00856
1.00636
1.00395
1.00142
0.998883
0.996433
0.994171
0.992167
0.990525
1.01427
1.01439
1.01404
1.01334
1.01217
1.0106
1.00867
1.00643
1.00397
1.0014
0.998814
0.996319
0.994016
0.991974
0.990299
1.01448
1.0146
1.01424
1.01353
1.01234
1.01074
1.00878
1.0065
1.004
1.00138
0.998743
0.996202
0.993857
0.991778
0.990069
1.01469
1.01481
1.01445
1.01373
1.01252
1.01089
1.00889
1.00657
1.00402
1.00135
0.998672
0.996085
0.993697
0.991579
0.989837
1.01491
1.01503
1.01466
1.01393
1.0127
1.01105
1.00901
1.00665
1.00405
1.00133
0.998599
0.995965
0.993533
0.991377
0.989601
1.01512
1.01525
1.01488
1.01413
1.01289
1.01121
1.00913
1.00672
1.00408
1.00131
0.998527
0.995845
0.993369
0.991173
0.989362
1.01535
1.01548
1.0151
1.01434
1.01308
1.01137
1.00926
1.0068
1.00411
1.00129
0.998454
0.995722
0.9932
0.990965
0.989118
1.01557
1.01571
1.01533
1.01456
1.01327
1.01153
1.00938
1.00688
1.00414
1.00127
0.99838
0.995598
0.993031
0.990754
0.988871
1.01581
1.01594
1.01556
1.01478
1.01347
1.0117
1.00952
1.00697
1.00417
1.00124
0.998305
0.995472
0.992857
0.990539
0.98862
1.01604
1.01618
1.0158
1.01501
1.01368
1.01188
1.00965
1.00706
1.00421
1.00122
0.998229
0.995344
0.992681
0.990321
0.988365
1.01628
1.01643
1.01604
1.01524
1.01389
1.01206
1.00979
1.00715
1.00424
1.0012
0.998151
0.995213
0.992502
0.990099
0.988106
1.01653
1.01668
1.01629
1.01548
1.0141
1.01224
1.00993
1.00724
1.00428
1.00118
0.998073
0.99508
0.99232
0.989874
0.987843
1.01678
1.01693
1.01654
1.01572
1.01432
1.01243
1.01007
1.00733
1.00432
1.00116
0.997992
0.994944
0.992134
0.989644
0.987576
1.01703
1.01719
1.0168
1.01596
1.01455
1.01262
1.01022
1.00743
1.00435
1.00114
0.99791
0.994806
0.991945
0.989411
0.987304
1.01729
1.01746
1.01706
1.01621
1.01478
1.01281
1.01037
1.00752
1.00439
1.00111
0.997825
0.994665
0.991752
0.989174
0.987028
1.01755
1.01773
1.01733
1.01647
1.01501
1.01301
1.01053
1.00762
1.00443
1.00109
0.997739
0.994521
0.991556
0.988932
0.986748
1.01782
1.01801
1.0176
1.01673
1.01525
1.01321
1.01068
1.00772
1.00447
1.00106
0.99765
0.994373
0.991356
0.988686
0.986462
1.0181
1.01829
1.01788
1.017
1.01549
1.01342
1.01084
1.00782
1.00451
1.00103
0.99756
0.994224
0.991152
0.988437
0.986173
1.01838
1.01857
1.01816
1.01727
1.01574
1.01363
1.011
1.00793
1.00455
1.00101
0.997467
0.99407
0.990944
0.988182
0.985878
1.01866
1.01887
1.01845
1.01755
1.01599
1.01385
1.01117
1.00803
1.00459
1.00098
0.997372
0.993913
0.990733
0.987923
0.985579
1.01895
1.01916
1.01875
1.01783
1.01625
1.01407
1.01134
1.00814
1.00462
1.00095
0.997273
0.993752
0.990516
0.98766
0.985275
1.01925
1.01947
1.01905
1.01812
1.01651
1.01429
1.01151
1.00825
1.00466
1.00092
0.997173
0.993589
0.990297
0.987392
0.984966
1.01955
1.01978
1.01935
1.01842
1.01678
1.01452
1.01168
1.00836
1.0047
1.00088
0.99707
0.993421
0.990072
0.987118
0.984651
1.01986
1.02009
1.01967
1.01872
1.01705
1.01475
1.01186
1.00847
1.00474
1.00085
0.996965
0.99325
0.989843
0.986841
0.984332
1.02017
1.02042
1.01999
1.01902
1.01733
1.01499
1.01204
1.00858
1.00478
1.00081
0.996855
0.993075
0.989609
0.986558
0.984007
1.02049
1.02074
1.02031
1.01934
1.01762
1.01523
1.01222
1.0087
1.00482
1.00077
0.996744
0.992896
0.989371
0.98627
0.983677
1.02081
1.02108
1.02065
1.01966
1.01791
1.01548
1.01241
1.00881
1.00486
1.00074
0.996629
0.992713
0.989128
0.985976
0.983341
1.02114
1.02142
1.02098
1.01998
1.0182
1.01573
1.0126
1.00893
1.0049
1.00069
0.996512
0.992526
0.98888
0.985678
0.983001
1.02148
1.02177
1.02133
1.02032
1.01851
1.01598
1.0128
1.00905
1.00494
1.00065
0.99639
0.992334
0.988627
0.985373
0.982654
1.02183
1.02213
1.02168
1.02066
1.01882
1.01625
1.01299
1.00917
1.00498
1.00061
0.996266
0.992138
0.988369
0.985064
0.982301
1.02218
1.02249
1.02205
1.021
1.01913
1.01651
1.0132
1.0093
1.00502
1.00056
0.996137
0.991936
0.988105
0.984748
0.981942
1.02254
1.02286
1.02241
1.02136
1.01946
1.01679
1.0134
1.00942
1.00505
1.00051
0.996005
0.991731
0.987836
0.984427
0.981579
1.0229
1.02324
1.02279
1.02172
1.01978
1.01706
1.01361
1.00955
1.00509
1.00046
0.995869
0.99152
0.98756
0.984099
0.981207
1.02327
1.02362
1.02317
1.02209
1.02012
1.01735
1.01382
1.00968
1.00513
1.0004
0.995729
0.991304
0.98728
0.983766
0.980831
1.02365
1.02402
1.02357
1.02247
1.02046
1.01763
1.01404
1.00981
1.00516
1.00034
0.995584
0.991082
0.986992
0.983425
0.980447
1.02404
1.02442
1.02397
1.02285
1.02081
1.01793
1.01426
1.00994
1.0052
1.00028
0.995435
0.990855
0.9867
0.983079
0.980058
1.02443
1.02483
1.02437
1.02325
1.02117
1.01823
1.01448
1.01007
1.00523
1.00022
0.99528
0.990621
0.986399
0.982726
0.979661
1.02483
1.02525
1.02479
1.02365
1.02154
1.01854
1.01471
1.0102
1.00527
1.00015
0.995122
0.990383
0.986094
0.982366
0.979259
1.02524
1.02567
1.02522
1.02406
1.02191
1.01885
1.01494
1.01034
1.0053
1.00008
0.994957
0.990137
0.98578
0.981999
0.978849
1.02566
1.02611
1.02565
1.02448
1.02229
1.01917
1.01517
1.01047
1.00533
1.00001
0.994788
0.989885
0.98546
0.981625
0.978432
1.02609
1.02655
1.02609
1.02491
1.02268
1.01949
1.01541
1.01061
1.00535
0.999931
0.994612
0.989626
0.985132
0.981243
0.978008
1.02653
1.02701
1.02655
1.02534
1.02307
1.01982
1.01565
1.01075
1.00538
0.999849
0.994431
0.989361
0.984798
0.980854
0.977577
1.02697
1.02747
1.02701
1.02579
1.02348
1.02016
1.0159
1.01088
1.0054
0.999761
0.994243
0.989088
0.984455
0.980457
0.977138
1.02742
1.02794
1.02748
1.02625
1.02389
1.0205
1.01615
1.01102
1.00543
0.99967
0.99405
0.988808
0.984105
0.980053
0.976692
1.02788
1.02842
1.02797
1.02671
1.02431
1.02085
1.0164
1.01116
1.00544
0.999572
0.993849
0.988519
0.983746
0.97964
0.976237
1.02836
1.02892
1.02846
1.02719
1.02474
1.02121
1.01666
1.0113
1.00546
0.999471
0.993641
0.988223
0.98338
0.979219
0.975776
1.02884
1.02942
1.02896
1.02768
1.02518
1.02157
1.01692
1.01144
1.00547
0.999362
0.993426
0.987918
0.983004
0.978789
0.975306
1.02933
1.02993
1.02948
1.02817
1.02563
1.02194
1.01718
1.01158
1.00548
0.999249
0.993203
0.987606
0.98262
0.978351
0.974828
1.02983
1.03046
1.03
1.02868
1.02609
1.02232
1.01745
1.01172
1.00549
0.999129
0.992972
0.987283
0.982226
0.977904
0.974341
1.03034
1.03099
1.03054
1.0292
1.02656
1.0227
1.01772
1.01186
1.00549
0.999003
0.992733
0.986952
0.981823
0.977448
0.973847
1.03086
1.03154
1.03109
1.02973
1.02703
1.02309
1.01799
1.01199
1.00549
0.998868
0.992485
0.986611
0.98141
0.976982
0.973343
1.0314
1.0321
1.03165
1.03027
1.02752
1.02349
1.01827
1.01213
1.00548
0.998728
0.992228
0.986261
0.980988
0.976507
0.972831
1.03194
1.03267
1.03223
1.03083
1.02802
1.02389
1.01855
1.01227
1.00547
0.998579
0.991961
0.985899
0.980554
0.976022
0.972309
1.0325
1.03325
1.03281
1.03139
1.02853
1.02431
1.01883
1.0124
1.00545
0.998422
0.991685
0.985528
0.980111
0.975527
0.97178
1.03307
1.03385
1.03341
1.03197
1.02905
1.02473
1.01912
1.01253
1.00543
0.998256
0.991398
0.985145
0.979656
0.975022
0.971239
1.03365
1.03446
1.03403
1.03257
1.02958
1.02515
1.01941
1.01267
1.0054
0.998082
0.9911
0.984751
0.979191
0.974507
0.970691
1.03424
1.03508
1.03465
1.03317
1.03012
1.02559
1.0197
1.01279
1.00537
0.997897
0.990791
0.984345
0.978714
0.97398
0.970132
1.03484
1.03572
1.0353
1.03379
1.03067
1.02603
1.01999
1.01292
1.00532
0.997703
0.990471
0.983927
0.978225
0.973443
0.969564
1.03546
1.03637
1.03595
1.03442
1.03123
1.02648
1.02029
1.01304
1.00527
0.997498
0.990137
0.983496
0.977724
0.972895
0.968985
1.03609
1.03703
1.03662
1.03507
1.03181
1.02694
1.02058
1.01316
1.00522
0.997282
0.989792
0.983053
0.977211
0.972335
0.968397
1.03674
1.03771
1.03731
1.03573
1.0324
1.0274
1.02088
1.01328
1.00515
0.997053
0.989433
0.982595
0.976684
0.971763
0.967797
1.0374
1.03841
1.03801
1.03641
1.033
1.02787
1.02118
1.01339
1.00507
0.996813
0.98906
0.982124
0.976145
0.971181
0.967189
1.03807
1.03912
1.03873
1.0371
1.03361
1.02835
1.02149
1.01349
1.00499
0.996559
0.988673
0.981638
0.975592
0.970585
0.966568
1.03876
1.03985
1.03947
1.03781
1.03424
1.02884
1.02179
1.01359
1.00489
0.996292
0.988271
0.981138
0.975025
0.969978
0.965938
1.03946
1.04059
1.04022
1.03854
1.03488
1.02933
1.02209
1.01368
1.00478
0.99601
0.987853
0.980622
0.974444
0.969357
0.965296
1.04018
1.04136
1.041
1.03928
1.03553
1.02983
1.02239
1.01377
1.00466
0.995714
0.987419
0.980091
0.973848
0.968724
0.964644
1.04092
1.04214
1.04179
1.04004
1.0362
1.03034
1.0227
1.01385
1.00453
0.995401
0.986968
0.979542
0.973237
0.968077
0.963979
1.04167
1.04293
1.0426
1.04082
1.03688
1.03086
1.023
1.01392
1.00438
0.995072
0.9865
0.978977
0.972611
0.967417
0.963304
1.04244
1.04375
1.04342
1.04161
1.03757
1.03138
1.0233
1.01398
1.00422
0.994725
0.986013
0.978394
0.971969
0.966743
0.962616
1.04323
1.04459
1.04427
1.04243
1.03828
1.03191
1.0236
1.01403
1.00404
0.99436
0.985508
0.977794
0.971311
0.966055
0.961917
1.04403
1.04544
1.04514
1.04326
1.039
1.03244
1.02389
1.01407
1.00385
0.993975
0.984982
0.977175
0.970636
0.965353
0.961204
1.04486
1.04632
1.04603
1.04412
1.03974
1.03298
1.02418
1.0141
1.00364
0.993571
0.984437
0.976537
0.969945
0.964636
0.96048
1.0457
1.04722
1.04695
1.04499
1.04049
1.03353
1.02447
1.01411
1.00341
0.993145
0.98387
0.975879
0.969236
0.963904
0.959743
1.04657
1.04814
1.04788
1.04589
1.04126
1.03408
1.02475
1.01411
1.00316
0.992698
0.983282
0.975202
0.96851
0.963158
0.958993
1.04745
1.04908
1.04884
1.04681
1.04204
1.03464
1.02503
1.0141
1.00289
0.992226
0.98267
0.974502
0.967765
0.962394
0.958229
1.04835
1.05005
1.04983
1.04775
1.04284
1.0352
1.02529
1.01407
1.00259
0.991732
0.982035
0.973783
0.967002
0.961616
0.957452
1.04928
1.05104
1.05084
1.04871
1.04365
1.03577
1.02555
1.01402
1.00228
0.991211
0.981375
0.97304
0.966219
0.960821
0.956661
1.05023
1.05206
1.05188
1.0497
1.04448
1.03634
1.02581
1.01395
1.00194
0.990664
0.980691
0.972276
0.965417
0.96001
0.955857
1.0512
1.0531
1.05294
1.05071
1.04533
1.03691
1.02604
1.01386
1.00157
0.990089
0.97998
0.971488
0.964595
0.959182
0.955037
1.0522
1.05417
1.05403
1.05174
1.04619
1.03748
1.02627
1.01375
1.00117
0.989486
0.979243
0.970677
0.963753
0.958337
0.954205
1.05322
1.05526
1.05515
1.0528
1.04706
1.03806
1.02649
1.01361
1.00075
0.988852
0.978477
0.96984
0.96289
0.957474
0.953356
1.05427
1.05639
1.0563
1.05389
1.04796
1.03863
1.02668
1.01345
1.00029
0.988188
0.977683
0.96898
0.962007
0.956594
0.952494
1.05534
1.05754
1.05748
1.05501
1.04886
1.03921
1.02686
1.01326
0.999804
0.98749
0.976859
0.968093
0.9611
0.955695
0.951616
1.05644
1.05873
1.0587
1.05615
1.04978
1.03978
1.02703
1.01304
0.999282
0.98676
0.976004
0.96718
0.960173
0.954779
0.950724
1.05757
1.05994
1.05994
1.05732
1.05072
1.04034
1.02717
1.01279
0.998722
0.985993
0.975118
0.96624
0.959223
0.953843
0.949815
1.05873
1.06119
1.06123
1.05852
1.05167
1.0409
1.02728
1.0125
0.998125
0.98519
0.9742
0.965273
0.95825
0.952889
0.948892
1.05992
1.06248
1.06254
1.05975
1.05263
1.04146
1.02737
1.01218
0.997487
0.984348
0.973248
0.964278
0.957253
0.951915
0.947952
1.06114
1.0638
1.0639
1.06101
1.05361
1.042
1.02744
1.01181
0.996807
0.983468
0.972262
0.963254
0.956234
0.950923
0.946998
1.06239
1.06516
1.06529
1.0623
1.0546
1.04253
1.02747
1.01141
0.996082
0.982546
0.97124
0.9622
0.95519
0.949911
0.946026
1.06367
1.06655
1.06673
1.06362
1.0556
1.04305
1.02746
1.01096
0.995312
0.981582
0.970182
0.961117
0.954122
0.948879
0.94504
1.06499
1.06799
1.0682
1.06498
1.05661
1.04355
1.02742
1.01046
0.994492
0.980574
0.969087
0.960002
0.953028
0.947827
0.944036
1.06635
1.06946
1.06972
1.06636
1.05763
1.04403
1.02734
1.00991
0.993623
0.979521
0.967954
0.958858
0.951911
0.946756
0.943017
1.06774
1.07098
1.07128
1.06778
1.05866
1.04449
1.02721
1.0093
0.992699
0.97842
0.966781
0.95768
0.950767
0.945663
0.94198
1.06918
1.07255
1.07289
1.06924
1.05969
1.04492
1.02703
1.00864
0.991721
0.977271
0.965569
0.956472
0.949598
0.944551
0.940929
1.07065
1.07416
1.07455
1.07073
1.06072
1.04532
1.0268
1.00792
0.990683
0.976072
0.964316
0.95523
0.948403
0.943418
0.939859
1.07216
1.07583
1.07626
1.07225
1.06176
1.04569
1.02651
1.00713
0.989587
0.974823
0.963022
0.953956
0.947182
0.942265
0.938774
1.07372
1.07754
1.07803
1.07381
1.06279
1.04601
1.02616
1.00627
0.988426
0.973519
0.961684
0.952647
0.945934
0.94109
0.93767
1.07533
1.07931
1.07984
1.0754
1.06382
1.04629
1.02574
1.00535
0.987201
0.972162
0.960304
0.951306
0.944661
0.939896
0.936552
1.07698
1.08113
1.08172
1.07702
1.06483
1.04652
1.02525
1.00434
0.985908
0.970749
0.958879
0.949929
0.943361
0.93868
0.935415
1.07868
1.08301
1.08365
1.07867
1.06584
1.0467
1.02468
1.00326
0.984545
0.969279
0.95741
0.948519
0.942034
0.937444
0.934263
1.08043
1.08496
1.08564
1.08036
1.06682
1.04681
1.02402
1.00209
0.983109
0.967751
0.955895
0.947074
0.94068
0.936186
0.933093
1.08223
1.08697
1.0877
1.08208
1.06778
1.04685
1.02328
1.00083
0.981598
0.966163
0.954336
0.945594
0.939301
0.934908
0.931908
1.08409
1.08905
1.08982
1.08382
1.06872
1.04681
1.02243
0.999485
0.98001
0.964515
0.952729
0.944079
0.937894
0.933609
0.930705
1.08601
1.0912
1.09201
1.08559
1.06961
1.04669
1.02149
0.99804
0.978342
0.962805
0.951077
0.94253
0.936461
0.93229
0.929487
1.08799
1.09343
1.09427
1.08739
1.07046
1.04647
1.02043
0.996492
0.976593
0.961032
0.949377
0.940945
0.935001
0.930949
0.928252
1.09004
1.09573
1.09661
1.0892
1.07125
1.04615
1.01925
0.99484
0.97476
0.959196
0.947631
0.939326
0.933515
0.92959
0.927002
1.09215
1.09812
1.09901
1.09103
1.07199
1.04571
1.01795
0.993079
0.972841
0.957297
0.945838
0.937672
0.932003
0.928208
0.925734
1.09433
1.1006
1.1015
1.09287
1.07265
1.04514
1.01652
0.991205
0.970836
0.955333
0.943999
0.935985
0.930465
0.926808
0.924452
1.09658
1.10318
1.10405
1.09471
1.07322
1.04444
1.01494
0.989213
0.968742
0.953304
0.942112
0.934262
0.928901
0.925387
0.923153
1.09891
1.10585
1.10669
1.09654
1.07369
1.04359
1.01322
0.987102
0.966558
0.951211
0.94018
0.932507
0.927314
0.923948
0.92184
1.10132
1.10863
1.10941
1.09836
1.07406
1.04258
1.01134
0.984866
0.964283
0.949053
0.938201
0.930718
0.9257
0.922488
0.92051
1.10382
1.11152
1.1122
1.10016
1.07429
1.04139
1.00929
0.982504
0.961918
0.946831
0.936178
0.928898
0.924063
0.921011
0.919167
1.10641
1.11453
1.11508
1.10193
1.07438
1.04001
1.00708
0.980013
0.95946
0.944545
0.93411
0.927045
0.922401
0.919513
0.917807
1.10909
1.11767
1.11802
1.10364
1.0743
1.03843
1.00469
0.977391
0.956911
0.942197
0.932
0.925162
0.920718
0.917999
0.916435
1.11188
1.12093
1.12105
1.10529
1.07404
1.03663
1.00212
0.974635
0.954271
0.939786
0.929846
0.923249
0.91901
0.916465
0.915045
1.11477
1.12434
1.12414
1.10685
1.07357
1.0346
0.999351
0.971746
0.951541
0.937315
0.927652
0.921307
0.917282
0.914916
0.913644
1.11778
1.12789
1.12729
1.10831
1.07288
1.03232
0.99639
0.968723
0.948721
0.934784
0.925417
0.919336
0.915531
0.913348
0.912227
1.12091
1.1316
1.1305
1.10964
1.07193
1.02978
0.99323
0.965566
0.945814
0.932197
0.923145
0.91734
0.913761
0.911765
0.910798
1.12417
1.13547
1.13375
1.11082
1.0707
1.02696
0.989866
0.962276
0.942821
0.929555
0.920836
0.915317
0.91197
0.910164
0.909354
1.12757
1.13951
1.13704
1.11181
1.06916
1.02385
0.986297
0.958856
0.939746
0.92686
0.918494
0.913271
0.910162
0.908551
0.9079
1.13113
1.14373
1.14033
1.11259
1.06728
1.02044
0.98252
0.955307
0.936591
0.924114
0.916118
0.911201
0.908334
0.90692
0.90643
1.13484
1.14814
1.14363
1.11311
1.06505
1.01672
0.978537
0.951634
0.93336
0.921322
0.913712
0.90911
0.906491
0.905277
0.904951
1.13874
1.15274
1.14689
1.11334
1.06241
1.01267
0.974349
0.947841
0.930056
0.918485
0.911278
0.906999
0.90463
0.903618
0.903458
1.14282
1.15753
1.1501
1.11323
1.05936
1.00829
0.969961
0.943933
0.926686
0.915609
0.90882
0.904871
0.902756
0.901949
0.901956
1.14711
1.16252
1.15322
1.11274
1.05584
1.00357
0.965377
0.939917
0.923251
0.912695
0.906338
0.902725
0.900867
0.900266
0.90044
1.15163
1.16771
1.15621
1.11182
1.05184
0.998506
0.960605
0.935801
0.91976
0.909749
0.903836
0.900565
0.898966
0.898573
0.898917
1.15639
1.17309
1.15901
1.1104
1.04733
0.993105
0.955655
0.931591
0.916216
0.906774
0.901317
0.898391
0.897052
0.896867
0.897382
1.16142
1.17866
1.16159
1.10844
1.04229
0.987368
0.950539
0.927297
0.912628
0.903775
0.898785
0.896207
0.895129
0.895154
0.89584
1.16674
1.18441
1.16387
1.10587
1.03668
0.981303
0.945269
0.922929
0.909
0.900756
0.89624
0.894013
0.893195
0.893429
0.894286
1.17238
1.19032
1.16579
1.10262
1.0305
0.974922
0.939863
0.918496
0.90534
0.897724
0.893688
0.891812
0.891255
0.891698
0.892727
1.17838
1.19636
1.16727
1.09865
1.02373
0.968242
0.934337
0.91401
0.901655
0.894681
0.89113
0.889604
0.889306
0.889958
0.891158
1.18476
1.2025
1.16822
1.09387
1.01636
0.961288
0.928711
0.909481
0.897952
0.891634
0.888571
0.887393
0.887354
0.888213
0.889583
1.19156
1.2087
1.16854
1.08824
1.0084
0.954086
0.923005
0.904921
0.894239
0.888586
0.886011
0.885178
0.885395
0.886461
0.887999
1.19882
1.21489
1.16812
1.08168
0.999849
0.946669
0.917241
0.900342
0.890525
0.885545
0.883457
0.882965
0.883436
0.884706
0.886411
1.20657
1.22101
1.16685
1.07415
0.990738
0.939077
0.911441
0.895755
0.886815
0.882513
0.880908
0.880752
0.881473
0.882945
0.884814
1.21487
1.22697
1.1646
1.06559
0.981098
0.931351
0.905627
0.891171
0.88312
0.879498
0.878369
0.878543
0.879512
0.881182
0.883213
1.22375
1.23265
1.16124
1.05597
0.970975
0.923537
0.899821
0.886603
0.879445
0.876501
0.875842
0.876338
0.877551
0.879416
0.881603
1.23326
1.23794
1.15662
1.04527
0.960428
0.915687
0.894044
0.882061
0.8758
0.87353
0.87333
0.874142
0.875594
0.877649
0.879989
1.24343
1.24267
1.1506
1.03347
0.949532
0.90785
0.888317
0.877556
0.872191
0.870586
0.870833
0.871952
0.873639
0.875879
0.878367
1.25429
1.24666
1.14303
1.0206
0.938377
0.900078
0.882657
0.8731
0.868628
0.867676
0.868357
0.869775
0.871691
0.874109
0.876741
1.26587
1.24969
1.13377
1.0067
0.927064
0.892421
0.877082
0.868702