1.275 	2.15223e-18 	-2.76991e-20 	-0.0341397 	-0.000445874 	-1.97614e-22
1.825 	2.15223e-18 	-1.39322e-20 	-0.00887677 	-0.00276743 	1.77205e-21
2.375 	2.15223e-18 	-2.66896e-23 	0.116983 	-0.00325731 	-7.3975e-22
