/*--------------------------------*- C++ -*----------------------------------*\
  =========                 |
  \\      /  F ield         | OpenFOAM: The Open Source CFD Toolbox
   \\    /   O peration     | Website:  https://openfoam.org
    \\  /    A nd           | Version:  6.0
     \\/     M anipulation  |
\*---------------------------------------------------------------------------*/
FoamFile
{
    version     2.0;
    format      ascii;
    class       volVectorField;
    location    "19";
    object      U;
}
// * * * * * * * * * * * * * * * * * * * * * * * * * * * * * * * * * * * * * //

dimensions      [0 1 -1 0 0 0 0];

internalField   nonuniform List<vector> 
8000
(
(-0.000398589 0.000443538 -1.37339e-21)
(-0.00209862 0.00106855 8.00338e-21)
(-0.00514639 0.00147655 -9.98339e-21)
(-0.00877607 0.00171901 7.76189e-21)
(-0.0125911 0.00183327 3.85297e-21)
(-0.0163653 0.00184837 -1.17565e-20)
(-0.019936 0.00178797 -1.05017e-21)
(-0.0231954 0.00167141 -3.68076e-22)
(-0.0260797 0.0015146 -6.30553e-21)
(-0.028557 0.0013308 -3.43399e-21)
(-0.0306191 0.00113122 2.61115e-21)
(-0.0322755 0.000925409 9.89549e-21)
(-0.0335486 0.00072157 -7.84088e-22)
(-0.0344707 0.000526722 1.04339e-21)
(-0.0350806 0.000346838 -1.01008e-20)
(-0.0354227 0.000186894 6.24405e-21)
(-0.0355443 5.09005e-05 -8.92788e-21)
(-0.0354863 -5.7917e-05 1.35794e-20)
(-0.0352799 -0.00013681 -1.55575e-23)
(-0.0350306 -0.000185002 3.38791e-21)
(-0.000466146 0.00132447 4.55727e-21)
(-0.00225113 0.0031891 -2.54425e-20)
(-0.00533419 0.00440495 -1.80466e-20)
(-0.00896108 0.00512608 -1.25197e-20)
(-0.012743 0.00546422 -1.6401e-20)
(-0.0164596 0.00550615 3.6532e-21)
(-0.0199529 0.00532258 -1.94633e-20)
(-0.023119 0.00497123 -4.39248e-21)
(-0.0258968 0.00449955 1.46657e-21)
(-0.0282568 0.00394715 1.50068e-20)
(-0.0301923 0.00334748 -1.64563e-20)
(-0.0317143 0.00272913 2.30461e-20)
(-0.0328462 0.00211662 -1.73395e-20)
(-0.0336213 0.00153103 -2.06113e-20)
(-0.0340794 0.000990335 -2.83923e-20)
(-0.0342659 0.000509539 1.83904e-20)
(-0.034229 0.000100775 -5.83275e-21)
(-0.0340105 -0.000226139 -2.14586e-20)
(-0.0336416 -0.000462778 2.04116e-20)
(-0.0332317 -0.000606891 -1.75819e-20)
(-0.000599875 0.0021887 4.45629e-20)
(-0.00255201 0.0052644 2.53922e-20)
(-0.00570299 0.00726583 2.91973e-20)
(-0.00932186 0.00844862 2.49559e-21)
(-0.0130355 0.00899806 1.67715e-20)
(-0.0166351 0.00905783 2.1144e-20)
(-0.0199724 0.0087448 -3.92065e-20)
(-0.0229508 0.00815422 -2.08961e-20)
(-0.0255151 0.00736439 -2.74888e-20)
(-0.0276401 0.00644064 2.96021e-20)
(-0.0293225 0.00543824 -2.27875e-20)
(-0.0305758 0.00440447 -2.94646e-20)
(-0.0314258 0.0033801 -1.08249e-20)
(-0.0319075 0.00240029 1.03229e-20)
(-0.0320627 0.00149515 -2.73073e-21)
(-0.0319386 0.000690026 4.24887e-21)
(-0.0315856 5.4782e-06 4.79218e-20)
(-0.0310467 -0.000541643 -6.97611e-21)
(-0.0303539 -0.000936679 -4.88754e-20)
(-0.0296239 -0.00117614 7.47024e-20)
(-0.000796994 0.00302513 1.56898e-20)
(-0.00299294 0.00726447 -2.39492e-20)
(-0.00623907 0.0100146 -6.24527e-21)
(-0.00983977 0.0116312 1.19051e-20)
(-0.0134456 0.0123716 3.42237e-20)
(-0.0168653 0.0124348 7.5995e-20)
(-0.0199651 0.0119826 7.52314e-20)
(-0.0226595 0.0111462 6.31869e-21)
(-0.024902 0.0100336 4.7067e-20)
(-0.0266737 0.00873463 7.26389e-20)
(-0.0279765 0.00732574 -5.81913e-20)
(-0.0288275 0.00587237 8.71561e-20)
(-0.0292556 0.00443127 -1.95643e-20)
(-0.0292987 0.00305171 5.16449e-21)
(-0.0290012 0.00177627 2.06284e-20)
(-0.0284129 0.000641004 2.73741e-20)
(-0.0275876 -0.000324465 -4.37656e-20)
(-0.0265703 -0.0010955 -3.64232e-20)
(-0.0253935 -0.00165023 -6.42885e-20)
(-0.0241866 -0.00198434 1.08748e-19)
(-0.00105326 0.00382268 -8.11115e-21)
(-0.0035612 0.00915952 -9.17578e-20)
(-0.00692146 0.0126075 -2.78728e-20)
(-0.0104863 0.0146197 -6.91874e-20)
(-0.0139381 0.0155237 2.67274e-20)
(-0.0171096 0.0155718 -4.25447e-20)
(-0.019886 0.0149683 1.49819e-20)
(-0.022197 0.0138786 -9.22463e-20)
(-0.0240073 0.0124382 4.92972e-20)
(-0.0253066 0.0107604 -5.91022e-20)
(-0.0261031 0.00894128 -5.28301e-20)
(-0.0264189 0.00706373 -5.94607e-20)
(-0.0262867 0.00520009 5.41634e-20)
(-0.0257477 0.00341375 -4.88095e-20)
(-0.0248496 0.00176009 6.82958e-20)
(-0.023646 0.000286611 1.96293e-20)
(-0.0221944 -0.000967199 4.8656e-20)
(-0.0205428 -0.00196771 2.11838e-20)
(-0.0187249 -0.00268441 -8.49731e-20)
(-0.0168878 -0.00311277 1.60199e-19)
(-0.00136286 0.00457031 3.64555e-20)
(-0.00423934 0.01092 2.76988e-21)
(-0.0077214 0.0150013 1.68359e-20)
(-0.0112223 0.0173619 5.9734e-20)
(-0.014465 0.0183963 -9.03259e-21)
(-0.0173122 0.0184079 1.00229e-19)
(-0.0196735 0.0176403 4.51664e-20)
(-0.0214972 0.0162904 3.92909e-21)
(-0.0227621 0.014519 1.17958e-19)
(-0.0234685 0.0124605 3.87649e-20)
(-0.023632 0.010229 1.85814e-20)
(-0.0232805 0.00792371 5.92809e-20)
(-0.0224513 0.00563193 5.44837e-20)
(-0.0211892 0.00343108 9.95109e-20)
(-0.0195456 0.00138979 -8.96275e-20)
(-0.0175784 -0.000432181 1.2606e-19)
(-0.01535 -0.00198421 9.92588e-22)
(-0.0129115 -0.00322202 -1.61812e-19)
(-0.010299 -0.00410443 2.09844e-19)
(-0.00768362 -0.00462753 1.00271e-19)
(-0.00171828 0.00525683 -2.13539e-20)
(-0.00500479 0.0125164 -4.3103e-20)
(-0.00860166 0.0171539 -9.15335e-20)
(-0.0119971 0.0198074 -2.81407e-21)
(-0.0149639 0.0209351 1.63927e-20)
(-0.0174012 0.0208874 -1.22648e-19)
(-0.0192476 0.0199443 -9.20235e-20)
(-0.0204743 0.0183303 -1.33851e-20)
(-0.0210768 0.0162286 -1.18536e-19)
(-0.0210674 0.0137917 -8.25035e-20)
(-0.020471 0.0111496 -2.42202e-20)
(-0.0193214 0.00841625 -7.84145e-20)
(-0.0176607 0.00569273 -1.50746e-21)
(-0.0155377 0.00307026 -1.0486e-19)
(-0.0130075 0.00063116 4.38062e-20)
(-0.0101328 -0.00155144 -5.05125e-20)
(-0.00698106 -0.00341421 3.82194e-20)
(-0.00360772 -0.00489988 -4.98057e-20)
(-5.17406e-05 -0.00595383 -1.40646e-19)
(0.00348377 -0.00657387 -4.95196e-20)
(-0.00211005 0.00587086 -8.38886e-21)
(-0.00582933 0.0139193 -9.92877e-21)
(-0.00951584 0.0190241 7.7087e-20)
(-0.0127479 0.0219084 -1.28357e-19)
(-0.0153574 0.0230897 1.90749e-20)
(-0.0172866 0.0229613 -7.66396e-20)
(-0.0185087 0.0218348 3.63057e-20)
(-0.019021 0.0199587 1.652e-19)
(-0.0188386 0.0175341 -1.1102e-20)
(-0.017988 0.0147285 -1.25138e-19)
(-0.0165037 0.0116847 2.28037e-20)
(-0.0144264 0.00852888 4.67971e-21)
(-0.0118027 0.0053745 -2.55529e-20)
(-0.00868498 0.00232592 3.25688e-21)
(-0.0051321 -0.000520539 2.2893e-19)
(-0.00121106 -0.00307718 -3.31027e-20)
(0.00300459 -0.00526586 -6.37383e-20)
(0.00745528 -0.00701323 -1.13706e-19)
(0.0120977 -0.00824753 1.16872e-19)
(0.0166872 -0.0089695 5.83073e-20)
(-0.00252648 0.00640066 4.06769e-20)
(-0.00667839 0.0150991 -5.85926e-20)
(-0.0104074 0.0205717 8.47027e-20)
(-0.0133982 0.0236197 8.73046e-20)
(-0.0155516 0.0248145 8.15829e-20)
(-0.0168596 0.0245873 1.67039e-19)
(-0.0173353 0.0232763 1.08984e-19)
(-0.0170062 0.0211488 -2.3658e-19)
(-0.0159098 0.0184193 1.21947e-19)
(-0.0140882 0.0152658 9.60682e-20)
(-0.0115867 0.0118402 -1.73279e-21)
(-0.00845299 0.00827749 1.08364e-19)
(-0.00473795 0.00470129 8.40787e-20)
(-0.000496852 0.00122777 -4.65886e-20)
(0.00420876 -0.00203282 1.55646e-19)
(0.00930782 -0.00497693 -1.94184e-19)
(0.014721 -0.00750915 7.74641e-20)
(0.0203843 -0.00953593 9.94051e-20)
(0.0262487 -0.0109634 -2.3061e-20)
(0.032017 -0.0117964 2.321e-19)
(-0.00295337 0.00683402 8.35994e-20)
(-0.00751046 0.0160261 5.07074e-21)
(-0.0112091 0.0217573 -3.31825e-20)
(-0.0138574 0.0248987 -3.54872e-20)
(-0.0154351 0.0260686 -1.6813e-19)
(-0.0159912 0.0257305 2.48252e-20)
(-0.0155835 0.0242434 6.88618e-20)
(-0.0142739 0.0218875 -3.39749e-20)
(-0.0121248 0.0188857 2.81135e-20)
(-0.0091965 0.015421 -7.53741e-21)
(-0.0055458 0.0116495 -3.68166e-20)
(-0.00122749 0.00771087 3.5401e-20)
(0.00370384 0.00373516 -1.51378e-19)
(0.00919123 -0.00015198 1.46753e-19)
(0.0151719 -0.00382712 -1.26257e-19)
(0.021572 -0.00716995 3.94883e-20)
(0.0283072 -0.0100649 8.86374e-20)
(0.0353095 -0.0123931 -1.89597e-20)
(0.0425226 -0.0140316 -6.15103e-20)
(0.0495833 -0.0149905 -4.85572e-20)
(-0.00337356 0.00715829 -1.05816e-19)
(-0.00827642 0.0166706 -7.62037e-21)
(-0.0118422 0.0225433 2.48171e-20)
(-0.01402 0.025706 6.45145e-20)
(-0.0148791 0.0268162 -9.24625e-20)
(-0.0145315 0.0263632 -8.14344e-20)
(-0.0130853 0.0247206 1.91245e-19)
(-0.0106408 0.0221754 -1.07612e-19)
(-0.00728878 0.0189528 -6.95782e-20)
(-0.0031093 0.0152348 -9.98701e-20)
(0.00182757 0.0111759 6.6422e-20)
(0.00745961 0.00691435 -2.41376e-21)
(0.0137292 0.00258178 -1.25244e-19)
(0.0205794 -0.00169076 -2.03218e-19)
(0.0279483 -0.0057689 1.55827e-19)
(0.0357616 -0.00951554 -1.25092e-19)
(0.0439317 -0.0127922 1.78091e-19)
(0.0523878 -0.015448 -5.04817e-20)
(0.0610658 -0.017322 1.02995e-19)
(0.0695203 -0.0184292 -4.12947e-19)
(-0.00376672 0.00736042 -2.19276e-19)
(-0.00891915 0.0170032 1.56285e-19)
(-0.0122162 0.0228933 2.12608e-20)
(-0.0137661 0.026005 4.36612e-21)
(-0.0137368 0.0270261 -9.99716e-20)
(-0.0123101 0.0264644 1.49024e-19)
(-0.00964927 0.0247015 1.57242e-20)
(-0.00589691 0.0220253 -3.07917e-20)
(-0.00117562 0.0186566 -1.00051e-19)
(0.00441174 0.0147703 1.08712e-19)
(0.01078 0.0105119 2.75256e-19)
(0.0178586 0.00601144 -6.14707e-20)
(0.0255871 0.00139462 1.38116e-19)
(0.0339103 -0.00320845 -1.62408e-19)
(0.0427702 -0.00765719 -1.55078e-19)
(0.0520956 -0.0117996 9.41378e-20)
(0.0617989 -0.0154723 1.5312e-19)
(0.0718096 -0.0184852 -4.98242e-19)
(0.0820558 -0.0206266 5.98454e-20)
(0.0919915 -0.0219142 9.29288e-20)
(-0.00410904 0.00742737 1.6378e-19)
(-0.00937344 0.0169956 6.13046e-20)
(-0.0122295 0.0227737 3.11262e-19)
(-0.0129619 0.0257633 1.63083e-20)
(-0.0118458 0.0266718 -3.4966e-20)
(-0.0091382 0.0260186 -1.69165e-19)
(-0.00506182 0.0241867 1.46298e-19)
(0.000194005 0.0214588 2.63917e-19)
(0.00647125 0.0180456 1.75078e-19)
(0.0136408 0.0141083 1.27589e-19)
(0.0215993 0.00977597 1.10022e-19)
(0.0302657 0.00516175 -1.97713e-19)
(0.0395763 0.000375843 -6.09708e-20)
(0.0494785 -0.0044623 -4.53609e-20)
(0.0599216 -0.00921451 4.86138e-19)
(0.0708425 -0.0137196 -3.2594e-21)
(0.0821593 -0.0177902 -1.20171e-19)
(0.0938074 -0.0211892 -3.55342e-20)
(0.10571 -0.0236379 3.45187e-19)
(0.1172 -0.02515 5.33148e-20)
(-0.0043733 0.00734665 -6.39794e-21)
(-0.0095665 0.0166221 -1.69565e-19)
(-0.0117708 0.0221546 -2.56553e-19)
(-0.0114623 0.0249526 -7.24622e-20)
(-0.00903058 0.0257314 4.13891e-20)
(-0.00481154 0.0250143 9.31723e-21)
(0.000908605 0.0231802 2.35121e-19)
(0.00789035 0.0205014 -2.94154e-19)
(0.0159363 0.0171738 -1.12764e-19)
(0.0248866 0.0133391 -2.26572e-19)
(0.0346158 0.00910309 -1.92586e-19)
(0.0450281 0.00455264 -1.70589e-19)
(0.0560537 -0.000229109 4.30752e-20)
(0.0676424 -0.00514707 -5.55644e-20)
(0.0797532 -0.0100798 2.35643e-19)
(0.092337 -0.0148694 -1.30987e-19)
(0.105326 -0.0193112 -4.02723e-19)
(0.118672 -0.0231165 -7.82378e-20)
(0.132304 -0.025918 1.97592e-19)
(0.145405 -0.0277118 -2.00318e-19)
(-0.00452916 0.00710721 -2.54941e-20)
(-0.00941924 0.0158609 2.13551e-19)
(-0.0107213 0.021012 -2.75164e-19)
(-0.00911455 0.0235506 6.40732e-20)
(-0.00510742 0.0241875 -1.32655e-19)
(0.000882973 0.0234428 3.00895e-19)
(0.00850479 0.0216859 -2.15646e-19)
(0.0174656 0.0191757 2.46962e-19)
(0.0275248 0.0160901 -2.36756e-19)
(0.0384877 0.0125482 9.98499e-20)
(0.0502002 0.00862769 -4.96795e-20)
(0.062546 0.00438095 -1.2327e-19)
(0.0754432 -0.000148138 -1.51105e-19)
(0.0888395 -0.00490594 1.50454e-19)
(0.102704 -0.00980897 -1.25547e-19)
(0.117006 -0.0147258 -2.71288e-19)
(0.131703 -0.0194534 2.82626e-19)
(0.146781 -0.0236552 -3.57614e-19)
(0.162194 -0.0268502 1.60175e-19)
(0.176954 -0.0289927 4.07661e-21)
(-0.00454381 0.00670058 -2.52396e-19)
(-0.00884829 0.014697 -2.93187e-19)
(-0.00895859 0.0193297 3.36271e-20)
(-0.00576347 0.0215427 -2.88202e-19)
(0.000108377 0.0220284 -2.58672e-20)
(0.00815878 0.0212967 -2.14489e-19)
(0.0179702 0.0197036 -4.97241e-20)
(0.0291961 0.0174928 -1.4558e-19)
(0.0415506 0.0148249 4.64246e-22)
(0.0547995 0.0117966 -6.45812e-20)
(0.0687542 0.0084568 3.10201e-21)
(0.0832692 0.00482016 -1.8441e-19)
(0.0982404 0.000881995 2.00475e-19)
(0.113604 -0.00336278 -2.86761e-19)
(0.129331 -0.00789573 9.96811e-20)
(0.145411 -0.012648 2.42612e-21)
(0.161835 -0.0174585 -1.58039e-19)
(0.178653 -0.0219688 3.87106e-19)
(0.195884 -0.0255669 -9.25632e-20)
(0.212346 -0.0281287 -6.97697e-20)
(-0.00438316 0.00612217 2.87377e-19)
(-0.00776907 0.0131243 1.6671e-19)
(-0.00636105 0.0171029 1.55604e-19)
(-0.00125798 0.0189252 2.29627e-20)
(0.00679379 0.0192503 2.16308e-19)
(0.0172182 0.0185707 3.12064e-19)
(0.0295344 0.0172262 2.57398e-19)
(0.0433436 0.0154456 2.1187e-20)
(0.0583149 0.0133753 1.88008e-19)
(0.0741726 0.0110955 2.91963e-19)
(0.0906889 0.00863269 -7.62624e-20)
(0.10768 0.0059686 1.278e-19)
(0.125008 0.00305048 1.04294e-19)
(0.14258 -0.000194975 1.05127e-19)
(0.160355 -0.00383973 6.0808e-19)
(0.178325 -0.00792481 -2.28468e-19)
(0.196519 -0.0124032 -1.3654e-20)
(0.215078 -0.0169735 2.55221e-19)
(0.234178 -0.0209153 -1.43663e-19)
(0.252431 -0.0239729 8.44832e-20)
(-0.00401333 0.00537262 -2.37186e-19)
(-0.00609942 0.0111487 1.85699e-20)
(-0.00281379 0.0143414 -2.05318e-19)
(0.00454114 0.0157087 -2.52955e-20)
(0.0151079 0.0158606 1.53196e-19)
(0.0282386 0.0152646 -4.55471e-19)
(0.0433952 0.0142409 3.05929e-21)
(0.0601317 0.0130051 2.13093e-19)
(0.0780764 0.0116948 2.0082e-19)
(0.0969152 0.0103838 -8.89149e-20)
(0.116381 0.00909032 2.8613e-20)
(0.13625 0.00778124 6.82184e-20)
(0.156336 0.00637366 -3.26814e-20)
(0.176501 0.00473853 -3.55899e-19)
(0.196662 0.00270935 9.11305e-20)
(0.216787 9.55101e-05 2.42029e-19)
(0.236904 -0.00327191 -3.42774e-19)
(0.257259 -0.00730938 1.67556e-19)
(0.278322 -0.0112823 4.27033e-20)
(0.298604 -0.0147366 2.56214e-19)
(-0.00340243 0.00445899 -3.68572e-20)
(-0.00376366 0.00879043 -1.80368e-19)
(0.00178576 0.0110733 8.1745e-20)
(0.0117536 0.0119233 -2.35167e-21)
(0.0251816 0.0118842 -3.6988e-19)
(0.041359 0.0113899 5.84726e-20)
(0.059699 0.0107364 -1.0073e-20)
(0.0797178 0.0101259 7.50236e-20)
(0.101013 0.00969241 -3.45122e-19)
(0.123241 0.00951493 -2.20033e-20)
(0.146108 0.00962342 -7.90503e-20)
(0.169354 0.00999976 7.41619e-20)
(0.19275 0.0105736 2.4249e-19)
(0.216102 0.0112146 -3.80182e-20)
(0.239251 0.011721 1.3488e-20)
(0.262075 0.0117929 9.53871e-20)
(0.284501 0.0110226 -2.28157e-20)
(0.306776 0.00917634 1.75277e-19)
(0.329797 0.00691767 -1.12684e-19)
(0.352349 0.00455439 -1.88398e-19)
(-0.00252233 0.00339554 3.32875e-20)
(-0.00069647 0.00608624 7.4921e-21)
(0.00752266 0.00734861 7.44756e-20)
(0.0204731 0.00762356 1.82361e-19)
(0.0371086 0.00737154 1.01967e-19)
(0.0566667 0.00698112 1.02214e-20)
(0.0785225 0.00671701 -1.23432e-19)
(0.102166 0.00676368 3.2509e-20)
(0.127178 0.00725184 1.66174e-19)
(0.153208 0.0082711 -2.83811e-19)
(0.179954 0.00987771 2.14833e-19)
(0.207158 0.012098 -1.61555e-19)
(0.234587 0.0149274 1.36884e-19)
(0.262034 0.0183252 -2.94187e-19)
(0.289311 0.0221988 3.20141e-19)
(0.316222 0.0263553 -3.43593e-19)
(0.342559 0.0304636 -8.63524e-20)
(0.368388 0.0343607 2.61593e-19)
(0.394702 0.0386635 -9.52315e-20)
(0.420608 0.0416814 4.00627e-20)
(-0.00135023 0.00220392 -2.63213e-20)
(0.00315403 0.00309008 2.6032e-19)
(0.0144607 0.00324115 -3.30989e-21)
(0.0307628 0.00289371 -1.63473e-19)
(0.0509408 0.00240655 -1.09629e-19)
(0.074191 0.00210991 2.03258e-19)
(0.0998611 0.00222544 -8.13525e-20)
(0.127426 0.00290955 -1.06019e-20)
(0.156466 0.0042794 1.67151e-19)
(0.186641 0.00642539 -2.11405e-19)
(0.217679 0.00942062 2.24251e-20)
(0.249373 0.0133288 -2.74668e-19)
(0.281576 0.018211 1.44323e-19)
(0.314224 0.0241319 -4.14951e-19)
(0.347363 0.031159 6.6102e-19)
(0.381215 0.0393449 -1.19934e-19)
(0.416353 0.0487472 1.25812e-19)
(0.454188 0.0595377 -3.32685e-19)
(0.497585 0.0711471 4.72287e-21)
(0.551081 0.0778118 4.69095e-19)
(0.000130422 0.000912593 -8.16782e-20)
(0.00782447 -0.000127354 7.43352e-20)
(0.0226405 -0.00115028 -2.70956e-19)
(0.0426543 -0.00214948 4.03263e-19)
(0.0666874 -0.00288532 -2.92622e-19)
(0.0939041 -0.00310052 1.4541e-20)
(0.123631 -0.0026309 -3.1595e-19)
(0.155336 -0.00136376 2.27169e-19)
(0.188602 0.000785499 -3.39603e-20)
(0.223106 0.00388266 -2.02004e-19)
(0.258613 0.00798111 -1.16809e-19)
(0.294968 0.0131258 1.23583e-19)
(0.332114 0.0193532 8.22634e-20)
(0.370109 0.0266847 -3.69305e-19)
(0.409166 0.0351019 1.34853e-19)
(0.449726 0.0445 -1.97988e-19)
(0.4926 0.0546549 2.15663e-20)
(0.539176 0.0651014 -1.74185e-19)
(0.591088 0.0740049 8.06228e-20)
(0.649018 0.0760049 -3.22671e-19)
(0.00192969 -0.000444348 2.29977e-19)
(0.0133359 -0.00348067 -1.46303e-19)
(0.0320806 -0.0057036 1.21218e-19)
(0.0561503 -0.00735657 -1.5316e-19)
(0.0843214 -0.00833469 2.61198e-19)
(0.115733 -0.00846767 -5.69767e-21)
(0.149694 -0.00766293 -3.1865e-20)
(0.185663 -0.00586708 -2.36984e-20)
(0.223222 -0.00304641 1.46265e-19)
(0.262058 0.000817399 2.48094e-19)
(0.301947 0.00572869 -1.49373e-19)
(0.342759 0.0116759 1.43846e-19)
(0.384457 0.0186238 2.64222e-19)
(0.427116 0.0264965 -1.8811e-19)
(0.470934 0.0351421 -3.84434e-19)
(0.516266 0.0442834 7.07316e-19)
(0.563672 0.0534814 -1.28203e-19)
(0.613931 0.0620042 -4.31144e-20)
(0.667523 0.0680241 4.66884e-19)
(0.723729 0.0679587 -1.19473e-19)
(0.0040516 -0.00182891 -3.79141e-19)
(0.019695 -0.00687325 -2.68502e-19)
(0.0427789 -0.0102776 -1.03074e-19)
(0.0712286 -0.0125501 1.995e-19)
(0.103787 -0.0137332 -4.51785e-19)
(0.139573 -0.0137552 2.33166e-19)
(0.17788 -0.0126068 2.94953e-20)
(0.218151 -0.0103056 2.85115e-20)
(0.259959 -0.00688108 -3.1007e-19)
(0.302983 -0.00237531 -1.1066e-19)
(0.346988 0.00315464 -1.94678e-19)
(0.391828 0.00963086 1.88115e-19)
(0.437436 0.016944 5.3409e-20)
(0.483825 0.024935 9.16865e-21)
(0.531086 0.0333654 2.50794e-19)
(0.579383 0.0418839 -2.5566e-19)
(0.628959 0.0500148 -1.0993e-20)
(0.680085 0.0570724 5.34881e-21)
(0.732624 0.0615971 3.45325e-20)
(0.785631 0.0612494 2.50936e-19)
(0.0064951 -0.00320111 1.22219e-19)
(0.0268955 -0.0102015 3.33481e-19)
(0.0547161 -0.0147182 2.67722e-19)
(0.0878467 -0.0175327 -9.20983e-20)
(0.125009 -0.0188442 3.19819e-19)
(0.165305 -0.0186883 -2.75393e-20)
(0.20801 -0.0171468 -3.85271e-20)
(0.252551 -0.0143154 2.29314e-20)
(0.298482 -0.0102928 3.15114e-19)
(0.345459 -0.00518489 1.85048e-19)
(0.393221 0.000889819 5.39327e-20)
(0.44158 0.00779321 3.33953e-21)
(0.490413 0.015358 -3.64818e-19)
(0.539649 0.0233733 3.18839e-19)
(0.589256 0.0315653 5.55326e-20)
(0.639229 0.0395814 -9.14847e-20)
(0.689583 0.047001 -4.02312e-19)
(0.7403 0.0532781 -3.51894e-20)
(0.790995 0.0572935 1.62907e-19)
(0.840829 0.0574813 -3.789e-20)
(0.00925518 -0.00452074 -3.09649e-19)
(0.0349207 -0.0133592 1.37841e-19)
(0.0678576 -0.0188645 -6.72925e-19)
(0.105945 -0.0220965 2.75752e-19)
(0.147894 -0.0234165 -2.21514e-19)
(0.192793 -0.0229733 1.64311e-19)
(0.239901 -0.0209442 -2.55094e-19)
(0.288627 -0.0175062 2.42107e-20)
(0.338501 -0.0128278 -1.26612e-20)
(0.389148 -0.00707679 6.86443e-20)
(0.440272 -0.00042704 9.98245e-20)
(0.49164 0.00693526 -1.91119e-19)
(0.543066 0.014804 1.01287e-19)
(0.594401 0.022944 9.37564e-20)
(0.645517 0.0310801 4.08385e-19)
(0.696289 0.038894 -1.7869e-19)
(0.746598 0.0460458 -1.20354e-19)
(0.796284 0.0521247 2.04216e-19)
(0.84489 0.0562587 1.12054e-19)
(0.891737 0.0573861 -2.60354e-19)
(0.0123239 -0.0057486 2.72761e-19)
(0.0437449 -0.0162411 2.78812e-19)
(0.0821558 -0.0225562 8.08446e-20)
(0.125448 -0.0260329 3.40482e-19)
(0.172332 -0.0271982 1.65845e-19)
(0.221891 -0.0263169 -3.03772e-19)
(0.273369 -0.0236636 4.60745e-19)
(0.326154 -0.0194969 -2.2871e-19)
(0.379754 -0.0140535 2.28047e-19)
(0.433764 -0.00755834 2.95553e-19)
(0.487854 -0.000232734 -1.70145e-19)
(0.541747 0.00770039 3.25742e-20)
(0.595207 0.016011 1.8196e-19)
(0.648028 0.0244568 1.28857e-19)
(0.700014 0.0327777 2.98913e-19)
(0.750974 0.0406992 -1.20388e-19)
(0.800717 0.0479568 -1.4799e-20)
(0.849023 0.054244 1.93484e-19)
(0.895436 0.0588639 -4.15566e-20)
(0.939418 0.0611085 1.00718e-21)
(0.0156911 -0.00684736 -1.42042e-19)
(0.0533348 -0.0187459 -5.49412e-19)
(0.097551 -0.0256382 1.29494e-19)
(0.146265 -0.0291411 -9.96722e-20)
(0.198201 -0.0299485 -2.2869e-19)
(0.252439 -0.0284421 -1.62505e-19)
(0.308215 -0.0249943 -1.00155e-19)
(0.364903 -0.0199436 2.48507e-19)
(0.421987 -0.0135917 -1.48472e-19)
(0.479041 -0.00621624 -1.52437e-19)
(0.535706 0.00192119 -1.93326e-19)
(0.591672 0.0105694 -3.21922e-20)
(0.646672 0.0194839 -2.23338e-20)
(0.700461 0.0284233 -4.53591e-19)
(0.75281 0.0371476 2.21165e-19)
(0.803495 0.0454231 -2.93241e-19)
(0.8523 0.0530453 9.27551e-20)
(0.898986 0.0597833 -7.11893e-19)
(0.943133 0.0650705 2.15631e-19)
(0.984309 0.0684611 3.29354e-19)
(0.0193447 -0.00778189 -3.47902e-20)
(0.0636498 -0.0207781 2.6825e-19)
(0.113971 -0.0279647 1.77374e-20)
(0.168291 -0.0312341 4.14488e-20)
(0.225357 -0.0314463 -8.4613e-20)
(0.284258 -0.0291 -1.7368e-21)
(0.344227 -0.0246639 -1.45478e-21)
(0.404629 -0.0185544 -5.05358e-20)
(0.464936 -0.0111352 1.84352e-19)
(0.524705 -0.00273162 7.17111e-20)
(0.583559 0.00635942 3.2529e-19)
(0.641173 0.0158643 -8.98596e-20)
(0.69726 0.025529 6.26064e-20)
(0.751565 0.0351168 -8.08495e-21)
(0.803846 0.0444062 1.75609e-19)
(0.853876 0.0531979 1.08138e-19)
(0.901439 0.0613324 2.62298e-19)
(0.946308 0.0686333 -4.27006e-19)
(0.988107 0.074638 5.41276e-19)
(1.02649 0.0790999 -2.07678e-19)
(0.0232705 -0.00851927 -3.24886e-19)
(0.0746419 -0.0222487 -1.0635e-19)
(0.131332 -0.029402 8.60107e-20)
(0.191403 -0.0321431 5.43957e-20)
(0.25364 -0.0314966 5.58884e-20)
(0.317149 -0.0280767 5.53721e-20)
(0.381171 -0.0224465 -1.42178e-19)
(0.445069 -0.0150979 -5.77147e-20)
(0.508315 -0.00645293 1.90971e-20)
(0.570458 0.00311891 -1.75459e-19)
(0.631118 0.0132899 -7.93061e-20)
(0.689968 0.0237677 4.84976e-19)
(0.746722 0.0342919 -1.26269e-19)
(0.801128 0.0446306 -1.74653e-19)
(0.852957 0.0545796 -8.32359e-20)
(0.901997 0.0639666 5.82517e-20)
(0.948053 0.0726662 7.11891e-20)
(0.990924 0.0805426 -3.43785e-19)
(1.03029 0.0872215 5.00426e-19)
(1.06589 0.0926085 -5.2343e-19)
(0.0274522 -0.0090287 -3.59412e-20)
(0.0862556 -0.0230763 1.08088e-20)
(0.149537 -0.02983 -1.40478e-20)
(0.215462 -0.0317201 2.08259e-19)
(0.282868 -0.0299333 1.1583e-20)
(0.350891 -0.0251968 7.6752e-20)
(0.418789 -0.0181658 -1.62601e-19)
(0.485937 -0.00940412 -5.62015e-21)
(0.551814 0.000611022 2.27712e-19)
(0.61598 0.0114699 3.16264e-20)
(0.678061 0.0228175 -2.00755e-19)
(0.737745 0.0343464 -1.77105e-20)
(0.794762 0.0457915 -1.6664e-19)
(0.848883 0.0569269 1.67699e-19)
(0.899906 0.0675632 2.33952e-19)
(0.947652 0.0775512 -2.5987e-20)
(0.991961 0.0867918 -3.16948e-20)
(1.03267 0.0951819 9.73483e-20)
(1.06953 0.102426 -3.14396e-19)
(1.10232 0.108544 3.34478e-19)
(0.0318702 -0.00928133 3.61828e-20)
(0.0984264 -0.0231866 -2.50086e-19)
(0.168475 -0.0291425 6.85468e-20)
(0.240309 -0.0298391 -2.08575e-19)
(0.312839 -0.0266208 7.31994e-20)
(0.385239 -0.0203249 -2.69374e-19)
(0.4568 -0.0116947 1.09612e-19)
(0.526922 -0.00136261 -3.55757e-20)
(0.595103 0.0101433 -1.44303e-21)
(0.660924 0.022377 3.62775e-20)
(0.72404 0.0349603 -1.33304e-19)
(0.784161 0.0475738 -1.91752e-19)
(0.841055 0.0599508 -3.94947e-20)
(0.894527 0.0718725 -1.78803e-20)
(0.944418 0.0831641 -4.57836e-20)
(0.990594 0.0936971 -1.49988e-20)
(1.03294 0.103395 -4.5176e-20)
(1.07135 0.112183 -3.93809e-20)
(1.10562 0.119838 -1.17465e-19)
(1.13561 0.126464 2.19736e-19)
(0.0365016 -0.00925027 8.68745e-20)
(0.11108 -0.0225132 -1.01683e-19)
(0.188019 -0.0272487 2.18784e-19)
(0.26577 -0.026397 -9.59978e-20)
(0.343329 -0.0214547 2.57749e-19)
(0.419929 -0.0133648 4.71192e-21)
(0.494905 -0.00295395 1.30723e-19)
(0.567693 0.0090816 -3.6021e-20)
(0.63783 0.0221678 1.48566e-19)
(0.704932 0.0358275 1.04607e-20)
(0.768691 0.0496638 3.59746e-19)
(0.828865 0.0633499 -2.50661e-19)
(0.885264 0.0766208 3.4144e-20)
(0.937746 0.0892674 6.56577e-20)
(0.986206 0.101131 3.45445e-19)
(1.03056 0.112104 -1.25093e-19)
(1.07076 0.12213 -2.48758e-20)
(1.10675 0.131163 -1.31883e-19)
(1.1384 0.139047 -1.36135e-20)
(1.16561 0.145942 7.84127e-20)
(0.0413194 -0.0089107 -3.95785e-20)
(0.124134 -0.0209976 1.24459e-19)
(0.208032 -0.0240726 -1.28878e-19)
(0.291652 -0.0213134 5.05513e-20)
(0.374099 -0.0143611 -6.22916e-20)
(0.454678 -0.00425827 2.28102e-19)
(0.532784 0.00809083 -3.29418e-20)
(0.607907 0.0219327 7.88271e-20)
(0.679634 0.0366533 -4.77504e-20)
(0.747633 0.0517504 -1.66307e-21)
(0.811651 0.0668146 5.49766e-20)
(0.871502 0.0815168 -4.32912e-20)
(0.927056 0.0955989 1.13195e-19)
(0.978233 0.108865 -5.70136e-20)
(1.02499 0.121176 -2.52575e-19)
(1.06732 0.132445 2.5284e-19)
(1.10522 0.142639 -1.14286e-19)
(1.13869 0.15174 9.17977e-20)
(1.1677 0.159655 1.59295e-19)
(1.19217 0.16658 7.71225e-20)
(0.0462921 -0.00824018 9.89281e-20)
(0.137492 -0.01859 -2.18148e-19)
(0.228359 -0.0195543 4.09262e-20)
(0.317748 -0.0145313 -3.06274e-20)
(0.404893 -0.00529642 -1.25799e-19)
(0.489189 0.00701591 -9.87613e-20)
(0.570108 0.021432 -1.99971e-20)
(0.647211 0.0371487 -1.80126e-19)
(0.72015 0.0535199 -1.15056e-20)
(0.788662 0.0700258 -3.43727e-20)
(0.852561 0.0862515 -9.42894e-20)
(0.911731 0.101873 -2.1137e-20)
(0.966114 0.116644 -7.37127e-20)
(1.0157 0.130388 -1.24269e-19)
(1.06053 0.142989 1.2826e-19)
(1.10065 0.154385 1.75691e-20)
(1.13614 0.164566 3.50843e-20)
(1.16705 0.173544 -1.50089e-19)
(1.19342 0.181289 -4.24816e-21)
(1.21523 0.188011 -2.71428e-19)
(0.0513838 -0.00721911 1.0543e-19)
(0.15105 -0.0152503 7.50417e-20)
(0.248832 -0.0136505 -1.22783e-19)
(0.343834 -0.0060173 1.93248e-19)
(0.43544 0.00575286 -2.18134e-20)
(0.523154 0.020444 7.3523e-20)
(0.606542 0.0370228 2.59718e-20)
(0.685253 0.0546462 9.29351e-20)
(0.759021 0.0726454 -7.38313e-20)
(0.827664 0.0904923 2.51602e-20)
(0.89108 0.107775 -2.42696e-20)
(0.949234 0.124182 -1.07243e-20)
(1.00215 0.139488 2.09012e-20)
(1.04991 0.15354 -3.88401e-20)
(1.09261 0.16625 -1.20258e-20)
(1.13039 0.177585 -3.69854e-20)
(1.16338 0.187563 -6.03554e-20)
(1.19172 0.196225 3.93412e-20)
(1.2155 0.203603 -5.33581e-20)
(1.23475 0.209905 2.70763e-19)
(0.0565539 -0.0058313 -5.13384e-20)
(0.164694 -0.0109489 -1.55857e-19)
(0.269275 -0.00633587 -1.99171e-20)
(0.369678 0.00423777 -6.5585e-21)
(0.465462 0.0187708 -7.1903e-20)
(0.556259 0.0359783 -1.20004e-19)
(0.64175 0.0547797 3.98093e-20)
(0.721684 0.074304 -5.55888e-20)
(0.795896 0.0938709 -6.32556e-20)
(0.864301 0.112954 3.60254e-20)
(0.92689 0.131156 -2.75438e-20)
(0.983724 0.148186 -5.68025e-20)
(1.03492 0.163846 -2.07651e-21)
(1.08063 0.178015 3.94557e-20)
(1.12106 0.19064 -4.05971e-20)
(1.1564 0.201719 5.68737e-20)
(1.18687 0.211299 1.55566e-20)
(1.21266 0.219457 3.89283e-20)
(1.23393 0.22628 7.53383e-20)
(1.25075 0.231967 -7.51048e-20)
(0.0617575 -0.00406453 4.79958e-20)
(0.178301 -0.00566777 -3.7543e-21)
(0.289497 0.00239656 2.39887e-20)
(0.395036 0.0162185 -3.2005e-20)
(0.494675 0.0337119 3.37054e-21)
(0.588193 0.0535387 1.14926e-19)
(0.6754 0.0745856 -7.62022e-20)
(0.75617 0.0959674 3.33836e-20)
(0.830449 0.117005 3.02209e-20)
(0.898262 0.137188 -8.5124e-20)
(0.959709 0.156141 8.1621e-20)
(1.01495 0.173606 9.45266e-22)
(1.0642 0.189422 -5.93359e-20)
(1.10771 0.203506 7.23138e-20)
(1.14575 0.215842 -2.88917e-20)
(1.17861 0.226468 2.22632e-20)
(1.20656 0.235463 -2.522e-20)
(1.22987 0.242939 -1.02403e-20)
(1.24873 0.249038 -8.76704e-20)
(1.26327 0.253938 3.11267e-20)
(0.0669459 -0.00191124 -1.52894e-20)
(0.19174 0.000597887 4.55174e-20)
(0.309302 0.0125338 7.43213e-21)
(0.419663 0.0298841 3.02305e-20)
(0.522794 0.0505019 1.48773e-20)
(0.618644 0.073014 7.1081e-21)
(0.707174 0.0962916 4.07307e-20)
(0.788392 0.119451 -4.79709e-21)
(0.862374 0.141831 1.89229e-20)
(0.929267 0.162946 3.08647e-20)
(0.989286 0.18246 1.52733e-20)
(1.0427 0.200155 1.11826e-20)
(1.08983 0.215916 4.5846e-20)
(1.13101 0.229706 -4.46894e-20)
(1.16661 0.241552 9.71331e-21)
(1.19699 0.251535 -9.08337e-21)
(1.22247 0.259767 1.42992e-20)
(1.24338 0.266399 1.20266e-20)
(1.25997 0.271625 2.49086e-20)
(1.27242 0.275594 1.18226e-21)
(0.0720674 0.000630924 9.29724e-21)
(0.204875 0.00783911 8.79329e-21)
(0.328491 0.0240422 -1.23334e-20)
(0.443307 0.0451686 7.82034e-21)
(0.549537 0.0690379 4.53441e-21)
(0.647316 0.0942632 -1.44205e-20)
(0.736768 0.11972 4.88627e-21)
(0.818056 0.144544 9.74627e-22)
(0.891397 0.168107 8.82857e-21)
(0.95707 0.189965 -2.43617e-20)
(1.01541 0.209831 -1.42303e-22)
(1.06681 0.227541 7.02617e-21)
(1.11169 0.243031 -5.6478e-21)
(1.15047 0.256318 5.84596e-21)
(1.18362 0.26748 1.53892e-20)
(1.21154 0.276638 -8.78826e-21)
(1.23464 0.283946 2.50609e-21)
(1.25328 0.289591 9.67493e-21)
(1.26777 0.293816 -1.596e-20)
(1.2783 0.296739 8.94889e-21)
(0.0770681 0.00355864 2.39958e-20)
(0.217567 0.0160322 -1.41562e-20)
(0.34686 0.0368669 1.69011e-20)
(0.465725 0.0619802 -1.27874e-20)
(0.574632 0.0891892 -5.91322e-21)
(0.673922 0.117117 1.85774e-21)
(0.7639 0.144666 -6.12789e-21)
(0.844895 0.171012 2.25478e-20)
(0.917276 0.195573 -1.93714e-20)
(0.981463 0.217966 4.69989e-21)
(1.03792 0.237965 -3.49846e-21)
(1.08716 0.255467 -2.37363e-20)
(1.12969 0.270472 2.33735e-20)
(1.16606 0.283056 9.03144e-21)
(1.19676 0.293349 -9.08262e-21)
(1.22231 0.30152 2.14244e-20)
(1.24315 0.30776 -3.62135e-22)
(1.25968 0.312296 -2.08594e-20)
(1.27224 0.315418 1.54398e-20)
(1.28107 0.317207 5.47628e-21)
(0.0818923 0.00686258 -8.62789e-21)
(0.229676 0.0251382 2.512e-20)
(0.36421 0.0509316 2.97035e-20)
(0.486676 0.0802022 -1.45601e-20)
(0.597819 0.110799 2.55012e-20)
(0.698197 0.141382 4.20812e-20)
(0.788315 0.170903 -2.55761e-21)
(0.868675 0.198599 -8.08157e-21)
(0.939808 0.223956 3.92504e-20)
(1.00228 0.246663 1.97469e-20)
(1.05669 0.266568 -3.8194e-21)
(1.10366 0.283643 3.08728e-20)
(1.14381 0.297956 -3.39975e-20)
(1.17776 0.309646 5.32181e-20)
(1.20611 0.318901 -9.00332e-21)
(1.22939 0.325939 2.58039e-20)
(1.24811 0.33099 4.56815e-21)
(1.2627 0.334319 1.84635e-20)
(1.27353 0.336259 -1.77003e-20)
(1.28087 0.336852 4.82907e-21)
(0.0864831 0.0105269 -1.26635e-20)
(0.24106 0.0351023 3.04939e-20)
(0.380345 0.0661386 2.27888e-20)
(0.505932 0.0996932 -3.603e-21)
(0.618852 0.133684 3.86097e-20)
(0.7199 0.166838 -3.13996e-20)
(0.809784 0.198183 -3.15295e-21)
(0.889193 0.227035 2.8173e-20)
(0.958825 0.25297 8.70251e-21)
(1.01939 0.275764 1.36102e-20)
(1.07163 0.295349 -2.08422e-20)