/*--------------------------------*- C++ -*----------------------------------*\
  =========                 |
  \\      /  F ield         | OpenFOAM: The Open Source CFD Toolbox
   \\    /   O peration     | Website:  https://openfoam.org
    \\  /    A nd           | Version:  6.0
     \\/     M anipulation  |
\*---------------------------------------------------------------------------*/
FoamFile
{
    version     2.0;
    format      ascii;
    class       surfaceScalarField;
    location    "0.1";
    object      phi;
}
// * * * * * * * * * * * * * * * * * * * * * * * * * * * * * * * * * * * * * //

dimensions      [0 3 -1 0 0 0 0];

internalField   nonuniform List<scalar> 
1540
(
9.71551e-10
-9.71525e-10
-1.6373e-08
1.73446e-08
-4.75151e-08
3.1142e-08
-8.4697e-08
3.71821e-08
-1.23638e-07
3.89409e-08
-1.62463e-07
3.8825e-08
-2.00513e-07
3.80502e-08
-2.37609e-07
3.70963e-08
-2.73699e-07
3.60904e-08
-3.0874e-07
3.50403e-08
-3.42672e-07
3.39327e-08
-3.75434e-07
3.27615e-08
-4.06963e-07
3.15291e-08
-4.37207e-07
3.02433e-08
-4.6612e-07
2.89134e-08
-4.93668e-07
2.75482e-08
-5.1982e-07
2.61523e-08
-5.44543e-07
2.47231e-08
-5.6779e-07
2.3247e-08
-5.89486e-07
2.16964e-08
-6.09513e-07
2.00263e-08
-6.27682e-07
1.81695e-08
-6.43714e-07
1.60314e-08
-6.57199e-07
1.34852e-08
-6.67566e-07
1.03668e-08
-6.74039e-07
6.47314e-09
-6.75604e-07
1.56443e-09
-6.7098e-07
-4.62303e-09
-6.58631e-07
-1.23493e-08
-6.3681e-07
-2.18213e-08
-6.03694e-07
-3.31158e-08
-5.57623e-07
-4.60709e-08
-4.97476e-07
-6.01469e-08
-4.23212e-07
-7.42637e-08
-3.3658e-07
-8.66329e-08
-2.41948e-07
-9.46312e-08
-1.47173e-07
-9.47758e-08
-6.44257e-08
-8.2747e-08
-1.05253e-08
-5.39003e-08
-1.05254e-08
-1.95135e-08
1.8542e-08
-7.46217e-08
7.24526e-08
-1.53754e-07
1.10274e-07
-2.45068e-07
1.28496e-07
-3.40472e-07
1.34345e-07
-4.35676e-07
1.34029e-07
-5.287e-07
1.31074e-07
-6.18672e-07
1.27069e-07
-7.05176e-07
1.22594e-07
-7.87965e-07
1.1783e-07
-8.6687e-07
1.12837e-07
-9.41765e-07
1.07657e-07
-1.01256e-06
1.02327e-07
-1.07921e-06
9.68867e-08
-1.14166e-06
9.13696e-08
-1.19991e-06
8.57982e-08
-1.25394e-06
8.01765e-08
-1.3037e-06
7.4483e-08
-1.34911e-06
6.86625e-08
-1.39003e-06
6.26179e-08
-1.42621e-06
5.62003e-08
-1.45724e-06
4.9198e-08
-1.48253e-06
4.13233e-08
-1.50124e-06
3.2202e-08
-1.51224e-06
2.13643e-08
-1.51401e-06
8.24357e-09
-1.50464e-06
-7.80899e-09
-1.48178e-06
-2.74851e-08
-1.44269e-06
-5.14393e-08
-1.38436e-06
-8.01532e-08
-1.30374e-06
-1.13726e-07
-1.19823e-06
-1.51582e-07
-1.06629e-06
-1.92092e-07
-9.08421e-07
-2.32131e-07
-7.28419e-07
-2.66635e-07
-5.34756e-07
-2.88295e-07
-3.41935e-07
-2.87597e-07
-1.71149e-07
-2.53533e-07
-4.86464e-08
-1.76403e-07
-5.91719e-08
-3.62975e-08
5.48395e-08
-1.21813e-07
1.57968e-07
-2.36452e-07
2.24914e-07
-3.65134e-07
2.57178e-07
-4.981e-07
2.67311e-07
-6.29997e-07
2.65926e-07
-7.58168e-07
2.59245e-07
-8.81317e-07
2.50219e-07
-9.98782e-07
2.40058e-07
-1.11019e-06
2.29237e-07
-1.21532e-06
2.17973e-07
-1.31407e-06
2.06406e-07
-1.40639e-06
1.94647e-07
-1.49229e-06
1.82787e-07
-1.57182e-06
1.70892e-07
-1.64502e-06
1.58999e-07
-1.71194e-06
1.47103e-07
-1.77261e-06
1.35151e-07
-1.82697e-06
1.23026e-07
-1.87489e-06
1.10536e-07
-1.91609e-06
9.73972e-08
-1.95011e-06
8.32184e-08
-1.97626e-06
6.74783e-08
-1.99357e-06
4.95092e-08
-2.00069e-06
2.84829e-08
-1.99586e-06
3.4107e-09
-1.97683e-06
-2.68334e-08
-1.94087e-06
-6.34454e-08
-1.88475e-06
-1.07558e-07
-1.8049e-06
-1.60011e-07
-1.69763e-06
-2.20988e-07
-1.55972e-06
-2.89496e-07
-1.38914e-06
-3.62676e-07
-1.18628e-06
-4.34984e-07
-9.55558e-07
-4.9736e-07
-7.07159e-07
-5.36694e-07
-4.5871e-07
-5.36045e-07
-2.35889e-07
-4.76355e-07
-7.08754e-08
-3.41416e-07
-1.30047e-07
-4.69299e-08
1.01769e-07
-1.53001e-07
2.64039e-07
-2.91575e-07
3.63488e-07
-4.44544e-07
4.10147e-07
-6.00977e-07
4.23744e-07
-7.55035e-07
4.19984e-07
-9.03818e-07
4.08027e-07
-1.04589e-06
3.92292e-07
-1.18052e-06
3.74686e-07
-1.30732e-06
3.56034e-07
-1.4261e-06
3.36756e-07
-1.53682e-06
3.17126e-07
-1.63952e-06
2.97347e-07
-1.73431e-06
2.77574e-07
-1.82132e-06
2.5791e-07
-1.90073e-06
2.38406e-07
-1.97267e-06
2.19043e-07
-2.03725e-06
1.99727e-07
-2.09449e-06
1.80275e-07
-2.14435e-06
1.6039e-07
-2.1866e-06
1.39651e-07
-2.22086e-06
1.17478e-07
-2.2465e-06
9.31129e-08
-2.26257e-06
6.55856e-08
-2.26779e-06
3.36955e-08
-2.26038e-06
-3.99813e-09
-2.23806e-06
-4.9153e-08
-2.19794e-06
-1.03565e-07
-2.1365e-06
-1.68997e-07
-2.04965e-06
-2.46861e-07
-1.93294e-06
-3.37697e-07
-1.78206e-06
-4.40377e-07
-1.59374e-06
-5.50997e-07
-1.36723e-06
-6.61494e-07
-1.10638e-06
-7.58208e-07
-8.22142e-07
-8.20933e-07
-5.34834e-07
-8.23354e-07
-2.75031e-07
-7.36158e-07
-8.18611e-08
-5.34586e-07
-2.11908e-07
-5.32687e-08
1.55038e-07
-1.72731e-07
3.83501e-07
-3.27117e-07
5.17874e-07
-4.95791e-07
5.78821e-07
-6.66829e-07
5.94782e-07
-8.34095e-07
5.87251e-07
-9.94636e-07
5.68568e-07
-1.14704e-06
5.44697e-07
-1.29063e-06
5.18269e-07
-1.42507e-06
4.90481e-07
-1.55029e-06
4.61971e-07
-1.66632e-06
4.3316e-07
-1.77333e-06
4.04353e-07
-1.87153e-06
3.75772e-07
-1.96117e-06
3.47558e-07
-2.04254e-06
3.19771e-07
-2.11588e-06
2.92383e-07
-2.18141e-06
2.65259e-07
-2.23929e-06
2.38151e-07
-2.28957e-06
2.10669e-07
-2.33218e-06
1.82263e-07
-2.36688e-06
1.52182e-07
-2.39322e-06
1.19447e-07
-2.41043e-06
8.28028e-08
-2.41742e-06
4.06794e-08
-2.41258e-06
-8.83433e-09
-2.39374e-06
-6.79914e-08
-2.35799e-06
-1.39322e-07
-2.30153e-06
-2.25458e-07
-2.21963e-06
-3.28756e-07
-2.1067e-06
-4.50624e-07
-1.95668e-06
-5.90401e-07
-1.764e-06
-7.43678e-07
-1.52544e-06
-9.00047e-07
-1.24305e-06
-1.0406e-06
-9.27857e-07
-1.13613e-06
-6.0356e-07
-1.14765e-06
-3.07913e-07
-1.0318e-06
-8.94906e-08
-7.53008e-07
-3.01399e-07
-5.75669e-08
2.12605e-07
-1.86657e-07
5.12591e-07
-3.52542e-07
6.8376e-07
-5.32421e-07
7.587e-07
-7.13463e-07
7.75825e-07
-8.893e-07
7.63087e-07
-1.05701e-06
7.36276e-07
-1.21529e-06
7.02974e-07
-1.36357e-06
6.66558e-07
-1.50169e-06
6.28595e-07
-1.62966e-06
5.89946e-07
-1.74768e-06
5.51173e-07
-1.856e-06
5.12682e-07
-1.95499e-06
4.74759e-07
-2.04502e-06
4.37581e-07
-2.12647e-06
4.01222e-07
-2.19972e-06
3.65641e-07
-2.26514e-06
3.30675e-07
-2.32301e-06
2.96023e-07
-2.37356e-06
2.61221e-07
-2.41691e-06
2.25613e-07
-2.45305e-06
1.88314e-07
-2.48176e-06
1.48159e-07
-2.5026e-06
1.03643e-07
-2.51477e-06
5.2857e-08
-2.51703e-06
-6.58094e-09
-2.50745e-06
-7.75727e-08
-2.48324e-06
-1.63533e-07
-2.44043e-06
-2.68261e-07
-2.37362e-06
-3.95573e-07
-2.27573e-06
-5.48515e-07
-2.13822e-06
-7.27905e-07
-1.95199e-06
-9.29909e-07
-1.70954e-06
-1.1425e-06
-1.40904e-06
-1.3411e-06
-1.06022e-06
-1.48495e-06
-6.90701e-07
-1.51717e-06
-3.48997e-07
-1.37351e-06
-9.84473e-08
-1.00356e-06
-3.99847e-07
-6.14284e-08
2.74033e-07
-1.99141e-07
6.50303e-07
-3.75199e-07
8.59818e-07
-5.64724e-07
9.48225e-07
-7.5401e-07
9.65111e-07
-9.36499e-07
9.45577e-07
-1.10937e-06
9.09142e-07
-1.27149e-06
8.65095e-07
-1.42249e-06
8.17564e-07
-1.56238e-06
7.68481e-07
-1.69134e-06
7.18909e-07
-1.80972e-06
6.69547e-07
-1.91792e-06
6.20885e-07
-2.01643e-06
5.73268e-07
-2.10575e-06
5.26905e-07
-2.18641e-06
4.81883e-07
-2.25893e-06
4.38156e-07
-2.32379e-06
3.95542e-07
-2.38148e-06
3.53708e-07
-2.4324e-06
3.12141e-07
-2.47691e-06
2.70121e-07
-2.51526e-06
2.26673e-07
-2.54761e-06
1.80506e-07
-2.5739e-06
1.29933e-07
-2.59381e-06
7.27677e-08
-2.6066e-06
6.20652e-09
-2.61087e-06
-7.33043e-08
-2.60423e-06
-1.70171e-07
-2.58284e-06
-2.89654e-07
-2.54079e-06
-4.37623e-07
-2.46952e-06
-6.19786e-07
-2.35746e-06
-8.39967e-07
-2.19052e-06
-1.09684e-06
-1.95441e-06
-1.3786e-06
-1.63993e-06
-1.65559e-06
-1.25205e-06
-1.87282e-06
-8.21445e-07
-1.94778e-06
-4.12096e-07
-1.78286e-06
-1.12325e-07
-1.30333e-06
-5.12171e-07
-6.59191e-08
3.39952e-07
-2.13185e-07
7.97569e-07
-4.00127e-07
1.04676e-06
-5.99595e-07
1.14769e-06
-7.97001e-07
1.16252e-06
-9.85679e-07
1.13425e-06
-1.163e-06
1.08646e-06
-1.32811e-06
1.0302e-06
-1.48089e-06
9.7035e-07
-1.62158e-06
9.09171e-07
-1.75058e-06
8.47909e-07
-1.86841e-06
7.87368e-07
-1.97563e-06
7.28108e-07
-2.07288e-06
6.70517e-07
-2.1608e-06
6.14831e-07
-2.24007e-06
5.61146e-07
-2.31133e-06
5.0942e-07
-2.37525e-06
4.59466e-07
-2.43248e-06
4.10938e-07
-2.48365e-06
3.6331e-07
-2.52937e-06
3.15842e-07
-2.57023e-06
2.67534e-07
-2.60678e-06
2.1705e-07
-2.63947e-06
1.62624e-07
-2.66862e-06
1.01916e-07
-2.69424e-06
3.18269e-08
-2.7158e-06
-5.17417e-08
-2.73181e-06
-1.54163e-07
-2.73913e-06
-2.82334e-07
-2.73203e-06
-4.44725e-07
-2.70093e-06
-6.50886e-07
-2.63115e-06
-9.09742e-07
-2.50237e-06
-1.22562e-06
-2.29024e-06
-1.59074e-06
-1.97256e-06
-1.97326e-06
-1.54262e-06
-2.30276e-06
-1.02952e-06
-2.46088e-06
-5.17137e-07
-2.29524e-06
-1.36331e-07
-1.68413e-06
-6.48503e-07
-7.18377e-08
4.1179e-07
-2.31015e-07
9.56746e-07
-4.30942e-07
1.24669e-06
-6.41753e-07
1.3585e-06
-8.47976e-07
1.36874e-06
-1.043e-06
1.32928e-06
-1.22455e-06
1.26801e-06
-1.39217e-06
1.19783e-06
-1.54612e-06
1.1243e-06
-1.68692e-06
1.04996e-06
-1.81521e-06
9.762e-07
-1.93172e-06
9.03877e-07
-2.0372e-06
8.33597e-07
-2.13246e-06
7.65771e-07
-2.21828e-06
7.00649e-07
-2.29547e-06
6.38337e-07
-2.36485e-06
5.78797e-07
-2.42723e-06
5.2185e-07
-2.48345e-06
4.67162e-07
-2.53437e-06
4.14226e-07
-2.58086e-06
3.62337e-07
-2.62387e-06
3.1054e-07
-2.66438e-06
2.57563e-07
-2.70346e-06
2.017e-07
-2.74219e-06
1.40651e-07
-2.78163e-06
7.12596e-08
-2.82253e-06
-1.08397e-08
-2.86496e-06
-1.11728e-07
-2.90748e-06
-2.39821e-07
-2.94573e-06
-4.06469e-07
-2.97045e-06
-6.26164e-07
-2.96475e-06
-9.15446e-07
-2.90154e-06
-1.28884e-06
-2.74305e-06
-1.74923e-06
-2.44646e-06
-2.26985e-06
-1.98148e-06
-2.76774e-06
-1.36397e-06
-3.07839e-06
-6.97517e-07
-2.9617e-06
-1.80581e-07
-2.20107e-06
-8.29084e-07
-8.00017e-08
4.91792e-07
-2.54748e-07
1.13149e-06
-4.70825e-07
1.46276e-06
-6.95011e-07
1.58269e-06
-9.11026e-07
1.58475e-06
-1.11261e-06
1.53086e-06
-1.29813e-06
1.45353e-06
-1.46771e-06
1.36742e-06
-1.62209e-06
1.27868e-06
-1.76216e-06
1.19003e-06
-1.88886e-06
1.1029e-06
-2.00315e-06
1.01817e-06
-2.10599e-06
9.36434e-07
-2.19833e-06
8.5811e-07
-2.28112e-06
7.83443e-07
-2.35532e-06
7.12542e-07
-2.4219e-06
6.45376e-07
-2.48183e-06
5.81781e-07
-2.53612e-06
5.21453e-07
-2.58584e-06
4.63937e-07
-2.63211e-06
4.0861e-07
-2.67621e-06
3.54643e-07
-2.71959e-06
3.00938e-07
-2.76391e-06
2.46028e-07
-2.81117e-06
1.87901e-07
-2.86361e-06
1.23708e-07
-2.92375e-06
4.92971e-08
-2.99395e-06
-4.1532e-08
-3.07564e-06
-1.58124e-07
-3.16769e-06
-3.14419e-07
-3.26342e-06
-5.30442e-07
-3.34604e-06
-8.32817e-07
-3.38298e-06
-1.25191e-06
-3.32107e-06
-1.81114e-06
-3.08888e-06
-2.50203e-06
-2.61654e-06
-3.24008e-06
-1.88529e-06
-3.80965e-06
-1.00484e-06
-3.84214e-06
-2.64805e-07
-2.94111e-06
-1.09389e-06
-9.15401e-08
5.83332e-07
-2.87034e-07
1.32699e-06
-5.23387e-07
1.69912e-06
-7.63247e-07
1.82255e-06
-9.89842e-07
1.81135e-06
-1.1978e-06
1.73882e-06
-1.38655e-06
1.64228e-06
-1.55706e-06
1.53793e-06
-1.71069e-06
1.4323e-06
-1.84876e-06
1.3281e-06
-1.97256e-06
1.2267e-06
-2.08331e-06
1.12891e-06
-2.18217e-06
1.03529e-06
-2.27026e-06
9.46201e-07
-2.34869e-06
8.61879e-07
-2.41857e-06
7.82422e-07
-2.481e-06
7.07804e-07
-2.5371e-06
6.37877e-07
-2.58802e-06
5.72375e-07
-2.635e-06
5.10918e-07
-2.67939e-06
4.52998e-07
-2.72272e-06
3.97974e-07
-2.76681e-06
3.45031e-07
-2.81389e-06
2.93108e-07
-2.86675e-06
2.4076e-07
-2.92892e-06
1.85877e-07
-3.0048e-06
1.25178e-07
-3.0996e-06
5.32664e-08
-3.21875e-06
-3.89769e-08
-3.36622e-06
-1.66941e-07
-3.54092e-06
-3.55742e-07
-3.73008e-06
-6.43657e-07
-3.8995e-06
-1.08249e-06
-3.98256e-06
-1.72808e-06
-3.87539e-06
-2.6092e-06
-3.45407e-06
-3.6614e-06
-2.6365e-06
-4.62721e-06
-1.50155e-06
-4.9771e-06
-4.24571e-07
-4.01808e-06
-1.51846e-06
-1.08284e-07
6.91616e-07
-3.31775e-07
1.55048e-06
-5.93437e-07
1.96078e-06
-8.51057e-07
2.08017e-06
-1.0882e-06
2.0485e-06
-1.30134e-06
1.95195e-06
-1.49153e-06
1.83247e-06
-1.66092e-06
1.70732e-06
-1.81162e-06
1.58299e-06
-1.94548e-06
1.46196e-06
-2.06415e-06
1.34537e-06
-2.16912e-06
1.23388e-06
-2.26176e-06
1.12793e-06
-2.34338e-06
1.02783e-06
-2.41526e-06
9.33756e-07
-2.47863e-06
8.45792e-07
-2.53473e-06
7.63898e-07
-2.58478e-06
6.87934e-07
-2.63008e-06
6.17668e-07
-2.67194e-06
5.52786e-07
-2.71185e-06
4.9291e-07
-2.75149e-06
4.3761e-07
-2.79287e-06
3.86412e-07
-2.83854e-06
3.38775e-07
-2.89181e-06
2.94035e-07
-2.95715e-06
2.5121e-07
-3.04052e-06
2.08552e-07
-3.14979e-06
1.6254e-07
-3.29463e-06
1.05856e-07
-3.48523e-06
2.3666e-08
-3.72864e-06
-1.12337e-07
-4.02066e-06
-3.51638e-07
-4.3323e-06
-7.7085e-07
-4.59186e-06
-1.46852e-06
-4.6703e-06
-2.53075e-06
-4.3886e-06
-3.9431e-06
-3.57782e-06
-5.438e-06
-2.22401e-06
-6.33091e-06
-7.13492e-07
-5.5286e-06
-2.23195e-06
-1.33435e-07
8.25051e-07
-3.95141e-07
1.81218e-06
-6.87772e-07
2.25341e-06
-9.64035e-07
2.35643e-06
-1.20971e-06
2.29417e-06
-1.42462e-06
2.16686e-06
-1.61228e-06
2.02013e-06
-1.77631e-06
1.87136e-06
-1.91973e-06
1.72641e-06
-2.04498e-06
1.58721e-06
-2.15412e-06
1.45451e-06
-2.24893e-06
1.32869e-06
-2.33103e-06
1.21004e-06
-2.40196e-06
1.09875e-06
-2.46315e-06
9.94948e-07
-2.516e-06
8.98639e-07
-2.56186e-06
8.09755e-07
-2.60206e-06
7.28131e-07
-2.63792e-06
6.53535e-07
-2.67083e-06
5.85691e-07
-2.70223e-06
5.24314e-07
-2.73378e-06
4.69154e-07
-2.76741e-06
4.20047e-07
-2.80561e-06
3.76968e-07
-2.85164e-06
3.4007e-07
-2.91008e-06
3.09645e-07
-2.98737e-06
2.85848e-07
-3.09264e-06
2.67812e-07
-3.23826e-06
2.51469e-07
-3.43951e-06
2.24922e-07
-3.71183e-06
1.59982e-07
-4.06293e-06
-5.38435e-10
-4.47752e-06
-3.56258e-07
-4.89457e-06
-1.05147e-06
-5.18354e-06
-2.24178e-06
-5.1358e-06
-3.99084e-06
-4.49878e-06
-6.07501e-06
-3.10068e-06
-7.72901e-06
-1.17813e-06
-7.45115e-06
-3.41008e-06
-1.7287e-07
9.97921e-07
-4.8722e-07
2.12653e-06
-8.15937e-07
2.58213e-06
-1.10814e-06
2.64863e-06
-1.3557e-06
2.54174e-06
-1.56414e-06
2.3753e-06
-1.74031e-06
2.1963e-06
-1.88966e-06
2.02071e-06
-2.01628e-06
1.85303e-06
-2.12333e-06
1.69426e-06
-2.21339e-06
1.54457e-06
-2.28869e-06
1.40399e-06
-2.3512e-06
1.27255e-06
-2.40274e-06
1.15029e-06
-2.44498e-06
1.03719e-06
-2.47949e-06
9.33153e-07
-2.50775e-06
8.3801e-07
-2.53113e-06
7.51512e-07
-2.55095e-06
6.73361e-07
-2.56851e-06
6.03247e-07
-2.58509e-06
5.40898e-07
-2.60208e-06
4.86144e-07
-2.62104e-06
4.39004e-07
-2.64387e-06
3.99796e-07
-2.67307e-06
3.69272e-07
-2.71216e-06
3.48736e-07
-2.7663e-06
3.3999e-07
-2.84323e-06
3.44738e-07
-2.95438e-06
3.62619e-07
-3.11578e-06
3.86323e-07
-3.34738e-06
3.91584e-07
-3.66821e-06
3.20294e-07
-4.08379e-06
5.93202e-08
-4.56375e-06
-5.71515e-07
-5.01339e-06
-1.79214e-06
-5.24754e-06
-3.7567e-06
-4.97658e-06
-6.34597e-06
-3.85045e-06
-8.85514e-06
-1.77232e-06
-9.52929e-06
-5.1824e-06
-2.37825e-07
1.23575e-06
-6.24771e-07
2.51348e-06
-9.90217e-07
2.94757e-06
-1.28606e-06
2.94447e-06
-1.51789e-06
2.77357e-06
-1.70009e-06
2.55751e-06
-1.8439e-06
2.34011e-06
-1.95707e-06
2.13388e-06
-2.0452e-06
1.94116e-06
-2.1126e-06
1.76166e-06
-2.16278e-06
1.59475e-06
-2.19869e-06
1.4399e-06
-2.22288e-06
1.29675e-06
-2.2376e-06
1.16501e-06
-2.2448e-06
1.0444e-06
-2.24625e-06
9.34597e-07
-2.24346e-06
8.35221e-07
-2.23778e-06
7.45833e-07
-2.23039e-06
6.65971e-07
-2.22234e-06
5.9519e-07
-2.21456e-06
5.33119e-07
-2.20794e-06
4.79528e-07
-2.20336e-06
4.34424e-07
-2.20175e-06
3.98181e-07
-2.2042e-06
3.71722e-07
-2.21218e-06
3.56719e-07
-2.22789e-06
3.55705e-07
-2.25493e-06
3.71775e-07
-2.29941e-06
4.07099e-07
-2.37172e-06
4.5863e-07
-2.48855e-06
5.08414e-07
-2.67366e-06
5.0541e-07
-2.95379e-06
3.39447e-07
-3.34444e-06
-1.80864e-07
-3.82348e-06
-1.3131e-06
-4.29018e-06
-3.29e-06
-4.49965e-06
-6.13651e-06
-3.99038e-06
-9.3644e-06
-2.25529e-06
-1.12644e-05
-7.43769e-06
-3.50705e-07
1.58645e-06
-8.35659e-07
2.99843e-06
-1.2213e-06
3.33321e-06
-1.48292e-06
3.2061e-06
-1.65391e-06
2.94456e-06
-1.76198e-06
2.66558e-06
-1.82441e-06
2.40254e-06
-1.85265e-06
2.16211e-06
-1.85503e-06
1.94355e-06
-1.83802e-06
1.74465e-06
-1.80666e-06
1.56339e-06
-1.765e-06
1.39824e-06
-1.71629e-06
1.24803e-06
-1.66316e-06
1.11187e-06
-1.60773e-06
9.88964e-07
-1.55168e-06
8.7855e-07
-1.49634e-06
7.79879e-07
-1.44271e-06
6.92203e-07
-1.39153e-06
6.14793e-07
-1.34332e-06
5.46982e-07
-1.29841e-06
4.88208e-07
-1.25695e-06
4.38065e-07
-1.21891e-06
3.96381e-07
-1.18406e-06
3.63333e-07
-1.15194e-06
3.396e-07
-1.12176e-06
3.26542e-07
-1.09239e-06
3.26339e-07
-1.06243e-06
3.41814e-07
-1.03077e-06
3.7544e-07
-9.98219e-07
4.26076e-07
-9.71182e-07
4.81377e-07
-9.67815e-07
5.02043e-07
-1.02546e-06
3.97087e-07
-1.2021e-06
-4.22017e-09
-1.56184e-06
-9.53362e-07
-2.12749e-06
-2.72434e-06
-2.78326e-06
-5.48074e-06
-3.09554e-06
-9.05213e-06
-2.24609e-06
-1.21138e-05
-9.68377e-06
-5.59961e-07
2.14641e-06
-1.16164e-06
3.60011e-06
-1.4904e-06
3.66197e-06
-1.60853e-06
3.32423e-06
-1.60337e-06
2.9394e-06
-1.52451e-06
2.58671e-06
-1.39903e-06
2.27707e-06
-1.24438e-06
2.00746e-06
-1.07296e-06
1.77213e-06
-8.93681e-07
1.56536e-06
-7.12807e-07
1.38252e-06
-5.34772e-07
1.2202e-06
-3.62679e-07
1.07594e-06
-1.98647e-07
9.47842e-07
-4.404e-08
8.34357e-07
1.00362e-07
7.34148e-07
2.34235e-07
6.46006e-07
3.57613e-07
5.68825e-07
4.70797e-07
5.01608e-07
5.74308e-07
4.43472e-07
6.68842e-07
3.93674e-07
7.55277e-07
3.5163e-07
8.34692e-07
3.16966e-07
9.08443e-07
2.89583e-07
9.78272e-07
2.69771e-07
1.04653e-06
2.58288e-07
1.11643e-06
2.56437e-07
1.19243e-06
2.65813e-07
1.28022e-06
2.87648e-07
1.38595e-06
3.20352e-07
1.51262e-06
3.54701e-07
1.65239e-06
3.6227e-07
1.77131e-06
2.78173e-07
1.79289e-06
-2.58026e-08
1.5911e-06
-7.51575e-07
1.02688e-06
-2.16012e-06
4.18522e-08
-4.49571e-06
-1.10244e-06
-7.90783e-06
-1.48096e-06
-1.17353e-05
-1.11647e-05
-9.89448e-07
3.13586e-06
-1.60143e-06
4.21209e-06
-1.56995e-06
3.63049e-06
-1.22967e-06
2.98394e-06
-7.80721e-07
2.49046e-06
-2.97126e-07
2.10312e-06
1.92152e-07
1.78779e-06
6.70229e-07
1.52938e-06
1.12657e-06
1.31579e-06
1.55535e-06
1.13659e-06
1.95375e-06
9.8412e-07
2.32076e-06
8.53196e-07
2.65649e-06
7.40202e-07
2.96186e-06
6.42472e-07
3.23829e-06
5.57926e-07
3.48757e-06
4.84872e-07
3.7117e-06
4.2188e-07
3.9128e-06
3.67727e-07
4.09304e-06
3.21365e-07
4.2546e-06
2.81907e-07
4.39966e-06
2.48617e-07
4.53039e-06
2.20898e-07
4.64903e-06
1.98322e-07
4.75796e-06
1.80654e-07
4.8598e-06
1.67936e-07
4.95762e-06
1.60467e-07
5.05519e-06
1.58862e-07
5.15736e-06
1.63651e-07
5.26998e-06
1.75021e-07
5.39963e-06
1.90705e-07
5.55044e-06
2.03888e-07
5.71778e-06
1.94929e-07
5.87192e-06
1.2404e-07
5.93619e-06
-9.0072e-08
5.76074e-06
-5.76125e-07
5.13323e-06
-1.53261e-06
3.83692e-06
-3.1994e-06
1.86969e-06
-5.9406e-06
3.66027e-08
-9.90223e-06
-1.11281e-05
-1.87164e-06
5.0075e-06
-1.17206e-06
3.51251e-06
2.78617e-07
2.17982e-06
1.61541e-06
1.64715e-06
2.78884e-06
1.31703e-06
3.83555e-06
1.0564e-06
4.76942e-06
8.53912e-07
5.59903e-06
6.99775e-07
6.33434e-06
5.80481e-07
6.98539e-06
4.85534e-07
7.56119e-06
4.08318e-07
8.0697e-06
3.4469e-07
8.51807e-06
2.91836e-07
8.91283e-06
2.47712e-07
9.25998e-06
2.10774e-07
9.56503e-06
1.79817e-07
9.83303e-06
1.5388e-07
1.00686e-05
1.32182e-07
1.02759e-05
1.14089e-07
1.04587e-05
9.90869e-08
1.06205e-05
8.67612e-08
1.07646e-05
7.67792e-08
1.08941e-05
6.89029e-08
1.10117e-05
6.29853e-08
1.11206e-05
5.90318e-08
1.1224e-05
5.71203e-08
1.13253e-05
5.7507e-08
1.14288e-05
6.02388e-08
1.15385e-05
6.53234e-08
1.1658e-05
7.11342e-08
1.17875e-05
7.43914e-08
1.19175e-05
6.49935e-08
1.20153e-05
2.61617e-08
1.20031e-05
-7.78802e-08
1.17249e-05
-2.97885e-07
1.0921e-05
-7.28706e-07
9.24475e-06
-1.52315e-06
6.37852e-06
-3.07437e-06
2.54546e-06
-6.06917e-06
-8.58267e-06
5.0075e-06
8.52001e-06
1.06998e-05
1.2347e-05
1.3664e-05
1.47204e-05
1.55743e-05
1.62741e-05
1.68546e-05
1.73401e-05
1.77484e-05
1.80931e-05
1.8385e-05
1.86327e-05
1.88434e-05
1.90233e-05
1.91771e-05
1.93093e-05
1.94234e-05
1.95225e-05
1.96093e-05
1.9686e-05
1.97549e-05
1.98179e-05
1.9877e-05
1.99341e-05
1.99916e-05
2.00518e-05
2.01171e-05
2.01883e-05
2.02627e-05
2.03277e-05
2.03538e-05
2.0276e-05
1.99781e-05
1.92494e-05
1.77262e-05
1.46518e-05
8.58267e-06
)
;

boundaryField
{
    movingWall
    {
        type            calculated;
        value           uniform 0;
    }
    fixedWalls
    {
        type            calculated;
        value           uniform 0;
    }
    frontAndBack
    {
        type            empty;
        value           nonuniform 0();
    }
}


// ************************************************************************* //
