/*--------------------------------*- C++ -*----------------------------------*\
  =========                 |
  \\      /  F ield         | OpenFOAM: The Open Source CFD Toolbox
   \\    /   O peration     | Website:  https://openfoam.org
    \\  /    A nd           | Version:  6.0
     \\/     M anipulation  |
\*---------------------------------------------------------------------------*/
FoamFile
{
    version     2.0;
    format      ascii;
    class       volVectorField;
    location    "3";
    object      U;
}
// * * * * * * * * * * * * * * * * * * * * * * * * * * * * * * * * * * * * * //

dimensions      [0 1 -1 0 0 0 0];

internalField   nonuniform List<vector> 
2000
(
(-0.00211863 0.00175591 3.86039e-20)
(-0.00754383 0.0030281 4.08252e-20)
(-0.0141824 0.00291883 -3.73397e-20)
(-0.0191448 0.00202029 -7.32537e-20)
(-0.0214721 0.000682756 -4.93312e-20)
(-0.0210558 -0.000860213 6.37759e-20)
(-0.0180661 -0.00243452 3.58458e-20)
(-0.0129352 -0.00390618 -1.43549e-20)
(-0.00640334 -0.00517298 -3.46274e-20)
(0.00150247 -0.00613151 2.02812e-20)
(-0.00259498 0.00515113 -9.57068e-20)
(-0.00810118 0.00882549 1.17696e-19)
(-0.0141226 0.00843738 1.08515e-20)
(-0.0180768 0.00572959 -6.28276e-20)
(-0.0191649 0.00173002 2.90954e-19)
(-0.0173657 -0.0028764 -1.24151e-19)
(-0.0129038 -0.00757771 -1.30121e-19)
(-0.00624181 -0.0119753 1.53233e-19)
(0.00185261 -0.0157589 -1.46549e-19)
(0.0112478 -0.0186171 6.08874e-20)
(-0.00348478 0.00820556 1.59493e-20)
(-0.00905765 0.0138719 5.21953e-21)
(-0.0137786 0.0130407 3.38644e-19)
(-0.0156767 0.00850376 1.14144e-19)
(-0.0142713 0.00189798 2.17837e-20)
(-0.00971429 -0.00568844 1.754e-19)
(-0.00233788 -0.0134382 -3.24307e-19)
(0.00733774 -0.0206999 6.76309e-21)
(0.0184932 -0.0269454 -1.83199e-19)
(0.0307786 -0.0316528 1.60015e-19)
(-0.00466094 0.0107068 -3.00009e-20)
(-0.0100923 0.0177087 1.5348e-19)
(-0.0126934 0.0161924 -4.2943e-19)
(-0.0114027 0.00983093 -5.31011e-20)
(-0.00621219 0.000755997 -2.93872e-19)
(0.00246872 -0.00962301 2.95605e-19)
(0.0141495 -0.0202435 -3.05426e-19)
(0.0282302 -0.0302287 2.09337e-19)
(0.0438243 -0.0388219 8.60533e-20)
(0.0602339 -0.0452894 -7.70856e-20)
(-0.00592833 0.0124612 -3.34079e-19)
(-0.0107122 0.0199349 3.16839e-21)
(-0.0101616 0.017459 5.30038e-19)
(-0.0044106 0.00935497 1.52275e-19)
(0.00592808 -0.00190637 -4.7118e-19)
(0.0201041 -0.014711 2.85444e-19)
(0.037417 -0.0278459 3.12941e-19)
(0.057171 -0.0402646 -2.72759e-19)
(0.078415 -0.0509812 1.90735e-19)
(0.0999596 -0.0590615 3.92235e-20)
(-0.0070181 0.0132967 4.56635e-20)
(-0.0102434 0.020223 7.44894e-21)
(-0.00521795 0.0165356 -6.795e-19)
(0.00646595 0.00691133 -3.66355e-19)
(0.0234374 -0.00602736 4.23369e-19)
(0.0445198 -0.0206062 -4.81901e-19)
(0.0687432 -0.035596 5.37993e-19)
(0.0953008 -0.0498864 -4.58389e-20)
(0.12321 -0.0622995 -1.45323e-19)
(0.150651 -0.0717434 -3.44478e-19)
(-0.00758279 0.0130686 -9.94672e-20)
(-0.00783303 0.0183357 -1.62294e-19)
(0.00335196 0.0132614 -1.91704e-19)
(0.0227054 0.00253283 3.94532e-19)
(0.0479808 -0.011275 7.09343e-19)
(0.077487 -0.0265806 -1.43038e-19)
(0.109905 -0.0423098 -3.36354e-19)
(0.144281 -0.0574724 1.00741e-19)
(0.17968 -0.0708227 -6.20592e-19)
(0.21357 -0.0812124 5.5953e-19)
(-0.00719908 0.0116731 6.08246e-19)
(-0.0024755 0.0141511 -2.96923e-19)
(0.0169556 0.0076301 5.56793e-19)
(0.0460195 -0.00357327 -8.79562e-19)
(0.0815112 -0.0171086 -4.07738e-19)
(0.121135 -0.0316047 -5.4998e-19)
(0.163106 -0.046311 1.57088e-19)
(0.206234 -0.0606121 -4.24007e-19)
(0.249754 -0.0734271 9.08059e-19)
(0.290557 -0.0838044 2.07254e-19)
(-0.00538715 0.00907387 4.43053e-20)
(0.00692025 0.00770224 4.83192e-19)
(0.0370791 -0.000201652 9.24497e-19)
(0.0782021 -0.0110845 2.73261e-19)
(0.126101 -0.0229325 7.85369e-19)
(0.177787 -0.034576 4.1524e-20)
(0.230832 -0.0455729 3.9283e-22)
(0.283545 -0.0557239 2.95952e-19)
(0.335335 -0.0642502 2.34563e-19)
(0.383095 -0.0713908 -6.32968e-19)
(-0.00165975 0.00534027 -3.59348e-19)
(0.0214037 -0.000771772 -5.38912e-19)
(0.0650908 -0.0099132 -7.55071e-19)
(0.120898 -0.0197049 1.68709e-20)
(0.183793 -0.0285463 -3.61768e-19)
(0.250203 -0.0353149 5.56151e-19)
(0.317086 -0.0394658 -1.49611e-18)
(0.381986 -0.040538 6.59666e-19)
(0.443555 -0.03776 2.4302e-19)
(0.498372 -0.0348399 6.34863e-19)
(0.0043887 0.000694696 1.80053e-19)
(0.0417598 -0.0107452 -6.15421e-19)
(0.101828 -0.0209416 5.29665e-19)
(0.174853 -0.0291851 -1.99187e-19)
(0.255323 -0.0345426 2.10466e-19)
(0.339667 -0.0360234 4.45824e-19)
(0.425394 -0.0327729 -5.85123e-19)
(0.511301 -0.0236574 7.31061e-20)
(0.597296 -0.00887625 -2.68527e-19)
(0.683909 0.00318468 4.46623e-19)
(0.0130008 -0.00445189 2.56217e-19)
(0.068321 -0.021281 -5.56828e-19)
(0.147215 -0.0321501 7.32776e-19)
(0.238987 -0.0385759 -4.42162e-19)
(0.337657 -0.0408132 -1.5791e-19)
(0.43946 -0.0386952 9.1135e-20)
(0.541849 -0.0322052 4.75183e-20)
(0.643443 -0.0214055 6.06121e-19)
(0.743024 -0.00829898 1.70381e-19)
(0.837251 -8.86655e-05 6.16382e-19)
(0.0242714 -0.00952772 -2.27847e-19)
(0.101081 -0.0310014 7.18276e-19)
(0.200723 -0.0415525 -5.80027e-19)
(0.311792 -0.0452653 -6.60219e-19)
(0.427782 -0.0438065 8.96729e-19)
(0.544474 -0.0379594 -6.63262e-19)
(0.658796 -0.0285493 1.71336e-19)
(0.768564 -0.0164387 -9.79618e-19)
(0.871472 -0.00369089 7.18576e-19)
(0.963082 0.00542928 2.97753e-20)
(0.038191 -0.0139084 -2.95677e-19)
(0.139779 -0.0383746 -2.57522e-19)
(0.261566 -0.0469452 -5.30316e-19)
(0.391758 -0.0464518 6.21727e-19)
(0.523418 -0.0400539 -3.04064e-20)
(0.65193 -0.0294599 3.81094e-19)
(0.773838 -0.0161829 6.75445e-19)
(0.88653 -0.00151161 -2.03425e-19)
(0.98744 0.0129334 -6.88954e-19)
(1.07248 0.0248905 1.19876e-18)
(0.0546621 -0.0169898 -1.51982e-19)
(0.183886 -0.0419406 -1.62785e-19)
(0.328607 -0.0463356 2.85192e-19)
(0.477066 -0.0398345 -5.14032e-19)
(0.622163 -0.0271066 8.54099e-20)
(0.759169 -0.0107339 7.42172e-20)
(0.884657 0.00720966 3.01387e-20)
(0.996169 0.0251945 -7.31808e-21)
(1.0916 0.0420709 -7.67368e-20)
(1.16777 0.0567438 -1.01314e-18)
(0.0734844 -0.018212 6.17495e-19)
(0.232564 -0.040419 -3.8603e-19)
(0.400268 -0.0381267 4.54331e-21)
(0.56541 -0.0238079 -5.53616e-19)
(0.721145 -0.00359341 -1.92656e-19)
(0.863068 0.0191572 1.76347e-19)
(0.988277 0.0419521 1.31826e-19)
(1.09504 0.0631709 -4.61864e-19)
(1.1822 0.0821216 3.65872e-19)
(1.24785 0.0983707 -4.20562e-19)
(0.0943281 -0.0170687 2.65021e-19)
(0.284642 -0.0327684 -2.11695e-19)
(0.474526 -0.0212072 8.53355e-19)
(0.654039 0.00247281 8.50981e-20)
(0.817135 0.0308264 1.8849e-19)
(0.960265 0.0598926 8.19289e-19)
(1.0816 0.0869703 -1.23034e-19)
(1.1806 0.110546 1.07281e-19)
(1.25744 0.130444 4.19514e-20)
(1.31163 0.146633 -4.81419e-20)
(0.116712 -0.0131222 1.84044e-19)
(0.33862 -0.0182334 4.00203e-19)
(0.548989 0.00500491 -4.15999e-19)
(0.739914 0.039108 -1.37086e-19)
(0.906792 0.0756041 -1.64438e-19)
(1.04752 0.110221 2.46719e-19)
(1.16184 0.140343 -1.25015e-19)
(1.25081 0.164825 3.29682e-19)
(1.31609 0.184121 1.07975e-19)
(1.35869 0.198502 -1.54217e-19)
(0.139997 -0.0060321 -1.98638e-19)
(0.392712 0.00360406 1.58694e-19)
(0.621019 0.040536 -3.27939e-19)
(0.819917 0.0855009 1.37359e-19)
(0.986949 0.12946 -1.38728e-19)
(1.12203 0.168243 -1.68735e-19)
(1.22689 0.199693 -1.32206e-19)
(1.30439 0.223325 1.44648e-19)
(1.35774 0.240358 -2.67091e-19)
(1.38935 0.251346 1.41048e-19)
(0.163398 0.00440812 -7.04448e-20)
(0.444923 0.0327716 -1.24462e-19)
(0.687886 0.0848442 5.71671e-20)
(0.891074 0.140423 3.31047e-21)
(1.05485 0.190543 4.49003e-20)
(1.18164 0.231651 6.00464e-20)
(1.27541 0.262463 5.44457e-20)
(1.3409 0.283441 -7.07194e-20)
(1.38274 0.296675 5.91318e-20)
(1.4046 0.303019 -8.01676e-20)
(0.186019 0.0182335 -4.06633e-20)
(0.493158 0.068863 -1.36738e-20)
(0.746947 0.136827 5.32049e-20)
(0.950757 0.202096 -2.35842e-20)
(1.10835 0.256581 6.15876e-20)
(1.22496 0.297921 -7.75485e-20)
(1.3069 0.326113 1.75837e-20)
(1.36067 0.342792 1.84088e-20)
(1.39209 0.350983 -7.59066e-21)
(1.40582 0.351846 2.48352e-20)
(0.206895 0.0352764 -4.35354e-20)
(0.535347 0.111017 -1.79036e-19)
(0.79581 0.194858 -1.23222e-20)
(0.996842 0.268302 3.55774e-21)
(1.14597 0.325034 -2.13666e-19)
(1.25137 0.364474 2.72965e-20)
(1.32159 0.388241 -2.29281e-20)
(1.36463 0.399293 -5.47361e-20)
(1.38718 0.401576 1.13087e-19)
(1.39464 0.396548 -1.76887e-19)
(0.22505 0.0551461 -2.10813e-20)
(0.569575 0.157924 3.63429e-19)
(0.832484 0.256855 5.67992e-20)
(1.02782 0.336493 -3.0002e-19)
(1.16699 0.393233 -2.3875e-20)
(1.26101 0.428795 -2.76164e-19)
(1.32034 0.446661 1.99144e-19)
(1.35415 0.451162 -7.18572e-20)
(1.36968 0.447078 1.26031e-19)
(1.37276 0.436144 -8.05514e-20)
(0.239559 0.0772236 -1.33881e-19)
(0.594213 0.207865 1.17051e-19)
(0.855504 0.320375 -8.13679e-20)
(1.04288 0.403931 5.92578e-19)
(1.17141 0.458505 2.86357e-19)
(1.25462 0.488518 -6.52995e-20)
(1.30449 0.499437 2.18486e-19)
(1.33092 0.496895 -1.4123e-19)
(1.34138 0.486376 -3.97728e-20)
(1.3419 0.46986 2.23224e-19)
(0.249614 0.100673 -2.33278e-19)
(0.608023 0.258783 2.69796e-19)
(0.864006 0.382736 -5.13956e-19)
(1.04187 0.467813 7.11085e-20)
(1.15988 0.518275 1.57264e-19)
(1.2335 0.541487 -2.29869e-19)
(1.27574 0.544877 -2.75814e-19)
(1.29681 0.535228 1.22542e-19)
(1.30416 0.51855 -1.47468e-19)
(1.30378 0.497049 1.60266e-19)
(0.25458 0.124472 -5.86483e-20)
(0.610245 0.308384 -2.75575e-19)
(0.857765 0.44115 1.45513e-19)
(1.02533 0.525396 2.46967e-19)
(1.1336 0.570153 -1.42355e-19)
(1.19936 0.585779 -1.07256e-19)
(1.23606 0.58152 -7.50065e-20)
(1.25383 0.565078 -3.53538e-20)
(1.25987 0.542786 2.32103e-21)
(1.26005 0.517106 8.05437e-20)
(0.254049 0.147452 4.72986e-20)
(0.60065 0.354253 -2.44408e-19)
(0.837192 0.492871 3.96754e-19)
(0.994341 0.574127 -2.2521e-19)
(1.09422 0.612009 7.34396e-20)
(1.15418 0.619736 -9.77153e-20)
(1.18754 0.608118 1.03793e-19)
(1.20401 0.585492 3.80569e-20)
(1.21038 0.558294 1.41579e-20)
(1.21232 0.529329 -1.74912e-20)
(0.247881 0.168368 -1.27534e-19)
(0.579568 0.393998 2.29052e-19)
(0.803292 0.535343 -7.10692e-21)
(0.9505 0.611756 -5.31425e-20)
(1.0437 0.642049 -1.06093e-19)
(1.1001 0.642005 1.81109e-20)
(1.13239 0.623675 -1.73183e-20)
(1.14952 0.595707 -3.52396e-20)
(1.15777 0.564357 3.62498e-20)
(1.16263 0.532914 3.8465e-20)
(0.23624 0.185977 6.4836e-20)
(0.547878 0.425403 -5.5948e-20)
(0.757578 0.566341 -1.11349e-20)
(0.895715 0.636416 6.90498e-20)
(0.984125 0.658812 -2.23799e-20)
(1.03927 0.65145 -3.53231e-20)
(1.07282 0.627294 -1.05191e-19)
(1.09276 0.594999 -4.66821e-20)
(1.10494 0.560313 -6.0922e-20)
(1.11426 0.527206 3.74931e-20)
(0.219604 0.199144 2.5305e-20)
(0.506965 0.446604 -5.47726e-20)
(0.701969 0.584138 5.29085e-20)
(0.832043 0.646749 -1.16503e-19)
(0.917372 0.661195 2.52991e-20)
(0.973197 0.646922 2.03213e-19)
(1.01003 0.617399 -6.15749e-20)
(1.03503 0.581001 6.79036e-20)
(1.05364 0.542813 1.02953e-19)
(1.06905 0.508609 3.06161e-19)
(0.198771 0.206954 3.5321e-19)
(0.458689 0.456262 -2.08036e-19)
(0.638746 0.587729 5.02644e-19)
(0.761659 0.642279 -8.2589e-20)
(0.845023 0.649156 4.15379e-19)
(0.902415 0.628464 2.54854e-19)
(0.943112 0.593385 -5.83371e-19)
(0.973624 0.551077 8.76779e-19)
(0.998666 0.503867 -1.84009e-19)
(1.01504 0.455571 3.29389e-19)
(0.174818 0.208777 -1.97542e-19)
(0.405337 0.453618 -1.31431e-19)
(0.57064 0.576838 1.29301e-19)
(0.687234 0.623511 -2.89582e-19)
(0.769272 0.624346 -8.82095e-19)
(0.828177 0.599636 -3.49528e-19)
(0.871793 0.562339 -3.04091e-19)
(0.905672 0.519678 1.47991e-19)
(0.933114 0.475104 1.19507e-18)
(0.950381 0.43327 -2.22511e-19)
(0.149016 0.204262 1.09714e-19)
(0.349501 0.438356 -4.02943e-19)
(0.500791 0.551471 8.43113e-20)
(0.612183 0.590762 -5.94454e-19)
(0.693922 0.587226 1.25862e-18)
(0.755128 0.560721 -1.44372e-19)
(0.802169 0.523621 6.5751e-19)
(0.839607 0.482778 -9.20042e-19)
(0.870114 0.441644 2.85063e-19)
(0.891283 0.404289 4.03114e-20)
(0.122703 0.19332 8.14778e-20)
(0.293805 0.410577 4.42024e-19)
(0.432245 0.511951 -1.25816e-18)
(0.539598 0.544417 5.89508e-19)
(0.62202 0.538007 1.71771e-23)
(0.68633 0.511476 -1.8855e-19)
(0.737499 0.476263 2.34555e-19)
(0.779244 0.438618 -2.26044e-19)
(0.813867 0.401657 -7.6099e-19)
(0.839852 0.368475 -1.89401e-19)
(0.0972015 0.176122 2.70982e-19)
(0.240757 0.370822 2.71805e-19)
(0.367813 0.459023 1.07667e-18)
(0.472189 0.485234 -5.79936e-19)
(0.555997 0.47729 1.15995e-18)
(0.623848 0.452208 -2.42915e-19)
(0.67943 0.420167 -2.50019e-19)
(0.72572 0.38665 2.90474e-19)
(0.764725 0.354315 1.85729e-19)
(0.795579 0.325386 6.05702e-19)
(0.0737616 0.153094 -2.77175e-19)
(0.192665 0.320063 8.16136e-20)
(0.310018 0.393874 2.17049e-20)
(0.412309 0.414388 5.93757e-19)
(0.497882 0.406104 -1.43792e-18)
(0.569332 0.383741 2.38672e-19)
(0.629204 0.35596 5.12268e-19)
(0.679835 0.327359 -6.06463e-19)
(0.722982 0.30009 2.09583e-19)
(0.758353 0.275675 -8.7676e-19)
(0.0535128 0.124905 5.92509e-20)
(0.151567 0.259676 2.85285e-19)
(0.261039 0.318101 1.06654e-19)
(0.36195 0.333437 1.40004e-19)
(0.449354 0.325844 2.59517e-19)
(0.524112 0.307275 7.50998e-19)
(0.587808 0.28467 -8.97677e-19)
(0.642244 0.261663 -4.94462e-19)
(0.688984 0.239904 8.03595e-20)
(0.728258 0.220371 5.70088e-19)
(0.0374212 0.0924435 -3.58788e-19)
(0.119173 0.191393 -3.77789e-20)
(0.222675 0.233667 -3.06372e-19)
(0.322733 0.24427 4.23328e-20)
(0.41176 0.238213 -2.4561e-19)
(0.489252 0.224305 -2.73134e-19)
(0.556039 0.207611 -3.97408e-19)
(0.613509 0.190758 1.04745e-18)
(0.663094 0.174903 1.76957e-19)
(0.705461 0.16063 -2.43435e-19)
(0.0262506 0.0567865 1.93612e-19)
(0.0968142 0.117247 2.28568e-19)
(0.196314 0.142826 8.61516e-20)
(0.295891 0.149041 -4.50842e-19)
(0.386124 0.145148 -2.03465e-19)
(0.465558 0.136542 -4.27314e-20)
(0.534509 0.126302 8.13307e-20)
(0.594085 0.116019 6.40198e-20)
(0.645633 0.106376 -4.84425e-19)
(0.690142 0.0976753 2.50869e-19)
(0.0205299 0.0191522 -1.00867e-19)
(0.0854027 0.0394892 -1.02475e-19)
(0.182895 0.0480514 7.84382e-20)
(0.28226 0.0500984 6.72632e-20)
(0.373133 0.048757 6.68863e-20)
(0.453574 0.0458439 9.9471e-20)
(0.523638 0.0423933 -5.19542e-21)
(0.584291 0.0389363 -1.2467e-19)
(0.63684 0.0356998 1.16057e-19)
(0.682443 0.032776 -1.57475e-19)
(0.0205298 -0.0191513 -1.01508e-19)
(0.0854027 -0.0394872 -9.76123e-20)
(0.182894 -0.0480488 8.64636e-20)
(0.28226 -0.0500957 1.63435e-19)
(0.373132 -0.0487542 1.05529e-19)
(0.453574 -0.0458413 -1.35387e-19)
(0.523638 -0.0423909 -7.16907e-20)
(0.584291 -0.0389341 3.07232e-20)
(0.63684 -0.0356978 6.75738e-20)
(0.682443 -0.0327742 -3.62771e-20)
(0.0262505 -0.0567856 2.42068e-19)
(0.096814 -0.117245 -2.7468e-19)
(0.196313 -0.142823 -2.18246e-20)
(0.295891 -0.149039 1.41342e-19)
(0.386124 -0.145146 -6.19253e-19)
(0.465558 -0.136539 2.57473e-19)
(0.534509 -0.1263 2.59227e-19)
(0.594085 -0.116016 -2.99615e-19)
(0.645633 -0.106374 2.80693e-19)
(0.690141 -0.0976735 -1.11346e-19)
(0.0374211 -0.0924426 -4.1882e-20)
(0.119173 -0.191391 -4.61012e-21)
(0.222675 -0.233664 -7.119e-19)
(0.322732 -0.244267 -2.18215e-19)
(0.41176 -0.23821 -2.16676e-20)
(0.489252 -0.224303 -3.39269e-19)
(0.556039 -0.207609 6.17223e-19)
(0.613509 -0.190756 -2.15398e-20)
(0.663093 -0.174901 3.38644e-19)
(0.70546 -0.160628 -2.67923e-19)
(0.0535126 -0.124904 7.05853e-20)
(0.151567 -0.259674 -2.90623e-19)
(0.261038 -0.318099 8.61684e-19)
(0.36195 -0.333434 1.18116e-19)
(0.449353 -0.325842 5.61199e-19)
(0.524112 -0.307273 -5.33296e-19)
(0.587808 -0.284667 5.46779e-19)
(0.642243 -0.261661 -3.86572e-19)
(0.688983 -0.239902 -1.67004e-19)
(0.728257 -0.220369 1.27206e-19)
(0.0737613 -0.153093 6.26857e-19)
(0.192664 -0.320061 1.58017e-21)
(0.310017 -0.393871 -9.03689e-19)
(0.412309 -0.414386 -2.5296e-19)
(0.497881 -0.406101 8.16809e-19)
(0.569331 -0.383738 -4.65264e-19)
(0.629204 -0.355958 -5.26313e-19)
(0.679835 -0.327357 4.64129e-19)
(0.722981 -0.300088 -3.09658e-19)
(0.758353 -0.275673 -6.01823e-20)
(0.0972012 -0.176121 -9.37982e-20)
(0.240756 -0.37082 -3.6143e-21)
(0.367812 -0.459021 9.74692e-19)
(0.472188 -0.485232 5.40639e-19)
(0.555996 -0.477287 -6.18351e-19)
(0.623847 -0.452205 7.30218e-19)
(0.679429 -0.420165 -7.71945e-19)
(0.72572 -0.386648 7.59062e-20)
(0.764724 -0.354313 2.21933e-19)
(0.795578 -0.325384 4.59821e-19)
(0.122703 -0.193319 1.04941e-19)
(0.293804 -0.410575 1.49744e-19)
(0.432244 -0.511949 1.55208e-19)
(0.539597 -0.544414 -4.94715e-19)
(0.622019 -0.538005 -8.53037e-19)
(0.686329 -0.511474 1.75259e-19)
(0.737498 -0.47626 4.98911e-19)
(0.779243 -0.438616 -1.39552e-19)
(0.813866 -0.401655 8.21297e-19)
(0.839851 -0.368473 -7.21813e-19)
(0.149016 -0.204261 -5.91358e-19)
(0.3495 -0.438354 1.97796e-19)
(0.50079 -0.551469 -5.25617e-19)
(0.612182 -0.590759 8.20583e-19)
(0.693921 -0.587224 3.99183e-19)
(0.755127 -0.560719 5.49499e-19)
(0.802168 -0.523619 -1.22279e-19)
(0.839606 -0.482775 4.82129e-19)
(0.870113 -0.441642 -1.00057e-18)
(0.891282 -0.404288 -2.35169e-19)
(0.174818 -0.208776 3.90779e-20)
(0.405336 -0.453617 -3.47971e-19)
(0.570639 -0.576836 -5.22739e-19)
(0.687233 -0.623509 -2.2067e-19)
(0.769271 -0.624344 -6.02979e-19)
(0.828176 -0.599634 -6.20639e-20)
(0.871792 -0.562337 5.38279e-20)
(0.905671 -0.519676 -2.18869e-19)
(0.933113 -0.475102 -2.43528e-19)
(0.95038 -0.433268 5.76222e-19)
(0.198771 -0.206953 1.77696e-19)
(0.458688 -0.45626 2.14427e-19)
(0.638745 -0.587728 3.79006e-19)
(0.761658 -0.642277 1.93743e-20)
(0.845022 -0.649154 2.44492e-19)
(0.902413 -0.628461 -3.21116e-19)
(0.943111 -0.593382 9.67801e-19)
(0.973623 -0.551075 -4.17305e-19)
(0.998665 -0.503866 -2.04551e-19)
(1.01504 -0.455569 -5.57408e-19)
(0.219604 -0.199144 -6.72481e-20)
(0.506965 -0.446603 8.45074e-20)
(0.701968 -0.584137 -8.75253e-20)
(0.832042 -0.646747 5.06057e-20)
(0.917371 -0.661193 -5.91672e-20)
(0.973196 -0.646919 -1.53326e-19)
(1.01002 -0.617397 1.96285e-19)
(1.03502 -0.580999 -7.03696e-20)
(1.05364 -0.542811 9.68543e-20)
(1.06905 -0.508607 -1.74539e-19)
(0.23624 -0.185977 1.11871e-20)
(0.547877 -0.425403 -9.35912e-20)
(0.757577 -0.56634 6.02775e-20)
(0.895714 -0.636414 4.2112e-20)
(0.984124 -0.65881 -4.23194e-20)
(1.03927 -0.651447 1.44246e-20)
(1.07282 -0.627292 -4.48427e-21)
(1.09276 -0.594997 -1.32058e-19)
(1.10493 -0.560311 -6.71768e-20)
(1.11426 -0.527204 -1.61666e-19)
(0.247881 -0.168367 -7.13592e-20)
(0.579568 -0.393997 2.28812e-19)
(0.803292 -0.535342 -1.48152e-19)
(0.9505 -0.611754 -8.28577e-20)
(1.0437 -0.642046 7.73164e-20)
(1.1001 -0.642002 -1.0949e-20)
(1.13239 -0.623673 8.24967e-21)
(1.14952 -0.595705 6.74053e-20)
(1.15777 -0.564355 -6.49092e-20)
(1.16263 -0.532912 6.31168e-22)
(0.254049 -0.147451 -1.59797e-19)
(0.60065 -0.354252 -9.64775e-20)
(0.837192 -0.49287 -2.26366e-19)
(0.994341 -0.574126 2.51668e-19)
(1.09422 -0.612006 -1.69559e-20)
(1.15417 -0.619733 9.00799e-20)
(1.18753 -0.608115 1.16231e-19)
(1.20401 -0.585489 -3.88752e-20)
(1.21037 -0.558292 -2.21187e-20)
(1.21232 -0.529327 2.14873e-20)
(0.254581 -0.124472 -1.05946e-19)
(0.610245 -0.308384 -1.22166e-19)
(0.857765 -0.441149 1.81651e-19)
(1.02533 -0.525394 -2.70027e-19)
(1.1336 -0.570151 4.5834e-20)
(1.19936 -0.585776 2.46721e-20)
(1.23605 -0.581518 4.49346e-20)
(1.25383 -0.565076 -2.80768e-20)
(1.25987 -0.542784 -3.77443e-20)
(1.26004 -0.517104 -1.56481e-19)
(0.249615 -0.100674 4.42098e-19)
(0.608024 -0.258783 -3.0897e-19)
(0.864007 -0.382735 1.31235e-20)
(1.04187 -0.467811 -3.77102e-19)
(1.15988 -0.518273 -1.08769e-19)
(1.2335 -0.541484 8.61618e-20)
(1.27574 -0.544874 6.22905e-20)
(1.29681 -0.535226 -2.05754e-19)
(1.30415 -0.518547 9.97027e-20)
(1.30378 -0.497047 -1.43107e-19)
(0.23956 -0.0772237 2.1733e-19)
(0.594215 -0.207865 -1.93574e-19)
(0.855505 -0.320375 6.76292e-19)
(1.04288 -0.40393 5.37302e-20)
(1.17141 -0.458503 1.45018e-19)
(1.25462 -0.488516 5.13737e-19)
(1.30449 -0.499434 -1.01738e-19)
(1.33091 -0.496892 2.94492e-20)
(1.34138 -0.486374 -1.01485e-20)
(1.3419 -0.469858 -2.20563e-20)
(0.225051 -0.0551462 1.66906e-19)
(0.569577 -0.157924 3.43171e-19)
(0.832486 -0.256854 -3.39859e-19)
(1.02783 -0.336491 -1.01236e-19)
(1.16699 -0.393231 -1.04983e-19)
(1.261 -0.428792 1.98392e-19)
(1.32034 -0.446659 -9.2289e-20)
(1.35415 -0.451159 2.1574e-19)
(1.36967 -0.447075 5.32262e-20)
(1.37275 -0.436142 -7.91946e-20)
(0.206897 -0.0352765 -1.80676e-19)
(0.535349 -0.111017 1.51292e-19)
(0.795813 -0.194858 -3.0043e-19)
(0.996844 -0.2683 1.22223e-19)
(1.14597 -0.325031 -1.19392e-19)
(1.25137 -0.364472 -1.3893e-19)
(1.32159 -0.388238 -1.05942e-19)
(1.36463 -0.39929 1.14788e-19)
(1.38718 -0.401573 -1.97821e-19)
(1.39463 -0.396546 1.0731e-19)
(0.186021 -0.0182335 -6.76229e-20)
(0.493161 -0.0688627 -1.1998e-19)
(0.746951 -0.136826 5.43966e-20)
(0.95076 -0.202095 3.80382e-21)
(1.10835 -0.256578 4.10227e-20)
(1.22496 -0.297919 5.74583e-20)
(1.3069 -0.32611 4.80767e-20)
(1.36067 -0.342789 -6.37012e-20)
(1.39208 -0.35098 5.13315e-20)
(1.40582 -0.351844 -6.99129e-20)
(0.1634 -0.00440799 -4.28897e-20)
(0.444926 -0.032771 -1.55886e-20)
(0.68789 -0.0848431 5.63655e-20)
(0.891077 -0.140421 -2.44699e-20)
(1.05485 -0.190541 6.69969e-20)
(1.18164 -0.231648 -8.24645e-20)
(1.27541 -0.26246 2.07146e-20)
(1.3409 -0.283438 1.74413e-20)
(1.38274 -0.296673 -6.15802e-21)
(1.4046 -0.303017 2.44074e-20)
(0.139999 0.00603236 -5.15279e-20)
(0.392716 -0.00360326 -1.97119e-19)
(0.621023 -0.0405346 -1.57017e-20)
(0.81992 -0.0854989 6.07621e-21)
(0.986951 -0.129458 -2.49607e-19)
(1.12203 -0.16824 2.55383e-20)
(1.22688 -0.19969 -2.66607e-20)
(1.30438 -0.223323 -7.07003e-20)
(1.35773 -0.240356 1.53108e-19)
(1.38935 -0.251344 -2.42313e-19)
(0.116714 0.0131226 -2.94552e-20)
(0.338624 0.0182345 4.24181e-19)
(0.548994 -0.00500321 5.45981e-20)
(0.739918 -0.0391058 -3.58862e-19)
(0.906795 -0.0756016 -4.23305e-20)
(1.04752 -0.110218 -3.84174e-19)
(1.16184 -0.14034 2.91538e-19)
(1.2508 -0.164823 -1.15172e-19)
(1.31608 -0.184119 2.14492e-19)
(1.35868 -0.1985 -1.63571e-19)
(0.0943301 0.0170693 -1.66344e-19)
(0.284646 0.0327698 1.75837e-19)
(0.474531 0.0212092 -1.18398e-19)
(0.654044 -0.00247036 7.90597e-19)
(0.817138 -0.0308238 4.06961e-19)
(0.960266 -0.05989 -1.03397e-19)
(1.08159 -0.0869679 3.93892e-19)
(1.1806 -0.110544 -2.50797e-19)
(1.25744 -0.130442 -7.71932e-20)
(1.31163 -0.146631 4.97371e-19)
(0.0734864 0.0182128 -3.08933e-19)
(0.232568 0.0404208 4.15252e-19)
(0.400274 0.0381291 -7.61718e-19)
(0.565415 0.0238107 1.28001e-19)
(0.72115 0.00359625 3.10408e-19)
(0.863069 -0.0191545 -3.79323e-19)
(0.988276 -0.0419498 -6.54185e-19)
(1.09503 -0.063169 3.42862e-19)
(1.1822 -0.0821203 -4.31989e-19)
(1.24785 -0.0983697 6.04052e-19)
(0.054664 0.0169906 -7.61916e-20)
(0.18389 0.0419427 -4.18781e-19)
(0.328613 0.0463384 1.98833e-19)
(0.477072 0.0398376 4.85677e-19)
(0.622167 0.0271097 -2.5331e-19)
(0.759172 0.0107367 -2.43658e-19)
(0.884657 -0.00720737 -4.02274e-19)
(0.996167 -0.0251929 -1.76991e-19)
(1.09159 -0.0420699 -3.85028e-20)
(1.16777 -0.0567431 6.00697e-19)
(0.0381928 0.0139093 1.29385e-19)
(0.139783 0.038377 -5.71077e-19)
(0.261572 0.0469484 9.44651e-19)
(0.391764 0.0464554 -5.08699e-19)
(0.523423 0.0400573 3.21458e-19)
(0.651933 0.0294629 -3.89044e-19)
(0.773839 0.0161853 4.23291e-19)
(0.886529 0.00151319 3.59677e-19)
(0.987435 -0.0129325 7.54431e-19)
(1.07247 -0.0248899 -1.09262e-18)
(0.0242731 0.0095288 -4.01717e-19)
(0.101085 0.031004 7.25668e-19)
(0.200728 0.0415561 1.00325e-20)
(0.311799 0.0452692 -2.44067e-19)
(0.427788 0.0438103 -1.25885e-19)
(0.544478 0.0379628 9.76563e-20)
(0.658798 0.0285519 -6.80883e-19)
(0.768563 0.0164404 5.06681e-19)
(0.871468 0.00369181 -6.42652e-19)
(0.963077 -0.00542872 -2.5011e-19)
(0.0130024 0.00445306 6.93875e-19)
(0.0683249 0.0212839 -1.93816e-19)
(0.14722 0.0321541 -3.52299e-19)
(0.238993 0.0385803 9.26464e-19)
(0.337662 0.0408175 -8.84888e-19)
(0.439464 0.0386991 4.81232e-19)
(0.541851 0.0322082 4.97695e-19)
(0.643443 0.0214076 1.30938e-19)
(0.743022 0.00830017 1.32648e-19)
(0.837247 8.94359e-05 -1.61401e-19)
(0.00439013 -0.000693447 -6.65094e-19)
(0.0417633 0.0107484 5.67283e-19)
(0.101833 0.0209459 -4.8393e-19)
(0.174859 0.02919 5.88593e-19)
(0.255329 0.0345475 -1.7083e-19)
(0.339672 0.0360278 -5.77488e-19)
(0.425396 0.0327766 1.62529e-19)
(0.511302 0.0236601 -2.56917e-19)
(0.597294 0.008878 -2.93786e-19)
(0.683906 -0.00318338 -7.83262e-19)
(-0.00165846 -0.00533896 -8.33849e-19)
(0.021407 0.000775106 5.93462e-19)
(0.0650954 0.00991787 -1.12015e-18)
(0.120903 0.0197103 1.9408e-19)
(0.183798 0.0285518 -7.29955e-19)
(0.250207 0.0353201 -4.27031e-19)
(0.317089 0.0394702 9.98989e-19)
(0.381988 0.0405414 -1.33724e-18)
(0.443554 0.0377624 2.52288e-19)
(0.498371 0.0348418 -3.46823e-19)
(-0.00538601 -0.00907251 4.1091e-19)
(0.00692316 -0.00769872 1.55629e-19)
(0.0370833 0.000206644 -4.44786e-20)
(0.078207 0.0110903 4.11441e-19)
(0.126105 0.0229386 1.17407e-18)
(0.177792 0.0345819 3.94419e-19)
(0.230835 0.045578 3.99024e-19)
(0.283547 0.0557281 -1.34352e-19)
(0.335335 0.0642535 -1.23626e-18)
(0.383094 0.0713935 2.62359e-19)
(-0.00719808 -0.0116717 -1.16163e-19)
(-0.00247293 -0.0141474 3.30739e-19)
(0.0169594 -0.00762479 -8.32645e-20)
(0.0460238 0.00357958 5.67948e-19)
(0.0815156 0.0171153 -1.27533e-18)
(0.121139 0.0316113 1.04617e-19)
(0.163109 0.0463171 -5.75663e-19)
(0.206236 0.0606173 8.29497e-19)
(0.249754 0.0734315 -2.37268e-19)
(0.290556 0.0838081 -2.64226e-20)
(-0.00758194 -0.0130671 -7.92483e-20)
(-0.00783081 -0.0183318 -3.97445e-19)
(0.00335518 -0.0132557 9.59186e-19)
(0.0227092 -0.00252604 -4.89203e-19)
(0.0479847 0.0112824 3.41154e-20)
(0.0774906 0.026588 1.4825e-19)
(0.109908 0.0423168 -1.29492e-19)
(0.144283 0.0574787 1.67359e-19)
(0.179681 0.0708281 5.66266e-19)
(0.21357 0.0812171 1.14386e-19)
(-0.00701738 -0.0132952 -1.77665e-19)
(-0.0102416 -0.020219 -1.75932e-19)
(-0.00521523 -0.0165296 -7.50336e-19)
(0.00646914 -0.00690408 3.85217e-19)
(0.0234407 0.00603532 -7.69495e-19)
(0.0445229 0.0206144 1.70753e-19)
(0.0687457 0.0356039 1.87329e-19)
(0.0953024 0.0498936 -1.9091e-19)
(0.123211 0.0623059 -1.20086e-19)
(0.150651 0.0717491 -4.40313e-19)
(-0.00592774 -0.0124596 1.38367e-19)
(-0.0107106 -0.0199307 -2.93185e-20)
(-0.0101593 -0.0174527 8.54752e-22)
(-0.00440797 -0.00934729 -3.45888e-19)
(0.00593081 0.00191487 8.50044e-19)
(0.0201066 0.0147198 -1.28769e-19)
(0.0374191 0.0278545 -3.12019e-19)
(0.0571724 0.0402726 3.73858e-19)
(0.0784157 0.0509885 -1.27213e-19)
(0.0999594 0.059068 5.70082e-19)
(-0.00466046 -0.0107052 -2.59379e-20)
(-0.0100911 -0.0177044 -1.35273e-19)
(-0.0126916 -0.0161859 -5.10216e-20)
(-0.0114006 -0.00982291 -6.30925e-20)
(-0.00620998 -0.000747055 -1.31524e-19)
(0.00247081 0.00963233 -3.99455e-19)
(0.0141512 0.0202527 4.86468e-19)
(0.0282314 0.0302374 2.75834e-19)
(0.0438249 0.0388298 -5.00638e-20)
(0.0602339 0.0452966 -3.46392e-19)
(-0.0034844 -0.00820395 1.47305e-19)
(-0.00905664 -0.0138675 2.29179e-20)
(-0.0137771 -0.0130341 1.49026e-19)
(-0.0156749 -0.00849552 -1.57614e-20)
(-0.0142694 -0.00188872 1.26898e-19)
(-0.00971249 0.00569814 1.3845e-19)
(-0.00233634 0.0134478 2.00191e-19)
(0.0073389 0.020709 -5.5466e-19)
(0.0184939 0.0269539 -9.95296e-20)
(0.0307788 0.0316605 1.44499e-19)
(-0.00259471 -0.00514961 -7.44136e-20)
(-0.00810044 -0.00882117 -9.39636e-20)
(-0.0141214 -0.0084308 -4.30696e-20)
(-0.0180753 -0.00572131 2.04508e-19)
(-0.0191633 -0.00172064 9.60374e-20)
(-0.017364 0.00288632 1.90857e-20)
(-0.0129023 0.00758765 -4.039e-20)
(-0.0062405 0.0119848 -3.01824e-20)
(0.00185358 0.0157677 2.52813e-19)
(0.0112485 0.0186252 -1.39295e-19)
(-0.00211852 -0.00175448 3.78875e-20)
(-0.00754351 -0.00302392 4.19981e-20)
(-0.0141819 -0.00291237 -3.42818e-20)
(-0.0191442 -0.00201211 -3.02446e-20)
(-0.0214713 -0.000673439 -3.03701e-20)
(-0.0210549 0.000870126 -4.6694e-20)
(-0.0180652 0.00244455 1.71741e-21)
(-0.0129344 0.0039159 6.14535e-20)
(-0.00640252 0.00518212 -5.98342e-20)
(0.00150288 0.00613998 8.71222e-20)
(0.111415 -0.0111348 3.1748e-21)
(0.397451 -0.0133872 -3.91626e-22)
(0.702584 -0.00956371 -1.2866e-22)
(0.85045 -0.00485611 7.10303e-23)
(0.93097 -0.00239225 1.89205e-23)
(0.966285 -0.00108739 -1.78708e-23)
(0.983344 -0.000515065 -2.70346e-23)
(0.991469 -0.000243376 8.81206e-24)
(0.995242 -0.000129351 -7.29911e-25)
(0.997935 -5.40931e-05 9.75091e-24)
(0.133409 -0.0335111 7.24705e-21)
(0.408733 -0.0397414 2.33572e-21)
(0.707384 -0.0284982 5.90212e-22)
(0.852477 -0.0144955 -1.47364e-21)
(0.931726 -0.00714259 -8.50282e-23)
(0.966569 -0.00324718 1.03745e-22)
(0.983446 -0.00153528 -1.04574e-22)
(0.991508 -0.000723328 -2.68756e-23)
(0.995259 -0.000385953 -5.31532e-23)
(0.997941 -0.00016149 -8.59646e-24)
(0.176161 -0.0561747 3.76186e-21)
(0.430886 -0.0648454 -3.6124e-21)
(0.716786 -0.0468412 -3.26926e-22)
(0.85645 -0.0239136 1.40811e-21)
(0.933211 -0.0118022 -1.03343e-22)
(0.967129 -0.00537351 6.92135e-23)
(0.983648 -0.00254276 3.66787e-23)
(0.991586 -0.00119863 -9.74912e-24)
(0.995293 -0.00064058 3.62783e-23)
(0.997953 -0.000268209 -1.20116e-23)
(0.237345 -0.0792109 -1.107e-20)
(0.4631 -0.0879972 -8.21727e-21)
(0.73041 -0.0642304 -4.23302e-22)
(0.862217 -0.0329759 -8.47002e-22)
(0.935373 -0.0163159 1.44273e-21)
(0.967945 -0.00744587 -5.31988e-22)
(0.983943 -0.00352963 2.96053e-23)
(0.991701 -0.00166634 -4.2983e-23)
(0.995342 -0.000891964 4.29923e-23)
(0.997971 -0.00037381 4.86851e-24)
(0.313804 -0.10249 2.53224e-20)
(0.504184 -0.108642 7.5616e-22)
(0.747703 -0.0803425 2.91605e-22)
(0.869555 -0.0415651 2.26084e-21)
(0.938134 -0.0206359 -1.07239e-21)
(0.968991 -0.0094463 -3.97052e-22)
(0.984323 -0.00448884 -3.10729e-22)
(0.99185 -0.0021238 -7.06717e-23)
(0.995407 -0.00113893 -1.01686e-22)
(0.997995 -0.00047788 -2.30932e-23)
(0.401898 -0.125505 -9.39254e-21)
(0.552625 -0.126327 1.39771e-20)
(0.767975 -0.0948905 6.17459e-22)
(0.878187 -0.049582 -2.82302e-21)
(0.9414 -0.0247236 6.25468e-22)
(0.970234 -0.0113601 5.52159e-22)
(0.984778 -0.00541448 3.32046e-22)
(0.99203 -0.00256873 8.55183e-23)
(0.995486 -0.00138043 4.29434e-23)
(0.998023 -0.000580039 3.02805e-23)
(0.497894 -0.147607 -7.44434e-21)
(0.606663 -0.140767 -1.24493e-20)
(0.790435 -0.107663 4.71582e-22)
(0.887793 -0.0569509 9.00874e-22)
(0.945059 -0.0285502 -6.27974e-22)
(0.971635 -0.0131759 1.82369e-22)
(0.985294 -0.00630185 -3.16549e-22)
(0.992235 -0.00299925 -9.86751e-23)
(0.995577 -0.00161557 1.62878e-23)
(0.998056 -0.000679934 1.09033e-23)
(0.598311 -0.169107 2.6788e-20)