1.275 	2.15223e-18 	-2.76991e-20 	-0.0344835 	-0.000440127 	-1.9012e-22
1.825 	2.15223e-18 	-1.39322e-20 	-0.00950366 	-0.00275699 	1.67579e-21
2.375 	2.15223e-18 	-2.66896e-23 	0.115185 	-0.00323156 	-6.98914e-22
