1.45 	0 	0 	-0.00756794 	-0.00259899 	3.84227e-21
2.35 	0 	0 	0.0626515 	-0.00667495 	2.36771e-21
