/*--------------------------------*- C++ -*----------------------------------*\
  =========                 |
  \\      /  F ield         | OpenFOAM: The Open Source CFD Toolbox
   \\    /   O peration     | Website:  https://openfoam.org
    \\  /    A nd           | Version:  6.0
     \\/     M anipulation  |
\*---------------------------------------------------------------------------*/
FoamFile
{
    version     2.0;
    format      ascii;
    class       volScalarField;
    location    "0.5";
    object      p;
}
// * * * * * * * * * * * * * * * * * * * * * * * * * * * * * * * * * * * * * //

dimensions      [0 2 -2 0 0 0 0];

internalField   nonuniform List<scalar> 
800
(
3.76144e-06
-0.0145848
-0.0344313
-0.0523644
-0.063804
-0.0664163
-0.0594068
-0.0429522
-0.0177834
0.0150972
0.0545998
0.0996625
0.149319
0.202731
0.259201
0.318167
0.379191
0.441938
0.506156
0.571647
0.638243
0.705778
0.774051
0.842793
0.911636
0.980069
1.04741
1.11276
1.17502
1.23283
1.28468
1.32888
1.36377
1.38785
1.40007
1.40017
1.38916
1.36992
1.34786
1.33132
0.0145369
-0.000313022
-0.0156882
-0.0279995
-0.034885
-0.0346008
-0.0263649
-0.010134
0.0136834
0.0444206
0.0812878
0.123467
0.170177
0.220703
0.274425
0.330814
0.38943
0.44991
0.511957
0.575313
0.639741
0.705001
0.770821
0.836873
0.902737
0.96788
1.03162
1.09314
1.15141
1.20528
1.25346
1.2946
1.32741
1.35081
1.36412
1.36733
1.3614
1.34852
1.33159
1.31485
0.0349644
0.0145956
-0.00132222
-0.0118354
-0.0167042
-0.0148515
-0.00573903
0.0106203
0.033893
0.0635508
0.098957
0.139435
0.184319
0.232983
0.284866
0.339468
0.396362
0.455178
0.515595
0.577327
0.640103
0.703645
0.767651
0.831764
0.895555
0.958494
1.01993
1.07908
1.13503
1.18673
1.23303
1.27276
1.30481
1.32823
1.34241
1.34728
1.34353
1.3326
1.31507
1.29225
0.0545694
0.0266766
0.00767849
-0.00325087
-0.0076544
-0.00506422
0.00472518
0.0214977
0.0448437
0.074241
0.1091
0.148809
0.192764
0.240395
0.291182
0.344655
0.400401
0.458057
0.5173
0.577836
0.639384
0.701662
0.764361
0.827131
0.889555
0.951131
1.01125
1.06918
1.12408
1.17497
1.22078
1.2604
1.29273
1.3168
1.3319
1.33766
1.33441
1.32296
1.30197
1.27093
0.0685279
0.0330894
0.010419
-0.0015966
-0.0059925
-0.00283528
0.0077372
0.0252568
0.049174
0.0789097
0.113868
0.153456
0.197104
0.244277
0.294485
0.347285
0.402282
0.459126
0.517503
0.577126
0.637722
0.699017
0.76072
0.822503
0.883984
0.944703
1.00411
1.06153
1.11618
1.16714
1.2134
1.25383
1.2873
1.31271
1.32912
1.33583
1.33276
1.32012
1.29509
1.25589
0.07351
0.0310239
0.00472343
-0.00845562
-0.0128103
-0.00888498
0.00283812
0.0216122
0.0467075
0.0774455
0.113185
0.153322
0.197298
0.244596
0.294751
0.347343
0.401998
0.458387
0.516213
0.57521
0.635125
0.695712
0.756712
0.817838
0.878758
0.939073
0.998298
1.05584
1.11098
1.16285
1.21045
1.25265
1.2882
1.31583
1.33429
1.34247
1.33985
1.32611
1.29714
1.25035
0.0670367
0.0180537
-0.0115264
-0.025527
-0.0293873
-0.0241214
-0.0105756
0.0101952
0.037248
0.0697731
0.107057
0.148465
0.193432
0.241455
0.292089
0.344938
0.399656
0.45594
0.513525
0.572173
0.631669
0.691805
0.75237
0.813136
0.873838
0.934154
0.993684
1.05192
1.10823
1.16181
1.21168
1.25665
1.29538
1.32634
1.34792
1.35855
1.35716
1.34289
1.31047
1.25666
0.0469845
-0.00807483
-0.0403669
-0.0544338
-0.0568888
-0.0492794
-0.0328724
-0.00907453
0.0209253
0.0561637
0.0958405
0.139282
0.185917
0.235256
0.286876
0.340418
0.395569
0.452066
0.509682
0.568223
0.627521
0.687421
0.747774
0.808423
0.869186
0.929838
0.990081
1.04952
1.10761
1.16365
1.21669
1.26552
1.30865
1.34432
1.37049
1.38501
1.38619
1.37248
1.33733
1.27689
0.0111786
-0.0497704
-0.0840009
-0.0969075
-0.0965055
-0.0850342
-0.0642864
-0.0360866
-0.00190286
0.037136
0.0801446
0.12642
0.175395
0.226609
0.279681
0.334298
0.390197
0.447167
0.505033
0.563657
0.622928
0.682755
0.743064
0.803781
0.864821
0.926069
0.987354
1.04841
1.10884
1.16804
1.22514
1.27897
1.32792
1.36996
1.4026
1.42301
1.42871
1.4172
1.38031
1.31337
-0.0430165
-0.109943
-0.145014
-0.154872
-0.149438
-0.131927
-0.104819
-0.0704409
-0.0305654
0.0135208
0.060873
0.11079
0.162744
0.216334
0.271248
0.327241
0.384124
0.441752
0.500018
0.558849
0.618202
0.678062
0.738434
0.799339
0.860801
0.922832
0.985405
1.04842
1.11164
1.17465
1.23671
1.29673
1.35306
1.40345
1.44495
1.47394
1.48689
1.47997
1.44276
1.36921
-0.119243
-0.192464
-0.226633
-0.230505
-0.216825
-0.190219
-0.15407
-0.111287
-0.0639444
-0.0134385
0.0392916
0.093613
0.149098
0.205455
0.262482
0.32004
0.378034
0.436407
0.495133
0.554217
0.613691
0.673621
0.734098
0.795244
0.8572
0.920117
0.984134
1.04934
1.11572
1.18309
1.25095
1.31837
1.38381
1.44489
1.49821
1.53932
1.56336
1.56463
1.52928
1.44887
-0.223046
-0.302854
-0.333061
-0.326273
-0.299593
-0.259673
-0.211013
-0.157136
-0.100337
-0.0419994
0.0170718
0.0764252
0.135827
0.195168
0.254414
0.313569
0.372665
0.431751
0.490895
0.550187
0.609743
0.669706
0.73026
0.791625
0.854065
0.917878
0.983385
1.0509
1.12067
1.19282
1.2672
1.34322
1.41958
1.49401
1.56283
1.62072
1.66129
1.67621
1.64647
1.5592
-0.36352
-0.449345
-0.469847
-0.444842
-0.398161
-0.339196
-0.273685
-0.20563
-0.137314
-0.0698503
-0.00369648
0.0610531
0.124489
0.186782
0.248128
0.308721
0.368746
0.428376
0.487782
0.547144
0.606654
0.666539
0.727064
0.788547
0.851371
0.915983
0.982896
1.05267
1.12588
1.20303
1.28446
1.3701
1.45921
1.54993
1.63866
1.71945
1.78428
1.8214
1.80404
1.71118
-0.556623
-0.644568
-0.644147
-0.588632
-0.511774
-0.426229
-0.338722
-0.253252
-0.171564
-0.0940684
-0.0205329
0.0495448
0.116744
0.181622
0.244673
0.30632
0.366921
0.426783
0.48618
0.545373
0.604631
0.664246
0.724558
0.785972
0.848976
0.914162
0.982236
1.05402
1.13045
1.21252
1.30116
1.39712
1.50056
1.61059
1.72433
1.83587
1.93592
2.00875
2.01655
1.92349
-0.83189
-0.907981
-0.864312
-0.758442
-0.637096
-0.515648
-0.400651
-0.294935
-0.198753
-0.111118
-0.0306465
0.0440537
0.114226
0.180913
0.244959
0.307035
0.367676
0.427317
0.486323
0.545024
0.603743
0.662824
0.722661
0.783722
0.846587
0.91197
0.980758
1.05404
1.13312
1.21953
1.315
1.42129
1.54
1.67191
1.81602
1.96786
2.11826
2.24819
2.30581
2.22951
-1.24406
-1.26815
-1.13804
-0.95102
-0.766226
-0.598488
-0.451259
-0.323898
-0.213612
-0.117067
-0.0311893
0.046594
0.11833
0.185601
0.249609
0.311262
0.37125
0.430104
0.488254
0.546071
0.603905
0.662125
0.72115
0.781484
0.843764
0.908794
0.977609
1.05153
1.13222
1.22178
1.3228
1.43836
1.57193
1.727
1.90606
2.10874
2.32935
2.54895
2.70277
2.68889
-1.89351
-1.76305
-1.46878
-1.15708
-0.885979
-0.662071
-0.480289
-0.332597
-0.210918
-0.108473
-0.0199968
0.0584515
0.129758
0.196011
0.258715
0.318953
0.377509
0.434965
0.491768
0.54829
0.604876
0.66188
0.719714
0.77888
0.840027
0.904003
0.971927
1.04528
1.12604
1.2168
1.32102
1.44322
1.58922
1.76626
1.98263
2.24625
2.56085
2.91562
3.24721
3.40695
-3.00565
-2.44062
-1.83622
-1.3465
-0.969241
-0.685511
-0.473389
-0.311952
-0.1853
-0.0823882
0.00436757
0.0801583
0.148525
0.211882
0.271883
0.329664
0.386009
0.441473
0.496464
0.551307
0.606294
0.661729
0.717971
0.775477
0.834856
0.896927
0.962809
1.03403
1.11271
1.20178
1.30534
1.4292
1.58163
1.77436
2.02402
2.35247
2.78193
3.32817
3.99029
4.61597
-5.1721
-3.33051
-2.10207
-1.39212
-0.926789
-0.610992
-0.394474
-0.239823
-0.12322
-0.0304885
0.0470664
0.114942
0.176655
0.234478
0.289887
0.343843
0.396976
0.449695
0.502279
0.554934
0.607841
0.661197
0.715251
0.770346
0.82697
0.88581
0.947835
1.01442
1.0875
1.16989
1.26567
1.38099
1.52525
1.71344
1.97039
2.33561
2.86288
3.64809
4.96584
6.91255
-8.859
-4.19078
-1.98276
-1.10735
-0.654759
-0.385271
-0.216988
-0.102988
-0.0180687
0.0505442
0.109772
0.163636
0.214547
0.263962
0.312762
0.361459
0.410336
0.459527
0.509084
0.559016
0.609325
0.660036
0.711226
0.763052
0.815787
0.869867
0.925947
0.984986
1.04838
1.11817
1.1974
1.29077
1.40592
1.55626
1.76764
2.08949
2.61232
3.58438
5.90756
10.6939
)
;

boundaryField
{
    movingWall
    {
        type            zeroGradient;
    }
    fixedWalls
    {
        type            zeroGradient;
    }
    frontAndBack
    {
        type            empty;
    }
}


// ************************************************************************* //
