1.45 	0 	0 	-0.0076162 	-0.00259584 	3.8373e-21
2.35 	0 	0 	0.0625145 	-0.00666999 	2.36127e-21
