/*--------------------------------*- C++ -*----------------------------------*\
  =========                 |
  \\      /  F ield         | OpenFOAM: The Open Source CFD Toolbox
   \\    /   O peration     | Website:  https://openfoam.org
    \\  /    A nd           | Version:  6.0
     \\/     M anipulation  |
\*---------------------------------------------------------------------------*/
FoamFile
{
    version     2.0;
    format      ascii;
    class       volScalarField;
    location    "9.4";
    object      p;
}
// * * * * * * * * * * * * * * * * * * * * * * * * * * * * * * * * * * * * * //

dimensions      [0 2 -2 0 0 0 0];

internalField   nonuniform List<scalar> 
34500
(
1.00575
1.00577
1.00558
1.00525
1.00479
1.00426
1.00369
1.0031
1.00251
1.00196
1.00145
1.00101
1.00063
1.00037
1.00021
1.00576
1.0058
1.00567
1.0054
1.00502
1.00456
1.00404
1.00349
1.00291
1.00233
1.00177
1.00127
1.00081
1.00049
1.00026
1.00576
1.00579
1.00564
1.00534
1.00492
1.00442
1.00386
1.00328
1.0027
1.00212
1.00158
1.0011
1.00068
1.00041
1.0002
1.00576
1.00578
1.00561
1.00529
1.00485
1.00432
1.00374
1.00315
1.00255
1.00199
1.00146
1.00101
1.00062
1.00038
1.0002
1.00577
1.00579
1.00563
1.00532
1.00488
1.00436
1.00379
1.00319
1.0026
1.00203
1.00151
1.00106
1.00066
1.00041
1.00023
1.00578
1.00581
1.00566
1.00536
1.00494
1.00443
1.00387
1.00328
1.00268
1.00211
1.00158
1.00111
1.0007
1.00044
1.00024
1.00578
1.00582
1.00567
1.00538
1.00497
1.00447
1.00391
1.00332
1.00273
1.00215
1.00161
1.00114
1.00072
1.00044
1.00023
1.00579
1.00583
1.00569
1.0054
1.00499
1.00449
1.00394
1.00335
1.00275
1.00217
1.00162
1.00114
1.00072
1.00044
1.00022
1.0058
1.00584
1.0057
1.00541
1.00501
1.00451
1.00395
1.00336
1.00276
1.00218
1.00163
1.00114
1.00072
1.00043
1.00021
1.00582
1.00586
1.00572
1.00543
1.00502
1.00453
1.00397
1.00338
1.00278
1.00219
1.00163
1.00114
1.00071
1.00042
1.0002
1.00583
1.00587
1.00573
1.00545
1.00504
1.00454
1.00398
1.00339
1.00278
1.00219
1.00163
1.00114
1.00071
1.00041
1.00019
1.00584
1.00589
1.00575
1.00546
1.00506
1.00456
1.004
1.0034
1.00279
1.0022
1.00163
1.00114
1.0007
1.0004
1.00018
1.00586
1.00591
1.00577
1.00548
1.00508
1.00458
1.00401
1.00341
1.0028
1.00221
1.00164
1.00114
1.0007
1.0004
1.00017
1.00588
1.00592
1.00579
1.00551
1.0051
1.0046
1.00404
1.00344
1.00282
1.00222
1.00165
1.00115
1.00071
1.00039
1.00015
1.0059
1.00595
1.00581
1.00553
1.00513
1.00463
1.00407
1.00346
1.00285
1.00224
1.00167
1.00116
1.00071
1.00039
1.00014
1.00592
1.00597
1.00584
1.00556
1.00516
1.00466
1.0041
1.00349
1.00287
1.00226
1.00168
1.00117
1.00071
1.00038
1.00012
1.00594
1.00599
1.00586
1.00559
1.00519
1.0047
1.00413
1.00352
1.0029
1.00228
1.0017
1.00117
1.00071
1.00037
1.0001
1.00596
1.00602
1.00589
1.00562
1.00522
1.00473
1.00416
1.00355
1.00292
1.0023
1.0017
1.00117
1.0007
1.00035
1.00008
1.00598
1.00604
1.00592
1.00565
1.00525
1.00476
1.00419
1.00357
1.00294
1.00231
1.00171
1.00117
1.00069
1.00034
1.00006
1.00601
1.00607
1.00594
1.00568
1.00528
1.00478
1.00421
1.00359
1.00295
1.00232
1.00171
1.00117
1.00069
1.00032
1.00004
1.00604
1.0061
1.00597
1.00571
1.00531
1.00481
1.00424
1.00361
1.00297
1.00233
1.00172
1.00117
1.00068
1.00031
1.00002
1.00606
1.00613
1.006
1.00574
1.00534
1.00484
1.00426
1.00363
1.00298
1.00234
1.00172
1.00116
1.00067
1.00029
1
1.00609
1.00616
1.00604
1.00577
1.00538
1.00487
1.00429
1.00366
1.003
1.00235
1.00173
1.00116
1.00067
1.00028
0.999981
1.00612
1.00619
1.00607
1.00581
1.00541
1.00491
1.00432
1.00368
1.00302
1.00237
1.00174
1.00116
1.00066
1.00026
0.999959
1.00616
1.00622
1.00611
1.00584
1.00545
1.00494
1.00435
1.00371
1.00304
1.00238
1.00174
1.00116
1.00065
1.00025
0.999934
1.00619
1.00626
1.00614
1.00588
1.00549
1.00498
1.00439
1.00374
1.00307
1.00239
1.00175
1.00116
1.00064
1.00023
0.999909
1.00622
1.0063
1.00618
1.00592
1.00552
1.00501
1.00442
1.00377
1.00309
1.00241
1.00175
1.00116
1.00063
1.00021
0.999882
1.00626
1.00633
1.00622
1.00596
1.00556
1.00505
1.00445
1.00379
1.0031
1.00242
1.00176
1.00115
1.00061
1.00019
0.999855
1.0063
1.00637
1.00626
1.006
1.0056
1.00508
1.00448
1.00382
1.00312
1.00243
1.00176
1.00115
1.0006
1.00017
0.999827
1.00634
1.00641
1.0063
1.00604
1.00564
1.00512
1.00451
1.00384
1.00314
1.00244
1.00176
1.00114
1.00059
1.00014
0.999799
1.00638
1.00645
1.00634
1.00608
1.00568
1.00515
1.00454
1.00386
1.00316
1.00245
1.00176
1.00113
1.00057
1.00012
0.99977
1.00642
1.0065
1.00638
1.00612
1.00572
1.00519
1.00457
1.00389
1.00317
1.00246
1.00176
1.00113
1.00056
1.0001
0.999741
1.00646
1.00654
1.00643
1.00617
1.00576
1.00523
1.00461
1.00392
1.00319
1.00247
1.00176
1.00112
1.00054
1.00008
0.99971
1.0065
1.00659
1.00648
1.00621
1.0058
1.00527
1.00464
1.00395
1.00322
1.00248
1.00177
1.00111
1.00053
1.00005
0.999678
1.00655
1.00664
1.00653
1.00626
1.00585
1.00531
1.00468
1.00398
1.00324
1.00249
1.00177
1.0011
1.00051
1.00003
0.999645
1.0066
1.00669
1.00658
1.00631
1.0059
1.00536
1.00472
1.00401
1.00326
1.0025
1.00177
1.00109
1.00049
0.999999
0.999611
1.00665
1.00674
1.00663
1.00636
1.00595
1.0054
1.00475
1.00404
1.00328
1.00251
1.00177
1.00108
1.00047
0.99997
0.999575
1.0067
1.00679
1.00668
1.00641
1.006
1.00545
1.00479
1.00407
1.0033
1.00252
1.00177
1.00107
1.00045
0.999941
0.999539
1.00675
1.00684
1.00673
1.00647
1.00605
1.00549
1.00483
1.0041
1.00332
1.00253
1.00177
1.00106
1.00043
0.99991
0.999501
1.0068
1.0069
1.00679
1.00652
1.0061
1.00554
1.00487
1.00413
1.00334
1.00254
1.00177
1.00105
1.0004
0.999879
0.999463
1.00686
1.00696
1.00685
1.00658
1.00615
1.00558
1.00491
1.00416
1.00336
1.00255
1.00176
1.00104
1.00038
0.999847
0.999423
1.00691
1.00701
1.00691
1.00663
1.0062
1.00563
1.00495
1.00419
1.00338
1.00256
1.00176
1.00102
1.00036
0.999815
0.999383
1.00697
1.00707
1.00697
1.00669
1.00626
1.00568
1.00499
1.00422
1.0034
1.00257
1.00176
1.00101
1.00033
0.99978
0.999341
1.00703
1.00714
1.00703
1.00675
1.00631
1.00573
1.00503
1.00425
1.00342
1.00258
1.00176
1.00099
1.00031
0.999745
0.999298
1.00709
1.0072
1.00709
1.00681
1.00637
1.00578
1.00508
1.00429
1.00344
1.00259
1.00175
1.00098
1.00028
0.999708
0.999253
1.00715
1.00726
1.00715
1.00688
1.00643
1.00583
1.00512
1.00432
1.00347
1.0026
1.00175
1.00096
1.00025
0.99967
0.999207
1.00722
1.00733
1.00722
1.00694
1.00649
1.00589
1.00516
1.00435
1.00349
1.00261
1.00175
1.00094
1.00022
0.999631
0.99916
1.00728
1.0074
1.00729
1.00701
1.00655
1.00594
1.00521
1.00439
1.00351
1.00262
1.00174
1.00093
1.00019
0.999591
0.999112
1.00735
1.00747
1.00736
1.00707
1.00661
1.006
1.00526
1.00442
1.00353
1.00263
1.00174
1.00091
1.00016
0.999549
0.999062
1.00742
1.00754
1.00743
1.00714
1.00668
1.00605
1.0053
1.00446
1.00356
1.00263
1.00173
1.00089
1.00013
0.999507
0.999011
1.00749
1.00761
1.0075
1.00721
1.00674
1.00611
1.00535
1.00449
1.00358
1.00264
1.00172
1.00087
1.0001
0.999462
0.998958
1.00756
1.00769
1.00758
1.00729
1.00681
1.00617
1.0054
1.00453
1.0036
1.00265
1.00172
1.00085
1.00006
0.999417
0.998904
1.00764
1.00776
1.00765
1.00736
1.00688
1.00623
1.00545
1.00457
1.00362
1.00266
1.00171
1.00082
1.00003
0.99937
0.998848
1.00771
1.00784
1.00773
1.00743
1.00695
1.00629
1.0055
1.00461
1.00365
1.00267
1.0017
1.0008
0.999989
0.999322
0.998791
1.00779
1.00792
1.00781
1.00751
1.00702
1.00636
1.00555
1.00464
1.00367
1.00267
1.00169
1.00078
0.999951
0.999272
0.998731
1.00787
1.008
1.00789
1.00759
1.00709
1.00642
1.0056
1.00468
1.00369
1.00268
1.00168
1.00075
0.999912
0.999222
0.998671
1.00795
1.00809
1.00797
1.00767
1.00717
1.00648
1.00566
1.00472
1.00372
1.00269
1.00167
1.00073
0.999871
0.999169
0.998608
1.00803
1.00817
1.00806
1.00775
1.00724
1.00655
1.00571
1.00476
1.00374
1.00269
1.00166
1.0007
0.99983
0.999115
0.998545
1.00812
1.00826
1.00814
1.00784
1.00732
1.00662
1.00577
1.0048
1.00377
1.0027
1.00165
1.00067
0.999787
0.999059
0.998479
1.00821
1.00835
1.00823
1.00792
1.0074
1.00669
1.00582
1.00485
1.00379
1.00271
1.00164
1.00065
0.999743
0.999002
0.998412
1.0083
1.00844
1.00832
1.00801
1.00748
1.00676
1.00588
1.00489
1.00382
1.00272
1.00163
1.00062
0.999697
0.998943
0.998342
1.00839
1.00854
1.00842
1.0081
1.00756
1.00683
1.00594
1.00493
1.00384
1.00272
1.00162
1.00059
0.99965
0.998883
0.998271
1.00848
1.00863
1.00851
1.00819
1.00765
1.0069
1.006
1.00497
1.00387
1.00273
1.00161
1.00055
0.999602
0.99882
0.998198
1.00857
1.00873
1.00861
1.00828
1.00773
1.00698
1.00606
1.00502
1.00389
1.00273
1.00159
1.00052
0.999552
0.998757
0.998123
1.00867
1.00883
1.00871
1.00838
1.00782
1.00706
1.00612
1.00506
1.00392
1.00274
1.00158
1.00049
0.999501
0.998691
0.998045
1.00877
1.00893
1.00881
1.00847
1.00791
1.00713
1.00619
1.00511
1.00394
1.00275
1.00156
1.00045
0.999448
0.998623
0.997966
1.00887
1.00904
1.00891
1.00857
1.008
1.00721
1.00625
1.00516
1.00397
1.00275
1.00155
1.00042
0.999393
0.998554
0.997885
1.00898
1.00914
1.00902
1.00867
1.00809
1.00729
1.00632
1.0052
1.004
1.00276
1.00153
1.00038
0.999338
0.998482
0.997802
1.00908
1.00925
1.00912
1.00878
1.00819
1.00738
1.00638
1.00525
1.00402
1.00276
1.00151
1.00034
0.99928
0.998409
0.997716
1.00919
1.00936
1.00923
1.00888
1.00828
1.00746
1.00645
1.0053
1.00405
1.00276
1.00149
1.0003
0.999221
0.998334
0.997628
1.0093
1.00947
1.00934
1.00899
1.00838
1.00755
1.00652
1.00535
1.00408
1.00277
1.00147
1.00026
0.99916
0.998257
0.997538
1.00941
1.00959
1.00946
1.0091
1.00848
1.00763
1.00659
1.0054
1.00411
1.00277
1.00145
1.00022
0.999097
0.998178
0.997446
1.00953
1.00971
1.00957
1.00921
1.00858
1.00772
1.00666
1.00545
1.00413
1.00278
1.00143
1.00017
0.999033
0.998096
0.997351
1.00964
1.00983
1.00969
1.00932
1.00869
1.00781
1.00674
1.0055
1.00416
1.00278
1.00141
1.00013
0.998967
0.998013
0.997254
1.00976
1.00995
1.00981
1.00944
1.00879
1.00791
1.00681
1.00555
1.00419
1.00278
1.00139
1.00008
0.998899
0.997927
0.997154
1.00988
1.01008
1.00994
1.00956
1.0089
1.008
1.00689
1.00561
1.00422
1.00279
1.00137
1.00004
0.99883
0.997839
0.997052
1.01001
1.0102
1.01006
1.00968
1.00901
1.0081
1.00696
1.00566
1.00425
1.00279
1.00134
0.999986
0.998758
0.997748
0.996946
1.01013
1.01033
1.01019
1.0098
1.00913
1.00819
1.00704
1.00572
1.00428
1.00279
1.00132
0.999936
0.998684
0.997656
0.996839
1.01026
1.01047
1.01032
1.00993
1.00924
1.00829
1.00712
1.00577
1.00431
1.00279
1.00129
0.999883
0.998608
0.99756
0.996728
1.0104
1.0106
1.01046
1.01006
1.00936
1.0084
1.0072
1.00583
1.00434
1.00279
1.00127
0.99983
0.998531
0.997463
0.996616
1.01053
1.01074
1.01059
1.01019
1.00948
1.0085
1.00728
1.00589
1.00437
1.00279
1.00124
0.999774
0.998451
0.997363
0.996499
1.01067
1.01088
1.01073
1.01032
1.0096
1.00861
1.00737
1.00595
1.0044
1.0028
1.00121
0.999717
0.998369
0.99726
0.996381
1.01081
1.01103
1.01087
1.01046
1.00973
1.00871
1.00745
1.00601
1.00443
1.0028
1.00118
0.999658
0.998284
0.997155
0.996259
1.01095
1.01117
1.01102
1.0106
1.00985
1.00882
1.00754
1.00607
1.00446
1.0028
1.00115
0.999598
0.998198
0.997047
0.996134
1.0111
1.01132
1.01116
1.01074
1.00998
1.00893
1.00763
1.00613
1.00449
1.00279
1.00111
0.999536
0.998109
0.996936
0.996006
1.01124
1.01147
1.01132
1.01088
1.01012
1.00905
1.00772
1.00619
1.00452
1.00279
1.00108
0.999472
0.998018
0.996823
0.995875
1.0114
1.01163
1.01147
1.01103
1.01025
1.00916
1.00781
1.00625
1.00455
1.00279
1.00105
0.999406
0.997924
0.996706
0.995741
1.01155
1.01179
1.01163
1.01118
1.01039
1.00928
1.00791
1.00632
1.00459
1.00279
1.00101
0.999339
0.997829
0.996587
0.995604
1.01171
1.01195
1.01179
1.01133
1.01053
1.0094
1.008
1.00638
1.00462
1.00279
1.00097
0.999269
0.99773
0.996464
0.995462
1.01187
1.01212
1.01195
1.01149
1.01067
1.00953
1.0081
1.00645
1.00465
1.00278
1.00093
0.999197
0.997629
0.996339
0.995318
1.01203
1.01228
1.01211
1.01165
1.01082
1.00965
1.0082
1.00652
1.00468
1.00278
1.00089
0.999123
0.997525
0.99621
0.99517
1.0122
1.01246
1.01228
1.01181
1.01096
1.00978
1.0083
1.00659
1.00471
1.00278
1.00085
0.999048
0.997418
0.996079
0.995019
1.01237
1.01263
1.01246
1.01198
1.01112
1.00991
1.0084
1.00666
1.00475
1.00277
1.00081
0.998969
0.997309
0.995944
0.994864
1.01254
1.01281
1.01263
1.01215
1.01127
1.01004
1.00851
1.00673
1.00478
1.00276
1.00077
0.998889
0.997197
0.995805
0.994705
1.01272
1.01299
1.01281
1.01232
1.01143
1.01018
1.00861
1.0068
1.00481
1.00276
1.00072
0.998806
0.997081
0.995663
0.994542
1.0129
1.01318
1.013
1.0125
1.01159
1.01032
1.00872
1.00687
1.00485
1.00275
1.00067
0.998722
0.996964
0.995518
0.994376
1.01308
1.01337
1.01318
1.01268
1.01175
1.01046
1.00883
1.00695
1.00488
1.00274
1.00062
0.998634
0.996842
0.995369
0.994205
1.01327
1.01356
1.01337
1.01286
1.01192
1.0106
1.00894
1.00702
1.00492
1.00273
1.00057
0.998544
0.996718
0.995217
0.994031
1.01346
1.01375
1.01357
1.01304
1.01209
1.01075
1.00906
1.0071
1.00495
1.00272
1.00052
0.998452
0.99659
0.99506
0.993852
1.01365
1.01396
1.01376
1.01323
1.01226
1.01089
1.00917
1.00717
1.00498
1.00271
1.00046
0.998357
0.99646
0.9949
0.993669
1.01385
1.01416
1.01397
1.01343
1.01244
1.01105
1.00929
1.00725
1.00502
1.0027
1.00041
0.998259
0.996325
0.994736
0.993482
1.01405
1.01437
1.01417
1.01363
1.01262
1.0112
1.00941
1.00733
1.00505
1.00269
1.00035
0.998159
0.996188
0.994568
0.993291
1.01426
1.01458
1.01438
1.01383
1.0128
1.01136
1.00953
1.00741
1.00509
1.00268
1.00029
0.998055
0.996046
0.994395
0.993094
1.01447
1.0148
1.0146
1.01403
1.01299
1.01152
1.00966
1.00749
1.00512
1.00266
1.00023
0.997949
0.995902
0.994219
0.992894
1.01469
1.01502
1.01482
1.01424
1.01318
1.01168
1.00978
1.00758
1.00515
1.00265
1.00016
0.99784
0.995753
0.994038
0.992688
1.0149
1.01524
1.01504
1.01446
1.01338
1.01185
1.00991
1.00766
1.00519
1.00263
1.0001
0.997727
0.995601
0.993854
0.992478
1.01513
1.01547
1.01527
1.01468
1.01357
1.01202
1.01004
1.00775
1.00522
1.00261
1.00003
0.997612
0.995444
0.993664
0.992263
1.01535
1.01571
1.0155
1.0149
1.01378
1.01219
1.01018
1.00783
1.00526
1.00259
0.999957
0.997493
0.995284
0.99347
0.992043
1.01559
1.01595
1.01573
1.01513
1.01398
1.01237
1.01031
1.00792
1.00529
1.00257
0.999883
0.99737
0.995119
0.993271
0.991818
1.01582
1.01619
1.01598
1.01536
1.01419
1.01254
1.01045
1.00801
1.00533
1.00255
0.999807
0.997245
0.994951
0.993067
0.991588
1.01606
1.01644
1.01622
1.01559
1.01441
1.01273
1.01059
1.0081
1.00536
1.00253
0.999728
0.997115
0.994777
0.992859
0.991352
1.01631
1.01669
1.01647
1.01584
1.01463
1.01291
1.01073
1.00819
1.00539
1.0025
0.999647
0.996983
0.9946
0.992645
0.991111
1.01656
1.01695
1.01673
1.01608
1.01485
1.0131
1.01088
1.00828
1.00543
1.00248
0.999563
0.996846
0.994418
0.992426
0.990864
1.01681
1.01721
1.01699
1.01633
1.01508
1.0133
1.01103
1.00837
1.00546
1.00245
0.999476
0.996705
0.994231
0.992203
0.990612
1.01707
1.01748
1.01726
1.01659
1.01531
1.01349
1.01118
1.00847
1.00549
1.00242
0.999386
0.99656
0.99404
0.991973
0.990354
1.01734
1.01776
1.01753
1.01685
1.01555
1.0137
1.01133
1.00856
1.00553
1.00239
0.999293
0.996412
0.993843
0.991739
0.990091
1.01761
1.01804
1.01781
1.01711
1.01579
1.0139
1.01148
1.00866
1.00556
1.00235
0.999196
0.996258
0.993642
0.991498
0.989821
1.01788
1.01832
1.01809
1.01739
1.01604
1.01411
1.01164
1.00876
1.00559
1.00232
0.999097
0.996101
0.993435
0.991252
0.989545
1.01816
1.01861
1.01838
1.01766
1.01629
1.01432
1.0118
1.00886
1.00562
1.00228
0.998994
0.995939
0.993223
0.991
0.989263
1.01845
1.01891
1.01867
1.01795
1.01655
1.01454
1.01197
1.00896
1.00565
1.00224
0.998888
0.995773
0.993006
0.990742
0.988975
1.01874
1.01921
1.01897
1.01824
1.01681
1.01476
1.01213
1.00906
1.00568
1.0022
0.998777
0.995601
0.992782
0.990478
0.988679
1.01904
1.01952
1.01928
1.01853
1.01708
1.01498
1.0123
1.00916
1.00571
1.00215
0.998663
0.995425
0.992554
0.990208
0.988378
1.01934
1.01983
1.01959
1.01883
1.01735
1.01521
1.01247
1.00926
1.00574
1.00211
0.998545
0.995243
0.992319
0.98993
0.98807
1.01965
1.02016
1.01991
1.01914
1.01763
1.01545
1.01265
1.00937
1.00577
1.00206
0.998423
0.995057
0.992078
0.989647
0.987755
1.01997
1.02048
1.02024
1.01945
1.01791
1.01569
1.01283
1.00947
1.0058
1.00201
0.998296
0.994864
0.991831
0.989357
0.987432
1.02029
1.02082
1.02057
1.01977
1.0182
1.01593
1.01301
1.00958
1.00582
1.00195
0.998166
0.994667
0.991578
0.98906
0.987103
1.02062
1.02116
1.02091
1.0201
1.0185
1.01618
1.01319
1.00969
1.00585
1.00189
0.99803
0.994463
0.991318
0.988755
0.986766
1.02096
1.02151
1.02126
1.02043
1.0188
1.01643
1.01338
1.00979
1.00587
1.00183
0.99789
0.994254
0.991051
0.988444
0.986423
1.0213
1.02186
1.02161
1.02077
1.01911
1.01668
1.01356
1.0099
1.00589
1.00177
0.997744
0.994038
0.990777
0.988125
0.986071
1.02165
1.02222
1.02197
1.02112
1.01942
1.01695
1.01376
1.01001
1.00591
1.0017
0.997594
0.993816
0.990497
0.987799
0.985712
1.022
1.02259
1.02234
1.02147
1.01974
1.01721
1.01395
1.01012
1.00593
1.00163
0.997439
0.993588
0.990209
0.987465
0.985344
1.02237
1.02297
1.02272
1.02183
1.02007
1.01748
1.01415
1.01023
1.00595
1.00155
0.997278
0.993353
0.989914
0.987124
0.984969
1.02274
1.02336
1.0231
1.0222
1.0204
1.01776
1.01435
1.01034
1.00596
1.00147
0.997111
0.99311
0.98961
0.986773
0.984585
1.02312
1.02375
1.02349
1.02258
1.02074
1.01804
1.01455
1.01046
1.00598
1.00139
0.996938
0.992862
0.989299
0.986415
0.984194
1.0235
1.02415
1.02389
1.02296
1.02109
1.01833
1.01476
1.01057
1.00599
1.0013
0.996759
0.992605
0.98898
0.986048
0.983793
1.02389
1.02456
1.0243
1.02336
1.02144
1.01862
1.01497
1.01068
1.006
1.00121
0.996574
0.992341
0.988653
0.985673
0.983384
1.0243
1.02498
1.02472
1.02376
1.0218
1.01892
1.01518
1.01079
1.006
1.00111
0.996382
0.992068
0.988316
0.985289
0.982966
1.02471
1.02541
1.02515
1.02417
1.02217
1.01922
1.0154
1.0109
1.006
1.001
0.996183
0.991788
0.987972
0.984896
0.982539
1.02512
1.02584
1.02559
1.02459
1.02255
1.01953
1.01562
1.01102
1.006
1.0009
0.995976
0.991499
0.987618
0.984493
0.982103
1.02555
1.02629
1.02603
1.02502
1.02294
1.01985
1.01584
1.01113
1.006
1.00078
0.995763
0.991203
0.987255
0.984082
0.981658
1.02599
1.02675
1.02649
1.02545
1.02333
1.02017
1.01606
1.01124
1.006
1.00066
0.995541
0.990896
0.986882
0.98366
0.981202
1.02643
1.02721
1.02695
1.0259
1.02373
1.0205
1.01629
1.01135
1.00599
1.00054
0.995312
0.990581
0.9865
0.983229
0.980738
1.02689
1.02768
1.02743
1.02636
1.02414
1.02083
1.01652
1.01146
1.00597
1.0004
0.995074
0.990256
0.986107
0.982787
0.980263
1.02735
1.02817
1.02791
1.02682
1.02456
1.02117
1.01676
1.01157
1.00596
1.00026
0.994828
0.989921
0.985705
0.982335
0.979778
1.02782
1.02866
1.02841
1.0273
1.02498
1.02151
1.01699
1.01168
1.00593
1.00012
0.994572
0.989576
0.985291
0.981872
0.979283
1.02831
1.02917
1.02892
1.02779
1.02542
1.02186
1.01723
1.01179
1.00591
0.999963
0.994307
0.989221
0.984867
0.9814
0.978778
1.0288
1.02969
1.02943
1.02829
1.02586
1.02222
1.01747
1.0119
1.00587
0.999801
0.994032
0.988854
0.984432
0.980915
0.978261
1.0293
1.03022
1.02996
1.02879
1.02632
1.02258
1.01771
1.012
1.00584
0.999631
0.993747
0.988477
0.983985
0.98042
0.977735
1.02982
1.03076
1.03051
1.02931
1.02678
1.02295
1.01796
1.01211
1.00579
0.999451
0.993451
0.988088
0.983526
0.979912
0.977196
1.03035
1.03131
1.03106
1.02985
1.02725
1.02333
1.01821
1.01221
1.00574
0.999264
0.993145
0.987687
0.983056
0.979393
0.976647
1.03088
1.03187
1.03163
1.03039
1.02773
1.02371
1.01846
1.01231
1.00569
0.999066
0.992827
0.987274
0.982573
0.978862
0.976086
1.03143
1.03245
1.03221
1.03095
1.02823
1.0241
1.01871
1.0124
1.00563
0.998859
0.992497
0.986848
0.982077
0.978319
0.975514
1.03199
1.03304
1.0328
1.03151
1.02873
1.0245
1.01896
1.01249
1.00556
0.99864
0.992155
0.986409
0.981568
0.977763
0.97493
1.03257
1.03364
1.03341
1.0321
1.02924
1.0249
1.01922
1.01258
1.00548
0.998412
0.9918
0.985957
0.981046
0.977194
0.974334
1.03315
1.03426
1.03403
1.03269
1.02977
1.02531
1.01948
1.01267
1.00539
0.998171
0.991432
0.985491
0.98051
0.976612
0.973725
1.03375
1.03489
1.03466
1.0333
1.0303
1.02573
1.01974
1.01275
1.0053
0.997918
0.99105
0.98501
0.97996
0.976017
0.973105
1.03436
1.03554
1.03531
1.03392
1.03085
1.02615
1.01999
1.01282
1.00519
0.997653
0.990653
0.984515
0.979395
0.975408
0.972471
1.03499
1.0362
1.03598
1.03456
1.03141
1.02658
1.02025
1.01289
1.00508
0.997374
0.990242
0.984004
0.978816
0.974785
0.971825
1.03563
1.03687
1.03666
1.03521
1.03198
1.02701
1.02051
1.01296
1.00495
0.997082
0.989815
0.983477
0.97822
0.974147
0.971165
1.03628
1.03756
1.03735
1.03588
1.03256
1.02746
1.02077
1.01302
1.00482
0.996775
0.989373
0.982935
0.97761
0.973496
0.970493
1.03695
1.03827
1.03807
1.03656
1.03316
1.02791
1.02103
1.01307
1.00467
0.996452
0.988913
0.982375
0.976984
0.972829
0.969806
1.03764
1.03899
1.0388
1.03725
1.03376
1.02836
1.02129
1.01311
1.0045
0.996114
0.988437
0.981799
0.976341
0.972147
0.969107
1.03834
1.03973
1.03954
1.03797
1.03438
1.02882
1.02155
1.01315
1.00433
0.995759
0.987941
0.981204
0.975681
0.971449
0.968393
1.03905
1.04049
1.04031
1.0387
1.03501
1.02929
1.0218
1.01317
1.00414
0.995387
0.987428
0.980591
0.975004
0.970737
0.967665
1.03979
1.04127
1.0411
1.03945
1.03566
1.02976
1.02206
1.01319
1.00393
0.994995
0.986895
0.979959
0.97431
0.970007
0.966923
1.04054
1.04206
1.0419
1.04021
1.03631
1.03024
1.02231
1.0132
1.00371
0.994586
0.986343
0.979308
0.973597
0.969263
0.966166
1.0413
1.04288
1.04272
1.041
1.03699
1.03073
1.02255
1.01319
1.00347
0.994155
0.985769
0.978636
0.972866
0.9685
0.965394
1.04209
1.04371
1.04357
1.0418
1.03767
1.03122
1.0228
1.01317
1.00322
0.993704
0.985174
0.977944
0.972116
0.967722
0.964609
1.04289
1.04457
1.04443
1.04262
1.03837
1.03171
1.02303
1.01314
1.00294
0.993231
0.984556
0.977231
0.971347
0.966926
0.963807
1.04372
1.04544
1.04532
1.04347
1.03908
1.03221
1.02326
1.01309
1.00264
0.992735
0.983916
0.976496
0.970558
0.966113
0.962991
1.04456
1.04634
1.04623
1.04433
1.03981
1.03271
1.02349
1.01303
1.00233
0.992214
0.983251
0.975738
0.969749
0.965281
0.962158
1.04542
1.04726
1.04717
1.04521
1.04055
1.03322
1.02371
1.01295
1.00199
0.991669
0.982562
0.974958
0.96892
0.964433
0.961311
1.04631
1.04821
1.04812
1.04612
1.0413
1.03373
1.02391
1.01285
1.00162
0.991097
0.981846
0.974154
0.968069
0.963565
0.960447
1.04722
1.04918
1.04911
1.04705
1.04207
1.03424
1.02411
1.01273
1.00123
0.990499
0.981105
0.973326
0.967197
0.96268
0.959568
1.04815
1.05017
1.05011
1.048
1.04285
1.03476
1.0243
1.01259
1.00081
0.989871
0.980335
0.972472
0.966303
0.961775
0.958672
1.0491
1.05119
1.05115
1.04897
1.04365
1.03527
1.02447
1.01243
1.00037
0.989214
0.979538
0.971594
0.965387
0.960852
0.957761
1.05007
1.05223
1.05221
1.04997
1.04446
1.03579
1.02463
1.01224
0.999891
0.988526
0.978711
0.970688
0.964448
0.959909
0.956832
1.05108
1.05331
1.0533
1.05099
1.04529
1.0363
1.02477
1.01203
0.999384
0.987805
0.977854
0.969757
0.963487
0.958947
0.955887
1.0521
1.05441
1.05442
1.05204
1.04613
1.03681
1.0249
1.01179
0.998843
0.987051
0.976965
0.968797
0.962502
0.957964
0.954925
1.05316
1.05554
1.05557
1.05311
1.04698
1.03732
1.025
1.01152
0.998268
0.986262
0.976045
0.96781
0.961493
0.956962
0.953946
1.05424
1.0567
1.05676
1.05421
1.04785
1.03782
1.02509
1.01121
0.997655
0.985436
0.975092
0.966794
0.96046
0.955939
0.95295
1.05535
1.05789
1.05797
1.05534
1.04873
1.03832
1.02515
1.01087
0.997004
0.984573
0.974104
0.965749
0.959402
0.954896
0.951937
1.05648
1.05912
1.05922
1.0565
1.04962
1.03881
1.02518
1.01049
0.996311
0.98367
0.973082
0.964674
0.958319
0.953831
0.950906
1.05765
1.06038
1.06051
1.05768
1.05053
1.03929
1.02519
1.01008
0.995576
0.982727
0.972023
0.963569
0.957211
0.952747
0.949858
1.05885
1.06168
1.06183
1.0589
1.05144
1.03976
1.02517
1.00962
0.994796
0.981742
0.970928
0.962432
0.956077
0.95164
0.948791
1.06008
1.06301
1.06319
1.06014
1.05237
1.04021
1.02511
1.00912
0.993969
0.980713
0.969795
0.961264
0.954918
0.950512
0.947708
1.06135
1.06438
1.06459
1.06141
1.0533
1.04065
1.02501
1.00856
0.993093
0.979638
0.968622
0.960063
0.953731
0.949363
0.946605
1.06265
1.06579
1.06603
1.06272
1.05424
1.04106
1.02487
1.00796
0.992165
0.978518
0.967411
0.958831
0.952519
0.948192
0.945486
1.06399
1.06724
1.06751
1.06405
1.05519
1.04145
1.02469
1.0073
0.991183
0.977348
0.966158
0.957564
0.951279
0.946998
0.944347
1.06537
1.06874
1.06904
1.06542
1.05614
1.04182
1.02445
1.00659
0.990146
0.976129
0.964864
0.956264
0.950012
0.945783
0.943192
1.06678
1.07028
1.07061
1.06681
1.0571
1.04216
1.02417
1.00581
0.989049
0.974859
0.963528
0.954929
0.948717
0.944546
0.942017
1.06824
1.07186
1.07223
1.06824
1.05805
1.04246
1.02383
1.00498
0.987892
0.973536
0.962148
0.95356
0.947395
0.943286
0.940825
1.06973
1.0735
1.0739
1.06971
1.05901
1.04272
1.02343
1.00407
0.98667
0.972159
0.960724
0.952155
0.946045
0.942004
0.939615
1.07127
1.07519
1.07562
1.0712
1.05995
1.04294
1.02296
1.00309
0.985383
0.970727
0.959255
0.950716
0.944667
0.9407
0.938386
1.07286
1.07693
1.0774
1.07272
1.06089
1.04311
1.02241
1.00203
0.984028
0.969237
0.957741
0.94924
0.943261
0.939373
0.937139
1.07449
1.07873
1.07923
1.07428
1.06181
1.04323
1.0218
1.0009
0.982602
0.967689
0.95618
0.947728
0.941827
0.938024
0.935874
1.07618
1.08058
1.08111
1.07586
1.06272
1.04328
1.02109
0.999679
0.981102
0.966081
0.954572
0.94618
0.940364
0.936653
0.934591
1.07791
1.0825
1.08306
1.07748
1.0636
1.04327
1.0203
0.998372
0.979527
0.964412
0.952918
0.944596
0.938873
0.935259
0.93329
1.0797
1.08448
1.08507
1.07911
1.06445
1.04318
1.01942
0.996973
0.977873
0.962681
0.951215
0.942975
0.937354
0.933843
0.931971
1.08155
1.08653
1.08714
1.08078
1.06527
1.04301
1.01843
0.995479
0.97614
0.960888
0.949464
0.941317
0.935807
0.932406
0.930635
1.08345
1.08865
1.08928
1.08246
1.06604
1.04274
1.01733
0.993883
0.974324
0.95903
0.947664
0.939623
0.934232
0.930946
0.92928
1.08542
1.09085
1.09148
1.08417
1.06677
1.04238
1.01612
0.992184
0.972424
0.957107
0.945816
0.937892
0.932629
0.929465
0.927908
1.08745
1.09312
1.09376
1.08588
1.06743
1.0419
1.01479
0.990375
0.970437
0.955118
0.943918
0.936125
0.930999
0.927962
0.926519
1.08954
1.09548
1.0961
1.08761
1.06803
1.04131
1.01332
0.988455
0.968362
0.953064
0.941973
0.934322
0.929341
0.926439
0.925113
1.09171
1.09793
1.09852
1.08934
1.06854
1.04058
1.01172
0.986417
0.966198
0.950942
0.939978
0.932483
0.927657
0.924894
0.92369
1.09395
1.10047
1.10101
1.09107
1.06897
1.0397
1.00997
0.98426
0.963942
0.948755
0.937935
0.930609
0.925947
0.923329
0.922251
1.09627
1.1031
1.10358
1.09279
1.06928
1.03867
1.00807
0.98198
0.961594
0.946499
0.935843
0.928699
0.92421
0.921744
0.920795
1.09867
1.10585
1.10622
1.09448
1.06948
1.03748
1.00601
0.979573
0.959154
0.944178
0.933705
0.926757
0.922448
0.920139
0.919324
1.10116
1.1087
1.10893
1.09615
1.06953
1.0361
1.00378
0.977037
0.95662
0.94179
0.93152
0.92478
0.920661
0.918515
0.917837
1.10374
1.11166
1.11172
1.09777
1.06944
1.03452
1.00138
0.974369
0.953992
0.939336
0.929289
0.922771
0.918851
0.916872
0.916336
1.10641
1.11475
1.11457
1.09933
1.06917
1.03273
0.998799
0.971568
0.95127
0.936817
0.927013
0.92073
0.917016
0.915211
0.914818
1.10919
1.11797
1.1175
1.10082
1.0687
1.03072
0.996028
0.968632
0.948456
0.934235
0.924693
0.918659
0.91516
0.913533
0.913287
1.11207
1.12133
1.12048
1.10221
1.06802
1.02847
0.993063
0.96556
0.945549
0.93159
0.922331
0.916558
0.913281
0.911837
0.911742
1.11508
1.12483
1.12352
1.10349
1.0671
1.02597
0.989901
0.962353
0.942551
0.928884
0.919929
0.914429
0.911382
0.910125
0.910183
1.1182
1.12848
1.12661
1.10463
1.06592
1.0232
0.986536
0.95901
0.939464
0.926119
0.917487
0.912273
0.909463
0.908397
0.908611
1.12146
1.13229
1.12973
1.1056
1.06445
1.02014
0.982967
0.955534
0.93629
0.923297
0.915009
0.910092
0.907525
0.906655
0.907026
1.12486
1.13626
1.13287
1.10638
1.06266
1.01679
0.979189
0.951925
0.933031
0.920421
0.912495
0.907887
0.90557
0.904897
0.905428
1.12841
1.14041
1.13602
1.10692
1.06052
1.01314
0.975205
0.948188
0.929691
0.917493
0.909948
0.905659
0.903598
0.903127
0.903819
1.13212
1.14473
1.13915
1.1072
1.05801
1.00916
0.971013
0.944325
0.926272
0.914516
0.907371
0.903411
0.90161
0.901343
0.902199
1.13602
1.14924
1.14224
1.10717
1.05509
1.00486
0.966617
0.940342
0.92278
0.911494
0.904766
0.901145
0.899609
0.899548
0.900567
1.1401
1.15394
1.14526
1.10679
1.05173
1.00022
0.962021
0.936243
0.919218
0.90843
0.902136
0.898861
0.897595
0.897742
0.898925
1.14439
1.15882
1.14817
1.10601
1.04791
0.995239
0.957231
0.932037
0.915592
0.905328
0.899484
0.896564
0.89557
0.895926
0.897274
1.14891
1.16389
1.15093
1.10477
1.0436
0.989919
0.952255
0.927728
0.911906
0.902192
0.896812
0.894253
0.893534
0.894101
0.895613
1.15367
1.16915
1.1535
1.10303
1.03877
0.98426
0.947103
0.923327
0.908166
0.899028
0.894125
0.891932
0.891491
0.892267
0.893943
1.1587
1.17458
1.15582
1.10072
1.03339
0.978265
0.941788
0.91884
0.904378
0.895838
0.891426
0.889603
0.889439
0.890426
0.892265
1.16402
1.18018
1.15782
1.09779
1.02744
0.971946
0.936324
0.914278
0.900549
0.892629
0.888717
0.887269
0.887383
0.888579
0.890579
1.16965
1.18592
1.15944
1.09417
1.02092
0.965316
0.930726
0.90965
0.896686
0.889405
0.886003
0.88493
0.885322
0.886726
0.888886
1.17564
1.19177
1.16059
1.08979
1.0138
0.958395
0.925012
0.904966
0.892795
0.886172
0.883287
0.882591
0.883259
0.884868
0.887185
1.18201
1.1977
1.16118
1.0846
1.00608
0.951206
0.919201
0.900237
0.888884
0.882936
0.880573
0.880253
0.881195
0.883007
0.885478
1.18879
1.20367
1.16112
1.07853
0.997768
0.943779
0.913313
0.895474
0.884961
0.879702
0.877865
0.877919
0.879132
0.881144
0.883765
1.19601
1.20961
1.16029
1.07152
0.988876
0.936148
0.907369
0.890688
0.881033
0.876476
0.875166
0.87559
0.87707
0.879278
0.882046
1.20373
1.21545
1.15858
1.06352
0.979429
0.928353
0.90139
0.885889
0.87711
0.873265
0.87248
0.873271
0.875012
0.877411
0.880321
1.21197
1.22109
1.15586
1.05449
0.969464
0.920437
0.895396
0.881089
0.8732
0.870075
0.869812
0.870962
0.872959
0.875543
0.878591
1.22077
1.22643
1.15199
1.04438
0.959029
0.912447
0.889409
0.876299
0.869312
0.866911
0.867165
0.868666
0.870912
0.873676
0.876855
1.23018
1.23133
1.14683
1.03319
0.94819
0.904432
0.883447
0.871529
0.865454
0.863781
0.864542
0.866386
0.868873
0.871809
0.875114
1.24021
1.23564
1.14024
1.0209
0.937024
0.896441
0.877529
0.866791
0.861638
0.860691
0.861948
0.864123
0.866842
0.869944
0.873367
1.25091
1.23916
1.13206
1.00754
0.925624
0.888524
0.87167
0.862097
0.857873
0.857646
0.859386
0.861879
0.86482
0.86808
0.871615
1.26228
1.24168
1.12215
0.993153
0.914096
0.880726
0.865884
0.857458
0.854169
0.854654
0.856859
0.859658
0.86281
0.866218