/*--------------------------------*- C++ -*----------------------------------*\
  =========                 |
  \\      /  F ield         | OpenFOAM: The Open Source CFD Toolbox
   \\    /   O peration     | Website:  https://openfoam.org
    \\  /    A nd           | Version:  6.0
     \\/     M anipulation  |
\*---------------------------------------------------------------------------*/
FoamFile
{
    version     2.0;
    format      ascii;
    class       surfaceScalarField;
    location    "9.4";
    object      phi;
}
// * * * * * * * * * * * * * * * * * * * * * * * * * * * * * * * * * * * * * //

dimensions      [0 3 -1 0 0 0 0];

internalField   nonuniform List<scalar> 
68636
(
3.02275e-05
0.00310561
3.30738e-09
6.08424e-05
0.00307075
9.10914e-05
0.00300253
0.000120481
0.00290149
0.000148623
0.00276865
0.000175172
0.00260548
0.000199815
0.00241376
0.000222266
0.00219561
0.00024227
0.00195345
0.000259597
0.00168994
0.000274051
0.00140798
0.000285471
0.00111065
0.000293731
0.000801254
0.000298725
0.000482988
0.000158166
0.000299871
2.99492e-05
0.00307565
7.11379e-09
6.02862e-05
0.00304041
9.02603e-05
0.00297256
0.000119382
0.00287237
0.000147268
0.00274076
0.000173574
0.00257917
0.000197991
0.00238934
0.000220238
0.00217337
0.000240059
0.00193363
0.000257229
0.00167277
0.000271552
0.00139366
0.000282867
0.00109934
0.000291064
0.000793059
0.000295959
0.000478095
0.000156944
0.000297185
2.96735e-05
0.00304597
1.05732e-08
5.97348e-05
0.00301035
8.94364e-05
0.00294286
0.000118293
0.00284351
0.000145925
0.00271313
0.000171992
0.0025531
0.000196188
0.00236515
0.000218232
0.00215132
0.000237873
0.00191399
0.000254886
0.00165575
0.000269079
0.00137947
0.00028029
0.00108813
0.000288413
0.000784936
0.000293299
0.00047321
0.000155579
0.000294667
2.94003e-05
0.00301655
1.39357e-08
5.91884e-05
0.00298056
8.86201e-05
0.00291342
0.000117214
0.00281492
0.000144595
0.00268575
0.000170425
0.00252727
0.000194401
0.00234117
0.000216245
0.00212948
0.000235706
0.00189453
0.000252564
0.0016389
0.000266629
0.0013654
0.000277735
0.00107702
0.00028578
0.000776895
0.000290641
0.000468353
0.000154155
0.000292071
2.91296e-05
0.00298741
1.71419e-08
5.8647e-05
0.00295104
8.78112e-05
0.00288426
0.000116146
0.00278658
0.000143277
0.00265862
0.000168872
0.00250168
0.00019263
0.00231741
0.000214275
0.00210783
0.000233559
0.00187524
0.000250263
0.00162219
0.000264199
0.00135147
0.000275204
0.00106602
0.000283169
0.000768929
0.000287987
0.000463537
0.000152693
0.000289451
2.88612e-05
0.00295852
2.04548e-08
5.81104e-05
0.00292179
8.70094e-05
0.00285536
0.000115086
0.00275851
0.000141971
0.00263174
0.000167333
0.00247632
0.000190874
0.00229387
0.000212322
0.00208639
0.000231431
0.00185614
0.000247982
0.00160564
0.000261791
0.00133766
0.000272696
0.00105512
0.000280584
0.000761045
0.000285355
0.000458769
0.000151212
0.000286844
2.85952e-05
0.00292991
2.38855e-08
5.75785e-05
0.00289281
8.62148e-05
0.00282672
0.000114036
0.00273068
0.000140677
0.0026051
0.000165808
0.00245119
0.000189135
0.00227055
0.000210388
0.00206513
0.000229322
0.0018372
0.000245723
0.00158924
0.000259406
0.00132398
0.000270212
0.00104431
0.000278024
0.000753233
0.000282751
0.000454042
0.000149709
0.000284255
2.83315e-05
0.00290155
2.74747e-08
5.70512e-05
0.00286409
8.54272e-05
0.00279835
0.000112996
0.00270312
0.000139394
0.0025787
0.000164297
0.00242628
0.000187412
0.00224743
0.000208471
0.00204408
0.000227233
0.00181844
0.000243484
0.00157299
0.000257042
0.00131042
0.00026775
0.00103361
0.000275488
0.000745498
0.000280172
0.000449363
0.000148203
0.000281686
2.80701e-05
0.00287344
3.12837e-08
5.65287e-05
0.00283563
8.46467e-05
0.00277023
0.000111965
0.0026758
0.000138123
0.00255254
0.0001628
0.00240161
0.000185704
0.00222453
0.000206572
0.00202321
0.000225163
0.00179985
0.000241266
0.00155689
0.0002547
0.00129699
0.000265311
0.001023
0.000272978
0.000737831
0.000277619
0.000444721
0.000146684
0.000279137
2.78109e-05
0.0028456
3.5284e-08
5.60108e-05
0.00280743
8.38732e-05
0.00274237
0.000110943
0.00264873
0.000136863
0.00252662
0.000161316
0.00237715
0.000184012
0.00220183
0.00020469
0.00200253
0.000223111
0.00178143
0.000239068
0.00154093
0.00025238
0.00128368
0.000262895
0.00101248
0.000270491
0.000730238
0.000275089
0.000440126
0.000145172
0.000276609
2.7554e-05
0.002818
3.94773e-08
5.54975e-05
0.00277949
8.31066e-05
0.00271476
0.00010993
0.00262191
0.000135615
0.00250093
0.000159845
0.00235292
0.000182335
0.00217934
0.000202825
0.00198204
0.000221079
0.00176317
0.00023689
0.00152512
0.00025008
0.00127048
0.0002605
0.00100206
0.000268027
0.00072271
0.000272584
0.000435568
0.000143656
0.000274098
2.72993e-05
0.00279066
4.38344e-08
5.49888e-05
0.0027518
8.23469e-05
0.0026874
0.000108927
0.00259533
0.000134378
0.00247548
0.000158388
0.00232892
0.000180674
0.00215706
0.000200977
0.00196174
0.000219065
0.00174509
0.000234732
0.00150946
0.000247802
0.00125742
0.000258127
0.000991739
0.000265586
0.000715254
0.000270101
0.000431056
0.000142157
0.000271607
2.70469e-05
0.00276357
4.82932e-08
5.44846e-05
0.00272436
8.1594e-05
0.00266029
0.000107932
0.00256899
0.000133153
0.00245026
0.000156944
0.00230512
0.000179027
0.00213497
0.000199146
0.00194162
0.000217069
0.00172716
0.000232593
0.00149393
0.000245544
0.00124446
0.000255776
0.000981507
0.000263167
0.000707861
0.000267642
0.00042658
0.000140659
0.000269137
2.67966e-05
0.00273672
5.28056e-08
5.39849e-05
0.00269717
8.08479e-05
0.00263343
0.000106947
0.00254289
0.000131938
0.00242527
0.000155514
0.00228155
0.000177396
0.00211309
0.000197331
0.00192169
0.000215091
0.0017094
0.000230474
0.00147855
0.000243307
0.00123163
0.000253446
0.00097137
0.00026077
0.000700539
0.000265205
0.000422149
0.000139181
0.00026669
2.65486e-05
0.00271011
5.73049e-08
5.34897e-05
0.00267023
8.01085e-05
0.00260681
0.00010597
0.00251703
0.000130734
0.00240051
0.000154096
0.00225819
0.000175779
0.00209141
0.000195533
0.00190193
0.000213131
0.00169181
0.000228374
0.00146331
0.00024109
0.00121892
0.000251137
0.000961323
0.000258395
0.000693278
0.00026279
0.000417752
0.000137703
0.000264265
2.63028e-05
0.00268375
6.17229e-08
5.2999e-05
0.00264354
7.93758e-05
0.00258043
0.000105003
0.0024914
0.000129542
0.00237597
0.000152691
0.00223504
0.000174176
0.00206992
0.000193751
0.00188236
0.000211189
0.00167437
0.000226293
0.0014482
0.000238893
0.00120632
0.000248849
0.000951369
0.000256042
0.000686087
0.000260398
0.0004134
0.000136243
0.000261864
2.60591e-05
0.00265762
6.60052e-08
5.25126e-05
0.00261708
7.86497e-05
0.0025543
0.000104043
0.00246601
0.00012836
0.00235165
0.000151298
0.0022121
0.000172589
0.00204863
0.000191985
0.00186296
0.000209264
0.00165709
0.000224231
0.00143324
0.000236717
0.00119383
0.000246581
0.000941503
0.00025371
0.000678957
0.000258028
0.00040908
0.000134784
0.000259484
2.58177e-05
0.00263173
7.01011e-08
5.20306e-05
0.00259087
7.79301e-05
0.0025284
0.000103093
0.00244084
0.000127188
0.00232756
0.000149918
0.00218937
0.000171015
0.00202754
0.000190235
0.00184375
0.000207357
0.00163997
0.000222188
0.00141841
0.00023456
0.00118146
0.000244335
0.00093173
0.000251399
0.000671895
0.000255679
0.000404804
0.000133342
0.000257126
2.55784e-05
0.00260608
7.39724e-08
5.1553e-05
0.00256489
7.7217e-05
0.00250273
0.000102151
0.00241591
0.000126027
0.00230368
0.000148551
0.00216685
0.000169456
0.00200663
0.000188501
0.0018247
0.000205467
0.001623
0.000220163
0.00140371
0.000232422
0.0011692
0.000242109
0.000922042
0.000249109
0.000664892
0.000253351
0.00040056
0.000131902
0.000254788
2.53413e-05
0.00258066
7.76012e-08
5.10797e-05
0.00253916
7.65103e-05
0.0024773
0.000101218
0.0023912
0.000124877
0.00228002
0.000147196
0.00214453
0.000167911
0.00198592
0.000186782
0.00180583
0.000203594
0.00160619
0.000218157
0.00138915
0.000230305
0.00115705
0.000239903
0.000912446
0.000246841
0.000657957
0.000251044
0.00039636
0.000130482
0.00025247
2.51064e-05
0.00255547
8.0981e-08
5.06107e-05
0.00251365
7.58101e-05
0.0024521
0.000100293
0.00236672
0.000123737
0.00225658
0.000145853
0.00212241
0.000166379
0.00196539
0.000185079
0.00178713
0.000201739
0.00158953
0.000216168
0.00137472
0.000228206
0.00114501
0.000237717
0.000902933
0.000244593
0.000651079
0.000248759
0.000392192
0.000129065
0.000250172
2.48736e-05
0.00253052
8.41273e-08
5.01459e-05
0.00248838
7.51161e-05
0.00242713
9.93765e-05
0.00234246
0.000122607
0.00223335
0.000144522
0.0021005
0.000164862
0.00194505
0.000183392
0.0017686
0.0001999
0.00157302
0.000214198
0.00136042
0.000226127
0.00113309
0.000235552
0.00089351
0.000242365
0.000644269
0.000246494
0.000388066
0.00012767
0.000247895
2.4643e-05
0.00250579
8.70691e-08
4.96854e-05
0.00246334
7.44285e-05
0.00240239
9.84682e-05
0.00231842
0.000121488
0.00221033
0.000143203
0.00207878
0.000163358
0.00192489
0.00018172
0.00175024
0.000198077
0.00155666
0.000212246
0.00134625
0.000224066
0.00112126
0.000233406
0.000884169
0.000240158
0.000637514
0.00024425
0.000383971
0.000126276
0.000245639
2.44146e-05
0.00248128
8.98505e-08
4.9229e-05
0.00243852
7.3747e-05
0.00237787
9.75681e-05
0.0022946
0.000120378
0.00218752
0.000141896
0.00205727
0.000161868
0.00190492
0.000180062
0.00173204
0.000196272
0.00154045
0.000210312
0.00133221
0.000222025
0.00110955
0.00023128
0.000874915
0.000237971
0.000630825
0.000242027
0.000379919
0.000124905
0.000243404
2.41882e-05
0.002457
9.25222e-08
4.87768e-05
0.00241393
7.30717e-05
0.00235358
9.66762e-05
0.00227099
0.000119279
0.00216491
0.000140601
0.00203594
0.000160391
0.00188513
0.00017842
0.00171401
0.000194482
0.00152439
0.000208395
0.0013183
0.000220002
0.00109794
0.000229173
0.000865742
0.000235804
0.000624192
0.000239824
0.000375896
0.000123534
0.00024119
2.3964e-05
0.00243294
9.51409e-08
4.83287e-05
0.00238957
7.24026e-05
0.0023295
9.57923e-05
0.0022476
0.00011819
0.00214252
0.000139318
0.00201482
0.000158928
0.00186552
0.000176793
0.00169615
0.000192709
0.00150848
0.000206496
0.00130451
0.000217997
0.00108644
0.000227085
0.000856656
0.000233657
0.000617623
0.000237641
0.000371916
0.000122184
0.000238996
2.37418e-05
0.0024091
9.77578e-08
4.78848e-05
0.00236543
7.17395e-05
0.00230565
9.49164e-05
0.00222443
0.00011711
0.00212032
0.000138046
0.00199388
0.000157478
0.00184609
0.000175181
0.00167845
0.000190952
0.0014927
0.000204613
0.00129085
0.000216011
0.00107505
0.000225017
0.000847648
0.000231529
0.000611108
0.000235478
0.000367964
0.000120835
0.000236822
2.35217e-05
0.00238548
1.0042e-07
4.74448e-05
0.0023415
7.10824e-05
0.00228201
9.40484e-05
0.00220146
0.00011604
0.00209833
0.000136786
0.00197313
0.000156041
0.00182684
0.000173583
0.0016609
0.000189211
0.00147708
0.000202748
0.00127731
0.000214042
0.00106375
0.000222967
0.000838725
0.000229421
0.000604656
0.000233335
0.000364054
0.000119507
0.000234668
2.33037e-05
0.00236207
1.03161e-07
4.70089e-05
0.0023178
7.04313e-05
0.00225859
9.31883e-05
0.0021787
0.00011498
0.00207654
0.000135537
0.00195258
0.000154617
0.00180775
0.000172
0.00164352
0.000187486
0.00146159
0.000200901
0.0012639
0.000212092
0.00105256
0.000220936
0.00082988
0.000227332
0.000598258
0.000231211
0.000360172
0.000118181
0.000232533
2.30876e-05
0.00233888
1.06001e-07
4.65769e-05
0.00229431
6.97861e-05
0.00223538
9.23359e-05
0.00215615
0.000113929
0.00205495
0.000134299
0.00193221
0.000153206
0.00178885
0.000170431
0.0016263
0.000185776
0.00144624
0.000199069
0.00125061
0.00021016
0.00104147
0.000218924
0.000821117
0.000225262
0.000591922
0.000229107
0.000356331
0.000116876
0.000230417
2.28736e-05
0.0023159
1.08946e-07
4.61488e-05
0.00227103
6.91467e-05
0.00221238
9.14913e-05
0.00213381
0.000112888
0.00203355
0.000133073
0.00191202
0.000151808
0.00177011
0.000168876
0.00160923
0.000184082
0.00143104
0.000197255
0.00123743
0.000208245
0.00103048
0.00021693
0.00081243
0.000223212
0.000585638
0.000227022
0.000352518
0.000115573
0.00022832
2.26615e-05
0.00229312
1.11986e-07
4.57247e-05
0.00224797
6.85131e-05
0.00218959
9.06543e-05
0.00211167
0.000111856
0.00201235
0.000131858
0.00189202
0.000150422
0.00175155
0.000167335
0.00159232
0.000182404
0.00141597
0.000195457
0.00122438
0.000206348
0.00101959
0.000214954
0.000803826
0.000221179
0.000579415
0.000224956
0.000348746
0.000114291
0.000226243
2.24513e-05
0.00227056
1.15099e-07
4.53044e-05
0.00222512
6.78853e-05
0.00216701
8.98249e-05
0.00208973
0.000110834
0.00199134
0.000130653
0.0018722
0.000149049
0.00173315
0.000165809
0.00157556
0.000180741
0.00140104
0.000193676
0.00121144
0.000204468
0.0010088
0.000212997
0.000795295
0.000219166
0.000573243
0.000222908
0.000345
0.00011301
0.000224184
2.22431e-05
0.0022482
1.18254e-07
4.4888e-05
0.00220247
6.72631e-05
0.00214464
8.9003e-05
0.00206799
0.000109821
0.00197052
0.00012946
0.00185256
0.000147689
0.00171492
0.000164296
0.00155895
0.000179093
0.00138624
0.000191911
0.00119863
0.000202605
0.000998103
0.000211057
0.000786845
0.000217171
0.000567131
0.00022088
0.000341294
0.000111751
0.000222145
2.20367e-05
0.00222604
1.21412e-07
4.44753e-05
0.00218003
6.66466e-05
0.00212247
8.81886e-05
0.00204645
0.000108817
0.00194989
0.000128278
0.0018331
0.000146341
0.00169686
0.000162798
0.00154249
0.00017746
0.00137158
0.000190162
0.00118592
0.000200759
0.000987503
0.000209135
0.000778467
0.000215194
0.00056107
0.00021887
0.000337615
0.000110492
0.000220124
2.18323e-05
0.00220408
1.24537e-07
4.40664e-05
0.0021578
6.60357e-05
0.0021005
8.73815e-05
0.0020251
0.000107822
0.00192945
0.000127106
0.00181382
0.000145005
0.00167896
0.000161312
0.00152618
0.000175842
0.00135705
0.000188428
0.00117334
0.000198931
0.000977003
0.000207231
0.000770169
0.000213235
0.000555067
0.000216879
0.000333975
0.000109254
0.000218122
2.16297e-05
0.00218232
1.27591e-07
4.36612e-05
0.00213577
6.54304e-05
0.00207873
8.65818e-05
0.00200395
0.000106837
0.00190919
0.000125945
0.00179471
0.000143681
0.00166122
0.000159841
0.00151002
0.000174238
0.00134265
0.000186711
0.00116087
0.000197118
0.000966594
0.000205344
0.000761942
0.000211294
0.000549114
0.000214905
0.000330361
0.000108016
0.000216138
2.14289e-05
0.00216076
1.30544e-07
4.32596e-05
0.00211394
6.48305e-05
0.00205716
8.57893e-05
0.00198299
0.00010586
0.00188912
0.000124794
0.00177578
0.00014237
0.00164365
0.000158383
0.00149401
0.00017265
0.00132838
0.00018501
0.00114851
0.000195323
0.000956282
0.000203474
0.000753793
0.000209371
0.000543219
0.00021295
0.000326785
0.0001068
0.000214172
2.12299e-05
0.0021394
1.33372e-07
4.28617e-05
0.0020923
6.42361e-05
0.00203578
8.50041e-05
0.00196222
0.000104892
0.00186924
0.000123654
0.00175701
0.00014107
0.00162623
0.000156938
0.00147814
0.000171076
0.00131425
0.000183324
0.00113626
0.000193544
0.00094606
0.000201621
0.000745713
0.000207465
0.000537372
0.000211012
0.000323235
0.000105584
0.000212223
2.10328e-05
0.00211823
1.36062e-07
4.24674e-05
0.00207087
6.36471e-05
0.0020146
8.4226e-05
0.00194164
0.000103933
0.00184953
0.000122525
0.00173842
0.000139782
0.00160898
0.000155506
0.00146242
0.000169516
0.00130024
0.000181653
0.00112412
0.000191781
0.000935934
0.000199785
0.00073771
0.000205577
0.000531582
0.000209093
0.000319723
0.000104389
0.000210293
2.08374e-05
0.00209726
1.38605e-07
4.20767e-05
0.00204963
6.30634e-05
0.00199362
8.34549e-05
0.00192125
0.000102983
0.00183
0.000121406
0.00172
0.000138506
0.00159188
0.000154087
0.00144684
0.00016797
0.00128635
0.000179998
0.00111209
0.000190034
0.000925896
0.000197966
0.000729775
0.000203706
0.00052584
0.00020719
0.000316236
0.000103194
0.00020838
2.06439e-05
0.00207647
1.41006e-07
4.16896e-05
0.00202858
6.2485e-05
0.00197282
8.26909e-05
0.00190105
0.000102041
0.00181065
0.000120296
0.00170174
0.000137242
0.00157493
0.000152682
0.0014314
0.000166439
0.0012726
0.000178357
0.00110018
0.000188303
0.000915952
0.000196164
0.000721916
0.000201853
0.000520153
0.000205306
0.000312786
0.00010202
0.000206485
2.0452e-05
0.00205588
1.43274e-07
4.13059e-05
0.00200773
6.19119e-05
0.00195221
8.19338e-05
0.00188102
0.000101108
0.00179148
0.000119197
0.00168365
0.000135989
0.00155814
0.000151289
0.0014161
0.000164922
0.00125896
0.000176732
0.00108836
0.000186588
0.000906094
0.000194378
0.000714124
0.000200016
0.000514513
0.000203438
0.000309361
0.000100846
0.000204607
2.02619e-05
0.00203547
1.45431e-07
4.09258e-05
0.00198707
6.1344e-05
0.0019318
8.11836e-05
0.00186118
0.000100183
0.00177248
0.000118108
0.00166573
0.000134748
0.0015415
0.000149909
0.00140094
0.000163418
0.00124545
0.000175122
0.00107666
0.000184889
0.000896329
0.000192609
0.000706405
0.000198196
0.000508929
0.000201587
0.000305973
9.96929e-05
0.000202746
2.00736e-05
0.00201525
1.47501e-07
4.0549e-05
0.00196659
6.07813e-05
0.00191156
8.04403e-05
0.00184152
9.92672e-05
0.00175365
0.000117029
0.00164797
0.000133518
0.00152501
0.000148541
0.00138591
0.000161928
0.00123207
0.000173526
0.00106506
0.000183205
0.000886649
0.000190856
0.000698752
0.000196392
0.000503389
0.000199754
0.000302608
9.85381e-05
0.000200902
1.98869e-05
0.00199521
1.49519e-07
4.01758e-05
0.0019463
6.02237e-05
0.00189152
7.97037e-05
0.00182205
9.83594e-05
0.00173499
0.00011596
0.00163037
0.000132299
0.00150867
0.000147186
0.00137103
0.000160452
0.0012188
0.000171945
0.00105357
0.000181537
0.000877059
0.000189118
0.000691172
0.000194606
0.000497904
0.000197937
0.00029928
9.74055e-05
0.000199076
1.9702e-05
0.00197536
1.51517e-07
3.98059e-05
0.0019262
5.96712e-05
0.00187165
7.89739e-05
0.00180274
9.74599e-05
0.00171651
0.000114901
0.00161292
0.000131091
0.00149248
0.000145844
0.00135627
0.000158989
0.00120566
0.000170379
0.00104218
0.000179884
0.000867552
0.000187397
0.000683657
0.000192835
0.000492463
0.000196137
0.000295974
9.62705e-05
0.000197266
1.95187e-05
0.00195569
1.53532e-07
3.94394e-05
0.00190628
5.91237e-05
0.00185197
7.82507e-05
0.00178362
9.65686e-05
0.00169819
0.000113851
0.00159564
0.000129895
0.00147644
0.000144513
0.00134166
0.00015754
0.00119263
0.000168827
0.00103089
0.000178246
0.000858134
0.000185692
0.000676213
0.000191081
0.000487077
0.000194353
0.000292705
9.51578e-05
0.000195472
1.93371e-05
0.00193619
1.55592e-07
3.90762e-05
0.00188654
5.85812e-05
0.00183246
7.75341e-05
0.00176466
9.56854e-05
0.00168004
0.000112811
0.00157852
0.000128709
0.00146054
0.000143195
0.00132717
0.000156104
0.00117972
0.000167289
0.00101971
0.000176623
0.000848798
0.000184002
0.000668831
0.000189343
0.000481733
0.000192586
0.000289458
9.40422e-05
0.000193695
1.91572e-05
0.00191688
1.57723e-07
3.87163e-05
0.00186698
5.80437e-05
0.00181313
7.6824e-05
0.00174588
9.48103e-05
0.00166205
0.00011178
0.00156155
0.000127534
0.00144479
0.000141889
0.00131281
0.000154681
0.00116693
0.000165765
0.00100862
0.000175015
0.000839549
0.000182327
0.00066152
0.00018762
0.000476442
0.000190835
0.000286247
9.2949e-05
0.000191934
1.89789e-05
0.00189774
1.59937e-07
3.83598e-05
0.0018476
5.75111e-05
0.00179398
7.61205e-05
0.00172727
9.39432e-05
0.00164423
0.000110759
0.00154473
0.00012637
0.00142917
0.000140595
0.00129859
0.000153271
0.00115425
0.000164255
0.000997638
0.000173421
0.000830381
0.000180668
0.000654271
0.000185914
0.000471194
0.0001891
0.000283058
9.18526e-05
0.000190189
1.88022e-05
0.00187878
1.6224e-07
3.80065e-05
0.00182839
5.69833e-05
0.00177501
7.54234e-05
0.00170883
9.30841e-05
0.00162657
0.000109747
0.00152807
0.000125216
0.00141371
0.000139313
0.00128449
0.000151874
0.00114169
0.000162759
0.000986755
0.000171843
0.000821298
0.000179024
0.000647091
0.000184223
0.000465997
0.000187381
0.000279904
9.07785e-05
0.000188461
1.86272e-05
0.00185998
1.64621e-07
3.76564e-05
0.00180937
5.64604e-05
0.0017562
7.47326e-05
0.00169056
9.22327e-05
0.00160907
0.000108745
0.00151155
0.000124074
0.00139838
0.000138042
0.00127052
0.00015049
0.00112924
0.000161276
0.000975968
0.000170278
0.000812294
0.000177396
0.000639972
0.000182548
0.000460842
0.000185677
0.000276771
8.97008e-05
0.000186748
1.84538e-05
0.00184136
1.67066e-07
3.73095e-05
0.00179051
5.59423e-05
0.00173757
7.40482e-05
0.00167245
9.13892e-05
0.00159173
0.000107751
0.00149519
0.000122941
0.00138319
0.000136783
0.00125668
0.000149119
0.00111691
0.000159807
0.00096528
0.000168729
0.000803374
0.000175782
0.000632921
0.000180888
0.000455738
0.00018399
0.000273673
8.86453e-05
0.000185051
1.82819e-05
0.00182291
1.69548e-07
3.69659e-05
0.00177183
5.54289e-05
0.00171911
7.337e-05
0.00165451
9.05534e-05
0.00157454
0.000106767
0.00147898
0.000121819
0.00136813
0.000135536
0.00124296
0.00014776
0.00110468
0.000158352
0.000954686
0.000167193
0.000794532
0.000174183
0.000625928
0.000179243
0.000450675
0.000182317
0.000270595
8.75859e-05
0.00018337
1.81117e-05
0.00180463
1.72039e-07
3.66253e-05
0.00175331
5.49202e-05
0.00170081
7.26981e-05
0.00163674
8.97253e-05
0.00155752
0.000105791
0.00146291
0.000120707
0.00135322
0.0001343
0.00122937
0.000146413
0.00109257
0.00015691
0.000944191
0.000165671
0.000785772
0.000172599
0.000619003
0.000177614
0.000445662
0.00018066
0.000267552
8.65488e-05
0.000181704
1.7943e-05
0.00178651
1.74507e-07
3.62879e-05
0.00173497
5.44162e-05
0.00168268
7.20323e-05
0.00161912
8.89048e-05
0.00154065
0.000104825
0.00144699
0.000119606
0.00133844
0.000133075
0.0012159
0.000145079
0.00108056
0.000155481
0.000933787
0.000164164
0.000777087
0.000171029
0.000612136
0.000175999
0.000440689
0.000179019
0.000264528
8.55074e-05
0.000180053
1.77758e-05
0.00176856
1.76923e-07
3.59537e-05
0.00171679
5.39168e-05
0.00166472
7.13726e-05
0.00160166
8.80917e-05
0.00152393
0.000103868
0.00143122
0.000118514
0.00132379
0.000131862
0.00120256
0.000143758
0.00106867
0.000154066
0.00092348
0.00016267
0.000768485
0.000169474
0.000605334
0.000174399
0.000435766
0.000177392
0.000261538
8.44883e-05
0.000178418
1.76102e-05
0.00175077
1.79259e-07
3.56224e-05
0.00169878
5.34219e-05
0.00164692
7.0719e-05
0.00158437
8.72861e-05
0.00150736
0.000102919
0.00141558
0.000117433
0.00130928
0.00013066
0.00118933
0.000142448
0.00105688
0.000152663
0.000913263
0.00016119
0.000759956
0.000167933
0.000598589
0.000172814
0.000430881
0.000175781
0.000258568
8.34645e-05
0.000176797
1.74462e-05
0.00173314
1.81494e-07
3.52942e-05
0.00168093
5.29316e-05
0.00162928
7.00713e-05
0.00156723
8.64879e-05
0.00149094
0.000101979
0.00140009
0.000116361
0.00129489
0.000129469
0.00117622
0.00014115
0.0010452
0.000151273
0.000903141
0.000159724
0.000751507
0.000166406
0.000591909
0.000171244
0.000426045
0.000174184
0.000255632
8.24631e-05
0.000175192
1.72836e-05
0.00171567
1.83612e-07
3.49691e-05
0.00166324
5.24459e-05
0.00161181
6.94296e-05
0.00155024
8.56971e-05
0.00147467
0.000101047
0.00138474
0.0001153
0.00128064
0.000128288
0.00116323
0.000139865
0.00103362
0.000149897
0.000893108
0.000158271
0.000743131
0.000164893
0.000585285
0.000169688
0.000421247
0.000172602
0.000252713
8.14565e-05
0.000173601
1.71226e-05
0.00169837
1.85608e-07
3.46469e-05
0.00164572
5.19645e-05
0.00159449
6.87938e-05
0.00153341
8.49135e-05
0.00145856
0.000100124
0.00136953
0.000114248
0.00126652
0.000127119
0.00115036
0.000138591
0.00102215
0.000148532
0.000883167
0.000156831
0.000734833
0.000163394
0.000578724
0.000168146
0.000416497
0.000171035
0.000249829
8.04724e-05
0.000172025
1.6963e-05
0.00168121
1.87482e-07
3.43277e-05
0.00162835
5.14876e-05
0.00157733
6.81638e-05
0.00151674
8.4137e-05
0.00144258
9.92101e-05
0.00135446
0.000113205
0.00125252
0.00012596
0.00113761
0.000137329
0.00101078
0.000147181
0.000873314
0.000155405
0.000726607
0.000161909
0.000572218
0.000166619
0.000411784
0.000169482
0.000246962
7.94827e-05
0.000170464
1.68049e-05
0.00166422
1.89245e-07
3.40114e-05
0.00161115
5.10151e-05
0.00156033
6.75396e-05
0.00150021
8.33678e-05
0.00142675
9.83041e-05
0.00133952
0.000112173
0.00123865
0.000124812
0.00112497
0.000136078
0.000999517
0.000145841
0.000863551
0.000153992
0.000718458
0.000160438
0.000565774
0.000165105
0.000407118
0.000167943
0.000244128
7.85155e-05
0.000168917
1.66483e-05
0.00164738
1.90914e-07
3.3698e-05
0.0015941
5.05469e-05
0.00154348
6.69211e-05
0.00148384
8.26055e-05
0.00141107
9.74064e-05
0.00132472
0.000111149
0.00122491
0.000123675
0.00111244
0.000134839
0.000988351
0.000144514
0.000853874
0.000152592
0.000710378
0.00015898
0.000559384
0.000163606
0.000402489
0.000166419
0.000241312
7.75423e-05
0.000167384
1.64931e-05
0.0016307
1.92514e-07
3.33875e-05
0.0015772
5.0083e-05
0.00152678
6.63083e-05
0.00146761
8.18503e-05
0.00139553
9.6517e-05
0.00131005
0.000110136
0.00121129
0.000122548
0.00110003
0.000133611
0.000977289
0.0001432
0.000844287
0.000151205
0.000702375
0.000157536
0.000553055
0.000162121
0.000397906
0.000164908
0.000238528
7.65916e-05
0.000165866
1.63394e-05
0.00161416
1.94071e-07
3.30799e-05
0.00156046
4.96234e-05
0.00151024
6.57011e-05
0.00145153
8.1102e-05
0.00138013
9.56358e-05
0.00129552
0.000109131
0.0011978
0.000121431
0.00108773
0.000132395
0.000966324
0.000141897
0.000834783
0.00014983
0.00069444
0.000156104
0.000546778
0.000160649
0.000393359
0.000163412
0.00023576
7.56347e-05
0.000164361
1.61871e-05
0.00159778
1.95615e-07
3.2775e-05
0.00154388
4.9168e-05
0.00149385
6.50996e-05
0.0014356
8.03606e-05
0.00136487
9.47627e-05
0.00128112
0.000108136
0.00118442
0.000120325
0.00107554
0.00013119
0.00095546
0.000140607
0.000825367
0.000148469
0.000686579
0.000154687
0.000540562
0.00015919
0.000388857
0.000161929
0.000233026
7.47001e-05
0.00016287
1.60361e-05
0.00158155
1.97174e-07
3.2473e-05
0.00152744
4.87167e-05
0.0014776
6.45035e-05
0.00141982
7.9626e-05
0.00134974
9.38976e-05
0.00126685
0.00010715
0.00117117
0.000119229
0.00106346
0.000129996
0.000944692
0.000139328
0.000816034
0.000147119
0.000678786
0.000153282
0.000534397
0.000157746
0.00038439
0.00016046
0.000230307
7.37591e-05
0.000161393
1.58866e-05
0.00156546
1.98771e-07
3.21737e-05
0.00151115
4.82696e-05
0.00146151
6.39129e-05
0.00140417
7.88982e-05
0.00133476
9.30405e-05
0.0012527
0.000106173
0.00115804
0.000118143
0.00105149
0.000128813
0.000934023
0.000138061
0.000806787
0.000145783
0.000671066
0.00015189
0.000528291
0.000156314
0.000379969
0.000159005
0.00022762
7.28405e-05
0.00015993
1.57384e-05
0.00154952
2.00423e-07
3.18772e-05
0.00149501
4.78267e-05
0.00144556
6.33278e-05
0.00138867
7.81771e-05
0.00131991
9.21912e-05
0.00123869
0.000105205
0.00114503
0.000117067
0.00103963
0.000127641
0.000923447
0.000136806
0.00079762
0.000144458
0.000663411
0.000150511
0.000522236
0.000154896
0.000375581
0.000157563
0.000224949
7.1915e-05
0.00015848
1.55916e-05
0.00153373
2.02142e-07
3.15835e-05
0.00147902
4.73878e-05
0.00142975
6.2748e-05
0.00137331
7.74626e-05
0.00130519
9.13498e-05
0.0012248
0.000104246
0.00113213
0.000116001
0.00102787
0.00012648
0.00091297
0.000135563
0.000788538
0.000143146
0.000655829
0.000149145
0.000516239
0.000153491
0.000371237
0.000156134
0.000222309
7.1012e-05
0.000157044
1.54461e-05
0.00151808
2.03929e-07
3.12924e-05
0.00146317
4.69529e-05
0.00141409
6.21736e-05
0.00135809
7.67547e-05
0.00129061
9.05162e-05
0.00121104
0.000103296
0.00111935
0.000114945
0.00101622
0.000125329
0.000902584
0.00013433
0.000779535
0.000141846
0.000648311
0.000147792
0.000510291
0.000152099
0.000366927
0.000154719
0.000219685
7.01018e-05
0.000155621
1.5302e-05
0.00150257
2.05777e-07
3.1004e-05
0.00144747
4.6522e-05
0.00139857
6.16045e-05
0.00134301
7.60533e-05
0.00127616
8.96902e-05
0.0011974
0.000102354
0.00110669
0.000113898
0.00100468
0.000124189
0.000892294
0.00013311
0.000770616
0.000140558
0.000640864
0.000146451
0.000504401
0.00015072
0.00036266
0.000153317
0.000217091
6.9214e-05
0.000154212
1.51592e-05
0.0014872
2.07673e-07
3.07182e-05
0.00143191
4.60951e-05
0.0013832
6.10406e-05
0.00132806
7.53584e-05
0.00126185
8.88719e-05
0.00118389
0.000101422
0.00109414
0.000112861
0.000993238
0.00012306
0.000882094
0.0001319
0.000761774
0.000139282
0.00063348
0.000145122
0.000498559
0.000149353
0.000358426
0.000151928
0.000214512
6.83187e-05
0.000152815
1.50177e-05
0.00147198
2.09599e-07
3.04351e-05
0.0014165
4.56722e-05
0.00136796
6.04819e-05
0.00131325
7.46699e-05
0.00124766
8.80611e-05
0.0011705
0.000100497
0.0010817
0.000111834
0.000981902
0.000121941
0.000871988
0.000130702
0.000753014
0.000138018
0.000626165
0.000143806
0.000492773
0.000147999
0.000354235
0.000150551
0.000211964
6.74459e-05
0.000151431
1.48775e-05
0.00145689
2.11529e-07
3.01546e-05
0.00140122
4.52531e-05
0.00135286
5.99283e-05
0.00129858
7.39877e-05
0.0012336
8.72578e-05
0.00115723
9.95818e-05
0.00106938
0.000110817
0.000970666
0.000120833
0.000861971
0.000129515
0.000744329
0.000136766
0.000618913
0.000142502
0.000487034
0.000146658
0.000350075
0.000149188
0.00020943
6.65651e-05
0.00015006
1.47386e-05
0.00144194
2.13442e-07
2.98767e-05
0.00138608
4.48379e-05
0.0013379
5.93799e-05
0.00128404
7.33118e-05
0.00121967
8.64619e-05
0.00114408
9.86747e-05
0.00105716
0.000109808
0.000959534
0.000119734
0.000852046
0.000128339
0.000735726
0.000135525
0.000611728
0.00014121
0.000481351
0.00014533
0.000345958
0.000147837
0.000206927
6.57068e-05
0.000148702
1.4601e-05
0.00142712
2.15312e-07
2.96014e-05
0.00137108
4.44265e-05
0.00132308
5.88365e-05
0.00126963
7.26422e-05
0.00120586
8.56734e-05
0.00113105
9.7776e-05
0.00104506
0.000108809
0.000948499
0.000118646
0.000842208
0.000127174
0.000727196
0.000134296
0.000604605
0.00013993
0.000475714
0.000144013
0.000341871
0.000146499
0.000204437
6.48404e-05
0.000147357
1.44647e-05
0.00141244
2.17119e-07
2.93285e-05
0.00135622
4.40189e-05
0.00130839
5.82981e-05
0.00125535
7.19788e-05
0.00119218
8.48921e-05
0.00111814
9.68856e-05
0.00103307
0.00010782
0.000937566
0.000117568
0.00083246
0.00012602
0.000718746
0.000133078
0.000597548
0.000138662
0.000470132
0.000142709
0.000337827
0.000145173
0.000201977
6.39963e-05
0.000146024
1.43296e-05
0.00139789
2.18847e-07
2.90582e-05
0.00134149
4.36151e-05
0.00129383
5.77647e-05
0.0012412
7.13215e-05
0.00117862
8.41181e-05
0.00110534
9.60035e-05
0.00102118
0.000106839
0.000926729
0.0001165
0.000822798
0.000124876
0.000710369
0.000131871
0.000590551
0.000137406
0.000464595
0.000141417
0.000333812
0.000143859
0.00019953
6.31438e-05
0.000144703
1.41958e-05
0.00138347
2.20487e-07
2.87904e-05
0.00132689
4.3215e-05
0.0012794
5.72362e-05
0.00122718
7.06702e-05
0.00116519
8.33512e-05
0.00109266
9.51295e-05
0.0010094
0.000105868
0.000915992
0.000115442
0.000813224
0.000123743
0.000702069