/*--------------------------------*- C++ -*----------------------------------*\
  =========                 |
  \\      /  F ield         | OpenFOAM: The Open Source CFD Toolbox
   \\    /   O peration     | Website:  https://openfoam.org
    \\  /    A nd           | Version:  6.0
     \\/     M anipulation  |
\*---------------------------------------------------------------------------*/
FoamFile
{
    version     2.0;
    format      ascii;
    class       volVectorField;
    location    "9.4";
    object      U;
}
// * * * * * * * * * * * * * * * * * * * * * * * * * * * * * * * * * * * * * //

dimensions      [0 1 -1 0 0 0 0];

internalField   nonuniform List<vector> 
34500
(
(0.999997 4.67444e-06 -4.63292e-17)
(0.999971 -8.57435e-06 -8.13439e-18)
(0.999923 -3.3726e-05 1.42189e-16)
(0.999861 -7.49292e-05 -1.07627e-16)
(0.999793 -0.000134596 3.35357e-17)
(0.999729 -0.000212013 -1.01423e-16)
(0.999679 -0.000303746 -1.00942e-16)
(0.999648 -0.000403843 8.64783e-17)
(0.999642 -0.000503451 1.07199e-16)
(0.999663 -0.000593382 -6.82619e-16)
(0.999709 -0.000663835 -1.03936e-15)
(0.999772 -0.000715546 1.26633e-16)
(0.999848 -0.00073162 4.33272e-16)
(0.999973 -0.000775743 -2.06692e-16)
(0.999059 -0.00122107 7.57654e-17)
(0.999992 1.24603e-05 3.24455e-17)
(0.999946 -1.82706e-05 9.76221e-17)
(0.999862 -7.01148e-05 7.17372e-17)
(0.999754 -0.000149232 -3.02091e-16)
(0.999636 -0.000260146 -5.05654e-16)
(0.999528 -0.000402042 -5.50102e-17)
(0.999444 -0.000568662 2.55375e-16)
(0.999397 -0.000748807 -6.76861e-16)
(0.999396 -0.000925162 -1.78506e-16)
(0.999443 -0.00108019 6.80863e-16)
(0.999535 -0.00119456 1.26078e-15)
(0.99966 -0.0012695 -6.28225e-16)
(0.999794 -0.00127115 -9.8229e-16)
(1.00007 -0.00128495 -3.93618e-16)
(0.999164 -0.00165062 5.17347e-16)
(0.99999 1.93478e-05 1.04672e-17)
(0.99995 -2.37456e-05 -1.22898e-16)
(0.99988 -8.49759e-05 -1.25133e-16)
(0.999792 -0.000167063 4.5549e-16)
(0.999699 -0.000273647 -2.86015e-17)
(0.999616 -0.000404017 -1.63924e-16)
(0.999556 -0.000553 9.77574e-17)
(0.999528 -0.000711408 3.84319e-16)
(0.999541 -0.000862931 2.41538e-19)
(0.999597 -0.000992077 -3.92558e-16)
(0.999689 -0.00107964 -7.27116e-16)
(0.999813 -0.00112859 4.13007e-16)
(0.999923 -0.00110999 2.24312e-16)
(1.00022 -0.00108338 1.63952e-16)
(0.999681 -0.00117343 -2.43065e-16)
(0.999987 2.57722e-05 -1.7354e-17)
(0.999954 -3.00893e-05 -9.02248e-18)
(0.9999 -0.000100844 4.83081e-17)
(0.999833 -0.000185935 -3.05265e-16)
(0.999766 -0.00028812 3.72033e-16)
(0.99971 -0.000406566 3.29727e-16)
(0.999674 -0.000537463 -3.9919e-16)
(0.999664 -0.000673849 -4.19579e-16)
(0.999688 -0.000802044 4.34579e-16)
(0.999747 -0.000909789 -4.69998e-16)
(0.999835 -0.000980162 -2.44097e-16)
(0.999951 -0.00101832 -3.84677e-16)
(1.00003 -0.00100621 5.41075e-16)
(1.0003 -0.000980719 -4.78786e-17)
(0.999951 -0.00106451 2.13801e-17)
(0.999981 3.22874e-05 -1.70429e-17)
(0.999949 -3.74579e-05 1.53293e-16)
(0.999898 -0.000121986 6.9537e-17)
(0.999837 -0.00021926 1.69689e-16)
(0.999776 -0.000331911 4.67223e-17)
(0.999728 -0.00045859 -1.58151e-16)
(0.999701 -0.000595501 1.02453e-16)
(0.999702 -0.000735602 2.66094e-16)
(0.999734 -0.000865987 -4.17306e-16)
(0.999801 -0.0009754 -2.30738e-16)
(0.999895 -0.0010478 1.00522e-15)
(1.00002 -0.00108869 6.33165e-16)
(1.0001 -0.00108651 -2.89036e-16)
(1.00034 -0.00106164 5.90675e-16)
(1.0001 -0.00114794 -5.85587e-16)
(0.999975 3.9216e-05 1.83513e-17)
(0.99994 -4.44388e-05 -9.47967e-17)
(0.999889 -0.000143696 -1.86293e-16)
(0.999828 -0.000255705 -5.29178e-17)
(0.999769 -0.000383148 1.09381e-16)
(0.999724 -0.000524026 -1.08785e-16)
(0.999703 -0.000673829 1.4808e-16)
(0.999712 -0.00082436 1.31093e-16)
(0.999754 -0.00096248 2.90769e-16)
(0.999832 -0.00107691 -1.00161e-16)
(0.999936 -0.00115182 2.88083e-18)
(1.00008 -0.00119142 -3.88648e-16)
(1.00016 -0.00118727 1.82756e-17)
(1.00038 -0.00114604 -4.67702e-16)
(1.00024 -0.00116596 7.39521e-17)
(0.999967 4.66027e-05 3.25533e-18)
(0.999932 -5.06025e-05 -3.55827e-17)
(0.999882 -0.000163612 -2.90127e-17)
(0.999825 -0.000288672 1.75682e-16)
(0.99977 -0.000428396 -2.20361e-16)
(0.999732 -0.000580316 2.75311e-16)
(0.99972 -0.000739239 -6.18878e-16)
(0.999738 -0.000895964 -3.69601e-16)
(0.999792 -0.00103704 -1.5148e-16)
(0.999881 -0.00115131 6.70735e-16)
(0.999995 -0.00122341 -7.67444e-16)
(1.00015 -0.00125587 2.97648e-16)
(1.00025 -0.00124301 4.55349e-16)
(1.00044 -0.00118071 -9.56487e-17)
(1.00038 -0.00113707 -1.20425e-16)
(0.999958 5.44354e-05 1.51157e-17)
(0.999924 -5.622e-05 3.22817e-17)
(0.999878 -0.000182348 2.50225e-17)
(0.999826 -0.000319238 -1.50817e-16)
(0.999779 -0.00046934 3.28733e-16)
(0.99975 -0.000629935 -1.39524e-16)
(0.999747 -0.000795316 2.01428e-16)
(0.999777 -0.000955573 -1.46183e-16)
(0.999841 -0.00109692 3.97294e-16)
(0.999941 -0.00120842 1.7761e-16)
(1.00006 -0.00127532 2.44519e-16)
(1.00022 -0.00129863 -5.64442e-17)
(1.00034 -0.0012756 -5.03779e-16)
(1.00052 -0.00119456 1.1361e-15)
(1.00052 -0.00110999 1.86081e-16)
(0.999948 6.27338e-05 -1.12153e-17)
(0.999914 -6.1508e-05 9.89384e-17)
(0.999872 -0.000200733 1.5076e-16)
(0.999827 -0.000349342 1.11881e-16)
(0.999789 -0.000509543 -4.88472e-16)
(0.999769 -0.000678418 1.409e-16)
(0.999777 -0.000849832 3.20545e-16)
(0.999817 -0.00101329 7.72046e-16)
(0.999893 -0.00115457 -3.8516e-16)
(1 -0.00126281 8.99794e-17)
(1.00014 -0.00132378 4.48679e-16)
(1.00031 -0.00133718 -3.23384e-16)
(1.00043 -0.00130312 -1.53811e-16)
(1.0006 -0.00120535 -3.80171e-16)
(1.00065 -0.00109118 8.384e-17)
(0.999936 7.15309e-05 4.06829e-17)
(0.999903 -6.6492e-05 -8.9721e-17)
(0.999866 -0.00021893 8.85021e-18)
(0.999827 -0.000379357 -1.10143e-16)
(0.999798 -0.000549628 4.10474e-16)
(0.999788 -0.000726535 7.95749e-17)
(0.999807 -0.000903564 2.70106e-16)
(0.999858 -0.00106975 -5.72774e-16)
(0.999945 -0.00121054 4.15643e-17)
(1.00007 -0.00131502 -7.86341e-17)
(1.00021 -0.00136956 -1.39563e-16)
(1.00039 -0.00137275 4.40896e-17)
(1.00053 -0.00132768 5.91505e-16)
(1.00069 -0.00121588 -8.03061e-16)
(1.00077 -0.0010808 -2.68807e-16)
(0.999923 8.08322e-05 -2.62201e-17)
(0.999891 -7.11741e-05 3.52435e-17)
(0.999858 -0.000236929 -1.47489e-16)
(0.999827 -0.000409218 2.49871e-16)
(0.999807 -0.00058942 -3.61436e-16)
(0.999808 -0.000773918 -3.02952e-16)
(0.999838 -0.000955846 -3.38704e-16)
(0.999902 -0.001124 3.90979e-17)
(1 -0.00126368 -8.13688e-17)
(1.00013 -0.00136411 -4.24249e-16)
(1.00028 -0.00141241 -7.20616e-16)
(1.00047 -0.00140638 2.85573e-16)
(1.00062 -0.001352 -3.27996e-16)
(1.00078 -0.00123032 9.05739e-16)
(1.00088 -0.00108266 5.36189e-17)
(0.999908 9.06275e-05 -2.45518e-17)
(0.999878 -7.55849e-05 -1.04214e-16)
(0.999849 -0.000254824 1.50699e-16)
(0.999826 -0.000439151 -2.3409e-16)
(0.999815 -0.000629394 7.68447e-17)
(0.999828 -0.000821413 4.5402e-16)
(0.99987 -0.00100797 5.5372e-17)
(0.999945 -0.00117783 -6.73191e-17)
(1.00006 -0.00131641 1.81463e-16)
(1.0002 -0.00141323 -1.56828e-16)
(1.00036 -0.00145635 -9.50162e-17)
(1.00055 -0.00144297 -6.67298e-17)
(1.00071 -0.00138145 -2.86844e-16)
(1.00087 -0.00125326 -6.20581e-16)
(1.00098 -0.00109664 1.23933e-17)
(0.999892 0.000100888 -2.17637e-18)
(0.999863 -7.9765e-05 1.4047e-16)
(0.999838 -0.000272745 -2.21465e-16)
(0.999822 -0.00046949 8.33844e-17)
(0.999821 -0.000670246 -9.35341e-17)
(0.999845 -0.000870272 -1.54706e-16)
(0.999899 -0.00106189 -3.88805e-17)
(0.999986 -0.00123392 3.64914e-16)
(1.00011 -0.00137202 -6.30002e-16)
(1.00026 -0.00146614 4.20087e-16)
(1.00043 -0.00150535 2.20395e-16)
(1.00063 -0.00148621 1.83952e-16)
(1.0008 -0.00141859 7.48814e-16)
(1.00097 -0.00128481 7.29174e-16)
(1.00108 -0.00111791 5.47667e-16)
(0.999875 0.00011158 8.30221e-18)
(0.999847 -8.37318e-05 5.28668e-17)
(0.999826 -0.000290738 1.76022e-16)
(0.999816 -0.000500351 5.57556e-17)
(0.999824 -0.000712247 1.70591e-16)
(0.999858 -0.000921034 1.68005e-16)
(0.999924 -0.00111849 -1.18433e-17)
(1.00002 -0.00129346 4.928e-17)
(1.00016 -0.00143189 9.37386e-16)
(1.00032 -0.00152413 -1.13866e-16)
(1.0005 -0.00156017 5.41925e-16)
(1.0007 -0.00153591 -7.3861e-16)
(1.00089 -0.00146171 1.36868e-16)
(1.00106 -0.00132108 -1.34329e-15)
(1.00119 -0.00114073 -6.15478e-16)
(0.999856 0.000122653 9.93849e-18)
(0.999829 -8.74979e-05 -1.1766e-16)
(0.999812 -0.000308775 1.54756e-16)
(0.999808 -0.000531638 -2.24046e-16)
(0.999824 -0.000755206 1.56794e-16)
(0.999868 -0.000973425 2.07143e-17)
(0.999945 -0.00117744 1.94958e-16)
(1.00006 -0.00135605 -2.59923e-16)
(1.0002 -0.00149538 -8.38757e-16)
(1.00038 -0.0015861 2.49177e-16)
(1.00057 -0.001619 -5.59956e-16)
(1.00078 -0.00158926 1.12759e-16)
(1.00097 -0.00150708 -4.89883e-16)
(1.00115 -0.00135751 2.65409e-16)
(1.0013 -0.00116136 -1.08339e-16)
(0.999836 0.000134048 3.32342e-17)
(0.999809 -9.10733e-05 7.18732e-17)
(0.999796 -0.000326795 -3.58875e-16)
(0.999798 -0.000563144 2.88309e-16)
(0.999822 -0.000798686 -2.79879e-16)
(0.999876 -0.00102672 -3.7286e-16)
(0.999964 -0.00123771 -3.82816e-16)
(1.00009 -0.00142031 3.37491e-16)
(1.00024 -0.00156074 7.1863e-16)
(1.00043 -0.00164985 1.62964e-16)
(1.00063 -0.00167908 9.46666e-17)
(1.00085 -0.00164298 7.00491e-17)
(1.00106 -0.00155127 -7.32417e-16)
(1.00125 -0.001391 6.43309e-17)
(1.00141 -0.00117868 6.3172e-16)
(0.999813 0.000145692 -8.96481e-17)
(0.999789 -9.44857e-05 -9.2379e-17)
(0.999778 -0.000344756 3.4277e-17)
(0.999786 -0.000594677 -2.64272e-16)
(0.999819 -0.000842243 -1.79624e-17)
(0.999883 -0.00108013 4.81507e-16)
(0.999982 -0.00129815 5.50531e-17)
(1.00012 -0.0014847 3.03986e-16)
(1.00029 -0.00162608 -6.02655e-16)
(1.00048 -0.00171318 -3.09549e-16)
(1.0007 -0.00173802 4.44403e-16)
(1.00093 -0.00169464 -1.48986e-16)
(1.00114 -0.0015924 4.83349e-16)
(1.00134 -0.00142073 7.4877e-16)
(1.00152 -0.00119391 -5.97445e-17)
(0.99979 0.000157512 2.80847e-17)
(0.999766 -9.77693e-05 1.14732e-17)
(0.99976 -0.000362638 1.15593e-16)
(0.999774 -0.000626109 2.25797e-18)
(0.999815 -0.000885563 9.88333e-17)
(0.999889 -0.00113307 -2.89543e-16)
(1 -0.00135786 5.98045e-16)
(1.00015 -0.00154807 -1.53429e-16)
(1.00033 -0.00169003 6.52242e-16)
(1.00054 -0.00177467 -3.41196e-16)
(1.00076 -0.00179452 -5.4322e-16)
(1.001 -0.0017434 5.24216e-16)
(1.00123 -0.00163045 -8.83637e-16)
(1.00144 -0.00144788 -1.30107e-15)
(1.00163 -0.00120942 -3.29025e-16)
(0.999765 0.000169428 3.12693e-18)
(0.999743 -0.000100975 1.94947e-17)
(0.99974 -0.000380467 -3.1208e-17)
(0.99976 -0.00065742 1.58625e-16)
(0.99981 -0.000928551 1.08791e-16)
(0.999895 -0.00118535 -4.26582e-17)
(1.00002 -0.00141652 -3.60479e-16)
(1.00018 -0.00160998 -3.47484e-16)
(1.00037 -0.00175218 -2.34864e-16)
(1.00059 -0.00183408 4.3277e-16)
(1.00083 -0.00184874 3.35294e-16)
(1.00108 -0.00178999 -4.929e-16)
(1.00132 -0.00166695 1.09464e-15)
(1.00153 -0.00147475 1.37093e-15)
(1.00173 -0.00122751 4.62863e-17)
(0.999739 0.000181368 3.57559e-17)
(0.999718 -0.000104152 -4.75885e-17)
(0.999719 -0.000398289 2.29383e-16)
(0.999746 -0.000688677 -4.56825e-17)
(0.999805 -0.000971316 -1.74347e-16)
(0.999901 -0.00123713 7.3911e-17)
(1.00004 -0.00147434 -1.29663e-16)
(1.00021 -0.00167078 2.93386e-16)
(1.00042 -0.00181304 7.71184e-17)
(1.00065 -0.00189222 5.39066e-17)
(1.0009 -0.00190191 -2.57146e-16)
(1.00116 -0.00183615 3.41285e-16)
(1.00141 -0.00170402 1.73908e-16)
(1.00163 -0.00150355 1.55313e-16)
(1.00184 -0.00124934 3.93167e-16)
(0.999712 0.000193264 -1.83816e-17)
(0.999692 -0.000107355 2.72418e-17)
(0.999697 -0.000416177 -3.71829e-16)
(0.99973 -0.000720012 -2.3788e-16)
(0.999799 -0.00101411 3.29217e-16)
(0.999906 -0.00128884 -8.9122e-17)
(1.00005 -0.00153199 5.20582e-16)
(1.00024 -0.00173135 -1.41331e-16)
(1.00046 -0.00187376 -7.50626e-18)
(1.00071 -0.00195051 -1.49897e-16)
(1.00097 -0.00195573 3.84847e-16)
(1.00124 -0.00188374 -2.42528e-16)
(1.00149 -0.00174345 -7.97024e-16)
(1.00173 -0.00153558 -1.89605e-16)
(1.00194 -0.00127472 -4.49103e-16)
(0.999683 0.000205067 2.47444e-17)
(0.999665 -0.000110624 1.12549e-16)
(0.999673 -0.000434184 3.35135e-16)
(0.999714 -0.00075154 2.60087e-16)
(0.999791 -0.00105718 -3.20579e-17)
(0.99991 -0.00134093 -1.30225e-16)
(1.00007 -0.00159014 -5.76304e-16)
(1.00027 -0.00179262 -6.69998e-17)
(1.0005 -0.0019355 -3.42268e-16)
(1.00076 -0.00201025 1.10844e-16)
(1.00103 -0.00201155 -7.05399e-16)
(1.00131 -0.00193395 3.40209e-16)
(1.00158 -0.00178598 1.14822e-15)
(1.00182 -0.00157076 -8.84757e-16)
(1.00204 -0.00130235 5.23564e-16)
(0.999653 0.000216734 -1.99525e-17)
(0.999636 -0.000113992 -1.58361e-16)
(0.999648 -0.000452351 -1.91806e-16)
(0.999695 -0.000783342 -9.56598e-17)
(0.999782 -0.00110071 -6.12607e-17)
(0.999911 -0.00139371 8.40987e-17)
(1.00008 -0.00164929 -3.22038e-17)
(1.0003 -0.00185526 -4.42299e-16)
(1.00054 -0.001999 -1.30174e-16)
(1.00081 -0.00207218 -3.27718e-17)
(1.0011 -0.0020699 6.42053e-16)
(1.00139 -0.00198695 1.07364e-16)
(1.00167 -0.00183123 -9.54645e-16)
(1.00192 -0.00160805 5.06289e-16)
(1.00214 -0.00133059 -1.01339e-16)
(0.999623 0.000228243 1.80237e-17)
(0.999605 -0.000117478 9.31115e-17)
(0.999621 -0.000470684 9.23167e-17)
(0.999675 -0.000815418 1.79527e-16)
(0.99977 -0.00114469 -9.78087e-17)
(0.999911 -0.00144724 -2.75105e-17)
(1.0001 -0.00170955 1.98755e-16)
(1.00032 -0.00191939 2.96976e-16)
(1.00058 -0.00206435 -2.14018e-17)
(1.00087 -0.00213623 -3.58473e-16)
(1.00116 -0.00213045 -2.75509e-16)
(1.00147 -0.00204199 -4.84188e-16)
(1.00175 -0.00187802 2.03043e-17)
(1.00201 -0.00164593 2.62157e-16)
(1.00225 -0.00135816 -1.58431e-16)
(0.999591 0.00023958 -9.63718e-18)
(0.999574 -0.000121094 -5.51011e-17)
(0.999593 -0.000489175 1.40201e-16)
(0.999653 -0.00084772 1.47039e-17)
(0.999757 -0.00118904 -1.24509e-16)
(0.999908 -0.00150135 1.00399e-16)
(1.00011 -0.00177068 -4.79565e-17)
(1.00034 -0.00198469 2.73823e-16)
(1.00062 -0.00213108 5.0589e-16)
(1.00092 -0.00220173 7.85528e-17)
(1.00123 -0.00219228 2.37755e-16)
(1.00154 -0.0020979 2.41935e-16)
(1.00184 -0.00192506 5.96957e-17)
(1.00211 -0.00168325 -5.39492e-16)
(1.00235 -0.0013846 1.30615e-16)
(0.999558 0.00025075 1.29091e-17)
(0.999541 -0.000124843 1.16052e-17)
(0.999564 -0.0005078 -2.86426e-16)
(0.999629 -0.000880165 -1.25124e-16)
(0.999743 -0.00123357 1.75907e-16)
(0.999904 -0.00155574 -2.74573e-17)
(1.00011 -0.00183224 1.83628e-16)
(1.00037 -0.00205055 -2.43875e-16)
(1.00065 -0.00219844 1.3901e-16)
(1.00096 -0.00226778 1.15599e-16)
(1.00129 -0.00225436 1.22001e-16)
(1.00162 -0.00215364 1.55198e-16)
(1.00192 -0.00197151 2.1564e-16)
(1.0022 -0.00171957 3.03285e-17)
(1.00246 -0.00141031 7.6835e-17)
(0.999524 0.000261757 -3.97181e-17)
(0.999506 -0.000128733 1.05092e-16)
(0.999533 -0.000526546 1.6446e-16)
(0.999605 -0.000912693 -1.05269e-16)
(0.999727 -0.00127813 -6.84332e-17)
(0.9999 -0.00161013 3.89479e-17)
(1.00012 -0.00189381 -2.00046e-16)
(1.00039 -0.00211644 -1.30887e-16)
(1.00069 -0.00226577 -1.71902e-16)
(1.00101 -0.00233366 2.73181e-16)
(1.00135 -0.00231605 -3.78906e-16)
(1.00169 -0.00220872 2.95864e-16)
(1.00201 -0.00201721 1.44835e-16)
(1.0023 -0.00175526 5.41641e-16)
(1.00256 -0.00143625 -4.94913e-16)
(0.999488 0.000272626 1.67595e-17)
(0.99947 -0.000132763 -7.91006e-17)
(0.999501 -0.000545408 5.79124e-17)
(0.999579 -0.000945271 1.2808e-16)
(0.99971 -0.00132266 -8.87922e-17)
(0.999894 -0.00166439 -1.50053e-16)
(1.00013 -0.00195516 -7.10395e-17)
(1.00041 -0.00218204 9.7891e-17)
(1.00072 -0.00233276 -4.47731e-16)
(1.00106 -0.00239913 6.60536e-17)
(1.00141 -0.00237724 2.5176e-16)
(1.00177 -0.00226331 -7.03414e-16)
(1.0021 -0.00206268 1.41957e-16)
(1.0024 -0.00179115 2.17287e-17)
(1.00267 -0.00146331 3.64962e-16)
(0.999452 0.000283374 -6.37138e-18)
(0.999433 -0.00013694 9.69459e-17)
(0.999467 -0.000564405 -9.36573e-17)
(0.999552 -0.000977932 -5.81276e-17)
(0.999693 -0.00136718 -9.27025e-17)
(0.999888 -0.00171856 -4.90206e-17)
(1.00014 -0.00201635 -1.0569e-16)
(1.00043 -0.00224744 7.54517e-17)
(1.00076 -0.00239954 2.9014e-17)
(1.00111 -0.00246444 -3.0999e-16)
(1.00148 -0.0024384 -3.69722e-16)
(1.00184 -0.00231813 4.10006e-16)
(1.00219 -0.00210881 -3.57699e-16)
(1.0025 -0.00182822 -1.13801e-16)
(1.00277 -0.0014922 -1.11767e-17)
(0.999414 0.000294036 -1.92794e-17)
(0.999395 -0.00014126 -4.47843e-17)
(0.999433 -0.000583556 3.16288e-17)
(0.999524 -0.00101073 2.25368e-16)
(0.999674 -0.00141183 3.76344e-16)
(0.999881 -0.00177282 3.07218e-16)
(1.00014 -0.00207763 3.35632e-16)
(1.00045 -0.00231299 -2.14103e-16)
(1.00079 -0.00246657 6.79141e-20)
(1.00116 -0.00253019 2.32151e-16)
(1.00154 -0.00250026 4.57031e-17)
(1.00192 -0.00237399 2.51934e-16)
(1.00227 -0.00215642 2.0234e-16)
(1.00259 -0.0018671 -5.29719e-16)
(1.00288 -0.00152288 -3.47125e-16)
(0.999375 0.000304638 9.91946e-18)
(0.999355 -0.000145722 -8.09437e-17)
(0.999397 -0.000602893 -1.61901e-16)
(0.999495 -0.00104377 -1.58912e-16)
(0.999654 -0.00145677 1.46048e-17)
(0.999872 -0.00182746 -1.73444e-16)
(1.00015 -0.00213942 -3.77611e-16)
(1.00047 -0.0023792 2.8819e-16)
(1.00083 -0.00253448 2.34358e-16)
(1.00121 -0.00259708 -5.16676e-16)
(1.00161 -0.00256355 4.23732e-16)
(1.002 -0.00243159 -3.08792e-16)
(1.00236 -0.00220599 -1.42262e-16)
(1.00269 -0.00190795 -1.24294e-16)
(1.00298 -0.00155501 1.47892e-16)
(0.999334 0.000315216 3.77596e-17)
(0.999313 -0.000150311 1.73683e-17)
(0.999359 -0.000622428 8.75659e-17)
(0.999464 -0.00107709 4.06743e-17)
(0.999633 -0.00150215 4.78512e-17)
(0.999863 -0.00188274 2.9997e-16)
(1.00015 -0.00220206 -1.35528e-16)
(1.00049 -0.00244651 1.4808e-16)
(1.00086 -0.00260376 8.50108e-17)
(1.00126 -0.00266561 5.92335e-17)
(1.00167 -0.0026287 1.97295e-16)
(1.00207 -0.00249116 -4.2049e-17)
(1.00245 -0.0022575 9.34041e-18)
(1.00279 -0.00195039 8.66958e-16)
(1.00308 -0.00158789 2.7513e-18)
(0.999292 0.000325799 -3.66511e-17)
(0.999271 -0.000155015 -1.26577e-17)
(0.99932 -0.000642173 5.72501e-17)
(0.999431 -0.00111077 -1.74542e-16)
(0.999609 -0.00154808 -2.79552e-16)
(0.999851 -0.00193882 -2.67832e-16)
(1.00015 -0.00226578 2.26913e-16)
(1.0005 -0.0025152 -8.2982e-17)
(1.00089 -0.00267466 9.67554e-18)
(1.00131 -0.00273594 -5.01301e-18)
(1.00173 -0.00269573 -2.72516e-16)
(1.00215 -0.00255253 -2.46209e-16)
(1.00253 -0.00231054 -1.58683e-16)
(1.00289 -0.00199386 2.40661e-17)
(1.00319 -0.00162096 -5.41802e-17)
(0.999248 0.000336421 -1.82974e-17)
(0.999226 -0.000159807 4.84243e-17)
(0.999279 -0.000662112 4.76405e-17)
(0.999397 -0.00114478 7.75227e-17)
(0.999584 -0.00159458 1.06027e-16)
(0.999838 -0.00199573 1.6754e-18)
(1.00015 -0.00233063 2.26814e-16)
(1.00052 -0.00258526 -5.057e-16)
(1.00092 -0.00274713 2.57843e-16)
(1.00135 -0.00280793 2.6292e-16)
(1.00179 -0.00276434 -3.7605e-16)
(1.00222 -0.00261524 7.02062e-16)
(1.00262 -0.00236455 3.69372e-16)
(1.00299 -0.00203775 -6.8774e-16)
(1.0033 -0.00165385 -2.04308e-16)
(0.999202 0.000347104 3.78378e-17)
(0.999181 -0.000164669 2.93796e-17)
(0.999236 -0.000682231 4.58775e-18)
(0.999361 -0.00117912 -3.47521e-17)
(0.999558 -0.0016416 2.01583e-17)
(0.999823 -0.00205341 2.84397e-16)
(1.00015 -0.00239649 -4.58366e-17)
(1.00053 -0.00265654 3.24522e-16)
(1.00095 -0.00282091 -4.80126e-17)
(1.0014 -0.00288121 -2.9082e-16)
(1.00185 -0.00283408 6.01612e-16)
(1.0023 -0.00267879 -3.60916e-16)
(1.00271 -0.00241907 -4.88345e-16)
(1.00308 -0.00208176 2.06266e-16)
(1.0034 -0.00168661 3.44336e-16)
(0.999155 0.000357875 -3.14654e-17)
(0.999133 -0.000169572 -1.32641e-17)
(0.999193 -0.000702502 -1.72958e-16)
(0.999323 -0.00121374 -8.45226e-17)
(0.999529 -0.00168908 5.20506e-17)
(0.999806 -0.00211172 -2.87106e-16)
(1.00015 -0.00246315 -8.4392e-17)
(1.00054 -0.00272874 2.8284e-16)
(1.00098 -0.00289566 -2.39171e-16)
(1.00144 -0.00295537 7.01249e-17)
(1.00191 -0.00290454 -3.35e-16)
(1.00237 -0.00274281 1.05353e-17)
(1.0028 -0.00247385 2.64324e-16)
(1.00318 -0.00212587 1.38974e-16)
(1.00351 -0.0017195 -5.40767e-17)
(0.999106 0.000368748 3.0017e-17)
(0.999085 -0.000174502 -9.73871e-17)
(0.999147 -0.000722911 8.17461e-17)
(0.999284 -0.00124862 5.35004e-17)
(0.9995 -0.00173695 -4.03361e-17)
(0.999788 -0.00217056 -1.72461e-16)
(1.00014 -0.00253046 5.22865e-17)
(1.00055 -0.00280166 -1.29671e-16)
(1.00101 -0.00297111 -2.18608e-16)
(1.00149 -0.00303019 -2.73178e-17)
(1.00197 -0.00297554 -4.84128e-16)
(1.00245 -0.00280724 4.95283e-16)
(1.00289 -0.00252899 3.84754e-17)
(1.00328 -0.00217036 -7.93382e-17)
(1.00362 -0.00175295 -7.70802e-18)
(0.999056 0.000379739 -3.6817e-17)
(0.999034 -0.000179439 1.00254e-16)
(0.9991 -0.000743443 -2.30289e-17)
(0.999244 -0.00128372 -2.09773e-16)
(0.999469 -0.00178516 -9.99446e-17)
(0.999769 -0.00222986 1.16095e-16)
(1.00014 -0.00259832 -1.70337e-16)
(1.00057 -0.00287518 -1.90782e-16)
(1.00103 -0.00304719 3.24633e-16)
(1.00153 -0.00310561 1.12939e-16)
(1.00203 -0.00304712 5.07988e-16)
(1.00252 -0.00287225 -3.81945e-16)
(1.00297 -0.0025848 1.37179e-16)
(1.00338 -0.0022156 -1.54338e-16)
(1.00372 -0.00178725 5.1385e-18)
(0.999004 0.000390853 2.27877e-17)
(0.998983 -0.000184379 -5.80151e-17)
(0.999052 -0.000764106 7.20613e-17)
(0.999202 -0.00131908 3.12559e-16)
(0.999436 -0.00183375 1.32631e-16)
(0.999749 -0.00228964 8.2279e-17)
(1.00013 -0.00266676 3.38329e-16)
(1.00058 -0.00294936 1.60766e-16)
(1.00106 -0.00312399 -2.64755e-16)
(1.00157 -0.00318181 4.51032e-16)
(1.00209 -0.00311953 2.50765e-16)
(1.0026 -0.00293819 -2.12161e-16)
(1.00306 -0.00264165 -4.05611e-16)
(1.00348 -0.00226195 -1.57505e-16)
(1.00383 -0.00182261 6.07246e-17)
(0.99895 0.000402097 4.67895e-18)
(0.998929 -0.000189312 -1.23602e-16)
(0.999002 -0.000784907 -9.17231e-17)
(0.999159 -0.00135471 -2.15215e-16)
(0.999403 -0.00188275 3.45688e-17)
(0.999728 -0.00234998 -3.34137e-16)
(1.00013 -0.0027359 -3.59188e-16)
(1.00059 -0.00302435 -1.44466e-16)
(1.00109 -0.00320171 3.07727e-16)
(1.00162 -0.00325904 -3.26812e-16)
(1.00215 -0.0031931 1.15535e-16)
(1.00267 -0.00300536 2.14704e-16)
(1.00315 -0.0026998 3.25783e-16)
(1.00358 -0.00230955 1.98666e-16)
(1.00394 -0.00185891 1.68471e-17)
(0.998895 0.000413469 3.28887e-17)
(0.998875 -0.000194241 2.02016e-16)
(0.998951 -0.000805868 9.40179e-17)
(0.999114 -0.00139067 1.80672e-16)
(0.999368 -0.00193226 1.08247e-16)
(0.999706 -0.002411 4.5629e-17)
(1.00012 -0.00280589 5.26313e-17)
(1.00059 -0.00310038 -1.2091e-16)
(1.00111 -0.00328061 -1.22592e-16)
(1.00166 -0.00333759 1.43636e-17)
(1.00221 -0.00326808 -7.89452e-16)
(1.00275 -0.00307399 -3.08221e-16)
(1.00324 -0.00275937 3.23945e-16)
(1.00368 -0.00235837 -7.21964e-17)
(1.00404 -0.001896 -1.99685e-16)
(0.998838 0.000424973 -4.42041e-17)
(0.998818 -0.000199165 -1.29457e-16)
(0.998898 -0.000827005 -1.85913e-16)
(0.999068 -0.001427 6.1073e-17)
(0.999332 -0.00198235 -2.05363e-16)
(0.999682 -0.00247282 3.82514e-17)
(1.00011 -0.00287688 -4.73439e-17)
(1.0006 -0.0031776 -8.64166e-18)
(1.00114 -0.00336088 -1.46491e-16)
(1.0017 -0.00341761 -7.67968e-17)
(1.00227 -0.0033446 2.7188e-17)
(1.00282 -0.00314413 2.67677e-16)
(1.00333 -0.00282029 -1.34847e-16)
(1.00378 -0.00240823 2.66033e-16)
(1.00415 -0.0019336 9.39022e-17)
(0.998779 0.000436602 2.36256e-17)
(0.99876 -0.000204092 1.24018e-16)
(0.998844 -0.000848344 2.36197e-16)
(0.99902 -0.00146374 -6.82453e-17)
(0.999294 -0.00203307 -1.65561e-17)
(0.999657 -0.00253551 2.50664e-16)
(1.0001 -0.00294898 2.13125e-16)
(1.00061 -0.00325613 -1.46016e-16)
(1.00116 -0.0034426 3.91131e-16)
(1.00174 -0.00349918 3.54778e-16)
(1.00233 -0.00342264 3.7716e-16)
(1.0029 -0.00321566 -1.74091e-17)
(1.00342 -0.00288239 -2.98948e-16)
(1.00388 -0.00245894 -3.13767e-16)
(1.00426 -0.0019716 -3.01989e-17)
(0.998719 0.000448358 -2.02445e-17)
(0.998701 -0.000209023 -6.54911e-17)
(0.998787 -0.000869894 -1.95771e-16)
(0.998971 -0.00150091 1.25986e-16)
(0.999254 -0.00208447 1.20881e-16)
(0.99963 -0.0025991 -1.67837e-16)
(1.00009 -0.00302221 -8.4724e-17)
(1.00061 -0.00333596 8.37397e-18)
(1.00119 -0.00352574 -1.73827e-16)
(1.00179 -0.0035822 -3.03977e-16)
(1.00239 -0.00350208 -5.60738e-16)
(1.00297 -0.00328842 6.05402e-17)
(1.00351 -0.00294548 3.64999e-16)
(1.00399 -0.0025103 3.30271e-16)
(1.00437 -0.00200992 -6.93876e-17)
(0.998658 0.000460233 -1.61099e-17)
(0.99864 -0.000213974 -1.31735e-17)
(0.99873 -0.000891676 1.71319e-16)
(0.99892 -0.00153854 -1.61639e-16)
(0.999213 -0.00213656 -3.19395e-16)
(0.999602 -0.00266362 1.54993e-16)
(1.00008 -0.00309656 8.79451e-17)
(1.00062 -0.00341706 4.0719e-16)
(1.00121 -0.00361023 5.8212e-17)
(1.00183 -0.00366656 2.83038e-16)
(1.00245 -0.00358277 8.40261e-16)
(1.00305 -0.00336226 -2.30443e-16)
(1.0036 -0.00300944 -9.77578e-17)
(1.00409 -0.00256232 -1.15297e-17)
(1.00448 -0.00204867 -2.76368e-17)
(0.998595 0.00047223 4.50545e-17)
(0.998577 -0.000218952 4.92176e-17)
(0.99867 -0.000913699 -1.47343e-16)
(0.998867 -0.00157663 1.36869e-16)
(0.999171 -0.00218933 -9.2119e-17)
(0.999572 -0.00272903 -2.96556e-16)
(1.00006 -0.00317197 1.30318e-17)
(1.00062 -0.00349935 -3.50237e-17)
(1.00123 -0.00369596 -2.1589e-16)
(1.00187 -0.00375215 1.81951e-16)
(1.0025 -0.00366461 -7.84329e-16)
(1.00312 -0.00343712 -1.42704e-17)
(1.00368 -0.00307428 -1.74623e-16)
(1.00419 -0.00261503 3.25962e-17)
(1.00459 -0.00208796 -8.18685e-17)
(0.998531 0.000484339 -1.1497e-17)
(0.998512 -0.000223976 -1.17271e-17)
(0.998609 -0.000935985 2.03883e-17)
(0.998813 -0.0016152 -1.52205e-16)
(0.999126 -0.0022428 -2.73257e-17)
(0.999541 -0.00279532 3.62108e-16)
(1.00005 -0.00324843 -2.63881e-16)
(1.00062 -0.00358279 -3.26808e-16)
(1.00125 -0.0037829 3.49882e-16)
(1.00191 -0.00383894 -3.16501e-16)
(1.00256 -0.00374761 4.00473e-16)
(1.0032 -0.00351305 3.78749e-16)
(1.00377 -0.00314009 2.72659e-16)
(1.00429 -0.00266861 -1.81296e-16)
(1.0047 -0.00212799 -6.17093e-17)
(0.998466 0.000496562 -1.23991e-17)
(0.998446 -0.000229061 -7.19577e-17)
(0.998546 -0.000958547 -9.68909e-17)
(0.998757 -0.00165426 7.11089e-17)
(0.999081 -0.00229696 1.80212e-16)
(0.999509 -0.00286249 6.32059e-17)
(1.00003 -0.00332592 2.45241e-16)
(1.00062 -0.00366738 5.35957e-17)
(1.00127 -0.00387105 -4.60018e-16)
(1.00195 -0.00392697 1.60947e-16)
(1.00262 -0.00383182 -2.2745e-16)
(1.00327 -0.00359015 -1.88853e-16)
(1.00386 -0.00320701 -2.54251e-16)
(1.00439 -0.00272317 4.01517e-17)
(1.00481 -0.00216878 1.49031e-16)
(0.998399 0.000508889 -1.90315e-17)
(0.998378 -0.000234233 3.42738e-17)
(0.998482 -0.000981413 4.13772e-17)
(0.998699 -0.00169383 -1.42527e-16)
(0.999033 -0.00235185 6.95512e-17)
(0.999475 -0.00293058 -2.11013e-16)
(1.00001 -0.00340449 -2.58466e-17)
(1.00062 -0.00375318 3.17309e-16)
(1.00129 -0.0039605 -2.02368e-16)
(1.00198 -0.00401635 -2.67461e-16)
(1.00268 -0.0039174 2.29675e-16)
(1.00335 -0.00366858 -6.81546e-17)
(1.00396 -0.00327519 -7.20455e-16)
(1.0045 -0.00277883 7.34624e-17)
(1.00492 -0.00221042 1.07209e-16)
(0.99833 0.000521317 -9.7959e-18)
(0.998309 -0.000239509 3.34311e-17)
(0.998416 -0.0010046 1.25943e-17)
(0.99864 -0.00173395 1.89991e-17)
(0.998985 -0.00240751 1.20023e-16)
(0.99944 -0.00299964 6.66895e-17)
(0.999992 -0.00348421 -2.19634e-16)
(1.00062 -0.00384027 -2.00533e-17)
(1.00131 -0.00405135 6.06131e-16)
(1.00202 -0.00410719 -1.9438e-16)
(1.00274 -0.00400446 -5.71398e-18)
(1.00342 -0.00374845 2.87348e-17)
(1.00405 -0.00334468 2.77279e-17)
(1.0046 -0.0028356 -5.08636e-17)
(1.00503 -0.00225281 1.6923e-17)
(0.99826 0.000533836 2.58142e-17)
(0.998237 -0.000244917 -6.81933e-17)
(0.998348 -0.00102814 -7.78905e-17)
(0.998579 -0.00177464 1.49211e-19)
(0.998934 -0.00246397 -1.81232e-16)
(0.999403 -0.00306973 -2.89401e-17)
(0.999972 -0.00356515 4.2646e-17)
(1.00062 -0.00392874 -4.82868e-17)
(1.00133 -0.00414371 -4.10371e-16)
(1.00206 -0.00419961 5.46323e-16)
(1.00279 -0.00409311 -3.11725e-17)
(1.0035 -0.00382983 -5.70645e-17)
(1.00414 -0.00341554 3.36221e-16)
(1.00471 -0.00289348 -3.76848e-16)
(1.00515 -0.00229592 7.94663e-18)
(0.998188 0.00054644 2.73898e-18)
(0.998164 -0.000250475 8.18086e-17)
(0.998278 -0.00105206 2.19851e-16)
(0.998517 -0.00181594 -5.54411e-17)
(0.998882 -0.00252127 1.17781e-16)
(0.999365 -0.00314088 -1.83012e-16)
(0.999951 -0.00364736 -2.19161e-16)
(1.00062 -0.00401867 5.26335e-18)
(1.00134 -0.00423763 2.38936e-16)
(1.0021 -0.00429366 -4.76833e-16)
(1.00285 -0.00418336 1.18754e-16)
(1.00357 -0.00391271 -2.06348e-17)
(1.00423 -0.0034877 2.59745e-16)
(1.00481 -0.00295235 8.02164e-17)
(1.00526 -0.00233965 -1.24783e-16)
(0.998114 0.000559115 1.05254e-18)
(0.99809 -0.000256209 -8.87899e-17)
(0.998207 -0.00107638 -1.25477e-16)
(0.998452 -0.00185787 2.07658e-17)
(0.998829 -0.00257945 -2.18818e-17)
(0.999325 -0.00321315 1.66123e-16)
(0.999928 -0.0037309 3.59829e-16)
(1.00061 -0.00411008 -3.1916e-16)
(1.00136 -0.00433316 3.63016e-16)
(1.00213 -0.00438935 3.20853e-17)
(1.00291 -0.00427523 7.11967e-17)
(1.00365 -0.00399707 -1.37469e-16)
(1.00432 -0.00356112 2.65308e-16)
(1.00492 -0.00301221 1.50271e-16)
(1.00537 -0.00238405 1.96024e-16)
(0.998038 0.000571854 -8.60828e-18)
(0.998013 -0.000262133 8.46966e-17)
(0.998134 -0.00110112 1.54551e-16)
(0.998386 -0.00190045 5.33957e-17)
(0.998773 -0.00263853 1.56173e-16)
(0.999284 -0.00328654 1.19937e-16)
(0.999903 -0.00381578 -3.23138e-16)
(1.00061 -0.004203 6.4737e-16)
(1.00137 -0.00443029 -2.0362e-16)
(1.00217 -0.00448667 -6.77322e-17)
(1.00296 -0.00436866 -2.45115e-16)
(1.00372 -0.00408287 -1.07623e-16)
(1.00441 -0.00363578 -2.95259e-16)
(1.00502 -0.00307303 -1.08729e-16)
(1.00549 -0.00242909 4.71488e-17)
(0.997961 0.000584639 -3.05704e-17)
(0.997935 -0.000268268 -9.05764e-17)
(0.998059 -0.0011263 -1.08386e-17)
(0.998318 -0.0019437 1.06223e-16)
(0.998716 -0.00269852 -1.42128e-16)
(0.999241 -0.00336109 -1.04362e-16)
(0.999878 -0.00390201 4.04365e-16)
(1.0006 -0.00429742 -1.20766e-16)
(1.00139 -0.00452903 -5.15922e-16)
(1.00221 -0.00458562 7.09978e-17)
(1.00302 -0.00446367 -1.24456e-16)
(1.0038 -0.00417011 2.30207e-16)
(1.00451 -0.0037117 3.68606e-16)
(1.00513 -0.00313489 3.28176e-16)
(1.00561 -0.00247491 -2.74764e-16)
(0.997881 0.000597463 1.83337e-18)
(0.997854 -0.000274624 -1.74716e-17)
(0.997982 -0.00115193 -7.23199e-17)
(0.998248 -0.00198764 4.50783e-17)
(0.998657 -0.00275944 -7.88083e-17)
(0.999197 -0.00343679 1.34407e-16)
(0.999851 -0.00398959 -1.16195e-16)
(1.0006 -0.00439335 3.98756e-17)
(1.0014 -0.00462936 -1.0814e-16)
(1.00224 -0.00468619 2.75099e-16)
(1.00308 -0.00456026 3.36549e-16)
(1.00388 -0.00425881 1.94477e-18)
(1.0046 -0.00378892 -5.86652e-16)
(1.00524 -0.00319782 -3.99034e-16)
(1.00572 -0.00252151 2.71844e-16)