/*--------------------------------*- C++ -*----------------------------------*\
  =========                 |
  \\      /  F ield         | OpenFOAM: The Open Source CFD Toolbox
   \\    /   O peration     | Website:  https://openfoam.org
    \\  /    A nd           | Version:  6.0
     \\/     M anipulation  |
\*---------------------------------------------------------------------------*/
FoamFile
{
    version     2.0;
    format      ascii;
    class       surfaceScalarField;
    location    "115";
    object      phi;
}
// * * * * * * * * * * * * * * * * * * * * * * * * * * * * * * * * * * * * * //

dimensions      [0 3 -1 0 0 0 0];

internalField   nonuniform List<scalar> 
68636
(
3.02234e-05
0.0031056
7.23678e-09
6.08375e-05
0.00307069
9.10857e-05
0.00300235
0.000120475
0.00290106
0.000148618
0.00276784
0.000175168
0.00260413
0.000199811
0.00241174
0.000222263
0.00219273
0.000242264
0.00194951
0.000259592
0.00168461
0.000274043
0.00140093
0.000285471
0.00110093
0.000293868
0.000788533
0.000298754
0.000464142
0.000106492
0.000290248
2.99355e-05
0.00307565
2.11395e-08
6.02722e-05
0.00304035
9.02463e-05
0.00297237
0.000119369
0.00287193
0.000147257
0.00273995
0.000173565
0.00257782
0.000197982
0.00238731
0.000220229
0.00217048
0.000240048
0.00192968
0.000257217
0.00166743
0.000271538
0.00138659
0.000282838
0.00108962
0.000291341
0.000780016
0.000295368
0.000460095
0.000113141
0.000288681
2.96501e-05
0.00304596
3.47971e-08
5.97118e-05
0.00301029
8.94147e-05
0.00294266
0.000118274
0.00284307
0.00014591
0.00271231
0.000171979
0.00255175
0.000196176
0.00236311
0.00021822
0.00214844
0.000237859
0.00191004
0.000254872
0.00165042
0.000269066
0.0013724
0.000280231
0.00107845
0.000288648
0.000771601
0.000293173
0.000455576
0.000117265
0.000289067
2.93677e-05
0.00301655
4.81589e-08
5.91571e-05
0.0029805
8.85914e-05
0.00291323
0.00011719
0.00281447
0.000144576
0.00268492
0.000170409
0.00252591
0.000194386
0.00233913
0.000216231
0.00212659
0.000235691
0.00189057
0.000252547
0.00163356
0.000266615
0.00135833
0.000277654
0.00106741
0.000285893
0.000763352
0.000290609
0.000450845
0.000119949
0.000287901
2.9088e-05
0.0029874
6.12343e-08
5.86079e-05
0.00295098
8.77759e-05
0.00288406
0.000116116
0.00278613
0.000143253
0.00265778
0.000168853
0.00250031
0.000192612
0.00231537
0.000214257
0.00210494
0.000233541
0.00187129
0.000250242
0.00161686
0.000264181
0.00134439
0.000275108
0.00105648
0.000283151
0.000755312
0.000287821
0.000446183
0.000121771
0.000286019
2.88111e-05
0.00295851
7.40481e-08
5.80636e-05
0.00292173
8.69677e-05
0.00285515
0.000115051
0.00275805
0.000141943
0.00263089
0.000167309
0.00247494
0.000190853
0.00229182
0.000212301
0.00208349
0.000231409
0.00185218
0.000247956
0.00160031
0.000261767
0.00133057
0.000272591
0.00104566
0.000280458
0.000747438
0.000285036
0.000441593
0.000122887
0.000283901
2.85367e-05
0.00292989
8.66131e-08
5.75242e-05
0.00289274
8.61667e-05
0.00282651
0.000113996
0.00273022
0.000140643
0.00260424
0.00016578
0.00244981
0.000189109
0.00226849
0.000210362
0.00206224
0.000229296
0.00183325
0.00024569
0.00158392
0.000259375
0.00131689
0.000270102
0.00103493
0.00027782
0.000739725
0.000282306
0.000437114
0.000123576
0.000281637
2.82649e-05
0.00290152
9.89333e-08
5.69898e-05
0.00286401
8.53728e-05
0.00279813
0.00011295
0.00270264
0.000139355
0.00257783
0.000164264
0.0024249
0.000187381
0.00224538
0.000208441
0.00204118
0.000227202
0.00181448
0.000243445
0.00156767
0.000257002
0.00130333
0.000267636
0.00102429
0.000275231
0.000732124
0.000279631
0.000432705
0.000123896
0.000279296
2.79956e-05
0.00287342
1.1102e-07
5.64602e-05
0.00283555
8.45859e-05
0.00277
0.000111913
0.00267532
0.000138079
0.00255167
0.000162761
0.00240022
0.000185668
0.00222247
0.000206536
0.00202031
0.000225126
0.00179589
0.00024122
0.00155158
0.000254649
0.0012899
0.000265191
0.00101375
0.000272683
0.000724636
0.00027701
0.000428384
0.00012399
0.000276936
2.77288e-05
0.00284557
1.22889e-07
5.59353e-05
0.00280734
8.38061e-05
0.00274213
0.000110885
0.00264824
0.000136813
0.00252574
0.000161271
0.00237576
0.00018397
0.00219977
0.000204649
0.00199963
0.000223069
0.00177747
0.000239015
0.00153563
0.000252317
0.0012766
0.000262767
0.0010033
0.00027017
0.000717228
0.000274438
0.000424109
0.000123841
0.000274573
2.74645e-05
0.00281797
1.34561e-07
5.54152e-05
0.00277939
8.30331e-05
0.00271451
0.000109866
0.0026214
0.000135559
0.00250005
0.000159795
0.00235152
0.000182288
0.00217728
0.000202778
0.00197914
0.000221031
0.00175922
0.00023683
0.00151983
0.000250006
0.00126342
0.000260362
0.000992948
0.000267686
0.000709908
0.000271904
0.000419898
0.000123554
0.000272209
2.72026e-05
0.00279062
1.46053e-07
5.48997e-05
0.0027517
8.22669e-05
0.00268714
0.000108856
0.00259481
0.000134316
0.00247459
0.000158332
0.00232751
0.00018062
0.00215499
0.000200924
0.00195884
0.00021901
0.00174113
0.000234664
0.00150418
0.000247715
0.00125037
0.000257977
0.000982682
0.000265228
0.000702652
0.000269403
0.000415716
0.000123101
0.000269844
2.6943e-05
0.00276352
1.57388e-07
5.43887e-05
0.00272425
8.15075e-05
0.00266003
0.000107856
0.00256847
0.000133084
0.00244936
0.000156882
0.00230371
0.000178968
0.0021329
0.000199087
0.00193872
0.000217008
0.00172321
0.000232518
0.00148867
0.000245445
0.00123744
0.000255613
0.000972517
0.000262794
0.000695474
0.00026693
0.000411587
0.000122565
0.000267483
2.66858e-05
0.00273666
1.68585e-07
5.38823e-05
0.00269705
8.07548e-05
0.00263315
0.000106863
0.00254236
0.000131863
0.00242436
0.000155444
0.00228013
0.00017733
0.00211101
0.000197266
0.00191878
0.000215023
0.00170545
0.000230391
0.0014733
0.000243196
0.00122464
0.000253269
0.000962441
0.000260384
0.000688355
0.000264483
0.00040748
0.000121909
0.000265128
2.64309e-05
0.00271005
1.79669e-07
5.33804e-05
0.0026701
8.00088e-05
0.00260652
0.00010588
0.00251649
0.000130653
0.00239959
0.00015402
0.00225676
0.000175707
0.00208933
0.000195461
0.00189903
0.000213056
0.00168786
0.000228283
0.00145807
0.000240967
0.00121195
0.000250946
0.000952466
0.000257995
0.00068131
0.000262061
0.000403421
0.000121205
0.000262782
2.61782e-05
0.00268368
1.90658e-07
5.28829e-05
0.0026434
7.92694e-05
0.00258014
0.000104906
0.00249085
0.000129453
0.00237504
0.000152608
0.00223361
0.000174098
0.00206784
0.000193672
0.00187945
0.000211107
0.00167042
0.000226194
0.00144298
0.000238759
0.00119939
0.000248643
0.000942578
0.000255629
0.00067432
0.000259662
0.000399382
0.000120409
0.000260448
2.59278e-05
0.00265755
2.01571e-07
5.23898e-05
0.00261694
7.85365e-05
0.00255399
0.00010394
0.00246545
0.000128264
0.00235071
0.000151209
0.00221066
0.000172503
0.00204654
0.0001919
0.00186006
0.000209175
0.00165315
0.000224124
0.00142803
0.000236571
0.00118694
0.000246362
0.00093279
0.000253285
0.000667401
0.000257287
0.000395386
0.000119586
0.000258125
2.56796e-05
0.00263166
2.12421e-07
5.1901e-05
0.00259072
7.78101e-05
0.00252808
0.000102983
0.00244027
0.000127086
0.00232661
0.000149823
0.00218792
0.000170923
0.00202544
0.000190143
0.00184084
0.000207261
0.00163603
0.000222073
0.00141322
0.000234403
0.00117461
0.000244102
0.000923089
0.000250963
0.000660536
0.000254934
0.000391409
0.000118694
0.000255816
2.54335e-05
0.00260601
2.2322e-07
5.14166e-05
0.00256473
7.70903e-05
0.00250241
0.000102034
0.00241533
0.000125919
0.00230272
0.000148449
0.0021654
0.000169358
0.00200453
0.000188403
0.00182179
0.000205363
0.00161907
0.00022004
0.00139855
0.000232256
0.0011624
0.000241863
0.000913484
0.000248663
0.00065374
0.000252604
0.000387475
0.00011779
0.000253523
2.51897e-05
0.00258058
2.33974e-07
5.09365e-05
0.00253899
7.63768e-05
0.00247697
0.000101094
0.00239061
0.000124762
0.00227906
0.000147087
0.00214307
0.000167806
0.00198381
0.000186677
0.00180292
0.000203483
0.00160226
0.000218025
0.001384
0.000230127
0.00115029
0.000239644
0.000903964
0.000246384
0.000646997
0.000250296
0.000383558
0.00011683
0.000251246
2.4948e-05
0.00255539
2.44686e-07
5.04608e-05
0.00251347
7.56698e-05
0.00245176
0.000100162
0.00236612
0.000123615
0.0022556
0.000145737
0.00212095
0.000166268
0.00196328
0.000184968
0.00178422
0.00020162
0.00158561
0.000216029
0.00136959
0.000228019
0.0011383
0.000237447
0.000894539
0.000244127
0.00064032
0.000248009
0.000379682
0.000115868
0.000248986
2.47085e-05
0.00253042
2.55357e-07
4.99892e-05
0.00248819
7.49691e-05
0.00242678
9.92391e-05
0.00234185
0.000122479
0.00223236
0.0001444
0.00209903
0.000164744
0.00194294
0.000183273
0.00176569
0.000199774
0.00156911
0.00021405
0.00135532
0.000225929
0.00112642
0.000235269
0.000885196
0.000241892
0.000633694
0.000245745
0.000375824
0.000114861
0.000246742
2.44711e-05
0.00250569
2.65983e-07
4.95219e-05
0.00246314
7.42746e-05
0.00240203
9.83241e-05
0.0023178
0.000121352
0.00220934
0.000143074
0.0020773
0.000163234
0.00192278
0.000181594
0.00174733
0.000197944
0.00155276
0.00021209
0.00134117
0.000223859
0.00111465
0.000233112
0.000875946
0.000239677
0.000627133
0.000243502
0.000372005
0.00011386
0.000244517
2.42358e-05
0.00248118
2.76562e-07
4.90588e-05
0.00243832
7.35865e-05
0.0023775
9.74173e-05
0.00229397
0.000120236
0.00218652
0.000141761
0.00205578
0.000161737
0.0019028
0.00017993
0.00172914
0.00019613
0.00153656
0.000210147
0.00132715
0.000221808
0.00110299
0.000230975
0.000866776
0.000237483
0.000620622
0.000241279
0.000368203
0.000112822
0.000242308
2.40026e-05
0.00245689
2.87086e-07
4.85998e-05
0.00241372
7.29045e-05
0.00235319
9.65187e-05
0.00227036
0.00011913
0.00216391
0.000140459
0.00203445
0.000160253
0.00188301
0.000178281
0.00171111
0.000194333
0.00152051
0.000208222
0.00131327
0.000219776
0.00109144
0.000228858
0.000857696
0.00023531
0.000614175
0.000239078
0.000364441
0.000111795
0.000240117
2.37715e-05
0.00243282
2.97549e-07
4.8145e-05
0.00238935
7.22286e-05
0.00232911
9.56281e-05
0.00224696
0.000118034
0.0021415
0.000139169
0.00201331
0.000158783
0.00186339
0.000176647
0.00169325
0.000192553
0.0015046
0.000206314
0.0012995
0.000217762
0.00107999
0.000226761
0.000848695
0.000233157
0.000607776
0.000236897
0.000360696
0.000110739
0.000237945
2.35424e-05
0.00240897
3.07945e-07
4.76942e-05
0.0023652
7.15588e-05
0.00230525
9.47455e-05
0.00222377
0.000116948
0.0021193
0.000137891
0.00199237
0.000157326
0.00184396
0.000175027
0.00167555
0.000190788
0.00148884
0.000204424
0.00128587
0.000215767
0.00106865
0.000224683
0.000839781
0.000231024
0.000601438
0.000234736
0.000356989
0.000109698
0.00023579
2.33155e-05
0.00238533
3.18264e-07
4.72476e-05
0.00234126
7.0895e-05
0.0022816
9.38709e-05
0.00220079
0.000115871
0.0020973
0.000136624
0.00197162
0.000155883
0.0018247
0.000173423
0.00165801
0.000189039
0.00147323
0.00020255
0.00127236
0.000213789
0.00105741
0.000222624
0.000830944
0.000228911
0.000595149
0.000232595
0.0003533
0.000108631
0.000233653
2.30905e-05
0.00236191
3.285e-07
4.68049e-05
0.00231755
7.02373e-05
0.00225817
9.30042e-05
0.00217803
0.000114805
0.0020755
0.000135368
0.00195106
0.000154452
0.00180562
0.000171832
0.00164063
0.000187307
0.00145775
0.000200694
0.00125897
0.00021183
0.00104627
0.000220584
0.000822192
0.000226817
0.00058892
0.000230474
0.000349648
0.000107582
0.000231535
2.28676e-05
0.00233871
3.38645e-07
4.63662e-05
0.00229405
6.95854e-05
0.00223495
9.21452e-05
0.00215547
0.000113747
0.00205389
0.000134124
0.00193068
0.000153034
0.00178671
0.000170256
0.0016234
0.000185589
0.00144242
0.000198855
0.0012457
0.000209889
0.00103524
0.000218563
0.000813515
0.000224743
0.000582738
0.000228373
0.000346014
0.00010651
0.000229436
2.26467e-05
0.00231571
3.48691e-07
4.59315e-05
0.00227077
6.89394e-05
0.00221194
9.1294e-05
0.00213311
0.0001127
0.00203249
0.000132891
0.00191049
0.000151629
0.00176797
0.000168694
0.00160634
0.000183888
0.00142723
0.000197032
0.00123256
0.000207966
0.00102431
0.000216561
0.000804922
0.000222687
0.000576615
0.00022629
0.000342417
0.000105456
0.000227355
2.24278e-05
0.00229293
3.58634e-07
4.55007e-05
0.00224769
6.82992e-05
0.00218914
9.04504e-05
0.00211096
0.000111661
0.00201128
0.000131669
0.00189048
0.000150237
0.0017494
0.000167147
0.00158943
0.000182202
0.00141217
0.000195226
0.00121953
0.00020606
0.00101347
0.000214577
0.000796403
0.000220651
0.000570539
0.000224227
0.000338837
0.000104383
0.000225292
2.2211e-05
0.00227035
3.68466e-07
4.50738e-05
0.00222483
6.76648e-05
0.00216655
8.96145e-05
0.00208901
0.000110633
0.00199026
0.000130458
0.00187065
0.000148857
0.001731
0.000165613
0.00157267
0.000180531
0.00139725
0.000193436
0.00120663
0.000204172
0.00100274
0.000212612
0.000787965
0.000218633
0.00056452
0.000222182
0.000335293
0.000103329
0.000223248
2.1996e-05
0.00224797
3.78182e-07
4.46508e-05
0.00220217
6.70362e-05
0.00214416
8.87861e-05
0.00206726
0.000109613
0.00196943
0.000129258
0.00185101
0.00014749
0.00171277
0.000164093
0.00155607
0.000178875
0.00138247
0.000191663
0.00119384
0.000202301
0.000992098
0.000210664
0.0007796
0.000216634
0.000558548
0.000220156
0.000331767
0.000102257
0.000221221
2.17831e-05
0.0022258
3.87774e-07
4.42316e-05
0.00217973
6.64132e-05
0.00212198
8.79651e-05
0.00204571
0.000108603
0.00194879
0.000128069
0.00183154
0.000146135
0.00169471
0.000162587
0.00153962
0.000177235
0.00136782
0.000189906
0.00118117
0.000200447
0.000981558
0.000208735
0.000771314
0.000214654
0.000552633
0.000218149
0.000328277
0.000101204
0.000219211
2.15721e-05
0.00220383
3.97238e-07
4.38162e-05
0.00215748
6.57958e-05
0.0021
8.71516e-05
0.00202435
0.000107601
0.00192834
0.000126891
0.00181225
0.000144792
0.0016768
0.000161095
0.00152331
0.000175609
0.00135331
0.000188165
0.00116861
0.00019861
0.000971111
0.000206823
0.000763099
0.000212691
0.000546762
0.000216159
0.000324805
0.000100137
0.00021722
2.1363e-05
0.00218206
4.06564e-07
4.34046e-05
0.00213544
6.51841e-05
0.00207822
8.63455e-05
0.00200319
0.000106609
0.00190808
0.000125723
0.00179314
0.000143462
0.00165907
0.000159616
0.00150716
0.000173998
0.00133893
0.00018644
0.00115617
0.00019679
0.000960762
0.000204929
0.000754962
0.000210746
0.000540948
0.000214188
0.000321368
9.90892e-05
0.000215245
2.11559e-05
0.00216049
4.15744e-07
4.29967e-05
0.0021136
6.45779e-05
0.00205664
8.55467e-05
0.00198222
0.000105626
0.001888
0.000124566
0.0017742
0.000142143
0.00164149
0.000158151
0.00149115
0.000172402
0.00132468
0.00018473
0.00114384
0.000194987
0.000950504
0.000203053
0.000746895
0.00020882
0.000535179
0.000212235
0.00031795
9.80289e-05
0.000213288
2.09507e-05
0.00213912
4.24772e-07
4.25926e-05
0.00209196
6.39773e-05
0.00203526
8.47551e-05
0.00196145
0.000104652
0.00186811
0.00012342
0.00175543
0.000140837
0.00162407
0.000156699
0.00147529
0.00017082
0.00131056
0.000183037
0.00113163
0.0001932
0.000940342
0.000201193
0.000738904
0.000206911
0.000529464
0.000210299
0.000314567
9.69887e-05
0.000211348
2.07474e-05
0.00211793
4.33636e-07
4.21922e-05
0.00207051
6.33821e-05
0.00201407
8.39708e-05
0.00194086
0.000103686
0.00184839
0.000122284
0.00173683
0.000139542
0.00160681
0.00015526
0.00145957
0.000169253
0.00129656
0.000181358
0.00111952
0.00019143
0.000930269
0.000199351
0.000730981
0.000205019
0.000523794
0.000208381
0.000311203
9.59376e-05
0.000209425
2.0546e-05
0.00209695
4.42329e-07
4.17955e-05
0.00204926
6.27924e-05
0.00199307
8.31936e-05
0.00192046
0.00010273
0.00182885
0.000121158
0.0017184
0.00013826
0.00158971
0.000153835
0.001444
0.0001677
0.0012827
0.000179696
0.00110753
0.000189676
0.00092029
0.000197526
0.000723133
0.000203145
0.000518177
0.00020648
0.000307872
9.49067e-05
0.000207519
2.03466e-05
0.00207615
4.50841e-07
4.14024e-05
0.00202821
6.2208e-05
0.00197226
8.24235e-05
0.00190024
0.000101782
0.0018095
0.000120042
0.00170014
0.000136989
0.00157277
0.000152422
0.00142856
0.000166162
0.00126896
0.000178048
0.00109564
0.000187938
0.000910399
0.000195717
0.000715352
0.000201288
0.000512604
0.000204596
0.000304561
9.38664e-05
0.00020563
2.0149e-05
0.00205554
4.59165e-07
4.1013e-05
0.00200734
6.16291e-05
0.00195165
8.16605e-05
0.00188021
0.000100843
0.00179031
0.000118937
0.00168205
0.000135729
0.00155597
0.000151022
0.00141327
0.000164637
0.00125534
0.000176415
0.00108386
0.000186216
0.0009006
0.000193926
0.000707644
0.000199448
0.000507085
0.000202729
0.000301284
9.28462e-05
0.000203758
1.99533e-05
0.00203512
4.67292e-07
4.06272e-05
0.00198667
6.10555e-05
0.00193122
8.09045e-05
0.00186036
9.9912e-05
0.00177131
0.000117842
0.00166412
0.000134482
0.00153933
0.000149636
0.00139812
0.000163127
0.00124185
0.000174798
0.00107219
0.00018451
0.000890887
0.00019215
0.000700002
0.000197625
0.000501608
0.00020088
0.000298026
9.18176e-05
0.000201902
1.97595e-05
0.00201488
4.75215e-07
4.0245e-05
0.00196618
6.04871e-05
0.00191098
8.01554e-05
0.00184069
9.899e-05
0.00175247
0.000116757
0.00164635
0.000133245
0.00152285
0.000148261
0.0013831
0.00016163
0.00122848
0.000173195
0.00106063
0.000182819
0.000881264
0.000190391
0.000692432
0.000195818
0.000496184
0.000199047
0.000294802
9.08083e-05
0.000200064
1.95675e-05
0.00199483
4.82928e-07
3.98664e-05
0.00194588
5.99241e-05
0.00189092
7.94132e-05
0.0018212
9.80764e-05
0.00173381
0.000115682
0.00162874
0.00013202
0.00150651
0.0001469
0.00136822
0.000160147
0.00121524
0.000171607
0.00104916
0.000181144
0.000871726
0.000188648
0.000684927
0.000194028
0.000490802
0.000197231
0.000291596
8.97916e-05
0.000198242
1.93775e-05
0.00197497
4.90425e-07
3.94913e-05
0.00192577
5.93662e-05
0.00187105
7.86779e-05
0.00180189
9.71712e-05
0.00171531
0.000114616
0.0016113
0.000130806
0.00149032
0.000145551
0.00135348
0.000158677
0.00120211
0.000170034
0.00103781
0.000179485
0.000862276
0.000186921
0.000677492
0.000192255
0.000485471
0.000195431
0.000288424
8.87935e-05
0.000196437
1.91892e-05
0.00195528
4.97699e-07
3.91198e-05
0.00190584
5.88136e-05
0.00185135
7.79493e-05
0.00178275
9.62743e-05
0.00169699
0.000113561
0.00159401
0.000129603
0.00147427
0.000144214
0.00133886
0.000157222
0.0011891
0.000168475
0.00102655
0.00017784
0.000852909
0.00018521
0.00067012
0.000190497
0.000480182
0.000193648
0.00028527
8.77887e-05
0.000194647
1.90028e-05
0.00193577
5.04747e-07
3.87517e-05
0.00188609
5.8266e-05
0.00183184
7.72275e-05
0.00176379
9.53857e-05
0.00167883
0.000112515
0.00157688
0.000128412
0.00145838
0.00014289
0.00132439
0.000155779
0.00117621
0.00016693
0.0010154
0.000176211
0.00084363
0.000183515
0.000662818
0.000188756
0.000474944
0.000191881
0.000282149
8.6802e-05
0.000192874
1.88183e-05
0.00191644
5.11563e-07
3.83872e-05
0.00186652
5.77236e-05
0.0018125
7.65123e-05
0.001745
9.45052e-05
0.00166084
0.000111479
0.00155991
0.000127231
0.00144263
0.000141577
0.00131004
0.000154349
0.00116344
0.000165399
0.00100435
0.000174597
0.000834431
0.000181835
0.000655577
0.00018703
0.000469747
0.00019013
0.000279047
8.58098e-05
0.000191117
1.86355e-05
0.00189729
5.18142e-07
3.8026e-05
0.00184713
5.71862e-05
0.00179334
7.58038e-05
0.00172639
9.36329e-05
0.00164301
0.000110452
0.00154309
0.000126061
0.00142702
0.000140277
0.00129583
0.000152933
0.00115079
0.000163883
0.000993405
0.000172997
0.000825318
0.000180171
0.000648405
0.000185321
0.0004646
0.000188394
0.000275977
8.48354e-05
0.000189375
1.84546e-05
0.00187831
5.2448e-07
3.76683e-05
0.00182792
5.66538e-05
0.00177436
7.51018e-05
0.00170794
9.27686e-05
0.00162534
0.000109435
0.00152642
0.000124902
0.00141155
0.000138988
0.00128174
0.00015153
0.00113824
0.00016238
0.000982554
0.000171412
0.000816285
0.000178522
0.000641294
0.000183627
0.000459493
0.000186675
0.000272927
8.38565e-05
0.000187649
1.82755e-05
0.0018595
5.30572e-07
3.7314e-05
0.00180888
5.61264e-05
0.00175554
7.44063e-05
0.00168966
9.19123e-05
0.00160784
0.000108427
0.00150991
0.000123753
0.00139622
0.000137712
0.00126778
0.00015014
0.00112582
0.000160892
0.000971802
0.000169842
0.000807336
0.000176888
0.000634249
0.000181948
0.000454435
0.000184971
0.000269908
8.2895e-05
0.000185939
1.80981e-05
0.00184087
5.36414e-07
3.6963e-05
0.00179001
5.5604e-05
0.0017369
7.37173e-05
0.00167154
9.10639e-05
0.00159049
0.000107428
0.00149354
0.000122615
0.00138104
0.000136447
0.00125395
0.000148762
0.0011135
0.000159417
0.000961147
0.000168287
0.000798465
0.00017527
0.000627265
0.000180286
0.000449418
0.000183283
0.000266908
8.19302e-05
0.000184243
1.79226e-05
0.0018224
5.42003e-07
3.66154e-05
0.00177132
5.50864e-05
0.00171843
7.30347e-05
0.0016536
9.02233e-05
0.0015733
0.000106439
0.00147733
0.000121488
0.00136599
0.000135194
0.00124024
0.000147397
0.0011013
0.000157955
0.000950589
0.000166745
0.000789676
0.000173666
0.000620346
0.000178638
0.000444448
0.00018161
0.000263939
8.09823e-05
0.000182564
1.77488e-05
0.00180411
5.47336e-07
3.62711e-05
0.0017528
5.45737e-05
0.00170013
7.23584e-05
0.00163581
8.93906e-05
0.00155627
0.000105458
0.00146126
0.000120371
0.00135107
0.000133952
0.00122666
0.000146045
0.00108921
0.000156507
0.000940126
0.000165218
0.000780965
0.000172077
0.000613485
0.000177005
0.000439518
0.000179953
0.00026099
8.00315e-05
0.000180899
1.75767e-05
0.00178598
5.52412e-07
3.59301e-05
0.00173445
5.40658e-05
0.00168199
7.16884e-05
0.00161819
8.85655e-05
0.00153939
0.000104487
0.00144534
0.000119264
0.0013363
0.000132722
0.0012132
0.000144705
0.00107722
0.000155073
0.000929759
0.000163705
0.000772334
0.000170502
0.000606689
0.000175388
0.000434634
0.00017831
0.00025807
7.90969e-05
0.00017925
1.74064e-05
0.00176802
5.57228e-07
3.55924e-05
0.00171626
5.35626e-05
0.00166402
7.10247e-05
0.00160073
8.77481e-05
0.00152267
0.000103525
0.00142956
0.000118167
0.00132165
0.000131503
0.00119987
0.000143377
0.00106535
0.000153651
0.000919484
0.000162206
0.000763778
0.000168942
0.000599951
0.000173785
0.00042979
0.000176683
0.00025517
7.81599e-05
0.000177616
1.72378e-05
0.00175022
5.61788e-07
3.52579e-05
0.00169824
5.30642e-05
0.00164622
7.03672e-05
0.00158342
8.69382e-05
0.0015061
0.000102571
0.00141393
0.000117081
0.00130715
0.000130296
0.00118665
0.000142062
0.00105358
0.000152243
0.000909303
0.00016072
0.000755302
0.000167397
0.000593276
0.000172197
0.000424992
0.000175071
0.000252299
7.72383e-05
0.000175997
1.70709e-05
0.00173258
5.66092e-07
3.49265e-05
0.00168038
5.25705e-05
0.00162857
6.97157e-05
0.00156628
8.61359e-05
0.00148968
0.000101627
0.00139844
0.000116004
0.00129277
0.000129099
0.00117356
0.000140759
0.00104192
0.000150848
0.000899214
0.000159249
0.0007469
0.000165865
0.000586658
0.000170623
0.000420232
0.000173473
0.000249448
7.63147e-05
0.000174393
1.69057e-05
0.0017151
5.70144e-07
3.45984e-05
0.00166269
5.20814e-05
0.00161109
6.90704e-05
0.00154929
8.5341e-05
0.00147341
0.000100691
0.00138309
0.000114938
0.00127852
0.000127914
0.00116058
0.000139467
0.00103037
0.000149465
0.000889217
0.00015779
0.000738576
0.000164348
0.000580101
0.000169065
0.000415518
0.00017189
0.000246625
7.54057e-05
0.000172803
1.67422e-05
0.00169779
5.7395e-07
3.42734e-05
0.00164516
5.15969e-05
0.00159377
6.8431e-05
0.00153246
8.45535e-05
0.00145728
9.97638e-05
0.00136788
0.000113881
0.0012644
0.000126739
0.00114772
0.000138188
0.00101892
0.000148095
0.000879309
0.000156346
0.000730325
0.000162845
0.000573601
0.00016752
0.000410841
0.000170322
0.000243822
7.44952e-05
0.000171228
1.65803e-05
0.00168063
5.77517e-07
3.39515e-05
0.00162779
5.1117e-05
0.0015766
6.77976e-05
0.00151577
8.37732e-05
0.00144131
9.88452e-05
0.00135281
0.000112834
0.00125042
0.000125575
0.00113498
0.000136921
0.00100758
0.000146738
0.000869492
0.000154915
0.000722149
0.000161356
0.000567161
0.00016599
0.000406209
0.000168767
0.000241047
7.35987e-05
0.000169668
1.64201e-05
0.00166363
5.80852e-07
3.36327e-05
0.00161058
5.06416e-05
0.00155959
6.71702e-05
0.00149925
8.30003e-05
0.00142548
9.7935e-05
0.00133787
0.000111797
0.00123655
0.000124423
0.00112235
0.000135665
0.000996333
0.000145394
0.000859762
0.000153496
0.000714046
0.00015988
0.000560776
0.000164473
0.000401615
0.000167228
0.000238291
7.27013e-05
0.000168122
1.62615e-05
0.00164678
5.83966e-07
3.3317e-05
0.00159352
5.01706e-05
0.00154274
6.65486e-05
0.00148287
8.22345e-05
0.00140979
9.70334e-05
0.00132307
0.000110769
0.00122282
0.00012328
0.00110984
0.000134421
0.000985193
0.000144062
0.000850122
0.000152092
0.000706017
0.000158418
0.00055445
0.000162971
0.000397064
0.000165702
0.000235562
7.18174e-05
0.000166589
1.61045e-05
0.00163009
5.8687e-07
3.30042e-05
0.00157662
4.97041e-05
0.00152604
6.59327e-05
0.00146664
8.14758e-05
0.00139425
9.614e-05
0.00130841
0.000109751
0.00120921
0.000122149
0.00109744
0.000133188
0.000974152
0.000142742
0.000840567
0.0001507
0.000698059
0.00015697
0.000548179
0.000161483
0.000392549
0.00016419
0.000232853
7.09334e-05
0.000165071
1.5949e-05
0.00161355
5.89576e-07
3.26945e-05
0.00155988
4.9242e-05
0.00150949
6.53227e-05
0.00145056
8.07242e-05
0.00137885
9.5255e-05
0.00129388
0.000108742
0.00119572
0.000121027
0.00108516
0.000131967
0.000963213
0.000141435
0.0008311
0.000149321
0.000690174
0.000155535
0.000541966
0.000160008
0.000388078
0.000162693
0.000230171
7.00627e-05
0.000163567
1.57952e-05
0.00159717
5.92098e-07
3.23877e-05
0.00154328
4.87842e-05
0.00149309
6.47183e-05
0.00143462
7.99795e-05
0.00136359
9.43782e-05
0.00127948
0.000107743
0.00118236
0.000119917
0.00107299
0.000130757
0.000952372
0.000140139
0.000821717
0.000147954
0.000682358
0.000154113
0.000535806
0.000158547
0.000383643
0.000161209
0.000227508
6.91926e-05
0.000162076
1.56429e-05
0.00158093
5.9445e-07
3.20839e-05
0.00152684
4.83307e-05
0.00147685
6.41196e-05
0.00141884
7.92418e-05
0.00134847
9.35095e-05
0.00126521
0.000106753
0.00116911
0.000118816
0.00106092
0.000129559
0.00094163
0.000138856
0.000812421
0.000146601
0.000674614
0.000152705
0.000529703
0.0001571
0.00037925
0.000159738
0.000224872
6.83355e-05
0.000160598
1.54921e-05
0.00156484
5.96647e-07
3.1783e-05
0.00151055
4.78815e-05
0.00146075
6.35264e-05
0.00140319
7.85109e-05
0.00133348
9.26488e-05
0.00125107
0.000105772
0.00115599
0.000117726
0.00104897
0.000128371
0.000930984
0.000137584
0.000803207
0.00014526
0.000666938
0.000151309
0.000523652
0.000155666
0.000374892
0.000158282
0.000222254
6.74796e-05
0.000159135
1.53429e-05
0.0015489
5.98704e-07
3.14849e-05
0.00149441
4.74366e-05
0.0014448
6.29388e-05
0.00138769
7.77869e-05
0.00131863
9.17962e-05
0.00123706
0.0001048
0.00114299
0.000116646
0.00103712
0.000127195
0.000920436
0.000136325
0.000794077
0.000143931
0.000659332
0.000149927
0.000517657
0.000154245
0.000370576
0.000156838
0.000219663
6.66361e-05
0.000157685
1.51951e-05
0.0015331
6.00636e-07
3.11897e-05
0.00147841
4.69958e-05
0.00142899
6.23567e-05
0.00137233
7.70696e-05
0.00130392
9.09515e-05
0.00122318
0.000103837
0.0011301
0.000115575
0.00102538
0.000126029
0.000909981
0.000135077
0.000785028
0.000142615
0.000651793
0.000148557
0.000511714
0.000152837
0.000366294
0.000155408
0.00021709
6.57939e-05
0.000156248
1.50488e-05
0.00151745
6.02458e-07
3.08973e-05
0.00146257
4.65591e-05
0.00141333
6.17801e-05
0.00135711
7.6359e-05
0.00128934
9.01146e-05
0.00120942
0.000102883
0.00111733
0.000114515
0.00101375
0.000124874
0.000899623
0.000133841
0.000776062
0.000141311
0.000644324
0.0001472
0.000505825
0.000151442
0.000362054
0.000153992
0.000214543
6.49632e-05
0.000154825
1.49039e-05
0.00150194
6.04185e-07
3.06077e-05
0.00144686
4.61266e-05
0.00139781
6.12088e-05
0.00134202
7.56549e-05
0.00127489
8.92856e-05
0.00119579
0.000101938
0.00110468
0.000113465
0.00100223
0.00012373
0.000889357
0.000132616
0.000767176
0.000140019
0.000636919
0.000145856
0.000499988
0.000150061
0.000357847
0.000152588
0.000212014
6.41338e-05
0.000153415
1.47605e-05
0.00148658
6.0583e-07
3.03208e-05
0.0014313
4.56981e-05
0.00138243
6.06428e-05
0.00132708
7.49575e-05
0.00126058
8.84642e-05
0.00118229
0.000101002
0.00109214
0.000112424
0.000990805
0.000122597
0.000879185
0.000131402
0.000758371
0.000138739
0.000629583
0.000144524
0.000494204
0.000148692
0.000353681
0.000151198
0.00020951
6.33151e-05
0.000152018
1.46185e-05
0.00147135
6.07409e-07
3.00367e-05
0.00141588
4.52736e-05
0.0013672
6.00821e-05
0.00131227
7.42665e-05
0.0012464
8.76504e-05
0.0011689
0.000100075
0.00107972
0.000111393
0.000979486
0.000121474
0.000869104
0.0001302
0.000749644
0.000137471
0.000622311
0.000143204
0.000488469
0.000147335
0.000349548
0.00014982
0.000207024
6.2498e-05
0.000150635
1.44778e-05
0.00145626
6.08932e-07
2.97552e-05
0.00140061
4.48531e-05
0.0013521
5.95266e-05
0.0012976
7.35819e-05
0.00123234
8.68442e-05
0.00115564
9.91557e-05
0.0010674
0.000110372
0.000968271
0.000120361
0.000859115
0.000129009
0.000740997
0.000136215
0.000615106
0.000141897
0.000482788
0.000145992
0.000345455
0.000148455
0.000204563
6.1691e-05
0.000149264
1.43385e-05
0.00144131
6.10414e-07
2.94763e-05
0.00138547
4.44365e-05
0.00133714
5.89763e-05
0.00128306
7.29037e-05
0.00121841
8.60455e-05
0.0011425
9.82453e-05
0.0010552
0.00010936
0.000957156
0.000119259
0.000849215
0.000127829
0.000732427
0.00013497
0.000607964
0.000140602
0.000477155
0.000144661
0.000341395
0.000147103
0.000202119
6.0886e-05
0.000147905
1.42006e-05
0.0014265
6.11866e-07
2.92001e-05
0.00137047
4.40238e-05
0.00132232
5.84311e-05
0.00126865
7.22317e-05
0.00120461
8.52541e-05
0.00112948
9.73433e-05
0.00104312
0.000108357
0.000946143
0.000118167
0.000839405
0.00012666
0.000723935
0.000133737
0.000600887
0.000139319
0.000471575
0.000143342
0.000337373
0.000145763
0.0001997
6.00912e-05
0.000146559
1.40639e-05
0.00141183
6.13298e-07
2.89265e-05
0.00135561
4.36149e-05
0.00130763
5.78909e-05
0.00125437
7.1566e-05
0.00119094
8.44701e-05
0.00111657
9.64497e-05
0.00103114
0.000107364
0.000935228
0.000117085
0.000829683
0.000125501
0.000715518
0.000132516
0.000593872
0.000138047
0.000466042
0.000142035
0.000333384
0.000144435
0.000197298
5.92988e-05
0.000145226
1.39285e-05
0.00139728
6.14722e-07
2.86554e-05
0.00134088
4.32098e-05
0.00129307
5.73558e-05
0.00124023
7.09064e-05
0.00117739
8.36934e-05
0.00110379
9.55644e-05
0.00101927
0.00010638
0.000924413
0.000116014
0.00082005
0.000124354
0.000707178
0.000131305
0.000586922
0.000136788
0.00046056
0.000140741
0.000329432
0.00014312
0.00019492
5.85164e-05
0.000143904
1.37944e-05
0.00138287
6.16148e-07
2.83869e-05
0.00132629
4.28085e-05
0.00127865
5.68256e-05
0.00122621
7.0253e-05
0.00116396
8.29238e-05
0.00109111
9.46873e-05
0.0010075
0.000105405
0.000913695
0.000114952
0.000810503
0.000123217
0.000698912
0.000130106