/*--------------------------------*- C++ -*----------------------------------*\
  =========                 |
  \\      /  F ield         | OpenFOAM: The Open Source CFD Toolbox
   \\    /   O peration     | Website:  https://openfoam.org
    \\  /    A nd           | Version:  6.0
     \\/     M anipulation  |
\*---------------------------------------------------------------------------*/
FoamFile
{
    version     2.0;
    format      ascii;
    class       volVectorField;
    location    "115";
    object      U;
}
// * * * * * * * * * * * * * * * * * * * * * * * * * * * * * * * * * * * * * //

dimensions      [0 1 -1 0 0 0 0];

internalField   nonuniform List<vector> 
34500
(
(0.999994 2.11847e-05 -4.64325e-17)
(0.999955 5.46195e-06 -8.15664e-18)
(0.999877 -2.96444e-05 1.42617e-16)
(0.999764 -9.74907e-05 -1.07988e-16)
(0.999627 -0.000208763 3.37018e-17)
(0.999478 -0.000370121 -1.01881e-16)
(0.999332 -0.000584298 -1.01368e-16)
(0.9992 -0.000856813 8.71575e-17)
(0.999095 -0.00118993 1.07679e-16)
(0.999019 -0.00160343 -6.86452e-16)
(0.998991 -0.00209754 -1.04697e-15)
(0.998994 -0.00280975 1.28148e-16)
(0.999055 -0.00358135 4.3967e-16)
(1.00033 -0.00546297 -2.12165e-16)
(0.980103 -0.0167447 8.74655e-17)
(0.999987 6.54179e-05 3.25179e-17)
(0.999913 2.92969e-05 9.788e-17)
(0.99977 -4.2867e-05 7.19584e-17)
(0.999565 -0.000175482 -3.03157e-16)
(0.999319 -0.000386274 -5.07643e-16)
(0.999055 -0.00068404 -5.52649e-17)
(0.998799 -0.00107279 2.56588e-16)
(0.99857 -0.00156228 -6.80348e-16)
(0.998391 -0.00215489 -1.79553e-16)
(0.99827 -0.00288412 6.85436e-16)
(0.998229 -0.00373569 1.27085e-15)
(0.998276 -0.00495177 -6.34963e-16)
(0.998208 -0.00621244 -9.97044e-16)
(1.00122 -0.00889649 -4.04753e-16)
(0.981337 -0.0201578 5.85973e-16)
(0.999983 0.000109445 1.04906e-17)
(0.999913 5.89196e-05 -1.23223e-16)
(0.999785 -2.49405e-05 -1.25518e-16)
(0.999605 -0.000163939 4.57094e-16)
(0.99939 -0.000372252 -2.86919e-17)
(0.999163 -0.000653529 -1.64609e-16)
(0.998947 -0.00100982 9.81877e-17)
(0.998758 -0.00144983 3.86327e-16)
(0.998613 -0.00197537 2.80664e-19)
(0.998523 -0.00261852 -3.95263e-16)
(0.998494 -0.00335402 -7.33024e-16)
(0.998586 -0.00441081 4.17504e-16)
(0.99823 -0.00552298 2.27865e-16)
(1.00154 -0.00764204 1.68434e-16)
(0.988472 -0.01417 -2.70005e-16)
(0.999977 0.000152615 -1.73929e-17)
(0.999915 8.63641e-05 -9.04598e-18)
(0.999805 -9.56666e-06 4.84557e-17)
(0.999655 -0.000153344 -3.0633e-16)
(0.999477 -0.000355849 3.73488e-16)
(0.999292 -0.000616858 3.31147e-16)
(0.999117 -0.000937643 -4.01054e-16)
(0.998966 -0.00132645 -4.21716e-16)
(0.998852 -0.00178654 4.37046e-16)
(0.998785 -0.00235026 -4.73087e-16)
(0.998754 -0.00299166 -2.46025e-16)
(0.998875 -0.00392334 -3.88789e-16)
(0.998268 -0.00500476 5.49678e-16)
(1.00109 -0.0067689 -4.92522e-17)
(0.991695 -0.0122563 2.3624e-17)
(0.999969 0.000195436 -1.70808e-17)
(0.999905 0.000111418 1.53699e-16)
(0.999796 -2.94774e-06 6.97492e-17)
(0.99965 -0.000164639 1.7028e-16)
(0.999477 -0.000383925 4.69038e-17)
(0.999298 -0.000659496 -1.58828e-16)
(0.999128 -0.000993108 1.0293e-16)
(0.998984 -0.0013932 2.67449e-16)
(0.998874 -0.00186418 -4.19687e-16)
(0.998813 -0.00244048 -2.32304e-16)
(0.998773 -0.00309664 1.01331e-15)
(0.998922 -0.00403827 6.4e-16)
(0.998188 -0.00521585 -2.93742e-16)
(1.00032 -0.00686479 6.0714e-16)
(0.993003 -0.011849 -6.3748e-16)
(0.999959 0.000238251 1.83924e-17)
(0.99989 0.000136186 -9.50478e-17)
(0.999778 2.09281e-06 -1.86863e-16)
(0.99963 -0.000180025 -5.31018e-17)
(0.999454 -0.0004204 1.09806e-16)
(0.999273 -0.000717559 -1.0925e-16)
(0.999102 -0.00107373 1.48776e-16)
(0.998959 -0.00149715 1.31771e-16)
(0.998851 -0.0019918 2.92448e-16)
(0.998795 -0.00259321 -1.00868e-16)
(0.99875 -0.00327423 2.95312e-18)
(0.998928 -0.00422686 -3.92885e-16)
(0.998163 -0.00546158 1.85812e-17)
(0.999642 -0.00697998 -4.80942e-16)
(0.993812 -0.0110397 7.9912e-17)
(0.999948 0.000281043 3.26264e-18)
(0.999876 0.000161311 -3.5677e-17)
(0.999764 8.94402e-06 -2.91012e-17)
(0.999619 -0.000190042 1.76293e-16)
(0.999449 -0.000445349 -2.21217e-16)
(0.999274 -0.000755435 2.76495e-16)
(0.99911 -0.00112287 -6.21786e-16)
(0.998975 -0.00155544 -3.7152e-16)
(0.998875 -0.00205593 -1.52362e-16)
(0.998829 -0.00266003 6.7529e-16)
(0.998781 -0.00333984 -7.73788e-16)
(0.998979 -0.00426643 3.00939e-16)
(0.998234 -0.00550747 4.63123e-16)
(0.999167 -0.00687175 -9.84297e-17)
(0.994351 -0.0101736 -1.29672e-16)
(0.999936 0.000323744 1.51495e-17)
(0.999861 0.000186456 3.23673e-17)
(0.999752 1.6547e-05 2.5099e-17)
(0.999614 -0.000197374 -1.51342e-16)
(0.999453 -0.00046431 3.30007e-16)
(0.999289 -0.000782876 -1.40121e-16)
(0.999135 -0.00115623 2.02378e-16)
(0.999011 -0.00159187 -1.46943e-16)
(0.998921 -0.00209138 3.99619e-16)
(0.998885 -0.00269026 1.78827e-16)
(0.998832 -0.00336217 2.46564e-16)
(0.999037 -0.00425495 -5.70591e-17)
(0.998339 -0.00549282 -5.12403e-16)
(0.998851 -0.00673626 1.16878e-15)
(0.994737 -0.00953179 1.99359e-16)
(0.999922 0.0003664 -1.12404e-17)
(0.999844 0.000211475 9.92018e-17)
(0.999736 2.38346e-05 1.51223e-16)
(0.999605 -0.000205327 1.12271e-16)
(0.999452 -0.000484422 -4.90369e-16)
(0.999297 -0.000812501 1.41505e-16)
(0.999153 -0.00119356 3.22057e-16)
(0.999039 -0.00163508 7.76083e-16)
(0.998956 -0.00213752 -3.87425e-16)
(0.998928 -0.00273577 9.06112e-17)
(0.998871 -0.00340628 4.52501e-16)
(0.999074 -0.00427321 -3.27015e-16)
(0.998438 -0.00550691 -1.56489e-16)
(0.998648 -0.00666206 -3.91025e-16)
(0.995084 -0.00904138 8.95229e-17)
(0.999906 0.000409106 4.07743e-17)
(0.999825 0.00023654 -8.99603e-17)
(0.999718 3.09594e-05 8.87788e-18)
(0.99959 -0.000214 -1.10528e-16)
(0.999444 -0.000506198 4.12075e-16)
(0.999298 -0.000845123 7.9918e-17)
(0.999162 -0.00123564 2.71393e-16)
(0.999056 -0.00168534 -5.75792e-16)
(0.998981 -0.00219373 4.18111e-17)
(0.998961 -0.00279454 -7.91698e-17)
(0.998901 -0.00346732 -1.40722e-16)
(0.999095 -0.00431249 4.4577e-17)
(0.998525 -0.00553291 6.01816e-16)
(0.998527 -0.00661193 -8.26147e-16)
(0.995423 -0.00861767 -2.86214e-16)
(0.999889 0.000451959 -2.62791e-17)
(0.999805 0.000261875 3.53376e-17)
(0.999697 3.84253e-05 -1.47946e-16)
(0.999572 -0.000222467 2.5075e-16)
(0.999433 -0.000528006 -3.62853e-16)
(0.999295 -0.000877921 -3.04269e-16)
(0.999169 -0.0012777 -3.40319e-16)
(0.999072 -0.00173511 3.92984e-17)
(0.999004 -0.00224888 -8.186e-17)
(0.998992 -0.00285136 -4.2725e-16)
(0.998931 -0.0035254 -7.2688e-16)
(0.999112 -0.00434859 2.88855e-16)
(0.998605 -0.00554549 -3.33706e-16)
(0.998465 -0.0065553 9.31749e-16)
(0.995744 -0.0082455 5.6896e-17)
(0.999871 0.000495039 -2.46071e-17)
(0.999782 0.000287616 -1.04494e-16)
(0.999674 4.64698e-05 1.51168e-16)
(0.999552 -0.000230399 -2.34915e-16)
(0.999419 -0.00054948 7.71459e-17)
(0.99929 -0.000910463 4.56001e-16)
(0.999174 -0.00131911 5.564e-17)
(0.999087 -0.0017833 -6.76885e-17)
(0.999028 -0.00230122 1.82568e-16)
(0.999024 -0.00290375 -1.57965e-16)
(0.998963 -0.00357747 -9.58734e-17)
(0.999129 -0.00437878 -6.74915e-17)
(0.998676 -0.00554617 -2.91888e-16)
(0.998439 -0.0064958 -6.3828e-16)
(0.996036 -0.00792696 1.30985e-17)
(0.999851 0.000538428 -2.18128e-18)
(0.999758 0.000313858 1.40849e-16)
(0.999649 5.51801e-05 -2.22156e-16)
(0.99953 -0.000237835 8.36807e-17)
(0.999402 -0.000571 -9.3908e-17)
(0.999282 -0.000943766 -1.55385e-16)
(0.999175 -0.00136177 -3.90682e-17)
(0.999099 -0.00183282 3.66889e-16)
(0.999048 -0.00235472 -6.33885e-16)
(0.999053 -0.00295678 4.23117e-16)
(0.998995 -0.0036296 2.22347e-16)
(0.999143 -0.0044104 1.86124e-16)
(0.998737 -0.00554493 7.62021e-16)
(0.998434 -0.00644208 7.49941e-16)
(0.996302 -0.00765538 5.79062e-16)
(0.999829 0.000582199 8.321e-18)
(0.999732 0.000340681 5.30102e-17)
(0.999622 6.46472e-05 1.76574e-16)
(0.999505 -0.00024467 5.59554e-17)
(0.999382 -0.000592548 1.7127e-16)
(0.99927 -0.000978054 1.6875e-16)
(0.999172 -0.00140636 -1.19008e-17)
(0.999107 -0.00188496 4.95527e-17)
(0.999065 -0.00241131 9.43206e-16)
(0.999078 -0.00301298 -1.14699e-16)
(0.999024 -0.00368458 5.4682e-16)
(0.999155 -0.00444612 -7.47346e-16)
(0.998789 -0.0055448 1.39345e-16)
(0.998443 -0.00639357 -1.38125e-15)
(0.996546 -0.00741899 -6.49545e-16)
(0.999806 0.000626418 9.96108e-18)
(0.999705 0.000368151 -1.17979e-16)
(0.999594 7.49928e-05 1.55244e-16)
(0.999478 -0.000250613 -2.24848e-16)
(0.99936 -0.000613568 1.57424e-16)
(0.999255 -0.00101248 2.08095e-17)
(0.999167 -0.00145179 1.95922e-16)
(0.999111 -0.00193848 -2.61357e-16)
(0.999078 -0.0024696 -8.44018e-16)
(0.9991 -0.00307079 2.51019e-16)
(0.999052 -0.00374042 -5.65055e-16)
(0.999168 -0.00448331 1.14078e-16)
(0.998835 -0.00554341 -4.98501e-16)
(0.998462 -0.00634609 2.72828e-16)
(0.996768 -0.00720944 -1.14194e-16)
(0.999781 0.00067113 3.33096e-17)
(0.999676 0.000396291 7.20689e-17)
(0.999564 8.62606e-05 -3.60007e-16)
(0.999451 -0.000255444 2.89346e-16)
(0.999337 -0.000633507 -2.81007e-16)
(0.999239 -0.00104602 -3.7453e-16)
(0.99916 -0.00149658 -3.84717e-16)
(0.999114 -0.00199144 3.39369e-16)
(0.99909 -0.00252728 7.23175e-16)
(0.999121 -0.00312761 1.64189e-16)
(0.99908 -0.00379427 9.55316e-17)
(0.999183 -0.00451891 7.08712e-17)
(0.998878 -0.00553881 -7.45396e-16)
(0.998488 -0.00629785 6.60959e-17)
(0.996972 -0.00702275 6.64688e-16)
(0.999755 0.000716372 -8.98514e-17)
(0.999646 0.000425085 -9.26316e-17)
(0.999534 9.84017e-05 3.4385e-17)
(0.999422 -0.000259157 -2.65225e-16)
(0.999314 -0.000652168 -1.80355e-17)
(0.999223 -0.00107819 4.83676e-16)
(0.999153 -0.00153991 5.53259e-17)
(0.999117 -0.00204279 3.05697e-16)
(0.999102 -0.00258312 -6.06504e-16)
(0.999142 -0.00318224 -3.11869e-16)
(0.999109 -0.0038451 4.48543e-16)
(0.9992 -0.00455213 -1.50816e-16)
(0.998919 -0.0055315 4.9189e-16)
(0.998521 -0.00624983 7.69562e-16)
(0.99716 -0.0068569 -6.27749e-17)
(0.999728 0.000762164 2.81485e-17)
(0.999615 0.000454491 1.15047e-17)
(0.999503 0.000111275 1.1596e-16)
(0.999394 -0.000261957 2.26615e-18)
(0.99929 -0.000669749 9.92342e-17)
(0.999207 -0.00110911 -2.90851e-16)
(0.999145 -0.00158181 6.01054e-16)
(0.99912 -0.00209252 -1.54285e-16)
(0.999114 -0.0026372 6.56442e-16)
(0.999162 -0.00323492 -3.43791e-16)
(0.999138 -0.00389343 -5.48309e-16)
(0.999219 -0.00458371 5.30611e-16)
(0.99896 -0.00552304 -8.99348e-16)
(0.998559 -0.00620336 -1.33695e-15)
(0.997334 -0.00670954 -3.45368e-16)
(0.999699 0.000808528 3.13408e-18)
(0.999582 0.000484462 1.95483e-17)
(0.99947 0.000124725 -3.13073e-17)
(0.999363 -0.000264129 1.592e-16)
(0.999266 -0.000686626 1.09234e-16)
(0.99919 -0.00113921 -4.28514e-17)
(0.999137 -0.00162277 -3.62298e-16)
(0.999122 -0.00214118 -3.49455e-16)
(0.999126 -0.00269014 -2.36383e-16)
(0.999182 -0.00328644 4.36082e-16)
(0.999167 -0.00394018 3.38468e-16)
(0.999241 -0.00461449 -4.98979e-16)
(0.999 -0.00551454 1.11403e-15)
(0.998602 -0.00615892 1.40849e-15)
(0.997498 -0.00657808 4.85324e-17)
(0.999669 0.000855476 3.58375e-17)
(0.999547 0.000514956 -4.77197e-17)
(0.999435 0.000138611 2.30116e-16)
(0.999332 -0.000265938 -4.58486e-17)
(0.99924 -0.000703173 -1.7506e-16)
(0.999171 -0.00116894 7.42491e-17)
(0.999128 -0.00166329 -1.30322e-16)
(0.999122 -0.00218932 2.95071e-16)
(0.999136 -0.00274249 7.76289e-17)
(0.9992 -0.0033373 5.43303e-17)
(0.999195 -0.00398584 -2.59599e-16)
(0.999264 -0.00464473 3.45501e-16)
(0.999041 -0.00550628 1.77013e-16)
(0.998649 -0.00611632 1.59569e-16)
(0.997653 -0.00646029 4.11885e-16)
(0.999636 0.000903022 -1.84236e-17)
(0.999511 0.000545947 2.73171e-17)
(0.999398 0.00015285 -3.7302e-16)
(0.999298 -0.000267549 -2.38749e-16)
(0.999212 -0.000719614 3.30569e-16)
(0.999151 -0.00119857 -8.95307e-17)
(0.999117 -0.00170365 5.23256e-16)
(0.999122 -0.00223721 -1.42141e-16)
(0.999145 -0.00279446 -7.54984e-18)
(0.999218 -0.00338768 -1.51062e-16)
(0.999223 -0.00403049 3.88558e-16)
(0.999288 -0.0046743 -2.45565e-16)
(0.999084 -0.00549823 -8.11187e-16)
(0.998701 -0.00607544 -1.94706e-16)
(0.997801 -0.0063549 -4.70106e-16)
(0.999603 0.000951172 2.48011e-17)
(0.999473 0.000577422 1.12862e-16)
(0.99936 0.0001674 3.36212e-16)
(0.999262 -0.000269029 2.61041e-16)
(0.999182 -0.000736031 -3.21884e-17)
(0.999129 -0.00122817 -1.30827e-16)
(0.999104 -0.00174392 -5.79275e-16)
(0.999119 -0.00228487 -6.73863e-17)
(0.999152 -0.00284603 -3.4455e-16)
(0.999234 -0.00343749 1.1172e-16)
(0.999251 -0.00407409 -7.12245e-16)
(0.999314 -0.00470311 3.44472e-16)
(0.999127 -0.00549058 1.16861e-15)
(0.998757 -0.00603662 -9.08505e-16)
(0.997943 -0.0062611 5.47583e-16)
(0.999567 0.000999931 -1.99983e-17)
(0.999433 0.000609374 -1.58803e-16)
(0.999319 0.000182263 -1.92425e-16)
(0.999224 -0.000270368 -9.60118e-17)
(0.99915 -0.000752388 -6.15137e-17)
(0.999105 -0.0012577 8.4488e-17)
(0.99909 -0.00178401 -3.23723e-17)
(0.999116 -0.00233221 -4.44894e-16)
(0.999159 -0.00289712 -1.31057e-16)
(0.99925 -0.00348673 -3.3027e-17)
(0.999277 -0.00411675 6.48325e-16)
(0.999341 -0.0047314 1.08725e-16)
(0.999171 -0.00548386 -9.7158e-16)
(0.998815 -0.00600058 5.1979e-16)
(0.998078 -0.00617855 -1.05912e-16)
(0.999531 0.0010493 1.80652e-17)
(0.999392 0.000641797 9.33722e-17)
(0.999277 0.000197443 9.2616e-17)
(0.999185 -0.000271532 1.80191e-16)
(0.999116 -0.000768627 -9.82154e-17)
(0.99908 -0.00128706 -2.76399e-17)
(0.999074 -0.00182386 1.99793e-16)
(0.999111 -0.00237921 2.98725e-16)
(0.999164 -0.00294779 -2.15555e-17)
(0.999264 -0.00353557 -3.61341e-16)
(0.999303 -0.00415888 -2.78216e-16)
(0.999369 -0.00475974 -4.90333e-16)
(0.999216 -0.00547888 2.06447e-17)
(0.998877 -0.00596817 2.69112e-16)
(0.998208 -0.00610663 -1.65466e-16)
(0.999492 0.00109926 -9.65935e-18)
(0.999349 0.000674687 -5.52561e-17)
(0.999233 0.000212953 1.40658e-16)
(0.999144 -0.000272493 1.47598e-17)
(0.999081 -0.000784713 -1.2503e-16)
(0.999053 -0.00131626 1.00869e-16)
(0.999057 -0.0018635 -4.82075e-17)
(0.999104 -0.00242599 2.75453e-16)
(0.999169 -0.00299825 5.09343e-16)
(0.999278 -0.00358439 7.91789e-17)
(0.999329 -0.00420108 2.40115e-16)
(0.999398 -0.00478886 2.45009e-16)
(0.999262 -0.00547645 6.07374e-17)
(0.998941 -0.00594005 -5.53704e-16)
(0.998333 -0.00604487 1.3635e-16)
(0.999452 0.00114981 1.2939e-17)
(0.999304 0.000708032 1.16379e-17)
(0.999187 0.000228785 -2.87362e-16)
(0.999101 -0.000273256 -1.2559e-16)
(0.999044 -0.000800676 1.76645e-16)
(0.999024 -0.00134536 -2.75863e-17)
(0.999038 -0.0019031 1.84601e-16)
(0.999096 -0.00247281 -2.45331e-16)
(0.999171 -0.0030489 1.39973e-16)
(0.99929 -0.0036337 1.16533e-16)
(0.999352 -0.00424399 1.2323e-16)
(0.999426 -0.0048194 1.57185e-16)
(0.999307 -0.00547713 2.19454e-16)
(0.999006 -0.00591647 3.11128e-17)
(0.998455 -0.00599179 8.01628e-17)
(0.99941 0.00120093 -3.98103e-17)
(0.999257 0.000741822 1.0539e-16)
(0.99914 0.000244934 1.65e-16)
(0.999056 -0.000273843 -1.05663e-16)
(0.999005 -0.000816582 -6.87217e-17)
(0.998993 -0.00137452 3.91332e-17)
(0.999017 -0.00194288 -2.01108e-16)
(0.999086 -0.00251999 -1.31677e-16)
(0.999172 -0.00310015 -1.73086e-16)
(0.9993 -0.00368397 2.7542e-16)
(0.999375 -0.00428812 -3.82707e-16)
(0.999455 -0.00485179 2.99686e-16)
(0.999353 -0.00548111 1.47405e-16)
(0.999073 -0.00589722 5.55745e-16)
(0.998574 -0.00594605 -5.16073e-16)
(0.999366 0.00125261 1.67985e-17)
(0.999209 0.000776045 -7.93258e-17)
(0.999091 0.000261385 5.81038e-17)
(0.999009 -0.000274286 1.28563e-16)
(0.998963 -0.000832515 -8.91698e-17)
(0.99896 -0.00140388 -1.50769e-16)
(0.998994 -0.00198308 -7.14201e-17)
(0.999073 -0.00256785 9.84832e-17)
(0.999171 -0.00315233 -4.50864e-16)
(0.999309 -0.00373553 6.66098e-17)
(0.999396 -0.00433372 2.54309e-16)
(0.999482 -0.00488605 -7.12508e-16)
(0.999399 -0.00548812 1.44485e-16)
(0.999142 -0.00588164 2.23053e-17)
(0.998691 -0.0059063 3.80357e-16)
(0.999321 0.00130483 -6.38632e-18)
(0.99916 0.000810694 9.72236e-17)
(0.99904 0.000278137 -9.39673e-17)
(0.99896 -0.0002746 -5.83476e-17)
(0.99892 -0.000848524 -9.31011e-17)
(0.998924 -0.00143356 -4.92589e-17)
(0.998968 -0.00202385 -1.06263e-16)
(0.999058 -0.00261654 7.59141e-17)
(0.999168 -0.00320556 2.9208e-17)
(0.999316 -0.00378839 -3.12564e-16)
(0.999416 -0.00438069 -3.73489e-16)
(0.99951 -0.00492187 4.15327e-16)
(0.999445 -0.00549758 -3.64029e-16)
(0.999211 -0.00586891 -1.16717e-16)
(0.998808 -0.00587098 -1.16415e-17)
(0.999274 0.00135758 -1.93247e-17)
(0.999108 0.00084576 -4.49127e-17)
(0.998987 0.000295188 3.17349e-17)
(0.998909 -0.000274783 2.26228e-16)
(0.998874 -0.000864616 3.77962e-16)
(0.998887 -0.00146356 3.08703e-16)
(0.99894 -0.0020652 3.3746e-16)
(0.999041 -0.00266603 -2.15427e-16)
(0.999162 -0.00325974 5.77178e-20)
(0.999321 -0.00384231 2.34104e-16)
(0.999434 -0.00442865 4.61643e-17)
(0.999538 -0.00495868 2.55233e-16)
(0.999491 -0.00550875 2.05923e-16)
(0.999282 -0.0058582 -5.43266e-16)
(0.998923 -0.00583923 -3.61452e-16)
(0.999225 0.00141084 9.94278e-18)
(0.999055 0.000881236 -8.11774e-17)
(0.998932 0.000312554 -1.62444e-16)
(0.998856 -0.000274802 -1.59519e-16)
(0.998826 -0.000880743 1.46705e-17)
(0.998846 -0.00149382 -1.74288e-16)
(0.99891 -0.00210702 -3.79683e-16)
(0.999022 -0.00271614 2.89985e-16)
(0.999155 -0.00331459 2.36035e-16)
(0.999326 -0.00389691 -5.21049e-16)
(0.999452 -0.0044771 4.28113e-16)
(0.999566 -0.00499587 -3.12832e-16)
(0.999538 -0.00552099 -1.44776e-16)
(0.999353 -0.00584895 -1.27471e-16)
(0.999037 -0.0058105 1.53942e-16)
(0.999175 0.00146458 3.78489e-17)
(0.999 0.000917109 1.74186e-17)
(0.998875 0.000330239 8.78604e-17)
(0.998801 -0.000274622 4.08317e-17)
(0.998776 -0.000896834 4.80626e-17)
(0.998804 -0.00152422 3.01445e-16)
(0.998878 -0.00214913 -1.36284e-16)
(0.999001 -0.00276664 1.49016e-16)
(0.999147 -0.00336978 8.56258e-17)
(0.999329 -0.00395175 5.97268e-17)
(0.999469 -0.00452558 1.99364e-16)
(0.999594 -0.00503299 -4.2603e-17)
(0.999585 -0.0055339 9.50483e-18)
(0.999424 -0.00584089 8.88901e-16)
(0.99915 -0.00578462 2.86258e-18)
(0.999123 0.00151879 -3.67379e-17)
(0.998943 0.000953363 -1.26944e-17)
(0.998817 0.00034825 5.74447e-17)
(0.998745 -0.000274204 -1.75219e-16)
(0.998725 -0.000912807 -2.80777e-16)
(0.99876 -0.00155464 -2.69154e-16)
(0.998844 -0.00219137 2.28174e-16)
(0.998979 -0.00281728 -8.35007e-17)
(0.999138 -0.00342503 9.74801e-18)
(0.999332 -0.00400656 -5.06611e-18)
(0.999487 -0.00457384 -2.7535e-16)
(0.999623 -0.00506987 -2.49469e-16)
(0.999633 -0.00554739 -1.61493e-16)
(0.999496 -0.0058341 2.4688e-17)
(0.999261 -0.00576175 -5.63585e-17)
(0.999069 0.00157343 -1.83411e-17)
(0.998884 0.000989975 4.85661e-17)
(0.998757 0.000366578 4.7803e-17)
(0.998686 -0.000273528 7.78246e-17)
(0.998671 -0.000928604 1.06495e-16)
(0.998714 -0.00158497 1.68393e-18)
(0.998808 -0.00223358 2.28089e-16)
(0.998956 -0.00286791 -5.08928e-16)
(0.999127 -0.00348017 2.59744e-16)
(0.999334 -0.00406117 2.6519e-16)
(0.999504 -0.00462181 -3.80002e-16)
(0.999653 -0.00510653 7.11368e-16)
(0.999681 -0.00556159 3.75898e-16)
(0.999568 -0.00582881 -7.0497e-16)
(0.99937 -0.00574202 -2.12435e-16)
(0.999013 0.00162849 3.79283e-17)
(0.998824 0.00102691 2.94663e-17)
(0.998695 0.000385202 4.60367e-18)
(0.998626 -0.000272592 -3.48887e-17)
(0.998616 -0.000944191 2.02487e-17)
(0.998667 -0.00161516 2.85824e-16)
(0.998772 -0.00227569 -4.60937e-17)
(0.998931 -0.00291845 3.26604e-16)
(0.999117 -0.00353518 -4.83594e-17)
(0.999336 -0.00411562 -2.9336e-16)
(0.999521 -0.00466961 6.07981e-16)
(0.999683 -0.00514322 -3.65705e-16)
(0.99973 -0.0055768 -4.96972e-16)
(0.99964 -0.00582534 2.11414e-16)
(0.999476 -0.00572563 3.57942e-16)
(0.998956 0.00168392 -3.15409e-17)
(0.998762 0.00106413 -1.33029e-17)
(0.998631 0.00040408 -1.73553e-16)
(0.998565 -0.000271427 -8.48567e-17)
(0.99856 -0.00095958 5.22841e-17)
(0.998619 -0.00164519 -2.88551e-16)
(0.998734 -0.0023177 -8.48711e-17)
(0.998906 -0.00296892 2.84675e-16)
(0.999105 -0.0035901 -2.40951e-16)
(0.999338 -0.00417003 7.07311e-17)
(0.999538 -0.00471749 -3.38548e-16)
(0.999713 -0.00518023 1.06797e-17)
(0.999779 -0.00559333 2.68983e-16)
(0.999712 -0.00582399 1.4243e-16)
(0.99958 -0.00571264 -5.61943e-17)
(0.998896 0.00173968 3.00895e-17)
(0.998698 0.00110159 -9.7677e-17)
(0.998566 0.000423161 8.20284e-17)
(0.998501 -0.000270088 5.37117e-17)
(0.998502 -0.000974818 -4.0516e-17)
(0.99857 -0.00167511 -1.73337e-16)
(0.998695 -0.00235964 5.25878e-17)
(0.99888 -0.00301939 -1.30511e-16)
(0.999093 -0.00364507 -2.20253e-16)
(0.999339 -0.0042246 -2.75674e-17)
(0.999554 -0.0047657 -4.89307e-16)
(0.999743 -0.00521792 5.01927e-16)
(0.999828 -0.00561152 3.91545e-17)
(0.999784 -0.00582506 -8.12977e-17)
(0.999681 -0.0057032 -8.00857e-18)
(0.998835 0.00179575 -3.69063e-17)
(0.998633 0.00113924 1.00553e-16)
(0.998499 0.000442377 -2.31088e-17)
(0.998437 -0.000268659 -2.1061e-16)
(0.998443 -0.00099 -1.00395e-16)
(0.998519 -0.00170501 1.16687e-16)
(0.998656 -0.00240164 -1.71321e-16)
(0.998853 -0.00306999 -1.92033e-16)
(0.99908 -0.00370027 3.27088e-16)
(0.99934 -0.00427956 1.13935e-16)
(0.999571 -0.00481455 5.13439e-16)
(0.999773 -0.00525658 -3.87056e-16)
(0.999877 -0.00563162 1.39602e-16)
(0.999855 -0.00582871 -1.5814e-16)
(0.99978 -0.00569718 5.3368e-18)
(0.998773 0.00185207 2.28431e-17)
(0.998566 0.00117702 -5.81893e-17)
(0.998431 0.000461652 7.23136e-17)
(0.998371 -0.000267242 3.1381e-16)
(0.998382 -0.00100525 1.33235e-16)
(0.998467 -0.00173504 8.27016e-17)
(0.998615 -0.00244384 3.40296e-16)
(0.998825 -0.00312092 1.6183e-16)
(0.999066 -0.0037559 -2.66772e-16)
(0.99934 -0.00433515 4.5507e-16)
(0.999586 -0.00486431 2.53484e-16)
(0.999804 -0.00529652 -2.15015e-16)
(0.999925 -0.00565385 -4.1277e-16)
(0.999926 -0.00583508 -1.61378e-16)
(0.999877 -0.00569449 6.30598e-17)
(0.998708 0.0019086 4.69031e-18)
(0.998497 0.00121488 -1.23976e-16)
(0.99836 0.000480903 -9.20457e-17)
(0.998303 -0.00026596 -2.16082e-16)
(0.99832 -0.00102074 3.47277e-17)
(0.998414 -0.00176541 -3.35867e-16)
(0.998573 -0.00248647 -3.61287e-16)
(0.998795 -0.0031724 -1.45426e-16)
(0.999051 -0.00381223 3.10088e-16)
(0.99934 -0.00439165 -3.29748e-16)
(0.999601 -0.00491525 1.16808e-16)
(0.999834 -0.00533798 2.17608e-16)
(0.999974 -0.00567837 3.31524e-16)
(0.999997 -0.00584424 2.03523e-16)
(0.999972 -0.00569486 1.74912e-17)
(0.998641 0.00196529 3.29696e-17)
(0.998427 0.00125276 2.0263e-16)
(0.998288 0.000500054 9.43503e-17)
(0.998233 -0.000264934 1.81403e-16)
(0.998256 -0.00103663 1.08747e-16)
(0.998358 -0.00179632 4.5862e-17)
(0.998529 -0.00252979 5.29392e-17)
(0.998765 -0.00322471 -1.21723e-16)
(0.999035 -0.00386954 -1.23535e-16)
(0.999338 -0.00444932 1.44933e-17)
(0.999616 -0.00496763 -7.98059e-16)
(0.999863 -0.00538118 -3.12398e-16)
(1.00002 -0.0057053 3.29671e-16)
(1.00007 -0.00585618 -7.39597e-17)
(1.00007 -0.00569809 -2.07276e-16)
(0.998573 0.00202211 -4.4313e-17)
(0.998354 0.00129062 -1.29852e-16)
(0.998214 0.000519027 -1.86574e-16)
(0.998161 -0.000264282 6.13226e-17)
(0.99819 -0.0010531 -2.0631e-16)
(0.998301 -0.001828 3.84475e-17)
(0.998483 -0.00257406 -4.76265e-17)
(0.998732 -0.00327814 -8.70309e-18)
(0.999017 -0.00392811 -1.47631e-16)
(0.999335 -0.00450843 -7.74985e-17)
(0.999629 -0.00502166 2.74755e-17)
(0.999892 -0.00542622 2.71315e-16)
(1.00007 -0.00573459 -1.37212e-16)
(1.00014 -0.00587071 2.72502e-16)
(1.00016 -0.00570369 9.74466e-17)
(0.998503 0.00207899 2.36841e-17)
(0.99828 0.00132839 1.244e-16)
(0.998138 0.000537763 2.37042e-16)
(0.998087 -0.000264097 -6.85247e-17)
(0.998122 -0.00107029 -1.66325e-17)
(0.998242 -0.00186065 2.51984e-16)
(0.998436 -0.00261951 2.14398e-16)
(0.998698 -0.00333291 -1.47015e-16)
(0.998998 -0.00398816 3.94199e-16)
(0.999331 -0.00456915 3.58037e-16)
(0.999642 -0.00507743 3.81315e-16)
(0.999921 -0.00547313 -1.76404e-17)
(1.00012 -0.00576614 -3.04219e-16)
(1.00021 -0.00588758 -3.21376e-16)
(1.00025 -0.00571125 -3.13356e-17)
(0.998431 0.00213591 -2.02947e-17)
(0.998204 0.00136604 -6.5693e-17)
(0.998061 0.000556211 -1.96475e-16)
(0.998011 -0.000264444 1.26506e-16)
(0.998052 -0.00108829 1.21449e-16)
(0.998181 -0.0018944 -1.68729e-16)
(0.998386 -0.00266628 -8.5232e-17)
(0.998662 -0.00338919 8.42369e-18)
(0.998978 -0.00404981 -1.7519e-16)
(0.999326 -0.00463154 -3.0678e-16)
(0.999653 -0.00513493 -5.66952e-16)
(0.999949 -0.00552177 6.13751e-17)
(1.00016 -0.00579966 3.71444e-16)
(1.00028 -0.0059064 3.38253e-16)
(1.00034 -0.00572025 -7.19842e-17)
(0.998357 0.00219279 -1.61502e-17)
(0.998126 0.00140353 -1.32144e-17)
(0.997981 0.000574337 1.71939e-16)
(0.997933 -0.000265353 -1.62309e-16)
(0.997979 -0.00110713 -3.20902e-16)
(0.998117 -0.00192926 1.5582e-16)
(0.998334 -0.00271441 8.84792e-17)
(0.998624 -0.00344699 4.09998e-16)
(0.998955 -0.00411304 5.86802e-17)
(0.999319 -0.00469551 2.85673e-16)
(0.999664 -0.005194 8.49615e-16)
(0.999977 -0.00557191 -2.33601e-16)
(1.00021 -0.00583483 -9.94726e-17)
(1.00034 -0.00592679 -1.18022e-17)
(1.00043 -0.00573046 -2.86696e-17)
(0.998282 0.00224961 4.51678e-17)
(0.998046 0.0014408 4.93716e-17)
(0.997899 0.000592114 -1.47879e-16)
(0.997853 -0.000266824 1.37441e-16)
(0.997904 -0.0011268 -9.25604e-17)
(0.998051 -0.0019652 -2.98156e-16)
(0.99828 -0.00276382 1.31143e-17)
(0.998584 -0.00350619 -3.5264e-17)
(0.998932 -0.0041777 -2.17614e-16)
(0.999312 -0.00476086 1.83665e-16)
(0.999675 -0.00525436 -7.93098e-16)
(1 -0.0056232 -1.44678e-17)
(1.00026 -0.00587126 -1.77699e-16)
(1.00041 -0.00594837 3.33858e-17)
(1.00052 -0.00574156 -8.4907e-17)
(0.998205 0.0023063 -1.1526e-17)
(0.997964 0.00147782 -1.17636e-17)
(0.997815 0.00060952 2.04627e-17)
(0.997771 -0.000268838 -1.52844e-16)
(0.997828 -0.0011472 -2.74612e-17)
(0.997984 -0.00200209 3.64069e-16)
(0.998225 -0.00281432 -2.65505e-16)
(0.998543 -0.00356657 -3.291e-16)
(0.998907 -0.00424351 3.52707e-16)
(0.999304 -0.00482727 -3.1947e-16)
(0.999685 -0.00531567 4.04967e-16)
(1.00003 -0.00567532 3.83982e-16)
(1.00031 -0.00590864 2.77485e-16)
(1.00048 -0.00597091 -1.85645e-16)
(1.00061 -0.00575359 -6.39967e-17)
(0.998125 0.00236282 -1.24306e-17)
(0.997881 0.00151454 -7.21852e-17)
(0.99773 0.00062653 -9.72484e-17)
(0.997687 -0.000271375 7.14095e-17)
(0.99775 -0.00116825 1.81076e-16)
(0.997915 -0.00203976 6.35533e-17)
(0.998168 -0.0028657 2.4676e-16)
(0.998501 -0.00362785 5.39676e-17)
(0.998882 -0.00431017 -4.63747e-16)
(0.999296 -0.00489442 1.62478e-16)
(0.999695 -0.00537763 -2.30021e-16)
(1.00006 -0.005728 -1.91456e-16)
(1.00035 -0.00594681 -2.58736e-16)
(1.00055 -0.00599435 4.11145e-17)
(1.0007 -0.00576668 1.54507e-16)
(0.998044 0.00241912 -1.90803e-17)
(0.997796 0.00155091 3.43824e-17)
(0.997643 0.000643113 4.15293e-17)
(0.997602 -0.000274423 -1.43134e-16)
(0.99767 -0.00118989 6.98872e-17)
(0.997845 -0.00207806 -2.12173e-16)
(0.998111 -0.00291774 -2.60063e-17)
(0.998459 -0.00368977 3.19564e-16)
(0.998856 -0.0043774 -2.04029e-16)
(0.999288 -0.00496208 -2.70003e-16)
(0.999705 -0.00544008 2.32278e-16)
(1.00009 -0.00578119 -6.9097e-17)
(1.0004 -0.0059858 -7.33208e-16)
(1.00062 -0.00601892 7.52225e-17)
(1.00079 -0.00578131 1.11141e-16)
(0.997962 0.00247515 -9.82124e-18)
(0.997709 0.00158687 3.3538e-17)
(0.997554 0.00065922 1.26404e-17)
(0.997516 -0.000278005 1.90791e-17)
(0.99759 -0.00121209 1.20609e-16)
(0.997773 -0.00211692 6.70583e-17)
(0.998052 -0.00297031 -2.21014e-16)
(0.998415 -0.00375218 -2.01932e-17)
(0.998829 -0.00444508 6.11113e-16)
(0.999279 -0.00503016 -1.96245e-16)
(0.999715 -0.00550302 -5.77772e-18)
(1.00012 -0.00583501 2.91378e-17)
(1.00045 -0.00602586 2.81957e-17)
(1.00068 -0.00604492 -5.20723e-17)
(1.00087 -0.00579777 1.75405e-17)
(0.997877 0.00253086 2.58809e-17)
(0.99762 0.00162238 -6.84124e-17)
(0.997464 0.000674797 -7.81833e-17)
(0.997428 -0.000282172 1.48963e-19)
(0.997508 -0.00123487 -1.82122e-16)
(0.997701 -0.00215634 -2.91019e-17)
(0.997993 -0.0030234 4.29129e-17)
(0.998371 -0.0038151 -4.86326e-17)
(0.998803 -0.00451326 -4.13765e-16)
(0.99927 -0.0050988 5.5159e-16)
(0.999725 -0.00556669 -3.15272e-17)
(1.00015 -0.0058898 -5.78572e-17)
(1.0005 -0.00606737 3.42158e-16)
(1.00075 -0.0060728 -3.8583e-16)
(1.00096 -0.00581646 8.23604e-18)
(0.997791 0.0025862 2.74608e-18)
(0.997529 0.00165739 8.20731e-17)
(0.997372 0.000689773 2.2068e-16)
(0.997338 -0.000287011 -5.56826e-17)
(0.997425 -0.00125834 1.18362e-16)
(0.997628 -0.00219644 -1.84041e-16)
(0.997933 -0.00307716 -2.20561e-16)
(0.998326 -0.00387869 5.30338e-18)
(0.998775 -0.00458218 2.40925e-16)
(0.999261 -0.0051683 -4.81447e-16)
(0.999735 -0.00563145 1.20122e-16)
(1.00018 -0.005946 -2.09215e-17)
(1.00055 -0.00611078 2.64339e-16)
(1.00082 -0.00610294 8.2116e-17)
(1.00104 -0.00583744 -1.29316e-16)
(0.997702 0.00264113 1.05525e-18)
(0.997437 0.00169183 -8.90784e-17)
(0.997278 0.00070408 -1.25953e-16)
(0.997247 -0.000292631 2.08549e-17)
(0.99734 -0.00128266 -2.19902e-17)
(0.997553 -0.00223742 1.67058e-16)
(0.997871 -0.00313184 3.62132e-16)
(0.998281 -0.00394328 -3.2149e-16)
(0.998747 -0.0046522 3.66066e-16)
(0.999251 -0.00523908 3.23945e-17)
(0.999744 -0.00569779 7.20248e-17)
(1.0002 -0.00600407 -1.39399e-16)
(1.00059 -0.00615648 2.70016e-16)
(1.00089 -0.00613558 1.53837e-16)
(1.00112 -0.00586081 2.03132e-16)
(0.997612 0.00269561 -8.63096e-18)
(0.997342 0.00172569 8.49734e-17)
(0.997182 0.000717648 1.55141e-16)
(0.997154 -0.000299147 5.36288e-17)
(0.997254 -0.001308 1.56955e-16)
(0.997477 -0.00227954 1.20619e-16)
(0.997809 -0.00318777 -3.25224e-16)
(0.998234 -0.00400923 6.52126e-16)
(0.998718 -0.00472375 -2.05324e-16)
(0.99924 -0.00531159 -6.83995e-17)
(0.999753 -0.00576611 -2.47954e-16)
(1.00023 -0.00606435 -1.09143e-16)
(1.00064 -0.00620466 -3.00493e-16)
(1.00095 -0.00617072 -1.11311e-16)
(1.00121 -0.00588618 4.88528e-17)
(0.99752 0.00274961 -3.06513e-17)
(0.997246 0.00175891 -9.08739e-17)
(0.997085 0.000730424 -1.08793e-17)
(0.997059 -0.000306658 1.06692e-16)
(0.997165 -0.00133453 -1.42842e-16)
(0.997399 -0.00232303 -1.04959e-16)
(0.997744 -0.00324522 4.06987e-16)
(0.998185 -0.00407689 -1.21649e-16)
(0.998688 -0.00479718 -5.20297e-16)
(0.999229 -0.00538617 7.16936e-17)
(0.999761 -0.00583668 -1.2591e-16)
(1.00026 -0.006127 2.33452e-16)
(1.00069 -0.00625529 3.7516e-16)
(1.00102 -0.00620819 3.35956e-16)
(1.00129 -0.00591323 -2.84683e-16)
(0.997427 0.00280309 1.83807e-18)
(0.997148 0.00179148 -1.75297e-17)
(0.996985 0.000742371 -7.25984e-17)
(0.996962 -0.000315237 4.52791e-17)
(0.997075 -0.00136237 -7.92075e-17)
(0.997319 -0.00236806 1.35182e-16)
(0.997678 -0.00330444 -1.16953e-16)
(0.998135 -0.00414651 4.01815e-17)
(0.998656 -0.00487273 -1.09074e-16)
(0.999216 -0.00546298 2.77825e-16)