/*--------------------------------*- C++ -*----------------------------------*\
  =========                 |
  \\      /  F ield         | OpenFOAM: The Open Source CFD Toolbox
   \\    /   O peration     | Website:  https://openfoam.org
    \\  /    A nd           | Version:  6.0
     \\/     M anipulation  |
\*---------------------------------------------------------------------------*/
FoamFile
{
    version     2.0;
    format      ascii;
    class       volVectorField;
    location    "4";
    object      U;
}
// * * * * * * * * * * * * * * * * * * * * * * * * * * * * * * * * * * * * * //

dimensions      [0 1 -1 0 0 0 0];

internalField   nonuniform List<vector> 
2000
(
(-0.00215891 0.0018571 6.42804e-20)
(-0.00794562 0.00335832 7.61543e-20)
(-0.0154488 0.0034962 -7.24784e-20)
(-0.0217184 0.0028635 -1.47438e-19)
(-0.0257669 0.00180456 -1.02595e-19)
(-0.0274549 0.000545088 1.36372e-19)
(-0.0269115 -0.000750708 7.88655e-20)
(-0.0245002 -0.00196038 -3.20855e-20)
(-0.0208116 -0.00298884 -7.93554e-20)
(-0.0160062 -0.00375399 5.75878e-20)
(-0.00266176 0.00540365 -1.5936e-19)
(-0.00859419 0.00972122 2.19483e-19)
(-0.0155492 0.0100617 2.14146e-20)
(-0.0208797 0.00814988 -1.26467e-19)
(-0.0237545 0.0049924 6.04106e-19)
(-0.0241188 0.00124841 -2.6515e-19)
(-0.0221544 -0.00260153 -2.85445e-19)
(-0.0182542 -0.00619418 3.4356e-19)
(-0.0130302 -0.00924664 -3.36358e-19)
(-0.00673915 -0.0115042 1.71145e-19)
(-0.00360267 0.00860245 2.65179e-20)
(-0.00973034 0.0153061 9.58043e-21)
(-0.0155228 0.0156591 6.56892e-19)
(-0.0189367 0.0124179 2.29644e-19)
(-0.0194501 0.00718514 4.53214e-20)
(-0.017176 0.00100848 3.74684e-19)
(-0.0123999 -0.00534525 -7.10073e-19)
(-0.00556894 -0.0112819 1.52235e-20)
(0.00266456 -0.0163187 -4.1808e-19)
(0.0118441 -0.0200266 4.5426e-19)
(-0.00485507 0.0112387 -4.9889e-20)
(-0.0110328 0.0196414 2.85971e-19)
(-0.0149119 0.0197227 -8.32275e-19)
(-0.0153449 0.0151064 -1.06972e-19)
(-0.0122689 0.00788133 -6.0941e-19)
(-0.00604543 -0.000595192 6.30056e-19)
(0.00288833 -0.0093256 -6.67074e-19)
(0.0140118 -0.0175079 4.67406e-19)
(0.0266211 -0.0244451 1.95981e-19)
(0.0399405 -0.0295328 -2.17962e-19)
(-0.00622523 0.0131192 -5.55331e-19)
(-0.0120087 0.0223173 5.51277e-21)
(-0.0130075 0.0217966 1.02614e-18)
(-0.00925132 0.0158193 3.06195e-19)
(-0.00127985 0.00680885 -9.7481e-19)
(0.0102174 -0.00367917 6.06138e-19)
(0.0246042 -0.014506 6.83222e-19)
(0.0412739 -0.0247118 -6.08293e-19)
(0.0594762 -0.0333772 4.3339e-19)
(0.077981 -0.0397313 1.07677e-19)
(-0.0074464 0.0140735 7.59242e-20)
(-0.0119827 0.0230026 1.39237e-20)
(-0.00883573 0.0215614 -1.31345e-18)
(0.000528945 0.0143633 -7.33644e-19)
(0.0148355 0.00398376 8.74253e-19)
(0.0329845 -0.00796419 -1.02253e-18)
(0.0540857 -0.02033 1.17001e-18)
(0.0774356 -0.0320939 -1.01345e-19)
(0.102273 -0.0421411 -3.28673e-19)
(0.126775 -0.0495681 -9.51161e-19)
(-0.00817347 0.0139587 -1.65064e-19)
(-0.0100975 0.021458 -3.01128e-19)
(-0.00116429 0.0188486 -3.69868e-19)
(0.0155096 0.0107568 7.8845e-19)
(0.0377971 -0.000284993 1.46169e-18)
(0.0641035 -0.0127577 -3.02271e-19)
(0.093208 -0.0256671 -7.31606e-19)
(0.12428 -0.0381114 2.23375e-19)
(0.156625 -0.0488913 -1.40482e-18)
(0.187742 -0.057057 1.53605e-18)
(-0.00798403 0.0126704 1.00921e-18)
(-0.00533758 0.0175586 -5.50426e-19)
(0.0114443 0.0136484 1.07426e-18)
(0.0374586 0.00520513 -1.75549e-18)
(0.0696451 -0.00545511 -8.38889e-19)
(0.105824 -0.017025 -1.16209e-18)
(0.144331 -0.0288369 3.38708e-19)
(0.184118 -0.04036 -9.38634e-19)
(0.224683 -0.0505326 2.04577e-18)
(0.262955 -0.0585954 5.67095e-19)
(-0.00639612 0.0101676 7.33694e-20)
(0.00340553 0.0113301 8.9606e-19)
(0.030519 0.00611266 1.78117e-18)
(0.0682467 -0.00196557 5.45017e-19)
(0.112569 -0.0109111 1.6133e-18)
(0.160632 -0.0196171 8.79712e-20)
(0.210141 -0.0277285 -3.41594e-22)
(0.259572 -0.0351293 6.51879e-19)
(0.308618 -0.0410332 5.2901e-19)
(0.35419 -0.0458949 -1.70675e-18)
(-0.00291659 0.00651154 -5.95964e-19)
(0.0172055 0.00299816 -9.98828e-19)
(0.0574813 -0.00345011 -1.45432e-18)
(0.109612 -0.0104641 3.35495e-20)
(0.168758 -0.0164391 -7.42659e-19)
(0.231498 -0.0203024 1.17171e-18)
(0.294935 -0.021583 -3.22762e-18)
(0.356781 -0.0198871 1.45189e-18)
(0.415957 -0.0144377 5.46972e-19)
(0.469089 -0.00928502 1.7053e-18)
(0.0028679 0.00191493 2.98416e-19)
(0.0368725 -0.00692931 -1.14027e-18)
(0.0932184 -0.0144995 1.01951e-18)
(0.162388 -0.02007 -3.96433e-19)
(0.239095 -0.0226728 4.31392e-19)
(0.319957 -0.0213424 9.3911e-19)
(0.402683 -0.0152653 -1.26098e-18)
(0.486311 -0.00336041 1.62353e-19)
(0.571087 0.0140224 -6.02573e-19)
(0.657979 0.0277813 1.17374e-18)
(0.0112063 -0.00321876 4.24989e-19)
(0.0627565 -0.0175295 -1.03155e-18)
(0.137679 -0.0259188 1.40982e-18)
(0.225515 -0.0298676 -8.79732e-19)
(0.320535 -0.0295743 -3.23367e-19)
(0.419187 -0.0248888 1.91537e-19)
(0.519138 -0.0158358 1.01063e-19)
(0.619237 -0.00256369 1.33589e-18)
(0.718511 0.0126864 3.83282e-19)
(0.813876 0.0221657 1.59944e-18)
(0.0221981 -0.00832045 -3.78086e-19)
(0.0948645 -0.0274251 1.331e-18)
(0.190349 -0.0357109 -1.11577e-18)
(0.297485 -0.0372124 -1.31289e-18)
(0.410022 -0.0335228 1.83677e-18)
(0.523947 -0.0254392 -1.39617e-18)
(0.636372 -0.0138318 3.68845e-19)
(0.745276 0.000346273 -2.16558e-18)
(0.848476 0.0148272 1.61878e-18)
(0.941614 0.0249954 7.81819e-20)
(0.03584 -0.0127654 -4.90982e-19)
(0.132953 -0.0350744 -4.77183e-19)
(0.250465 -0.0416392 -1.02026e-18)
(0.376802 -0.0392308 1.23694e-18)
(0.505273 -0.0309177 -6.25651e-20)
(0.631435 -0.0184173 8.0209e-19)
(0.751959 -0.0032849 1.4586e-18)
(0.864312 0.0131119 -4.48212e-19)
(0.965953 0.0290041 -1.55979e-18)
(1.05277 0.0419039 3.09109e-18)
(0.0520433 -0.0159487 -2.52688e-19)
(0.176516 -0.0390043 -3.02227e-19)
(0.316919 -0.0416749 5.49098e-19)
(0.461681 -0.0335513 -1.0231e-18)
(0.603916 -0.019197 1.74768e-19)
(0.739017 -0.00119838 1.56061e-19)
(0.863615 0.0183308 6.63268e-20)
(0.975252 0.0377937 -1.41e-20)
(1.07176 0.0559422 -1.70366e-19)
(1.14988 0.0715317 -2.61551e-18)
(0.0706196 -0.0173099 1.02644e-18)
(0.224742 -0.0379214 -7.17149e-19)
(0.388164 -0.0341875 8.90814e-21)
(0.549844 -0.0185112 -1.10291e-18)
(0.703094 0.00309242 -3.95773e-19)
(0.843569 0.0272588 3.7083e-19)
(0.968352 0.0514533 2.85804e-19)
(1.07563 0.0739936 -1.0204e-18)
(1.16415 0.0941282 8.27441e-19)
(1.23183 0.111315 -1.08518e-18)
(0.0912525 -0.0163402 4.41156e-19)
(0.276484 -0.0307699 -3.93609e-19)
(0.462203 -0.0180357 1.64568e-18)
(0.638552 0.00677923 1.69457e-19)
(0.79957 0.036345 3.8711e-19)
(0.941698 0.0666875 1.72879e-18)
(1.06301 0.0950524 -2.6482e-19)
(1.16285 0.119863 2.38761e-19)
(1.24121 0.14091 9.66364e-20)
(1.29742 0.158072 -1.23076e-19)
(0.113474 -0.0125975 3.06864e-19)
(0.330264 -0.0167772 7.43873e-19)
(0.536658 0.00739079 -8.02399e-19)
(0.72476 0.0424546 -2.73377e-19)
(0.889973 0.0800445 -3.37886e-19)
(1.03011 0.115857 5.21284e-19)
(1.14475 0.147207 -2.71027e-19)
(1.23477 0.172879 7.29547e-19)
(1.30164 0.193318 2.44562e-19)
(1.34616 0.208698 -3.99672e-19)
(0.136655 -0.00573393 -3.31081e-19)
(0.384309 0.0044953 2.95478e-19)
(0.608891 0.0421463 -6.33604e-19)
(0.805331 0.087946 2.74347e-19)
(0.97109 0.13293 -2.85326e-19)
(1.10593 0.172871 -3.56583e-19)
(1.21135 0.205522 -2.86594e-19)
(1.29002 0.230319 3.20322e-19)
(1.34494 0.24849 -6.0401e-19)
(1.37835 0.260481 3.66542e-19)
(0.160018 0.00446709 -1.17589e-19)
(0.436628 0.0330985 -2.31754e-19)
(0.676162 0.0857161 1.10542e-19)
(0.877256 0.142046 6.63049e-21)
(1.04011 0.193159 9.24044e-20)
(1.16693 0.235413 1.27106e-19)
(1.26143 0.26741 1.18166e-19)
(1.32813 0.28953 -1.56603e-19)
(1.37146 0.30389 1.33752e-19)
(1.39492 0.31121 -2.09962e-19)
(0.182669 0.018052 -6.79809e-20)
(0.485119 0.06865 -2.55441e-20)
(0.735803 0.137022 1.03004e-19)
(0.937865 0.202995 -4.72152e-20)
(1.09483 0.258462 1.27083e-19)
(1.21166 0.300944 -1.64278e-19)
(1.29442 0.330303 3.80491e-20)
(1.34937 0.348095 4.073e-20)
(1.38213 0.357382 -1.72679e-20)
(1.39727 0.359168 6.53746e-20)
(0.203641 0.0348651 -7.30131e-20)
(0.527699 0.110311 -3.34193e-19)
(0.78539 0.194457 -2.38254e-20)
(0.984986 0.26858 7.13617e-21)
(1.13372 0.326295 -4.41036e-19)
(1.23947 0.366869 5.78036e-20)
(1.31053 0.391776 -4.96732e-20)
(1.35466 0.403899 -1.2131e-19)
(1.37839 0.407232 2.55745e-19)
(1.38705 0.40305 -4.68761e-19)
(0.221952 0.0545266 -3.54162e-20)
(0.562432 0.156789 6.78445e-19)
(0.822897 0.255953 1.09916e-19)
(1.01707 0.336261 -6.01434e-19)
(1.15601 0.393982 -4.92654e-20)
(1.25044 0.430659 -5.85445e-19)
(1.31058 0.449624 4.32103e-19)
(1.34537 0.455139 -1.59264e-19)
(1.3619 0.452045 2.84107e-19)
(1.366 0.441865 -2.15041e-19)
(0.236671 0.0764271 -2.24172e-19)
(0.58766 0.20638 2.18627e-19)
(0.846819 0.319075 -1.57892e-19)
(1.03325 0.403297 1.18807e-18)
(1.16167 0.458841 5.91278e-19)
(1.24531 0.489935 -1.38545e-19)
(1.29591 0.501896 4.73706e-19)
(1.32319 0.500302 -3.12721e-19)
(1.33449 0.490703 -9.01799e-20)
(1.33586 0.474838 5.98176e-19)
(0.246975 0.0997381 -3.90349e-19)
(0.602119 0.257036 5.0401e-19)
(0.856256 0.381141 -9.96278e-19)
(1.03335 0.466878 1.42455e-19)
(1.15132 0.518287 3.24198e-19)
(1.22535 0.54253 -4.87012e-19)
(1.26823 0.546895 -5.96607e-19)
(1.29002 0.538121 2.69961e-19)
(1.29804 0.522282 -3.3132e-19)
(1.29837 0.50133 4.30145e-19)
(0.252219 0.12344 -9.82265e-20)
(0.60502 0.306463 -5.14265e-19)
(0.850952 0.439361 2.8232e-19)
(1.01788 0.524254 4.94e-19)
(1.12614 0.569919 -2.93566e-19)
(1.19227 0.586514 -2.26588e-19)
(1.22951 0.583154 -1.59486e-19)
(1.24788 0.567509 -7.70366e-20)
(1.25444 0.545974 5.23155e-21)
(1.2552 0.520744 2.14491e-19)
(0.251979 0.146367 7.86405e-20)
(0.596109 0.352244 -4.54094e-19)
(0.831289 0.49098 7.65243e-19)
(0.987902 0.572862 -4.49639e-19)
(1.08777 0.6116 1.49056e-19)
(1.14804 0.620222 -2.0428e-19)
(1.18185 0.609422 2.22085e-19)
(1.1988 0.587515 8.04206e-20)
(1.20557 0.560992 2.35673e-20)
(1.20801 0.532388 -3.3735e-20)
(0.246106 0.167273 -2.11694e-19)
(0.575692 0.391981 4.22962e-19)
(0.798251 0.533433 -1.40283e-20)
(0.944994 0.610439 -1.04147e-19)
(1.03818 0.641526 -2.20117e-19)
(1.09482 0.642297 3.77005e-20)
(1.12747 0.624705 -2.83871e-20)
(1.14497 0.59738 -8.6067e-20)
(1.15353 0.566623 9.18153e-20)
(1.15882 0.535468 1.10661e-19)
(0.234751 0.184912 1.02476e-19)
(0.54463 0.423448 -1.03139e-19)
(0.753337 0.56448 -1.68339e-20)
(0.891059 0.635107 1.26619e-19)
(0.979431 0.658228 -3.36694e-20)
(1.03475 0.651601 -8.29858e-20)
(1.06857 0.628108 -2.38617e-19)
(1.08881 0.596388 -1.06656e-19)
(1.10125 0.562229 -1.4098e-19)
(1.11097 0.529385 1.08158e-19)
(0.218383 0.198141 5.01106e-20)
(0.504296 0.444765 -1.1139e-19)
(0.698455 0.582382 1.1113e-19)
(0.828152 0.645495 -2.45906e-19)
(0.913419 0.660592 5.56328e-20)
(0.969359 0.646976 4.45875e-19)
(1.00639 0.618044 -1.38152e-19)
(1.03164 0.582151 1.56065e-19)
(1.05054 0.544463 2.3914e-19)
(1.06631 0.51065 8.8215e-19)
(0.197793 0.206038 6.08184e-19)
(0.456538 0.454581 -4.02255e-19)
(0.635882 0.586115 1.00627e-18)
(0.758449 0.641113 -1.71055e-19)
(0.84173 0.648564 8.82695e-19)
(0.899185 0.628449 5.55264e-19)
(0.940028 0.593886 -1.30027e-18)
(0.970785 0.551983 1.99162e-18)
(0.996138 0.505133 -4.24227e-19)
(1.0124 0.457588 8.46337e-19)
(0.174053 0.207967 -3.39617e-19)
(0.403639 0.452124 -2.51569e-19)
(0.568345 0.575392 2.55481e-19)
(0.684622 0.622454 -5.96405e-19)
(0.766561 0.623785 -1.86954e-18)
(0.825493 0.599572 -7.59254e-19)
(0.869211 0.562717 -6.76213e-19)
(0.903281 0.520398 3.35192e-19)
(0.93091 0.476112 2.75891e-18)
(0.947947 0.434825 -5.71427e-19)
(0.148431 0.203566 1.87545e-19)
(0.348188 0.437061 -7.68948e-19)
(0.498984 0.550207 1.67345e-19)
(0.610085 0.589826 -1.22053e-18)
(0.691718 0.586707 2.66272e-18)
(0.752928 0.56062 -3.12858e-19)
(0.800044 0.52389 1.45937e-18)
(0.837634 0.483335 -2.08335e-18)
(0.868276 0.442446 6.56974e-19)
(0.889242 0.40552 1.02755e-19)
(0.122264 0.192741 1.39181e-19)
(0.292809 0.409486 8.44058e-19)
(0.430846 0.510873 -2.49519e-18)
(0.537933 0.543609 1.20974e-18)
(0.620244 0.537542 -3.77403e-22)
(0.684539 0.511352 -4.08987e-19)
(0.735759 0.476441 5.19785e-19)
(0.77762 0.439031 -5.11668e-19)
(0.812343 0.402267 -1.75462e-18)
(0.838162 0.369407 -4.84628e-19)
(0.0968763 0.175656 4.62246e-19)
(0.240016 0.369931 5.18345e-19)
(0.366748 0.458132 2.1347e-18)
(0.47088 0.484558 -1.18905e-18)
(0.554573 0.476888 2.44978e-18)
(0.622396 0.452079 -5.26679e-19)
(0.678007 0.420279 -5.54732e-19)
(0.724382 0.386951 6.57246e-19)
(0.763463 0.354767 4.28205e-19)
(0.794196 0.326069 1.54986e-18)
(0.0735223 0.152734 -4.72526e-19)
(0.192121 0.319364 1.55452e-19)
(0.309216 0.393166 4.28397e-20)
(0.411283 0.413847 1.21695e-18)
(0.496741 0.405775 -3.03609e-18)
(0.568151 0.383623 5.17183e-19)
(0.628035 0.35603 1.13592e-18)
(0.678723 0.327576 -1.37232e-18)
(0.721929 0.300419 4.83041e-19)
(0.757231 0.276159 -2.24107e-18)
(0.0533352 0.124643 1.00995e-19)
(0.15117 0.259158 5.43677e-19)
(0.260437 0.317572 2.11322e-19)
(0.361141 0.333031 2.86836e-19)
(0.44843 0.325596 5.47818e-19)
(0.523141 0.307183 1.6273e-18)
(0.586834 0.284717 -1.99037e-18)
(0.641304 0.261821 -1.11875e-18)
(0.688092 0.240141 1.8509e-19)
(0.727349 0.220705 1.45654e-18)
(0.0372852 0.0922706 -6.11545e-19)
(0.118879 0.191046 -7.20222e-20)
(0.222217 0.23331 -6.06906e-19)
(0.32208 0.243998 8.67007e-20)
(0.410994 0.23805 -5.18484e-19)
(0.488433 0.224251 -5.91825e-19)
(0.555205 0.207653 -8.81105e-19)
(0.612692 0.190876 2.36999e-18)
(0.662319 0.175073 4.07633e-19)
(0.704716 0.160856 -6.21805e-19)
(0.0261394 0.0566955 3.30008e-19)
(0.0965836 0.117061 4.35518e-19)
(0.195947 0.142637 1.70693e-19)
(0.295339 0.148904 -9.23711e-19)
(0.385459 0.145076 -4.29463e-19)
(0.464837 0.136533 -9.25766e-20)
(0.533766 0.126351 1.80325e-19)
(0.593346 0.116112 1.44846e-19)
(0.644933 0.106499 -1.11585e-18)
(0.689507 0.0978252 6.40537e-19)
(0.0204297 0.0191381 -1.71917e-19)
(0.0852016 0.0394587 -1.95237e-19)
(0.182571 0.0480263 1.55355e-19)
(0.281755 0.0500943 1.37812e-19)
(0.372515 0.0487768 1.41174e-19)
(0.452899 0.0458862 2.15519e-19)
(0.522937 0.0424551 -1.15142e-20)
(0.583588 0.0390131 -2.82084e-19)
(0.636176 0.0357859 2.67323e-19)
(0.681863 0.0328701 -4.0203e-19)
(0.020428 -0.0190904 -1.73005e-19)
(0.0851985 -0.0393651 -1.85972e-19)
(0.182567 -0.0479117 1.71242e-19)
(0.281752 -0.0499672 3.34852e-19)
(0.372512 -0.0486419 2.22745e-19)
(0.452896 -0.0457468 -2.93338e-19)
(0.522934 -0.0423136 -1.58957e-19)
(0.583585 -0.0388714 6.95143e-20)
(0.636172 -0.0356447 1.55656e-19)
(0.68186 -0.0327292 -9.26139e-20)
(0.0261344 -0.0566485 4.12574e-19)
(0.0965744 -0.116969 -5.23396e-19)
(0.195937 -0.142523 -4.32631e-20)
(0.295328 -0.148778 2.89579e-19)
(0.385448 -0.144942 -1.30709e-18)
(0.464827 -0.136395 5.57866e-19)
(0.533755 -0.12621 5.74764e-19)
(0.593336 -0.115971 -6.77924e-19)
(0.644923 -0.106358 6.46564e-19)
(0.689497 -0.0976847 -2.84316e-19)
(0.037277 -0.0922252 -7.13912e-20)
(0.118864 -0.190957 -8.80625e-21)
(0.222201 -0.2332 -1.41012e-18)
(0.322063 -0.243875 -4.47175e-19)
(0.410977 -0.237919 -4.58012e-20)
(0.488416 -0.224114 -7.35148e-19)
(0.555188 -0.207514 1.36854e-18)
(0.612675 -0.190736 -4.87238e-20)
(0.662302 -0.174934 7.80096e-19)
(0.704699 -0.160716 -6.84341e-19)
(0.0533242 -0.124599 1.2032e-19)
(0.15115 -0.259073 -5.53956e-19)
(0.260415 -0.317466 1.70689e-18)
(0.361118 -0.332911 2.41984e-19)
(0.448406 -0.325468 1.18469e-18)
(0.523118 -0.30705 -1.15565e-18)
(0.586811 -0.284581 1.2124e-18)
(0.641281 -0.261683 -8.74692e-19)
(0.688069 -0.240003 -3.84625e-19)
(0.727326 -0.220566 3.25085e-19)
(0.0735088 -0.152694 1.06881e-18)
(0.192096 -0.319284 2.96695e-21)
(0.309188 -0.393065 -1.79072e-18)
(0.411254 -0.413733 -5.18461e-19)
(0.496712 -0.405651 1.72455e-18)
(0.568122 -0.383493 -1.00841e-18)
(0.628006 -0.355896 -1.16704e-18)
(0.678694 -0.32744 1.05022e-18)
(0.721899 -0.300283 -7.13322e-19)
(0.757202 -0.276021 -1.54029e-19)
(0.0968608 -0.175619 -1.59903e-19)
(0.239987 -0.369857 -6.95638e-21)
(0.366716 -0.458038 1.93244e-18)
(0.470846 -0.48445 1.10852e-18)
(0.554539 -0.47677 -1.30602e-18)
(0.622362 -0.451953 1.58289e-18)
(0.677973 -0.42015 -1.71219e-18)
(0.724348 -0.386819 1.71777e-19)
(0.763426 -0.354633 5.10984e-19)
(0.79416 -0.325933 1.17734e-18)
(0.122246 -0.192707 1.79238e-19)
(0.292778 -0.409418 2.86204e-19)
(0.430811 -0.510787 3.08473e-19)
(0.537897 -0.543508 -1.01501e-18)
(0.620206 -0.53743 -1.80282e-18)
(0.6845 -0.511233 3.80195e-19)
(0.73572 -0.476316 1.10642e-18)
(0.77758 -0.438903 -3.15879e-19)
(0.8123 -0.402137 1.89377e-18)
(0.83812 -0.369273 -1.84892e-18)
(0.148413 -0.203537 -1.0105e-18)
(0.348155 -0.437001 3.78928e-19)
(0.498946 -0.550128 -1.04407e-18)
(0.610046 -0.589733 1.68586e-18)
(0.691676 -0.586603 8.44393e-19)
(0.752885 -0.560507 1.19275e-18)
(0.8 -0.523771 -2.71937e-19)
(0.837589 -0.483211 1.0917e-18)
(0.868227 -0.442319 -2.30695e-18)
(0.889193 -0.405389 -6.03025e-19)
(0.174035 -0.207941 6.60917e-20)
(0.403605 -0.452071 -6.66182e-19)
(0.568306 -0.575322 -1.04297e-18)
(0.68458 -0.62237 -4.53693e-19)
(0.766517 -0.623689 -1.27749e-18)
(0.825446 -0.599467 -1.34502e-19)
(0.869163 -0.562605 1.1868e-19)
(0.903231 -0.52028 -4.96675e-19)
(0.930854 -0.47599 -5.63674e-19)
(0.947892 -0.434698 1.48154e-18)
(0.197774 -0.206016 3.05135e-19)
(0.456503 -0.454536 4.13505e-19)
(0.635842 -0.586054 7.57346e-19)
(0.758406 -0.641039 3.91529e-20)
(0.841683 -0.648478 5.18445e-19)
(0.899135 -0.628353 -6.99742e-19)
(0.939975 -0.593782 2.15486e-18)
(0.97073 -0.551872 -9.48232e-19)
(0.996074 -0.505017 -4.73093e-19)
(1.01234 -0.45747 -1.4344e-18)
(0.218364 -0.198122 -1.16032e-19)
(0.504261 -0.444726 1.68173e-19)
(0.698415 -0.58233 -1.79759e-19)
(0.828108 -0.645431 1.05857e-19)
(0.91337 -0.660516 -1.27206e-19)
(0.969307 -0.646889 -3.36339e-19)
(1.00633 -0.617949 4.40764e-19)
(1.03158 -0.582047 -1.59165e-19)
(1.05047 -0.544348 2.25648e-19)
(1.06624 -0.510541 -5.02552e-19)
(0.234732 -0.184896 1.62677e-20)
(0.544595 -0.423415 -1.69593e-19)
(0.753297 -0.564438 1.08147e-19)
(0.891014 -0.635053 9.20054e-20)
(0.979381 -0.658163 -8.64659e-20)
(1.0347 -0.651526 2.97344e-20)
(1.06851 -0.628024 -1.06833e-20)
(1.08875 -0.596295 -3.05098e-19)
(1.10118 -0.562126 -1.56138e-19)
(1.1109 -0.529274 -4.64008e-19)
(0.246087 -0.16726 -1.18422e-19)
(0.575658 -0.391954 4.23108e-19)
(0.798212 -0.533398 -2.82903e-19)
(0.94495 -0.610395 -1.5911e-19)
(1.03813 -0.641472 1.48949e-19)
(1.09476 -0.642234 -1.44199e-20)
(1.12741 -0.624633 1.57304e-20)
(1.14491 -0.597301 1.64296e-19)
(1.15345 -0.566535 -1.57952e-19)
(1.15874 -0.535373 1.50953e-21)
(0.25196 -0.146356 -2.67268e-19)
(0.596075 -0.352222 -1.78895e-19)
(0.83125 -0.490953 -4.37108e-19)
(0.987857 -0.572827 5.02114e-19)
(1.08772 -0.611557 -3.51408e-20)
(1.14798 -0.620171 1.88251e-19)
(1.18178 -0.609364 2.4677e-19)
(1.19873 -0.58745 -8.45575e-20)
(1.20549 -0.56092 -4.31899e-20)
(1.20792 -0.532309 4.46909e-20)
(0.252199 -0.12343 -1.77505e-19)
(0.604986 -0.306446 -2.28368e-19)
(0.850912 -0.43934 3.52125e-19)
(1.01783 -0.524228 -5.40642e-19)
(1.12609 -0.569887 9.44718e-20)
(1.19221 -0.586476 5.19246e-20)
(1.22944 -0.58311 9.83503e-20)
(1.2478 -0.56746 -6.27e-20)
(1.25436 -0.545919 -8.46131e-20)
(1.25511 -0.520682 -4.19809e-19)
(0.246956 -0.0997303 7.40283e-19)
(0.602084 -0.257023 -5.77797e-19)
(0.856215 -0.381125 2.56374e-20)
(1.0333 -0.46686 -7.56333e-19)
(1.15126 -0.518265 -2.24616e-19)
(1.22529 -0.542505 1.82262e-19)
(1.26816 -0.546866 1.35145e-19)
(1.28994 -0.538087 -4.55069e-19)
(1.29795 -0.522246 2.23632e-19)
(1.29827 -0.501288 -3.85821e-19)
(0.236651 -0.0764209 3.64031e-19)
(0.587624 -0.20637 -3.61558e-19)
(0.846775 -0.319064 1.31203e-18)
(1.0332 -0.403286 1.07606e-19)
(1.16161 -0.458829 2.99564e-19)
(1.24524 -0.489922 1.08942e-18)
(1.29583 -0.501882 -2.20867e-19)
(1.3231 -0.500286 6.49659e-20)
(1.33439 -0.490685 -2.2957e-20)
(1.33576 -0.474816 -5.85394e-20)
(0.221933 -0.0545218 2.79449e-19)
(0.562394 -0.156781 6.41068e-19)
(0.822849 -0.255946 -6.5922e-19)
(1.01701 -0.336256 -2.02991e-19)
(1.15595 -0.393978 -2.1703e-19)
(1.25037 -0.430657 4.20822e-19)
(1.31049 -0.449624 -2.00548e-19)
(1.34527 -0.455139 4.78342e-19)
(1.3618 -0.452047 1.20195e-19)
(1.36589 -0.441865 -2.10925e-19)
(0.203621 -0.0348618 -3.02344e-19)
(0.527659 -0.110306 2.8235e-19)
(0.785339 -0.194454 -5.82385e-19)
(0.984925 -0.268581 2.44995e-19)
(1.13365 -0.326299 -2.46485e-19)
(1.23939 -0.366878 -2.94601e-19)
(1.31044 -0.39179 -2.30152e-19)
(1.35456 -0.403916 2.54602e-19)
(1.37829 -0.407253 -4.47427e-19)
(1.38694 -0.403071 2.83963e-19)
(0.18265 -0.01805 -1.13113e-19)
(0.485078 -0.0686475 -2.23811e-19)
(0.735747 -0.137022 1.0542e-19)
(0.937797 -0.203 7.60711e-21)
(1.09475 -0.258473 8.46401e-20)
(1.21157 -0.300963 1.2177e-19)
(1.29432 -0.33033 1.04498e-19)
(1.34926 -0.348129 -1.41221e-19)
(1.38202 -0.357423 1.16156e-19)
(1.39716 -0.359211 -1.84254e-19)
(0.16 -0.00446631 -7.15729e-20)
(0.436585 -0.0330984 -2.8988e-20)
(0.676102 -0.0857197 1.0896e-19)
(0.877181 -0.142056 -4.8939e-20)
(1.04002 -0.193178 1.38072e-19)
(1.16683 -0.235441 -1.74607e-19)
(1.26132 -0.26745 4.47512e-20)
(1.32801 -0.28958 3.85767e-20)
(1.37133 -0.303949 -1.40536e-20)
(1.3948 -0.311275 6.38825e-20)
(0.136638 0.00573371 -8.59089e-20)
(0.384266 -0.00449741 -3.66827e-19)
(0.608827 -0.0421533 -3.0213e-20)
(0.805247 -0.0879608 1.20677e-20)
(0.97099 -0.132956 -5.13909e-19)
(1.10581 -0.172909 5.40714e-20)
(1.21123 -0.205573 -5.75854e-20)
(1.28989 -0.230384 -1.56591e-19)
(1.34481 -0.248567 3.46651e-19)
(1.37822 -0.260567 -6.31799e-19)
(0.113459 0.0125966 -4.8994e-20)
(0.330223 0.0167731 7.88533e-19)
(0.536591 -0.00740106 1.05699e-19)
(0.724669 -0.0424744 -7.16241e-19)
(0.889862 -0.0800767 -8.63425e-20)
(1.02998 -0.115904 -8.11381e-19)
(1.14461 -0.147271 6.30877e-19)
(1.23462 -0.172959 -2.55485e-19)
(1.30149 -0.193413 4.84172e-19)
(1.34602 -0.208805 -4.25682e-19)
(0.0912403 0.016339 -2.76906e-19)
(0.276444 0.0307641 3.26081e-19)
(0.462134 0.018022 -2.28176e-19)
(0.638455 -0.00680432 1.57658e-18)
(0.799449 -0.0363847 8.36407e-19)
(0.941557 -0.0667446 -2.18702e-19)
(1.06286 -0.0951285 8.51772e-19)
(1.16268 -0.119957 -5.55291e-19)
(1.24105 -0.141023 -1.76446e-19)
(1.29726 -0.158199 1.28626e-18)
(0.0706103 0.0173089 -5.1368e-19)
(0.224705 0.0379145 7.70716e-19)
(0.388095 0.0341707 -1.46785e-18)
(0.549744 0.0184806 2.54863e-19)
(0.702965 -0.00313997 6.3726e-19)
(0.843415 -0.0273262 -7.99536e-19)
(0.968179 -0.0515426 -1.41453e-18)
(1.07545 -0.0741045 7.57242e-19)
(1.16396 -0.0942596 -9.77276e-19)
(1.23165 -0.111461 1.56e-18)
(0.0520372 0.0159484 -1.26755e-19)
(0.176483 0.0389969 -7.76933e-19)
(0.316852 0.0416553 3.83365e-19)
(0.46158 0.0335155 9.66914e-19)
(0.603781 0.0191414 -5.1934e-19)
(0.738853 0.00111998 -5.13254e-19)
(0.863426 -0.0184341 -8.68957e-19)
(0.975048 -0.0379219 -3.93395e-19)
(1.07156 -0.0560933 -8.99354e-20)
(1.14968 -0.0716989 1.55206e-18)
(0.0358372 0.0127663 2.14727e-19)
(0.132925 0.0350675 -1.05865e-18)
(0.250401 0.0416179 1.81814e-18)
(0.376701 0.0391906 -1.0125e-18)
(0.505136 0.0308547 6.5893e-19)
(0.631263 0.0183282 -8.19128e-19)
(0.751758 0.00316716 9.12309e-19)
(0.86409 -0.0132582 7.9338e-19)
(0.965724 -0.0291758 1.70827e-18)
(1.05255 -0.0420926 -2.81831e-18)
(0.0221984 0.00832323 -6.66866e-19)
(0.0948423 0.02742 1.34489e-18)
(0.190291 0.0356894 1.90838e-20)
(0.297387 0.0371696 -4.85723e-19)
(0.409884 0.0334544 -2.57884e-19)
(0.52377 0.0253412 2.06246e-19)
(0.636161 0.0137012 -1.46821e-18)
(0.745038 -0.000509549 1.12207e-18)
(0.848226 -0.0150188 -1.44786e-18)
(0.94137 -0.025205 -6.48068e-19)
(0.0112095 0.00322397 1.15124e-18)
(0.06274 0.0175277 -3.59259e-19)
(0.137627 0.0258996 -6.77939e-19)
(0.225422 0.0298254 1.84333e-18)
(0.3204 0.0295041 -1.81327e-18)
(0.419008 0.0247862 1.01303e-18)
(0.518918 0.0156973 1.07499e-18)
(0.618984 0.00238848 2.90751e-19)
(0.718239 -0.0128928 3.00551e-19)
(0.813603 -0.0223916 -4.20171e-19)
(0.00287371 -0.00190659 -1.10317e-18)
(0.0368619 0.00693268 1.05128e-18)
(0.0931737 0.0144856 -9.31618e-19)
(0.162303 0.0200326 1.17159e-18)
(0.238965 0.0226066 -3.50122e-19)
(0.319779 0.0212427 -1.21657e-18)
(0.402457 0.0151284 3.49662e-19)
(0.486043 0.00318581 -5.68726e-19)
(0.570789 -0.0142293 -6.66334e-19)
(0.657668 -0.0280127 -2.05045e-18)
(-0.00290842 -0.00649934 -1.38295e-18)
(0.017201 -0.00298761 1.10008e-18)
(0.0574448 0.00344478 -2.15788e-18)
(0.109535 0.010436 3.86525e-19)
(0.168636 0.0163831 -1.49812e-18)
(0.231326 0.0202142 -8.99948e-19)
(0.294712 0.0214599 2.15504e-18)
(0.356506 0.0197311 -2.94633e-18)
(0.415642 0.0142534 5.66073e-19)
(0.468729 0.00908201 -9.33338e-19)
(-0.00638595 -0.0101508 6.8155e-19)
(0.00340673 -0.0113105 2.88871e-19)
(0.0304914 -0.00610657 -8.62844e-20)
(0.0681816 0.00195064 8.20398e-19)
(0.11246 0.0108697 2.41187e-18)
(0.160475 0.0195454 8.3257e-19)
(0.209933 0.0276244 8.61886e-19)
(0.259312 0.034995 -2.96628e-19)
(0.308316 0.0408749 -2.78246e-18)
(0.353848 0.0457187 7.04483e-19)
(-0.00797235 -0.0126485 -1.92842e-19)
(-0.00533127 -0.0175285 6.14104e-19)
(0.0114254 -0.0136288 -1.60753e-19)
(0.0374056 -0.00520447 1.13442e-18)
(0.0695516 0.00543089 -2.62361e-18)
(0.105686 0.0169719 2.21995e-19)
(0.144144 0.0287528 -1.24685e-18)
(0.183883 0.0402461 1.83552e-18)
(0.224406 0.0503951 -5.34926e-19)
(0.262637 0.0584377 -7.37196e-20)
(-0.00816092 -0.0139313 -1.31464e-19)
(-0.0100873 -0.0214164 -7.38e-19)
(-0.00117552 -0.0188143 1.85388e-18)
(0.0154682 -0.0107392 -9.77598e-19)
(0.0377197 0.000279191 6.94104e-20)
(0.0639855 0.0127241 3.1349e-19)
(0.0930469 0.0256033 -2.83297e-19)
(0.124074 0.0380178 3.71033e-19)
(0.15638 0.0487737 1.28245e-18)
(0.187458 0.0569174 3.23295e-19)
(-0.00743378 -0.0140405 -2.95058e-19)
(-0.0119701 -0.0229493 -3.27236e-19)
(-0.00884087 -0.0215121 -1.45109e-18)
(0.00049795 -0.0143286 7.71636e-19)
(0.0147734 -0.00397089 -1.58961e-18)
(0.0328873 0.00795029 3.61603e-19)
(0.0539507 0.0202866 4.06338e-19)
(0.0772611 0.0320209 -4.25757e-19)
(0.102063 0.0420441 -2.73922e-19)
(0.126529 0.049448 -1.22579e-18)
(-0.00621343 -0.0130808 2.30176e-19)
(-0.0119954 -0.0222529 -5.44053e-20)
(-0.0130083 -0.021733 1.34596e-21)
(-0.00927331 -0.0157682 -6.94603e-19)
(-0.00132759 -0.00677811 1.75832e-18)
(0.0101403 0.00368424 -2.73773e-19)
(0.0244952 0.0144823 -6.80853e-19)
(0.0411313 0.024659 8.32865e-19)
(0.0593029 0.0333007 -2.90325e-19)
(0.0777756 0.0396313 1.59609e-18)
(-0.00484487 -0.0111956 -4.3171e-20)
(-0.0110202 -0.0195669 -2.52294e-19)
(-0.0149098 -0.0196464 -9.91802e-20)
(-0.0153591 -0.0150409 -1.26807e-19)
(-0.0123034 -0.00783472 -2.72421e-19)
(-0.00610329 0.000617222 -8.52036e-19)
(0.00280501 0.00931968 1.0635e-18)
(0.0139014 0.0174735 6.17923e-19)
(0.0264857 0.0243876 -1.12685e-19)
(0.0397785 0.0294517 -9.75863e-19)
(-0.00359445 -0.00855551 2.45165e-19)
(-0.00971931 -0.015224 4.27224e-20)
(-0.0155188 -0.0155728 2.88913e-19)
(-0.0189441 -0.0123407 -3.22698e-20)
(-0.0194718 -0.00712576 2.62543e-19)
(-0.0172146 -0.00097269 2.94993e-19)
(-0.0124573 0.00535404 4.38981e-19)
(-0.00564633 0.0112628 -1.24217e-18)
(0.00256841 0.0162773 -2.27922e-19)
(0.0117281 0.0199614 4.07697e-19)
(-0.00265623 -0.00535467 -1.23816e-19)
(-0.00858631 -0.00963409 -1.75307e-19)
(-0.0155445 -0.00996906 -8.38736e-20)
(-0.0208812 -0.00806527 4.11161e-19)
(-0.023764 -0.00492436 1.99196e-19)
(-0.0241383 -0.00120302 4.07267e-20)
(-0.0221852 0.00262091 -8.82417e-20)
(-0.0182973 0.00618651 -6.77873e-20)
(-0.0130853 0.00921704 5.79689e-19)
(-0.00680669 0.0114505 -3.94277e-19)
(-0.00215688 -0.00180739 6.30702e-20)
(-0.00794226 -0.00326917 7.8303e-20)
(-0.0154467 -0.00340084 -6.65754e-20)
(-0.0217179 -0.00277536 -6.08145e-20)
(-0.0257685 -0.00173251 -6.2971e-20)
(-0.0274595 -0.000494977 -9.98597e-20)
(-0.0269193 0.000775753 3.51868e-21)
(-0.0245123 0.00195887 1.37798e-19)
(-0.0208273 0.00296596 -1.37348e-19)
(-0.0160277 0.0037072 2.48273e-19)
(0.0530397 -0.00774473 1.56311e-20)
(0.261472 -0.0117847 2.18245e-21)
(0.563343 -0.0102785 -5.00476e-22)
(0.739886 -0.00639239 1.75823e-22)
(0.86042 -0.00385303 6.22814e-23)
(0.925493 -0.00205285 -1.0867e-22)
(0.961343 -0.00110217 -1.90773e-22)
(0.980205 -0.000533584 6.35247e-23)
(0.989064 -0.00026371 -5.39939e-24)
(0.995246 -9.98335e-05 7.37893e-23)
(0.0746063 -0.0232156 3.09124e-20)
(0.276217 -0.03469 7.949e-21)
(0.57126 -0.0303873 -5.51408e-22)
(0.743948 -0.0189534 -5.5179e-21)
(0.862304 -0.0114832 -4.79303e-22)
(0.926342 -0.00620268 6.95309e-22)
(0.961702 -0.0033191 -7.36368e-22)
(0.980354 -0.00165043 -1.95403e-22)
(0.989129 -0.000860539 -3.89747e-22)
(0.995271 -0.00034667 -6.51564e-23)
(0.116641 -0.0393247 2.17617e-20)
(0.304987 -0.0565255 -2.40421e-20)
(0.586671 -0.0497595 2.30175e-21)
(0.751854 -0.0311413 5.7238e-21)
(0.86597 -0.0189212 -5.48832e-22)
(0.927993 -0.0102646 4.17419e-22)
(0.9624 -0.00549702 2.68565e-22)
(0.980644 -0.00275034 -7.22759e-23)
(0.989256 -0.00145022 2.66527e-22)
(0.99532 -0.000591086 -9.09913e-23)
(0.177212 -0.0563703 -4.8165e-20)
(0.346562 -0.0766815 -4.44899e-20)
(0.608902 -0.0679529 -7.9373e-21)
(0.763284 -0.042733 -2.36272e-21)
(0.871288 -0.0260529 8.06849e-21)
(0.9304 -0.0141849 -3.36452e-21)
(0.963423 -0.00761038 2.14009e-22)
(0.981072 -0.00382302 -3.11838e-22)
(0.989445 -0.00202815 3.1315e-22)
(0.995395 -0.000831559 3.67544e-23)
(0.253615 -0.0744103 1.14978e-19)
(0.399172 -0.0946579 2.96907e-20)
(0.636932 -0.084583 7.40137e-21)
(0.777729 -0.0535364 7.85646e-21)
(0.878029 -0.0327796 -6.26319e-21)
(0.933462 -0.0179175 -2.4655e-21)
(0.964729 -0.0096374 -2.1575e-21)
(0.981621 -0.00485943 -5.08187e-22)
(0.989689 -0.00259003 -7.4058e-22)
(0.995492 -0.00106673 -1.74291e-22)
(0.342645 -0.0930946 -4.37692e-20)
(0.460696 -0.110013 5.4787e-20)
(0.669549 -0.0993156 4.27042e-21)
(0.794591 -0.063393 -1.09113e-20)
(0.885931 -0.0390214 2.92868e-21)
(0.93707 -0.021425 3.49952e-21)
(0.966277 -0.011561 2.26967e-21)
(0.982276 -0.00585148 6.17283e-22)
(0.989984 -0.00313243 3.10698e-22)
(0.99561 -0.00129525 2.26365e-22)
(0.440883 -0.111861 -3.74761e-20)
(0.528776 -0.122451 -7.06161e-20)
(0.705401 -0.111917 -1.65057e-21)
(0.813196 -0.0721864 2.13763e-21)
(0.894696 -0.0447211 -3.26187e-21)
(0.941096 -0.0246793 1.04335e-21)
(0.968014 -0.0133676 -2.05352e-21)
(0.983017 -0.00679314 -6.91279e-22)
(0.990321 -0.00365236 1.16547e-22)
(0.995745 -0.00151604 8.14181e-23)
(0.544992 -0.131066 1.14332e-19)
(0.600982 -0.132496 1.37518e-20)