/*--------------------------------*- C++ -*----------------------------------*\
  =========                 |
  \\      /  F ield         | OpenFOAM: The Open Source CFD Toolbox
   \\    /   O peration     | Website:  https://openfoam.org
    \\  /    A nd           | Version:  6.0
     \\/     M anipulation  |
\*---------------------------------------------------------------------------*/
FoamFile
{
    version     2.0;
    format      ascii;
    class       volVectorField;
    location    "136";
    object      U;
}
// * * * * * * * * * * * * * * * * * * * * * * * * * * * * * * * * * * * * * //

dimensions      [0 1 -1 0 0 0 0];

internalField   nonuniform List<vector> 
34500
(
(0.999996 1.40039e-05 -4.63612e-17)
(0.999965 1.93873e-06 -8.14237e-18)
(0.999904 -2.55298e-05 1.42366e-16)
(0.999817 -7.76384e-05 -1.07793e-16)
(0.999711 -0.000162887 3.3618e-17)
(0.999596 -0.00028715 -1.01669e-16)
(0.999483 -0.000453191 -1.01186e-16)
(0.999381 -0.000664039 8.68838e-17)
(0.999299 -0.0009217 1.07501e-16)
(0.999241 -0.00124199 -6.85125e-16)
(0.999217 -0.00162406 -1.0445e-15)
(0.999214 -0.00218939 1.277e-16)
(0.999256 -0.00279117 4.37872e-16)
(1.00029 -0.00435736 -2.10762e-16)
(0.98345 -0.0139351 8.52431e-17)
(0.99999 4.70799e-05 3.24679e-17)
(0.999932 1.85869e-05 9.77157e-17)
(0.999821 -3.78638e-05 7.18279e-17)
(0.999664 -0.00013909 -3.02577e-16)
(0.999475 -0.000299738 -5.06644e-16)
(0.999271 -0.00052893 -5.51418e-17)
(0.999074 -0.000830023 2.56061e-16)
(0.998899 -0.00120751 -6.78944e-16)
(0.998762 -0.00166273 -1.79152e-16)
(0.99867 -0.00222342 6.83819e-16)
(0.998637 -0.00287516 1.26754e-15)
(0.998667 -0.00383162 -6.32944e-16)
(0.998572 -0.00480388 -9.92893e-16)
(1.00113 -0.0070116 -4.01912e-16)
(0.984104 -0.0166546 5.72287e-16)
(0.999987 8.1706e-05 1.04744e-17)
(0.999933 4.12326e-05 -1.23016e-16)
(0.999836 -2.40611e-05 -1.25292e-16)
(0.999702 -0.000128324 4.5622e-16)
(0.999541 -0.00028363 -2.86394e-17)
(0.999372 -0.00049615 -1.64279e-16)
(0.999211 -0.00076671 9.79904e-17)
(0.999072 -0.00109831 3.85506e-16)
(0.998967 -0.00148997 2.7544e-19)
(0.998903 -0.00196876 -3.94311e-16)
(0.99888 -0.00251087 -7.31055e-16)
(0.998952 -0.00331413 4.16141e-16)
(0.998585 -0.00414784 2.26886e-16)
(1.00144 -0.00583583 1.67275e-16)
(0.990204 -0.0111542 -2.64283e-16)
(0.999983 0.000116757 -1.73661e-17)
(0.999934 6.30037e-05 -9.03083e-18)
(0.999853 -1.20774e-05 4.83684e-17)
(0.999743 -0.000119666 -3.05746e-16)
(0.999614 -0.000269523 3.7275e-16)
(0.999479 -0.000465676 3.30477e-16)
(0.999352 -0.000707804 -4.00231e-16)
(0.999244 -0.000998777 -4.20827e-16)
(0.999164 -0.0013372 4.36083e-16)
(0.999119 -0.00175144 -4.7196e-16)
(0.999094 -0.00221662 -2.45365e-16)
(0.999193 -0.00291648 -3.87513e-16)
(0.998591 -0.00373071 5.47271e-16)
(1.00103 -0.00510428 -4.88861e-17)
(0.993011 -0.00951001 2.31119e-17)
(0.999976 0.000152404 -1.70545e-17)
(0.999925 8.36726e-05 1.5344e-16)
(0.999845 -6.68322e-06 6.96231e-17)
(0.999738 -0.000129116 1.69955e-16)
(0.999613 -0.000293165 4.68107e-17)
(0.999482 -0.000502517 -1.58503e-16)
(0.999358 -0.000757037 1.02718e-16)
(0.999255 -0.00106043 2.66885e-16)
(0.999176 -0.00141101 -4.18753e-16)
(0.999135 -0.00183998 -2.31725e-16)
(0.999101 -0.00232113 1.01054e-15)
(0.999228 -0.00303454 6.37868e-16)
(0.998505 -0.00393326 -2.92436e-16)
(1.00033 -0.0052023 6.0279e-16)
(0.994148 -0.0091651 -6.25098e-16)
(0.999968 0.000188773 1.83639e-17)
(0.999912 0.000104893 -9.48875e-17)
(0.99983 -1.78284e-06 -1.86525e-16)
(0.999721 -0.000141149 -5.29998e-17)
(0.999595 -0.000322641 1.09585e-16)
(0.999464 -0.000549701 -1.09019e-16)
(0.99934 -0.000822345 1.48459e-16)
(0.999238 -0.00114488 1.31485e-16)
(0.999161 -0.00151453 2.91784e-16)
(0.999124 -0.00196387 -1.00587e-16)
(0.999084 -0.00246362 2.90666e-18)
(0.999241 -0.00318168 -3.91553e-16)
(0.998487 -0.00412291 1.8496e-17)
(0.999705 -0.00526618 -4.77438e-16)
(0.994809 -0.00838975 7.84351e-17)
(0.999959 0.000225714 3.25757e-18)
(0.9999 0.000127004 -3.56166e-17)
(0.999819 5.08606e-06 -2.9048e-17)
(0.999713 -0.000148521 1.75954e-16)
(0.999594 -0.000342456 -2.20773e-16)
(0.999469 -0.000579466 2.75924e-16)
(0.999354 -0.000859489 -6.20455e-16)
(0.99926 -0.00118732 -3.70695e-16)
(0.99919 -0.00155908 -1.52008e-16)
(0.999163 -0.00200786 6.73598e-16)
(0.999118 -0.00250311 -7.71592e-16)
(0.999295 -0.0031923 2.99885e-16)
(0.99856 -0.00413509 4.60932e-16)
(0.999267 -0.00513478 -9.76828e-17)
(0.995207 -0.00759853 -1.27286e-16)
(0.999948 0.000263062 1.51259e-17)
(0.999888 0.000149568 3.23126e-17)
(0.999808 1.27085e-05 2.50536e-17)
(0.999708 -0.000154174 -1.51049e-16)
(0.999597 -0.000358679 3.2934e-16)
(0.999483 -0.000602794 -1.39826e-16)
(0.999379 -0.000886426 2.01946e-16)
(0.999295 -0.00121501 -1.46605e-16)
(0.999234 -0.00158398 3.98669e-16)
(0.999216 -0.00202699 1.78364e-16)
(0.999166 -0.00251485 2.45846e-16)
(0.999351 -0.00317279 -5.68646e-17)
(0.998663 -0.0041138 -5.09957e-16)
(0.998979 -0.00500497 1.16e-15)
(0.995486 -0.00703359 1.95827e-16)
(0.999936 0.000300767 -1.12229e-17)
(0.999873 0.00017238 9.9033e-17)
(0.999795 2.01554e-05 1.50946e-16)
(0.999699 -0.000160797 1.12053e-16)
(0.999594 -0.000377179 -4.89376e-16)
(0.999489 -0.000630366 1.41208e-16)
(0.999393 -0.000920313 3.21357e-16)
(0.999319 -0.00125309 7.74323e-16)
(0.999265 -0.00162358 -3.86499e-16)
(0.999255 -0.00206569 9.03673e-17)
(0.999199 -0.00255282 4.51148e-16)
(0.999383 -0.00318792 -3.25831e-16)
(0.99876 -0.00412563 -1.55718e-16)
(0.998799 -0.00493672 -3.88093e-16)
(0.995758 -0.00659453 8.79632e-17)
(0.999923 0.000338812 4.07104e-17)
(0.999857 0.000195513 -8.98069e-17)
(0.999778 2.76279e-05 8.86105e-18)
(0.999685 -0.000168044 -1.10313e-16)
(0.999585 -0.00039745 4.11236e-16)
(0.999486 -0.000661444 7.97492e-17)
(0.999398 -0.000960003 2.70795e-16)
(0.999332 -0.00129963 -5.74472e-16)
(0.999285 -0.00167462 4.17098e-17)
(0.999283 -0.00211838 -7.89667e-17)
(0.999224 -0.00260717 -1.40318e-16)
(0.999401 -0.00322152 4.44189e-17)
(0.998848 -0.00414529 5.98817e-16)
(0.998702 -0.00488468 -8.19789e-16)
(0.996043 -0.00620759 -2.81266e-16)
(0.999909 0.000377194 -2.62379e-17)
(0.999839 0.000219067 3.52771e-17)
(0.999761 3.55635e-05 -1.47673e-16)
(0.999669 -0.000174817 2.50258e-16)
(0.999574 -0.000417332 -3.6211e-16)
(0.999482 -0.000692321 -3.03619e-16)
(0.999401 -0.000999703 -3.39569e-16)
(0.999343 -0.00134626 3.92118e-17)
(0.999304 -0.00172567 -8.16578e-17)
(0.999309 -0.00217019 -4.26097e-16)
(0.99925 -0.00265928 -7.24657e-16)
(0.999415 -0.00325149 2.87771e-16)
(0.998929 -0.00415098 -3.3203e-16)
(0.998661 -0.00482413 9.24474e-16)
(0.996324 -0.0058664 5.59457e-17)
(0.999893 0.000415899 -2.45683e-17)
(0.999821 0.000243049 -1.04314e-16)
(0.999742 4.40947e-05 1.50887e-16)
(0.999652 -0.000180747 -2.34453e-16)
(0.999562 -0.000436098 7.69888e-17)
(0.999477 -0.000721778 4.55022e-16)
(0.999404 -0.00103755 5.55147e-17)
(0.999355 -0.0013904 -6.75235e-17)
(0.999323 -0.00177349 1.82111e-16)
(0.999337 -0.00221753 -1.57521e-16)
(0.999279 -0.00270551 -9.55619e-17)
(0.999429 -0.00327551 -6.72409e-17)
(0.999002 -0.00414499 -2.90381e-16)
(0.998655 -0.00476011 -6.33252e-16)
(0.996589 -0.00557165 1.28944e-17)
(0.999876 0.000454934 -2.17782e-18)
(0.9998 0.000267453 1.40605e-16)
(0.999722 5.31975e-05 -2.21741e-16)
(0.999635 -0.000185923 8.3514e-17)
(0.999549 -0.000453979 -9.37092e-17)
(0.999471 -0.000750276 -1.55049e-16)
(0.999407 -0.0010743 -3.89812e-17)
(0.999367 -0.00143317 3.66019e-16)
(0.999342 -0.00181961 -6.32267e-16)
(0.999365 -0.00226258 4.21944e-16)
(0.99931 -0.00274881 2.21652e-16)
(0.999443 -0.00329785 1.85391e-16)
(0.999064 -0.0041341 7.58024e-16)
(0.998668 -0.00469846 7.43923e-16)
(0.996834 -0.00531623 5.69324e-16)
(0.999858 0.000494312 8.30777e-18)
(0.999779 0.000292269 5.29175e-17)
(0.9997 6.28319e-05 1.76242e-16)
(0.999616 -0.000190459 5.58417e-17)
(0.999535 -0.000471241 1.70911e-16)
(0.999464 -0.000778312 1.68376e-16)
(0.999408 -0.00111075 -1.18743e-17)
(0.999377 -0.00147565 4.94292e-17)
(0.999361 -0.0018654 9.40769e-16)
(0.999392 -0.00230702 -1.14372e-16)
(0.999341 -0.00279097 5.45043e-16)
(0.999457 -0.00332032 -7.44388e-16)
(0.999118 -0.00412095 1.38568e-16)
(0.998692 -0.00463936 -1.37007e-15)
(0.997057 -0.00509268 -6.38681e-16)
(0.999838 0.000534058 9.94512e-18)
(0.999756 0.000317512 -1.17773e-16)
(0.999677 7.3002e-05 1.54948e-16)
(0.999595 -0.00019437 -2.24393e-16)
(0.99952 -0.000487943 1.57087e-16)
(0.999455 -0.000806015 2.0758e-17)
(0.999408 -0.00114712 1.95461e-16)
(0.999386 -0.0015182 -2.60714e-16)
(0.999378 -0.00191128 -8.41795e-16)
(0.999417 -0.00235128 2.50289e-16)
(0.999373 -0.0028323 -5.63195e-16)
(0.999473 -0.00334294 1.1364e-16)
(0.999167 -0.00410623 -4.95835e-16)
(0.998724 -0.00458203 2.70627e-16)
(0.997261 -0.0048957 -1.12268e-16)
(0.999817 0.000574196 3.32561e-17)
(0.999732 0.000343186 7.1942e-17)
(0.999653 8.36937e-05 -3.59319e-16)
(0.999574 -0.000197673 2.88755e-16)
(0.999503 -0.000504085 -2.804e-16)
(0.999445 -0.00083337 -3.73684e-16)
(0.999406 -0.00118344 -3.83806e-16)
(0.999394 -0.00156087 3.38517e-16)
(0.999394 -0.00195733 7.21238e-16)
(0.999442 -0.0023955 1.63693e-16)
(0.999405 -0.00287291 9.52152e-17)
(0.99949 -0.00336562 7.05958e-17)
(0.999211 -0.00409057 -7.413e-16)
(0.99876 -0.0045264 6.55717e-17)
(0.997447 -0.00472123 6.53651e-16)
(0.999795 0.000614758 -8.97068e-17)
(0.999706 0.000369303 -9.24678e-17)
(0.999628 9.48958e-05 3.43201e-17)
(0.999551 -0.000200386 -2.64679e-16)
(0.999485 -0.000519652 -1.79936e-17)
(0.999434 -0.000860297 4.82567e-16)
(0.999403 -0.00121957 5.51966e-17)
(0.9994 -0.00160351 3.04908e-16)
(0.999409 -0.00200342 -6.04849e-16)
(0.999466 -0.00243957 -3.1094e-16)
(0.999437 -0.00291269 4.46998e-16)
(0.99951 -0.00338814 -1.50171e-16)
(0.999253 -0.00407434 4.89172e-16)
(0.998801 -0.00447236 7.63129e-16)
(0.997618 -0.00456582 -6.17449e-17)
(0.999771 0.000655768 2.81031e-17)
(0.999679 0.000395859 1.14843e-17)
(0.999601 0.000106569 1.15736e-16)
(0.999527 -0.000202566 2.26221e-18)
(0.999465 -0.000534659 9.90177e-17)
(0.999422 -0.000886716 -2.90181e-16)
(0.999399 -0.00125534 5.99586e-16)
(0.999405 -0.00164586 -1.539e-16)
(0.999423 -0.00204923 6.54622e-16)
(0.999488 -0.00248323 -3.42734e-16)
(0.999469 -0.00295139 -5.46401e-16)
(0.999533 -0.00341018 5.28372e-16)
(0.999295 -0.00405773 -8.94251e-16)
(0.998846 -0.0044199 -1.32565e-15)
(0.997775 -0.00442703 -3.39648e-16)
(0.999746 0.000697254 3.12903e-18)
(0.99965 0.000422862 1.95134e-17)
(0.999573 0.000118679 -3.12462e-17)
(0.999501 -0.00020428 1.58868e-16)
(0.999445 -0.000549156 1.08992e-16)
(0.999408 -0.000912591 -4.27515e-17)
(0.999394 -0.00129059 -3.61412e-16)
(0.99941 -0.0016877 -3.48545e-16)
(0.999437 -0.00209451 -2.35725e-16)
(0.999511 -0.00252623 4.34729e-16)
(0.999502 -0.00298887 3.37267e-16)
(0.999558 -0.00343158 -4.96825e-16)
(0.999338 -0.0040411 1.10769e-15)
(0.998894 -0.00436937 1.3965e-15)
(0.997923 -0.00430313 4.77371e-17)
(0.99972 0.000739235 3.57789e-17)
(0.99962 0.000450302 -4.7634e-17)
(0.999543 0.000131168 2.29665e-16)
(0.999474 -0.000205644 -4.57528e-17)
(0.999424 -0.000563278 -1.74668e-16)
(0.999394 -0.00093802 7.40727e-17)
(0.999388 -0.00132534 -1.29998e-16)
(0.999414 -0.00172898 2.94282e-16)
(0.99945 -0.00213921 7.74016e-17)
(0.999532 -0.00256864 5.41521e-17)
(0.999534 -0.00302534 -2.58663e-16)
(0.999586 -0.00345262 3.44e-16)
(0.999381 -0.00402514 1.75976e-16)
(0.998946 -0.00432145 1.58167e-16)
(0.998062 -0.00419288 4.05062e-16)
(0.999692 0.000781733 -1.83934e-17)
(0.999589 0.000478183 2.7268e-17)
(0.999511 0.00014399 -3.72285e-16)
(0.999446 -0.000206776 -2.38243e-16)
(0.999401 -0.000577207 3.29822e-16)
(0.999379 -0.000963204 -8.93172e-17)
(0.999382 -0.00135976 5.21925e-16)
(0.999417 -0.00176987 -1.41765e-16)
(0.999463 -0.0021835 -7.53455e-18)
(0.999554 -0.00261069 -1.50581e-16)
(0.999567 -0.00306121 3.87127e-16)
(0.999615 -0.00347375 -2.44466e-16)
(0.999426 -0.00401054 -8.06425e-16)
(0.999003 -0.00427671 -1.93043e-16)
(0.998195 -0.00409493 -4.6232e-16)
(0.999663 0.000824754 2.47601e-17)
(0.999556 0.000506492 1.12657e-16)
(0.999478 0.00015709 3.35546e-16)
(0.999415 -0.000207808 2.60484e-16)
(0.999376 -0.000591167 -3.21176e-17)
(0.999362 -0.000988436 -1.30509e-16)
(0.999374 -0.00139418 -5.77795e-16)
(0.999419 -0.00181069 -6.72063e-17)
(0.999475 -0.00222772 -3.43534e-16)
(0.999574 -0.00265278 1.11351e-16)
(0.999599 -0.00309697 -7.09584e-16)
(0.999646 -0.00349543 3.42924e-16)
(0.999472 -0.0039979 1.16166e-15)
(0.999063 -0.00423554 -9.00542e-16)
(0.998323 -0.00400805 5.38494e-16)
(0.999632 0.000868312 -1.99652e-17)
(0.999521 0.000535233 -1.58513e-16)
(0.999443 0.00017044 -1.92041e-16)
(0.999383 -0.000208839 -9.58055e-17)
(0.99935 -0.000605357 -6.13739e-17)
(0.999344 -0.00101401 8.42833e-17)
(0.999365 -0.00142897 -3.22865e-17)
(0.99942 -0.00185184 -4.43658e-16)
(0.999486 -0.00227226 -1.30657e-16)
(0.999593 -0.00269531 -3.29228e-17)
(0.99963 -0.00313307 6.45871e-16)
(0.999678 -0.00351805 1.08222e-16)
(0.999519 -0.00398756 -9.65746e-16)
(0.999126 -0.00419806 5.15204e-16)
(0.998447 -0.00393085 -1.04167e-16)
(0.9996 0.0009124 1.8035e-17)
(0.999485 0.000564395 9.32008e-17)
(0.999406 0.000184016 9.24299e-17)
(0.999349 -0.00020994 1.798e-16)
(0.999321 -0.000619939 -9.79881e-17)
(0.999323 -0.00104021 -2.75704e-17)
(0.999354 -0.00146449 1.99268e-16)
(0.999419 -0.00189375 2.97891e-16)
(0.999495 -0.00231757 -2.14802e-17)
(0.999612 -0.00273874 -3.60122e-16)
(0.99966 -0.00316994 -2.77148e-16)
(0.999711 -0.00354191 -4.88052e-16)
(0.999567 -0.00397976 2.05336e-17)
(0.999192 -0.00416424 2.667e-16)
(0.998569 -0.00386209 -1.62717e-16)
(0.999567 0.000957022 -9.64326e-18)
(0.999447 0.00059398 -5.5154e-17)
(0.999367 0.000197827 1.40372e-16)
(0.999313 -0.000211117 1.47261e-17)
(0.99929 -0.00063497 -1.24737e-16)
(0.9993 -0.00106718 1.00618e-16)
(0.99934 -0.00150099 -4.80812e-17)
(0.999416 -0.00193674 2.74667e-16)
(0.999503 -0.00236399 5.07777e-16)
(0.999628 -0.00278334 7.89156e-17)
(0.999689 -0.00320786 2.39174e-16)
(0.999744 -0.0035671 2.43864e-16)
(0.999616 -0.00397441 6.03762e-17)
(0.999261 -0.00413375 -5.4872e-16)
(0.998689 -0.00380036 1.34061e-16)
(0.999532 0.00100216 1.2917e-17)
(0.999408 0.000623976 1.16164e-17)
(0.999327 0.000211882 -2.86777e-16)
(0.999275 -0.000212335 -1.25315e-16)
(0.999257 -0.000650416 1.76229e-16)
(0.999274 -0.00109493 -2.7517e-17)
(0.999324 -0.00153856 1.84103e-16)
(0.999411 -0.00198093 -2.44628e-16)
(0.999509 -0.00241163 1.39529e-16)
(0.999644 -0.00282921 1.16133e-16)
(0.999717 -0.00324682 1.2273e-16)
(0.999778 -0.00359348 1.56434e-16)
(0.999666 -0.00397121 2.1809e-16)
(0.999332 -0.00410605 3.08412e-17)
(0.998808 -0.00374445 7.88021e-17)
(0.999495 0.0010478 -3.97427e-17)
(0.999368 0.000654378 1.05193e-16)
(0.999285 0.000226212 1.64662e-16)
(0.999235 -0.000213503 -1.05429e-16)
(0.999222 -0.000666125 -6.85586e-17)
(0.999247 -0.00112328 3.90336e-17)
(0.999306 -0.001577 -2.00565e-16)
(0.999404 -0.00202615 -1.31292e-16)
(0.999513 -0.00246033 -1.72547e-16)
(0.999658 -0.00287611 2.74449e-16)
(0.999744 -0.00328655 -3.81172e-16)
(0.999812 -0.00362063 2.98222e-16)
(0.999716 -0.00396964 1.46471e-16)
(0.999405 -0.00408057 5.50642e-16)
(0.998927 -0.00369324 -5.0737e-16)
(0.999457 0.00109392 1.67698e-17)
(0.999325 0.000685162 -7.91766e-17)
(0.999242 0.000240828 5.79829e-17)
(0.999193 -0.00021453 1.28276e-16)
(0.999185 -0.000681909 -8.89551e-17)
(0.999218 -0.00115194 -1.50382e-16)
(0.999287 -0.001616 -7.12246e-17)
(0.999396 -0.00207207 9.8195e-17)
(0.999516 -0.00250969 -4.49416e-16)
(0.999671 -0.00292364 6.63618e-17)
(0.99977 -0.00332664 2.53267e-16)
(0.999846 -0.0036481 -7.09002e-16)
(0.999768 -0.00396926 1.43549e-16)
(0.999479 -0.00405689 2.20795e-17)
(0.999044 -0.00364624 3.73909e-16)
(0.999418 0.0011405 -6.37534e-18)
(0.999282 0.000716308 9.70386e-17)
(0.999198 0.000255743 -9.37726e-17)
(0.99915 -0.000215328 -5.82166e-17)
(0.999147 -0.000697568 -9.28728e-17)
(0.999187 -0.00118063 -4.91281e-17)
(0.999266 -0.00165515 -1.05966e-16)
(0.999386 -0.00211822 7.56869e-17)
(0.999518 -0.00255925 2.91233e-17)
(0.999684 -0.0029713 -3.11438e-16)
(0.999796 -0.00336665 -3.71938e-16)
(0.999881 -0.0036755 4.1326e-16)
(0.99982 -0.00396972 -3.61676e-16)
(0.999555 -0.00403478 -1.15643e-16)
(0.99916 -0.00360295 -1.14522e-17)
(0.999377 0.0011875 -1.92912e-17)
(0.999237 0.000747776 -4.48275e-17)
(0.999152 0.000270927 3.16675e-17)
(0.999106 -0.000215871 2.25712e-16)
(0.999108 -0.000712983 3.77038e-16)
(0.999156 -0.0012091 3.07895e-16)
(0.999244 -0.00169415 3.3651e-16)
(0.999375 -0.00216423 -2.14772e-16)
(0.99952 -0.00260863 6.81827e-20)
(0.999696 -0.00301876 2.33238e-16)
(0.999822 -0.00340633 4.59773e-17)
(0.999917 -0.00370266 2.53929e-16)
(0.999873 -0.00397095 2.04571e-16)
(0.999632 -0.00401422 -5.38139e-16)
(0.999274 -0.00356332 -3.55263e-16)
(0.999334 0.00123491 9.92551e-18)
(0.999191 0.000779531 -8.10212e-17)
(0.999105 0.000286343 -1.62099e-16)
(0.999061 -0.000216176 -1.59155e-16)
(0.999068 -0.000728121 1.46303e-17)
(0.999124 -0.00123725 -1.73827e-16)
(0.999222 -0.00173283 -3.78602e-16)
(0.999364 -0.00220992 2.89093e-16)
(0.999521 -0.00265762 2.35249e-16)
(0.999708 -0.00306586 -5.191e-16)
(0.999848 -0.0034456 4.26274e-16)
(0.999954 -0.00372959 -3.11232e-16)
(0.999927 -0.00397302 -1.43818e-16)
(0.999709 -0.00399533 -1.2624e-16)
(0.999387 -0.00352718 1.51299e-16)
(0.99929 0.00128268 3.77823e-17)
(0.999143 0.000811527 1.73849e-17)
(0.999056 0.000301919 8.76732e-17)
(0.999015 -0.00021633 4.07354e-17)
(0.999028 -0.000743066 4.79374e-17)
(0.999091 -0.00126516 3.00631e-16)
(0.999199 -0.00177122 -1.35882e-16)
(0.999352 -0.0022553 1.48543e-16)
(0.999522 -0.00270628 8.53337e-17)
(0.99972 -0.00311266 5.95127e-17)
(0.999874 -0.00348463 1.98476e-16)
(0.99999 -0.00375653 -4.23803e-17)
(0.999981 -0.00397616 9.44149e-18)
(0.999787 -0.00397834 8.80355e-16)
(0.999498 -0.00349462 2.81487e-18)
(0.999245 0.00133079 -3.66731e-17)
(0.999094 0.000843731 -1.26696e-17)
(0.999006 0.000317594 5.73202e-17)
(0.998968 -0.000216436 -1.74808e-16)
(0.998986 -0.000757952 -2.80067e-16)
(0.999057 -0.00129297 -2.68424e-16)
(0.999175 -0.00180948 2.27511e-16)
(0.99934 -0.00230053 -8.32446e-17)
(0.999522 -0.00275476 9.71209e-18)
(0.999732 -0.00315938 -5.03497e-18)
(0.999899 -0.00352367 -2.7415e-16)
(1.00003 -0.00378373 -2.4814e-16)
(1.00004 -0.00398062 -1.6039e-16)
(0.999865 -0.00396343 2.44232e-17)
(0.999607 -0.00346553 -5.53753e-17)
(0.999198 0.00137923 -1.83083e-17)
(0.999043 0.000876106 4.84703e-17)
(0.998955 0.000333297 4.7698e-17)
(0.998919 -0.000216614 7.76405e-17)
(0.998942 -0.000772959 1.06222e-16)
(0.999022 -0.0013209 1.67924e-18)
(0.99915 -0.00184785 2.27409e-16)
(0.999327 -0.00234588 -5.07287e-16)
(0.999522 -0.00280336 2.58823e-16)
(0.999744 -0.0032063 2.64156e-16)
(0.999924 -0.00356303 -3.78298e-16)
(1.00006 -0.0038115 7.07546e-16)
(1.00009 -0.00398663 3.7331e-16)
(0.999942 -0.00395078 -6.98079e-16)
(0.999713 -0.00343996 -2.0871e-16)
(0.999149 0.00142798 3.78603e-17)
(0.99899 0.000908636 2.94073e-17)
(0.998901 0.000348987 4.59246e-18)
(0.998868 -0.000216952 -3.4805e-17)
(0.998897 -0.000788229 2.01945e-17)
(0.998985 -0.00134915 2.85021e-16)
(0.999123 -0.00188658 -4.59585e-17)
(0.999312 -0.00239159 3.25543e-16)
(0.99952 -0.00285232 -4.81985e-17)
(0.999754 -0.00325367 -2.92187e-16)
(0.999949 -0.00360296 6.05206e-16)
(1.0001 -0.0038401 -3.63728e-16)
(1.00014 -0.00399437 -4.93511e-16)
(1.00002 -0.00394053 2.09331e-16)
(0.999817 -0.00341774 3.51656e-16)
(0.999099 0.00147702 -3.14839e-17)
(0.998936 0.000941298 -1.32769e-17)
(0.998846 0.000364627 -1.73168e-16)
(0.998816 -0.000217522 -8.46504e-17)
(0.998851 -0.000803881 5.21447e-17)
(0.998947 -0.00137788 -2.87738e-16)
(0.999096 -0.00192584 -8.46135e-17)
(0.999296 -0.00243789 2.83727e-16)
(0.999518 -0.00290188 -2.40084e-16)
(0.999764 -0.00330172 7.04566e-17)
(0.999973 -0.00364372 -3.36998e-16)
(1.00014 -0.00386976 1.06172e-17)
(1.0002 -0.00400406 2.67097e-16)
(1.0001 -0.00393283 1.41006e-16)
(0.99992 -0.00339891 -5.52015e-17)
(0.999048 0.00152635 3.00347e-17)
(0.99888 0.000974094 -9.74798e-17)
(0.998789 0.000380215 8.18453e-17)
(0.998761 -0.000218344 5.35818e-17)
(0.998802 -0.000819967 -4.04106e-17)
(0.998906 -0.00140718 -1.72838e-16)
(0.999066 -0.00196577 5.24235e-17)
(0.999279 -0.00248492 -1.30081e-16)
(0.999514 -0.00295219 -2.19441e-16)
(0.999773 -0.00335063 -2.74447e-17)
(0.999997 -0.0036855 -4.87011e-16)
(1.00018 -0.00390069 4.99108e-16)
(1.00025 -0.00401582 3.88757e-17)
(1.00017 -0.00392775 -8.04877e-17)
(1.00002 -0.00338318 -7.86556e-18)
(0.998994 0.00157594 -3.68385e-17)
(0.998822 0.00100701 1.00349e-16)
(0.998731 0.000395743 -2.30568e-17)
(0.998705 -0.000219429 -2.10089e-16)
(0.998751 -0.000836514 -1.00127e-16)
(0.998864 -0.00143711 1.16351e-16)
(0.999035 -0.00200644 -1.70783e-16)
(0.99926 -0.00253278 -1.91382e-16)
(0.999509 -0.0030034 3.25871e-16)
(0.999782 -0.00340056 1.13471e-16)
(1.00002 -0.00372846 5.11006e-16)
(1.00021 -0.00393305 -3.84885e-16)
(1.00031 -0.00402975 1.38592e-16)
(1.00025 -0.0039253 -1.56537e-16)
(1.00012 -0.00337038 5.24198e-18)
(0.99894 0.00162581 2.28009e-17)
(0.998763 0.00104006 -5.80702e-17)
(0.99867 0.000411226 7.21487e-17)
(0.998647 -0.000220757 3.13032e-16)
(0.998699 -0.000853505 1.32873e-16)
(0.998821 -0.00146766 8.24598e-17)
(0.999002 -0.00204788 3.39216e-16)
(0.99924 -0.00258153 1.61271e-16)
(0.999503 -0.00305558 -2.65766e-16)
(0.999789 -0.00345159 4.53153e-16)
(1.00004 -0.00377271 2.52252e-16)
(1.00025 -0.00396691 -2.13788e-16)
(1.00036 -0.00404584 -4.09762e-16)
(1.00033 -0.00392535 -1.59721e-16)
(1.00022 -0.00336002 6.19237e-17)
(0.998883 0.00167594 4.6816e-18)
(0.998702 0.00107322 -1.23719e-16)
(0.998608 0.000426662 -9.18346e-17)
(0.998587 -0.000222319 -2.1554e-16)
(0.998644 -0.000870933 3.46307e-17)
(0.998775 -0.00149883 -3.3487e-16)
(0.998968 -0.00209011 -3.60131e-16)
(0.999218 -0.00263121 -1.44922e-16)
(0.999495 -0.00310881 3.08902e-16)
(0.999795 -0.0035038 -3.28349e-16)
(1.00006 -0.00381832 1.16218e-16)
(1.00028 -0.00400233 2.16341e-16)
(1.00041 -0.00406403 3.29088e-16)
(1.0004 -0.00392774 2.01429e-16)
(1.00031 -0.00335182 1.71712e-17)
(0.998825 0.00172633 3.29074e-17)
(0.99864 0.00110651 2.02208e-16)
(0.998544 0.000442064 9.41318e-17)
(0.998525 -0.000224095 1.80945e-16)
(0.998588 -0.000888772 1.08443e-16)
(0.998727 -0.00153061 4.57311e-17)
(0.998932 -0.00213313 5.277e-17)
(0.999195 -0.00268183 -1.21291e-16)
(0.999486 -0.00316309 -1.23061e-16)
(0.9998 -0.00355719 1.44312e-17)
(1.00008 -0.00386527 -7.94122e-16)
(1.00032 -0.00403919 -3.10565e-16)
(1.00047 -0.0040841 3.27206e-16)
(1.00048 -0.00393213 -7.31871e-17)
(1.00041 -0.00334524 -2.03496e-16)
(0.998766 0.00177696 -4.42291e-17)
(0.998575 0.0011399 -1.29579e-16)
(0.998479 0.000457424 -1.86138e-16)
(0.998461 -0.000226083 6.11654e-17)
(0.998531 -0.000907013 -2.05739e-16)
(0.998678 -0.00156298 3.83369e-17)
(0.998894 -0.00217691 -4.74679e-17)
(0.99917 -0.00273338 -8.66775e-18)
(0.999476 -0.00321839 -1.47051e-16)
(0.999804 -0.00361172 -7.71573e-17)
(1.0001 -0.00391344 2.73494e-17)
(1.00036 -0.00407735 2.69699e-16)
(1.00052 -0.00410581 -1.36196e-16)
(1.00055 -0.0039382 2.69637e-16)
(1.0005 -0.00334004 9.5662e-17)
(0.998705 0.00182784 2.36388e-17)
(0.998509 0.00117341 1.24136e-16)
(0.998411 0.000472747 2.36484e-16)
(0.998396 -0.000228271 -6.83489e-17)
(0.998471 -0.000925633 -1.65867e-17)
(0.998627 -0.00159591 2.51217e-16)
(0.998854 -0.00222141 2.13687e-16)
(0.999144 -0.00278579 -1.46477e-16)
(0.999465 -0.00327464 3.92628e-16)
(0.999808 -0.00366725 3.56445e-16)
(1.00012 -0.00396267 3.79382e-16)
(1.00039 -0.00411657 -1.75416e-17)
(1.00057 -0.00412884 -3.01911e-16)
(1.00063 -0.00394564 -3.17972e-16)
(1.0006 -0.00333583 -3.07542e-17)
(0.998643 0.00187896 -2.02557e-17)
(0.998442 0.00120703 -6.55532e-17)
(0.998342 0.000488019 -1.96008e-16)
(0.998329 -0.000230666 1.26176e-16)
(0.99841 -0.000944627 1.21102e-16)
(0.998575 -0.00162938 -1.68206e-16)
(0.998813 -0.0022666 -8.49475e-17)
(0.999116 -0.002839 8.40282e-18)
(0.999452 -0.00333173 -1.74494e-16)
(0.999811 -0.00372364 -3.05405e-16)
(1.00014 -0.00401279 -5.64029e-16)
(1.00043 -0.00415665 6.09917e-17)
(1.00063 -0.004153 3.68578e-16)
(1.0007 -0.00395427 3.34634e-16)
(1.00069 -0.00333268 -7.06398e-17)
(0.998578 0.00193033 -1.61187e-17)
(0.998372 0.00124074 -1.3186e-17)
(0.998272 0.000503242 1.71526e-16)
(0.998261 -0.000233259 -1.61883e-16)
(0.998347 -0.000963971 -3.1998e-16)
(0.998521 -0.00166334 1.55335e-16)
(0.998771 -0.00231239 8.81767e-17)
(0.999087 -0.00289289 4.08479e-16)
(0.999439 -0.00338953 5.84334e-17)
(0.999813 -0.00378074 2.84365e-16)
(1.00016 -0.00406362 8.45185e-16)
(1.00046 -0.00419744 -2.32163e-16)
(1.00068 -0.00417813 -9.87145e-17)
(1.00078 -0.00396398 -1.1685e-17)
(1.00079 -0.0033305 -2.8125e-17)
(0.998513 0.00198195 4.50792e-17)
(0.998301 0.00127456 4.92642e-17)
(0.998199 0.000518404 -1.47521e-16)
(0.998191 -0.000236058 1.37076e-16)
(0.998282 -0.000983658 -9.22864e-17)
(0.998465 -0.00169776 -2.97209e-16)
(0.998727 -0.00235873 1.30655e-17)
(0.999057 -0.00294739 -3.51354e-17)
(0.999424 -0.00344795 -2.16717e-16)
(0.999815 -0.00383845 1.828e-16)
(1.00018 -0.00411508 -7.88908e-16)
(1.0005 -0.00423888 -1.43752e-17)
(1.00074 -0.00420421 -1.7631e-16)
(1.00085 -0.00397482 3.30117e-17)
(1.00088 -0.00332955 -8.32955e-17)
(0.998445 0.00203384 -1.15033e-17)
(0.998229 0.00130848 -1.17383e-17)
(0.998125 0.000533508 2.04133e-17)
(0.998119 -0.000239055 -1.52435e-16)
(0.998216 -0.00100367 -2.7374e-17)
(0.998408 -0.0017326 3.62907e-16)
(0.998682 -0.00240557 -2.64578e-16)
(0.999026 -0.00300243 -3.27842e-16)
(0.999409 -0.00350691 3.51219e-16)
(0.999816 -0.00389671 -3.17985e-16)
(1.0002 -0.00416715 4.02807e-16)
(1.00054 -0.00428099 3.81542e-16)
(1.00079 -0.0042313 2.75268e-16)
(1.00093 -0.00398689 -1.83615e-16)
(1.00097 -0.00332989 -6.27679e-17)
(0.998376 0.00208598 -1.24058e-17)
(0.998154 0.00134249 -7.20257e-17)
(0.998049 0.00054854 -9.70074e-17)
(0.998045 -0.000242262 7.12161e-17)
(0.998148 -0.00102401 1.80542e-16)
(0.99835 -0.00176787 6.33445e-17)
(0.998635 -0.00245289 2.45888e-16)
(0.998994 -0.00305801 5.37672e-17)
(0.999393 -0.00356644 -4.61777e-16)
(0.999817 -0.00395557 1.61696e-16)
(1.00022 -0.00421991 -2.28768e-16)
(1.00057 -0.00432392 -1.90241e-16)
(1.00084 -0.00425959 -2.56668e-16)
(1.001 -0.00400041 4.06558e-17)
(1.00107 -0.00333184 1.51569e-16)
(0.998305 0.00213842 -1.90417e-17)
(0.998078 0.00137662 3.43062e-17)
(0.997971 0.000563505 4.14277e-17)
(0.997969 -0.000245678 -1.42742e-16)
(0.998079 -0.00104467 6.96788e-17)
(0.99829 -0.00180355 -2.11478e-16)
(0.998588 -0.00250071 -2.59158e-17)
(0.998961 -0.00311415 3.18313e-16)
(0.999377 -0.00362657 -2.03139e-16)
(0.999817 -0.00401511 -2.68709e-16)
(1.00024 -0.0042735 2.31004e-16)
(1.00061 -0.00436785 -6.86544e-17)
(1.0009 -0.00428926 -7.27238e-16)
(1.00108 -0.00401556 7.43757e-17)
(1.00116 -0.00333544 1.09011e-16)
(0.998233 0.00219114 -9.80104e-18)
(0.998 0.00141085 3.34626e-17)
(0.997892 0.00057839 1.26099e-17)
(0.997892 -0.000249325 1.90283e-17)
(0.998008 -0.0010657 1.20242e-16)
(0.998229 -0.0018397 6.6837e-17)
(0.998539 -0.00254907 -2.20212e-16)
(0.998927 -0.00317092 -2.01179e-17)
(0.999359 -0.00368742 6.08441e-16)
(0.999817 -0.00407549 -1.95283e-16)
(1.00025 -0.00432813 -5.74765e-18)
(1.00064 -0.00441301 2.89415e-17)
(1.00095 -0.00432053 2.79983e-17)
(1.00115 -0.00403253 -5.14925e-17)
(1.00125 -0.00334088 1.72041e-17)
(0.998158 0.00224419 2.5828e-17)
(0.99792 0.0014452 -6.82575e-17)
(0.99781 0.000593199 -7.79835e-17)
(0.997813 -0.000253211 1.50101e-19)
(0.997936 -0.0010871 -1.81563e-16)
(0.998166 -0.00187635 -2.90035e-17)
(0.998489 -0.00259805 4.27597e-17)
(0.998892 -0.00322843 -4.84406e-17)
(0.999341 -0.00374914 -4.11934e-16)
(0.999816 -0.00413689 5.48857e-16)
(1.00027 -0.00438398 -3.1351e-17)
(1.00068 -0.00445961 -5.74769e-17)
(1.00101 -0.00435356 3.39345e-16)
(1.00122 -0.00405141 -3.81441e-16)
(1.00134 -0.00334805 8.07802e-18)
(0.998082 0.00229756 2.74043e-18)
(0.997838 0.00147968 8.18857e-17)
(0.997727 0.000607918 2.20116e-16)
(0.997733 -0.000257367 -5.55237e-17)
(0.997861 -0.00110894 1.17996e-16)
(0.998101 -0.00191358 -1.83413e-16)
(0.998438 -0.00264776 -2.19735e-16)
(0.998856 -0.00328682 5.27905e-18)
(0.999322 -0.00381191 2.39844e-16)
(0.999815 -0.00419951 -4.79041e-16)
(1.00029 -0.00444128 1.19432e-16)
(1.00072 -0.00450784 -2.07832e-17)
(1.00106 -0.00438852 2.62131e-16)
(1.0013 -0.00407232 8.11871e-17)
(1.00142 -0.00335704 -1.26772e-16)
(0.998004 0.00235129 1.05307e-18)
(0.997754 0.0015143 -8.88735e-17)
(0.997642 0.000622552 -1.25627e-16)
(0.99765 -0.000261809 2.0798e-17)
(0.997785 -0.00113126 -2.19216e-17)
(0.998035 -0.00195147 1.66489e-16)
(0.998385 -0.0026983 3.60776e-16)
(0.998818 -0.00334623 -3.20164e-16)
(0.999302 -0.00387588 3.64391e-16)
(0.999812 -0.00426353 3.22345e-17)
(1.00031 -0.00450019 7.16001e-17)
(1.00075 -0.00455785 -1.38449e-16)
(1.00112 -0.00442546 2.67724e-16)
(1.00137 -0.00409523 1.52065e-16)
(1.00151 -0.0033676 1.99124e-16)
(0.997924 0.0024054 -8.61271e-18)
(0.997668 0.00154906 8.47763e-17)
(0.997555 0.000637092 1.54737e-16)
(0.997565 -0.000266568 5.34766e-17)
(0.997707 -0.00115412 1.56456e-16)
(0.997967 -0.00199011 1.202e-16)
(0.99833 -0.00274981 -3.23984e-16)
(0.998779 -0.00340682 6.49405e-16)
(0.99928 -0.00394123 -2.04395e-16)
(0.999809 -0.00432911 -6.80428e-17)
(1.00032 -0.00456085 -2.46506e-16)
(1.00079 -0.00460974 -1.08383e-16)
(1.00117 -0.00446443 -2.97926e-16)
(1.00145 -0.00412011 -1.10006e-16)
(1.0016 -0.00337967 4.78775e-17)
(0.997842 0.00245992 -3.05859e-17)
(0.99758 0.001584 -9.06614e-17)
(0.997465 0.000651548 -1.08521e-17)
(0.997479 -0.000271656 1.06383e-16)
(0.997627 -0.00117756 -1.42387e-16)
(0.997897 -0.00202959 -1.04591e-16)
(0.998273 -0.00280238 4.05427e-16)
(0.998738 -0.00346871 -1.21149e-16)
(0.999257 -0.00400807 -5.17873e-16)
(0.999805 -0.00439635 7.13255e-17)
(1.00034 -0.00462334 -1.25158e-16)
(1.00082 -0.00466351 2.31831e-16)
(1.00123 -0.00450533 3.71909e-16)
(1.00152 -0.00414679 3.32002e-16)
(1.00169 -0.00339291 -2.78978e-16)
(0.997759 0.00251485 1.83448e-18)
(0.997491 0.00161911 -1.74877e-17)
(0.997374 0.000665916 -7.24067e-17)
(0.99739 -0.000277092 4.51455e-17)
(0.997545 -0.00120162 -7.89509e-17)
(0.997825 -0.00206996 1.34702e-16)
(0.998215 -0.00285612 -1.165e-16)
(0.998696 -0.00353199 3.99977e-17)
(0.999233 -0.00407651 -1.08546e-16)