1.275 	2.15223e-18 	-2.76991e-20 	-0.0325321 	-0.000495807 	-2.03176e-22
1.825 	2.15223e-18 	-1.39322e-20 	-0.00731172 	-0.00291829 	1.81574e-21
2.375 	2.15223e-18 	-2.66896e-23 	0.126112 	-0.00357333 	-7.54099e-22
