1.45 	0 	0 	-0.00478408 	-0.00280404 	3.94815e-21
2.35 	0 	0 	0.0715179 	-0.00693836 	2.44165e-21
