1.45 	0 	0 	-0.00789201 	-0.00258081 	3.80672e-21
2.35 	0 	0 	0.0618224 	-0.00664715 	2.31951e-21
