/*--------------------------------*- C++ -*----------------------------------*\
  =========                 |
  \\      /  F ield         | OpenFOAM: The Open Source CFD Toolbox
   \\    /   O peration     | Website:  https://openfoam.org
    \\  /    A nd           | Version:  6.0
     \\/     M anipulation  |
\*---------------------------------------------------------------------------*/
FoamFile
{
    version     2.0;
    format      ascii;
    class       volScalarField;
    location    "8";
    object      p;
}
// * * * * * * * * * * * * * * * * * * * * * * * * * * * * * * * * * * * * * //

dimensions      [0 2 -2 0 0 0 0];

internalField   nonuniform List<scalar> 
2000
(
-0.36782
-0.373655
-0.37524
-0.374414
-0.372367
-0.369485
-0.36605
-0.362353
-0.358671
-0.354758
-0.370602
-0.376008
-0.377244
-0.376113
-0.373776
-0.370617
-0.366917
-0.362958
-0.359022
-0.354986
-0.376182
-0.380709
-0.38124
-0.379493
-0.37657
-0.372851
-0.368612
-0.364113
-0.35965
-0.355362
-0.384592
-0.387753
-0.387202
-0.384519
-0.38071
-0.376139
-0.37107
-0.365723
-0.360415
-0.355723
-0.395881
-0.397132
-0.395095
-0.391149
-0.386148
-0.380429
-0.374219
-0.367668
-0.361113
-0.355805
-0.410102
-0.408822
-0.404873
-0.399339
-0.392852
-0.385694
-0.378025
-0.369862
-0.361532
-0.355272
-0.427277
-0.422775
-0.416472
-0.409041
-0.40081
-0.391971
-0.382578
-0.372418
-0.361664
-0.35385
-0.44734
-0.438885
-0.429795
-0.420193
-0.410005
-0.399298
-0.387982
-0.375455
-0.361255
-0.35034
-0.470073
-0.456973
-0.444722
-0.432748
-0.420473
-0.407765
-0.394221
-0.378362
-0.358011
-0.339981
-0.495036
-0.47677
-0.461149
-0.446851
-0.43283
-0.418858
-0.404179
-0.386207
-0.360837
-0.335913
-0.521542
-0.497845
-0.478803
-0.462405
-0.447429
-0.434213
-0.423097
-0.414688
-0.414062
-0.432473
-0.548761
-0.519616
-0.497061
-0.478302
-0.461709
-0.447706
-0.436766
-0.429902
-0.432079
-0.448619
-0.575963
-0.541613
-0.515639
-0.494409
-0.47578
-0.460077
-0.447665
-0.439225
-0.437754
-0.444893
-0.602483
-0.563349
-0.534204
-0.510526
-0.489607
-0.471588
-0.456631
-0.444965
-0.437999
-0.435952
-0.627554
-0.584137
-0.552112
-0.525986
-0.502459
-0.481472
-0.462992
-0.44689
-0.433561
-0.423191
-0.650165
-0.603024
-0.568399
-0.539763
-0.513264
-0.488714
-0.466009
-0.444852
-0.42509
-0.407539
-0.669016
-0.618785
-0.581818
-0.550559
-0.520721
-0.492137
-0.464797
-0.438432
-0.412672
-0.38925
-0.682533
-0.629951
-0.590896
-0.55688
-0.523398
-0.490485
-0.458399
-0.427039
-0.396031
-0.36809
-0.688947
-0.634874
-0.594003
-0.55713
-0.519821
-0.482511
-0.44586
-0.41002
-0.374714
-0.343567
-0.686391
-0.631812
-0.589441
-0.549699
-0.508562
-0.467052
-0.42631
-0.386749
-0.348216
-0.315095
-0.67301
-0.619023
-0.575544
-0.533064
-0.488344
-0.44312
-0.399033
-0.356715
-0.3161
-0.282148
-0.647079
-0.594873
-0.550784
-0.5059
-0.45812
-0.409969
-0.363539
-0.319594
-0.278087
-0.244362
-0.607138
-0.557964
-0.513895
-0.467183
-0.417173
-0.36717
-0.319616
-0.275303
-0.234122
-0.201612
-0.552106
-0.507254
-0.463983
-0.416283
-0.365166
-0.314639
-0.267359
-0.224035
-0.18442
-0.154048
-0.481402
-0.442163
-0.400623
-0.353023
-0.302174
-0.252646
-0.207157
-0.16625
-0.129463
-0.102111
-0.395045
-0.362678
-0.323927
-0.277715
-0.228676
-0.181764
-0.139624
-0.102575
-0.0698968
-0.0464394
-0.293748
-0.269427
-0.234598
-0.191175
-0.145544
-0.102849
-0.0655403
-0.0337215
-0.00645301
0.0121296
-0.178972
-0.16372
-0.133943
-0.0947116
-0.0540258
-0.0170483
0.0140303
0.039194
0.0593432
0.0715521
-0.0529495
-0.0475499
-0.0238291
0.00999123
0.0444866
0.0745828
0.0982387
0.114999
0.125046
0.128112
0.081347
0.0764224
0.093316
0.120891
0.148662
0.171865
0.188526
0.197041
0.196153
0.189828
0.220327
0.204916
0.214376
0.235083
0.256033
0.273308
0.28568
0.291421
0.290394
0.303017
0.360085
0.334275
0.335727
0.348701
0.361875
0.371974
0.378177
0.379654
0.378538
0.390466
0.496675
0.460823
0.453958
0.45862
0.463384
0.465549
0.4646
0.460149
0.454381
0.45871
0.626255
0.580952
0.56578
0.561948
0.55812
0.552183
0.543922
0.533206
0.521866
0.51841
0.745169
0.691225
0.668102
0.656028
0.6439
0.63017
0.614899
0.598136
0.581392
0.57098
0.850042
0.788482
0.758114
0.738475
0.718777
0.697993
0.676415
0.65424
0.632672
0.616195
0.937867
0.869923
0.833335
0.807182
0.781009
0.754231
0.727337
0.700634
0.67503
0.653485
1.0061
0.933185
0.891679
0.860369
0.829098
0.797629
0.766599
0.736398
0.707674
0.682185
1.05274
0.976423
0.931513
0.896636
0.861852
0.827165
0.79331
0.760732
0.729883
0.701691
1.07641
0.998365
0.951716
0.915016
0.878442
0.842119
0.806832
0.773052
0.741128
0.711559
1.07641
0.998365
0.951716
0.915016
0.878442
0.842119
0.806832
0.773052
0.741128
0.711559
1.05274
0.976423
0.931513
0.896636
0.861852
0.827165
0.79331
0.760732
0.729883
0.70169
1.0061
0.933185
0.891678
0.860369
0.829097
0.797629
0.766599
0.736398
0.707674
0.682185
0.937866
0.869923
0.833335
0.807182
0.781008
0.754231
0.727337
0.700634
0.67503
0.653485
0.850041
0.788482
0.758114
0.738474
0.718777
0.697992
0.676415
0.65424
0.632671
0.616194
0.745169
0.691224
0.668102
0.656027
0.643899
0.63017
0.614898
0.598135
0.581392
0.570979
0.626254
0.580951
0.565779
0.561947
0.55812
0.552182
0.543921
0.533205
0.521865
0.51841
0.496675
0.460822
0.453958
0.45862
0.463383
0.465548
0.464599
0.460148
0.45438
0.458709
0.360084
0.334274
0.335727
0.3487
0.361874
0.371973
0.378176
0.379653
0.378537
0.390465
0.220326
0.204915
0.214375
0.235082
0.256032
0.273307
0.285679
0.29142
0.290393
0.303016
0.081346
0.0764213
0.0933148
0.12089
0.148661
0.171864
0.188525
0.19704
0.196152
0.189827
-0.0529506
-0.047551
-0.0238304
0.00998997
0.0444853
0.0745815
0.0982374
0.114998
0.125045
0.128111
-0.178973
-0.163721
-0.133945
-0.094713
-0.0540271
-0.0170497
0.014029
0.0391927
0.0593419
0.0715509
-0.293749
-0.269429
-0.2346
-0.191177
-0.145545
-0.10285
-0.0655417
-0.0337229
-0.00645436
0.0121283
-0.395046
-0.36268
-0.323928
-0.277716
-0.228677
-0.181766
-0.139625
-0.102576
-0.0698982
-0.0464407
-0.481403
-0.442164
-0.400624
-0.353025
-0.302176
-0.252648
-0.207159
-0.166251
-0.129464
-0.102113
-0.552108
-0.507255
-0.463985
-0.416285
-0.365168
-0.314641
-0.26736
-0.224036
-0.184421
-0.15405
-0.607139
-0.557966
-0.513897
-0.467185
-0.417175
-0.367171
-0.319618
-0.275304
-0.234124
-0.201613
-0.647081
-0.594875
-0.550786
-0.505902
-0.458122
-0.409971
-0.36354
-0.319595
-0.278088
-0.244364
-0.673012
-0.619026
-0.575547
-0.533066
-0.488346
-0.443121
-0.399035
-0.356717
-0.316101
-0.282149
-0.686393
-0.631815
-0.589444
-0.549701
-0.508564
-0.467054
-0.426312
-0.386751
-0.348217
-0.315096
-0.68895
-0.634877
-0.594005
-0.557132
-0.519823
-0.482513
-0.445862
-0.410022
-0.374715
-0.343568
-0.682535
-0.629953
-0.590898
-0.556882
-0.5234
-0.490487
-0.4584
-0.427041
-0.396032
-0.368092
-0.669018
-0.618787
-0.581821
-0.550561
-0.520723
-0.492139
-0.464799
-0.438434
-0.412673
-0.389252
-0.650168
-0.603027
-0.568401
-0.539766
-0.513266
-0.488716
-0.46601
-0.444854
-0.425091
-0.407541
-0.627556
-0.584139
-0.552115
-0.525988
-0.502461
-0.481474
-0.462994
-0.446892
-0.433562
-0.423193
-0.602485
-0.563351
-0.534207
-0.510528
-0.489609
-0.47159
-0.456632
-0.444967
-0.438
-0.435953
-0.575965
-0.541615
-0.515641
-0.494411
-0.475782
-0.460079
-0.447667
-0.439227
-0.437755
-0.444895
-0.548763
-0.519618
-0.497063
-0.478304
-0.461711
-0.447708
-0.436768
-0.429903
-0.432081
-0.448621
-0.521543
-0.497847
-0.478805
-0.462407
-0.44743
-0.434215
-0.423098
-0.414689
-0.414063
-0.432474
-0.495038
-0.476771
-0.461151
-0.446853
-0.432832
-0.418859
-0.404181
-0.386209
-0.360838
-0.335914
-0.470074
-0.456974
-0.444724
-0.43275
-0.420474
-0.407767
-0.394223
-0.378363
-0.358012
-0.339982
-0.447341
-0.438886
-0.429796
-0.420194
-0.410006
-0.399299
-0.387983
-0.375456
-0.361256
-0.350341
-0.427278
-0.422776
-0.416473
-0.409042
-0.400811
-0.391972
-0.382579
-0.372419
-0.361665
-0.353851
-0.410103
-0.408823
-0.404874
-0.39934
-0.392853
-0.385694
-0.378026
-0.369863
-0.361533
-0.355272
-0.395882
-0.397133
-0.395096
-0.39115
-0.386149
-0.38043
-0.37422
-0.367669
-0.361114
-0.355806
-0.384593
-0.387754
-0.387203
-0.38452
-0.38071
-0.37614
-0.37107
-0.365723
-0.360415
-0.355723
-0.376182
-0.380709
-0.38124
-0.379493
-0.376571
-0.372852
-0.368612
-0.364114
-0.35965
-0.355362
-0.370602
-0.376008
-0.377245
-0.376113
-0.373776
-0.370617
-0.366917
-0.362958
-0.359022
-0.354986
-0.36782
-0.373656
-0.37524
-0.374414
-0.372367
-0.369485
-0.36605
-0.362353
-0.358671
-0.354758
-0.307144
-0.130267
-0.0779321
-0.0196109
-0.00540047
0.00530239
0.00675144
0.0067475
0.00404885
0.00311668
-0.308482
-0.130951
-0.0783454
-0.0199369
-0.00555977
0.00518046
0.00668532
0.00670871
0.00403106
0.00310085
-0.311079
-0.132296
-0.0791569
-0.0205832
-0.00587384
0.00493946
0.00655436
0.00663174
0.00399573
0.00306946
-0.314783
-0.134263
-0.080337
-0.0215384
-0.00633402
0.00458496
0.00636116
0.00651784
0.00394345
0.00302292
-0.319333
-0.136789
-0.0818348
-0.022782
-0.00692683
0.0041253
0.00610944
0.00636874
0.00387499
0.00296185
-0.324365
-0.139778
-0.0835711
-0.0242767
-0.00763207
0.00357264
0.0058044
0.00618676
0.00379133
0.00288703
-0.329718
-0.143273
-0.0855209
-0.0259935
-0.00843405
0.00294021
0.00545235
0.00597544
0.0036936
0.00279988
-0.335792
-0.14789
-0.0879292
-0.0280224
-0.00936486
0.00222473
0.00505518
0.00573877
0.00358328
0.00270288
-0.340805
-0.154049
-0.0909862
-0.0305376
-0.0104853
0.00139696
0.00460271
0.00547331
0.00346215
0.00259575
-0.334009
-0.157402
-0.0927467
-0.0328538
-0.0115095
0.000531003
0.00410489
0.00516046
0.00333056
0.00246425
-0.265945
-0.150118
-0.0897202
-0.037375
-0.0134437
-0.00204274
0.00241278
0.00392658
0.0028389
0.00188861
-0.204765
-0.140705
-0.0834036
-0.0393897
-0.0166011
-0.00599013
-0.000695943
0.0017468
0.00167934
0.00105528
-0.160451
-0.121434
-0.0734289
-0.0383204
-0.0191206
-0.00937956
-0.00360321
-0.000385888
0.000479389
0.000350088
-0.118492
-0.0992697
-0.0640331
-0.0371454
-0.0212398
-0.0121536
-0.00609366
-0.00230096
-0.00062615
-0.000198254
-0.0877556
-0.0812645
-0.0576151
-0.0367554
-0.0229429
-0.0142842
-0.0081273
-0.00394311
-0.00159984
-0.000603948
-0.0667281
-0.0679937
-0.0529638
-0.0363972
-0.0240094
-0.0157634
-0.0096894
-0.00527707
-0.00241196
-0.000893721
-0.0531074
-0.0584284
-0.0492752
-0.0359007
-0.0246232
-0.016759
-0.0108392
-0.00630816
-0.00305505
-0.00109836
-0.0444621
-0.0517473
-0.0464297
-0.0354162
-0.0249861
-0.017409
-0.011638
-0.0070552
-0.00353104
-0.00123842
-0.0393883
-0.0475118
-0.0445161
-0.0350721
-0.025196
-0.0177921
-0.0121352
-0.00753896
-0.00384468
-0.00132479
-0.0370281
-0.0454436
-0.0435591
-0.0349122
-0.0253002
-0.017964
-0.0123699
-0.00777614
-0.00400182
-0.00136304
-0.233662
-0.261857
-0.288034
-0.312472
-0.335543
-0.357725
-0.379597
-0.401758
-0.424625
-0.448805
-0.0797007
-0.0897845
-0.0988722
-0.107206
-0.115095
-0.122928
-0.131176
-0.140399
-0.1512
-0.165339
-0.0564195
-0.0655187
-0.0742348
-0.0825419
-0.0904024
-0.0977703
-0.1046
-0.110861
-0.116544
-0.12176
-0.0286306
-0.0342401
-0.0396443
-0.0448628
-0.0499184
-0.0548352
-0.0596374
-0.0643481
-0.068964
-0.0733606
-0.0225002
-0.0267543
-0.0308822
-0.0348805
-0.0387459
-0.0424747
-0.0460637
-0.0495106
-0.0527927
-0.0558761
-0.016861
-0.0199763
-0.0230311
-0.0260247
-0.028957
-0.0318277
-0.0346368
-0.0373833
-0.0400531
-0.0426464
-0.0154247
-0.0178664
-0.0202694
-0.02263
-0.0249448
-0.0272109
-0.0294261
-0.0315882
-0.0336895
-0.0357415
-0.0143457
-0.0163114
-0.0182581
-0.0201818
-0.022079
-0.0239465
-0.0257815
-0.027581
-0.0293405
-0.0310663
-0.0140998
-0.0157856
-0.0174604
-0.0191199
-0.0207601
-0.022377
-0.0239673
-0.025528
-0.0270561
-0.0285521
-0.0139573
-0.0154962
-0.0170294
-0.018553
-0.0200637
-0.021558
-0.0230328
-0.0244855
-0.0259135
-0.0273149
0.152877
0.111746
0.0668133
0.0238848
-0.0178555
-0.0587239
-0.0981032
-0.13545
-0.170524
-0.203253
0.105004
0.0791485
0.0527214
0.0300339
0.00993305
-0.0087284
-0.0260092
-0.0417118
-0.0558153
-0.0684302
0.0612998
0.0456355
0.0308771
0.0180817
0.00629005
-0.00511746
-0.0161962
-0.0268648
-0.0371065
-0.04695
0.0420997
0.0331335
0.0246835
0.0171076
0.00994646
0.00295732
-0.00385027
-0.0104204
-0.0167343
-0.0227999
0.0272159
0.0213448
0.0157288
0.0105385
0.00553312
0.000597546
-0.00425722
-0.00900112
-0.0136229
-0.0181225
0.0175584
0.0137468
0.0100073
0.00646303
0.00300655
-0.000420999
-0.00381593
-0.00716244
-0.0104531
-0.0136862
0.0102825
0.0076203
0.00495001
0.00235204
-0.000218541
-0.00278912
-0.00535649
-0.00791
-0.0104422
-0.0129485
0.00542929
0.00349679
0.00152532
-0.000436646
-0.00240331
-0.00438498
-0.00637858
-0.00837695
-0.0103741
-0.0123651
0.00230514
0.000769319
-0.00080893
-0.00240789
-0.00403019
-0.00567685
-0.00734367
-0.00902475
-0.0107145
-0.0124079
0.000814681
-0.000547165
-0.00194824
-0.00337883
-0.00483737
-0.00632122
-0.0078259
-0.00934646
-0.0108782
-0.0124165
0.322283
0.321588
0.319929
0.316905
0.311748
0.303214
0.289533
0.268322
0.236944
0.19217
0.232978
0.231953
0.229287
0.224669
0.217788
0.208203
0.195338
0.178544
0.157072
0.13041
0.162797
0.161759
0.159059
0.154504
0.14801
0.139452
0.128629
0.115323
0.099117
0.08011
0.111802
0.110989
0.108863
0.105283
0.100254
0.0937876
0.0858687
0.0765075
0.0656274
0.0535764
0.0760375
0.0754485
0.0738979
0.0712815
0.0676217
0.0629614
0.0573275
0.0507578
0.0432324
0.0349642
0.0513536
0.050932
0.0498202
0.0479441
0.045328
0.0420165
0.0380464
0.0334616
0.0282807
0.0226532
0.0346065
0.0343002
0.0334919
0.0321284
0.0302292
0.0278296
0.0249597
0.0216519
0.0179263
0.0138682
0.0236275
0.0233966
0.0227872
0.0217594
0.0203285
0.0185221
0.0163642
0.0138798
0.0110899
0.00804769
0.0169978
0.0168114
0.0163196
0.0154902
0.0143355
0.0128774
0.0111347
0.00912617
0.00687002
0.00439841
0.0138781
0.0137121
0.013275
0.012538
0.0115119
0.0102156
0.0086658
0.00687865
0.00487131
0.0026674
0.472507
0.474186
0.480559
0.491702
0.50753
0.528366
0.554673
0.586977
0.625812
0.671421
0.470268
0.471923
0.478215
0.489202
0.504782
0.525241
0.550983
0.58245
0.620034
0.663857
0.465842
0.467453
0.473593
0.484276
0.499371
0.51909
0.543721
0.573535
0.608642
0.648937
0.459328
0.460887
0.466816
0.477069
0.491464
0.510108
0.533118
0.560509
0.591961
0.627063
0.450866
0.452378
0.458059
0.467776
0.481288
0.498563
0.519497
0.54376
0.570455
0.598819
0.440622
0.442112
0.447527
0.456627
0.469102
0.484757
0.503219
0.523741
0.544698
0.564935
0.42879
0.430327
0.435496
0.443936
0.455263
0.469095
0.484749
0.500983
0.515363
0.526265
0.415575
0.417342
0.422395
0.430244
0.440447
0.452402
0.465048
0.476505
0.483435
0.483569
0.401054
0.403298
0.408428
0.415817
0.425009
0.435181
0.444826
0.451232
0.449906
0.436372
0.384905
0.387352
0.392102
0.398425
0.405881
0.413519
0.419542
0.420709
0.412158
0.384614
0.384904
0.387351
0.392102
0.398424
0.40588
0.413518
0.419541
0.420708
0.412157
0.384613
0.401053
0.403298
0.408427
0.415816
0.425008
0.435181
0.444825
0.451231
0.449905
0.436371
0.415575
0.417341
0.422394
0.430243
0.440446
0.452401
0.465047
0.476505
0.483434
0.483569
0.42879
0.430327
0.435495
0.443935
0.455262
0.469094
0.484748
0.500982
0.515363
0.526265
0.440621
0.442112
0.447526
0.456626
0.469101
0.484756
0.503218
0.52374
0.544697
0.564935
0.450865
0.452378
0.458058
0.467775
0.481288
0.498563
0.519496
0.54376
0.570454
0.598818
0.459328
0.460887
0.466816
0.477069
0.491464
0.510107
0.533118
0.560509
0.59196
0.627063
0.465842
0.467453
0.473592
0.484276
0.499371
0.519089
0.543721
0.573535
0.608642
0.648936
0.470268
0.471923
0.478215
0.489202
0.504782
0.52524
0.550983
0.58245
0.620034
0.663857
0.472507
0.474186
0.480559
0.491702
0.50753
0.528366
0.554673
0.586977
0.625812
0.671421
0.0138775
0.0137115
0.0132743
0.0125374
0.0115112
0.0102149
0.00866516
0.006878
0.00487066
0.00266674
0.0169971
0.0168107
0.0163189
0.0154896
0.0143349
0.0128768
0.0111341
0.00912554
0.00686938
0.00439779
0.0236268
0.0233959
0.0227865
0.0217587
0.0203278
0.0185214
0.0163635
0.0138791
0.0110893
0.00804702
0.0346058
0.0342995
0.0334912
0.0321277
0.0302285
0.0278289
0.024959
0.0216512
0.0179256
0.0138675
0.0513528
0.0509313
0.0498194
0.0479433
0.0453273
0.0420158
0.0380457
0.0334608
0.02828
0.0226525
0.0760368
0.0754477
0.0738971
0.0712807
0.0676209
0.0629606
0.0573268
0.0507571
0.0432317
0.0349634
0.111801
0.110988
0.108862
0.105282
0.100253
0.0937868
0.0858679
0.0765067
0.0656266
0.0535756
0.162796
0.161758
0.159058
0.154503
0.148009
0.139452
0.128629
0.115323
0.0991162
0.0801091
0.232977
0.231952
0.229286
0.224668
0.217787
0.208202
0.195337
0.178543
0.157072
0.130409
0.322282
0.321587
0.319928
0.316904
0.311747
0.303214
0.289532
0.268321
0.236943
0.192169
0.000814045
-0.000547788
-0.00194887
-0.00337948
-0.00483802
-0.00632188
-0.00782657
-0.00934714
-0.0108788
-0.0124172
0.00230452
0.000768685
-0.00080957
-0.00240854
-0.00403084
-0.00567751
-0.00734434
-0.00902542
-0.0107152
-0.0124085
0.00542862
0.00349611
0.00152464
-0.000437329
-0.002404
-0.00438568
-0.00637928
-0.00837766
-0.0103748
-0.0123658
0.0102818
0.00761959
0.00494929
0.00235132
-0.000219265
-0.00278985
-0.00535722
-0.00791073
-0.010443
-0.0129493
0.0175577
0.013746
0.0100066
0.00646228
0.00300581
-0.000421734
-0.00381666
-0.00716316
-0.0104538
-0.0136869
0.0272151
0.021344
0.015728
0.0105377
0.00553236
0.000596785
-0.00425798
-0.00900185
-0.0136236
-0.0181232
0.0420989
0.0331327
0.0246827
0.0171068
0.00994565
0.0029565
-0.00385108
-0.0104212
-0.0167351
-0.0228007
0.0612989
0.0456346
0.0308762
0.0180808
0.00628917
-0.00511833
-0.0161971
-0.0268657
-0.0371073
-0.0469508
0.105003
0.0791476
0.0527204
0.030033
0.00993205
-0.0087294
-0.0260102
-0.0417128
-0.0558163
-0.0684312
0.152876
0.111745
0.0668122
0.0238837
-0.0178566
-0.058725
-0.0981043
-0.135452
-0.170525
-0.203254
-0.0139579
-0.0154969
-0.01703
-0.0185536
-0.0200643
-0.0215585
-0.0230334
-0.024486
-0.0259141
-0.0273154
-0.0141005
-0.0157862
-0.0174611
-0.0191206
-0.0207607
-0.0223776
-0.0239679
-0.0255286
-0.0270566
-0.0285527
-0.0143464
-0.0163121
-0.0182587
-0.0201825
-0.0220797
-0.0239471
-0.025782
-0.0275815
-0.0293411
-0.0310668
-0.0154254
-0.0178671
-0.0202701
-0.0226307
-0.0249454
-0.0272115
-0.0294267
-0.0315887
-0.03369
-0.035742
-0.0168617
-0.019977
-0.0230318
-0.0260254
-0.0289576
-0.0318283
-0.0346374
-0.0373838
-0.0400536
-0.0426469
-0.0225008
-0.026755
-0.0308828
-0.0348812
-0.0387465
-0.0424752
-0.0460642
-0.0495111
-0.0527932
-0.0558766
-0.0286314
-0.0342408
-0.039645
-0.0448635
-0.049919
-0.0548358
-0.059638
-0.0643487
-0.0689645
-0.0733611
-0.0564203
-0.0655195
-0.0742356
-0.0825426
-0.0904031
-0.0977709
-0.1046
-0.110861
-0.116545
-0.12176
-0.0797017
-0.0897855
-0.0988731
-0.107207
-0.115096
-0.122929
-0.131177
-0.140399
-0.151201
-0.165339
-0.233663
-0.261858
-0.288035
-0.312473
-0.335544
-0.357725
-0.379597
-0.401759
-0.424625
-0.448806
-0.0370285
-0.045444
-0.0435595
-0.0349127
-0.0253007
-0.0179643
-0.0123701
-0.00777621
-0.00400185
-0.00136308
-0.0393887
-0.0475122
-0.0445166
-0.0350725
-0.0251964
-0.0177924
-0.0121353
-0.00753902
-0.0038447
-0.00132482
-0.0444625
-0.0517477
-0.0464301
-0.0354167
-0.0249865
-0.0174092
-0.0116381
-0.00705525
-0.00353106
-0.00123845
-0.0531078
-0.0584288
-0.0492756
-0.0359012
-0.0246236
-0.0167593
-0.0108393
-0.0063082
-0.00305506
-0.00109837
-0.0667285
-0.0679941
-0.0529642
-0.0363978
-0.0240099
-0.0157637
-0.00968952
-0.00527709
-0.00241195
-0.000893711
-0.087756
-0.0812647
-0.0576155
-0.0367561
-0.0229435
-0.0142845
-0.00812743
-0.00394313
-0.00159982
-0.000603916
-0.118492
-0.0992698
-0.0640334
-0.0371461
-0.0212405
-0.012154
-0.00609381
-0.00230097
-0.000626108
-0.000198199
-0.160451
-0.121433
-0.0734292
-0.0383214
-0.0191215
-0.00938008
-0.00360342
-0.000385911
0.000479451
0.000350165
-0.204765
-0.140705
-0.0834038
-0.0393909
-0.0166025
-0.0059909
-0.000696248
0.00174675
0.00167941
0.00105538
-0.265944
-0.150117
-0.0897199
-0.0373762
-0.0134454
-0.00204369
0.00241239
0.0039265
0.00283897
0.0018887
-0.334009
-0.1574
-0.0927463
-0.0328548
-0.0115109
0.000530193
0.00410453
0.00516036
0.00333059
0.00246431
-0.340805
-0.154047
-0.0909858
-0.0305386
-0.0104866
0.00139619
0.00460236
0.00547322
0.00346217
0.00259581
-0.335791
-0.147889
-0.0879288
-0.0280233
-0.00936607
0.00222403
0.00505487
0.00573869
0.0035833
0.00270294
-0.329717
-0.143272
-0.0855205
-0.0259944
-0.00843515
0.00293958
0.00545207
0.00597536
0.00369362
0.00279994
-0.324364
-0.139777
-0.0835708
-0.0242775
-0.00763304
0.00357209
0.00580416
0.00618669
0.00379134
0.00288709
-0.319333
-0.136788
-0.0818346
-0.0227827
-0.00692765
0.00412483
0.00610923
0.00636867
0.00387499
0.0029619
-0.314783
-0.134262
-0.0803368
-0.021539
-0.00633468
0.00458458
0.00636099
0.00651778
0.00394344
0.00302296
-0.311079
-0.132295
-0.0791568
-0.0205836
-0.00587431
0.00493918
0.00655423
0.00663168
0.00399572
0.0030695
-0.308481
-0.130951
-0.0783453
-0.0199372
-0.00556004
0.00518029
0.00668522
0.00670866
0.00403104
0.00310089
-0.307144
-0.130267
-0.0779321
-0.019611
-0.00540055
0.00530233
0.0067514
0.00674748
0.00404884
0.0031167
)
;

boundaryField
{
    inlet
    {
        type            zeroGradient;
    }
    outlet
    {
        type            fixedValue;
        value           uniform 0;
    }
    cylinder
    {
        type            zeroGradient;
    }
    top
    {
        type            symmetryPlane;
    }
    bottom
    {
        type            symmetryPlane;
    }
    defaultFaces
    {
        type            empty;
    }
}


// ************************************************************************* //
