/*--------------------------------*- C++ -*----------------------------------*\
  =========                 |
  \\      /  F ield         | OpenFOAM: The Open Source CFD Toolbox
   \\    /   O peration     | Website:  https://openfoam.org
    \\  /    A nd           | Version:  6.0
     \\/     M anipulation  |
\*---------------------------------------------------------------------------*/
FoamFile
{
    version     2.0;
    format      ascii;
    class       volVectorField;
    location    "8";
    object      U;
}
// * * * * * * * * * * * * * * * * * * * * * * * * * * * * * * * * * * * * * //

dimensions      [0 1 -1 0 0 0 0];

internalField   nonuniform List<vector> 
2000
(
(-0.00200805 0.00174534 3.548e-20)
(-0.00763336 0.00329052 3.76516e-20)
(-0.0152736 0.003614 -3.45304e-20)
(-0.0221354 0.00324577 -6.80997e-20)
(-0.0272649 0.00250061 -4.61711e-20)
(-0.0305172 0.00158446 5.99284e-20)
(-0.0320014 0.00064514 3.41076e-20)
(-0.0319954 -0.000208154 -1.3525e-20)
(-0.03093 -0.000893693 -3.31513e-20)
(-0.0291265 -0.00134692 1.94885e-20)
(-0.00250438 0.00513862 -8.79153e-20)
(-0.00836255 0.00964234 1.08465e-19)
(-0.0156187 0.0105457 1.03866e-20)
(-0.0217409 0.00941361 -5.84269e-20)
(-0.0259155 0.00717195 2.71329e-19)
(-0.0280749 0.00442572 -1.16336e-19)
(-0.0283765 0.00161033 -1.22996e-19)
(-0.0271254 -0.000948502 1.45375e-19)
(-0.0247711 -0.00300138 -1.40807e-19)
(-0.021711 -0.00435345 5.732e-20)
(-0.00344454 0.0082433 1.46086e-20)
(-0.00967774 0.0153183 4.62561e-21)
(-0.0160935 0.0166115 3.12564e-19)
(-0.0206856 0.0146463 1.05955e-19)
(-0.0229199 0.0109034 2.03688e-20)
(-0.0228819 0.00634723 1.64414e-19)
(-0.0208229 0.00167491 -3.05219e-19)
(-0.0170985 -0.00257878 6.48175e-21)
(-0.0121918 -0.0059847 -1.73741e-19)
(-0.00665979 -0.00821401 1.54749e-19)
(-0.00472032 0.010874 -2.74537e-20)
(-0.0112843 0.0198961 1.41027e-19)
(-0.0162546 0.021294 -3.95536e-19)
(-0.0184185 0.0184189 -4.94569e-20)
(-0.0176605 0.0132107 -2.73223e-19)
(-0.0142922 0.00692299 2.75693e-19)
(-0.00870014 0.000465331 -2.85831e-19)
(-0.00130602 -0.0054374 1.96732e-19)
(0.00736615 -0.0101593 8.12252e-20)
(0.0165043 -0.0132313 -7.44088e-20)
(-0.00616079 0.0128531 -3.05018e-19)
(-0.0127206 0.022992 2.4436e-21)
(-0.0154074 0.0241602 4.86817e-19)
(-0.014073 0.0203478 1.41149e-19)
(-0.00915692 0.0138177 -4.35741e-19)
(-0.00126884 0.00600952 2.63986e-19)
(0.00903005 -0.00203667 2.92603e-19)
(0.0212464 -0.009449 -2.55671e-19)
(0.0348239 -0.015392 1.79128e-19)
(0.0485867 -0.0192509 3.57377e-20)
(-0.00752156 0.0140101 4.17267e-20)
(-0.0133399 0.0242717 6.89036e-21)
(-0.0125842 0.0248846 -6.21832e-19)
(-0.0064351 0.0202275 -3.3651e-19)
(0.00398169 0.0127165 3.89838e-19)
(0.0176832 0.00384318 -4.44919e-19)
(0.0338889 -0.0053451 4.98566e-19)
(0.052033 -0.0139198 -4.21183e-20)
(0.0715651 -0.0208545 -1.35068e-19)
(0.0908327 -0.0253992 -3.20734e-19)
(-0.00847389 0.0141859 -9.03941e-20)
(-0.0123 0.0234642 -1.47674e-19)
(-0.00654035 0.0232628 -1.7468e-19)
(0.00606373 0.0180395 3.60736e-19)
(0.0235821 0.0101776 6.50087e-19)
(0.0445775 0.00107141 -1.30879e-19)
(0.0679841 -0.00839161 -3.11861e-19)
(0.0931452 -0.0174016 9.32026e-20)
(0.119598 -0.0248474 -5.77502e-19)
(0.145143 -0.0298937 5.20157e-19)
(-0.00860134 0.0132455 5.52634e-19)
(-0.0085807 0.0203866 -2.69544e-19)
(0.00420141 0.0192197 5.07446e-19)
(0.0252821 0.0139279 -8.01954e-19)
(0.051839 0.00669383 -3.72389e-19)
(0.0818934 -0.00130467 -5.02899e-19)
(0.113984 -0.00951875 1.42764e-19)
(0.147285 -0.017526 -3.90632e-19)
(0.181549 -0.0243659 8.35838e-19)
(0.214144 -0.0292916 1.9324e-19)
(-0.00741523 0.0111081 4.00894e-20)
(-0.00104471 0.0149854 4.39094e-19)
(0.0212393 0.0128146 8.40079e-19)
(0.0532197 0.0081299 2.48765e-19)
(0.0911484 0.00281678 7.14839e-19)
(0.132412 -0.00214719 3.82365e-20)
(0.174965 -0.00654669 -6.97562e-22)
(0.217545 -0.0104211 2.69509e-19)
(0.260134 -0.0131318 2.15168e-19)
(0.300235 -0.0149682 -5.7981e-19)
(-0.00440457 0.00779154 -3.26266e-19)
(0.0114311 0.007395 -4.89368e-19)
(0.0460905 0.00423731 -6.85684e-19)
(0.0917825 0.000806051 1.53322e-20)
(0.143974 -0.00135707 -3.28812e-19)
(0.199518 -0.00127822 5.05209e-19)
(0.255796 0.00138364 -1.36097e-18)
(0.310807 0.00684706 5.99439e-19)
(0.363815 0.0157074 2.22256e-19)
(0.412142 0.0240766 5.855e-19)
(0.000865735 0.0034706 1.63331e-19)
(0.0297119 -0.00196682 -5.58717e-19)
(0.0797404 -0.00610957 4.80553e-19)
(0.141977 -0.00801581 -1.80557e-19)
(0.211502 -0.00672297 1.90736e-19)
(0.285291 -0.00130671 4.05156e-19)
(0.361439 0.00897176 -5.31728e-19)
(0.439455 0.0250531 6.78745e-20)
(0.520246 0.0463058 -2.45578e-19)
(0.606097 0.0630802 4.30575e-19)
(0.00865968 -0.00147488 2.33087e-19)
(0.0541848 -0.012244 -5.0571e-19)
(0.122184 -0.0172257 6.64194e-19)
(0.202777 -0.0176107 -4.00599e-19)
(0.290663 -0.0135688 -1.4268e-19)
(0.382715 -0.00496619 8.23494e-20)
(0.477042 0.00810962 4.17694e-20)
(0.572988 0.025367 5.5406e-19)
(0.670162 0.0442371 1.56705e-19)
(0.7662 0.0561983 5.83802e-19)
(0.0190847 -0.00648181 -2.07651e-19)
(0.0848844 -0.0220788 6.5303e-19)
(0.172937 -0.0271367 -5.25527e-19)
(0.272674 -0.0253432 -5.97162e-19)
(0.378307 -0.0182453 8.11353e-19)
(0.486264 -0.00664642 -6.01792e-19)
(0.594068 0.0085235 1.55339e-19)
(0.700093 0.0261744 -9.0209e-19)
(0.802537 0.0437456 6.63566e-19)
(0.897393 0.0559871 2.91325e-20)
(0.0321457 -0.010922 -2.70103e-19)
(0.121604 -0.0299141 -2.3418e-19)
(0.23129 -0.0335565 -4.80626e-19)
(0.350228 -0.028223 5.63394e-19)
(0.472184 -0.0169208 -2.77223e-20)
(0.593118 -0.00136011 3.45609e-19)
(0.710031 0.0168574 6.16619e-19)
(0.820632 0.0362505 -1.85702e-19)
(0.922551 0.0548126 -6.44108e-19)
(1.01179 0.0695935 1.12485e-18)
(0.0477697 -0.0141868 -1.39341e-19)
(0.163889 -0.0342495 -1.48909e-19)
(0.296217 -0.0343836 2.58924e-19)
(0.43375 -0.023738 -4.66044e-19)
(0.570017 -0.00680163 7.71968e-20)
(0.700743 0.0138587 6.71789e-20)
(0.822764 0.0360941 2.87012e-20)
(0.933706 0.0582114 -4.59023e-21)
(1.03139 0.0787636 -6.81464e-20)
(1.11248 0.0961812 -9.52046e-19)
(0.0657927 -0.0157131 5.65848e-19)
(0.210991 -0.0337627 -3.53476e-19)
(0.36626 -0.0279147 4.31945e-21)
(0.521055 -0.0100981 -5.0321e-19)
(0.669032 0.0137508 -1.7534e-19)
(0.806062 0.0402902 1.59648e-19)
(0.929293 0.0669495 1.21428e-19)
(1.03683 0.0919497 -4.24177e-19)
(1.12725 0.114354 3.40697e-19)
(1.19826 0.133395 -3.92986e-19)
(0.0859279 -0.0149885 2.43816e-19)
(0.261827 -0.0273668 -1.94234e-19)
(0.439495 -0.0129406 7.78462e-19)
(0.609464 0.0136901 7.71344e-20)
(0.766009 0.0452619 1.71651e-19)
(0.905644 0.0778091 7.47383e-19)
(1.02635 0.108523 -1.11492e-19)
(1.12725 0.135712 1.00223e-19)
(1.20803 0.158978 4.08002e-20)
(1.26773 0.178039 -4.37812e-20)
(0.107738 -0.0115631 1.70089e-19)
(0.314976 -0.0142532 3.67104e-19)
(0.513593 0.0112135 -3.7954e-19)
(0.695947 0.0478447 -1.24726e-19)
(0.857533 0.0873009 -1.49744e-19)
(0.996077 0.125252 2.25828e-19)
(1.11092 0.158925 -1.15124e-19)
(1.20259 0.186959 3.03808e-19)
(1.27218 0.209591 1.00762e-19)
(1.32016 0.226892 -1.43472e-19)
(0.130619 -0.005075 -1.83397e-19)
(0.368701 0.00606037 1.46142e-19)
(0.585933 0.0446654 -3.00679e-19)
(0.777334 0.0918644 1.25662e-19)
(0.940297 0.138661 -1.26779e-19)
(1.07433 0.180745 -1.54506e-19)
(1.18059 0.215736 -1.21671e-19)
(1.26129 0.242896 1.33447e-19)
(1.31903 0.263225 -2.48045e-19)
(1.35569 0.277112 1.30539e-19)
(0.153814 0.00471171 -6.53013e-20)
(0.42103 0.0336746 -1.14658e-19)
(0.653759 0.086962 5.25651e-20)
(0.850551 0.144597 3.08088e-21)
(1.01137 0.197528 4.11068e-20)
(1.13803 0.241965 5.51763e-20)
(1.23379 0.276329 5.0202e-20)
(1.3027 0.300794 -6.52099e-20)
(1.34877 0.317242 5.48759e-20)
(1.3752 0.326389 -7.44899e-20)
(0.176437 0.017867 -3.78268e-20)
(0.469857 0.068259 -1.27224e-20)
(0.71436 0.137081 4.89343e-20)
(0.912832 0.204321 -2.17232e-20)
(1.06841 0.261645 5.66338e-20)
(1.18557 0.306354 -7.13342e-20)
(1.26983 0.338084 1.61203e-20)
(1.327 0.358168 1.69621e-20)
(1.36233 0.369434 -7.10216e-21)
(1.38009 0.372941 2.3038e-20)
(0.197522 0.0342596 -4.07948e-20)
(0.513071 0.109024 -1.658e-19)
(0.765245 0.193464 -1.11971e-20)
(0.961902 0.268853 3.25092e-21)
(1.10977 0.328469 -1.96516e-19)
(1.21616 0.371292 2.51601e-20)
(1.28881 0.398536 -2.1057e-20)
(1.33505 0.412856 -5.03728e-20)
(1.3611 0.418024 1.04196e-19)
(1.37203 0.415438 -1.62941e-19)
(0.216075 0.0535331 -1.97872e-20)
(0.548691 0.154718 3.36419e-19)
(0.804305 0.254072 5.22039e-20)
(0.996107 0.335663 -2.76501e-19)
(1.13457 0.395314 -2.18804e-20)
(1.22981 0.434224 -2.53451e-19)
(1.2915 0.455451 1.82504e-19)
(1.32822 0.463031 -6.57544e-20)
(1.34679 0.461607 1.14983e-19)
(1.35282 0.45289 -7.30094e-20)
(0.231149 0.0750978 -1.24747e-19)
(0.575005 0.203667 1.0784e-19)
(0.829953 0.316491 -7.49565e-20)
(1.01448 0.402009 5.44888e-19)
(1.14269 0.459482 2.62566e-19)
(1.22719 0.492752 -5.98217e-20)
(1.27923 0.506859 1.98687e-19)
(1.30821 0.507171 -1.28663e-19)
(1.32128 0.499067 -3.61945e-20)
(1.32427 0.48454 2.00472e-19)
(0.241899 0.0981396 -2.16662e-19)
(0.590687 0.253839 2.48653e-19)
(0.841204 0.378042 -4.71585e-19)
(1.01678 0.465073 6.4741e-20)
(1.13469 0.518371 1.42092e-19)
(1.20955 0.544691 -2.09726e-19)
(1.25371 0.551055 -2.46469e-19)
(1.27696 0.544012 1.08082e-19)
(1.28648 0.529498 -1.29863e-19)
(1.28815 0.509768 1.36917e-19)
(0.247651 0.121647 -5.46364e-20)
(0.594884 0.302945 -2.53285e-19)
(0.837728 0.435926 1.34211e-19)
(1.00342 0.522086 2.22989e-19)
(1.1117 0.569561 -1.29303e-19)
(1.17858 0.588102 -9.59368e-20)
(1.21691 0.586573 -5.99914e-20)
(1.23651 0.57248 -2.89925e-20)
(1.24434 0.552109 3.20535e-21)
(1.24619 0.527996 6.00202e-20)
(0.247957 0.144458 4.20733e-20)
(0.587287 0.34856 -2.18621e-19)
(0.819846 0.487372 3.52866e-19)
(0.975442 0.570464 -2.01214e-19)
(1.07536 0.6109 6.04233e-20)
(1.13625 0.62131 -8.1931e-20)
(1.17098 0.612162 8.68015e-20)
(1.18894 0.591632 2.53485e-20)
(1.19677 0.566128 -9.285e-21)
(1.20007 0.538544 1.71696e-20)
(0.242641 0.165322 -1.12057e-19)
(0.568152 0.388271 1.98147e-19)
(0.788493 0.529789 -7.25714e-21)
(0.93438 0.607923 -4.28585e-20)
(1.02759 0.640568 -9.91463e-20)
(1.08475 0.642952 1.45837e-20)
(1.11814 0.626828 6.28408e-21)
(1.13647 0.600714 -5.05913e-20)
(1.14589 0.57085 5.60401e-20)
(1.15184 0.540619 4.52895e-20)
(0.23183 0.182986 4.10313e-20)
(0.5383 0.419828 -4.79302e-20)
(0.745132 0.560914 1.81159e-21)
(0.882118 0.632564 3.39509e-20)
(0.970487 0.657082 9.88641e-21)
(1.02621 0.651882 -5.15004e-20)
(1.06062 0.629671 -1.20075e-19)
(1.08153 0.599004 -5.00177e-20)
(1.09465 0.565621 -6.4033e-20)
(1.10483 0.533575 4.15983e-20)
(0.215975 0.196295 4.69408e-20)
(0.499076 0.44133 -7.38626e-20)
(0.691651 0.578981 6.948e-20)
(0.8207 0.642997 -1.35876e-19)
(0.905924 0.659319 3.10296e-20)
(0.962158 0.646939 2.20092e-19)
(0.999653 0.619106 -6.63804e-20)
(1.02542 0.584125 7.49316e-20)
(1.04482 0.547085 1.10255e-19)
(1.06093 0.513811 3.24777e-19)
(0.195854 0.204315 3.75955e-19)
(0.45231 0.451399 -2.25767e-19)
(0.630313 0.582946 5.35502e-19)
(0.752301 0.638719 -8.82755e-20)
(0.835495 0.647223 4.35474e-19)
(0.89315 0.628158 2.66269e-19)
(0.934341 0.594517 -6.1018e-19)
(0.965462 0.553409 9.11806e-19)
(0.991156 0.507183 -1.90412e-19)
(1.00824 0.459654 3.3765e-19)
(0.17253 0.206399 -2.08598e-19)
(0.400276 0.449243 -1.35537e-19)
(0.563845 0.572502 1.29172e-19)
(0.679597 0.620214 -3.00377e-19)
(0.761407 0.622433 -9.11971e-19)
(0.820447 0.599101 -3.58975e-19)
(0.864393 0.563015 -3.14148e-19)
(0.898697 0.521353 1.5093e-19)
(0.926599 0.47758 1.22539e-18)
(0.94439 0.436354 -2.28835e-19)
(0.147268 0.202174 1.12396e-19)
(0.345564 0.434512 -4.09525e-19)
(0.495393 0.54763 8.61715e-20)
(0.606015 0.587782 -6.07189e-19)
(0.687484 0.585402 1.28803e-18)
(0.748727 0.560049 -1.46435e-19)
(0.795978 0.523961 6.70096e-19)
(0.833716 0.483955 -9.3879e-19)
(0.864562 0.443498 2.90135e-19)
(0.886125 0.406659 4.0716e-20)
(0.121404 0.191536 8.31227e-20)
(0.290804 0.407284 4.50614e-19)
(0.428015 0.508631 -1.27747e-18)
(0.534664 0.541793 5.99805e-19)
(0.616786 0.536329 -1.03215e-21)
(0.681056 0.510743 -1.91585e-19)
(0.732343 0.476362 2.3685e-19)
(0.774292 0.439409 -2.29477e-19)
(0.809167 0.403007 -7.73007e-19)
(0.835455 0.370257 -1.91372e-19)
(0.0962669 0.174642 2.74072e-19)
(0.238516 0.36808 2.75004e-19)
(0.364538 0.456233 1.09108e-18)
(0.46827 0.482991 -5.8715e-19)
(0.55176 0.475803 1.17451e-18)
(0.619515 0.45148 -2.4622e-19)
(0.675143 0.420112 -2.53835e-19)
(0.721567 0.387153 2.94331e-19)
(0.760755 0.355271 1.88191e-19)
(0.791845 0.326694 6.14248e-19)
(0.073112 0.15191 -2.7922e-19)
(0.191023 0.31786 8.18682e-20)
(0.307503 0.391611 2.15282e-20)
(0.409205 0.412543 5.99803e-19)
(0.49445 0.404845 -1.45296e-18)
(0.565763 0.383074 2.40824e-19)
(0.625629 0.35582 5.18165e-19)
(0.676339 0.327658 -6.13622e-19)
(0.719618 0.300746 2.12074e-19)
(0.755172 0.276611 -8.87329e-19)
(0.0530775 0.124005 5.95965e-20)
(0.15038 0.257992 2.8725e-19)
(0.259107 0.316358 1.07418e-19)
(0.359475 0.331997 1.40894e-19)
(0.446548 0.32484 2.61611e-19)
(0.521142 0.306713 7.57865e-19)
(0.584793 0.284502 -9.06308e-19)
(0.639268 0.261826 -4.99643e-19)
(0.686102 0.240336 8.12878e-20)
(0.725519 0.221016 5.76365e-19)
(0.0371379 0.0918138 -3.60633e-19)
(0.118312 0.190209 -3.8171e-20)
(0.221166 0.232432 -3.08589e-19)
(0.320717 0.24324 4.25615e-20)
(0.409414 0.237482 -2.47632e-19)
(0.486723 0.22388 -2.75402e-19)
(0.553439 0.207461 -4.00873e-19)
(0.61092 0.190837 1.05748e-18)
(0.660571 0.17517 1.78882e-19)
(0.703052 0.161046 -2.46008e-19)
(0.0260641 0.0564142 1.94485e-19)
(0.0961629 0.116544 2.29767e-19)
(0.195078 0.142089 8.68302e-20)
(0.294175 0.148423 -4.53779e-19)
(0.384079 0.144704 -2.04926e-19)
(0.463319 0.136277 -4.30152e-20)
(0.532183 0.126199 8.20001e-20)
(0.591751 0.116051 6.45327e-20)
(0.643349 0.106519 -4.8913e-19)
(0.687952 0.0979074 2.5327e-19)
(0.0203904 0.0190288 -1.01303e-19)
(0.0848539 0.0392559 -1.03006e-19)
(0.181794 0.0478061 7.8907e-20)
(0.280692 0.0498916 6.7694e-20)
(0.371237 0.0486075 6.73302e-20)
(0.451479 0.0457535 1.00219e-19)
(0.521448 0.0423562 -5.19596e-21)
(0.582084 0.0389441 -1.25739e-19)
(0.634675 0.0357443 1.1717e-19)
(0.680364 0.03285 -1.59011e-19)
(0.0203904 -0.0190286 -1.01959e-19)
(0.0848539 -0.0392554 -9.81394e-20)
(0.181794 -0.0478056 8.69662e-20)
(0.280692 -0.049891 1.6449e-19)
(0.371237 -0.0486069 1.06299e-19)
(0.451479 -0.0457531 -1.36411e-19)
(0.521447 -0.0423558 -7.23278e-20)
(0.582084 -0.0389437 3.09563e-20)
(0.634675 -0.035744 6.82098e-20)
(0.680364 -0.0328498 -3.66314e-20)
(0.0260641 -0.056414 2.43229e-19)
(0.0961629 -0.116543 -2.76239e-19)
(0.195078 -0.142089 -2.20138e-20)
(0.294175 -0.148422 1.42243e-19)
(0.384079 -0.144704 -6.23722e-19)
(0.463319 -0.136277 2.59477e-19)
(0.532183 -0.126199 2.61485e-19)
(0.591751 -0.116051 -3.02345e-19)
(0.643349 -0.106519 2.83433e-19)
(0.687952 -0.0979072 -1.12353e-19)
(0.0371378 -0.0918136 -4.2066e-20)
(0.118312 -0.190209 -4.71662e-21)
(0.221166 -0.232432 -7.16871e-19)
(0.320717 -0.24324 -2.20086e-19)
(0.409414 -0.237482 -2.21763e-20)
(0.486723 -0.22388 -3.4227e-19)
(0.553439 -0.20746 6.22932e-19)
(0.61092 -0.190837 -2.1604e-20)
(0.660571 -0.17517 3.42036e-19)
(0.703052 -0.161046 -2.70846e-19)
(0.0530775 -0.124005 7.09684e-20)
(0.15038 -0.257992 -2.93047e-19)
(0.259107 -0.316358 8.68206e-19)
(0.359475 -0.331997 1.18884e-19)
(0.446548 -0.324839 5.66074e-19)
(0.521142 -0.306713 -5.38495e-19)
(0.584793 -0.284502 5.52262e-19)
(0.639268 -0.261826 -3.90324e-19)
(0.686102 -0.240336 -1.68524e-19)
(0.725518 -0.221016 1.28626e-19)
(0.0731119 -0.15191 6.31998e-19)
(0.191023 -0.317859 1.51474e-21)
(0.307503 -0.39161 -9.12786e-19)
(0.409204 -0.412542 -2.55713e-19)
(0.49445 -0.404844 8.25006e-19)
(0.565763 -0.383074 -4.70464e-19)
(0.625629 -0.35582 -5.32162e-19)
(0.676339 -0.327658 4.69232e-19)
(0.719618 -0.300746 -3.13385e-19)
(0.755172 -0.276611 -6.08924e-20)
(0.0962668 -0.174642 -9.44501e-20)
(0.238516 -0.368079 -3.81589e-21)
(0.364538 -0.456232 9.8771e-19)
(0.46827 -0.482991 5.47577e-19)
(0.551759 -0.475803 -6.26488e-19)
(0.619514 -0.45148 7.39376e-19)
(0.675143 -0.420111 -7.82702e-19)
(0.721566 -0.387153 7.67042e-20)
(0.760755 -0.35527 2.24799e-19)
(0.791845 -0.326694 4.66578e-19)
(0.121404 -0.191535 1.07031e-19)
(0.290804 -0.407283 1.53546e-19)
(0.428014 -0.50863 1.59873e-19)
(0.534663 -0.541792 -5.02844e-19)
(0.616786 -0.536328 -8.68059e-19)
(0.681056 -0.510743 1.78234e-19)
(0.732343 -0.476362 5.05489e-19)
(0.774292 -0.439408 -1.41588e-19)
(0.809166 -0.403007 8.3455e-19)
(0.835455 -0.370257 -7.33033e-19)
(0.147268 -0.202174 -6.0465e-19)
(0.345564 -0.434511 2.05312e-19)
(0.495393 -0.54763 -5.38721e-19)
(0.606014 -0.587782 8.41326e-19)
(0.687484 -0.585402 4.08643e-19)
(0.748727 -0.560048 5.62123e-19)
(0.795978 -0.523961 -1.26136e-19)
(0.833715 -0.483955 4.91662e-19)
(0.864562 -0.443498 -1.02135e-18)
(0.886125 -0.406658 -2.39555e-19)
(0.17253 -0.206399 3.75488e-20)
(0.400276 -0.449243 -3.60012e-19)
(0.563844 -0.572502 -5.48444e-19)
(0.679596 -0.620214 -2.27459e-19)
(0.761407 -0.622433 -6.22806e-19)
(0.820447 -0.599101 -6.28201e-20)
(0.864393 -0.563014 5.33821e-20)
(0.898696 -0.521352 -2.26336e-19)
(0.926599 -0.477579 -2.49297e-19)
(0.94439 -0.436353 5.91285e-19)
(0.195854 -0.204315 1.86905e-19)
(0.452309 -0.451399 2.30148e-19)
(0.630312 -0.582945 4.00768e-19)
(0.752301 -0.638719 1.84711e-20)
(0.835495 -0.647223 2.53929e-19)
(0.893149 -0.628157 -3.3611e-19)
(0.934341 -0.594517 1.00703e-18)
(0.965462 -0.553409 -4.34857e-19)
(0.991156 -0.507183 -2.10899e-19)
(1.00824 -0.459654 -5.72727e-19)
(0.215975 -0.196295 -7.2378e-20)
(0.499076 -0.44133 1.0482e-19)
(0.69165 -0.57898 -1.05178e-19)
(0.8207 -0.642996 5.69046e-20)
(0.905923 -0.659319 -6.5801e-20)
(0.962158 -0.646939 -1.66339e-19)
(0.999652 -0.619106 2.13433e-19)
(1.02542 -0.584124 -7.18421e-20)
(1.04482 -0.547084 1.04339e-19)
(1.06093 -0.51381 -1.84618e-19)
(0.23183 -0.182985 2.53595e-21)
(0.5383 -0.419828 -7.18181e-20)
(0.745132 -0.560914 3.2357e-20)
(0.882117 -0.632564 5.72836e-20)
(0.970487 -0.657081 -3.58752e-20)
(1.02621 -0.651882 1.09215e-20)
(1.06062 -0.62967 -6.35863e-21)
(1.08152 -0.599003 -1.50064e-19)
(1.09465 -0.565621 -7.16973e-20)
(1.10483 -0.533575 -1.77545e-19)
(0.242641 -0.165322 -6.24534e-20)
(0.568152 -0.388271 1.98417e-19)
(0.788493 -0.529788 -1.23668e-19)
(0.93438 -0.607923 -5.72302e-20)
(1.02759 -0.640567 4.3427e-20)
(1.08475 -0.642952 1.22653e-20)
(1.11814 -0.626828 2.16478e-21)
(1.13647 -0.600713 9.76566e-20)
(1.14589 -0.57085 -8.65389e-20)
(1.15184 -0.540618 -1.92132e-22)
(0.247957 -0.144458 -1.46672e-19)
(0.587287 -0.34856 -8.51452e-20)
(0.819846 -0.487371 -2.01714e-19)
(0.975442 -0.570464 2.23004e-19)
(1.07536 -0.6109 -1.5572e-20)
(1.13625 -0.62131 7.47687e-20)
(1.17098 -0.612162 9.10273e-20)
(1.18894 -0.591631 -3.12443e-20)
(1.19677 -0.566128 -5.52799e-22)
(1.20007 -0.538544 -1.65809e-20)
(0.247651 -0.121647 -9.84466e-20)
(0.594884 -0.302945 -1.13143e-19)
(0.837728 -0.435926 1.66047e-19)
(1.00342 -0.522086 -2.44327e-19)
(1.1117 -0.569561 4.14768e-20)
(1.17858 -0.588102 2.14817e-20)
(1.21691 -0.586573 4.27668e-20)
(1.23651 -0.572479 -2.67871e-20)
(1.24434 -0.552109 -3.4063e-20)
(1.24619 -0.527996 -1.20973e-19)
(0.241899 -0.0981396 4.10393e-19)
(0.590687 -0.253839 -2.86666e-19)
(0.841204 -0.378041 1.25752e-20)
(1.01678 -0.465072 -3.45771e-19)
(1.13469 -0.51837 -9.89164e-20)
(1.20955 -0.544691 7.76325e-20)
(1.25371 -0.551055 5.62673e-20)
(1.27696 -0.544012 -1.84822e-19)
(1.28648 -0.529497 8.5695e-20)
(1.28815 -0.509768 -1.25811e-19)
(0.231149 -0.0750978 2.02548e-19)
(0.575006 -0.203667 -1.79395e-19)
(0.829953 -0.31649 6.23559e-19)
(1.01448 -0.402009 4.88698e-20)
(1.14269 -0.459482 1.33288e-19)
(1.22719 -0.492751 4.69336e-19)
(1.27923 -0.506858 -9.38175e-20)
(1.30821 -0.50717 2.54815e-20)
(1.32128 -0.499066 -1.07304e-20)
(1.32427 -0.484539 -1.97784e-20)
(0.216075 -0.0535331 1.55656e-19)
(0.548691 -0.154718 3.17971e-19)
(0.804306 -0.254072 -3.13298e-19)
(0.996107 -0.335663 -9.28103e-20)
(1.13457 -0.395314 -9.61287e-20)
(1.22981 -0.434223 1.82525e-19)
(1.2915 -0.45545 -8.48769e-20)
(1.32822 -0.46303 1.9765e-19)
(1.34679 -0.461606 4.82153e-20)
(1.35282 -0.45289 -7.15948e-20)
(0.197522 -0.0342596 -1.68251e-19)
(0.513071 -0.109024 1.39962e-19)
(0.765245 -0.193463 -2.7724e-19)
(0.961903 -0.268853 1.12557e-19)
(1.10977 -0.328469 -1.09806e-19)
(1.21616 -0.371292 -1.2777e-19)
(1.28881 -0.398536 -9.74808e-20)
(1.33505 -0.412856 1.05681e-19)
(1.3611 -0.418024 -1.82174e-19)
(1.37203 -0.415437 9.85801e-20)
(0.176438 -0.017867 -6.29463e-20)
(0.469858 -0.0682589 -1.10895e-19)
(0.714361 -0.137081 5.02296e-20)
(0.912832 -0.204321 3.52426e-21)
(1.06841 -0.261645 3.77211e-20)
(1.18557 -0.306353 5.28556e-20)
(1.26983 -0.338084 4.43315e-20)
(1.327 -0.358168 -5.87124e-20)
(1.36233 -0.369434 4.74626e-20)
(1.38009 -0.37294 -6.46618e-20)
(0.153815 -0.00471169 -3.96894e-20)
(0.421031 -0.0336745 -1.43348e-20)
(0.65376 -0.0869618 5.16268e-20)
(0.850551 -0.144596 -2.24684e-20)
(1.01137 -0.197527 6.14123e-20)
(1.13803 -0.241964 -7.57444e-20)
(1.23379 -0.276328 1.89349e-20)
(1.3027 -0.300794 1.60263e-20)
(1.34877 -0.317242 -5.77391e-21)
(1.3752 -0.326388 2.26076e-20)
(0.13062 0.00507504 -4.75783e-20)
(0.368701 -0.00606024 -1.81124e-19)
(0.585933 -0.0446651 -1.41521e-20)
(0.777335 -0.091864 5.46456e-21)
(0.940298 -0.13866 -2.28351e-19)
(1.07433 -0.180745 2.34832e-20)
(1.18059 -0.215736 -2.43344e-20)
(1.26129 -0.242895 -6.51955e-20)
(1.31903 -0.263225 1.42357e-19)
(1.35569 -0.277112 -2.2565e-19)
(0.107738 0.0115631 -2.70228e-20)
(0.314976 0.0142534 3.88788e-19)
(0.513593 -0.0112132 5.00966e-20)
(0.695948 -0.0478443 -3.27571e-19)
(0.857534 -0.0873005 -3.79914e-20)
(0.996077 -0.125252 -3.50936e-19)
(1.11092 -0.158924 2.67097e-19)
(1.20259 -0.186958 -1.06601e-19)
(1.27218 -0.20959 1.98398e-19)
(1.32015 -0.226891 -1.53411e-19)
(0.0859282 0.0149886 -1.52915e-19)
(0.261828 0.027367 1.60029e-19)
(0.439496 0.0129409 -1.07712e-19)
(0.609465 -0.0136897 7.19813e-19)
(0.76601 -0.0452614 3.70719e-19)
(0.905644 -0.0778085 -9.47501e-20)
(1.02635 -0.108522 3.6033e-19)
(1.12725 -0.135712 -2.31236e-19)
(1.20803 -0.158977 -7.34915e-20)
(1.26773 -0.178038 4.63792e-19)
(0.065793 0.0157132 -2.83104e-19)
(0.210991 0.0337629 3.78937e-19)
(0.366261 0.0279151 -6.92904e-19)
(0.521056 0.0100986 1.1614e-19)
(0.669033 -0.0137503 2.81903e-19)
(0.806063 -0.0402896 -3.44922e-19)
(0.929293 -0.0669489 -5.98329e-19)
(1.03683 -0.0919491 3.14414e-19)
(1.12725 -0.114354 -4.02042e-19)
(1.19826 -0.133394 5.65327e-19)
(0.04777 0.014187 -6.9923e-20)
(0.163889 0.0342498 -3.81716e-19)
(0.296218 0.0343841 1.81265e-19)
(0.433751 0.0237386 4.40258e-19)
(0.570018 0.00680227 -2.29556e-19)
(0.700744 -0.013858 -2.21199e-19)
(0.822764 -0.0360935 -3.67192e-19)
(0.933706 -0.0582108 -1.64828e-19)
(1.03139 -0.078763 -3.87688e-20)
(1.11248 -0.0961806 5.65049e-19)
(0.032146 0.0109222 1.17896e-19)
(0.121604 0.0299145 -5.19405e-19)
(0.231291 0.0335571 8.56468e-19)
(0.350229 0.0282237 -4.6113e-19)
(0.472185 0.0169215 2.90999e-19)
(0.593119 0.00136085 -3.5285e-19)
(0.710032 -0.0168567 3.84312e-19)
(0.820633 -0.0362498 3.29036e-19)
(0.922551 -0.0548119 7.04896e-19)
(1.01179 -0.0695928 -1.02506e-18)
(0.0190849 0.00648198 -3.66244e-19)
(0.084885 0.0220793 6.59512e-19)
(0.172938 0.0271374 8.73199e-21)
(0.272675 0.0253439 -2.21309e-19)
(0.378308 0.0182462 -1.13858e-19)
(0.486265 0.00664726 8.91789e-20)
(0.594069 -0.00852268 -6.19199e-19)
(0.700094 -0.0261736 4.68245e-19)
(0.802537 -0.0437448 -5.93015e-19)
(0.897393 -0.0559863 -2.371e-19)
(0.00865993 0.00147507 6.31397e-19)
(0.0541854 0.0122445 -1.76259e-19)
(0.122185 0.0172264 -3.19266e-19)
(0.202778 0.0176115 8.38792e-19)
(0.290665 0.0135697 -8.00798e-19)
(0.382716 0.00496715 4.36421e-19)
(0.477043 -0.00810867 4.54559e-19)
(0.572988 -0.0253661 1.21787e-19)
(0.670163 -0.0442362 1.24204e-19)
(0.7662 -0.0561975 -1.54141e-19)
(0.000865966 -0.00347039 -6.04609e-19)
(0.0297125 0.00196738 5.15009e-19)
(0.0797413 0.00611038 -4.38993e-19)
(0.141978 0.00801678 5.33384e-19)
(0.211503 0.00672403 -1.54707e-19)
(0.285292 0.0013078 -5.24628e-19)
(0.36144 -0.00897066 1.47057e-19)
(0.439455 -0.025052 -2.37262e-19)
(0.520247 -0.0463048 -2.75411e-19)
(0.606097 -0.0630792 -7.47471e-19)
(-0.00440436 -0.00779131 -7.57158e-19)
(0.0114317 -0.00739439 5.38877e-19)
(0.0460913 -0.00423642 -1.0173e-18)
(0.0917834 -0.000804971 1.76058e-19)
(0.143975 0.00135826 -6.62887e-19)
(0.199519 0.00127947 -3.87963e-19)
(0.255796 -0.00138238 9.08178e-19)
(0.310807 -0.00684583 -1.21799e-18)
(0.363815 -0.0157062 2.30506e-19)
(0.412142 -0.0240755 -3.20455e-19)
(-0.00741503 -0.0111079 3.73189e-19)
(-0.0010442 -0.0149847 1.41801e-19)
(0.02124 -0.0128136 -4.09696e-20)
(0.0532205 -0.00812871 3.74265e-19)
(0.0911493 -0.00281544 1.06836e-18)
(0.132413 0.0021486 3.59765e-19)
(0.174966 0.00654813 3.63747e-19)
(0.217546 0.0104225 -1.23136e-19)
(0.260134 0.0131332 -1.13323e-18)
(0.300235 0.0149696 2.38801e-19)
(-0.00860116 -0.0132453 -1.05697e-19)
(-0.00858023 -0.0203859 3.01158e-19)
(0.00420207 -0.0192186 -7.59597e-20)
(0.0252829 -0.0139266 5.18526e-19)
(0.0518399 -0.00669234 -1.16417e-18)
(0.0818942 0.00130626 9.65401e-20)
(0.113985 0.00952039 -5.2849e-19)
(0.147286 0.0175276 7.63293e-19)
(0.18155 0.0243676 -2.18878e-19)
(0.214145 0.0292932 -2.58476e-20)
(-0.00847374 -0.0141856 -7.19152e-20)
(-0.0122996 -0.0234635 -3.62091e-19)
(-0.00653977 -0.0232616 8.77298e-19)
(0.00606441 -0.0180381 -4.4711e-19)
(0.0235828 -0.010176 3.03767e-20)
(0.0445783 -0.00106963 1.35807e-19)
(0.0679847 0.00839347 -1.21637e-19)
(0.0931457 0.0174035 1.54744e-19)
(0.119599 0.0248493 5.27481e-19)
(0.145143 0.0298956 1.13278e-19)
(-0.00752142 -0.0140098 -1.61711e-19)
(-0.0133395 -0.0242708 -1.60936e-19)
(-0.0125837 -0.0248833 -6.87246e-19)
(-0.0064345 -0.0202259 3.5398e-19)
(0.00398231 -0.0127147 -7.09033e-19)
(0.0176838 -0.00384123 1.56915e-19)
(0.0338895 0.00534715 1.72536e-19)
(0.0520334 0.0139219 -1.78933e-19)
(0.0715654 0.0208566 -1.13767e-19)
(0.0908329 0.0254014 -4.1742e-19)
(-0.00616067 -0.0128527 1.26572e-19)
(-0.0127203 -0.0229911 -2.67034e-20)
(-0.015407 -0.0241588 4.44587e-22)
(-0.0140725 -0.0203461 -3.19669e-19)
(-0.0091564 -0.0138157 7.85634e-19)
(-0.00126834 -0.0060074 -1.19419e-19)
(0.00903049 0.00203892 -2.91364e-19)
(0.0212468 0.00945132 3.49532e-19)
(0.0348241 0.0153944 -1.2068e-19)
(0.0485868 0.0192533 5.42506e-19)
(-0.00472023 -0.0108737 -2.37789e-20)
(-0.0112841 -0.0198952 -1.24606e-19)
(-0.0162542 -0.0212926 -4.73108e-20)
(-0.0184181 -0.0184171 -5.8463e-20)
(-0.0176601 -0.0132086 -1.21957e-19)
(-0.0142918 -0.00692073 -3.73162e-19)
(-0.00869979 -0.000462928 4.56231e-19)
(-0.00130574 0.00543989 2.6121e-19)
(0.00736634 0.0101619 -4.59832e-20)
(0.0165044 0.0132339 -3.3155e-19)
(-0.00344447 -0.00824294 1.35106e-19)
(-0.00967756 -0.0153174 2.10581e-20)
(-0.0160933 -0.0166101 1.37348e-19)
(-0.0206853 -0.0146444 -1.52174e-20)
(-0.0229196 -0.0109012 1.17363e-19)
(-0.0228816 -0.00634485 1.29027e-19)
(-0.0208226 -0.00167238 1.89064e-19)
(-0.0170983 0.0025814 -5.24854e-19)
(-0.0121916 0.00598736 -9.51502e-20)
(-0.00665973 0.00821666 1.37862e-19)
(-0.00250434 -0.00513826 -6.82631e-20)
(-0.00836244 -0.00964135 -8.67029e-20)
(-0.0156185 -0.0105442 -4.00728e-20)
(-0.0217407 -0.00941171 1.89642e-19)
(-0.0259153 -0.00716974 8.93462e-20)
(-0.0280747 -0.00442327 1.78555e-20)
(-0.0283763 -0.00160772 -3.78246e-20)
(-0.0271253 0.000951215 -2.87491e-20)
(-0.024771 0.00300414 2.42368e-19)
(-0.0217109 0.0043562 -1.3321e-19)
(-0.00200804 -0.00174497 3.48044e-20)
(-0.00763333 -0.00328952 3.86972e-20)
(-0.0152735 -0.00361248 -3.17316e-20)
(-0.0221353 -0.00324384 -2.80546e-20)
(-0.0272648 -0.00249836 -2.82376e-20)
(-0.0305171 -0.00158198 -4.38911e-20)
(-0.0320013 -0.000642485 1.3819e-21)
(-0.0319953 0.000210913 5.83178e-20)
(-0.03093 0.000896503 -5.75013e-20)
(-0.0291265 0.00134972 8.43631e-20)
(-0.00167795 -0.003122 3.97266e-21)
(0.0854399 -0.00746625 2.30305e-21)
(0.321139 -0.00796497 2.55477e-22)
(0.45856 -0.00606071 -1.86239e-22)
(0.601683 -0.00529889 -1.49397e-23)
(0.712346 -0.00413153 2.47199e-24)
(0.800582 -0.00325696 -6.40498e-23)
(0.871771 -0.00231604 3.19235e-23)
(0.91489 -0.00177547 -4.38055e-24)
(0.960885 -0.000919239 9.0139e-23)
(0.015934 -0.00968332 6.35706e-21)
(0.101566 -0.0222207 4.12334e-22)
(0.333227 -0.0237058 -3.76311e-21)
(0.467418 -0.0180395 2.42835e-21)
(0.607762 -0.0157878 8.03671e-23)
(0.716387 -0.0123224 1.29658e-22)
(0.80312 -0.00972254 -2.3483e-22)
(0.873251 -0.00691968 -1.10233e-22)
(0.91576 -0.00530679 -2.91214e-22)
(0.961255 -0.00274666 -8.06017e-23)
(0.0507624 -0.0171538 6.5275e-21)
(0.133215 -0.0364522 -8.74214e-21)
(0.356864 -0.0389064 3.99338e-21)
(0.484748 -0.0296115 -1.88908e-21)
(0.619661 -0.0259496 4.81111e-23)
(0.724311 -0.0202801 -1.06143e-23)
(0.808104 -0.0160231 1.06495e-22)
(0.87616 -0.0114181 -4.9852e-23)
(0.917474 -0.00876941 2.09619e-22)
(0.961985 -0.00454364 -1.14338e-22)
(0.102015 -0.0260174 -1.0301e-20)
(0.179231 -0.0498353 -1.25191e-20)
(0.391021 -0.0532337 -5.41472e-21)
(0.509806 -0.040531 2.30712e-21)
(0.636886 -0.0355859 -1.16693e-21)
(0.73581 -0.0278626 -2.89133e-22)
(0.815355 -0.0220571 8.23762e-23)
(0.880404 -0.0157461 -1.86472e-22)
(0.919979 -0.0121203 2.28838e-22)
(0.963053 -0.00629093 4.49701e-23)
(0.168503 -0.0365371 2.86187e-20)
(0.237985 -0.0620594 1.78173e-20)
(0.434252 -0.0663853 6.13194e-21)
(0.541551 -0.0505854 -4.40025e-21)
(0.658742 -0.044525 9.62783e-22)
(0.75045 -0.0349465 -1.3879e-22)
(0.82462 -0.0277351 -6.88584e-22)
(0.885845 -0.0198452 -2.92481e-22)
(0.923204 -0.0153203 -5.712e-22)
(0.964431 -0.00797085 -2.2137e-22)
(0.248648 -0.0486205 -1.2694e-20)
(0.307473 -0.0727911 1.01616e-20)
(0.4848 -0.0780776 1.32083e-21)
(0.578718 -0.0595935 4.5567e-21)
(0.684383 -0.0526254 -7.47146e-22)
(0.767702 -0.0414304 4.38861e-22)
(0.835588 -0.0329827 7.16566e-22)
(0.892313 -0.0236664 4.0331e-22)
(0.927057 -0.0183354 2.34642e-22)
(0.966083 -0.00956782 2.7024e-22)
(0.340521 -0.0619537 -1.01656e-20)
(0.385418 -0.0817463 -2.59012e-20)
(0.540716 -0.0880868 -4.14626e-21)
(0.619905 -0.0674148 -3.01234e-21)
(0.712872 -0.0597818 6.94407e-22)
(0.786975 -0.0472377 -4.7e-23)
(0.847909 -0.0377421 -4.13946e-22)
(0.899618 -0.0271702 -3.58397e-22)
(0.931433 -0.0211379 8.13907e-23)
(0.967966 -0.0110684 9.94252e-23)