1.45 	0 	0 	-0.291403
2.35 	0 	0 	-0.126655
