/*--------------------------------*- C++ -*----------------------------------*\
  =========                 |
  \\      /  F ield         | OpenFOAM: The Open Source CFD Toolbox
   \\    /   O peration     | Website:  https://openfoam.org
    \\  /    A nd           | Version:  6.0
     \\/     M anipulation  |
\*---------------------------------------------------------------------------*/
FoamFile
{
    version     2.0;
    format      ascii;
    class       surfaceScalarField;
    location    "24";
    object      phi;
}
// * * * * * * * * * * * * * * * * * * * * * * * * * * * * * * * * * * * * * //

dimensions      [0 3 -1 0 0 0 0];

internalField   nonuniform List<scalar> 
15760
(
-2.2495e-06
2.24907e-06
4.28851e-10
-7.77844e-06
5.5278e-06
1.14264e-09
-1.5636e-05
7.85578e-06
1.74632e-09
-2.50532e-05
9.41496e-06
2.25749e-09
-3.54088e-05
1.03529e-05
2.68975e-09
-4.62039e-05
1.07921e-05
3.05494e-09
-5.70421e-05
1.08348e-05
3.36265e-09
-6.76123e-05
1.05666e-05
3.62054e-09
-7.76768e-05
1.00606e-05
3.83525e-09
-8.70605e-05
9.37973e-06
4.01256e-09
-9.56436e-05
8.57899e-06
4.1575e-09
-0.000103355
7.70699e-06
4.27483e-09
-0.000110166
6.80682e-06
4.36909e-09
-0.000116087
5.91674e-06
4.44369e-09
-0.000121162
5.07051e-06
4.5014e-09
-0.000125464
4.29745e-06
4.54532e-09
-0.000129091
3.62239e-06
4.57857e-09
-0.000132162
3.06565e-06
4.60367e-09
-0.00013481
2.64417e-06
4.62194e-09
2.37233e-06
4.63684e-09
-0.000137187
-2.23123e-06
4.4803e-06
-7.70461e-06
1.10012e-05
-1.54699e-05
1.5621e-05
-2.47593e-05
1.87044e-05
-3.49531e-05
2.05466e-05
-4.55535e-05
2.13925e-05
-5.61643e-05
2.14456e-05
-6.64744e-05
2.08768e-05
-7.62451e-05
1.98313e-05
-8.52998e-05
1.84344e-05
-9.35164e-05
1.67957e-05
-0.000100821
1.5012e-05
-0.000107184
1.31695e-05
-0.000112612
1.13448e-05
-0.000117148
9.6059e-06
-0.000120862
8.01204e-06
-0.000123853
6.61363e-06
-0.00012624
5.45213e-06
-0.000128158
4.56236e-06
3.97379e-06
-0.00012976
-2.19442e-06
6.67472e-06
-7.55589e-06
1.63626e-05
-1.51354e-05
2.32006e-05
-2.41683e-05
2.77373e-05
-3.40375e-05
3.04158e-05
-4.42477e-05
3.16027e-05
-5.4404e-05
3.16019e-05
-6.41951e-05
3.06678e-05
-7.33803e-05
2.90166e-05
-8.17803e-05
2.68343e-05
-8.92687e-05
2.42841e-05
-9.57671e-05
2.15104e-05
-0.00010124
1.86421e-05
-0.00010569
1.57947e-05
-0.000109155
1.3071e-05
-0.000111704
1.05615e-05
-0.000113434
8.3435e-06
-0.000114464
6.48157e-06
-0.000114931
5.0302e-06
4.03548e-06
-0.000114993
-2.13851e-06
8.81323e-06
-7.33005e-06
2.15542e-05
-1.46281e-05
3.04987e-05
-2.32728e-05
3.6382e-05
-3.26524e-05
3.97954e-05
-4.22757e-05
4.1226e-05
-5.17503e-05
4.10765e-05
-6.07651e-05
3.96826e-05
-6.90774e-05
3.73289e-05
-7.65033e-05
3.42603e-05
-8.29108e-05
3.06915e-05
-8.82138e-05
2.68134e-05
-9.2369e-05
2.27973e-05
-9.53718e-05
1.87976e-05
-9.72538e-05
1.4953e-05
-9.80795e-05
1.13871e-05
-9.79426e-05
8.20663e-06
-9.69627e-05
5.50172e-06
-9.52822e-05
3.34971e-06
1.81579e-06
-9.30626e-05
-2.06248e-06
1.08757e-05
-7.02326e-06
2.6515e-05
-1.39401e-05
3.74155e-05
-2.20607e-05
4.45026e-05
-3.07814e-05
4.85161e-05
-3.96182e-05
5.00627e-05
-4.81828e-05
4.96411e-05
-5.61657e-05
4.76655e-05
-6.33222e-05
4.44854e-05
-6.94634e-05
4.04015e-05
-7.44495e-05
3.56776e-05
-7.81848e-05
3.05487e-05
-8.06152e-05
2.52277e-05
-8.17255e-05
1.99079e-05
-8.15379e-05
1.47654e-05
-8.01097e-05
9.95889e-06
-7.75309e-05
5.62782e-06
-7.3921e-05
1.89185e-06
-6.94268e-05
-1.14452e-06
-3.39301e-06
-6.4218e-05
-1.96474e-06
1.28404e-05
-6.62962e-06
3.11799e-05
-1.30593e-05
4.38451e-05
-2.05128e-05
5.19562e-05
-2.83989e-05
5.64022e-05
-3.62438e-05
5.79076e-05
-4.36669e-05
5.70643e-05
-5.03621e-05
5.43607e-05
-5.60842e-05
5.02074e-05
-6.0639e-05
4.49563e-05
-6.38777e-05
3.89163e-05
-6.56928e-05
3.23639e-05
-6.60164e-05
2.55512e-05
-6.48189e-05
1.87105e-05
-6.21095e-05
1.2056e-05
-5.79351e-05
5.78446e-06
-5.23793e-05
7.20167e-08
-4.55606e-05
-4.92688e-06
-3.76306e-05
-9.07444e-06
-1.22536e-05
-2.87701e-05
-1.84293e-06
1.46834e-05
-6.14062e-06
3.54775e-05
-1.19684e-05
4.96729e-05
-1.86019e-05
5.85897e-05
-2.54669e-05
6.32672e-05
-3.21053e-05
6.4546e-05
-3.81483e-05
6.31072e-05
-4.32968e-05
5.95092e-05
-4.73071e-05
5.42177e-05
-4.99811e-05
4.76304e-05
-5.11608e-05
4.00959e-05
-5.07248e-05
3.19279e-05
-4.85882e-05
2.34146e-05
-4.47034e-05
1.48256e-05
-3.90615e-05
6.41413e-06
-3.16946e-05
-1.58243e-06
-2.26764e-05
-8.94615e-06
-1.21222e-05
-1.54811e-05
-1.88797e-07
-2.10079e-05
-2.53722e-05
1.29299e-05
-1.69376e-06
1.63771e-05
-5.54471e-06
3.93285e-05
-1.06442e-05
5.47723e-05
-1.62904e-05
6.4236e-05
-2.19331e-05
6.89099e-05
-2.71357e-05
6.97485e-05
-3.15472e-05
6.75187e-05
-3.48806e-05
6.28427e-05
-3.6898e-05
5.6235e-05
-3.73999e-05
4.81323e-05
-3.62199e-05
3.8916e-05
-3.32223e-05
2.89302e-05
-2.83023e-05
1.84946e-05
-2.13893e-05
7.91265e-06
-1.24515e-05
-2.52374e-06
-1.49985e-06
-1.2534e-05
1.14071e-05
-2.18531e-05
2.61609e-05
-3.02349e-05
4.26006e-05
-3.74476e-05
-4.32878e-05
6.05162e-05
-1.51292e-06
1.78901e-05
-4.827e-06
4.26426e-05
-9.05643e-06
5.90018e-05
-1.35299e-05
6.87094e-05
-1.77283e-05
7.31083e-05
-2.12446e-05
7.32649e-05
-2.37529e-05
7.00271e-05
-2.49856e-05
6.40753e-05
-2.47163e-05
5.59657e-05
-2.27494e-05
4.61654e-05
-1.89134e-05
3.508e-05
-1.30587e-05
2.30755e-05
-5.05914e-06
1.0495e-05
5.18292e-06
-2.32941e-06
1.77293e-05
-1.50702e-05
3.25975e-05
-2.74022e-05
4.97519e-05
-3.90075e-05
6.9097e-05
-4.958e-05
9.04701e-05
-5.88207e-05
-6.64603e-05
0.000113643
-1.2951e-06
1.91851e-05
-3.96941e-06
4.53169e-05
-7.16872e-06
6.22011e-05
-1.02607e-05
7.18014e-05
-1.27664e-05
7.5614e-05
-1.43171e-05
7.48155e-05
-1.46208e-05
7.03309e-05
-1.34382e-05
6.28927e-05
-1.05637e-05
5.30912e-05
-5.81322e-06
4.1415e-05
9.83578e-07
2.82832e-05
9.98633e-06
1.40728e-05
2.13421e-05
-8.60708e-07
3.51789e-05
-1.61663e-05
5.15955e-05
-3.14868e-05
7.06476e-05
-4.64542e-05
9.23332e-05
-6.06931e-05
0.000116579
-7.38258e-05
0.000143226
-8.5468e-05
-9.52598e-05
0.000172026
-1.03416e-06
2.02193e-05
-2.95134e-06
4.72341e-05
-4.9393e-06
6.4189e-05
-6.41424e-06
7.32763e-05
-6.94651e-06
7.61463e-05
-6.21487e-06
7.40838e-05
-3.9718e-06
6.80878e-05
-1.69932e-08
5.89379e-05
5.82277e-06
4.72514e-05
1.37084e-05
3.35294e-05
2.37984e-05
1.81932e-05
3.62542e-05
1.61696e-06
5.12393e-05
-1.58458e-05
6.89127e-05
-3.38397e-05
8.9416e-05
-5.19901e-05
0.000112854
-6.98928e-05
0.000139275
-8.71134e-05
0.00016864
-0.000103191
0.000200806
-0.000117633
-0.000129956
0.000235501
-7.23532e-07
2.09428e-05
-1.75094e-06
4.82615e-05
-2.32382e-06
6.47619e-05
-1.9165e-06
7.2869e-05
-1.57422e-07
7.43872e-05
3.21783e-06
7.07086e-05
8.40208e-06
6.29036e-05
1.55443e-05
5.17957e-05
2.47712e-05
3.80245e-05
3.62049e-05
2.20956e-05
4.99762e-05
4.42188e-06
6.62332e-05
-1.46401e-05
8.51448e-05
-3.47573e-05
0.000106896
-5.55905e-05
0.000131673
-7.67675e-05
0.000159644
-9.78634e-05
0.000190921
-0.000118391
0.000225528
-0.000137798
0.00026335
-0.000155455
-0.000170706
0.000304101
-3.56816e-07
2.12997e-05
-3.47263e-07
4.82519e-05
7.20513e-07
6.36941e-05
3.30513e-06
7.02844e-05
7.71262e-06
6.99797e-05
1.41429e-05
6.42783e-05
2.27248e-05
5.43216e-05
3.35438e-05
4.09767e-05
4.66647e-05
2.49037e-05
6.21516e-05
6.60868e-06
8.00855e-05
-1.3512e-05
0.000100578
-3.51327e-05
0.000123782
-5.79611e-05
0.000149892
-8.17001e-05
0.000179135
-0.000106011
0.000211748
-0.000130476
0.000247933
-0.000154577
0.000287805
-0.00017767
0.000331311
-0.000198961
-0.000217552
0.000378156
7.13473e-08
2.12283e-05
1.27694e-06
4.70463e-05
4.22918e-06
6.07419e-05
9.31244e-06
6.52011e-05
1.67624e-05
6.25297e-05
2.671e-05
5.43308e-05
3.92137e-05
4.18179e-05
5.4286e-05
2.59044e-05
7.19153e-05
7.27436e-06
9.20872e-05
-1.35633e-05
0.000114806
-3.62304e-05
0.000140113
-6.04405e-05
0.000168111
-8.59591e-05
0.000198972
-0.000112561
0.00023294
-0.000139979
0.000270319
-0.000167854
0.00031142
-0.000195678
0.000356493
-0.000222743
0.000405598
-0.000248065
-0.000270415
0.000458461
5.64268e-07
2.0664e-05
3.1318e-06
4.44788e-05
8.22341e-06
5.56503e-05
1.61446e-05
5.72799e-05
2.70597e-05
5.16146e-05
4.10307e-05
4.03598e-05
5.80454e-05
2.48032e-05
7.80393e-05
5.91049e-06
0.000100915
-1.56016e-05
0.000126563
-3.92109e-05
0.000154881
-6.45487e-05
0.000185804
-9.13638e-05
0.000219332
-0.000119487
0.000255557
-0.000148786
0.000294693
-0.000179115
0.000337073
-0.000210235
0.000383127
-0.000241732
0.000433289
-0.000272905
0.000487819
-0.000302595
-0.000329118
0.000546521
1.12215e-06
1.95419e-05
5.21688e-06
4.03841e-05
1.27028e-05
4.81644e-05
2.38051e-05
4.61777e-05
3.862e-05
3.67997e-05
5.71473e-05
2.18326e-05
7.93109e-05
2.6396e-06
0.000104976
-1.97542e-05
0.00013396
-4.4586e-05
0.000166051
-7.13024e-05
0.000201025
-9.95222e-05
0.000238669
-0.000129008
0.000278822
-0.000159639
0.000321418
-0.000191382
0.000366542
-0.000224239
0.000414475
-0.000258168
0.000465715
-0.000292971
0.000520925
-0.000328115
0.000580694
-0.000362364
-0.000393404
0.00064498
1.7412e-06
1.78007e-05
7.51815e-06
3.46071e-05
1.76388e-05
3.80437e-05
3.22494e-05
3.15671e-05
5.1386e-05
1.7663e-05
7.49982e-05
-1.77965e-06
0.000102963
-2.53251e-05
0.000135093
-5.18838e-05
0.000171141
-8.0634e-05
0.000210807
-0.000110969
0.000253747
-0.000142462
0.000299588
-0.000174849
0.000347963
-0.000208014
0.000398557
-0.000241977
0.000451193
-0.000276874
0.000505925
-0.0003129
0.000563158
-0.000350204
0.000623716
-0.000388673
0.000688664
-0.000427312
-0.000463052
0.000758312
2.41315e-06
1.53875e-05
1.00064e-05
2.70139e-05
2.29708e-05
2.50793e-05
4.13768e-05
1.31611e-05
6.52106e-05
-6.17077e-06
9.43887e-05
-3.09578e-05
0.000128765
-5.9701e-05
0.00016813
-9.12495e-05
0.000212213
-0.000124717
0.00026067
-0.000159426
0.000313084
-0.000194876
0.00036896
-0.000230725
0.000427733
-0.000266787
0.000488801
-0.000303045
0.000551589
-0.000339662
0.000615679
-0.00037699
0.000681016
-0.000415541
0.000748204
-0.000455862
0.000818701
-0.000497809
-0.000538966
0.000894616
3.12543e-06
1.22621e-05
1.26375e-05
1.75018e-05
2.8606e-05
9.11076e-06
5.10288e-05
-9.26166e-06
7.98517e-05
-3.49936e-05
0.000114975
-6.60811e-05
0.000156255
-0.000100982
0.000203503
-0.000138497
0.000256474
-0.000177688
0.000314859
-0.000217811
0.000378266
-0.000258283
0.0004462
-0.000298658
0.000518033
-0.000338621
0.000592988
-0.000378
0.000670129
-0.000416803
0.000748422
-0.000455283
0.000826913
-0.000494032
0.000905172
-0.000534121
0.000984345
-0.000576982
-0.000626208
0.00107159
3.86217e-06
8.39993e-06
1.53561e-05
6.00786e-06
3.44264e-05
-9.95951e-06
6.09987e-05
-3.5834e-05
9.49831e-05
-6.8978e-05
0.000136275
-0.000107373
0.000184752
-0.000149459
0.000240276
-0.000194021
0.000302687
-0.000240098
0.000371794
-0.000286918
0.000447371
-0.00033386
0.000529135
-0.000380422
0.000616722
-0.000426208
0.000709648
-0.000470926
0.000807253
-0.000514409
0.000908657
-0.000556687
0.00101272
-0.000598095
0.0011179
-0.000639302
0.00122299
-0.000682065
-0.000728795
0.00132557
4.60596e-06
3.79398e-06
1.81008e-05
-7.48701e-06
4.02999e-05
-3.21585e-05
7.10518e-05
-6.65859e-05
0.000110227
-0.000108153
0.000157711
-0.000154857
0.000213407
-0.000205154
0.000277231
-0.000257846
0.000349124
-0.000311992
0.000429058
-0.000366852
0.000517052
-0.000421854
0.000613203
-0.000476573
0.000717734
-0.00053074
0.000831088
-0.00058428
0.000954083
-0.000637403
0.00108819
-0.000690796
0.00123605
-0.00074595
0.0014026
-0.000805857
0.00159772
-0.000877182
-0.000976735
0.00184566
5.3401e-06
-1.54613e-06
2.08119e-05
-2.29588e-05
4.60959e-05
-5.74425e-05
8.09532e-05
-0.000101443
0.000125199
-0.000152399
0.000178693
-0.00020835
0.000241332
-0.000267793
0.000313058
-0.000329572
0.000393863
-0.000392797
0.000483807
-0.000456796
0.000583041
-0.000521087
0.000691843
-0.000585374
0.000810672
-0.000649569
0.000940237
-0.000713845
0.00108158
-0.000778744
0.00123613
-0.000845343
0.00140568
-0.000915506
0.00159215
-0.000992325
0.00179593
-0.00108096
-0.00118913
0.00200832
6.05073e-06
-7.59686e-06
2.34387e-05
-4.03467e-05
5.17028e-05
-8.57067e-05
9.05013e-05
-0.000140242
0.000139572
-0.000201469
0.000198713
-0.000267492
0.00026778
-0.00033686
0.000346676
-0.000408468
0.000435364
-0.000481485
0.00053387
-0.000555303
0.000642301
-0.000629518
0.000760853
-0.000703927
0.000889825
-0.000778541
0.00102961
-0.00085363
0.00118065
-0.000929785
0.00134331
-0.001008
0.00151758
-0.00108978
0.00170251
-0.00117725
0.00189484
-0.00127329
-0.00138082
0.00208654
6.72845e-06
-1.43253e-05
2.59449e-05
-5.95632e-05
5.70389e-05
-0.000116801
9.95476e-05
-0.00018275
0.000153105
-0.000255026
0.000217415
-0.000331803
0.000292241
-0.000411686
0.000377392
-0.000493619
0.000472719
-0.000576812
0.000578117
-0.000660701
0.000693516
-0.000744917
0.000818869
-0.00082928
0.00095413
-0.000913802
0.0010992
-0.000998698
0.00125382
-0.00108441
0.00141743
-0.00117161
0.00158887
-0.00126123
0.00176604
-0.00135442
0.00194528
-0.00145253
-0.00155662
0.00212108
7.36863e-06
-2.16939e-05
2.83099e-05
-8.05045e-05
6.20558e-05
-0.000150547
0.000108004
-0.000228698
0.000165659
-0.000312682
0.000234601
-0.000400744
0.000314459
-0.000491544
0.0004049
-0.00058406
0.000505613
-0.000677525
0.000616298
-0.000771386
0.000736646
-0.000865265
0.000866319
-0.000958953
0.0010049
-0.00105239
0.00115185
-0.00114565
0.0013064
-0.00123896
0.00146744
-0.00133264
0.00163334
-0.00142712
0.0018018
-0.00152288
0.00196968
-0.00162041
-0.00171997
0.00213303
7.97087e-06
-2.96648e-05
3.05275e-05
-0.000103061
6.67349e-05
-0.000186754
0.000115835
-0.000277799
0.000177184
-0.00037403
0.000250207
-0.000473768
0.000334377
-0.000575714
0.000429187
-0.00067887
0.000534137
-0.000782475
0.000648709
-0.000885958
0.000772352
-0.000988908
0.000904449
-0.00109105
0.00104428
-0.00119222
0.00119099
-0.00129235
0.00134348
-0.00139145
0.00150041
-0.00148957
0.00166006
-0.00158677
0.00182029
-0.00168312
0.00197853
-0.00177865
-0.00187324
0.0021318
8.53763e-06
-3.82024e-05
3.26012e-05
-0.000127125
7.10793e-05
-0.000225232
0.000123045
-0.000329764
0.000187686
-0.000438671
0.00026426
-0.000550342
0.000352065
-0.000663518
0.000450408
-0.000777213
0.00055859
-0.000890657
0.000675885
-0.00100325
0.000801517
-0.00111454
0.000934642
-0.00122417
0.00107432
-0.00133189
0.00121947
-0.00143751
0.00136886
-0.00154085
0.00152107
-0.00164178
0.00167445
-0.00174015
0.00182711
-0.00183578
0.00197694
-0.00192848
-0.0020179
0.0021216
9.07267e-06
-4.72751e-05
3.45398e-05
-0.000152592
7.51029e-05
-0.000265795
0.000129654
-0.000384316
0.000197203
-0.00050622
0.000276828
-0.000629967
0.000367643
-0.000754333
0.000468769
-0.00087834
0.000579317
-0.0010012
0.000698366
-0.0011223
0.000824954
-0.00124113
0.000958057
-0.00135728
0.00109658
-0.00147041
0.00123932
-0.00158025
0.001385
-0.00168653
0.00153221
-0.00178899
0.00167941
-0.00188736
0.00182498
-0.00198134
0.00196715
-0.00207065
-0.00215481
0.00210406
9.57957e-06
-5.68547e-05
3.63519e-05
-0.000179364
7.88208e-05
-0.000308264
0.000135688
-0.000441182
0.000205775
-0.000576307
0.000287977
-0.00071217
0.000381224
-0.00084758
0.000484456
-0.000981571
0.000596604
-0.00111335
0.000716581
-0.00124228
0.000843268
-0.00136782
0.000975508
-0.00148952
0.0011121
-0.00160701
0.0012518
-0.00171995
0.0013933
-0.00182803
0.00153528
-0.00193096
0.00167633
-0.00202841
0.00181504
-0.00212006
0.00194994
-0.00220555
-0.00228438
0.00207952
1.00607e-05
-6.69153e-05
3.80432e-05
-0.000207347
8.2242e-05
-0.000352463
0.00014116
-0.0005001
0.000213427
-0.000648574
0.000297751
-0.000796494
0.000392882
-0.000942711
0.000497587
-0.00108628
0.000610638
-0.0012264
0.000730799
-0.00136244
0.000856827
-0.00149384
0.000987471
-0.00162016
0.00112147
-0.001741
0.00125755
-0.00185603
0.00139445
-0.00196494
0.00153092
-0.00206742
0.0016657
-0.00216319
0.00179757
-0.00225192
0.0019253
-0.00233329
-0.00240677
0.00204769
1.05163e-05
-7.74317e-05
3.96134e-05
-0.000236444
8.53649e-05
-0.000398214
0.000146067
-0.000560802
0.000220156
-0.000722663
0.000306154
-0.000882492
0.000402635
-0.00103919
0.000508205
-0.00119185
0.00062149
-0.00133969
0.000741133
-0.00148208
0.000865793
-0.00161851
0.000994152
-0.00174852
0.00112492
-0.00187177
0.00125683
-0.00198794
0.00138867
-0.00209678
0.00151928
-0.00219804
0.00164755
-0.00229146
0.00177244
-0.00237681
0.00189293
-0.00245378
-0.00252191
0.00200807
1.09449e-05
-8.83766e-05
4.10561e-05
-0.000266555
8.81757e-05
-0.000445334
0.000150389
-0.000623015
0.000225934
-0.000798208
0.00031315
-0.000969708
0.000410445
-0.00113649
0.000516274
-0.00129768
0.000629137
-0.00145255
0.000747574
-0.00160052
0.000870172
-0.0017411
0.000995569
-0.00187392
0.00112247
-0.00199866
0.00124964
-0.00211511
0.00137593
-0.00222307
0.00150028
-0.00232239
0.00162172
-0.0024129
0.00173937
-0.00249445
0.00185241
-0.00256683
-0.00262962
0.00196013
1.13426e-05
-9.97191e-05
4.23585e-05
-0.000297571
9.06491e-05
-0.000493625
0.000154083
-0.00068645
0.000230703
-0.000874828
0.000318669
-0.00105767
0.00041623
-0.00123405
0.000521707
-0.00140315
0.000633487
-0.00156433
0.00075003
-0.00171706
0.00086987
-0.00186094
0.000991628
-0.00199567
0.00111402
-0.00212106
0.00123586
-0.00223696
0.00135609
-0.0023433
0.00147374
-0.00244004
0.00158798
-0.00252714
0.00169808
-0.00260455
0.00180342
-0.00267217
-0.00272968
0.00190347
1.17041e-05
-0.000111423
4.35031e-05
-0.00032937
9.27504e-05
-0.000542872
0.000157097
-0.000750796
0.000234389
-0.000952121
0.000322617
-0.0011459
0.00041988
-0.00133131
0.000524378
-0.00150765
0.000634406
-0.00167436
0.000748361
-0.00183102
0.000864748
-0.00197733
0.00098219
-0.00211312
0.00109944
-0.0022383
0.00121537
-0.00235289
0.001329
-0.00245693
0.0014395
-0.00255053
0.00154615
-0.00263379
0.00164838
-0.00270678
0.00174573
-0.00276953
-0.00282183
0.00183788
1.20229e-05
-0.000123446
4.44686e-05
-0.000361816
9.44383e-05
-0.000592842
0.000159365
-0.000815723
0.000236905
-0.00102966
0.000324884
-0.00123388
0.000421267
-0.00142769
0.000524146
-0.00161053
0.000631745
-0.00178196
0.000742418
-0.00194169
0.000854661
-0.00208957
0.000967119
-0.00222558
0.00107859
-0.00234978
0.00118804
-0.00246233
0.00129457
-0.00256347
0.00139747
-0.00265343
0.00149616
-0.00273247
0.00159021
-0.00280083
0.00167932
-0.00285864
-0.00290583
0.00176332
1.22918e-05
-0.000135738
4.52316e-05
-0.000394755
9.56684e-05
-0.000643278
0.00016082
-0.000880874
0.000238159
-0.001107
0.000325359
-0.00132108
0.000420263
-0.0015226
0.000520876
-0.00171114
0.000625366
-0.00188645
0.000732069
-0.00204839
0.00083949
-0.00219699
0.000946315
-0.0023324
0.00105141
-0.00245487
0.00115383
-0.00256475
0.00125279
-0.00266243
0.00134768
-0.00274833
0.00143807
-0.00282286
0.00152366
-0.00288642
0.0016043
-0.00293927
-0.00298149
0.00167997
1.25034e-05
-0.000148241
4.57685e-05
-0.000428021
9.63956e-05
-0.000693905
0.000161394
-0.000945873
0.000238063
-0.00118367
0.000323936
-0.00140695
0.000416752
-0.00161541
0.000514449
-0.00180884
0.000615159
-0.00198716
0.000717217
-0.00215045
0.000819163
-0.00229894
0.00091974
-0.00243298
0.0010179
-0.00255303
0.00111278
-0.00265963
0.00120374
-0.00275338
0.00129027
-0.00283486
0.00137208
-0.00290467
0.00144899
-0.00296333
0.00152098
-0.00301126
-0.00304867
0.00158815
1.26503e-05
-0.000160892
4.60562e-05
-0.000461426
9.65774e-05
-0.000744427
0.000161025
-0.00101032
0.000236538
-0.00125918
0.000320525
-0.00149094
0.000410642
-0.00170553
0.000504776
-0.00190297
0.00060105
-0.00208343
0.000697818
-0.00224722
0.000793671
-0.00239479
0.000887427
-0.00252674
0.000978133
-0.00264374
0.00106504
-0.00274655
0.00114762
-0.00283595
0.0012255
-0.00291274
0.00129849
-0.00297766
0.00136655
-0.00303139
0.00142977
-0.00307448
-0.00310727
0.00148837
1.27256e-05
-0.000173617
4.60735e-05
-0.000494774
9.61754e-05
-0.000794529
0.000159658
-0.0010738
0.000233516
-0.00133304
0.000315055
-0.00157248
0.000401865
-0.00179234
0.000491808
-0.00199292
0.000583014
-0.00217464
0.000673882
-0.00233809
0.00076307
-0.00248398
0.000849487
-0.00261315
0.000932287
-0.00272653
0.00101084
-0.0028251
0.00108474
-0.00290984
0.00115373
-0.00298173
0.00121774
-0.00304168
0.00127685
-0.0030905
0.00133124
-0.00312887
-0.00315726
0.00138123
1.27231e-05
-0.00018634
4.58018e-05
-0.000527853
9.51573e-05
-0.000843884
0.00015725
-0.0011359
0.00022895
-0.00140474
0.00030748
-0.00165101
0.000390389
-0.00187525
0.000475534
-0.00207806
0.000561079
-0.00226018
0.000645481
-0.00242249
0.000727486
-0.00256598
0.000806107
-0.00269178
0.000880614
-0.00280104
0.000950502
-0.00289499
0.00101547
-0.00297482
0.00107541
-0.00304167
0.00113034
-0.00309661
0.00118045
-0.0031406
0.00122601
-0.00317443
-0.00319866
0.00126741
1.26402e-05
-0.000198981
4.52309e-05
-0.000560444
9.35047e-05
-0.000892158
0.000153778
-0.00119617
0.000222819
-0.00147378
0.000297792
-0.00172598
0.000376227
-0.00195368
0.000456002
-0.00215784
0.000535333
-0.00233952
0.000612759
-0.00249992
0.000687123
-0.00264035
0.000757558
-0.00276221
0.000823452
-0.00286694
0.000884428
-0.00295596
0.000940308
-0.0030307
0.000991087
-0.00309245
0.00103691
-0.00314243
0.00107802
-0.00318172
0.0011148
-0.0032112
-0.00323154
0.00114768
1.24679e-05
-0.000211449
4.43399e-05
-0.000592316
9.11873e-05
-0.000939005
0.000149207
-0.00125419
0.000215093
-0.00153967
0.000285976
-0.00179687
0.000359393
-0.0020271
0.000433265
-0.00223171
0.000505881
-0.00241213
0.000575876
-0.00256991
0.00064221
-0.00270668
0.000704135
-0.00282413
0.000761168
-0.00292397
0.000813057
-0.00300785
0.000859743
-0.00307738
0.000901328
-0.00313403
0.000938046
-0.00317915
0.000970236
-0.00321391
0.000998319
-0.00323929
-0.00325602
0.00102279
1.22054e-05
-0.000223654
4.31259e-05
-0.000623236
8.82024e-05
-0.000984082
0.000143543
-0.00130953
0.000205793
-0.00160192
0.000272079
-0.00186315
0.00033997
-0.00209499
0.000407453
-0.00229919
0.000472908
-0.00247759
0.000535084
-0.00263209
0.000593062
-0.00276466
0.000646225
-0.0028773
0.000694218
-0.00297196
0.000736912
-0.00305055
0.000774361
-0.00311483
0.000806767
-0.00316644
0.00083445
-0.00320683
0.000857815
-0.00323728
0.000877338
-0.00325881
-0.00327223
0.000893549
1.18506e-05
-0.000235505
4.15851e-05
-0.000652971
8.45494e-05
-0.00102705
0.000136794
-0.00136177
0.000194949
-0.00166007
0.000256162
-0.00192436
0.000318061
-0.00215689
0.000378721
-0.00235985
0.000436631
-0.0025355
0.000490662
-0.00268612
0.000540029
-0.00281403
0.000584246
-0.00292151
0.000623087
-0.0030108
0.000656539
-0.003084
0.000684763
-0.00314305
0.000708054
-0.00318973
0.000726807
-0.00322558
0.000741487
-0.00325196
0.000752608
-0.00326993
-0.00328034
0.000760723
1.14024e-05
-0.000246907
3.97178e-05
-0.000681286
8.02356e-05
-0.00106756
0.000128985
-0.00141052
0.00018261
-0.0017137
0.000238311
-0.00198007
0.0002938
-0.00221238
0.000347258
-0.00241331
0.000397299
-0.00258554
0.000442929
-0.00273175
0.000483497
-0.00285459
0.00051865
-0.00295667
0.000548287
-0.00304044
0.000572507
-0.00310822
0.000591569
-0.00316212
0.000605851
-0.00320401
0.000615814
-0.00323555
0.00062197
-0.00325811
0.000624869
-0.00327283
-0.00328055
0.000625074
1.0861e-05
-0.000257768
3.75282e-05
-0.000707953
7.52761e-05
-0.00110531
0.000120149
-0.0014554
0.000168841
-0.00176239
0.000218633
-0.00202986
0.000267343
-0.00226109
0.000313279
-0.00245924
0.000355192
-0.00262745
0.000392229
-0.00276878
0.000423876
-0.00288624
0.000449912
-0.0029827
0.000470352
-0.00306088
0.0004854
-0.00312327
0.000495405
-0.00317212
0.000500817
-0.00320942
0.000502155
-0.00323688
0.000499972
-0.00325593
0.00049484
-0.0032677
-0.00327304
0.000487332
1.02275e-05
-0.000267996
3.50239e-05
-0.00073275
6.96934e-05
-0.00113998
0.000110335
-0.00149604
0.000153724
-0.00180578
0.000197253
-0.00207339
0.000238869
-0.0023027
0.000277022
-0.0024974
0.000310612
-0.00266104
0.000338929
-0.0027971
0.000361597
-0.00290891
0.00037852
-0.00299963
0.000389823
-0.00307218
0.000395806
-0.00312925
0.000396895
-0.00317321
0.000393606
-0.00320614
0.000386503
-0.00322978
0.000376176
-0.0032456
0.000363215
-0.00325474
-0.00325802
0.000348193
9.50413e-06
-0.0002775
3.22162e-05
-0.000755462
6.35162e-05
-0.00117128
9.95971e-05
-0.00153212
0.000137353
-0.00184354
0.000174312
-0.00211035
0.000208571
-0.00233696
0.00023874
-0.00252757
0.000263873
-0.00268617
0.000283405
-0.00281663
0.000297097
-0.0029226
0.000304968
-0.0030075
0.000307243
-0.00307446
0.000304307
-0.00312631
0.000296654
-0.00316556
0.000284853
-0.00319433
0.00026951
-0.00321444
0.000251242
-0.00322733
0.000230653
-0.00323415
-0.00323568
0.000208318
8.69396e-06
-0.000286194
2.9119e-05
-0.000775887
5.67789e-05
-0.00119894
8.80012e-05
-0.00156334
0.000119831
-0.00187536
0.00014996
-0.00214047
0.000176656
-0.00236366
0.000198697
-0.00254961
0.000215298
-0.00270277
0.000226041
-0.00282738
0.000230814
-0.00292738
0.000229744
-0.00300643
0.000223147
-0.00306786
0.000211476
-0.00311464
0.000195283
-0.00314936
0.00017518
-0.00317423
0.000151805
-0.00319106
0.000125801
-0.00320133
9.77856e-05
-0.00320613
-0.00320623
6.83344e-05
7.80089e-06
-0.000293995
2.57492e-05
-0.000793835
4.95206e-05
-0.00122271
7.56179e-05
-0.00158944
0.00010127
-0.00190102
0.000124356
-0.00216356
0.000143334
-0.00238264
0.000157159
-0.00256343
0.00016521
-0.00271083
0.000167214
-0.00282938
0.000163178
-0.00292334
0.000153328
-0.00299658
0.000138054
-0.00305259
0.000117868
-0.00309446
9.33622e-05
-0.00312486
6.51823e-05
-0.00314605
3.39943e-05
-0.00315988
4.60153e-07
-0.0031678
-3.47855e-05
-0.00317089
-0.00316986
-7.11617e-05
6.82956e-06
-0.000300824
2.21257e-05
-0.000809131
4.17842e-05
-0.00124237
6.25231e-05
-0.00161018
8.17859e-05
-0.00192028
9.76647e-05
-0.00217944
0.000108819
-0.00239379
0.000114391
-0.00256901
0.000113925
-0.00271036
0.00010729
-0.00282275
9.46031e-05
-0.00291065
7.61768e-05
-0.00297815
5.24623e-05
-0.00302887
2.40121e-05
-0.00306601
-8.55211e-06
-0.0030923
-4.4565e-05
-0.00311004
-8.33417e-05
-0.0031211
-0.0001242
-0.00312694
-0.000166487
-0.0031286
-0.00312674
-0.000209604
5.78527e-06
-0.000306609
1.82694e-05
-0.000821615
3.36161e-05
-0.00125772
4.87969e-05
-0.00162536
6.14996e-05
-0.00193298
7.0049e-05
-0.00218799
7.33201e-05
-0.00239706
7.06492e-05
-0.00256633
6.17463e-05
-0.00270146
4.66144e-05
-0.00280761
2.5477e-05
-0.00288952
-1.28162e-06
-0.00295139
-3.31637e-05
-0.00299699
-6.95918e-05
-0.00302958
-0.000109933
-0.00305195
-0.000153516
-0.00306645
-0.000199647
-0.00307497
-0.000247625
-0.00307896
-0.00029677
-0.00307946
-0.00307705
-0.000346455
4.67391e-06
-0.000311283
1.42029e-05
-0.000831144
2.50652e-05
-0.00126858
3.4522e-05
-0.00163481
4.05326e-05
-0.00193899
4.16727e-05
-0.00218913
3.70438e-05
-0.00239243
2.618e-05
-0.00255547
8.95684e-06
-0.00268423
-1.44917e-05
-0.00278417
-4.38459e-05
-0.00286016
-7.86592e-05
-0.00291658
-0.000118402
-0.00295725
-0.000162488
-0.00298549
-0.000210294
-0.00300415
-0.000261158
-0.00301559
-0.000314393
-0.00302174
-0.000369284
-0.00302407
-0.000425113
-0.00302363
-0.00302096
-0.000481202
3.50197e-06
-0.000314785
9.95063e-06
-0.000837593
1.6183e-05
-0.00127481
1.97838e-05
-0.00163841
1.90078e-05
-0.00193822
1.26971e-05
-0.00218282
1.88028e-07
-0.00237992
-1.87849e-05
-0.0025365
-4.41816e-05
-0.00265884
-7.57413e-05
-0.00275261
-0.000113054
-0.00282285
-0.00015562
-0.00287401
-0.000202887
-0.00290998
-0.00025428
-0.0029341
-0.0003092
-0.00294923
-0.000367024
-0.00295777
-0.000427088
-0.00296167
-0.000488676
-0.00296248
-0.000551025
-0.00296128
-0.00295862
-0.000613368
2.27655e-06
-0.000317062
5.53859e-06
-0.000840855
7.02341e-06
-0.0012763
4.67014e-06
-0.00163606
-2.9505e-06
-0.0019306
-1.67178e-05
-0.00216905
-3.70553e-05
-0.00235959
-6.40272e-05
-0.00250953
-9.74313e-05
-0.00262543
-0.000136883
-0.00271315
-0.000181885
-0.00277785
-0.000231889
-0.00282401
-0.000286329
-0.00285554
-0.000344649
-0.00287578
-0.000406298
-0.00288758
-0.000470715
-0.00289335
-0.000537294
-0.00289509
-0.000605343
-0.00289443
-0.000674054
-0.00289257
-0.00289015
-0.000742525
1.00544e-06
-0.000318067
9.9471e-07
-0.000840844
-2.35648e-06
-0.00127295
-1.07278e-05
-0.00162769
-2.52155e-05
-0.00191611
-4.6412e-05
-0.00214785
-7.44982e-05
-0.0023315
-0.000109339
-0.00247468
-0.000150574
-0.0025842
-0.000197697
-0.00266603
-0.000250128
-0.00272542
-0.000307266
-0.00276687
-0.000368532
-0.00279427
-0.000433391
-0.00281092
-0.000501352
-0.00281962
-0.000571945
-0.00282276
-0.000644668
-0.00282237
-0.000718907
-0.00282019
-0.000793832
-0.00281764
-0.00281565
-0.000868333
-3.02837e-07
-0.000317764
-3.65106e-06
-0.000837496
-1.18965e-05
-0.0012647
-2.63147e-05
-0.00161327
-4.76562e-05
-0.00189477
-7.62217e-05
-0.00211929
-0.000111951
-0.00229577
-0.000154516
-0.00243212
-0.000203402
-0.00253531
-0.000257988
-0.00261144
-0.000317611
-0.00266579
-0.000381616
-0.00270287
-0.000449401
-0.00272649
-0.000520441
-0.00273988
-0.000594301
-0.00274576
-0.000670616
-0.00274644
-0.000749041
-0.00274395
-0.000829133
-0.0027401
-0.000910129
-0.00273664
-0.00273515
-0.00099063
-1.63898e-06
-0.000316125
-8.3666e-06
-0.000830768
-2.15328e-05
-0.00125153
-4.19905e-05
-0.00159281
-7.01357e-05
-0.00186662
-0.000105976
-0.00208345
-0.000149217
-0.00225253
-0.000199343
-0.00238199
-0.000255699
-0.00247896
-0.000317559
-0.00254959
-0.000384179
-0.00259917
-0.000454849
-0.0026322
-0.00052893
-0.00265241
-0.000605885
-0.00266293
-0.000685301
-0.00266634
-0.000766901
-0.00266484
-0.00085052
-0.00266033
-0.000936014
-0.00265461
-0.0010229
-0.00264976
-0.00264833
-0.00110971
-2.993e-06
-0.000313132
-1.31178e-05
-0.000820644
-3.11981e-05
-0.00123345
-5.76502e-05
-0.00156636
-9.251e-05
-0.00183176
-0.000135496
-0.00204046
-0.000186084
-0.00220194
-0.000243587
-0.00232449
-0.000307224
-0.00241532
-0.000376177
-0.00248063
-0.000449641
-0.00252571
-0.000526857
-0.00255498
-0.000607145
-0.00257212
-0.00068993
-0.00258014
-0.000774772
-0.0025815
-0.000861402
-0.00257821
-0.000949782
-0.00257195
-0.00104014
-0.00256425
-0.00113266
-0.00255724
-0.00255367
-0.00122732
-4.35432e-06
-0.000308778
-1.7869e-05
-0.000807129
-4.08228e-05
-0.0012105
-7.31848e-05
-0.001534
-0.000114629
-0.00179032
-0.000164588
-0.0019905
-0.000222321
-0.00214421
-0.000286982
-0.00225983
-0.000357682
-0.00234462
-0.000433536
-0.00240478
-0.000513702
-0.00244554
-0.000597406
-0.00247128
-0.000683962
-0.00248556
-0.000772782
-0.00249132
-0.000863403
-0.00249088
-0.000955519
-0.00248609
-0.00104909
-0.00247838
-0.00114461
-0.00246873
-0.00124368
-0.00245817