1.275 	2.15223e-18 	-2.76991e-20 	-0.0344695 	-0.000435369 	-1.90745e-22
1.825 	2.15223e-18 	-1.39322e-20 	-0.0094752 	-0.00275244 	1.68396e-21
2.375 	2.15223e-18 	-2.66896e-23 	0.11528 	-0.00323498 	-7.02387e-22
