/*--------------------------------*- C++ -*----------------------------------*\
  =========                 |
  \\      /  F ield         | OpenFOAM: The Open Source CFD Toolbox
   \\    /   O peration     | Website:  https://openfoam.org
    \\  /    A nd           | Version:  6.0
     \\/     M anipulation  |
\*---------------------------------------------------------------------------*/
FoamFile
{
    version     2.0;
    format      ascii;
    class       surfaceScalarField;
    location    "8.4";
    object      phi;
}
// * * * * * * * * * * * * * * * * * * * * * * * * * * * * * * * * * * * * * //

dimensions      [0 3 -1 0 0 0 0];

internalField   nonuniform List<scalar> 
68636
(
3.02278e-05
0.00310561
3.05969e-09
6.08428e-05
0.00307075
9.10917e-05
0.00300254
0.000120481
0.0029015
0.000148623
0.00276867
0.000175172
0.0026055
0.000199814
0.00241378
0.000222266
0.00219563
0.000242269
0.00195347
0.000259597
0.00168995
0.000274051
0.001408
0.000285471
0.00111067
0.000293732
0.000801272
0.000298727
0.000483011
0.00015807
0.000299803
2.99495e-05
0.00307565
6.84812e-09
6.02864e-05
0.00304041
9.02602e-05
0.00297256
0.000119381
0.00287238
0.000147267
0.00274078
0.000173573
0.00257919
0.000197991
0.00238936
0.000220238
0.00217338
0.000240059
0.00193364
0.000257228
0.00167278
0.000271552
0.00139367
0.000282867
0.00109934
0.000291066
0.000793064
0.000295955
0.00047811
0.000156885
0.000297118
2.96736e-05
0.00304597
1.04337e-08
5.97346e-05
0.00301035
8.94359e-05
0.00294286
0.000118292
0.00284352
0.000145924
0.00271315
0.000171991
0.00255312
0.000196187
0.00236516
0.000218232
0.00215133
0.000237872
0.001914
0.000254886
0.00165576
0.000269079
0.00137948
0.000280289
0.00108814
0.000288415
0.000784941
0.000293299
0.000473232
0.000155576
0.000294625
2.94002e-05
0.00301655
1.3958e-08
5.91879e-05
0.00298056
8.86192e-05
0.00291343
0.000117213
0.00281493
0.000144594
0.00268576
0.000170424
0.00252729
0.0001944
0.00234118
0.000216244
0.00212949
0.000235706
0.00189453
0.000252564
0.0016389
0.000266628
0.00136541
0.000277734
0.00107703
0.000285781
0.00077689
0.000290643
0.000468364
0.000154164
0.000292045
2.91292e-05
0.00298741
1.739e-08
5.86462e-05
0.00295104
8.781e-05
0.00288426
0.000116144
0.00278659
0.000143276
0.00265863
0.000168871
0.00250169
0.000192629
0.00231742
0.000214274
0.00210784
0.000233558
0.00187525
0.000250263
0.0016222
0.000264199
0.00135148
0.000275203
0.00106603
0.000283169
0.000768928
0.000287988
0.000463551
0.000152735
0.000289433
2.88606e-05
0.00295852
2.09239e-08
5.81093e-05
0.00292179
8.7008e-05
0.00285536
0.000115084
0.00275851
0.00014197
0.00263175
0.000167332
0.00247633
0.000190874
0.00229388
0.000212322
0.0020864
0.00023143
0.00185614
0.000247982
0.00160565
0.000261791
0.00133767
0.000272695
0.00105512
0.000280583
0.000761038
0.000285355
0.000458775
0.000151256
0.000286829
2.85944e-05
0.00292991
2.45794e-08
5.75771e-05
0.00289281
8.62131e-05
0.00282673
0.000114034
0.00273069
0.000140675
0.00260511
0.000165807
0.0024512
0.000189134
0.00227055
0.000210387
0.00206514
0.000229322
0.00183721
0.000245722
0.00158925
0.000259406
0.00132398
0.000270211
0.00104432
0.000278022
0.00075323
0.000282749
0.000454053
0.000149779
0.000284241
2.83304e-05
0.00290155
2.83972e-08
5.70497e-05
0.00286409
8.54254e-05
0.00279835
0.000112994
0.00270313
0.000139392
0.00257871
0.000164296
0.00242629
0.000187411
0.00224744
0.00020847
0.00204408
0.000227232
0.00181845
0.000243484
0.001573
0.000257042
0.00131043
0.000267749
0.00103361
0.000275486
0.000745492
0.000280169
0.000449368
0.000148272
0.000281672
2.80688e-05
0.00287345
3.24342e-08
5.6527e-05
0.00283563
8.46447e-05
0.00277024
0.000111963
0.00267581
0.000138121
0.00255255
0.000162798
0.00240162
0.000185703
0.00222454
0.000206571
0.00202322
0.000225162
0.00179986
0.000241265
0.0015569
0.0002547
0.00129699
0.00026531
0.001023
0.000272975
0.00073783
0.000277615
0.000444734
0.000146775
0.000279124
2.78095e-05
0.0028456
3.66521e-08
5.6009e-05
0.00280743
8.38712e-05
0.00274237
0.000110941
0.00264874
0.000136862
0.00252663
0.000161315
0.00237717
0.000184011
0.00220184
0.000204689
0.00200254
0.000223111
0.00178143
0.000239067
0.00154094
0.000252379
0.00128368
0.000262894
0.00101249
0.000270488
0.000730235
0.000275085
0.000440135
0.000145261
0.000276596
2.75524e-05
0.00281801
4.10419e-08
5.54956e-05
0.00277949
8.31045e-05
0.00271476
0.000109928
0.00262191
0.000135614
0.00250094
0.000159844
0.00235294
0.000182334
0.00217935
0.000202824
0.00198205
0.000221078
0.00176318
0.000236889
0.00152513
0.000250079
0.00127049
0.000260499
0.00100207
0.000268024
0.000722712
0.000272579
0.000435585
0.000143765
0.000274087
2.72976e-05
0.00279066
4.55596e-08
5.49868e-05
0.0027518
8.23448e-05
0.00268741
0.000108925
0.00259533
0.000134377
0.00247549
0.000158387
0.00232893
0.000180673
0.00215706
0.000200976
0.00196175
0.000219064
0.00174509
0.00023473
0.00150946
0.000247801
0.00125742
0.000258126
0.000991745
0.000265583
0.000715254
0.000270096
0.00043107
0.000142262
0.000271597
2.70451e-05
0.00276357
5.01291e-08
5.44826e-05
0.00272437
8.15919e-05
0.0026603
0.00010793
0.002569
0.000133151
0.00245027
0.000156943
0.00230513
0.000179026
0.00213498
0.000199144
0.00194163
0.000217068
0.00172717
0.000232592
0.00149394
0.000245543
0.00124447
0.000255774
0.000981516
0.000263164
0.000707866
0.000267637
0.0004266
0.00014078
0.000269128
2.67947e-05
0.00273672
5.46979e-08
5.39829e-05
0.00269718
8.08458e-05
0.00263343
0.000106945
0.0025429
0.000131937
0.00242528
0.000155512
0.00228156
0.000177394
0.0021131
0.00019733
0.0019217
0.00021509
0.00170941
0.000230472
0.00147856
0.000243305
0.00123164
0.000253444
0.000971377
0.000260767
0.000700542
0.0002652
0.000422167
0.000139296
0.000266682
2.65466e-05
0.00271011
5.92007e-08
5.34876e-05
0.00267024
8.01064e-05
0.00260681
0.000105968
0.00251704
0.000130733
0.00240051
0.000154094
0.0022582
0.000175777
0.00209142
0.000195531
0.00190194
0.000213129
0.00169181
0.000228372
0.00146332
0.000241088
0.00121892
0.000251135
0.000961332
0.000258392
0.000693286
0.000262785
0.000417776
0.000137832
0.000264259
2.63007e-05
0.00268375
6.35826e-08
5.29968e-05
0.00264354
7.93737e-05
0.00258044
0.000105001
0.00249141
0.00012954
0.00237597
0.000152689
0.00223505
0.000174175
0.00206993
0.000193749
0.00188237
0.000211187
0.00167437
0.000226291
0.00144821
0.000238891
0.00120632
0.000248846
0.000951377
0.000256039
0.000686094
0.000260393
0.000413421
0.000136365
0.000261858
2.6057e-05
0.00265762
6.78116e-08
5.25105e-05
0.00261709
7.86475e-05
0.0025543
0.000104042
0.00246601
0.000128358
0.00235166
0.000151296
0.00221211
0.000172587
0.00204864
0.000191983
0.00186297
0.000209262
0.00165709
0.000224229
0.00143324
0.000236715
0.00119384
0.000246579
0.000941513
0.000253706
0.000678968
0.000258023
0.000409107
0.000134917
0.000259479
2.58155e-05
0.00263174
7.18608e-08
5.20284e-05
0.00259087
7.79279e-05
0.0025284
0.000103091
0.00244085
0.000127186
0.00232756
0.000149916
0.00218938
0.000171013
0.00202754
0.000190233
0.00184375
0.000207355
0.00163997
0.000222186
0.00141841
0.000234558
0.00118146
0.000244332
0.000931738
0.000251395
0.000671904
0.000255673
0.000404828
0.000133467
0.000257121
2.55762e-05
0.00260608
7.57158e-08
5.15508e-05
0.0025649
7.72148e-05
0.00250274
0.000102149
0.00241592
0.000126025
0.00230369
0.000148549
0.00216686
0.000169454
0.00200664
0.000188499
0.00182471
0.000205465
0.00162301
0.000220161
0.00140372
0.00023242
0.0011692
0.000242106
0.000922053
0.000249106
0.000664906
0.000253346
0.00040059
0.000132037
0.000254783
2.53391e-05
0.00258066
7.93747e-08
5.10774e-05
0.00253916
7.6508e-05
0.00247731
0.000101216
0.00239121
0.000124875
0.00228003
0.000147194
0.00214454
0.000167908
0.00198592
0.00018678
0.00180584
0.000203592
0.00160619
0.000218154
0.00138916
0.000230302
0.00115706
0.0002399
0.000912455
0.000246837
0.000657969
0.000251039
0.000396387
0.00013061
0.000252465
2.51041e-05
0.00255548
8.2836e-08
5.06084e-05
0.00251366
7.58077e-05
0.00245211
0.000100291
0.00236673
0.000123735
0.00225658
0.000145851
0.00212242
0.000166377
0.0019654
0.000185077
0.00178714
0.000201736
0.00158954
0.000216166
0.00137473
0.000228204
0.00114502
0.000237715
0.000902944
0.000244589
0.000651096
0.000248753
0.000392224
0.000129202
0.000250167
2.48713e-05
0.00253052
8.61105e-08
5.01435e-05
0.00248838
7.51137e-05
0.00242714
9.93742e-05
0.00234247
0.000122605
0.00223335
0.00014452
0.00210051
0.000164859
0.00194506
0.000183389
0.00176861
0.000199897
0.00157303
0.000214196
0.00136043
0.000226124
0.00113309
0.000235549
0.000893519
0.000242361
0.000644283
0.000246489
0.000388096
0.000127799
0.00024789
2.46407e-05
0.00250579
8.92134e-08
4.96829e-05
0.00246334
7.4426e-05
0.00240239
9.84658e-05
0.00231843
0.000121485
0.00221033
0.000143201
0.00207879
0.000163356
0.0019249
0.000181717
0.00175025
0.000198075
0.00155667
0.000212244
0.00134626
0.000224064
0.00112127
0.000233403
0.000884181
0.000240154
0.000637533
0.000244245
0.000384007
0.000126415
0.000245634
2.44121e-05
0.00248129
9.21711e-08
4.92265e-05
0.00243853
7.37444e-05
0.00237788
9.75657e-05
0.00229461
0.000120376
0.00218752
0.000141894
0.00205727
0.000161865
0.00190493
0.00018006
0.00173205
0.000196269
0.00154046
0.000210309
0.00133222
0.000222022
0.00110956
0.000231277
0.000874926
0.000237967
0.000630842
0.000242021
0.000379952
0.000125036
0.000243399
2.41857e-05
0.00245701
9.50161e-08
4.87743e-05
0.00241394
7.30691e-05
0.00235358
9.66736e-05
0.002271
0.000119276
0.00216492
0.000140599
0.00203595
0.000160389
0.00188514
0.000178418
0.00171402
0.00019448
0.0015244
0.000208392
0.00131831
0.000219999
0.00109795
0.00022917
0.000865755
0.0002358
0.000624212
0.000239818
0.000375935
0.000123674
0.000241185
2.39614e-05
0.00243295
9.77905e-08
4.83261e-05
0.00238957
7.23999e-05
0.00232951
9.57896e-05
0.00224761
0.000118187
0.00214252
0.000139315
0.00201482
0.000158925
0.00186553
0.00017679
0.00169616
0.000192706
0.00150848
0.000206493
0.00130452
0.000217994
0.00108645
0.000227082
0.000856667
0.000233653
0.000617641
0.000237636
0.000371951
0.000122317
0.000238991
2.37392e-05
0.00240911
1.00536e-07
4.78821e-05
0.00236543
7.17367e-05
0.00230565
9.49136e-05
0.00222443
0.000117107
0.00212033
0.000138043
0.00199389
0.000157475
0.0018461
0.000175178
0.00167845
0.000190949
0.00149271
0.000204611
0.00129086
0.000216008
0.00107505
0.000225013
0.000847662
0.000231525
0.00061113
0.000235473
0.000368005
0.000120977
0.000236817
2.3519e-05
0.00238548
1.03296e-07
4.7442e-05
0.00234151
7.10796e-05
0.00228202
9.40456e-05
0.00220147
0.000116037
0.00209834
0.000136783
0.00197314
0.000156038
0.00182684
0.00017358
0.00166091
0.000189208
0.00147708
0.000202746
0.00127732
0.000214039
0.00106376
0.000222964
0.000838737
0.000229417
0.000604677
0.000233329
0.000364092
0.000119642
0.000234663
2.33009e-05
0.00236208
1.06105e-07
4.7006e-05
0.0023178
7.04283e-05
0.00225859
9.31854e-05
0.00217871
0.000114977
0.00207655
0.000135534
0.00195259
0.000154614
0.00180776
0.000171997
0.00164353
0.000187483
0.0014616
0.000200898
0.00126391
0.000212089
0.00105257
0.000220933
0.000829894
0.000227328
0.000598282
0.000231206
0.000360215
0.000118324
0.000232528
2.30848e-05
0.00233888
1.08992e-07
4.6574e-05
0.00229431
6.9783e-05
0.00223538
9.23329e-05
0.00215616
0.000113926
0.00205495
0.000134296
0.00193222
0.000153203
0.00178886
0.000170428
0.00162631
0.000185773
0.00144625
0.000199066
0.00125061
0.000210157
0.00104148
0.00021892
0.00082113
0.000225258
0.000591944
0.000229102
0.000356371
0.000117012
0.000230412
2.28706e-05
0.0023159
1.11969e-07
4.61458e-05
0.00227104
6.91436e-05
0.00221239
9.14882e-05
0.00213382
0.000112885
0.00203356
0.00013307
0.00191203
0.000151805
0.00177012
0.000168873
0.00160924
0.000184079
0.00143104
0.000197252
0.00123744
0.000208242
0.00103049
0.000216926
0.000812445
0.000223207
0.000585663
0.000227016
0.000352563
0.000115716
0.000228316
2.26584e-05
0.00229313
1.15038e-07
4.57216e-05
0.00224797
6.85099e-05
0.0021896
9.06512e-05
0.00211168
0.000111853
0.00201235
0.000131854
0.00189203
0.000150419
0.00175156
0.000167332
0.00159232
0.000182401
0.00141598
0.000195454
0.00122439
0.000206345
0.0010196
0.000214951
0.000803839
0.000221175
0.000579439
0.00022495
0.000348788
0.000114427
0.000226238
2.24482e-05
0.00227056
1.18188e-07
4.53013e-05
0.00222512
6.7882e-05
0.00216702
8.98217e-05
0.00208974
0.000110831
0.00199135
0.00013065
0.00187221
0.000149046
0.00173316
0.000165806
0.00157556
0.000180738
0.00140104
0.000193673
0.00121145
0.000204465
0.00100881
0.000212993
0.000795311
0.000219162
0.00057327
0.000222903
0.000345047
0.000113153
0.00022418
2.22399e-05
0.0022482
1.21394e-07
4.48847e-05
0.00220248
6.72598e-05
0.00214464
8.89997e-05
0.002068
0.000109818
0.00197053
0.000129457
0.00185257
0.000147686
0.00171493
0.000164293
0.00155896
0.00017909
0.00138625
0.000191907
0.00119864
0.000202602
0.000998112
0.000211053
0.000786859
0.000217166
0.000567156
0.000220875
0.000341338
0.000111886
0.00022214
2.20335e-05
0.00222604
1.24625e-07
4.4472e-05
0.00218004
6.66433e-05
0.00212247
8.81852e-05
0.00204645
0.000108814
0.0019499
0.000128274
0.00183311
0.000146337
0.00169687
0.000162794
0.0015425
0.000177457
0.00137159
0.000190158
0.00118593
0.000200756
0.000987514
0.000209131
0.000778484
0.00021519
0.000561098
0.000218865
0.000337663
0.000110634
0.000220119
2.18289e-05
0.00220408
1.27843e-07
4.4063e-05
0.0021578
6.60323e-05
0.0021005
8.73781e-05
0.00202511
0.000107819
0.00192946
0.000127103
0.00181383
0.000145002
0.00167897
0.000161309
0.00152619
0.000175839
0.00135706
0.000188425
0.00117335
0.000198927
0.000977012
0.000207227
0.000770184
0.000213231
0.000555094
0.000216874
0.00033402
0.00010939
0.000218117
2.16262e-05
0.00218233
1.31005e-07
4.36577e-05
0.00213577
6.54269e-05
0.00207873
8.65783e-05
0.00200396
0.000106833
0.0019092
0.000125941
0.00179472
0.000143678
0.00166123
0.000159838
0.00151003
0.000174235
0.00134266
0.000186708
0.00116087
0.000197115
0.000966605
0.00020534
0.000761959
0.00021129
0.000549144
0.0002149
0.00033041
0.000108158
0.000216133
2.14254e-05
0.00216077
1.34075e-07
4.32561e-05
0.00211394
6.48269e-05
0.00205716
8.57858e-05
0.001983
0.000105856
0.00188913
0.000124791
0.00177578
0.000142366
0.00164366
0.000158379
0.00149402
0.000172646
0.00132839
0.000185006
0.00114851
0.000195319
0.000956292
0.00020347
0.000753808
0.000209367
0.000543247
0.000212945
0.000326832
0.000106936
0.000214167
2.12264e-05
0.00213941
1.37017e-07
4.28581e-05
0.00209231
6.42325e-05
0.00203579
8.50005e-05
0.00196223
0.000104889
0.00186924
0.000123651
0.00175702
0.000141067
0.00162624
0.000156934
0.00147815
0.000171072
0.00131425
0.00018332
0.00113627
0.00019354
0.000946072
0.000201617
0.000745731
0.000207461
0.000537403
0.000211007
0.000323286
0.000105726
0.000212219
2.10291e-05
0.00211824
1.39807e-07
4.24638e-05
0.00207088
6.36434e-05
0.00201461
8.42223e-05
0.00194165
0.000103929
0.00184954
0.000122521
0.00173843
0.000139779
0.00160898
0.000155503
0.00146243
0.000169512
0.00130024
0.00018165
0.00112413
0.000191777
0.000935944
0.000199781
0.000737726
0.000205573
0.000531611
0.000209088
0.000319771
0.000104524
0.000210288
2.08337e-05
0.00209726
1.4243e-07
4.2073e-05
0.00204964
6.30597e-05
0.00199362
8.34512e-05
0.00192126
0.000102979
0.00183001
0.000121402
0.00172001
0.000138503
0.00159188
0.000154084
0.00144685
0.000167967
0.00128636
0.000179994
0.0011121
0.00019003
0.000925908
0.000197962
0.000729794
0.000203702
0.000525871
0.000207185
0.000316288
0.000103335
0.000208375
2.06401e-05
0.00207647
1.44887e-07
4.16858e-05
0.00202859
6.24812e-05
0.00197283
8.26872e-05
0.00190105
0.000102037
0.00181066
0.000120293
0.00170175
0.000137239
0.00157494
0.000152678
0.00143141
0.000166435
0.0012726
0.000178354
0.00110018
0.000188299
0.000915962
0.00019616
0.000721933
0.000201848
0.000520183
0.000205301
0.000312836
0.000102155
0.00020648
2.04482e-05
0.00205588
1.4719e-07
4.13021e-05
0.00200774
6.19081e-05
0.00195222
8.193e-05
0.00188103
0.000101104
0.00179148
0.000119194
0.00168366
0.000135986
0.00155815
0.000151285
0.00141611
0.000164918
0.00125897
0.000176729
0.00108837
0.000186584
0.000906106
0.000194374
0.000714142
0.000200011
0.000514546
0.000203433
0.000309414
0.000100987
0.000204602
2.0258e-05
0.00203547
1.49368e-07
4.09219e-05
0.00198707
6.13401e-05
0.0019318
8.11798e-05
0.00186119
0.00010018
0.00177248
0.000118105
0.00166574
0.000134744
0.00154151
0.000149905
0.00140095
0.000163414
0.00124546
0.000175118
0.00107667
0.000184885
0.00089634
0.000192605
0.000706423
0.000198191
0.000508959
0.000201583
0.000306023
9.98277e-05
0.000202741
2.00696e-05
0.00201525
1.51456e-07
4.05451e-05
0.0019666
6.07774e-05
0.00191157
8.04364e-05
0.00184153
9.92634e-05
0.00175366
0.000117026
0.00164797
0.000133514
0.00152502
0.000148538
0.00138592
0.000161925
0.00123207
0.000173523
0.00106507
0.000183201
0.000886661
0.000190851
0.000698772
0.000196388
0.000503422
0.000199749
0.000302662
9.86788e-05
0.000200898
1.98829e-05
0.00199521
1.53497e-07
4.01718e-05
0.00194631
6.02197e-05
0.00189152
7.96998e-05
0.00182205
9.83555e-05
0.001735
0.000115956
0.00163037
0.000132295
0.00150868
0.000147183
0.00137103
0.000160448
0.00121881
0.000171942
0.00105358
0.000181533
0.00087707
0.000189114
0.00069119
0.000194601
0.000497936
0.000197932
0.000299331
9.754e-05
0.000199071
1.96979e-05
0.00197536
1.55534e-07
3.98018e-05
0.0019262
5.96672e-05
0.00187166
7.89699e-05
0.00180275
9.7456e-05
0.00171652
0.000114897
0.00161293
0.000131088
0.00149249
0.00014584
0.00135628
0.000158986
0.00120566
0.000170375
0.00104219
0.00017988
0.000867565
0.000187393
0.000683677
0.00019283
0.000492498
0.000196132
0.000296029
9.64107e-05
0.000197261
1.95146e-05
0.00195569
1.57608e-07
3.94353e-05
0.00190628
5.91196e-05
0.00185197
7.82467e-05
0.00178362
9.65646e-05
0.0016982
0.000113847
0.00159565
0.000129891
0.00147644
0.00014451
0.00134166
0.000157536
0.00119264
0.000168823
0.0010309
0.000178242
0.000858146
0.000185687
0.000676231
0.000191076
0.000487109
0.000194348
0.000292758
9.52919e-05
0.000195467
1.93329e-05
0.0019362
1.59749e-07
3.9072e-05
0.00188654
5.85771e-05
0.00183247
7.753e-05
0.00176467
9.56814e-05
0.00168005
0.000112807
0.00157852
0.000128705
0.00146055
0.000143191
0.00132718
0.0001561
0.00117973
0.000167285
0.00101972
0.000176619
0.000848811
0.000183997
0.000668852
0.000189338
0.000481768
0.000192581
0.000289514
9.41819e-05
0.00019369
1.9153e-05
0.00191688
1.61976e-07
3.87121e-05
0.00186699
5.80395e-05
0.00181314
7.682e-05
0.00174589
9.48063e-05
0.00166206
0.000111776
0.00156155
0.00012753
0.00144479
0.000141885
0.00131282
0.000154677
0.00116694
0.000165761
0.00100863
0.000175011
0.000839562
0.000182323
0.00066154
0.000187616
0.000476475
0.00019083
0.000286301
9.30828e-05
0.000191929
1.89746e-05
0.00189774
1.64296e-07
3.83555e-05
0.0018476
5.75069e-05
0.00179399
7.61164e-05
0.00172728
9.39392e-05
0.00164424
0.000110755
0.00154474
0.000126366
0.00142918
0.000140591
0.0012986
0.000153267
0.00115426
0.000164251
0.000997648
0.000173417
0.000830394
0.000180664
0.000654292
0.000185909
0.000471229
0.000189095
0.000283114
9.19918e-05
0.000190185
1.87979e-05
0.00187878
1.66702e-07
3.80022e-05
0.0018284
5.69791e-05
0.00177501
7.54192e-05
0.00170884
9.308e-05
0.00162658
0.000109743
0.00152807
0.000125213
0.00141371
0.000139309
0.0012845
0.00015187
0.0011417
0.000162754
0.000986764
0.000171838
0.000821311
0.00017902
0.000647111
0.000184218
0.000466031
0.000187375
0.000279958
9.0912e-05
0.000188456
1.86228e-05
0.00185999
1.69177e-07
3.76521e-05
0.00180937
5.64561e-05
0.00175621
7.47284e-05
0.00169057
9.22286e-05
0.00160908
0.00010874
0.00151156
0.00012407
0.00139838
0.000138038
0.00127053
0.000150486
0.00112925
0.000161272
0.000975978
0.000170274
0.000812308
0.000177391
0.000639994
0.000182543
0.000460878
0.000185672
0.000276828
8.98395e-05
0.000186743
1.84494e-05
0.00184137
1.71696e-07
3.73052e-05
0.00179051
5.59379e-05
0.00173758
7.40439e-05
0.00167246
9.1385e-05
0.00159174
0.000107747
0.0014952
0.000122937
0.00138319
0.000136779
0.00125669
0.000149115
0.00111691
0.000159803
0.000965289
0.000168724
0.000803387
0.000175777
0.000632941
0.000180883
0.000455773
0.000183984
0.000273727
8.87784e-05
0.000185046
1.82775e-05
0.00182291
1.74229e-07
3.69615e-05
0.00177183
5.54245e-05
0.00171911
7.33657e-05
0.00165452
9.05492e-05
0.00157455
0.000106763
0.00147899
0.000121815
0.00136814
0.000135532
0.00124297
0.000147756
0.00110469
0.000158348
0.000954697
0.000167188
0.000794546
0.000174178
0.00062595
0.000179238
0.000450712
0.000182312
0.000270652
8.7724e-05
0.000183365
1.81072e-05
0.00180463
1.76747e-07
3.66209e-05
0.00175332
5.49158e-05
0.00170082
7.26937e-05
0.00163674
8.9721e-05
0.00155752
0.000105787
0.00146292
0.000120703
0.00135322
0.000134296
0.00122938
0.000146409
0.00109258
0.000156906
0.0009442
0.000165667
0.000785785
0.000172594
0.000619024
0.000177609
0.000445697
0.000180655
0.000267607
8.66814e-05
0.000181699
1.79385e-05
0.00178651
1.79219e-07
3.62835e-05
0.00173497
5.44117e-05
0.00168269
7.20279e-05
0.00161913
8.89004e-05
0.00154065
0.000104821
0.001447
0.000119601
0.00133844
0.000133071
0.00121591
0.000145075
0.00108057
0.000155477
0.000933798
0.000164159
0.000777102
0.000171024
0.000612158
0.000175994
0.000440726
0.000179014
0.000264586
8.56447e-05
0.000180048
1.77713e-05
0.00176856
1.8162e-07
3.59491e-05
0.00171679
5.39123e-05
0.00166473
7.13682e-05
0.00160167
8.80874e-05
0.00152393
0.000103863
0.00143122
0.00011851
0.0013238
0.000131858
0.00120256
0.000143753
0.00106868
0.000154061
0.00092349
0.000162665
0.000768498
0.000169469
0.000605355
0.000174394
0.000435801
0.000177387
0.000261594
8.46202e-05
0.000178413
1.76057e-05
0.00175077
1.83929e-07
3.56179e-05
0.00169878
5.34174e-05
0.00164693
7.07145e-05
0.00158437
8.72817e-05
0.00150737
0.000102914
0.00141559
0.000117428
0.00130928
0.000130655
0.00118934
0.000142444
0.00105689
0.000152659
0.000913274
0.000161185
0.000759971
0.000167927
0.000598612
0.000172809
0.000430918
0.000175775
0.000258627
8.36011e-05
0.000176792
1.74416e-05
0.00173314
1.86133e-07
3.52896e-05
0.00168093
5.29271e-05
0.00162929
7.00668e-05
0.00156723
8.64835e-05
0.00149095
0.000101974
0.0014001
0.000116357
0.0012949
0.000129464
0.00117623
0.000141146
0.00104521
0.000151269
0.000903151
0.000159719
0.000751521
0.000166401
0.000591931
0.000171239
0.000426081
0.000174179
0.000255688
8.25944e-05
0.000175187
1.7279e-05
0.00171568
1.8822e-07
3.49644e-05
0.00166325
5.24413e-05
0.00161181
6.9425e-05
0.00155025
8.56926e-05
0.00147468
0.000101043
0.00138475
0.000115295
0.00128065
0.000128284
0.00116324
0.00013986
0.00103363
0.000149892
0.000893119
0.000158266
0.000743146
0.000164888
0.000585308
0.000169683
0.000421285
0.000172597
0.000252772
8.15923e-05
0.000173596
1.71179e-05
0.00169837
1.90192e-07
3.46422e-05
0.00164572
5.19599e-05
0.0015945
6.87892e-05
0.00153342
8.49089e-05
0.00145856
0.00010012
0.00136954
0.000114243
0.00126653
0.000127114
0.00115037
0.000138586
0.00102216
0.000148528
0.000883177
0.000156826
0.000734847
0.000163389
0.000578746
0.000168141
0.000416533
0.000171029
0.000249885
8.06031e-05
0.00017202
1.69583e-05
0.00168122
1.92052e-07
3.4323e-05
0.00162836
5.14829e-05
0.00157734
6.81591e-05
0.00151674
8.41325e-05
0.00144259
9.92055e-05
0.00135447
0.000113201
0.00125253
0.000125956
0.00113761
0.000137324
0.00101079
0.000147176
0.000873325
0.0001554
0.000726622
0.000161904
0.000572242
0.000166613
0.000411822
0.000169476
0.000247021
7.96178e-05
0.000170459
1.68002e-05
0.00166422
1.93815e-07
3.40066e-05
0.00161115
5.10104e-05
0.00156033
6.75349e-05
0.00150022
8.33631e-05
0.00142676
9.82994e-05
0.00133953
0.000112168
0.00123866
0.000124808
0.00112497
0.000136073
0.000999525
0.000145837
0.000863561
0.000153987
0.000718472
0.000160432
0.000565797
0.0001651
0.000407155
0.000167937
0.000244185
7.86457e-05
0.000168911
1.66436e-05
0.00164738
1.95499e-07
3.36932e-05
0.0015941
5.05421e-05
0.00154348
6.69164e-05
0.00148384
8.26009e-05
0.00141108
9.74017e-05
0.00132473
0.000111145
0.00122492
0.00012367
0.00111245
0.000134834
0.00098836
0.00014451
0.000853885
0.000152587
0.000710394
0.000158975
0.000559408
0.000163601
0.000402528
0.000166413
0.000241371
7.76768e-05
0.000167379
1.64883e-05
0.0016307
1.97127e-07
3.33827e-05
0.00157721
5.00782e-05
0.00152679
6.63036e-05
0.00146762
8.18456e-05
0.00139553
9.65123e-05
0.00131006
0.000110131
0.0012113
0.000122543
0.00110004
0.000133607
0.000977297
0.000143195
0.000844297
0.0001512
0.00070239
0.00015753
0.000553078
0.000162115
0.000397943
0.000164903
0.000238585
7.67214e-05
0.00016586
1.63346e-05
0.00161417
1.98726e-07
3.3075e-05
0.00156047
4.96185e-05
0.00151024
6.56964e-05
0.00145154
8.10973e-05
0.00138013
9.5631e-05
0.00129553
0.000109126
0.0011978
0.000121427
0.00108773
0.00013239
0.000966333
0.000141892
0.000834794
0.000149825
0.000694456
0.000156099
0.000546803
0.000160643
0.000393398
0.000163406
0.000235821
7.57687e-05
0.000164355
1.61822e-05
0.00159778
2.00322e-07
3.27701e-05
0.00154388
4.91631e-05
0.00149385
6.50947e-05
0.00143561
8.03558e-05
0.00136487
9.47578e-05
0.00128113
0.000108131
0.00118443
0.00012032
0.00107555
0.000131185
0.000955468
0.000140602
0.000825378
0.000148463
0.000686594
0.000154681
0.000540585
0.000159185
0.000388895
0.000161923
0.000233083
7.48296e-05
0.000162865
1.60312e-05
0.00158155
2.01939e-07
3.24681e-05
0.00152744
4.87118e-05
0.00147761
6.44986e-05
0.00141982
7.96212e-05
0.00134975
9.38927e-05
0.00126685
0.000107145
0.00117118
0.000119224
0.00106347
0.000129991
0.000944701
0.000139323
0.000816045
0.000147114
0.000678802
0.000153276
0.000534422
0.00015774
0.00038443
0.000160454
0.000230367
7.38926e-05
0.000161388
1.58817e-05
0.00156546
2.03598e-07
3.21688e-05
0.00151116
4.82647e-05
0.00146151
6.3908e-05
0.00140418
7.88934e-05
0.00133476
9.30356e-05
0.00125271
0.000106168
0.00115805
0.000118138
0.0010515
0.000128808
0.000934031
0.000138056
0.000806797
0.000145778
0.000671081
0.000151885
0.000528315
0.000156309
0.000380007
0.000158999
0.000227678
7.29694e-05
0.000159924
1.57335e-05
0.00154953
2.0531e-07
3.18723e-05
0.00149502
4.78217e-05
0.00144556
6.33229e-05
0.00138868
7.81722e-05
0.00131991
9.21863e-05
0.0012387
0.0001052
0.00114503
0.000117062
0.00103963
0.000127636
0.000923456
0.000136801
0.000797631
0.000144453
0.000663428
0.000150506
0.000522261
0.00015489
0.000375621
0.000157557
0.000225009
7.20479e-05
0.000158475
1.55866e-05
0.00153373
2.07083e-07
3.15785e-05
0.00147903
4.73828e-05
0.00142976
6.27431e-05
0.00137332
7.74577e-05
0.0013052
9.13448e-05
0.00122481
0.000104241
0.00113214
0.000115996
0.00102788
0.000126475
0.000912978
0.000135557
0.000788549
0.000143141
0.000655845
0.00014914
0.000516263
0.000153485
0.000371276
0.000156129
0.000222367
7.11404e-05
0.000157038
1.54412e-05
0.00151808
2.08912e-07
3.12874e-05
0.00146318
4.69479e-05
0.0014141
6.21686e-05
0.0013581
7.67497e-05
0.00129062
9.05112e-05
0.00121105
0.000103291
0.00111936
0.00011494
0.00101623
0.000125324
0.000902593
0.000134325
0.000779547
0.000141841
0.000648328
0.000147786
0.000510317
0.000152093
0.000366967
0.000154713
0.000219745
7.02339e-05
0.000155616
1.5297e-05
0.00150257
2.10792e-07
3.0999e-05
0.00144748
4.6517e-05
0.00139858
6.15994e-05
0.00134301
7.60483e-05
0.00127617
8.96852e-05
0.00119741
0.000102349
0.00110669
0.000113893
0.00100469
0.000124184
0.000892302
0.000133105
0.000770627
0.000140553
0.00064088
0.000146445
0.000504426
0.000150714
0.000362699
0.000153311
0.00021715
6.93418e-05
0.000154206
1.51542e-05
0.00148721
2.12706e-07
3.07132e-05
0.00143192
4.60901e-05
0.0013832
6.10355e-05
0.00132807
7.53534e-05
0.00126185
8.88668e-05
0.0011839
0.000101417
0.00109414
0.000112856
0.000993246
0.000123055
0.000882103
0.000131895
0.000761786
0.000139277
0.000633497
0.000145116
0.000498585
0.000149347
0.000358466
0.000151922
0.000214573
6.84501e-05
0.000152809
1.50127e-05
0.00147198
2.14638e-07
3.04301e-05
0.0014165
4.56671e-05
0.00136797
6.04768e-05
0.00131326
7.46648e-05
0.00124766
8.8056e-05
0.00117051
0.000100492
0.00108171
0.000111829
0.000981909
0.000121936
0.000871997
0.000130697
0.000753025
0.000138013
0.000626181
0.0001438
0.000492798
0.000147994
0.000354274
0.000150545
0.000212023
6.75729e-05
0.000151425
1.48725e-05
0.00145689
2.16566e-07
3.01495e-05
0.00140122
4.5248e-05
0.00135287
5.99232e-05
0.00129858
7.39826e-05
0.0012336
8.72526e-05
0.00115724
9.95767e-05
0.00106938
0.000110811
0.000970674
0.000120827
0.00086198
0.00012951
0.000744341
0.00013676
0.00061893
0.000142496
0.000487061
0.000146652
0.000350116
0.000149182
0.000209492
6.66957e-05
0.000150054
1.47336e-05
0.00144194
2.18471e-07
2.98716e-05
0.00138609
4.48328e-05
0.00133791
5.93747e-05
0.00128404
7.33067e-05
0.00121967
8.64567e-05
0.00114409
9.86696e-05
0.00105717
0.000109803
0.000959541
0.000119729
0.000852054
0.000128334
0.000735737
0.000135519
0.000611745
0.000141204
0.000481376
0.000145324
0.000345997
0.000147831
0.000206986
6.58332e-05
0.000148696
1.4596e-05
0.00142712
2.20332e-07
2.95962e-05
0.00137109
4.44214e-05
0.00132308
5.88313e-05
0.00126963
7.26371e-05
0.00120587
8.56682e-05
0.00113105
9.77709e-05
0.00104507
0.000108804
0.000948507
0.000118641
0.000842217
0.000127169
0.000727208
0.00013429
0.000604622
0.000139924
0.000475741
0.000144007
0.000341912
0.000146492
0.000204498
6.49703e-05
0.000147351
1.44596e-05
0.00141244
2.22134e-07
2.93234e-05
0.00135622
4.40138e-05
0.00130839
5.82929e-05
0.00125535
7.19736e-05
0.00119219
8.48869e-05
0.00111814
9.68804e-05
0.00103307
0.000107814
0.000937573
0.000117563
0.000832469
0.000126014
0.000718757
0.000133072
0.000597565
0.000138656
0.000470157
0.000142703
0.000337866
0.000145167
0.000202036
6.41221e-05
0.000146018
1.43245e-05
0.00139789
2.23862e-07
2.90531e-05
0.00134149
4.36099e-05
0.00129383
5.77595e-05
0.0012412
7.13163e-05
0.00117863
8.41129e-05
0.00110534
9.59982e-05
0.00102119
0.000106834
0.000926737
0.000116495
0.000822807
0.00012487
0.000710381
0.000131865
0.000590569
0.0001374
0.000464622
0.000141411
0.000333853
0.000143853
0.000199592
6.3273e-05
0.000144697
1.41907e-05
0.00138348
2.25508e-07
2.87853e-05
0.0013269
4.32098e-05
0.00127941
5.7231e-05
0.00122718
7.0665e-05
0.0011652
8.3346e-05
0.00109266
9.51242e-05
0.00100941
0.000105862
0.000915999
0.000115437
0.000813233
0.000123737