/*--------------------------------*- C++ -*----------------------------------*\
  =========                 |
  \\      /  F ield         | OpenFOAM: The Open Source CFD Toolbox
   \\    /   O peration     | Website:  https://openfoam.org
    \\  /    A nd           | Version:  6.0
     \\/     M anipulation  |
\*---------------------------------------------------------------------------*/
FoamFile
{
    version     2.0;
    format      ascii;
    class       volVectorField;
    location    "8.4";
    object      U;
}
// * * * * * * * * * * * * * * * * * * * * * * * * * * * * * * * * * * * * * //

dimensions      [0 1 -1 0 0 0 0];

internalField   nonuniform List<vector> 
34500
(
(0.999997 4.23149e-06 -4.63262e-17)
(0.999971 -8.8473e-06 -8.13378e-18)
(0.999924 -3.33354e-05 1.42178e-16)
(0.999863 -7.35414e-05 -1.0762e-16)
(0.999796 -0.000132056 3.35332e-17)
(0.999732 -0.000209142 -1.01419e-16)
(0.999681 -0.000300781 -1.00939e-16)
(0.999649 -0.000401825 8.64768e-17)
(0.999643 -0.000501781 1.07198e-16)
(0.999663 -0.00059304 -6.82613e-16)
(0.999708 -0.000664463 -1.03935e-15)
(0.999771 -0.000718816 1.26633e-16)
(0.999847 -0.00073596 4.33263e-16)
(0.999978 -0.000785738 -2.06682e-16)
(0.998971 -0.00127698 7.57866e-17)
(0.999992 1.19363e-05 3.24434e-17)
(0.999947 -1.81596e-05 9.76151e-17)
(0.999864 -6.81838e-05 7.17317e-17)
(0.999757 -0.000145416 -3.0207e-16)
(0.99964 -0.000254917 -5.05624e-16)
(0.999531 -0.000397159 -5.50073e-17)
(0.999446 -0.000564565 2.55368e-16)
(0.999396 -0.000746748 -6.76852e-16)
(0.999395 -0.000924214 -1.78503e-16)
(0.999441 -0.00108169 6.80857e-16)
(0.999532 -0.0011981 1.26077e-15)
(0.999656 -0.00127779 -6.2822e-16)
(0.999789 -0.0012815 -9.82267e-16)
(1.00009 -0.00130245 -3.93596e-16)
(0.999072 -0.00171051 5.17399e-16)
(0.99999 1.92913e-05 1.04665e-17)
(0.999951 -2.28618e-05 -1.22889e-16)
(0.999882 -8.15884e-05 -1.25124e-16)
(0.999795 -0.000161487 4.55459e-16)
(0.999703 -0.000266966 -2.85986e-17)
(0.999619 -0.000398145 -1.63917e-16)
(0.999558 -0.00054857 9.77532e-17)
(0.999528 -0.00070869 3.84315e-16)
(0.999541 -0.000861102 2.42939e-19)
(0.999596 -0.000991356 -3.92559e-16)
(0.999688 -0.00107951 -7.27114e-16)
(0.999812 -0.00113049 4.13008e-16)
(0.999918 -0.00111124 2.24314e-16)
(1.00024 -0.00108451 1.63951e-16)
(0.999642 -0.00117081 -2.43085e-16)
(0.999987 2.63478e-05 -1.73529e-17)
(0.999954 -2.82983e-05 -9.02185e-18)
(0.999901 -9.603e-05 4.83045e-17)
(0.999837 -0.000178741 -3.05244e-16)
(0.99977 -0.000280035 3.72011e-16)
(0.999713 -0.00039942 3.29714e-16)
(0.999676 -0.000532059 -3.99178e-16)
(0.999665 -0.000669686 -4.19571e-16)
(0.999689 -0.000798503 4.34571e-16)
(0.999748 -0.00090617 -4.69991e-16)
(0.999836 -0.000975937 -2.44092e-16)
(0.999953 -0.00101395 -3.84671e-16)
(1.00003 -0.000999806 5.41067e-16)
(1.00032 -0.000969601 -4.78739e-17)
(0.99994 -0.00103932 2.13764e-17)
(0.999981 3.35955e-05 -1.70418e-17)
(0.99995 -3.4725e-05 1.53282e-16)
(0.999899 -0.000115909 6.95319e-17)
(0.999841 -0.000210764 1.69677e-16)
(0.99978 -0.000322711 4.67194e-17)
(0.999732 -0.000450319 -1.58143e-16)
(0.999704 -0.000589103 1.02449e-16)
(0.999704 -0.000730121 2.66089e-16)
(0.999737 -0.000861141 -4.17297e-16)
(0.999803 -0.000970026 -2.30731e-16)
(0.999896 -0.00104156 1.00521e-15)
(1.00002 -0.0010817 6.33159e-16)
(1.00009 -0.00107785 -2.89035e-16)
(1.00035 -0.00104701 5.90658e-16)
(1.0001 -0.00111871 -5.85534e-16)
(0.999975 4.13204e-05 1.83501e-17)
(0.999941 -4.07854e-05 -9.479e-17)
(0.99989 -0.000136576 -1.86279e-16)
(0.999832 -0.00024627 -5.29141e-17)
(0.999773 -0.000373171 1.09374e-16)
(0.999729 -0.000514809 -1.08778e-16)
(0.999707 -0.000666344 1.48074e-16)
(0.999715 -0.00081737 1.3109e-16)
(0.999758 -0.000956015 2.90761e-16)
(0.999835 -0.00106959 -1.00155e-16)
(0.999939 -0.00114352 2.87697e-18)
(1.00008 -0.00118201 -3.8864e-16)
(1.00016 -0.00117674 1.82753e-17)
(1.00039 -0.00112894 -4.6768e-16)
(1.00024 -0.00112972 7.39374e-17)
(0.999967 4.95386e-05 3.25512e-18)
(0.999933 -4.60907e-05 -3.55803e-17)
(0.999884 -0.000155695 -2.90106e-17)
(0.999829 -0.000278701 1.7567e-16)
(0.999775 -0.000418087 -2.20346e-16)
(0.999738 -0.000570563 2.75298e-16)
(0.999724 -0.000730954 -6.18851e-16)
(0.999743 -0.000887679 -3.6959e-16)
(0.999796 -0.00102908 -1.51475e-16)
(0.999884 -0.00114218 6.7072e-16)
(0.999998 -0.00121323 -7.67427e-16)
(1.00015 -0.0012443 2.97642e-16)
(1.00024 -0.00123098 4.55345e-16)
(1.00044 -0.00116194 -9.5645e-17)
(1.00037 -0.00109615 -1.20403e-16)
(0.999958 5.82077e-05 1.51147e-17)
(0.999924 -5.09305e-05 3.22794e-17)
(0.999878 -0.000173878 2.50207e-17)
(0.99983 -0.000309115 -1.50806e-16)
(0.999784 -0.000459185 3.28712e-16)
(0.999756 -0.000620212 -1.39517e-16)
(0.999752 -0.000786867 2.0142e-16)
(0.999781 -0.000946767 -1.46177e-16)
(0.999846 -0.00108839 3.9728e-16)
(0.999945 -0.00119864 1.77604e-16)
(1.00007 -0.00126472 2.44512e-16)
(1.00023 -0.00128672 -5.64431e-17)
(1.00033 -0.00126415 -5.0377e-16)
(1.00051 -0.00117669 1.13604e-15)
(1.0005 -0.00106825 1.86032e-16)
(0.999948 6.73306e-05 -1.12146e-17)
(0.999914 -5.55243e-05 9.89316e-17)
(0.999872 -0.0001919 1.50749e-16)
(0.99983 -0.000339356 1.11873e-16)
(0.999793 -0.000499923 -4.88441e-16)
(0.999774 -0.00066925 1.40893e-16)
(0.999781 -0.000841901 3.20531e-16)
(0.999821 -0.00100488 7.72019e-16)
(0.999896 -0.00114663 -3.85147e-16)
(1.00001 -0.00125385 8.99764e-17)
(1.00014 -0.00131452 4.48667e-16)
(1.00031 -0.00132698 -3.23376e-16)
(1.00043 -0.00129421 -1.53809e-16)
(1.00059 -0.00119037 -3.80161e-16)
(1.00063 -0.00104964 8.38211e-17)
(0.999936 7.69165e-05 4.06803e-17)
(0.999903 -5.98926e-05 -8.97148e-17)
(0.999865 -0.000209872 8.84964e-18)
(0.999829 -0.000369676 -1.10136e-16)
(0.999801 -0.000540743 4.10449e-16)
(0.999792 -0.000718215 7.95708e-17)
(0.999809 -0.000896551 2.70095e-16)
(0.999861 -0.00106233 -5.72754e-16)
(0.999947 -0.00120387 4.15629e-17)
(1.00007 -0.00130771 -7.86318e-17)
(1.00021 -0.0013625 -1.3956e-16)
(1.00039 -0.00136509 4.40885e-17)
(1.00052 -0.00132166 5.91492e-16)
(1.00068 -0.00120356 -8.03017e-16)
(1.00075 -0.00103787 -2.68721e-16)
(0.999923 8.69586e-05 -2.62184e-17)
(0.999891 -6.40291e-05 3.52411e-17)
(0.999857 -0.00022772 -1.47479e-16)
(0.999828 -0.000399884 2.49855e-16)
(0.999808 -0.000581285 -3.61415e-16)
(0.99981 -0.000766485 -3.02938e-16)
(0.999839 -0.000949823 -3.38689e-16)
(0.999903 -0.00111767 3.90967e-17)
(1 -0.00125839 -8.1366e-17)
(1.00013 -0.0013585 -4.24236e-16)
(1.00028 -0.00140745 -7.20596e-16)
(1.00047 -0.00140088 2.85565e-16)
(1.00062 -0.00134793 -3.27991e-16)
(1.00077 -0.00121919 9.05699e-16)
(1.00086 -0.00103673 5.3605e-17)
(0.999908 9.74294e-05 -2.45502e-17)
(0.999878 -6.7955e-05 -1.04207e-16)
(0.999848 -0.000245498 1.50689e-16)
(0.999826 -0.000430117 -2.34075e-16)
(0.999815 -0.000621887 7.68401e-17)
(0.999828 -0.000814705 4.53997e-16)
(0.999869 -0.00100275 5.53695e-17)
(0.999945 -0.00117236 -6.73161e-17)
(1.00005 -0.00131215 1.81456e-16)
(1.0002 -0.00140881 -1.56821e-16)
(1.00036 -0.00145273 -9.5012e-17)
(1.00055 -0.0014386 -6.67281e-17)
(1.00071 -0.00137789 -2.86835e-16)
(1.00086 -0.00124165 -6.2054e-16)
(1.00097 -0.00104649 1.23901e-17)
(0.999892 0.000108295 -2.17623e-18)
(0.999863 -7.17014e-05 1.40461e-16)
(0.999837 -0.000263295 -2.2145e-16)
(0.999822 -0.000460641 8.3379e-17)
(0.99982 -0.000663151 -9.35284e-17)
(0.999844 -0.000864007 -1.54699e-16)
(0.999897 -0.00105711 -3.88789e-17)
(0.999985 -0.00122888 3.649e-16)
(1.0001 -0.00136822 -6.29978e-16)
(1.00026 -0.00146218 4.20072e-16)
(1.00043 -0.00150212 2.20389e-16)
(1.00063 -0.00148186 1.83945e-16)
(1.0008 -0.00141426 7.48792e-16)
(1.00095 -0.00127151 7.29129e-16)
(1.00107 -0.0010632 5.47481e-16)
(0.999875 0.000119514 8.30167e-18)
(0.999847 -7.52772e-05 5.28631e-17)
(0.999824 -0.000281137 1.7601e-16)
(0.999815 -0.000491542 5.57517e-17)
(0.999823 -0.000705306 1.7058e-16)
(0.999857 -0.000914873 1.67996e-16)
(0.999921 -0.00111375 -1.18428e-17)
(1.00002 -0.00128836 4.92775e-17)
(1.00015 -0.00142793 9.37346e-16)
(1.00032 -0.00151989 -1.13861e-16)
(1.00049 -0.00155645 5.41902e-16)
(1.0007 -0.00153063 -7.38576e-16)
(1.00088 -0.00145568 1.36859e-16)
(1.00105 -0.0013054 -1.34317e-15)
(1.00118 -0.00108153 -6.1522e-16)
(0.999856 0.00013104 9.93783e-18)
(0.999829 -7.86877e-05 -1.17652e-16)
(0.99981 -0.000298978 1.54745e-16)
(0.999807 -0.000522707 -2.24031e-16)
(0.999823 -0.000748146 1.56784e-16)
(0.999867 -0.000967027 2.07125e-17)
(0.999942 -0.00117233 1.94948e-16)
(1.00005 -0.00135043 -2.59911e-16)
(1.0002 -0.00149073 -8.38718e-16)
(1.00037 -0.00158099 2.49166e-16)
(1.00056 -0.00161417 -5.59932e-16)
(1.00077 -0.00158248 1.12757e-16)
(1.00097 -0.00149889 -4.89865e-16)
(1.00114 -0.00133924 2.65392e-16)
(1.00129 -0.00109818 -1.08294e-16)
(0.999836 0.000142819 3.3232e-17)
(0.99981 -8.19376e-05 7.1868e-17)
(0.999795 -0.000316759 -3.58849e-16)
(0.999797 -0.00055394 2.88289e-16)
(0.999821 -0.000791259 -2.7986e-16)
(0.999875 -0.00101978 -3.72838e-16)
(0.999961 -0.00123191 -3.82795e-16)
(1.00008 -0.00141384 3.37474e-16)
(1.00024 -0.00155505 7.18592e-16)
(1.00043 -0.0016435 1.62953e-16)
(1.00063 -0.0016728 9.46623e-17)
(1.00085 -0.00163443 7.0047e-17)
(1.00105 -0.00154081 -7.32375e-16)
(1.00124 -0.00137023 6.43268e-17)
(1.0014 -0.00111207 6.3143e-16)
(0.999814 0.000154789 -8.96421e-17)
(0.999789 -8.50503e-05 -9.23723e-17)
(0.999777 -0.000334437 3.42747e-17)
(0.999786 -0.000585071 -2.64252e-16)
(0.999818 -0.000834242 -1.79605e-17)
(0.999882 -0.00107242 4.81477e-16)
(0.99998 -0.00129142 5.50505e-17)
(1.00011 -0.00147718 3.03967e-16)
(1.00028 -0.00161917 -6.02621e-16)
(1.00048 -0.00170548 -3.09532e-16)
(1.00069 -0.0017302 4.44377e-16)
(1.00092 -0.00168436 -1.48975e-16)
(1.00114 -0.0015798 4.83324e-16)
(1.00133 -0.00139776 7.48698e-16)
(1.00152 -0.00112456 -5.97202e-17)
(0.99979 0.000166889 2.80828e-17)
(0.999767 -8.80565e-05 1.14724e-17)
(0.999759 -0.00035201 1.15585e-16)
(0.999774 -0.00061601 2.25804e-18)
(0.999814 -0.000876841 9.88265e-17)
(0.999888 -0.00112443 -2.89524e-16)
(0.999998 -0.00135005 5.98005e-16)
(1.00015 -0.00153939 -1.53422e-16)
(1.00033 -0.00168187 6.522e-16)
(1.00054 -0.00176564 -3.41173e-16)
(1.00076 -0.00178526 -5.43186e-16)
(1.001 -0.00173155 5.24181e-16)
(1.00123 -0.00161595 -8.83572e-16)
(1.00143 -0.00142298 -1.30092e-15)
(1.00162 -0.00113786 -3.28862e-16)
(0.999766 0.000179053 3.12673e-18)
(0.999744 -9.10029e-05 1.94932e-17)
(0.99974 -0.000369512 -3.12055e-17)
(0.999761 -0.000646773 1.58612e-16)
(0.99981 -0.000919014 1.08782e-16)
(0.999895 -0.00117568 -4.26552e-17)
(1.00002 -0.00140754 -3.60456e-16)
(1.00018 -0.00160012 -3.47461e-16)
(1.00037 -0.0017428 -2.34849e-16)
(1.00059 -0.00182381 4.3274e-16)
(1.00083 -0.00183817 3.35271e-16)
(1.00108 -0.00177676 -4.92864e-16)
(1.00131 -0.0016508 1.09456e-15)
(1.00152 -0.00144822 1.37078e-15)
(1.00173 -0.0011543 4.6266e-17)
(0.99974 0.000191226 3.57535e-17)
(0.999719 -9.39345e-05 -4.75849e-17)
(0.999719 -0.00038701 2.29365e-16)
(0.999747 -0.00067747 -4.56789e-17)
(0.999806 -0.00096094 -1.74333e-16)
(0.999902 -0.0012264 7.39051e-17)
(1.00003 -0.00146419 -1.29653e-16)
(1.00021 -0.00165975 2.93363e-16)
(1.00041 -0.0018025 7.71117e-17)
(1.00065 -0.00188082 5.39015e-17)
(1.0009 -0.00189021 -2.57127e-16)
(1.00116 -0.00182176 3.41259e-16)
(1.0014 -0.00168651 1.73892e-16)
(1.00162 -0.00147573 1.55289e-16)
(1.00183 -0.00117501 3.92961e-16)
(0.999713 0.000203353 -1.83804e-17)
(0.999693 -9.68991e-05 2.72398e-17)
(0.999697 -0.00040458 -3.71798e-16)
(0.999732 -0.000708264 -2.3786e-16)
(0.9998 -0.00100292 3.29188e-16)
(0.999907 -0.00127708 -8.91148e-17)
(1.00005 -0.00152069 5.20539e-16)
(1.00024 -0.00171922 -1.41321e-16)
(1.00046 -0.00186216 -7.50661e-18)
(1.0007 -0.00193814 -1.49885e-16)
(1.00096 -0.00194309 3.84815e-16)
(1.00123 -0.00186847 -2.42507e-16)
(1.00149 -0.00172492 -7.96957e-16)
(1.00171 -0.00150688 -1.89583e-16)
(1.00193 -0.00119987 -4.48886e-16)
(0.999684 0.000215396 2.47427e-17)
(0.999666 -9.99295e-05 1.12541e-16)
(0.999674 -0.00042229 3.35107e-16)
(0.999716 -0.000739307 2.60064e-16)
(0.999793 -0.00104527 -3.20556e-17)
(0.999911 -0.00132825 -1.30213e-16)
(1.00007 -0.00157782 -5.76256e-16)
(1.00027 -0.00177953 -6.69948e-17)
(1.0005 -0.001923 -3.42238e-16)
(1.00076 -0.00199712 1.10834e-16)
(1.00103 -0.00199823 -7.05337e-16)
(1.00131 -0.00191812 3.40179e-16)
(1.00157 -0.00176683 1.14811e-15)
(1.00181 -0.00154165 -8.84624e-16)
(1.00203 -0.00122741 5.23278e-16)
(0.999655 0.000227321 -1.99512e-17)
(0.999637 -0.000103052 -1.58349e-16)
(0.999649 -0.000440179 -1.9179e-16)
(0.999697 -0.000770695 -9.56513e-17)
(0.999783 -0.0010882 -6.12554e-17)
(0.999913 -0.00138028 8.40915e-17)
(1.00008 -0.00163616 -3.22007e-17)
(1.00029 -0.00184142 -4.42259e-16)
(1.00054 -0.00198585 -1.30162e-16)
(1.00081 -0.00205856 -3.27694e-17)
(1.00109 -0.00205624 6.41996e-16)
(1.00138 -0.00197096 1.07354e-16)
(1.00166 -0.00181189 -9.54555e-16)
(1.0019 -0.00157894 5.06216e-16)
(1.00213 -0.00125591 -1.01289e-16)
(0.999624 0.000239115 1.80225e-17)
(0.999606 -0.000106274 9.31043e-17)
(0.999622 -0.000458251 9.23089e-17)
(0.999677 -0.000802438 1.79511e-16)
(0.999772 -0.00113175 -9.77997e-17)
(0.999912 -0.00143329 -2.75078e-17)
(1.00009 -0.00169586 1.98736e-16)
(1.00032 -0.00190509 2.96949e-16)
(1.00058 -0.00205085 -2.13987e-17)
(1.00086 -0.00212246 -3.58438e-16)
(1.00116 -0.00211681 -2.75483e-16)
(1.00146 -0.00202622 -4.84139e-16)
(1.00174 -0.00185888 2.03034e-17)
(1.002 -0.00161714 2.62113e-16)
(1.00223 -0.0012837 -1.58342e-16)
(0.999592 0.000250767 -9.63652e-18)
(0.999575 -0.000109601 -5.50968e-17)
(0.999594 -0.000476485 1.40189e-16)
(0.999654 -0.000834477 1.47025e-17)
(0.999758 -0.00117581 -1.24498e-16)
(0.999909 -0.0014871 1.00389e-16)
(1.0001 -0.00175671 -4.79521e-17)
(1.00034 -0.00197024 2.73797e-16)
(1.00061 -0.00211757 5.05842e-16)
(1.00091 -0.00218816 7.85458e-17)
(1.00122 -0.002179 2.37732e-16)
(1.00153 -0.00208266 2.41912e-16)
(1.00183 -0.00190636 5.96905e-17)
(1.00209 -0.00165489 -5.39406e-16)
(1.00234 -0.00131028 1.30544e-16)
(0.999559 0.000262283 1.29082e-17)
(0.999542 -0.00011303 1.16043e-17)
(0.999564 -0.000494847 -2.86401e-16)
(0.999631 -0.00086671 -1.25113e-16)
(0.999743 -0.00122018 1.7589e-16)
(0.999905 -0.0015414 -2.74547e-17)
(1.00011 -0.00181825 1.8361e-16)
(1.00036 -0.00203624 -2.43851e-16)
(1.00065 -0.0021852 1.38996e-16)
(1.00096 -0.00225466 1.15587e-16)
(1.00128 -0.00224166 1.21987e-16)
(1.00161 -0.00213905 1.55181e-16)
(1.00191 -0.00195326 2.15615e-16)
(1.00219 -0.00169148 3.03241e-17)
(1.00245 -0.00133563 7.67878e-17)
(0.999525 0.00027367 -3.97153e-17)
(0.999507 -0.000116562 1.05084e-16)
(0.999533 -0.000513306 1.64446e-16)
(0.999605 -0.00089904 -1.05259e-16)
(0.999727 -0.00126466 -6.84267e-17)
(0.999899 -0.00159584 3.89442e-17)
(1.00012 -0.00187997 -2.00027e-16)
(1.00038 -0.00210244 -1.30874e-16)
(1.00068 -0.00225297 -1.71885e-16)
(1.00101 -0.00232112 2.73152e-16)
(1.00134 -0.00230395 -3.78867e-16)
(1.00168 -0.00219472 2.95831e-16)
(1.002 -0.00199921 1.44817e-16)
(1.00229 -0.00172707 5.41545e-16)
(1.00255 -0.0013607 -4.94636e-16)
(0.999489 0.000284948 1.67583e-17)
(0.999471 -0.000120196 -7.90943e-17)
(0.9995 -0.000531848 5.79073e-17)
(0.999579 -0.000931405 1.28068e-16)
(0.999709 -0.0013091 -8.87836e-17)
(0.999892 -0.00165018 -1.50038e-16)
(1.00012 -0.00194153 -7.10325e-17)
(1.0004 -0.00216842 9.78812e-17)
(1.00072 -0.00232041 -4.47684e-16)
(1.00106 -0.00238711 6.60454e-17)
(1.00141 -0.0023656 2.51732e-16)
(1.00176 -0.00224963 -7.0333e-16)
(1.00209 -0.00204456 1.41937e-16)
(1.00238 -0.00176241 2.17222e-17)
(1.00266 -0.00138649 3.64736e-16)
(0.999453 0.000296135 -6.37093e-18)
(0.999434 -0.000123938 9.69381e-17)
(0.999467 -0.000550477 -9.36492e-17)
(0.999552 -0.000963801 -5.81222e-17)
(0.999691 -0.0013535 -9.26933e-17)
(0.999885 -0.00170437 -4.90155e-17)
(1.00013 -0.00200287 -1.05679e-16)
(1.00042 -0.00223411 7.54438e-17)
(1.00075 -0.0023875 2.90119e-17)
(1.00111 -0.00245273 -3.09956e-16)
(1.00147 -0.00242691 -3.6968e-16)
(1.00183 -0.00230436 4.09957e-16)
(1.00218 -0.00209014 -3.57652e-16)
(1.00248 -0.00179848 -1.1378e-16)
(1.00276 -0.00141376 -1.11712e-17)
(0.999415 0.000307259 -1.9278e-17)
(0.999395 -0.000127791 -4.47808e-17)
(0.999432 -0.000569216 3.16259e-17)
(0.999523 -0.000996274 2.25347e-16)
(0.999672 -0.00139793 3.76307e-16)
(0.999878 -0.00175855 3.07186e-16)
(1.00014 -0.00206416 3.35597e-16)
(1.00044 -0.00229976 -2.14079e-16)
(1.00079 -0.00245461 6.90407e-20)
(1.00116 -0.00251849 2.32123e-16)
(1.00153 -0.00248856 4.56984e-17)
(1.00191 -0.00235975 2.519e-16)
(1.00226 -0.00213681 2.0231e-16)
(1.00258 -0.00183604 -5.29604e-16)
(1.00287 -0.00144271 -3.46901e-16)
(0.999376 0.000318343 9.91875e-18)
(0.999355 -0.000131759 -8.09371e-17)
(0.999395 -0.000588095 -1.61887e-16)
(0.999494 -0.0010289 -1.58897e-16)
(0.999651 -0.00144253 1.46029e-17)
(0.999869 -0.00181295 -1.73426e-16)
(1.00014 -0.00212575 -3.77571e-16)
(1.00046 -0.00236583 2.88158e-16)
(1.00082 -0.00252231 2.34332e-16)
(1.0012 -0.00258506 -5.16613e-16)
(1.0016 -0.00255129 4.23679e-16)
(1.00199 -0.00241652 -3.08752e-16)
(1.00235 -0.00218517 -1.42241e-16)
(1.00268 -0.0018754 -1.24266e-16)
(1.00297 -0.00147322 1.47801e-16)
(0.999335 0.00032942 3.77569e-17)
(0.999314 -0.000135837 1.73668e-17)
(0.999358 -0.000607143 8.7558e-17)
(0.999463 -0.00106176 4.06701e-17)
(0.99963 -0.00148747 4.78456e-17)
(0.999859 -0.00186783 2.99938e-16)
(1.00014 -0.002188 -1.35512e-16)
(1.00048 -0.00243276 1.48061e-16)
(1.00085 -0.00259111 8.50004e-17)
(1.00125 -0.00265299 5.92275e-17)
(1.00166 -0.00261562 1.97267e-16)
(1.00206 -0.00247506 -4.20429e-17)
(1.00244 -0.00223536 9.33897e-18)
(1.00278 -0.00191639 8.66754e-16)
(1.00307 -0.00150471 2.74968e-18)
(0.999293 0.000340514 -3.66484e-17)
(0.999271 -0.000140021 -1.26566e-17)
(0.999319 -0.000626376 5.72447e-17)
(0.99943 -0.00109491 -1.74525e-16)
(0.999606 -0.00153287 -2.79522e-16)
(0.999847 -0.00192337 -2.67803e-16)
(1.00015 -0.00225116 2.26888e-16)
(1.0005 -0.00250088 -8.29731e-17)
(1.00088 -0.00266135 9.67404e-18)
(1.0013 -0.00272256 -5.01088e-18)
(1.00172 -0.00268172 -2.72481e-16)
(1.00214 -0.00253537 -2.46173e-16)
(1.00252 -0.00228719 -1.58657e-16)
(1.00287 -0.00195861 2.40576e-17)
(1.00318 -0.00153677 -5.4145e-17)
(0.999249 0.000351654 -1.82961e-17)
(0.999227 -0.000144293 4.84202e-17)
(0.999278 -0.000645801 4.76359e-17)
(0.999396 -0.00112839 7.75147e-17)
(0.999582 -0.00157879 1.06015e-16)
(0.999834 -0.00197968 1.67521e-18)
(1.00015 -0.00231536 2.26787e-16)
(1.00051 -0.00257028 -5.05635e-16)
(1.00091 -0.00273308 2.57808e-16)
(1.00134 -0.00279375 2.62884e-16)
(1.00178 -0.00274943 -3.75996e-16)
(1.00221 -0.00259713 7.01952e-16)
(1.00261 -0.00234018 3.69307e-16)
(1.00297 -0.00200153 -6.87568e-16)
(1.00328 -0.00156897 -2.04165e-16)
(0.999203 0.000362862 3.7835e-17)
(0.999181 -0.000148641 2.9377e-17)
(0.999236 -0.000665411 4.58715e-18)
(0.99936 -0.00116219 -3.47485e-17)
(0.999555 -0.00162523 2.01558e-17)
(0.999819 -0.00203674 2.84363e-16)
(1.00014 -0.00238055 -4.58315e-17)
(1.00052 -0.00264088 3.2448e-16)
(1.00094 -0.00280614 -4.80076e-17)
(1.00139 -0.0028663 -2.90778e-16)
(1.00184 -0.00281841 6.01522e-16)
(1.00229 -0.00265993 -3.6086e-16)
(1.0027 -0.00239393 -4.88259e-16)
(1.00307 -0.00204486 2.06215e-16)
(1.00339 -0.00160131 3.44108e-16)
(0.999156 0.000374158 -3.1463e-17)
(0.999134 -0.000153042 -1.3263e-17)
(0.999192 -0.000685193 -1.72941e-16)
(0.999322 -0.0011963 -8.45134e-17)
(0.999527 -0.00167215 5.20443e-17)
(0.999803 -0.00209447 -2.87072e-16)
(1.00014 -0.0024466 -8.43815e-17)
(1.00054 -0.0027125 2.82801e-16)
(1.00097 -0.00288028 -2.39138e-16)
(1.00143 -0.0029399 7.01157e-17)
(1.0019 -0.00288832 -3.34949e-16)
(1.00236 -0.00272345 1.05331e-17)
(1.00279 -0.00244822 2.64275e-16)
(1.00317 -0.00208854 1.38936e-16)
(1.0035 -0.0016339 -5.4038e-17)
(0.999107 0.000385555 3.00148e-17)
(0.999085 -0.000157483 -9.73786e-17)
(0.999146 -0.000705134 8.17381e-17)
(0.999283 -0.00123071 5.34947e-17)
(0.999497 -0.00171952 -4.03316e-17)
(0.999785 -0.00215281 -1.72439e-16)
(1.00014 -0.0025134 5.22794e-17)
(1.00055 -0.00278496 -1.29654e-16)
(1.001 -0.0029553 -2.18576e-16)
(1.00148 -0.00301435 -2.73124e-17)
(1.00196 -0.00295898 -4.8405e-16)
(1.00244 -0.00278762 4.95197e-16)
(1.00287 -0.0025031 3.84681e-17)
(1.00327 -0.00213276 -7.9318e-17)
(1.0036 -0.00166713 -7.70264e-18)
(0.999057 0.000397064 -3.68142e-17)
(0.999035 -0.000161945 1.00245e-16)
(0.999099 -0.000725227 -2.30266e-17)
(0.999243 -0.00126539 -2.09749e-16)
(0.999466 -0.00176731 -9.99326e-17)
(0.999766 -0.00221171 1.16081e-16)
(1.00013 -0.00258087 -1.70314e-16)
(1.00056 -0.00285817 -1.90754e-16)
(1.00103 -0.00303111 3.24584e-16)
(1.00152 -0.00308959 1.12922e-16)
(1.00202 -0.00303041 5.07904e-16)
(1.00251 -0.00285253 -3.81878e-16)
(1.00296 -0.00255876 1.37151e-16)
(1.00337 -0.0021778 -1.54294e-16)
(1.00371 -0.00170114 5.13478e-18)
(0.999004 0.000408689 2.27859e-17)
(0.998983 -0.000166421 -5.80099e-17)
(0.999051 -0.000745472 7.2054e-17)
(0.999201 -0.00130037 3.12524e-16)
(0.999434 -0.00181553 1.32615e-16)
(0.999746 -0.00227118 8.22682e-17)
(1.00013 -0.00264905 3.38282e-16)
(1.00057 -0.00293217 1.60742e-16)
(1.00105 -0.00310779 -2.64714e-16)
(1.00157 -0.00316573 4.50958e-16)
(1.00208 -0.0031028 2.50721e-16)
(1.00259 -0.00291844 -2.12123e-16)
(1.00305 -0.00261549 -4.05528e-16)
(1.00347 -0.0022239 -1.5746e-16)
(1.00382 -0.0017361 6.06812e-17)
(0.998951 0.000420435 4.67859e-18)
(0.99893 -0.0001709 -1.2359e-16)
(0.999001 -0.000765874 -9.17137e-17)
(0.999158 -0.00133566 -2.1519e-16)
(0.9994 -0.00186424 3.45642e-17)
(0.999724 -0.00233129 -3.34092e-16)
(1.00012 -0.00271801 -3.59137e-16)
(1.00058 -0.00300709 -1.44444e-16)
(1.00108 -0.00318548 3.07677e-16)
(1.00161 -0.00324299 -3.26758e-16)
(1.00214 -0.00317638 1.15512e-16)
(1.00266 -0.00298559 2.14662e-16)
(1.00314 -0.00267347 3.25713e-16)
(1.00357 -0.00227116 1.98607e-16)
(1.00392 -0.00177182 1.68339e-17)
(0.998895 0.0004323 3.28862e-17)
(0.998875 -0.000175381 2.01997e-16)
(0.99895 -0.000786448 9.40081e-17)
(0.999113 -0.0013713 1.80651e-16)
(0.999365 -0.00191349 1.08233e-16)
(0.999702 -0.00239213 4.56235e-17)
(1.00011 -0.00278788 5.2624e-17)
(1.00059 -0.00308309 -1.20892e-16)
(1.00111 -0.00326439 -1.22572e-16)
(1.00165 -0.00332158 1.43612e-17)
(1.0022 -0.00325135 -7.8931e-16)
(1.00273 -0.00305414 -3.08162e-16)
(1.00323 -0.00273279 3.23873e-16)
(1.00367 -0.00231954 -7.21746e-17)
(1.00403 -0.00180824 -1.99537e-16)
(0.998838 0.000444285 -4.42007e-17)
(0.998818 -0.000179862 -1.29445e-16)
(0.998897 -0.000807205 -1.85893e-16)
(0.999066 -0.00140732 6.10657e-17)
(0.999329 -0.00196333 -2.05337e-16)
(0.999678 -0.00245378 3.82467e-17)
(1.0001 -0.00285877 -4.73366e-17)
(1.00059 -0.00316029 -8.63979e-18)
(1.00113 -0.00334465 -1.46466e-16)
(1.00169 -0.0034016 -7.67828e-17)
(1.00226 -0.00332779 2.71842e-17)
(1.00281 -0.00312408 2.67622e-16)
(1.00332 -0.00279334 -1.34818e-16)
(1.00377 -0.00236884 2.65948e-16)
(1.00414 -0.00184505 9.38289e-17)
(0.99878 0.000456386 2.36238e-17)
(0.99876 -0.000184348 1.24007e-16)
(0.998842 -0.000828162 2.36172e-16)
(0.999018 -0.00144375 -6.82371e-17)
(0.99929 -0.00201381 -1.6554e-17)
(0.999652 -0.0025163 2.50629e-16)
(1.00009 -0.00293075 2.13093e-16)
(1.0006 -0.00323875 -1.45992e-16)
(1.00115 -0.0034263 3.91063e-16)
(1.00173 -0.00348306 3.54713e-16)
(1.00232 -0.00340564 3.77088e-16)
(1.00288 -0.00319531 -1.74063e-17)
(1.0034 -0.00285495 -2.98879e-16)
(1.00387 -0.00241888 -3.13668e-16)
(1.00424 -0.00188221 -3.01756e-17)
(0.99872 0.000468607 -2.02429e-17)
(0.998701 -0.000188841 -6.54849e-17)
(0.998786 -0.00084933 -1.9575e-16)
(0.998969 -0.00148061 1.25971e-16)
(0.99925 -0.00206495 1.20865e-16)
(0.999625 -0.0025797 -1.67812e-16)
(1.00008 -0.00300382 -8.47111e-17)
(1.0006 -0.00331846 8.37373e-18)
(1.00118 -0.00350928 -1.73797e-16)
(1.00178 -0.00356589 -3.0392e-16)
(1.00238 -0.00348478 -5.60625e-16)
(1.00296 -0.00326765 6.05261e-17)
(1.00349 -0.00291746 3.64909e-16)
(1.00397 -0.00246952 3.3016e-16)
(1.00435 -0.00191963 -6.93307e-17)
(0.998659 0.000480942 -1.61087e-17)
(0.998639 -0.000193353 -1.31723e-17)
(0.998728 -0.000870722 1.713e-16)
(0.998917 -0.00151791 -1.61619e-16)
(0.999209 -0.00211675 -3.19352e-16)
(0.999596 -0.00264398 1.5497e-16)
(1.00007 -0.00307794 8.7931e-17)
(1.00061 -0.00339936 4.07121e-16)
(1.0012 -0.00359353 5.82006e-17)
(1.00182 -0.00364996 2.82983e-16)
(1.00243 -0.00356508 8.40091e-16)
(1.00303 -0.003341 -2.30393e-16)
(1.00358 -0.0029808 -9.77355e-17)
(1.00407 -0.0025208 -1.1527e-17)
(1.00446 -0.00195755 -2.76141e-17)
(0.998596 0.000493395 4.50509e-17)
(0.998576 -0.000197895 4.92128e-17)
(0.998668 -0.000892351 -1.47327e-16)
(0.998864 -0.00155566 1.36852e-16)
(0.999166 -0.00216921 -9.21057e-17)
(0.999566 -0.00270911 -2.96511e-16)
(1.00005 -0.00315308 1.30293e-17)
(1.00061 -0.00348138 -3.50181e-17)
(1.00122 -0.00367894 -2.1585e-16)
(1.00186 -0.00373518 1.81913e-16)
(1.00249 -0.00364646 -7.84164e-16)
(1.00311 -0.00341531 -1.42669e-17)
(1.00367 -0.003045 -1.74579e-16)
(1.00417 -0.00257278 3.25834e-17)
(1.00457 -0.00199603 -8.17988e-17)
(0.998532 0.000505961 -1.14961e-17)
(0.998512 -0.000202486 -1.1726e-17)
(0.998607 -0.000914234 2.03861e-17)
(0.99881 -0.00159387 -1.52186e-16)
(0.999122 -0.00222234 -2.73211e-17)
(0.999535 -0.00277508 3.62052e-16)
(1.00004 -0.0032292 -2.63837e-16)
(1.00061 -0.00356449 -3.26749e-16)
(1.00124 -0.0037655 3.49814e-16)
(1.00189 -0.00382155 -3.16438e-16)
(1.00255 -0.00372897 4.00387e-16)
(1.00318 -0.00349069 3.7866e-16)
(1.00376 -0.00311018 2.72587e-16)
(1.00428 -0.00262567 -1.81233e-16)
(1.00468 -0.0020353 -6.16573e-17)
(0.998466 0.000518639 -1.23981e-17)
(0.998446 -0.000207141 -7.19506e-17)
(0.998544 -0.000936389 -9.68797e-17)
(0.998754 -0.00163255 7.10996e-17)
(0.999076 -0.00227614 1.80186e-16)
(0.999502 -0.00284191 6.31956e-17)
(1.00002 -0.00330633 2.45199e-16)
(1.00061 -0.00364871 5.35868e-17)
(1.00126 -0.00385324 -4.59928e-16)
(1.00193 -0.00390914 1.60912e-16)
(1.00261 -0.00381269 -2.27399e-16)
(1.00326 -0.00356725 -1.88808e-16)
(1.00385 -0.00317651 -2.54183e-16)
(1.00438 -0.00267959 4.01365e-17)
(1.00479 -0.00207536 1.48905e-16)
(0.998399 0.000531422 -1.90299e-17)
(0.998378 -0.000211886 3.42705e-17)
(0.99848 -0.000958842 4.13727e-17)
(0.998696 -0.00167174 -1.42508e-16)
(0.999028 -0.00233065 6.95413e-17)
(0.999468 -0.00290963 -2.10979e-16)
(1 -0.00338451 -2.58424e-17)
(1.00061 -0.00373412 3.1725e-16)
(1.00128 -0.00394227 -2.02326e-16)
(1.00197 -0.00399808 -2.67404e-16)
(1.00266 -0.0038978 2.29623e-16)
(1.00333 -0.00364519 -6.81385e-17)
(1.00394 -0.00324415 -7.20254e-16)
(1.00448 -0.00273467 7.34346e-17)
(1.0049 -0.00211633 1.0712e-16)
(0.99833 0.000544306 -9.79507e-18)
(0.998308 -0.000216741 3.34277e-17)
(0.998413 -0.000981616 1.25929e-17)
(0.998637 -0.00171146 1.89967e-17)
(0.998979 -0.00238591 1.20005e-16)
(0.999433 -0.0029783 6.66787e-17)
(0.999984 -0.00346383 -2.19595e-16)
(1.00061 -0.00382082 -2.00501e-17)
(1.0013 -0.00403271 6.06005e-16)
(1.00201 -0.00408851 -1.94336e-16)
(1.00272 -0.00398443 -5.71288e-18)
(1.00341 -0.00372461 2.87268e-17)
(1.00403 -0.00331316 2.77239e-17)
(1.00459 -0.00279089 -5.08448e-17)
(1.00502 -0.00215802 1.69084e-17)
(0.99826 0.00055728 2.58121e-17)
(0.998237 -0.000221731 -6.81864e-17)
(0.998345 -0.00100474 -7.78811e-17)
(0.998576 -0.00175176 1.49388e-19)
(0.998929 -0.00244198 -1.81205e-16)
(0.999396 -0.003048 -2.89351e-17)
(0.999963 -0.00354437 4.26388e-17)
(1.00061 -0.00390892 -4.82777e-17)
(1.00131 -0.00412468 -4.10284e-16)
(1.00205 -0.00418055 5.46198e-16)
(1.00278 -0.00407269 -3.11652e-17)
(1.00348 -0.00380558 -5.70502e-17)
(1.00412 -0.00338356 3.36126e-16)
(1.00469 -0.00284823 -3.76702e-16)
(1.00513 -0.00220044 7.94007e-18)
(0.998188 0.000570335 2.73875e-18)
(0.998164 -0.000226875 8.18002e-17)
(0.998276 -0.00102824 2.19825e-16)
(0.998513 -0.00179265 -5.54332e-17)
(0.998877 -0.00249888 1.17763e-16)
(0.999358 -0.00311877 -1.82981e-16)
(0.999941 -0.00362621 -2.19119e-16)
(1.00061 -0.00399849 5.26194e-18)
(1.00133 -0.00421825 2.38884e-16)
(1.00208 -0.00427425 -4.76723e-16)
(1.00284 -0.00416258 1.18725e-16)
(1.00356 -0.00388808 -2.06296e-17)
(1.00421 -0.00345526 2.59667e-16)
(1.0048 -0.00290655 8.01855e-17)
(1.00524 -0.00224337 -1.24669e-16)
(0.998114 0.000583457 1.05245e-18)
(0.998089 -0.000232197 -8.87806e-17)
(0.998204 -0.00105214 -1.25461e-16)
(0.998448 -0.00183418 2.07632e-17)
(0.998823 -0.00255666 -2.18784e-17)
(0.999318 -0.00319066 1.66095e-16)
(0.999918 -0.00370938 3.59761e-16)
(1.0006 -0.00408957 -3.19093e-16)
(1.00135 -0.00431345 3.62934e-16)
(1.00212 -0.00436963 3.20782e-17)
(1.00289 -0.0042541 7.11778e-17)
(1.00363 -0.00397205 -1.37432e-16)
(1.00431 -0.00352822 2.65226e-16)
(1.0049 -0.00296583 1.50211e-16)
(1.00536 -0.00228696 1.95851e-16)
(0.998038 0.000596635 -8.60754e-18)
(0.998012 -0.000237712 8.46876e-17)
(0.998131 -0.00107647 1.54532e-16)
(0.998382 -0.00187635 5.33883e-17)
(0.998767 -0.00261534 1.56148e-16)
(0.999276 -0.00326369 1.19916e-16)
(0.999894 -0.00379391 -3.23075e-16)
(1.0006 -0.00418217 6.47233e-16)
(1.00136 -0.00441027 -2.03575e-16)
(1.00216 -0.00446663 -6.7715e-17)
(1.00295 -0.00434719 -2.45052e-16)
(1.00371 -0.00405744 -1.07591e-16)
(1.0044 -0.00360236 -2.95166e-16)
(1.00501 -0.00302601 -1.08682e-16)
(1.00547 -0.0023311 4.71046e-17)
(0.997961 0.000609853 -3.05678e-17)
(0.997934 -0.000243438 -9.05667e-17)
(0.998056 -0.00110123 -1.08374e-17)
(0.998314 -0.0019192 1.06208e-16)
(0.99871 -0.00267494 -1.42105e-16)
(0.999233 -0.00333787 -1.04343e-16)
(0.999868 -0.00387978 4.04286e-16)
(1.00059 -0.00427628 -1.20741e-16)
(1.00138 -0.00450868 -5.15802e-16)
(1.00219 -0.00456525 7.09807e-17)
(1.003 -0.00444181 -1.24423e-16)
(1.00378 -0.00414421 2.30141e-16)
(1.00449 -0.00367771 3.68487e-16)
(1.00511 -0.00308715 3.28037e-16)
(1.00559 -0.00237599 -2.74514e-16)
(0.997881 0.000623101 1.83324e-18)
(0.997853 -0.000249386 -1.74696e-17)
(0.997979 -0.00112644 -7.23108e-17)
(0.998244 -0.00196274 4.50715e-17)
(0.998651 -0.00273547 -7.87952e-17)
(0.999189 -0.0034132 1.34383e-16)
(0.999841 -0.00396701 -1.16172e-16)
(1.00058 -0.00437188 3.98653e-17)
(1.00139 -0.00460867 -1.08113e-16)
(1.00223 -0.00466545 2.75028e-16)
(1.00306 -0.00453797 3.36458e-16)
(1.00386 -0.00423239 1.9441e-18)
(1.00458 -0.00375429 -5.86456e-16)
(1.00522 -0.00314931 -3.98858e-16)
(1.00571 -0.0024216 2.71585e-16)