1.275 	2.15223e-18 	-2.76991e-20 	-0.0344263 	-0.000436864 	-1.92171e-22
1.825 	2.15223e-18 	-1.39322e-20 	-0.00939746 	-0.00276538 	1.70264e-21
2.375 	2.15223e-18 	-2.66896e-23 	0.115496 	-0.00325669 	-7.10363e-22
