1.45 	0 	0 	-0.290476
2.35 	0 	0 	-0.126318
