1.45 	0 	0 	-0.295146
2.35 	0 	0 	-0.130026
