1.275 	2.15223e-18 	-2.76991e-20 	-0.0328379 	-0.000498307 	-2.0224e-22
1.825 	2.15223e-18 	-1.39322e-20 	-0.00723786 	-0.0028952 	1.81361e-21
2.375 	2.15223e-18 	-2.66896e-23 	0.123032 	-0.00346155 	-7.55207e-22
