/*--------------------------------*- C++ -*----------------------------------*\
  =========                 |
  \\      /  F ield         | OpenFOAM: The Open Source CFD Toolbox
   \\    /   O peration     | Website:  https://openfoam.org
    \\  /    A nd           | Version:  6.0
     \\/     M anipulation  |
\*---------------------------------------------------------------------------*/
FoamFile
{
    version     2.0;
    format      ascii;
    class       volVectorField;
    location    "7.6";
    object      U;
}
// * * * * * * * * * * * * * * * * * * * * * * * * * * * * * * * * * * * * * //

dimensions      [0 1 -1 0 0 0 0];

internalField   nonuniform List<vector> 
34500
(
(0.999996 4.20508e-06 -4.6341e-17)
(0.999969 -8.37704e-06 -8.1366e-18)
(0.999919 -3.3469e-05 1.42231e-16)
(0.999852 -7.69251e-05 -1.07661e-16)
(0.999777 -0.000141863 3.3552e-17)
(0.999707 -0.000227507 -1.01465e-16)
(0.99965 -0.000329468 -1.00977e-16)
(0.999618 -0.000438577 8.65276e-17)
(0.999611 -0.000547029 1.07229e-16)
(0.999632 -0.000645805 -6.82824e-16)
(0.999678 -0.000728977 -1.03974e-15)
(0.999743 -0.000797906 1.26699e-16)
(0.99982 -0.000836299 4.33535e-16)
(0.999983 -0.000928987 -2.0689e-16)
(0.998555 -0.00158599 7.6018e-17)
(0.999992 1.51497e-05 3.24538e-17)
(0.999942 -1.62177e-05 9.76476e-17)
(0.999851 -6.92237e-05 7.17588e-17)
(0.999731 -0.000155167 -3.02194e-16)
(0.999599 -0.000279788 -5.05846e-16)
(0.999475 -0.000441329 -5.50361e-17)
(0.99938 -0.00063054 2.55481e-16)
(0.999328 -0.000829758 -6.77116e-16)
(0.999325 -0.00102426 -1.78576e-16)
(0.999373 -0.00119837 6.81121e-16)
(0.999464 -0.00134057 1.26129e-15)
(0.999592 -0.00145287 -6.28527e-16)
(0.999726 -0.00150344 -9.82899e-16)
(1.0001 -0.00159818 -3.94014e-16)
(0.998537 -0.00221496 5.18919e-16)
(0.999989 2.69707e-05 1.04699e-17)
(0.999945 -1.8678e-05 -1.2293e-16)
(0.999867 -8.20359e-05 -1.25171e-16)
(0.999765 -0.000173647 4.55644e-16)
(0.999654 -0.000298325 -2.86094e-17)
(0.999553 -0.00045454 -1.63989e-16)
(0.999477 -0.000632537 9.77986e-17)
(0.999443 -0.000815631 3.84473e-16)
(0.999452 -0.00098921 2.4006e-19)
(0.999507 -0.00114027 -3.92711e-16)
(0.999601 -0.00125801 -7.27426e-16)
(0.99973 -0.0013453 4.13213e-16)
(0.999839 -0.00137378 2.24461e-16)
(1.00025 -0.00140814 1.64116e-16)
(0.999254 -0.00161827 -2.43714e-16)
(0.999985 3.90532e-05 -1.73585e-17)
(0.999948 -2.13803e-05 -9.02456e-18)
(0.999887 -9.48655e-05 4.8322e-17)
(0.999807 -0.000190711 -3.05365e-16)
(0.999724 -0.000312382 3.72174e-16)
(0.999648 -0.000458948 3.29862e-16)
(0.999595 -0.00062092 -3.99356e-16)
(0.999576 -0.000784375 -4.19742e-16)
(0.999594 -0.000935293 4.34748e-16)
(0.999653 -0.00106416 -4.70178e-16)
(0.999742 -0.0011614 -2.44192e-16)
(0.999866 -0.00123172 -3.84859e-16)
(0.999947 -0.001256 5.41419e-16)
(1.00032 -0.00126329 -4.79127e-17)
(0.999701 -0.00138758 2.14204e-17)
(0.999978 5.15185e-05 -1.70473e-17)
(0.999943 -2.48823e-05 1.53333e-16)
(0.999887 -0.000112659 6.95558e-17)
(0.999816 -0.000221019 1.69743e-16)
(0.999743 -0.0003524 4.67377e-17)
(0.999677 -0.000505999 -1.58203e-16)
(0.999634 -0.000671751 1.02492e-16)
(0.999624 -0.000837349 2.66199e-16)
(0.99965 -0.000987685 -4.17456e-16)
(0.999715 -0.00111474 -2.30801e-16)
(0.99981 -0.00120799 1.0056e-15)
(0.999942 -0.00127305 6.33453e-16)
(1.00002 -0.0012972 -2.89219e-16)
(1.00034 -0.00128435 5.91198e-16)
(0.999944 -0.00137623 -5.86781e-16)
(0.99997 6.44095e-05 1.83561e-17)
(0.999935 -2.80494e-05 -9.48209e-17)
(0.999881 -0.000131274 -1.86344e-16)
(0.999813 -0.000254504 -5.29328e-17)
(0.999746 -0.000399026 1.09413e-16)
(0.999688 -0.000563558 -1.0881e-16)
(0.999654 -0.000737147 1.48124e-16)
(0.999652 -0.000908512 1.31135e-16)
(0.999687 -0.00106144 2.90862e-16)
(0.999762 -0.00118862 -1.00163e-16)
(0.999867 -0.0012782 2.85166e-18)
(1.00001 -0.00133539 -3.88814e-16)
(1.00009 -0.00135291 1.82863e-17)
(1.00037 -0.00131512 -4.681e-16)
(1.00011 -0.00133638 7.40933e-17)
(0.999961 7.75448e-05 3.25618e-18)
(0.999926 -3.06389e-05 -3.55916e-17)
(0.999875 -0.000148746 -2.90201e-17)
(0.999813 -0.000285635 1.75731e-16)
(0.999756 -0.000441249 -2.20426e-16)
(0.999708 -0.000613478 2.75398e-16)
(0.999686 -0.000790751 -6.19056e-16)
(0.999695 -0.000962854 -3.69701e-16)
(0.999741 -0.00111355 -1.51522e-16)
(0.999825 -0.00123662 6.70929e-16)
(0.999937 -0.00131987 -7.67689e-16)
(1.00009 -0.00136778 2.97761e-16)
(1.00018 -0.00137943 4.55605e-16)
(1.00041 -0.00132393 -9.57254e-17)
(1.00024 -0.00129576 -1.2064e-16)
(0.99995 9.07246e-05 1.51196e-17)
(0.999917 -3.30237e-05 3.22899e-17)
(0.99987 -0.000165809 2.50294e-17)
(0.999815 -0.000315918 -1.50859e-16)
(0.999767 -0.000481992 3.28825e-16)
(0.999731 -0.00066099 -1.39562e-16)
(0.999721 -0.000840944 2.01488e-16)
(0.999742 -0.00101257 -1.46215e-16)
(0.999798 -0.00116037 3.9739e-16)
(0.99989 -0.0012794 1.77653e-16)
(1.00001 -0.00135797 2.44589e-16)
(1.00017 -0.00139969 -5.64671e-17)
(1.00027 -0.00140945 -5.04065e-16)
(1.00047 -0.001345 1.13705e-15)
(1.00035 -0.00128821 1.86404e-16)
(0.999938 0.00010382 -1.12183e-17)
(0.999905 -3.54422e-05 9.89633e-17)
(0.999862 -0.000183147 1.508e-16)
(0.999813 -0.000347023 1.11912e-16)
(0.999773 -0.000524593 -4.8861e-16)
(0.999747 -0.000711886 1.40939e-16)
(0.999748 -0.000896575 3.20632e-16)
(0.99978 -0.00106989 7.72239e-16)
(0.999846 -0.00121716 -3.85253e-16)
(0.999948 -0.00133445 9.00019e-17)
(1.00007 -0.00141073 4.48809e-16)
(1.00024 -0.00144831 -3.23505e-16)
(1.00035 -0.00145594 -1.53899e-16)
(1.00054 -0.00138322 -3.80495e-16)
(1.00046 -0.00129376 8.39828e-17)
(0.999924 0.000116748 4.06936e-17)
(0.999892 -3.7919e-05 -8.97436e-17)
(0.999852 -0.000200659 8.85267e-18)
(0.999807 -0.000378656 -1.10174e-16)
(0.999774 -0.000568458 4.10593e-16)
(0.999757 -0.000765276 7.95974e-17)
(0.999768 -0.000956392 2.70184e-16)
(0.99981 -0.00113319 -5.72922e-16)
(0.999887 -0.00128156 4.15745e-17)
(0.999998 -0.00139819 -7.86518e-17)
(1.00013 -0.00147253 -1.396e-16)
(1.00031 -0.0015053 4.41058e-17)
(1.00043 -0.00150724 5.91847e-16)
(1.00061 -0.00142263 -8.03736e-16)
(1.00058 -0.00129483 -2.69237e-16)
(0.999909 0.000129437 -2.6227e-17)
(0.999878 -4.04406e-05 3.52524e-17)
(0.99984 -0.000218061 -1.47529e-16)
(0.999801 -0.000409977 2.49943e-16)
(0.999775 -0.00061185 -3.61543e-16)
(0.999766 -0.000818226 -3.03043e-16)
(0.999787 -0.00101606 -3.388e-16)
(0.999839 -0.0011967 3.91061e-17)
(0.999927 -0.00134636 -8.13901e-17)
(1.00005 -0.00146198 -4.24361e-16)
(1.00019 -0.00153336 -7.20835e-16)
(1.00037 -0.00155958 2.85685e-16)
(1.00052 -0.00155248 -3.28189e-16)
(1.0007 -0.00145347 9.06499e-16)
(1.00071 -0.0012897 5.37066e-17)
(0.999893 0.000141827 -2.45583e-17)
(0.999863 -4.30439e-05 -1.0424e-16)
(0.999828 -0.000235263 1.5074e-16)
(0.999794 -0.000440633 -2.34157e-16)
(0.999776 -0.000653949 7.68678e-17)
(0.999776 -0.000869272 4.54156e-16)
(0.999807 -0.00107332 5.53883e-17)
(0.99987 -0.00125744 -6.73379e-17)
(0.999968 -0.00140792 1.81511e-16)
(1.0001 -0.00152178 -1.56869e-16)
(1.00026 -0.00158908 -9.50429e-17)
(1.00044 -0.00160748 -6.67574e-17)
(1.0006 -0.00158961 -2.87008e-16)
(1.00078 -0.0014762 -6.21094e-16)
(1.00083 -0.00128335 1.24161e-17)
(0.999876 0.000153882 -2.17695e-18)
(0.999846 -4.5776e-05 1.40506e-16)
(0.999815 -0.000252326 -2.21525e-16)
(0.999787 -0.000470686 8.34079e-17)
(0.999777 -0.000694789 -9.35603e-17)
(0.999787 -0.000918315 -1.54753e-16)
(0.999828 -0.00112789 -3.88924e-17)
(0.999902 -0.00131491 3.65014e-16)
(1.00001 -0.00146568 -6.30164e-16)
(1.00016 -0.00157719 4.20199e-16)
(1.00032 -0.00163971 2.20465e-16)
(1.00052 -0.00164982 1.84017e-16)
(1.00069 -0.001621 7.49236e-16)
(1.00087 -0.00149486 7.29757e-16)
(1.00096 -0.00128023 5.48432e-16)
(0.999858 0.000165588 8.30443e-18)
(0.999828 -4.86762e-05 5.28799e-17)
(0.999801 -0.000269338 1.76069e-16)
(0.99978 -0.000500336 5.577e-17)
(0.999779 -0.000734724 1.70641e-16)
(0.999799 -0.000965849 1.68051e-16)
(0.999851 -0.00118033 -1.18471e-17)
(0.999937 -0.00136974 4.92904e-17)
(1.00006 -0.00152043 9.37616e-16)
(1.00021 -0.00162931 -1.13894e-16)
(1.00039 -0.00168697 5.42072e-16)
(1.00059 -0.00168921 -7.38872e-16)
(1.00077 -0.00165036 1.36928e-16)
(1.00096 -0.00151402 -1.34434e-15)
(1.00107 -0.00128392 -6.16292e-16)
(0.999838 0.000176959 9.94113e-18)
(0.99981 -5.17572e-05 -1.17689e-16)
(0.999786 -0.000286384 1.54796e-16)
(0.999772 -0.000529808 -2.24106e-16)
(0.99978 -0.000774218 1.56836e-16)
(0.99981 -0.00101261 2.07158e-17)
(0.999874 -0.00123168 1.95005e-16)
(0.999972 -0.00142322 -2.59984e-16)
(1.0001 -0.00157375 -8.38943e-16)
(1.00027 -0.00168016 2.49231e-16)
(1.00046 -0.00173342 -5.60102e-16)
(1.00067 -0.00172881 1.12807e-16)
(1.00086 -0.00168135 -4.90153e-16)
(1.00105 -0.0015372 2.65626e-16)
(1.00118 -0.00129553 -1.08475e-16)
(0.999818 0.000188024 3.3243e-17)
(0.99979 -5.50203e-05 7.18908e-17)
(0.99977 -0.000303527 -3.58967e-16)
(0.999762 -0.000559322 2.88383e-16)
(0.999779 -0.000813759 -2.7995e-16)
(0.999821 -0.00105946 -3.72953e-16)
(0.999896 -0.00128318 -3.82905e-16)
(1.00001 -0.00147702 3.37561e-16)
(1.00015 -0.00162768 7.18772e-16)
(1.00033 -0.00173213 1.6299e-16)
(1.00052 -0.00178178 9.46912e-17)
(1.00074 -0.00177152 7.00775e-17)
(1.00095 -0.00171663 -7.32789e-16)
(1.00114 -0.00156603 6.43861e-17)
(1.00128 -0.00131391 6.32523e-16)
(0.999796 0.000198834 -8.96719e-17)
(0.999768 -5.84428e-05 -9.24016e-17)
(0.999753 -0.000320801 3.42864e-17)
(0.999751 -0.00058903 -2.64338e-16)
(0.999777 -0.000853722 -1.79648e-17)
(0.999829 -0.00110708 4.81617e-16)
(0.999916 -0.00133591 5.50674e-17)
(1.00004 -0.00153253 3.04038e-16)
(1.00019 -0.00168391 -6.02761e-16)
(1.00038 -0.00178705 -3.09608e-16)
(1.00059 -0.00183382 4.44496e-16)
(1.00082 -0.00181873 -1.49027e-16)
(1.00103 -0.00175682 4.83598e-16)
(1.00123 -0.00159972 7.49335e-16)
(1.00139 -0.00133602 -5.98235e-17)
(0.999774 0.000209449 2.80921e-17)
(0.999745 -6.19933e-05 1.14761e-17)
(0.999733 -0.000338198 1.15622e-16)
(0.999738 -0.000618979 2.25901e-18)
(0.999772 -0.000894254 9.88574e-17)
(0.999834 -0.00115579 -2.89608e-16)
(0.999933 -0.00139037 5.98162e-16)
(1.00007 -0.00159043 -1.53461e-16)
(1.00023 -0.00174315 6.52348e-16)
(1.00044 -0.00184551 -3.41251e-16)
(1.00065 -0.00188978 -5.43332e-16)
(1.00089 -0.00187005 5.24373e-16)
(1.00111 -0.00180068 -8.84068e-16)
(1.00133 -0.00163596 -1.30203e-15)
(1.00149 -0.0013589 -3.29428e-16)
(0.99975 0.00021994 3.12776e-18)
(0.999721 -6.56244e-05 1.94994e-17)
(0.999712 -0.000355674 -3.12155e-17)
(0.999723 -0.00064911 1.58662e-16)
(0.999765 -0.000935264 1.08815e-16)
(0.999837 -0.00120545 -4.26674e-17)
(0.999947 -0.00144639 -3.6055e-16)
(1.00009 -0.00165048 -3.47543e-16)
(1.00027 -0.00180502 -2.34902e-16)
(1.00049 -0.00190684 4.3284e-16)
(1.00072 -0.00194852 3.35361e-16)
(1.00096 -0.00192374 -4.93042e-16)
(1.0012 -0.00184595 1.09518e-15)
(1.00142 -0.00167214 1.37194e-15)
(1.0016 -0.0013805 4.63454e-17)
(0.999725 0.000230373 3.57652e-17)
(0.999696 -6.92937e-05 -4.75998e-17)
(0.99969 -0.000373169 2.29438e-16)
(0.999706 -0.000679305 -4.56934e-17)
(0.999756 -0.000976512 -1.74385e-16)
(0.999838 -0.00125566 7.39259e-17)
(0.99996 -0.00150336 -1.29687e-16)
(1.00012 -0.00171184 2.93432e-16)
(1.00031 -0.0018684 7.7129e-17)
(1.00054 -0.00196962 5.39137e-17)
(1.00078 -0.00200829 -2.57196e-16)
(1.00104 -0.00197776 3.41384e-16)
(1.00128 -0.00189058 1.73988e-16)
(1.00151 -0.0017066 1.55415e-16)
(1.00171 -0.00140055 3.93622e-16)
(0.999699 0.00024082 -1.83864e-17)
(0.999669 -7.29577e-05 2.72483e-17)
(0.999666 -0.00039063 -3.71917e-16)
(0.999688 -0.000709446 -2.37934e-16)
(0.999746 -0.00101775 3.29288e-16)
(0.999838 -0.00130596 -8.91401e-17)
(0.999971 -0.00156057 5.20674e-16)
(1.00014 -0.00177353 -1.41355e-16)
(1.00035 -0.00193205 -7.5087e-18)
(1.00059 -0.0020324 -1.4992e-16)
(1.00084 -0.00206754 3.84917e-16)
(1.00111 -0.00203062 -2.42593e-16)
(1.00137 -0.00193351 -7.97399e-16)
(1.00161 -0.00173904 -1.8975e-16)
(1.00182 -0.00141989 -4.49622e-16)
(0.999671 0.000251338 2.47508e-17)
(0.999641 -7.65883e-05 1.12576e-16)
(0.999641 -0.000408029 3.35213e-16)
(0.999669 -0.00073947 2.60145e-16)
(0.999735 -0.0010588 -3.2066e-17)
(0.999838 -0.00135603 -1.30249e-16)
(0.999982 -0.00161749 -5.76406e-16)
(1.00017 -0.00183482 -6.70112e-17)
(1.00039 -0.00199513 -3.42314e-16)
(1.00064 -0.00209433 1.10858e-16)
(1.0009 -0.00212555 -7.0552e-16)
(1.00118 -0.00208196 3.403e-16)
(1.00145 -0.00197496 1.14874e-15)
(1.0017 -0.00177047 -8.85364e-16)
(1.00193 -0.00144024 5.24137e-16)
(0.999642 0.000261981 -1.99576e-17)
(0.999611 -8.01602e-05 -1.58398e-16)
(0.999615 -0.000425364 -1.91851e-16)
(0.999649 -0.000769385 -9.56807e-17)
(0.999724 -0.00109968 -6.12742e-17)
(0.999837 -0.00140581 8.41153e-17)
(0.999994 -0.00167399 -3.22079e-17)
(1.00019 -0.00189553 -4.42357e-16)
(1.00042 -0.00205746 -1.30186e-16)
(1.00069 -0.00215534 -3.27782e-17)
(1.00097 -0.00218256 6.42158e-16)
(1.00126 -0.00213242 1.07389e-16)
(1.00154 -0.00201607 -9.55072e-16)
(1.0018 -0.00180247 5.06637e-16)
(1.00203 -0.0014629 -1.01457e-16)
(0.999612 0.000272792 1.80283e-17)
(0.99958 -8.36621e-05 9.31331e-17)
(0.999587 -0.000442658 9.23378e-17)
(0.999628 -0.000799269 1.79565e-16)
(0.999712 -0.00114052 -9.78279e-17)
(0.999836 -0.0014555 -2.75141e-17)
(1 -0.00173032 1.98784e-16)
(1.00021 -0.001956 2.97015e-16)
(1.00046 -0.00211951 -2.13982e-17)
(1.00074 -0.00221613 -3.5851e-16)
(1.00103 -0.00223953 -2.75549e-16)
(1.00134 -0.00218328 -4.84297e-16)
(1.00163 -0.00205833 2.03187e-17)
(1.00189 -0.00183648 2.62326e-16)
(1.00214 -0.00148864 -1.58602e-16)
(0.99958 0.000283806 -9.63964e-18)
(0.999548 -8.708e-05 -5.51137e-17)
(0.999559 -0.000459945 1.40232e-16)
(0.999606 -0.000829231 1.47058e-17)
(0.999699 -0.00118153 -1.24531e-16)
(0.999834 -0.00150546 1.00415e-16)
(1.00002 -0.001787 -4.7964e-17)
(1.00024 -0.00201688 2.7385e-16)
(1.0005 -0.00218209 5.05937e-16)
(1.00079 -0.00227768 7.85637e-17)
(1.0011 -0.00229762 2.37784e-16)
(1.00141 -0.00223578 2.41992e-16)
(1.00171 -0.00210283 5.97251e-17)
(1.00199 -0.00187316 -5.39845e-16)
(1.00224 -0.00151686 1.30751e-16)
(0.999546 0.000295045 1.29124e-17)
(0.999515 -9.04079e-05 1.16079e-17)
(0.999528 -0.000477256 -2.86489e-16)
(0.999582 -0.000859377 -1.25149e-16)
(0.999684 -0.00122295 1.75937e-16)
(0.99983 -0.00155606 -2.74614e-17)
(1.00002 -0.00184455 1.83647e-16)
(1.00026 -0.00207887 -2.43898e-16)
(1.00054 -0.00224604 1.39016e-16)
(1.00084 -0.00234091 1.15609e-16)
(1.00116 -0.00235773 1.2201e-16)
(1.00149 -0.00229066 1.55229e-16)
(1.0018 -0.00214996 2.15727e-16)
(1.00209 -0.00191236 3.03515e-17)
(1.00234 -0.00154685 7.69086e-17)
(0.999511 0.000306527 -3.97282e-17)
(0.99948 -9.3633e-05 1.05116e-16)
(0.999497 -0.000494609 1.64496e-16)
(0.999557 -0.000889777 -1.05289e-16)
(0.999667 -0.00126492 -6.84445e-17)
(0.999825 -0.00160756 3.8953e-17)
(1.00003 -0.00190335 -2.00069e-16)
(1.00028 -0.00214243 -1.30896e-16)
(1.00057 -0.00231185 -1.71915e-16)
(1.00089 -0.00240626 2.73196e-16)
(1.00122 -0.00242015 -3.78945e-16)
(1.00156 -0.00234792 2.95918e-16)
(1.00188 -0.00219932 1.4489e-16)
(1.00218 -0.00195321 5.4198e-16)
(1.00245 -0.00157731 -4.95427e-16)
(0.999474 0.000318256 1.67638e-17)
(0.999444 -9.67492e-05 -7.91184e-17)
(0.999464 -0.000512006 5.79245e-17)
(0.999529 -0.000920448 1.28104e-16)
(0.999649 -0.00130748 -8.88057e-17)
(0.999817 -0.00166002 -1.50071e-16)
(1.00004 -0.00196349 -7.10463e-17)
(1.0003 -0.00220765 9.78982e-17)
(1.0006 -0.00237956 -4.47752e-16)
(1.00094 -0.00247365 6.60541e-17)
(1.00129 -0.00248459 2.51781e-16)
(1.00164 -0.00240698 -7.03538e-16)
(1.00197 -0.00225005 1.42007e-16)
(1.00228 -0.00199467 2.17352e-17)
(1.00255 -0.00160727 3.65323e-16)
(0.999436 0.000330233 -6.37301e-18)
(0.999406 -9.97466e-05 9.69674e-17)
(0.999429 -0.000529436 -9.36773e-17)
(0.999501 -0.000951362 -5.81383e-17)
(0.999629 -0.00135056 -9.27156e-17)
(0.999808 -0.00171332 -4.90256e-17)
(1.00004 -0.00202479 -1.05699e-16)
(1.00032 -0.00227427 7.54561e-17)
(1.00064 -0.00244879 2.90178e-17)
(1.00098 -0.00254254 -3.10005e-16)
(1.00135 -0.00255031 -3.69751e-16)
(1.00171 -0.00246692 4.10077e-16)
(1.00206 -0.00230116 -3.57831e-16)
(1.00238 -0.00203587 -1.13875e-16)
(1.00266 -0.00163656 -1.11915e-17)
(0.999396 0.000342445 -1.92844e-17)
(0.999367 -0.000102627 -4.47944e-17)
(0.999393 -0.000546887 3.16352e-17)
(0.99947 -0.000982469 2.25408e-16)
(0.999607 -0.00139404 3.76399e-16)
(0.999798 -0.00176725 3.07253e-16)
(1.00004 -0.0020869 3.35659e-16)
(1.00034 -0.00234183 -2.14113e-16)
(1.00067 -0.00251897 7.06441e-20)
(1.00103 -0.00261224 2.32157e-16)
(1.00141 -0.00261656 4.57082e-17)
(1.00178 -0.002527 2.51969e-16)
(1.00214 -0.00235205 2.02409e-16)
(1.00247 -0.00207651 -5.30025e-16)
(1.00277 -0.00166542 -3.47453e-16)
(0.999355 0.000354876 9.92205e-18)
(0.999326 -0.000105392 -8.09616e-17)
(0.999355 -0.00056435 -1.61935e-16)
(0.999439 -0.00101372 -1.5894e-16)
(0.999584 -0.00143779 1.46058e-17)
(0.999786 -0.00182157 -1.73463e-16)
(1.00004 -0.0021495 -3.77639e-16)
(1.00035 -0.00240988 2.88203e-16)
(1.0007 -0.00258955 2.34366e-16)
(1.00108 -0.00268217 -5.16687e-16)
(1.00147 -0.00268279 4.23755e-16)
(1.00186 -0.00258681 -3.08839e-16)
(1.00223 -0.00240256 -1.42311e-16)
(1.00257 -0.0021168 -1.24358e-16)
(1.00287 -0.00169442 1.48035e-16)
(0.999312 0.0003675 3.77695e-17)
(0.999284 -0.000108058 1.73721e-17)
(0.999316 -0.000581834 8.75838e-17)
(0.999406 -0.0010451 4.06807e-17)
(0.99956 -0.00148174 4.7856e-17)
(0.999773 -0.00187612 3e-16)
(1.00005 -0.00221233 -1.35534e-16)
(1.00037 -0.00247813 1.48082e-16)
(1.00073 -0.00266024 8.50117e-17)
(1.00112 -0.00275209 5.92387e-17)
(1.00153 -0.0027489 1.97296e-16)
(1.00193 -0.00264645 -4.2054e-17)
(1.00232 -0.00245305 9.34361e-18)
(1.00267 -0.00215735 8.6743e-16)
(1.00298 -0.00172432 2.75458e-18)
(0.999268 0.000380294 -3.66607e-17)
(0.999241 -0.000110642 -1.26604e-17)
(0.999276 -0.000599361 5.72614e-17)
(0.999372 -0.00107663 -1.74571e-16)
(0.999535 -0.00152589 -2.79588e-16)
(0.99976 -0.0019309 -2.67857e-16)
(1.00005 -0.00227536 2.26928e-16)
(1.00038 -0.00254653 -8.29872e-17)
(1.00076 -0.00273104 9.6746e-18)
(1.00117 -0.00282211 -5.00822e-18)
(1.00159 -0.00281514 -2.7253e-16)
(1.00201 -0.00270635 -2.46233e-16)
(1.0024 -0.00250412 -1.58729e-16)
(1.00277 -0.00219879 2.40682e-17)
(1.00308 -0.00175549 -5.4228e-17)
(0.999223 0.000393226 -1.83023e-17)
(0.999196 -0.000113172 4.84347e-17)
(0.999234 -0.000616971 4.76495e-17)
(0.999337 -0.00110835 7.75351e-17)
(0.999509 -0.00157033 1.06039e-16)
(0.999746 -0.00198599 1.67551e-18)
(1.00005 -0.00233872 2.26822e-16)
(1.0004 -0.00261528 -5.05701e-16)
(1.00079 -0.00280222 2.57834e-16)
(1.00122 -0.00289261 2.62916e-16)
(1.00165 -0.00288202 -3.76053e-16)
(1.00208 -0.00276714 7.02123e-16)
(1.00249 -0.00255637 3.69476e-16)
(1.00286 -0.00224166 -6.88097e-16)
(1.00319 -0.00178816 -2.04481e-16)
(0.999176 0.000406274 3.78479e-17)
(0.99915 -0.000115674 2.93857e-17)
(0.999191 -0.000634704 4.5882e-18)
(0.9993 -0.00114035 -3.47573e-17)
(0.999482 -0.00161515 2.01597e-17)
(0.999731 -0.00204157 2.84414e-16)
(1.00004 -0.00240266 -4.58397e-17)
(1.00041 -0.0026847 3.24521e-16)
(1.00082 -0.00287419 -4.80163e-17)
(1.00126 -0.00296406 -2.90806e-16)
(1.00171 -0.00295007 6.01604e-16)
(1.00216 -0.0028293 -3.60949e-16)
(1.00258 -0.00261019 -4.88477e-16)
(1.00296 -0.0022861 2.06372e-16)
(1.00329 -0.00182208 3.44642e-16)
(0.999128 0.000419411 -3.14738e-17)
(0.999102 -0.000118176 -1.32671e-17)
(0.999146 -0.000652607 -1.7299e-16)
(0.999262 -0.0011727 -8.45342e-17)
(0.999454 -0.0016605 5.20545e-17)
(0.999715 -0.00209784 -2.87124e-16)
(1.00004 -0.00246744 -8.4394e-17)
(1.00042 -0.00275513 2.8283e-16)
(1.00085 -0.00294734 -2.39161e-16)
(1.0013 -0.00303688 7.01254e-17)
(1.00177 -0.00301965 -3.34997e-16)
(1.00223 -0.00289311 1.05344e-17)
(1.00266 -0.00266568 2.64393e-16)
(1.00306 -0.002332 1.39039e-16)
(1.0034 -0.00185696 -5.41222e-17)
(0.999079 0.000432621 3.0025e-17)
(0.999052 -0.000120703 -9.74075e-17)
(0.9991 -0.000670714 8.17612e-17)
(0.999223 -0.00120546 5.35082e-17)
(0.999424 -0.00170648 -4.03407e-17)
(0.999696 -0.00215494 -1.72467e-16)
(1.00004 -0.00253326 5.22857e-17)
(1.00044 -0.00282679 -1.29669e-16)
(1.00088 -0.0030219 -2.18592e-16)
(1.00135 -0.00311125 -2.73119e-17)
(1.00183 -0.00309086 -4.84106e-16)
(1.0023 -0.00295854 4.95299e-16)
(1.00275 -0.00272262 3.84847e-17)
(1.00316 -0.002379 -7.93793e-17)
(1.0035 -0.00189228 -7.71428e-18)
(0.999028 0.000445886 -3.68268e-17)
(0.999001 -0.00012328 1.00274e-16)
(0.999053 -0.000689053 -2.3033e-17)
(0.999181 -0.00123867 -2.098e-16)
(0.999392 -0.00175313 -9.99529e-17)
(0.999677 -0.00221296 1.161e-16)
(1.00003 -0.00260021 -1.70335e-16)
(1.00045 -0.00289977 -1.90772e-16)
(1.0009 -0.00309793 3.24607e-16)
(1.00139 -0.00318717 1.12933e-16)
(1.00189 -0.00316361 5.07961e-16)
(1.00238 -0.00302535 -3.81962e-16)
(1.00284 -0.00278072 1.37208e-16)
(1.00325 -0.00242676 -1.54409e-16)
(1.00361 -0.00192791 5.14292e-18)
(0.998976 0.0004592 2.27937e-17)
(0.998949 -0.000125923 -5.8027e-17)
(0.999003 -0.000707636 7.20738e-17)
(0.999138 -0.00127233 3.12599e-16)
(0.999358 -0.00180046 1.3264e-16)
(0.999655 -0.00227187 8.22811e-17)
(1.00002 -0.00266826 3.3832e-16)
(1.00045 -0.002974 1.60755e-16)
(1.00093 -0.0031753 -2.64731e-16)
(1.00143 -0.00326446 4.50986e-16)
(1.00195 -0.00323764 2.50743e-16)
(1.00245 -0.00309325 -2.12166e-16)
(1.00292 -0.00283965 -4.05696e-16)
(1.00335 -0.00247503 -1.57573e-16)
(1.00372 -0.00196371 6.07735e-17)
(0.998923 0.000472552 4.68019e-18)
(0.998895 -0.000128656 -1.23627e-16)
(0.998952 -0.000726475 -9.17388e-17)
(0.999094 -0.00130644 -2.1524e-16)
(0.999323 -0.00184844 3.45701e-17)
(0.999632 -0.00233163 -3.34141e-16)
(1.00002 -0.00273731 -3.59176e-16)
(1.00046 -0.00304936 -1.44456e-16)
(1.00095 -0.00325384 3.07694e-16)
(1.00147 -0.00334288 -3.26778e-16)
(1.002 -0.00331269 1.15517e-16)
(1.00252 -0.00316201 2.14701e-16)
(1.00301 -0.00289926 3.25847e-16)
(1.00345 -0.0025238 1.98754e-16)
(1.00382 -0.00199992 1.68585e-17)
(0.998868 0.000485942 3.28973e-17)
(0.99884 -0.000131491 2.02057e-16)
(0.9989 -0.000745571 9.40336e-17)
(0.999048 -0.00134097 1.80693e-16)
(0.999286 -0.00189702 1.08251e-16)
(0.999608 -0.00239214 4.5632e-17)
(1.00001 -0.00280724 5.26301e-17)
(1.00047 -0.00312568 -1.20899e-16)
(1.00098 -0.00333337 -1.22579e-16)
(1.00151 -0.00342226 1.4362e-17)
(1.00206 -0.00338863 -7.89376e-16)
(1.00259 -0.00323153 -3.08217e-16)
(1.0031 -0.00295955 3.23998e-16)
(1.00355 -0.00257313 -7.22256e-17)
(1.00393 -0.00203659 -1.9984e-16)
(0.998812 0.000499365 -4.42156e-17)
(0.998783 -0.000134449 -1.29482e-16)
(0.998846 -0.000764935 -1.85944e-16)
(0.999 -0.00137593 6.10793e-17)
(0.999248 -0.00194616 -2.05375e-16)
(0.999582 -0.00245335 3.82537e-17)
(0.999995 -0.00287797 -4.73403e-17)
(1.00047 -0.00320288 -8.63909e-18)
(1.001 -0.00341381 -1.46471e-16)
(1.00155 -0.00350255 -7.6785e-17)
(1.00212 -0.00346543 2.71896e-17)
(1.00267 -0.00330188 2.67667e-16)
(1.00318 -0.00302066 -1.34876e-16)
(1.00365 -0.00262325 2.66137e-16)
(1.00404 -0.00207403 9.39729e-17)
(0.998755 0.000512821 2.36317e-17)
(0.998724 -0.000137543 1.24043e-16)
(0.99879 -0.000784573 2.36235e-16)
(0.998951 -0.00141129 -6.82526e-17)
(0.999209 -0.00199585 -1.65572e-17)
(0.999555 -0.00251523 2.50663e-16)
(0.999983 -0.00294949 2.13112e-16)
(1.00048 -0.00328093 -1.45997e-16)
(1.00102 -0.00349516 3.91072e-16)
(1.00159 -0.00358379 3.5472e-16)
(1.00217 -0.00354322 3.7711e-16)
(1.00274 -0.00337323 -1.74113e-17)
(1.00327 -0.00308277 -2.98994e-16)
(1.00375 -0.00267432 -3.1389e-16)
(1.00415 -0.00211226 -3.02204e-17)
(0.998696 0.000526308 -2.02497e-17)
(0.998664 -0.000140791 -6.5504e-17)
(0.998733 -0.000804504 -1.95802e-16)
(0.9989 -0.00144709 1.25998e-16)
(0.999168 -0.00204611 1.20885e-16)
(0.999527 -0.00257781 -1.67833e-16)
(0.99997 -0.00302182 -8.47181e-17)
(1.00048 -0.00335992 8.37709e-18)
(1.00104 -0.00357754 -1.73803e-16)
(1.00163 -0.00366613 -3.03926e-16)
(1.00223 -0.00362218 -5.6065e-16)
(1.00281 -0.00344577 6.05323e-17)
(1.00336 -0.00314608 3.65041e-16)
(1.00385 -0.00272649 3.3039e-16)
(1.00425 -0.00215137 -6.94337e-17)
(0.998635 0.000539827 -1.61141e-17)
(0.998602 -0.000144203 -1.31761e-17)
(0.998674 -0.000824741 1.71345e-16)
(0.998848 -0.00148333 -1.61654e-16)
(0.999126 -0.00209696 -3.19404e-16)
(0.999498 -0.00264114 1.54989e-16)
(0.999956 -0.00309505 8.79365e-17)
(1.00048 -0.00343994 4.07134e-16)
(1.00106 -0.00366107 5.81988e-17)
(1.00167 -0.00374973 2.82982e-16)
(1.00229 -0.00370245 8.40122e-16)
(1.00289 -0.00351964 -2.30425e-16)
(1.00345 -0.00321064 -9.77752e-17)
(1.00395 -0.00277973 -1.15383e-17)
(1.00436 -0.00219117 -2.76529e-17)
(0.998573 0.000553373 4.50659e-17)
(0.998539 -0.000147793 4.9227e-17)
(0.998614 -0.000845306 -1.47365e-16)
(0.998795 -0.00152006 1.36881e-16)
(0.999082 -0.00214847 -9.21184e-17)
(0.999467 -0.00270529 -2.96542e-16)
(0.99994 -0.00316927 1.3029e-17)
(1.00048 -0.00352112 -3.50199e-17)
(1.00108 -0.00374589 -2.15849e-16)
(1.00171 -0.00383472 1.81907e-16)
(1.00234 -0.00378415 -7.84184e-16)
(1.00296 -0.0035949 -1.42682e-17)
(1.00353 -0.00327648 -1.74642e-16)
(1.00405 -0.00283401 3.26022e-17)
(1.00447 -0.00223166 -8.19181e-17)
(0.998508 0.00056695 -1.14999e-17)
(0.998474 -0.000151564 -1.17294e-17)
(0.998552 -0.000866211 2.03915e-17)
(0.998739 -0.00155729 -1.52217e-16)
(0.999037 -0.00220067 -2.73233e-17)
(0.999435 -0.00277033 3.6209e-16)
(0.999923 -0.00324456 -2.6385e-16)
(1.00049 -0.00360354 -3.26752e-16)
(1.0011 -0.00383209 3.49806e-16)
(1.00175 -0.00392116 -3.16435e-16)
(1.0024 -0.00386731 4.00396e-16)
(1.00303 -0.00367154 3.78701e-16)
(1.00362 -0.00334353 2.72676e-16)
(1.00415 -0.00288922 -1.81358e-16)
(1.00458 -0.0022727 -6.17445e-17)
(0.998442 0.000580554 -1.24022e-17)
(0.998407 -0.000155521 -7.19712e-17)
(0.998489 -0.000887471 -9.69042e-17)
(0.998683 -0.00159506 7.1114e-17)
(0.99899 -0.00225359 1.80213e-16)
(0.999401 -0.00283629 6.32007e-17)
(0.999905 -0.00332097 2.45209e-16)
(1.00048 -0.00368725 5.35891e-17)
(1.00112 -0.0039197 -4.59916e-16)
(1.00178 -0.00400907 1.60904e-16)
(1.00245 -0.00395192 -2.27399e-16)
(1.0031 -0.00374951 -1.88832e-16)
(1.00371 -0.00341173 -2.54271e-16)
(1.00425 -0.00294534 4.01623e-17)
(1.00469 -0.00231441 1.49133e-16)
(0.998375 0.000594186 -1.90363e-17)
(0.998339 -0.000159659 3.42803e-17)
(0.998423 -0.000909092 4.13834e-17)
(0.998624 -0.00163338 -1.42536e-16)
(0.998942 -0.00230727 6.95512e-17)
(0.999366 -0.00290321 -2.10997e-16)
(0.999886 -0.00339852 -2.58439e-17)
(1.00048 -0.00377226 3.17248e-16)
(1.00114 -0.0040087 -2.02316e-16)
(1.00182 -0.00409841 -2.67395e-16)
(1.00251 -0.00403792 2.29623e-16)
(1.00318 -0.00382876 -6.81465e-17)
(1.0038 -0.00348104 -7.20481e-16)
(1.00435 -0.00300234 7.34812e-17)
(1.0048 -0.00235669 1.07283e-16)
(0.998305 0.000607845 -9.79841e-18)
(0.998269 -0.000163978 3.34373e-17)
(0.998357 -0.00093108 1.25963e-17)
(0.998564 -0.00167226 1.90009e-17)
(0.998891 -0.00236171 1.20021e-16)
(0.999329 -0.00297109 6.66843e-17)
(0.999865 -0.00347723 -2.196e-16)
(1.00048 -0.00385857 -2.00511e-17)
(1.00115 -0.00409911 6.05977e-16)
(1.00186 -0.00418919 -1.94325e-16)
(1.00257 -0.00412532 -5.71336e-18)
(1.00325 -0.0039093 2.87277e-17)
(1.00389 -0.00355151 2.77435e-17)
(1.00446 -0.00306031 -5.08807e-17)
(1.00491 -0.00239975 1.69348e-17)
(0.998233 0.000621532 2.58208e-17)
(0.998197 -0.000168468 -6.82058e-17)
(0.998288 -0.000953437 -7.79e-17)
(0.998502 -0.00171171 1.49796e-19)
(0.99884 -0.00241694 -1.81227e-16)
(0.999291 -0.00303997 -2.8937e-17)
(0.999843 -0.00355711 4.26407e-17)
(1.00048 -0.0039462 -4.82774e-17)
(1.00117 -0.00419093 -4.10261e-16)
(1.00189 -0.00428141 5.46163e-16)
(1.00262 -0.00421414 -3.1165e-17)
(1.00332 -0.00399118 -5.70557e-17)
(1.00398 -0.0036232 3.36236e-16)
(1.00456 -0.00311932 -3.76945e-16)
(1.00503 -0.00244357 7.95271e-18)
(0.99816 0.000635247 2.73969e-18)
(0.998124 -0.000173124 8.18234e-17)
(0.998217 -0.000976166 2.19879e-16)
(0.998438 -0.00175176 -5.54429e-17)
(0.998786 -0.00247297 1.17777e-16)
(0.999251 -0.00310986 -1.82991e-16)
(0.999819 -0.00363819 -2.19119e-16)
(1.00047 -0.00403519 5.26093e-18)
(1.00118 -0.00428421 2.38868e-16)
(1.00193 -0.00437513 -4.7669e-16)
(1.00268 -0.00430446 1.18719e-16)
(1.0034 -0.0040745 -2.06316e-17)
(1.00407 -0.00369621 2.59746e-16)
(1.00466 -0.00317947 8.02414e-17)
(1.00514 -0.00248829 -1.24853e-16)
(0.998085 0.000648995 1.05282e-18)
(0.998049 -0.000177935 -8.88058e-17)
(0.998145 -0.000999268 -1.25492e-16)
(0.998373 -0.0017924 2.07676e-17)
(0.998732 -0.00252983 -2.1881e-17)
(0.99921 -0.0031808 1.66105e-16)
(0.999795 -0.00372052 3.59763e-16)
(1.00047 -0.00412559 -3.19078e-16)
(1.0012 -0.00437902 3.62902e-16)
(1.00196 -0.00447044 3.20768e-17)
(1.00273 -0.00439636 7.11715e-17)
(1.00347 -0.00415933 -1.37438e-16)
(1.00416 -0.00377059 2.65299e-16)
(1.00477 -0.00324077 1.50309e-16)
(1.00525 -0.00253376 1.96144e-16)
(0.998008 0.000662778 -8.61053e-18)
(0.997971 -0.000182895 8.47116e-17)
(0.998071 -0.00102275 1.54569e-16)
(0.998306 -0.00183367 5.33982e-17)
(0.998675 -0.00258754 1.56164e-16)
(0.999167 -0.00325283 1.19922e-16)
(0.999769 -0.00380415 -3.2307e-16)
(1.00046 -0.00421747 6.47196e-16)
(1.00121 -0.00447543 -2.03562e-16)
(1.002 -0.00456743 -6.77069e-17)
(1.00278 -0.00448993 -2.45037e-16)
(1.00354 -0.00424575 -1.07592e-16)
(1.00425 -0.00384641 -2.95247e-16)
(1.00487 -0.00330325 -1.08748e-16)
(1.00537 -0.00258005 4.71734e-17)
(0.997929 0.000676605 -3.05785e-17)
(0.997893 -0.000187996 -9.05922e-17)
(0.997996 -0.00104661 -1.08402e-17)
(0.998237 -0.00187556 1.06227e-16)
(0.998617 -0.00264615 -1.4212e-16)
(0.999123 -0.003326 -1.04348e-16)
(0.999741 -0.00388914 4.0428e-16)
(1.00045 -0.0043109 -1.20737e-16)
(1.00122 -0.00457351 -5.15751e-16)
(1.00203 -0.00466614 7.09744e-17)
(1.00284 -0.00458521 -1.24411e-16)
(1.00362 -0.00433378 2.30148e-16)
(1.00434 -0.00392364 3.68581e-16)
(1.00498 -0.00336686 3.28241e-16)
(1.00548 -0.00262702 -2.7492e-16)
(0.997849 0.000690479 1.83383e-18)
(0.997812 -0.000193235 -1.74745e-17)
(0.997918 -0.00107087 -7.2328e-17)
(0.998166 -0.00191811 4.50789e-17)
(0.998556 -0.00270568 -7.88026e-17)
(0.999077 -0.00340034 1.34387e-16)
(0.999713 -0.00397555 -1.1617e-16)
(1.00044 -0.00440593 3.98588e-17)
(1.00123 -0.00467332 -1.08097e-16)
(1.00206 -0.00476664 2.74994e-16)
(1.00289 -0.00468224 3.36427e-16)
(1.00369 -0.00442342 1.94394e-18)
(1.00443 -0.00400228 -5.86603e-16)
(1.00508 -0.00343157 -3.99101e-16)
(1.0056 -0.00267476 2.71986e-16)