/*--------------------------------*- C++ -*----------------------------------*\
  =========                 |
  \\      /  F ield         | OpenFOAM: The Open Source CFD Toolbox
   \\    /   O peration     | Website:  https://openfoam.org
    \\  /    A nd           | Version:  6.0
     \\/     M anipulation  |
\*---------------------------------------------------------------------------*/
FoamFile
{
    version     2.0;
    format      ascii;
    class       surfaceScalarField;
    location    "85";
    object      phi;
}
// * * * * * * * * * * * * * * * * * * * * * * * * * * * * * * * * * * * * * //

dimensions      [0 3 -1 0 0 0 0];

internalField   nonuniform List<scalar> 
3880
(
-1.79759e-05
1.79759e-05
1.67519e-11
-5.34934e-05
3.55175e-05
4.66587e-11
-9.53856e-05
4.18921e-05
7.25559e-11
-0.000136588
4.12019e-05
9.35908e-11
-0.000172739
3.61513e-05
1.10092e-10
-0.000201429
2.86898e-05
1.22922e-10
-0.000221725
2.02955e-05
1.33064e-10
-0.000233864
1.21392e-05
1.41453e-10
-0.000239054
5.19012e-06
1.49013e-10
2.22687e-07
1.56925e-10
-0.000239277
-1.72973e-05
3.52732e-05
-5.08449e-05
6.90651e-05
-8.96141e-05
8.06613e-05
-0.000126653
7.82405e-05
-0.000157641
6.71401e-05
-0.000180136
5.11841e-05
-0.000193116
3.32758e-05
-0.000196721
1.57437e-05
-0.000192101
5.70845e-07
-1.06051e-05
-0.000181274
-1.59049e-05
5.11781e-05
-4.54313e-05
9.85915e-05
-7.78676e-05
0.000113098
-0.000106531
0.000106904
-0.000127228
8.78368e-05
-0.000137482
6.14385e-05
-0.000136117
3.19108e-05
-0.000123064
2.69059e-06
-9.93376e-05
-2.31555e-05
-4.29371e-05
-6.70056e-05
-1.37115e-05
6.48896e-05
-3.69706e-05
0.000121851
-5.96374e-05
0.000135764
-7.55363e-05
0.000122803
-8.07742e-05
9.30747e-05
-7.29304e-05
5.35947e-05
-5.06542e-05
9.63465e-06
-1.35607e-05
-3.44029e-05
3.76038e-05
-7.432e-05
-0.000106082
0.000100749
-1.05535e-05
7.54431e-05
-2.49451e-05
0.000136242
-3.39536e-05
0.000144773
-3.22509e-05
0.0001211
-1.65511e-05
7.73749e-05
1.52722e-05
2.17714e-05
6.46288e-05
-3.9722e-05
0.000132281
-0.000102055
0.00021795
-0.000159989
-0.000207772
0.00031964
-6.17988e-06
8.1623e-05
-8.56622e-06
0.000138629
7.20708e-07
0.000135486
2.5746e-05
9.60746e-05
6.87364e-05
3.43845e-05
0.000131056
-4.05478e-05
0.000213788
-0.000122454
0.000317942
-0.00020621
0.000443941
-0.000285987
-0.000353884
0.000590053
-2.78732e-07
8.19017e-05
1.31414e-05
0.000125208
4.63779e-05
0.00010225
0.000101845
4.06076e-05
0.00018019
-4.39604e-05
0.000281299
-0.000141657
0.000405088
-0.000246243
0.000552112
-0.000353234
0.000723456
-0.00045733
-0.000548647
0.000918219
7.43359e-06
7.44681e-05
4.10605e-05
9.15814e-05
0.000104943
3.83669e-05
0.000199675
-5.41246e-05
0.000323965
-0.00016825
0.000475437
-0.00029313
0.000651478
-0.000422284
0.000850382
-0.000552138
0.00107262
-0.000679566
-0.000797582
0.00132155
1.70651e-05
5.7403e-05
7.55048e-05
3.31417e-05
0.000177308
-6.34363e-05
0.000321561
-0.000198377
0.000505314
-0.000352003
0.000723804
-0.000511619
0.000970754
-0.000669235
0.00123935
-0.000820738
0.00152584
-0.000966053
-0.00111588
0.00184414
2.835e-05
2.9053e-05
0.000115559
-5.40677e-05
0.000261832
-0.000209709
0.000465768
-0.000402313
0.000724575
-0.00061081
0.00103379
-0.000820832
0.00138661
-0.00102206
0.00177225
-0.00120638
0.00217501
-0.00136881
-0.00151334
0.00257247
4.04745e-05
-1.14214e-05
0.000158373
-0.000171966
0.000352085
-0.000403421
0.000620346
-0.000670574
0.00096254
-0.000953004
0.00137936
-0.00123765
0.00187406
-0.00151676
0.00245574
-0.00178806
0.00314734
-0.00206041
-0.00237217
0.00400617
5.23589e-05
-6.37803e-05
0.000199953
-0.00031956
0.000438002
-0.000641471
0.000762997
-0.000995568
0.00117226
-0.00136226
0.00166391
-0.00172931
0.0022369
-0.00208975
0.00289037
-0.00244153
0.00361882
-0.00278885
-0.00314077
0.00438742
6.34845e-05
-0.000127265
0.000238249
-0.000494325
0.000514861
-0.000918082
0.000885309
-0.00136602
0.00134183
-0.00181879
0.0018763
-0.00226378
0.00247951
-0.00269297
0.00313969
-0.0031017
0.00383824
-0.00348741
-0.00384397
0.00454145
7.38711e-05
-0.000201136
0.000272987
-0.000693441
0.000582119
-0.00122721
0.000987484
-0.00177138
0.00147521
-0.00230651
0.00203069
-0.00281926
0.00263815
-0.00330042
0.00327987
-0.00374341
0.00393458
-0.00414212
-0.00448535
0.00457596
8.36624e-05
-0.000284798
0.000304312
-0.000914091
0.000640046
-0.00156295
0.00107069
-0.00220202
0.00157622
-0.00281204
0.00213646
-0.0033795
0.0027312
-0.00389517
0.00334036
-0.00435257
0.0039438
-0.00474556
-0.00506324
0.00452169
9.28479e-05
-0.000377646
0.000331966
-0.00115321
0.000688071
-0.00191905
0.00113437
-0.00264832
0.00164513
-0.00332281
0.00219582
-0.00393019
0.00276372
-0.00446307
0.00332854
-0.00491739
0.00387286
-0.00528987
-0.00557321
0.00438283
0.000101184
-0.000478831
0.000355066
-0.00140709
0.000724483
-0.00228847
0.00117614
-0.00309998
0.00167935
-0.00382602
0.00220662
-0.00445746
0.00273444
-0.00499089
0.00324398
-0.00542693
0.00372142
-0.00576731
-0.00601041
0.00415861
0.000108241
-0.000587072
0.000372269
-0.00167112
0.000746862
-0.00266306
0.0011927
-0.00354581
0.00167529
-0.00430861
0.00216569
-0.00494786
0.00264125
-0.00546645
0.0030859
-0.00587158
0.00349007
-0.00617148
-0.00637122
0.00385088
0.000113495
-0.000700567
0.00038206
-0.00193968
0.000752694
-0.0030337
0.00118098
-0.0039741
0.00163007
-0.0047577
0.00207123
-0.00538902
0.00248414
-0.00587935
0.00285648
-0.00624392
0.00318317
-0.00649816
-0.00665403
0.00346597
0.000116416
-0.000816983
0.000383025
-0.00220629
0.000739894
-0.00339057
0.0011389
-0.00437311
0.00154253
-0.00516133
0.00192389
-0.00577038
0.00226619
-0.00622165
0.00256143
-0.00653915
0.00280888
-0.00674562
-0.00685927
0.00301412
0.000116537
-0.00093352
0.00037406
-0.00246382
0.000707145
-0.00372365
0.00106577
-0.00473174
0.00141355
-0.00550911
0.00172689
-0.00608373
0.00199335
-0.00648811
0.00220937
-0.00675517
0.00237813
-0.00691437
-0.00698915
0.002508
0.000113457
-0.00104698
0.000354398
-0.00270476
0.000653936
-0.00402319
0.000962218
-0.00504002
0.00124578
-0.00579267
0.00148546
-0.00632341
0.00167352
-0.00667618
0.0018106
-0.00689226
0.00190304
-0.0070068
-0.00704715
0.00196104
0.000106917
-0.00115389
0.000323755
-0.00292159
0.000580685
-0.00428012
0.000830233
-0.00528957
0.00104343
-0.00600586
0.00120626
-0.00648624
0.0013157
-0.00678562
0.00137601
-0.00695256
0.0013958
-0.00702659
-0.0070376
0.00138624
9.67703e-05
-0.00125066
0.000282254
-0.00310708
0.000488543
-0.00448641
0.000672712
-0.00547373
0.000811537
-0.00614469
0.000896525
-0.00657123
0.000928987
-0.00681808
0.000915981
-0.00693956
0.000867567
-0.00697818
-0.00696516
0.000795132
8.29984e-05
-0.00133366
0.000230411
-0.00325449
0.000379274
-0.00463527
0.000493179
-0.00558764
0.000555546
-0.00620706
0.000563395
-0.00657908
0.000521778
-0.00677647
0.000439705
-0.00685748
0.000327823
-0.0068663
-0.00683459
0.000197251
6.57187e-05
-0.00139938
0.000169111
-0.00335788
0.000255134
-0.00472129
0.000295521
-0.00562803
0.000280842
-0.00619238
0.000213375
-0.00651161
0.000101242
-0.00666433
-4.54338e-05
-0.00671081
-0.00021616
-0.00669557
-0.00665045
-0.000400302
4.52019e-05
-0.00144458
9.96141e-05
-0.0034123
0.00011883
-0.00474051
8.38917e-05
-0.00559309
-7.36637e-06
-0.00610112
-0.000147833
-0.00637114
-0.000326932
-0.00648524
-0.00053409
-0.00650365
-0.000759585
-0.00647008
-0.00641653
-0.0009935
2.18977e-05
-0.00146648
2.35917e-05
-0.00341399
-2.645e-05
-0.00469047
-0.000137246
-0.00548229
-0.000303964
-0.0059344
-0.000515211
-0.00615989
-0.000758416
-0.00624203
-0.00102294
-0.00623912
-0.00130036
-0.00619266
-0.00613332
-0.00158358
-3.52371e-06
-0.00146296
-5.67992e-05
-0.00336071
-0.000176918
-0.00457035
-0.00036296
-0.00529625
-0.000603848
-0.00569351
-0.000884691
-0.00587905
-0.00119126
-0.00593546
-0.00151272
-0.00591766
-0.00184204
-0.00586335
-0.00579383
-0.00218153
-3.01075e-05
-0.00143285
-0.000138738
-0.00325208
-0.000327726
-0.00438136
-0.000586876
-0.0050371
-0.000900368
-0.00538002
-0.0012516
-0.00552782
-0.00162603
-0.00556103
-0.00201326
-0.00553043
-0.00240933
-0.00546728
-0.00540647
-0.00279668
-5.66202e-05
-0.00137623
-0.000218705
-0.00309
-0.000472465
-0.0041276
-0.000799079
-0.00471049
-0.00117942
-0.00499968
-0.00159758
-0.00510967
-0.00204225
-0.00511636
-0.00250616
-0.00506651
-0.00298843
-0.00498502
-0.00486994
-0.00352496
-8.1986e-05
-0.00129424
-0.000293655
-0.00287833
-0.000605383
-0.00381587
-0.000989448
-0.00432642
-0.00142231
-0.00456682
-0.00188591
-0.00464606
-0.00236727
-0.004635
-0.00285739
-0.00457639
-0.0033501
-0.00449231
-0.00439084
-0.0038292
-0.000105567
-0.00118868
-0.00036221
-0.00262169
-0.000725121
-0.00345296
-0.0011583
-0.00389324
-0.00163422
-0.00409089
-0.00213319
-0.0041471
-0.00264174
-0.00412645
-0.00315089
-0.00406724
-0.00365346
-0.00398974
-0.00390445
-0.00413984
-0.000127019
-0.00106166
-0.000423779
-0.00232493
-0.00083157
-0.00304517
-0.00130721
-0.0034176
-0.00182015
-0.00357795
-0.00234994
-0.00361731
-0.00288351
-0.00359288
-0.00341269
-0.00353806
-0.00393191
-0.00347052
-0.00339976
-0.0044366
-0.000146081
-0.000915576
-0.00047793
-0.00199308
-0.00092455
-0.00259855
-0.00143675
-0.0029054
-0.0019818
-0.0030329
-0.00253907
-0.00306004
-0.00309626
-0.00303569
-0.00364639
-0.00298793
-0.00418547
-0.00293145
-0.00287403
-0.0047112
-0.000162504
-0.000753072
-0.000524205
-0.00163138
-0.00100363
-0.00211913
-0.00154671
-0.00236232
-0.00211914
-0.00246047
-0.00270043
-0.00247875
-0.00327912
-0.00245699
-0.0038493
-0.00241775
-0.00440816
-0.00237259
-0.00232762
-0.00495457
-0.000176038
-0.000577033
-0.000562094
-0.00124532
-0.00106815
-0.00161307
-0.00163633
-0.00179414
-0.00223122
-0.00186558
-0.00283257
-0.00187741
-0.00342968
-0.00185989
-0.00401747
-0.00182996
-0.00459391
-0.00179615
-0.00176296
-0.00515857
-0.000186443
-0.00039059
-0.000591077
-0.000840689
-0.00111738
-0.00108677
-0.00170467
-0.00120685
-0.00231678
-0.00125346
-0.0029337
-0.00126049
-0.00354531
-0.00124828
-0.00414715
-0.00122812
-0.00473767
-0.00120563
-0.00118375
-0.00531689
-0.000193509
-0.000197082
-0.00061069
-0.000423507
-0.00115064
-0.00054682
-0.00175082
-0.000606671
-0.0023746
-0.000629677
-0.00300215
-0.00063294
-0.00362375
-0.000626683
-0.00423532
-0.000616547
-0.00483563
-0.000605315
-0.000594447
-0.00542493
-0.000197082
3.6356e-11
-0.000620589
7.74659e-11
-0.00116741
9.90828e-11
-0.00177408
1.09043e-10
-0.00240376
1.12396e-10
-0.0030367
1.12081e-10
-0.00366338
1.09651e-10
-0.00427993
1.0587e-10
-0.00488524
1.01089e-10
9.55061e-11
-0.00547969
-0.000197082
0.000197082
-0.000620589
0.000423507
-0.00116741
0.000546821
-0.00177408
0.000606671
-0.00240376
0.000629678
-0.0030367
0.00063294
-0.00366338
0.000626683
-0.00427993
0.000616547
-0.00488524
0.000605315
0.000594447
-0.00547969
-0.000193509
0.00039059
-0.00061069
0.000840689
-0.00115064
0.00108677
-0.00175082
0.00120685
-0.0023746
0.00125346
-0.00300215
0.00126049
-0.00362375
0.00124828
-0.00423532
0.00122812
-0.00483563
0.00120563
0.00118375
-0.00542493
-0.000186443
0.000577033
-0.000591077
0.00124532
-0.00111738
0.00161308
-0.00170467
0.00179414
-0.00231678
0.00186558
-0.0029337
0.00187741
-0.00354531
0.00185989
-0.00414715
0.00182996
-0.00473767
0.00179615
0.00176296
-0.00531689
-0.000176038
0.000753072
-0.000562094
0.00163138
-0.00106815
0.00211913
-0.00163633
0.00236232
-0.00223122
0.00246047
-0.00283257
0.00247875
-0.00342968
0.00245699
-0.00401747
0.00241775
-0.00459391
0.00237259
0.00232762
-0.00515857
-0.000162504
0.000915576
-0.000524205
0.00199308
-0.00100363
0.00259855
-0.00154671
0.0029054
-0.00211914
0.0030329
-0.00270043
0.00306004
-0.00327912
0.00303569
-0.0038493
0.00298793
-0.00440816
0.00293145
0.00287403
-0.00495457
-0.000146081
0.00106166
-0.00047793
0.00232493
-0.00092455
0.00304517
-0.00143675
0.0034176
-0.0019818
0.00357795
-0.00253907
0.00361731
-0.00309626
0.00359288
-0.00364639
0.00353806
-0.00418547
0.00347052
0.00339976
-0.0047112
-0.000127019
0.00118868
-0.000423779
0.00262169
-0.00083157
0.00345296
-0.00130721
0.00389324
-0.00182015
0.00409089
-0.00234994
0.0041471
-0.00288351
0.00412645
-0.00341269
0.00406724
-0.00393191
0.00398974
0.00390445
-0.0044366
-0.000105567
0.00129424
-0.00036221
0.00287833
-0.000725121
0.00381587
-0.0011583
0.00432642
-0.00163422
0.00456682
-0.00213319
0.00464606
-0.00264174
0.004635
-0.00315089
0.00457639
-0.00365346
0.00449231
0.00439084
-0.00413984
-8.1986e-05
0.00137623
-0.000293655
0.00309
-0.000605383
0.0041276
-0.000989448
0.00471049
-0.00142231
0.00499968
-0.00188591
0.00510967
-0.00236727
0.00511636
-0.00285739
0.00506651
-0.0033501
0.00498502
0.00486994
-0.0038292
-5.66202e-05
0.00143285
-0.000218705
0.00325208
-0.000472465
0.00438136
-0.000799079
0.0050371
-0.00117942
0.00538002
-0.00159758
0.00552782
-0.00204225
0.00556103
-0.00250616
0.00553043
-0.00298843
0.00546728
0.00540647
-0.00352496
-3.01075e-05
0.00146296
-0.000138738
0.00336071
-0.000327726
0.00457035
-0.000586876
0.00529625
-0.000900368
0.00569351
-0.0012516
0.00587905
-0.00162603
0.00593546
-0.00201326
0.00591766
-0.00240933
0.00586335
0.00579383
-0.00279668
-3.52371e-06
0.00146648
-5.67991e-05
0.00341399
-0.000176918
0.00469047
-0.00036296
0.00548229
-0.000603848
0.0059344
-0.000884691
0.00615989
-0.00119126
0.00624203
-0.00151272
0.00623912
-0.00184204
0.00619266
0.00613332
-0.00218153
2.18977e-05
0.00144458
2.35917e-05
0.0034123
-2.645e-05
0.00474051
-0.000137246
0.00559309
-0.000303964
0.00610112
-0.000515211
0.00637114
-0.000758416
0.00648524
-0.00102294
0.00650365
-0.00130036
0.00647008
0.00641653
-0.00158358
4.52019e-05
0.00139938
9.96141e-05
0.00335788
0.00011883
0.00472129
8.38917e-05
0.00562803
-7.36633e-06
0.00619238
-0.000147833
0.00651161
-0.000326932
0.00666433
-0.00053409
0.00671081
-0.000759585
0.00669557
0.00665045
-0.0009935
6.57188e-05
0.00133366
0.000169111
0.00325449
0.000255134
0.00463527
0.000295521
0.00558764
0.000280842
0.00620706
0.000213375
0.00657908
0.000101242
0.00677647
-4.54338e-05
0.00685748
-0.00021616
0.0068663
0.00683459
-0.000400302
8.29984e-05
0.00125066
0.000230411
0.00310708
0.000379274
0.00448641
0.000493179
0.00547373
0.000555546
0.00614469
0.000563395
0.00657123
0.000521778
0.00681808
0.000439705
0.00693956
0.000327823
0.00697818
0.00696516
0.000197251
9.67703e-05
0.00115389
0.000282254
0.00292159
0.000488543
0.00428012
0.000672712
0.00528957
0.000811537
0.00600586
0.000896525
0.00648624
0.000928987
0.00678562
0.000915981
0.00695256
0.000867567
0.00702659
0.0070376
0.000795133
0.000106917
0.00104698
0.000323755
0.00270476
0.000580685
0.00402319
0.000830233
0.00504002
0.00104343
0.00579267
0.00120626
0.00632341
0.0013157
0.00667618
0.00137601
0.00689226
0.0013958
0.0070068
0.00704715
0.00138624
0.000113457
0.00093352
0.000354398
0.00246382
0.000653936
0.00372365
0.000962218
0.00473174
0.00124578
0.00550911
0.00148546
0.00608373
0.00167352
0.00648811
0.0018106
0.00675517
0.00190304
0.00691437
0.00698915
0.00196104
0.000116537
0.000816983
0.00037406
0.00220629
0.000707145
0.00339057
0.00106577
0.00437311
0.00141355
0.00516133
0.00172689
0.00577038
0.00199335
0.00622165
0.00220937
0.00653915
0.00237813
0.00674562
0.00685927
0.002508
0.000116416
0.000700567
0.000383025
0.00193968
0.000739894
0.0030337
0.0011389
0.0039741
0.00154253
0.0047577
0.00192389
0.00538902
0.00226619
0.00587936
0.00256143
0.00624392
0.00280888
0.00649816
0.00665403
0.00301412
0.000113495
0.000587072
0.00038206
0.00167112
0.000752694
0.00266306
0.00118098
0.00354581
0.00163007
0.00430861
0.00207123
0.00494786
0.00248414
0.00546645
0.00285648
0.00587158
0.00318317
0.00617148
0.00637122
0.00346597
0.000108241
0.000478831
0.000372269
0.00140709
0.000746862
0.00228847
0.0011927
0.00309998
0.00167529
0.00382602
0.00216569
0.00445746
0.00264125
0.00499089
0.0030859
0.00542693
0.00349007
0.00576731
0.00601041
0.00385089
0.000101184
0.000377646
0.000355066
0.00115321
0.000724483
0.00191905
0.00117614
0.00264832
0.00167935
0.00332281
0.00220662
0.00393019
0.00273444
0.00446307
0.00324398
0.00491739
0.00372142
0.00528987
0.00557321
0.00415861
9.28479e-05
0.000284798
0.000331966
0.000914091
0.000688071
0.00156295
0.00113437
0.00220202
0.00164513
0.00281204
0.00219582
0.0033795
0.00276372
0.00389517
0.00332854
0.00435257
0.00387286
0.00474556
0.00506324
0.00438283
8.36624e-05
0.000201136
0.000304312
0.000693441
0.000640046
0.00122721
0.00107069
0.00177138
0.00157622
0.00230651
0.00213646
0.00281926
0.0027312
0.00330042
0.00334036
0.00374341
0.0039438
0.00414212
0.00448535
0.00452169
7.38711e-05
0.000127265
0.000272987
0.000494325
0.000582119
0.000918082
0.000987484
0.00136602
0.00147521
0.00181879
0.00203069
0.00226378
0.00263815
0.00269297
0.00327987
0.0031017
0.00393458
0.00348741
0.00384397
0.00457596
6.34845e-05
6.37803e-05
0.000238249
0.00031956
0.000514861
0.000641471
0.000885309
0.000995568
0.00134183
0.00136226
0.0018763
0.00172931
0.00247951
0.00208975
0.00313969
0.00244153
0.00383824
0.00278885
0.00314077
0.00454145
5.23589e-05
1.14214e-05
0.000199953
0.000171966
0.000438002
0.000403421
0.000762997
0.000670574
0.00117226
0.000953004
0.00166391
0.00123765
0.0022369
0.00151676
0.00289037
0.00178806
0.00361882
0.0020604
0.00237217
0.00438742
4.04745e-05
-2.90531e-05
0.000158373
5.40676e-05
0.000352085
0.000209709
0.000620346
0.000402312
0.00096254
0.00061081
0.00137936
0.000820832
0.00187406
0.00102206
0.00245574
0.00120638
0.00314734
0.00136881
0.00151334
0.00400617
2.835e-05
-5.7403e-05
0.000115559
-3.31418e-05
0.000261832
6.34362e-05
0.000465768
0.000198377
0.000724575
0.000352003
0.00103379
0.000511619
0.00138661
0.000669235
0.00177225
0.000820738
0.00217501
0.000966053
0.00111588
0.00257247
1.70651e-05
-7.44681e-05
7.55048e-05
-9.15815e-05
0.000177308
-3.8367e-05
0.000321561
5.41245e-05
0.000505314
0.000168249
0.000723804
0.00029313
0.000970754
0.000422284
0.00123935
0.000552138
0.00152584
0.000679566
0.000797582
0.00184414
7.43359e-06
-8.19017e-05
4.10605e-05
-0.000125208
0.000104943
-0.00010225
0.000199675
-4.06077e-05
0.000323965
4.39602e-05
0.000475437
0.000141657
0.000651478
0.000246243
0.000850382
0.000353234
0.00107262
0.00045733
0.000548647
0.00132155
-2.78734e-07
-8.1623e-05
1.31414e-05
-0.000138629
4.63779e-05
-0.000135486
0.000101845
-9.60747e-05
0.00018019
-3.43847e-05
0.000281299
4.05476e-05
0.000405088
0.000122454
0.000552112
0.000206209
0.000723456
0.000285987
0.000353884
0.000918219
-6.17988e-06
-7.54431e-05
-8.56622e-06
-0.000136242
7.20713e-07
-0.000144773
2.5746e-05
-0.0001211
6.87364e-05
-7.73751e-05
0.000131056
-2.17716e-05
0.000213788
3.97218e-05
0.000317942
0.000102055
0.000443941
0.000159989
0.000207771
0.000590053
-1.05535e-05
-6.48896e-05
-2.49451e-05
-0.000121851
-3.39536e-05
-0.000135765
-3.22509e-05
-0.000122803
-1.65511e-05
-9.30749e-05
1.52722e-05
-5.35949e-05
6.46289e-05
-9.63487e-06
0.000132281
3.44026e-05
0.00021795
7.43197e-05
0.000106082
0.00031964
-1.37115e-05
-5.11781e-05
-3.69706e-05
-9.85916e-05
-5.96374e-05
-0.000113098
-7.55362e-05
-0.000106904
-8.07741e-05
-8.7837e-05
-7.29303e-05
-6.14387e-05
-5.06541e-05
-3.19111e-05
-1.35607e-05
-2.69085e-06
3.76039e-05
2.31552e-05
4.29368e-05
0.000100749
-1.59049e-05
-3.52732e-05
-4.54313e-05
-6.90652e-05
-7.78676e-05
-8.06614e-05
-0.000106531
-7.82406e-05
-0.000127228
-6.71403e-05
-0.000137482
-5.11844e-05
-0.000136117
-3.3276e-05
-0.000123064
-1.5744e-05
-9.93375e-05
-5.7113e-07
1.06048e-05
-6.70055e-05
-1.72973e-05
-1.79759e-05
-5.08449e-05
-3.55176e-05
-8.96141e-05
-4.18923e-05
-0.000126653
-4.1202e-05
-0.000157641
-3.61516e-05
-0.000180136
-2.869e-05
-0.000193116
-2.02958e-05
-0.000196721
-1.21395e-05
-0.000192101
-5.19041e-06
-2.22998e-07
-0.000181273
-1.79759e-05
-5.34934e-05
-9.53856e-05
-0.000136588
-0.000172739
-0.000201429
-0.000221725
-0.000233864
-0.000239054
-0.000239277
0.000183602
-0.000422884
4.74683e-09
0.00132168
-0.00113808
5.00394e-09
0.0024854
-0.00116371
-1.45349e-08
0.0032324
-0.000746979
-1.76773e-08
0.00385212
-0.000619718
-1.77729e-09
0.00428037
-0.000428256
6.72243e-09
0.00462432
-0.000343967
1.98719e-08
0.00485612
-0.000231838
4.04106e-08
0.00506537
-0.000209271
1.27052e-08
-0.000124164
-1.47578e-08
0.000295283
-0.00089944
0.00140408
-0.00224688
0.00254151
-0.00230114
0.00327195
-0.00147741
0.00388013
-0.00122789
0.00430174
-0.000849868
0.00464153
-0.000683763
0.00487155
-0.000461862
0.00508004
-0.000417756
-0.000249391
0.000511484
-0.00147793
0.00156322
-0.00329862
0.00264953
-0.00338746
0.00334809
-0.00217597
0.00393408
-0.00181388
0.00434304
-0.00125883
0.00467498
-0.00101571
0.00490177
-0.000688652
0.00510895
-0.000624935
-0.00037685
0.000818347
-0.00219553
0.0017882
-0.00426847
0.0028014
-0.00440066
0.00345514
-0.00282971
0.00401002
-0.00236876
0.00440151
-0.00165031
0.00472276
-0.00133696
0.00494546
-0.00091135
0.00515125
-0.000830728
-0.000507987
0.0011963
-0.00307219
0.00206373
-0.0051359
0.00298584
-0.00532276
0.0035851
-0.00342897
0.00410237
-0.00288602
0.00447324
-0.00202119
0.00478219
-0.00164591
0.00500078
-0.00112994
0.00520575
-0.0010357
-0.000644617
0.00162129
-0.00410342
0.00237124
-0.00588586
0.00318919
-0.00614071
0.00372831
-0.0039681
0.00420433
-0.00336205
0.00455344
-0.0023703
0.00484992
-0.00194239
0.00506541
-0.00134543
0.00527091
-0.0012412
-0.000789002
0.00206524
-0.00525045
0.00268956
-0.00651018
0.00339625
-0.0068474
0.00387402
-0.00444586
0.00430836
-0.00379639
0.00463673
-0.00269867
0.00492217
-0.00222782
0.00513668
-0.00155994
0.00534493
-0.00144945
-0.000943911
0.00249785
-0.00642675
0.0029956
-0.00700793
0.00359105
-0.00744285
0.00401103
-0.00486584
0.00440659
-0.00419195
0.00471747
-0.00300955
0.00499491
-0.00250527
0.00521171
-0.00177674
0.00542582
-0.00166356
-0.00111262
0.00290153
-0.00748413
0.00327046
-0.00737686
0.00375953
-0.00793193
0.00412889
-0.0052352
0.00449152
-0.00455458
0.00479012
-0.00330814
0.00506413
-0.00277928
0.00528756
-0.00200017
0.00551149
-0.00188749
-0.00129892
0.00328103
-0.0081927
0.00351244
-0.00760827
0.00389085
-0.00831033
0.00422029
-0.00556464
0.00455643
-0.00489072
0.00484975
-0.00360146
0.0051258
-0.00305533
0.00536148
-0.00223585
0.00559946
-0.00212547
-0.00150756
0.0432804
-0.000914604
-0.0505585
0.0390638
-0.00339164
0.0369858
-0.00623231
0.0367996
-0.00537844
0.0366525
-0.00474367
0.0368179
-0.00376686
0.0370079
-0.0032453
0.0372611
-0.00248911
0.0374712
-0.00233554
-0.00179582
0.0523394
0.00331362
-0.0565676
0.0501429
-0.00119519
0.0475495
-0.00363887
0.0460086
-0.00383758
0.0448012
-0.00353621
0.0439751
-0.00294079
0.0433277
-0.00259792
0.0429097
-0.00207107
0.042508
-0.00193385
-0.00160294
0.0539042
0.00452451
-0.0551151
0.052622
8.70834e-05
0.0510056
-0.00202254
0.0496962
-0.00252816
0.0485977
-0.00243763
0.0477379
-0.00208108
0.0469855
-0.00184552
0.0464231
-0.00150858
0.0458666
-0.00137741
-0.00122099
0.0520608
0.0043747
-0.051911
0.0516518
0.000496062
0.0508184
-0.00118914
0.049979
-0.00168869
0.0492358
-0.00169444
0.0486347
-0.00148004
0.0480837
-0.00129443
0.0476475
-0.00107244
0.0472092
-0.000939103
-0.00087124
0.0500075
0.00369131
-0.0493241
0.0498801
0.000623491
0.0494571
-0.000766092
0.0489541
-0.00118579
0.0484826
-0.00122294
0.0480982
-0.00109555
0.0477483
-0.000944541
0.0474636
-0.000787729
0.0471861
-0.000661659
-0.000622364
0.0483083
0.00289064
-0.0475076
0.0483335
0.000598255
0.0480821
-0.000514629
0.0477507
-0.000854414
0.0474259
-0.000898181
0.0471564
-0.00082602
0.0469225
-0.000710662
0.0467305
-0.000595673
0.0465581
-0.000489303
-0.000455288
0.0470996
0.00210095
-0.04631
0.0471935
0.000504374
0.0470189
-0.000339966
0.0467672
-0.000602777
0.0465113
-0.000642302
0.0462896
-0.000604309
0.0461034
-0.000524441
0.0459498
-0.000442068
0.0458226
-0.000362114
-0.000330919
0.0462852
0.00136201
-0.0455462
0.0464294
0.000360119
0.0462959
-0.000206471
0.04608
-0.000386849
0.0458539
-0.000416155
0.0456483
-0.000398798
0.0454744
-0.000350468
0.0453295
-0.000297232
0.0452122
-0.000244819
-0.000220751
0.0457886
0.00066861
-0.0450952
0.0459648
0.00018387
0.0458572
-9.88231e-05
0.0456578
-0.000187505
0.0454442
-0.000202517
0.0452435
-0.000198079
0.0450691
-0.000176121
0.0449224
-0.000150536
0.0448017
-0.000124087
-0.000111612
0.045554
-0.0448854
0.0457378
0.045639
0.0454515
0.045249
0.0450509
0.0448748
0.0447243
0.0446002
0.0567753
0.00230159
-0.0560627
0.0573297
0.00291155
0.0576775
0.0035031
0.0577689
0.00406719
0.0575571
0.00459458
0.0570024
0.00507648
0.0560731
0.00550517
0.0547401
0.00587452
0.0529478
0.00617966
0.00639547
0.0513979
0.0016929
-0.0507892
0.0520516
0.00225785
0.0527363
0.00281843
0.0534339
0.00336956
0.054123
0.00390551
0.0547794
0.00442007
0.0553778
0.0049068
0.055893
0.00535932
0.0563007
0.0057719
0.00612862
0.0480918
0.001218
-0.0476169
0.0486477
0.00170197
0.0492813
0.00218478
0.0499874
0.00266353
0.0507578
0.00313508
0.0515819
0.00359596
0.0524463
0.00404234
0.0533356
0.00447005
0.054233
0.00487456
0.00524644
0.0454945
0.000891392
-0.0451679
0.0459013
0.00129521
0.0463888
0.00169729
0.0469569
0.00209539
0.0476048
0.00248723
0.0483303
0.00287049
0.0491298
0.00324277
0.0499983
0.00360155
0.0509288
0.00394405
0.00426426
0.0439058
0.000651559
-0.043666
0.0442198
0.000981279
0.0446079
0.00130912
0.0450701
0.00163322
0.0456056
0.0019517
0.0462134
0.00226271
0.0468918
0.00256437
0.0476386
0.0028548
0.0484507
0.00313191
0.00339082
0.0428101
0.000469384
-0.0426279
0.0430622
0.000729123
0.0433843
0.000987092
0.0437757
0.00124178
0.0442357
0.00149167
0.0447632
0.00173527
0.0453564
0.00197112
0.0460135
0.00219774
0.0467319
0.00241352
0.00261508
0.0421162
0.000324611
-0.0419714
0.0423279
0.000517451
0.0426061
0.000708875
0.0429502
0.000897734
0.0433589
0.00108288
0.043831
0.00126319
0.0443646
0.00143754
0.0449575
0.00160482
0.0456072
0.00176385
0.00191232
0.0416643
0.000203999
-0.0415437
0.04185
0.000331708
0.0421004
0.00045846
0.0424147
0.000583484
0.0427916
0.000706009
0.0432295
0.000825276
0.0437265
0.000940538
0.0442803
0.00105106
0.0448881
0.00115604
0.00125414
0.0413996
9.81602e-05
-0.0412938
0.0415695
0.000161808
0.041803
0.000224996
0.0420992
0.000287334
0.0424567
0.000348438
0.0428741
0.000407922
0.0433492
0.000465411
0.0438797
0.000520533
0.0444629
0.000572895
0.000621857
0.0412742
-0.041176
0.041436
0.041661
0.0419483
0.0422967
0.0427047
0.0431701
0.0436906
0.0442635
0.0481094
-0.00335374
-0.0475523
0.0488228
-0.00289489
0.0496454
-0.00240622
0.0505376
-0.00188565
0.0514714
-0.00133413
0.0524282
-0.000759594
0.0533899
-0.000166523
0.0543348
0.000441381
0.0552364
0.00105938
0.00168168
0.0479852
-0.00340684
-0.0479321
0.0480815
-0.00299119
0.0482205
-0.00254526
0.0484082
-0.00207329
0.0486505
-0.00157645
0.0489517
-0.0010608
0.0493152
-0.000530087
0.0497433
1.33602e-05
0.0502356
0.000567056
0.00112803
0.046897
-0.00314749
-0.0471564
0.0466931
-0.0027873
0.0465499
-0.00240198
0.0464725
-0.00199591
0.0464672
-0.00157118
0.0465376
-0.0011312
0.046686
-0.00067848
0.0469144
-0.000215033
0.0472244
0.000257059
0.000735536
0.0455818
-0.00277137
-0.0459579
0.0452636
-0.00246906
0.0450067
-0.0021451
0.0448147
-0.00180392
0.0446909
-0.00144742
0.0446378
-0.001078
0.044657
-0.00069777
0.0447507
-0.000308665
0.0449204
8.73011e-05
0.000488037
0.0446599
-0.0023496
-0.0450817
0.044292
-0.00210111
0.0439823
-0.00183548
0.0437342
-0.00155579
0.0435504
-0.00126362
0.0434333
-0.000960849
0.0433847
-0.000649197
0.0434064
-0.000330365
0.0434998
-6.09381e-06
0.000321825
0.0439897
-0.00190031
-0.044439
0.0435923
-0.00170379
0.0432508
-0.00149397
0.0429681
-0.00127309
0.0427469
-0.00104239
0.0425893
-0.00080327
0.0424973
-0.000557122
0.0424722
-0.000305336
0.0425155
-4.93414e-05
0.000209398
0.043559
-0.00143593
-0.0440234
0.043145
-0.00128981
0.042785
-0.00113398
0.0424819
-0.000969928
0.042238
-0.000798571
0.0420557
-0.000620926
0.0419366
-0.000438027
0.0418822
-0.000250929
0.0418936
-6.07125e-05
0.000131512
0.0432802
-0.00096146
-0.0437547
0.0428551
-0.000864765
0.0424828
-0.000761683
0.0421661
-0.000653143
0.0419072
-0.000539751
0.0417085
-0.000422167
0.0415715
-0.000301076
0.0414978
-0.000177181
0.0414883
-5.1206e-05
7.61071e-05
0.0431193
-0.000481536
-0.0435992
0.042688
-0.000433514
0.0423086
-0.000382322
0.0419839
-0.000328399
0.0417162
-0.000272043
0.0415076
-0.000213579
0.0413599
-0.000153343
0.0412744
-9.16862e-05
0.0412521
-2.89676e-05
3.44412e-05
0.0430454
-0.043527
0.0426119
0.0422296
0.0419012
0.0416291
0.0414156
0.0412622
0.0411705
0.0411416
0.0429475
0.000174631
-0.000193169
0.0429914
0.000521277
-0.0005652
0.0430658
0.000872673
-0.000947119
0.0431884
0.001237
-0.00135953
0.043389
0.00161961
-0.00182026
0.0437114
0.00202475
-0.00234711
0.0442142
0.00245453
-0.0029574
0.0449695
0.00291138
-0.00366664
0.0460712
0.00337131
-0.00447303
0.00392367
-0.0054048
0.0429657
0.000137881
0.0430729
0.000414037
0.043254
0.00069155
0.0435194
0.000971606
0.043884
0.00125502
0.0443668
0.00154202
0.0449896
0.00183167
0.0457769
0.00212407
0.0467446
0.00240365
0.00273619
0.0429665
0.000100273
0.0430779
0.000302718
0.0432627
0.000506707
0.0435251
0.000709229
0.0438707
0.000909388
0.0443068
0.00110589
0.0448419
0.00129664
0.045486
0.00147994
0.0462438
0.00164582
0.00182364
0.0429586
7.05598e-05
0.0430476
0.000213752
0.043196
0.000358309
0.0434046
0.000500639
0.0436744
0.000639538
0.0440066
0.000773712
0.0444017
0.000901587
0.0448597
0.00102196
0.0453756
0.00112983
0.00124134
0.0429506
4.88964e-05
0.0430161
0.00014828
0.0431258
0.000248595
0.0432795
0.000346947
0.0434767
0.000442277
0.0437169
0.000533536
0.0439989
0.000619581
0.0443214
0.000699482
0.0446808
0.00077045
0.000840432
0.0429445
3.33083e-05
0.0429918
0.000101021
0.043071
0.000169336
0.0431818
0.000236203
0.0433232
0.000300845
0.0434942
0.000362524
0.0436933
0.000420498
0.0439186
0.000474172
0.044167
0.000522074
0.000568472
0.0429403
2.19177e-05
0.0429749
6.64646e-05
0.0430328
0.000111389
0.0431137
0.000155333
0.0432168
0.000197773
0.0433411
0.00023822
0.0434854
0.000276197
0.0436482
0.000311315
0.0438276
0.000342745
0.000372651
0.0429376
1.32771e-05
0.0429638
4.02499e-05
0.0430077
6.74385e-05
0.043069
9.40338e-05
0.0431471
0.000119722
0.0432411
0.000144211
0.0433501
0.000167226
0.0434728
0.00018854
0.0436079
0.000207719
0.000225867
0.0429359
6.26142e-06
0.0429572
1.89824e-05
0.0429929
3.17945e-05
0.0430426
4.43278e-05
0.0431058