/*--------------------------------*- C++ -*----------------------------------*\
  =========                 |
  \\      /  F ield         | OpenFOAM: The Open Source CFD Toolbox
   \\    /   O peration     | Website:  https://openfoam.org
    \\  /    A nd           | Version:  6.0
     \\/     M anipulation  |
\*---------------------------------------------------------------------------*/
FoamFile
{
    version     2.0;
    format      ascii;
    class       volScalarField;
    location    "0.1";
    object      p;
}
// * * * * * * * * * * * * * * * * * * * * * * * * * * * * * * * * * * * * * //

dimensions      [0 2 -2 0 0 0 0];

internalField   nonuniform List<scalar> 
200
(
2.26358e-08
-0.00242646
-0.00387435
-0.00372731
-0.00212666
0.000828346
0.00512223
0.0107882
0.0178971
0.0265556
0.0369041
0.0490916
0.0631988
0.0790782
0.096096
0.112834
0.126963
0.135655
0.13695
0.132716
0.00241056
-0.000212284
-0.0012918
-0.000946494
0.000531077
0.00318786
0.00712385
0.0124226
0.0191594
0.0274121
0.0372688
0.0488166
0.0620925
0.0769676
0.092934
0.10882
0.122613
0.131677
0.133547
0.128687
0.00362732
0.000151185
-0.00100969
-0.000655822
0.00066414
0.00306918
0.00672651
0.0117378
0.0181603
0.0260314
0.0353943
0.0463157
0.0588772
0.0731081
0.0887934
0.10512
0.120274
0.131227
0.133993
0.127349
0.00185346
-0.00252199
-0.00383464
-0.00348849
-0.00225418
5.11064e-05
0.00362693
0.00855175
0.0148252
0.0224112
0.0312875
0.0414989
0.0532043
0.0666803
0.0821859
0.099558
0.117473
0.132414
0.138049
0.130486
-0.00435684
-0.00929986
-0.0103841
-0.00973474
-0.00828704
-0.0057526
-0.00191486
0.00324453
0.00962859
0.0170914
0.0255111
0.0348781
0.0454037
0.0576241
0.0724037
0.0906229
0.112153
0.133578
0.145838
0.140756
-0.0168426
-0.0214373
-0.021207
-0.0194637
-0.0171853
-0.0138657
-0.00926426
-0.0034416
0.00339268
0.0109721
0.0190625
0.0275748
0.036724
0.047244
0.0605966
0.0789533
0.104192
0.134378
0.158756
0.163586
-0.0386679
-0.0402081
-0.0361217
-0.0317787
-0.0276745
-0.022829
-0.0169138
-0.0100303
-0.00245559
0.00547312
0.013457
0.0213606
0.0294059
0.0384734
0.0505068
0.0688598
0.097734
0.138343
0.181566
0.208655
-0.0769329
-0.066323
-0.053035
-0.0437525
-0.0365892
-0.0296028
-0.022166
-0.0142326
-0.0059933
0.00226589
0.010289
0.0180006
0.0257349
0.0346065
0.0470553
0.0674501
0.102095
0.156571
0.228928
0.299151
-0.153748
-0.0969339
-0.0624724
-0.0465144
-0.0367834
-0.0286489
-0.0208969
-0.0130896
-0.00514479
0.00279101
0.0105507
0.0181693
0.0261619
0.0359634
0.0506287
0.0757839
0.120488
0.19694
0.319327
0.479311
-0.314707
-0.119922
-0.0453975
-0.0279531
-0.0213423
-0.0159868
-0.0108912
-0.00547602
0.00054112
0.00703979
0.0138093
0.0208599
0.0287303
0.0389423
0.0547839
0.0826999
0.135127
0.235452
0.424283
0.736917
)
;

boundaryField
{
    movingWall
    {
        type            zeroGradient;
    }
    fixedWalls
    {
        type            zeroGradient;
    }
    frontAndBack
    {
        type            empty;
    }
}


// ************************************************************************* //
