/*--------------------------------*- C++ -*----------------------------------*\
  =========                 |
  \\      /  F ield         | OpenFOAM: The Open Source CFD Toolbox
   \\    /   O peration     | Website:  https://openfoam.org
    \\  /    A nd           | Version:  6.0
     \\/     M anipulation  |
\*---------------------------------------------------------------------------*/
FoamFile
{
    version     2.0;
    format      ascii;
    class       surfaceScalarField;
    location    "0.1";
    object      phi;
}
// * * * * * * * * * * * * * * * * * * * * * * * * * * * * * * * * * * * * * //

dimensions      [0 3 -1 0 0 0 0];

internalField   nonuniform List<scalar> 
1540
(
7.57692e-09
-7.57705e-09
-1.30162e-09
8.87855e-09
-3.10141e-08
2.97125e-08
-7.62464e-08
4.52323e-08
-1.31337e-07
5.50906e-08
-1.91582e-07
6.02447e-08
-2.53633e-07
6.20506e-08
-3.15378e-07
6.1745e-08
-3.75629e-07
6.0252e-08
-4.33811e-07
5.81816e-08
-4.89713e-07
5.59018e-08
-5.43333e-07
5.36198e-08
-5.94782e-07
5.14494e-08
-6.44233e-07
4.94518e-08
-6.91892e-07
4.76584e-08
-7.37969e-07
4.60777e-08
-7.82662e-07
4.46928e-08
-8.26116e-07
4.34533e-08
-8.68378e-07
4.22627e-08
-9.09343e-07
4.09653e-08
-9.48676e-07
3.93326e-08
-9.85728e-07
3.70523e-08
-1.01945e-06
3.37231e-08
-1.04831e-06
2.88595e-08
-1.07023e-06
2.19143e-08
-1.08255e-06
1.2324e-08
-1.08214e-06
-4.12224e-10
-1.06552e-06
-1.66171e-08
-1.02924e-06
-3.62828e-08
-9.70343e-07
-5.88941e-08
-8.87086e-07
-8.32572e-08
-7.79702e-07
-1.07384e-07
-6.51203e-07
-1.28499e-07
-5.07967e-07
-1.43236e-07
-3.599e-07
-1.48067e-07
-2.19944e-07
-1.39956e-07
-1.02773e-07
-1.17171e-07
-2.27452e-08
-8.00277e-08
9.54629e-09
-3.22913e-08
9.54633e-09
-9.70295e-09
2.126e-09
-5.91623e-08
5.83377e-08
-1.49616e-07
1.20167e-07
-2.72871e-07
1.68488e-07
-4.18255e-07
2.00474e-07
-5.76112e-07
2.18102e-07
-7.38915e-07
2.24853e-07
-9.01405e-07
2.24235e-07
-1.06025e-06
2.19095e-07
-1.21354e-06
2.11472e-07
-1.36035e-06
2.0271e-07
-1.50037e-06
1.93645e-07
-1.6337e-06
1.84779e-07
-1.76065e-06
1.76399e-07
-1.88164e-06
1.68655e-07
-1.99715e-06
1.61587e-07
-2.10758e-06
1.55123e-07
-2.21319e-06
1.49063e-07
-2.31397e-06
1.43043e-07
-2.40951e-06
1.36499e-07
-2.49881e-06
1.28638e-07
-2.58017e-06
1.18412e-07
-2.65096e-06
1.04513e-07
-2.70751e-06
8.54119e-08
-2.74504e-06
5.94378e-08
-2.75766e-06
2.49442e-08
-2.73863e-06
-1.94389e-08
-2.6808e-06
-7.44481e-08
-2.57734e-06
-1.39738e-07
-2.42285e-06
-2.13387e-07
-2.21467e-06
-2.91437e-07
-1.95443e-06
-3.67627e-07
-1.64946e-06
-4.33471e-07
-1.3138e-06
-4.78894e-07
-9.6833e-07
-4.93534e-07
-6.39551e-07
-4.68736e-07
-3.56668e-07
-4.00053e-07
-1.46905e-07
-2.89791e-07
-2.85957e-08
-1.50601e-07
-1.90494e-08
-3.25265e-08
3.46525e-08
-1.29693e-07
1.55504e-07
-2.82885e-07
2.73358e-07
-4.79001e-07
3.64603e-07
-7.03789e-07
4.25263e-07
-9.4449e-07
4.58802e-07
-1.19097e-06
4.71338e-07
-1.43593e-06
4.69193e-07
-1.67452e-06
4.57687e-07
-1.90384e-06
4.40789e-07
-2.12236e-06
4.21233e-07
-2.32952e-06
4.008e-07
-2.52534e-06
3.80604e-07
-2.71025e-06
3.61309e-07
-2.88486e-06
3.43263e-07
-3.04983e-06
3.26561e-07
-3.20576e-06
3.11053e-07
-3.35301e-06
2.96309e-07
-3.49154e-06
2.81574e-07
-3.62075e-06
2.65709e-07
-3.73925e-06
2.47139e-07
-3.84467e-06
2.23822e-07
-3.93341e-06
1.93259e-07
-4.00057e-06
1.52571e-07
-4.03981e-06
9.86747e-08
-4.04346e-06
2.85963e-08
-4.00284e-06
-6.0059e-08
-3.90883e-06
-1.6846e-07
-3.75281e-06
-2.95755e-07
-3.528e-06
-4.38195e-07
-3.2311e-06
-5.88344e-07
-2.86413e-06
-7.34592e-07
-2.43632e-06
-8.61288e-07
-1.96537e-06
-9.49839e-07
-1.47786e-06
-9.81047e-07
-1.00785e-06
-9.38747e-07
-5.93446e-07
-8.14453e-07
-2.71187e-07
-6.12049e-07
-6.89175e-08
-3.52871e-07
-8.79671e-08
-5.48811e-08
8.95337e-08
-1.99488e-07
3.00111e-07
-4.1387e-07
4.87741e-07
-6.78203e-07
6.28936e-07
-9.7416e-07
7.2122e-07
-1.2863e-06
7.70944e-07
-1.60265e-06
7.87683e-07
-1.91458e-06
7.8113e-07
-2.21638e-06
7.59486e-07
-2.50458e-06
7.28981e-07
-2.77735e-06
6.94003e-07
-3.03403e-06
6.57487e-07
-3.27475e-06
6.21317e-07
-3.50007e-06
5.86637e-07
-3.71087e-06
5.54055e-07
-3.90805e-06
5.23744e-07
-4.09245e-06
4.95457e-07
-4.26464e-06
4.68492e-07
-4.4247e-06
4.41636e-07
-4.57207e-06
4.13081e-07
-4.70529e-06
3.80362e-07
-4.82179e-06
3.4032e-07
-4.91766e-06
2.89125e-07
-4.98749e-06
2.22402e-07
-5.02431e-06
1.35497e-07
-5.01965e-06
2.39372e-08
-4.96383e-06
-1.15883e-07
-4.84652e-06
-2.85764e-07
-4.65774e-06
-4.8454e-07
-4.38914e-06
-7.06795e-07
-4.03584e-06
-9.41639e-07
-3.59855e-06
-1.17188e-06
-3.08581e-06
-1.37403e-06
-2.51599e-06
-1.51966e-06
-1.91829e-06
-1.57875e-06
-1.33202e-06
-1.52501e-06
-8.03366e-07
-1.34311e-06
-3.795e-07
-1.03592e-06
-1.01513e-07
-6.30857e-07
-1.8948e-07
-7.52019e-08
1.64736e-07
-2.64703e-07
4.89613e-07
-5.36814e-07
7.59851e-07
-8.64073e-07
9.56194e-07
-1.22352e-06
1.08067e-06
-1.59702e-06
1.14444e-06
-1.97107e-06
1.16173e-06
-2.33624e-06
1.1463e-06
-2.68641e-06
1.10965e-06
-3.01796e-06
1.06053e-06
-3.32911e-06
1.00516e-06
-3.61938e-06
9.47756e-07
-3.88912e-06
8.9106e-07
-4.13924e-06
8.36757e-07
-4.37094e-06
7.8575e-07
-4.58549e-06
7.38298e-07
-4.78409e-06
6.94052e-07
-4.96762e-06
6.52029e-07
-5.13652e-06
6.10534e-07
-5.29052e-06
5.67073e-07
-5.42843e-06
5.18273e-07
-5.54794e-06
4.59835e-07
-5.64539e-06
3.86571e-07
-5.71554e-06
2.92551e-07
-5.75149e-06
1.71446e-07
-5.74464e-06
1.70928e-08
-5.6849e-06
-1.7563e-07
-5.56105e-06
-4.09606e-07
-5.36163e-06
-6.83966e-07
-5.07609e-06
-9.92335e-07
-4.69666e-06
-1.32107e-06
-4.22071e-06
-1.64783e-06
-3.65361e-06
-1.94113e-06
-3.01168e-06
-2.16159e-06
-2.32457e-06
-2.26586e-06
-1.63582e-06
-2.21375e-06
-1.0005e-06
-1.97843e-06
-4.79197e-07
-1.55722e-06
-1.29675e-07
-9.80379e-07
-3.19155e-07
-9.36933e-08
2.58429e-07
-3.24963e-07
7.20882e-07
-6.50664e-07
1.08555e-06
-1.03522e-06
1.34075e-06
-1.45064e-06
1.49608e-06
-1.87598e-06
1.56979e-06
-2.29643e-06
1.58219e-06
-2.70211e-06
1.55198e-06
-3.0869e-06
1.49444e-06
-3.44745e-06
1.42108e-06
-3.78236e-06
1.34007e-06
-4.09157e-06
1.25697e-06
-4.37592e-06
1.17541e-06
-4.63679e-06
1.09762e-06
-4.87585e-06
1.02481e-06
-5.09487e-06
9.57314e-07
-5.2955e-06
8.94682e-07
-5.47912e-06
8.35653e-07
-5.64666e-06
7.78077e-07
-5.7984e-06
7.18813e-07
-5.93376e-06
6.53632e-07
-6.05109e-06
5.77163e-07
-6.14743e-06
4.82906e-07
-6.21827e-06
3.63393e-07
-6.25736e-06
2.1054e-07
-6.25655e-06
1.62835e-08
-6.20575e-06
-2.26432e-07
-6.0931e-06
-5.22254e-07
-5.9055e-06
-8.71568e-07
-5.62957e-06
-1.26826e-06
-5.25339e-06
-1.69725e-06
-4.76902e-06
-2.13219e-06
-4.17611e-06
-2.53405e-06
-3.48609e-06
-2.85161e-06
-2.72656e-06
-3.02539e-06
-1.94406e-06
-2.99625e-06
-1.20344e-06
-2.71905e-06
-5.81905e-07
-2.17876e-06
-1.5814e-07
-1.40414e-06
-4.77295e-07
-1.10957e-07
3.69386e-07
-3.81454e-07
9.91379e-07
-7.56905e-07
1.461e-06
-1.19323e-06
1.77708e-06
-1.65712e-06
1.95998e-06
-2.12488e-06
2.03754e-06
-2.58061e-06
2.03791e-06
-3.01434e-06
1.98571e-06
-3.42039e-06
1.90049e-06
-3.79608e-06
1.79676e-06
-4.14072e-06
1.68471e-06
-4.455e-06
1.57124e-06
-4.74042e-06
1.46083e-06
-4.99902e-06
1.35623e-06
-5.23309e-06
1.25888e-06
-5.44496e-06
1.16918e-06
-5.63685e-06
1.08658e-06
-5.81075e-06
1.00955e-06
-5.9682e-06
9.35528e-07
-6.1102e-06
8.60817e-07
-6.23702e-06
7.80446e-07
-6.34795e-06
6.88098e-07
-6.44114e-06
5.76093e-07
-6.51325e-06
4.35503e-07
-6.55919e-06
2.56478e-07
-6.57177e-06
2.88649e-08
-6.54143e-06
-2.56769e-07
-6.45607e-06
-6.07618e-07
-6.30111e-06
-1.02653e-06
-6.06012e-06
-1.50925e-06
-5.71617e-06
-2.0412e-06
-5.25443e-06
-2.59393e-06
-4.66625e-06
-3.12223e-06
-3.95489e-06
-3.56297e-06
-3.14232e-06
-3.83796e-06
-2.27545e-06
-3.86312e-06
-1.42861e-06
-3.5659e-06
-6.98712e-07
-2.90866e-06
-1.91264e-07
-1.91159e-06
-6.6856e-07
-1.27845e-07
4.97231e-07
-4.36271e-07
1.29981e-06
-8.58493e-07
1.88323e-06
-1.34133e-06
2.25992e-06
-1.846e-06
2.46464e-06
-2.34622e-06
2.53776e-06
-2.82544e-06
2.51714e-06
-3.27413e-06
2.4344e-06
-3.68757e-06
2.31393e-06
-4.06415e-06
2.17335e-06
-4.40433e-06
2.02489e-06
-4.70978e-06
1.8767e-06
-4.98294e-06
1.73399e-06
-5.22664e-06
1.59992e-06
-5.44385e-06
1.47609e-06
-5.63758e-06
1.3629e-06
-5.81064e-06
1.25964e-06
-5.96563e-06
1.16454e-06
-6.10478e-06
1.07468e-06
-6.22989e-06
9.85924e-07
-6.34215e-06
8.92702e-07
-6.442e-06
7.8795e-07
-6.52891e-06
6.63007e-07
-6.60107e-06
5.07664e-07
-6.65499e-06
3.10399e-07
-6.68503e-06
5.88994e-08
-6.68282e-06
-2.5898e-07
-6.63673e-06
-6.53705e-07
-6.53145e-06
-1.13181e-06
-6.34796e-06
-1.69275e-06
-6.06433e-06
-2.32483e-06
-5.65791e-06
-3.00035e-06
-5.10958e-06
-3.67055e-06
-4.41069e-06
-4.26186e-06
-3.57264e-06
-4.67601e-06
-2.63764e-06
-4.79812e-06
-1.6867e-06
-4.51684e-06
-8.3843e-07
-3.75693e-06
-2.32742e-07
-2.51728e-06
-9.01302e-07
-1.45459e-07
6.4269e-07
-4.92204e-07
1.64655e-06
-9.59319e-07
2.35034e-06
-1.48349e-06
2.78409e-06
-2.02037e-06
3.00153e-06
-2.54164e-06
3.05903e-06
-3.03082e-06
3.00632e-06
-3.47959e-06
2.88318e-06
-3.88484e-06
2.71917e-06
-4.24665e-06
2.53516e-06
-4.56698e-06
2.34523e-06
-4.84887e-06
2.15858e-06
-5.09584e-06
1.98096e-06
-5.31164e-06
1.81573e-06
-5.50004e-06
1.66449e-06
-5.66463e-06
1.5275e-06
-5.80884e-06
1.40385e-06
-5.93581e-06
1.29151e-06
-6.04839e-06
1.18727e-06
-6.14909e-06
1.08662e-06
-6.24002e-06
9.83626e-07
-6.32275e-06
8.70686e-07
-6.39819e-06
7.38443e-07
-6.46622e-06
5.75698e-07
-6.52533e-06
3.69507e-07
-6.57198e-06
1.05544e-07
-6.59982e-06
-2.31132e-07
-6.59882e-06
-6.54706e-07
-6.55423e-06
-1.1764e-06
-6.44585e-06
-1.80113e-06
-6.24789e-06
-2.52279e-06
-5.93023e-06
-3.31802e-06
-5.46205e-06
-4.13873e-06
-4.81923e-06
-4.90468e-06
-3.99639e-06
-5.49885e-06
-3.02307e-06
-5.77144e-06
-1.9801e-06
-5.55981e-06
-1.00671e-06
-4.73031e-06
-2.85655e-07
-3.23834e-06
-1.18696e-06
-1.65321e-07
8.08011e-07
-5.52918e-07
2.03415e-06
-1.06407e-06
2.86149e-06
-1.62374e-06
3.34376e-06
-2.18222e-06
3.56e-06
-2.71013e-06
3.58694e-06
-3.19238e-06
3.48857e-06
-3.62299e-06
3.31378e-06
-4.00138e-06
3.09757e-06
-4.33003e-06
2.86381e-06
-4.61293e-06
2.62812e-06
-4.85472e-06
2.40037e-06
-5.06025e-06
2.1865e-06
-5.23427e-06
1.98974e-06
-5.38125e-06
1.81147e-06
-5.50538e-06
1.65163e-06
-5.6105e-06
1.50897e-06
-5.70017e-06
1.38117e-06
-5.77764e-06
1.26474e-06
-5.84596e-06
1.15494e-06
-5.90794e-06
1.0456e-06
-5.96613e-06
9.2888e-07
-6.02275e-06
7.9506e-07
-6.0794e-06
6.32355e-07
-6.13674e-06
4.2684e-07
-6.19378e-06
1.62588e-07
-6.24708e-06
-1.77837e-07
-6.28947e-06
-6.12313e-07
-6.30864e-06
-1.15723e-06
-6.28552e-06
-1.82425e-06
-6.19295e-06
-2.61536e-06
-5.99538e-06
-3.51559e-06
-5.65091e-06
-4.4832e-06
-5.11768e-06
-5.4379e-06
-4.36708e-06
-6.24945e-06
-3.40522e-06
-6.7333e-06
-2.3004e-06
-6.66463e-06
-1.20546e-06
-5.82525e-06
-3.52738e-07
-4.09106e-06
-1.5397e-06
-1.89753e-07
9.97764e-07
-6.23478e-07
2.46787e-06
-1.17834e-06
3.41635e-06
-1.76553e-06
3.93094e-06
-2.33078e-06
4.12526e-06
-2.84567e-06
4.10184e-06
-3.2985e-06
3.9414e-06
-3.68733e-06
3.70261e-06
-4.01544e-06
3.42568e-06
-4.28849e-06
3.13687e-06
-4.51305e-06
2.85268e-06
-4.69571e-06
2.58303e-06
-4.84271e-06
2.3335e-06
-4.95977e-06
2.10679e-06
-5.05198e-06
1.90368e-06
-5.1239e-06
1.72355e-06
-5.17959e-06
1.56466e-06
-5.22271e-06
1.42429e-06
-5.25664e-06
1.29867e-06
-5.28462e-06
1.18292e-06
-5.30983e-06
1.07081e-06
-5.33545e-06
9.54508e-07
-5.36472e-06
8.24324e-07
-5.40074e-06
6.68373e-07
-5.44625e-06
4.72349e-07
-5.50308e-06
2.1942e-07
-5.57129e-06
-1.0962e-07
-5.6479e-06
-5.35709e-07
-5.72504e-06
-1.08008e-06
-5.78772e-06
-1.76157e-06
-5.81114e-06
-2.59194e-06
-5.75841e-06
-3.56832e-06
-5.5798e-06
-4.66181e-06
-5.21628e-06
-5.80143e-06
-4.61121e-06
-6.85452e-06
-3.73512e-06
-7.60938e-06
-2.62542e-06
-7.77434e-06
-1.4319e-06
-7.01877e-06
-4.36767e-07
-5.08619e-06
-1.97646e-06
-2.22635e-07
1.2204e-06
-7.11309e-07
2.95655e-06
-1.30883e-06
4.01387e-06
-1.91051e-06
4.53263e-06
-2.46001e-06
4.67475e-06
-2.93344e-06
4.57527e-06
-3.32574e-06
4.33369e-06
-3.64144e-06
4.01832e-06
-3.88924e-06
3.67347e-06
-4.079e-06
3.32662e-06
-4.22032e-06
2.994e-06
-4.32192e-06
2.68463e-06
-4.39139e-06
2.40297e-06
-4.43522e-06
2.15062e-06
-4.45888e-06
1.92733e-06
-4.46694e-06
1.73162e-06
-4.46332e-06
1.56104e-06
-4.45141e-06
1.41238e-06
-4.43432e-06
1.28158e-06
-4.41505e-06
1.16365e-06
-4.39669e-06
1.05245e-06
-4.38261e-06
9.4043e-07
-4.37657e-06
8.18276e-07
-4.38272e-06
6.74528e-07
-4.40557e-06
4.95198e-07
-4.44959e-06
2.63442e-07
-4.5186e-06
-4.06149e-08
-4.61458e-06
-4.3973e-07
-4.73588e-06
-9.58777e-07
-4.87455e-06
-1.62291e-06
-5.01262e-06
-2.45386e-06
-5.11771e-06
-3.46323e-06
-5.13868e-06
-4.64083e-06
-5.0042e-06
-5.93591e-06
-4.62927e-06
-7.22946e-06
-3.93845e-06
-8.3002e-06
-2.91522e-06
-8.79757e-06
-1.67677e-06
-8.25722e-06
-5.41037e-07
-6.22192e-06
-2.5175e-06
-2.70834e-07
1.49123e-06
-8.27599e-07
3.51331e-06
-1.46283e-06
4.6491e-06
-2.05561e-06
5.12542e-06
-2.55339e-06
5.17253e-06
-2.94318e-06
4.96506e-06
-3.23142e-06
4.62193e-06
-3.4323e-06
4.21919e-06
-3.56174e-06
3.80291e-06
-3.63465e-06
3.39953e-06
-3.66391e-06
3.02327e-06
-3.6602e-06
2.68092e-06
-3.6321e-06
2.37487e-06
-3.58639e-06
2.10492e-06
-3.52839e-06
1.86933e-06
-3.4622e-06
1.66543e-06
-3.39109e-06
1.48993e-06
-3.31769e-06
1.33899e-06
-3.24436e-06
1.20825e-06
-3.17338e-06
1.09267e-06
-3.10729e-06
9.86361e-07
-3.0491e-06
8.82237e-07
-3.00253e-06
7.717e-07
-2.9722e-06
6.442e-07
-2.96376e-06
4.86759e-07
-2.9838e-06
2.83484e-07
-3.03954e-06
1.51222e-08
-3.13804e-06
-3.41231e-07
-3.28474e-06
-8.12074e-07
-3.48092e-06
-1.42673e-06
-3.71961e-06
-2.21518e-06
-3.97957e-06
-3.20327e-06
-4.21747e-06
-4.40293e-06
-4.35985e-06
-5.79353e-06
-4.30033e-06
-7.28898e-06
-3.9138e-06
-8.68672e-06
-3.1068e-06
-9.60457e-06
-1.92065e-06
-9.44338e-06
-6.69681e-07
-7.47289e-06
-3.18718e-06
-3.46781e-07
1.83801e-06
-9.88582e-07
4.15511e-06
-1.64507e-06
5.30559e-06
-2.18507e-06
5.66541e-06
-2.57261e-06
5.56007e-06
-2.81613e-06
5.20858e-06
-2.94029e-06
4.74608e-06
-2.97251e-06
4.25142e-06
-2.93745e-06
3.76785e-06
-2.85526e-06
3.31735e-06
-2.74162e-06
2.90963e-06
-2.60833e-06
2.54763e-06
-2.46402e-06
2.23056e-06
-2.31486e-06
1.95576e-06
-2.16515e-06
1.71961e-06
-2.01776e-06
1.51805e-06
-1.87465e-06
1.34681e-06
-1.73713e-06
1.20147e-06
-1.6063e-06
1.07741e-06
-1.48328e-06
9.69655e-07
-1.36957e-06
8.72652e-07
-1.26734e-06
7.80007e-07
-1.17976e-06
6.84113e-07
-1.11128e-06
5.75723e-07
-1.06798e-06
4.43459e-07
-1.05774e-06
2.73246e-07
-1.09033e-06
4.771e-08
-1.17714e-06
-2.54422e-07
-1.33037e-06
-6.5884e-07
-1.56121e-06
-1.19589e-06
-1.87623e-06
-1.90015e-06
-2.27114e-06
-2.80836e-06
-2.72056e-06
-3.95351e-06
-3.16379e-06
-5.3503e-06
-3.48953e-06
-6.96325e-06
-3.53202e-06
-8.64423e-06
-3.10657e-06
-1.003e-05
-2.12644e-06
-1.04235e-05
-8.26678e-07
-8.77265e-06
-4.01386e-06
-4.72276e-07
2.31029e-06
-1.21372e-06
4.89656e-06
-1.84534e-06
5.93722e-06
-2.24953e-06
6.0696e-06
-2.43232e-06
5.74286e-06
-2.43914e-06
5.2154e-06
-2.32045e-06
4.62739e-06
-2.11951e-06
4.05048e-06
-1.86948e-06
3.51782e-06
-1.59423e-06
3.0421e-06
-1.31027e-06
2.62567e-06
-1.02853e-06
2.26588e-06
-7.5589e-07
1.95792e-06
-4.96371e-07
1.69625e-06
-2.51978e-07
1.47522e-06
-2.33782e-08
1.28945e-06
1.89591e-07
1.13384e-06
3.87514e-07
1.00355e-06
5.71047e-07
8.9388e-07
7.40608e-07
8.00094e-07
8.96065e-07
7.17194e-07
1.03642e-06
6.39651e-07
1.15946e-06
5.61071e-07
1.26137e-06
4.73812e-07
1.33631e-06
3.68518e-07
1.37598e-06
2.33581e-07
1.36918e-06
5.45048e-08
1.30158e-06
-1.86818e-07
1.15569e-06
-5.12946e-07
9.11628e-07
-9.51831e-07
5.49299e-07
-1.53782e-06
5.32962e-08
-2.31236e-06
-5.77202e-07
-3.32301e-06
-1.31071e-06
-4.61679e-06
-2.05639e-06
-6.21757e-06
-2.63492e-06
-8.06569e-06
-2.7777e-06
-9.88724e-06
-2.223e-06
-1.09782e-05
-1.00972e-06
-9.98593e-06
-5.02358e-06
-6.80053e-07
2.99034e-06
-1.50807e-06
5.72457e-06
-1.99805e-06
6.4272e-06
-2.11321e-06
6.18476e-06
-1.94541e-06
5.57506e-06
-1.59491e-06
4.8649e-06
-1.14196e-06
4.17445e-06
-6.4329e-07
3.55181e-06
-1.35896e-07
3.01043e-06
3.5756e-07
2.54865e-06
8.24185e-07
2.15904e-06
1.25751e-06
1.83255e-06
1.65521e-06
1.56023e-06
2.01755e-06
1.33391e-06
2.34634e-06
1.14643e-06
2.64424e-06
9.91546e-07
2.91427e-06
8.63808e-07
3.15944e-06
7.58388e-07
3.38244e-06
6.7088e-07
3.58543e-06
5.97098e-07
3.76978e-06
5.32846e-07
3.93576e-06
4.73671e-07
4.08225e-06
4.14585e-07
4.20632e-06
3.4974e-07
4.30279e-06
2.72051e-07
4.36362e-06
1.72748e-07
4.3773e-06
4.08254e-08
4.32811e-06
-1.37632e-07
4.19549e-06
-3.80323e-07
3.95358e-06
-7.09926e-07
3.57161e-06
-1.15584e-06
3.01602e-06
-1.75677e-06
2.25707e-06
-2.56406e-06
1.2845e-06
-3.64422e-06
1.39718e-07
-5.07279e-06
-1.03057e-06
-6.89541e-06
-1.91737e-06
-9.00043e-06
-2.0698e-06
-1.08258e-05
-1.18849e-06
-1.08672e-05
-6.21206e-06
-9.96522e-07
3.98687e-06
-1.78418e-06
6.51223e-06
-1.86317e-06
6.50619e-06
-1.42875e-06
5.75034e-06
-7.13425e-07
4.85973e-06
1.23756e-07
4.02772e-06
9.84854e-07
3.31335e-06
1.81444e-06
2.72222e-06
2.58454e-06
2.24033e-06
3.28362e-06
1.84956e-06
3.90953e-06
1.53313e-06
4.46521e-06
1.27688e-06
4.95617e-06
1.06926e-06
5.3891e-06
9.00986e-07
5.77091e-06
7.64614e-07
6.10834e-06
6.54121e-07
6.40758e-06
5.64568e-07
6.67415e-06
4.91822e-07
6.91272e-06
4.32306e-07
7.12703e-06
3.82785e-07
7.31972e-06
3.40159e-07
7.49213e-06
3.01261e-07
7.64407e-06
2.62641e-07
7.77348e-06
2.20331e-07
7.87595e-06
1.69586e-07
7.94413e-06
1.04565e-07
7.96702e-06
1.79371e-08
7.929e-06
-9.96149e-08
7.80876e-06
-2.60079e-07
7.57798e-06
-4.79143e-07
7.20003e-06
-7.77894e-07
6.62909e-06
-1.18584e-06
5.8113e-06
-1.74628e-06
4.6924e-06
-2.52531e-06
3.24271e-06
-3.6231e-06
1.51926e-06
-5.17196e-06
-2.19186e-07
-7.26199e-06
-1.39358e-06
-9.65139e-06
-1.25065e-06
-1.10102e-05
-7.46271e-06
-1.34654e-06
5.3334e-06
-1.58674e-06
6.75244e-06
-7.10992e-07
5.63044e-06
6.24542e-07
4.41481e-06
2.0571e-06
3.42717e-06
3.4275e-06
2.65732e-06
4.66975e-06
2.0711e-06
5.76361e-06
1.62836e-06
6.71158e-06
1.29236e-06
7.52611e-06
1.03503e-06
8.22305e-06
8.36194e-07
8.81856e-06
6.81369e-07
9.32778e-06
5.60047e-07
9.76424e-06
4.64516e-07
1.01398e-05
3.89033e-07
1.04647e-05
3.29237e-07
1.07475e-05
2.81744e-07
1.09955e-05
2.43856e-07
1.12145e-05
2.13343e-07
1.1409e-05
1.8827e-07
1.15823e-05
1.66848e-07
1.17363e-05
1.47297e-07
1.18712e-05
1.27718e-07
1.19856e-05
1.05953e-07
1.20757e-05
7.94475e-08
1.21352e-05
4.50748e-08
1.21542e-05
-1.07182e-09
1.21185e-05
-6.39569e-08
1.20084e-05
-1.49988e-07
1.17969e-05
-2.67624e-07
1.14475e-05
-4.28467e-07
1.09111e-05
-6.49408e-07
1.01219e-05
-9.57103e-07
8.99409e-06
-1.39751e-06
7.42616e-06
-2.05517e-06
5.33905e-06
-3.08485e-06
2.80619e-06
-4.72913e-06
3.30767e-07
-7.17597e-06
-9.01102e-07
-9.77831e-06
-8.36381e-06
-9.36327e-07
6.26973e-06
8.49986e-07
4.96612e-06
3.38542e-06
3.095e-06
5.73346e-06
2.06676e-06
7.72197e-06
1.43866e-06
9.36129e-06
1.018e-06
1.06978e-05
7.34566e-07
1.17838e-05
5.42414e-07
1.2667e-05
4.0916e-07
1.33876e-05
3.14357e-07
1.39784e-05
2.45443e-07
1.44653e-05
1.9447e-07
1.48691e-05
1.5624e-07
1.52064e-05
1.27258e-07
1.54903e-05
1.05113e-07
1.57314e-05
8.8094e-08
1.59382e-05
7.49422e-08
1.61174e-05
6.4702e-08
1.62741e-05
5.66145e-08
1.64123e-05
5.00429e-08
1.65348e-05
4.44124e-08
1.66429e-05
3.91569e-08
1.6737e-05
3.36699e-08
1.68156e-05
2.72595e-08
1.6876e-05
1.91049e-08
1.69129e-05
8.20702e-09
1.69185e-05
-6.67583e-09
1.68816e-05
-2.71141e-08
1.67868e-05
-5.51266e-08
1.66125e-05
-9.33647e-08
1.63295e-05
-1.45463e-07
1.58969e-05
-2.16805e-07
1.52561e-05
-3.1627e-07
1.43191e-05
-4.60578e-07
1.29497e-05
-6.85766e-07
1.09433e-05
-1.07839e-06
8.06556e-06
-1.85142e-06
4.31551e-06
-3.42592e-06
6.97354e-07
-6.16015e-06
-7.66646e-06
6.26973e-06
1.12359e-05
1.43309e-05
1.63976e-05
1.78363e-05
1.88543e-05
1.95888e-05
2.01313e-05
2.05404e-05
2.08548e-05
2.11002e-05
2.12947e-05
2.14509e-05
2.15782e-05
2.16833e-05
2.17714e-05
2.18463e-05
2.1911e-05
2.19677e-05
2.20177e-05
2.20621e-05
2.21013e-05
2.21349e-05
2.21622e-05
2.21813e-05
2.21895e-05
2.21828e-05
2.21557e-05
2.21006e-05
2.20072e-05
2.18618e-05
2.1645e-05
2.13287e-05
2.08681e-05
2.01823e-05
1.9104e-05
1.72525e-05
1.38266e-05
7.66646e-06
)
;

boundaryField
{
    movingWall
    {
        type            calculated;
        value           uniform 0;
    }
    fixedWalls
    {
        type            calculated;
        value           uniform 0;
    }
    frontAndBack
    {
        type            empty;
        value           nonuniform 0();
    }
}


// ************************************************************************* //
