/*--------------------------------*- C++ -*----------------------------------*\
  =========                 |
  \\      /  F ield         | OpenFOAM: The Open Source CFD Toolbox
   \\    /   O peration     | Website:  https://openfoam.org
    \\  /    A nd           | Version:  6.0
     \\/     M anipulation  |
\*---------------------------------------------------------------------------*/
FoamFile
{
    version     2.0;
    format      ascii;
    class       volVectorField;
    location    "0.1";
    object      U;
}
// * * * * * * * * * * * * * * * * * * * * * * * * * * * * * * * * * * * * * //

dimensions      [0 1 -1 0 0 0 0];

internalField   nonuniform List<vector> 
800
(
(0.000208363 -0.000254223 0)
(0.000282305 -3.32635e-05 0)
(-0.000511565 0.000311274 0)
(-0.00203534 0.000558385 0)
(-0.00408476 0.000707765 0)
(-0.00642585 0.000781224 0)
(-0.00889611 0.000804218 0)
(-0.0113877 0.000798128 0)
(-0.0138367 0.00077773 0)
(-0.0162099 0.000751908 0)
(-0.0184933 0.000725359 0)
(-0.0206837 0.000700322 0)
(-0.0227841 0.000677804 0)
(-0.0248006 0.00065828 0)
(-0.026741 0.000642005 0)
(-0.028614 0.000629074 0)
(-0.030428 0.000619322 0)
(-0.0321903 0.000612187 0)
(-0.0339052 0.00060651 0)
(-0.0355721 0.000600296 0)
(-0.0371828 0.000590462 0)
(-0.0387182 0.000572606 0)
(-0.0401451 0.000540838 0)
(-0.0414122 0.000487735 0)
(-0.0424475 0.000404545 0)
(-0.0431561 0.000281797 0)
(-0.0434211 0.000110464 0)
(-0.043108 -0.000116185 0)
(-0.0420746 -0.000400039 0)
(-0.040188 -0.000735069 0)
(-0.0373484 -0.00110422 0)
(-0.0335197 -0.0014771 0)
(-0.0287619 -0.00180969 0)
(-0.0232604 -0.00204718 0)
(-0.0173428 -0.00213069 0)
(-0.0114735 -0.00200771 0)
(-0.00621839 -0.00164499 0)
(-0.00217893 -0.00104093 0)
(9.64713e-05 -0.000260219 0)
(0.000366376 0.000352222 0)
(-2.01735e-05 -0.000285022 0)
(-0.000992154 0.000907044 0)
(-0.00381622 0.00239178 0)
(-0.00819008 0.00354239 0)
(-0.013661 0.00429173 0)
(-0.0198073 0.00469693 0)
(-0.0262819 0.00484951 0)
(-0.0328293 0.00483726 0)
(-0.0392814 0.0047285 0)
(-0.0455379 0.00457 0)
(-0.0515459 0.00439107 0)
(-0.0572836 0.00420897 0)
(-0.0627487 0.00403351 0)
(-0.0679506 0.00387018 0)
(-0.072905 0.0037218 0)
(-0.0776308 0.00358917 0)
(-0.0821463 0.00347091 0)
(-0.0864659 0.00336291 0)
(-0.0905958 0.00325748 0)
(-0.0945288 0.00314242 0)
(-0.0982384 0.0030001 0)
(-0.101672 0.00280667 0)
(-0.104744 0.00253184 0)
(-0.107331 0.00213936 0)
(-0.109261 0.00158879 0)
(-0.110322 0.000839155 0)
(-0.110257 -0.000145088 0)
(-0.108784 -0.00138543 0)
(-0.105613 -0.00287811 0)
(-0.10049 -0.00458156 0)
(-0.0932392 -0.00640441 0)
(-0.0838284 -0.00819802 0)
(-0.072426 -0.00975783 0)
(-0.0594546 -0.0108384 0)
(-0.0456174 -0.0111852 0)
(-0.0318799 -0.0105829 0)
(-0.0193828 -0.00891595 0)
(-0.00928642 -0.00623074 0)
(-0.00265146 -0.00284856 0)
(-0.000162135 0.000136741 0)
(-0.000362936 0.00054032 0)
(-0.00265202 0.00382057 0)
(-0.0077381 0.00724687 0)
(-0.0148877 0.00993879 0)
(-0.0234433 0.0117372 0)
(-0.0328651 0.0127389 0)
(-0.0426949 0.0131276 0)
(-0.0525837 0.0130934 0)
(-0.0622924 0.0127941 0)
(-0.0716718 0.0123453 0)
(-0.0806384 0.0118249 0)
(-0.0891541 0.0112827 0)
(-0.097211 0.0107488 0)
(-0.10482 0.0102412 0)
(-0.112004 0.00976916 0)
(-0.118789 0.00933518 0)
(-0.125202 0.00893511 0)
(-0.131264 0.00855706 0)
(-0.136982 0.00817977 0)
(-0.142347 0.00777072 0)
(-0.147319 0.00728446 0)
(-0.151826 0.00666138 0)
(-0.155749 0.00582785 0)
(-0.158921 0.00469825 0)
(-0.161115 0.0031801 0)
(-0.162051 0.00118325 0)
(-0.161396 -0.00136581 0)
(-0.158787 -0.00450435 0)
(-0.153858 -0.00820884 0)
(-0.146288 -0.0123683 0)
(-0.135858 -0.0167601 0)
(-0.122527 -0.0210354 0)
(-0.106505 -0.0247246 0)
(-0.0883227 -0.0272723 0)
(-0.0688697 -0.0281087 0)
(-0.0493806 -0.0267603 0)
(-0.0313261 -0.0229884 0)
(-0.0162194 -0.0169315 0)
(-0.00557655 -0.00928542 0)
(-0.000784035 -0.00183171 0)
(-0.000703408 0.00231001 0)
(-0.00430356 0.00868526 0)
(-0.0116283 0.0146531 0)
(-0.0214374 0.0192363 0)
(-0.0328177 0.022276 0)
(-0.045115 0.0239501 0)
(-0.0577879 0.0245617 0)
(-0.0704251 0.0244244 0)
(-0.0827449 0.0238042 0)
(-0.0945701 0.0229022 0)
(-0.105801 0.0218586 0)
(-0.116392 0.0207661 0)
(-0.126335 0.0196836 0)
(-0.135648 0.0186465 0)
(-0.144361 0.0176734 0)
(-0.152511 0.0167696 0)
(-0.160136 0.0159274 0)
(-0.167264 0.0151244 0)
(-0.173911 0.0143217 0)
(-0.180069 0.0134611 0)
(-0.185701 0.0124625 0)
(-0.190727 0.0112225 0)
(-0.195019 0.00961555 0)
(-0.198393 0.00749767 0)
(-0.2006 0.00471555 0)
(-0.201331 0.00112212 0)
(-0.200217 -0.00340012 0)
(-0.196851 -0.00890734 0)
(-0.190816 -0.0153555 0)
(-0.181729 -0.0225574 0)
(-0.169309 -0.030144 0)
(-0.153452 -0.0375395 0)
(-0.134324 -0.0439665 0)
(-0.112448 -0.0484982 0)
(-0.088775 -0.0501723 0)
(-0.0646925 -0.0481711 0)
(-0.0419314 -0.0420536 0)
(-0.022364 -0.0319879 0)
(-0.00806293 -0.0189756 0)
(-0.00125814 -0.00527806 0)
(-0.00100656 0.00492263 0)
(-0.00583186 0.0153968 0)
(-0.0152829 0.0244268 0)
(-0.0275825 0.0311298 0)
(-0.0415304 0.0354666 0)
(-0.0563457 0.0377661 0)
(-0.071412 0.0384909 0)
(-0.0862745 0.0381017 0)
(-0.100629 0.0369883 0)
(-0.114289 0.0354474 0)
(-0.127153 0.0336899 0)
(-0.139181 0.0318579 0)
(-0.150374 0.0300434 0)
(-0.16076 0.0283026 0)
(-0.170383 0.0266656 0)
(-0.179295 0.0251411 0)
(-0.187547 0.0237171 0)
(-0.195183 0.0223601 0)
(-0.20223 0.0210118 0)
(-0.208695 0.0195862 0)
(-0.21455 0.0179662 0)
(-0.219728 0.0160026 0)
(-0.224111 0.013515 0)
(-0.227522 0.0102977 0)
(-0.229719 0.00613216 0)
(-0.230392 0.000807917 0)
(-0.229163 -0.00584563 0)
(-0.225599 -0.0139163 0)
(-0.219238 -0.0233556 0)
(-0.209623 -0.0339185 0)
(-0.196371 -0.0451052 0)
(-0.179248 -0.0561189 0)
(-0.158284 -0.0658606 0)
(-0.133887 -0.0729867 0)
(-0.106962 -0.0760566 0)
(-0.0789815 -0.0737854 0)
(-0.0519274 -0.0653834 0)
(-0.0281077 -0.0509055 0)
(-0.0102886 -0.0315347 0)
(-0.00163804 -0.00991212 0)
(-0.00127765 0.0083118 0)
(-0.00723513 0.0238395 0)
(-0.0186714 0.0364232 0)
(-0.03327 0.0454213 0)
(-0.0495245 0.0510365 0)
(-0.066516 0.0538335 0)
(-0.0835562 0.0544873 0)
(-0.100159 0.0536376 0)
(-0.116015 0.0518149 0)
(-0.130944 0.0494219 0)
(-0.144859 0.0467456 0)
(-0.157736 0.0439812 0)
(-0.169595 0.041256 0)
(-0.180482 0.0386486 0)
(-0.190463 0.0362013 0)
(-0.199606 0.0339261 0)
(-0.207984 0.0318072 0)
(-0.215657 0.0297995 0)
(-0.222674 0.0278258 0)
(-0.229061 0.0257726 0)
(-0.234815 0.0234871 0)
(-0.239891 0.0207751 0)
(-0.244201 0.0174019 0)
(-0.247598 0.0130995 0)
(-0.249867 0.00758034 0)
(-0.250722 0.000562443 0)
(-0.249796 -0.00819291 0)
(-0.246646 -0.0188285 0)
(-0.240766 -0.0313235 0)
(-0.231613 -0.0454143 0)
(-0.218662 -0.0605111 0)
(-0.201488 -0.0756269 0)
(-0.17989 -0.0893452 0)
(-0.154048 -0.0998626 0)
(-0.124712 -0.105152 0)
(-0.0933523 -0.103284 0)
(-0.0621895 -0.0928946 0)
(-0.0340517 -0.0737062 0)
(-0.0125692 -0.0469429 0)
(-0.00201178 -0.0156463 0)
(-0.00152924 0.0124116 0)
(-0.00855077 0.0338948 0)
(-0.0218489 0.0504815 0)
(-0.0385619 0.0618929 0)
(-0.0568638 0.0686969 0)
(-0.0756916 0.0717891 0)
(-0.094291 0.0721207 0)
(-0.112158 0.0705475 0)
(-0.128995 0.0677612 0)
(-0.144644 0.0642797 0)
(-0.159049 0.0604702 0)
(-0.172215 0.056582 0)
(-0.184189 0.0527781 0)
(-0.195047 0.0491587 0)
(-0.204876 0.0457774 0)
(-0.213771 0.0426495 0)
(-0.221824 0.0397548 0)
(-0.229122 0.0370375 0)
(-0.235737 0.0344027 0)
(-0.24172 0.0317126 0)
(-0.247099 0.0287819 0)
(-0.251867 0.0253752 0)
(-0.255976 0.0212075 0)
(-0.259324 0.0159496 0)
(-0.261746 0.00924308 0)
(-0.262999 0.000725398 0)
(-0.262749 -0.00992856 0)
(-0.260563 -0.0229472 0)
(-0.255903 -0.0383823 0)
(-0.24814 -0.0560091 0)
(-0.236587 -0.0752128 0)
(-0.220582 -0.0948759 0)
(-0.199608 -0.113297 0)
(-0.173501 -0.128186 0)
(-0.142707 -0.136817 0)
(-0.108562 -0.136387 0)
(-0.0734485 -0.124642 0)
(-0.0407649 -0.100646 0)
(-0.015212 -0.0654587 0)
(-0.00246046 -0.0225833 0)
(-0.00177764 0.0171873 0)
(-0.00983839 0.0454807 0)
(-0.0249206 0.0664611 0)
(-0.0435873 0.0803279 0)
(-0.0636769 0.0881464 0)
(-0.0839845 0.0912503 0)
(-0.103704 0.0909394 0)
(-0.122333 0.0883279 0)
(-0.139605 0.0842894 0)
(-0.155409 0.0794657 0)
(-0.169731 0.0743055 0)
(-0.182621 0.0691109 0)
(-0.194165 0.0640775 0)
(-0.204471 0.0593246 0)
(-0.213658 0.0549145 0)
(-0.221847 0.0508638 0)
(-0.229155 0.0471476 0)
(-0.235692 0.0437 0)
(-0.241555 0.0404108 0)
(-0.246826 0.0371216 0)
(-0.251567 0.0336203 0)
(-0.25581 0.0296369 0)
(-0.259558 0.0248424 0)
(-0.262767 0.0188517 0)
(-0.265336 0.0112361 0)
(-0.267084 0.00154642 0)
(-0.267739 -0.0106459 0)
(-0.266902 -0.0256872 0)
(-0.264038 -0.0437524 0)
(-0.258453 -0.0647268 0)
(-0.249317 -0.0880585 0)
(-0.235709 -0.112593 0)
(-0.216742 -0.13642 0)
(-0.191789 -0.156784 0)
(-0.160814 -0.170166 0)
(-0.1248 -0.172643 0)
(-0.0861139 -0.16066 0)
(-0.048677 -0.132128 0)
(-0.0184811 -0.0875821 0)
(-0.00305672 -0.0309894 0)
(-0.00204378 0.0226437 0)
(-0.0111772 0.058576 0)
(-0.0280276 0.0842645 0)
(-0.0485129 0.100521 0)
(-0.0701132 0.109067 0)
(-0.0914943 0.1118 0)
(-0.111826 0.110449 0)
(-0.130641 0.106431 0)
(-0.147734 0.100822 0)
(-0.163062 0.0943917 0)
(-0.176677 0.0876689 0)
(-0.188686 0.0810028 0)
(-0.199224 0.0746157 0)
(-0.208441 0.0686397 0)
(-0.216487 0.0631412 0)
(-0.22351 0.0581343 0)
(-0.229654 0.0535877 0)
(-0.235047 0.0494253 0)
(-0.239812 0.0455244 0)
(-0.244056 0.0417104 0)
(-0.247872 0.0377512 0)
(-0.251334 0.0333511 0)
(-0.254496 0.0281465 0)
(-0.257375 0.0217057 0)
(-0.259946 0.0135361 0)
(-0.262111 0.00310243 0)
(-0.263683 -0.0101373 0)
(-0.26434 -0.0266729 0)
(-0.263594 -0.0468502 0)
(-0.260749 -0.0707395 0)
(-0.254881 -0.0979569 0)
(-0.244848 -0.127441 0)
(-0.229384 -0.157207 0)
(-0.207305 -0.184131 0)
(-0.1779 -0.203884 0)
(-0.141505 -0.211205 0)
(-0.10013 -0.200743 0)
(-0.0580114 -0.16855 0)
(-0.0225903 -0.113978 0)
(-0.00387067 -0.0412676 0)
(-0.00235794 0.0288364 0)
(-0.0126754 0.0732364 0)
(-0.0313499 0.10384 0)
(-0.0535284 0.122263 0)
(-0.0763038 0.131091 0)
(-0.0982462 0.132939 0)
(-0.118553 0.130058 0)
(-0.13684 0.12421 0)
(-0.153007 0.116688 0)
(-0.167112 0.108389 0)
(-0.179296 0.0999112 0)
(-0.18974 0.0916409 0)
(-0.198636 0.0838158 0)
(-0.206179 0.0765714 0)
(-0.212555 0.0699697 0)
(-0.217936 0.064017 0)
(-0.222485 0.0586713 0)
(-0.226347 0.0538459 0)
(-0.229659 0.0494067 0)
(-0.232547 0.0451678 0)
(-0.235128 0.0408844 0)
(-0.23751 0.0362454 0)
(-0.23979 0.0308652 0)
(-0.242048 0.0242795 0)
(-0.244333 0.0159456 0)
(-0.246646 0.00525268 0)
(-0.248908 -0.00845144 0)
(-0.250917 -0.0258106 0)
(-0.252298 -0.0473743 0)
(-0.252435 -0.0734635 0)
(-0.250409 -0.103971 0)
(-0.244959 -0.138088 0)
(-0.234498 -0.173953 0)
(-0.217271 -0.208279 0)
(-0.191725 -0.236048 0)
(-0.157198 -0.250551 0)
(-0.114839 -0.24414 0)
(-0.0687246 -0.21006 0)
(-0.0277094 -0.145359 0)
(-0.00498142 -0.0539372 0)
(-0.00276974 0.0358953 0)
(-0.0144929 0.0896142 0)
(-0.0351238 0.125173 0)
(-0.0588376 0.145296 0)
(-0.0823175 0.153734 0)
(-0.10411 0.154012 0)
(-0.123529 0.149002 0)
(-0.140353 0.14085 0)
(-0.154643 0.131063 0)
(-0.166601 0.120654 0)
(-0.176484 0.110272 0)
(-0.184561 0.10032 0)
(-0.191092 0.0910346 0)
(-0.196318 0.0825396 0)
(-0.200454 0.0748813 0)
(-0.203693 0.0680487 0)
(-0.206207 0.0619842 0)
(-0.208149 0.056587 0)
(-0.209658 0.0517127 0)
(-0.210866 0.0471676 0)
(-0.2119 0.0427019 0)
(-0.212888 0.0379996 0)
(-0.213958 0.032668 0)
(-0.215239 0.0262285 0)
(-0.216852 0.0181095 0)
(-0.218895 0.00764717 0)
(-0.221415 -0.0059007 0)
(-0.224368 -0.0233198 0)
(-0.227553 -0.0453693 0)
(-0.230535 -0.0726594 0)
(-0.232537 -0.105451 0)
(-0.23234 -0.143352 0)
(-0.2282 -0.18488 0)
(-0.217882 -0.226903 0)
(-0.198931 -0.264033 0)
(-0.169366 -0.288238 0)
(-0.12883 -0.289204 0)
(-0.0804202 -0.256236 0)
(-0.0339684 -0.182328 0)
(-0.00649424 -0.0696278 0)
(-0.00336817 0.0440688 0)
(-0.0168842 0.107988 0)
(-0.0396705 0.148253 0)
(-0.0646406 0.169233 0)
(-0.088084 0.176287 0)
(-0.108674 0.174095 0)
(-0.125986 0.166242 0)
(-0.140077 0.155273 0)
(-0.151249 0.142894 0)
(-0.159899 0.130193 0)
(-0.166426 0.117839 0)
(-0.1712 0.106221 0)
(-0.174549 0.0955478 0)
(-0.176754 0.0859115 0)
(-0.178052 0.077327 0)
(-0.178644 0.0697549 0)
(-0.178697 0.063114 0)
(-0.178355 0.0572858 0)
(-0.177746 0.0521145 0)
(-0.17699 0.0474015 0)
(-0.176208 0.0428982 0)
(-0.175527 0.0382945 0)
(-0.17509 0.0332061 0)
(-0.175055 0.0271608 0)
(-0.175597 0.019585 0)
(-0.176901 0.009795 0)
(-0.179141 -0.00300383 0)
(-0.182445 -0.0197009 0)
(-0.186839 -0.0412353 0)
(-0.192159 -0.0685009 0)
(-0.197919 -0.102173 0)
(-0.203149 -0.142408 0)
(-0.206206 -0.18837 0)
(-0.204627 -0.237505 0)
(-0.195186 -0.284598 0)
(-0.174405 -0.320769 0)
(-0.139765 -0.333037 0)
(-0.0922098 -0.305675 0)
(-0.0414481 -0.225158 0)
(-0.00856515 -0.089096 0)
(-0.00432167 0.0538136 0)
(-0.0202718 0.128801 0)
(-0.0454249 0.173003 0)
(-0.0710654 0.193411 0)
(-0.0932255 0.197646 0)
(-0.110993 0.191827 0)
(-0.124447 0.180321 0)
(-0.134076 0.166043 0)
(-0.140524 0.150829 0)
(-0.144428 0.135783 0)
(-0.146351 0.121533 0)
(-0.146763 0.108411 0)
(-0.146048 0.0965625 0)
(-0.14451 0.0860224 0)
(-0.142389 0.0767554 0)
(-0.139868 0.0686809 0)
(-0.137093 0.0616859 0)
(-0.134179 0.0556298 0)
(-0.131223 0.0503441 0)
(-0.128315 0.0456275 0)
(-0.125549 0.0412379 0)
(-0.123034 0.0368807 0)
(-0.120902 0.0321942 0)
(-0.119319 0.0267334 0)
(-0.118492 0.019952 0)
(-0.118666 0.0111852 0)
(-0.120121 -0.000363798 0)
(-0.123154 -0.0156272 0)
(-0.128032 -0.0356566 0)
(-0.134915 -0.0615698 0)
(-0.143731 -0.0944287 0)
(-0.153975 -0.134997 0)
(-0.164425 -0.183289 0)
(-0.172799 -0.237783 0)
(-0.175493 -0.294175 0)
(-0.167676 -0.343657 0)
(-0.144199 -0.371218 0)
(-0.102486 -0.355493 0)
(-0.0501208 -0.27346 0)
(-0.0114301 -0.113263 0)
(-0.00595322 0.0659658 0)
(-0.0253557 0.152685 0)
(-0.0529108 0.199089 0)
(-0.0779398 0.216597 0)
(-0.0966571 0.216018 0)
(-0.109096 0.205178 0)
(-0.116188 0.189205 0)
(-0.119055 0.171258 0)
(-0.118772 0.153177 0)
(-0.116245 0.135967 0)
(-0.112188 0.120135 0)
(-0.107146 0.10589 0)
(-0.101518 0.0932753 0)
(-0.0955956 0.0822389 0)
(-0.0895819 0.0726769 0)
(-0.0836159 0.0644559 0)
(-0.0777902 0.0574245 0)
(-0.0721667 0.0514176 0)
(-0.0667905 0.0462542 0)
(-0.0617027 0.041733 0)
(-0.0569531 0.0376236 0)
(-0.0526119 0.0336546 0)
(-0.0487833 0.0294995 0)
(-0.0456173 0.0247586 0)
(-0.0433224 0.0189396 0)
(-0.0421763 0.0114347 0)
(-0.0425324 0.00149929 0)
(-0.0448182 -0.0117686 0)
(-0.0495162 -0.0294391 0)
(-0.0571147 -0.0527419 0)
(-0.0680079 -0.0830147 0)
(-0.082309 -0.12156 0)
(-0.0995277 -0.169313 0)
(-0.118075 -0.22613 0)
(-0.134639 -0.28942 0)
(-0.143653 -0.351787 0)
(-0.137388 -0.397721 0)
(-0.108539 -0.400752 0)
(-0.0596523 -0.325595 0)
(-0.0154111 -0.143227 0)
(-0.00885856 0.0820413 0)
(-0.033212 0.180388 0)
(-0.0624666 0.22549 0)
(-0.0840963 0.236473 0)
(-0.095626 0.228489 0)
(-0.0989267 0.211158 0)
(-0.0962273 0.190126 0)
(-0.0894574 0.168521 0)
(-0.0801526 0.147951 0)
(-0.0694433 0.129158 0)
(-0.0581198 0.112412 0)
(-0.0467146 0.0977321 0)
(-0.0355708 0.0850137 0)
(-0.0248966 0.074094 0)
(-0.0148044 0.0647875 0)
(-0.00534193 0.0569034 0)
(0.00348526 0.0502519 0)
(0.0116958 0.0446456 0)
(0.0193178 0.0398955 0)
(0.0263758 0.0358051 0)
(0.0328784 0.0321619 0)
(0.0388062 0.0287255 0)
(0.044098 0.025214 0)
(0.0486366 0.0212876 0)
(0.0522327 0.0165283 0)
(0.0546074 0.0104172 0)
(0.0553744 0.0023089 0)
(0.054025 -0.00859803 0)
(0.0499206 -0.0232905 0)
(0.0423049 -0.0429696 0)
(0.0303532 -0.0690673 0)
(0.0132985 -0.103224 0)
(-0.00929417 -0.147147 0)
(-0.0370008 -0.202154 0)
(-0.0676593 -0.267987 0)
(-0.0961123 -0.340186 0)
(-0.112993 -0.40524 0)
(-0.105875 -0.433977 0)
(-0.0688211 -0.377773 0)
(-0.0207821 -0.180134 0)
(-0.0139835 0.104773 0)
(-0.0450585 0.212328 0)
(-0.073053 0.249506 0)
(-0.0854048 0.248735 0)
(-0.0834739 0.230447 0)
(-0.0722086 0.205565 0)
(-0.0554762 0.179601 0)
(-0.0359868 0.155122 0)
(-0.0155684 0.133153 0)
(0.00462892 0.113956 0)
(0.0239309 0.0974449 0)
(0.0419773 0.083389 0)
(0.0586109 0.071509 0)
(0.0738033 0.0615243 0)
(0.0876048 0.0531719 0)
(0.100111 0.0462123 0)
(0.11144 0.0404285 0)
(0.121714 0.0356221 0)
(0.131051 0.031607 0)
(0.139551 0.0282013 0)
(0.147287 0.0252188 0)
(0.154293 0.0224581 0)
(0.160556 0.0196903 0)
(0.165998 0.0166446 0)
(0.170462 0.0129912 0)
(0.173689 0.00832086 0)
(0.175295 0.00212022 0)
(0.174741 -0.00625792 0)
(0.171309 -0.0176316 0)
(0.164074 -0.0330374 0)
(0.151898 -0.0537946 0)
(0.133468 -0.0815839 0)
(0.10744 -0.118514 0)
(0.0728248 -0.167043 0)
(0.0298579 -0.229355 0)
(-0.0182523 -0.305147 0)
(-0.0625879 -0.386038 0)
(-0.0869524 -0.445004 0)
(-0.074062 -0.422948 0)
(-0.0271136 -0.225042 0)
(-0.0221755 0.13929 0)
(-0.0604233 0.246878 0)
(-0.0780797 0.264087 0)
(-0.0696022 0.245154 0)
(-0.0448046 0.214678 0)
(-0.012516 0.182875 0)
(0.0221774 0.153779 0)
(0.0563972 0.128614 0)
(0.0885936 0.107409 0)
(0.118055 0.0897643 0)
(0.14456 0.0751791 0)
(0.168157 0.063166 0)
(0.189035 0.0532938 0)
(0.207449 0.0451954 0)
(0.223678 0.0385634 0)
(0.238 0.0331404 0)
(0.250676 0.0287096 0)
(0.261941 0.0250844 0)
(0.272 0.0221001 0)
(0.281024 0.0196044 0)
(0.28914 0.017449 0)
(0.296431 0.0154803 0)
(0.302923 0.013529 0)
(0.308572 0.0113995 0)
(0.313255 0.00885634 0)
(0.316742 0.00560902 0)
(0.318674 0.00129256 0)
(0.318527 -0.00455666 0)
(0.315575 -0.0125336 0)
(0.30884 -0.0234126 0)
(0.297037 -0.0382232 0)
(0.278526 -0.0583777 0)
(0.251298 -0.0858773 0)
(0.213085 -0.123596 0)
(0.161865 -0.175438 0)
(0.0974687 -0.245427 0)
(0.025219 -0.333128 0)
(-0.0391425 -0.420957 0)
(-0.0665908 -0.44908 0)
(-0.0312128 -0.278702 0)
(-0.0307496 0.193425 0)
(-0.0691334 0.274332 0)
(-0.0527641 0.252018 0)
(-0.00428933 0.210975 0)
(0.053434 0.171299 0)
(0.110508 0.137425 0)
(0.163172 0.110031 0)
(0.210012 0.0883719 0)
(0.250809 0.0713381 0)
(0.285945 0.0579222 0)
(0.316036 0.0473208 0)
(0.341744 0.0389135 0)
(0.363706 0.0322245 0)
(0.3825 0.0268894 0)
(0.398636 0.022627 0)
(0.412554 0.0192175 0)
(0.424631 0.0164863 0)
(0.435182 0.0142914 0)
(0.444467 0.0125134 0)
(0.452695 0.0110471 0)
(0.460023 0.00979433 0)
(0.466552 0.00865692 0)
(0.472329 0.00752966 0)
(0.477331 0.00629311 0)
(0.481457 0.00480549 0)
(0.484512 0.00289315 0)
(0.486178 0.000338677 0)
(0.485984 -0.00313446 0)
(0.483264 -0.00788328 0)
(0.477099 -0.0143784 0)
(0.466247 -0.0232623 0)
(0.449029 -0.0354593 0)
(0.423195 -0.0523944 0)
(0.38574 -0.0764241 0)
(0.332816 -0.111593 0)
(0.260367 -0.164471 0)
(0.166712 -0.243023 0)
(0.0590083 -0.346773 0)
(-0.0269475 -0.433446 0)
(-0.0212794 -0.333708 0)
(-0.00844155 0.251488 0)
(-0.0136167 0.259671 0)
(0.0793051 0.189132 0)
(0.183781 0.136213 0)
(0.27212 0.0995088 0)
(0.344438 0.0733328 0)
(0.403559 0.0546958 0)
(0.451651 0.0414205 0)
(0.490692 0.0318461 0)
(0.522461 0.0248258 0)
(0.548432 0.0195999 0)
(0.569774 0.0156602 0)
(0.587417 0.0126591 0)
(0.6021 0.0103544 0)
(0.61441 0.00857385 0)
(0.62482 0.00719187 0)
(0.633705 0.00611466 0)
(0.641365 0.00526989 0)
(0.648036 0.00459962 0)
(0.653899 0.00405494 0)
(0.659088 0.00359172 0)
(0.663686 0.00316676 0)
(0.667727 0.00273429 0)
(0.671193 0.00224259 0)
(0.674001 0.00163062 0)
(0.675991 0.000824082 0)
(0.676911 -0.000269475 0)
(0.67639 -0.00176718 0)
(0.6739 -0.00382006 0)
(0.668718 -0.00662759 0)
(0.659851 -0.0104647 0)
(0.64593 -0.0157374 0)
(0.625029 -0.0231069 0)
(0.594329 -0.0337805 0)
(0.549529 -0.0502134 0)
(0.484075 -0.0777339 0)
(0.388136 -0.127413 0)
(0.249514 -0.215433 0)
(0.0940092 -0.335081 0)
(0.0447085 -0.336755 0)
(0.28407 0.140119 0)
(0.363031 0.12366 0)
(0.506108 0.0781942 0)
(0.617706 0.0488736 0)
(0.688977 0.0313377 0)
(0.736693 0.020427 0)
(0.770767 0.0135695 0)
(0.795776 0.00924649 0)
(0.814449 0.00647663 0)
(0.828657 0.00465727 0)
(0.839665 0.00343149 0)
(0.848328 0.00258649 0)
(0.855243 0.00199248 0)
(0.860839 0.00156828 0)
(0.86543 0.00126171 0)
(0.869251 0.00103819 0)
(0.872478 0.000873935 0)
(0.875245 0.000751949 0)
(0.877651 0.000659452 0)
(0.87977 0.000586191 0)
(0.881649 0.000523184 0)
(0.883316 0.000461662 0)
(0.884773 0.000392154 0)
(0.885997 0.000303745 0)
(0.886936 0.000183469 0)
(0.887502 1.56695e-05 0)
(0.887563 -0.000218939 0)
(0.88693 -0.00054469 0)
(0.885345 -0.000992967 0)
(0.882457 -0.00160509 0)
(0.877792 -0.00243769 0)
(0.870704 -0.00357504 0)
(0.860268 -0.00515897 0)
(0.845078 -0.00746571 0)
(0.822725 -0.0111171 0)
(0.788578 -0.0176986 0)
(0.732439 -0.0315032 0)
(0.627309 -0.0626283 0)
(0.453794 -0.122885 0)
(0.328769 -0.154298 0)
)
;

boundaryField
{
    movingWall
    {
        type            fixedValue;
        value           uniform (1 0 0);
    }
    fixedWalls
    {
        type            noSlip;
    }
    frontAndBack
    {
        type            empty;
    }
}


// ************************************************************************* //
