1.45 	0 	0 	0.107378 	-0.0109401 	3.19951e-21
2.35 	0 	0 	0.390296 	-0.0133517 	-3.55599e-22
