/*--------------------------------*- C++ -*----------------------------------*\
  =========                 |
  \\      /  F ield         | OpenFOAM: The Open Source CFD Toolbox
   \\    /   O peration     | Website:  https://openfoam.org
    \\  /    A nd           | Version:  6.0
     \\/     M anipulation  |
\*---------------------------------------------------------------------------*/
FoamFile
{
    version     2.0;
    format      ascii;
    class       surfaceScalarField;
    location    "0.1";
    object      phi;
}
// * * * * * * * * * * * * * * * * * * * * * * * * * * * * * * * * * * * * * //

dimensions      [0 3 -1 0 0 0 0];

internalField   nonuniform List<scalar> 
1540
(
1.10576e-08
-1.10574e-08
-4.82931e-09
1.58868e-08
-5.37554e-08
4.89261e-08
-1.28945e-07
7.51898e-08
-2.21653e-07
9.2707e-08
-3.23838e-07
1.02185e-07
-4.28998e-07
1.0516e-07
-5.3234e-07
1.03343e-07
-6.3062e-07
9.82796e-08
-7.21851e-07
9.12314e-08
-8.05014e-07
8.31631e-08
-8.79786e-07
7.47714e-08
-9.46311e-07
6.65254e-08
-1.00502e-06
5.87109e-08
-1.05649e-06
5.14675e-08
-1.10131e-06
4.48215e-08
-1.14002e-06
3.871e-08
-1.17302e-06
3.29999e-08
-1.20052e-06
2.75014e-08
-1.2225e-06
2.19796e-08
-1.23867e-06
1.61634e-08
-1.24842e-06
9.75681e-09
-1.25087e-06
2.45213e-09
-1.24482e-06
-6.05087e-09
-1.2288e-06
-1.60187e-08
-1.20116e-06
-2.76482e-08
-1.16014e-06
-4.10203e-08
-1.10409e-06
-5.60433e-08
-1.0317e-06
-7.23882e-08
-9.42281e-07
-8.94235e-08
-8.36123e-07
-1.06159e-07
-7.14912e-07
-1.2121e-07
-5.82101e-07
-1.32812e-07
-4.43223e-07
-1.38878e-07
-3.0607e-07
-1.37152e-07
-1.80589e-07
-1.25481e-07
-7.82928e-08
-1.02296e-07
-1.09559e-08
-6.73369e-08
1.26562e-08
-2.3612e-08
1.26563e-08
-1.54153e-08
4.35769e-09
-9.41796e-08
9.46511e-08
-2.39421e-07
1.94168e-07
-4.39503e-07
2.75271e-07
-6.78077e-07
3.31281e-07
-9.38701e-07
3.62809e-07
-1.2071e-06
3.73557e-07
-1.47205e-06
3.68299e-07
-1.72549e-06
3.51718e-07
-1.96213e-06
3.27866e-07
-2.17895e-06
2.99988e-07
-2.37469e-06
2.70514e-07
-2.54931e-06
2.41136e-07
-2.70352e-06
2.12928e-07
-2.8385e-06
1.86447e-07
-2.95553e-06
1.61847e-07
-3.05577e-06
1.38952e-07
-3.14011e-06
1.17335e-07
-3.20897e-06
9.63629e-08
-3.26223e-06
7.52439e-08
-3.29914e-06
5.30687e-08
-3.31823e-06
2.88527e-08
-3.31737e-06
1.58917e-09
-3.29374e-06
-2.96816e-08
-3.24398e-06
-6.57793e-08
-3.16436e-06
-1.07263e-07
-3.05111e-06
-1.54278e-07
-2.90077e-06
-2.06379e-07
-2.71083e-06
-2.62328e-07
-2.48035e-06
-3.19906e-07
-2.21075e-06
-3.75753e-07
-1.90666e-06
-4.25306e-07
-1.5766e-06
-4.62871e-07
-1.23356e-06
-4.8192e-07
-8.95034e-07
-4.75674e-07
-5.82405e-07
-4.38111e-07
-3.19134e-07
-3.65568e-07
-1.27427e-07
-2.59044e-07
-2.2325e-08
-1.28714e-07
-9.6689e-09
-5.03816e-08
5.47394e-08
-2.00989e-07
2.45259e-07
-4.41739e-07
4.34918e-07
-7.54102e-07
5.87634e-07
-1.11601e-06
6.93191e-07
-1.50573e-06
7.52532e-07
-1.90424e-06
7.72063e-07
-2.29633e-06
7.60385e-07
-2.67083e-06
7.26225e-07
-3.02032e-06
6.7735e-07
-3.34044e-06
6.20115e-07
-3.6293e-06
5.59365e-07
-3.88669e-06
4.98535e-07
-4.1136e-06
4.39829e-07
-4.31158e-06
3.84427e-07
-4.48241e-06
3.32678e-07
-4.62772e-06
2.84269e-07
-4.74875e-06
2.38363e-07
-4.8461e-06
1.93714e-07
-4.91962e-06
1.48758e-07
-4.96825e-06
1.01705e-07
-4.99003e-06
5.063e-08
-4.98202e-06
-6.4194e-09
-4.94042e-06
-7.12804e-08
-4.86071e-06
-1.45494e-07
-4.7379e-06
-2.3007e-07
-4.56698e-06
-3.252e-07
-4.34344e-06
-4.29917e-07
-4.06404e-06
-5.41728e-07
-3.72768e-06
-6.56265e-07
-3.33643e-06
-7.67002e-07
-2.89658e-06
-8.65156e-07
-2.41959e-06
-9.39864e-07
-1.92271e-06
-9.78795e-07
-1.42906e-06
-9.69326e-07
-9.6668e-07
-9.00493e-07
-5.66366e-07
-7.65882e-07
-2.57956e-07
-5.67454e-07
-6.51123e-08
-3.21557e-07
-7.47812e-08
-8.28075e-08
1.37547e-07
-3.0319e-07
4.65642e-07
-6.347e-07
7.66428e-07
-1.0491e-06
1.00203e-06
-1.51789e-06
1.16199e-06
-2.0148e-06
1.24943e-06
-2.51743e-06
1.2747e-06
-3.00819e-06
1.25114e-06
-3.47425e-06
1.19229e-06
-3.9072e-06
1.11029e-06
-4.30221e-06
1.01513e-06
-4.65733e-06
9.14484e-07
-4.9726e-06
8.13805e-07
-5.24939e-06
7.16612e-07
-5.48975e-06
6.24788e-07
-5.69596e-06
5.3889e-07
-5.87011e-06
4.58416e-07
-6.01377e-06
3.82029e-07
-6.1278e-06
3.07744e-07
-6.21213e-06
2.33083e-07
-6.26564e-06
1.5522e-07
-6.28614e-06
7.11288e-08
-6.27032e-06
-2.22425e-08
-6.21384e-06
-1.27756e-07
-6.11154e-06
-2.47801e-07
-5.95766e-06
-3.83946e-07
-5.74637e-06
-5.3649e-07
-5.47233e-06
-7.0396e-07
-5.13151e-06
-8.82549e-07
-4.7222e-06
-1.06557e-06
-4.24617e-06
-1.24304e-06
-3.70987e-06
-1.40145e-06
-3.12566e-06
-1.52408e-06
-2.51261e-06
-1.59185e-06
-1.89683e-06
-1.58511e-06
-1.31077e-06
-1.48655e-06
-7.91336e-07
-1.28531e-06
-3.76704e-07
-9.82086e-07
-1.02492e-07
-5.95769e-07
-1.77273e-07
-1.11242e-07
2.48789e-07
-3.95593e-07
7.49993e-07
-8.10237e-07
1.18107e-06
-1.3157e-06
1.5075e-06
-1.87615e-06
1.72244e-06
-2.46069e-06
1.83397e-06
-3.04427e-06
1.85828e-06
-3.60789e-06
1.81476e-06
-4.13826e-06
1.72266e-06
-4.62701e-06
1.59904e-06
-5.06976e-06
1.45788e-06
-5.46516e-06
1.30988e-06
-5.81397e-06
1.16261e-06
-6.11827e-06
1.02091e-06
-6.3808e-06
8.87326e-07
-6.60446e-06
7.62549e-07
-6.79185e-06
6.45802e-07
-6.94497e-06
5.35154e-07
-7.06502e-06
4.27786e-07
-7.15214e-06
3.20209e-07
-7.20539e-06
2.08468e-07
-7.2226e-06
8.83424e-08
-7.20043e-06
-4.44199e-08
-7.13437e-06
-1.93815e-07
-7.01895e-06
-3.63216e-07
-6.848e-06
-5.54897e-07
-6.61503e-06
-7.69461e-07
-6.31385e-06
-1.00514e-06
-5.93936e-06
-1.25704e-06
-5.48857e-06
-1.51636e-06
-4.96185e-06
-1.76975e-06
-4.36436e-06
-1.99894e-06
-3.70747e-06
-2.18096e-06
-3.01014e-06
-2.28918e-06
-2.2997e-06
-2.29555e-06
-1.61185e-06
-2.17439e-06
-9.89521e-07
-1.90765e-06
-4.80383e-07
-1.49122e-06
-1.33875e-07
-9.42278e-07
-3.11147e-07
-1.36125e-07
3.84914e-07
-4.7797e-07
1.09184e-06
-9.67014e-07
1.67012e-06
-1.55179e-06
2.09227e-06
-2.18841e-06
2.35906e-06
-2.84129e-06
2.48685e-06
-3.48316e-06
2.50015e-06
-4.09452e-06
2.42613e-06
-4.6626e-06
2.29074e-06
-5.18012e-06
2.11655e-06
-5.644e-06
1.92177e-06
-6.05423e-06
1.72011e-06
-6.41278e-06
1.52116e-06
-6.7228e-06
1.33094e-06
-6.98796e-06
1.15248e-06
-7.21187e-06
9.86465e-07
-7.39777e-06
8.317e-07
-7.54817e-06
6.85554e-07
-7.66468e-06
5.44293e-07
-7.74783e-06
4.03358e-07
-7.79698e-06
2.57621e-07
-7.81026e-06
1.01622e-07
-7.78453e-06
-7.01489e-08
-7.71544e-06
-2.6291e-07
-7.5975e-06
-4.81156e-07
-7.42431e-06
-7.28087e-07
-7.18886e-06
-1.00491e-06
-6.88403e-06
-1.30997e-06
-6.50329e-06
-1.63777e-06
-6.04171e-06
-1.97795e-06
-5.49718e-06
-2.31428e-06
-4.87211e-06
-2.62402e-06
-4.17521e-06
-2.87786e-06
-3.4235e-06
-3.04089e-06
-2.64397e-06
-3.07508e-06
-1.87469e-06
-2.94368e-06
-1.16459e-06
-2.61774e-06
-5.71871e-07
-2.08395e-06
-1.60976e-07
-1.35317e-06
-4.72123e-07
-1.58464e-07
5.43378e-07
-5.5218e-07
1.48555e-06
-1.107e-06
2.22494e-06
-1.7588e-06
2.74407e-06
-2.45522e-06
3.05548e-06
-3.15609e-06
3.18772e-06
-3.8326e-06
3.17667e-06
-4.46574e-06
3.05926e-06
-5.04436e-06
2.86936e-06
-5.56329e-06
2.63549e-06
-6.02168e-06
2.38015e-06
-6.4215e-06
2.11993e-06
-6.76644e-06
1.86611e-06
-7.06105e-06
1.62555e-06
-7.31007e-06
1.4015e-06
-7.51798e-06
1.19438e-06
-7.68868e-06
1.00239e-06
-7.82522e-06
8.22097e-07
-7.9297e-06
6.48771e-07
-8.00311e-06
4.76766e-07
-8.04526e-06
2.99775e-07
-8.05475e-06
1.11107e-07
-8.02888e-06
-9.60167e-08
-7.96369e-06
-3.28098e-07
-7.85396e-06
-5.90888e-07
-7.69328e-06
-8.88762e-07
-7.47427e-06
-1.22392e-06
-7.18886e-06
-1.59538e-06
-6.82886e-06
-1.99778e-06
-6.3868e-06
-2.42001e-06
-5.85721e-06
-2.84387e-06
-5.23837e-06
-3.24285e-06
-4.53463e-06
-3.5816e-06
-3.75913e-06
-3.8164e-06
-2.93673e-06
-3.89748e-06
-2.10653e-06
-3.77388e-06
-1.32316e-06
-3.40111e-06
-6.56013e-07
-2.75109e-06
-1.85974e-07
-1.82321e-06
-6.58097e-07
-1.79585e-07
7.22963e-07
-6.21271e-07
1.92724e-06
-1.23407e-06
2.83774e-06
-1.94014e-06
3.45014e-06
-2.67843e-06
3.79377e-06
-3.40479e-06
3.91408e-06
-4.09e-06
3.86187e-06
-4.71687e-06
3.68613e-06
-5.27722e-06
3.42971e-06
-5.76917e-06
3.12745e-06
-6.19494e-06
2.80593e-06
-6.55915e-06
2.48413e-06
-6.8676e-06
2.17456e-06
-7.12644e-06
1.88439e-06
-7.34159e-06
1.61665e-06
-7.51838e-06
1.37117e-06
-7.66133e-06
1.14534e-06
-7.77402e-06
9.34786e-07
-7.859e-06
7.33748e-07
-7.91773e-06
5.355e-07
-7.95057e-06
3.32613e-07
-7.95669e-06
1.17227e-07
-7.93405e-06
-1.1866e-07
-7.87931e-06
-3.82838e-07
-7.78778e-06
-6.82412e-07
-7.65338e-06
-1.02317e-06
-7.46857e-06
-1.40873e-06
-7.22452e-06
-1.83943e-06
-6.91137e-06
-2.31093e-06
-6.51885e-06
-2.81253e-06
-6.0374e-06
-3.32531e-06
-5.46001e-06
-3.82025e-06
-4.78487e-06
-4.25674e-06
-4.01905e-06
-4.58222e-06
-3.18282e-06
-4.7337e-06
-2.31419e-06
-4.64251e-06
-1.47228e-06
-4.24302e-06
-7.38128e-07
-3.48524e-06
-2.11109e-07
-2.35023e-06
-8.69206e-07
-2.01149e-07
9.24113e-07
-6.8924e-07
2.41533e-06
-1.35328e-06
3.50178e-06
-2.10001e-06
4.19687e-06
-2.85973e-06
4.55349e-06
-3.58562e-06
4.63997e-06
-4.24993e-06
4.52618e-06
-4.83926e-06
4.27546e-06
-5.35008e-06
3.94053e-06
-5.78507e-06
3.56244e-06
-6.15042e-06
3.17127e-06
-6.45389e-06
2.78761e-06
-6.70365e-06
2.42431e-06
-6.90747e-06
2.08821e-06
-7.07237e-06
1.78155e-06
-7.20439e-06
1.50319e-06
-7.30851e-06
1.24947e-06
-7.38867e-06
1.01494e-06
-7.44775e-06
7.92827e-07
-7.48763e-06
5.75385e-07
-7.5092e-06
3.54179e-07
-7.51229e-06
1.20317e-07
-7.49565e-06
-1.35299e-07
-7.45682e-06
-4.2167e-07
-7.39196e-06
-7.47272e-07
-7.29566e-06
-1.11947e-06
-7.16071e-06
-1.54367e-06
-6.97794e-06
-2.0222e-06
-6.73614e-06
-2.55272e-06
-6.42236e-06
-3.12631e-06
-6.02267e-06
-3.725e-06
-5.52385e-06
-4.31906e-06
-4.91627e-06
-4.86432e-06
-4.1983e-06
-5.30019e-06
-3.38235e-06
-5.54966e-06
-2.5019e-06
-5.52296e-06
-1.61813e-06
-5.1268e-06
-8.23438e-07
-4.27993e-06
-2.38633e-07
-2.93504e-06
-1.10784e-06
-2.25405e-07
1.14952e-06
-7.6125e-07
2.95118e-06
-1.47062e-06
4.21115e-06
-2.24235e-06
4.9686e-06
-2.99881e-06
5.30995e-06
-3.693e-06
5.33415e-06
-4.30163e-06
5.13482e-06
-4.81781e-06
4.79165e-06
-5.24476e-06
4.36747e-06
-5.5911e-06
3.90878e-06
-5.86771e-06
3.44789e-06
-6.08582e-06
3.00572e-06
-6.2559e-06
2.59439e-06
-6.38716e-06
2.21947e-06
-6.48739e-06
1.88179e-06
-6.56299e-06
1.57879e-06
-6.61909e-06
1.30556e-06
-6.65966e-06
1.05552e-06
-6.68773e-06
8.20893e-07
-6.70542e-06
5.93073e-07
-6.71404e-06
3.62808e-07
-6.71413e-06
1.20402e-07
-6.70531e-06
-1.44115e-07
-6.68622e-06
-4.40761e-07
-6.65422e-06
-7.79276e-07
-6.60506e-06
-1.16862e-06
-6.53248e-06
-1.61625e-06
-6.42768e-06
-2.127e-06
-6.27889e-06
-2.70152e-06
-6.07111e-06
-3.33409e-06
-5.78638e-06
-4.00973e-06
-5.40493e-06
-4.70052e-06
-4.90788e-06
-5.36137e-06
-4.28217e-06
-5.92591e-06
-3.5281e-06
-6.30373e-06
-2.66956e-06
-6.3815e-06
-1.76519e-06
-6.03116e-06
-9.17108e-07
-5.12802e-06
-2.71062e-07
-3.58108e-06
-1.3789e-06
-2.55671e-07
1.40519e-06
-8.4412e-07
3.53963e-06
-1.59265e-06
4.95968e-06
-2.36927e-06
5.74521e-06
-3.09064e-06
6.03133e-06
-3.71403e-06
5.95754e-06
-4.22519e-06
5.64598e-06
-4.62736e-06
5.19381e-06
-4.93285e-06
4.67297e-06
-5.1575e-06
4.13342e-06
-5.31734e-06
3.60773e-06
-5.42693e-06
3.1153e-06
-5.49861e-06
2.66608e-06
-5.54247e-06
2.26333e-06
-5.56646e-06
1.90578e-06
-5.57678e-06
1.58911e-06
-5.57817e-06
1.30695e-06
-5.57427e-06
1.05162e-06
-5.56786e-06
8.14482e-07
-5.56107e-06
5.86278e-07
-5.55549e-06
3.57231e-07
-5.55225e-06
1.17161e-07
-5.55193e-06
-1.44435e-07
-5.55442e-06
-4.38268e-07
-5.55863e-06
-7.75065e-07
-5.56203e-06
-1.16522e-06
-5.56005e-06
-1.61824e-06
-5.54528e-06
-2.14177e-06
-5.50662e-06
-2.74019e-06
-5.42834e-06
-3.41237e-06
-5.28958e-06
-4.14848e-06
-5.06461e-06
-4.92549e-06
-4.72469e-06
-5.70128e-06
-4.24281e-06
-6.40779e-06
-3.60229e-06
-6.94425e-06
-2.81031e-06
-7.17347e-06
-1.91535e-06
-6.92612e-06
-1.02453e-06
-6.01884e-06
-3.11685e-07
-4.29393e-06
-1.69059e-06
-2.9716e-07
1.70235e-06
-9.46875e-07
4.18934e-06
-1.72538e-06
5.73818e-06
-2.47775e-06
6.49759e-06
-3.12052e-06
6.6741e-06
-3.62277e-06
6.4598e-06
-3.98583e-06
6.00904e-06
-4.22744e-06
5.43542e-06
-4.37134e-06
4.81687e-06
-4.44133e-06
4.20341e-06
-4.45834e-06
3.62475e-06
-4.43948e-06
3.09644e-06
-4.398e-06
2.6246e-06
-4.34381e-06
2.20914e-06
-4.28413e-06
1.8461e-06
-4.22414e-06
1.52911e-06
-4.16755e-06
1.25036e-06
-4.1171e-06
1.00117e-06
-4.07492e-06
7.72299e-07
-4.04281e-06
5.54165e-07
-4.02241e-06
3.36838e-07
-4.01533e-06
1.10075e-07
-4.02304e-06
-1.36719e-07
-4.04682e-06
-4.14489e-07
-4.08739e-06
-7.34497e-07
-4.14445e-06
-1.10816e-06
-4.21597e-06
-1.54673e-06
-4.29712e-06
-2.06061e-06
-4.37908e-06
-2.65823e-06
-4.44741e-06
-3.34404e-06
-4.48055e-06
-4.11535e-06
-4.4487e-06
-4.95733e-06
-4.31418e-06
-5.8358e-06
-4.03466e-06
-6.68732e-06
-3.57166e-06
-7.40725e-06
-2.90665e-06
-7.83848e-06
-2.06597e-06
-7.7668e-06
-1.15152e-06
-6.93329e-06
-3.65389e-07
-5.08006e-06
-2.05598e-06
-3.58333e-07
2.06068e-06
-1.08088e-06
4.91189e-06
-1.87092e-06
6.52822e-06
-2.55289e-06
7.17956e-06
-3.05519e-06
7.1764e-06
-3.37087e-06
6.77547e-06
-3.52529e-06
6.16346e-06
-3.55521e-06
5.46534e-06
-3.49725e-06
4.7589e-06
-3.38265e-06
4.08881e-06
-3.23583e-06
3.47793e-06
-3.07469e-06
2.9353e-06
-2.91169e-06
2.46159e-06
-2.75507e-06
2.05252e-06
-2.61008e-06
1.70111e-06
-2.47989e-06
1.39893e-06
-2.36644e-06
1.13691e-06
-2.27096e-06
9.0569e-07
-2.1945e-06
6.95833e-07
-2.13816e-06
4.97831e-07
-2.1034e-06
3.02071e-07
-2.09205e-06
9.87281e-08
-2.10641e-06
-1.22354e-07
-2.14912e-06
-3.71789e-07
-2.22285e-06
-6.60761e-07
-2.32995e-06
-1.00107e-06
-2.47162e-06
-1.40506e-06
-2.64688e-06
-1.88535e-06
-2.85099e-06
-2.45411e-06
-3.07338e-06
-3.12165e-06
-3.29506e-06
-3.89367e-06
-3.48586e-06
-4.76653e-06
-3.60232e-06
-5.71934e-06
-3.58804e-06
-6.7016e-06
-3.37961e-06
-7.61568e-06
-2.92299e-06
-8.2951e-06
-2.20529e-06
-8.48449e-06
-1.30358e-06
-7.835e-06
-4.39916e-07
-5.94372e-06
-2.49589e-06
-4.52897e-07
2.51358e-06
-1.25797e-06
5.71696e-06
-2.01872e-06
7.28897e-06
-2.55387e-06
7.71471e-06
-2.82703e-06
7.44956e-06
-2.87272e-06
6.82117e-06
-2.74969e-06
6.04042e-06
-2.51653e-06
5.23218e-06
-2.22166e-06
4.46403e-06
-1.90104e-06
3.76819e-06
-1.57935e-06
3.15624e-06
-1.27233e-06
2.62828e-06
-9.89161e-07
2.17842e-06
-7.34536e-07
1.7979e-06
-5.10285e-07
1.47686e-06
-3.16576e-07
1.20522e-06
-1.52797e-07
9.73129e-07
-1.81888e-08
7.71082e-07
8.77123e-08
5.89932e-07
1.64765e-07
4.20779e-07
2.12013e-07
2.54823e-07
2.27556e-07
8.31845e-08
2.08506e-07
-1.03303e-07
1.51021e-07
-3.14304e-07
5.04751e-08
-5.60215e-07
-9.82079e-08
-8.52383e-07
-2.99953e-07
-1.20331e-06
-5.58544e-07
-1.62676e-06
-8.75071e-07
-2.13759e-06
-1.24559e-06
-2.75113e-06
-1.65779e-06
-3.48147e-06
-2.08662e-06
-4.33771e-06
-2.48919e-06
-5.31677e-06
-2.80056e-06
-6.39023e-06
-2.93388e-06
-7.48236e-06
-2.79206e-06
-8.43691e-06
-2.30195e-06
-8.97461e-06
-1.48228e-06
-8.65467e-06
-5.4738e-07
-6.87862e-06
-3.04327e-06
-6.01315e-07
3.11489e-06
-1.48122e-06
6.59686e-06
-2.12359e-06
7.93134e-06
-2.38581e-06
7.97694e-06
-2.30676e-06
7.37051e-06
-1.98342e-06
6.49783e-06
-1.51389e-06
5.57089e-06
-9.76191e-07
4.69448e-06
-4.24755e-07
3.91259e-06
1.06011e-07
3.23743e-06
5.96556e-07
2.6657e-06
1.03747e-06
2.18737e-06
1.4258e-06
1.79008e-06
1.76247e-06
1.46124e-06
2.05035e-06
1.18897e-06
2.29313e-06
9.62438e-07
2.49446e-06
7.718e-07
2.65742e-06
6.08123e-07
2.78418e-06
4.63175e-07
2.87574e-06
3.29211e-07
2.93182e-06
1.98746e-07
2.95068e-06
6.43277e-08
2.92908e-06
-8.17057e-08
2.86227e-06
-2.4749e-07
2.74398e-06
-4.41929e-07
2.56663e-06
-6.75033e-07
2.32163e-06
-9.58311e-07
2.00007e-06
-1.3052e-06
1.59395e-06
-1.73146e-06
1.09825e-06
-2.25543e-06
5.14403e-07
-2.89762e-06
-1.4437e-07
-3.67894e-06
-8.4536e-07
-4.61578e-06
-1.52666e-06
-5.70893e-06
-2.08806e-06
-6.92096e-06
-2.39062e-06
-8.13435e-06
-2.28167e-06
-9.08356e-06
-1.67241e-06
-9.26393e-06
-7.04042e-07
-7.84699e-06
-3.74731e-06
-8.24735e-07
3.93963e-06
-1.71198e-06
7.48411e-06
-2.05353e-06
8.27289e-06
-1.84624e-06
7.76965e-06
-1.26033e-06
6.78459e-06
-4.69626e-07
5.70713e-06
3.94768e-07
4.7065e-06
1.24862e-06
3.84063e-06
2.0445e-06
3.11672e-06
2.7598e-06
2.52212e-06
3.3873e-06
2.0382e-06
3.92854e-06
1.64614e-06
4.3896e-06
1.32902e-06
4.77849e-06
1.07235e-06
5.10355e-06
8.63909e-07
5.37258e-06
6.93411e-07
5.59226e-06
5.52116e-07
5.76792e-06
4.3247e-07
5.9033e-06
3.27788e-07
6.00054e-06
2.31974e-07
6.06001e-06
1.39272e-07
6.08031e-06
4.40304e-08
6.05814e-06
-5.95355e-08
5.98825e-06
-1.77594e-07
5.86331e-06
-3.16994e-07
5.6739e-06
-4.85628e-07
5.40849e-06
-6.92898e-07
5.05362e-06
-9.50323e-07
4.59447e-06
-1.27232e-06
4.01617e-06
-1.67713e-06
3.30633e-06
-2.18779e-06
2.46003e-06
-2.83263e-06
1.48837e-06
-3.64412e-06
4.32471e-07
-4.65304e-06
-6.16835e-07
-5.87165e-06
-1.49852e-06
-7.25267e-06
-1.97814e-06
-8.60394e-06
-1.80366e-06
-9.43842e-06
-9.19328e-07
-8.73132e-06
-4.66664e-06
-1.10869e-06
5.04832e-06
-1.77222e-06
8.14764e-06
-1.47485e-06
7.97551e-06
-5.31505e-07
6.82631e-06
7.10751e-07
5.54233e-06
2.01971e-06
4.39817e-06
3.26454e-06
3.46167e-06
4.38388e-06
2.72128e-06
5.35764e-06
2.14296e-06
6.18752e-06
1.69224e-06
6.88543e-06
1.34029e-06
7.46711e-06
1.06445e-06
7.94882e-06
8.47309e-07
8.34568e-06
6.75495e-07
8.67094e-06
5.38649e-07
8.93574e-06
4.28606e-07
9.14907e-06
3.38785e-07
9.3178e-06
2.63743e-07
9.44676e-06
1.98828e-07
9.53881e-06
1.3992e-07
9.59488e-06
8.32086e-08
9.61391e-06
2.50009e-08
9.59283e-06
-3.84594e-08
9.52643e-06
-1.1119e-07
9.40714e-06
-1.97704e-07
9.22481e-06
-3.03303e-07
8.96641e-06
-4.34495e-07
8.61565e-06
-5.99566e-07
8.15276e-06
-8.09432e-07
7.55449e-06
-1.07886e-06
6.7949e-06
-1.42819e-06
5.84796e-06
-1.88569e-06
4.69395e-06
-2.49011e-06
3.33309e-06
-3.29218e-06
1.8115e-06
-4.35006e-06
2.63207e-07
-5.70437e-06
-1.03825e-06
-7.30249e-06
-1.6542e-06
-8.82246e-06
-1.1503e-06
-9.23521e-06
-5.81694e-06
-1.27829e-06
6.3266e-06
-1.09191e-06
7.96127e-06
3.78494e-07
6.50511e-06
2.3064e-06
4.8984e-06
4.23177e-06
3.61696e-06
5.96285e-06
2.66708e-06
7.44116e-06
1.98337e-06
8.66981e-06
1.49263e-06
9.67636e-06
1.1364e-06
1.04947e-05
8.73872e-07
1.11575e-05
6.77527e-07
1.16932e-05
5.28772e-07
1.21257e-05
4.14817e-07
1.24745e-05
3.26659e-07
1.27554e-05
2.57779e-07
1.29807e-05
2.03314e-07
1.31599e-05
1.59512e-07
1.33003e-05
1.23382e-07
1.34067e-05
9.2445e-08
1.34821e-05
6.45541e-08
1.35275e-05
3.77606e-08
1.35423e-05
1.01985e-08
1.35239e-05
-2.00216e-08
1.34676e-05
-5.49236e-08
1.33667e-05
-9.67991e-08
1.32118e-05
-1.48384e-07
1.29904e-05
-2.1311e-07
1.26863e-05
-2.95484e-07
1.22786e-05
-4.01685e-07
1.17402e-05
-5.40529e-07
1.10371e-05
-7.25052e-07
1.01265e-05
-9.75135e-07
8.95823e-06
-1.3218e-06
7.47999e-06
-1.81394e-06
5.65672e-06
-2.52678e-06
3.51686e-06
-3.56452e-06
1.2482e-06
-5.03383e-06
-6.34541e-07
-6.93972e-06
-1.17279e-06
-8.69696e-06
-6.98974e-06
-4.29244e-07
6.75585e-06
2.01581e-06
5.51621e-06
5.13252e-06
3.3884e-06
7.90698e-06
2.12395e-06
1.01464e-05
1.37758e-06
1.18936e-05
9.19857e-07
1.32425e-05
6.34476e-07
1.42834e-05
4.51717e-07
1.50897e-05
3.30149e-07
1.57173e-05
2.46188e-07
1.62085e-05
1.86352e-07
1.65946e-05
1.42646e-07
1.68993e-05
1.10114e-07
1.71405e-05
8.5535e-08
1.73315e-05
6.67175e-08
1.74827e-05
5.21029e-08
1.76017e-05
4.0534e-08
1.7694e-05
3.11147e-08
1.77633e-05
2.31197e-08
1.78119e-05
1.5933e-08
1.78407e-05
9.00241e-09
1.78491e-05
1.80376e-09
1.78353e-05
-6.19199e-09
1.77959e-05
-1.55527e-08
1.7726e-05
-2.69258e-08
1.76187e-05
-4.10924e-08
1.74647e-05
-5.90482e-08
1.72513e-05
-8.21311e-08
1.69618e-05
-1.12233e-07
1.65735e-05
-1.52173e-07
1.60548e-05
-2.06376e-07
1.53619e-05
-2.82188e-07
1.44325e-05
-3.9248e-07
1.31795e-05
-5.60944e-07
1.14851e-05
-8.32316e-07
9.21081e-06
-1.29025e-06
6.2637e-06
-2.08672e-06
2.8161e-06
-3.49212e-06
-7.21079e-08
-5.80875e-06
-7.06185e-06
6.75585e-06
1.22721e-05
1.56605e-05
1.77844e-05
1.9162e-05
2.00818e-05
2.07163e-05
2.1168e-05
2.14982e-05
2.17444e-05
2.19307e-05
2.20734e-05
2.21835e-05
2.2269e-05
2.23357e-05
2.23878e-05
2.24284e-05
2.24595e-05
2.24826e-05
2.24985e-05
2.25075e-05
2.25093e-05
2.25031e-05
2.24876e-05
2.24607e-05
2.24196e-05
2.23605e-05
2.22784e-05
2.21662e-05
2.2014e-05
2.18076e-05
2.15254e-05
2.11329e-05
2.0572e-05
1.97397e-05
1.84494e-05
1.63627e-05
1.28706e-05
7.06185e-06
)
;

boundaryField
{
    movingWall
    {
        type            calculated;
        value           uniform 0;
    }
    fixedWalls
    {
        type            calculated;
        value           uniform 0;
    }
    frontAndBack
    {
        type            empty;
        value           nonuniform 0();
    }
}


// ************************************************************************* //
