/*--------------------------------*- C++ -*----------------------------------*\
  =========                 |
  \\      /  F ield         | OpenFOAM: The Open Source CFD Toolbox
   \\    /   O peration     | Website:  https://openfoam.org
    \\  /    A nd           | Version:  6.0
     \\/     M anipulation  |
\*---------------------------------------------------------------------------*/
FoamFile
{
    version     2.0;
    format      ascii;
    class       volVectorField;
    location    "0.1";
    object      U;
}
// * * * * * * * * * * * * * * * * * * * * * * * * * * * * * * * * * * * * * //

dimensions      [0 1 -1 0 0 0 0];

internalField   nonuniform List<vector> 
800
(
(0.000347086 -0.000345538 0)
(0.000381129 1.98615e-05 0)
(-0.000933112 0.000544568 0)
(-0.00347246 0.000956892 0)
(-0.00689594 0.00122231 0)
(-0.0108539 0.00135905 0)
(-0.0150494 0.00139687 0)
(-0.0192552 0.00136557 0)
(-0.0233117 0.00129013 0)
(-0.0271163 0.00118964 0)
(-0.0306112 0.00107793 0)
(-0.0337716 0.000964491 0)
(-0.0365957 0.000855384 0)
(-0.0390965 0.000754085 0)
(-0.0412952 0.000662099 0)
(-0.0432163 0.000579447 0)
(-0.044883 0.000505021 0)
(-0.0463147 0.000436819 0)
(-0.047524 0.00037211 0)
(-0.0485151 0.000307547 0)
(-0.049282 0.000239257 0)
(-0.049807 0.000162957 0)
(-0.0500604 7.40996e-05 0)
(-0.0499999 -3.18879e-05 0)
(-0.0495719 -0.000159252 0)
(-0.0487129 -0.000311411 0)
(-0.0473535 -0.000490272 0)
(-0.0454241 -0.000695359 0)
(-0.0428629 -0.000922799 0)
(-0.0396268 -0.00116422 0)
(-0.035705 -0.00140574 0)
(-0.0311341 -0.00162725 0)
(-0.0260139 -0.00180218 0)
(-0.0205227 -0.00189806 0)
(-0.0149273 -0.0018781 0)
(-0.00958681 -0.00170469 0)
(-0.00493996 -0.00134651 0)
(-0.00147086 -0.000791125 0)
(0.000370793 -9.04776e-05 0)
(0.000417149 0.000412893 0)
(-3.79055e-06 -0.000399345 0)
(-0.00155642 0.00155951 0)
(-0.00608117 0.00392756 0)
(-0.0131394 0.00585878 0)
(-0.0220697 0.00717629 0)
(-0.0321983 0.00790736 0)
(-0.0428997 0.00815197 0)
(-0.0536585 0.00803051 0)
(-0.0640899 0.00765612 0)
(-0.0739308 0.00712356 0)
(-0.0830203 0.00650676 0)
(-0.0912779 0.00585991 0)
(-0.0986815 0.00522007 0)
(-0.105249 0.00461019 0)
(-0.111021 0.00404187 0)
(-0.116049 0.00351775 0)
(-0.120385 0.00303348 0)
(-0.12407 0.00257909 0)
(-0.127133 0.0021402 0)
(-0.129579 0.00169887 0)
(-0.131393 0.00123443 0)
(-0.13253 0.000724353 0)
(-0.132918 0.000145368 0)
(-0.132458 -0.000525033 0)
(-0.131023 -0.00130654 0)
(-0.128471 -0.00221324 0)
(-0.124647 -0.00325014 0)
(-0.119403 -0.00440884 0)
(-0.112614 -0.00566283 0)
(-0.104203 -0.0069627 0)
(-0.0941729 -0.00823217 0)
(-0.0826372 -0.00936598 0)
(-0.0698532 -0.0102311 0)
(-0.0562481 -0.0106724 0)
(-0.0424345 -0.0105255 0)
(-0.0292022 -0.00963858 0)
(-0.0174663 -0.00791138 0)
(-0.00816497 -0.00535374 0)
(-0.00217329 -0.00222937 0)
(-5.44893e-05 0.000392311 0)
(-0.000549054 0.000907082 0)
(-0.00408676 0.0061171 0)
(-0.0120182 0.0116389 0)
(-0.0233249 0.0161501 0)
(-0.0370322 0.0192858 0)
(-0.0522635 0.0210636 0)
(-0.0681957 0.0216752 0)
(-0.0841362 0.0213782 0)
(-0.0995581 0.0204312 0)
(-0.114094 0.019062 0)
(-0.127516 0.017455 0)
(-0.139705 0.0157497 0)
(-0.150625 0.0140445 0)
(-0.160298 0.0124019 0)
(-0.168779 0.0108553 0)
(-0.176138 0.00941409 0)
(-0.182446 0.00806913 0)
(-0.187764 0.00679617 0)
(-0.192129 0.00555924 0)
(-0.195552 0.00431323 0)
(-0.19801 0.00300633 0)
(-0.199442 0.00158259 0)
(-0.19975 -1.4959e-05 0)
(-0.198798 -0.00184027 0)
(-0.196418 -0.00393895 0)
(-0.192416 -0.00634139 0)
(-0.186588 -0.00905418 0)
(-0.178736 -0.0120501 0)
(-0.168699 -0.015257 0)
(-0.15638 -0.0185475 0)
(-0.141788 -0.0217303 0)
(-0.125082 -0.0245473 0)
(-0.106607 -0.0266784 0)
(-0.0869353 -0.0277592 0)
(-0.0668772 -0.0274156 0)
(-0.0474726 -0.0253215 0)
(-0.0299141 -0.0212886 0)
(-0.0154198 -0.0153904 0)
(-0.0052658 -0.00818542 0)
(-0.000721872 -0.00135951 0)
(-0.0010455 0.0035897 0)
(-0.00649753 0.0135922 0)
(-0.0177296 0.0231867 0)
(-0.0329966 0.0308485 0)
(-0.0509418 0.0361264 0)
(-0.0704947 0.0390773 0)
(-0.0906836 0.0400196 0)
(-0.110702 0.0393809 0)
(-0.129942 0.0375978 0)
(-0.147986 0.0350623 0)
(-0.164577 0.0320967 0)
(-0.179587 0.0289484 0)
(-0.192987 0.0257934 0)
(-0.20481 0.022745 0)
(-0.215131 0.0198644 0)
(-0.22404 0.01717 0)
(-0.231628 0.0146461 0)
(-0.237972 0.0122501 0)
(-0.243122 0.00991869 0)
(-0.247095 0.0075721 0)
(-0.249868 0.00511928 0)
(-0.251375 0.00246247 0)
(-0.251506 -0.000497132 0)
(-0.250106 -0.00385223 0)
(-0.246984 -0.00768017 0)
(-0.241917 -0.0120312 0)
(-0.234669 -0.0169139 0)
(-0.225009 -0.0222785 0)
(-0.21274 -0.0279983 0)
(-0.197739 -0.0338521 0)
(-0.179993 -0.0395109 0)
(-0.159656 -0.0445322 0)
(-0.137094 -0.0483697 0)
(-0.112929 -0.0504043 0)
(-0.0880661 -0.0500037 0)
(-0.0636923 -0.0466196 0)
(-0.0412007 -0.0399293 0)
(-0.0220708 -0.0300154 0)
(-0.00805631 -0.0176235 0)
(-0.00129006 -0.00474823 0)
(-0.00146663 0.00749733 0)
(-0.00865009 0.0237472 0)
(-0.0229291 0.0381971 0)
(-0.0417944 0.0493667 0)
(-0.0634564 0.0568718 0)
(-0.0866307 0.0609062 0)
(-0.110212 0.0619779 0)
(-0.133317 0.0607268 0)
(-0.155303 0.0577988 0)
(-0.175746 0.0537719 0)
(-0.194402 0.0491229 0)
(-0.211166 0.0442177 0)
(-0.226035 0.0393171 0)
(-0.239072 0.0345887 0)
(-0.25038 0.0301222 0)
(-0.260076 0.0259437 0)
(-0.268273 0.0220286 0)
(-0.275067 0.0183127 0)
(-0.280524 0.0147007 0)
(-0.284671 0.0110739 0)
(-0.287493 0.0072976 0)
(-0.28893 0.00322741 0)
(-0.288869 -0.00128192 0)
(-0.287153 -0.00636653 0)
(-0.283581 -0.0121403 0)
(-0.277916 -0.0186781 0)
(-0.2699 -0.0259956 0)
(-0.259273 -0.0340249 0)
(-0.2458 -0.0425884 0)
(-0.229308 -0.051373 0)
(-0.209733 -0.0599088 0)
(-0.187169 -0.0675601 0)
(-0.161935 -0.0735353 0)
(-0.134624 -0.0769285 0)
(-0.10616 -0.0768014 0)
(-0.0778131 -0.0723174 0)
(-0.0511482 -0.0629302 0)
(-0.0279303 -0.0486105 0)
(-0.010454 -0.030121 0)
(-0.00174743 -0.00951243 0)
(-0.00182658 0.0124691 0)
(-0.010555 0.036329 0)
(-0.0275835 0.0563564 0)
(-0.0496429 0.071289 0)
(-0.0744803 0.0809672 0)
(-0.100578 0.0858451 0)
(-0.126705 0.086709 0)
(-0.15193 0.0844718 0)
(-0.175617 0.0800261 0)
(-0.197378 0.0741587 0)
(-0.217019 0.067512 0)
(-0.234489 0.0605747 0)
(-0.249838 0.0536919 0)
(-0.263174 0.0470827 0)
(-0.27464 0.0408611 0)
(-0.284387 0.0350566 0)
(-0.292555 0.0296312 0)
(-0.29926 0.0244949 0)
(-0.304587 0.0195172 0)
(-0.308581 0.0145377 0)
(-0.311239 0.00937486 0)
(-0.312513 0.00383544 0)
(-0.3123 -0.00227545 0)
(-0.310452 -0.00914128 0)
(-0.30677 -0.0169179 0)
(-0.301014 -0.0257124 0)
(-0.292911 -0.0355573 0)
(-0.282172 -0.0463795 0)
(-0.268518 -0.057965 0)
(-0.251707 -0.0699237 0)
(-0.231584 -0.0816577 0)
(-0.20814 -0.0923426 0)
(-0.181577 -0.100932 0)
(-0.15239 -0.106204 0)
(-0.121448 -0.106852 0)
(-0.0900514 -0.101658 0)
(-0.059919 -0.0897236 0)
(-0.0331259 -0.0707471 0)
(-0.012554 -0.0453327 0)
(-0.00213199 -0.0154356 0)
(-0.00214796 0.0183781 0)
(-0.0122748 0.0510888 0)
(-0.0317751 0.0773174 0)
(-0.056615 0.0961455 0)
(-0.0840555 0.107797 0)
(-0.112337 0.11313 0)
(-0.140122 0.113319 0)
(-0.166464 0.109625 0)
(-0.190778 0.103233 0)
(-0.212756 0.0951598 0)
(-0.232294 0.0862199 0)
(-0.249428 0.077022 0)
(-0.264281 0.0679878 0)
(-0.277024 0.0593783 0)
(-0.28785 0.051323 0)
(-0.296947 0.0438463 0)
(-0.304484 0.0368909 0)
(-0.310603 0.0303361 0)
(-0.315408 0.0240134 0)
(-0.318962 0.0177189 0)
(-0.321281 0.0112236 0)
(-0.322334 0.00428405 0)
(-0.32204 -0.00334546 0)
(-0.320264 -0.0118989 0)
(-0.316823 -0.0215799 0)
(-0.311482 -0.0325374 0)
(-0.303964 -0.0448353 0)
(-0.293956 -0.0584145 0)
(-0.281124 -0.0730499 0)
(-0.265147 -0.0883022 0)
(-0.24575 -0.103472 0)
(-0.222771 -0.117567 0)
(-0.196237 -0.129288 0)
(-0.166469 -0.137067 0)
(-0.134201 -0.139165 0)
(-0.100699 -0.133862 0)
(-0.0677989 -0.119741 0)
(-0.0378939 -0.0960309 0)
(-0.0145001 -0.0629923 0)
(-0.002488 -0.0223861 0)
(-0.00245747 0.0251458 0)
(-0.0139012 0.0678293 0)
(-0.0356523 0.100746 0)
(-0.0628674 0.123434 0)
(-0.0922953 0.136679 0)
(-0.121944 0.141911 0)
(-0.150403 0.140824 0)
(-0.176769 0.135114 0)
(-0.20056 0.126305 0)
(-0.221601 0.115663 0)
(-0.239919 0.104172 0)
(-0.255664 0.092549 0)
(-0.269056 0.0812767 0)
(-0.280341 0.0706416 0)
(-0.289765 0.0607738 0)
(-0.297554 0.0516814 0)
(-0.303909 0.0432794 0)
(-0.308991 0.0354117 0)
(-0.312925 0.0278695 0)
(-0.31579 0.0204048 0)
(-0.317625 0.012742 0)
(-0.318418 0.00458925 0)
(-0.318114 -0.00434992 0)
(-0.316606 -0.0143615 0)
(-0.313734 -0.025702 0)
(-0.309282 -0.0385722 0)
(-0.302977 -0.0530845 0)
(-0.294491 -0.069219 0)
(-0.283445 -0.0867722 0)
(-0.269429 -0.105296 0)
(-0.252032 -0.124032 0)
(-0.230901 -0.141856 0)
(-0.205828 -0.157239 0)
(-0.17688 -0.168251 0)
(-0.144561 -0.172652 0)
(-0.110002 -0.168084 0)
(-0.0750832 -0.152405 0)
(-0.0424973 -0.124132 0)
(-0.0164482 -0.0829501 0)
(-0.00285935 -0.0303237 0)
(-0.00278781 0.0327536 0)
(-0.0155523 0.0864365 0)
(-0.0394115 0.126351 0)
(-0.0686032 0.152635 0)
(-0.0993297 0.166858 0)
(-0.1294 0.171232 0)
(-0.157403 0.168125 0)
(-0.182557 0.159762 0)
(-0.204559 0.148048 0)
(-0.223428 0.134503 0)
(-0.239362 0.120269 0)
(-0.252658 0.106147 0)
(-0.263642 0.092653 0)
(-0.272639 0.0800759 0)
(-0.279949 0.0685265 0)
(-0.285833 0.0579822 0)
(-0.290512 0.0483207 0)
(-0.294164 0.0393457 0)
(-0.296925 0.0308068 0)
(-0.298891 0.0224133 0)
(-0.300117 0.0138465 0)
(-0.300618 0.00476969 0)
(-0.300365 -0.00516093 0)
(-0.299287 -0.0162823 0)
(-0.297258 -0.0289064 0)
(-0.294096 -0.043295 0)
(-0.289551 -0.0596253 0)
(-0.283295 -0.0779441 0)
(-0.274921 -0.098108 0)
(-0.26394 -0.11971 0)
(-0.249803 -0.141994 0)
(-0.231947 -0.163764 0)
(-0.209879 -0.183304 0)
(-0.183323 -0.198338 0)
(-0.152432 -0.206071 0)
(-0.118062 -0.203364 0)
(-0.0820059 -0.187109 0)
(-0.0471876 -0.154786 0)
(-0.0185568 -0.105182 0)
(-0.0032911 -0.0392985 0)
(-0.00318477 0.0412592 0)
(-0.0173866 0.106903 0)
(-0.0433 0.153886 0)
(-0.0740466 0.183178 0)
(-0.105247 0.197453 0)
(-0.134591 0.19997 0)
(-0.16079 0.193953 0)
(-0.183299 0.182243 0)
(-0.202098 0.167153 0)
(-0.217463 0.150446 0)
(-0.229809 0.133385 0)
(-0.239595 0.116814 0)
(-0.24726 0.101246 0)
(-0.253202 0.0869382 0)
(-0.257762 0.0739585 0)
(-0.261222 0.0622369 0)
(-0.263812 0.0516042 0)
(-0.265711 0.0418201 0)
(-0.267059 0.0325926 0)
(-0.267958 0.0235929 0)
(-0.268476 0.014465 0)
(-0.26865 0.00483428 0)
(-0.268484 -0.00568321 0)
(-0.267945 -0.0174703 0)
(-0.266957 -0.0308933 0)
(-0.265384 -0.046279 0)
(-0.263022 -0.0638832 0)
(-0.259573 -0.0838442 0)
(-0.25463 -0.106119 0)
(-0.247657 -0.130401 0)
(-0.23799 -0.15601 0)
(-0.224857 -0.181764 0)
(-0.207449 -0.205847 0)
(-0.185065 -0.225691 0)
(-0.157369 -0.237932 0)
(-0.124745 -0.238529 0)
(-0.0886857 -0.223126 0)
(-0.0521934 -0.18774 0)
(-0.0209998 -0.12978 0)
(-0.00383752 -0.0494544 0)
(-0.00372072 0.0508286 0)
(-0.0196301 0.129351 0)
(-0.0476234 0.183127 0)
(-0.0794041 0.214379 0)
(-0.110004 0.227366 0)
(-0.137157 0.226748 0)
(-0.159892 0.216793 0)
(-0.178074 0.201034 0)
(-0.192083 0.182181 0)
(-0.202524 0.16219 0)
(-0.210061 0.142382 0)
(-0.215315 0.123583 0)
(-0.21883 0.106249 0)
(-0.221052 0.0905692 0)
(-0.222339 0.0765397 0)
(-0.222972 0.0640266 0)
(-0.223166 0.0528056 0)
(-0.223085 0.0425903 0)
(-0.222856 0.0330513 0)
(-0.222574 0.0238281 0)
(-0.222314 0.014537 0)
(-0.22213 0.00477681 0)
(-0.222057 -0.00586573 0)
(-0.222106 -0.0178091 0)
(-0.222257 -0.0314662 0)
(-0.222443 -0.0472271 0)
(-0.222528 -0.0654316 0)
(-0.222281 -0.0863282 0)
(-0.22134 -0.110011 0)
(-0.219175 -0.136332 0)
(-0.215059 -0.164771 0)
(-0.208049 -0.194278 0)
(-0.197028 -0.223064 0)
(-0.180815 -0.248392 0)
(-0.158437 -0.266395 0)
(-0.129563 -0.272053 0)
(-0.0950594 -0.259479 0)
(-0.0577141 -0.222676 0)
(-0.0239918 -0.156934 0)
(-0.00457717 -0.061049 0)
(-0.00451881 0.0617949 0)
(-0.0226176 0.154058 0)
(-0.0527428 0.213807 0)
(-0.084776 0.24531 0)
(-0.113254 0.255144 0)
(-0.136267 0.249812 0)
(-0.153465 0.234813 0)
(-0.165346 0.214385 0)
(-0.172817 0.191566 0)
(-0.176872 0.168397 0)
(-0.178423 0.146156 0)
(-0.178237 0.12557 0)
(-0.176917 0.106974 0)
(-0.17492 0.0904423 0)
(-0.172582 0.0758759 0)
(-0.170146 0.063062 0)
(-0.167784 0.0517165 0)
(-0.16562 0.0415098 0)
(-0.163749 0.032082 0)
(-0.162247 0.023052 0)
(-0.161182 0.0140217 0)
(-0.160618 0.00457822 0)
(-0.160618 -0.00570531 0)
(-0.161238 -0.0172672 0)
(-0.162522 -0.0305525 0)
(-0.164485 -0.0460028 0)
(-0.167088 -0.0640373 0)
(-0.170204 -0.0850205 0)
(-0.173575 -0.109207 0)
(-0.176751 -0.136657 0)
(-0.179024 -0.167102 0)
(-0.179374 -0.199752 0)
(-0.176436 -0.233027 0)
(-0.168557 -0.264227 0)
(-0.154013 -0.289161 0)
(-0.13148 -0.301884 0)
(-0.100755 -0.294742 0)
(-0.0638896 -0.259061 0)
(-0.0278256 -0.186911 0)
(-0.00563915 -0.0745008 0)
(-0.00579637 0.0747634 0)
(-0.0268481 0.181459 0)
(-0.0590192 0.245454 0)
(-0.0899453 0.274559 0)
(-0.114019 0.278749 0)
(-0.130244 0.26688 0)
(-0.139324 0.245791 0)
(-0.142645 0.220323 0)
(-0.141748 0.193664 0)
(-0.138023 0.167768 0)
(-0.132587 0.14373 0)
(-0.12628 0.122066 0)
(-0.119697 0.102928 0)
(-0.11324 0.0862345 0)
(-0.107168 0.0717679 0)
(-0.101641 0.0592311 0)
(-0.0967534 0.0482832 0)
(-0.0925647 0.0385594 0)
(-0.0891164 0.0296822 0)
(-0.0864489 0.0212647 0)
(-0.0846118 0.0129115 0)
(-0.08367 0.00421609 0)
(-0.0837069 -0.00524195 0)
(-0.0848224 -0.0158999 0)
(-0.0871263 -0.0282132 0)
(-0.0907245 -0.0426538 0)
(-0.0956964 -0.0597016 0)
(-0.102059 -0.0798251 0)
(-0.109715 -0.103443 0)
(-0.118381 -0.130851 0)
(-0.127491 -0.162103 0)
(-0.136088 -0.196803 0)
(-0.142711 -0.233799 0)
(-0.145338 -0.270722 0)
(-0.141482 -0.303402 0)
(-0.128589 -0.325229 0)
(-0.104833 -0.326738 0)
(-0.0706952 -0.295895 0)
(-0.0329119 -0.219983 0)
(-0.00724711 -0.0904834 0)
(-0.00793554 0.0907872 0)
(-0.0330298 0.212069 0)
(-0.0666013 0.277045 0)
(-0.0938917 0.299816 0)
(-0.110057 0.295246 0)
(-0.115925 0.274984 0)
(-0.113791 0.247099 0)
(-0.106144 0.216729 0)
(-0.0951727 0.186896 0)
(-0.0825692 0.159209 0)
(-0.0695283 0.134402 0)
(-0.0568347 0.112677 0)
(-0.0449649 0.0939365 0)
(-0.0341787 0.0779193 0)
(-0.0245929 0.0642842 0)
(-0.0162371 0.0526557 0)
(-0.00909523 0.0426487 0)
(-0.00313463 0.0338803 0)
(0.00167286 0.0259731 0)
(0.00533624 0.0185536 0)
(0.00783518 0.0112487 0)
(0.00911347 0.00367906 0)
(0.00907541 -0.0045471 0)
(0.0075855 -0.0138415 0)
(0.00447214 -0.024643 0)
(-0.00046304 -0.0374232 0)
(-0.00742737 -0.05269 0)
(-0.0166068 -0.0709837 0)
(-0.0281169 -0.0928592 0)
(-0.0419271 -0.118843 0)
(-0.0577491 -0.149339 0)
(-0.0748817 -0.18445 0)
(-0.0920133 -0.223662 0)
(-0.107013 -0.265308 0)
(-0.116812 -0.305762 0)
(-0.117556 -0.33834 0)
(-0.105254 -0.352113 0)
(-0.0776385 -0.331245 0)
(-0.0397758 -0.256238 0)
(-0.00978311 -0.110077 0)
(-0.0115586 0.111611 0)
(-0.0419827 0.246148 0)
(-0.0747708 0.306294 0)
(-0.0937202 0.317245 0)
(-0.0967076 0.300459 0)
(-0.0876596 0.270415 0)
(-0.0709459 0.235862 0)
(-0.0501681 0.201616 0)
(-0.0279616 0.170047 0)
(-0.00606096 0.142109 0)
(0.0145021 0.117997 0)
(0.0331886 0.097514 0)
(0.0497816 0.0802871 0)
(0.0642618 0.0658786 0)
(0.0767194 0.053842 0)
(0.087296 0.0437479 0)
(0.0961443 0.0351935 0)
(0.103403 0.0278024 0)
(0.109181 0.0212209 0)
(0.113543 0.0151107 0)
(0.116505 0.00914152 0)
(0.118027 0.0029824 0)
(0.11801 -0.00370781 0)
(0.116294 -0.0112903 0)
(0.112659 -0.0201577 0)
(0.106825 -0.0307458 0)
(0.0984636 -0.0435464 0)
(0.0872168 -0.0591191 0)
(0.0727312 -0.0780976 0)
(0.0547211 -0.101181 0)
(0.0330743 -0.129089 0)
(0.00802275 -0.162447 0)
(-0.0195977 -0.201524 0)
(-0.0479878 -0.245718 0)
(-0.0739771 -0.292613 0)
(-0.092731 -0.336431 0)
(-0.0978494 -0.365821 0)
(-0.0829651 -0.361448 0)
(-0.048826 -0.29506 0)
(-0.0138233 -0.134941 0)
(-0.0174184 0.140029 0)
(-0.0538764 0.282764 0)
(-0.0801066 0.328307 0)
(-0.0823995 0.320609 0)
(-0.0648858 0.288759 0)
(-0.0358597 0.249003 0)
(-0.00174368 0.209477 0)
(0.0332333 0.173696 0)
(0.0665533 0.14279 0)
(0.0969145 0.116772 0)
(0.123795 0.0951894 0)
(0.147131 0.0774364 0)
(0.167108 0.0628998 0)
(0.184028 0.0510139 0)
(0.198228 0.0412778 0)
(0.210039 0.0332539 0)
(0.219754 0.0265602 0)
(0.227616 0.0208588 0)
(0.233807 0.0158457 0)
(0.238446 0.0112397 0)
(0.241585 0.00677278 0)
(0.243202 0.00217999 0)
(0.243204 -0.00281031 0)
(0.241423 -0.00848747 0)
(0.237606 -0.015171 0)
(0.23142 -0.0232254 0)
(0.222444 -0.033079 0)
(0.210175 -0.0452459 0)
(0.194039 -0.060353 0)
(0.173427 -0.0791652 0)
(0.147759 -0.1026 0)
(0.116629 -0.131704 0)
(0.0800584 -0.167515 0)
(0.0389355 -0.210704 0)
(-0.00430908 -0.260706 0)
(-0.0448185 -0.31395 0)
(-0.0743912 -0.360624 0)
(-0.0817271 -0.379834 0)
(-0.0592962 -0.333976 0)
(-0.0198889 -0.167539 0)
(-0.0253615 0.180688 0)
(-0.0653541 0.317422 0)
(-0.071881 0.332891 0)
(-0.0443608 0.300031 0)
(0.00199454 0.253168 0)
(0.0546916 0.206919 0)
(0.106633 0.166599 0)
(0.154281 0.133277 0)
(0.196223 0.106389 0)
(0.23223 0.0849164 0)
(0.262655 0.0678343 0)
(0.288096 0.0542512 0)
(0.309214 0.0434347 0)
(0.32665 0.0347953 0)
(0.340975 0.0278598 0)
(0.352679 0.0222447 0)
(0.362165 0.0176343 0)
(0.369749 0.0137629 0)
(0.375665 0.0104004 0)
(0.380066 0.00734068 0)
(0.383027 0.00439151 0)
(0.384548 0.00136581 0)
(0.384546 -0.00192722 0)
(0.382856 -0.0056915 0)
(0.379226 -0.0101551 0)
(0.373303 -0.0155843 0)
(0.364627 -0.0223022 0)
(0.352615 -0.0307146 0)
(0.336546 -0.0413457 0)
(0.315557 -0.0548862 0)
(0.28865 -0.0722549 0)
(0.254749 -0.0946651 0)
(0.212852 -0.123662 0)
(0.162398 -0.161031 0)
(0.104004 -0.208323 0)
(0.0408232 -0.265371 0)
(-0.0193486 -0.326715 0)
(-0.0616289 -0.374625 0)
(-0.0660151 -0.366188 0)
(-0.0270552 -0.211682 0)
(-0.0293676 0.237886 0)
(-0.0606749 0.335238 0)
(-0.0218278 0.300827 0)
(0.0520087 0.242129 0)
(0.131872 0.187456 0)
(0.205991 0.143143 0)
(0.270399 0.109218 0)
(0.324408 0.0837457 0)
(0.368841 0.064639 0)
(0.40504 0.0502185 0)
(0.434384 0.0392436 0)
(0.458112 0.0308194 0)
(0.477273 0.0243009 0)
(0.492734 0.0192175 0)
(0.505195 0.0152191 0)
(0.515214 0.0120394 0)
(0.523225 0.00946988 0)
(0.529559 0.00734203 0)
(0.534456 0.00551498 0)
(0.53807 0.00386592 0)
(0.540484 0.00228272 0)
(0.541703 0.000657702 0)
(0.541664 -0.00111831 0)
(0.540222 -0.0031622 0)
(0.537154 -0.005606 0)
(0.53214 -0.00860661 0)
(0.524747 -0.0123596 0)
(0.51441 -0.0171193 0)
(0.500393 -0.0232302 0)
(0.481752 -0.0311745 0)
(0.457273 -0.0416472 0)
(0.425424 -0.05567 0)
(0.384319 -0.0747563 0)
(0.331806 -0.101114 0)
(0.265895 -0.137762 0)
(0.185943 -0.188053 0)
(0.0949735 -0.253378 0)
(0.0049816 -0.326835 0)
(-0.0509952 -0.373741 0)
(-0.0273813 -0.268634 0)
(0.00903117 0.280757 0)
(0.0202593 0.294399 0)
(0.138084 0.210778 0)
(0.264012 0.143954 0)
(0.365597 0.0986746 0)
(0.444595 0.0685611 0)
(0.505755 0.0486209 0)
(0.552914 0.0352558 0)
(0.589326 0.0260765 0)
(0.617584 0.0196006 0)
(0.639639 0.0149206 0)
(0.656939 0.0114702 0)
(0.670567 0.00888472 0)
(0.681339 0.00692127 0)
(0.689872 0.0054116 0)
(0.696634 0.00423473 0)
(0.701975 0.00330019 0)
(0.706155 0.00253763 0)
(0.709358 0.00188991 0)
(0.711701 0.00130843 0)
(0.713246 0.000749611 0)
(0.713999 0.000172064 0)
(0.713913 -0.000465966 0)
(0.712887 -0.00120927 0)
(0.710756 -0.00210886 0)
(0.707287 -0.00322627 0)
(0.702159 -0.00463984 0)
(0.694943 -0.00645454 0)
(0.685063 -0.00881815 0)
(0.671745 -0.0119488 0)
(0.65393 -0.0161839 0)
(0.630147 -0.0220684 0)
(0.598319 -0.0305193 0)
(0.555491 -0.0431267 0)
(0.497605 -0.0626608 0)
(0.419461 -0.0937348 0)
(0.314402 -0.14324 0)
(0.178147 -0.219073 0)
(0.0441167 -0.313228 0)
(0.0199647 -0.299618 0)
(0.300422 0.145692 0)
(0.396774 0.127133 0)
(0.556551 0.0759161 0)
(0.673508 0.0437274 0)
(0.743366 0.0257769 0)
(0.787651 0.0156836 0)
(0.817756 0.00993503 0)
(0.838927 0.00657579 0)
(0.854203 0.00452748 0)
(0.865485 0.0032169 0)
(0.87397 0.00234061 0)
(0.880433 0.0017332 0)
(0.885405 0.00130032 0)
(0.889256 0.000985233 0)
(0.892256 0.000751882 0)
(0.894599 0.000576042 0)
(0.896427 0.000440571 0)
(0.897843 0.000332704 0)
(0.898916 0.000242436 0)
(0.899692 0.000161474 0)
(0.90019 8.25173e-05 0)
(0.90041 -1.29539e-06 0)
(0.900331 -9.68722e-05 0)
(0.89991 -0.000211663 0)
(0.899081 -0.000354257 0)
(0.89775 -0.000535195 0)
(0.895785 -0.000768231 0)
(0.893014 -0.00107241 0)
(0.889198 -0.00147573 0)
(0.884009 -0.00202202 0)
(0.876982 -0.00278448 0)
(0.867425 -0.00389372 0)
(0.854262 -0.00559823 0)
(0.835718 -0.00839574 0)
(0.808776 -0.0133084 0)
(0.768029 -0.0224143 0)
(0.701621 -0.0398142 0)
(0.585018 -0.0730275 0)
(0.416969 -0.127873 0)
(0.309722 -0.149149 0)
)
;

boundaryField
{
    movingWall
    {
        type            fixedValue;
        value           uniform (1 0 0);
    }
    fixedWalls
    {
        type            noSlip;
    }
    frontAndBack
    {
        type            empty;
    }
}


// ************************************************************************* //
