1.45 	0 	0 	-0.00813532 	-0.00258546 	1.65342e-20
2.35 	0 	0 	0.0621193 	-0.00662726 	9.88731e-21
