/*--------------------------------*- C++ -*----------------------------------*\
  =========                 |
  \\      /  F ield         | OpenFOAM: The Open Source CFD Toolbox
   \\    /   O peration     | Website:  https://openfoam.org
    \\  /    A nd           | Version:  6.0
     \\/     M anipulation  |
\*---------------------------------------------------------------------------*/
FoamFile
{
    version     2.0;
    format      ascii;
    class       volScalarField;
    location    "0.2";
    object      p;
}
// * * * * * * * * * * * * * * * * * * * * * * * * * * * * * * * * * * * * * //

dimensions      [0 2 -2 0 0 0 0];

internalField   nonuniform List<scalar> 
200
(
-5.3773e-09
-0.0061466
-0.00984891
-0.0093134
-0.00487251
0.00300489
0.0139897
0.0279309
0.0448559
0.0649315
0.0883875
0.115378
0.145742
0.178644
0.212153
0.242947
0.266571
0.278597
0.276918
0.266412
0.00625696
-0.000393537
-0.00300636
-0.00169021
0.00271579
0.0100418
0.0202414
0.0332931
0.0492262
0.068116
0.0900518
0.115056
0.142924
0.172952
0.203576
0.232079
0.254749
0.267658
0.267628
0.25624
0.00995346
0.00103384
-0.00164409
5.9104e-05
0.00448814
0.0115366
0.0212795
0.0337308
0.048886
0.0667495
0.0873533
0.11074
0.136871
0.165403
0.19529
0.224328
0.249012
0.264784
0.266006
0.251216
0.00652493
-0.00461896
-0.00735395
-0.00511243
-0.000306988
0.00697081
0.016817
0.0291837
0.0439653
0.0610718
0.0805038
0.102405
0.127039
0.154614
0.184844
0.216278
0.245694
0.267504
0.272698
0.256048
-0.00771934
-0.0197625
-0.02119
-0.0172909
-0.0111088
-0.00265228
0.00816131
0.0211663
0.0361188
0.0528247
0.0712684
0.0917266
0.114819
0.141404
0.172173
0.206866
0.243161
0.274868
0.289262
0.275613
-0.0372009
-0.0470258
-0.0438531
-0.0358514
-0.0264511
-0.0153738
-0.0024903
0.0119638
0.0276731
0.0444142
0.0622193
0.0815326
0.103323
0.129074
0.160516
0.198931
0.243758
0.289444
0.320511
0.319257
-0.0889728
-0.0887705
-0.0743325
-0.0581426
-0.0429309
-0.0276091
-0.0117219
0.00468936
0.0214689
0.0385435
0.0561133
0.0748425
0.0960263
0.121686
0.154496
0.197403
0.252324
0.316179
0.374188
0.402419
-0.179791
-0.146524
-0.108058
-0.0783734
-0.0548608
-0.0343853
-0.0155207
0.0024514
0.0199117
0.0371461
0.0546247
0.0732606
0.094649
0.121286
0.156742
0.205703
0.273119
0.360896
0.463463
0.556478
-0.360969
-0.217473
-0.127612
-0.0811943
-0.0511385
-0.0281541
-0.00903218
0.00819031
0.0246334
0.0409156
0.0576545
0.0758558
0.0972364
0.124584
0.162255
0.216893
0.29787
0.417732
0.601211
0.849002
-0.702998
-0.27967
-0.102073
-0.0472579
-0.021631
-0.00413649
0.00960581
0.0222184
0.0350791
0.0486787
0.0633693
0.0798698
0.0996147
0.125152
0.160818
0.214281
0.300225
0.449679
0.745766
1.28676
)
;

boundaryField
{
    movingWall
    {
        type            zeroGradient;
    }
    fixedWalls
    {
        type            zeroGradient;
    }
    frontAndBack
    {
        type            empty;
    }
}


// ************************************************************************* //
