/*--------------------------------*- C++ -*----------------------------------*\
  =========                 |
  \\      /  F ield         | OpenFOAM: The Open Source CFD Toolbox
   \\    /   O peration     | Website:  https://openfoam.org
    \\  /    A nd           | Version:  6.0
     \\/     M anipulation  |
\*---------------------------------------------------------------------------*/
FoamFile
{
    version     2.0;
    format      ascii;
    class       surfaceScalarField;
    location    "0.2";
    object      phi;
}
// * * * * * * * * * * * * * * * * * * * * * * * * * * * * * * * * * * * * * //

dimensions      [0 3 -1 0 0 0 0];

internalField   nonuniform List<scalar> 
370
(
-4.73494e-08
4.73494e-08
-4.40297e-07
3.92947e-07
-1.02697e-06
5.86674e-07
-1.66089e-06
6.33916e-07
-2.26998e-06
6.09088e-07
-2.82915e-06
5.59176e-07
-3.33599e-06
5.0684e-07
-3.79598e-06
4.59989e-07
-4.21305e-06
4.17067e-07
-4.58249e-06
3.69438e-07
-4.88466e-06
3.02167e-07
-5.07967e-06
1.95013e-07
-5.10539e-06
2.57187e-08
-4.88334e-06
-2.22049e-07
-4.33902e-06
-5.44325e-07
-3.44186e-06
-8.97154e-07
-2.26297e-06
-1.17889e-06
-1.03412e-06
-1.22885e-06
-1.58397e-07
-8.75726e-07
-1.58396e-07
-4.50649e-07
4.97999e-07
-1.54511e-06
1.48741e-06
-2.96185e-06
2.00341e-06
-4.44939e-06
2.12146e-06
-5.86616e-06
2.02585e-06
-7.1522e-06
1.84522e-06
-8.29343e-06
1.64807e-06
-9.2939e-06
1.46045e-06
-1.0156e-05
1.27916e-06
-1.0866e-05
1.07941e-06
-1.13831e-05
8.19307e-07
-1.16333e-05
4.45212e-07
-1.15101e-05
-9.74624e-08
-1.08887e-05
-8.43434e-07
-9.65964e-06
-1.77343e-06
-7.78805e-06
-2.76874e-06
-5.39889e-06
-3.56805e-06
-2.86596e-06
-3.76178e-06
-8.29472e-07
-2.91222e-06
-9.87867e-07
-8.32619e-07
1.33062e-06
-2.53863e-06
3.19342e-06
-4.57163e-06
4.0364e-06
-6.60347e-06
4.1533e-06
-8.46962e-06
3.892e-06
-1.01083e-05
3.48389e-06
-1.15123e-05
3.05208e-06
-1.26953e-05
2.64347e-06
-1.36689e-05
2.25273e-06
-1.44267e-05
1.83722e-06
-1.49339e-05
1.32655e-06
-1.51214e-05
6.32716e-07
-1.4886e-05
-3.32918e-07
-1.41e-05
-1.6294e-06
-1.26365e-05
-3.23691e-06
-1.04192e-05
-4.98612e-06
-7.51118e-06
-6.47603e-06
-4.24826e-06
-7.0247e-06
-1.36908e-06
-5.7914e-06
-2.35694e-06
-1.15725e-06
2.48787e-06
-3.33618e-06
5.37235e-06
-5.74688e-06
6.4471e-06
-8.00384e-06
6.41026e-06
-9.95819e-06
5.84636e-06
-1.15807e-05
5.10638e-06
-1.28953e-05
4.36673e-06
-1.39422e-05
3.69033e-06
-1.47561e-05
3.06665e-06
-1.53544e-05
2.43555e-06
-1.57294e-05
1.70151e-06
-1.58428e-05
7.46097e-07
-1.56217e-05
-5.53983e-07
-1.49558e-05
-2.29528e-06
-1.37002e-05
-4.49258e-06
-1.16986e-05
-6.98773e-06
-8.86113e-06
-9.31346e-06
-5.34523e-06
-1.05406e-05
-1.86642e-06
-9.27021e-06
-4.22336e-06
-1.4632e-06
3.95107e-06
-3.94714e-06
7.85629e-06
-6.42693e-06
8.9269e-06
-8.52597e-06
8.5093e-06
-1.01714e-05
7.49175e-06
-1.1405e-05
6.33998e-06
-1.23027e-05
5.26451e-06
-1.29406e-05
4.32823e-06
-1.33813e-05
3.50729e-06
-1.36699e-05
2.72419e-06
-1.38331e-05
1.8647e-06
-1.38759e-05
7.88875e-07
-1.37738e-05
-6.56065e-07
-1.34564e-05
-2.61266e-06
-1.27825e-05
-5.16644e-06
-1.15207e-05
-8.2496e-06
-9.38068e-06
-1.14535e-05
-6.19821e-06
-1.37231e-05
-2.42863e-06
-1.30398e-05
-6.65199e-06
-1.81799e-06
5.76907e-06
-4.3888e-06
1.04271e-05
-6.50287e-06
1.1041e-05
-7.95184e-06
9.95827e-06
-8.83605e-06
8.37595e-06
-9.3067e-06
6.81063e-06
-9.49837e-06
5.45618e-06
-9.51482e-06
4.34468e-06
-9.43314e-06
3.42562e-06
-9.31321e-06
2.60426e-06
-9.20601e-06
1.7575e-06
-9.15685e-06
7.39714e-07
-9.19882e-06
-6.141e-07
-9.32984e-06
-2.48164e-06
-9.46529e-06
-5.03099e-06
-9.36591e-06
-8.34898e-06
-8.57724e-06
-1.22421e-05
-6.51303e-06
-1.57873e-05
-3.02137e-06
-1.65314e-05
-9.67337e-06
-2.2922e-06
8.06127e-06
-4.54006e-06
1.26749e-05
-5.59344e-06
1.20943e-05
-5.73804e-06
1.01029e-05
-5.36375e-06
8.00167e-06
-4.73683e-06
6.1837e-06
-4.01984e-06
4.73919e-06
-3.30699e-06
3.63183e-06
-2.65516e-06
2.77379e-06
-2.10898e-06
2.05807e-06
-1.71872e-06
1.36724e-06
-1.55092e-06
5.71912e-07
-1.68926e-06
-4.75758e-07
-2.2184e-06
-1.9525e-06
-3.17446e-06
-4.07494e-06
-4.43685e-06
-7.08658e-06
-5.54852e-06
-1.11305e-05
-5.55696e-06
-1.57788e-05
-3.36391e-06
-1.87245e-05
-1.30373e-05
-2.78487e-06
1.08461e-05
-3.61577e-06
1.35058e-05
-2.44146e-06
1.092e-05
-5.12213e-07
8.17362e-06
1.51176e-06
5.9777e-06
3.37052e-06
4.32494e-06
4.97795e-06
3.13176e-06
6.32261e-06
2.28716e-06
7.41723e-06
1.67918e-06
8.2677e-06
1.2076e-06
8.85357e-06
7.81374e-07
9.11499e-06
3.10487e-07
8.94396e-06
-3.0473e-07
8.18267e-06
-1.1912e-06
6.64337e-06
-2.53564e-06
4.19326e-06
-4.63648e-06
9.9514e-07
-7.93234e-06
-2.01637e-06
-1.27673e-05
-2.74131e-06
-1.79996e-05
-1.57786e-05
-1.79784e-06
1.2644e-05
1.71097e-06
9.99703e-06
6.50669e-06
6.12432e-06
1.07395e-05
3.9408e-06
1.4121e-05
2.59615e-06
1.67343e-05
1.71167e-06
1.87262e-05
1.13991e-06
2.0238e-05
7.75327e-07
2.138e-05
5.37163e-07
2.22199e-05
3.67718e-07
2.27775e-05
2.23833e-07
2.30193e-05
6.86719e-08
2.28499e-05
-1.35337e-07
2.20951e-05
-4.36463e-07
2.04754e-05
-9.15875e-07
1.75854e-05
-1.74655e-06
1.29897e-05
-3.3366e-06
6.71387e-06
-6.4915e-06
6.63414e-07
-1.19491e-05
-1.51152e-05
1.2644e-05
2.2641e-05
2.87653e-05
3.27061e-05
3.53023e-05
3.7014e-05
3.81539e-05
3.89292e-05
3.94664e-05
3.98341e-05
4.00579e-05
4.01266e-05
3.99912e-05
3.95548e-05
3.86389e-05
3.68924e-05
3.35558e-05
2.70643e-05
1.51152e-05
)
;

boundaryField
{
    movingWall
    {
        type            calculated;
        value           uniform 0;
    }
    fixedWalls
    {
        type            calculated;
        value           uniform 0;
    }
    frontAndBack
    {
        type            empty;
        value           nonuniform 0();
    }
}


// ************************************************************************* //
