/*--------------------------------*- C++ -*----------------------------------*\
  =========                 |
  \\      /  F ield         | OpenFOAM: The Open Source CFD Toolbox
   \\    /   O peration     | Website:  https://openfoam.org
    \\  /    A nd           | Version:  6.0
     \\/     M anipulation  |
\*---------------------------------------------------------------------------*/
FoamFile
{
    version     2.0;
    format      ascii;
    class       volVectorField;
    location    "0.2";
    object      U;
}
// * * * * * * * * * * * * * * * * * * * * * * * * * * * * * * * * * * * * * //

dimensions      [0 1 -1 0 0 0 0];

internalField   nonuniform List<vector> 
200
(
(9.49393e-05 -0.00020411 0)
(-0.00389905 0.00253718 0)
(-0.0141612 0.0042166 0)
(-0.0268345 0.00466673 0)
(-0.0394837 0.0045225 0)
(-0.051233 0.00419252 0)
(-0.0618953 0.00386425 0)
(-0.0715512 0.00360085 0)
(-0.0803296 0.00339122 0)
(-0.0882498 0.00316779 0)
(-0.0950883 0.00280677 0)
(-0.100258 0.00212822 0)
(-0.102721 0.000917681 0)
(-0.101012 -0.00100523 0)
(-0.0934922 -0.00364934 0)
(-0.0789549 -0.00665553 0)
(-0.0576136 -0.00911497 0)
(-0.0323784 -0.00955081 0)
(-0.0102046 -0.00644215 0)
(-0.000521265 -0.000500436 0)
(-0.00321207 0.00406001 0)
(-0.0177522 0.0159723 0)
(-0.0440184 0.0226703 0)
(-0.0741933 0.02443 0)
(-0.103729 0.0235542 0)
(-0.130902 0.021662 0)
(-0.155179 0.0195942 0)
(-0.176567 0.0176657 0)
(-0.195212 0.0158365 0)
(-0.211056 0.013799 0)
(-0.22359 0.0110183 0)
(-0.23167 0.00678499 0)
(-0.233443 0.000348232 0)
(-0.226474 -0.00879932 0)
(-0.208227 -0.0204384 0)
(-0.176999 -0.0329859 0)
(-0.133296 -0.042931 0)
(-0.0816672 -0.0448573 0)
(-0.033464 -0.0332949 0)
(-0.00607034 -0.00926171 0)
(-0.00659579 0.0170007 0)
(-0.0308959 0.0443846 0)
(-0.0700681 0.0579632 0)
(-0.11228 0.0607554 0)
(-0.151826 0.0577147 0)
(-0.186982 0.052309 0)
(-0.217354 0.0464184 0)
(-0.243137 0.0407714 0)
(-0.264677 0.0352896 0)
(-0.282088 0.0293028 0)
(-0.294993 0.021688 0)
(-0.302353 0.0110313 0)
(-0.302398 -0.00407667 0)
(-0.292715 -0.024506 0)
(-0.270597 -0.0497333 0)
(-0.233771 -0.0766973 0)
(-0.181573 -0.0986465 0)
(-0.117114 -0.104842 0)
(-0.0523593 -0.0833963 0)
(-0.0110292 -0.0314292 0)
(-0.00965675 0.0371464 0)
(-0.0420453 0.0841053 0)
(-0.0903296 0.103822 0)
(-0.138792 0.105404 0)
(-0.181333 0.0977903 0)
(-0.217025 0.0867336 0)
(-0.246188 0.0752569 0)
(-0.269592 0.0644948 0)
(-0.288067 0.0543035 0)
(-0.302178 0.0436429 0)
(-0.312044 0.0308238 0)
(-0.317214 0.0137548 0)
(-0.316562 -0.00967355 0)
(-0.308217 -0.0409244 0)
(-0.289564 -0.0797215 0)
(-0.257437 -0.122414 0)
(-0.208761 -0.159884 0)
(-0.142872 -0.175849 0)
(-0.0693046 -0.148746 0)
(-0.0161993 -0.0640673 0)
(-0.0129404 0.0634734 0)
(-0.0518927 0.13161 0)
(-0.104341 0.154281 0)
(-0.151786 0.150812 0)
(-0.189251 0.135606 0)
(-0.21763 0.11691 0)
(-0.238516 0.0987266 0)
(-0.253516 0.0824051 0)
(-0.264048 0.0676365 0)
(-0.271198 0.0530286 0)
(-0.275684 0.0364344 0)
(-0.277832 0.0152074 0)
(-0.27747 -0.0134561 0)
(-0.273697 -0.0519168 0)
(-0.264478 -0.100992 0)
(-0.246099 -0.15798 0)
(-0.212795 -0.213386 0)
(-0.158461 -0.246576 0)
(-0.0861186 -0.223565 0)
(-0.022947 -0.107202 0)
(-0.0174279 0.096332 0)
(-0.061734 0.183379 0)
(-0.111267 0.202479 0)
(-0.147776 0.188732 0)
(-0.170385 0.163001 0)
(-0.183097 0.135569 0)
(-0.189097 0.110787 0)
(-0.190739 0.0897516 0)
(-0.189784 0.0717682 0)
(-0.187552 0.0550949 0)
(-0.185115 0.0372928 0)
(-0.183428 0.0154049 0)
(-0.18331 -0.0138717 0)
(-0.185183 -0.0538568 0)
(-0.188412 -0.107108 0)
(-0.190025 -0.173542 0)
(-0.182877 -0.246263 0)
(-0.155384 -0.303891 0)
(-0.0996152 -0.300443 0)
(-0.0312338 -0.162734 0)
(-0.0241441 0.138615 0)
(-0.0717571 0.234182 0)
(-0.105949 0.237732 0)
(-0.116936 0.20779 0)
(-0.112926 0.170261 0)
(-0.101767 0.135302 0)
(-0.0876934 0.106206 0)
(-0.0730512 0.0830639 0)
(-0.0592049 0.0645046 0)
(-0.0470635 0.0484708 0)
(-0.0375024 0.0324837 0)
(-0.0316505 0.013682 0)
(-0.0310175 -0.0112303 0)
(-0.0373892 -0.0460497 0)
(-0.0522676 -0.0949544 0)
(-0.0753112 -0.161487 0)
(-0.101201 -0.244754 0)
(-0.116128 -0.32942 0)
(-0.0986889 -0.364926 0)
(-0.0374607 -0.232031 0)
(-0.0308815 0.196623 0)
(-0.0734372 0.271937 0)
(-0.0668315 0.240607 0)
(-0.0316426 0.191535 0)
(0.0101741 0.14634 0)
(0.0498503 0.109688 0)
(0.084746 0.0818445 0)
(0.114253 0.0612901 0)
(0.138563 0.0459369 0)
(0.157981 0.0336349 0)
(0.172443 0.0222362 0)
(0.181202 0.00948437 0)
(0.182618 -0.00719077 0)
(0.174024 -0.0310242 0)
(0.151818 -0.0664837 0)
(0.112369 -0.119812 0)
(0.0547643 -0.197884 0)
(-0.0132186 -0.299905 0)
(-0.0598465 -0.388074 0)
(-0.0286143 -0.306283 0)
(-0.00722542 0.254769 0)
(-0.012064 0.261453 0)
(0.0773209 0.186561 0)
(0.174505 0.129375 0)
(0.252174 0.0896047 0)
(0.311665 0.061817 0)
(0.357094 0.0428441 0)
(0.391603 0.0300989 0)
(0.417724 0.0214035 0)
(0.437284 0.0150356 0)
(0.451199 0.00959104 0)
(0.459364 0.00379598 0)
(0.460536 -0.00369574 0)
(0.452097 -0.014617 0)
(0.429633 -0.0317534 0)
(0.386454 -0.0604418 0)
(0.313046 -0.111196 0)
(0.198831 -0.199266 0)
(0.0695073 -0.318941 0)
(0.0388725 -0.326552 0)
(0.285277 0.14138 0)
(0.366032 0.124934 0)
(0.509103 0.0784676 0)
(0.618247 0.0479987 0)
(0.684741 0.0295831 0)
(0.726256 0.0181926 0)
(0.753647 0.0112218 0)
(0.772164 0.00703626 0)
(0.784882 0.00450885 0)
(0.793685 0.0028849 0)
(0.799499 0.00165061 0)
(0.802459 0.000418595 0)
(0.801968 -0.00116228 0)
(0.796598 -0.00351215 0)
(0.783677 -0.00733682 0)
(0.758211 -0.0142302 0)
(0.709741 -0.0283606 0)
(0.611816 -0.0595515 0)
(0.446336 -0.119824 0)
(0.327156 -0.152576 0)
)
;

boundaryField
{
    movingWall
    {
        type            fixedValue;
        value           uniform (1 0 0);
    }
    fixedWalls
    {
        type            noSlip;
    }
    frontAndBack
    {
        type            empty;
    }
}


// ************************************************************************* //
