1.45 	0 	0 	-0.290486
2.35 	0 	0 	-0.126327
