/*--------------------------------*- C++ -*----------------------------------*\
  =========                 |
  \\      /  F ield         | OpenFOAM: The Open Source CFD Toolbox
   \\    /   O peration     | Website:  https://openfoam.org
    \\  /    A nd           | Version:  6.0
     \\/     M anipulation  |
\*---------------------------------------------------------------------------*/
FoamFile
{
    version     2.0;
    format      ascii;
    class       surfaceScalarField;
    location    "3.3";
    object      phi;
}
// * * * * * * * * * * * * * * * * * * * * * * * * * * * * * * * * * * * * * //

dimensions      [0 3 -1 0 0 0 0];

internalField   nonuniform List<scalar> 
47678
(
2.98082e-05
0.00388594
2.98479e-09
5.98459e-05
0.00381843
8.91119e-05
0.00368577
0.000116962
0.00348996
0.000142854
0.00323444
0.000166314
0.00292365
0.000186917
0.00256306
0.000204298
0.00215886
0.000218147
0.00171809
0.000228223
0.00124811
0.000234336
0.000757739
0.000258177
0.000236909
2.96178e-05
0.00385631
5.92207e-09
5.94665e-05
0.00378858
8.85474e-05
0.00365668
0.000116221
0.00346228
0.000141947
0.0032087
0.000165257
0.00290033
0.000185727
0.00254258
0.000202997
0.00214158
0.000216759
0.00170431
0.000226764
0.00123809
0.000232944
0.00075155
0.000255489
0.00023562
2.94288e-05
0.00382688
8.26655e-09
5.90893e-05
0.00375892
8.79864e-05
0.00362777
0.000115485
0.00343478
0.000141048
0.00318313
0.000164208
0.00287716
0.000184548
0.00252223
0.000201707
0.00212442
0.000215381
0.00169064
0.000225316
0.00122816
0.000231475
0.000745392
0.000252862
0.000234111
2.92412e-05
0.00379762
1.0268e-08
5.87145e-05
0.00372944
8.7429e-05
0.00359905
0.000114753
0.00340745
0.000140154
0.00315772
0.000163167
0.00285414
0.000183376
0.00250202
0.000200424
0.00210737
0.000214012
0.00167704
0.00022388
0.00121829
0.000229986
0.00073928
0.000250295
0.000232546
2.9055e-05
0.00376856
1.17693e-08
5.83421e-05
0.00370016
8.68749e-05
0.00357051
0.000114026
0.0033803
0.000139265
0.00313248
0.000162131
0.00283128
0.00018221
0.00248194
0.000199149
0.00209043
0.000212651
0.00166354
0.000222456
0.00120848
0.000228505
0.000733234
0.000247813
0.000230995
2.88702e-05
0.00373967
1.28421e-08
5.7972e-05
0.00367105
8.63242e-05
0.00354215
0.000113303
0.00335332
0.000138382
0.00310739
0.000161101
0.00280855
0.000181052
0.00246198
0.000197882
0.00207359
0.000211299
0.00165012
0.000221044
0.00119874
0.00022704
0.000727233
0.000245383
0.000229466
2.86866e-05
0.00371097
1.36056e-08
5.76042e-05
0.00364214
8.57769e-05
0.00351398
0.000112585
0.00332651
0.000137504
0.00308247
0.000160078
0.00278598
0.000179901
0.00244216
0.000196624
0.00205687
0.000209956
0.00163679
0.000219642
0.00118905
0.000225592
0.000721285
0.000243025
0.000227957
2.85042e-05
0.00368245
1.40197e-08
5.72387e-05
0.0036134
8.52329e-05
0.00348598
0.00011187
0.00329987
0.000136631
0.00305771
0.000159061
0.00276355
0.000178758
0.00242245
0.000195373
0.00204025
0.000208621
0.00162354
0.00021825
0.00117942
0.000224157
0.000715374
0.000240712
0.000226466
2.8323e-05
0.00365411
1.41883e-08
5.68755e-05
0.00358485
8.46922e-05
0.00345816
0.000111161
0.0032734
0.000135764
0.0030331
0.000158051
0.00274126
0.000177621
0.00240288
0.000194131
0.00202375
0.000207295
0.00161037
0.000216867
0.00116985
0.000222733
0.000709511
0.000238455
0.000224995
2.8143e-05
0.00362596
1.42053e-08
5.65145e-05
0.00355648
8.41549e-05
0.00343052
0.000110455
0.0032471
0.000134901
0.00300865
0.000157046
0.00271911
0.000176492
0.00238343
0.000192896
0.00200734
0.000205977
0.00159729
0.000215492
0.00116033
0.00022132
0.00070368
0.000236228
0.000223542
2.79641e-05
0.00359798
1.40882e-08
5.61558e-05
0.00352829
8.36209e-05
0.00340305
0.000109754
0.00322097
0.000134045
0.00298436
0.000156048
0.00269711
0.000175369
0.00236411
0.000191669
0.00199104
0.000204667
0.00158429
0.000214126
0.00115087
0.000219916
0.000697892
0.000234042
0.000222105
2.77864e-05
0.00357017
1.38983e-08
5.57993e-05
0.00350027
8.30903e-05
0.00337576
0.000109057
0.003195
0.000133193
0.00296022
0.000155056
0.00267524
0.000174254
0.00234491
0.00019045
0.00197484
0.000203365
0.00157137
0.000212768
0.00114147
0.000218522
0.000692134
0.000231878
0.000220681
2.76099e-05
0.00354255
1.3658e-08
5.54451e-05
0.00347244
8.25628e-05
0.00334864
0.000108364
0.0031692
0.000132346
0.00293624
0.00015407
0.00265352
0.000173146
0.00232584
0.000189239
0.00195875
0.000202072
0.00155854
0.000211418
0.00113213
0.000217137
0.000686418
0.000229749
0.000219268
2.74344e-05
0.0035151
1.33588e-08
5.5093e-05
0.00344478
8.20386e-05
0.00332169
0.000107676
0.00314356
0.000131505
0.00291241
0.00015309
0.00263193
0.000172044
0.00230688
0.000188035
0.00194276
0.000200788
0.00154579
0.000210077
0.00112283
0.000215761
0.000680731
0.000227639
0.000217866
2.72601e-05
0.00348783
1.3008e-08
5.47431e-05
0.00341729
8.15176e-05
0.00329492
0.000106992
0.00311808
0.000130669
0.00288873
0.000152116
0.00261049
0.00017095
0.00228805
0.000186839
0.00192687
0.000199511
0.00153311
0.000208745
0.0011136
0.000214393
0.000675084
0.000225562
0.000216474
2.70869e-05
0.00346073
1.25937e-08
5.43953e-05
0.00338998
8.09998e-05
0.00326831
0.000106312
0.00309277
0.000129838
0.0028652
0.000151149
0.00258917
0.000169863
0.00226933
0.000185651
0.00191108
0.000198243
0.00152052
0.00020742
0.00110442
0.000213034
0.000669466
0.000223499
0.000215092
2.69148e-05
0.0034338
1.21208e-08
5.40497e-05
0.00336285
8.0485e-05
0.00324187
0.000105636
0.00306762
0.000129012
0.00284183
0.000150187
0.002568
0.000168783
0.00225074
0.000184471
0.00189539
0.000196983
0.00150801
0.000206104
0.0010953
0.000211684
0.000663888
0.000221467
0.00021372
2.67438e-05
0.00340704
1.16114e-08
5.37061e-05
0.00333589
7.99734e-05
0.0032156
0.000104964
0.00304263
0.000128192
0.0028186
0.000149232
0.00254696
0.000167709
0.00223226
0.000183298
0.0018798
0.000195732
0.00149557
0.000204796
0.00108624
0.000210342
0.000658339
0.000219445
0.000212357
2.65737e-05
0.00338046
1.11116e-08
5.33646e-05
0.0033091
7.94648e-05
0.0031895
0.000104296
0.0030178
0.000127376
0.00279552
0.000148283
0.00252605
0.000166642
0.0022139
0.000182133
0.00186431
0.000194488
0.00148322
0.000203497
0.00107723
0.000209009
0.000652829
0.000217455
0.000211004
2.64048e-05
0.00335404
1.06915e-08
5.30252e-05
0.00328247
7.89593e-05
0.00316357
0.000103633
0.00299312
0.000126566
0.00277258
0.000147339
0.00250528
0.000165583
0.00219565
0.000180975
0.00184891
0.000193253
0.00147094
0.000202206
0.00106827
0.000207684
0.000647347
0.000215472
0.00020966
2.62368e-05
0.0033278
1.04418e-08
5.26878e-05
0.00325602
7.84569e-05
0.0031378
0.000102973
0.00296861
0.00012576
0.0027498
0.000146402
0.00248464
0.00016453
0.00217753
0.000179825
0.00183362
0.000192025
0.00145874
0.000200923
0.00105938
0.000206368
0.000641904
0.00021352
0.000208326
2.60698e-05
0.00330171
1.04544e-08
5.23524e-05
0.00322974
7.79574e-05
0.00311219
0.000102318
0.00294425
0.00012496
0.00272715
0.000145471
0.00246412
0.000163483
0.00215951
0.000178682
0.00181842
0.000190806
0.00144662
0.000199648
0.00105053
0.000205059
0.00063649
0.000211571
0.000207001
2.59038e-05
0.0032758
1.08141e-08
5.20191e-05
0.00320362
7.74611e-05
0.00308675
0.000101666
0.00292004
0.000124164
0.00270466
0.000144545
0.00244375
0.000162444
0.00214162
0.000177547
0.00180332
0.000189594
0.00143457
0.000198382
0.00104175
0.00020376
0.000631114
0.000209653
0.000205684
2.57387e-05
0.00325005
1.15728e-08
5.16877e-05
0.00317767
7.69677e-05
0.00306147
0.000101019
0.00289599
0.000123374
0.0026823
0.000143625
0.00242349
0.000161411
0.00212383
0.000176419
0.00178831
0.00018839
0.0014226
0.000197124
0.00103301
0.000202468
0.000625766
0.000207736
0.000204377
2.55745e-05
0.00322446
1.27481e-08
5.13583e-05
0.00315189
7.64774e-05
0.00303635
0.000100375
0.00287209
0.000122588
0.00266009
0.000142712
0.00240337
0.000160385
0.00210616
0.000175298
0.0017734
0.000187194
0.0014107
0.000195873
0.00102433
0.000201185
0.000620456
0.000205848
0.000203078
2.54112e-05
0.00319903
1.43113e-08
5.10308e-05
0.00312627
7.599e-05
0.00301139
9.9736e-05
0.00284835
0.000121808
0.00263801
0.000141804
0.00238337
0.000159365
0.00208859
0.000174184
0.00175857
0.000186006
0.00139888
0.000194631
0.0010157
0.00019991
0.000615173
0.000203961
0.000201788
2.52489e-05
0.00317377
1.62017e-08
5.07054e-05
0.00310081
7.55057e-05
0.00298659
9.91006e-05
0.00282475
0.000121033
0.00261608
0.000140901
0.00236351
0.000158352
0.00207114
0.000173078
0.00174385
0.000184825
0.00138713
0.000193397
0.00100713
0.000198643
0.000609929
0.000202103
0.000200506
2.50874e-05
0.00314866
1.83327e-08
5.03818e-05
0.00307552
7.50243e-05
0.00296194
9.84693e-05
0.00280131
0.000120262
0.00259429
0.000140005
0.00234376
0.000157345
0.0020538
0.000171979
0.00172921
0.000183652
0.00137546
0.00019217
0.000998613
0.000197384
0.000604711
0.000200246
0.000199232
2.49269e-05
0.00312372
2.06164e-08
5.00603e-05
0.00305039
7.45459e-05
0.00293746
9.78419e-05
0.00277801
0.000119496
0.00257264
0.000139114
0.00232414
0.000156345
0.00203657
0.000170886
0.00171467
0.000182487
0.00136386
0.000190951
0.00099015
0.000196133
0.000599532
0.000198415
0.000197967
2.47672e-05
0.00309892
2.29725e-08
4.97406e-05
0.00302541
7.40705e-05
0.00291313
9.72184e-05
0.00275486
0.000118736
0.00255112
0.000138229
0.00230465
0.000155351
0.00201945
0.000169801
0.00170022
0.000181329
0.00135233
0.000189741
0.000981735
0.00019489
0.000594379
0.000196586
0.00019671
2.46084e-05
0.00307429
2.53464e-08
4.94229e-05
0.0030006
7.3598e-05
0.00288895
9.65989e-05
0.00273186
0.00011798
0.00252974
0.00013735
0.00228528
0.000154364
0.00200244
0.000168723
0.00168586
0.000180178
0.00134087
0.000188538
0.000973377
0.000193655
0.000589264
0.000194781
0.000195462
2.44504e-05
0.00304981
2.77055e-08
4.91071e-05
0.00297594
7.31285e-05
0.00286493
9.59832e-05
0.00270901
0.000117228
0.00250849
0.000136476
0.00226603
0.000153383
0.00198553
0.000167652
0.00167159
0.000179035
0.00132949
0.000187342
0.000965066
0.000192427
0.000584175
0.000192978
0.000194221
2.42934e-05
0.00302549
3.0044e-08
4.87932e-05
0.00295144
7.26619e-05
0.00284106
9.53715e-05
0.0026863
0.000116482
0.00248738
0.000135608
0.00224691
0.000152408
0.00196873
0.000166587
0.00165741
0.000177899
0.00131818
0.000186154
0.000956813
0.000191208
0.000579124
0.000191199
0.000192989
2.41372e-05
0.00300132
3.23673e-08
4.84812e-05
0.00292709
7.21981e-05
0.00281734
9.47636e-05
0.00266373
0.00011574
0.0024664
0.000134746
0.0022279
0.00015144
0.00195203
0.000165529
0.00164332
0.000176771
0.00130693
0.000184974
0.000948606
0.000189996
0.000574098
0.000189422
0.000191765
2.39819e-05
0.0029773
3.46892e-08
4.81711e-05
0.00290291
7.17373e-05
0.00279378
9.41595e-05
0.00264131
0.000115003
0.00244556
0.000133889
0.00220902
0.000150477
0.00193545
0.000164479
0.00162932
0.00017565
0.00129576
0.000183802
0.000940456
0.000188792
0.00056911
0.000187668
0.000190548
2.38275e-05
0.00295344
3.70165e-08
4.78629e-05
0.00287887
7.12793e-05
0.00277036
9.35592e-05
0.00261903
0.000114271
0.00242485
0.000133037
0.00219025
0.000149521
0.00191896
0.000163435
0.00161541
0.000174536
0.00128466
0.000182637
0.000932351
0.000187596
0.000564147
0.000185917
0.000189339
2.3674e-05
0.00292972
3.9349e-08
4.75565e-05
0.00285499
7.08242e-05
0.0027471
9.29628e-05
0.0025969
0.000113544
0.00240427
0.000132191
0.0021716
0.000148571
0.00190258
0.000162397
0.00160158
0.000173429
0.00127363
0.000181479
0.000924302
0.000186408
0.000559221
0.00018419
0.000188138
2.35214e-05
0.00290616
4.16716e-08
4.72521e-05
0.00283126
7.03719e-05
0.00272397
9.23701e-05
0.0025749
0.000112821
0.00238382
0.00013135
0.00215307
0.000147627
0.0018863
0.000161366
0.00158784
0.000172329
0.00126267
0.000180329
0.000916299
0.000185227
0.000554319
0.000182464
0.000186945
2.33696e-05
0.00288275
4.39612e-08
4.69495e-05
0.00280768
6.99224e-05
0.002701
9.17811e-05
0.00255304
0.000112102
0.0023635
0.000130515
0.00213466
0.00014669
0.00187013
0.000160342
0.00157419
0.000171236
0.00125177
0.000179186
0.000908351
0.000184053
0.000549455
0.000180762
0.000185759
2.32188e-05
0.00285948
4.61852e-08
4.66488e-05
0.00278425
6.94758e-05
0.00267817
9.11959e-05
0.00253132
0.000111388
0.0023433
0.000129685
0.00211636
0.000145758
0.00185406
0.000159325
0.00156062
0.00017015
0.00124095
0.000178051
0.000900446
0.000182887
0.000544615
0.00017906
0.000184581
2.30689e-05
0.00283636
4.83118e-08
4.63499e-05
0.00276097
6.9032e-05
0.00265549
9.06144e-05
0.00250974
0.000110679
0.00232324
0.00012886
0.00209819
0.000144832
0.00183809
0.000158314
0.00154714
0.000169071
0.00123019
0.000176922
0.000892598
0.000181729
0.000539812
0.000177384
0.000183411
2.29199e-05
0.00281339
5.03102e-08
4.60529e-05
0.00273783
6.85909e-05
0.00263295
9.00365e-05
0.00248829
0.000109975
0.0023033
0.000128041
0.00208012
0.000143912
0.00182221
0.000157309
0.00153374
0.000167999
0.0012195
0.000175801
0.000884792
0.000180577
0.000535031
0.000175706
0.000182248
2.27718e-05
0.00279057
5.21593e-08
4.57578e-05
0.00271485
6.81527e-05
0.00261056
8.94624e-05
0.00246699
0.000109274
0.00228349
0.000127227
0.00206217
0.000142998
0.00180645
0.000156311
0.00152043
0.000166934
0.00120888
0.000174687
0.000877042
0.000179434
0.000530288
0.000174054
0.000181093
2.26246e-05
0.00276789
5.38459e-08
4.54645e-05
0.00269201
6.77172e-05
0.00258831
8.88919e-05
0.00244581
0.000108579
0.00226381
0.000126418
0.00204433
0.00014209
0.00179077
0.000155319
0.0015072
0.000165876
0.00119832
0.00017358
0.000869334
0.000178297
0.000525567
0.000172398
0.000179945
2.24784e-05
0.00274536
5.53687e-08
4.51731e-05
0.00266931
6.72846e-05
0.0025662
8.83251e-05
0.00242477
0.000107887
0.00224425
0.000125614
0.0020266
0.000141187
0.0017752
0.000154334
0.00149405
0.000164825
0.00118783
0.00017248
0.000861681
0.000177168
0.000520884
0.00017077
0.000178805
2.23331e-05
0.00272297
5.67337e-08
4.48836e-05
0.00264676
6.68547e-05
0.00254422
8.77619e-05
0.00240386
0.000107201
0.00222481
0.000124815
0.00200899
0.000140291
0.00175972
0.000153355
0.00148098
0.00016378
0.0011774
0.000171387
0.000854069
0.000176046
0.000516222
0.000169135
0.000177672
2.21887e-05
0.00270072
5.79538e-08
4.45959e-05
0.00262436
6.64275e-05
0.0025224
8.72023e-05
0.00238309
0.000106518
0.00220549
0.000124022
0.00199149
0.0001394
0.00174435
0.000152382
0.00146801
0.000162741
0.00116705
0.000170302
0.000846511
0.000174931
0.000511598
0.000167529
0.000176546
2.20453e-05
0.00267862
5.90423e-08
4.431e-05
0.00260209
6.60031e-05
0.0025007
8.66463e-05
0.00236245
0.00010584
0.0021863
0.000123234
0.00197409
0.000138515
0.00172906
0.000151415
0.0014551
0.00016171
0.00115675
0.000169223
0.000838995
0.000173823
0.000506994
0.000165914
0.000175428
2.19028e-05
0.00265665
6.0013e-08
4.4026e-05
0.00257997
6.55814e-05
0.00247915
8.60939e-05
0.00234194
0.000105166
0.00216723
0.00012245
0.00195681
0.000137635
0.00171388
0.000150455
0.00144228
0.000160685
0.00114652
0.00016815
0.000831532
0.000172722
0.000502429
0.000164328
0.000174317
2.17613e-05
0.00263483
6.08744e-08
4.37438e-05
0.00255799
6.51624e-05
0.00245773
8.5545e-05
0.00232156
0.000104497
0.00214827
0.000121672
0.00193963
0.000136761
0.00169879
0.0001495
0.00142954
0.000159666
0.00113635
0.000167085
0.000824109
0.000171628
0.000497882
0.000162731
0.000173213
2.16207e-05
0.00261315
6.16322e-08
4.34635e-05
0.00253615
6.47461e-05
0.00243645
8.49997e-05
0.00230131
0.000103832
0.00212945
0.000120899
0.00192257
0.000135893
0.0016838
0.000148552
0.00141689
0.000158654
0.00112625
0.000166027
0.00081674
0.000170542
0.000493375
0.000161164
0.000172116
2.1481e-05
0.00259161
6.22881e-08
4.31849e-05
0.00251444
6.43326e-05
0.0024153
8.44579e-05
0.00228118
0.000103171
0.00211073
0.00012013
0.00190561
0.00013503
0.0016689
0.00014761
0.0014043
0.000157649
0.00111621
0.000164975
0.00080941
0.000169462
0.000488885
0.000159587
0.000171025
2.13423e-05
0.0025702
6.2845e-08
4.29082e-05
0.00249288
6.39217e-05
0.00239429
8.39195e-05
0.00226118
0.000102515
0.00209214
0.000119367
0.00188876
0.000134173
0.00165409
0.000146674
0.00139181
0.00015665
0.00110624
0.00016393
0.000802134
0.000168388
0.000484434
0.000158038
0.000169942
2.12046e-05
0.00254894
6.33087e-08
4.26334e-05
0.00247145
6.35135e-05
0.0023734
8.33847e-05
0.00224131
0.000101862
0.00207366
0.000118608
0.00187201
0.000133321
0.00163938
0.000145743
0.00137938
0.000155657
0.00109632
0.000162892
0.000794895
0.000167322
0.000479999
0.000156479
0.000168866
2.10678e-05
0.00252781
6.36932e-08
4.23603e-05
0.00245016
6.31079e-05
0.00235266
8.28534e-05
0.00222157
0.000101214
0.0020553
0.000117854
0.00185538
0.000132475
0.00162476
0.000144819
0.00136704
0.000154671
0.00108647
0.00016186
0.00078771
0.000166263
0.000475604
0.000154948
0.000167797
2.09319e-05
0.00250681
6.40209e-08
4.2089e-05
0.002429
6.2705e-05
0.00233204
8.23254e-05
0.00220195
0.00010057
0.00203706
0.000117106
0.00183884
0.000131634
0.00161023
0.000143901
0.00135477
0.00015369
0.00107668
0.000160835
0.000780562
0.00016521
0.000471224
0.00015341
0.000166734
2.0797e-05
0.00248595
6.43253e-08
4.18195e-05
0.00240798
6.23047e-05
0.00231156
8.18009e-05
0.00218246
9.99304e-05
0.00201893
0.000116362
0.00182241
0.000130799
0.00159579
0.000142988
0.00134259
0.000152717
0.00106696
0.000159816
0.000773468
0.000164164
0.000466883
0.000151901
0.000165678
2.0663e-05
0.00246522
6.46464e-08
4.15518e-05
0.00238709
6.1907e-05
0.0022912
8.12798e-05
0.00216308
9.92947e-05
0.00200092
0.000115622
0.00180608
0.000129969
0.00158145
0.000142081
0.00133047
0.000151749
0.00105729
0.000158804
0.000766409
0.000163124
0.000462558
0.000150384
0.000164629
2.05299e-05
0.00244463
6.50283e-08
4.12858e-05
0.00236633
6.15119e-05
0.00227098
8.0762e-05
0.00214384
9.86631e-05
0.00198302
0.000114888
0.00178986
0.000129144
0.00156719
0.00014118
0.00131844
0.000150787
0.00104769
0.000157798
0.000759404
0.000162091
0.000458272
0.000148896
0.000163586
2.03977e-05
0.00242416
6.55124e-08
4.10216e-05
0.00234571
6.11194e-05
0.00225088
8.02476e-05
0.00212471
9.80355e-05
0.00196523
0.000114158
0.00177374
0.000128324
0.00155303
0.000140285
0.00130647
0.000149832
0.00103814
0.000156799
0.000752433
0.000161065
0.000454
0.0001474
0.000162551
2.02665e-05
0.00240383
6.61334e-08
4.07592e-05
0.00232522
6.07295e-05
0.00223091
7.97365e-05
0.0021057
9.7412e-05
0.00194756
0.000113432
0.00175772
0.00012751
0.00153895
0.000139396
0.00129459
0.000148882
0.00102866
0.000155806
0.000745516
0.000160046
0.000449767
0.000145935
0.000161522
2.01361e-05
0.00238363
6.69131e-08
4.04985e-05
0.00230485
6.0342e-05
0.00221107
7.92287e-05
0.00208682
9.67925e-05
0.00192999
0.000112712
0.0017418
0.0001267
0.00152496
0.000138512
0.00128278
0.000147939
0.00101923
0.000154819
0.000738633
0.000159032
0.000445549
0.00014446
0.000160499
2.00067e-05
0.00236356
6.78595e-08
4.02395e-05
0.00228462
5.99571e-05
0.00219135
7.87241e-05
0.00206805
9.61769e-05
0.00191254
0.000111996
0.00172599
0.000125896
0.00151107
0.000137634
0.00127104
0.000147002
0.00100986
0.000153839
0.000731802
0.000158026
0.000441369
0.000143017
0.000159483
1.98781e-05
0.00234361
6.89652e-08
3.99822e-05
0.00226452
5.95747e-05
0.00217176
7.82228e-05
0.0020494
9.55653e-05
0.0018952
0.000111285
0.00171027
0.000125098
0.00149725
0.000136761
0.00125938
0.000146071
0.00100055
0.000152865
0.000725005
0.000157026
0.000437204
0.000141559
0.000158474
1.97504e-05
0.00232379
7.02113e-08
3.97267e-05
0.00224455
5.91947e-05
0.00215229
7.77248e-05
0.00203088
9.49576e-05
0.00187797
0.000110578
0.00169465
0.000124304
0.00148353
0.000135894
0.00124779
0.000145145
0.000991306
0.000151897
0.00071826
0.000156032
0.000433078
0.000140135
0.000157471
1.96235e-05
0.0023041
7.157e-08
3.94728e-05
0.00222469
5.88173e-05
0.00213295
7.72299e-05
0.00201246
9.43538e-05
0.00186085
0.000109875
0.00167913
0.000123515
0.00146989
0.000135032
0.00123627
0.000144226
0.000982112
0.000150935
0.000711547
0.000155045
0.000428965
0.000138693
0.000156475
1.94975e-05
0.00228453
7.30109e-08
3.92205e-05
0.00220497
5.84422e-05
0.00211373
7.67382e-05
0.00199417
9.37538e-05
0.00184383
0.000109177
0.00166371
0.000122731
0.00145634
0.000134176
0.00122483
0.000143312
0.000972982
0.00014998
0.000704887
0.000154064
0.000424891
0.000137284
0.000155485
1.93724e-05
0.00226508
7.45036e-08
3.89699e-05
0.00218538
5.80696e-05
0.00209463
7.62497e-05
0.00197599
9.31577e-05
0.00182693
0.000108484
0.00164838
0.000121953
0.00144287
0.000133326
0.00121346
0.000142405
0.000963902
0.000149031
0.000698258
0.000153089
0.000420828
0.000135854
0.000154502
1.9248e-05
0.00224576
7.60233e-08
3.8721e-05
0.00216591
5.76994e-05
0.00207565
7.57643e-05
0.00195793
9.25654e-05
0.00181013
0.000107795
0.00163316
0.000121179
0.00142949
0.000132481
0.00120216
0.000141503
0.000954888
0.000148087
0.000691681
0.000152121
0.000416806
0.00013446
0.000153525
1.91245e-05
0.00222656
7.75508e-08
3.84736e-05
0.00214655
5.73316e-05
0.00205679
7.5282e-05
0.00193998
9.19769e-05
0.00179343
0.000107111
0.00161802
0.00012041
0.00141619
0.000131641
0.00119093
0.000140607
0.000945921
0.00014715
0.000685134
0.000151159
0.000412793
0.000133043
0.000152554
1.90017e-05
0.00220748
7.9074e-08
3.82279e-05
0.00212733
5.69661e-05
0.00203806
7.48028e-05
0.00192215
9.13921e-05
0.00177685
0.00010643
0.00160299
0.000119646
0.00140298
0.000130807
0.00117978
0.000139716
0.000937019
0.000146219
0.000678639
0.000150202
0.000408819
0.000131661
0.000151589
1.88798e-05
0.00218852
8.05857e-08
3.79838e-05
0.00210823
5.6603e-05
0.00201944
7.43266e-05
0.00190442
9.08111e-05
0.00176036
0.000105754
0.00158805
0.000118887
0.00138985
0.000129978
0.00116869
0.000138832
0.000928164
0.000145294
0.000672173
0.000149253
0.000404854
0.000130257
0.000150631
1.87587e-05
0.00216968
8.20822e-08
3.77412e-05
0.00208925
5.62422e-05
0.00200094
7.38535e-05
0.00188682
9.02338e-05
0.00174399
0.000105083
0.0015732
0.000118133
0.0013768
0.000129154
0.00115767
0.000137953
0.000919374
0.000144375
0.000665759
0.000148309
0.000400929
0.000128889
0.000149678
1.86383e-05
0.00215095
8.35602e-08
3.75002e-05
0.00207038
5.58837e-05
0.00198256
7.33834e-05
0.00186931
8.96602e-05
0.00172771
0.000104416
0.00155845
0.000117384
0.00136383
0.000128336
0.00114672
0.00013708
0.000910629
0.000143461
0.000659373
0.000147371
0.000397011
0.000127501
0.000148732
1.85187e-05
0.00213235
8.50161e-08
3.72607e-05
0.00205164
5.55275e-05
0.00196429
7.29164e-05
0.00185193
8.90902e-05
0.00171154
0.000103753
0.00154379
0.00011664
0.00135095
0.000127523
0.00113584
0.000136212
0.000901949
0.000142554
0.000653039
0.000146439
0.000393134
0.000126149
0.000147792
1.83998e-05
0.00211387
8.64432e-08
3.70227e-05
0.00203302
5.51735e-05
0.00194614
7.24523e-05
0.00183465
8.85239e-05
0.00169547
0.000103094
0.00152922
0.0001159
0.00133815
0.000126715
0.00112503
0.00013535
0.000893313
0.000141653
0.000646731
0.000145513
0.000389263
0.000124777
0.000146857
1.82817e-05
0.0020955
8.78332e-08
3.67863e-05
0.00201452
5.48219e-05
0.00192811
7.19911e-05
0.00181749
8.79612e-05
0.0016795
0.00010244
0.00151475
0.000115165
0.00132543
0.000125913
0.00111429
0.000134493
0.00088474
0.000140757
0.000640475
0.000144594
0.000385433
0.000123443
0.000145929
1.81643e-05
0.00207724
8.91755e-08
3.65514e-05
0.00199613
5.44724e-05
0.00191019
7.15329e-05
0.00180043
8.74021e-05
0.00166364
0.000101789
0.00150036
0.000114435
0.00131278
0.000125115
0.00110361
0.000133642
0.000876212
0.000139867
0.000634246
0.00014368
0.00038161
0.000122088
0.000145007
1.80477e-05
0.00205911
9.04599e-08
3.63179e-05
0.00197786
5.41252e-05
0.00189238
7.10777e-05
0.00178348
8.68466e-05
0.00164787
0.000101143
0.00148607
0.000113709
0.00130023
0.000124323
0.001093
0.000132797
0.000867746
0.000138983
0.000628067
0.000142772
0.000377827
0.000120771
0.000144091
1.79317e-05
0.00204108
9.16764e-08
3.60859e-05
0.00195971
5.37802e-05
0.00187469
7.06253e-05
0.00176663
8.62946e-05
0.0016322
0.000100501
0.00147186
0.000112988
0.00128774
0.000123536
0.00108246
0.000131957
0.000859323
0.000138104
0.000621914
0.00014187
0.00037405
0.000119431
0.000143181
1.78165e-05
0.00202318
9.28181e-08
3.58554e-05
0.00194167
5.34374e-05
0.00185711
7.01758e-05
0.0017499
8.57462e-05
0.00161664
9.98633e-05
0.00145775
0.000112272
0.00127534
0.000122754
0.00107198
0.000131122
0.000850962
0.000137232
0.000615811
0.000140974
0.000370313
0.000118133
0.000142276
1.7702e-05
0.00200538
9.38804e-08
3.56264e-05
0.00192375
5.30968e-05
0.00183964
6.97292e-05
0.00173327
8.52013e-05
0.00160117
9.92296e-05
0.00144373
0.000111561
0.00126301
0.000121976
0.00106157
0.000130293
0.000842644
0.000136365
0.000609734
0.000140084
0.000366582
0.000116808
0.000141378
1.75882e-05
0.0019877
9.48627e-08
3.53987e-05
0.00190594
5.27583e-05
0.00182228
6.92854e-05
0.00171674
8.46599e-05
0.0015858
9.85999e-05
0.00142979
0.000110854
0.00125076
0.000121204
0.00105122
0.000129469
0.000834386
0.000135503
0.000603706
0.000139199
0.000362891
0.000115526
0.000140485
1.74751e-05
0.00197013
9.57661e-08
3.51725e-05
0.00188824
5.2422e-05
0.00180503
6.88445e-05
0.00170032
8.41219e-05
0.00157052
9.79743e-05
0.00141594
0.000110151
0.00123859
0.000120437
0.00104094
0.000128651
0.000826171
0.000134647
0.000597703
0.000138321
0.000359205
0.000114217
0.000139599
1.73627e-05
0.00195267
9.65945e-08
3.49478e-05
0.00187066
5.20878e-05
0.00178789
6.84064e-05
0.00168401
8.35874e-05
0.00155535
9.73528e-05
0.00140218
0.000109453
0.00122649
0.000119675
0.00103072
0.000127838
0.000818016
0.000133797
0.00059175
0.000137448
0.000355559
0.000112952
0.000138718
1.7251e-05
0.00193532
9.73513e-08
3.47244e-05
0.00185318
5.17557e-05
0.00177086
6.79711e-05
0.00166779
8.30564e-05
0.00154026
9.67352e-05
0.00138851
0.00010876
0.00121447
0.000118918
0.00102056
0.00012703
0.000809902
0.000132952
0.00058582
0.00013658
0.000351918
0.000111657
0.000137843
1.714e-05
0.00191809
9.80411e-08
3.45024e-05
0.00183582
5.14257e-05
0.00175394
6.75386e-05
0.00165168
8.25287e-05
0.00152528
9.61216e-05
0.00137492
0.000108071
0.00120253
0.000118166
0.00101048
0.000126227
0.000801848
0.000132113
0.00057994
0.000135719
0.000348317
0.000110407
0.000136974
1.70296e-05
0.00190096
9.86666e-08
3.42818e-05
0.00181857
5.10979e-05
0.00173713
6.71089e-05
0.00163567
8.20045e-05
0.00151038
9.5512e-05
0.00136142
0.000107387
0.00119065
0.000117419
0.00100044
0.00012543
0.000793834
0.00013128
0.000574083
0.000134863
0.000344719
0.000109126
0.00013611
1.69199e-05
0.00188394
9.92321e-08
3.40626e-05
0.00180143
5.07721e-05
0.00172042
6.66819e-05
0.00161977
8.14836e-05
0.00149559
9.49064e-05
0.001348
0.000106707
0.00117886
0.000116676
0.000990482
0.000124637
0.00078588
0.000130451
0.000568275
0.000134013
0.000341163
0.000107893
0.000135252
1.68109e-05
0.00186703
9.97409e-08
3.38448e-05
0.0017844
5.04484e-05
0.00170382
6.62576e-05
0.00160396
8.09661e-05
0.00148088
9.43046e-05
0.00133466
0.000106031
0.00116714
0.000115939
0.000980574
0.00012385
0.000777965
0.000129628
0.000562489
0.000133168
0.000337608
0.000106626
0.0001344
1.67026e-05
0.00185023
1.002e-07
3.36283e-05
0.00176747
5.01267e-05
0.00168732
6.58361e-05
0.00158826
8.0452e-05
0.00146627
9.37068e-05
0.00132142
0.00010536
0.00115549
0.000115206
0.000970735
0.000123069
0.000770108
0.000128811
0.000556753
0.000132329
0.000334095
0.000105407
0.000133554
1.6595e-05
0.00183353
1.00617e-07
3.34132e-05
0.00175065
4.98071e-05
0.00167093
6.54173e-05
0.00157265
7.99411e-05
0.00145175
9.31129e-05
0.00130825
0.000104693
0.00114391
0.000114478
0.00096095
0.000122292
0.000762291
0.000127999
0.000551038
0.000131495
0.000330583
0.000104155
0.000132713
1.6488e-05
0.00181694
1.01006e-07
3.31995e-05
0.00173395
4.94895e-05
0.00165464
6.50011e-05
0.00155714
7.94336e-05
0.00143732
9.25228e-05
0.00129516
0.000104031
0.00113241
0.000113755
0.000951233
0.00012152
0.000754531
0.000127192
0.000545372
0.000130667
0.000327113
0.000102951
0.000131877
1.63816e-05
0.00180046
1.01383e-07
3.2987e-05
0.00171734
4.9174e-05
0.00163846
6.45877e-05
0.00154173
7.89294e-05
0.00142298
9.19365e-05
0.00128216
0.000103373
0.00112097
0.000113036
0.000941569
0.000120753
0.00074681
0.00012639
0.000539727
0.000129844
0.000323643
0.000101712
0.000131048
1.6276e-05
0.00178409
1.01771e-07
3.2776e-05
0.00170084
4.88605e-05
0.00162238
6.41769e-05
0.00152642
7.84284e-05
0.00140874
9.13541e-05
0.00126924
0.000102719
0.00110961
0.000112322
0.000931972
0.000119992
0.000739146
0.000125594
0.00053413
0.000129027
0.000320215
0.000100523
0.000130223
1.6171e-05
0.00176781
1.02191e-07
3.25662e-05
0.00168445
4.8549e-05
0.00160639
6.37688e-05
0.0015112
7.79307e-05
0.00139458
9.07755e-05
0.0012564
0.000102069
0.00109832
0.000111613
0.000922427
0.000119235
0.00073152
0.000124803
0.000528554
0.000128215
0.000316787
9.92981e-05
0.000129404
1.60667e-05
0.00175164
1.02667e-07
3.23579e-05
0.00166816
4.82395e-05
0.00159052
6.33633e-05
0.00149608
7.74362e-05
0.00138051
9.02007e-05
0.00124364
0.000101424
0.0010871
0.000110909
0.000912949
0.000118484
0.00072395
0.000124017
0.000523026
0.000127408
0.000313401
9.81244e-05
0.000128591
1.5963e-05
0.00173558
1.03222e-07
3.21508e-05
0.00165197
4.7932e-05
0.00157473
6.29605e-05
0.00148105
7.6945e-05
0.00136653
8.96296e-05
0.00123095
0.000100783
0.00107595
0.000110209
0.000903522
0.000117737
0.000716417
0.000123237
0.000517518
0.000126607
0.000310014
9.69129e-05
0.000127783
1.586e-05
0.00171962
1.03872e-07
3.1945e-05
0.00163589
4.76265e-05
0.00155906
6.25603e-05
0.00146613
7.6457e-05
0.00135264
8.90623e-05
0.00121836
0.000100146
0.00106487
0.000109514
0.000894161
0.000116995
0.00070894
0.000122461
0.000512057
0.000125811
0.00030667
9.57537e-05
0.00012698
1.57576e-05
0.00170375
1.04631e-07
3.17406e-05
0.0016199
4.73229e-05
0.00154348
6.21626e-05
0.00145129
7.59722e-05
0.00133883
8.84987e-05
0.00120583
9.95138e-05
0.00105386
0.000108823
0.00088485
0.000116259
0.0007015
0.000121691
0.000506616
0.000125021
0.000303323
9.45559e-05
0.000126183
1.56559e-05
0.00168799
1.05504e-07
3.15375e-05
0.00160403
4.70214e-05
0.001528
6.17676e-05
0.00143655
7.54905e-05
0.00132511
8.79388e-05
0.00119339
9.88854e-05
0.00104291
0.000108137
0.000875605
0.000115527
0.000694115
0.000120926
0.000501223
0.000124235
0.00030002
9.34112e-05
0.000125391
1.55548e-05
0.00167233
1.0649e-07
3.13357e-05
0.00158824
4.67218e-05
0.00151261
6.13752e-05
0.00142189
7.5012e-05
0.00131147
8.73825e-05
0.00118102
9.82611e-05