/*--------------------------------*- C++ -*----------------------------------*\
  =========                 |
  \\      /  F ield         | OpenFOAM: The Open Source CFD Toolbox
   \\    /   O peration     | Website:  https://openfoam.org
    \\  /    A nd           | Version:  6.0
     \\/     M anipulation  |
\*---------------------------------------------------------------------------*/
FoamFile
{
    version     2.0;
    format      ascii;
    class       volScalarField;
    location    "13";
    object      p;
}
// * * * * * * * * * * * * * * * * * * * * * * * * * * * * * * * * * * * * * //

dimensions      [0 2 -2 0 0 0 0];

internalField   nonuniform List<scalar> 
8000
(
-0.330932
-0.3352
-0.337694
-0.339154
-0.340022
-0.340371
-0.340282
-0.339835
-0.339098
-0.338125
-0.336961
-0.335648
-0.334218
-0.332701
-0.331122
-0.329507
-0.327871
-0.326202
-0.3245
-0.323089
-0.331597
-0.335818
-0.33827
-0.339692
-0.340521
-0.340833
-0.340706
-0.340223
-0.339451
-0.338443
-0.337246
-0.3359
-0.334438
-0.33289
-0.331282
-0.329639
-0.327977
-0.326282
-0.324554
-0.323134
-0.33293
-0.337054
-0.339425
-0.340769
-0.34152
-0.341756
-0.341555
-0.340999
-0.340156
-0.339079
-0.337814
-0.336402
-0.334876
-0.333266
-0.331598
-0.329898
-0.328184
-0.326438
-0.324658
-0.323219
-0.334933
-0.338913
-0.341158
-0.342385
-0.343018
-0.343139
-0.342825
-0.342161
-0.341211
-0.340029
-0.338662
-0.33715
-0.335527
-0.333822
-0.332064
-0.330278
-0.328483
-0.326658
-0.3248
-0.323334
-0.337614
-0.341396
-0.343473
-0.34454
-0.345015
-0.344981
-0.344517
-0.343706
-0.342612
-0.341291
-0.339786
-0.338139
-0.336384
-0.334551
-0.332669
-0.330765
-0.32886
-0.326926
-0.324962
-0.323462
-0.340981
-0.34451
-0.34637
-0.347235
-0.34751
-0.347281
-0.346628
-0.345632
-0.344358
-0.34286
-0.341182
-0.339364
-0.337441
-0.335444
-0.333402
-0.331346
-0.329297
-0.327223
-0.32512
-0.323582
-0.345045
-0.348259
-0.349854
-0.350471
-0.350503
-0.350036
-0.349154
-0.347936
-0.346445
-0.344733
-0.342844
-0.340818
-0.338689
-0.336489
-0.33425
-0.332004
-0.329775
-0.327522
-0.325247
-0.323665
-0.349819
-0.352651
-0.353925
-0.354247
-0.35399
-0.353245
-0.352095
-0.350616
-0.34887
-0.346907
-0.34477
-0.342497
-0.340123
-0.337679
-0.335199
-0.332721
-0.330268
-0.327794
-0.325305
-0.323675
-0.355317
-0.357691
-0.358587
-0.358563
-0.357971
-0.356905
-0.355445
-0.353668
-0.351631
-0.349381
-0.346958
-0.3444
-0.341738
-0.339006
-0.336239
-0.333479
-0.330753
-0.328004
-0.325251
-0.323567
-0.361553
-0.363384
-0.363838
-0.363416
-0.362441
-0.36101
-0.359203
-0.35709
-0.354727
-0.352155
-0.34941
-0.346527
-0.343535
-0.340468
-0.337361
-0.334262
-0.331203
-0.328113
-0.325033
-0.323281
-0.36854
-0.369734
-0.369676
-0.3688
-0.367393
-0.365555
-0.363362
-0.360881
-0.358159
-0.355232
-0.352132
-0.348885
-0.34552
-0.342067
-0.338561
-0.335058
-0.331592
-0.328079
-0.324586
-0.32274
-0.376286
-0.376737
-0.376094
-0.374707
-0.37282
-0.370532
-0.367919
-0.365038
-0.361928
-0.358619
-0.355133
-0.351489
-0.347709
-0.343817
-0.339848
-0.335862
-0.331898
-0.327855
-0.323832
-0.321844
-0.384791
-0.384386
-0.38308
-0.381124
-0.378707
-0.37593
-0.372864
-0.369556
-0.366037
-0.362325
-0.35843
-0.354361
-0.350128
-0.345745
-0.341245
-0.336685
-0.332109
-0.327393
-0.322676
-0.320457
-0.394046
-0.392663
-0.390615
-0.388031
-0.385037
-0.381734
-0.378187
-0.374433
-0.370489
-0.366361
-0.362045
-0.357534
-0.35282
-0.347903
-0.342799
-0.337563
-0.332235
-0.326656
-0.321005
-0.318395
-0.404026
-0.401542
-0.398672
-0.395403
-0.391787
-0.387925
-0.383874
-0.37966
-0.375286
-0.370742
-0.366008
-0.361054
-0.355851
-0.350368
-0.344598
-0.338576
-0.332325
-0.325627
-0.318681
-0.315398
-0.414688
-0.410983
-0.407214
-0.403207
-0.398928
-0.394479
-0.389908
-0.385228
-0.380429
-0.375486
-0.370357
-0.364988
-0.359316
-0.353271
-0.346798
-0.339891
-0.332524
-0.324365
-0.315583
-0.311158
-0.425974
-0.420935
-0.416197
-0.411404
-0.406427
-0.401366
-0.396265
-0.391123
-0.38592
-0.380612
-0.37514
-0.369422
-0.363354
-0.356816
-0.349679
-0.34186
-0.333241
-0.323278
-0.311942
-0.30557
-0.437801
-0.431334
-0.425566
-0.419947
-0.414242
-0.408553
-0.402918
-0.397328
-0.391751
-0.386136
-0.380405
-0.374452
-0.368136
-0.361271
-0.353634
-0.345023
-0.335177
-0.323124
-0.307988
-0.297552
-0.450075
-0.442106
-0.435262
-0.428785
-0.42233
-0.416002
-0.409835
-0.403815
-0.397909
-0.392062
-0.386192
-0.38018
-0.373853
-0.366955
-0.359129
-0.349969
-0.338848
-0.323652
-0.30104
-0.280839
-0.462686
-0.453168
-0.445219
-0.437863
-0.430644
-0.423669
-0.416976
-0.41055
-0.404365
-0.398381
-0.392536
-0.386737
-0.380838
-0.374596
-0.367624
-0.359366
-0.348652
-0.331658
-0.301911
-0.27152
-0.475518
-0.464435
-0.455369
-0.447124
-0.439134
-0.43151
-0.424295
-0.417478
-0.411051
-0.405004
-0.399329
-0.394025
-0.389103
-0.384604
-0.380648
-0.377521
-0.375525
-0.374852
-0.37937
-0.404164
-0.488456
-0.47582
-0.465641
-0.456511
-0.44775
-0.439476
-0.431736
-0.424525
-0.417847
-0.411721
-0.406179
-0.401283
-0.397134
-0.393899
-0.39187
-0.391482
-0.393174
-0.397808
-0.410078
-0.437369
-0.50139
-0.487239
-0.475971
-0.465969
-0.456446
-0.447525
-0.439254
-0.431632
-0.424671
-0.418404
-0.412885
-0.408201
-0.404482
-0.401923
-0.400808
-0.401498
-0.404283
-0.409799
-0.421322
-0.441575
-0.514218
-0.498611
-0.486291
-0.475443
-0.465176
-0.455617
-0.446814
-0.438763
-0.431477
-0.424994
-0.419374
-0.414706
-0.411115
-0.408774
-0.407912
-0.408775
-0.411502
-0.416497
-0.426032
-0.440509
-0.526851
-0.509859
-0.496538
-0.484881
-0.473897
-0.463715
-0.45438
-0.445881
-0.438229
-0.431454
-0.425608
-0.420767
-0.41703
-0.414524
-0.413402
-0.413795
-0.415706
-0.419379
-0.426534
-0.436412
-0.539205
-0.520909
-0.506644
-0.494222
-0.482555
-0.471771
-0.461908
-0.452947
-0.444885
-0.437743
-0.431555
-0.426373
-0.422259
-0.419291
-0.417548
-0.417066
-0.417761
-0.419786
-0.424532
-0.430565
-0.551199
-0.531682
-0.516537
-0.5034
-0.491089
-0.479727
-0.469343
-0.459903
-0.451391
-0.44381
-0.437174
-0.431504
-0.426829
-0.423177
-0.420569
-0.418977
-0.418265
-0.41855
-0.420997
-0.423754
-0.562751
-0.542095
-0.526138
-0.51234
-0.499425
-0.48751
-0.47661
-0.466675
-0.457672
-0.449585
-0.442404
-0.436124
-0.43074
-0.426241
-0.422608
-0.41977
-0.417573
-0.416122
-0.416401
-0.416329
-0.57377
-0.552057
-0.535353
-0.520949
-0.507474
-0.495029
-0.483618
-0.47317
-0.463636
-0.454979
-0.447169
-0.440175
-0.433967
-0.428506
-0.423746
-0.419594
-0.415896
-0.412759
-0.411008
-0.408475
-0.584153
-0.561462
-0.54408
-0.529125
-0.515128
-0.502177
-0.490256
-0.479277
-0.469173
-0.459888
-0.451373
-0.443582
-0.436463
-0.429961
-0.424015
-0.418526
-0.413353
-0.408605
-0.404965
-0.400295
-0.593779
-0.570192
-0.552201
-0.536749
-0.52227
-0.50883
-0.4964
-0.48487
-0.474156
-0.46419
-0.454909
-0.446253
-0.43816
-0.430569
-0.423412
-0.416596
-0.409999
-0.403731
-0.398349
-0.39183
-0.602514
-0.578114
-0.559584
-0.543689
-0.528763
-0.514853
-0.50191
-0.489807
-0.478449
-0.467755
-0.457656
-0.448085
-0.438979
-0.430274
-0.421907
-0.413795
-0.405843
-0.398158
-0.391181
-0.383081
-0.610205
-0.585082
-0.566084
-0.549798
-0.53446
-0.520096
-0.506635
-0.493941
-0.481905
-0.470445
-0.459487
-0.448967
-0.438824
-0.429001
-0.419445
-0.410089
-0.400864
-0.391871
-0.38345
-0.374011
-0.616684
-0.590937
-0.571545
-0.554921
-0.539205
-0.524398
-0.510417
-0.497112
-0.484372
-0.472114
-0.46027
-0.44878
-0.437594
-0.426667
-0.41596
-0.405424
-0.395015
-0.384828
-0.375113
-0.364557
-0.621771
-0.595508
-0.575801
-0.558891
-0.54283
-0.527595
-0.513089
-0.499158
-0.485692
-0.472614
-0.459866
-0.4474
-0.435181
-0.42318
-0.411372
-0.399732
-0.388237
-0.376971
-0.366107
-0.354639
-0.625278
-0.598618
-0.578677
-0.561537
-0.545163
-0.529513
-0.514481
-0.499913
-0.485706
-0.471796
-0.458139
-0.444705
-0.431476
-0.418443
-0.405598
-0.392936
-0.380456
-0.368228
-0.356359
-0.344162
-0.627009
-0.600083
-0.579995
-0.56268
-0.546028
-0.529978
-0.514422
-0.499211
-0.484257
-0.469512
-0.454953
-0.440571
-0.42637
-0.412358
-0.398549
-0.384955
-0.371596
-0.358521
-0.345785
-0.333027
-0.626769
-0.599717
-0.579575
-0.562142
-0.545248
-0.528816
-0.512741
-0.496889
-0.481189
-0.465618
-0.450176
-0.43488
-0.419755
-0.404831
-0.390139
-0.37571
-0.361578
-0.347773
-0.334302
-0.321133
-0.624363
-0.597337
-0.577236
-0.559746
-0.542646
-0.525854
-0.509273
-0.492788
-0.476354
-0.459977
-0.443685
-0.427521
-0.411533
-0.395772
-0.380286
-0.365123
-0.350327
-0.335906
-0.321826
-0.308385
-0.619603
-0.592762
-0.572803
-0.555317
-0.538054
-0.520927
-0.503858
-0.486757
-0.469613
-0.452462
-0.435365
-0.418391
-0.401613
-0.385101
-0.368918
-0.353125
-0.337775
-0.322851
-0.308284
-0.294694
-0.612313
-0.585825
-0.566109
-0.548692
-0.531309
-0.513879
-0.496348
-0.478659
-0.460839
-0.44296
-0.425115
-0.407402
-0.389917
-0.372747
-0.355969
-0.339655
-0.323863
-0.308547
-0.29361
-0.279983
-0.60232
-0.576358
-0.556993
-0.539712
-0.522257
-0.504563
-0.486604
-0.468367
-0.449918
-0.431369
-0.412846
-0.394477
-0.376378
-0.358653
-0.341388
-0.324665
-0.308542
-0.292945
-0.277748
-0.264189
-0.589476
-0.564219
-0.545312
-0.528235
-0.510763
-0.492849
-0.474508
-0.455772
-0.436754
-0.417606
-0.39849
-0.379558
-0.360948
-0.342777
-0.325138
-0.308119
-0.291779
-0.27601
-0.26066
-0.247261
-0.573654
-0.54928
-0.530938
-0.514138
-0.496707
-0.478626
-0.459957
-0.440785
-0.42127
-0.401608
-0.381993
-0.362604
-0.343595
-0.325093
-0.307199
-0.29
-0.273554
-0.25772
-0.242318
-0.229166
-0.554745
-0.531433
-0.513765
-0.497315
-0.479988
-0.461802
-0.442872
-0.423338
-0.403413
-0.383333
-0.363327
-0.343594
-0.324306
-0.305595
-0.287564
-0.270303
-0.253863
-0.23807
-0.222714
-0.209883
-0.532667
-0.510593
-0.493708
-0.477685
-0.460531
-0.44231
-0.423194
-0.403386
-0.383149
-0.362761
-0.342481
-0.322529
-0.303086
-0.284292
-0.266248
-0.249043
-0.23272
-0.217072
-0.201853
-0.189412
-0.507367
-0.486704
-0.470707
-0.455188
-0.438284
-0.420107
-0.400894
-0.38091
-0.360472
-0.339896
-0.319469
-0.299428
-0.279964
-0.261216
-0.243284
-0.226251
-0.210155
-0.194752
-0.17976
-0.167767
-0.478821
-0.459734
-0.444729
-0.429797
-0.413222
-0.395178
-0.375967
-0.355918
-0.3354
-0.314767
-0.294328
-0.274337
-0.254987
-0.236417
-0.218722
-0.201979
-0.186217
-0.171158
-0.156474
-0.144979
-0.447035
-0.429685
-0.415773
-0.401509
-0.385351
-0.367536
-0.348435
-0.328443
-0.307977
-0.287426
-0.267119
-0.24732
-0.228224
-0.209967
-0.192634
-0.176297
-0.160975
-0.146355
-0.132058
-0.121098
-0.412048
-0.396586
-0.383866
-0.370354
-0.354705
-0.337224
-0.318351
-0.298546
-0.278273
-0.25795
-0.237924
-0.218465
-0.199766
-0.181955
-0.165111
-0.149294
-0.134516
-0.120429
-0.106592
-0.0961953
-0.373935
-0.360501
-0.349067
-0.336393
-0.32135
-0.304314
-0.285795
-0.266316
-0.246384
-0.226442
-0.20685
-0.187879
-0.169721
-0.152494
-0.136263
-0.121081
-0.10695
-0.0934875
-0.0801806
-0.0703646
-0.332803
-0.321528
-0.31147
-0.29972
-0.285383
-0.268908
-0.250876
-0.231868
-0.212428
-0.193023
-0.17402
-0.15569
-0.138218
-0.121711
-0.106221
-0.091789
-0.0784078
-0.065664
-0.0529564
-0.0437271
-0.288793
-0.279797
-0.271199
-0.260457
-0.246929
-0.231137
-0.213728
-0.195338
-0.176546
-0.157835
-0.139578
-0.122043
-0.105402
-0.0897525
-0.0751316
-0.0615676
-0.0490447
-0.0371176
-0.0250827
-0.0164381
-0.242082
-0.23547
-0.228411
-0.218762
-0.206147
-0.19116
-0.174511
-0.156888
-0.138899
-0.121039
-0.103683
-0.0870918
-0.0714288
-0.0567761
-0.0431566
-0.0305851
-0.0190373
-0.00803793
0.00323745
0.0113038
-0.192879
-0.188743
-0.183295
-0.174821
-0.163221
-0.14916
-0.133409
-0.116699
-0.0996637
-0.0828072
-0.0665021
-0.0510021
-0.0364601
-0.0229451
-0.0104655
0.000977583
0.0114156
0.0213497
0.0317471
0.0392364
-0.141428
-0.139845
-0.136071
-0.128848
-0.118363
-0.105348
-0.0906259
-0.0749694
-0.0590312
-0.0433207
-0.0282074
-0.0139375
-0.000654356
0.0115833
0.0227786
0.0329416
0.0421065
0.0507913
0.0601305
0.0670113
-0.0880003
-0.0890323
-0.086988
-0.0810884
-0.0718124
-0.0599549
-0.0463868
-0.0319138
-0.0172035
-0.00276772
0.0110283
0.023945
0.0358454
0.0466759
0.0564442
0.0651661
0.0728709
0.0800704
0.0880643
0.094201
-0.0329005
-0.036591
-0.0363211
-0.0318098
-0.0238307
-0.0132351
-0.000934438
0.0122385
0.0256066
0.0386589
0.0510348
0.0624994
0.0729171
0.0822307
0.0904402
0.0975572
0.103595
0.108985
0.115056
0.119971
0.0235424
0.0171679
0.0156293
0.0186954
0.0252986
0.0345381
0.0454705
0.0572432
0.0691753
0.0807606
0.0916444
0.101595
0.11047
0.118195
0.124735
0.130072
0.134146
0.137039
0.139636
0.141824
0.0809744
0.0719102
0.0685406
0.0701137
0.0752716
0.0830722
0.0925494
0.102839
0.113264
0.123328
0.132689
0.141123
0.148487
0.154682
0.159633
0.163278
0.165389
0.165191
0.162319
0.159925
0.139019
0.12728
0.12207
0.122112
0.125766
0.132057
0.140005
0.148742
0.157605
0.166117
0.173958
0.180927
0.186907
0.191832
0.195682
0.198529
0.200271
0.199599
0.195584
0.201072
0.197307
0.182922
0.175871
0.174353
0.176453
0.181172
0.187526
0.194652
0.201903
0.208829
0.215135
0.220651
0.225293
0.229034
0.231917
0.2341
0.23561
0.23555
0.233949
0.241754
0.25544
0.238458
0.229577
0.22648
0.226987
0.230085
0.23479
0.240253
0.245847
0.251148
0.255889
0.259924
0.263192
0.265693
0.267492
0.268753
0.269506
0.26904
0.267615
0.274478
0.313019
0.293505
0.282819
0.278136
0.277023
0.278461
0.281476
0.285233
0.289131
0.292773
0.295914
0.298431
0.300281
0.301478
0.302094
0.302282
0.302063
0.300807
0.29879
0.304039
0.369647
0.347683
0.335228
0.328962
0.326217
0.325971
0.327267
0.329289
0.331464
0.333419
0.334933
0.335901
0.336291
0.336125
0.335476
0.334481
0.333148
0.330914
0.328072
0.331684
0.424935
0.400614
0.386437
0.378605
0.374227
0.372289
0.371854
0.372128
0.372567
0.372823
0.372698
0.372098
0.371004
0.36944
0.367477
0.365236
0.362714
0.359411
0.355645
0.35764
0.478499
0.451929
0.436087
0.426718
0.420723
0.417101
0.414939
0.413471
0.41218
0.410743
0.408982
0.406819
0.404239
0.40127
0.397979
0.394473
0.390743
0.386352
0.381634
0.382041
0.529968
0.501268
0.483829
0.472964
0.465384
0.460104
0.45624
0.453054
0.450057
0.446953
0.443583
0.439879
0.435835
0.43148
0.426877
0.422121
0.417201
0.411741
0.406079
0.404944
0.578988
0.548283
0.529326
0.51702
0.507901
0.501007
0.495484
0.490625
0.485968
0.481244
0.47631
0.471111
0.465645
0.459945
0.454068
0.448102
0.442033
0.435546
0.428969
0.426352
0.625219
0.592645
0.572257
0.558577
0.547983
0.539537
0.532419
0.525949
0.519699
0.51342
0.506987
0.500355
0.49353
0.486544
0.479452
0.472332
0.465175
0.457716
0.450266
0.446238
0.668341
0.634041
0.612319
0.597345
0.585355
0.575437
0.566803
0.558808
0.551047
0.543296
0.535447
0.527464
0.519357
0.511161
0.502928
0.494726
0.48655
0.478186
0.469915
0.464561
0.708055
0.672179
0.64923
0.633054
0.619761
0.608466
0.598417
0.588995
0.579825
0.570703
0.561536
0.552298
0.543002
0.533684
0.524394
0.515193
0.506079
0.496885
0.487852
0.481268
0.744087
0.706792
0.682728
0.665453
0.650964
0.638405
0.627055
0.616324
0.605861
0.595484
0.585112
0.574726
0.564346
0.554006
0.543754
0.533645
0.523682
0.513737
0.504011
0.496304
0.776184
0.737634
0.712578
0.694317
0.678752
0.665055
0.652533
0.640623
0.629
0.617496
0.606043
0.59463
0.583279
0.572026
0.560917
0.549999
0.53928
0.528669
0.518324
0.50961
0.804125
0.764488
0.738568
0.719444
0.702935
0.688237
0.674686
0.661743
0.649101
0.63661
0.624212
0.611902
0.599704
0.587655
0.575797
0.564176
0.552801
0.541611
0.530726
0.521131
0.827715
0.787163
0.760513
0.740657
0.723345
0.707797
0.693371
0.67955
0.666043
0.652715
0.639516
0.626446
0.613531
0.600809
0.58832
0.576105
0.564177
0.552501
0.541159
0.530816
0.846788
0.8055
0.778259
0.757809
0.739845
0.723604
0.708467
0.693932
0.679723
0.665716
0.651867
0.638181
0.624686
0.611419
0.59842
0.585725
0.573351
0.561283
0.549571
0.538621
0.86121
0.819367
0.791681
0.770779
0.752319
0.735553
0.719876
0.704799
0.690058
0.675535
0.661194
0.647041
0.633107
0.619429
0.606044
0.592985
0.580275
0.56791
0.555918
0.544509
0.870882
0.828668
0.800681
0.779476
0.760684
0.743564
0.727523
0.712082
0.696983
0.682114
0.667442
0.652977
0.638748
0.624793
0.611149
0.597847
0.584911
0.572349
0.560169
0.54845
0.875735
0.833334
0.805198
0.78384
0.76488
0.747583
0.731359
0.715735
0.700456
0.685414
0.670576
0.655953
0.641576
0.627483
0.613709
0.600285
0.587236
0.574574
0.5623
0.550426
0.875735
0.833334
0.805198
0.78384
0.76488
0.747583
0.73136
0.715735
0.700456
0.685414
0.670576
0.655953
0.641576
0.627483
0.613709
0.600285
0.587236
0.574574
0.5623
0.550426
0.870883
0.828668
0.800682
0.779477
0.760684
0.743564
0.727523
0.712082
0.696983
0.682114
0.667442
0.652977
0.638748
0.624793
0.611149
0.597848
0.584911
0.572349
0.560169
0.54845
0.861211
0.819368
0.791681
0.770779
0.75232
0.735554
0.719876
0.704799
0.690058
0.675536
0.661194
0.647042
0.633107
0.619429
0.606044
0.592986
0.580275
0.567911
0.555918
0.544509
0.846788
0.805501
0.77826
0.757809
0.739845
0.723605
0.708468
0.693932
0.679724
0.665717
0.651868
0.638181
0.624686
0.61142
0.598421
0.585725
0.573352
0.561283
0.549571
0.538622
0.827716
0.787164
0.760514
0.740658
0.723346
0.707798
0.693372
0.67955
0.666044
0.652716
0.639517
0.626446
0.613531
0.60081
0.588321
0.576105
0.564178
0.552502
0.541159
0.530817
0.804126
0.764489
0.738569
0.719445
0.702936
0.688238
0.674687
0.661744
0.649102
0.636611
0.624213
0.611902
0.599704
0.587655
0.575798
0.564176
0.552802
0.541612
0.530727
0.521131
0.776186
0.737635
0.712579
0.694318
0.678754
0.665056
0.652534
0.640624
0.629001
0.617497
0.606044
0.594631
0.58328
0.572027
0.560918
0.55
0.539281
0.528669
0.518325
0.50961
0.744088
0.706793
0.68273
0.665455
0.650966
0.638407
0.627056
0.616325
0.605862
0.595485
0.585113
0.574727
0.564347
0.554007
0.543755
0.533646
0.523683
0.513738
0.504012
0.496304
0.708057
0.672181
0.649231
0.633056
0.619762
0.608468
0.598418
0.588996
0.579826
0.570705
0.561537
0.552299
0.543003
0.533685
0.524395
0.515194
0.50608
0.496886
0.487853
0.481269
0.668343
0.634043
0.612321
0.597347
0.585357
0.575439
0.566805
0.558809
0.551048
0.543297
0.535448
0.527465
0.519359
0.511162
0.502929
0.494727
0.486551
0.478187
0.469916
0.464562
0.625221
0.592647
0.572259
0.558579
0.547985
0.539539
0.53242
0.525951
0.5197
0.513421
0.506988
0.500357
0.493531
0.486545
0.479454
0.472334
0.465176
0.457717
0.450267
0.446239
0.57899
0.548285
0.529328
0.517022
0.507903
0.501009
0.495486
0.490626
0.48597
0.481246
0.476312
0.471112
0.465647
0.459946
0.45407
0.448103
0.442035
0.435547
0.42897
0.426353
0.529971
0.50127
0.483831
0.472966
0.465386
0.460106
0.456242
0.453055
0.450058
0.446955
0.443585
0.439881
0.435837
0.431482
0.426878
0.422122
0.417202
0.411742
0.40608
0.404945
0.478501
0.451932
0.436089
0.42672
0.420725
0.417103
0.414941
0.413473
0.412181
0.410745
0.408984
0.406821
0.404241
0.401272
0.397981
0.394475
0.390745
0.386353
0.381635
0.382042
0.424937
0.400617
0.386439
0.378607
0.37423
0.372292
0.371856
0.37213
0.372569
0.372825
0.372699
0.3721
0.371006
0.369442
0.367478
0.365237
0.362715
0.359412
0.355646
0.357641
0.36965
0.347685
0.33523
0.328965
0.326219
0.325973
0.327269
0.329291
0.331466
0.333421
0.334935
0.335903
0.336293
0.336126
0.335477
0.334482
0.33315
0.330915
0.328073
0.331685
0.313022
0.293507
0.282821
0.278138
0.277026
0.278464
0.281478
0.285235
0.289134
0.292775
0.295916
0.298433
0.300283
0.301479
0.302095
0.302284
0.302064
0.300808
0.298792
0.30404
0.255443
0.23846
0.22958
0.226483
0.22699
0.230087
0.234792
0.240255
0.245849
0.25115
0.255891
0.259926
0.263194
0.265695
0.267494
0.268754
0.269507
0.269041
0.267616
0.274479
0.19731
0.182925
0.175874
0.174356
0.176455
0.181174
0.187528
0.194654
0.201906
0.208831
0.215137
0.220653
0.225294
0.229035
0.231919
0.234102
0.235611
0.235551
0.233951
0.241755
0.139022
0.127283
0.122073
0.122115
0.125769
0.132059
0.140007
0.148745
0.157608
0.166119
0.17396
0.180929
0.186909
0.191834
0.195684
0.198531
0.200272
0.199601
0.195585
0.201073
0.0809773
0.071913
0.0685433
0.0701163
0.0752741
0.0830747
0.0925517
0.102841
0.113266
0.12333
0.132692
0.141125
0.148489
0.154683
0.159635
0.16328
0.165391
0.165193
0.16232
0.159926
0.0235453
0.0171707
0.015632
0.018698
0.0253012
0.0345405
0.0454729
0.0572455
0.0691775
0.0807627
0.0916465
0.101597
0.110472
0.118197
0.124737
0.130073
0.134147
0.137041
0.139637
0.141825
-0.0328977
-0.0365883
-0.0363184
-0.0318072
-0.0238282
-0.0132327
-0.000932093
0.0122408
0.0256088
0.038661
0.0510368
0.0625013
0.072919
0.0822324
0.0904419
0.0975588
0.103597
0.108987
0.115057
0.119973
-0.0879975
-0.0890296
-0.0869854
-0.0810859
-0.07181
-0.0599525
-0.0463845
-0.0319116
-0.0172014
-0.00276566
0.0110303
0.0239469
0.0358472
0.0466776
0.0564459
0.0651677
0.0728724
0.0800719
0.0880657
0.0942024
-0.141425
-0.139842
-0.136069
-0.128846
-0.118361
-0.105345
-0.0906237
-0.0749673
-0.0590291
-0.0433187
-0.0282055
-0.0139356
-0.00065256
0.0115851
0.0227802
0.0329432
0.042108
0.0507928
0.0601319
0.0670126
-0.192877
-0.188741
-0.183293
-0.174818
-0.163218
-0.149158
-0.133407
-0.116697
-0.0996617
-0.0828053
-0.0665002
-0.0510003
-0.0364583
-0.0229434
-0.0104639
0.000979136
0.0114171
0.0213511
0.0317485
0.0392377
-0.242079
-0.235467
-0.228408
-0.21876
-0.206145
-0.191157
-0.174509
-0.156886
-0.138897
-0.121038
-0.103681
-0.0870901
-0.0714271
-0.0567744
-0.0431551
-0.0305836
-0.0190359
-0.00803654
0.00323879
0.0113051
-0.288791
-0.279794
-0.271197
-0.260455
-0.246927
-0.231135
-0.213726
-0.195336
-0.176544
-0.157834
-0.139577
-0.122041
-0.105401
-0.0897509
-0.07513
-0.0615661
-0.0490433
-0.0371163
-0.0250814
-0.0164368
-0.332801
-0.321526
-0.311468
-0.299718
-0.285381
-0.268906
-0.250874
-0.231866
-0.212426
-0.193021
-0.174018
-0.155689
-0.138217
-0.121709
-0.106219
-0.0917876
-0.0784065
-0.0656627
-0.0529551
-0.0437259
-0.373933
-0.360499
-0.349065
-0.336391
-0.321349
-0.304312
-0.285794
-0.266315
-0.246382
-0.22644
-0.206848
-0.187877
-0.169719
-0.152492
-0.136262
-0.12108
-0.106948
-0.0934863
-0.0801793
-0.0703634
-0.412046
-0.396584
-0.383864
-0.370352
-0.354704
-0.337222
-0.318349
-0.298545
-0.278272
-0.257949
-0.237923
-0.218463
-0.199764
-0.181954
-0.16511
-0.149293
-0.134515
-0.120427
-0.10659
-0.0961942
-0.447033
-0.429683
-0.415771
-0.401507
-0.385349
-0.367535
-0.348433
-0.328441
-0.307975
-0.287424
-0.267118
-0.247319
-0.228223
-0.209966
-0.192633
-0.176296
-0.160974
-0.146354
-0.132057
-0.121097
-0.478819
-0.459733
-0.444728
-0.429795
-0.413221
-0.395177
-0.375965
-0.355917
-0.335399
-0.314766
-0.294327
-0.274336
-0.254986
-0.236416
-0.218721
-0.201978
-0.186216
-0.171157
-0.156473
-0.144978
-0.507366
-0.486703
-0.470705
-0.455187
-0.438282
-0.420106
-0.400893
-0.380909
-0.360471
-0.339895
-0.319468
-0.299427
-0.279963
-0.261215
-0.243283
-0.22625
-0.210154
-0.194751
-0.179759
-0.167766
-0.532666
-0.510592
-0.493707
-0.477684
-0.46053
-0.442309
-0.423194
-0.403385
-0.383148
-0.362761
-0.34248
-0.322528
-0.303085
-0.284291
-0.266248
-0.249042
-0.232719
-0.217071
-0.201853
-0.189411
-0.554743
-0.531432
-0.513764
-0.497315
-0.479988
-0.461802
-0.442871
-0.423337
-0.403412
-0.383333
-0.363326
-0.343594
-0.324305
-0.305594
-0.287563
-0.270302
-0.253862
-0.23807
-0.222713
-0.209883
-0.573653
-0.549279
-0.530938
-0.514138
-0.496706
-0.478626
-0.459957
-0.440784
-0.42127
-0.401608
-0.381993
-0.362603
-0.343594
-0.325093
-0.307198
-0.289999
-0.273553
-0.25772
-0.242318
-0.229165
-0.589476
-0.564219
-0.545311
-0.528235
-0.510763
-0.492849
-0.474508
-0.455772
-0.436753
-0.417606
-0.398489
-0.379558
-0.360948
-0.342776
-0.325138
-0.308119
-0.291778
-0.276009
-0.260659
-0.24726
-0.602319
-0.576358
-0.556993
-0.539712
-0.522257
-0.504563
-0.486604
-0.468367
-0.449918
-0.431369
-0.412846
-0.394477
-0.376378
-0.358652
-0.341388
-0.324664
-0.308541
-0.292945
-0.277748
-0.264188
-0.612313
-0.585825
-0.566109
-0.548693
-0.531309
-0.51388
-0.496348
-0.47866
-0.460839
-0.44296
-0.425115
-0.407402
-0.389917
-0.372747
-0.355969
-0.339655
-0.323862
-0.308547
-0.293609
-0.279983
-0.619603
-0.592763
-0.572803
-0.555318
-0.538054
-0.520928
-0.503858
-0.486758
-0.469613
-0.452463
-0.435365
-0.418391
-0.401613
-0.385101
-0.368918
-0.353125
-0.337775
-0.32285
-0.308284
-0.294693
-0.624364
-0.597337
-0.577236
-0.559747
-0.542647
-0.525855
-0.509274
-0.492788
-0.476355
-0.459977
-0.443685
-0.427521
-0.411533
-0.395772
-0.380287
-0.365123
-0.350327
-0.335906
-0.321826
-0.308384
-0.62677
-0.599718
-0.579576
-0.562143
-0.545249
-0.528817
-0.512742
-0.49689
-0.48119
-0.465618
-0.450177
-0.434881
-0.419756
-0.404831
-0.390139
-0.37571
-0.361578
-0.347773
-0.334301
-0.321133
-0.62701
-0.600084
-0.579996
-0.562681
-0.546029
-0.529979
-0.514423
-0.499212
-0.484258
-0.469513
-0.454954
-0.440572
-0.42637
-0.412359
-0.398549
-0.384956
-0.371596
-0.358521
-0.345785
-0.333027
-0.625279
-0.598619
-0.578678
-0.561538
-0.545165
-0.529514
-0.514483
-0.499915
-0.485708
-0.471797
-0.45814
-0.444706
-0.431477
-0.418443
-0.405599
-0.392936
-0.380456
-0.368228
-0.356359
-0.344162
-0.621772
-0.59551
-0.575802
-0.558893
-0.542832
-0.527597
-0.513091
-0.49916
-0.485694
-0.472616
-0.459867
-0.447402
-0.435183
-0.423181
-0.411373
-0.399733
-0.388237
-0.376971
-0.366108
-0.354639
-0.616685
-0.590939
-0.571547
-0.554923
-0.539207
-0.5244
-0.510419
-0.497114
-0.484374
-0.472116
-0.460271
-0.448781
-0.437595
-0.426669
-0.415961
-0.405425
-0.395016
-0.384829
-0.375113
-0.364557
-0.610207
-0.585084
-0.566086
-0.5498
-0.534462
-0.520098
-0.506638
-0.493943
-0.481907
-0.470447
-0.459489
-0.448969
-0.438825
-0.429003
-0.419446
-0.410091
-0.400865
-0.391872
-0.383451
-0.374011
-0.602516
-0.578116
-0.559586
-0.543691
-0.528765
-0.514856
-0.501912
-0.48981
-0.478451
-0.467757
-0.457658
-0.448087
-0.43898
-0.430275
-0.421908
-0.413797
-0.405844
-0.398159
-0.391182
-0.383082
-0.593782
-0.570194
-0.552204
-0.536752
-0.522272
-0.508833
-0.496402
-0.484872
-0.474158
-0.464192
-0.454911
-0.446255
-0.438163
-0.430571
-0.423414
-0.416597
-0.410001
-0.403733
-0.39835
-0.391831
-0.584155
-0.561464
-0.544083
-0.529128
-0.515131
-0.502179
-0.490259
-0.47928
-0.469175
-0.45989
-0.451376
-0.443584
-0.436465
-0.429964
-0.424017
-0.418528
-0.413355
-0.408607
-0.404967
-0.400296
-0.573773
-0.55206
-0.535356
-0.520952
-0.507476
-0.495032
-0.483621
-0.473173
-0.463639
-0.454982
-0.447172
-0.440178
-0.43397
-0.428509
-0.423748
-0.419596
-0.415898
-0.412761
-0.411009
-0.408477
-0.562754
-0.542098
-0.526141
-0.512343
-0.499429
-0.487513
-0.476613
-0.466678
-0.457675
-0.449588
-0.442407
-0.436127
-0.430743
-0.426244
-0.422611
-0.419773
-0.417575
-0.416124
-0.416403
-0.416331
-0.551202
-0.531685
-0.516541
-0.503404
-0.491093
-0.47973
-0.469346
-0.459906
-0.451394
-0.443813
-0.437177
-0.431507
-0.426832
-0.42318
-0.420572
-0.41898
-0.418267
-0.418552
-0.420999
-0.423756
-0.539208
-0.520912
-0.506647
-0.494225
-0.482558
-0.471774
-0.461912
-0.45295
-0.444888
-0.437746
-0.431559
-0.426376
-0.422263
-0.419294
-0.417551
-0.417069
-0.417763
-0.419788
-0.424534
-0.430567
-0.526854
-0.509863
-0.496541
-0.484884
-0.4739
-0.463718
-0.454383
-0.445885
-0.438232
-0.431457
-0.425612
-0.420771
-0.417034
-0.414528
-0.413406
-0.413798
-0.415709
-0.419382
-0.426536
-0.436414
-0.514222
-0.498614
-0.486295
-0.475447
-0.46518
-0.455621
-0.446818
-0.438766
-0.431481
-0.424998
-0.419378
-0.414709
-0.411119
-0.408778
-0.407916
-0.408778
-0.411505
-0.416499
-0.426035
-0.440511
-0.501393
-0.487242
-0.475974
-0.465972
-0.456449
-0.447528
-0.439258
-0.431636
-0.424675
-0.418408
-0.412889
-0.408205
-0.404486
-0.401927
-0.400812
-0.401501
-0.404286
-0.409802
-0.421324
-0.441577
-0.48846
-0.475824
-0.465645
-0.456515
-0.447754
-0.43948
-0.43174
-0.424529
-0.417851
-0.411725
-0.406183
-0.401287
-0.397138
-0.393903
-0.391874
-0.391485
-0.393178
-0.397812
-0.410081
-0.437371
-0.475522
-0.464439
-0.455372
-0.447128
-0.439138
-0.431514
-0.424299
-0.417482
-0.411055
-0.405008
-0.399333
-0.394029
-0.389108
-0.384608
-0.380652
-0.377525
-0.375529
-0.374856
-0.379373
-0.404167
-0.46269
-0.453172
-0.445223
-0.437866
-0.430648
-0.423673
-0.41698
-0.410554
-0.404369
-0.398385
-0.39254
-0.386741
-0.380842
-0.3746
-0.367628
-0.35937
-0.348656
-0.331662
-0.301915
-0.271523
-0.450079
-0.442109
-0.435266
-0.428788
-0.422334
-0.416006
-0.409839
-0.403819
-0.397913
-0.392066
-0.386196
-0.380184
-0.373857
-0.366959
-0.359133
-0.349973
-0.338852
-0.323656
-0.301044
-0.280843
-0.437805
-0.431338
-0.42557
-0.41995
-0.414246
-0.408557
-0.402922
-0.397331
-0.391755
-0.38614
-0.380409
-0.374456
-0.36814
-0.361275
-0.353638
-0.345027
-0.335181
-0.323128
-0.307991
-0.297555
-0.425977
-0.420939
-0.4162
-0.411407
-0.40643
-0.40137
-0.396269
-0.391127
-0.385923
-0.380616
-0.375144
-0.369426
-0.363358
-0.35682
-0.349683
-0.341864
-0.333244
-0.323282
-0.311945
-0.305573
-0.414692
-0.410987
-0.407217
-0.403211
-0.398932
-0.394482
-0.389912
-0.385231
-0.380433
-0.37549
-0.370361
-0.364992
-0.35932
-0.353275
-0.346802
-0.339895
-0.332527
-0.324368
-0.315586
-0.311162
-0.404029
-0.401545
-0.398675
-0.395406
-0.39179
-0.387929
-0.383878
-0.379663
-0.375289
-0.370746
-0.366012
-0.361058
-0.355854
-0.350372
-0.344602
-0.33858
-0.332329
-0.325631
-0.318684
-0.315401
-0.394049
-0.392666
-0.390618
-0.388034
-0.38504
-0.381737
-0.37819
-0.374436
-0.370492
-0.366364
-0.362048
-0.357537
-0.352824
-0.347906
-0.342802
-0.337566
-0.332238
-0.32666
-0.321009
-0.318398
-0.384794
-0.384388
-0.383083
-0.381127
-0.37871
-0.375933
-0.372867
-0.369559
-0.366041
-0.362328
-0.358433
-0.354364
-0.350131
-0.345749
-0.341248
-0.336689
-0.332113
-0.327396
-0.322679
-0.32046
-0.376288
-0.376739
-0.376097
-0.37471
-0.372823
-0.370535
-0.367922
-0.365041
-0.361931
-0.358623
-0.355136
-0.351493
-0.347712
-0.34382
-0.339852
-0.335866
-0.331902
-0.327858
-0.323835
-0.321847
-0.368542
-0.369736
-0.369678
-0.368803
-0.367396
-0.365557
-0.363365
-0.360884
-0.358162
-0.355235
-0.352135
-0.348888
-0.345523
-0.34207
-0.338565
-0.335061
-0.331595
-0.328082
-0.324589
-0.322743
-0.361555
-0.363386
-0.36384
-0.363418
-0.362443
-0.361012
-0.359205
-0.357093
-0.354729
-0.352157
-0.349413
-0.346529
-0.343538
-0.34047
-0.337364
-0.334265
-0.331206
-0.328116
-0.325036
-0.323283
-0.355319
-0.357692
-0.358589
-0.358565
-0.357973
-0.356907
-0.355447
-0.35367
-0.351633
-0.349383
-0.346961
-0.344402
-0.341741
-0.339009