/*--------------------------------*- C++ -*----------------------------------*\
  =========                 |
  \\      /  F ield         | OpenFOAM: The Open Source CFD Toolbox
   \\    /   O peration     | Website:  https://openfoam.org
    \\  /    A nd           | Version:  6.0
     \\/     M anipulation  |
\*---------------------------------------------------------------------------*/
FoamFile
{
    version     2.0;
    format      ascii;
    class       surfaceScalarField;
    location    "13";
    object      phi;
}
// * * * * * * * * * * * * * * * * * * * * * * * * * * * * * * * * * * * * * //

dimensions      [0 3 -1 0 0 0 0];

internalField   nonuniform List<scalar> 
15760
(
-2.25346e-06
2.25423e-06
-7.75116e-10
-7.78854e-06
5.53737e-06
-2.28743e-09
-1.56504e-05
7.86566e-06
-3.77487e-09
-2.50673e-05
9.42215e-06
-5.23781e-09
-3.54158e-05
1.03552e-05
-6.67104e-09
-4.61956e-05
1.07879e-05
-8.07117e-09
-5.70089e-05
1.08228e-05
-9.43635e-09
-6.75441e-05
1.0546e-05
-1.0765e-08
-7.75629e-05
1.00308e-05
-1.20564e-08
-8.689e-05
9.34039e-06
-1.33101e-08
-9.54055e-05
8.53005e-06
-1.45263e-08
-0.000103038
7.64854e-06
-1.57066e-08
-0.000109761
6.73917e-06
-1.68511e-08
-0.000115583
5.84041e-06
-1.796e-08
-0.00012055
4.98617e-06
-1.90359e-08
-0.000124736
4.20597e-06
-2.00807e-08
-0.00012824
3.52483e-06
-2.10953e-08
-0.000131181
2.96319e-06
-2.20807e-08
-0.000133696
2.53818e-06
-2.30437e-08
2.26429e-06
-2.3982e-08
-0.000135936
-2.23493e-06
4.48916e-06
-7.71379e-06
1.10162e-05
-1.54824e-05
1.56343e-05
-2.47703e-05
1.871e-05
-3.49554e-05
2.05403e-05
-4.55386e-05
2.1371e-05
-5.61225e-05
2.14067e-05
-6.63953e-05
2.08188e-05
-7.61177e-05
1.97532e-05
-8.51129e-05
1.83356e-05
-9.32588e-05
1.6676e-05
-0.000100482
1.48717e-05
-0.000106752
1.30092e-05
-0.000112077
1.11656e-05
-0.0001165
9.40923e-06
-0.000120094
7.79961e-06
-0.000122957
6.38754e-06
-0.000125208
5.2148e-06
-0.000126987
4.31652e-06
3.72243e-06
-0.000128445
-2.19762e-06
6.68679e-06
-7.56329e-06
1.63819e-05
-1.51442e-05
2.32152e-05
-2.4173e-05
2.77388e-05
-3.40305e-05
3.03978e-05
-4.422e-05
3.15605e-05
-5.43454e-05
3.15321e-05
-6.40947e-05
3.05681e-05
-7.32267e-05
2.88852e-05
-8.15617e-05
2.66706e-05
-8.89734e-05
2.40877e-05
-9.53834e-05
2.12817e-05
-0.000100756
1.83821e-05
-0.000105095
1.55049e-05
-0.00010844
1.27534e-05
-0.000110859
1.02187e-05
-0.00011245
7.97867e-06
-0.000113333
6.09829e-06
-0.000113649
4.63255e-06
3.62794e-06
-0.000113555
-2.14098e-06
8.82777e-06
-7.33484e-06
2.15757e-05
-1.46315e-05
3.05119e-05
-2.32684e-05
3.63757e-05
-3.26318e-05
3.97612e-05
-4.22293e-05
4.11579e-05
-5.16672e-05
4.097e-05
-6.06336e-05
3.95345e-05
-6.88855e-05
3.71371e-05
-7.62386e-05
3.40236e-05
-8.25606e-05
3.04097e-05
-8.77656e-05
2.64868e-05
-9.18106e-05
2.2427e-05
-9.46913e-05
1.83856e-05
-9.64399e-05
1.4502e-05
-9.71216e-05
1.09003e-05
-9.68311e-05
7.68827e-06
-9.56893e-05
4.95648e-06
-9.38397e-05
2.78295e-06
1.23349e-06
-9.14453e-05
-2.06401e-06
1.08918e-05
-7.02467e-06
2.65364e-05
-1.39364e-05
3.74236e-05
-2.20444e-05
4.44837e-05
-3.07433e-05
4.84601e-05
-3.95475e-05
4.99621e-05
-4.80679e-05
4.94904e-05
-5.5994e-05
4.74607e-05
-6.30808e-05
4.42239e-05
-6.91389e-05
4.00818e-05
-7.40283e-05
3.52991e-05
-7.76534e-05
3.01119e-05
-7.99602e-05
2.47338e-05
-8.09338e-05
1.93592e-05
-8.05968e-05
1.4165e-05
-7.90073e-05
9.31087e-06
-7.62562e-05
4.93712e-06
-7.2464e-05
1.16426e-06
-6.77787e-05
-1.90235e-06
-4.17368e-06
-6.23715e-05
-1.96514e-06
1.28569e-05
-6.62696e-06
3.11982e-05
-1.3047e-05
4.38436e-05
-2.04823e-05
5.1919e-05
-2.83396e-05
5.63174e-05
-3.61438e-05
5.77664e-05
-4.35136e-05
5.68602e-05
-5.0142e-05
5.40891e-05
-5.57831e-05
4.9865e-05
-6.02425e-05
4.45412e-05
-6.33712e-05
3.84277e-05
-6.50615e-05
3.18022e-05
-6.52455e-05
2.49178e-05
-6.3894e-05
1.80077e-05
-6.10164e-05
1.12875e-05
-5.66602e-05
4.9547e-06
-5.09099e-05
-8.13218e-07
-4.38848e-05
-5.86081e-06
-3.5738e-05
-1.00492e-05
-1.32603e-05
-2.66513e-05
-1.84203e-06
1.4699e-05
-6.13329e-06
3.54895e-05
-1.19464e-05
4.96568e-05
-1.8555e-05
5.85275e-05
-2.53832e-05
6.31456e-05
-3.19717e-05
6.43549e-05
-3.79508e-05
6.28393e-05
-4.30208e-05
5.9159e-05
-4.69373e-05
5.37815e-05
-4.95019e-05
4.71059e-05
-5.05563e-05
3.9482e-05
-4.99789e-05
3.12248e-05
-4.76848e-05
2.26236e-05
-4.36263e-05
1.39492e-05
-3.77951e-05
5.45623e-06
-3.02236e-05
-2.61683e-06
-2.09861e-05
-1.00507e-05
-1.01988e-05
-1.66481e-05
1.98025e-06
-2.22283e-05
-2.66358e-05
1.53557e-05
-1.69141e-06
1.63904e-05
-5.53219e-06
3.93303e-05
-1.06113e-05
5.47358e-05
-1.62252e-05
6.41415e-05
-2.18221e-05
6.87425e-05
-2.69646e-05
6.94973e-05
-3.13006e-05
6.71753e-05
-3.45425e-05
6.2401e-05
-3.64519e-05
5.56908e-05
-3.68289e-05
4.74828e-05
-3.55068e-05
3.81599e-05
-3.23495e-05
2.80675e-05
-2.72523e-05
1.75265e-05
-2.01447e-05
6.84161e-06
-1.09947e-05
-3.69375e-06
1.86093e-07
-1.37977e-05
1.33388e-05
-2.32034e-05
2.83542e-05
-3.16634e-05
4.50701e-05
-3.89442e-05
-4.48408e-05
6.32751e-05
-1.50902e-06
1.78994e-05
-4.80888e-06
4.26301e-05
-9.01181e-06
5.89388e-05
-1.34449e-05
6.85746e-05
-1.7588e-05
7.28856e-05
-2.10329e-05
7.29423e-05
-2.34532e-05
6.95956e-05
-2.45803e-05
6.35281e-05
-2.41877e-05
5.52982e-05
-2.20792e-05
4.53744e-05
-1.80831e-05
3.41638e-05
-1.20494e-05
2.20339e-05
-3.85198e-06
9.32903e-06
6.60698e-06
-3.61735e-06
1.93893e-05
-1.64761e-05
3.45122e-05
-2.89205e-05
5.19397e-05
-4.06309e-05
7.15756e-05
-5.12993e-05
9.32562e-05
-6.06248e-05
-6.8336e-05
0.000116751
-1.28957e-06
1.9189e-05
-3.94542e-06
4.5286e-05
-7.11176e-06
6.21051e-05
-1.0155e-05
7.16178e-05
-1.25952e-05
7.53258e-05
-1.40626e-05
7.44097e-05
-1.42649e-05
6.97978e-05
-1.29619e-05
6.22252e-05
-9.94786e-06
5.22841e-05
-5.03825e-06
4.04648e-05
1.93755e-06
2.7188e-05
1.11393e-05
1.28321e-05
2.27144e-05
-2.246e-06
3.67909e-05
-1.76938e-05
5.34675e-05
-3.31527e-05
7.27998e-05
-4.82528e-05
9.47857e-05
-6.26169e-05
0.000119351
-7.5865e-05
0.000146337
-8.76104e-05
-9.74908e-05
0.000175492
-1.02696e-06
2.02159e-05
-2.92131e-06
4.71803e-05
-4.86964e-06
6.40534e-05
-6.28714e-06
7.30353e-05
-6.7433e-06
7.57819e-05
-5.91621e-06
7.35826e-05
-3.55779e-06
6.74394e-05
5.32735e-07
5.81347e-05
6.52888e-06
4.6288e-05
1.45918e-05
3.24019e-05
2.48802e-05
1.68996e-05
3.75556e-05
1.5666e-07
5.27816e-05
-1.7472e-05
7.07174e-05
-3.56296e-05
9.15046e-05
-5.39398e-05
0.000115248
-7.19967e-05
0.000141995
-8.93638e-05
0.000171708
-0.000105578
0.000204241
-0.000120143
-0.000132573
0.000239323
-7.14656e-07
2.09306e-05
-1.71485e-06
4.81805e-05
-2.24138e-06
6.458e-05
-1.76783e-06
7.25617e-05
7.80316e-08
7.39361e-05
3.56119e-06
7.00995e-05
8.87492e-06
6.21257e-05
1.61685e-05
5.08411e-05
2.55689e-05
3.68876e-05
3.71983e-05
2.07724e-05
5.11877e-05
2.91028e-06
6.7685e-05
-1.63407e-05
8.68591e-05
-3.66461e-05
0.000108895
-5.76652e-05
0.000133979
-7.90243e-05
0.000162279
-0.000100297
0.000193908
-0.000120993
0.000228888
-0.000140558
0.000267104
-0.000158359
-0.000173737
0.000308268
-3.46303e-07
2.12769e-05
-3.0523e-07
4.81394e-05
8.15503e-07
6.34592e-05
3.47503e-06
6.99022e-05
7.97989e-06
6.94312e-05
1.45305e-05
6.35489e-05
2.32559e-05
5.34003e-05
3.42419e-05
3.98551e-05
4.75534e-05
2.35761e-05
6.32545e-05
5.07128e-06
8.1426e-05
-1.52612e-05
0.000102179
-3.70942e-05
0.000125667
-6.01337e-05
0.000152083
-8.40814e-05
0.000181656
-0.000108597
0.00021462
-0.000133261
0.000251179
-0.000157552
0.000291447
-0.000180825
0.000335369
-0.000202282
-0.00022102
0.000382652
8.342e-08
2.11935e-05
1.32465e-06
4.68982e-05
4.3362e-06
6.04477e-05
9.50273e-06
6.47357e-05
1.70603e-05
6.18736e-05
2.71401e-05
5.34691e-05
3.9801e-05
4.07394e-05
5.50555e-05
2.46006e-05
7.28921e-05
5.73949e-06
9.32962e-05
-1.53328e-05
0.000116271
-3.82364e-05
0.00014186
-6.26828e-05
0.000170162
-8.84361e-05
0.00020135
-0.000115269
0.000235669
-0.000142915
0.000273419
-0.000171011
0.000314914
-0.000199047
0.000360401
-0.000226313
0.000409942
-0.000251822
-0.000274339
0.000463261
5.77784e-07
2.06157e-05
3.1848e-06
4.42912e-05
8.34165e-06
5.52908e-05
1.63539e-05
5.67234e-05
2.73862e-05
5.08414e-05
4.15007e-05
3.93546e-05
5.86853e-05
2.35547e-05
7.88758e-05
4.41016e-06
0.000101975
-1.73594e-05
0.000127871
-4.12296e-05
0.000156465
-6.68296e-05
0.000187688
-9.3906e-05
0.000221539
-0.000122288
0.000258112
-0.000151842
0.000297616
-0.000182419
0.000340387
-0.000213781
0.000386851
-0.000245511
0.000437444
-0.000276906
0.000492423
-0.000306802
-0.00033351
0.000551595
1.13696e-06
1.94787e-05
5.27464e-06
4.01535e-05
1.28312e-05
4.77343e-05
2.40316e-05
4.5523e-05
3.89724e-05
3.59006e-05
5.76532e-05
2.06739e-05
7.99982e-05
1.20965e-06
0.000105872
-2.14638e-05
0.000135094
-4.65809e-05
0.00016745
-7.35856e-05
0.000202714
-0.000102094
0.000240676
-0.000131867
0.00028117
-0.000162782
0.000324132
-0.000194803
0.000369642
-0.00022793
0.000417982
-0.000262121
0.000469646
-0.000297176
0.000525299
-0.000332558
0.000585527
-0.000367031
-0.000398272
0.000650289
1.75713e-06
1.77216e-05
7.58006e-06
3.43306e-05
1.77761e-05
3.75383e-05
3.24909e-05
3.08081e-05
5.17608e-05
1.66307e-05
7.55352e-05
-3.10052e-06
0.000103691
-2.69461e-05
0.00013604
-5.38134e-05
0.000172337
-8.28776e-05
0.00021228
-0.000113529
0.000255525
-0.000145339
0.000301698
-0.00017804
0.000350429
-0.000211513
0.000401404
-0.000245778
0.000454441
-0.000280967
0.000509594
-0.000317273
0.000567264
-0.000354845
0.000628273
-0.000393568
0.000693685
-0.000432443
-0.000468398
0.000763812
2.43002e-06
1.52916e-05
1.00718e-05
2.66888e-05
2.31154e-05
2.44947e-05
4.16308e-05
1.22927e-05
6.56039e-05
-7.34233e-06
9.49509e-05
-3.24475e-05
0.000129525
-6.15205e-05
0.000169119
-9.34069e-05
0.000213458
-0.000127217
0.000262201
-0.000162272
0.000314928
-0.000198066
0.000371145
-0.000234256
0.000430284
-0.000270653
0.000491743
-0.000307236
0.000554943
-0.000344167
0.000619463
-0.000381794
0.000685246
-0.000420628
0.000752892
-0.000461214
0.000823856
-0.000503407
-0.000544788
0.000900246
3.14306e-06
1.21485e-05
1.27058e-05
1.71261e-05
2.87567e-05
8.44377e-06
5.12928e-05
-1.02434e-05
8.02593e-05
-3.63089e-05
0.000115556
-6.77444e-05
0.00015704
-0.000103004
0.000204519
-0.000140887
0.000257751
-0.000180449
0.000316425
-0.000220945
0.000380148
-0.00026179
0.000448424
-0.000302532
0.000520626
-0.000342855
0.000595973
-0.000382583
0.000673528
-0.000421722
0.000752254
-0.00046052
0.000831193
-0.000499567
0.000909911
-0.000539932
0.00098955
-0.000583047
-0.000632501
0.00107726
3.88041e-06
8.26809e-06
1.54266e-05
5.57995e-06
3.45816e-05
-1.07113e-05
6.127e-05
-3.69318e-05
9.54009e-05
-7.04398e-05
0.000136868
-0.000109212
0.000185551
-0.000151686
0.000241308
-0.000196644
0.000303978
-0.000243119
0.000373371
-0.000290339
0.000449259
-0.000337678
0.000531358
-0.000384631
0.000619304
-0.0004308
0.00071261
-0.000475889
0.000810615
-0.000519728
0.000912438
-0.000562343
0.00101694
-0.000604064
0.00112256
-0.00064556
0.0012281
-0.000688583
-0.000735546
0.00133114
4.62468e-06
3.6434e-06
1.81731e-05
-7.96844e-06
4.04586e-05
-3.29968e-05
7.13284e-05
-6.78017e-05
0.000110651
-0.000109763
0.000158312
-0.000156873
0.000214211
-0.000207585
0.000278265
-0.000260698
0.000350413
-0.000315266
0.000430623
-0.000370549
0.000518915
-0.000425969
0.000615383
-0.000481099
0.00072025
-0.000535667
0.000833954
-0.000589593
0.000957311
-0.000643085
0.00109179
-0.000696824
0.00124002
-0.000752296
0.00140695
-0.000812489
0.00160243
-0.000884063
-0.00098383
0.00185072
5.35925e-06
-1.71584e-06
2.08855e-05
-2.34947e-05
4.62572e-05
-5.83684e-05
8.12333e-05
-0.000102778
0.000125627
-0.000154157
0.000179296
-0.000210541
0.000242135
-0.000270425
0.000314085
-0.000332647
0.000395135
-0.000396316
0.000485342
-0.000460756
0.000584854
-0.000525482
0.000693948
-0.000590193
0.000813079
-0.000654798
0.000942952
-0.000719467
0.0010846
-0.000784736
0.00123946
-0.000851679
0.00140932
-0.000922154
0.00159607
-0.000999246
0.00180012
-0.00108811
-0.00119647
0.00201276
6.07027e-06
-7.78611e-06
2.35135e-05
-4.0938e-05
5.18661e-05
-8.67209e-05
9.07834e-05
-0.000141695
0.000140001
-0.000203374
0.000199315
-0.000269856
0.000268577
-0.000339687
0.000347688
-0.000411759
0.000436608
-0.000485236
0.00053536
-0.000559508
0.000644047
-0.000634168
0.000762861
-0.000709007
0.000892098
-0.000784035
0.00103215
-0.000859515
0.00118344
-0.000936034
0.00134635
-0.00101458
0.00152085
-0.00109666
0.00170599
-0.00118438
0.00189851
-0.00128063
-0.00138832
0.00209036
6.74837e-06
-1.45345e-05
2.60208e-05
-6.02104e-05
5.72036e-05
-0.000117904
9.98308e-05
-0.000184322
0.000153533
-0.000257076
0.000218012
-0.000334335
0.000293027
-0.000414701
0.000378383
-0.000497114
0.000473928
-0.000580782
0.000579553
-0.000665133
0.000695183
-0.000749798
0.000820768
-0.000834592
0.000956256
-0.000919523
0.00110154
-0.0010048
0.00125637
-0.00109086
0.00142017
-0.00117838
0.00159178
-0.00126827
0.00176909
-0.00136169
0.00194845
-0.00145999
-0.0015642
0.00212434
7.38896e-06
-2.19234e-05
2.83868e-05
-8.12082e-05
6.22216e-05
-0.000151739
0.000108287
-0.000230388
0.000166086
-0.000314874
0.000235191
-0.00040344
0.00031523
-0.00049474
0.000405865
-0.000587749
0.000506781
-0.000681698
0.000617673
-0.000776025
0.000738228
-0.000870353
0.000868102
-0.000964466
0.00100688
-0.0010583
0.00115401
-0.00115193
0.00130871
-0.00124557
0.00146989
-0.00133955
0.0016359
-0.00143428
0.00180445
-0.00153024
0.00197238
-0.00162793
-0.00172758
0.00213575
7.99161e-06
-2.9915e-05
3.06053e-05
-0.000103822
6.69015e-05
-0.000188035
0.000116118
-0.000279605
0.000177606
-0.000376362
0.000250788
-0.000476622
0.000335131
-0.000579083
0.000430123
-0.000682742
0.00053526
-0.000786834
0.000650019
-0.000890784
0.000773843
-0.000994177
0.000906111
-0.00109673
0.0010461
-0.00119829
0.00119294
-0.00129877
0.00134556
-0.00139818
0.00150257
-0.00149657
0.00166228
-0.00159399
0.00182255
-0.00169051
0.00198079
-0.00178617
-0.00188082
0.00213403
8.55876e-06
-3.84738e-05
3.26797e-05
-0.000127943
7.12461e-05
-0.000226601
0.000123326
-0.000331685
0.000188103
-0.000441139
0.000264829
-0.000553349
0.000352797
-0.000667051
0.000451309
-0.000781255
0.000559662
-0.000895186
0.000677122
-0.00100824
0.00080291
-0.00111997
0.000936176
-0.00123
0.00107597
-0.00133809
0.00122122
-0.00144402
0.00137069
-0.00154765
0.00152294
-0.00164882
0.00167633
-0.00174738
0.00182898
-0.00184315
0.00197875
-0.00193594
-0.0020254
0.00212333
9.09413e-06
-4.75679e-05
3.46186e-05
-0.000153467
7.52692e-05
-0.000267252
0.000129932
-0.000386348
0.000197612
-0.000508818
0.000277382
-0.000633118
0.000368349
-0.000758018
0.000469631
-0.000882536
0.00058033
-0.00100589
0.000699523
-0.00112744
0.000826241
-0.00124668
0.000959454
-0.00136321
0.00109806
-0.00147669
0.00124087
-0.00158683
0.00138658
-0.00169336
0.00153378
-0.00179603
0.00168096
-0.00189456
0.00182646
-0.00198865
0.00196854
-0.00207801
-0.00216217
0.00210531
9.60126e-06
-5.71692e-05
3.64307e-05
-0.000180297
7.89855e-05
-0.000309807
0.000135961
-0.000443323
0.000206174
-0.000579031
0.000288512
-0.000715457
0.000381899
-0.000851406
0.00048527
-0.000985907
0.000597551
-0.00111817
0.000717648
-0.00124753
0.000844437
-0.00137347
0.000976757
-0.00149553
0.0011134
-0.00161334
0.00125312
-0.00172655
0.00139462
-0.00183486
0.00153655
-0.00193796
0.00167753
-0.00203553
0.00181613
-0.00212726
0.00195089
-0.00221278
-0.00229158
0.0020803
1.00824e-05
-6.72516e-05
3.81213e-05
-0.000208336
8.24038e-05
-0.000354089
0.000141426
-0.000502345
0.000213811
-0.000651416
0.000298262
-0.000799907
0.00039352
-0.000946664
0.000498347
-0.00109073
0.000611509
-0.00123133
0.000731766
-0.00136779
0.000857869
-0.00149958
0.000988561
-0.00162623
0.00112258
-0.00174735
0.00125865
-0.00186262
0.0013955
-0.00197172
0.00153189
-0.00207434
0.00166655
-0.0021702
0.00179827
-0.00225897
0.00192583
-0.00234033
-0.00241376
0.00204801
1.05379e-05
-7.77896e-05
3.96902e-05
-0.000237488
8.55223e-05
-0.000399921
0.000146324
-0.000563147
0.000220523
-0.000725615
0.000306635
-0.000886019
0.000403228
-0.00104326
0.000508902
-0.00119641
0.000622276
-0.0013447
0.000741989
-0.0014875
0.000866695
-0.00162428
0.000995071
-0.0017546
0.00112582
-0.0018781
0.00125768
-0.00199448
0.00138945
-0.00210348
0.00151994
-0.00220483
0.00164806
-0.00229832
0.00177275
-0.00238367
0.00189303
-0.00246061
-0.00252866
0.00200793
1.09661e-05
-8.87557e-05
4.11306e-05
-0.000267652
8.8327e-05
-0.000447118
0.000150632
-0.000625452
0.000226278
-0.000801261
0.000313596
-0.000973337
0.000410987
-0.00114065
0.0005169
-0.00130232
0.00062983
-0.00145763
0.00074831
-0.00160598
0.000870924
-0.0017469
0.000996307
-0.00187998
0.00112316
-0.00200495
0.00125025
-0.00212157
0.00137642
-0.00222965
0.00150062
-0.00232904
0.00162188
-0.00241957
0.0017393
-0.0025011
0.00185211
-0.00257341
-0.00263611
0.00195956
1.13632e-05
-0.000100119
4.24299e-05
-0.000298719
9.07924e-05
-0.00049548
0.000154311
-0.000688971
0.000231021
-0.000877971
0.000319075
-0.00106139
0.000416714
-0.00123829
0.000522254
-0.00140786
0.000634077
-0.00156946
0.000750636
-0.00172254
0.000870464
-0.00186672
0.000992177
-0.0020017
0.00111449
-0.00212727
0.00123622
-0.0022433
0.0013563
-0.00234973
0.00147376
-0.0024465
0.00158779
-0.00253359
0.00169765
-0.00261096
0.00180272
-0.00267849
-0.00273588
0.00190249
1.17238e-05
-0.000111843
4.35705e-05
-0.000330566
9.28839e-05
-0.000544794
0.000157306
-0.000753393
0.000234677
-0.000955341
0.000322977
-0.00114969
0.0004203
-0.00133561
0.000524839
-0.0015124
0.000634885
-0.0016795
0.000748831
-0.00183649
0.000865177
-0.00198307
0.000982546
-0.00211907
0.00109968
-0.00224441
0.00121547
-0.00235909
0.00132893
-0.00246319
0.00143922
-0.00255679
0.00154563
-0.00264001
0.0016476
-0.00271293
0.00174467
-0.00277556
-0.00282772
0.00183652
1.20415e-05
-0.000123884
4.45311e-05
-0.000363055
9.45604e-05
-0.000594823
0.000159553
-0.000818386
0.000237159
-0.00103295
0.000325194
-0.00123773
0.000421617
-0.00143203
0.000524516
-0.0016153
0.000632109
-0.00178709
0.000742747
-0.00194713
0.000854922
-0.00209524
0.000967279
-0.00223142
0.00107862
-0.00235574
0.00118789
-0.00246837
0.00129423
-0.00256952
0.0013969
-0.00265946
0.00149533
-0.00273844
0.0015891
-0.0028067
0.00167791
-0.00286438
-0.00291142
0.00176161
1.2309e-05
-0.000136193
4.52885e-05
-0.000396035
9.57775e-05
-0.000645312
0.000160985
-0.000883594
0.000238375
-0.00111034
0.000325614
-0.00132497
0.000420539
-0.00152696
0.000521151
-0.00171591
0.000625612
-0.00189156
0.000732254
-0.00205377
0.000839582
-0.00220257
0.000946282
-0.00233812
0.00105122
-0.00246068
0.00115344
-0.00257059
0.00125218
-0.00266826
0.00134683
-0.00275411
0.00143695
-0.00282856
0.00152225
-0.002892
0.00160259
-0.00294471
-0.00298676
0.00167794
1.2519e-05
-0.000148712
4.58191e-05
-0.000429335
9.64904e-05
-0.000695983
0.000161534
-0.000948637
0.00023824
-0.00118704
0.000324135
-0.00141086
0.000416953
-0.00161978
0.000514626
-0.00181358
0.000615284
-0.00199221
0.000717259
-0.00215574
0.000819089
-0.0023044
0.000919518
-0.00243855
0.0010175
-0.00255866
0.00111217
-0.00266527
0.00120289
-0.00275897
0.00128917
-0.00284038
0.00137069
-0.00291008
0.0014473
-0.00296861
0.00151898
-0.00301639
-0.00305362
0.00158584
1.26641e-05
-0.000161376
4.60998e-05
-0.000462771
9.66567e-05
-0.00074654
0.000161137
-0.00101312
0.000236672
-0.00126258
0.000320665
-0.00149485
0.000410765
-0.00170988
0.000504855
-0.00190768
0.000601055
-0.00208841
0.000697718
-0.00225241
0.000793434
-0.00240012
0.000887024
-0.00253214
0.000977532
-0.00264917
0.00106422
-0.00275196
0.00114655
-0.0028413
0.00122416
-0.00291799
0.00129687
-0.00298279
0.00136463
-0.00303637
0.00142754
-0.0030793
-0.00311191
0.00148582
1.27374e-05
-0.000174114
4.61096e-05
-0.000496143
9.62384e-05
-0.000796669
0.000159742
-0.00107662
0.000233608
-0.00133644
0.000315136
-0.00157638
0.00040191
-0.00179665
0.000491789
-0.00199755
0.000582902
-0.00217953
0.000673646
-0.00234315
0.000762678
-0.00248915
0.000848913
-0.00261838
0.000931502
-0.00273176
0.00100982
-0.00283028
0.00108346
-0.00291494
0.00115218
-0.00298671
0.0012159
-0.00304652
0.00127471
-0.00309518
0.0013288
-0.00313339
-0.00316159
0.00137848
1.27329e-05
-0.000186847
4.58301e-05
-0.00052924
9.52034e-05
-0.000846042
0.000157305
-0.00113872
0.000228999
-0.00140814
0.000307501
-0.00165488
0.000390356
-0.00187951
0.00047542
-0.00208262
0.000560853
-0.00226496
0.000645114
-0.00242741
0.000726949
-0.00257099
0.000805374
-0.0026968
0.000879659
-0.00280604
0.000949305
-0.00289992
0.00101402
-0.00297965
0.00107368
-0.00304637
0.00112833
-0.00310117
0.00117814
-0.003145
0.0012234
-0.00317865
-0.0032027
0.00126451
1.26479e-05
-0.000199495
4.52511e-05
-0.000561843
9.35336e-05
-0.000894325
0.000153804
-0.00119899
0.000222824
-0.00147716
0.000297753
-0.00172981
0.000376119
-0.00195787
0.000455796
-0.0021623
0.000535
-0.00234416
0.00061227
-0.00250468
0.000686453
-0.00264517
0.00075668
-0.00276703
0.000822346
-0.00287171
0.000883074
-0.00296065
0.000938693
-0.00303527
0.0009892
-0.00309688
0.00103474
-0.00314671
0.00107557
-0.00318583
0.00111206
-0.00321514
-0.00323529
0.00114465
1.24733e-05
-0.000211968
4.4352e-05
-0.000593722
9.11989e-05
-0.000941172
0.000149204
-0.001257
0.000215056
-0.00154301
0.000285881
-0.00180064
0.000359213
-0.0020312
0.000432972
-0.00223605
0.000505447
-0.00241664
0.000575275
-0.00257451
0.000641416
-0.00271131
0.000703127
-0.00282874
0.000759928
-0.00292851
0.000811569
-0.00301229
0.000857994
-0.00308169
0.000899311
-0.0031382
0.000935756
-0.00318315
0.00096767
-0.00321774
0.000995478
-0.00324294
-0.0032595
0.00101968
1.22086e-05
-0.000224176
4.31298e-05
-0.000624643
8.8197e-05
-0.000986239
0.000143512
-0.00131231
0.000205715
-0.00160521
0.000271929
-0.00186685
0.000339722
-0.00209899
0.000407079
-0.00230341
0.000472382
-0.00248194
0.000534381
-0.00263651
0.000592159
-0.00276909
0.000645103
-0.00288168
0.000692862
-0.00297627
0.000735309
-0.00305474
0.000772502
-0.00311889
0.000804646
-0.00317034
0.000832064
-0.00321057
0.000855165
-0.00324084
0.000874425
-0.0032622
-0.00327545
0.000890377
1.18515e-05
-0.000236028
4.15809e-05
-0.000654372
8.45273e-05
-0.00102919
0.000136736
-0.00136452
0.000194832
-0.00166331
0.000255961
-0.00192798
0.00031775
-0.00216078
0.000378273
-0.00236393
0.000436021
-0.00253969
0.000489868
-0.00269035
0.000539031
-0.00281825
0.000583027
-0.00292568
0.000621633
-0.00301487
0.000654842
-0.00308795
0.000682816
-0.00314686
0.000705854
-0.00319338
0.000724353
-0.00322907
0.000738779
-0.00325527
0.000749651
-0.00327308
-0.00328332
0.000757522
1.14011e-05
-0.000247429
3.97058e-05
-0.000682677
8.01974e-05
-0.00106968
0.0001289
-0.00141322
0.000182456
-0.00171686
0.000238063
-0.00198359
0.000293431
-0.00221615
0.000346743
-0.00241725
0.000396615
-0.00258956
0.000442056
-0.0027358
0.000482417
-0.00285861
0.000517349
-0.00296061
0.000546755
-0.00304428
0.000570736
-0.00311193
0.000589555
-0.00316568
0.000603594
-0.00320742
0.000613313
-0.00323879
0.00061923
-0.00326119
0.000621893
-0.00327574
-0.00328329
0.000621869
1.08575e-05
-0.000258287
3.75085e-05
-0.000709328
7.52228e-05
-0.00110739
0.00012004
-0.00145804
0.000168653
-0.00176548
0.000218341
-0.00203327
0.000266921
-0.00226473
0.000312704
-0.00246303
0.000354444
-0.0026313
0.000391288
-0.00277264
0.000422728
-0.00289005
0.000448545
-0.00298643
0.000468757
-0.00306449
0.000483574
-0.00312675
0.000493345
-0.00317545
0.000498524
-0.0032126
0.000499631
-0.0032399
0.000497221
-0.00325878
0.000491868
-0.00327039
-0.00327557
0.000484145
1.0222e-05
-0.000268509
3.49971e-05
-0.000734103
6.96258e-05
-0.00114202
0.000110203
-0.00149862
0.000153505
-0.00180878
0.000196922
-0.00207669
0.000238401
-0.00230621
0.000276396
-0.00250102
0.000309808
-0.00266472
0.000337931
-0.00280076
0.000360394
-0.00291251
0.000377101
-0.00300314
0.000388183
-0.00307557
0.000393941
-0.0031325
0.000394806
-0.00317632
0.000391295
-0.00320908
0.000383974
-0.00323257
0.000373434
-0.00324824
0.000360265
-0.00325722
-0.00326035
0.000345043
9.49661e-06
-0.000278005
3.21827e-05
-0.000756789
6.34354e-05
-0.00117327
9.94453e-05
-0.00153463
0.000137106
-0.00184644
0.000173945
-0.00211353
0.000208063
-0.00234033
0.00023807
-0.00253103
0.000263023
-0.00268967
0.000282363
-0.0028201
0.000295851
-0.002926
0.000303511
-0.0030108
0.000305572
-0.00307763
0.000302421
-0.00312935
0.000294554
-0.00316845
0.000282542
-0.00319707
0.000266993
-0.00321703
0.000248524
-0.00322977
0.000227742
-0.00323643
-0.00323783
0.000205221
8.6846e-06
-0.00028669
2.90794e-05
-0.000777184
5.6686e-05
-0.00120088
8.78309e-05
-0.00156577
0.000119559
-0.00187817
0.000149563
-0.00214353
0.000176114
-0.00236688
0.000197991
-0.00255291
0.000214412
-0.00270609
0.000224964
-0.00283066
0.000229537
-0.00293058
0.000228263
-0.00300952
0.000221459
-0.00307083
0.000209582
-0.00311747
0.000193185
-0.00315205
0.000172882
-0.00317677
0.000149314
-0.00319346
0.000123123
-0.00320358
9.49275e-05
-0.00320824
-0.0032082
6.53033e-05
7.78984e-06
-0.00029448
2.5704e-05
-0.000795098
4.94169e-05
-0.00122459
7.54312e-05
-0.00159179
0.000100976
-0.00190371
0.000123934
-0.00216649
0.000142764
-0.00238571
0.000156424
-0.00256657
0.000164296
-0.00271396
0.000166112
-0.00283247
0.000161882
-0.00292635
0.000151834
-0.00299947
0.000136362
-0.00305536
0.000115978
-0.00309709
9.12798e-05
-0.00312735
6.2912e-05
-0.0031484
3.15423e-05
-0.00316209
-2.16665e-06
-0.00316987
-3.75798e-05
-0.00317283
-0.00317167
-7.41161e-05
6.81698e-06
-0.000301297
2.20754e-05
-0.000810357
4.1671e-05
-0.00124419
6.23224e-05
-0.00161244
8.14744e-05
-0.00192287
9.72215e-05
-0.00218224
0.000108226
-0.00239671
0.000113633
-0.00257198
0.000112992
-0.00271332
0.000106172
-0.00282565
9.32972e-05
-0.00291347
7.46805e-05
-0.00298086
5.07763e-05
-0.00303145
2.2139e-05
-0.00306845
-1.06078e-05
-0.00309461
-4.67976e-05
-0.00311221
-8.57444e-05
-0.00312314
-0.000126766
-0.00312885
-0.000169208
-0.00313038
-0.0031284
-0.000212474
5.77131e-06
-0.000307068
1.82147e-05
-0.0008228
3.34947e-05
-0.00125947
4.85843e-05
-0.00162753
6.11733e-05
-0.00193545
6.95892e-05
-0.00219066
7.27104e-05
-0.00239983
6.98764e-05
-0.00256914
6.08009e-05
-0.00270425
4.54902e-05
-0.00281034
2.41708e-05
-0.00289215
-2.77042e-06
-0.00295392
-3.48333e-05
-0.00299939
-7.14388e-05
-0.00303185
-0.000111952
-0.00305409
-0.000155702
-0.00306846
-0.000201991
-0.00307685
-0.000250122
-0.00308072
-0.000299411
-0.00308109
-0.00307858
-0.000349233
4.65874e-06
-0.000311727
1.41444e-05
-0.000832286
2.49369e-05
-0.00127026
3.42997e-05
-0.00163689
4.01945e-05
-0.00194135
4.12005e-05
-0.00219166
3.64225e-05
-0.00239506
2.53982e-05
-0.00255812
8.00662e-06
-0.00268685
-1.5615e-05
-0.00278672
-4.51442e-05
-0.00286262
-8.0132e-05
-0.00291893
-0.000120046
-0.00295948
-0.000164301
-0.00298759
-0.000212268
-0.00300612
-0.000263289
-0.00301744
-0.000316673
-0.00302347
-0.000371705
-0.00302568
-0.000427669
-0.00302513
-0.00302236
-0.000483884
3.48576e-06
-0.000315212
9.88894e-06
-0.000838689
1.60491e-05
-0.00127642
1.95538e-05
-0.0016404
1.86611e-05
-0.00194046
1.22165e-05
-0.00218522
-4.39934e-07
-0.0023824
-1.957e-05
-0.00253899
-4.51303e-05
-0.00266129
-7.68569e-05
-0.00275499
-0.000114337
-0.00282514
-0.000157069
-0.0028762
-0.000204499
-0.00291205
-0.00025605
-0.00293604
-0.000311123
-0.00295105
-0.000369094
-0.00295947
-0.000429297
-0.00296326
-0.000491017
-0.00296396
-0.000553491
-0.00296266
-0.0029599
-0.000615952
2.25947e-06
-0.000317472
5.47432e-06
-0.000841904
6.88516e-06
-0.00127783
4.43457e-06
-0.00163795
-3.30306e-06
-0.00193272
-1.72032e-05
-0.00217132
-3.76855e-05
-0.00236192
-6.48105e-05
-0.00251186
-9.83728e-05
-0.00262773
-0.000137984
-0.00271538
-0.000183147
-0.00277998
-0.000233308
-0.00282604
-0.000287903
-0.00285745
-0.000346372
-0.00287757
-0.000408164
-0.00288926
-0.000472719
-0.00289492
-0.000539428
-0.00289656
-0.000607601
-0.00289579
-0.000676428
-0.00289383
-0.00289132
-0.000745008
9.8766e-07
-0.000318459
9.2844e-07
-0.000841845
-2.49792e-06
-0.0012744
-1.09671e-05
-0.00162948
-2.55712e-05
-0.00191811
-4.68987e-05
-0.00214999
-7.51266e-05
-0.00233369
-0.000110116
-0.00247687
-0.000151503
-0.00258634
-0.00019878
-0.0026681
-0.000251363
-0.0027274
-0.00030865
-0.00276875
-0.000370061
-0.00279604
-0.00043506
-0.00281258
-0.000503156
-0.00282116
-0.000573878
-0.0028242
-0.000646723
-0.00282371
-0.000721078
-0.00282144
-0.000796112
-0.0028188
-0.00281672
-0.000870715
-3.2116e-07
-0.000318138
-3.71877e-06
-0.000838447
-1.204e-05
-0.00126608
-2.6556e-05
-0.00161496
-4.80128e-05
-0.00189666
-7.67068e-05
-0.00212129
-0.000112574
-0.00229782
-0.000155282
-0.00243417
-0.000204314
-0.00253731
-0.000259047
-0.00261337
-0.000318814
-0.00266763
-0.000382961
-0.0027046
-0.000450881
-0.00272812
-0.000522053
-0.0027414
-0.000596038
-0.00274718
-0.000672474
-0.00274776
-0.000751014
-0.00274517
-0.000831215
-0.00274123
-0.000912313
-0.0027377
-0.00273612
-0.00099291
-1.6577e-06
-0.000316481
-8.43524e-06
-0.000831669
-2.16774e-05
-0.00125284
-4.22322e-05
-0.00159441
-7.04909e-05
-0.0018684
-0.000106457
-0.00208533
-0.000149832
-0.00225445
-0.000200096
-0.0023839
-0.000256592
-0.00248082
-0.000318591
-0.00255137
-0.000385347
-0.00260087
-0.00045615
-0.0026338
-0.000530359
-0.00265391
-0.000607436
-0.00266433
-0.000686969
-0.00266764
-0.000768681
-0.00266605
-0.000852408
-0.00266144
-0.000938003
-0.00265564
-0.00102498
-0.00265072
-0.00264922
-0.00111189
-3.01196e-06
-0.000313469
-1.31869e-05
-0.000821494
-3.13428e-05
-0.00123469
-5.78908e-05
-0.00156786
-9.2862e-05
-0.00183343
-0.00013597
-0.00204222
-0.000186687
-0.00220373
-0.000244323
-0.00232627
-0.000308094
-0.00241704
-0.000377179
-0.00248229
-0.000450772
-0.00252728
-0.000528112
-0.00255646
-0.000608519
-0.0025735
-0.000691418
-0.00258143
-0.000776368
-0.00258269
-0.000863102
-0.00257931
-0.000951581
-0.00257296
-0.00104203
-0.00256519
-0.00113464
-0.00255811
-0.00255447
-0.0012294
-4.3734e-06
-0.000309095
-1.79381e-05
-0.00080793
-4.09668e-05
-0.00121166
-7.34232e-05
-0.0015354
-0.000114976
-0.00179187
-0.000165054
-0.00199214
-0.000222911
-0.00214587
-0.000287699
-0.00226148
-0.000358526
-0.00234622
-0.000434505
-0.00240631
-0.000514792
-0.00244699
-0.000598613
-0.00247264
-0.00068528
-0.00248684
-0.000774206
-0.0024925
-0.000864926
-0.00249197
-0.000957136
-0.0024871
-0.00105079
-0.00247931
-0.0011464
-0.00246958