1.275 	2.15223e-18 	-2.76991e-20 	-0.034453 	-0.000434337 	-1.91302e-22
1.825 	2.15223e-18 	-1.39322e-20 	-0.00944556 	-0.00275605 	1.69126e-21
2.375 	2.15223e-18 	-2.66896e-23 	0.115363 	-0.00324443 	-7.05505e-22
