1.275 	2.15223e-18 	-2.76991e-20 	-0.034442 	-0.000434913 	-1.91667e-22
1.825 	2.15223e-18 	-1.39322e-20 	-0.00942565 	-0.00275981 	1.69605e-21
2.375 	2.15223e-18 	-2.66896e-23 	0.115418 	-0.00325035 	-7.07549e-22
