/*--------------------------------*- C++ -*----------------------------------*\
  =========                 |
  \\      /  F ield         | OpenFOAM: The Open Source CFD Toolbox
   \\    /   O peration     | Website:  https://openfoam.org
    \\  /    A nd           | Version:  6.0
     \\/     M anipulation  |
\*---------------------------------------------------------------------------*/
FoamFile
{
    version     2.0;
    format      ascii;
    class       volScalarField;
    location    "74";
    object      p;
}
// * * * * * * * * * * * * * * * * * * * * * * * * * * * * * * * * * * * * * //

dimensions      [0 2 -2 0 0 0 0];

internalField   nonuniform List<scalar> 
2000
(
-0.348041
-0.353947
-0.355636
-0.354967
-0.353107
-0.350431
-0.347215
-0.343754
-0.340334
-0.336637
-0.350759
-0.356246
-0.357594
-0.356624
-0.354476
-0.351524
-0.348046
-0.344324
-0.340649
-0.336834
-0.356215
-0.360842
-0.3615
-0.35992
-0.357191
-0.353684
-0.349671
-0.345412
-0.341208
-0.337148
-0.364449
-0.367737
-0.367332
-0.364826
-0.361216
-0.356863
-0.352026
-0.346923
-0.341872
-0.337422
-0.375521
-0.376927
-0.375061
-0.371302
-0.366508
-0.361013
-0.355043
-0.348742
-0.342443
-0.3374
-0.389496
-0.388397
-0.384646
-0.379309
-0.373035
-0.366109
-0.358691
-0.350786
-0.342711
-0.336751
-0.406407
-0.402107
-0.396028
-0.388805
-0.380793
-0.372194
-0.363064
-0.353173
-0.342674
-0.335217
-0.426198
-0.417957
-0.409115
-0.399728
-0.389765
-0.37931
-0.368275
-0.356033
-0.34209
-0.331647
-0.448658
-0.435773
-0.423792
-0.412039
-0.399993
-0.38755
-0.374309
-0.358749
-0.338664
-0.321353
-0.473351
-0.455291
-0.439959
-0.425884
-0.412099
-0.398402
-0.384039
-0.366374
-0.341334
-0.317357
-0.499591
-0.476086
-0.457347
-0.441177
-0.426449
-0.413537
-0.402782
-0.394825
-0.394963
-0.414496
-0.526554
-0.49758
-0.475339
-0.456809
-0.440472
-0.426789
-0.416237
-0.409873
-0.412829
-0.4301
-0.553517
-0.519316
-0.493662
-0.47266
-0.454296
-0.438934
-0.426941
-0.419036
-0.418328
-0.426146
-0.579832
-0.54082
-0.512003
-0.488559
-0.467923
-0.45028
-0.435788
-0.424703
-0.418501
-0.417163
-0.604749
-0.561426
-0.529739
-0.503862
-0.480649
-0.460084
-0.442126
-0.426651
-0.41408
-0.404454
-0.62728
-0.580201
-0.545924
-0.517561
-0.491418
-0.467345
-0.445219
-0.424729
-0.405708
-0.38892
-0.646139
-0.595934
-0.559328
-0.528374
-0.498943
-0.470892
-0.444184
-0.418513
-0.393461
-0.370808
-0.659769
-0.607169
-0.56849
-0.534817
-0.501794
-0.469467
-0.438053
-0.407399
-0.377054
-0.349879
-0.666405
-0.61227
-0.571787
-0.535297
-0.498495
-0.461815
-0.425865
-0.390724
-0.356023
-0.325636
-0.664183
-0.609495
-0.567525
-0.528204
-0.487616
-0.446765
-0.406732
-0.367847
-0.329855
-0.297489
-0.651246
-0.597104
-0.554035
-0.512008
-0.467865
-0.423312
-0.379925
-0.338245
-0.298101
-0.264904
-0.62586
-0.573455
-0.529778
-0.485371
-0.438183
-0.390697
-0.34494
-0.30158
-0.260473
-0.227512
-0.586551
-0.537141
-0.493479
-0.447254
-0.397832
-0.348471
-0.301548
-0.257758
-0.216908
-0.185176
-0.532223
-0.487102
-0.444224
-0.397008
-0.346459
-0.296534
-0.24983
-0.20696
-0.167609
-0.138037
-0.462271
-0.42274
-0.381568
-0.334435
-0.284117
-0.235138
-0.190162
-0.149635
-0.113053
-0.086522
-0.376694
-0.344022
-0.305601
-0.259825
-0.211269
-0.164844
-0.123146
-0.0864022
-0.0538758
-0.0312555
-0.276181
-0.251551
-0.217006
-0.173978
-0.128772
-0.0864936
-0.0495523
-0.0179604
0.00920305
0.0269359
-0.16217
-0.146614
-0.117068
-0.0781831
-0.0378618
-0.00122847
0.0295617
0.0545722
0.0746415
0.0860224
-0.0368723
-0.0311863
-0.00763752
0.025887
0.0600776
0.0898991
0.113338
0.129982
0.139916
0.142287
0.0967577
0.0920919
0.108873
0.136202
0.163723
0.186713
0.2032
0.211568
0.210533
0.203804
0.235144
0.219955
0.22936
0.249868
0.270618
0.287731
0.299936
0.305418
0.304371
0.318289
0.374391
0.348757
0.350212
0.363031
0.376051
0.386025
0.392078
0.39332
0.392243
0.405166
0.510556
0.474826
0.468019
0.472571
0.477224
0.479303
0.478239
0.473618
0.467926
0.473029
0.639791
0.594555
0.579489
0.575588
0.571689
0.565701
0.557364
0.546531
0.535273
0.532431
0.758436
0.704502
0.68153
0.669421
0.657255
0.643507
0.628195
0.611359
0.594689
0.584742
0.863103
0.801503
0.771321
0.751676
0.731968
0.711191
0.689605
0.667392
0.645877
0.629721
0.950779
0.882748
0.846375
0.82024
0.794077
0.767327
0.740448
0.713737
0.688162
0.666804
1.01891
0.94587
0.9046
0.873324
0.842079
0.810652
0.779656
0.749469
0.720748
0.695333
1.06548
0.989017
0.944358
0.909526
0.874777
0.840142
0.806333
0.773783
0.742918
0.714717
1.08912
1.01091
0.964524
0.927874
0.89134
0.855073
0.819839
0.786093
0.754142
0.724522
1.08912
1.01091
0.964524
0.927874
0.89134
0.855073
0.819839
0.786093
0.754142
0.724522
1.06548
0.989017
0.944358
0.909526
0.874777
0.840142
0.806333
0.773783
0.742918
0.714717
1.01891
0.94587
0.9046
0.873324
0.842079
0.810652
0.779656
0.749469
0.720748
0.695333
0.950779
0.882748
0.846375
0.82024
0.794077
0.767327
0.740448
0.713737
0.688162
0.666804
0.863103
0.801503
0.77132
0.751676
0.731968
0.711191
0.689605
0.667392
0.645877
0.629721
0.758436
0.704502
0.681529
0.669421
0.657255
0.643507
0.628195
0.611359
0.594689
0.584742
0.639791
0.594555
0.579489
0.575588
0.571689
0.565701
0.557364
0.546531
0.535273
0.53243
0.510556
0.474826
0.468019
0.472571
0.477224
0.479303
0.478239
0.473618
0.467926
0.473029
0.374391
0.348757
0.350212
0.363031
0.376051
0.386025
0.392078
0.39332
0.392243
0.405166
0.235144
0.219955
0.22936
0.249868
0.270618
0.287731
0.299936
0.305418
0.304371
0.318289
0.0967577
0.0920918
0.108873
0.136202
0.163723
0.186713
0.2032
0.211568
0.210533
0.203804
-0.0368723
-0.0311864
-0.00763756
0.0258869
0.0600776
0.089899
0.113338
0.129982
0.139916
0.142287
-0.16217
-0.146615
-0.117068
-0.0781831
-0.0378619
-0.00122849
0.0295617
0.0545722
0.0746415
0.0860224
-0.276181
-0.251551
-0.217006
-0.173978
-0.128772
-0.0864936
-0.0495523
-0.0179604
0.00920304
0.0269359
-0.376694
-0.344022
-0.305601
-0.259825
-0.211269
-0.164844
-0.123146
-0.0864022
-0.0538758
-0.0312555
-0.462271
-0.42274
-0.381568
-0.334435
-0.284117
-0.235138
-0.190162
-0.149635
-0.113053
-0.086522
-0.532223
-0.487102
-0.444224
-0.397008
-0.346459
-0.296534
-0.24983
-0.20696
-0.167609
-0.138037
-0.586551
-0.537141
-0.493479
-0.447254
-0.397832
-0.348471
-0.301548
-0.257758
-0.216908
-0.185176
-0.62586
-0.573455
-0.529778
-0.485371
-0.438183
-0.390697
-0.34494
-0.30158
-0.260473
-0.227512
-0.651246
-0.597104
-0.554035
-0.512008
-0.467865
-0.423312
-0.379925
-0.338245
-0.298101
-0.264904
-0.664183
-0.609495
-0.567525
-0.528204
-0.487616
-0.446765
-0.406732
-0.367847
-0.329855
-0.297489
-0.666405
-0.61227
-0.571787
-0.535297
-0.498495
-0.461815
-0.425865
-0.390724
-0.356023
-0.325635
-0.659768
-0.607169
-0.56849
-0.534817
-0.501793
-0.469467
-0.438053
-0.407399
-0.377054
-0.349879
-0.646139
-0.595934
-0.559328
-0.528374
-0.498943
-0.470892
-0.444184
-0.418513
-0.393461
-0.370808
-0.627279
-0.580201
-0.545924
-0.517561
-0.491418
-0.467345
-0.445219
-0.424729
-0.405708
-0.38892
-0.604749
-0.561426
-0.529738
-0.503862
-0.480649
-0.460084
-0.442125
-0.42665
-0.41408
-0.404454
-0.579832
-0.54082
-0.512003
-0.488559
-0.467923
-0.450279
-0.435788
-0.424703
-0.4185
-0.417163
-0.553517
-0.519315
-0.493662
-0.47266
-0.454296
-0.438934
-0.426941
-0.419036
-0.418327
-0.426145
-0.526554
-0.49758
-0.475339
-0.456808
-0.440472
-0.426789
-0.416237
-0.409872
-0.412828
-0.4301
-0.499591
-0.476086
-0.457347
-0.441177
-0.426449
-0.413537
-0.402782
-0.394825
-0.394963
-0.414496
-0.473351
-0.455291
-0.439959
-0.425884
-0.412099
-0.398402
-0.384039
-0.366374
-0.341334
-0.317357
-0.448657
-0.435773
-0.423792
-0.412039
-0.399993
-0.387549
-0.374309
-0.358749
-0.338664
-0.321352
-0.426198
-0.417956
-0.409115
-0.399728
-0.389765
-0.37931
-0.368275
-0.356033
-0.34209
-0.331647
-0.406407
-0.402107
-0.396028
-0.388805
-0.380793
-0.372194
-0.363064
-0.353173
-0.342674
-0.335217
-0.389496
-0.388397
-0.384646
-0.379309
-0.373035
-0.366109
-0.358691
-0.350786
-0.342711
-0.336751
-0.375521
-0.376926
-0.375061
-0.371302
-0.366508
-0.361012
-0.355043
-0.348742
-0.342443
-0.3374
-0.364449
-0.367737
-0.367332
-0.364826
-0.361216
-0.356863
-0.352025
-0.346923
-0.341872
-0.337422
-0.356215
-0.360842
-0.3615
-0.35992
-0.357191
-0.353684
-0.34967
-0.345412
-0.341208
-0.337148
-0.350759
-0.356246
-0.357594
-0.356624
-0.354476
-0.351524
-0.348046
-0.344324
-0.340649
-0.336834
-0.348041
-0.353947
-0.355636
-0.354967
-0.353107
-0.350431
-0.347215
-0.343754
-0.340334
-0.336637
-0.290428
-0.126293
-0.0812215
-0.0303207
-0.0192158
-0.00778221
-0.00434257
-0.000872382
-0.000455452
0.00217198
-0.291659
-0.126841
-0.0814919
-0.0305192
-0.0192838
-0.00784188
-0.00437221
-0.00089316
-0.000464515
0.00215615
-0.29405
-0.127923
-0.0820273
-0.0309175
-0.0194194
-0.00796105
-0.00443136
-0.00093461
-0.000482649
0.00212462
-0.297461
-0.129514
-0.0828163
-0.0315176
-0.0196223
-0.00813924
-0.00451987
-0.000996653
-0.000509676
0.00207774
-0.301646
-0.13157
-0.0838329
-0.0323177
-0.0198907
-0.00837506
-0.00463723
-0.00107909
-0.000545312
0.00201595
-0.30625
-0.134016
-0.0850275
-0.0333042
-0.0202185
-0.00866493
-0.00478224
-0.00118139
-0.000589203
0.00193991
-0.311142
-0.136921
-0.0864057
-0.0344723
-0.0206065
-0.0090061
-0.00495434
-0.00130259
-0.000641549
0.00185117
-0.316845
-0.140936
-0.0882301
-0.0359227
-0.021098
-0.00941201
-0.0051596
-0.00144304
-0.000703886
0.00175254
-0.321622
-0.146441
-0.090679
-0.0378205
-0.0217436
-0.00990973
-0.00540716
-0.0016081
-0.000774632
0.00164144
-0.313817
-0.148817
-0.09179
-0.0395219
-0.0222459
-0.0104017
-0.00565186
-0.00179904
-0.000834271
0.00149489
-0.247286
-0.140718
-0.0881698
-0.0427768
-0.0227444
-0.0117335
-0.00636837
-0.00253875
-0.000999993
0.000841698
-0.189191
-0.131709
-0.0821679
-0.0442356
-0.0244777
-0.0141259
-0.00821732
-0.00402237
-0.00176183
-5.12369e-07
-0.147776
-0.11385
-0.0727393
-0.0428053
-0.0259034
-0.0163321
-0.0101526
-0.00561408
-0.0026967
-0.000680688
-0.108183
-0.0929484
-0.0633195
-0.0408365
-0.0269532
-0.0181274
-0.0118276
-0.00704933
-0.00358785
-0.0011519
-0.0789458
-0.0756759
-0.0565192
-0.0395815
-0.0277775
-0.0194729
-0.0131401
-0.00820349
-0.00433545
-0.00145057
-0.0588544
-0.0628287
-0.0515591
-0.038582
-0.0281889
-0.0203201
-0.0140671
-0.00905793
-0.00491387
-0.00164423
-0.0458292
-0.0535676
-0.0476973
-0.0376119
-0.028277
-0.0208016
-0.0146909
-0.00966619
-0.00534251
-0.00178092
-0.0375849
-0.0471083
-0.0447353
-0.0367589
-0.0282323
-0.0210713
-0.0150992
-0.0100832
-0.00564526
-0.00187975
-0.0327632
-0.0430075
-0.0427277
-0.0361559
-0.028176
-0.0212178
-0.0153441
-0.0103426
-0.00583823
-0.00194435
-0.0305327
-0.041006
-0.0417167
-0.035859
-0.0281523
-0.0212827
-0.0154572
-0.0104645
-0.00593259
-0.00197462
-0.218584
-0.246481
-0.272261
-0.296204
-0.318699
-0.340248
-0.361473
-0.383017
-0.405382
-0.429225
-0.0679396
-0.0780822
-0.0872469
-0.0956769
-0.103679
-0.111635
-0.120001
-0.129317
-0.140163
-0.15433
-0.0451687
-0.0543505
-0.0631467
-0.0715306
-0.0794647
-0.0869041
-0.0938054
-0.100142
-0.10591
-0.111231
-0.0187456
-0.0244656
-0.0299793
-0.0353057
-0.0404664
-0.045485
-0.0503846
-0.0551872
-0.0598928
-0.0643807
-0.0130365
-0.0173924
-0.0216237
-0.025727
-0.0296984
-0.0335339
-0.0372301
-0.0407838
-0.0441756
-0.0473741
-0.00798219
-0.0111995
-0.0143575
-0.0174551
-0.0204917
-0.0234669
-0.0263802
-0.02923
-0.0320049
-0.0347082
-0.00685866
-0.00939558
-0.0118962
-0.0143565
-0.0167729
-0.0191422
-0.0214621
-0.0237299
-0.0259396
-0.0281047
-0.00605773
-0.00811566
-0.0101571
-0.0121779
-0.0141744
-0.0161431
-0.018081
-0.019985
-0.0218518
-0.0236887
-0.00597016
-0.00774486
-0.00951165
-0.011266
-0.0130037
-0.0147209
-0.016414
-0.0180799
-0.0197164
-0.0213248
-0.00591419
-0.00754018
-0.00916358
-0.0107806
-0.0123878
-0.0139817
-0.0155593
-0.0171177
-0.0186554
-0.0201706
0.168015
0.127028
0.0816799
0.0386108
-0.00312765
-0.0440067
-0.08341
-0.120755
-0.155773
-0.18838
0.117545
0.0916306
0.0648387
0.0419999
0.0218797
0.00320594
-0.0141045
-0.0298405
-0.0439756
-0.0566251
0.0734253
0.0577272
0.0427742
0.0298621
0.0180107
0.00654407
-0.00460889
-0.0153602
-0.0256867
-0.0356151
0.0531693
0.0440964
0.0354673
0.0277569
0.0204905
0.0133979
0.0064813
-0.000200642
-0.00662663
-0.0128038
0.0376326
0.0316812
0.025941
0.0206504
0.01556
0.010539
0.00559393
0.000756269
-0.00396149
-0.00855893
0.027371
0.0234821
0.0196368
0.015999
0.0124565
0.0089411
0.00545435
0.00201294
-0.00137479
-0.00470682
0.0196684
0.01694
0.0141847
0.0115081
0.00886207
0.0062137
0.00356478
0.000926497
-0.00169329
-0.00428976
0.014488
0.0124929
0.0104476
0.00841451
0.00637702
0.00432153
0.0022504
0.000171172
-0.00190981
-0.00398762
0.0111574
0.00956245
0.0079185
0.00625476
0.00456646
0.00285048
0.00111067
-0.000646797
-0.00241618
-0.00419229
0.00956127
0.00814064
0.00667668
0.00518362
0.00366085
0.00210943
0.000533669
-0.00106125
-0.00267049
-0.00428957
0.33543
0.33473
0.333181
0.330306
0.325322
0.316991
0.303542
0.282581
0.251473
0.206856
0.245532
0.244416
0.24178
0.237196
0.230325
0.22074
0.207869
0.191053
0.169546
0.142791
0.174701
0.173572
0.170906
0.166381
0.159891
0.151327
0.140501
0.127197
0.111009
0.0920221
0.123092
0.122206
0.120103
0.116541
0.111501
0.10501
0.0970605
0.0876622
0.0767374
0.0646211
0.0867578
0.0861133
0.0845744
0.0819613
0.0782813
0.0735869
0.0679122
0.0612953
0.0537166
0.0453848
0.0615787
0.0611153
0.0600068
0.0581246
0.0554821
0.0521304
0.0481113
0.0434686
0.03822
0.0325118
0.0444274
0.0440889
0.0432787
0.0419034
0.0399747
0.0375327
0.0346112
0.031243
0.0274474
0.0233086
0.0331419
0.0328851
0.0322705
0.0312275
0.0297652
0.0279151
0.0257041
0.0231572
0.0202948
0.0171689
0.0263061
0.0260976
0.0255989
0.0247525
0.0235658
0.0220638
0.0202679
0.0181968
0.0158684
0.0133141
0.0230857
0.0228992
0.022454
0.0216989
0.0206401
0.0192996
0.0176962
0.0158461
0.0137661
0.011479
0.485404
0.487157
0.49349
0.504636
0.520488
0.541348
0.567682
0.600014
0.638881
0.684529
0.483163
0.48489
0.491143
0.502133
0.517736
0.538219
0.563988
0.595483
0.633102
0.676937
0.478732
0.480414
0.486514
0.497202
0.512319
0.53206
0.556719
0.586561
0.621711
0.66196
0.472213
0.47384
0.479729
0.489985
0.504401
0.523067
0.546105
0.573522
0.605029
0.640007
0.463742
0.465319
0.47096
0.480679
0.494211
0.511507
0.532467
0.556756
0.583523
0.611662
0.45349
0.455038
0.460412
0.469513
0.482004
0.497677
0.516165
0.53671
0.557762
0.577663
0.441651
0.443239
0.448366
0.456805
0.468145
0.481991
0.497669
0.513926
0.528424
0.538875
0.428432
0.430247
0.435262
0.443112
0.453327
0.465295
0.477965
0.489445
0.496509
0.496093
0.413902
0.416194
0.421288
0.428674
0.437869
0.448042
0.457693
0.464103
0.462893
0.448813
0.3977
0.400136
0.404803
0.41106
0.418439
0.42599
0.431938
0.433061
0.424596
0.396893
0.3977
0.400136
0.404803
0.41106
0.418439
0.42599
0.431938
0.433061
0.424596
0.396893
0.413902
0.416194
0.421288
0.428674
0.437869
0.448042
0.457693
0.464103
0.462893
0.448813
0.428432
0.430247
0.435262
0.443112
0.453327
0.465295
0.477965
0.489445
0.496509
0.496093
0.441651
0.443239
0.448366
0.456805
0.468145
0.481991
0.497669
0.513926
0.528424
0.538875
0.45349
0.455038
0.460412
0.469513
0.482004
0.497677
0.516165
0.53671
0.557762
0.577663
0.463742
0.465319
0.47096
0.480679
0.494211
0.511507
0.532467
0.556756
0.583523
0.611662
0.472213
0.47384
0.479729
0.489985
0.504401
0.523067
0.546105
0.573522
0.605029
0.640007
0.478732
0.480414
0.486514
0.497202
0.512319
0.53206
0.556719
0.586561
0.621711
0.66196
0.483163
0.48489
0.491143
0.502133
0.517736
0.538219
0.563988
0.595483
0.633102
0.676937
0.485404
0.487157
0.49349
0.504636
0.520488
0.541348
0.567682
0.600014
0.638881
0.684529
0.0230857
0.0228992
0.022454
0.0216989
0.0206401
0.0192997
0.0176963
0.0158461
0.0137661
0.011479
0.0263061
0.0260976
0.0255989
0.0247525
0.0235658
0.0220638
0.0202679
0.0181968
0.0158685
0.0133141
0.0331419
0.0328851
0.0322705
0.0312275
0.0297652
0.0279151
0.0257041
0.0231572
0.0202949
0.0171689
0.0444274
0.0440889
0.0432787
0.0419035
0.0399747
0.0375327
0.0346112
0.031243
0.0274474
0.0233086
0.0615787
0.0611153
0.0600068
0.0581246
0.0554821
0.0521304
0.0481113
0.0434686
0.03822
0.0325118
0.0867578
0.0861133
0.0845744
0.0819613
0.0782814
0.0735869
0.0679122
0.0612953
0.0537166
0.0453848
0.123092
0.122206
0.120103
0.116541
0.111501
0.10501
0.0970605
0.0876622
0.0767374
0.0646211
0.174701
0.173572
0.170906
0.166381
0.159891
0.151327
0.140501
0.127197
0.111009
0.0920221
0.245532
0.244416
0.24178
0.237196
0.230325
0.22074
0.207869
0.191053
0.169546
0.142791
0.33543
0.33473
0.333181
0.330306
0.325322
0.316991
0.303542
0.282581
0.251473
0.206856
0.00956129
0.00814066
0.0066767
0.00518364
0.00366087
0.00210945
0.00053369
-0.00106123
-0.00267047
-0.00428955
0.0111574
0.00956247
0.00791852
0.00625478
0.00456648
0.0028505
0.00111069
-0.000646775
-0.00241615
-0.00419227
0.014488
0.0124929
0.0104476
0.00841453
0.00637704
0.00432155
0.00225043
0.000171194
-0.00190979
-0.00398759
0.0196684
0.01694
0.0141848
0.0115081
0.00886209
0.00621372
0.0035648
0.000926518
-0.00169327
-0.00428974
0.027371
0.0234821
0.0196368
0.015999
0.0124565
0.00894112
0.00545437
0.00201296
-0.00137476
-0.0047068
0.0376326
0.0316812
0.025941
0.0206504
0.0155601
0.010539
0.00559395
0.000756291
-0.00396147
-0.00855891
0.0531693
0.0440964
0.0354673
0.0277569
0.0204905
0.0133979
0.00648132
-0.00020062
-0.0066266
-0.0128038
0.0734253
0.0577273
0.0427742
0.0298621
0.0180108
0.00654409
-0.00460887
-0.0153602
-0.0256867
-0.035615
0.117545
0.0916306
0.0648387
0.0419999
0.0218798
0.00320596
-0.0141044
-0.0298405
-0.0439756
-0.056625
0.168015
0.127028
0.08168
0.0386108
-0.00312763
-0.0440067
-0.08341
-0.120755
-0.155773
-0.18838
-0.00591416
-0.00754016
-0.00916356
-0.0107806
-0.0123877
-0.0139817
-0.0155593
-0.0171176
-0.0186554
-0.0201706
-0.00597014
-0.00774484
-0.00951163
-0.011266
-0.0130037
-0.0147209
-0.016414
-0.0180799
-0.0197163
-0.0213247
-0.0060577
-0.00811564
-0.010157
-0.0121779
-0.0141743
-0.0161431
-0.018081
-0.019985
-0.0218518
-0.0236887
-0.00685863
-0.00939556
-0.0118962
-0.0143564
-0.0167728
-0.0191422
-0.0214621
-0.0237299
-0.0259396
-0.0281046
-0.00798216
-0.0111995
-0.0143574
-0.017455
-0.0204917
-0.0234669
-0.0263801
-0.02923
-0.0320048
-0.0347081
-0.0130365
-0.0173924
-0.0216237
-0.025727
-0.0296984
-0.0335339
-0.03723
-0.0407838
-0.0441756
-0.047374
-0.0187456
-0.0244656
-0.0299793
-0.0353056
-0.0404664
-0.045485
-0.0503846
-0.0551871
-0.0598927
-0.0643807
-0.0451686
-0.0543505
-0.0631467
-0.0715306
-0.0794647
-0.0869041
-0.0938053
-0.100142
-0.10591
-0.111231
-0.0679395
-0.0780822
-0.0872468
-0.0956768
-0.103679
-0.111635
-0.120001
-0.129317
-0.140163
-0.15433
-0.218584
-0.246481
-0.272261
-0.296204
-0.318698
-0.340248
-0.361472
-0.383016
-0.405382
-0.429225
-0.0305327
-0.0410059
-0.0417167
-0.0358589
-0.0281522
-0.0212826
-0.0154572
-0.0104645
-0.00593255
-0.00197461
-0.0327632
-0.0430075
-0.0427277
-0.0361559
-0.028176
-0.0212177
-0.015344
-0.0103425
-0.00583819
-0.00194434
-0.0375849
-0.0471083
-0.0447352
-0.0367589
-0.0282322
-0.0210712
-0.0150991
-0.0100831
-0.00564522
-0.00187975
-0.0458292
-0.0535676
-0.0476973
-0.0376118
-0.028277
-0.0208015
-0.0146908
-0.00966611
-0.00534248
-0.00178093
-0.0588544
-0.0628287
-0.0515591
-0.038582
-0.0281888
-0.02032
-0.0140669
-0.00905784
-0.00491385
-0.00164426
-0.0789458
-0.0756759
-0.0565192
-0.0395815
-0.0277774
-0.0194727
-0.0131399
-0.00820338
-0.00433546
-0.00145063
-0.108183
-0.0929485
-0.0633196
-0.0408365
-0.026953
-0.0181272
-0.0118274
-0.00704919
-0.0035879
-0.001152
-0.147776
-0.11385
-0.0727394
-0.0428053
-0.0259032
-0.0163318
-0.0101524
-0.00561391
-0.00269681
-0.000680863
-0.189191
-0.131709
-0.0821681
-0.0442357
-0.0244774
-0.0141255
-0.00821695
-0.00402214
-0.00176203
-7.71586e-07
-0.247286
-0.140718
-0.0881701
-0.0427769
-0.022744
-0.011733
-0.0063679
-0.00253846
-0.00100028
0.000841359
-0.313817
-0.148817
-0.0917902
-0.0395221
-0.0222456
-0.0104013
-0.00565142
-0.00179875
-0.000834578
0.00149456
-0.321622
-0.146442
-0.0906792
-0.0378207
-0.0217433
-0.00990942
-0.00540674
-0.00160783
-0.000774929
0.00164113
-0.316845
-0.140936
-0.0882303
-0.0359228
-0.0210977
-0.00941174
-0.00515922
-0.0014428
-0.000704161
0.00175227
-0.311142
-0.136921
-0.0864059
-0.0344724
-0.0206062
-0.00900587
-0.004954
-0.00130238
-0.0006418
0.00185093
-0.30625
-0.134016
-0.0850277
-0.0333044
-0.0202182
-0.00866475
-0.00478193
-0.0011812
-0.000589432
0.0019397
-0.301646
-0.13157
-0.083833
-0.0323179
-0.0198904
-0.00837493
-0.00463697
-0.00107893
-0.000545519
0.00201578
-0.297461
-0.129514
-0.0828165
-0.0315177
-0.0196221
-0.00813915
-0.00451965
-0.000996513
-0.000509859
0.0020776
-0.29405
-0.127923
-0.0820274
-0.0309176
-0.0194191
-0.00796101
-0.00443119
-0.000934496
-0.000482805
0.00212451
-0.291659
-0.126841
-0.0814919
-0.0305193
-0.0192836
-0.00784188
-0.00437209
-0.000893074
-0.000464636
0.00215607
-0.290428
-0.126293
-0.0812215
-0.0303207
-0.0192157
-0.00778223
-0.00434252
-0.000872347
-0.000455503
0.00217196
)
;

boundaryField
{
    inlet
    {
        type            zeroGradient;
    }
    outlet
    {
        type            fixedValue;
        value           uniform 0;
    }
    cylinder
    {
        type            zeroGradient;
    }
    top
    {
        type            symmetryPlane;
    }
    bottom
    {
        type            symmetryPlane;
    }
    defaultFaces
    {
        type            empty;
    }
}


// ************************************************************************* //
