1.275 	2.15223e-18 	-2.76991e-20 	-0.0331683 	-0.000484794 	-2.01541e-22
1.825 	2.15223e-18 	-1.39322e-20 	-0.00743606 	-0.00287682 	1.81051e-21
2.375 	2.15223e-18 	-2.66896e-23 	0.121365 	-0.00342074 	-7.54687e-22
