1.45 	0 	0 	-0.00608254 	-0.00270743 	3.92085e-21
2.35 	0 	0 	0.0673685 	-0.00680563 	2.44238e-21
