1.45 	0 	0 	-0.00467299 	-0.00281311 	3.94983e-21
2.35 	0 	0 	0.0719113 	-0.00695256 	2.43972e-21
