/*--------------------------------*- C++ -*----------------------------------*\
  =========                 |
  \\      /  F ield         | OpenFOAM: The Open Source CFD Toolbox
   \\    /   O peration     | Website:  https://openfoam.org
    \\  /    A nd           | Version:  6.0
     \\/     M anipulation  |
\*---------------------------------------------------------------------------*/
FoamFile
{
    version     2.0;
    format      ascii;
    class       volScalarField;
    location    "9";
    object      p;
}
// * * * * * * * * * * * * * * * * * * * * * * * * * * * * * * * * * * * * * //

dimensions      [0 2 -2 0 0 0 0];

internalField   nonuniform List<scalar> 
2000
(
-0.365779
-0.371631
-0.373222
-0.372424
-0.370412
-0.367565
-0.364168
-0.360517
-0.356905
-0.353031
-0.368545
-0.373969
-0.375214
-0.374112
-0.371809
-0.368686
-0.365024
-0.36111
-0.35724
-0.353247
-0.3741
-0.378644
-0.379189
-0.377471
-0.374583
-0.370901
-0.3667
-0.362244
-0.357841
-0.353603
-0.382476
-0.385654
-0.385122
-0.382471
-0.378696
-0.374163
-0.369133
-0.363826
-0.358567
-0.353941
-0.393725
-0.394989
-0.392981
-0.389067
-0.384101
-0.37842
-0.372252
-0.365739
-0.359219
-0.354001
-0.407901
-0.406629
-0.402718
-0.397218
-0.390766
-0.383648
-0.376024
-0.367895
-0.359585
-0.353448
-0.425028
-0.420525
-0.414273
-0.406878
-0.398682
-0.389884
-0.380539
-0.370412
-0.359658
-0.352013
-0.445042
-0.436575
-0.427548
-0.417983
-0.40783
-0.397168
-0.385906
-0.373409
-0.359181
-0.348527
-0.467725
-0.454599
-0.442425
-0.43049
-0.41825
-0.405591
-0.392109
-0.376269
-0.355866
-0.338321
-0.492638
-0.47433
-0.458802
-0.444544
-0.430559
-0.416637
-0.402017
-0.384059
-0.35869
-0.334456
-0.519093
-0.495339
-0.476405
-0.460049
-0.445107
-0.431938
-0.420868
-0.41251
-0.41211
-0.431036
-0.546265
-0.517046
-0.494615
-0.475899
-0.45934
-0.44538
-0.434478
-0.427672
-0.430053
-0.446685
-0.573424
-0.538984
-0.51315
-0.491964
-0.473371
-0.457715
-0.445348
-0.436976
-0.435683
-0.442855
-0.599908
-0.560668
-0.531678
-0.508048
-0.487168
-0.469204
-0.454304
-0.442717
-0.435905
-0.433906
-0.624951
-0.581414
-0.549558
-0.523485
-0.500004
-0.479081
-0.460675
-0.444662
-0.431462
-0.421172
-0.647548
-0.600272
-0.565829
-0.537253
-0.510807
-0.486334
-0.463718
-0.44266
-0.423003
-0.405566
-0.6664
-0.616021
-0.579248
-0.548055
-0.518281
-0.489787
-0.462552
-0.436292
-0.41061
-0.387335
-0.679938
-0.627194
-0.588343
-0.554401
-0.520993
-0.488183
-0.456215
-0.424963
-0.394004
-0.366244
-0.686396
-0.632147
-0.591487
-0.554697
-0.517471
-0.480275
-0.443753
-0.408019
-0.372731
-0.341799
-0.683907
-0.62914
-0.586985
-0.547333
-0.50629
-0.464902
-0.424294
-0.384832
-0.346287
-0.313421
-0.67062
-0.616433
-0.573171
-0.530788
-0.486168
-0.441071
-0.39712
-0.354891
-0.314233
-0.280583
-0.64481
-0.592391
-0.548517
-0.503736
-0.456061
-0.408039
-0.361742
-0.317869
-0.276293
-0.242926
-0.605015
-0.555619
-0.511758
-0.465152
-0.415249
-0.365372
-0.317945
-0.273686
-0.232414
-0.200324
-0.550153
-0.505071
-0.461997
-0.414403
-0.363391
-0.312985
-0.265821
-0.222531
-0.182808
-0.152925
-0.479638
-0.440167
-0.398804
-0.351309
-0.30056
-0.251144
-0.205759
-0.164863
-0.127958
-0.101161
-0.393484
-0.360888
-0.32229
-0.276177
-0.227231
-0.180419
-0.138366
-0.101306
-0.0685023
-0.0456607
-0.292399
-0.267857
-0.233153
-0.189822
-0.144274
-0.101663
-0.0644208
-0.0325622
-0.00516589
0.0127488
-0.177835
-0.162377
-0.132693
-0.0935445
-0.0529322
-0.0160219
0.0150164
0.0402463
0.0605079
0.0720341
-0.0520178
-0.0464352
-0.0227727
0.0109726
0.0454024
0.0754475
0.0990846
0.115905
0.125993
0.128475
0.0820879
0.0773157
0.0941857
0.121693
0.149403
0.172568
0.189208
0.19771
0.196791
0.19015
0.220899
0.205603
0.215072
0.235717
0.256611
0.273855
0.286174
0.29175
0.290776
0.304788
0.360516
0.334776
0.336272
0.34919
0.362314
0.372381
0.378516
0.379826
0.378809
0.391819
0.496995
0.461162
0.454374
0.458991
0.463712
0.46585
0.464839
0.460262
0.454611
0.459777
0.626491
0.581154
0.566089
0.562224
0.558361
0.552404
0.544096
0.533286
0.522052
0.519251
0.745345
0.691316
0.668328
0.65623
0.644075
0.630335
0.615031
0.598202
0.581541
0.571619
0.850177
0.788484
0.758274
0.738621
0.718903
0.698116
0.676521
0.654303
0.632786
0.616641
0.937975
0.869856
0.833446
0.807287
0.781099
0.754325
0.727425
0.700698
0.675112
0.653755
1.00619
0.933069
0.891755
0.860444
0.829162
0.797701
0.766676
0.736465
0.707728
0.682305
1.05282
0.976273
0.931566
0.896692
0.861899
0.827223
0.79338
0.760801
0.729915
0.701703
1.07649
0.998198
0.951757
0.915061
0.87848
0.842169
0.806897
0.773122
0.741148
0.711514
1.07648
0.998196
0.951755
0.91506
0.878478
0.842168
0.806896
0.77312
0.741146
0.711512
1.05281
0.976267
0.93156
0.896686
0.861894
0.827218
0.793374
0.760796
0.72991
0.701698
1.00618
0.933059
0.891745
0.860435
0.829153
0.797692
0.766667
0.736456
0.707719
0.682297
0.937961
0.869842
0.833433
0.807274
0.781086
0.754312
0.727413
0.700686
0.675101
0.653744
0.850159
0.788466
0.758257
0.738604
0.718887
0.6981
0.676506
0.654288
0.632771
0.616627
0.745323
0.691294
0.668307
0.65621
0.644055
0.630316
0.615013
0.598184
0.581524
0.571602
0.626465
0.581129
0.566065
0.5622
0.558339
0.552383
0.544075
0.533266
0.522032
0.519233
0.496966
0.461133
0.454346
0.458965
0.463686
0.465826
0.464817
0.460241
0.45459
0.459757
0.360484
0.334744
0.336241
0.349161
0.362286
0.372355
0.378491
0.379803
0.378787
0.391798
0.220864
0.205568
0.215039
0.235686
0.256581
0.273827
0.286148
0.291725
0.290753
0.304768
0.0820508
0.0772788
0.0941498
0.121659
0.149371
0.172538
0.18918
0.197684
0.196767
0.190129
-0.0520573
-0.0464745
-0.0228109
0.0109363
0.0453683
0.0754156
0.0990549
0.115877
0.125967
0.128451
-0.177877
-0.162419
-0.132733
-0.0935828
-0.0529681
-0.0160556
0.0149849
0.0402166
0.0604799
0.0720079
-0.292443
-0.2679
-0.233195
-0.189862
-0.144311
-0.101698
-0.064454
-0.0325936
-0.00519564
0.0127206
-0.39353
-0.360933
-0.322334
-0.276219
-0.227271
-0.180456
-0.138401
-0.101339
-0.0685336
-0.0456905
-0.479685
-0.440214
-0.398849
-0.351352
-0.300601
-0.251182
-0.205795
-0.164897
-0.12799
-0.101192
-0.550202
-0.50512
-0.462043
-0.414447
-0.363433
-0.313024
-0.265859
-0.222567
-0.182841
-0.152957
-0.605065
-0.555669
-0.511805
-0.465197
-0.415291
-0.365412
-0.317983
-0.273722
-0.232448
-0.200356
-0.644861
-0.592441
-0.548565
-0.503781
-0.456104
-0.40808
-0.36178
-0.317906
-0.276328
-0.242959
-0.670672
-0.616483
-0.573219
-0.530834
-0.486212
-0.441113
-0.39716
-0.354928
-0.314269
-0.280617
-0.683958
-0.62919
-0.587033
-0.547378
-0.506333
-0.464943
-0.424333
-0.38487
-0.346323
-0.313455
-0.686447
-0.632197
-0.591535
-0.554742
-0.517515
-0.480317
-0.443793
-0.408057
-0.372768
-0.341835
-0.679989
-0.627243
-0.58839
-0.554446
-0.521036
-0.488225
-0.456255
-0.425002
-0.394042
-0.366281
-0.666449
-0.616069
-0.579294
-0.548099
-0.518323
-0.489828
-0.462592
-0.436332
-0.410648
-0.387373
-0.647597
-0.600319
-0.565874
-0.537296
-0.510849
-0.486375
-0.463759
-0.4427
-0.423042
-0.405605
-0.624999
-0.581459
-0.549602
-0.523528
-0.500045
-0.479122
-0.460715
-0.444702
-0.431503
-0.421212
-0.599954
-0.560712
-0.531721
-0.50809
-0.487209
-0.469244
-0.454344
-0.442757
-0.435946
-0.433948
-0.573469
-0.539027
-0.513192
-0.492005
-0.473411
-0.457754
-0.445387
-0.437016
-0.435725
-0.442898
-0.546309
-0.517087
-0.494656
-0.475938
-0.459379
-0.445419
-0.434517
-0.427712
-0.430095
-0.446728
-0.519136
-0.495379
-0.476444
-0.460087
-0.445144
-0.431976
-0.420906
-0.412551
-0.412153
-0.431081
-0.49268
-0.474368
-0.45884
-0.444581
-0.430595
-0.416674
-0.402056
-0.3841
-0.358735
-0.334504
-0.467766
-0.454636
-0.442461
-0.430525
-0.418285
-0.405627
-0.392146
-0.376309
-0.35591
-0.338368
-0.445082
-0.43661
-0.427581
-0.418016
-0.407863
-0.397202
-0.385942
-0.373447
-0.359222
-0.348572
-0.425066
-0.420559
-0.414304
-0.406908
-0.398713
-0.389916
-0.380573
-0.370448
-0.359696
-0.352054
-0.407936
-0.406659
-0.402747
-0.397246
-0.390794
-0.383677
-0.376054
-0.367928
-0.35962
-0.353485
-0.393756
-0.395016
-0.393005
-0.389092
-0.384126
-0.378445
-0.372278
-0.365766
-0.359249
-0.354033
-0.382502
-0.385676
-0.385143
-0.38249
-0.378715
-0.374183
-0.369154
-0.363849
-0.358591
-0.353967
-0.374119
-0.378661
-0.379204
-0.377486
-0.374598
-0.370916
-0.366716
-0.362261
-0.357859
-0.353622
-0.368558
-0.373979
-0.375224
-0.37412
-0.371818
-0.368695
-0.365033
-0.36112
-0.357251
-0.353258
-0.365783
-0.371635
-0.373225
-0.372427
-0.370415
-0.367568
-0.364171
-0.36052
-0.356909
-0.353034
-0.305199
-0.132292
-0.0818656
-0.0251687
-0.0107402
0.000987205
0.00372234
0.00524816
0.00344404
0.00360408
-0.306502
-0.132933
-0.0822456
-0.0254697
-0.0108835
0.000873979
0.00365807
0.00520743
0.0034233
0.00358402
-0.309039
-0.134196
-0.0829896
-0.0260633
-0.011164
0.000651659
0.00353098
0.00512633
0.00338184
0.00354384
-0.31266
-0.136047
-0.0840735
-0.0269418
-0.0115752
0.000324876
0.00334353
0.00500626
0.0033207
0.00348428
-0.317107
-0.138429
-0.0854521
-0.0280894
-0.0121061
-9.91014e-05
0.00309953
0.00484923
0.00324102
0.00340593
-0.322008
-0.141246
-0.0870518
-0.0294736
-0.0127389
-0.00060939
0.00280425
0.00465793
0.00314427
0.00330976
-0.327218
-0.144554
-0.0888573
-0.0310711
-0.0134621
-0.00119477
0.0024635
0.00443632
0.00303196
0.00319761
-0.333268
-0.14903
-0.0911431
-0.0329857
-0.0143156
-0.00186295
0.00207705
0.00418831
0.00290555
0.00307267
-0.338415
-0.155102
-0.0941104
-0.0354067
-0.0153647
-0.00264591
0.00163418
0.00390949
0.0027674
0.00293314
-0.330791
-0.157957
-0.0956075
-0.0375789
-0.0162781
-0.00344258
0.00116409
0.00358325
0.0026232
0.00275602
-0.264052
-0.150623
-0.0924477
-0.0418334
-0.0179427
-0.00574722
-0.000378075
0.00231482
0.00210308
0.00199616
-0.203474
-0.140872
-0.0860106
-0.0435871
-0.0207103
-0.00933172
-0.00328939
0.000133387
0.000916138
0.000978387
-0.159457
-0.121702
-0.0759542
-0.0421847
-0.0228487
-0.0124392
-0.00603926
-0.00199594
-0.000305049
0.000147523
-0.118021
-0.0997797
-0.0663455
-0.0405435
-0.0245783
-0.0149768
-0.00839739
-0.00390332
-0.00143034
-0.000461878
-0.0877
-0.0819351
-0.0596481
-0.039719
-0.0259532
-0.0168979
-0.0102942
-0.00551386
-0.00241844
-0.000882003
-0.0669781
-0.0687641
-0.054789
-0.0390486
-0.0267656
-0.0181859
-0.0117128
-0.00679462
-0.00323836
-0.00116408
-0.0535614
-0.0592779
-0.0509697
-0.0383303
-0.0271798
-0.019017
-0.0127302
-0.00776421
-0.00388226
-0.00135412
-0.0450553
-0.0526565
-0.0480379
-0.0376885
-0.027397
-0.0195424
-0.0134224
-0.00845398
-0.0043543
-0.00148029
-0.0400665
-0.0484563
-0.0460661
-0.0372438
-0.0275163
-0.0198446
-0.0138451
-0.00889397
-0.00466316
-0.00155668
-0.0377529
-0.0464088
-0.0450794
-0.0370335
-0.0275786
-0.0199777
-0.014041
-0.00910641
-0.00481744
-0.0015898
-0.232482
-0.260498
-0.286429
-0.310557
-0.333264
-0.355046
-0.376502
-0.398253
-0.420752
-0.444733
-0.0802405
-0.0903799
-0.0995453
-0.107979
-0.115987
-0.123951
-0.13233
-0.141669
-0.152547
-0.166759
-0.0564044
-0.0655324
-0.0742783
-0.0826165
-0.0905102
-0.0979154
-0.104789
-0.111105
-0.116859
-0.122174
-0.0291589
-0.0348046
-0.0402454
-0.0455009
-0.0505938
-0.0555481
-0.0603876
-0.0651351
-0.0697915
-0.0742438
-0.0228991
-0.0271757
-0.031327
-0.03535
-0.0392413
-0.0429972
-0.0466148
-0.0500916
-0.0534089
-0.0565424
-0.0173878
-0.0205234
-0.0235983
-0.0266119
-0.0295638
-0.0324538
-0.0352819
-0.0380469
-0.0407377
-0.0433627
-0.0159436
-0.0184003
-0.0208186
-0.0231948
-0.0255254
-0.0278076
-0.0300393
-0.0322179
-0.0343379
-0.036416
-0.014902
-0.0168813
-0.0188417
-0.0207793
-0.0226904
-0.0245719
-0.0264209
-0.0282344
-0.0300091
-0.0317552
-0.0146631
-0.0163609
-0.0180481
-0.0197202
-0.0213732
-0.0230033
-0.024607
-0.0261812
-0.0277237
-0.029238
-0.0145311
-0.0160817
-0.0176268
-0.0191629
-0.0206862
-0.0221935
-0.0236817
-0.0251478
-0.0265904
-0.0280093
0.154586
0.113505
0.0681463
0.0250632
-0.0167043
-0.0576158
-0.0970531
-0.134439
-0.16951
-0.202186
0.10497
0.079052
0.0523264
0.0295448
0.00946072
-0.00918468
-0.0264686
-0.0421812
-0.0562977
-0.068934
0.0615753
0.045906
0.0310373
0.0182034
0.00641601
-0.00499055
-0.0160823
-0.0267719
-0.0370378
-0.0469073
0.042012
0.0329889
0.0244471
0.0168196
0.00962752
0.00260759
-0.00423463
-0.0108409
-0.0171909
-0.0232923
0.0270364
0.0211382
0.0154765
0.0102621
0.00524328
0.000293747
-0.00457765
-0.00933979
-0.0139807
-0.0185003
0.0172484
0.0134137
0.00963917
0.00607176
0.00259794
-0.000847456
-0.00426174
-0.00762833
-0.0109393
-0.0141927
0.00991086
0.00723386
0.00454085
0.00192743
-0.000655037
-0.00323782
-0.00581841
-0.00838571
-0.0109321
-0.0134527
0.00500421
0.00305847
0.00106926
-0.000905802
-0.00288352
-0.00487668
-0.00688255
-0.00889366
-0.0109038
-0.012908
0.0018525
0.000305004
-0.00128716
-0.00289665
-0.00452822
-0.00618461
-0.00786183
-0.00955373
-0.0112546
-0.0129594
0.000346478
-0.00102709
-0.00244095
-0.00388135
-0.00534871
-0.00684189
-0.00835651
-0.00988741
-0.0114298
-0.0129791
0.322845
0.322137
0.320569
0.317662
0.312633
0.304243
0.290718
0.26966
0.238426
0.193636
0.233319
0.232198
0.229552
0.224949
0.218054
0.208437
0.195528
0.178669
0.15711
0.130297
0.16294
0.16181
0.159141
0.154612
0.148116
0.139545
0.128711
0.115399
0.099201
0.0802025
0.111802
0.110918
0.108819
0.105262
0.100231
0.0937504
0.0858156
0.0764364
0.0655355
0.0534475
0.0759158
0.0752742
0.0737422
0.0711408
0.0674777
0.0628053
0.0571583
0.0505753
0.0430373
0.0347521
0.0511332
0.0506737
0.0495744
0.0477079
0.0450878
0.0417653
0.0377824
0.0331835
0.0279868
0.0223385
0.0343112
0.0339771
0.0331774
0.0318201
0.0299168
0.0275077
0.0246269
0.0213073
0.0175687
0.0134951
0.0232782
0.0230262
0.0224229
0.021399
0.0199639
0.0181489
0.015981
0.0134855
0.0106831
0.00762574
0.0166131
0.0164094
0.0159223
0.0150957
0.013937
0.0124711
0.0107194
0.00870079
0.00643345
0.00394877
0.0134785
0.0132969
0.0128635
0.0121284
0.011098
0.00979406
0.00823532
0.00643818
0.00441971
0.00220287
0.47252
0.474271
0.480595
0.491725
0.507555
0.528392
0.554701
0.587012
0.625864
0.671511
0.470282
0.472007
0.478251
0.489225
0.504806
0.525265
0.551009
0.582482
0.620085
0.663917
0.465858
0.467537
0.473628
0.484298
0.499393
0.51911
0.543742
0.57356
0.608691
0.648937
0.459348
0.460972
0.466852
0.47709
0.491483
0.510122
0.533131
0.560522
0.592006
0.626975
0.450891
0.452465
0.458094
0.467795
0.481301
0.498568
0.519497
0.543755
0.570493
0.598619
0.440655
0.4422
0.447562
0.456643
0.469107
0.484747
0.503199
0.523709
0.544723
0.564604
0.428836
0.430421
0.435535
0.443951
0.455261
0.469071
0.484708
0.500923
0.515373
0.525795
0.415642
0.417452
0.422452
0.430276
0.440458
0.452386
0.46501
0.47644
0.483444
0.482986
0.401141
0.403426
0.408502
0.415859
0.425016
0.435143
0.44474
0.45109
0.449804
0.435657
0.384973
0.3874
0.392046
0.398271
0.405608
0.413106
0.418991
0.420039
0.41148
0.38366
0.384977
0.387404
0.39205
0.398274
0.40561
0.413107
0.41899
0.420036
0.411473
0.383647
0.401145
0.40343
0.408505
0.415862
0.425018
0.435144
0.444739
0.451086
0.449795
0.435642
0.415646
0.417456
0.422455
0.430279
0.44046
0.452386
0.465008
0.476435
0.483434
0.48297
0.42884
0.430424
0.435537
0.443953
0.455262
0.46907
0.484706
0.500916
0.515363
0.52578
0.440657
0.442203
0.447564
0.456644
0.469107
0.484746
0.503195
0.523702
0.544712
0.564589
0.450893
0.452466
0.458096
0.467796
0.481301
0.498567
0.519493
0.543748
0.570483
0.598607
0.459349
0.460973
0.466852
0.47709
0.491482
0.51012
0.533127
0.560516
0.591997
0.626965
0.465859
0.467538
0.473628
0.484298
0.499393
0.519108
0.543739
0.573555
0.608685
0.648929
0.470283
0.472007
0.478251
0.489225
0.504806
0.525263
0.551007
0.582479
0.620081
0.663913
0.472521
0.474271
0.480595
0.491725
0.507555
0.528391
0.554701
0.587011
0.625863
0.67151
0.0134877
0.0133061
0.0128727
0.0121376
0.0111072
0.00980323
0.00824447
0.00644729
0.00442877
0.00221187
0.0166221
0.0164185
0.0159314
0.0151048
0.013946
0.0124802
0.0107284
0.00870975
0.00644237
0.00395764
0.0232868
0.0230347
0.0224315
0.0214076
0.0199725
0.0181576
0.0159896
0.0134941
0.0106916
0.00763423
0.034319
0.0339848
0.0331852
0.0318279
0.0299246
0.0275155
0.0246346
0.0213149
0.0175763
0.0135025
0.0511399
0.0506804
0.0495811
0.0477147
0.0450945
0.0417719
0.0377888
0.0331897
0.0279929
0.0223443
0.0759212
0.0752796
0.0737476
0.0711462
0.0674829
0.0628104
0.0571632
0.0505799
0.0430416
0.0347561
0.111807
0.110922
0.108823
0.105266
0.100235
0.0937539
0.0858188
0.0764391
0.0655378
0.0534493
0.162944
0.161814
0.159144
0.154615
0.148119
0.139547
0.128712
0.1154
0.0992015
0.0802023
0.233322
0.232201
0.229554
0.224951
0.218056
0.208438
0.195529
0.178669
0.15711
0.130295
0.322848
0.32214
0.320572
0.317665
0.312635
0.304244
0.290718
0.269658
0.238423
0.193631
0.000355258
-0.00101864
-0.00243294
-0.00387387
-0.00534184
-0.00683567
-0.00835099
-0.00988265
-0.0114258
-0.0129759
0.00186115
0.000313273
-0.00127941
-0.00288949
-0.00452168
-0.00617876
-0.00785672
-0.0095494
-0.0112511
-0.0129567
0.00501241
0.00306622
0.00107642
-0.000899284
-0.00287771
-0.00487161
-0.00687826
-0.00889018
-0.0109011
-0.0129062
0.00991802
0.00724054
0.00454688
0.00193275
-0.000650459
-0.00323399
-0.00581533
-0.00838338
-0.0109305
-0.0134518
0.0172538
0.0134185
0.00964326
0.00607509
0.00260047
-0.000845694
-0.00426072
-0.007628
-0.0109396
-0.0141936
0.0270398
0.021141
0.0154784
0.0102631
0.00524344
0.000293076
-0.00457912
-0.009342
-0.0139836
-0.0185038
0.0420131
0.0329893
0.0244466
0.0168182
0.00962508
0.00260424
-0.00423882
-0.0108459
-0.0171966
-0.0232987
0.0615742
0.0459037
0.0310335
0.0181984
0.00640973
-0.00499815
-0.0160912
-0.0267821
-0.0370492
-0.0469199
0.104967
0.0790478
0.0523201
0.0295363
0.00944997
-0.00919765
-0.0264836
-0.0421979
-0.0563158
-0.0689532
0.154577
0.113492
0.0681288
0.0250421
-0.0167282
-0.0576417
-0.0970806
-0.134467
-0.16954
-0.202217
-0.0145287
-0.0160801
-0.017626
-0.0191627
-0.0206866
-0.0221944
-0.023683
-0.0251495
-0.0265923
-0.0280113
-0.0146612
-0.0163597
-0.0180476
-0.0197204
-0.0213739
-0.0230045
-0.0246086
-0.0261831
-0.0277258
-0.0292402
-0.014901
-0.016881
-0.0188421
-0.0207803
-0.022692
-0.024574
-0.0264233
-0.028237
-0.030012
-0.031758
-0.0159433
-0.0184007
-0.0208196
-0.0231964
-0.0255276
-0.0278103
-0.0300423
-0.0322212
-0.0343414
-0.0364196
-0.0173892
-0.0205253
-0.0236006
-0.0266145
-0.0295668
-0.0324572
-0.0352856
-0.0380509
-0.040742
-0.0433672
-0.0229031
-0.02718
-0.0313317
-0.035355
-0.0392465
-0.0430028
-0.0466206
-0.0500976
-0.0534151
-0.0565487
-0.0291659
-0.0348121
-0.0402533
-0.0455091
-0.0506021
-0.0555564
-0.0603959
-0.0651435
-0.0697998
-0.0742521
-0.0564178
-0.0655466
-0.074293
-0.0826314
-0.0905252
-0.0979303
-0.104804
-0.111119
-0.116873
-0.122188
-0.0802604
-0.0904001
-0.0995656
-0.107999
-0.116008
-0.123972
-0.132351
-0.141689
-0.152568
-0.166781
-0.232515
-0.260533
-0.286465
-0.310594
-0.333304
-0.355088
-0.376545
-0.398298
-0.420798
-0.444781
-0.0377551
-0.0464086
-0.0450782
-0.0370323
-0.0275764
-0.0199764
-0.0140412
-0.00910716
-0.00481692
-0.00158974
-0.0400689
-0.0484561
-0.0460643
-0.0372421
-0.0275139
-0.0198431
-0.0138451
-0.00889463
-0.00466262
-0.00155662
-0.0450583
-0.0526562
-0.0480351
-0.0376859
-0.027394
-0.0195403
-0.013422
-0.00845448
-0.00435379
-0.00148022
-0.0535651
-0.0592774
-0.0509652
-0.0383259
-0.0271756
-0.0190138
-0.0127292
-0.00776457
-0.00388188
-0.00135409
-0.0669828
-0.0687635
-0.0547819
-0.0390409
-0.026759
-0.0181811
-0.0117112
-0.00679505
-0.00323832
-0.00116417
-0.087706
-0.0819341
-0.0596371
-0.0397059
-0.0259422
-0.0168905
-0.0102921
-0.00551477
-0.00241911
-0.000882316
-0.11803
-0.0997772
-0.0663277
-0.040522
-0.0245606
-0.0149659
-0.0083952
-0.00390542
-0.00143224
-0.000462513
-0.159471
-0.121698
-0.0759239
-0.0421495
-0.0228219
-0.0124247
-0.0060379
-0.00200006
-0.000308625
0.000146522
-0.203502
-0.140872
-0.0859649
-0.0435329
-0.0206711
-0.00931301
-0.00328939
0.000126837
0.000910782
0.000976934
-0.264101
-0.150639
-0.0923979
-0.0417675
-0.0178942
-0.00572509
-0.000378117
0.00230742
0.00209689
0.00199409
-0.330842
-0.157981
-0.0955669
-0.0375247
-0.0162374
-0.00342343
0.00116537
0.00357862
0.00261926
0.00275472
-0.338466
-0.155126
-0.0940719
-0.0353558
-0.0153267
-0.00262801
0.00163546
0.00390534
0.00276394
0.00293202
-0.333319
-0.149052
-0.091106
-0.0329381
-0.0142807
-0.00184669
0.00207802
0.0041844
0.00290242
0.00307166
-0.327266
-0.144575
-0.0888228
-0.0310276
-0.0134307
-0.00118023
0.00246424
0.00443273
0.00302924
0.00319676
-0.322052
-0.141265
-0.0870208
-0.0294347
-0.0127114
-0.00059658
0.00280484
0.00465475
0.00314188
0.00330896
-0.317145
-0.138445
-0.0854255
-0.0280563
-0.0120831
-8.81776e-05
0.00309999
0.00484651
0.00323903
0.00340521
-0.312691
-0.136061
-0.0840519
-0.026915
-0.0115572
0.000333798
0.00334388
0.00500405
0.00331912
0.00348363
-0.309062
-0.134206
-0.0829736
-0.0260434
-0.0111513
0.000658357
0.0035312
0.00512467
0.00338072
0.00354335
-0.306516
-0.132939
-0.0822356
-0.0254574
-0.0108759
0.000878254
0.00365823
0.00520639
0.00342254
0.0035836
-0.305203
-0.132294
-0.0818624
-0.0251647
-0.0107377
0.000988588
0.00372238
0.00524781
0.00344388
0.00360405
)
;

boundaryField
{
    inlet
    {
        type            zeroGradient;
    }
    outlet
    {
        type            fixedValue;
        value           uniform 0;
    }
    cylinder
    {
        type            zeroGradient;
    }
    top
    {
        type            symmetryPlane;
    }
    bottom
    {
        type            symmetryPlane;
    }
    defaultFaces
    {
        type            empty;
    }
}


// ************************************************************************* //
