1.275 	2.15223e-18 	-2.76991e-20 	-0.0206424 	-0.00228688 	-2.01039e-22
1.825 	2.15223e-18 	-1.39322e-20 	0.087577 	-0.00669316 	1.2123e-21
2.375 	2.15223e-18 	-2.66896e-23 	0.344665 	-0.00770655 	-4.0932e-22
