1.45 	0 	0 	-0.00785171 	-0.00258275 	3.81122e-21
2.35 	0 	0 	0.0619174 	-0.00664989 	2.32573e-21
