1.45 	0 	0 	-0.00809694 	-0.00257094 	3.78594e-21
2.35 	0 	0 	0.0613829 	-0.00663295 	2.29038e-21
