/*--------------------------------*- C++ -*----------------------------------*\
  =========                 |
  \\      /  F ield         | OpenFOAM: The Open Source CFD Toolbox
   \\    /   O peration     | Website:  https://openfoam.org
    \\  /    A nd           | Version:  6.0
     \\/     M anipulation  |
\*---------------------------------------------------------------------------*/
FoamFile
{
    version     2.0;
    format      ascii;
    class       volVectorField;
    location    "0.1";
    object      U;
}
// * * * * * * * * * * * * * * * * * * * * * * * * * * * * * * * * * * * * * //

dimensions      [0 1 -1 0 0 0 0];

internalField   nonuniform List<vector> 
200
(
(-0.000997069 0.000923898 0)
(-0.00492877 0.00248613 0)
(-0.0112906 0.00287577 0)
(-0.0178098 0.0027952 0)
(-0.0238355 0.00261553 0)
(-0.0293255 0.00241327 0)
(-0.0342783 0.0021998 0)
(-0.0386913 0.00198034 0)
(-0.0425689 0.00175825 0)
(-0.045912 0.00153086 0)
(-0.0486979 0.00128362 0)
(-0.0508474 0.000983209 0)
(-0.052177 0.000569733 0)
(-0.0523363 -4.94477e-05 0)
(-0.050743 -0.000993736 0)
(-0.0465641 -0.00236551 0)
(-0.0388637 -0.00411983 0)
(-0.0272258 -0.00578507 0)
(-0.0134438 -0.00606909 0)
(-0.00320412 -0.0030221 0)
(-0.00299307 0.00525064 0)
(-0.0120514 0.0109424 0)
(-0.0246934 0.0121182 0)
(-0.0371595 0.0115639 0)
(-0.0483872 0.0105873 0)
(-0.0583039 0.00951537 0)
(-0.0669165 0.00842571 0)
(-0.0742667 0.00734826 0)
(-0.0804168 0.00629013 0)
(-0.0854153 0.00522808 0)
(-0.0892614 0.00409386 0)
(-0.0918603 0.00275524 0)
(-0.0929621 0.000994104 0)
(-0.0920825 -0.00150866 0)
(-0.0884135 -0.00514829 0)
(-0.0807755 -0.0102475 0)
(-0.0677617 -0.016617 0)
(-0.0485425 -0.0226121 0)
(-0.0253403 -0.023784 0)
(-0.00657252 -0.0129252 0)
(-0.00396583 0.0130793 0)
(-0.0155733 0.0243485 0)
(-0.0311573 0.026218 0)
(-0.0460272 0.024654 0)
(-0.059086 0.0222084 0)
(-0.070372 0.0195897 0)
(-0.0799633 0.0169952 0)
(-0.0879755 0.0144973 0)
(-0.0945469 0.0121056 0)
(-0.099801 0.00976453 0)
(-0.103815 0.00733399 0)
(-0.106579 0.00455978 0)
(-0.107943 0.00103273 0)
(-0.107519 -0.00385046 0)
(-0.104526 -0.0108761 0)
(-0.0975781 -0.0208015 0)
(-0.0845521 -0.0335683 0)
(-0.0632921 -0.046358 0)
(-0.0348989 -0.050409 0)
(-0.00939115 -0.0294883 0)
(-0.00468283 0.0226831 0)
(-0.0180766 0.0401761 0)
(-0.0355622 0.042351 0)
(-0.0516663 0.0392373 0)
(-0.0653841 0.0348662 0)
(-0.0769659 0.0303421 0)
(-0.0866139 0.0259746 0)
(-0.0945442 0.0218755 0)
(-0.10099 0.0180578 0)
(-0.106174 0.0144408 0)
(-0.110294 0.0108302 0)
(-0.113499 0.00687662 0)
(-0.115852 0.00200543 0)
(-0.117234 -0.00468382 0)
(-0.117104 -0.0145123 0)
(-0.113973 -0.0291155 0)
(-0.104634 -0.0494274 0)
(-0.0843428 -0.072336 0)
(-0.05104 -0.0840199 0)
(-0.0145757 -0.0531613 0)
(-0.00571189 0.0338668 0)
(-0.0212761 0.0579947 0)
(-0.0407343 0.0597894 0)
(-0.057775 0.0544369 0)
(-0.0716861 0.0476854 0)
(-0.083076 0.0409757 0)
(-0.0923211 0.0346815 0)
(-0.0997615 0.0289352 0)
(-0.105741 0.0237528 0)
(-0.110598 0.019044 0)
(-0.11467 0.0145964 0)
(-0.118307 0.0100275 0)
(-0.121879 0.00468045 0)
(-0.125728 -0.0025786 0)
(-0.129908 -0.0136914 0)
(-0.13324 -0.0317081 0)
(-0.131344 -0.0599479 0)
(-0.115597 -0.0972279 0)
(-0.0781802 -0.125501 0)
(-0.0238176 -0.0889293 0)
(-0.00752513 0.0476564 0)
(-0.0263791 0.0785708 0)
(-0.0482739 0.0786345 0)
(-0.0658746 0.0700137 0)
(-0.0792845 0.0603017 0)
(-0.0897423 0.051078 0)
(-0.0978513 0.0426894 0)
(-0.1041 0.0352593 0)
(-0.108953 0.0287999 0)
(-0.112853 0.0232202 0)
(-0.116253 0.0183268 0)
(-0.119664 0.0137893 0)
(-0.123744 0.00901592 0)
(-0.129362 0.00281849 0)
(-0.137458 -0.0073166 0)
(-0.147754 -0.0264475 0)
(-0.155273 -0.0624947 0)
(-0.147561 -0.120665 0)
(-0.109633 -0.181339 0)
(-0.0334494 -0.150737 0)
(-0.0108791 0.0662091 0)
(-0.0348874 0.102931 0)
(-0.0592653 0.098503 0)
(-0.0754559 0.0849678 0)
(-0.0859616 0.07142 0)
(-0.093191 0.0592625 0)
(-0.0980567 0.0486413 0)
(-0.101234 0.0395857 0)
(-0.1033 0.0320438 0)
(-0.104739 0.0258813 0)
(-0.105989 0.020918 0)
(-0.107529 0.0169234 0)
(-0.110011 0.0134991 0)
(-0.114464 0.00956973 0)
(-0.122478 0.00206923 0)
(-0.1352 -0.0169023 0)
(-0.149264 -0.0625194 0)
(-0.151194 -0.150685 0)
(-0.119497 -0.261297 0)
(-0.0270086 -0.257688 0)
(-0.01724 0.0922972 0)
(-0.0488899 0.131883 0)
(-0.0720731 0.115803 0)
(-0.0764282 0.0929905 0)
(-0.0749746 0.0749112 0)
(-0.0716456 0.0602807 0)
(-0.0674218 0.0482304 0)
(-0.0629405 0.0384654 0)
(-0.0586326 0.0307131 0)
(-0.0547435 0.0246916 0)
(-0.0514067 0.0201853 0)
(-0.048708 0.0170422 0)
(-0.0468531 0.0151111 0)
(-0.046331 0.0135919 0)
(-0.0487472 0.00936975 0)
(-0.0568179 -0.00753336 0)
(-0.0722399 -0.057931 0)
(-0.0839834 -0.16694 0)
(-0.0694275 -0.317999 0)
(0.0213034 -0.363111 0)
(-0.0716325 0.16224 0)
(-0.0769468 0.146364 0)
(-0.0353137 0.100375 0)
(0.00310491 0.0761376 0)
(0.0350669 0.0599212 0)
(0.0612747 0.046977 0)
(0.082847 0.0365572 0)
(0.100496 0.0284627 0)
(0.114835 0.0223157 0)
(0.126496 0.0177133 0)
(0.136035 0.0143992 0)
(0.144059 0.0122323 0)
(0.15081 0.0113213 0)
(0.156688 0.011507 0)
(0.159769 0.0119072 0)
(0.157745 0.00636689 0)
(0.141187 -0.0215929 0)
(0.118121 -0.103316 0)
(0.0897177 -0.24192 0)
(0.135953 -0.33048 0)
(0.209828 0.120317 0)
(0.257077 0.106547 0)
(0.345168 0.0774946 0)
(0.419313 0.0574457 0)
(0.47282 0.043609 0)
(0.511856 0.0331949 0)
(0.541282 0.025096 0)
(0.563796 0.018848 0)
(0.581083 0.0141241 0)
(0.594527 0.0106116 0)
(0.605031 0.00808018 0)
(0.61386 0.00629073 0)
(0.620911 0.00521604 0)
(0.628397 0.00469066 0)
(0.632126 0.00471013 0)
(0.63598 0.0043631 0)
(0.617537 0.000580576 0)
(0.586218 -0.0138716 0)
(0.472848 -0.0455509 0)
(0.375905 -0.105884 0)
)
;

boundaryField
{
    movingWall
    {
        type            fixedValue;
        value           uniform (1 0 0);
    }
    fixedWalls
    {
        type            noSlip;
    }
    frontAndBack
    {
        type            empty;
    }
}


// ************************************************************************* //
