/*--------------------------------*- C++ -*----------------------------------*\
  =========                 |
  \\      /  F ield         | OpenFOAM: The Open Source CFD Toolbox
   \\    /   O peration     | Website:  https://openfoam.org
    \\  /    A nd           | Version:  6.0
     \\/     M anipulation  |
\*---------------------------------------------------------------------------*/
FoamFile
{
    version     2.0;
    format      ascii;
    class       volScalarField;
    location    "67";
    object      p;
}
// * * * * * * * * * * * * * * * * * * * * * * * * * * * * * * * * * * * * * //

dimensions      [0 2 -2 0 0 0 0];

internalField   nonuniform List<scalar> 
2000
(
-0.348042
-0.353948
-0.355636
-0.354967
-0.353108
-0.350431
-0.347215
-0.343754
-0.340334
-0.336638
-0.350759
-0.356246
-0.357594
-0.356624
-0.354476
-0.351525
-0.348046
-0.344324
-0.34065
-0.336834
-0.356215
-0.360843
-0.3615
-0.35992
-0.357191
-0.353684
-0.349671
-0.345412
-0.341209
-0.337149
-0.364449
-0.367737
-0.367332
-0.364826
-0.361216
-0.356863
-0.352026
-0.346923
-0.341872
-0.337423
-0.375521
-0.376927
-0.375061
-0.371303
-0.366508
-0.361013
-0.355044
-0.348743
-0.342443
-0.3374
-0.389496
-0.388398
-0.384646
-0.379309
-0.373036
-0.366109
-0.358692
-0.350787
-0.342711
-0.336751
-0.406407
-0.402107
-0.396028
-0.388805
-0.380793
-0.372194
-0.363064
-0.353173
-0.342674
-0.335218
-0.426198
-0.417957
-0.409115
-0.399729
-0.389766
-0.37931
-0.368275
-0.356033
-0.34209
-0.331647
-0.448658
-0.435773
-0.423792
-0.412039
-0.399994
-0.38755
-0.37431
-0.358749
-0.338664
-0.321353
-0.473351
-0.455291
-0.439959
-0.425885
-0.412099
-0.398403
-0.384039
-0.366374
-0.341334
-0.317357
-0.499591
-0.476087
-0.457348
-0.441177
-0.426449
-0.413537
-0.402782
-0.394826
-0.394963
-0.414496
-0.526554
-0.497581
-0.47534
-0.456809
-0.440472
-0.42679
-0.416237
-0.409873
-0.412829
-0.4301
-0.553518
-0.519316
-0.493663
-0.472661
-0.454296
-0.438935
-0.426941
-0.419036
-0.418328
-0.426146
-0.579832
-0.54082
-0.512004
-0.48856
-0.467923
-0.45028
-0.435788
-0.424703
-0.418501
-0.417164
-0.604749
-0.561427
-0.529739
-0.503862
-0.480649
-0.460084
-0.442126
-0.426651
-0.414081
-0.404454
-0.62728
-0.580201
-0.545924
-0.517562
-0.491418
-0.467345
-0.445219
-0.424729
-0.405708
-0.38892
-0.646139
-0.595934
-0.559328
-0.528374
-0.498943
-0.470892
-0.444184
-0.418513
-0.393461
-0.370808
-0.659769
-0.60717
-0.56849
-0.534817
-0.501794
-0.469467
-0.438054
-0.4074
-0.377054
-0.349879
-0.666406
-0.61227
-0.571788
-0.535298
-0.498496
-0.461816
-0.425865
-0.390724
-0.356023
-0.325636
-0.664184
-0.609496
-0.567526
-0.528204
-0.487617
-0.446766
-0.406732
-0.367848
-0.329855
-0.297489
-0.651247
-0.597104
-0.554035
-0.512008
-0.467865
-0.423313
-0.379926
-0.338246
-0.298101
-0.264905
-0.625861
-0.573455
-0.529779
-0.485371
-0.438183
-0.390697
-0.34494
-0.301581
-0.260473
-0.227512
-0.586552
-0.537141
-0.493479
-0.447255
-0.397833
-0.348471
-0.301548
-0.257759
-0.216908
-0.185176
-0.532223
-0.487102
-0.444225
-0.397009
-0.346459
-0.296534
-0.24983
-0.20696
-0.16761
-0.138037
-0.462271
-0.422741
-0.381568
-0.334435
-0.284118
-0.235138
-0.190163
-0.149636
-0.113054
-0.0865224
-0.376695
-0.344022
-0.305602
-0.259826
-0.21127
-0.164844
-0.123146
-0.0864026
-0.0538762
-0.0312559
-0.276182
-0.251551
-0.217007
-0.173978
-0.128773
-0.086494
-0.0495527
-0.0179608
0.00920267
0.0269355
-0.162171
-0.146615
-0.117069
-0.0781835
-0.0378622
-0.00122887
0.0295613
0.0545718
0.0746411
0.086022
-0.0368727
-0.0311868
-0.00763796
0.0258865
0.0600772
0.0898987
0.113337
0.129982
0.139916
0.142287
0.0967573
0.0920914
0.108873
0.136202
0.163723
0.186713
0.2032
0.211567
0.210533
0.203804
0.235144
0.219954
0.22936
0.249868
0.270618
0.287731
0.299936
0.305417
0.30437
0.318288
0.374391
0.348756
0.350212
0.363031
0.376051
0.386025
0.392078
0.39332
0.392242
0.405166
0.510555
0.474826
0.468018
0.47257
0.477223
0.479302
0.478239
0.473618
0.467925
0.473028
0.639791
0.594554
0.579489
0.575587
0.571688
0.5657
0.557364
0.54653
0.535272
0.53243
0.758435
0.704502
0.681529
0.66942
0.657255
0.643506
0.628195
0.611358
0.594688
0.584741
0.863103
0.801502
0.77132
0.751676
0.731968
0.711191
0.689604
0.667392
0.645877
0.629721
0.950778
0.882747
0.846375
0.820239
0.794077
0.767327
0.740448
0.713737
0.688162
0.666804
1.01891
0.945869
0.904599
0.873324
0.842078
0.810652
0.779656
0.749469
0.720748
0.695333
1.06548
0.989016
0.944357
0.909526
0.874777
0.840141
0.806333
0.773782
0.742917
0.714717
1.08912
1.01091
0.964523
0.927874
0.89134
0.855073
0.819838
0.786093
0.754141
0.724522
1.08912
1.01091
0.964523
0.927874
0.89134
0.855073
0.819838
0.786093
0.754141
0.724522
1.06548
0.989016
0.944358
0.909526
0.874777
0.840141
0.806333
0.773782
0.742917
0.714717
1.01891
0.945869
0.904599
0.873324
0.842078
0.810652
0.779656
0.749469
0.720748
0.695333
0.950778
0.882747
0.846375
0.820239
0.794077
0.767327
0.740448
0.713737
0.688162
0.666804
0.863103
0.801502
0.77132
0.751676
0.731968
0.711191
0.689604
0.667392
0.645877
0.629721
0.758435
0.704502
0.681529
0.669421
0.657255
0.643507
0.628195
0.611358
0.594688
0.584741
0.639791
0.594554
0.579489
0.575587
0.571689
0.5657
0.557364
0.54653
0.535272
0.53243
0.510556
0.474826
0.468018
0.47257
0.477224
0.479302
0.478239
0.473618
0.467925
0.473029
0.374391
0.348757
0.350212
0.363031
0.376051
0.386025
0.392078
0.39332
0.392242
0.405166
0.235144
0.219955
0.22936
0.249868
0.270618
0.287731
0.299936
0.305417
0.304371
0.318289
0.0967575
0.0920916
0.108873
0.136202
0.163723
0.186713
0.2032
0.211567
0.210533
0.203804
-0.0368725
-0.0311866
-0.00763777
0.0258867
0.0600773
0.0898988
0.113337
0.129982
0.139916
0.142287
-0.162171
-0.146615
-0.117069
-0.0781833
-0.0378621
-0.00122872
0.0295615
0.0545719
0.0746412
0.0860221
-0.276181
-0.251551
-0.217007
-0.173978
-0.128773
-0.0864938
-0.0495525
-0.0179606
0.00920279
0.0269357
-0.376695
-0.344022
-0.305601
-0.259825
-0.21127
-0.164844
-0.123146
-0.0864025
-0.053876
-0.0312558
-0.462271
-0.422741
-0.381568
-0.334435
-0.284118
-0.235138
-0.190163
-0.149636
-0.113054
-0.0865222
-0.532223
-0.487102
-0.444225
-0.397008
-0.346459
-0.296534
-0.24983
-0.20696
-0.16761
-0.138037
-0.586552
-0.537141
-0.493479
-0.447255
-0.397833
-0.348471
-0.301548
-0.257759
-0.216908
-0.185176
-0.62586
-0.573455
-0.529779
-0.485371
-0.438183
-0.390697
-0.34494
-0.301581
-0.260473
-0.227512
-0.651247
-0.597104
-0.554035
-0.512008
-0.467865
-0.423313
-0.379926
-0.338246
-0.298101
-0.264905
-0.664183
-0.609496
-0.567526
-0.528204
-0.487616
-0.446766
-0.406732
-0.367848
-0.329855
-0.297489
-0.666406
-0.61227
-0.571787
-0.535298
-0.498495
-0.461816
-0.425865
-0.390724
-0.356023
-0.325636
-0.659769
-0.60717
-0.56849
-0.534817
-0.501794
-0.469467
-0.438054
-0.4074
-0.377054
-0.349879
-0.646139
-0.595934
-0.559328
-0.528374
-0.498943
-0.470892
-0.444184
-0.418513
-0.393461
-0.370808
-0.62728
-0.580201
-0.545924
-0.517562
-0.491418
-0.467345
-0.445219
-0.424729
-0.405708
-0.38892
-0.604749
-0.561427
-0.529739
-0.503862
-0.480649
-0.460084
-0.442126
-0.426651
-0.414081
-0.404454
-0.579832
-0.54082
-0.512004
-0.48856
-0.467923
-0.45028
-0.435788
-0.424703
-0.418501
-0.417164
-0.553518
-0.519316
-0.493663
-0.472661
-0.454296
-0.438935
-0.426941
-0.419036
-0.418328
-0.426146
-0.526554
-0.497581
-0.47534
-0.456809
-0.440472
-0.42679
-0.416237
-0.409873
-0.412829
-0.4301
-0.499591
-0.476087
-0.457348
-0.441178
-0.426449
-0.413537
-0.402783
-0.394826
-0.394963
-0.414496
-0.473351
-0.455291
-0.439959
-0.425885
-0.412099
-0.398403
-0.384039
-0.366374
-0.341334
-0.317358
-0.448658
-0.435773
-0.423792
-0.412039
-0.399994
-0.38755
-0.37431
-0.358749
-0.338664
-0.321353
-0.426198
-0.417957
-0.409115
-0.399729
-0.389766
-0.37931
-0.368275
-0.356033
-0.34209
-0.331648
-0.406407
-0.402107
-0.396028
-0.388805
-0.380793
-0.372194
-0.363064
-0.353173
-0.342674
-0.335218
-0.389496
-0.388398
-0.384646
-0.37931
-0.373036
-0.366109
-0.358692
-0.350787
-0.342711
-0.336751
-0.375521
-0.376927
-0.375061
-0.371303
-0.366508
-0.361013
-0.355044
-0.348743
-0.342443
-0.3374
-0.364449
-0.367737
-0.367332
-0.364826
-0.361216
-0.356863
-0.352026
-0.346923
-0.341872
-0.337423
-0.356215
-0.360843
-0.3615
-0.35992
-0.357191
-0.353684
-0.349671
-0.345412
-0.341209
-0.337149
-0.350759
-0.356246
-0.357594
-0.356624
-0.354476
-0.351525
-0.348046
-0.344324
-0.34065
-0.336834
-0.348042
-0.353948
-0.355636
-0.354967
-0.353108
-0.350431
-0.347215
-0.343754
-0.340334
-0.336638
-0.290428
-0.126294
-0.0812217
-0.0303208
-0.0192159
-0.00778232
-0.00434265
-0.000872471
-0.000455546
0.00217195
-0.291659
-0.126842
-0.0814922
-0.0305194
-0.0192837
-0.00784202
-0.00437216
-0.000893261
-0.000464681
0.00215607
-0.29405
-0.127923
-0.0820276
-0.0309177
-0.0194193
-0.00796115
-0.00443125
-0.000934714
-0.000482881
0.00212449
-0.297461
-0.129514
-0.0828167
-0.0315178
-0.0196222
-0.00813928
-0.00451971
-0.000996755
-0.000509971
0.00207757
-0.301647
-0.13157
-0.0838333
-0.0323179
-0.0198905
-0.00837504
-0.00463705
-0.00107919
-0.00054567
0.00201574
-0.30625
-0.134016
-0.085028
-0.0333044
-0.0202183
-0.00866485
-0.00478201
-0.00118148
-0.000589622
0.00193966
-0.311143
-0.136921
-0.0864061
-0.0344725
-0.0206063
-0.00900597
-0.00495409
-0.00130268
-0.000642027
0.00185088
-0.316845
-0.140937
-0.0882305
-0.0359229
-0.0210977
-0.00941183
-0.00515931
-0.00144311
-0.000704424
0.00175221
-0.321622
-0.146442
-0.0906795
-0.0378207
-0.0217433
-0.0099095
-0.00540684
-0.00160816
-0.000775226
0.00164106
-0.313817
-0.148817
-0.0917905
-0.0395221
-0.0222456
-0.0104014
-0.00565153
-0.00179909
-0.000834896
0.00149448
-0.247286
-0.140718
-0.0881703
-0.042777
-0.022744
-0.0117331
-0.00636805
-0.0025388
-0.00100062
0.000841262
-0.189192
-0.131709
-0.0821683
-0.0442357
-0.0244774
-0.0141256
-0.00821711
-0.00402244
-0.00176234
-8.77752e-07
-0.147776
-0.11385
-0.0727396
-0.0428054
-0.0259033
-0.0163319
-0.0101525
-0.00561415
-0.00269707
-0.000680963
-0.108184
-0.0929487
-0.0633197
-0.0408366
-0.0269531
-0.0181273
-0.0118275
-0.00704938
-0.0035881
-0.00115209
-0.0789461
-0.0756761
-0.0565194
-0.0395816
-0.0277775
-0.0194729
-0.0131401
-0.00820354
-0.00433561
-0.0014507
-0.0588547
-0.0628289
-0.0515593
-0.0385821
-0.0281889
-0.0203201
-0.0140671
-0.00905798
-0.00491397
-0.00164433
-0.0458294
-0.0535678
-0.0476975
-0.037612
-0.0282771
-0.0208016
-0.0146909
-0.00966623
-0.00534258
-0.00178099
-0.0375852
-0.0471085
-0.0447354
-0.036759
-0.0282323
-0.0210713
-0.0150992
-0.0100832
-0.00564531
-0.0018798
-0.0327634
-0.0430077
-0.0427279
-0.036156
-0.0281761
-0.0212178
-0.0153441
-0.0103426
-0.00583827
-0.00194439
-0.0305329
-0.0410062
-0.0417169
-0.0358591
-0.0281523
-0.0212827
-0.0154573
-0.0104646
-0.00593263
-0.00197465
-0.218585
-0.246482
-0.272261
-0.296205
-0.318699
-0.340248
-0.361473
-0.383017
-0.405383
-0.429225
-0.0679399
-0.0780825
-0.0872471
-0.0956771
-0.10368
-0.111635
-0.120001
-0.129318
-0.140164
-0.154331
-0.045169
-0.0543508
-0.063147
-0.0715309
-0.079465
-0.0869044
-0.0938056
-0.100142
-0.10591
-0.111231
-0.0187459
-0.0244659
-0.0299796
-0.0353059
-0.0404667
-0.0454853
-0.0503849
-0.0551874
-0.059893
-0.064381
-0.0130368
-0.0173927
-0.021624
-0.0257273
-0.0296987
-0.0335342
-0.0372303
-0.0407841
-0.0441759
-0.0473743
-0.00798246
-0.0111998
-0.0143577
-0.0174553
-0.020492
-0.0234672
-0.0263804
-0.0292303
-0.0320051
-0.0347084
-0.00685893
-0.00939585
-0.0118965
-0.0143567
-0.0167731
-0.0191425
-0.0214624
-0.0237302
-0.0259399
-0.0281049
-0.006058
-0.00811593
-0.0101573
-0.0121782
-0.0141746
-0.0161434
-0.0180812
-0.0199853
-0.0218521
-0.023689
-0.00597043
-0.00774513
-0.00951191
-0.0112663
-0.013004
-0.0147212
-0.0164143
-0.0180801
-0.0197166
-0.021325
-0.00591446
-0.00754045
-0.00916384
-0.0107809
-0.012388
-0.013982
-0.0155595
-0.0171179
-0.0186556
-0.0201709
0.168015
0.127028
0.0816796
0.0386104
-0.00312799
-0.0440071
-0.0834103
-0.120755
-0.155774
-0.188381
0.117545
0.0916303
0.0648384
0.0419996
0.0218794
0.00320563
-0.0141048
-0.0298408
-0.0439759
-0.0566254
0.0734249
0.0577269
0.0427739
0.0298618
0.0180104
0.00654376
-0.0046092
-0.0153605
-0.025687
-0.0356154
0.053169
0.044096
0.035467
0.0277565
0.0204902
0.0133976
0.006481
-0.000200938
-0.00662692
-0.0128041
0.0376323
0.0316809
0.0259407
0.0206501
0.0155597
0.0105387
0.00559363
0.000755977
-0.00396178
-0.00855922
0.0273707
0.0234818
0.0196365
0.0159987
0.0124562
0.00894081
0.00545406
0.00201265
-0.00137507
-0.0047071
0.0196681
0.0169397
0.0141844
0.0115078
0.00886177
0.00621341
0.00356449
0.000926212
-0.00169358
-0.00429004
0.0144877
0.0124926
0.0104473
0.00841422
0.00637674
0.00432124
0.00225012
0.00017089
-0.00191009
-0.00398789
0.0111571
0.00956215
0.00791821
0.00625448
0.00456618
0.00285019
0.00111039
-0.000647077
-0.00241645
-0.00419257
0.00956097
0.00814035
0.00667639
0.00518334
0.00366057
0.00210914
0.000533388
-0.00106153
-0.00267077
-0.00428985
0.33543
0.33473
0.33318
0.330306
0.325322
0.316991
0.303541
0.28258
0.251473
0.206856
0.245532
0.244416
0.24178
0.237195
0.230325
0.22074
0.207868
0.191053
0.169545
0.14279
0.174701
0.173572
0.170905
0.16638
0.15989
0.151327
0.1405
0.127197
0.111008
0.0920218
0.123091
0.122206
0.120103
0.116541
0.111501
0.10501
0.0970602
0.0876619
0.0767371
0.0646208
0.0867575
0.086113
0.0845741
0.081961
0.078281
0.0735866
0.0679119
0.061295
0.0537163
0.0453845
0.0615784
0.061115
0.0600064
0.0581243
0.0554818
0.0521301
0.048111
0.0434683
0.0382197
0.0325115
0.0444271
0.0440885
0.0432784
0.0419031
0.0399744
0.0375324
0.0346109
0.0312427
0.0274471
0.0233083
0.0331415
0.0328848
0.0322702
0.0312271
0.0297649
0.0279148
0.0257038
0.0231569
0.0202945
0.0171686
0.0263058
0.0260973
0.0255986
0.0247522
0.0235655
0.0220635
0.0202676
0.0181965
0.0158681
0.0133138
0.0230854
0.0228989
0.0224537
0.0216986
0.0206398
0.0192993
0.0176959
0.0158458
0.0137658
0.0114787
0.485404
0.487157
0.49349
0.504636
0.520487
0.541347
0.567682
0.600014
0.638881
0.684529
0.483163
0.48489
0.491143
0.502133
0.517736
0.538218
0.563988
0.595482
0.633102
0.676936
0.478732
0.480414
0.486514
0.497201
0.512318
0.53206
0.556719
0.58656
0.62171
0.66196
0.472212
0.473839
0.479729
0.489985
0.504401
0.523067
0.546104
0.573522
0.605029
0.640006
0.463742
0.465319
0.47096
0.480679
0.49421
0.511506
0.532466
0.556756
0.583523
0.611662
0.453489
0.455038
0.460412
0.469513
0.482004
0.497677
0.516164
0.53671
0.557762
0.577662
0.44165
0.443239
0.448366
0.456805
0.468145
0.481991
0.497669
0.513925
0.528424
0.538875
0.428431
0.430247
0.435262
0.443111
0.453326
0.465295
0.477964
0.489445
0.496509
0.496093
0.413902
0.416193
0.421288
0.428673
0.437869
0.448042
0.457692
0.464103
0.462892
0.448813
0.3977
0.400135
0.404802
0.411059
0.418439
0.425989
0.431937
0.433061
0.424595
0.396892
0.3977
0.400135
0.404802
0.411059
0.418439
0.42599
0.431938
0.433061
0.424595
0.396892
0.413902
0.416194
0.421288
0.428673
0.437869
0.448042
0.457692
0.464103
0.462892
0.448813
0.428431
0.430247
0.435262
0.443111
0.453326
0.465295
0.477965
0.489445
0.496509
0.496093
0.44165
0.443239
0.448366
0.456805
0.468145
0.481991
0.497669
0.513925
0.528424
0.538875
0.453489
0.455038
0.460412
0.469513
0.482004
0.497677
0.516165
0.53671
0.557762
0.577662
0.463742
0.465319
0.47096
0.480679
0.49421
0.511506
0.532466
0.556756
0.583523
0.611662
0.472212
0.473839
0.479729
0.489985
0.504401
0.523067
0.546104
0.573522
0.605029
0.640006
0.478732
0.480414
0.486514
0.497201
0.512318
0.53206
0.556719
0.58656
0.62171
0.66196
0.483163
0.48489
0.491143
0.502133
0.517736
0.538218
0.563988
0.595482
0.633102
0.676936
0.485404
0.487157
0.49349
0.504636
0.520487
0.541347
0.567682
0.600014
0.638881
0.684529
0.0230855
0.022899
0.0224537
0.0216987
0.0206399
0.0192994
0.017696
0.0158459
0.0137659
0.0114787
0.0263059
0.0260974
0.0255987
0.0247523
0.0235655
0.0220636
0.0202677
0.0181966
0.0158682
0.0133139
0.0331416
0.0328848
0.0322703
0.0312272
0.029765
0.0279149
0.0257039
0.023157
0.0202946
0.0171687
0.0444272
0.0440886
0.0432785
0.0419032
0.0399744
0.0375325
0.034611
0.0312428
0.0274472
0.0233084
0.0615785
0.0611151
0.0600065
0.0581244
0.0554819
0.0521302
0.048111
0.0434684
0.0382198
0.0325116
0.0867576
0.0861131
0.0845741
0.0819611
0.0782811
0.0735867
0.067912
0.0612951
0.0537164
0.0453846
0.123091
0.122206
0.120103
0.116541
0.111501
0.10501
0.0970603
0.087662
0.0767372
0.0646209
0.174701
0.173572
0.170905
0.166381
0.159891
0.151327
0.1405
0.127197
0.111009
0.0920219
0.245532
0.244416
0.24178
0.237195
0.230325
0.22074
0.207868
0.191053
0.169545
0.142791
0.33543
0.33473
0.33318
0.330306
0.325322
0.316991
0.303541
0.28258
0.251473
0.206856
0.00956105
0.00814042
0.00667646
0.0051834
0.00366063
0.0021092
0.000533445
-0.00106147
-0.00267071
-0.00428979
0.0111572
0.00956222
0.00791827
0.00625454
0.00456624
0.00285025
0.00111045
-0.00064702
-0.0024164
-0.00419252
0.0144878
0.0124927
0.0104474
0.00841429
0.0063768
0.0043213
0.00225018
0.000170947
-0.00191003
-0.00398784
0.0196682
0.0169397
0.0141845
0.0115079
0.00886184
0.00621347
0.00356455
0.00092627
-0.00169352
-0.00428998
0.0273708
0.0234818
0.0196365
0.0159988
0.0124562
0.00894087
0.00545412
0.00201271
-0.00137501
-0.00470705
0.0376323
0.031681
0.0259408
0.0206501
0.0155598
0.0105387
0.0055937
0.000756038
-0.00396172
-0.00855916
0.0531691
0.0440961
0.0354671
0.0277566
0.0204903
0.0133977
0.00648107
-0.000200877
-0.00662686
-0.012804
0.073425
0.057727
0.042774
0.0298618
0.0180105
0.00654383
-0.00460914
-0.0153605
-0.025687
-0.0356153
0.117545
0.0916303
0.0648385
0.0419996
0.0218795
0.00320569
-0.0141047
-0.0298407
-0.0439759
-0.0566253
0.168015
0.127028
0.0816797
0.0386105
-0.00312791
-0.044007
-0.0834103
-0.120755
-0.155774
-0.188381
-0.00591441
-0.0075404
-0.0091638
-0.0107808
-0.012388
-0.0139819
-0.0155595
-0.0171179
-0.0186556
-0.0201709
-0.00597038
-0.00774509
-0.00951187
-0.0112662
-0.0130039
-0.0147211
-0.0164143
-0.0180801
-0.0197166
-0.021325
-0.00605795
-0.00811588
-0.0101573
-0.0121781
-0.0141746
-0.0161433
-0.0180812
-0.0199852
-0.021852
-0.0236889
-0.00685888
-0.0093958
-0.0118964
-0.0143567
-0.0167731
-0.0191425
-0.0214623
-0.0237301
-0.0259399
-0.0281049
-0.00798241
-0.0111997
-0.0143577
-0.0174553
-0.0204919
-0.0234671
-0.0263804
-0.0292303
-0.0320051
-0.0347084
-0.0130367
-0.0173926
-0.021624
-0.0257272
-0.0296986
-0.0335342
-0.0372303
-0.0407841
-0.0441759
-0.0473743
-0.0187458
-0.0244659
-0.0299796
-0.0353059
-0.0404667
-0.0454853
-0.0503848
-0.0551874
-0.059893
-0.0643809
-0.0451689
-0.0543508
-0.063147
-0.0715309
-0.0794649
-0.0869043
-0.0938056
-0.100142
-0.10591
-0.111231
-0.0679398
-0.0780824
-0.0872471
-0.0956771
-0.10368
-0.111635
-0.120001
-0.129318
-0.140164
-0.154331
-0.218585
-0.246482
-0.272261
-0.296205
-0.318699
-0.340248
-0.361473
-0.383017
-0.405383
-0.429225
-0.0305329
-0.0410062
-0.0417169
-0.0358591
-0.0281524
-0.0212828
-0.0154573
-0.0104646
-0.00593261
-0.00197461
-0.0327634
-0.0430077
-0.0427279
-0.0361561
-0.0281762
-0.0212179
-0.0153442
-0.0103426
-0.00583824
-0.00194434
-0.0375851
-0.0471085
-0.0447354
-0.0367591
-0.0282324
-0.0210715
-0.0150993
-0.0100832
-0.00564526
-0.00187974
-0.0458294
-0.0535678
-0.0476975
-0.0376121
-0.0282772
-0.0208017
-0.014691
-0.00966622
-0.0053425
-0.00178091
-0.0588546
-0.0628289
-0.0515593
-0.0385822
-0.0281891
-0.0203203
-0.0140672
-0.00905795
-0.00491385
-0.00164421
-0.078946
-0.0756761
-0.0565194
-0.0395817
-0.0277778
-0.0194731
-0.0131402
-0.00820349
-0.0043354
-0.00145053
-0.108183
-0.0929486
-0.0633197
-0.0408367
-0.0269535
-0.0181276
-0.0118277
-0.0070493
-0.00358776
-0.00115185
-0.147776
-0.11385
-0.0727395
-0.0428055
-0.0259037
-0.0163323
-0.0101527
-0.00561402
-0.00269656
-0.000680632
-0.189192
-0.131709
-0.0821681
-0.0442359
-0.024478
-0.0141261
-0.00821741
-0.00402226
-0.00176164
-4.51673e-07
-0.247286
-0.140718
-0.08817
-0.0427771
-0.0227447
-0.0117337
-0.00636848
-0.0025386
-0.000999786
0.000841753
-0.313817
-0.148817
-0.0917901
-0.0395223
-0.0222462
-0.0104019
-0.005652
-0.00179888
-0.000834088
0.00149492
-0.321622
-0.146441
-0.0906791
-0.0378209
-0.0217439
-0.00990995
-0.0054073
-0.00160794
-0.000774468
0.00164147
-0.316845
-0.140936
-0.0882302
-0.035923
-0.0210983
-0.00941222
-0.00515974
-0.0014429
-0.000703755
0.00175257
-0.311143
-0.136921
-0.0864059
-0.0344726
-0.0206068
-0.00900629
-0.00495449
-0.00130247
-0.000641452
0.00185119
-0.30625
-0.134016
-0.0850277
-0.0333045
-0.0202187
-0.00866511
-0.00478239
-0.00118128
-0.000589142
0.00193992
-0.301647
-0.13157
-0.0838331
-0.032318
-0.0198909
-0.00837523
-0.00463739
-0.001079
-0.000545288
0.00201596
-0.297461
-0.129514
-0.0828165
-0.0315179
-0.0196225
-0.0081394
-0.00452003
-0.000996584
-0.000509689
0.00207774
-0.29405
-0.127923
-0.0820275
-0.0309177
-0.0194195
-0.00796119
-0.00443153
-0.000934565
-0.000482698
0.00212461
-0.291659
-0.126842
-0.0814921
-0.0305194
-0.0192839
-0.00784201
-0.00437238
-0.000893144
-0.000464593
0.00215613
-0.290428
-0.126294
-0.0812216
-0.0303208
-0.019216
-0.0077823
-0.00434274
-0.000872423
-0.000455526
0.00217197
)
;

boundaryField
{
    inlet
    {
        type            zeroGradient;
    }
    outlet
    {
        type            fixedValue;
        value           uniform 0;
    }
    cylinder
    {
        type            zeroGradient;
    }
    top
    {
        type            symmetryPlane;
    }
    bottom
    {
        type            symmetryPlane;
    }
    defaultFaces
    {
        type            empty;
    }
}


// ************************************************************************* //
