1.275 	2.15223e-18 	-2.76991e-20 	-0.316074
1.825 	2.15223e-18 	-1.39322e-20 	-0.20226
2.375 	2.15223e-18 	-2.66896e-23 	-0.17232
