/*--------------------------------*- C++ -*----------------------------------*\
  =========                 |
  \\      /  F ield         | OpenFOAM: The Open Source CFD Toolbox
   \\    /   O peration     | Website:  https://openfoam.org
    \\  /    A nd           | Version:  6.0
     \\/     M anipulation  |
\*---------------------------------------------------------------------------*/
FoamFile
{
    version     2.0;
    format      ascii;
    class       volVectorField;
    location    "186";
    object      U;
}
// * * * * * * * * * * * * * * * * * * * * * * * * * * * * * * * * * * * * * //

dimensions      [0 1 -1 0 0 0 0];

internalField   nonuniform List<vector> 
34500
(
(0.999996 8.57581e-06 -4.63259e-17)
(0.99997 -4.05873e-06 -8.13456e-18)
(0.99992 -2.86679e-05 1.42209e-16)
(0.999852 -7.21243e-05 -1.07655e-16)
(0.999775 -0.00013859 3.35524e-17)
(0.999699 -0.000228102 -1.01475e-16)
(0.999635 -0.000337225 -1.00994e-16)
(0.99959 -0.000460784 8.65644e-17)
(0.99957 -0.00059228 1.07261e-16)
(0.999576 -0.000728409 -6.83133e-16)
(0.999607 -0.000862726 -1.04042e-15)
(0.999657 -0.00101761 1.26853e-16)
(0.999727 -0.00115804 4.34226e-16)
(0.999991 -0.00151568 -2.07534e-16)
(0.996373 -0.00357068 7.73654e-17)
(0.999992 2.60537e-05 3.24432e-17)
(0.999944 -3.34866e-06 9.76247e-17)
(0.999854 -5.49241e-05 7.17473e-17)
(0.999733 -0.000140421 -3.02175e-16)
(0.999598 -0.000267123 -5.05854e-16)
(0.999466 -0.000433474 -5.50406e-17)
(0.999358 -0.000632492 2.55525e-16)
(0.999285 -0.000854436 -6.77303e-16)
(0.999258 -0.00108709 -1.78644e-16)
(0.999278 -0.00132407 6.81483e-16)
(0.999344 -0.00155052 1.26219e-15)
(0.999449 -0.0018049 -6.29203e-16)
(0.999544 -0.00201586 -9.8449e-16)
(1.0002 -0.00248403 -3.95338e-16)
(0.996253 -0.004601 5.27041e-16)
(0.999989 4.29876e-05 1.04665e-17)
(0.999947 1.27168e-06 -1.22901e-16)
(0.99987 -6.03073e-05 -1.25151e-16)
(0.999768 -0.000150847 4.55615e-16)
(0.999656 -0.000276732 -2.86096e-17)
(0.999549 -0.000434617 -1.64004e-16)
(0.999464 -0.000617271 9.78132e-17)
(0.999413 -0.000815788 3.84578e-16)
(0.999402 -0.00101901 2.44255e-19)
(0.999432 -0.00122228 -3.92925e-16)
(0.999501 -0.00141011 -7.27951e-16)
(0.999613 -0.00161894 4.13662e-16)
(0.999643 -0.00178915 2.24842e-16)
(1.00038 -0.00211948 1.64639e-16)
(0.99773 -0.00320454 -2.46936e-16)
(0.999985 5.90519e-05 -1.73528e-17)
(0.99995 4.22085e-06 -9.02251e-18)
(0.999889 -6.75547e-05 4.83146e-17)
(0.999809 -0.000162189 -3.05346e-16)
(0.999723 -0.00028526 3.7218e-16)
(0.999642 -0.000432385 3.29893e-16)
(0.999582 -0.000596864 -3.99424e-16)
(0.999549 -0.000771475 -4.19858e-16)
(0.999551 -0.000946906 4.34911e-16)
(0.999587 -0.00112137 -4.70425e-16)
(0.999652 -0.00128128 -2.44372e-16)
(0.999762 -0.00146241 -3.85278e-16)
(0.99973 -0.00163067 5.42362e-16)
(1.00039 -0.00189409 -4.80836e-17)
(0.998539 -0.00277329 2.1697e-17)
(0.99998 7.47181e-05 -1.70416e-17)
(0.999945 5.40476e-06 1.53297e-16)
(0.999887 -8.08975e-05 6.95456e-17)
(0.999813 -0.000188384 1.69733e-16)
(0.999734 -0.000322709 4.67396e-17)
(0.999661 -0.000478887 -1.58225e-16)
(0.999608 -0.000650261 1.02512e-16)
(0.999583 -0.000830069 2.66271e-16)
(0.999591 -0.00100905 -4.17624e-16)
(0.999634 -0.0011866 -2.30949e-16)
(0.999702 -0.00134938 1.00637e-15)
(0.999823 -0.00153304 6.34162e-16)
(0.999767 -0.00172052 -2.8974e-16)
(1.0003 -0.00195815 5.9314e-16)
(0.998929 -0.00276482 -5.92997e-16)
(0.999972 9.03253e-05 1.835e-17)
(0.999936 6.33762e-06 -9.47989e-17)
(0.999878 -9.55391e-05 -1.86317e-16)
(0.999806 -0.0002181 -5.29307e-17)
(0.999729 -0.000367072 1.09419e-16)
(0.999659 -0.000536891 -1.08831e-16)
(0.999611 -0.000720723 1.48161e-16)
(0.999591 -0.000911633 1.31179e-16)
(0.999607 -0.00109963 2.9099e-16)
(0.999659 -0.00128401 -1.00248e-16)
(0.999734 -0.00145055 2.88133e-18)
(0.999871 -0.00163179 -3.89262e-16)
(0.999816 -0.00182244 1.8321e-17)
(1.00022 -0.00201955 -4.69671e-16)
(0.999195 -0.00262817 7.48039e-17)
(0.999964 0.000105935 3.2551e-18)
(0.999927 7.5297e-06 -3.55834e-17)
(0.999871 -0.000109071 -2.90161e-17)
(0.999803 -0.000244926 1.75725e-16)
(0.999733 -0.00040543 -2.20438e-16)
(0.999671 -0.000584445 2.75439e-16)
(0.999631 -0.000775168 -6.19214e-16)
(0.999621 -0.000970692 -3.69836e-16)
(0.999645 -0.00116072 -1.51594e-16)
(0.999707 -0.00134429 6.71348e-16)
(0.999789 -0.00150689 -7.68328e-16)
(0.999938 -0.00167615 2.98119e-16)
(0.999894 -0.00185919 4.56498e-16)
(1.00019 -0.00201191 -9.6059e-17)
(0.999389 -0.00245732 -1.21744e-16)
(0.999955 0.000121559 1.51146e-17)
(0.999917 8.81433e-06 3.22824e-17)
(0.999865 -0.000122013 2.50256e-17)
(0.999803 -0.000270134 -1.50853e-16)
(0.999742 -0.000440351 3.28845e-16)
(0.999691 -0.000626005 -1.39585e-16)
(0.999661 -0.000820497 2.01539e-16)
(0.999662 -0.00101722 -1.46271e-16)
(0.999696 -0.00120604 3.97586e-16)
(0.999767 -0.00138597 1.7777e-16)
(0.999854 -0.00154295 2.44801e-16)
(1.00001 -0.0016997 -5.6533e-17)
(0.999983 -0.00187548 -5.05052e-16)
(1.00019 -0.00199517 1.14093e-15)
(0.999543 -0.00233966 1.8798e-16)
(0.999944 0.000137265 -1.12145e-17)
(0.999906 1.01048e-05 9.89406e-17)
(0.999857 -0.000135003 1.50779e-16)
(0.999801 -0.000295592 1.11908e-16)
(0.999748 -0.000475783 -4.8864e-16)
(0.999707 -0.000668432 1.40963e-16)
(0.999689 -0.000867082 3.20715e-16)
(0.9997 -0.00106543 7.72528e-16)
(0.999744 -0.00125364 -3.85444e-16)
(0.999824 -0.00143074 9.00616e-17)
(0.999917 -0.00158347 4.49203e-16)
(1.00008 -0.00172978 -3.23901e-16)
(1.00007 -0.00189886 -1.54205e-16)
(1.00022 -0.0019942 -3.81773e-16)
(0.999686 -0.00225708 8.46545e-17)
(0.999932 0.000153138 4.068e-17)
(0.999894 1.15045e-05 -8.9723e-17)
(0.999847 -0.000147961 8.8514e-18)
(0.999797 -0.000321345 -1.1017e-16)
(0.999751 -0.000512064 4.10617e-16)
(0.99972 -0.000712513 7.96102e-17)
(0.999712 -0.000916211 2.70252e-16)
(0.999734 -0.00111706 -5.73135e-16)
(0.999788 -0.00130543 4.15952e-17)
(0.999877 -0.00148038 -7.87035e-17)
(0.999977 -0.00162955 -1.39721e-16)
(1.00015 -0.00176625 4.41586e-17)
(1.00016 -0.00192712 5.93023e-16)
(1.00027 -0.00200174 -8.0646e-16)
(0.999826 -0.00219157 -2.713e-16)
(0.999919 0.000169244 -2.62182e-17)
(0.99988 1.31272e-05 3.52443e-17)
(0.999836 -0.00016063 -1.47509e-16)
(0.999791 -0.00034686 2.49933e-16)
(0.999753 -0.000548301 -3.61564e-16)
(0.999731 -0.000756947 -3.0309e-16)
(0.999733 -0.000966156 -3.38886e-16)
(0.999766 -0.00116993 3.91202e-17)
(0.99983 -0.00135881 -8.14312e-17)
(0.999929 -0.00153179 -4.24646e-16)
(1.00004 -0.00167766 -7.21481e-16)
(1.00021 -0.00180518 2.86042e-16)
(1.00024 -0.00195653 -3.28836e-16)
(1.00033 -0.00201287 9.09562e-16)
(0.999964 -0.00214083 5.40893e-17)
(0.999904 0.000185631 -2.455e-17)
(0.999865 1.50314e-05 -1.04216e-16)
(0.999824 -0.000172906 1.50719e-16)
(0.999784 -0.000371925 -2.34148e-16)
(0.999753 -0.000584148 7.68718e-17)
(0.99974 -0.000801266 4.54228e-16)
(0.999752 -0.0010164 5.54031e-17)
(0.999796 -0.00122356 -6.73658e-17)
(0.99987 -0.00141337 1.81604e-16)
(0.99998 -0.00158473 -1.56981e-16)
(1.00009 -0.00172764 -9.51366e-17)
(1.00027 -0.00184665 -6.68384e-17)
(1.00032 -0.00198752 -2.87585e-16)
(1.0004 -0.00202736 -6.23174e-16)
(1.0001 -0.0021019 1.24954e-17)
(0.999888 0.000202333 -2.17621e-18)
(0.999848 1.72393e-05 1.40474e-16)
(0.99981 -0.000184796 -2.21494e-16)
(0.999775 -0.000396569 8.34054e-17)
(0.999751 -0.000619659 -9.35681e-17)
(0.999747 -0.000845544 -1.54778e-16)
(0.999769 -0.00106707 -3.89022e-17)
(0.999824 -0.00127818 3.65156e-16)
(0.999908 -0.00146943 -6.30501e-16)
(1.00003 -0.00163954 4.20492e-16)
(1.00015 -0.00177967 2.20667e-16)
(1.00033 -0.00189051 1.84263e-16)
(1.0004 -0.00201965 7.50753e-16)
(1.00047 -0.00204348 7.32206e-16)
(1.00023 -0.00206995 5.52139e-16)
(0.999871 0.000219375 8.3016e-18)
(0.999831 1.97698e-05 5.28681e-17)
(0.999795 -0.000196307 1.76046e-16)
(0.999765 -0.000420815 5.57693e-17)
(0.999749 -0.00065483 1.70653e-16)
(0.999753 -0.000889686 1.68083e-16)
(0.999785 -0.00111795 -1.18501e-17)
(0.99985 -0.00133338 4.93132e-17)
(0.999945 -0.00152639 9.38134e-16)
(1.00008 -0.00169532 -1.13977e-16)
(1.00021 -0.00183244 5.42604e-16)
(1.00039 -0.00193494 -7.39857e-16)
(1.00048 -0.00205092 1.37226e-16)
(1.00055 -0.00205858 -1.34881e-15)
(1.00037 -0.00204215 -6.20311e-16)
(0.999852 0.000236769 9.93776e-18)
(0.999812 2.26316e-05 -1.17663e-16)
(0.999778 -0.000207445 1.54776e-16)
(0.999754 -0.00044466 -2.24102e-16)
(0.999745 -0.000689595 1.5685e-16)
(0.999758 -0.000933459 2.07226e-17)
(0.9998 -0.00116855 1.95067e-16)
(0.999876 -0.00138839 -2.60098e-16)
(0.999982 -0.00158316 -8.39428e-16)
(1.00012 -0.00175071 2.49421e-16)
(1.00026 -0.00188432 -5.60662e-16)
(1.00045 -0.00197814 1.1295e-16)
(1.00055 -0.00207989 -4.91143e-16)
(1.00063 -0.00207151 2.6649e-16)
(1.00049 -0.00201816 -1.09166e-16)
(0.999832 0.000254517 3.32316e-17)
(0.999791 2.58275e-05 7.18749e-17)
(0.999761 -0.000218219 -3.58921e-16)
(0.999742 -0.00046812 2.88379e-16)
(0.99974 -0.000723929 -2.79977e-16)
(0.999762 -0.000976724 -3.73031e-16)
(0.999815 -0.00121854 -3.8303e-16)
(0.999901 -0.00144266 3.37716e-16)
(1.00002 -0.001639 7.19204e-16)
(1.00017 -0.00180487 1.63123e-16)
(1.00032 -0.00193446 9.47863e-17)
(1.00051 -0.0020194 7.01679e-17)
(1.00063 -0.00210653 -7.34301e-16)
(1.00071 -0.00208291 6.45883e-17)
(1.00061 -0.00199879 6.36379e-16)
(0.99981 0.000272608 -8.96411e-17)
(0.999769 2.93451e-05 -9.23812e-17)
(0.999741 -0.000228659 3.42817e-17)
(0.999728 -0.000491247 -2.64335e-16)
(0.999734 -0.000757903 -1.79675e-17)
(0.999766 -0.00101953 4.81723e-16)
(0.999829 -0.00126791 5.50846e-17)
(0.999927 -0.00149609 3.04185e-16)
(1.00005 -0.00169377 -6.03135e-16)
(1.00022 -0.00185769 -3.09853e-16)
(1.00038 -0.00198295 4.44966e-16)
(1.00058 -0.00205916 -1.49242e-16)
(1.0007 -0.00213191 4.84588e-16)
(1.00079 -0.00209433 7.5177e-16)
(1.00073 -0.00198516 -6.01735e-17)
(0.999787 0.000291022 2.80825e-17)
(0.999746 3.3168e-05 1.14735e-17)
(0.999721 -0.000238799 1.15608e-16)
(0.999713 -0.000514111 2.25882e-18)
(0.999727 -0.00079164 9.88677e-17)
(0.999769 -0.00106205 -2.89672e-16)
(0.999842 -0.00131687 5.98371e-16)
(0.999952 -0.00154894 -1.53532e-16)
(1.00009 -0.00174781 6.5276e-16)
(1.00027 -0.0019097 -3.41531e-16)
(1.00044 -0.00203057 -5.43911e-16)
(1.00064 -0.00209852 5.25115e-16)
(1.00078 -0.0021576 -8.85905e-16)
(1.00087 -0.00210754 -1.30624e-15)
(1.00084 -0.00197798 -3.31331e-16)
(0.999762 0.000309728 3.12671e-18)
(0.999721 3.72668e-05 1.94951e-17)
(0.999699 -0.000248685 -3.12118e-17)
(0.999696 -0.000536801 1.58662e-16)
(0.999718 -0.00082531 1.08828e-16)
(0.99977 -0.00110458 -4.26769e-17)
(0.999855 -0.00136584 -3.60676e-16)
(0.999976 -0.00160176 -3.47713e-16)
(1.00013 -0.00180184 -2.35051e-16)
(1.00031 -0.00196182 4.33197e-16)
(1.0005 -0.00207852 3.35723e-16)
(1.0007 -0.0021389 -4.93753e-16)
(1.00085 -0.00218519 1.09743e-15)
(1.00095 -0.00212391 1.37633e-15)
(1.00094 -0.00197709 4.66039e-17)
(0.999736 0.000328688 3.5753e-17)
(0.999695 4.16105e-05 -4.75895e-17)
(0.999675 -0.000258365 2.29412e-16)
(0.999678 -0.000559403 -4.56933e-17)
(0.999708 -0.000859081 -1.74406e-16)
(0.99977 -0.00114741 7.39435e-17)
(0.999866 -0.00141529 -1.29733e-16)
(0.999999 -0.00165523 2.9358e-16)
(1.00016 -0.0018567 7.71807e-17)
(1.00036 -0.00201507 5.39611e-17)
(1.00055 -0.00212794 -2.57478e-16)
(1.00077 -0.00218145 3.41876e-16)
(1.00093 -0.00221568 1.74355e-16)
(1.00103 -0.0021439 1.55923e-16)
(1.00104 -0.00198134 3.95805e-16)
(0.999709 0.000347861 -1.83801e-17)
(0.999668 4.61587e-05 2.72424e-17)
(0.99965 -0.000267893 -3.71875e-16)
(0.999658 -0.000582 -2.37935e-16)
(0.999696 -0.000893101 3.29328e-16)
(0.999768 -0.0011908 -8.91612e-17)
(0.999876 -0.00146563 5.20867e-16)
(1.00002 -0.00170989 -1.41424e-16)
(1.0002 -0.00191308 -7.51139e-18)
(1.0004 -0.00207021 -1.50047e-16)
(1.00061 -0.00217958 3.85348e-16)
(1.00083 -0.0022267 -2.42954e-16)
(1.001 -0.00224921 -7.99062e-16)
(1.00111 -0.00216695 -1.90337e-16)
(1.00114 -0.00198896 -4.52063e-16)
(0.999681 0.000367203 2.47423e-17)
(0.999639 5.08747e-05 1.12552e-16)
(0.999624 -0.000277315 3.35176e-16)
(0.999637 -0.000604643 2.60148e-16)
(0.999683 -0.00092744 -3.20686e-17)
(0.999764 -0.00123487 -1.30283e-16)
(0.999883 -0.00151703 -5.76622e-16)
(1.00004 -0.00176598 -6.70442e-17)
(1.00023 -0.00197123 -3.42547e-16)
(1.00045 -0.00212742 1.10957e-16)
(1.00066 -0.00223343 -7.06325e-16)
(1.00089 -0.0022743 3.40806e-16)
(1.00107 -0.00228502 1.15115e-15)
(1.00119 -0.00219179 -8.88151e-16)
(1.00124 -0.00199811 5.26939e-16)
(0.999651 0.00038667 -1.99509e-17)
(0.999609 5.57171e-05 -1.58364e-16)
(0.999596 -0.00028667 -1.91829e-16)
(0.999614 -0.000627356 -9.56821e-17)
(0.999667 -0.000962092 -6.12815e-17)
(0.999758 -0.00127957 8.41361e-17)
(0.999888 -0.0015694 -3.22218e-17)
(1.00006 -0.00182335 -4.42599e-16)
(1.00026 -0.00203091 -1.30283e-16)
(1.00049 -0.00218629 -3.28047e-17)
(1.00072 -0.00228885 6.42901e-16)
(1.00095 -0.00232327 1.07555e-16)
(1.00114 -0.00232187 -9.57076e-16)
(1.00128 -0.00221701 5.08215e-16)
(1.00135 -0.00200757 -1.01982e-16)
(0.999619 0.000406222 1.80222e-17)
(0.999577 6.06509e-05 9.31133e-17)
(0.999567 -0.000295985 9.2328e-17)
(0.99959 -0.000650135 1.79569e-16)
(0.99965 -0.000996982 -9.78418e-17)
(0.999751 -0.00132472 -2.75229e-17)
(0.999892 -0.00162246 1.98866e-16)
(1.00007 -0.00188158 2.97178e-16)
(1.00028 -0.00209151 -2.14206e-17)
(1.00053 -0.00224606 -3.58843e-16)
(1.00077 -0.00234486 -2.75874e-16)
(1.00101 -0.00237246 -4.85046e-16)
(1.00122 -0.00235858 2.03538e-17)
(1.00136 -0.0022416 2.63146e-16)
(1.00145 -0.00201689 -1.59416e-16)
(0.999587 0.00042582 -9.63636e-18)
(0.999545 6.56374e-05 -5.51021e-17)
(0.999537 -0.000305291 1.40218e-16)
(0.999564 -0.000672967 1.47072e-17)
(0.999632 -0.00103202 -1.24551e-16)
(0.999742 -0.00137012 1.00444e-16)
(0.999894 -0.00167584 -4.79834e-17)
(1.00009 -0.00194015 2.74011e-16)
(1.00031 -0.00215238 5.06314e-16)
(1.00057 -0.0023059 7.8634e-17)
(1.00082 -0.00240059 2.38073e-16)
(1.00108 -0.00242102 2.42365e-16)
(1.00129 -0.0023945 5.98454e-17)
(1.00145 -0.00226533 -5.4151e-16)
(1.00155 -0.00202641 1.31416e-16)
(0.999553 0.000445432 1.2908e-17)
(0.99951 7.06446e-05 1.16054e-17)
(0.999505 -0.000314612 -2.8646e-16)
(0.999537 -0.000695847 -1.25153e-16)
(0.999612 -0.00106712 1.75966e-16)
(0.999732 -0.00141558 -2.74694e-17)
(0.999896 -0.00172925 1.8373e-16)
(1.0001 -0.00199866 -2.44042e-16)
(1.00034 -0.00221303 1.39127e-16)
(1.00061 -0.00236531 1.15719e-16)
(1.00087 -0.00245558 1.22165e-16)
(1.00114 -0.00246864 1.55474e-16)
(1.00136 -0.00242964 2.16183e-16)
(1.00153 -0.00228858 3.04403e-17)
(1.00166 -0.00203688 7.72972e-17)
(0.999518 0.000465028 -3.97146e-17)
(0.999475 7.56366e-05 1.05094e-16)
(0.999471 -0.000323983 1.6448e-16)
(0.999508 -0.000718793 -1.05293e-16)
(0.999592 -0.00110228 -6.84561e-17)
(0.999722 -0.00146105 3.89654e-17)
(0.999897 -0.00178258 -2.00158e-16)
(1.00012 -0.00205695 -1.30977e-16)
(1.00037 -0.00227329 -1.72047e-16)
(1.00065 -0.00242419 2.73467e-16)
(1.00092 -0.00250989 -3.79415e-16)
(1.0012 -0.00251559 2.96393e-16)
(1.00144 -0.00246454 1.45199e-16)
(1.00162 -0.00231214 5.43633e-16)
(1.00176 -0.00204908 -4.97855e-16)
(0.999482 0.000484589 1.6758e-17)
(0.999438 8.05859e-05 -7.91019e-17)
(0.999437 -0.00033344 5.7919e-17)
(0.999479 -0.000741843 1.2811e-16)
(0.99957 -0.00113753 -8.88217e-17)
(0.99971 -0.00150656 -1.50119e-16)
(0.999898 -0.00183586 -7.10794e-17)
(1.00013 -0.00211509 9.79585e-17)
(1.00039 -0.00233331 -4.48111e-16)
(1.00069 -0.0024828 6.61237e-17)
(1.00098 -0.00256395 2.521e-16)
(1.00127 -0.00256249 -7.04669e-16)
(1.00151 -0.00249992 1.42314e-16)
(1.0017 -0.00233678 2.18086e-17)
(1.00186 -0.00206342 3.67095e-16)
(0.999445 0.000504098 -6.37083e-18)
(0.9994 8.54629e-05 9.69472e-17)
(0.999401 -0.000343023 -9.36683e-17)
(0.999449 -0.000765054 -5.81409e-17)
(0.999548 -0.00117296 -9.27333e-17)
(0.999698 -0.00155222 -4.90423e-17)
(0.999897 -0.00188928 -1.0575e-16)
(1.00014 -0.00217336 7.5504e-17)
(1.00042 -0.00239347 2.90382e-17)
(1.00072 -0.00254163 -3.10318e-16)
(1.00103 -0.00261836 -3.70223e-16)
(1.00133 -0.00261003 4.10739e-16)
(1.00159 -0.00253647 -3.58593e-16)
(1.00179 -0.00236301 -1.14211e-16)
(1.00195 -0.00208 -1.12416e-17)
(0.999406 0.000523551 -1.92777e-17)
(0.99936 9.02492e-05 -4.4785e-17)
(0.999364 -0.000352767 3.16325e-17)
(0.999417 -0.000788484 2.25419e-16)
(0.999524 -0.00120865 3.76469e-16)
(0.999685 -0.00159819 3.07354e-16)
(0.999896 -0.00194305 3.35821e-16)
(1.00015 -0.00223205 -2.14252e-16)
(1.00044 -0.00245415 6.73749e-20)
(1.00076 -0.00260114 2.32398e-16)
(1.00108 -0.00267365 4.57648e-17)
(1.00139 -0.0026587 2.52386e-16)
(1.00166 -0.00257456 2.02844e-16)
(1.00188 -0.00239099 -5.31615e-16)
(1.00205 -0.00209856 -3.491e-16)
(0.999367 0.000542946 9.91855e-18)
(0.999319 9.49272e-05 -8.09447e-17)
(0.999325 -0.000362705 -1.6192e-16)
(0.999383 -0.000812186 -1.58948e-16)
(0.999499 -0.00124469 1.46093e-17)
(0.99967 -0.0016446 -1.73521e-16)
(0.999893 -0.00199737 -3.77824e-16)
(1.00016 -0.00229142 2.88391e-16)
(1.00047 -0.00251567 2.3456e-16)
(1.0008 -0.00266168 -5.17228e-16)
(1.00113 -0.00273014 4.24311e-16)
(1.00146 -0.00270874 -3.09345e-16)
(1.00174 -0.00261426 -1.42615e-16)
(1.00196 -0.0024206 -1.24737e-16)
(1.00215 -0.00211872 1.48725e-16)
(0.999326 0.000562289 3.77561e-17)
(0.999277 9.94917e-05 1.73684e-17)
(0.999285 -0.000372852 8.75758e-17)
(0.999349 -0.000836195 4.06832e-17)
(0.999473 -0.00128115 4.78666e-17)
(0.999654 -0.00169153 3.00104e-16)
(0.99989 -0.00205235 -1.35604e-16)
(1.00017 -0.0023516 1.48183e-16)
(1.00049 -0.00257815 8.50841e-17)
(1.00084 -0.00272335 5.92964e-17)
(1.00118 -0.00278788 1.97566e-16)
(1.00152 -0.0027601 -4.21245e-17)
(1.00181 -0.0026554 9.36343e-18)
(1.00205 -0.00245153 8.70014e-16)
(1.00225 -0.0021401 2.76669e-18)
(0.999284 0.000581592 -3.66475e-17)
(0.999233 0.000103939 -1.26577e-17)
(0.999244 -0.000383223 5.72566e-17)
(0.999313 -0.000860532 -1.74581e-16)
(0.999444 -0.00131805 -2.79645e-16)
(0.999637 -0.00173903 -2.67951e-16)
(0.999884 -0.00210803 2.27042e-16)
(1.00018 -0.00241263 -8.30402e-17)
(1.00051 -0.00264162 9.68399e-18)
(1.00087 -0.00278613 -5.01883e-18)
(1.00123 -0.00284677 -2.72889e-16)
(1.00158 -0.00281261 -2.46652e-16)
(1.00189 -0.00269775 -1.59075e-16)
(1.00214 -0.00248356 2.41513e-17)
(1.00235 -0.00216253 -5.44787e-17)
(0.99924 0.000600873 -1.82956e-17)
(0.999188 0.000108276 4.84246e-17)
(0.999201 -0.000393815 4.76456e-17)
(0.999275 -0.0008852 7.75398e-17)
(0.999415 -0.0013554 1.06062e-16)
(0.999618 -0.00178708 1.6762e-18)
(0.999878 -0.00216438 2.26942e-16)
(1.00019 -0.00247446 -5.06055e-16)
(1.00054 -0.00270598 2.58067e-16)
(1.00091 -0.00284988 2.63204e-16)
(1.00128 -0.00290667 -3.76566e-16)
(1.00164 -0.00286609 7.03321e-16)
(1.00196 -0.00274111 3.7028e-16)
(1.00222 -0.00251655 -6.90127e-16)
(1.00244 -0.00218589 -2.05419e-16)
(0.999196 0.000620151 3.78339e-17)
(0.999141 0.000112511 2.93796e-17)
(0.999157 -0.000404624 4.58797e-18)
(0.999236 -0.000910197 -3.47598e-17)
(0.999384 -0.00139319 2.01647e-17)
(0.999597 -0.00183568 2.84522e-16)
(0.99987 -0.00222138 -4.58629e-17)
(1.00019 -0.00253703 3.2475e-16)
(1.00056 -0.00277116 -4.80544e-17)
(1.00094 -0.0029145 -2.91135e-16)
(1.00133 -0.00296745 6.02441e-16)
(1.0017 -0.00292044 -3.61563e-16)
(1.00204 -0.00278544 -4.89542e-16)
(1.00231 -0.00255051 2.06978e-16)
(1.00254 -0.00221025 3.46195e-16)
(0.99915 0.000639449 -3.1462e-17)
(0.999093 0.000116661 -1.32642e-17)
(0.999111 -0.000415635 -1.72977e-16)
(0.999195 -0.000935512 -8.45411e-17)
(0.999351 -0.00143142 5.20673e-17)
(0.999575 -0.00188482 -2.87233e-16)
(0.99986 -0.00227902 -8.44397e-17)
(1.0002 -0.00260032 2.8304e-16)
(1.00057 -0.00283713 -2.39379e-16)
(1.00098 -0.00297997 7.02005e-17)
(1.00138 -0.0030291 -3.35461e-16)
(1.00176 -0.00297568 1.05547e-17)
(1.00211 -0.00283078 2.64969e-16)
(1.0024 -0.00258549 1.3945e-16)
(1.00264 -0.00223558 -5.43651e-17)
(0.999103 0.00065879 3.00138e-17)
(0.999044 0.000120739 -9.73873e-17)
(0.999064 -0.000426836 8.17547e-17)
(0.999153 -0.000961135 5.35121e-17)
(0.999317 -0.00147009 -4.03493e-17)
(0.999552 -0.00193452 -1.72537e-16)
(0.99985 -0.00233733 5.23162e-17)
(1.0002 -0.00266437 -1.29763e-16)
(1.00059 -0.00290392 -2.188e-16)
(1.00101 -0.00304633 -2.73483e-17)
(1.00142 -0.00309171 -4.84798e-16)
(1.00182 -0.0030319 4.96175e-16)
(1.00218 -0.00287721 3.85691e-17)
(1.00248 -0.00262158 -7.96081e-17)
(1.00273 -0.00226189 -7.7489e-18)
(0.999054 0.000678199 -3.68129e-17)
(0.998993 0.000124768 1.00254e-16)
(0.999015 -0.000438207 -2.30313e-17)
(0.999109 -0.000987054 -2.09818e-16)
(0.999282 -0.00150921 -9.9977e-17)
(0.999527 -0.0019848 1.16147e-16)
(0.999838 -0.00239634 -1.70434e-16)
(1.0002 -0.00272924 -1.90917e-16)
(1.00061 -0.00297163 3.24918e-16)
(1.00104 -0.00311368 1.13062e-16)
(1.00147 -0.00315535 5.08691e-16)
(1.00189 -0.0030892 -3.82629e-16)
(1.00226 -0.0029248 1.37512e-16)
(1.00257 -0.00265878 -1.54859e-16)
(1.00283 -0.00228904 5.16541e-18)
(0.999004 0.000697695 2.2785e-17)
(0.99894 0.000128765 -5.8015e-17)
(0.998964 -0.000449732 7.20687e-17)
(0.999064 -0.00101326 3.12626e-16)
(0.999245 -0.00154876 1.32674e-16)
(0.999501 -0.00203568 8.23153e-17)
(0.999824 -0.00245611 3.38521e-16)
(1.00021 -0.00279501 1.6088e-16)
(1.00063 -0.00304034 -2.64989e-16)
(1.00107 -0.00318212 4.51528e-16)
(1.00152 -0.00322013 2.51115e-16)
(1.00195 -0.00314763 -2.12543e-16)
(1.00233 -0.00297355 -4.06594e-16)
(1.00266 -0.00269702 -1.58035e-16)
(1.00292 -0.00231689 6.10407e-17)
(0.998952 0.000717303 4.67837e-18)
(0.998886 0.000132754 -1.23601e-16)
(0.998913 -0.000461389 -9.17324e-17)
(0.999017 -0.00103972 -2.15261e-16)
(0.999206 -0.00158875 3.45798e-17)
(0.999473 -0.00208718 -3.34285e-16)
(0.99981 -0.00251666 -3.59393e-16)
(1.00021 -0.00286171 -1.44569e-16)
(1.00064 -0.0031101 3.08e-16)
(1.0011 -0.00325168 -3.27172e-16)
(1.00156 -0.00328606 1.15698e-16)
(1.00201 -0.00320715 2.1509e-16)
(1.00241 -0.00302336 3.26569e-16)
(1.00274 -0.00273614 1.9933e-16)
(1.00302 -0.00234524 1.69339e-17)
(0.998899 0.000737039 3.28845e-17)
(0.998831 0.000136751 2.02015e-16)
(0.998859 -0.000473163 9.40271e-17)
(0.998969 -0.00106644 1.8071e-16)
(0.999166 -0.00162916 1.08282e-16)
(0.999444 -0.00213927 4.56491e-17)
(0.999794 -0.00257799 5.26613e-17)
(1.0002 -0.00292934 -1.20997e-16)
(1.00066 -0.00318089 -1.227e-16)
(1.00113 -0.00332233 1.43794e-17)
(1.00161 -0.00335307 -7.90554e-16)
(1.00207 -0.00326769 -3.08776e-16)
(1.00248 -0.00307411 3.24727e-16)
(1.00283 -0.00277601 -7.24365e-17)
(1.00312 -0.00237403 -2.00707e-16)
(0.998844 0.00075692 -4.41983e-17)
(0.998774 0.000140779 -1.29455e-16)
(0.998804 -0.000485036 -1.85931e-16)
(0.998919 -0.00109338 6.1086e-17)
(0.999124 -0.00166995 -2.0543e-16)
(0.999413 -0.00219193 3.82683e-17)
(0.999776 -0.00264006 -4.73712e-17)
(1.0002 -0.00299786 -8.64797e-18)
(1.00067 -0.00325267 -1.46622e-16)
(1.00116 -0.003394 -7.68821e-17)
(1.00166 -0.00342107 2.72251e-17)
(1.00213 -0.00332912 2.68158e-16)
(1.00255 -0.00312567 -1.3517e-16)
(1.00292 -0.00281651 2.66911e-16)
(1.00322 -0.00240321 9.43778e-17)
(0.998788 0.000776961 2.36224e-17)
(0.998716 0.000144849 1.24017e-16)
(0.998748 -0.000496997 2.3622e-16)
(0.998867 -0.00112054 -6.82598e-17)
(0.999081 -0.00171111 -1.65615e-17)
(0.999381 -0.00224512 2.50776e-16)
(0.999757 -0.00270283 2.13248e-16)
(1.0002 -0.00306721 -1.46122e-16)
(1.00068 -0.00332535 3.91482e-16)
(1.00119 -0.0034666 3.55173e-16)
(1.0017 -0.00348997 3.77688e-16)
(1.00219 -0.00339135 -1.744e-17)
(1.00263 -0.00317797 -2.99664e-16)
(1.00301 -0.00285762 -3.14798e-16)
(1.00331 -0.00243285 -3.0351e-17)
(0.99873 0.000797177 -2.02416e-17)
(0.998656 0.000148979 -6.54902e-17)
(0.99869 -0.000509037 -1.95789e-16)
(0.998815 -0.0011479 1.26012e-16)
(0.999037 -0.00175262 1.2092e-16)
(0.999348 -0.00229881 -1.67912e-16)
(0.999738 -0.00276623 -8.47728e-17)
(1.00019 -0.00313732 8.38011e-18)
(1.00069 -0.00339887 -1.73983e-16)
(1.00122 -0.00354005 -3.04316e-16)
(1.00175 -0.0035597 -5.61524e-16)
(1.00225 -0.00345434 6.06494e-17)
(1.0027 -0.003231 3.6587e-16)
(1.00309 -0.00289938 3.31348e-16)
(1.00341 -0.00246306 -6.97338e-17)
(0.99867 0.000817577 -1.61076e-17)
(0.998595 0.000153176 -1.31733e-17)
(0.998631 -0.00052116 1.71334e-16)
(0.99876 -0.00117547 -1.61672e-16)
(0.998991 -0.00179448 -3.19497e-16)
(0.999313 -0.00235298 1.55062e-16)
(0.999717 -0.00283026 8.79957e-17)
(1.00019 -0.00320817 4.07485e-16)
(1.00071 -0.00347319 5.82643e-17)
(1.00125 -0.00361434 2.83354e-16)
(1.00179 -0.00363027 8.4144e-16)
(1.00231 -0.00351813 -2.30856e-16)
(1.00278 -0.00328484 -9.79897e-17)
(1.00318 -0.0029419 -1.15668e-17)
(1.00351 -0.00249403 -2.77741e-17)
(0.998609 0.000838178 4.50478e-17)
(0.998532 0.000157451 4.92166e-17)
(0.99857 -0.000533367 -1.47356e-16)
(0.998705 -0.00120326 1.36897e-16)
(0.998944 -0.00183671 -9.21478e-17)
(0.999277 -0.00240766 -2.96687e-16)
(0.999695 -0.00289492 1.30393e-17)
(1.00018 -0.00327976 -3.50491e-17)
(1.00072 -0.00354834 -2.16084e-16)
(1.00128 -0.00368951 1.82155e-16)
(1.00184 -0.00370174 -7.85428e-16)
(1.00237 -0.00358282 -1.42959e-17)
(1.00285 -0.00333962 -1.75036e-16)
(1.00327 -0.00298534 3.27018e-17)
(1.00361 -0.00252589 -8.22715e-17)
(0.998547 0.00085899 -1.14952e-17)
(0.998467 0.000161805 -1.17269e-17)
(0.998508 -0.000545673 2.03901e-17)
(0.998647 -0.00123131 -1.52236e-16)
(0.998895 -0.00187935 -2.73337e-17)
(0.99924 -0.0024629 3.62267e-16)
(0.999672 -0.00296027 -2.64033e-16)
(1.00017 -0.00335217 -3.27044e-16)
(1.00073 -0.0036244 3.50197e-16)
(1.0013 -0.00376566 -3.16854e-16)
(1.00188 -0.00377424 4.01034e-16)
(1.00243 -0.00364858 3.79428e-16)
(1.00293 -0.00339551 2.73305e-16)
(1.00336 -0.00302985 -1.81879e-16)
(1.0037 -0.00255877 -6.20122e-17)
(0.998483 0.000880028 -1.23971e-17)
(0.998401 0.000166245 -7.19558e-17)
(0.998443 -0.000558087 -9.68983e-17)
(0.998589 -0.00125964 7.11229e-17)
(0.998845 -0.00192244 1.80268e-16)
(0.999202 -0.00251875 6.32334e-17)
(0.999648 -0.0030264 2.45381e-16)
(1.00017 -0.00342549 5.36346e-17)
(1.00073 -0.00370148 -4.60432e-16)
(1.00133 -0.00384293 1.61127e-16)
(1.00192 -0.00384794 -2.27769e-16)
(1.00249 -0.00371555 -1.8919e-16)
(1.003 -0.00345265 -2.5485e-16)
(1.00345 -0.00307557 4.02801e-17)
(1.0038 -0.00259271 1.49755e-16)
(0.998417 0.000901305 -1.90284e-17)
(0.998333 0.000170769 3.42728e-17)
(0.998378 -0.000570627 4.13805e-17)
(0.998528 -0.0012883 -1.42554e-16)
(0.998793 -0.00196605 6.95728e-17)
(0.999162 -0.00257531 -2.11105e-16)
(0.999622 -0.0030934 -2.58615e-17)
(1.00016 -0.00349984 3.17539e-16)
(1.00074 -0.00377973 -2.02551e-16)
(1.00136 -0.00392146 -2.67759e-16)
(1.00197 -0.00392298 2.29997e-16)
(1.00255 -0.0037839 -6.82762e-17)
(1.00308 -0.00351118 -7.22151e-16)
(1.00353 -0.00312258 7.36966e-17)
(1.0039 -0.00262775 1.07727e-16)
(0.99835 0.000922839 -9.79425e-18)
(0.998264 0.000175383 3.343e-17)
(0.99831 -0.000583304 1.25953e-17)
(0.998466 -0.0013173 1.90028e-17)
(0.99874 -0.00201024 1.2006e-16)
(0.999121 -0.00263266 6.67186e-17)
(0.999595 -0.00316138 -2.19759e-16)
(1.00015 -0.00357535 -2.00678e-17)
(1.00075 -0.00385928 6.06676e-16)
(1.00138 -0.00400141 -1.94598e-16)
(1.00201 -0.00399951 -5.72193e-18)
(1.00261 -0.00385375 2.87863e-17)
(1.00315 -0.00357117 2.77907e-17)
(1.00362 -0.00317092 -5.10241e-17)
(1.004 -0.00266382 1.70042e-17)
(0.998281 0.000944639 2.58099e-17)
(0.998192 0.000180081 -6.81909e-17)
(0.998241 -0.000596133 -7.78956e-17)
(0.998402 -0.0013467 1.4939e-19)
(0.998685 -0.00205507 -1.81287e-16)
(0.999077 -0.00269088 -2.89525e-17)
(0.999567 -0.00323046 4.26703e-17)
(1.00013 -0.00365214 -4.83218e-17)
(1.00076 -0.00394027 -4.10741e-16)
(1.00141 -0.0040829 5.46935e-16)
(1.00205 -0.00407763 -3.12159e-17)
(1.00267 -0.00392518 -5.71658e-17)
(1.00323 -0.00363268 3.37007e-16)
(1.00371 -0.0032206 -3.78037e-16)
(1.00409 -0.00270085 7.98469e-18)
(0.998211 0.000966724 2.73851e-18)
(0.998119 0.000184867 8.18055e-17)
(0.99817 -0.000609121 2.19866e-16)
(0.998336 -0.0013765 -5.54513e-17)
(0.998628 -0.00210057 1.17817e-16)
(0.999033 -0.00275003 -1.83091e-16)
(0.999537 -0.0033007 -2.19286e-16)
(1.00012 -0.0037303 5.26721e-18)
(1.00076 -0.00402277 2.39152e-16)
(1.00143 -0.004166 -4.77368e-16)
(1.0021 -0.00415741 1.18922e-16)
(1.00273 -0.00399821 -2.06713e-17)
(1.00331 -0.00369568 2.6035e-16)
(1.0038 -0.00327153 8.04672e-17)
(1.00419 -0.0027387 -1.25376e-16)
(0.998139 0.0009891 1.05235e-18)
(0.998045 0.000189737 -8.87862e-17)
(0.998097 -0.000622278 -1.25485e-16)
(0.998268 -0.00140673 2.07698e-17)
(0.998569 -0.00214678 -2.18884e-17)
(0.998986 -0.00281016 1.66194e-16)
(0.999506 -0.00337216 3.60034e-16)
(1.00011 -0.0038099 -3.19391e-16)
(1.00077 -0.00410686 3.63345e-16)
(1.00145 -0.00425078 3.2121e-17)
(1.00214 -0.00423887 7.12973e-17)
(1.00279 -0.00407285 -1.37714e-16)
(1.00338 -0.00376014 2.65926e-16)
(1.00389 -0.00332364 1.5074e-16)
(1.00429 -0.00277729 1.96952e-16)
(0.998065 0.00101178 -8.60669e-18)
(0.997968 0.00019469 8.46928e-17)
(0.998022 -0.000635607 1.54561e-16)
(0.998199 -0.0014374 5.34056e-17)
(0.998509 -0.00219371 1.5622e-16)
(0.998938 -0.0028713 1.19988e-16)
(0.999473 -0.00344489 -3.23322e-16)
(1.00009 -0.00389095 6.47839e-16)
(1.00077 -0.00419255 -2.03803e-16)
(1.00148 -0.00433722 -6.78088e-17)
(1.00218 -0.00432199 -2.45459e-16)
(1.00285 -0.00414904 -1.07815e-16)
(1.00346 -0.00382596 -2.95944e-16)
(1.00398 -0.00337684 -1.09067e-16)
(1.00439 -0.00281647 4.73703e-17)
(0.99799 0.00103477 -3.05646e-17)
(0.99789 0.000199722 -9.05719e-17)
(0.997945 -0.000649116 -1.08394e-17)
(0.998127 -0.00146851 1.06243e-16)
(0.998447 -0.00224138 -1.4217e-16)
(0.998888 -0.00293345 -1.04407e-16)
(0.999438 -0.00351887 4.04595e-16)
(1.00008 -0.00397347 -1.20853e-16)
(1.00077 -0.00427984 -5.1639e-16)
(1.0015 -0.0044253 7.10775e-17)
(1.00222 -0.00440672 -1.24632e-16)
(1.00291 -0.00422671 2.30616e-16)
(1.00354 -0.00389306 3.69462e-16)
(1.00407 -0.00343103 3.29194e-16)
(1.00449 -0.00285623 -2.76052e-16)
(0.997913 0.00105808 1.83309e-18)
(0.997809 0.00020483 -1.74706e-17)
(0.997867 -0.000662806 -7.23239e-17)
(0.998054 -0.00150007 4.50863e-17)
(0.998382 -0.00228977 -7.88316e-17)
(0.998837 -0.0029966 1.34465e-16)
(0.999402 -0.00359411 -1.16261e-16)
(1.00006 -0.00405744 3.99052e-17)
(1.00077 -0.00436869 -1.0824e-16)
(1.00152 -0.00451499 2.7541e-16)
(1.00226 -0.00449299 3.37023e-16)
(1.00297 -0.00430578 1.94818e-18)
(1.00361 -0.00396137 -5.88007e-16)
(1.00417 -0.00348612 -4.00265e-16)
(1.00459 -0.00289647 2.73106e-16)