1.45 	0 	0 	0.0178858 	-0.00527335 	3.83773e-21
2.35 	0 	0 	0.172448 	-0.0101885 	1.29561e-21
