1.45 	0 	0 	-0.00747513 	-0.00260543 	3.85121e-21
2.35 	0 	0 	0.0629302 	-0.00668485 	2.37886e-21
