1.275 	2.15223e-18 	-2.76991e-20 	-0.0344507 	-0.000434384 	-1.91379e-22
1.825 	2.15223e-18 	-1.39322e-20 	-0.00944138 	-0.00275679 	1.69227e-21
2.375 	2.15223e-18 	-2.66896e-23 	0.115374 	-0.00324575 	-7.05937e-22
