1.275 	2.15223e-18 	-2.76991e-20 	-0.0343577 	-0.000447705 	-1.94115e-22
1.825 	2.15223e-18 	-1.39322e-20 	-0.00927409 	-0.00277824 	1.72796e-21
2.375 	2.15223e-18 	-2.66896e-23 	0.115845 	-0.00325952 	-7.21158e-22
