/*--------------------------------*- C++ -*----------------------------------*\
  =========                 |
  \\      /  F ield         | OpenFOAM: The Open Source CFD Toolbox
   \\    /   O peration     | Website:  https://openfoam.org
    \\  /    A nd           | Version:  6.0
     \\/     M anipulation  |
\*---------------------------------------------------------------------------*/
FoamFile
{
    version     2.0;
    format      ascii;
    class       volScalarField;
    location    "73";
    object      p;
}
// * * * * * * * * * * * * * * * * * * * * * * * * * * * * * * * * * * * * * //

dimensions      [0 2 -2 0 0 0 0];

internalField   nonuniform List<scalar> 
34500
(
1.00603
1.00609
1.00592
1.00561
1.00519
1.00471
1.00419
1.00367
1.00316
1.00267
1.0022
1.00181
1.00134
1.00119
1.00124
1.00604
1.00612
1.00602
1.00578
1.00544
1.00502
1.00457
1.0041
1.0036
1.00312
1.00262
1.00222
1.00168
1.00162
1.00159
1.00604
1.00612
1.00598
1.00571
1.00532
1.00486
1.00435
1.00382
1.00328
1.00277
1.00226
1.00186
1.00138
1.00145
1.00142
1.00605
1.00611
1.00596
1.00567
1.00526
1.00476
1.00422
1.00367
1.00312
1.0026
1.0021
1.00171
1.00129
1.00144
1.00153
1.00605
1.00612
1.00598
1.0057
1.0053
1.00482
1.0043
1.00376
1.00322
1.00271
1.00221
1.00183
1.00141
1.00157
1.00171
1.00606
1.00614
1.00601
1.00574
1.00535
1.00489
1.00438
1.00385
1.00332
1.00281
1.0023
1.00191
1.00149
1.00165
1.00179
1.00607
1.00615
1.00602
1.00576
1.00538
1.00491
1.00439
1.00386
1.00332
1.0028
1.00229
1.0019
1.00148
1.00166
1.00182
1.00608
1.00616
1.00603
1.00578
1.00539
1.00492
1.00439
1.00385
1.0033
1.00278
1.00227
1.00188
1.00147
1.00165
1.00185
1.00609
1.00617
1.00605
1.00579
1.00541
1.00494
1.00441
1.00386
1.0033
1.00278
1.00226
1.00187
1.00148
1.00166
1.00188
1.00611
1.00619
1.00606
1.00581
1.00544
1.00497
1.00444
1.00389
1.00332
1.00279
1.00227
1.00188
1.00149
1.00166
1.00189
1.00612
1.0062
1.00608
1.00583
1.00546
1.00499
1.00447
1.00391
1.00334
1.0028
1.00228
1.00188
1.00149
1.00165
1.00188
1.00614
1.00622
1.00609
1.00584
1.00547
1.00501
1.00448
1.00393
1.00335
1.0028
1.00227
1.00187
1.00149
1.00163
1.00186
1.00616
1.00624
1.00611
1.00586
1.00548
1.00502
1.00449
1.00393
1.00335
1.0028
1.00227
1.00187
1.00148
1.0016
1.00184
1.00617
1.00626
1.00613
1.00587
1.00549
1.00502
1.0045
1.00394
1.00335
1.0028
1.00226
1.00186
1.00148
1.00158
1.00181
1.00619
1.00628
1.00615
1.00589
1.00551
1.00503
1.0045
1.00394
1.00336
1.0028
1.00226
1.00185
1.00147
1.00155
1.00177
1.00621
1.0063
1.00617
1.00592
1.00553
1.00505
1.00452
1.00395
1.00336
1.0028
1.00225
1.00184
1.00147
1.00153
1.00173
1.00624
1.00633
1.0062
1.00595
1.00556
1.00508
1.00453
1.00396
1.00337
1.0028
1.00226
1.00184
1.00146
1.0015
1.00168
1.00626
1.00635
1.00623
1.00599
1.00559
1.00511
1.00456
1.00398
1.00338
1.00281
1.00226
1.00183
1.00146
1.00147
1.00163
1.00628
1.00638
1.00626
1.00603
1.00564
1.00515
1.0046
1.00401
1.0034
1.00283
1.00226
1.00183
1.00145
1.00143
1.00158
1.00631
1.00641
1.0063
1.00606
1.00568
1.00519
1.00464
1.00404
1.00343
1.00284
1.00227
1.00182
1.00143
1.00139
1.00152
1.00634
1.00644
1.00633
1.0061
1.00572
1.00524
1.00467
1.00407
1.00345
1.00285
1.00227
1.00181
1.00141
1.00135
1.00145
1.00637
1.00647
1.00636
1.00613
1.00576
1.00527
1.00471
1.0041
1.00346
1.00285
1.00226
1.00179
1.00139
1.0013
1.00138
1.0064
1.0065
1.00639
1.00616
1.00578
1.0053
1.00473
1.00412
1.00347
1.00285
1.00225
1.00177
1.00136
1.00124
1.00131
1.00643
1.00654
1.00641
1.00618
1.00581
1.00532
1.00475
1.00413
1.00348
1.00285
1.00224
1.00174
1.00132
1.00119
1.00124
1.00647
1.00657
1.00644
1.00621
1.00582
1.00534
1.00476
1.00413
1.00348
1.00284
1.00222
1.00172
1.00129
1.00113
1.00117
1.0065
1.0066
1.00647
1.00623
1.00584
1.00535
1.00477
1.00413
1.00347
1.00282
1.0022
1.00169
1.00125
1.00108
1.00109
1.00654
1.00664
1.0065
1.00626
1.00586
1.00536
1.00477
1.00414
1.00347
1.00281
1.00218
1.00166
1.00121
1.00102
1.00102
1.00658
1.00668
1.00654
1.00629
1.00588
1.00538
1.00478
1.00414
1.00346
1.0028
1.00216
1.00163
1.00118
1.00097
1.00095
1.00662
1.00673
1.00658
1.00633
1.00592
1.0054
1.0048
1.00415
1.00347
1.0028
1.00215
1.00161
1.00115
1.00092
1.00087
1.00667
1.00677
1.00663
1.00637
1.00596
1.00543
1.00483
1.00417
1.00348
1.0028
1.00214
1.00159
1.00112
1.00086
1.0008
1.00671
1.00682
1.00668
1.00643
1.006
1.00548
1.00486
1.0042
1.0035
1.00281
1.00214
1.00157
1.00108
1.00081
1.00072
1.00675
1.00687
1.00674
1.00648
1.00606
1.00552
1.0049
1.00423
1.00352
1.00281
1.00213
1.00155
1.00105
1.00075
1.00064
1.0068
1.00692
1.00679
1.00654
1.00612
1.00558
1.00495
1.00426
1.00354
1.00282
1.00212
1.00153
1.00101
1.00069
1.00056
1.00685
1.00698
1.00685
1.0066
1.00618
1.00563
1.00499
1.0043
1.00356
1.00283
1.00212
1.0015
1.00097
1.00063
1.00047
1.0069
1.00703
1.00691
1.00666
1.00624
1.00569
1.00504
1.00433
1.00358
1.00283
1.00211
1.00147
1.00092
1.00056
1.00039
1.00695
1.00708
1.00696
1.00672
1.0063
1.00575
1.00509
1.00437
1.0036
1.00284
1.00209
1.00144
1.00088
1.00049
1.0003
1.007
1.00713
1.00701
1.00678
1.00636
1.0058
1.00514
1.0044
1.00362
1.00284
1.00208
1.00141
1.00082
1.00042
1.00021
1.00705
1.00718
1.00706
1.00683
1.00641
1.00585
1.00518
1.00443
1.00363
1.00284
1.00205
1.00137
1.00077
1.00035
1.00011
1.0071
1.00723
1.00711
1.00688
1.00646
1.00589
1.00521
1.00445
1.00364
1.00283
1.00203
1.00132
1.00071
1.00027
1.00002
1.00716
1.00729
1.00716
1.00692
1.00649
1.00592
1.00524
1.00446
1.00364
1.00281
1.00199
1.00127
1.00064
1.00019
0.999924
1.00722
1.00734
1.00721
1.00696
1.00653
1.00595
1.00525
1.00447
1.00363
1.00278
1.00195
1.00122
1.00058
1.0001
0.999828
1.00728
1.0074
1.00726
1.007
1.00655
1.00597
1.00526
1.00446
1.00361
1.00275
1.00191
1.00116
1.00051
1.00002
0.999733
1.00734
1.00746
1.00731
1.00704
1.00658
1.00598
1.00526
1.00446
1.0036
1.00273
1.00187
1.00111
1.00045
0.999945
0.999639
1.0074
1.00752
1.00736
1.00709
1.00662
1.00601
1.00527
1.00446
1.00358
1.0027
1.00184
1.00106
1.00038
0.999867
0.999545
1.00747
1.00759
1.00742
1.00714
1.00666
1.00604
1.0053
1.00447
1.00358
1.00269
1.00181
1.00102
1.00033
0.999791
0.999451
1.00754
1.00766
1.00749
1.0072
1.00672
1.00608
1.00533
1.00449
1.00359
1.00268
1.00179
1.00098
1.00027
0.999715
0.999356
1.00761
1.00773
1.00757
1.00727
1.00678
1.00614
1.00537
1.00452
1.00361
1.00268
1.00177
1.00095
1.00022
0.999638
0.999259
1.00769
1.00781
1.00765
1.00735
1.00685
1.0062
1.00543
1.00456
1.00363
1.00269
1.00176
1.00091
1.00016
0.999558
0.999159
1.00777
1.00789
1.00773
1.00743
1.00693
1.00627
1.00549
1.0046
1.00365
1.00269
1.00174
1.00087
1.0001
0.999476
0.999058
1.00785
1.00798
1.00782
1.00752
1.00701
1.00634
1.00554
1.00464
1.00368
1.0027
1.00172
1.00083
1.00003
0.999391
0.998955
1.00793
1.00806
1.0079
1.0076
1.00708
1.00641
1.00559
1.00468
1.00369
1.00269
1.0017
1.00079
0.999968
0.999305
0.998851
1.00801
1.00815
1.00799
1.00768
1.00716
1.00647
1.00564
1.00471
1.00371
1.00269
1.00167
1.00074
0.999901
0.999219
0.998746
1.00809
1.00824
1.00808
1.00777
1.00723
1.00653
1.00569
1.00474
1.00372
1.00268
1.00165
1.00069
0.999835
0.999133
0.998641
1.00818
1.00833
1.00817
1.00785
1.00731
1.00659
1.00574
1.00477
1.00374
1.00268
1.00163
1.00065
0.99977
0.999046
0.998533
1.00827
1.00842
1.00826
1.00794
1.00739
1.00666
1.00579
1.00481
1.00376
1.00268
1.00161
1.00061
0.999705
0.998958
0.998423
1.00835
1.00851
1.00836
1.00804
1.00748
1.00675
1.00586
1.00486
1.00379
1.00269
1.00159
1.00057
0.999639
0.998868
0.998309
1.00844
1.0086
1.00845
1.00814
1.00758
1.00683
1.00594
1.00492
1.00383
1.0027
1.00158
1.00052
0.99957
0.998773
0.998191
1.00853
1.00869
1.00855
1.00824
1.00768
1.00693
1.00602
1.00498
1.00386
1.00271
1.00156
1.00048
0.999494
0.998672
0.998068
1.00862
1.00878
1.00864
1.00834
1.00778
1.00702
1.0061
1.00504
1.0039
1.00272
1.00153
1.00042
0.999412
0.998565
0.997941
1.00871
1.00887
1.00874
1.00843
1.00787
1.00711
1.00617
1.00509
1.00392
1.00271
1.0015
1.00036
0.99932
0.998452
0.997808
1.0088
1.00896
1.00882
1.00852
1.00796
1.00718
1.00623
1.00513
1.00393
1.00269
1.00145
1.00028
0.999221
0.998333
0.997674
1.00889
1.00905
1.0089
1.0086
1.00803
1.00724
1.00627
1.00515
1.00393
1.00266
1.00139
1.0002
0.999116
0.99821
0.997537
1.00899
1.00914
1.00898
1.00866
1.00808
1.00729
1.0063
1.00515
1.00391
1.00261
1.00132
1.00011
0.999007
0.998086
0.9974
1.00909
1.00923
1.00906
1.00873
1.00813
1.00731
1.00631
1.00514
1.00387
1.00256
1.00125
1.00002
0.998899
0.997962
0.997264
1.00919
1.00932
1.00914
1.00878
1.00817
1.00733
1.00631
1.00512
1.00384
1.0025
1.00117
0.999924
0.998793
0.997841
0.99713
1.00929
1.00942
1.00922
1.00885
1.00821
1.00735
1.00631
1.00511
1.0038
1.00245
1.0011
0.999839
0.998692
0.997724
0.996998
1.0094
1.00952
1.00931
1.00891
1.00825
1.00738
1.00631
1.00509
1.00377
1.00241
1.00104
0.999762
0.998598
0.997611
0.996868
1.00952
1.00963
1.00941
1.00899
1.00831
1.00742
1.00633
1.0051
1.00376
1.00237
1.00099
0.999695
0.99851
0.997502
0.996738
1.00963
1.00975
1.00951
1.00909
1.00839
1.00747
1.00637
1.00512
1.00376
1.00236
1.00096
0.999637
0.998429
0.997396
0.996608
1.00975
1.00987
1.00963
1.0092
1.00848
1.00755
1.00643
1.00516
1.00378
1.00236
1.00094
0.999587
0.998351
0.99729
0.996476
1.00988
1.01
1.00976
1.00932
1.0086
1.00765
1.00651
1.00522
1.00382
1.00237
1.00092
0.999543
0.998276
0.997184
0.996342
1.01001
1.01014
1.0099
1.00946
1.00873
1.00777
1.00661
1.0053
1.00387
1.0024
1.00091
0.9995
0.998199
0.997074
0.996204
1.01013
1.01028
1.01005
1.00961
1.00887
1.0079
1.00672
1.00539
1.00393
1.00242
1.00091
0.999457
0.998119
0.996961
0.996061
1.01027
1.01042
1.0102
1.00976
1.00902
1.00804
1.00685
1.00548
1.004
1.00245
1.0009
0.999409
0.998033
0.996842
0.995913
1.0104
1.01056
1.01035
1.00992
1.00918
1.00818
1.00697
1.00558
1.00406
1.00248
1.00088
0.999354
0.997941
0.996717
0.99576
1.01053
1.0107
1.0105
1.01007
1.00933
1.00832
1.00709
1.00567
1.00412
1.00249
1.00086
0.999292
0.997842
0.996586
0.995602
1.01066
1.01084
1.01065
1.01022
1.00947
1.00846
1.0072
1.00575
1.00416
1.0025
1.00083
0.99922
0.997736
0.996449
0.99544
1.0108
1.01098
1.01079
1.01036
1.00961
1.00858
1.0073
1.00582
1.0042
1.0025
1.00078
0.999141
0.997623
0.996308
0.995274
1.01094
1.01112
1.01093
1.0105
1.00974
1.00869
1.00739
1.00588
1.00422
1.00249
1.00073
0.999055
0.997505
0.996162
0.995105
1.01108
1.01126
1.01107
1.01063
1.00986
1.00879
1.00747
1.00593
1.00424
1.00246
1.00067
0.998964
0.997383
0.996013
0.994933
1.01122
1.0114
1.0112
1.01076
1.00998
1.00889
1.00754
1.00597
1.00424
1.00243
1.00061
0.998868
0.997258
0.995863
0.994759
1.01137
1.01155
1.01134
1.01089
1.01009
1.00898
1.0076
1.006
1.00424
1.0024
1.00055
0.998771
0.997131
0.99571
0.994583
1.01151
1.01169
1.01148
1.01101
1.01019
1.00906
1.00766
1.00603
1.00424
1.00237
1.00048
0.998673
0.997005
0.995557
0.994406
1.01167
1.01184
1.01162
1.01114
1.0103
1.00915
1.00772
1.00606
1.00424
1.00233
1.00041
0.998576
0.996878
0.995403
0.994227
1.01182
1.01199
1.01176
1.01127
1.01041
1.00924
1.00778
1.0061
1.00424
1.0023
1.00035
0.99848
0.996752
0.995248
0.994047
1.01198
1.01215
1.01191
1.0114
1.01053
1.00933
1.00785
1.00613
1.00425
1.00228
1.00029
0.998386
0.996626
0.995092
0.993865
1.01214
1.01231
1.01207
1.01155
1.01065
1.00943
1.00792
1.00618
1.00426
1.00225
1.00023
0.998294
0.996501
0.994936
0.99368
1.01231
1.01248
1.01223
1.01169
1.01078
1.00954
1.00801
1.00623
1.00428
1.00224
1.00018
0.998203
0.996375
0.994778
0.993494
1.01248
1.01265
1.01239
1.01185
1.01092
1.00966
1.0081
1.00629
1.0043
1.00222
1.00012
0.998113
0.996249
0.994619
0.993305
1.01265
1.01283
1.01256
1.01201
1.01107
1.00978
1.00819
1.00635
1.00433
1.00221
1.00007
0.998024
0.996122
0.994457
0.993113
1.01283
1.01301
1.01274
1.01218
1.01122
1.00991
1.00829
1.00642
1.00436
1.0022
1.00002
0.997933
0.995993
0.994293
0.992918
1.01301
1.01319
1.01292
1.01235
1.01138
1.01005
1.0084
1.00649
1.00439
1.00219
0.999975
0.997842
0.995862
0.994126
0.992719
1.01319
1.01338
1.01311
1.01253
1.01154
1.01019
1.00851
1.00657
1.00443
1.00219
0.999925
0.997749
0.995729
0.993956
0.992517
1.01337
1.01357
1.0133
1.01272
1.01171
1.01034
1.00863
1.00665
1.00447
1.00218
0.999873
0.997654
0.995593
0.993783
0.992312
1.01356
1.01376
1.01349
1.0129
1.01188
1.01048
1.00875
1.00673
1.00451
1.00217
0.99982
0.997556
0.995454
0.993607
0.992103
1.01376
1.01396
1.01369
1.01309
1.01206
1.01064
1.00887
1.00681
1.00454
1.00217
0.999765
0.997456
0.995312
0.993427
0.991891
1.01395
1.01416
1.01389
1.01328
1.01223
1.01079
1.00899
1.00689
1.00458
1.00216
0.999708
0.997353
0.995166
0.993244
0.991674
1.01415
1.01436
1.01409
1.01348
1.01241
1.01094
1.00911
1.00697
1.00462
1.00214
0.999648
0.997248
0.995018
0.993058
0.991455
1.01436
1.01457
1.0143
1.01368
1.01259
1.0111
1.00923
1.00705
1.00465
1.00213
0.999587
0.99714
0.994867
0.992868
0.991231
1.01456
1.01478
1.0145
1.01388
1.01278
1.01125
1.00935
1.00713
1.00469
1.00212
0.999523
0.997029
0.994713
0.992675
0.991004
1.01478
1.015
1.01472
1.01408
1.01296
1.01141
1.00948
1.00722
1.00472
1.0021
0.999458
0.996916
0.994555
0.992479
0.990773
1.01499
1.01522
1.01493
1.01429
1.01315
1.01157
1.0096
1.0073
1.00475
1.00208
0.99939
0.996801
0.994396
0.99228
0.990539
1.01521
1.01544
1.01515
1.0145
1.01334
1.01174
1.00973
1.00738
1.00479
1.00207
0.999321
0.996683
0.994233
0.992077
0.990301
1.01543
1.01567
1.01538
1.01471
1.01354
1.0119
1.00986
1.00746
1.00482
1.00205
0.999251
0.996563
0.994067
0.991871
0.99006
1.01566
1.0159
1.01561
1.01493
1.01374
1.01207
1.00999
1.00755
1.00486
1.00203
0.99918
0.996441
0.993899
0.991661
0.989814
1.01589
1.01614
1.01584
1.01515
1.01394
1.01224
1.01012
1.00764
1.00489
1.00201
0.999107
0.996317
0.993728
0.991449
0.989565
1.01613
1.01638
1.01608
1.01538
1.01414
1.01242
1.01026
1.00772
1.00493
1.00199
0.999032
0.99619
0.993554
0.991233
0.989312
1.01637
1.01663
1.01632
1.01561
1.01435
1.0126
1.0104
1.00781
1.00496
1.00197
0.998957
0.996062
0.993377
0.991013
0.989055
1.01661
1.01688
1.01657
1.01585
1.01457
1.01278
1.01054
1.00791
1.005
1.00195
0.998879
0.995931
0.993197
0.99079
0.988794
1.01686
1.01713
1.01682
1.01609
1.01479
1.01297
1.01068
1.008
1.00504
1.00193
0.998801
0.995798
0.993014
0.990563
0.988529
1.01712
1.01739
1.01708
1.01634
1.01501
1.01316
1.01083
1.0081
1.00508
1.00191
0.998721
0.995662
0.992828
0.990333
0.98826
1.01738
1.01766
1.01734
1.01659
1.01524
1.01336
1.01098
1.0082
1.00512
1.00189
0.998639
0.995524
0.992638
0.990098
0.987987
1.01764
1.01793
1.01761
1.01685
1.01548
1.01356
1.01114
1.0083
1.00516
1.00186
0.998556
0.995383
0.992445
0.98986
0.987709
1.01791
1.01821
1.01788
1.01711
1.01572
1.01376
1.01129
1.0084
1.0052
1.00184
0.99847
0.995239
0.992249
0.989618
0.987427
1.01819
1.01849
1.01816
1.01738
1.01596
1.01397
1.01146
1.0085
1.00524
1.00182
0.998383
0.995092
0.992048
0.989371
0.98714
1.01847
1.01878
1.01845
1.01765
1.01621
1.01418
1.01162
1.00861
1.00528
1.00179
0.998293
0.994943
0.991845
0.98912
0.986848
1.01875
1.01907
1.01874
1.01793
1.01647
1.0144
1.01179
1.00872
1.00532
1.00177
0.998201
0.994789
0.991637
0.988865
0.986552
1.01904
1.01937
1.01903
1.01821
1.01673
1.01462
1.01196
1.00883
1.00537
1.00174
0.998108
0.994633
0.991425
0.988606
0.986252
1.01934
1.01967
1.01933
1.0185
1.01699
1.01485
1.01213
1.00894
1.00541
1.00171
0.998011
0.994473
0.991209
0.988341
0.985946
1.01964
1.01998
1.01964
1.0188
1.01726
1.01508
1.01231
1.00905
1.00545
1.00168
0.997912
0.99431
0.990989
0.988073
0.985636
1.01994
1.0203
1.01996
1.0191
1.01754
1.01531
1.01249
1.00916
1.00549
1.00165
0.99781
0.994143
0.990765
0.987799
0.98532
1.02026
1.02062
1.02028
1.01941
1.01782
1.01555
1.01267
1.00928
1.00554
1.00162
0.997706
0.993973
0.990536
0.987521
0.985
1.02058
1.02095
1.0206
1.01973
1.0181
1.0158
1.01286
1.0094
1.00558
1.00159
0.997598
0.993798
0.990302
0.987238
0.984674
1.0209
1.02129
1.02094
1.02005
1.0184
1.01605
1.01305
1.00952
1.00562
1.00155
0.997488
0.99362
0.990065
0.98695
0.984343
1.02123
1.02163
1.02128
1.02038
1.0187
1.0163
1.01324
1.00964
1.00566
1.00151
0.997374
0.993437
0.989821
0.986656
0.984007
1.02157
1.02198
1.02163
1.02071
1.019
1.01656
1.01344
1.00976
1.00571
1.00147
0.997258
0.99325
0.989574
0.986358
0.983665
1.02191
1.02234
1.02198
1.02105
1.01931
1.01682
1.01364
1.00989
1.00575
1.00143
0.997137
0.993058
0.989321
0.986053
0.983318
1.02227
1.0227
1.02234
1.0214
1.01963
1.01709
1.01384
1.01001
1.00579
1.00139
0.997013
0.992863
0.989063
0.985744
0.982965
1.02262
1.02307
1.02271
1.02176
1.01995
1.01736
1.01405
1.01014
1.00583
1.00134
0.996885
0.992661
0.988799
0.985428
0.982606
1.02299
1.02345
1.02309
1.02212
1.02028
1.01764
1.01426
1.01027
1.00587
1.0013
0.996754
0.992456
0.98853
0.985107
0.982242
1.02336
1.02384
1.02347
1.02249
1.02062
1.01793
1.01448
1.0104
1.00591
1.00124
0.996618
0.992245
0.988255
0.98478
0.981871
1.02374
1.02423
1.02386
1.02287
1.02097
1.01822
1.01469
1.01053
1.00595
1.00119
0.996478
0.992029
0.987974
0.984447
0.981495
1.02413
1.02463
1.02426
1.02325
1.02132
1.01852
1.01492
1.01067
1.00599
1.00113
0.996333
0.991807
0.987687
0.984107
0.981112
1.02452
1.02504
1.02467
1.02365
1.02168
1.01882
1.01514
1.0108
1.00603
1.00108
0.996185
0.991579
0.987395
0.983761
0.980724
1.02492
1.02546
1.02509
1.02405
1.02204
1.01913
1.01537
1.01094
1.00606
1.00101
0.99603
0.991346
0.987094
0.983408
0.980328
1.02533
1.02589
1.02552
1.02446
1.02242
1.01944
1.0156
1.01108
1.0061
1.00095
0.995871
0.991106
0.986789
0.983049
0.979927
1.02575
1.02632
1.02595
1.02488
1.0228
1.01976
1.01584
1.01121
1.00613
1.00088
0.995706
0.99086
0.986475
0.982683
0.979518
1.02618
1.02677
1.02639
1.02531
1.02319
1.02009
1.01608
1.01135
1.00616
1.0008
0.995537
0.990608
0.986155
0.98231
0.979103
1.02661
1.02722
1.02685
1.02575
1.02358
1.02042
1.01633
1.01149
1.00619
1.00072
0.99536
0.990348
0.985827
0.981929
0.97868
1.02706
1.02768
1.02731
1.0262
1.02399
1.02076
1.01657
1.01163
1.00622
1.00064
0.995178
0.990081
0.985493
0.981541
0.978251
1.02751
1.02815
1.02778
1.02665
1.0244
1.0211
1.01683
1.01178
1.00624
1.00055
0.994989
0.989807
0.98515
0.981145
0.977814
1.02797
1.02864
1.02827
1.02712
1.02483
1.02145
1.01708
1.01192
1.00627
1.00046
0.994794
0.989526
0.984799
0.980742
0.977371
1.02845
1.02913
1.02876
1.0276
1.02526
1.02181
1.01734
1.01206
1.00629
1.00036
0.994592
0.989235
0.98444
0.98033
0.976919
1.02893
1.02963
1.02926
1.02809
1.0257
1.02218
1.0176
1.0122
1.0063
1.00026
0.994383
0.988938
0.984073
0.979911
0.97646
1.02942
1.03015
1.02978
1.02858
1.02615
1.02255
1.01787
1.01234
1.00632
1.00015
0.994165
0.988631
0.983696
0.979482
0.975993
1.02992
1.03067
1.03031
1.02909
1.02661
1.02293
1.01814
1.01249
1.00633
1.00003
0.99394
0.988316
0.983312
0.979046
0.975518
1.03043
1.03121
1.03084
1.02961
1.02708
1.02331
1.01841
1.01263
1.00633
0.999913
0.993706
0.987991
0.982917
0.978599
0.975035
1.03095
1.03175
1.03139
1.03014
1.02756
1.0237
1.01869
1.01277
1.00634
0.999784
0.993464
0.987658
0.982513
0.978145
0.974544
1.03149
1.03231
1.03196
1.03069
1.02805
1.0241
1.01897
1.01291
1.00633
0.999647
0.993212
0.987313
0.982099
0.97768
0.974044
1.03203
1.03288
1.03253
1.03124
1.02855
1.02451
1.01925
1.01305
1.00632
0.999503
0.992952
0.98696
0.981675
0.977207
0.973537
1.03259
1.03347
1.03312
1.03181
1.02906
1.02493
1.01953
1.01319
1.00631
0.999351
0.99268
0.986594
0.98124
0.976723
0.973019
1.03315
1.03406
1.03372
1.03239
1.02958
1.02535
1.01982
1.01332
1.00629
0.99919
0.992399
0.986219
0.980795
0.976231
0.972494
1.03373
1.03467
1.03433
1.03298
1.03011
1.02578
1.02011
1.01346
1.00627
0.999019
0.992107
0.985832
0.980338
0.975726
0.971959
1.03432
1.0353
1.03496
1.03359
1.03065
1.02621
1.02041
1.01359
1.00624
0.99884
0.991804
0.985433
0.979871
0.975213
0.971416
1.03493
1.03593
1.0356
1.03421
1.0312
1.02666
1.0207
1.01372
1.0062
0.99865
0.991489
0.985022
0.979391
0.974687
0.970862
1.03555
1.03658
1.03626
1.03484
1.03177
1.02711
1.021
1.01384
1.00615
0.998449
0.991162
0.984599
0.9789
0.974152
0.970301
1.03618
1.03725
1.03693
1.03549
1.03235
1.02757
1.0213
1.01396
1.0061
0.998237
0.990821
0.984161
0.978395
0.973604
0.969728
1.03682
1.03793
1.03762
1.03615
1.03294
1.02803
1.0216
1.01408
1.00603
0.998014
0.990468
0.983712
0.977878
0.973046
0.969148
1.03748
1.03862
1.03832
1.03683
1.03354
1.02851
1.02191
1.0142
1.00596
0.997778
0.990101
0.983247
0.977348
0.972475
0.968556
1.03815
1.03933
1.03904
1.03752
1.03415
1.02899
1.02221
1.0143
1.00588
0.997529
0.989719
0.982769
0.976805
0.971894
0.967955
1.03884
1.04006
1.03978
1.03823
1.03478
1.02948
1.02252
1.01441
1.00578
0.997266
0.989322
0.982275
0.976247
0.971299
0.967343
1.03954
1.04081
1.04053
1.03896
1.03542
1.02997
1.02282
1.0145
1.00568
0.996988
0.98891
0.981766
0.975675
0.970693
0.966722
1.04026
1.04157
1.0413
1.0397
1.03608
1.03047
1.02313
1.01459
1.00556
0.996696
0.988481
0.981241
0.975088
0.970072
0.966089
1.041
1.04235
1.04209
1.04046
1.03674
1.03098
1.02343
1.01467
1.00543
0.996387
0.988036
0.9807
0.974487
0.96944
0.965447
1.04175
1.04315
1.0429
1.04124
1.03742
1.0315
1.02374
1.01475
1.00529
0.996062
0.987573
0.980141
0.97387
0.968793
0.964792
1.04252
1.04396
1.04373
1.04204
1.03812
1.03203
1.02404
1.01481
1.00513
0.995719
0.987091
0.979566
0.973237
0.968135
0.964128
1.04331
1.0448
1.04458
1.04285
1.03883
1.03256
1.02434
1.01486
1.00496
0.995358
0.986591
0.978971
0.972588
0.96746
0.96345
1.04411
1.04565
1.04545
1.04369
1.03955
1.0331
1.02464
1.01491
1.00477
0.994978
0.98607
0.978359
0.971923
0.966774
0.962763
1.04494
1.04653
1.04634
1.04454
1.04029
1.03364
1.02493
1.01494
1.00456
0.994577
0.985529
0.977726
0.97124
0.966071
0.962062
1.04578
1.04743
1.04726
1.04542
1.04105
1.03419
1.02522
1.01496
1.00433
0.994155
0.984967
0.977075
0.97054
0.965355
0.961351
1.04664
1.04835
1.04819
1.04632
1.04182
1.03474
1.02551
1.01496
1.00409
0.993711
0.984383
0.976402
0.969822
0.964623
0.960626
1.04753
1.04929
1.04915
1.04723
1.0426
1.0353
1.02578
1.01495
1.00382
0.993243
0.983775
0.975709
0.969086
0.963877
0.959891
1.04843
1.05026
1.05014
1.04818
1.0434
1.03587
1.02606
1.01492
1.00353
0.992751
0.983144
0.974994
0.968331
0.963114
0.95914
1.04936
1.05125
1.05115
1.04914
1.04422
1.03644
1.02632
1.01488
1.00322
0.992234
0.982488
0.974258
0.967558
0.962337
0.958379
1.05031
1.05227
1.05219
1.05013
1.04505
1.03701
1.02657
1.01481
1.00288
0.991689
0.981807
0.973498
0.966765
0.961542
0.957602
1.05128
1.05331
1.05325
1.05114
1.04589
1.03758
1.02681
1.01472
1.00251
0.991118
0.981099
0.972715
0.965953
0.960732
0.956814
1.05227
1.05438
1.05434
1.05218
1.04676
1.03816
1.02705
1.01461
1.00212
0.990516
0.980364
0.971907
0.965119
0.959904
0.95601
1.0533
1.05547
1.05546
1.05324
1.04763
1.03874
1.02726
1.01448
1.0017
0.989885
0.979601
0.971076
0.964266
0.959061
0.955194
1.05434
1.0566
1.05661
1.05433
1.04853
1.03931
1.02746
1.01432
1.00124
0.989222
0.978808
0.970219
0.963391
0.958199
0.954362
1.05542
1.05775
1.0578
1.05544
1.04944
1.03989
1.02765
1.01413
1.00076
0.988526
0.977986
0.969337
0.962496
0.95732
0.953518
1.05652
1.05894
1.05901
1.05659
1.05036
1.04046
1.02781
1.01392
1.00024
0.987795
0.977133
0.968427
0.961577
0.956423
0.952657
1.05764
1.06016
1.06026
1.05776
1.0513
1.04103
1.02795
1.01366
0.999678
0.987029
0.976248
0.967492
0.960638
0.955509
0.951783
1.0588
1.06141
1.06154
1.05896
1.05225
1.0416
1.02807
1.01338
0.999082
0.986226
0.97533
0.966528
0.959675
0.954575
0.950892
1.05999
1.06269
1.06286
1.06019
1.05322
1.04215
1.02817
1.01306
0.998444
0.985385
0.974378
0.965536
0.95869
0.953623
0.949988
1.06121
1.06401
1.06422
1.06145
1.0542
1.0427
1.02823
1.0127
0.997765
0.984503
0.973392
0.964516
0.957681
0.952652
0.949067
1.06246
1.06537
1.06561
1.06275
1.05519
1.04323
1.02826
1.01229
0.99704
0.98358
0.97237
0.963466
0.956649
0.951663
0.948132
1.06375
1.06677
1.06705
1.06407
1.05619
1.04375
1.02826
1.01184
0.996269
0.982614
0.971311
0.962386
0.955592
0.950653
0.94718
1.06507
1.0682
1.06852
1.06543
1.05721
1.04426
1.02822
1.01134
0.995449
0.981604
0.970215
0.961276
0.954511
0.949625
0.946214
1.06642
1.06968
1.07004
1.06682
1.05823
1.04474
1.02814
1.01079
0.994577
0.980548
0.969081
0.960134
0.953405
0.948576
0.945231
1.06782
1.0712
1.07161
1.06824
1.05926
1.0452
1.02802
1.01019
0.993652
0.979444
0.967907
0.958962
0.952275
0.947509
0.944233
1.06925
1.07277
1.07322
1.0697
1.06029
1.04564
1.02784
1.00953
0.99267
0.978292
0.966693
0.957757
0.951119
0.94642
0.943217
1.07072
1.07438
1.07488
1.07119
1.06133
1.04604
1.02761
1.0088
0.99163
0.977089
0.965439
0.95652
0.949938
0.945313
0.942187
1.07224
1.07604
1.0766
1.07272
1.06237
1.04641
1.02732
1.00801
0.990529
0.975835
0.964142
0.95525
0.94873
0.944184
0.94114
1.0738
1.07776
1.07836
1.07428
1.06341
1.04674
1.02697
1.00716
0.989365
0.974527
0.962803
0.953947
0.947498
0.943036
0.940078
1.0754
1.07953
1.08018
1.07587
1.06444
1.04702
1.02656
1.00623
0.988136
0.973165
0.961421
0.952609
0.946238
0.941867
0.938999
1.07705
1.08135
1.08206
1.0775
1.06546
1.04726
1.02606
1.00522
0.986838
0.971747
0.959995
0.951239
0.944954
0.940678
0.937905
1.07875
1.08324
1.08399
1.07916
1.06647
1.04743
1.02549
1.00413
0.985469
0.970271
0.958523
0.949833
0.943642
0.939468
0.936794
1.0805
1.08518
1.08599
1.08085
1.06745
1.04755
1.02484
1.00296
0.984027
0.968737
0.957007
0.948394
0.942305
0.938238
0.935667
1.08231
1.0872
1.08805
1.08257
1.06842
1.04759
1.02409
1.0017
0.98251
0.967143
0.955445
0.94692
0.940941
0.936988
0.934524
1.08417
1.08928
1.09018
1.08432
1.06935
1.04756
1.02325
1.00035
0.980916
0.965489
0.953838
0.945412
0.939551
0.935717
0.933366
1.08609
1.09143
1.09237
1.08609
1.07025
1.04743
1.0223
0.9989
0.979241
0.963773
0.952183
0.943868
0.938135
0.934426
0.932191
1.08807
1.09366
1.09464
1.08789
1.07111
1.04722
1.02124
0.997349
0.977485
0.961994
0.950483
0.942291
0.936693
0.933116
0.931001
1.09011
1.09597
1.09697
1.08971
1.07191
1.0469
1.02007
0.995692
0.975645
0.960151
0.948735
0.940679
0.935225
0.931785
0.929795
1.09222
1.09836
1.09938
1.09154
1.07264
1.04646
1.01876
0.993926
0.973719
0.958245
0.946941
0.939033
0.933733
0.930435
0.928574
1.0944
1.10084
1.10187
1.09339
1.07331
1.0459
1.01733
0.992047
0.971705
0.956275
0.9451
0.937353
0.932214
0.929066
0.927338
1.09665
1.10342
1.10444
1.09523
1.07388
1.0452
1.01575
0.99005
0.969603
0.95424
0.943213
0.93564
0.930671
0.927677
0.926086
1.09898
1.1061
1.10708
1.09707
1.07436
1.04435
1.01403
0.987933
0.967411
0.95214
0.94128
0.933894
0.929104
0.926269
0.924819
1.1014
1.10888
1.1098
1.0989
1.07473
1.04334
1.01215
0.985692
0.965129
0.949975
0.939302
0.932115
0.927512
0.924843
0.923537
1.10389
1.11177
1.1126
1.1007
1.07497
1.04216
1.01011
0.983324
0.962754
0.947747
0.937279
0.930305
0.925897
0.923399
0.922241
1.10648
1.11479
1.11548
1.10247
1.07506
1.04078
1.00789
0.980827
0.960289
0.945454
0.935212
0.928464
0.92426
0.921937
0.92093
1.10916
1.11793
1.11843
1.10419
1.07499
1.0392
1.0055
0.978199
0.957731
0.943099
0.933102
0.926593
0.9226
0.920458
0.919606
1.11195
1.1212
1.12146
1.10585
1.07473
1.03741
1.00293
0.975438
0.955082
0.940682
0.930951
0.924693
0.920919
0.918961
0.918267
1.11484
1.12461
1.12456
1.10742
1.07427
1.03538
1.00016
0.972543
0.952343
0.938205
0.928759
0.922765
0.919217
0.917449
0.916915
1.11785
1.12816
1.12772
1.10888
1.07358
1.03311
0.9972
0.969513
0.949514
0.935669
0.926529
0.92081
0.917495
0.91592
0.915549
1.12098
1.13188
1.13093
1.11022
1.07264
1.03057
0.994041
0.966349
0.946598
0.933075
0.924261
0.91883
0.915754
0.914376
0.91417
1.12424
1.13575
1.13419
1.11141
1.07142
1.02776
0.990678
0.963053
0.943596
0.930427
0.921958
0.916825
0.913995
0.912817
0.912778
1.12764
1.1398
1.13749
1.11241
1.06989
1.02466
0.987109
0.959625
0.940511
0.927726
0.919621
0.914798
0.912218
0.911244
0.911375
1.1312
1.14403
1.14079
1.11319
1.06803
1.02125
0.983334
0.956068
0.937346
0.924976
0.917254
0.912749
0.910425
0.909657
0.909959
1.13491
1.14844
1.1441
1.11373
1.0658
1.01754
0.979352
0.952387
0.934105
0.922179
0.914857
0.91068
0.908617
0.908057
0.908532
1.13881
1.15304
1.14737
1.11397
1.06318
1.0135
0.975165
0.948585
0.930791
0.919339
0.912434
0.908594
0.906794
0.906445
0.907093
1.14289
1.15784
1.15059
1.11387
1.06014
1.00913
0.970777
0.944667
0.927409
0.916458
0.909987
0.906491
0.904959
0.904822
0.905645
1.14718
1.16284
1.15372
1.11339
1.05664
1.00442
0.966194
0.940641
0.923964
0.913542
0.907519
0.904374
0.903111
0.903187
0.904185
1.1517
1.16803
1.15672
1.11248
1.05266
0.999369
0.961422
0.936512
0.920461
0.910593
0.905033
0.902244
0.901253
0.901543
0.902716
1.15646
1.17343
1.15954
1.11108
1.04816
0.99398
0.956471
0.93229
0.916907
0.907618
0.902532
0.900103
0.899384
0.899888
0.901237
1.16149
1.17901
1.16213
1.10913
1.04314
0.988255
0.951353
0.927982
0.913306
0.904619
0.900018
0.897954
0.897508
0.898227
0.899751
1.16681
1.18477
1.16443
1.10658
1.03755
0.982201
0.94608
0.923598
0.909666
0.901602
0.897496
0.895797
0.895623
0.896556
0.898256
1.17246
1.19069
1.16636
1.10336
1.03139
0.975832
0.940668
0.919147
0.905993
0.898572
0.894968
0.893635
0.893733
0.89488
0.896754
1.17846
1.19674
1.16786
1.0994
1.02464
0.969164
0.935135
0.914642
0.902296
0.895534
0.892438
0.89147
0.891838
0.893197
0.895244
1.18484
1.2029
1.16882
1.09465
1.0173
0.962219
0.929499
0.910092
0.898581
0.892494
0.889908
0.889305
0.88994
0.891511
0.893729
1.19164
1.20911
1.16916
1.08904
1.00936
0.955025
0.92378
0.90551
0.894856
0.889456
0.887383
0.887139
0.888039
0.889819
0.892206
1.1989
1.21532
1.16877
1.08251
1.00084
0.947615
0.917998
0.900905
0.89113
0.886427
0.884865
0.884977
0.886139
0.888126
0.89068
1.20666
1.22145
1.16752
1.07501
0.991758
0.940025
0.912177
0.896292
0.887411
0.883411
0.882356
0.882819
0.884239
0.88643
0.889146
1.21497
1.22743
1.1653
1.06649
0.982144
0.932298
0.906337
0.89168
0.883707
0.880415
0.879862
0.880668
0.882342
0.884735
0.887609
1.22385
1.23313
1.16196
1.0569
0.972046
0.924481
0.900502
0.887084
0.880027
0.877443
0.877383
0.878525
0.880447
0.883038
0.886064
1.23336
1.23844
1.15737
1.04624
0.961522
0.916619
0.894691
0.882513
0.87638
0.874501
0.874923
0.876392
0.87856
0.881343
0.884516
1.24354
1.24319
1.15139
1.03448
0.950646
0.908766
0.888925
0.87798
0.872774
0.871593
0.872484
0.874272
0.876678
0.879649
0.88296
1.25441
1.24721
1.14386
1.02165
0.939506
0.900969
0.883221
0.873497
0.869217
0.868723
0.870069
0.872167
0.874806
0.877956
0.881399
1.266
1.25027
1.13463
1.00779
0.928203
0.893279
0.8776
0.869077
0.865719
0.865897
0.867681
0.870078
0.872943
0.876263
0.879829