/*--------------------------------*- C++ -*----------------------------------*\
  =========                 |
  \\      /  F ield         | OpenFOAM: The Open Source CFD Toolbox
   \\    /   O peration     | Website:  https://openfoam.org
    \\  /    A nd           | Version:  6.0
     \\/     M anipulation  |
\*---------------------------------------------------------------------------*/
FoamFile
{
    version     2.0;
    format      ascii;
    class       volVectorField;
    location    "57";
    object      U;
}
// * * * * * * * * * * * * * * * * * * * * * * * * * * * * * * * * * * * * * //

dimensions      [0 1 -1 0 0 0 0];

internalField   nonuniform List<vector> 
2000
(
(-0.00199122 0.00173833 5.72897e-20)
(-0.00762156 0.00330251 6.80426e-20)
(-0.0153301 0.00366178 -6.48678e-20)
(-0.0223323 0.00333747 -1.32364e-19)
(-0.0276804 0.00263984 -9.24635e-20)
(-0.0312213 0.00177202 1.23181e-19)
(-0.0330527 0.000879412 7.17492e-20)
(-0.0334436 6.87022e-05 -2.90248e-20)
(-0.0328262 -0.000580978 -7.24567e-20)
(-0.0314952 -0.00100574 5.28306e-20)
(-0.00248969 0.00512128 -1.42006e-19)
(-0.00837065 0.00968539 1.96036e-19)
(-0.0157252 0.0106973 1.95484e-20)
(-0.022025 0.00969721 -1.13551e-19)
(-0.0264593 0.00759799 5.43355e-19)
(-0.0289517 0.00499653 -2.39137e-19)
(-0.0296475 0.00232116 -2.58715e-19)
(-0.0288424 -0.000109826 3.12043e-19)
(-0.0269847 -0.00205471 -3.07748e-19)
(-0.0244468 -0.00332103 1.55254e-19)
(-0.00343574 0.00822483 2.35846e-20)
(-0.00972806 0.0154094 8.3882e-21)
(-0.0163015 0.0168859 5.87514e-19)
(-0.0211436 0.01514 2.06095e-19)
(-0.0237176 0.0116331 4.08752e-20)
(-0.0240981 0.00731671 3.3802e-19)
(-0.0225237 0.00287677 -6.42024e-19)
(-0.0193385 -0.00116393 1.39244e-20)
(-0.0150202 -0.00438862 -3.79648e-19)
(-0.010103 -0.0064737 4.18227e-19)
(-0.00472403 0.0108679 -4.4365e-20)
(-0.0114033 0.0200602 2.55239e-19)
(-0.0166177 0.0217188 -7.43651e-19)
(-0.0191361 0.019149 -9.61238e-20)
(-0.018832 0.0142673 -5.47352e-19)
(-0.0160035 0.00831147 5.66872e-19)
(-0.0110228 0.00217616 -6.01274e-19)
(-0.00429655 -0.00342954 4.22266e-19)
(0.00366272 -0.00789588 1.77522e-19)
(0.012063 -0.0107637 -2.00596e-19)
(-0.00618705 0.0128747 -4.93785e-19)
(-0.0129399 0.0232572 4.45591e-21)
(-0.0159822 0.0247663 9.16071e-19)
(-0.0151343 0.0213426 2.74635e-19)
(-0.0108146 0.015225 -8.7324e-19)
(-0.00361589 0.00783535 5.42999e-19)
(0.00591809 0.000196398 6.15479e-19)
(0.0173136 -0.00683839 -5.48747e-19)
(0.0300352 -0.0124517 3.91252e-19)
(0.0429231 -0.0160459 9.60768e-20)
(-0.00758375 0.0140743 6.74971e-20)
(-0.0136957 0.0246648 1.25187e-20)
(-0.0134291 0.0257005 -1.17119e-18)
(-0.00792073 0.0215114 -6.55219e-19)
(0.00173555 0.0144921 7.8162e-19)
(0.0145785 0.00611554 -9.1531e-19)
(0.0298492 -0.00258951 1.04885e-18)
(0.0470084 -0.0107139 -9.0598e-20)
(0.065539 -0.0172481 -2.95075e-19)
(0.0837986 -0.0214694 -8.57617e-19)
(-0.00858781 0.014304 -1.46871e-19)
(-0.0128318 0.0240055 -2.68247e-19)
(-0.00771334 0.0243087 -3.29556e-19)
(0.00407927 0.0196268 7.03031e-19)
(0.0206595 0.0123269 1.30412e-18)
(0.0406175 0.0037848 -2.69543e-19)
(0.0629138 -0.00513192 -6.5602e-19)
(0.0869287 -0.0136317 2.00087e-19)
(0.112249 -0.0206139 -1.26006e-18)
(0.136672 -0.0252819 1.38407e-18)
(-0.00878373 0.0134241 8.9827e-19)
(-0.00932804 0.0210859 -4.90319e-19)
(0.00264607 0.0205022 9.57249e-19)
(0.0227355 0.0158175 -1.56395e-18)
(0.0481732 0.00920566 -7.4728e-19)
(0.0770138 0.00182635 -1.03508e-18)
(0.107829 -0.00579385 3.00719e-19)
(0.139842 -0.0132481 -8.37262e-19)
(0.172876 -0.0195724 1.82327e-18)
(0.204272 -0.024079 5.1039e-19)
(-0.00768224 0.0113475 6.61293e-20)
(-0.00204467 0.015839 7.9869e-19)
(0.0192553 0.0143225 1.58718e-18)
(0.0500645 0.0103002 4.85008e-19)
(0.0867017 0.00565936 1.43555e-18)
(0.126594 0.00136015 7.86849e-20)
(0.167732 -0.00240702 -7.09214e-22)
(0.208919 -0.00569215 5.78753e-19)
(0.250232 -0.00783835 4.68105e-19)
(0.289113 -0.00926193 -1.51927e-18)
(-0.00477046 0.00808577 -5.32099e-19)
(0.0101469 0.00838452 -8.91188e-19)
(0.0436435 0.00593787 -1.29538e-18)
(0.0879959 0.00320913 3.0611e-20)
(0.138749 0.00175693 -6.60369e-19)
(0.192804 0.00254297 1.04082e-18)
(0.247586 0.00588953 -2.86548e-18)
(0.30116 0.0120154 1.28647e-18)
(0.352881 0.0215154 4.83549e-19)
(0.400028 0.0302482 1.51713e-18)
(0.000388677 0.00380852 2.66173e-19)
(0.0281179 -0.000874413 -1.01894e-18)
(0.0768093 -0.00427283 9.09816e-19)
(0.137563 -0.00546139 -3.52978e-19)
(0.205553 -0.00344237 3.83943e-19)
(0.277819 0.00270791 8.35868e-19)
(0.352527 0.0137259 -1.12225e-18)
(0.429273 0.0305533 1.45809e-19)
(0.509035 0.0524535 -5.37767e-19)
(0.594169 0.0694539 1.0911e-18)
(0.00806019 -0.00110794 3.81364e-19)
(0.0522601 -0.0110931 -9.23805e-19)
(0.118756 -0.0153294 1.25868e-18)
(0.197748 -0.0150187 -7.83866e-19)
(0.284048 -0.0102793 -2.87556e-19)
(0.374603 -0.000971788 1.70247e-19)
(0.467605 0.0128154 8.80211e-20)
(0.562487 0.0307703 1.19394e-18)
(0.658901 0.0501773 3.4371e-19)
(0.754557 0.0623404 1.46941e-18)
(0.018352 -0.00610193 -3.40399e-19)
(0.0826125 -0.0209185 1.19443e-18)
(0.169007 -0.0252636 -9.96638e-19)
(0.267054 -0.022831 -1.16885e-18)
(0.371087 -0.0151006 1.63535e-18)
(0.477614 -0.00286561 -1.24343e-18)
(0.584238 0.0129433 3.28446e-19)
(0.689404 0.0312141 -1.94708e-18)
(0.791332 0.0492643 1.4585e-18)
(0.886039 0.0617496 7.28723e-20)
(0.0312702 -0.0105458 -4.43622e-19)
(0.118976 -0.0287937 -4.28431e-19)
(0.226869 -0.0317842 -9.1231e-19)
(0.344062 -0.0258912 1.10583e-18)
(0.464446 -0.0140393 -5.58543e-20)
(0.584059 0.00207634 7.14919e-19)
(0.699967 0.0208543 1.30421e-18)
(0.809928 0.0407968 -4.00789e-19)
(0.911576 0.0598093 -1.41761e-18)
(1.0009 0.0748785 2.81449e-18)
(0.0467452 -0.0138316 -2.29305e-19)
(0.16091 -0.0332167 -2.73515e-19)
(0.291339 -0.03278 4.92212e-19)
(0.427113 -0.0216645 -9.1489e-19)
(0.561883 -0.00426153 1.56304e-19)
(0.691439 0.0168805 1.39095e-19)
(0.812662 0.039613 6.1e-20)
(0.923199 0.0622303 -9.85866e-21)
(1.02086 0.0832295 -1.49426e-19)
(1.10226 0.100992 -2.37938e-18)
(0.0646184 -0.0153976 9.30815e-19)
(0.207682 -0.0328631 -6.49605e-19)
(0.360982 -0.0265371 8.30769e-21)
(0.514052 -0.00833833 -9.89343e-19)
(0.660652 0.0159069 -3.53959e-19)
(0.7967 0.0428758 3.30956e-19)
(0.919359 0.0699943 2.57015e-19)
(1.02673 0.0954718 -9.15863e-19)
(1.11735 0.118343 7.48588e-19)
(1.18885 0.137793 -9.81504e-19)
(0.0846109 -0.0147325 4.01744e-19)
(0.258228 -0.0266431 -3.57044e-19)
(0.433899 -0.0118354 1.48301e-18)
(0.602223 0.015101 1.51203e-19)
(0.757549 0.0470193 3.47494e-19)
(0.896411 0.0799696 1.54879e-18)
(1.01678 0.111131 -2.36812e-19)
(1.11772 0.138798 2.1577e-19)
(1.19888 0.162564 8.93471e-20)
(1.25919 0.182097 -1.09969e-19)
(0.106293 -0.0113861 2.80676e-19)
(0.31114 -0.0137427 6.7481e-19)
(0.507779 0.0120121 -7.22883e-19)
(0.688607 0.0488896 -2.44722e-19)
(0.849157 0.0886661 -3.02308e-19)
(0.987142 0.127018 4.68411e-19)
(1.10185 0.161148 -2.43644e-19)
(1.19374 0.189675 6.55496e-19)
(1.26384 0.212847 2.20581e-19)
(1.31249 0.230667 -3.59616e-19)
(0.129071 -0.00499455 -3.02463e-19)
(0.364701 0.00632851 2.68842e-19)
(0.580014 0.0451371 -5.73656e-19)
(0.770037 0.092543 2.47447e-19)
(0.932157 0.139656 -2.56758e-19)
(1.06583 0.182158 -3.20444e-19)
(1.17213 0.217628 -2.57328e-19)
(1.25319 0.245301 2.87581e-19)
(1.3115 0.266204 -5.422e-19)
(1.34885 0.280637 3.27669e-19)
(0.152191 0.00468204 -1.07814e-19)
(0.416945 0.0336823 -2.10896e-19)
(0.647852 0.0871018 1.00428e-19)
(0.843431 0.144924 6.1918e-21)
(1.0036 0.198186 8.3329e-20)
(1.13007 0.243068 1.1432e-19)
(1.22601 0.277938 1.05949e-19)
(1.29535 0.302935 -1.40493e-19)
(1.34201 0.31998 1.19606e-19)
(1.36911 0.329676 -1.87177e-19)
(0.174775 0.017719 -6.2409e-20)
(0.465772 0.0680015 -2.34115e-20)
(0.708578 0.1369 9.31612e-20)
(0.906006 0.204326 -4.28882e-20)
(1.0611 0.262007 1.14309e-19)
(1.17821 0.307192 -1.47593e-19)
(1.26274 0.339451 3.42079e-20)
(1.32037 0.360077 3.67045e-20)
(1.35627 0.371952 -1.53844e-20)
(1.37464 0.375987 5.82065e-20)
(0.195856 0.0339917 -6.73276e-20)
(0.509069 0.10851 -3.04676e-19)
(0.759689 0.192986 -2.11022e-20)
(0.955467 0.268575 6.27143e-21)
(1.10299 0.328579 -3.9627e-19)
(1.20943 0.371907 5.23873e-20)
(1.28239 0.399693 -4.46e-20)
(1.3291 0.414557 -1.07575e-19)
(1.35567 0.42033 2.24275e-19)
(1.36714 0.418232 -4.0892e-19)
(0.214444 0.0531504 -3.25169e-20)
(0.54485 0.15397 6.17056e-19)
(0.799063 0.253335 9.94242e-20)
(0.990133 0.335148 -5.43236e-19)
(1.12837 0.395217 -4.40512e-20)
(1.22372 0.434653 -5.20569e-19)
(1.28574 0.456425 3.81586e-19)
(1.32289 0.464539 -1.38445e-19)
(1.34191 0.463703 2.45594e-19)
(1.34841 0.45542 -1.79439e-19)
(0.229586 0.0746121 -2.05051e-19)
(0.571392 0.202718 1.95837e-19)
(0.825092 0.315541 -1.41352e-19)
(1.00902 0.401307 1.06544e-18)
(1.13708 0.459223 5.25825e-19)
(1.22172 0.493028 -1.21913e-19)
(1.27409 0.507671 4.10713e-19)
(1.30345 0.508499 -2.70251e-19)
(1.31688 0.500956 -7.52866e-20)
(1.32028 0.486799 4.93967e-19)
(0.240435 0.0975683 -3.54915e-19)
(0.587355 0.252731 4.51647e-19)
(0.836772 0.376931 -8.88609e-19)
(1.01185 0.464233 1.24791e-19)
(1.12966 0.51799 2.78861e-19)
(1.20468 0.544843 -4.27648e-19)
(1.24914 0.551725 -4.97908e-19)
(1.27272 0.545172 2.18554e-19)
(1.28252 0.531184 -2.63163e-19)
(1.28453 0.511755 3.15938e-19)
(0.246311 0.121013 -8.96744e-20)
(0.591872 0.301725 -4.59565e-19)
(0.833754 0.434707 2.54251e-19)
(0.999029 0.521159 4.26361e-19)
(1.10725 0.569097 -2.56401e-19)
(1.17428 0.588156 -1.91024e-19)
(1.21287 0.587119 -1.04299e-19)
(1.23273 0.573484 -5.15618e-20)
(1.24077 0.553598 1.07858e-20)
(1.24291 0.52972 1.07508e-19)
(0.246759 0.143785 6.58182e-20)
(0.584617 0.347278 -3.85617e-19)
(0.816339 0.486098 6.43163e-19)
(0.971581 0.569494 -3.81067e-19)
(1.07145 0.610386 1.06476e-19)
(1.13247 0.621291 -1.51052e-19)
(1.16741 0.612602 1.62614e-19)
(1.18559 0.592496 3.11458e-20)
(1.19356 0.567431 -7.80179e-20)
(1.19711 0.540022 1.5153e-19)
(0.241593 0.164635 -1.73025e-19)
(0.565832 0.386974 3.38032e-19)
(0.785448 0.528508 -1.52033e-20)
(0.931025 0.60695 -7.32221e-20)
(1.02419 0.640034 -2.01308e-19)
(1.08145 0.642882 2.48048e-20)
(1.11501 0.627183 6.15362e-20)
(1.1335 0.601458 -1.51525e-19)
(1.14302 0.571983 1.76973e-19)
(1.1492 0.541879 1.50329e-19)
(0.230935 0.18231 3.84264e-20)
(0.536325 0.418562 -8.09272e-20)
(0.742531 0.559669 2.42478e-20)
(0.879239 0.631621 1.24407e-20)
(0.967553 0.656554 7.79789e-20)
(1.02334 0.651785 -1.4407e-19)
(1.05788 0.629967 -3.01355e-19)
(1.07891 0.599657 -1.22931e-19)
(1.09213 0.566623 -1.57126e-19)
(1.10255 0.534701 1.3313e-19)
(0.21523 0.195653 1.10789e-19)
(0.49743 0.44013 -1.71724e-19)
(0.689467 0.577805 1.65749e-19)
(0.818263 0.64211 -3.14836e-19)
(0.903421 0.658818 7.6386e-20)
(0.959695 0.646834 5.16205e-19)
(0.997278 0.619363 -1.58295e-19)
(1.02316 0.584703 1.88173e-19)
(1.04271 0.548005 2.75481e-19)
(1.05903 0.515028 1.002e-18)
(0.195249 0.203726 6.80464e-19)
(0.450967 0.450295 -4.63021e-19)
(0.628513 0.581864 1.12683e-18)
(0.750268 0.637905 -1.92984e-19)
(0.833389 0.646759 9.66776e-19)
(0.891057 0.628052 6.06548e-19)
(0.93231 0.594737 -1.42499e-18)
(0.96357 0.55388 2.16352e-18)
(0.989456 0.507899 -4.57215e-19)
(1.00632 0.461007 8.9968e-19)
(0.17205 0.205874 -3.75361e-19)
(0.399204 0.448254 -2.67607e-19)
(0.562391 0.571529 2.58804e-19)
(0.677928 0.619481 -6.41014e-19)
(0.759661 0.622009 -2.00217e-18)
(0.818699 0.598991 -8.05201e-19)
(0.862692 0.563188 -7.25751e-19)
(0.897113 0.521741 3.51223e-19)
(0.925116 0.478159 2.92727e-18)
(0.942605 0.437392 -6.08909e-19)
(0.146894 0.201721 1.97538e-19)
(0.344727 0.433649 -7.9943e-19)
(0.494241 0.546774 1.75834e-19)
(0.604666 0.587133 -1.28048e-18)
(0.686058 0.585016 2.80349e-18)
(0.747292 0.559929 -3.24925e-19)
(0.794583 0.52408 1.52765e-18)
(0.832423 0.484257 -2.18835e-18)
(0.863341 0.443962 6.86539e-19)
(0.884648 0.407477 1.06207e-19)
(0.121118 0.191156 1.4562e-19)
(0.290163 0.40655 8.81729e-19)
(0.427119 0.507894 -2.58996e-18)
(0.533587 0.541229 1.26029e-18)
(0.615632 0.535982 -4.16087e-21)
(0.679887 0.510616 -4.25288e-19)
(0.731204 0.47643 5.35227e-19)
(0.773236 0.439624 -5.31934e-19)
(0.808165 0.403351 -1.82851e-18)
(0.834247 0.370865 -5.01006e-19)
(0.0960486 0.174334 4.7648e-19)
(0.238033 0.367474 5.34623e-19)
(0.363854 0.455615 2.20822e-18)
(0.467419 0.482513 -1.22844e-18)
(0.550831 0.4755 2.53214e-18)
(0.618565 0.451352 -5.45426e-19)
(0.674213 0.420139 -5.76535e-19)
(0.720699 0.387299 6.81307e-19)
(0.759931 0.355515 4.44209e-19)
(0.790869 0.327125 1.6106e-18)
(0.0729448 0.15167 -4.8356e-19)
(0.190664 0.317377 1.57842e-19)
(0.306988 0.391111 4.26869e-20)
(0.408535 0.412151 1.25235e-18)
(0.493702 0.404589 -3.12607e-18)
(0.56499 0.382954 5.31053e-19)
(0.624864 0.355821 1.17263e-18)
(0.675617 0.327751 -1.41765e-18)
(0.718933 0.300911 4.9943e-19)
(0.754394 0.276898 -2.31789e-18)
(0.0529469 0.123826 1.03049e-19)
(0.150114 0.257626 5.55921e-19)
(0.258722 0.315974 2.16216e-19)
(0.358945 0.331692 2.93022e-19)
(0.445941 0.324635 5.61474e-19)
(0.520504 0.306609 1.67169e-18)
(0.584154 0.284488 -2.04677e-18)
(0.638655 0.261882 -1.1528e-18)
(0.685522 0.240441 1.9104e-19)
(0.724903 0.221195 1.50298e-18)
(0.0370318 0.0916908 -6.23151e-19)
(0.118111 0.189953 -7.41313e-20)
(0.220874 0.23216 -6.2098e-19)
(0.320288 0.243022 8.84369e-20)
(0.408909 0.237333 -5.31594e-19)
(0.486184 0.2238 -6.0691e-19)
(0.55289 0.207442 -9.0445e-19)
(0.610384 0.190868 2.43724e-18)
(0.660066 0.175233 4.20486e-19)
(0.702561 0.161149 -6.40956e-19)
(0.0259729 0.0563424 3.35846e-19)
(0.0960029 0.116392 4.43912e-19)
(0.194847 0.141927 1.74894e-19)
(0.293812 0.148292 -9.43903e-19)
(0.38364 0.144614 -4.39429e-19)
(0.462844 0.136226 -9.4624e-20)
(0.531693 0.126185 1.84898e-19)
(0.591264 0.116066 1.48464e-19)
(0.642892 0.106552 -1.14804e-18)
(0.687548 0.0979587 6.58767e-19)
(0.0203063 0.0190052 -1.74895e-19)
(0.084714 0.0392056 -1.98972e-19)
(0.181592 0.0477521 1.58584e-19)
(0.280362 0.0498477 1.40795e-19)
(0.370831 0.0485768 1.44295e-19)
(0.451036 0.0457361 2.20675e-19)
(0.520987 0.0423508 -1.16023e-20)
(0.581621 0.0389484 -2.89467e-19)
(0.634242 0.0357542 2.74962e-19)
(0.680003 0.0328652 -4.13692e-19)
(0.0203063 -0.0190052 -1.76045e-19)
(0.084714 -0.0392056 -1.89616e-19)
(0.181592 -0.047752 1.74745e-19)
(0.280362 -0.0498476 3.42134e-19)
(0.370831 -0.0485767 2.27968e-19)
(0.451036 -0.045736 -3.00378e-19)
(0.520987 -0.0423508 -1.63223e-19)
(0.581621 -0.0389483 7.11806e-20)
(0.634242 -0.0357542 1.60033e-19)
(0.680003 -0.0328652 -9.52971e-20)
(0.0259729 -0.0563424 4.20122e-19)
(0.0960029 -0.116392 -5.3393e-19)
(0.194847 -0.141927 -4.44096e-20)
(0.293812 -0.148292 2.95834e-19)
(0.38364 -0.144613 -1.33752e-18)
(0.462844 -0.136226 5.71508e-19)
(0.531693 -0.126185 5.89959e-19)
(0.591264 -0.116066 -6.96474e-19)
(0.642892 -0.106552 6.65299e-19)
(0.687548 -0.0979586 -2.92006e-19)
(0.0370318 -0.0916908 -7.26359e-20)
(0.118111 -0.189953 -9.26705e-21)
(0.220874 -0.23216 -1.44218e-18)
(0.320288 -0.243022 -4.58787e-19)
(0.408909 -0.237333 -4.83721e-20)
(0.486184 -0.2238 -7.54747e-19)
(0.55289 -0.207442 1.40629e-18)
(0.610384 -0.190868 -4.94209e-20)
(0.660066 -0.175233 8.03023e-19)
(0.702561 -0.161149 -7.06084e-19)
(0.0529468 -0.123826 1.22673e-19)
(0.150114 -0.257626 -5.67947e-19)
(0.258722 -0.315974 1.74758e-18)
(0.358945 -0.331692 2.47299e-19)
(0.445941 -0.324635 1.21578e-18)
(0.520504 -0.306609 -1.18859e-18)
(0.584154 -0.284488 1.24778e-18)
(0.638655 -0.261882 -8.99614e-19)
(0.685522 -0.240441 -3.95066e-19)
(0.724903 -0.221195 3.35615e-19)
(0.0729448 -0.15167 1.09541e-18)
(0.190664 -0.317377 2.80495e-21)
(0.306988 -0.391111 -1.84178e-18)
(0.408535 -0.412151 -5.34359e-19)
(0.493702 -0.404588 1.77429e-18)
(0.56499 -0.382953 -1.03984e-18)
(0.624864 -0.35582 -1.2038e-18)
(0.675617 -0.327751 1.08311e-18)
(0.718933 -0.300911 -7.37382e-19)
(0.754394 -0.276898 -1.58974e-19)
(0.0960486 -0.174334 -1.63517e-19)
(0.238033 -0.367474 -7.7559e-21)
(0.363854 -0.455615 1.99878e-18)
(0.467419 -0.482513 1.14608e-18)
(0.550831 -0.4755 -1.3515e-18)
(0.618565 -0.451352 1.63638e-18)
(0.674213 -0.420139 -1.77566e-18)
(0.720699 -0.387299 1.76701e-19)
(0.759931 -0.355515 5.2888e-19)
(0.790869 -0.327125 1.22377e-18)
(0.121118 -0.191156 1.87439e-19)
(0.290163 -0.40655 3.01847e-19)
(0.427119 -0.507894 3.2834e-19)
(0.533587 -0.541229 -1.05558e-18)
(0.615632 -0.535982 -1.8803e-18)
(0.679887 -0.510616 3.95966e-19)
(0.731204 -0.476429 1.14585e-18)
(0.773235 -0.439624 -3.27996e-19)
(0.808165 -0.403351 1.9747e-18)
(0.834247 -0.370865 -1.92479e-18)
(0.146894 -0.201721 -1.06107e-18)
(0.344727 -0.433649 4.07728e-19)
(0.494241 -0.546774 -1.10093e-18)
(0.604666 -0.587133 1.77982e-18)
(0.686058 -0.585016 8.89982e-19)
(0.747292 -0.559929 1.25656e-18)
(0.794583 -0.52408 -2.90795e-19)
(0.832423 -0.484257 1.14574e-18)
(0.863341 -0.443962 -2.42575e-18)
(0.884648 -0.407477 -6.32411e-19)
(0.17205 -0.205874 6.24627e-20)
(0.399204 -0.448254 -7.12842e-19)
(0.562391 -0.571529 -1.14141e-18)
(0.677928 -0.619481 -4.83606e-19)
(0.759661 -0.622009 -1.36659e-18)
(0.818699 -0.598991 -1.38992e-19)
(0.862692 -0.563188 1.18832e-19)
(0.897113 -0.521741 -5.34019e-19)
(0.925116 -0.478159 -5.968e-19)
(0.942605 -0.437392 1.57391e-18)
(0.195249 -0.203726 3.35419e-19)
(0.450967 -0.450295 4.68417e-19)
(0.628513 -0.581864 8.39155e-19)
(0.750268 -0.637905 3.72161e-20)
(0.833389 -0.646758 5.59893e-19)
(0.891057 -0.628052 -7.66692e-19)
(0.93231 -0.594737 2.34079e-18)
(0.96357 -0.55388 -1.0335e-18)
(0.989456 -0.507899 -5.07572e-19)
(1.00632 -0.461007 -1.53054e-18)
(0.21523 -0.195653 -1.32115e-19)
(0.49743 -0.44013 2.33404e-19)
(0.689467 -0.577805 -2.39181e-19)
(0.818263 -0.64211 1.28947e-19)
(0.903421 -0.658818 -1.52379e-19)
(0.959695 -0.646834 -3.90805e-19)
(0.997277 -0.619363 5.14083e-19)
(1.02316 -0.584703 -1.68154e-19)
(1.04271 -0.548005 2.60873e-19)
(1.05903 -0.515028 -5.69259e-19)
(0.230935 -0.18231 -7.39264e-21)
(0.536325 -0.418562 -1.0646e-19)
(0.742531 -0.559669 2.11701e-20)
(0.879239 -0.631621 1.44575e-19)
(0.967553 -0.656554 -6.53309e-20)
(1.02334 -0.651785 1.75394e-20)
(1.05788 -0.629967 -1.71897e-20)
(1.07891 -0.599657 -3.83369e-19)
(1.09213 -0.566623 -1.7796e-19)
(1.10255 -0.534701 -5.59992e-19)
(0.241593 -0.164635 -9.61282e-20)
(0.565832 -0.386974 3.39233e-19)
(0.785448 -0.528508 -2.10753e-19)
(0.931025 -0.60695 -7.59521e-20)
(1.02419 -0.640034 3.39096e-20)
(1.08145 -0.642882 7.1524e-20)
(1.11501 -0.627183 -7.02362e-21)
(1.1335 -0.601458 2.92466e-19)
(1.14302 -0.571983 -2.52727e-19)
(1.1492 -0.541879 -3.58076e-21)
(0.246759 -0.143785 -2.36704e-19)
(0.584617 -0.347278 -1.48237e-19)
(0.816339 -0.486098 -3.68095e-19)
(0.971581 -0.569494 4.1872e-19)
(1.07145 -0.610386 -3.07021e-20)
(1.13247 -0.621291 1.361e-19)
(1.16741 -0.612602 1.53588e-19)
(1.18559 -0.592496 -5.58714e-20)
(1.19356 -0.567431 5.05022e-20)
(1.19711 -0.540022 -1.59897e-19)
(0.246311 -0.121013 -1.61017e-19)
(0.591872 -0.301725 -2.06832e-19)
(0.833754 -0.434707 3.11655e-19)
(0.999029 -0.521159 -4.68254e-19)
(1.10725 -0.569097 8.22572e-20)
(1.17428 -0.588156 4.15733e-20)
(1.21287 -0.587119 9.19866e-20)
(1.23273 -0.573484 -6.04728e-20)
(1.24077 -0.553598 -7.24204e-20)
(1.24291 -0.52972 -2.35867e-19)
(0.240435 -0.0975684 6.71296e-19)
(0.587355 -0.252731 -5.25369e-19)
(0.836772 -0.376931 2.45462e-20)
(1.01185 -0.464233 -6.73195e-19)
(1.12966 -0.51799 -1.95426e-19)
(1.20468 -0.544843 1.56343e-19)
(1.24914 -0.551725 1.14543e-19)
(1.27272 -0.545172 -3.82061e-19)
(1.28252 -0.531184 1.67683e-19)
(1.28453 -0.511755 -3.02426e-19)
(0.229586 -0.0746121 3.33147e-19)
(0.571392 -0.202718 -3.29718e-19)
(0.825092 -0.315541 1.18316e-18)
(1.00902 -0.401307 9.43459e-20)
(1.13708 -0.459222 2.68322e-19)
(1.22172 -0.493027 9.57149e-19)
(1.27409 -0.507671 -1.98961e-19)
(1.30345 -0.508499 4.83139e-20)
(1.31688 -0.500956 -2.84389e-20)
(1.32028 -0.486799 -4.95284e-20)
(0.214444 -0.0531504 2.56805e-19)
(0.54485 -0.15397 5.83527e-19)
(0.799063 -0.253335 -5.94776e-19)
(0.990133 -0.335148 -1.80661e-19)
(1.12837 -0.395217 -1.91267e-19)
(1.22372 -0.434653 3.76543e-19)
(1.28574 -0.456425 -1.77682e-19)
(1.32289 -0.464538 4.18932e-19)
(1.34191 -0.463703 1.00804e-19)
(1.34841 -0.45542 -1.77284e-19)
(0.195856 -0.0339917 -2.77402e-19)
(0.509069 -0.10851 2.57423e-19)
(0.759689 -0.192986 -5.28491e-19)
(0.955467 -0.268575 2.21265e-19)
(1.10299 -0.328579 -2.21762e-19)
(1.20943 -0.371907 -2.63696e-19)
(1.28239 -0.399693 -2.04602e-19)
(1.3291 -0.414557 2.25738e-19)
(1.35567 -0.42033 -3.92357e-19)
(1.36714 -0.418232 2.48386e-19)
(0.174775 -0.017719 -1.03925e-19)
(0.465772 -0.0680015 -2.03935e-19)
(0.708578 -0.1369 9.59354e-20)
(0.906006 -0.204326 7.08307e-21)
(1.0611 -0.262007 7.6353e-20)
(1.17821 -0.307192 1.09396e-19)
(1.26274 -0.33945 9.3149e-20)
(1.32037 -0.360077 -1.2603e-19)
(1.35627 -0.371952 1.02736e-19)
(1.37464 -0.375986 -1.62285e-19)
(0.152191 -0.00468204 -6.54858e-20)
(0.416945 -0.0336823 -2.63952e-20)
(0.647853 -0.0871017 9.83493e-20)
(0.843431 -0.144924 -4.43696e-20)
(1.0036 -0.198186 1.2417e-19)
(1.13007 -0.243068 -1.56951e-19)
(1.22601 -0.277938 4.03216e-20)
(1.29535 -0.302934 3.46032e-20)
(1.34201 -0.31998 -1.23615e-20)
(1.36911 -0.329676 5.67347e-20)
(0.129071 0.00499455 -7.85609e-20)
(0.364701 -0.0063285 -3.33061e-19)
(0.580014 -0.0451371 -2.68242e-20)
(0.770037 -0.0925429 1.07068e-20)
(0.932158 -0.139656 -4.61989e-19)
(1.06583 -0.182158 4.87856e-20)
(1.17213 -0.217628 -5.16875e-20)
(1.25319 -0.245301 -1.40585e-19)
(1.3115 -0.266204 3.1107e-19)
(1.34885 -0.280637 -5.65931e-19)
(0.106293 0.0113861 -4.45384e-20)
(0.31114 0.0137428 7.14364e-19)
(0.507779 -0.0120121 9.52791e-20)
(0.688607 -0.0488895 -6.4531e-19)
(0.849158 -0.0886661 -7.72719e-20)
(0.987142 -0.127018 -7.27703e-19)
(1.10185 -0.161148 5.65836e-19)
(1.19374 -0.189675 -2.29657e-19)
(1.26384 -0.212846 4.35299e-19)
(1.31249 -0.230667 -3.84019e-19)
(0.0846109 0.0147325 -2.51896e-19)
(0.258228 0.0266432 2.93297e-19)
(0.433899 0.0118354 -2.04869e-19)
(0.602223 -0.0151009 1.41611e-18)
(0.757549 -0.0470193 7.49595e-19)
(0.896411 -0.0799695 -1.96286e-19)
(1.01678 -0.111131 7.63241e-19)
(1.11772 -0.138798 -4.99034e-19)
(1.19888 -0.162564 -1.60482e-19)
(1.25919 -0.182097 1.15951e-18)
(0.0646184 0.0153976 -4.65667e-19)
(0.207682 0.0328632 6.95267e-19)
(0.360982 0.0265372 -1.31852e-18)
(0.514052 0.00833837 2.28232e-19)
(0.660652 -0.0159068 5.69048e-19)
(0.7967 -0.0428757 -7.15099e-19)
(0.919359 -0.0699942 -1.26652e-18)
(1.02673 -0.0954717 6.78962e-19)
(1.11735 -0.118343 -8.83003e-19)
(1.18885 -0.137793 1.41309e-18)
(0.0467452 0.0138316 -1.15116e-19)
(0.16091 0.0332168 -6.99806e-19)
(0.291339 0.03278 3.45453e-19)
(0.427113 0.0216646 8.64153e-19)
(0.561883 0.00426159 -4.64181e-19)
(0.69144 -0.0168805 -4.58078e-19)
(0.812662 -0.0396129 -7.76649e-19)
(0.923199 -0.0622302 -3.55878e-19)
(1.02086 -0.0832294 -8.54666e-20)
(1.10226 -0.100992 1.41221e-18)
(0.0312702 0.0105458 1.93283e-19)
(0.118976 0.0287937 -9.50653e-19)
(0.226869 0.0317842 1.62604e-18)
(0.344063 0.0258913 -9.0544e-19)
(0.464446 0.0140393 5.86633e-19)
(0.58406 -0.00207626 -7.29948e-19)
(0.699967 -0.0208542 8.12986e-19)
(0.809928 -0.0407967 7.10028e-19)
(0.911576 -0.0598092 1.55132e-18)
(1.0009 -0.0748783 -2.56469e-18)
(0.018352 0.00610195 -6.0058e-19)
(0.0826126 0.0209186 1.20597e-18)
(0.169007 0.0252637 1.60937e-20)
(0.267054 0.022831 -4.34378e-19)
(0.371087 0.0151007 -2.30674e-19)
(0.477614 0.00286568 1.84367e-19)
(0.584238 -0.0129432 -1.30891e-18)
(0.689404 -0.031214 1.01127e-18)
(0.791332 -0.0492642 -1.30333e-18)
(0.88604 -0.0617494 -5.94915e-19)
(0.00806021 0.00110795 1.03348e-18)
(0.0522601 0.0110931 -3.22397e-19)
(0.118756 0.0153295 -6.04769e-19)
(0.197748 0.0150187 1.64253e-18)
(0.284048 0.0102794 -1.61348e-18)
(0.374603 0.000971867 9.01468e-19)
(0.467605 -0.0128153 9.60104e-19)
(0.562487 -0.0307702 2.62726e-19)
(0.658901 -0.0501771 2.73251e-19)
(0.754557 -0.0623403 -3.87625e-19)
(0.00038869 -0.00380852 -9.88388e-19)
(0.028118 0.000874431 9.39448e-19)
(0.0768094 0.00427286 -8.31376e-19)
(0.137563 0.00546143 1.04308e-18)
(0.205553 0.00344242 -3.11633e-19)
(0.27782 -0.00270784 -1.0823e-18)
(0.352527 -0.0137258 3.10375e-19)
(0.429273 -0.0305532 -5.12091e-19)
(0.509035 -0.0524533 -6.06527e-19)
(0.594169 -0.0694537 -1.8922e-18)
(-0.00477046 -0.00808577 -1.23468e-18)
(0.0101469 -0.00838451 9.81592e-19)
(0.0436436 -0.00593786 -1.92324e-18)
(0.087996 -0.0032091 3.43908e-19)
(0.138749 -0.00175689 -1.33239e-18)
(0.192804 -0.0025429 -7.99101e-19)
(0.247586 -0.00588944 1.91234e-18)
(0.30116 -0.0120153 -2.61444e-18)
(0.352881 -0.0215152 5.03225e-19)
(0.400028 -0.030248 -8.28665e-19)
(-0.00768224 -0.0113475 6.08185e-19)
(-0.00204465 -0.015839 2.5733e-19)
(0.0192554 -0.0143225 -7.65392e-20)
(0.0500646 -0.0103001 7.30848e-19)
(0.0867019 -0.00565932 2.14608e-18)
(0.126594 -0.00136009 7.40703e-19)
(0.167733 0.00240711 7.65349e-19)
(0.20892 0.00569227 -2.6464e-19)
(0.250232 0.00783851 -2.46852e-18)
(0.289114 0.00926214 6.26042e-19)
(-0.00878374 -0.0134242 -1.71697e-19)
(-0.00932803 -0.0210859 5.46475e-19)
(0.00264611 -0.0205022 -1.43158e-19)
(0.0227356 -0.0158175 1.0108e-18)
(0.0481733 -0.00920563 -2.33706e-18)
(0.077014 -0.00182629 1.98369e-19)
(0.107829 0.00579394 -1.11226e-18)
(0.139842 0.0132483 1.63666e-18)
(0.172876 0.0195726 -4.78385e-19)
(0.204272 0.0240792 -6.83588e-20)
(-0.00858781 -0.014304 -1.16885e-19)
(-0.0128317 -0.0240056 -6.572e-19)
(-0.00771332 -0.0243087 1.65281e-18)
(0.00407933 -0.0196268 -8.7145e-19)
(0.0206596 -0.0123269 6.12485e-20)
(0.0406176 -0.00378474 2.79663e-19)
(0.062914 0.00513202 -2.55579e-19)
(0.0869289 0.0136318 3.3216e-19)
(0.112249 0.0206141 1.15098e-18)
(0.136673 0.0252822 3.01187e-19)
(-0.00758376 -0.0140743 -2.62165e-19)
(-0.0136957 -0.0246648 -2.916e-19)
(-0.0134291 -0.0257005 -1.29432e-18)
(-0.00792068 -0.0215114 6.8918e-19)
(0.00173562 -0.014492 -1.4215e-18)
(0.0145786 -0.00611547 3.22935e-19)
(0.0298494 0.00258961 3.63118e-19)
(0.0470086 0.010714 -3.83741e-19)
(0.0655392 0.0172484 -2.48273e-19)
(0.0837988 0.0214696 -1.1158e-18)
(-0.00618706 -0.0128748 2.04799e-19)
(-0.0129399 -0.0232572 -4.81728e-20)
(-0.0159822 -0.0247663 9.78718e-22)
(-0.0151343 -0.0213426 -6.21999e-19)
(-0.0108146 -0.015225 1.57456e-18)
(-0.00361582 -0.00783528 -2.45593e-19)
(0.00591819 -0.000196286 -6.12887e-19)
(0.0173137 0.00683855 7.50146e-19)
(0.0300353 0.0124519 -2.63615e-19)
(0.0429232 0.0160462 1.45709e-18)
(-0.00472404 -0.010868 -3.84395e-20)
(-0.0114033 -0.0200602 -2.25369e-19)
(-0.0166177 -0.0217188 -8.89467e-20)
(-0.0191361 -0.019149 -1.13633e-19)
(-0.018832 -0.0142673 -2.44308e-19)
(-0.0160035 -0.0083114 -7.67217e-19)
(-0.0110227 -0.00217604 9.59694e-19)
(-0.00429647 0.00342971 5.60608e-19)
(0.00366281 0.00789611 -1.00427e-19)
(0.0120632 0.010764 -8.93746e-19)
(-0.00343575 -0.00822488 2.18286e-19)
(-0.00972807 -0.0154095 3.81456e-20)
(-0.0163015 -0.016886 2.58201e-19)
(-0.0211436 -0.0151401 -2.95521e-20)
(-0.0237175 -0.011633 2.3511e-19)
(-0.0240981 -0.00731664 2.65259e-19)
(-0.0225237 -0.00287665 3.97676e-19)
(-0.0193384 0.0011641 -1.12655e-18)
(-0.0150201 0.00438885 -2.07926e-19)
(-0.010103 0.00647399 3.72646e-19)
(-0.00248969 -0.00512132 -1.10222e-19)
(-0.00837066 -0.00968546 -1.5666e-19)
(-0.0157252 -0.0106974 -7.53634e-20)
(-0.022025 -0.00969723 3.68611e-19)
(-0.0264593 -0.00759796 1.78925e-19)
(-0.0289517 -0.00499646 3.66935e-20)
(-0.0296475 -0.00232104 -7.95544e-20)
(-0.0288423 0.000110004 -6.17122e-20)
(-0.0269846 0.00205494 5.29713e-19)
(-0.0244467 0.00332132 -3.60774e-19)
(-0.00199122 -0.00173837 5.619e-20)
(-0.00762156 -0.00330257 6.99163e-20)
(-0.0153301 -0.00366183 -5.9617e-20)
(-0.0223323 -0.00333748 -5.4529e-20)
(-0.0276804 -0.00263981 -5.65383e-20)
(-0.0312213 -0.00177195 -9.02157e-20)
(-0.0330527 -0.000879285 2.89768e-21)
(-0.0334436 -6.8523e-05 1.25174e-19)
(-0.0328262 0.000581213 -1.25683e-19)
(-0.0314952 0.00100604 2.28671e-19)
(-0.00813515 -0.00258512 1.65342e-20)
(0.0621221 -0.00662648 9.88734e-21)
(0.277545 -0.00671086 1.33754e-21)
(0.376955 -0.00439058 -9.02393e-22)
(0.479666 -0.00368377 -6.35426e-23)
(0.553547 -0.00263872 1.48039e-22)
(0.606041 -0.00218295 1.66308e-22)
(0.660336 -0.00157578 -3.39914e-23)
(0.68357 -0.0014594 -2.49042e-24)
(0.733794 -0.00100969 2.43887e-22)
(0.00866434 -0.00805994 2.62204e-20)
(0.0773763 -0.0197185 1.25332e-21)
(0.289036 -0.019977 -1.74799e-20)
(0.385712 -0.0130659 1.40442e-20)
(0.486374 -0.0109704 8.87128e-22)
(0.558781 -0.00786309 -5.94025e-22)
(0.610312 -0.00651125 6.8863e-22)
(0.663695 -0.00470859 6.96617e-23)
(0.686502 -0.0043626 1.40045e-22)
(0.736017 -0.00301548 -2.235e-22)
(0.0419688 -0.0144151 2.68568e-20)
(0.107411 -0.0323296 -3.61024e-20)
(0.31159 -0.0327842 1.7869e-20)
(0.402913 -0.0214404 -1.16343e-20)
(0.499557 -0.0180297 8.28199e-22)
(0.569084 -0.0129359 -6.454e-22)
(0.618729 -0.0107245 -2.56768e-22)
(0.670327 -0.00776173 8.08726e-25)
(0.6923 -0.00719998 -1.07252e-22)
(0.740423 -0.00498172 -3.26284e-22)
(0.0911765 -0.0221288 -4.16266e-20)
(0.151303 -0.0441605 -5.01134e-20)
(0.344376 -0.0448472 -2.31229e-20)
(0.427952 -0.0293306 1.21276e-20)
(0.518762 -0.0247219 -1.45357e-20)
(0.584131 -0.0177639 3.84406e-21)
(0.631048 -0.0147513 -2.08819e-22)
(0.680061 -0.0106854 1.20723e-22)
(0.70083 -0.00992998 -1.28898e-22)
(0.746929 -0.00688308 1.211e-22)
(0.155356 -0.0314738 1.15128e-19)
(0.207727 -0.0549234 7.22383e-20)
(0.386208 -0.0559026 2.59799e-20)
(0.459961 -0.0365744 -2.35674e-20)
(0.543345 -0.0309231 1.19316e-20)
(0.603456 -0.0222641 3.15998e-21)
(0.646918 -0.0185272 2.20879e-21)
(0.69265 -0.0134347 2.39069e-22)
(0.7119 -0.0125143 2.86391e-22)
(0.755416 -0.00869579 -6.42534e-22)
(0.233227 -0.0423776 -5.08262e-20)
(0.275006 -0.0643035 3.90005e-20)
(0.435604 -0.065697 4.82045e-21)
(0.49786 -0.0430284 2.62832e-20)
(0.572503 -0.0365265 -5.94615e-21)
(0.62648 -0.0263662 -3.68259e-21)
(0.665902 -0.021997 -2.28161e-21)
(0.707784 -0.0159708 -1.47301e-22)
(0.725267 -0.0149192 -1.5547e-22)
(0.765732 -0.0103983 6.89357e-22)
(0.32316 -0.0545601 -3.86776e-20)
(0.351169 -0.0720363 -1.00778e-19)
(0.490868 -0.0740273 -1.70466e-20)
(0.540412 -0.0485767 -1.46383e-20)
(0.605322 -0.0414493 6.97162e-21)
(0.652535 -0.0300147 -1.94172e-21)
(0.68749 -0.0251167 2.45466e-21)
(0.725101 -0.0182619 4.49241e-22)
(0.740645 -0.0171164 -4.65499e-23)
(0.777692 -0.0119709 2.6543e-22)