/*--------------------------------*- C++ -*----------------------------------*\
  =========                 |
  \\      /  F ield         | OpenFOAM: The Open Source CFD Toolbox
   \\    /   O peration     | Website:  https://openfoam.org
    \\  /    A nd           | Version:  6.0
     \\/     M anipulation  |
\*---------------------------------------------------------------------------*/
FoamFile
{
    version     2.0;
    format      ascii;
    class       surfaceScalarField;
    location    "6";
    object      phi;
}
// * * * * * * * * * * * * * * * * * * * * * * * * * * * * * * * * * * * * * //

dimensions      [0 3 -1 0 0 0 0];

internalField   nonuniform List<scalar> 
15760
(
-2.35568e-06
2.35397e-06
1.71906e-09
-8.11552e-06
5.75641e-06
3.42322e-09
-1.62697e-05
8.15042e-06
3.74827e-09
-2.60069e-05
9.73417e-06
3.01695e-09
-3.66743e-05
1.0666e-05
1.47729e-09
-4.775e-05
1.10763e-05
-6.80787e-10
-5.88196e-05
1.1073e-05
-3.30895e-09
-6.95594e-05
1.0746e-05
-6.29779e-09
-7.97218e-05
1.0172e-05
-9.56223e-09
-8.91253e-05
9.41654e-06
-1.30297e-08
-9.76459e-05
8.53723e-06
-1.66403e-08
-0.00010521
7.58487e-06
-2.03503e-08
-0.000111791
6.6047e-06
-2.41268e-08
-0.0001174
5.63706e-06
-2.79369e-08
-0.000122086
4.71776e-06
-3.17545e-08
-0.000125929
3.87815e-06
-3.55627e-08
-0.000129034
3.14506e-06
-3.93436e-08
-0.000131532
2.5407e-06
-4.30878e-08
-0.000133569
2.08398e-06
-4.67769e-08
1.79142e-06
-5.04569e-08
-0.00013531
-2.33303e-06
4.68699e-06
-8.02627e-06
1.14497e-05
-1.60717e-05
1.61959e-05
-2.56601e-05
1.93226e-05
-3.61407e-05
2.11465e-05
-4.69926e-05
2.19282e-05
-5.78024e-05
2.18827e-05
-6.82459e-05
2.11896e-05
-7.80749e-05
2.00009e-05
-8.71059e-05
1.84476e-05
-9.52127e-05
1.66441e-05
-0.00010232
1.46918e-05
-0.000108396
1.2681e-05
-0.000113452
1.06927e-05
-0.000117533
8.79883e-06
-0.000120717
7.06274e-06
-0.000123111
5.53883e-06
-0.000124843
4.27243e-06
-0.000126061
3.30229e-06
2.66213e-06
-0.000126932
-2.28761e-06
6.97459e-06
-7.84721e-06
1.70093e-05
-1.56746e-05
2.40232e-05
-2.49649e-05
2.86129e-05
-3.50712e-05
3.12529e-05
-4.5476e-05
3.23329e-05
-5.5767e-05
3.21738e-05
-6.56203e-05
3.10429e-05
-7.47856e-05
2.91662e-05
-8.30765e-05
2.67384e-05
-9.0362e-05
2.39297e-05
-9.65614e-05
2.08911e-05
-0.000101638
1.77579e-05
-0.000105597
1.46517e-05
-0.00010848
1.16815e-05
-0.000110361
8.94372e-06
-0.000111344
6.52195e-06
-0.000111558
4.4864e-06
-0.000111153
2.8976e-06
1.80803e-06
-0.000110299
-2.21912e-06
9.19371e-06
-7.57704e-06
2.23672e-05
-1.50755e-05
3.15217e-05
-2.39169e-05
3.74543e-05
-3.34611e-05
4.07971e-05
-4.31954e-05
4.20672e-05
-5.27108e-05
4.16893e-05
-6.16836e-05
4.00157e-05
-6.98616e-05
3.73442e-05
-7.70536e-05
3.39304e-05
-8.31225e-05
2.99985e-05
-8.79793e-05
2.57479e-05
-9.15794e-05
2.1358e-05
-9.39192e-05
1.69914e-05
-9.50327e-05
1.2795e-05
-9.49893e-05
8.90026e-06
-9.38894e-05
5.42213e-06
-9.18616e-05
2.45857e-06
-8.90591e-05
9.50787e-08
-1.59461e-06
-8.56564e-05
-2.12695e-06
1.13207e-05
-7.21325e-06
2.74535e-05
-1.42695e-05
3.8578e-05
-2.25085e-05
4.56933e-05
-3.13004e-05
4.95889e-05
-4.01404e-05
5.09072e-05
-4.86249e-05
5.01737e-05
-5.64318e-05
4.78226e-05
-6.33069e-05
4.42193e-05
-6.90539e-05
3.96774e-05
-7.35274e-05
3.4472e-05
-7.66282e-05
2.88487e-05
-7.83e-05
2.30299e-05
-7.85277e-05
1.72191e-05
-7.73349e-05
1.16022e-05
-7.47826e-05
6.34801e-06
-7.09666e-05
1.6061e-06
-6.60142e-05
-2.49382e-06
-6.00824e-05
-5.83678e-06
-8.32375e-06
-5.33532e-05
-2.01e-06
1.33307e-05
-6.75169e-06
3.21952e-05
-1.32479e-05
4.50742e-05
-2.07264e-05
5.31719e-05
-2.85717e-05
5.74341e-05
-3.62911e-05
5.86267e-05
-4.34894e-05
5.7372e-05
-4.98485e-05
5.41817e-05
-5.51136e-05
4.94844e-05
-5.90832e-05
4.3647e-05
-6.16026e-05
3.69914e-05
-6.25598e-05
2.98059e-05
-6.18842e-05
2.23542e-05
-5.9545e-05
1.48799e-05
-5.55518e-05
7.60903e-06
-4.99539e-05
7.50124e-07
-4.28395e-05
-5.50829e-06
-3.43338e-05
-1.09995e-05
-2.4598e-05
-1.55726e-05
-1.90974e-05
-1.38243e-05
-1.86649e-06
1.51971e-05
-6.18582e-06
3.65145e-05
-1.19975e-05
5.08859e-05
-1.85498e-05
5.97241e-05
-2.52469e-05
6.41312e-05
-3.16135e-05
6.49933e-05
-3.72671e-05
6.30257e-05
-4.18976e-05
5.88122e-05
-4.52519e-05
5.28387e-05
-4.71246e-05
4.55197e-05
-4.73514e-05
3.72181e-05
-4.58062e-05
2.82607e-05
-4.24004e-05
1.89485e-05
-3.70841e-05
9.56364e-06
-2.9848e-05
3.72884e-07
-2.07251e-05
-8.37272e-06
-9.79258e-06
-1.64409e-05
2.82876e-06
-2.36208e-05
1.69735e-05
-2.97174e-05
-3.45604e-05
3.24365e-05
-1.69376e-06
1.68909e-05
-5.50631e-06
4.0327e-05
-1.04995e-05
5.58791e-05
-1.59486e-05
6.51732e-05
-2.12842e-05
6.94668e-05
-2.60549e-05
6.97639e-05
-2.98971e-05
6.68679e-05
-3.25135e-05
6.14286e-05
-3.36576e-05
5.39828e-05
-3.31227e-05
4.49848e-05
-3.07363e-05
3.48318e-05
-2.63575e-05
2.38818e-05
-1.98773e-05
1.24683e-05
-1.12224e-05
9.08688e-07
-3.58861e-07
-1.04906e-05
1.27021e-05
-2.14337e-05
2.79e-05
-3.16388e-05
4.51219e-05
-4.08427e-05
6.4199e-05
-4.87944e-05
-5.52716e-05
8.49101e-05
-1.48819e-06
1.83791e-05
-4.70063e-06
4.35395e-05
-8.72867e-06
5.99072e-05
-1.28821e-05
6.93266e-05
-1.66261e-05
7.32109e-05
-1.95406e-05
7.26784e-05
-2.12887e-05
6.86159e-05
-2.15933e-05
6.17333e-05
-2.02206e-05
5.26101e-05
-1.69682e-05
4.17324e-05
-1.16588e-05
2.95224e-05
-4.1378e-06
1.63608e-05
5.72516e-06
2.60536e-06
1.80313e-05
-1.13974e-05
3.28448e-05
-2.53042e-05
5.01843e-05
-3.87732e-05
7.00133e-05
-5.14678e-05
9.22326e-05
-6.3062e-05
0.000116672
-7.32343e-05
-8.16923e-05
0.000143093
-1.24518e-06
1.96243e-05
-3.75313e-06
4.60474e-05
-6.65336e-06
6.28074e-05
-9.299e-06
7.19722e-05
-1.11984e-05
7.51103e-05
-1.19717e-05
7.34517e-05
-1.13178e-05
6.7962e-05
-8.98917e-06
5.94047e-05
-4.77369e-06
4.83946e-05
1.51844e-06
3.54403e-05
1.00625e-05
2.09783e-05
2.10225e-05
5.40083e-06
3.45494e-05
-1.09215e-05
5.07745e-05
-2.76226e-05
6.97994e-05
-4.43291e-05
9.16814e-05
-6.06552e-05
0.000116419
-7.6205e-05
0.000143935
-9.05783e-05
0.000174065
-0.000103364
-0.000114176
0.000206548
-9.59282e-07
2.05835e-05
-2.64565e-06
4.77338e-05
-4.23687e-06
6.43986e-05
-5.13878e-06
7.28741e-05
-4.91191e-06
7.48834e-05
-3.22616e-06
7.1766e-05
1.73694e-07
6.45622e-05
5.49448e-06
5.40839e-05
1.29148e-05
4.09743e-05
2.25999e-05
2.57552e-05
3.47119e-05
8.86624e-06
4.94152e-05
-9.30251e-06
6.68761e-05
-2.83824e-05
8.72561e-05
-4.80026e-05
0.000110699
-6.77722e-05
0.000137312
-8.72682e-05
0.000167142
-0.000106035
0.000200151
-0.000123587
0.000236186
-0.0001394
-0.000152957
0.000274968
-6.24604e-07
2.12082e-05
-1.35871e-06
4.84679e-05
-1.43973e-06
6.44796e-05
-3.35532e-07
7.17699e-05
2.33252e-06
7.22153e-05
6.83567e-06
6.72628e-05
1.33728e-05
5.8025e-05
2.2098e-05
4.53588e-05
3.31417e-05
2.99306e-05
4.66288e-05
1.22681e-05
6.26919e-05
-7.19683e-06
8.14802e-05
-2.80908e-05
0.000103163
-5.00653e-05
0.000127926
-7.27655e-05
0.000155957
-9.58033e-05
0.000187424
-0.000118735
0.00022244
-0.000141051
0.000261027
-0.000162173
0.000303064
-0.000181437
-0.000198146
0.000348253
-2.35388e-07
2.14435e-05
1.26409e-07
4.81061e-05
1.77621e-06
6.28298e-05
5.1756e-06
6.83705e-05
1.06352e-05
6.67557e-05
1.83599e-05
5.95381e-05
2.8483e-05
4.79018e-05
4.10936e-05
3.27482e-05
5.62589e-05
1.47653e-05
7.40438e-05
-5.51685e-06
9.45288e-05
-2.76819e-05
0.000117824
-5.13863e-05
0.00014408
-7.63213e-05
0.000173489
-0.000102175
0.000206277
-0.000128591
0.000242678
-0.000155136
0.000282894
-0.000181267
0.000327037
-0.000206316
0.000375048
-0.000229449
-0.000249722
0.000426624
2.13161e-07
2.12304e-05
1.82493e-06
4.64943e-05
5.4422e-06
5.92125e-05
1.14492e-05
6.23635e-05
2.00841e-05
5.81209e-05
3.14809e-05
4.81413e-05
4.57014e-05
3.36813e-05
6.27603e-05
1.56893e-05
8.26469e-05
-5.12123e-06
0.000105346
-2.82159e-05
0.000130859
-5.31945e-05
0.000159223
-7.97509e-05
0.000190535
-0.000107633
0.000224959
-0.000136599
0.000262735
-0.000166367
0.000304159
-0.00019656
0.000349541
-0.000226649
0.000399124
-0.000255899
0.000452965
-0.00028329
-0.000307537
0.00051078
7.23888e-07
2.05065e-05
3.74532e-06
4.34729e-05
9.57588e-06
5.3382e-05
1.85183e-05
5.34211e-05
3.07372e-05
4.5902e-05
4.62963e-05
3.25822e-05
6.51854e-05
1.47923e-05
8.73411e-05
-6.46644e-06
0.000112666
-3.04461e-05
0.000141047
-5.65972e-05
0.000172379
-8.45265e-05
0.000206589
-0.000113961
0.000243666
-0.00014471
0.000283693
-0.000176625
0.000326868
-0.000209543
0.000373516
-0.000243208
0.000424055
-0.000277188
0.000478914
-0.000310759
0.000538346
-0.000342722
-0.000371338
0.000602147
1.29667e-06
1.92098e-05
5.8859e-06
3.88837e-05
1.41741e-05
4.50938e-05
2.63811e-05
4.1214e-05
4.26019e-05
2.96813e-05
6.2836e-05
1.23481e-05
8.70083e-05
-9.38009e-06
0.000114984
-3.44419e-05
0.00014658
-6.2042e-05
0.00018158
-9.15978e-05
0.000219754
-0.000122701
0.000260881
-0.000155087
0.000304786
-0.000188615
0.000351387
-0.000223226
0.000400749
-0.000258905
0.000453134
-0.000295593
0.000509022
-0.000333076
0.000569062
-0.000370799
0.000633836
-0.000407495
-0.000440795
0.000703292
1.92756e-06
1.72823e-05
8.23198e-06
3.25792e-05
1.92066e-05
3.41192e-05
3.499e-05
2.54306e-05
5.56148e-05
9.05652e-06
8.10288e-05
-1.3066e-05
0.000111108
-3.94595e-05
0.000145665
-6.89982e-05
0.000184449
-0.000100827
0.000227158
-0.000134307
0.00027344
-0.000168982
0.000322913
-0.00020456
0.000375193
-0.000240895
0.00042995
-0.000277983
0.000486978
-0.000315933
0.000546305
-0.000354921
0.000608307
-0.000395077
0.000673782
-0.000436273
0.000743778
-0.000477492
-0.000515618
0.000818601
2.60836e-06
1.46739e-05
1.07543e-05
2.44333e-05
2.46123e-05
2.02612e-05
4.42429e-05
5.8001e-06
6.9626e-05
-1.63266e-05
0.000100674
-4.41143e-05
0.000137239
-7.60237e-05
0.000179108
-0.000110867
0.000226006
-0.000147725
0.000277585
-0.000185886
0.000333422
-0.000224819
0.000393011
-0.000264149
0.000455775
-0.000303659
0.000521091
-0.000343298
0.000588358
-0.000383201
0.000657127
-0.000423689
0.000727302
-0.000465253
0.00079945
-0.000508421
0.000874996
-0.000553037
-0.000596656
0.000956034
3.32677e-06
1.13471e-05
1.34097e-05
1.43503e-05
3.02999e-05
3.37103e-06
5.39825e-05
-1.78825e-05
8.43942e-05
-4.67383e-05
0.000121428
-8.11484e-05
0.000164935
-0.000119531
0.000214719
-0.000160651
0.000270531
-0.000203536
0.000332054
-0.000247409
0.000398888
-0.000291654
0.000470529
-0.00033579
0.000546338
-0.000379468
0.000625519
-0.00042248
0.000707117
-0.000464799
0.000790067
-0.000506639
0.000873377
-0.000548562
0.000956571
-0.000591615
0.00104075
-0.000637216
-0.000688921
0.00113301
4.06739e-06
7.27973e-06
1.61439e-05
2.27378e-06
3.61534e-05
-1.66384e-05
6.40056e-05
-4.57347e-05
9.95977e-05
-8.23304e-05
0.000142813
-0.000124364
0.00019352
-0.000170238
0.000251569
-0.000218701
0.000316789
-0.000268756
0.000388979
-0.000319599
0.0004679
-0.000370575
0.000553257
-0.000421147
0.000644673
-0.000470884
0.00074165
-0.000519456
0.000843509
-0.000566658
0.00094935
-0.00061248
0.001058
-0.000657216
0.00116789
-0.000701505
0.00127776
-0.000747078
-0.000796339
0.00138517
4.81346e-06
2.46627e-06
1.88977e-05
-1.18105e-05
4.20447e-05
-3.97854e-05
7.40836e-05
-7.77735e-05
0.000114867
-0.000123113
0.000164264
-0.000173761
0.00022216
-0.000228134
0.000288456
-0.000284997
0.000363075
-0.000343375
0.000445969
-0.000402493
0.000537137
-0.000461743
0.000636655
-0.000520665
0.000744724
-0.000578953
0.000861758
-0.00063649
0.000988545
-0.000693445
0.00112652
-0.000750453
0.00127826
-0.000808954
0.00144863
-0.000871876
0.00164738
-0.000945829
-0.00104762
0.00189866
5.54892e-06
-3.08265e-06
2.16133e-05
-2.78749e-05
4.78472e-05
-6.60193e-05
8.39878e-05
-0.000113914
0.000129828
-0.000168953
0.000185202
-0.000229136
0.000249988
-0.000292919
0.0003241
-0.000359109
0.000407505
-0.00042678
0.000500234
-0.000495222
0.000602409
-0.000563918
0.000714276
-0.000632531
0.000836257
-0.000700934
0.000969021
-0.000769255
0.00111356
-0.000837988
0.00127127
-0.000908154
0.00144387
-0.000981556
0.00163321
-0.00106122
0.00183962
-0.00115224
-0.00126235
0.00205436
6.26055e-06
-9.3432e-06
2.42421e-05
-4.58564e-05
5.34533e-05
-9.52306e-05
9.35235e-05
-0.000153984
0.000144162
-0.000219592
0.000205139
-0.000290113
0.000276277
-0.000364057
0.00035745
-0.000440282
0.000448584
-0.000517914
0.000549671
-0.000596309
0.000660777
-0.000675023
0.000782056
-0.000753811
0.000913764
-0.000832641
0.00105625
-0.000911738
0.0012099
-0.000991639
0.00137503
-0.00107329
0.00155159
-0.00115812
0.00173858
-0.0012482
0.0019327
-0.00134637
-0.00145552
0.00212587
6.9394e-06
-1.62826e-05
2.67492e-05
-6.56662e-05
5.87843e-05
-0.000127266
0.000102548
-0.000197748
0.000157639
-0.000274683
0.000223727
-0.000356201
0.000300538
-0.000440868
0.000387841
-0.000527584
0.000485446
-0.00061552
0.000593205
-0.000704068
0.000711
-0.000792818
0.000838738
-0.000881549
0.000976324
-0.000970227
0.00112361
-0.00105902
0.00128029
-0.00114832
0.00144576
-0.00123876
0.00161884
-0.00133119
0.00179738
-0.00142674
0.0019777
-0.00152669
-0.00163207
0.00215424
7.5811e-06
-2.38637e-05
2.9115e-05
-8.72001e-05
6.37934e-05
-0.000161944
0.000110975
-0.000244929
0.000170124
-0.000333832
0.000240778
-0.000426856
0.000322524
-0.000522615
0.000414984
-0.000620044
0.000517798
-0.000718334
0.000630617
-0.000816887
0.000753084
-0.000915284
0.000884806
-0.00101327
0.00102532
-0.00111074
0.00117404
-0.00120774
0.00133016
-0.00130444
0.00149251
-0.00140111
0.00165946
-0.00149814
0.00182868
-0.00159596
0.00199701
-0.00169502
-0.00179552
0.00216047
8.1852e-06
-3.20489e-05
3.13331e-05
-0.000110348
6.84626e-05
-0.000199074
0.000118771
-0.000295237
0.000181567
-0.000396627
0.00025623
-0.000501519
0.000342184
-0.000608569
0.000438872
-0.000716732
0.000545739
-0.000825202
0.000662217
-0.000933365
0.0007877
-0.00104077
0.00092152
-0.00114709
0.00106291
-0.00125214
0.00121096
-0.00135579
0.00136456
-0.00145803
0.00152231
-0.00155886
0.00168247
-0.00165831
0.00184291
-0.00175639
0.00200103
-0.00185313
-0.00194833
0.00215383
8.75391e-06
-4.08028e-05
3.34063e-05
-0.000135
7.27933e-05
-0.000238461
0.000125937
-0.00034838
0.000191973
-0.000462664
0.000270108
-0.000579654
0.000359584
-0.000698044
0.000459654
-0.000816802
0.000569564
-0.000935111
0.00068853
-0.00105233
0.000815725
-0.00116796
0.00095025
-0.00128162
0.00109112
-0.001393
0.00123721
-0.00150189
0.00138726
-0.00160809
0.00153982
-0.00171142
0.00169322
-0.00181171
0.00184557
-0.00190874
0.00199475
-0.00200231
-0.00209201
0.00213843
9.29054e-06
-5.00934e-05
3.53422e-05
-0.000161052
7.67972e-05
-0.000279916
0.00013249
-0.000404074
0.000201375
-0.000531548
0.000282471
-0.00066075
0.000374835
-0.000790408
0.000477528
-0.000919496
0.000589604
-0.00104719
0.000710084
-0.00117281
0.000837952
-0.00129583
0.000972134
-0.0014158
0.00111148
-0.00153235
0.00125478
-0.00164518
0.00140069
-0.001754
0.0015478
-0.00185853
0.00169456
-0.00195847
0.00183934
-0.00205352
0.00198038
-0.00214335
-0.00222746
0.00211584
9.79817e-06
-5.98915e-05
3.71479e-05
-0.000188402
8.04865e-05
-0.000323254
0.000138452
-0.00046204
0.000209806
-0.000602902
0.00029338
-0.000744324
0.000388042
-0.00088507
0.000492669
-0.00102412
0.000606135
-0.00116065
0.000727293
-0.00129397
0.000854971
-0.00142351
0.000987965
-0.00154879
0.00112503
-0.00166942
0.00126489
-0.00178504
0.00140622
-0.00189533
0.00154767
-0.00199997
0.00168784
-0.00209864
0.00182532
-0.002191
0.00195866
-0.00227669
-0.00235517
0.00208637
1.02786e-05
-7.01701e-05
3.88274e-05
-0.00021695
8.38674e-05
-0.000368294
0.000143832
-0.000522005
0.000217286
-0.000676355
0.000302871
-0.000829909
0.000399269
-0.000981468
0.000505186
-0.00113004
0.000619332
-0.0012748
0.000740415
-0.00141505
0.000867141
-0.00155023
0.000998212
-0.00167986
0.00113233
-0.00180354
0.0012682
-0.00192091
0.00140454
-0.00203167
0.00154008
-0.00213551
0.00167357
-0.00223214
0.00180382
-0.00232124
0.00192961
-0.00240248
-0.00247533
0.00204977
1.07318e-05
-8.09019e-05
4.03791e-05
-0.000246598
8.69359e-05
-0.000414851
0.000148624
-0.000583693
0.000223809
-0.00075154
0.000310942
-0.000917042
0.00040853
-0.00107906
0.000515115
-0.00123663
0.000629263
-0.00138895
0.000749561
-0.00153535
0.000874621
-0.00167529
0.00100308
-0.00180833
0.00113362
-0.00193408
0.00126496
-0.00205225
0.00139587
-0.00216258
0.00152519
-0.00226483
0.00165181
-0.00235876
0.00177472
-0.00244415
0.00189293
-0.0025207
-0.00258794
0.00200554
1.11556e-05
-9.20574e-05
4.17955e-05
-0.000277238
8.96762e-05
-0.000462732
0.000152804
-0.000646821
0.000229341
-0.000828077
0.000317556
-0.00100526
0.000415786
-0.00117729
0.000522423
-0.00134326
0.000635908
-0.00150243
0.000754728
-0.00165417
0.000877427
-0.00179799
0.00100261
-0.00193351
0.00112895
-0.00206042
0.00125521
-0.00217851
0.00138023
-0.0022876
0.00150295
-0.00238755
0.00162242
-0.00247824
0.00173779
-0.00255952
0.00184829
-0.00263119
-0.00269288
0.00195323
1.15461e-05
-0.000103604
4.30634e-05
-0.000308755
9.20624e-05
-0.000511731
0.000156329
-0.000711087
0.000233827
-0.000905575
0.000322643
-0.00109407
0.000420957
-0.0012756
0.000527025
-0.00144933
0.000639181
-0.00161459
0.000755835
-0.00177083
0.000875483
-0.00191764
0.00099672
-0.00205474
0.00111824
-0.00218194
0.00123886
-0.00229912
0.0013575
-0.00240624
0.00147323
-0.00250328
0.00158523
-0.00259024
0.00169281
-0.00266709
0.00179538
-0.00273377
-0.00278997
0.00189247
1.1898e-05
-0.000115502
4.4165e-05
-0.000341022
9.40596e-05
-0.000561625
0.000159146
-0.000776174
0.000237192
-0.000983621
0.000326112
-0.00118299
0.000423937
-0.00137343
0.000528806
-0.0015542
0.000638962
-0.00172474
0.00075276
-0.00188462
0.000868673
-0.00203355
0.000985303
-0.00217137
0.00110139
-0.00229803
0.00121581
-0.00241355
0.00132759
-0.00251803
0.00143592
-0.00261161
0.00154011
-0.00269442
0.00163962
-0.0027666
0.00173404
-0.00282819
-0.00287903
0.0018231
1.22047e-05
-0.000127706
4.50793e-05
-0.000373897
9.56275e-05
-0.000612174
0.000161194
-0.000841741
0.000239354
-0.00106178
0.000327859
-0.0012715
0.000424608
-0.00147017
0.000527636
-0.00165723
0.00063512
-0.00183223
0.000745376
-0.00199488
0.000856878
-0.00214506
0.000968255
-0.00228275
0.0010783
-0.00240807
0.00118599
-0.00252123
0.00129045
-0.00262248
0.00139097
-0.00271213
0.00148702
-0.00279048
0.00157821
-0.00285779
0.00166428
-0.00291426
-0.00295986
0.00174512
1.24592e-05
-0.000140166
4.57836e-05
-0.000407221
9.6723e-05
-0.000663113
0.000162406
-0.000907424
0.000240226
-0.0011396
0.000327781
-0.00135905
0.000422854
-0.00156525
0.000523396
-0.00175777
0.000627535
-0.00193636
0.000733575
-0.00210092
0.000840006
-0.00225149
0.000945507
-0.00238825
0.00104895
-0.00251152
0.00114939
-0.00262168
0.00124609
-0.00271918
0.00133845
-0.0028045
0.00142608
-0.00287811
0.00150872
-0.00294043
0.00158626
-0.0029918
-0.00303232
0.00165872
1.26543e-05
-0.00015282
4.6255e-05
-0.000440822
9.73033e-05
-0.000714161
0.00016272
-0.00097284
0.000239725
-0.00121661
0.000325781
-0.00144511
0.00041857
-0.00165804
0.000515983
-0.00185518
0.000616116
-0.0020365
0.000717284
-0.00220209
0.000818014
-0.00235222
0.000917052
-0.00248729
0.00101336
-0.00260782
0.0011061
-0.00271442
0.00119464
-0.00280772
0.00127853
-0.00288839
0.0013575
-0.00295707
0.00143141
-0.00301435
0.00150028
-0.00306068
-0.00309631
0.00156427
1.27828e-05
-0.000165603
4.64717e-05
-0.00047451
9.7328e-05
-0.000765018
0.000162076
-0.00103759
0.000237778
-0.00129231
0.000321778
-0.00152911
0.000411677
-0.00174793
0.000505323
-0.00194883
0.000600811
-0.00213199
0.00069648
-0.00229776
0.000790917
-0.00244665
0.00088295
-0.00257932
0.000971642
-0.00269651
0.00105627
-0.00279905
0.00113633
-0.00288778
0.0012115
-0.00296355
0.00128161
-0.00302718
0.00134667
-0.0030794
0.0014068
-0.0031208
-0.00315178
0.00146226
1.28384e-05
-0.000178441
4.64135e-05
-0.000508086
9.67615e-05
-0.000815366
0.000160425
-0.00110125
0.000234327
-0.00136621
0.000315711
-0.00161049
0.00040212
-0.00183434
0.000491384
-0.00203809
0.000581612
-0.00222221
0.000671194
-0.00238734
0.000758794
-0.00253425
0.000843336
-0.00266387
0.000923995
-0.00277717
0.00100017
-0.00287523
0.00107148
-0.00295909
0.00113772
-0.0030298
0.00119886
-0.00308832
0.00125499
-0.00313553
0.00130635
-0.00317216
-0.00319871
0.00135328
1.2815e-05
-0.000191256
4.60632e-05
-0.000541334
9.55741e-05
-0.000864877
0.000157728
-0.00116341
0.000229328
-0.00143781
0.000307542
-0.00168871
0.000389878
-0.00191668
0.000474168
-0.00212238
0.000558562
-0.00230661
0.000641517
-0.0024703
0.00072179
-0.00261453
0.000798415
-0.00274049
0.000870686
-0.00284944
0.000938133
-0.00294267
0.00100049
-0.00302145
0.00105768
-0.00308698
0.00110977
-0.00314041
0.00115696
-0.00318273
0.00119957
-0.00321478
-0.00323716
0.00123802
1.27104e-05
-0.000203966
4.54118e-05
-0.000574035
9.37502e-05
-0.000913215
0.000153967
-0.00122362
0.000222769
-0.00150661
0.000297273
-0.00176321
0.000374976
-0.00199438
0.000453737
-0.00220114
0.000531766
-0.00238464
0.000607608
-0.00254614
0.000680125
-0.00268704
0.000748472
-0.00280884
0.000812069
-0.00291304
0.000870572
-0.00300118
0.000923838
-0.00307471
0.0009719
-0.00313504
0.00101493
-0.00318344
0.00105322
-0.00322102
0.00108716
-0.00324871
-0.00326722
0.00111722
1.25159e-05
-0.000216482
4.44396e-05
-0.000605959
9.12618e-05
-0.000960037
0.000149111
-0.00128147
0.000214627
-0.00157213
0.000284898
-0.00183348
0.000357437
-0.00206692
0.000430154
-0.00227386
0.000501339
-0.00245582
0.000569639
-0.00261444
0.000634036
-0.00275144
0.000693811
-0.00286861
0.000748515
-0.00296774
0.000797927
-0.00305059
0.000842027
-0.00311881
0.000880949
-0.00317397
0.00091496
-0.00321745
0.000944427
-0.00325048
0.000969797
-0.00327408
-0.00328901
0.000991588
1.22311e-05
-0.000228713
4.31448e-05
-0.000636873
8.81087e-05
-0.001005
0.000143169
-0.00133653
0.000204925
-0.00163388
0.000270469
-0.00189903
0.000337353
-0.00213381
0.000403559
-0.00234007
0.000467476
-0.00251974
0.000527869
-0.00267483
0.000583848
-0.00280742
0.000634825
-0.00291959
0.000680481
-0.0030134
0.000720721
-0.00309083
0.000755632
-0.00315373
0.000785452
-0.00320379
0.000810526
-0.00324252
0.000831288
-0.00327124
0.000848232
-0.00329103
-0.00330269
0.000861907
1.18541e-05
-0.000240568
4.15248e-05
-0.000666543
8.42924e-05
-0.00104777
0.000136154
-0.0013884
0.0001937
-0.00169143
0.000254054
-0.00195938
0.000314832
-0.00219458
0.000374112
-0.00239935
0.000430398
-0.00257602
0.000482584
-0.00272702
0.000529912
-0.00285475
0.000571932
-0.00296161
0.00060845
-0.00304992
0.000639491
-0.00312187
0.000665247
-0.00317948
0.000686043
-0.00322458
0.0007023
-0.00325878
0.000714504
-0.00328345
0.000723189
-0.00329971
-0.00330842
0.000728921
1.13842e-05
-0.000251952
3.95808e-05
-0.00069474
7.98223e-05
-0.00108801
0.000128092
-0.00143667
0.000181005
-0.00174434
0.000235743
-0.00201412
0.000290014
-0.00224885
0.000342009
-0.00245134
0.000390361
-0.00262438
0.000434103
-0.00277076
0.000472616
-0.00289326
0.000505581
-0.00299457
0.00053293
-0.00307727
0.000554798
-0.00314374
0.000571475
-0.00319616
0.000583365
-0.00323647
0.000590952
-0.00326637
0.000594769
-0.00328727
0.000595377
-0.00330032
-0.0033064
0.000593352
1.08218e-05
-0.000262773
3.73178e-05
-0.000721236
7.47151e-05
-0.00112541
0.000119022
-0.00148097
0.000166908
-0.00179223
0.000215647
-0.00206286
0.000263058
-0.00229627
0.000307466
-0.00249575
0.000347646
-0.00266456
0.000382772
-0.00280589
0.000412366
-0.00292285
0.000436241
-0.00301845
0.000454444
-0.00309547
0.000467214
-0.00315651
0.000474928
-0.00320387
0.00047806
-0.0032396
0.000477147
-0.00326545
0.000472762
-0.00328288
0.000465486
-0.00329304
-0.00329681
0.000455899
1.01682e-05
-0.000272942
3.47444e-05
-0.000745812
6.89947e-05
-0.00115966
0.00010899
-0.00152097
0.000151493
-0.00183473
0.000193893
-0.00210526
0.000234146
-0.00233652
0.000270723
-0.00253233
0.000302552
-0.00269638
0.000328954
-0.00283229
0.000349589
-0.00294349
0.000364392
-0.00303325
0.000373523
-0.0031046
0.000377312
-0.0031603
0.000376211
-0.00320277
0.000370757
-0.00323415
0.000361533
-0.00325623
0.00034914
-0.00327049
0.000334178
-0.00327808
-0.00327986
0.000317225
9.42593e-06
-0.000282368
3.18723e-05
-0.000768258
6.2691e-05
-0.00119048
9.80563e-05
-0.00155633
0.000134856
-0.00187153
0.000170623
-0.00214102
0.000203471
-0.00236937
0.000232034
-0.00256089
0.000255394
-0.00271975
0.000273023
-0.00284992
0.000284714
-0.00295518
0.000290519
-0.00303906
0.000290697
-0.00310478
0.000285658
-0.00315526
0.000275921
-0.00319303
0.000262073
-0.0032203
0.000244736
-0.00323889
0.000224537
-0.00325029
0.000202087
-0.00325563
-0.00325573
0.000177963
8.59816e-06
-0.000290966
2.87161e-05
-0.000788376
5.58392e-05
-0.0012176
8.62852e-05
-0.00158678
0.000117101
-0.00190235
0.000145989
-0.00216991
0.00017124
-0.00239462
0.000191658
-0.00258131
0.000206491
-0.00273458
0.000215355
-0.00285878
0.000218172
-0.002958
0.000215101
-0.00303599
0.000206487
-0.00309617
0.00019281
-0.00314158
0.00017464
-0.00317486
0.000152608
-0.00319827
0.000127364
-0.00321365
9.9559e-05
-0.00322248
6.98159e-05
-0.00322589
-0.00322463
3.87113e-05
7.68896e-06
-0.000298655
2.5293e-05
-0.00080598
4.84789e-05
-0.00124079
7.37486e-05
-0.00161205
9.83395e-05
-0.00192694
0.00012015
-0.00219172
0.000137661
-0.00241213
0.00014986
-0.00259351
0.00015616
-0.00274088
0.000156321
-0.00285894
0.000150384
-0.00295206
0.000138605
-0.00302421
0.000121401
-0.00307896
9.93051e-05
-0.00311948
7.29312e-05
-0.00314849
4.29376e-05
-0.00316828
1.00011e-05
-0.00318071
-2.52097e-05
-0.00318727
-6.20567e-05
-0.00318904
-0.00318673
-9.99588e-05
6.70306e-06
-0.000305358
2.16221e-05
-0.000820899
4.06536e-05
-0.00125982
6.05227e-05
-0.00163192
7.86888e-05
-0.0019451
9.3267e-05
-0.0022063
0.000102946
-0.00242181
0.000106902
-0.00259746
0.000104712
-0.00273869
9.62794e-05
-0.00285051
8.17542e-05
-0.00293753
6.14756e-05
-0.00300393
3.59199e-05
-0.00305341
5.65978e-06
-0.00308922
-2.86667e-05
-0.00311416
-6.63818e-05
-0.00313056
-0.000106792
-0.0031403
-0.00014921
-0.00314485
-0.000192979
-0.00314527
-0.0031422
-0.000237504
5.64583e-06
-0.000311004
1.77244e-05
-0.000832978
3.24095e-05
-0.0012745
4.66873e-05
-0.0016462
5.82677e-05
-0.00195668
6.55036e-05
-0.00221354
6.73021e-05
-0.00242361
6.30342e-05
-0.0025932
5.24446e-05
-0.0027281
3.55691e-05
-0.00283363
1.2661e-05
-0.00291463
-1.58693e-05
-0.0029754
-4.95021e-05
-0.00301978
-8.76421e-05
-0.00305108
-0.000129642
-0.00307216
-0.000174821
-0.00308538
-0.000222476
-0.00309265
-0.000271904
-0.00309543
-0.000322422
-0.00309475
-0.00309122
-0.000373404
4.5232e-06
-0.000315527
1.36228e-05
-0.000842078
2.37955e-05
-0.00128467
3.23246e-05
-0.00165472
3.7197e-05
-0.00196156
3.70205e-05
-0.00221336
3.09315e-05
-0.00241752
1.84994e-05
-0.00258076
-3.65733e-07
-0.00270923
-2.54983e-05
-0.0028085
-5.65509e-05
-0.00288357
-9.30532e-05
-0.0029389
-0.000134456
-0.00297837
-0.000180158
-0.00300538
-0.000229523
-0.0030228
-0.000281882
-0.00303302
-0.00033654
-0.00303799
-0.000392779
-0.00303919
-0.00044988
-0.00303765
-0.00303394
-0.000507165
3.34169e-06
-0.000318869
9.3415e-06
-0.000848077
1.48628e-05
-0.0012902
1.75192e-05
-0.00165738
1.5598e-05
-0.00195963
7.97665e-06
-0.00220574
-5.97166e-06
-0.00240357
-2.64765e-05
-0.00256026
-5.34643e-05
-0.00268225
-8.66438e-05
-0.00277532
-0.00012558
-0.00284464
-0.00016975
-0.00289473
-0.000218587
-0.00292954
-0.000271502
-0.00295247
-0.000327887
-0.00296641
-0.00038711
-0.0029738
-0.000448503
-0.0029766
-0.000511347
-0.00297634
-0.000574876
-0.00297412
-0.00297049
-0.000638325
2.10836e-06
-0.000320977
4.90633e-06
-0.000850875
5.66486e-06
-0.00129095
2.35783e-06
-0.00165407
-6.40712e-06
-0.00195087
-2.14711e-05
-0.00219067
-4.32196e-05
-0.00238182
-7.16809e-05
-0.0025318
-0.00010662
-0.00264731
-0.000147624
-0.00273432
-0.000194172
-0.00279809
-0.000245696
-0.0028432
-0.000301618
-0.00287361
-0.000361368
-0.00289272
-0.00042439
-0.00290339
-0.000490117
-0.00290807
-0.000557939
-0.00290878
-0.00062716
-0.00290712
-0.000696969
-0.00290431
-0.00290099
-0.000766464
8.30965e-07
-0.000321808
3.44983e-07
-0.000850389
-3.74197e-06
-0.00128687
-1.30696e-05
-0.00164475
-2.86935e-05
-0.00193524
-5.11659e-05
-0.0021682
-8.06288e-05
-0.00235236
-0.000116912
-0.00249551
-0.000159622
-0.0026046
-0.000208227
-0.00268571
-0.000262125
-0.00274419
-0.000320699
-0.00278463
-0.000383359
-0.00281095
-0.00044956
-0.00282652
-0.000518807
-0.00283414
-0.000590625
-0.00283625
-0.00066451
-0.00283489
-0.000739846
-0.00283179
-0.000815797
-0.00282836
-0.00282554
-0.000891251
-4.8204e-07
-0.000321326
-4.31288e-06
-0.000846559
-1.32982e-05
-0.00127788
-2.86692e-05
-0.00162938
-5.11328e-05
-0.00191278
-8.09475e-05
-0.00213839
-0.000118014
-0.00231529
-0.000161969
-0.00245156
-0.000212268
-0.0025543
-0.000268266
-0.00262972
-0.000329278
-0.00268318
-0.000394636
-0.00271927
-0.000463727
-0.00274186
-0.000536022
-0.00275422
-0.000611082
-0.00275908
-0.000688541
-0.00275879
-0.000768053
-0.00275538
-0.000849173
-0.00275067
-0.000931133
-0.0027464
-0.00274414
-0.00101253
-1.82144e-06
-0.000319504
-9.03553e-06
-0.000839344
-2.2941e-05
-0.00126398
-4.43426e-05
-0.00160797
-7.35903e-05
-0.00188353
-0.000110649
-0.00210133
-0.000155184
-0.00227076
-0.000206646
-0.0024001
-0.000264352
-0.00249659
-0.00032755
-0.00256652
-0.000395482
-0.00261525
-0.000467423
-0.00264733
-0.000542725
-0.00266656
-0.000620848
-0.0026761
-0.000701379
-0.00267855
-0.000784042
-0.00267613
-0.000868675
-0.00267075
-0.000955132
-0.00266421
-0.00104292
-0.00265861
-0.00265648
-0.00113058
-3.17735e-06
-0.000316327
-1.37893e-05
-0.000828733
-3.2604e-05
-0.00124516
-5.99864e-05
-0.00158059
-9.59246e-05
-0.0018476
-0.000140093
-0.00205716
-0.000191929
-0.00221892
-0.000250713
-0.00234131
-0.000315636
-0.00243167
-0.000385857
-0.0024963
-0.000460556
-0.00254055
-0.000538962
-0.00256892
-0.000620389
-0.00258513
-0.000704257
-0.00259223
-0.000790128
-0.00259268
-0.000877737
-0.00258852
-0.00096705
-0.00258143
-0.0010583
-0.00257296
-0.00115168
-0.00256523
-0.00256101
-0.00124716
-4.53932e-06
-0.000311788
-1.85389e-05
-0.000814733
-4.22184e-05
-0.00122148
-7.54933e-05
-0.00154732
-0.000117988
-0.0018051
-0.000169092
-0.00200606
-0.000228026
-0.00215999
-0.000293911
-0.00227543
-0.000365833
-0.00235975
-0.000442886
-0.00241924
-0.000524213
-0.00245922
-0.000609031
-0.0024841
-0.000696645
-0.00249752
-0.000786466
-0.00250241
-0.000878028
-0.00250112
-0.000971031
-0.00249552
-0.00106544
-0.00248703
-0.00116176
-0.00247664
-0.00126162