/*--------------------------------*- C++ -*----------------------------------*\
  =========                 |
  \\      /  F ield         | OpenFOAM: The Open Source CFD Toolbox
   \\    /   O peration     | Website:  https://openfoam.org
    \\  /    A nd           | Version:  6.0
     \\/     M anipulation  |
\*---------------------------------------------------------------------------*/
FoamFile
{
    version     2.0;
    format      ascii;
    class       surfaceScalarField;
    location    "0.4";
    object      phi;
}
// * * * * * * * * * * * * * * * * * * * * * * * * * * * * * * * * * * * * * //

dimensions      [0 3 -1 0 0 0 0];

internalField   nonuniform List<scalar> 
370
(
-4.69526e-08
4.69099e-08
-4.39118e-07
3.92166e-07
-1.02523e-06
5.86111e-07
-1.65922e-06
6.33992e-07
-2.26933e-06
6.10104e-07
-2.83064e-06
5.61317e-07
-3.34077e-06
5.10128e-07
-3.80501e-06
4.6424e-07
-4.2269e-06
4.21888e-07
-4.60116e-06
3.74253e-07
-4.90744e-06
3.06288e-07
-5.10517e-06
1.97726e-07
-5.13158e-06
2.64112e-08
-4.90783e-06
-2.23746e-07
-4.35946e-06
-5.48371e-07
-3.4565e-06
-9.02962e-07
-2.2712e-06
-1.18529e-06
-1.03695e-06
-1.23425e-06
-1.58353e-07
-8.78599e-07
-1.58353e-07
-4.49951e-07
4.96861e-07
-1.54351e-06
1.48573e-06
-2.9601e-06
2.0027e-06
-4.44907e-06
2.12297e-06
-5.86941e-06
2.03045e-06
-7.16142e-06
1.85333e-06
-8.31082e-06
1.65953e-06
-9.32102e-06
1.47444e-06
-1.01934e-05
1.29425e-06
-1.09128e-05
1.0937e-06
-1.14372e-05
8.30692e-07
-1.16912e-05
4.51744e-07
-1.15676e-05
-9.72225e-08
-1.09413e-05
-8.50059e-07
-9.70333e-06
-1.78634e-06
-7.82022e-06
-2.78607e-06
-5.4188e-06
-3.58671e-06
-2.87516e-06
-3.77789e-06
-8.31662e-07
-2.9221e-06
-9.90016e-07
-8.32062e-07
1.32892e-06
-2.53755e-06
3.19121e-06
-4.57107e-06
4.03623e-06
-6.60536e-06
4.15725e-06
-8.47641e-06
3.9015e-06
-1.01226e-05
3.4995e-06
-1.15363e-05
3.07324e-06
-1.27303e-05
2.66848e-06
-1.3715e-05
2.27887e-06
-1.44823e-05
1.86109e-06
-1.49963e-05
1.34463e-06
-1.51865e-05
6.41975e-07
-1.49493e-05
-3.34431e-07
-1.41573e-05
-1.64208e-06
-1.26842e-05
-3.25938e-06
-1.04551e-05
-5.01525e-06
-7.53459e-06
-6.5072e-06
-4.26021e-06
-7.05227e-06
-1.37255e-06
-5.80975e-06
-2.36257e-06
-1.15688e-06
2.4858e-06
-3.33552e-06
5.36985e-06
-5.74681e-06
6.44752e-06
-8.00591e-06
6.41635e-06
-9.96433e-06
5.85992e-06
-1.15928e-05
5.12798e-06
-1.2915e-05
4.39541e-06
-1.39701e-05
3.72359e-06
-1.4792e-05
3.10074e-06
-1.53968e-05
2.46595e-06
-1.57759e-05
1.72375e-06
-1.58905e-05
7.5653e-07
-1.56675e-05
-5.57391e-07
-1.49971e-05
-2.31252e-06
-1.37349e-05
-4.52155e-06
-1.17256e-05
-7.02454e-06
-8.87996e-06
-9.35287e-06
-5.35584e-06
-1.05764e-05
-1.86996e-06
-9.29563e-06
-4.23253e-06
-1.46292e-06
3.94873e-06
-3.94649e-06
7.85342e-06
-6.42624e-06
8.92727e-06
-8.52586e-06
8.51597e-06
-1.01726e-05
7.50669e-06
-1.14083e-05
6.3637e-06
-1.23088e-05
5.29584e-06
-1.29495e-05
4.3643e-06
-1.33927e-05
3.54391e-06
-1.36831e-05
2.75642e-06
-1.38471e-05
1.88777e-06
-1.38897e-05
7.99111e-07
-1.37866e-05
-6.60493e-07
-1.34678e-05
-2.63131e-06
-1.27926e-05
-5.19676e-06
-1.15296e-05
-8.28754e-06
-9.38838e-06
-1.14941e-05
-6.20382e-06
-1.37609e-05
-2.43111e-06
-1.30683e-05
-6.66365e-06
-1.81785e-06
5.76658e-06
-4.38823e-06
1.04238e-05
-6.50148e-06
1.10405e-05
-7.94916e-06
9.96365e-06
-8.83152e-06
8.38905e-06
-9.29975e-06
6.83194e-06
-9.48847e-06
5.48455e-06
-9.50159e-06
4.37743e-06
-9.41648e-06
3.4588e-06
-9.29336e-06
2.6333e-06
-9.18364e-06
1.77805e-06
-9.13302e-06
7.48491e-07
-9.17499e-06
-6.18518e-07
-9.30781e-06
-2.49849e-06
-9.44697e-06
-5.05761e-06
-9.3529e-06
-8.3816e-06
-8.57019e-06
-1.22768e-05
-6.51095e-06
-1.58202e-05
-3.02165e-06
-1.65576e-05
-9.6853e-06
-2.29248e-06
8.05905e-06
-4.54029e-06
1.26716e-05
-5.59271e-06
1.20929e-05
-5.73495e-06
1.01059e-05
-5.3566e-06
8.01071e-06
-4.72386e-06
6.1992e-06
-3.99955e-06
4.76025e-06
-3.27847e-06
3.65634e-06
-2.61835e-06
2.79868e-06
-2.06483e-06
2.07978e-06
-1.66919e-06
1.38241e-06
-1.49876e-06
5.78059e-07
-1.6377e-06
-4.79579e-07
-2.17076e-06
-1.96542e-06
-3.13383e-06
-4.09454e-06
-4.40571e-06
-7.10972e-06
-5.5282e-06
-1.11543e-05
-5.54696e-06
-1.58014e-05
-3.36135e-06
-1.87432e-05
-1.30466e-05
-2.7857e-06
1.08448e-05
-3.6174e-06
1.35033e-05
-2.44285e-06
1.09184e-05
-5.11509e-07
8.17454e-06
1.51691e-06
5.98229e-06
3.38261e-06
4.33349e-06
4.99916e-06
3.1437e-06
6.35433e-06
2.30117e-06
7.45963e-06
1.69338e-06
8.31955e-06
1.21986e-06
8.91229e-06
7.89673e-07
9.17696e-06
3.13392e-07
9.00506e-06
-3.07682e-07
8.23893e-06
-1.19929e-06
6.6915e-06
-2.54711e-06
4.23091e-06
-4.64913e-06
1.02102e-06
-7.94445e-06
-2.00218e-06
-1.27782e-05
-2.7367e-06
-1.80087e-05
-1.57834e-05
-1.79882e-06
1.26436e-05
1.70857e-06
9.99594e-06
6.50354e-06
6.1234e-06
1.07373e-05
3.9408e-06
1.41221e-05
2.5975e-06
1.67411e-05
1.71446e-06
1.87409e-05
1.14387e-06
2.02622e-05
7.79947e-07
2.14138e-05
5.41746e-07
2.22622e-05
3.71505e-07
2.28257e-05
2.2614e-07
2.307e-05
6.90487e-08
2.28993e-05
-1.3697e-07
2.21398e-05
-4.39733e-07
2.05127e-05
-9.20009e-07
1.76141e-05
-1.7506e-06
1.30096e-05
-3.33986e-06
6.72522e-06
-6.49391e-06
6.67437e-07
-1.19509e-05
-1.51159e-05
1.26436e-05
2.26395e-05
2.87629e-05
3.27037e-05
3.53012e-05
3.70157e-05
3.81595e-05
3.89395e-05
3.94812e-05
3.98527e-05
4.00789e-05
4.01479e-05
4.0011e-05
3.95712e-05
3.86512e-05
3.69006e-05
3.35608e-05
2.70668e-05
1.51159e-05
)
;

boundaryField
{
    movingWall
    {
        type            calculated;
        value           uniform 0;
    }
    fixedWalls
    {
        type            calculated;
        value           uniform 0;
    }
    frontAndBack
    {
        type            empty;
        value           nonuniform 0();
    }
}


// ************************************************************************* //
