1.275 	2.15223e-18 	-2.76991e-20 	-0.00645278 	-0.00328992 	-1.9402e-22
1.825 	2.15223e-18 	-1.39322e-20 	0.138961 	-0.00771745 	9.68539e-22
2.375 	2.15223e-18 	-2.66896e-23 	0.414744 	-0.00808023 	-3.05066e-22
