1.275 	2.15223e-18 	-2.76991e-20 	-0.0344773 	-0.000438129 	-1.90478e-22
1.825 	2.15223e-18 	-1.39322e-20 	-0.00949236 	-0.00275351 	1.68053e-21
2.375 	2.15223e-18 	-2.66896e-23 	0.115224 	-0.00323021 	-7.0094e-22
