1.45 	0 	0 	-0.307843
2.35 	0 	0 	-0.12742
