/*--------------------------------*- C++ -*----------------------------------*\
  =========                 |
  \\      /  F ield         | OpenFOAM: The Open Source CFD Toolbox
   \\    /   O peration     | Website:  https://openfoam.org
    \\  /    A nd           | Version:  6.0
     \\/     M anipulation  |
\*---------------------------------------------------------------------------*/
FoamFile
{
    version     2.0;
    format      ascii;
    class       volScalarField;
    location    "8.2";
    object      p;
}
// * * * * * * * * * * * * * * * * * * * * * * * * * * * * * * * * * * * * * //

dimensions      [0 2 -2 0 0 0 0];

internalField   nonuniform List<scalar> 
34500
(
1.00605
1.00607
1.00591
1.00558
1.00512
1.00455
1.00393
1.00328
1.00266
1.00208
1.00155
1.0011
1.00071
1.00044
1.00027
1.00606
1.00611
1.006
1.00576
1.00538
1.00489
1.00433
1.00373
1.00311
1.0025
1.00193
1.00141
1.00093
1.0006
1.00035
1.00606
1.0061
1.00598
1.0057
1.00529
1.00478
1.00419
1.00357
1.00294
1.00234
1.00178
1.00128
1.00083
1.00054
1.00029
1.00606
1.00609
1.00595
1.00565
1.00522
1.00469
1.00409
1.00345
1.00282
1.00222
1.00168
1.0012
1.00078
1.00051
1.00029
1.00607
1.0061
1.00597
1.00567
1.00525
1.00472
1.00412
1.00349
1.00287
1.00227
1.00171
1.00123
1.0008
1.00052
1.0003
1.00608
1.00611
1.00598
1.0057
1.00528
1.00476
1.00417
1.00355
1.00292
1.00231
1.00175
1.00125
1.00081
1.00053
1.00029
1.00609
1.00612
1.006
1.00571
1.00529
1.00477
1.00419
1.00356
1.00293
1.00232
1.00175
1.00124
1.0008
1.00051
1.00028
1.0061
1.00613
1.00601
1.00572
1.0053
1.00478
1.00419
1.00355
1.00292
1.00231
1.00174
1.00123
1.00079
1.0005
1.00027
1.00611
1.00615
1.00602
1.00573
1.00531
1.00479
1.0042
1.00356
1.00293
1.00231
1.00174
1.00123
1.00079
1.0005
1.00027
1.00612
1.00616
1.00604
1.00575
1.00534
1.00481
1.00422
1.00358
1.00295
1.00233
1.00175
1.00125
1.0008
1.0005
1.00026
1.00614
1.00618
1.00606
1.00578
1.00536
1.00484
1.00425
1.00361
1.00297
1.00235
1.00177
1.00126
1.00081
1.0005
1.00025
1.00616
1.0062
1.00608
1.0058
1.00539
1.00487
1.00428
1.00364
1.003
1.00238
1.00179
1.00127
1.00081
1.00049
1.00023
1.00617
1.00622
1.0061
1.00583
1.00542
1.0049
1.00431
1.00367
1.00303
1.0024
1.0018
1.00127
1.00081
1.00048
1.00022
1.00619
1.00624
1.00612
1.00585
1.00544
1.00493
1.00434
1.0037
1.00305
1.00241
1.00181
1.00127
1.0008
1.00046
1.00019
1.00621
1.00626
1.00614
1.00587
1.00546
1.00495
1.00436
1.00371
1.00306
1.00242
1.00181
1.00127
1.00079
1.00044
1.00017
1.00624
1.00628
1.00616
1.00589
1.00548
1.00497
1.00437
1.00373
1.00307
1.00242
1.00181
1.00126
1.00078
1.00042
1.00015
1.00626
1.0063
1.00619
1.00591
1.0055
1.00499
1.00439
1.00374
1.00308
1.00243
1.00181
1.00126
1.00077
1.00041
1.00013
1.00628
1.00633
1.00621
1.00594
1.00553
1.00501
1.00441
1.00375
1.00309
1.00243
1.00181
1.00125
1.00076
1.00039
1.0001
1.00631
1.00636
1.00624
1.00597
1.00555
1.00503
1.00443
1.00377
1.0031
1.00244
1.00182
1.00125
1.00076
1.00037
1.00008
1.00634
1.00638
1.00627
1.006
1.00558
1.00506
1.00445
1.00379
1.00312
1.00245
1.00182
1.00125
1.00075
1.00036
1.00005
1.00636
1.00641
1.0063
1.00603
1.00561
1.00509
1.00448
1.00382
1.00314
1.00247
1.00183
1.00125
1.00074
1.00034
1.00003
1.00639
1.00645
1.00633
1.00606
1.00565
1.00512
1.00451
1.00385
1.00316
1.00248
1.00184
1.00125
1.00073
1.00032
1
1.00643
1.00648
1.00636
1.0061
1.00568
1.00516
1.00454
1.00387
1.00318
1.0025
1.00184
1.00125
1.00072
1.0003
0.99997
1.00646
1.00651
1.0064
1.00613
1.00572
1.00519
1.00457
1.0039
1.0032
1.00251
1.00185
1.00124
1.00071
1.00027
0.999939
1.00649
1.00655
1.00643
1.00616
1.00575
1.00522
1.0046
1.00392
1.00322
1.00252
1.00184
1.00123
1.00069
1.00025
0.999908
1.00653
1.00658
1.00647
1.0062
1.00578
1.00525
1.00463
1.00394
1.00323
1.00252
1.00184
1.00122
1.00067
1.00022
0.999876
1.00656
1.00662
1.00651
1.00624
1.00582
1.00528
1.00465
1.00396
1.00324
1.00253
1.00184
1.00121
1.00066
1.0002
0.999843
1.0066
1.00666
1.00654
1.00627
1.00585
1.00531
1.00468
1.00398
1.00326
1.00254
1.00184
1.0012
1.00064
1.00017
0.99981
1.00664
1.0067
1.00658
1.00631
1.00589
1.00534
1.00471
1.00401
1.00327
1.00254
1.00184
1.0012
1.00062
1.00015
0.999775
1.00668
1.00674
1.00663
1.00635
1.00593
1.00538
1.00474
1.00403
1.00329
1.00255
1.00184
1.00119
1.00061
1.00012
0.99974
1.00673
1.00678
1.00667
1.00639
1.00597
1.00542
1.00477
1.00406
1.00331
1.00256
1.00184
1.00118
1.00059
1.00009
0.999703
1.00677
1.00683
1.00671
1.00644
1.00601
1.00546
1.0048
1.00408
1.00333
1.00257
1.00184
1.00117
1.00057
1.00006
0.999665
1.00682
1.00687
1.00676
1.00648
1.00605
1.00549
1.00484
1.00411
1.00334
1.00258
1.00184
1.00115
1.00054
1.00003
0.999626
1.00686
1.00692
1.00681
1.00653
1.00609
1.00553
1.00487
1.00413
1.00336
1.00259
1.00184
1.00114
1.00052
0.999998
0.999586
1.00691
1.00697
1.00686
1.00658
1.00614
1.00557
1.0049
1.00416
1.00338
1.00259
1.00183
1.00113
1.0005
0.999964
0.999545
1.00696
1.00702
1.00691
1.00663
1.00618
1.00561
1.00494
1.00418
1.00339
1.0026
1.00183
1.00111
1.00047
0.999931
0.999503
1.00701
1.00707
1.00696
1.00668
1.00623
1.00565
1.00497
1.00421
1.00341
1.00261
1.00182
1.0011
1.00045
0.999896
0.99946
1.00707
1.00713
1.00701
1.00673
1.00628
1.0057
1.005
1.00424
1.00343
1.00261
1.00182
1.00108
1.00042
0.99986
0.999416
1.00712
1.00718
1.00707
1.00678
1.00633
1.00574
1.00504
1.00427
1.00345
1.00262
1.00181
1.00107
1.00039
0.999823
0.99937
1.00718
1.00724
1.00712
1.00683
1.00638
1.00578
1.00508
1.00429
1.00346
1.00263
1.00181
1.00105
1.00037
0.999785
0.999324
1.00724
1.0073
1.00718
1.00689
1.00643
1.00583
1.00512
1.00432
1.00348
1.00263
1.0018
1.00103
1.00034
0.999745
0.999276
1.00729
1.00736
1.00724
1.00695
1.00648
1.00588
1.00516
1.00435
1.0035
1.00264
1.0018
1.00101
1.00031
0.999705
0.999226
1.00735
1.00742
1.0073
1.007
1.00653
1.00592
1.00519
1.00438
1.00352
1.00264
1.00179
1.00099
1.00028
0.999662
0.999176
1.00742
1.00748
1.00736
1.00706
1.00659
1.00597
1.00523
1.00441
1.00354
1.00265
1.00178
1.00097
1.00024
0.999619
0.999124
1.00748
1.00755
1.00743
1.00713
1.00665
1.00602
1.00527
1.00444
1.00355
1.00265
1.00177
1.00095
1.00021
0.999575
0.999071
1.00755
1.00761
1.00749
1.00719
1.0067
1.00607
1.00532
1.00447
1.00357
1.00266
1.00176
1.00093
1.00017
0.999529
0.999017
1.00761
1.00768
1.00756
1.00725
1.00676
1.00612
1.00536
1.0045
1.00359
1.00266
1.00175
1.0009
1.00014
0.999483
0.998961
1.00768
1.00775
1.00763
1.00732
1.00682
1.00618
1.0054
1.00453
1.00361
1.00267
1.00174
1.00088
1.0001
0.999435
0.998904
1.00775
1.00782
1.0077
1.00738
1.00688
1.00623
1.00544
1.00456
1.00362
1.00267
1.00173
1.00086
1.00006
0.999386
0.998845
1.00783
1.0079
1.00777
1.00745
1.00694
1.00628
1.00549
1.0046
1.00364
1.00268
1.00172
1.00083
1.00003
0.999335
0.998786
1.0079
1.00797
1.00784
1.00752
1.00701
1.00634
1.00553
1.00463
1.00366
1.00268
1.00171
1.0008
0.999985
0.999283
0.998724
1.00798
1.00805
1.00792
1.0076
1.00708
1.0064
1.00558
1.00466
1.00368
1.00268
1.0017
1.00078
0.999944
0.99923
0.998661
1.00805
1.00813
1.00799
1.00767
1.00714
1.00646
1.00563
1.0047
1.0037
1.00269
1.00169
1.00075
0.999901
0.999175
0.998596
1.00813
1.00821
1.00807
1.00774
1.00721
1.00652
1.00568
1.00473
1.00372
1.00269
1.00167
1.00072
0.999858
0.999118
0.99853
1.00822
1.00829
1.00815
1.00782
1.00728
1.00658
1.00573
1.00477
1.00374
1.00269
1.00166
1.00069
0.999813
0.999061
0.998461
1.0083
1.00837
1.00824
1.0079
1.00735
1.00664
1.00578
1.0048
1.00376
1.0027
1.00165
1.00066
0.999766
0.999001
0.998392
1.00838
1.00846
1.00832
1.00798
1.00743
1.0067
1.00583
1.00484
1.00378
1.0027
1.00163
1.00063
0.999719
0.99894
0.99832
1.00847
1.00855
1.00841
1.00806
1.0075
1.00677
1.00588
1.00488
1.0038
1.0027
1.00162
1.00059
0.99967
0.998878
0.998247
1.00856
1.00864
1.0085
1.00815
1.00758
1.00684
1.00593
1.00492
1.00382
1.0027
1.0016
1.00056
0.999619
0.998814
0.998172
1.00865
1.00873
1.00859
1.00823
1.00766
1.0069
1.00599
1.00495
1.00384
1.00271
1.00158
1.00052
0.999568
0.998748
0.998095
1.00874
1.00882
1.00868
1.00832
1.00774
1.00697
1.00604
1.00499
1.00386
1.00271
1.00157
1.00049
0.999514
0.99868
0.998015
1.00884
1.00892
1.00877
1.00841
1.00782
1.00704
1.0061
1.00503
1.00389
1.00271
1.00155
1.00045
0.99946
0.998611
0.997935
1.00893
1.00901
1.00887
1.0085
1.0079
1.00712
1.00616
1.00507
1.00391
1.00271
1.00153
1.00041
0.999403
0.99854
0.997852
1.00903
1.00911
1.00897
1.00859
1.00799
1.00719
1.00622
1.00511
1.00393
1.00271
1.00151
1.00037
0.999346
0.998467
0.997767
1.00913
1.00922
1.00907
1.00869
1.00807
1.00726
1.00627
1.00516
1.00395
1.00271
1.00149
1.00033
0.999286
0.998392
0.99768
1.00923
1.00932
1.00917
1.00879
1.00816
1.00734
1.00633
1.0052
1.00397
1.00271
1.00147
1.00029
0.999225
0.998315
0.997591
1.00934
1.00943
1.00927
1.00889
1.00825
1.00742
1.0064
1.00524
1.00399
1.00271
1.00144
1.00025
0.999163
0.998237
0.997499
1.00945
1.00954
1.00938
1.00899
1.00834
1.0075
1.00646
1.00528
1.00402
1.00271
1.00142
1.0002
0.999099
0.998156
0.997406
1.00956
1.00965
1.00949
1.00909
1.00844
1.00758
1.00652
1.00533
1.00404
1.00271
1.0014
1.00016
0.999033
0.998074
0.99731
1.00967
1.00976
1.0096
1.00919
1.00853
1.00766
1.00659
1.00537
1.00406
1.00271
1.00137
1.00011
0.998966
0.997989
0.997212
1.00978
1.00987
1.00971
1.0093
1.00863
1.00774
1.00665
1.00542
1.00408
1.00271
1.00135
1.00006
0.998897
0.997903
0.997111
1.0099
1.00999
1.00983
1.00941
1.00873
1.00783
1.00672
1.00547
1.00411
1.00271
1.00132
1.00001
0.998826
0.997814
0.997008
1.01002
1.01011
1.00994
1.00952
1.00883
1.00792
1.00679
1.00551
1.00413
1.00271
1.00129
0.999961
0.998753
0.997723
0.996903
1.01014
1.01023
1.01006
1.00964
1.00893
1.008
1.00686
1.00556
1.00415
1.0027
1.00127
0.999909
0.998678
0.99763
0.996795
1.01026
1.01036
1.01019
1.00976
1.00904
1.0081
1.00693
1.00561
1.00418
1.0027
1.00124
0.999855
0.998602
0.997534
0.996685
1.01039
1.01049
1.01031
1.00987
1.00915
1.00819
1.00701
1.00566
1.0042
1.0027
1.00121
0.9998
0.998524
0.997437
0.996572
1.01052
1.01062
1.01044
1.01
1.00926
1.00828
1.00708
1.00571
1.00423
1.0027
1.00118
0.999743
0.998443
0.997336
0.996456
1.01065
1.01075
1.01057
1.01012
1.00937
1.00838
1.00716
1.00576
1.00425
1.00269
1.00115
0.999684
0.998361
0.997234
0.996337
1.01078
1.01089
1.0107
1.01025
1.00949
1.00848
1.00723
1.00582
1.00428
1.00269
1.00111
0.999624
0.998276
0.997129
0.996216
1.01092
1.01102
1.01084
1.01038
1.0096
1.00858
1.00731
1.00587
1.0043
1.00268
1.00108
0.999563
0.998189
0.997021
0.996092
1.01106
1.01116
1.01098
1.01051
1.00972
1.00868
1.00739
1.00592
1.00433
1.00268
1.00104
0.999499
0.9981
0.996911
0.995964
1.0112
1.01131
1.01112
1.01064
1.00984
1.00878
1.00748
1.00598
1.00435
1.00267
1.00101
0.999434
0.998009
0.996798
0.995834
1.01134
1.01145
1.01126
1.01078
1.00997
1.00889
1.00756
1.00603
1.00438
1.00267
1.00097
0.999367
0.997915
0.996682
0.995701
1.01149
1.0116
1.01141
1.01092
1.01009
1.009
1.00764
1.00609
1.00441
1.00266
1.00093
0.999299
0.997819
0.996563
0.995565
1.01164
1.01176
1.01156
1.01106
1.01022
1.00911
1.00773
1.00615
1.00443
1.00266
1.00089
0.999228
0.997721
0.996442
0.995425
1.01179
1.01191
1.01171
1.0112
1.01036
1.00922
1.00782
1.00621
1.00446
1.00265
1.00085
0.999156
0.99762
0.996318
0.995282
1.01195
1.01207
1.01187
1.01135
1.01049
1.00934
1.00791
1.00627
1.00448
1.00264
1.00081
0.999082
0.997517
0.99619
0.995136
1.0121
1.01223
1.01203
1.0115
1.01063
1.00945
1.008
1.00633
1.00451
1.00263
1.00077
0.999006
0.997412
0.99606
0.994987
1.01227
1.0124
1.01219
1.01166
1.01077
1.00957
1.00809
1.00639
1.00454
1.00262
1.00072
0.998927
0.997303
0.995927
0.994834
1.01243
1.01256
1.01235
1.01181
1.01091
1.00969
1.00819
1.00645
1.00457
1.00261
1.00068
0.998847
0.997192
0.99579
0.994677
1.0126
1.01273
1.01252
1.01197
1.01105
1.00982
1.00828
1.00652
1.00459
1.0026
1.00063
0.998765
0.997078
0.995651
0.994517
1.01277
1.01291
1.01269
1.01214
1.0112
1.00994
1.00838
1.00658
1.00462
1.00259
1.00058
0.99868
0.996962
0.995508
0.994353
1.01295
1.01309
1.01287
1.0123
1.01135
1.01007
1.00848
1.00665
1.00465
1.00258
1.00053
0.998593
0.996843
0.995361
0.994186
1.01312
1.01327
1.01304
1.01247
1.01151
1.0102
1.00858
1.00671
1.00468
1.00257
1.00048
0.998504
0.99672
0.995211
0.994014
1.01331
1.01345
1.01323
1.01265
1.01166
1.01033
1.00868
1.00678
1.00471
1.00256
1.00043
0.998413
0.996595
0.995058
0.993839
1.01349
1.01364
1.01341
1.01282
1.01182
1.01047
1.00879
1.00685
1.00473
1.00254
1.00037
0.998319
0.996466
0.994901
0.99366
1.01368
1.01383
1.0136
1.013
1.01199
1.01061
1.0089
1.00692
1.00476
1.00253
1.00031
0.998222
0.996335
0.99474
0.993476
1.01387
1.01403
1.01379
1.01319
1.01215
1.01075
1.00901
1.00699
1.00479
1.00251
1.00025
0.998123
0.9962
0.994576
0.993289
1.01407
1.01423
1.01399
1.01337
1.01232
1.0109
1.00912
1.00706
1.00482
1.0025
1.00019
0.998022
0.996062
0.994407
0.993097
1.01427
1.01443
1.01419
1.01356
1.01249
1.01104
1.00923
1.00714
1.00485
1.00248
1.00013
0.997917
0.99592
0.994235
0.9929
1.01447
1.01464
1.01439
1.01376
1.01267
1.01119
1.00935
1.00721
1.00488
1.00246
1.00007
0.99781
0.995775
0.994059
0.9927
1.01468
1.01485
1.0146
1.01396
1.01285
1.01135
1.00946
1.00729
1.00491
1.00244
1
0.9977
0.995626
0.993878
0.992494
1.01489
1.01506
1.01482
1.01416
1.01303
1.0115
1.00958
1.00736
1.00494
1.00242
0.999934
0.997588
0.995474
0.993693
0.992285
1.0151
1.01528
1.01503
1.01437
1.01322
1.01166
1.00971
1.00744
1.00497
1.0024
0.999864
0.997472
0.995318
0.993505
0.99207
1.01532
1.01551
1.01525
1.01458
1.01341
1.01182
1.00983
1.00752
1.005
1.00238
0.999791
0.997353
0.995158
0.993311
0.991851
1.01554
1.01574
1.01548
1.01479
1.01361
1.01199
1.00996
1.0076
1.00502
1.00236
0.999717
0.997231
0.994995
0.993113
0.991626
1.01577
1.01597
1.01571
1.01501
1.0138
1.01215
1.01008
1.00768
1.00505
1.00233
0.99964
0.997105
0.994827
0.992911
0.991397
1.016
1.01621
1.01594
1.01523
1.01401
1.01232
1.01021
1.00776
1.00508
1.00231
0.99956
0.996977
0.994655
0.992704
0.991163
1.01624
1.01645
1.01618
1.01546
1.01421
1.0125
1.01035
1.00785
1.00511
1.00228
0.999478
0.996845
0.994479
0.992492
0.990923
1.01648
1.01669
1.01642
1.01569
1.01442
1.01268
1.01048
1.00793
1.00514
1.00225
0.999394
0.996709
0.994299
0.992275
0.990678
1.01673
1.01695
1.01667
1.01593
1.01464
1.01286
1.01062
1.00802
1.00517
1.00222
0.999307
0.99657
0.994114
0.992053
0.990428
1.01698
1.0172
1.01693
1.01617
1.01486
1.01304
1.01076
1.0081
1.0052
1.00219
0.999218
0.996427
0.993924
0.991826
0.990172
1.01723
1.01746
1.01718
1.01642
1.01508
1.01323
1.0109
1.00819
1.00523
1.00216
0.999125
0.99628
0.993731
0.991594
0.98991
1.01749
1.01773
1.01745
1.01667
1.01531
1.01342
1.01105
1.00828
1.00525
1.00212
0.99903
0.99613
0.993532
0.991356
0.989643
1.01776
1.018
1.01772
1.01693
1.01554
1.01362
1.0112
1.00837
1.00528
1.00209
0.998931
0.995975
0.993328
0.991113
0.98937
1.01803
1.01828
1.01799
1.01719
1.01578
1.01382
1.01135
1.00846
1.00531
1.00205
0.99883
0.995816
0.99312
0.990864
0.98909
1.0183
1.01856
1.01827
1.01746
1.01602
1.01402
1.0115
1.00856
1.00534
1.00201
0.998725
0.995653
0.992906
0.99061
0.988805
1.01858
1.01885
1.01856
1.01773
1.01626
1.01423
1.01165
1.00865
1.00536
1.00196
0.998617
0.995485
0.992687
0.990349
0.988513
1.01887
1.01914
1.01885
1.01801
1.01652
1.01444
1.01181
1.00874
1.00539
1.00192
0.998506
0.995313
0.992463
0.990083
0.988215
1.01916
1.01944
1.01914
1.01829
1.01677
1.01466
1.01197
1.00884
1.00541
1.00187
0.998391
0.995136
0.992233
0.989811
0.987911
1.01946
1.01975
1.01945
1.01858
1.01703
1.01488
1.01214
1.00894
1.00544
1.00183
0.998272
0.994954
0.991997
0.989532
0.9876
1.01976
1.02006
1.01975
1.01888
1.0173
1.0151
1.0123
1.00904
1.00546
1.00177
0.998149
0.994767
0.991756
0.989247
0.987282
1.02007
1.02038
1.02007
1.01918
1.01757
1.01533
1.01247
1.00914
1.00549
1.00172
0.998023
0.994576
0.991508
0.988956
0.986958
1.02038
1.0207
1.02039
1.01949
1.01785
1.01556
1.01264
1.00924
1.00551
1.00166
0.997892
0.994378
0.991255
0.988658
0.986626
1.0207
1.02103
1.02072
1.0198
1.01813
1.0158
1.01282
1.00934
1.00553
1.00161
0.997757
0.994176
0.990995
0.988353
0.986287
1.02103
1.02137
1.02105
1.02012
1.01842
1.01604
1.013
1.00944
1.00555
1.00154
0.997618
0.993968
0.990729
0.988041
0.985941
1.02136
1.02171
1.0214
1.02045
1.01872
1.01628
1.01318
1.00954
1.00557
1.00148
0.997474
0.993754
0.990456
0.987722
0.985588
1.0217
1.02206
1.02174
1.02078
1.01902
1.01653
1.01336
1.00965
1.00559
1.00141
0.997326
0.993534
0.990177
0.987395
0.985226
1.02205
1.02242
1.0221
1.02112
1.01933
1.01679
1.01355
1.00975
1.00561
1.00134
0.997172
0.993308
0.989891
0.987061
0.984858
1.02241
1.02279
1.02246
1.02147
1.01964
1.01705
1.01374
1.00986
1.00562
1.00127
0.997014
0.993076
0.989597
0.98672
0.984481
1.02277
1.02316
1.02283
1.02183
1.01996
1.01731
1.01393
1.00996
1.00564
1.00119
0.99685
0.992838
0.989296
0.986371
0.984097
1.02313
1.02354
1.02321
1.02219
1.02028
1.01758
1.01412
1.01007
1.00565
1.00111
0.996681
0.992592
0.988988
0.986014
0.983704
1.02351
1.02393
1.0236
1.02256
1.02062
1.01786
1.01432
1.01018
1.00566
1.00102
0.996506
0.99234
0.988672
0.985649
0.983303
1.02389
1.02433
1.02399
1.02294
1.02096
1.01814
1.01452
1.01029
1.00567
1.00093
0.996325
0.992081
0.988349
0.985275
0.982893
1.02428
1.02473
1.0244
1.02332
1.0213
1.01843
1.01473
1.0104
1.00567
1.00084
0.996138
0.991814
0.988017
0.984893
0.982475
1.02468
1.02514
1.02481
1.02372
1.02166
1.01872
1.01494
1.0105
1.00568
1.00074
0.995945
0.99154
0.987677
0.984502
0.982048
1.02509
1.02557
1.02523
1.02412
1.02202
1.01901
1.01515
1.01061
1.00568
1.00063
0.995746
0.991258
0.987328
0.984103
0.981612
1.0255
1.026
1.02566
1.02453
1.02239
1.01932
1.01536
1.01072
1.00568
1.00052
0.995539
0.990968
0.986971
0.983694
0.981167
1.02593
1.02644
1.0261
1.02495
1.02277
1.01963
1.01558
1.01083
1.00567
1.00041
0.995325
0.99067
0.986604
0.983277
0.980713
1.02636
1.02688
1.02654
1.02538
1.02315
1.01994
1.0158
1.01094
1.00567
1.00029
0.995104
0.990363
0.986229
0.982849
0.980249
1.0268
1.02734
1.027
1.02582
1.02354
1.02026
1.01602
1.01105
1.00566
1.00017
0.994876
0.990047
0.985844
0.982412
0.979776
1.02725
1.02781
1.02747
1.02627
1.02394
1.02058
1.01625
1.01116
1.00564
1.00003
0.994639
0.989723
0.985449
0.981966
0.979292
1.02771
1.02829
1.02794
1.02672
1.02435
1.02092
1.01647
1.01127
1.00563
0.999897
0.994395
0.989388
0.985045
0.981509
0.978799
1.02818
1.02878
1.02843
1.02719
1.02477
1.02125
1.01671
1.01138
1.00561
0.999752
0.994141
0.989045
0.98463
0.981042
0.978296
1.02866
1.02927
1.02893
1.02767
1.02519
1.0216
1.01694
1.01148
1.00558
0.999601
0.993879
0.988691
0.984205
0.980564
0.977782
1.02914
1.02978
1.02944
1.02816
1.02563
1.02195
1.01718
1.01159
1.00555
0.999443
0.993608
0.988327
0.983769
0.980076
0.977258
1.02964
1.0303
1.02996
1.02865
1.02607
1.0223
1.01742
1.01169
1.00551
0.999277
0.993327
0.987953
0.983322
0.979576
0.976723
1.03015
1.03083
1.03049
1.02916
1.02653
1.02267
1.01766
1.0118
1.00547
0.999102
0.993036
0.987567
0.982864
0.979066
0.976178
1.03067
1.03138
1.03104
1.02968
1.02699
1.02304
1.0179
1.0119
1.00543
0.99892
0.992735
0.98717
0.982395
0.978544
0.975621
1.0312
1.03193
1.03159
1.03022
1.02746
1.02341
1.01815
1.012
1.00538
0.998728
0.992423
0.986762
0.981913
0.97801
0.975053
1.03175
1.0325
1.03216
1.03076
1.02794
1.02379
1.0184
1.01209
1.00532
0.998527
0.9921
0.986341
0.981419
0.977464
0.974473
1.0323
1.03308
1.03274
1.03132
1.02844
1.02418
1.01865
1.01219
1.00526
0.998317
0.991766
0.985908
0.980913
0.976907
0.973882
1.03287
1.03367
1.03334
1.03189
1.02894
1.02458
1.0189
1.01228
1.00518
0.998096
0.991419
0.985463
0.980394
0.976337
0.973279
1.03344
1.03428
1.03394
1.03247
1.02945
1.02498
1.01916
1.01237
1.0051
0.997865
0.99106
0.985004
0.979862
0.975754
0.972664
1.03403
1.0349
1.03457
1.03306
1.02998
1.02539
1.01941
1.01245
1.00502
0.997622
0.990688
0.984532
0.979316
0.975158
0.972037
1.03464
1.03553
1.0352
1.03367
1.03051
1.02581
1.01967
1.01253
1.00492
0.997368
0.990303
0.984045
0.978757
0.974549
0.971397
1.03526
1.03618
1.03585
1.0343
1.03106
1.02623
1.01993
1.01261
1.00482
0.997102
0.989904
0.983544
0.978183
0.973927
0.970745
1.03589
1.03684
1.03652
1.03493
1.03162
1.02666
1.02019
1.01268
1.0047
0.996822
0.98949
0.983028
0.977595
0.97329
0.970079
1.03653
1.03752
1.0372
1.03559
1.03219
1.02709
1.02045
1.01274
1.00458
0.996529
0.989061
0.982497
0.976992
0.97264
0.969402
1.03719
1.03821
1.0379
1.03625
1.03277
1.02754
1.02071
1.0128
1.00444
0.996222
0.988617
0.98195
0.976374
0.971976
0.96871
1.03786
1.03892
1.03861
1.03693
1.03337
1.02799
1.02097
1.01286
1.00429
0.9959
0.988156
0.981387
0.97574
0.971297
0.968006
1.03855
1.03965
1.03935
1.03763
1.03397
1.02844
1.02123
1.0129
1.00413
0.995562
0.987678
0.980807
0.97509
0.970603
0.967287
1.03926
1.04039
1.0401
1.03835
1.03459
1.0289
1.02149
1.01294
1.00396
0.995209
0.987183
0.980209
0.974424
0.969895
0.966555
1.03998
1.04115
1.04086
1.03908
1.03522
1.02937
1.02175
1.01297
1.00377
0.994838
0.98667
0.979594
0.973741
0.96917
0.965809
1.04072
1.04193
1.04165
1.03983
1.03587
1.02985
1.022
1.01299
1.00357
0.994449
0.986138
0.97896
0.973041
0.96843
0.965049
1.04147
1.04273
1.04245
1.04059
1.03653
1.03033
1.02225
1.01299
1.00335
0.994042
0.985586
0.978308
0.972323
0.967674
0.964274
1.04224
1.04355
1.04328
1.04138
1.0372
1.03081
1.0225
1.01299
1.00312
0.993615
0.985014
0.977635
0.971587
0.966902
0.963484
1.04303
1.04438
1.04413
1.04218
1.03788
1.0313
1.02275
1.01298
1.00286
0.993167
0.984422
0.976943
0.970833
0.966113
0.96268
1.04384
1.04524
1.04499
1.04301
1.03858
1.0318
1.02299
1.01295
1.00259
0.992699
0.983807
0.976231
0.97006
0.965308
0.96186
1.04467
1.04612
1.04588
1.04385
1.0393
1.0323
1.02322
1.01291
1.0023
0.992208
0.983171
0.975497
0.969268
0.964485
0.961025
1.04552
1.04702
1.04679
1.04471
1.04003
1.03281
1.02345
1.01285
1.00199
0.991693
0.98251
0.974741
0.968456
0.963644
0.960175
1.04638
1.04794
1.04773
1.0456
1.04077
1.03332
1.02367
1.01278
1.00165
0.991154
0.981826
0.973963
0.967624
0.962786
0.959308
1.04727
1.04889
1.04868
1.0465
1.04152
1.03383
1.02389
1.01268
1.0013
0.99059
0.981117
0.973162
0.966772
0.961909
0.958426
1.04818
1.04986
1.04967
1.04743
1.04229
1.03434
1.02409
1.01257
1.00091
0.989999
0.980382
0.972337
0.965898
0.961014
0.957527
1.04912
1.05085
1.05068
1.04838
1.04308
1.03486
1.02428
1.01244
1.0005
0.98938
0.97962
0.971488
0.965003
0.9601
0.956613
1.05007
1.05187
1.05171
1.04936
1.04388
1.03538
1.02446
1.01229
1.00007
0.988733
0.978831
0.970615
0.964086
0.959168
0.955681
1.05106
1.05292
1.05278
1.05036
1.04469
1.0359
1.02462
1.01211
0.999602
0.988055
0.978014
0.969715
0.963147
0.958215
0.954733
1.05206
1.05399
1.05387
1.05138
1.04552
1.03642
1.02478
1.0119
0.999106
0.987346
0.977167
0.96879
0.962185
0.957243
0.953768
1.05309
1.05509
1.05499
1.05243
1.04636
1.03693
1.02491
1.01167
0.998577
0.986604
0.976289
0.967837
0.961199
0.956251
0.952785
1.05415
1.05623
1.05614
1.05351
1.04722
1.03745
1.02502
1.01141
0.998014
0.985829
0.975381
0.966857
0.96019
0.955239
0.951786
1.05523
1.05739
1.05732
1.05461
1.04809
1.03796
1.02512
1.01112
0.997415
0.985017
0.97444
0.965849
0.959157
0.954207
0.950769
1.05634
1.05858
1.05854
1.05574
1.04897
1.03846
1.02519
1.01079
0.996779
0.98417
0.973466
0.964812
0.9581
0.953153
0.949734
1.05749
1.05981
1.05979
1.05689
1.04987
1.03896
1.02523
1.01042
0.996102
0.983283
0.972458
0.963746
0.957017
0.952079
0.948681
1.05866
1.06107
1.06107
1.05808
1.05078
1.03944
1.02525
1.01002
0.995384
0.982358
0.971415
0.96265
0.955909
0.950983
0.947611
1.05986
1.06236
1.0624
1.05929
1.0517
1.03992
1.02523
1.00958
0.994622
0.981391
0.970335
0.961522
0.954775
0.949866
0.946523
1.0611
1.0637
1.06376
1.06054
1.05263
1.04038
1.02519
1.00909
0.993814
0.980382
0.969218
0.960364
0.953615
0.948727
0.945416
1.06236
1.06507
1.06515
1.06181
1.05357
1.04082
1.0251
1.00856
0.992958
0.979328
0.968063
0.959173
0.952429
0.947566
0.944292
1.06367
1.06648
1.06659
1.06312
1.05451
1.04125
1.02498
1.00797
0.992052
0.978229
0.966869
0.95795
0.951216
0.946384
0.943149
1.06501
1.06793
1.06808
1.06445
1.05547
1.04165
1.02481
1.00734
0.991093
0.977082
0.965635
0.956694
0.949976
0.945179
0.941988
1.06638
1.06943
1.0696
1.06582
1.05642
1.04203
1.02459
1.00664
0.99008
0.975887
0.96436
0.955404
0.948708
0.943952
0.940808
1.0678
1.07096
1.07118
1.06722
1.05738
1.04238
1.02433
1.00589
0.989008
0.974641
0.963043
0.95408
0.947413
0.942702
0.93961
1.06926
1.07255
1.0728
1.06866
1.05835
1.04269
1.024
1.00508
0.987877
0.973344
0.961683
0.952721
0.94609
0.94143
0.938393
1.07076
1.07419
1.07447
1.07012
1.05931
1.04297
1.02362
1.00419
0.986684
0.971992
0.960279
0.951328
0.944739
0.940135
0.937158
1.0723
1.07587
1.07619
1.07162
1.06026
1.0432
1.02317
1.00324
0.985426
0.970587
0.958831
0.949899
0.94336
0.938817
0.935904
1.07389
1.07761
1.07796
1.07314
1.0612
1.04339
1.02265
1.00221
0.9841
0.969125
0.957338
0.948434
0.941952
0.937477
0.934632
1.07552
1.07941
1.07979
1.0747
1.06214
1.04352
1.02206
1.00111
0.982705
0.967605
0.955798
0.946933
0.940516
0.936114
0.933341
1.0772
1.08126
1.08168
1.07629
1.06305
1.04359
1.02138
0.999918
0.981238
0.966026
0.954212
0.945395
0.939052
0.934728
0.932031
1.07894
1.08318
1.08362
1.07791
1.06395
1.0436
1.02062
0.998643
0.979696
0.964387
0.952579
0.943821
0.937558
0.93332
0.930703
1.08073
1.08516
1.08563
1.07955
1.06481
1.04353
1.01976
0.997278
0.978076
0.962687
0.950898
0.942211
0.936037
0.931888
0.929357
1.08257
1.0872
1.0877
1.08122
1.06564
1.04338
1.0188
0.995818
0.976378
0.960924
0.94917
0.940563
0.934486
0.930435
0.927992
1.08448
1.08932
1.08984
1.08291
1.06643
1.04314
1.01774
0.994258
0.974598
0.959097
0.947392
0.938879
0.932908
0.928959
0.926608
1.08644
1.09151
1.09204
1.08462
1.06717
1.0428
1.01656
0.992595
0.972735
0.957206
0.945566
0.937158
0.931301
0.92746
0.925207
1.08847
1.09379
1.09432
1.08635
1.06786
1.04235
1.01526
0.990825
0.970785
0.95525
0.943692
0.935401
0.929666
0.925939
0.923787
1.09057
1.09614
1.09666
1.08808
1.06847
1.04178
1.01383
0.988944
0.968749
0.953229
0.941769
0.933607
0.928003
0.924397
0.922349
1.09273
1.09859
1.09908
1.08982
1.06901
1.04108
1.01226
0.986947
0.966624
0.95114
0.939797
0.931777
0.926312
0.922832
0.920893
1.09497
1.10112
1.10158
1.09156
1.06945
1.04024
1.01055
0.984831
0.964409
0.948986
0.937776
0.929911
0.924595
0.921246
0.91942
1.09729
1.10376
1.10414
1.09329
1.06979
1.03924
1.00869
0.982593
0.962102
0.946765
0.935708
0.92801
0.92285
0.919639
0.917929
1.09969
1.10649
1.10679
1.095
1.07001
1.03808
1.00667
0.98023
0.959703
0.944478
0.933592
0.926075
0.921079
0.918011
0.916421
1.10217
1.10934
1.1095
1.09668
1.07009
1.03673
1.00449
0.977738
0.957211
0.942125
0.931429
0.924105
0.919283
0.916363
0.914897
1.10475
1.11231
1.1123
1.09832
1.07003
1.0352
1.00213
0.975116
0.954626
0.939707
0.929221
0.922102
0.91746
0.914694
0.913356
1.10742
1.11539
1.11516
1.0999
1.06979
1.03345
0.999589
0.972361
0.951948
0.937224
0.926967
0.920066
0.915613
0.913006
0.911799
1.1102
1.11861
1.11809
1.10141
1.06935
1.03148
0.996864
0.969473
0.949178
0.934678
0.924669
0.917999
0.913742
0.911298
0.910225
1.11308
1.12196
1.12108
1.10283
1.06871
1.02927
0.993946
0.96645
0.946317
0.932069
0.922328
0.915901
0.911848
0.909571
0.908637
1.11608
1.12546
1.12413
1.10413
1.06782
1.02681
0.990831
0.963292
0.943365
0.9294
0.919946
0.913773
0.909931
0.907827
0.907033
1.1192
1.12911
1.12723
1.10529
1.06667
1.02408
0.987515
0.960001
0.940324
0.926671
0.917524
0.911618
0.907992
0.906064
0.905414
1.12246
1.13292
1.13036
1.10629
1.06524
1.02107
0.983996
0.956576
0.937198
0.923887
0.915064
0.909435
0.906033
0.904284
0.903781
1.12586
1.13689
1.13352
1.10709
1.06349
1.01777
0.98027
0.953021
0.933987
0.921047
0.912568
0.907227
0.904053
0.902488
0.902134
1.1294
1.14104
1.13668
1.10767
1.06139
1.01416
0.976337
0.949338
0.930696
0.918157
0.910039
0.904994
0.902054
0.900676
0.900473
1.13312
1.14537
1.13983
1.10798
1.05892
1.01023
0.972199
0.945531
0.927328
0.915217
0.907477
0.902739
0.900037
0.898849
0.898799
1.13701
1.14988
1.14293
1.10799
1.05604
1.00598
0.967859
0.941605
0.923887
0.912232
0.904887
0.900463
0.898004
0.897007
0.897112
1.14109
1.15458
1.14597
1.10764
1.05273
1.00139
0.963319
0.937566
0.920376
0.909205
0.902269
0.898167
0.895954
0.895151
0.895414
1.14537
1.15947
1.14891
1.10689
1.04896
0.996468
0.958588
0.933419
0.916802
0.90614
0.899628
0.895854
0.893889
0.893282
0.893703
1.14989
1.16455
1.15169
1.1057
1.04469
0.991204
0.953672
0.929173
0.913169
0.90304
0.896965
0.893525
0.891811
0.891401
0.891982
1.15465
1.16982
1.15429
1.104
1.03991
0.985602
0.948582
0.924835
0.909484
0.89991
0.894285
0.891182
0.889721
0.889508
0.890249
1.15968
1.17526
1.15663
1.10173
1.03458
0.979668
0.943332
0.920413
0.90575
0.896755
0.891588
0.888827
0.887619
0.887604
0.888507
1.165
1.18087
1.15867
1.09884
1.02869
0.97341
0.937933
0.915918
0.901977
0.893579
0.88888
0.886461
0.885506
0.88569
0.886755
1.17063
1.18662
1.16031
1.09527
1.02222
0.966844
0.932404
0.911358
0.898169
0.890386
0.886162
0.884088
0.883385
0.883767
0.884994
1.17662
1.19249
1.1615
1.09094
1.01516
0.959988
0.926761
0.906745
0.894333
0.887182
0.883439
0.881707
0.881256
0.881835
0.883225
1.18299
1.19844
1.16213
1.0858
1.0075
0.952868
0.921025
0.902089
0.890478
0.883973
0.880712
0.879322
0.879121
0.879896
0.881449
1.18977
1.20443
1.16211
1.07978
0.999247
0.945513
0.915214
0.8974
0.88661
0.880762
0.877986
0.876934
0.87698
0.87795
0.879665
1.197
1.21039
1.16133
1.07283
0.99042
0.937958
0.90935
0.892689
0.882737
0.877555
0.875264
0.874545
0.874835
0.875998
0.877876
1.20473
1.21626
1.15967
1.06489
0.981042
0.930242
0.903455
0.887968
0.878867
0.874359
0.872547
0.872157
0.872688
0.874042
0.876081
1.21298
1.22193
1.15699
1.05591
0.971148
0.922408
0.897549
0.883246
0.875008
0.871177
0.86984
0.869772
0.870538
0.872082
0.874281
1.22179
1.22731
1.15318
1.04587
0.960789
0.914506
0.891652
0.878534
0.871167
0.868014
0.867145
0.86739
0.868389
0.87012
0.872479
1.23121
1.23225
1.14808
1.03474
0.95003
0.906583
0.885785
0.873843
0.867353
0.864877
0.864464
0.865014
0.866241
0.868156
0.870674
1.24127
1.2366
1.14154
1.02252
0.93895
0.89869
0.879964
0.869183
0.863574
0.861769
0.861801
0.862646
0.864095
0.866192
0.868868
1.25199
1.24017
1.13343
1.00924
0.927642
0.890876
0.874206
0.864564
0.859839
0.858696
0.859156
0.860286
0.861953
0.864229
0.867062
1.26339
1.24275
1.12358
0.994932
0.916213
0.883187
0.868523
0.859997
0.856154
0.85566
0.856534
0.857938
0.859818
0.86227
0.865259