/*--------------------------------*- C++ -*----------------------------------*\
  =========                 |
  \\      /  F ield         | OpenFOAM: The Open Source CFD Toolbox
   \\    /   O peration     | Website:  https://openfoam.org
    \\  /    A nd           | Version:  6.0
     \\/     M anipulation  |
\*---------------------------------------------------------------------------*/
FoamFile
{
    version     2.0;
    format      ascii;
    class       volVectorField;
    location    "8.2";
    object      U;
}
// * * * * * * * * * * * * * * * * * * * * * * * * * * * * * * * * * * * * * //

dimensions      [0 1 -1 0 0 0 0];

internalField   nonuniform List<vector> 
34500
(
(0.999996 4.94776e-06 -4.63429e-17)
(0.999969 -8.98539e-06 -8.13699e-18)
(0.999917 -3.47773e-05 1.42236e-16)
(0.999849 -7.9115e-05 -1.07664e-16)
(0.999775 -0.000144814 3.35527e-17)
(0.999705 -0.000230389 -1.01463e-16)
(0.999651 -0.00033072 -1.00974e-16)
(0.999619 -0.000437629 8.65215e-17)
(0.999613 -0.00054395 1.07224e-16)
(0.999634 -0.000641899 -6.82794e-16)
(0.99968 -0.000725006 -1.03969e-15)
(0.999743 -0.000794308 1.26694e-16)
(0.99982 -0.000836746 4.33529e-16)
(0.999975 -0.000927299 -2.06885e-16)
(0.998628 -0.00155615 7.59802e-17)
(0.999991 1.81147e-05 3.24551e-17)
(0.999942 -1.52584e-05 9.7652e-17)
(0.99985 -6.95683e-05 7.17622e-17)
(0.999729 -0.000157445 -3.02205e-16)
(0.999598 -0.000283169 -5.05855e-16)
(0.999477 -0.000443002 -5.50381e-17)
(0.999386 -0.000626428 2.55474e-16)
(0.999337 -0.000819372 -6.77085e-16)
(0.999336 -0.00100806 -1.78568e-16)
(0.999382 -0.00117962 6.81094e-16)
(0.999472 -0.00132056 1.26124e-15)
(0.999597 -0.00143285 -6.28508e-16)
(0.99973 -0.00149052 -9.82892e-16)
(1.00008 -0.00158236 -3.94014e-16)
(0.998614 -0.00218641 5.18763e-16)
(0.999988 3.18215e-05 1.04703e-17)
(0.999944 -1.60641e-05 -1.22936e-16)
(0.999864 -8.1641e-05 -1.25176e-16)
(0.99976 -0.000176722 4.55663e-16)
(0.99965 -0.000304129 -2.86168e-17)
(0.99955 -0.000459246 -1.63998e-16)
(0.999479 -0.000631076 9.78048e-17)
(0.999447 -0.000807314 3.84462e-16)
(0.999458 -0.000975365 2.345e-19)
(0.999511 -0.00112564 -3.92692e-16)
(0.999602 -0.00124554 -7.27407e-16)
(0.999727 -0.00133798 4.13205e-16)
(0.999839 -0.0013816 2.24454e-16)
(1.00021 -0.00142562 1.64112e-16)
(0.999259 -0.00168063 -2.4369e-16)
(0.999984 4.4875e-05 -1.73592e-17)
(0.999946 -1.79397e-05 -9.02526e-18)
(0.999882 -9.46174e-05 4.83248e-17)
(0.999799 -0.000195433 -3.05382e-16)
(0.999713 -0.00032193 3.72188e-16)
(0.999637 -0.000469275 3.29868e-16)
(0.999586 -0.00062702 -3.99359e-16)
(0.999568 -0.000785053 -4.19748e-16)
(0.999588 -0.000932668 4.34749e-16)
(0.999645 -0.0010635 -4.70183e-16)
(0.999733 -0.00116708 -2.44203e-16)
(0.999852 -0.00124754 -3.84871e-16)
(0.99994 -0.00129244 5.41437e-16)
(1.00028 -0.00131837 -4.79218e-17)
(0.999668 -0.00150082 2.14269e-17)
(0.999977 5.74261e-05 -1.7048e-17)
(0.999941 -2.13741e-05 1.53341e-16)
(0.999881 -0.000113063 6.95604e-17)
(0.999804 -0.000227321 1.69753e-16)
(0.999725 -0.000365086 4.67409e-17)
(0.999657 -0.000521274 -1.58214e-16)
(0.999614 -0.000685357 1.02496e-16)
(0.999604 -0.000847682 2.66203e-16)
(0.999632 -0.000997399 -4.17468e-16)
(0.999696 -0.0011286 -2.3082e-16)
(0.99979 -0.00123079 1.00565e-15)
(0.999918 -0.00130804 6.33482e-16)
(1.00001 -0.00135282 -2.89232e-16)
(1.0003 -0.00135962 5.9124e-16)
(0.999915 -0.00150187 -5.86894e-16)
(0.999969 6.96282e-05 1.83569e-17)
(0.999932 -2.50764e-05 -9.48261e-17)
(0.999873 -0.00013251 -1.86356e-16)
(0.999799 -0.000261713 -5.29367e-17)
(0.999726 -0.000413023 1.09422e-16)
(0.999663 -0.000580929 -1.0882e-16)
(0.999626 -0.000754673 1.48135e-16)
(0.999624 -0.000924583 1.31142e-16)
(0.99966 -0.00107904 2.90876e-16)
(0.999735 -0.00121153 -1.00178e-16)
(0.99984 -0.00131064 2.86099e-18)
(0.999982 -0.00137946 -3.88838e-16)
(1.00008 -0.00141389 1.82875e-17)
(1.00034 -0.00139208 -4.68136e-16)
(1.00011 -0.00145683 7.41102e-17)
(0.999959 8.14059e-05 3.25633e-18)
(0.999923 -2.87037e-05 -3.55937e-17)
(0.999868 -0.00015089 -2.90221e-17)
(0.999801 -0.000292987 1.75744e-16)
(0.999736 -0.000454512 -2.20443e-16)
(0.999684 -0.000629464 2.75418e-16)
(0.999658 -0.000807193 -6.19099e-16)
(0.999665 -0.000978551 -3.69725e-16)
(0.999712 -0.00113172 -1.51531e-16)
(0.999796 -0.00126011 6.70973e-16)
(0.99991 -0.00135186 -7.67741e-16)
(1.00006 -0.00140929 2.97783e-16)
(1.00017 -0.00143303 4.55637e-16)
(1.00039 -0.00138929 -9.57346e-17)
(1.00025 -0.00140424 -1.20677e-16)
(0.999949 9.26845e-05 1.51204e-17)
(0.999914 -3.25384e-05 3.22917e-17)
(0.999864 -0.000168967 2.5031e-17)
(0.999805 -0.000322954 -1.5087e-16)
(0.999751 -0.000493142 3.2885e-16)
(0.999711 -0.000673008 -1.39572e-16)
(0.999697 -0.000852225 2.01503e-16)
(0.999716 -0.00102255 -1.46223e-16)
(0.999772 -0.00117254 3.97415e-16)
(0.999866 -0.00129605 1.77665e-16)
(0.999987 -0.00138139 2.44607e-16)
(1.00014 -0.0014304 -5.64711e-17)
(1.00026 -0.00144884 -5.041e-16)
(1.00046 -0.00139453 1.13715e-15)
(1.00037 -0.00138878 1.86467e-16)
(0.999937 0.000103473 -1.12188e-17)
(0.999904 -3.67288e-05 9.89693e-17)
(0.999858 -0.000187508 1.5081e-16)
(0.999806 -0.000353754 1.1192e-16)
(0.999762 -0.000533348 -4.88646e-16)
(0.999733 -0.000719159 1.40949e-16)
(0.99973 -0.000901127 3.20652e-16)
(0.99976 -0.00107182 7.72286e-16)
(0.999827 -0.00122036 -3.85277e-16)
(0.999929 -0.00134115 9.00077e-17)
(1.00006 -0.00142292 4.48841e-16)
(1.00022 -0.00146686 -3.2353e-16)
(1.00035 -0.00148268 -1.53911e-16)
(1.00053 -0.00142239 -3.80527e-16)
(1.00047 -0.00139787 8.4017e-17)
(0.999924 0.000113834 4.06957e-17)
(0.999891 -4.11902e-05 -8.97491e-17)
(0.999849 -0.000206449 8.85351e-18)
(0.999803 -0.000385474 -1.10182e-16)
(0.999767 -0.000575525 4.10622e-16)
(0.999748 -0.000768817 7.96027e-17)
(0.999756 -0.000955376 2.70201e-16)
(0.999797 -0.00112829 -5.72956e-16)
(0.999874 -0.00127716 4.1577e-17)
(0.999986 -0.0013969 -7.86561e-17)
(1.00012 -0.00147669 -1.39607e-16)
(1.00029 -0.00151675 4.41082e-17)
(1.00043 -0.00152912 5.91898e-16)
(1.00061 -0.00146202 -8.03827e-16)
(1.00059 -0.00141277 -2.69369e-16)
(0.99991 0.000123837 -2.62283e-17)
(0.999877 -4.57944e-05 3.52547e-17)
(0.999838 -0.000225465 -1.4754e-16)
(0.999797 -0.000417423 2.49962e-16)
(0.999769 -0.000618443 -3.61571e-16)
(0.999759 -0.00082012 -3.03066e-16)
(0.999777 -0.00101244 -3.38821e-16)
(0.999829 -0.0011887 3.91064e-17)
(0.999916 -0.00133881 -8.1396e-17)
(1.00004 -0.00145806 -4.24394e-16)
(1.00018 -0.00153607 -7.20895e-16)
(1.00036 -0.00157193 2.85713e-16)
(1.00051 -0.00157867 -3.28218e-16)
(1.00069 -0.00150246 9.06621e-16)
(1.00071 -0.0014255 5.37317e-17)
(0.999895 0.000133553 -2.45596e-17)
(0.999862 -5.04591e-05 -1.04247e-16)
(0.999826 -0.000244348 1.50752e-16)
(0.99979 -0.000449131 -2.34176e-16)
(0.999769 -0.000661208 7.68728e-17)
(0.999768 -0.000871671 4.54192e-16)
(0.999796 -0.00107041 5.53933e-17)
(0.999859 -0.00125066 -6.73471e-17)
(0.999957 -0.00140243 1.81526e-16)
(1.00009 -0.00152115 -1.56889e-16)
(1.00025 -0.00159687 -9.50582e-17)
(1.00043 -0.00162746 -6.67621e-17)
(1.0006 -0.00162619 -2.87042e-16)
(1.00078 -0.00153863 -6.21183e-16)
(1.00083 -0.00143393 1.242e-17)
(0.999879 0.000143056 -2.17708e-18)
(0.999846 -5.51342e-05 1.40516e-16)
(0.999813 -0.00026301 -2.21543e-16)
(0.999782 -0.000480379 8.34157e-17)
(0.999768 -0.000703341 -9.35709e-17)
(0.999776 -0.000922613 -1.54766e-16)
(0.999815 -0.00112799 -3.88951e-17)
(0.999888 -0.00131248 3.65047e-16)
(0.999998 -0.00146596 -6.30231e-16)
(1.00014 -0.00158376 4.20242e-16)
(1.00031 -0.00165625 2.20487e-16)
(1.0005 -0.00168024 1.84045e-16)
(1.00068 -0.00166888 7.49339e-16)
(1.00087 -0.00156846 7.29884e-16)
(1.00096 -0.00143839 5.48773e-16)
(0.999861 0.000152427 8.30489e-18)
(0.999828 -5.97845e-05 5.2884e-17)
(0.999799 -0.000281409 1.76084e-16)
(0.999774 -0.000511052 5.57763e-17)
(0.999768 -0.000744526 1.70657e-16)
(0.999784 -0.000972292 1.6807e-16)
(0.999834 -0.00118408 -1.1848e-17)
(0.999919 -0.00137262 4.92977e-17)
(1.00004 -0.00152748 9.37726e-16)
(1.0002 -0.00164374 -1.13909e-16)
(1.00037 -0.00171202 5.42149e-16)
(1.00058 -0.00172832 -7.38981e-16)
(1.00077 -0.00170582 1.36957e-16)
(1.00096 -0.0015926 -1.34459e-15)
(1.00108 -0.00144207 -6.16688e-16)
(0.999843 0.000161742 9.94172e-18)
(0.99981 -6.43873e-05 -1.17698e-16)
(0.999784 -0.000299554 1.5481e-16)
(0.999765 -0.000541157 -2.24129e-16)
(0.999767 -0.000784703 1.56853e-16)
(0.999794 -0.00102045 2.07201e-17)
(0.999854 -0.00123813 1.9503e-16)
(0.999951 -0.00143022 -2.60017e-16)
(1.00008 -0.00158598 -8.39055e-16)
(1.00025 -0.00170012 2.49268e-16)
(1.00044 -0.0017636 -5.60186e-16)
(1.00065 -0.00177191 1.12821e-16)
(1.00086 -0.00173853 -4.90229e-16)
(1.00105 -0.00161416 2.65673e-16)
(1.0012 -0.00144912 -1.08551e-16)
(0.999823 0.000171077 3.3245e-17)
(0.99979 -6.89325e-05 7.18966e-17)
(0.999768 -0.000317505 -3.59e-16)
(0.999756 -0.000570858 2.88414e-16)
(0.999767 -0.000824152 -2.79983e-16)
(0.999805 -0.00106745 -3.72999e-16)
(0.999876 -0.00129053 -3.82955e-16)
(0.999985 -0.00148571 3.37608e-16)
(1.00013 -0.001642 7.18876e-16)
(1.00031 -0.00175383 1.63017e-16)
(1.00051 -0.00181254 9.47057e-17)
(1.00073 -0.00181345 7.00872e-17)
(1.00095 -0.00177047 -7.32918e-16)
(1.00115 -0.00163737 6.4396e-17)
(1.00131 -0.00146266 6.32958e-16)
(0.999802 0.000180503 -8.96772e-17)
(0.999769 -7.34119e-05 -9.24091e-17)
(0.999751 -0.000335355 3.42893e-17)
(0.999746 -0.00060042 -2.64367e-16)
(0.999767 -0.000863398 -1.79674e-17)
(0.999815 -0.00111411 4.81679e-16)
(0.999899 -0.0013424 5.50744e-17)
(1.00002 -0.00154051 3.04082e-16)
(1.00018 -0.00169731 -6.02852e-16)
(1.00037 -0.00180707 -3.09657e-16)
(1.00058 -0.00186159 4.44573e-16)
(1.00081 -0.00185619 -1.49055e-16)
(1.00103 -0.00180515 4.83684e-16)
(1.00124 -0.00166528 7.49502e-16)
(1.00142 -0.00148324 -5.98645e-17)
(0.99978 0.000190087 2.80937e-17)
(0.999747 -7.7812e-05 1.1477e-17)
(0.999732 -0.00035318 1.15633e-16)
(0.999735 -0.000630098 2.25903e-18)
(0.999764 -0.00090298 9.88692e-17)
(0.999824 -0.00116133 -2.89645e-16)
(0.99992 -0.00139504 5.98245e-16)
(1.00005 -0.0015963 -1.53482e-16)
(1.00022 -0.00175396 6.52449e-16)
(1.00043 -0.00186217 -3.41308e-16)
(1.00065 -0.00191329 -5.43427e-16)
(1.00089 -0.00190268 5.24469e-16)
(1.00112 -0.00184462 -8.84244e-16)
(1.00134 -0.00169881 -1.30234e-15)
(1.00152 -0.00150923 -3.29677e-16)
(0.999756 0.00019989 3.12793e-18)
(0.999723 -8.21074e-05 1.95011e-17)
(0.999712 -0.000371019 -3.12188e-17)
(0.999721 -0.000660051 1.58681e-16)
(0.99976 -0.000943263 1.08829e-16)
(0.99983 -0.00120977 -4.2673e-17)
(0.999938 -0.00144942 -3.606e-16)
(1.00008 -0.00165433 -3.47594e-16)
(1.00027 -0.00181336 -2.34938e-16)
(1.00048 -0.00192064 4.32914e-16)
(1.00071 -0.00196898 3.35423e-16)
(1.00096 -0.00195378 -4.9314e-16)
(1.00121 -0.0018889 1.0954e-15)
(1.00143 -0.00173669 1.37229e-15)
(1.00162 -0.00153776 4.63802e-17)
(0.999731 0.000209961 3.57676e-17)
(0.999698 -8.62669e-05 -4.76042e-17)
(0.99969 -0.000388863 2.29463e-16)
(0.999705 -0.000690314 -4.56986e-17)
(0.999753 -0.000984352 -1.74408e-16)
(0.999834 -0.00125964 7.39365e-17)
(0.999953 -0.00150587 -1.29706e-16)
(1.00011 -0.00171502 2.93479e-16)
(1.00031 -0.00187595 7.71434e-17)
(1.00053 -0.0019827 5.39254e-17)
(1.00078 -0.0020285 -2.57246e-16)
(1.00104 -0.00200869 3.41452e-16)
(1.00129 -0.00193645 1.7403e-16)
(1.00153 -0.00177655 1.55465e-16)
(1.00173 -0.00156619 3.93948e-16)
(0.999705 0.000220338 -1.83876e-17)
(0.999671 -9.02569e-05 2.72507e-17)
(0.999667 -0.000406673 -3.71958e-16)
(0.999688 -0.000720813 -2.37965e-16)
(0.999743 -0.00102612 3.29333e-16)
(0.999835 -0.00131074 -8.91529e-17)
(0.999966 -0.00156414 5.20758e-16)
(1.00014 -0.00177801 -1.41375e-16)
(1.00035 -0.00194115 -7.50756e-18)
(1.00059 -0.00204747 -1.49947e-16)
(1.00084 -0.00209053 3.84999e-16)
(1.00111 -0.00206559 -2.42649e-16)
(1.00138 -0.00198503 -7.9759e-16)
(1.00162 -0.00181603 -1.89798e-16)
(1.00184 -0.00159293 -4.50006e-16)
(0.999677 0.000231043 2.47526e-17)
(0.999643 -9.40515e-05 1.12587e-16)
(0.999642 -0.000424393 3.35252e-16)
(0.999668 -0.000751419 2.6018e-16)
(0.999732 -0.00106829 -3.20691e-17)
(0.999834 -0.00136263 -1.30271e-16)
(0.999977 -0.00162356 -5.765e-16)
(1.00016 -0.0018424 -6.70212e-17)
(1.00038 -0.00200781 -3.4238e-16)
(1.00064 -0.00211352 1.10883e-16)
(1.0009 -0.00215336 -7.0568e-16)
(1.00119 -0.00212255 3.4038e-16)
(1.00146 -0.00203282 1.14904e-15)
(1.00171 -0.00185377 -8.85639e-16)
(1.00195 -0.00161792 5.24599e-16)
(0.999647 0.000242082 -1.99591e-17)
(0.999614 -9.76358e-05 -1.58414e-16)
(0.999615 -0.000441983 -1.91873e-16)
(0.999647 -0.000782006 -9.56941e-17)
(0.99972 -0.00111059 -6.12826e-17)
(0.999832 -0.00141479 8.41284e-17)
(0.999987 -0.00168335 -3.22148e-17)
(1.00018 -0.00190717 -4.42445e-16)
(1.00042 -0.0020747 -1.30217e-16)
(1.00069 -0.00217948 -3.27835e-17)
(1.00097 -0.00221556 6.42312e-16)
(1.00126 -0.00217831 1.07418e-16)
(1.00155 -0.00207896 -9.55329e-16)
(1.00181 -0.00188967 5.068e-16)
(1.00206 -0.00164214 -1.01544e-16)
(0.999616 0.000253447 1.80298e-17)
(0.999583 -0.000101011 9.31426e-17)
(0.999587 -0.000459424 9.23492e-17)
(0.999626 -0.000812497 1.79592e-16)
(0.999707 -0.00115281 -9.78436e-17)
(0.999829 -0.00146686 -2.75199e-17)
(0.999997 -0.00174298 1.98823e-16)
(1.00021 -0.00197161 2.97075e-16)
(1.00046 -0.00214101 -2.14074e-17)
(1.00074 -0.00224456 -3.58598e-16)
(1.00103 -0.00227654 -2.75619e-16)
(1.00134 -0.00223259 -4.84429e-16)
(1.00163 -0.00212374 2.03209e-17)
(1.00191 -0.00192467 2.62418e-16)
(1.00216 -0.00166707 -1.58746e-16)
(0.999583 0.000265118 -9.64038e-18)
(0.999551 -0.00010419 -5.51196e-17)
(0.999559 -0.000476736 1.4025e-16)
(0.999603 -0.00084289 1.47089e-17)
(0.999693 -0.00119492 -1.24553e-16)
(0.999827 -0.00151872 1.00434e-16)
(1.00001 -0.00180225 -4.79731e-17)
(1.00023 -0.00203549 2.73912e-16)
(1.00049 -0.00220656 5.06056e-16)
(1.00079 -0.0023087 7.85815e-17)
(1.0011 -0.00233652 2.37849e-16)
(1.00141 -0.00228602 2.42058e-16)
(1.00172 -0.0021682 5.97401e-17)
(1.002 -0.00196015 -5.40038e-16)
(1.00227 -0.00169381 1.30876e-16)
(0.999549 0.000277063 1.29136e-17)
(0.999518 -0.000107199 1.16091e-17)
(0.999529 -0.00049396 -2.86526e-16)
(0.99958 -0.000873254 -1.25169e-16)
(0.999678 -0.00123699 1.75968e-16)
(0.999823 -0.00157049 -2.74668e-17)
(1.00002 -0.00186131 1.83687e-16)
(1.00026 -0.00209906 -2.43954e-16)
(1.00053 -0.00227173 1.39053e-16)
(1.00084 -0.00237253 1.15639e-16)
(1.00116 -0.00239638 1.22047e-16)
(1.00149 -0.00233975 1.55275e-16)
(1.00181 -0.00221361 2.15793e-16)
(1.0021 -0.00199729 3.03602e-17)
(1.00237 -0.00172296 7.69862e-17)
(0.999513 0.000289246 -3.97317e-17)
(0.999483 -0.000110069 1.05128e-16)
(0.999498 -0.000511156 1.64518e-16)
(0.999555 -0.000903698 -1.05306e-16)
(0.999663 -0.00127922 -6.84569e-17)
(0.999819 -0.00162246 3.8961e-17)
(1.00003 -0.00192058 -2.00112e-16)
(1.00028 -0.00216286 -1.30928e-16)
(1.00057 -0.00233723 -1.71958e-16)
(1.00089 -0.0024369 2.73272e-16)
(1.00123 -0.00245712 -3.79054e-16)
(1.00157 -0.00239482 2.9601e-16)
(1.0019 -0.0022609 1.44938e-16)
(1.0022 -0.00203665 5.42192e-16)
(1.00248 -0.00175422 -4.95916e-16)
(0.999476 0.000301628 1.67653e-17)
(0.999447 -0.000112832 -7.91273e-17)
(0.999465 -0.000528385 5.79327e-17)
(0.999529 -0.000934337 1.28125e-16)
(0.999646 -0.0013218 -8.88226e-17)
(0.999814 -0.00167493 -1.50103e-16)
(1.00003 -0.00198051 -7.10625e-17)
(1.0003 -0.0022275 9.79218e-17)
(1.0006 -0.00240379 -4.47871e-16)
(1.00094 -0.00250262 6.60752e-17)
(1.00129 -0.00251953 2.51857e-16)
(1.00164 -0.00245187 -7.03761e-16)
(1.00198 -0.00231037 1.42058e-16)
(1.00229 -0.00207807 2.1749e-17)
(1.00258 -0.00178688 3.65695e-16)
(0.999438 0.00031417 -6.37361e-18)
(0.99941 -0.000115519 9.69789e-17)
(0.999431 -0.000545697 -9.36902e-17)
(0.999501 -0.000965261 -5.8148e-17)
(0.999627 -0.00136489 -9.27341e-17)
(0.999807 -0.00172816 -4.90369e-17)
(1.00004 -0.00204143 -1.05724e-16)
(1.00032 -0.00229337 7.54753e-17)
(1.00064 -0.00247184 2.90232e-17)
(1.00099 -0.00257008 -3.10095e-16)
(1.00135 -0.00258388 -3.69867e-16)
(1.00172 -0.00251093 4.1021e-16)
(1.00207 -0.00236173 -3.57957e-16)
(1.00239 -0.0021209 -1.13919e-16)
(1.00269 -0.00182006 -1.12006e-17)
(0.999398 0.000326835 -1.92863e-17)
(0.999371 -0.000118159 -4.47995e-17)
(0.999395 -0.000563126 3.16399e-17)
(0.999472 -0.000996515 2.25448e-16)
(0.999607 -0.00140855 3.76473e-16)
(0.999798 -0.00178221 3.0732e-16)
(1.00004 -0.00210345 3.3574e-16)
(1.00034 -0.00236059 -2.14169e-16)
(1.00067 -0.00254145 6.77736e-20)
(1.00104 -0.00263924 2.3223e-16)
(1.00141 -0.00264993 4.5721e-17)
(1.00179 -0.00257153 2.52059e-16)
(1.00215 -0.0024143 2.02485e-16)
(1.00249 -0.00216437 -5.30259e-16)
(1.00279 -0.0018532 -3.47825e-16)
(0.999357 0.00033959 9.92301e-18)
(0.99933 -0.000120775 -8.09715e-17)
(0.999358 -0.000580692 -1.61958e-16)
(0.999441 -0.00102811 -1.58968e-16)
(0.999585 -0.00145277 1.46099e-17)
(0.999788 -0.00183705 -1.73502e-16)
(1.00005 -0.00216648 -3.77734e-16)
(1.00036 -0.00242901 2.88281e-16)
(1.0007 -0.00261236 2.34433e-16)
(1.00108 -0.00270972 -5.16852e-16)
(1.00147 -0.00271717 4.23899e-16)
(1.00186 -0.00263305 -3.08947e-16)
(1.00224 -0.00246743 -1.42365e-16)
(1.00258 -0.0022079 -1.2442e-16)
(1.0029 -0.00188612 1.48195e-16)
(0.999314 0.000352408 3.77734e-17)
(0.999288 -0.000123394 1.73742e-17)
(0.999319 -0.000598403 8.75968e-17)
(0.999409 -0.00106001 4.06887e-17)
(0.999562 -0.00149747 4.78676e-17)
(0.999776 -0.00189254 3.00071e-16)
(1.00005 -0.00223028 -1.35572e-16)
(1.00037 -0.0024983 1.48126e-16)
(1.00073 -0.00268418 8.50379e-17)
(1.00113 -0.00278103 5.92543e-17)
(1.00153 -0.00278506 1.97372e-16)
(1.00194 -0.00269494 -4.20699e-17)
(1.00233 -0.0025207 9.34722e-18)
(1.00268 -0.00225137 8.67847e-16)
(1.003 -0.00191912 2.75714e-18)
(0.999271 0.000365265 -3.66645e-17)
(0.999245 -0.00012604 -1.26621e-17)
(0.999279 -0.00061627 5.72704e-17)
(0.999375 -0.00109221 -1.74604e-16)
(0.999537 -0.00154257 -2.79648e-16)
(0.999762 -0.0019485 -2.67922e-16)
(1.00005 -0.00229463 2.26987e-16)
(1.00039 -0.00256816 -8.30088e-17)
(1.00076 -0.00275652 9.67845e-18)
(1.00117 -0.00285278 -5.01369e-18)
(1.00159 -0.00285326 -2.72625e-16)
(1.00201 -0.00275699 -2.46332e-16)
(1.00241 -0.0025741 -1.58797e-16)
(1.00278 -0.00229501 2.40874e-17)
(1.00311 -0.00195265 -5.42911e-17)
(0.999226 0.000378143 -1.83043e-17)
(0.9992 -0.000128737 4.84411e-17)
(0.999238 -0.000634302 4.76575e-17)
(0.999339 -0.00112467 7.75501e-17)
(0.999511 -0.00158801 1.06063e-16)
(0.999748 -0.00200486 1.67595e-18)
(1.00005 -0.00235938 2.26887e-16)
(1.0004 -0.0026384 -5.05858e-16)
(1.00079 -0.00282922 2.57923e-16)
(1.00122 -0.00292486 2.6301e-16)
(1.00165 -0.00292174 -3.76197e-16)
(1.00208 -0.00281935 7.02409e-16)
(1.0025 -0.00262795 3.69638e-16)
(1.00287 -0.0023393 -6.8845e-16)
(1.00322 -0.00198722 -2.04724e-16)
(0.99918 0.000391028 3.78519e-17)
(0.999154 -0.000131513 2.93899e-17)
(0.999194 -0.000652522 4.5894e-18)
(0.999303 -0.00115743 -3.47644e-17)
(0.999483 -0.00163381 2.0165e-17)
(0.999732 -0.00206159 2.84491e-16)
(1.00004 -0.00242452 -4.58519e-17)
(1.00041 -0.00270904 3.24624e-16)
(1.00082 -0.00290234 -4.80292e-17)
(1.00126 -0.00299739 -2.90917e-16)
(1.00171 -0.00299078 6.01845e-16)
(1.00216 -0.00288241 -3.61097e-16)
(1.00259 -0.00268272 -4.88699e-16)
(1.00297 -0.00238473 2.06481e-16)
(1.00332 -0.00202306 3.45053e-16)
(0.999133 0.000403912 -3.14772e-17)
(0.999106 -0.000134391 -1.32687e-17)
(0.99915 -0.000670952 -1.7302e-16)
(0.999264 -0.0011905 -8.45523e-17)
(0.999455 -0.00168001 5.2068e-17)
(0.999715 -0.00211879 -2.87202e-16)
(1.00004 -0.00249017 -8.44191e-17)
(1.00042 -0.00278027 2.82927e-16)
(1.00085 -0.00297613 -2.39246e-16)
(1.00131 -0.00307072 7.01494e-17)
(1.00177 -0.00306077 -3.35131e-16)
(1.00223 -0.00294661 1.054e-17)
(1.00267 -0.00273883 2.64516e-16)
(1.00307 -0.00243157 1.39118e-16)
(1.00343 -0.00206017 -5.41885e-17)
(0.999084 0.00041679 3.00284e-17)
(0.999057 -0.000137395 -9.74213e-17)
(0.999104 -0.00068962 8.17752e-17)
(0.999225 -0.00122392 5.35192e-17)
(0.999425 -0.00172667 -4.035e-17)
(0.999697 -0.00217656 -1.72517e-16)
(1.00004 -0.00255653 5.23027e-17)
(1.00044 -0.00285232 -1.29712e-16)
(1.00088 -0.0030509 -2.18675e-16)
(1.00135 -0.00314521 -2.73259e-17)
(1.00183 -0.00313208 -4.84313e-16)
(1.00231 -0.00301227 4.95527e-16)
(1.00276 -0.00279646 3.85034e-17)
(1.00317 -0.00247981 -7.94226e-17)
(1.00353 -0.00209822 -7.72414e-18)
(0.999035 0.00042966 -3.6831e-17)
(0.999006 -0.000140543 1.00289e-16)
(0.999056 -0.000708551 -2.30371e-17)
(0.999184 -0.00125774 -2.09847e-16)
(0.999393 -0.00177389 -9.99782e-17)
(0.999678 -0.00223505 1.16133e-16)
(1.00003 -0.00262376 -1.7039e-16)
(1.00045 -0.00292544 -1.90839e-16)
(1.0009 -0.00312692 3.24732e-16)
(1.00139 -0.00322111 1.12977e-16)
(1.00189 -0.00320493 5.08183e-16)
(1.00238 -0.0030795 -3.82134e-16)
(1.00284 -0.00285557 1.37278e-16)
(1.00326 -0.00252924 -1.54499e-16)
(1.00364 -0.00213693 5.14933e-18)
(0.998983 0.000442523 2.27963e-17)
(0.998954 -0.000143848 -5.80356e-17)
(0.999007 -0.000727761 7.20871e-17)
(0.999141 -0.00129199 3.12669e-16)
(0.99936 -0.00182171 1.32676e-16)
(0.999657 -0.00229433 8.23057e-17)
(1.00003 -0.002692 3.38434e-16)
(1.00046 -0.00299976 1.60814e-16)
(1.00093 -0.0032043 -2.64836e-16)
(1.00143 -0.0032985 4.5118e-16)
(1.00195 -0.00327931 2.5086e-16)
(1.00245 -0.00314817 -2.12267e-16)
(1.00293 -0.00291591 -4.05907e-16)
(1.00336 -0.00257953 -1.57671e-16)
(1.00374 -0.00217596 6.08536e-17)
(0.998931 0.000455381 4.68074e-18)
(0.9989 -0.000147319 -1.23646e-16)
(0.998956 -0.000747259 -9.1756e-17)
(0.999097 -0.00132667 -2.1529e-16)
(0.999325 -0.00187014 3.45804e-17)
(0.999634 -0.00235443 -3.34246e-16)
(1.00002 -0.00276125 -3.59299e-16)
(1.00046 -0.00307527 -1.4451e-16)
(1.00095 -0.00328303 3.0782e-16)
(1.00148 -0.00337729 -3.2692e-16)
(1.00201 -0.00335505 1.15578e-16)
(1.00252 -0.00321804 2.14809e-16)
(1.00302 -0.0029772 3.2602e-16)
(1.00346 -0.00263042 1.98877e-16)
(1.00385 -0.00221524 1.68821e-17)
(0.998876 0.000468238 3.29014e-17)
(0.998844 -0.000150959 2.02088e-16)
(0.998904 -0.00076705 9.40517e-17)
(0.999051 -0.00136178 1.80736e-16)
(0.999289 -0.00191917 1.08283e-16)
(0.99961 -0.00241531 4.5644e-17)
(1.00001 -0.00283146 5.26478e-17)
(1.00047 -0.00315191 -1.20947e-16)
(1.00098 -0.00336296 -1.22629e-16)
(1.00152 -0.00345729 1.43683e-17)
(1.00206 -0.00343192 -7.89755e-16)
(1.0026 -0.00328886 -3.08374e-16)
(1.0031 -0.00303922 3.24181e-16)
(1.00356 -0.00268177 -7.22732e-17)
(1.00396 -0.00225479 -2.00114e-16)
(0.99882 0.000481096 -4.42211e-17)
(0.998788 -0.000154769 -1.29503e-16)
(0.99885 -0.00078713 -1.8598e-16)
(0.999004 -0.00139731 6.10945e-17)
(0.999251 -0.00196878 -2.05432e-16)
(0.999585 -0.00247692 3.8264e-17)
(0.999997 -0.00290256 -4.73585e-17)
(1.00047 -0.00322954 -8.64407e-18)
(1.001 -0.00344394 -1.46535e-16)
(1.00156 -0.00353834 -7.68216e-17)
(1.00212 -0.00350974 2.71995e-17)
(1.00267 -0.00336049 2.67808e-16)
(1.00319 -0.00310191 -1.34948e-16)
(1.00366 -0.00273366 2.66315e-16)
(1.00407 -0.00229486 9.41034e-17)
(0.998762 0.00049396 2.36348e-17)
(0.998729 -0.000158746 1.24063e-16)
(0.998795 -0.000807501 2.36283e-16)
(0.998955 -0.00143326 -6.82694e-17)
(0.999212 -0.00201893 -1.65616e-17)
(0.999558 -0.00253922 2.50746e-16)
(0.999985 -0.00297446 2.13192e-16)
(1.00048 -0.00330807 -1.4606e-16)
(1.00102 -0.00352588 3.91248e-16)
(1.0016 -0.00362034 3.54893e-16)
(1.00218 -0.00358846 3.77303e-16)
(1.00274 -0.00343295 -1.74185e-17)
(1.00328 -0.00316538 -2.99169e-16)
(1.00376 -0.00278628 -3.14105e-16)
(1.00418 -0.00233566 -3.02644e-17)
(0.998703 0.000506833 -2.02523e-17)
(0.998669 -0.000162887 -6.55148e-17)
(0.998738 -0.000828162 -1.95842e-16)
(0.998904 -0.00146963 1.2603e-16)
(0.999171 -0.00206964 1.20922e-16)
(0.99953 -0.0026022 -1.67891e-16)
(0.999972 -0.00304716 -8.47502e-17)
(1.00048 -0.00338749 8.37742e-18)
(1.00104 -0.00360877 -1.7388e-16)
(1.00163 -0.00370332 -3.04076e-16)
(1.00223 -0.00366818 -5.60948e-16)
(1.00282 -0.0035064 6.05688e-17)
(1.00337 -0.00322984 3.65265e-16)
(1.00386 -0.00283987 3.30624e-16)
(1.00429 -0.0023774 -6.9537e-17)
(0.998642 0.000519716 -1.61163e-17)
(0.998608 -0.000167186 -1.31783e-17)
(0.99868 -0.000849121 1.71381e-16)
(0.998852 -0.00150642 -1.61696e-16)
(0.999129 -0.00212091 -3.19502e-16)
(0.999501 -0.00266588 1.55043e-16)
(0.999958 -0.0031207 8.79718e-17)
(1.00049 -0.00346787 4.0731e-16)
(1.00106 -0.00369271 5.82285e-17)
(1.00167 -0.00378742 2.83128e-16)
(1.00229 -0.00374906 8.40577e-16)
(1.00289 -0.00358105 -2.30556e-16)
(1.00346 -0.00329551 -9.78317e-17)
(1.00396 -0.00289461 -1.15436e-17)
(1.0044 -0.00242011 -2.76967e-17)
(0.998578 0.000532615 4.50723e-17)
(0.998544 -0.000171638 4.92356e-17)
(0.99862 -0.000870386 -1.47397e-16)
(0.998799 -0.00154368 1.36918e-16)
(0.999086 -0.00217281 -9.2149e-17)
(0.99947 -0.00273034 -2.9665e-16)
(0.999942 -0.00319517 1.30354e-17)
(1.00049 -0.00354933 -3.50344e-17)
(1.00108 -0.00377785 -2.15953e-16)
(1.00171 -0.00387283 1.82007e-16)
(1.00235 -0.00383133 -7.84621e-16)
(1.00296 -0.00365711 -1.42772e-17)
(1.00354 -0.00336256 -1.74752e-16)
(1.00406 -0.0029506 3.26299e-17)
(1.0045 -0.0024638 -8.20467e-17)
(0.998514 0.000545533 -1.15015e-17)
(0.99848 -0.000176235 -1.17313e-17)
(0.998558 -0.000891967 2.03958e-17)
(0.998744 -0.00158143 -1.52259e-16)
(0.999041 -0.00222538 -2.73342e-17)
(0.999438 -0.00279567 3.62222e-16)
(0.999926 -0.0032707 -2.6396e-16)
(1.00049 -0.00363202 -3.26902e-16)
(1.0011 -0.00386439 3.49983e-16)
(1.00175 -0.00395974 -3.16602e-16)
(1.0024 -0.00391516 4.00623e-16)
(1.00304 -0.00373472 3.78934e-16)
(1.00363 -0.00343106 2.72859e-16)
(1.00416 -0.00300781 -1.81495e-16)
(1.00462 -0.00250831 -6.18453e-17)
(0.998447 0.000558474 -1.2404e-17)
(0.998413 -0.000180969 -7.19843e-17)
(0.998495 -0.000913875 -9.69264e-17)
(0.998688 -0.00161971 7.11339e-17)
(0.998994 -0.00227869 1.80271e-16)
(0.999405 -0.00286196 6.32256e-17)
(0.999908 -0.00334741 2.45314e-16)
(1.00049 -0.00371609 5.36118e-17)
(1.00112 -0.00395244 -4.60151e-16)
(1.00179 -0.00404827 1.60996e-16)
(1.00246 -0.00400063 -2.27534e-16)
(1.00311 -0.0038139 -1.88946e-16)
(1.00372 -0.00350097 -2.5444e-16)
(1.00426 -0.00306615 4.01951e-17)
(1.00473 -0.00255356 1.49366e-16)
(0.998379 0.000571447 -1.90393e-17)
(0.998345 -0.000185831 3.42865e-17)
(0.99843 -0.000936115 4.13923e-17)
(0.998629 -0.00165854 -1.42577e-16)
(0.998946 -0.0023328 6.95741e-17)
(0.99937 -0.00292928 -2.11079e-16)
(0.999889 -0.00342538 -2.58544e-17)
(1.00049 -0.00380161 3.174e-16)
(1.00114 -0.00404209 -2.02426e-16)
(1.00182 -0.00413846 -2.67545e-16)
(1.00251 -0.00408775 2.2976e-16)
(1.00318 -0.00389461 -6.81884e-17)
(1.00381 -0.00357219 -7.20988e-16)
(1.00437 -0.0031255 7.35427e-17)
(1.00484 -0.00259942 1.07454e-16)
(0.998309 0.000584458 -9.80003e-18)
(0.998275 -0.000190813 3.34436e-17)
(0.998363 -0.000958695 1.25988e-17)
(0.998569 -0.00169795 1.90058e-17)
(0.998897 -0.00238772 1.20062e-16)
(0.999334 -0.00299767 6.67104e-17)
(0.999869 -0.00350464 -2.19698e-16)
(1.00048 -0.00388861 -2.00594e-17)
(1.00116 -0.00413334 6.06303e-16)
(1.00186 -0.00423029 -1.9444e-16)
(1.00257 -0.00417646 -5.71623e-18)
(1.00326 -0.00397676 2.87482e-17)
(1.0039 -0.00364465 2.77525e-17)
(1.00447 -0.0031858 -5.09207e-17)
(1.00495 -0.00264591 1.69617e-17)
(0.998237 0.000597518 2.58249e-17)
(0.998203 -0.000195906 -6.8219e-17)
(0.998295 -0.000981616 -7.79194e-17)
(0.998507 -0.00173795 1.49249e-19)
(0.998845 -0.00244349 -1.81291e-16)
(0.999296 -0.00306715 -2.8949e-17)
(0.999847 -0.0035852 4.26588e-17)
(1.00048 -0.00397708 -4.83007e-17)
(1.00117 -0.00422616 -4.10487e-16)
(1.0019 -0.00432371 5.46491e-16)
(1.00263 -0.00426668 -3.11843e-17)
(1.00333 -0.00406029 -5.7093e-17)
(1.00399 -0.00371828 3.36475e-16)
(1.00457 -0.00324703 -3.77268e-16)
(1.00506 -0.00269305 7.96531e-18)
(0.998164 0.000610635 2.74013e-18)
(0.99813 -0.000201106 8.18395e-17)
(0.998224 -0.00100488 2.19933e-16)
(0.998444 -0.00177854 -5.54607e-17)
(0.998792 -0.0025001 1.17819e-16)
(0.999256 -0.00313771 -1.83069e-16)
(0.999824 -0.00366706 -2.19225e-16)
(1.00048 -0.004067 5.26464e-18)
(1.00119 -0.00432052 2.39003e-16)
(1.00193 -0.00441868 -4.7698e-16)
(1.00268 -0.00435839 1.18797e-16)
(1.0034 -0.00414517 -2.06451e-17)
(1.00408 -0.0037931 2.59939e-16)
(1.00468 -0.00330925 8.03075e-17)
(1.00518 -0.00274096 -1.25069e-16)
(0.998089 0.000623823 1.05299e-18)
(0.998055 -0.000206409 -8.88236e-17)
(0.998152 -0.0010285 -1.25523e-16)
(0.998379 -0.00181973 2.07732e-17)
(0.998737 -0.00255756 -2.1889e-17)
(0.999215 -0.00320935 1.66175e-16)
(0.999799 -0.0037502 3.59934e-16)
(1.00047 -0.00415836 -3.19249e-16)
(1.0012 -0.00441639 3.63117e-16)
(1.00197 -0.00451518 3.20955e-17)
(1.00274 -0.00445159 7.12218e-17)
(1.00348 -0.00423144 -1.37536e-16)
(1.00417 -0.00386917 2.65506e-16)
(1.00478 -0.00337252 1.50441e-16)
(1.00529 -0.00278965 1.96486e-16)
(0.998013 0.00063709 -8.612e-18)
(0.997978 -0.000211818 8.47289e-17)
(0.998078 -0.00105246 1.54609e-16)
(0.998311 -0.00186153 5.34146e-17)
(0.99868 -0.00261589 1.56224e-16)
(0.999172 -0.0032821 1.19974e-16)
(0.999773 -0.00383464 -3.23231e-16)
(1.00046 -0.00425116 6.4755e-16)
(1.00122 -0.00451381 -2.03678e-16)
(1.002 -0.00461325 -6.77521e-17)
(1.00279 -0.00454634 -2.45204e-16)
(1.00355 -0.00431918 -1.07674e-16)
(1.00426 -0.00394658 -2.9548e-16)
(1.00489 -0.00343694 -1.0885e-16)
(1.00541 -0.00283921 4.72587e-17)
(0.997935 0.000650447 -3.05838e-17)
(0.997899 -0.000217337 -9.06112e-17)
(0.998003 -0.0010768 -1.08426e-17)
(0.998243 -0.00190396 1.06261e-16)
(0.998622 -0.00267511 -1.42174e-16)
(0.999128 -0.00335597 -1.04395e-16)
(0.999746 -0.00392042 4.04483e-16)
(1.00046 -0.00434546 -1.208e-16)
(1.00123 -0.00461282 -5.16065e-16)
(1.00204 -0.00471296 7.10196e-17)
(1.00285 -0.00464271 -1.24501e-16)
(1.00363 -0.00440847 2.30319e-16)
(1.00435 -0.0040254 3.68883e-16)
(1.00499 -0.00350256 3.2855e-16)
(1.00552 -0.00288962 -2.7542e-16)
(0.997855 0.000663904 1.83403e-18)
(0.997818 -0.000222975 -1.74785e-17)
(0.997925 -0.00110152 -7.23471e-17)
(0.998172 -0.00194704 4.50943e-17)
(0.998562 -0.00273524 -7.88339e-17)
(0.999083 -0.003431 1.34449e-16)
(0.999718 -0.00400756 -1.16229e-16)
(1.00045 -0.0044413 3.98856e-17)
(1.00124 -0.0047135 -1.08169e-16)
(1.00207 -0.00481439 2.75181e-16)
(1.0029 -0.00474079 3.3667e-16)
(1.0037 -0.00449938 1.94569e-18)
(1.00445 -0.00410569 -5.87091e-16)
(1.0051 -0.00356938 -3.99486e-16)
(1.00564 -0.00294088 2.7249e-16)