1.45 	0 	0 	-0.296641
2.35 	0 	0 	-0.131215
