1.45 	0 	0 	-0.00374691 	-0.00289566 	3.96112e-21
2.35 	0 	0 	0.0755222 	-0.00708809 	2.41301e-21
