/*--------------------------------*- C++ -*----------------------------------*\
  =========                 |
  \\      /  F ield         | OpenFOAM: The Open Source CFD Toolbox
   \\    /   O peration     | Website:  https://openfoam.org
    \\  /    A nd           | Version:  6.0
     \\/     M anipulation  |
\*---------------------------------------------------------------------------*/
FoamFile
{
    version     2.0;
    format      ascii;
    class       volScalarField;
    location    "7.8";
    object      p;
}
// * * * * * * * * * * * * * * * * * * * * * * * * * * * * * * * * * * * * * //

dimensions      [0 2 -2 0 0 0 0];

internalField   nonuniform List<scalar> 
34500
(
1.00576
1.00581
1.00567
1.00535
1.00489
1.00433
1.00373
1.00312
1.00252
1.00197
1.00146
1.00102
1.00065
1.00038
1.00022
1.00576
1.00584
1.00576
1.00552
1.00513
1.00465
1.0041
1.00352
1.00294
1.00236
1.0018
1.0013
1.00085
1.00052
1.00029
1.00576
1.00584
1.00573
1.00546
1.00505
1.00453
1.00395
1.00335
1.00276
1.00218
1.00165
1.00117
1.00075
1.00046
1.00024
1.00577
1.00583
1.00571
1.00542
1.00499
1.00445
1.00386
1.00325
1.00265
1.00208
1.00156
1.0011
1.00071
1.00045
1.00025
1.00577
1.00584
1.00572
1.00545
1.00503
1.0045
1.00392
1.00331
1.00271
1.00214
1.00162
1.00116
1.00076
1.00048
1.00027
1.00578
1.00585
1.00574
1.00548
1.00508
1.00457
1.004
1.0034
1.0028
1.00222
1.00168
1.00121
1.00079
1.0005
1.00028
1.00579
1.00586
1.00576
1.0055
1.0051
1.0046
1.00403
1.00343
1.00283
1.00225
1.0017
1.00122
1.00079
1.0005
1.00027
1.0058
1.00587
1.00576
1.0055
1.00511
1.0046
1.00404
1.00344
1.00284
1.00225
1.0017
1.00121
1.00079
1.00049
1.00026
1.00581
1.00588
1.00577
1.00551
1.00511
1.00461
1.00404
1.00344
1.00284
1.00225
1.0017
1.00121
1.00078
1.00048
1.00025
1.00582
1.00589
1.00579
1.00553
1.00513
1.00462
1.00405
1.00345
1.00285
1.00226
1.0017
1.00121
1.00078
1.00047
1.00024
1.00584
1.00591
1.0058
1.00554
1.00514
1.00464
1.00407
1.00347
1.00286
1.00227
1.00171
1.00121
1.00078
1.00047
1.00024
1.00585
1.00592
1.00582
1.00556
1.00517
1.00466
1.00409
1.00349
1.00288
1.00228
1.00172
1.00122
1.00079
1.00047
1.00023
1.00587
1.00594
1.00584
1.00559
1.00519
1.00469
1.00412
1.00352
1.00291
1.00231
1.00174
1.00124
1.0008
1.00047
1.00022
1.00588
1.00596
1.00586
1.00561
1.00522
1.00473
1.00416
1.00355
1.00294
1.00233
1.00176
1.00125
1.0008
1.00047
1.00021
1.0059
1.00598
1.00589
1.00564
1.00526
1.00476
1.00419
1.00359
1.00297
1.00236
1.00178
1.00126
1.00081
1.00046
1.0002
1.00592
1.006
1.00591
1.00567
1.00528
1.00479
1.00423
1.00362
1.00299
1.00238
1.0018
1.00127
1.00081
1.00045
1.00018
1.00594
1.00603
1.00593
1.00569
1.00531
1.00482
1.00425
1.00364
1.00301
1.00239
1.0018
1.00127
1.0008
1.00044
1.00016
1.00597
1.00605
1.00596
1.00572
1.00534
1.00484
1.00428
1.00366
1.00303
1.00241
1.00181
1.00127
1.0008
1.00043
1.00015
1.00599
1.00608
1.00598
1.00574
1.00536
1.00487
1.0043
1.00368
1.00305
1.00242
1.00182
1.00127
1.00079
1.00042
1.00013
1.00602
1.0061
1.00601
1.00577
1.00539
1.00489
1.00432
1.0037
1.00306
1.00243
1.00182
1.00128
1.00079
1.00041
1.00011
1.00604
1.00613
1.00604
1.0058
1.00542
1.00492
1.00435
1.00373
1.00308
1.00244
1.00183
1.00128
1.00079
1.0004
1.0001
1.00607
1.00616
1.00607
1.00583
1.00545
1.00496
1.00438
1.00375
1.00311
1.00246
1.00184
1.00128
1.00079
1.00038
1.00008
1.0061
1.00619
1.0061
1.00587
1.00549
1.00499
1.00441
1.00378
1.00313
1.00248
1.00186
1.00129
1.00078
1.00037
1.00006
1.00613
1.00622
1.00614
1.0059
1.00552
1.00503
1.00445
1.00381
1.00316
1.0025
1.00187
1.00129
1.00078
1.00036
1.00004
1.00617
1.00626
1.00617
1.00594
1.00556
1.00506
1.00448
1.00385
1.00318
1.00252
1.00188
1.00129
1.00077
1.00034
1.00001
1.0062
1.00629
1.00621
1.00598
1.0056
1.0051
1.00452
1.00387
1.0032
1.00253
1.00189
1.00129
1.00076
1.00033
0.999989
1.00624
1.00633
1.00625
1.00602
1.00564
1.00514
1.00455
1.0039
1.00322
1.00255
1.00189
1.00129
1.00075
1.00031
0.999965
1.00627
1.00637
1.00629
1.00605
1.00567
1.00517
1.00458
1.00393
1.00324
1.00256
1.0019
1.00129
1.00074
1.00029
0.99994
1.00631
1.00641
1.00633
1.00609
1.00571
1.00521
1.00461
1.00395
1.00326
1.00257
1.0019
1.00128
1.00073
1.00027
0.999915
1.00635
1.00645
1.00637
1.00613
1.00575
1.00524
1.00464
1.00398
1.00328
1.00258
1.0019
1.00128
1.00072
1.00025
0.999889
1.00639
1.00649
1.00641
1.00618
1.00579
1.00528
1.00468
1.00401
1.00331
1.0026
1.00191
1.00128
1.00071
1.00023
0.999862
1.00643
1.00653
1.00645
1.00622
1.00583
1.00532
1.00471
1.00404
1.00333
1.00261
1.00192
1.00127
1.0007
1.00021
0.999835
1.00648
1.00658
1.0065
1.00627
1.00588
1.00536
1.00475
1.00407
1.00335
1.00263
1.00192
1.00127
1.00068
1.00019
0.999806
1.00652
1.00663
1.00655
1.00631
1.00592
1.00541
1.00479
1.0041
1.00338
1.00264
1.00193
1.00127
1.00067
1.00017
0.999776
1.00657
1.00667
1.00659
1.00636
1.00597
1.00545
1.00483
1.00413
1.0034
1.00266
1.00193
1.00126
1.00066
1.00015
0.999745
1.00661
1.00672
1.00665
1.00641
1.00602
1.00549
1.00487
1.00417
1.00342
1.00267
1.00194
1.00126
1.00064
1.00012
0.999713
1.00666
1.00678
1.0067
1.00646
1.00607
1.00554
1.0049
1.0042
1.00345
1.00269
1.00194
1.00125
1.00062
1.0001
0.99968
1.00671
1.00683
1.00675
1.00652
1.00612
1.00558
1.00494
1.00423
1.00347
1.0027
1.00194
1.00124
1.00061
1.00007
0.999646
1.00677
1.00688
1.0068
1.00657
1.00617
1.00563
1.00498
1.00426
1.00349
1.00271
1.00195
1.00123
1.00059
1.00004
0.999611
1.00682
1.00694
1.00686
1.00662
1.00622
1.00568
1.00503
1.00429
1.00352
1.00273
1.00195
1.00123
1.00057
1.00001
0.999576
1.00687
1.00699
1.00692
1.00668
1.00627
1.00573
1.00507
1.00433
1.00354
1.00274
1.00195
1.00122
1.00055
0.999986
0.999538
1.00693
1.00705
1.00698
1.00674
1.00633
1.00578
1.00511
1.00436
1.00357
1.00275
1.00195
1.00121
1.00053
0.999955
0.9995
1.00699
1.00711
1.00704
1.0068
1.00639
1.00583
1.00516
1.0044
1.00359
1.00277
1.00196
1.0012
1.00051
0.999924
0.99946
1.00705
1.00717
1.0071
1.00686
1.00644
1.00588
1.0052
1.00443
1.00362
1.00278
1.00196
1.00119
1.00049
0.999891
0.99942
1.00711
1.00724
1.00716
1.00692
1.0065
1.00593
1.00525
1.00447
1.00364
1.00279
1.00196
1.00117
1.00046
0.999857
0.999377
1.00718
1.0073
1.00723
1.00698
1.00656
1.00599
1.00529
1.00451
1.00366
1.0028
1.00195
1.00116
1.00044
0.999822
0.999334
1.00724
1.00737
1.00729
1.00705
1.00662
1.00604
1.00534
1.00454
1.00369
1.00281
1.00195
1.00115
1.00041
0.999786
0.99929
1.00731
1.00744
1.00736
1.00712
1.00668
1.0061
1.00538
1.00458
1.00371
1.00283
1.00195
1.00113
1.00038
0.999749
0.999245
1.00738
1.00751
1.00743
1.00718
1.00675
1.00615
1.00543
1.00461
1.00374
1.00284
1.00195
1.00112
1.00036
0.999711
0.999198
1.00745
1.00758
1.0075
1.00725
1.00681
1.00621
1.00548
1.00465
1.00376
1.00285
1.00195
1.0011
1.00033
0.999672
0.99915
1.00752
1.00765
1.00758
1.00732
1.00688
1.00627
1.00553
1.00469
1.00379
1.00286
1.00194
1.00108
1.0003
0.999631
0.9991
1.00759
1.00773
1.00765
1.0074
1.00694
1.00633
1.00558
1.00473
1.00381
1.00287
1.00194
1.00107
1.00027
0.99959
0.999049
1.00766
1.0078
1.00773
1.00747
1.00701
1.00639
1.00563
1.00477
1.00384
1.00289
1.00194
1.00105
1.00024
0.999546
0.998996
1.00774
1.00788
1.00781
1.00755
1.00709
1.00646
1.00569
1.00481
1.00387
1.0029
1.00194
1.00103
1.0002
0.999502
0.998942
1.00782
1.00796
1.00789
1.00763
1.00716
1.00652
1.00574
1.00485
1.0039
1.00291
1.00193
1.00101
1.00017
0.999456
0.998887
1.0079
1.00805
1.00797
1.0077
1.00723
1.00659
1.0058
1.0049
1.00392
1.00292
1.00193
1.00099
1.00014
0.999409
0.998829
1.00798
1.00813
1.00805
1.00779
1.00731
1.00666
1.00585
1.00494
1.00395
1.00293
1.00192
1.00097
1.0001
0.99936
0.998771
1.00807
1.00822
1.00814
1.00787
1.00739
1.00672
1.00591
1.00498
1.00398
1.00294
1.00192
1.00095
1.00006
0.99931
0.99871
1.00815
1.00831
1.00823
1.00795
1.00747
1.00679
1.00597
1.00503
1.00401
1.00295
1.00191
1.00092
1.00002
0.999258
0.998648
1.00824
1.0084
1.00832
1.00804
1.00755
1.00686
1.00603
1.00507
1.00403
1.00296
1.0019
1.0009
0.999984
0.999205
0.998584
1.00833
1.00849
1.00841
1.00813
1.00763
1.00694
1.00609
1.00512
1.00406
1.00298
1.00189
1.00087
0.999942
0.99915
0.998519
1.00842
1.00858
1.0085
1.00822
1.00771
1.00701
1.00615
1.00516
1.00409
1.00299
1.00189
1.00085
0.9999
0.999094
0.998451
1.00851
1.00868
1.0086
1.00831
1.0078
1.00709
1.00621
1.00521
1.00412
1.003
1.00188
1.00082
0.999856
0.999036
0.998382
1.00861
1.00878
1.00869
1.00841
1.00788
1.00716
1.00628
1.00526
1.00415
1.00301
1.00187
1.00079
0.999811
0.998976
0.998311
1.00871
1.00888
1.00879
1.0085
1.00797
1.00724
1.00634
1.00531
1.00418
1.00302
1.00186
1.00076
0.999764
0.998915
0.998238
1.00881
1.00898
1.0089
1.0086
1.00807
1.00732
1.00641
1.00536
1.00421
1.00303
1.00185
1.00073
0.999716
0.998852
0.998163
1.00891
1.00909
1.009
1.0087
1.00816
1.00741
1.00647
1.00541
1.00424
1.00304
1.00184
1.0007
0.999667
0.998787
0.998086
1.00902
1.00919
1.00911
1.00881
1.00825
1.00749
1.00654
1.00546
1.00427
1.00305
1.00182
1.00067
0.999616
0.998721
0.998008
1.00912
1.0093
1.00921
1.00891
1.00835
1.00757
1.00661
1.00551
1.0043
1.00305
1.00181
1.00064
0.999564
0.998652
0.997926
1.00923
1.00941
1.00932
1.00902
1.00845
1.00766
1.00668
1.00556
1.00433
1.00306
1.0018
1.0006
0.99951
0.998582
0.997843
1.00934
1.00953
1.00944
1.00913
1.00855
1.00775
1.00676
1.00561
1.00437
1.00307
1.00179
1.00057
0.999454
0.99851
0.997758
1.00946
1.00964
1.00955
1.00924
1.00865
1.00784
1.00683
1.00567
1.0044
1.00308
1.00177
1.00053
0.999397
0.998436
0.99767
1.00957
1.00976
1.00967
1.00935
1.00876
1.00793
1.00691
1.00572
1.00443
1.00309
1.00176
1.00049
0.999338
0.99836
0.99758
1.00969
1.00988
1.00979
1.00947
1.00886
1.00802
1.00698
1.00578
1.00446
1.0031
1.00174
1.00045
0.999277
0.998282
0.997488
1.00981
1.01001
1.00991
1.00959
1.00897
1.00812
1.00706
1.00583
1.0045
1.00311
1.00172
1.00041
0.999215
0.998201
0.997393
1.00993
1.01013
1.01004
1.00971
1.00908
1.00822
1.00714
1.00589
1.00453
1.00311
1.0017
1.00037
0.999151
0.998119
0.997297
1.01006
1.01026
1.01017
1.00983
1.0092
1.00832
1.00722
1.00595
1.00456
1.00312
1.00169
1.00033
0.999085
0.998034
0.997197
1.01019
1.01039
1.0103
1.00995
1.00931
1.00842
1.0073
1.00601
1.0046
1.00313
1.00167
1.00028
0.999017
0.997947
0.997095
1.01032
1.01053
1.01043
1.01008
1.00943
1.00852
1.00738
1.00607
1.00463
1.00314
1.00165
1.00024
0.998947
0.997858
0.99699
1.01045
1.01066
1.01056
1.01021
1.00955
1.00862
1.00747
1.00613
1.00467
1.00314
1.00162
1.00019
0.998876
0.997767
0.996883
1.01058
1.0108
1.0107
1.01035
1.00967
1.00873
1.00756
1.00619
1.0047
1.00315
1.0016
1.00014
0.998802
0.997673
0.996773
1.01072
1.01094
1.01084
1.01048
1.0098
1.00884
1.00764
1.00626
1.00474
1.00316
1.00158
1.00009
0.998727
0.997576
0.99666
1.01086
1.01109
1.01099
1.01062
1.00992
1.00895
1.00773
1.00632
1.00477
1.00316
1.00156
1.00004
0.998649
0.997477
0.996545
1.01101
1.01124
1.01113
1.01076
1.01005
1.00906
1.00782
1.00639
1.00481
1.00317
1.00153
0.999981
0.998569
0.997376
0.996426
1.01116
1.01139
1.01128
1.0109
1.01018
1.00918
1.00792
1.00645
1.00484
1.00317
1.0015
0.999926
0.998487
0.997272
0.996305
1.01131
1.01154
1.01143
1.01105
1.01032
1.0093
1.00801
1.00652
1.00488
1.00318
1.00148
0.999869
0.998403
0.997165
0.996181
1.01146
1.0117
1.01159
1.0112
1.01046
1.00942
1.00811
1.00659
1.00492
1.00318
1.00145
0.99981
0.998316
0.997056
0.996053
1.01161
1.01186
1.01175
1.01135
1.0106
1.00954
1.00821
1.00666
1.00495
1.00318
1.00142
0.999749
0.998227
0.996944
0.995922
1.01177
1.01202
1.01191
1.01151
1.01074
1.00966
1.00831
1.00673
1.00499
1.00319
1.00139
0.999686
0.998136
0.996828
0.995788
1.01194
1.01219
1.01208
1.01167
1.01089
1.00979
1.00841
1.0068
1.00503
1.00319
1.00136
0.999622
0.998042
0.99671
0.995651
1.0121
1.01236
1.01224
1.01183
1.01103
1.00992
1.00851
1.00687
1.00507
1.00319
1.00132
0.999555
0.997945
0.996589
0.99551
1.01227
1.01253
1.01242
1.012
1.01119
1.01005
1.00862
1.00694
1.00511
1.0032
1.00129
0.999487
0.997846
0.996465
0.995367
1.01244
1.01271
1.01259
1.01216
1.01134
1.01018
1.00872
1.00702
1.00515
1.0032
1.00125
0.999416
0.997744
0.996338
0.995219
1.01262
1.01289
1.01277
1.01234
1.0115
1.01032
1.00883
1.00709
1.00519
1.0032
1.00122
0.999343
0.99764
0.996207
0.995068
1.01279
1.01307
1.01295
1.01251
1.01166
1.01046
1.00894
1.00717
1.00522
1.0032
1.00118
0.999268
0.997533
0.996073
0.994913
1.01298
1.01326
1.01314
1.01269
1.01182
1.0106
1.00905
1.00725
1.00526
1.0032
1.00114
0.999191
0.997423
0.995936
0.994755
1.01316
1.01345
1.01333
1.01287
1.01199
1.01074
1.00917
1.00733
1.0053
1.0032
1.00109
0.999111
0.997309
0.995795
0.994592
1.01335
1.01364
1.01352
1.01306
1.01216
1.01089
1.00929
1.00741
1.00534
1.00319
1.00105
0.99903
0.997194
0.995651
0.994426
1.01354
1.01384
1.01371
1.01325
1.01233
1.01104
1.0094
1.00749
1.00538
1.00319
1.00101
0.998945
0.997074
0.995503
0.994255
1.01374
1.01404
1.01392
1.01344
1.01251
1.01119
1.00953
1.00757
1.00542
1.00319
1.00096
0.998859
0.996952
0.995352
0.994081
1.01394
1.01425
1.01412
1.01364
1.01269
1.01135
1.00965
1.00766
1.00547
1.00318
1.00091
0.998769
0.996826
0.995196
0.993903
1.01414
1.01446
1.01433
1.01384
1.01287
1.01151
1.00977
1.00774
1.00551
1.00318
1.00086
0.998677
0.996698
0.995038
0.99372
1.01435
1.01467
1.01454
1.01404
1.01306
1.01167
1.0099
1.00783
1.00555
1.00317
1.00081
0.998582
0.996565
0.994874
0.993533
1.01456
1.01489
1.01476
1.01425
1.01325
1.01183
1.01003
1.00792
1.00559
1.00317
1.00076
0.998485
0.996429
0.994707
0.993341
1.01478
1.01512
1.01498
1.01447
1.01345
1.012
1.01016
1.00801
1.00563
1.00316
1.0007
0.998384
0.99629
0.994536
0.993145
1.015
1.01534
1.0152
1.01468
1.01365
1.01217
1.0103
1.0081
1.00567
1.00315
1.00064
0.998281
0.996147
0.99436
0.992945
1.01523
1.01557
1.01543
1.0149
1.01385
1.01235
1.01043
1.00819
1.00571
1.00314
1.00058
0.998174
0.996
0.99418
0.992739
1.01545
1.01581
1.01567
1.01513
1.01405
1.01252
1.01057
1.00828
1.00575
1.00313
1.00052
0.998065
0.995849
0.993996
0.992529
1.01569
1.01605
1.01591
1.01536
1.01427
1.0127
1.01071
1.00837
1.0058
1.00311
1.00045
0.997952
0.995694
0.993807
0.992313
1.01593
1.0163
1.01615
1.0156
1.01448
1.01289
1.01086
1.00847
1.00584
1.0031
1.00039
0.997836
0.995535
0.993614
0.992093
1.01617
1.01655
1.0164
1.01583
1.0147
1.01308
1.011
1.00856
1.00588
1.00309
1.00032
0.997716
0.995372
0.993415
0.991867
1.01642
1.0168
1.01666
1.01608
1.01492
1.01327
1.01115
1.00866
1.00592
1.00307
1.00024
0.997593
0.995204
0.993212
0.991637
1.01667
1.01706
1.01691
1.01633
1.01515
1.01346
1.0113
1.00876
1.00596
1.00305
1.00017
0.997465
0.995032
0.993004
0.991401
1.01693
1.01733
1.01718
1.01658
1.01538
1.01366
1.01145
1.00886
1.006
1.00303
1.00009
0.997335
0.994856
0.992791
0.991159
1.01719
1.0176
1.01745
1.01684
1.01562
1.01386
1.01161
1.00896
1.00604
1.00301
1.00001
0.9972
0.994675
0.992572
0.990912
1.01746
1.01788
1.01772
1.01711
1.01586
1.01407
1.01177
1.00906
1.00608
1.00299
0.999928
0.997062
0.994489
0.992348
0.990659
1.01773
1.01816
1.018
1.01738
1.01611
1.01428
1.01193
1.00917
1.00612
1.00296
0.999841
0.996919
0.994298
0.992119
0.9904
1.01801
1.01844
1.01829
1.01765
1.01636
1.01449
1.01209
1.00927
1.00616
1.00294
0.999751
0.996772
0.994102
0.991884
0.990136
1.01829
1.01874
1.01858
1.01793
1.01661
1.01471
1.01226
1.00938
1.0062
1.00291
0.999657
0.99662
0.993901
0.991643
0.989865
1.01858
1.01904
1.01888
1.01822
1.01687
1.01493
1.01243
1.00948
1.00624
1.00288
0.999561
0.996464
0.993695
0.991396
0.989588
1.01887
1.01934
1.01918
1.01851
1.01714
1.01516
1.0126
1.00959
1.00628
1.00284
0.999461
0.996304
0.993483
0.991144
0.989304
1.01917
1.01965
1.01949
1.01881
1.01741
1.01539
1.01278
1.0097
1.00632
1.00281
0.999357
0.996138
0.993265
0.990885
0.989015
1.01948
1.01997
1.01981
1.01911
1.01769
1.01562
1.01296
1.00981
1.00635
1.00277
0.999249
0.995968
0.993042
0.99062
0.988718
1.01979
1.02029
1.02013
1.01942
1.01797
1.01586
1.01314
1.00992
1.00639
1.00273
0.999137
0.995792
0.992813
0.990348
0.988415
1.02011
1.02062
1.02046
1.01974
1.01826
1.0161
1.01332
1.01004
1.00642
1.00269
0.999021
0.995611
0.992577
0.99007
0.988105
1.02043
1.02096
1.02079
1.02006
1.01855
1.01635
1.01351
1.01015
1.00646
1.00264
0.998901
0.995425
0.992336
0.989785
0.987788
1.02076
1.0213
1.02114
1.02039
1.01885
1.0166
1.0137
1.01026
1.00649
1.00259
0.998776
0.995233
0.992088
0.989493
0.987464
1.0211
1.02165
1.02149
1.02073
1.01916
1.01686
1.01389
1.01038
1.00652
1.00254
0.998646
0.995035
0.991833
0.989195
0.987132
1.02145
1.02201
1.02184
1.02107
1.01947
1.01712
1.01408
1.01049
1.00655
1.00249
0.998512
0.994831
0.991572
0.988889
0.986793
1.0218
1.02237
1.02221
1.02143
1.01979
1.01739
1.01428
1.01061
1.00658
1.00243
0.998373
0.994621
0.991304
0.988575
0.986447
1.02216
1.02275
1.02258
1.02178
1.02011
1.01766
1.01448
1.01073
1.00661
1.00237
0.998228
0.994405
0.991028
0.988254
0.986092
1.02252
1.02313
1.02296
1.02215
1.02044
1.01794
1.01469
1.01085
1.00663
1.0023
0.998078
0.994182
0.990745
0.987925
0.98573
1.02289
1.02351
1.02334
1.02252
1.02078
1.01822
1.01489
1.01097
1.00666
1.00223
0.997922
0.993952
0.990455
0.987589
0.98536
1.02327
1.02391
1.02374
1.0229
1.02113
1.01851
1.0151
1.01108
1.00668
1.00216
0.997761
0.993715
0.990157
0.987244
0.984981
1.02366
1.02431
1.02414
1.02329
1.02148
1.0188
1.01532
1.0112
1.0067
1.00208
0.997593
0.99347
0.98985
0.98689
0.984594
1.02406
1.02473
1.02456
1.02369
1.02184
1.0191
1.01553
1.01132
1.00672
1.002
0.997419
0.993219
0.989536
0.986529
0.984199
1.02446
1.02515
1.02498
1.02409
1.0222
1.0194
1.01575
1.01144
1.00673
1.00191
0.997239
0.992959
0.989213
0.986159
0.983794
1.02487
1.02558
1.02541
1.02451
1.02258
1.01971
1.01597
1.01156
1.00675
1.00182
0.997052
0.992692
0.988882
0.98578
0.983381
1.0253
1.02602
1.02585
1.02493
1.02296
1.02002
1.0162
1.01168
1.00675
1.00172
0.996857
0.992416
0.988542
0.985391
0.982959
1.02572
1.02646
1.02629
1.02536
1.02335
1.02034
1.01643
1.01181
1.00676
1.00162
0.996656
0.992132
0.988193
0.984994
0.982528
1.02616
1.02692
1.02675
1.0258
1.02374
1.02067
1.01666
1.01192
1.00676
1.00151
0.996446
0.991839
0.987834
0.984586
0.982087
1.02661
1.02739
1.02722
1.02625
1.02415
1.021
1.01689
1.01204
1.00676
1.00139
0.996229
0.991537
0.987466
0.98417
0.981637
1.02707
1.02786
1.0277
1.02671
1.02456
1.02134
1.01713
1.01216
1.00676
1.00127
0.996003
0.991226
0.987088
0.983743
0.981176
1.02753
1.02835
1.02819
1.02718
1.02498
1.02168
1.01737
1.01228
1.00675
1.00114
0.995769
0.990905
0.9867
0.983306
0.980707
1.02801
1.02885
1.02869
1.02766
1.02541
1.02203
1.01761
1.0124
1.00674
1.001
0.995526
0.990573
0.986301
0.982858
0.980226
1.02849
1.02936
1.0292
1.02815
1.02585
1.02239
1.01786
1.01251
1.00672
1.00086
0.995273
0.990232
0.985892
0.982401
0.979736
1.02899
1.02988
1.02972
1.02865
1.0263
1.02275
1.0181
1.01263
1.0067
1.00071
0.995011
0.98988
0.985471
0.981932
0.979235
1.0295
1.03041
1.03025
1.02917
1.02676
1.02312
1.01835
1.01274
1.00667
1.00055
0.994739
0.989517
0.98504
0.981452
0.978723
1.03001
1.03095
1.0308
1.02969
1.02723
1.0235
1.01861
1.01285
1.00664
1.00038
0.994456
0.989142
0.984596
0.980961
0.978201
1.03054
1.0315
1.03135
1.03023
1.0277
1.02388
1.01886
1.01296
1.0066
1.00021
0.994163
0.988757
0.984142
0.980458
0.977667
1.03108
1.03207
1.03192
1.03077
1.02819
1.02427
1.01912
1.01307
1.00655
1.00002
0.993859
0.988358
0.983674
0.979943
0.977123
1.03163
1.03265
1.0325
1.03133
1.02869
1.02466
1.01938
1.01317
1.0065
0.999826
0.993542
0.987948
0.983195
0.979417
0.976567
1.0322
1.03324
1.0331
1.0319
1.02919
1.02506
1.01964
1.01327
1.00644
0.99962
0.993214
0.987524
0.982702
0.978878
0.975999
1.03277
1.03385
1.03371
1.03249
1.02971
1.02547
1.0199
1.01337
1.00637
0.999403
0.992873
0.987087
0.982197
0.978326
0.97542
1.03336
1.03446
1.03433
1.03309
1.03024
1.02588
1.02016
1.01346
1.0063
0.999174
0.992519
0.986637
0.981677
0.977762
0.974828
1.03396
1.0351
1.03497
1.0337
1.03078
1.02631
1.02043
1.01355
1.00621
0.998934
0.992151
0.986172
0.981145
0.977185
0.974225
1.03457
1.03574
1.03562
1.03432
1.03133
1.02673
1.02069
1.01364
1.00612
0.998681
0.991769
0.985693
0.980597
0.976593
0.973609
1.0352
1.03641
1.03629
1.03496
1.03189
1.02717
1.02096
1.01372
1.00601
0.998416
0.991372
0.985198
0.980036
0.975989
0.972982
1.03584
1.03708
1.03697
1.03561
1.03247
1.02761
1.02123
1.01379
1.0059
0.998136
0.99096
0.984688
0.979458
0.975371
0.972341
1.0365
1.03778
1.03767
1.03628
1.03305
1.02806
1.02149
1.01386
1.00577
0.997842
0.990533
0.984163
0.978867
0.974738
0.971687
1.03717
1.03848
1.03838
1.03697
1.03365
1.02851
1.02176
1.01392
1.00563
0.997533
0.990088
0.98362
0.978258
0.974091
0.97102
1.03786
1.03921
1.03911
1.03767
1.03426
1.02897
1.02202
1.01397
1.00548
0.997208
0.989627
0.983061
0.977635
0.973429
0.970341
1.03856
1.03995
1.03986
1.03839
1.03488
1.02944
1.02229
1.01401
1.00532
0.996866
0.989148
0.982484
0.976994
0.972752
0.969647
1.03928
1.04071
1.04063
1.03912
1.03552
1.02991
1.02255
1.01405
1.00514
0.996508
0.988651
0.981889
0.976337
0.97206
0.96894
1.04001
1.04149
1.04142
1.03987
1.03617
1.03039
1.02281
1.01407
1.00495
0.99613
0.988134
0.981275
0.975662
0.971352
0.968219
1.04076
1.04229
1.04222
1.04064
1.03683
1.03087
1.02307
1.01409
1.00474
0.995735
0.987598
0.980643
0.97497
0.970629
0.967485
1.04153
1.0431
1.04305
1.04143
1.0375
1.03136
1.02332
1.01409
1.00451
0.995319
0.987041
0.97999
0.97426
0.969889
0.966735
1.04232
1.04394
1.0439
1.04223
1.03819
1.03186
1.02357
1.01408
1.00427
0.994882
0.986463
0.979318
0.973531
0.969133
0.965971
1.04312
1.04479
1.04476
1.04306
1.03889
1.03236
1.02382
1.01406
1.004
0.994424
0.985863
0.978624
0.972783
0.968359
0.965192
1.04395
1.04567
1.04565
1.0439
1.03961
1.03286
1.02406
1.01403
1.00372
0.993943
0.98524
0.977909
0.972017
0.96757
0.964399
1.04479
1.04657
1.04656
1.04477
1.04034
1.03337
1.02429
1.01397
1.00341
0.993439
0.984593
0.977172
0.97123
0.966762
0.963589
1.04566
1.04749
1.0475
1.04565
1.04108
1.03388
1.02451
1.0139
1.00309
0.99291
0.983923
0.976413
0.970423
0.965937
0.962765
1.04655
1.04844
1.04846
1.04656
1.04184
1.0344
1.02473
1.01382
1.00274
0.992354
0.983226
0.97563
0.969596
0.965093
0.961925
1.04745
1.0494
1.04944
1.04749
1.04261
1.03492
1.02494
1.01371
1.00236
0.991772
0.982504
0.974824
0.968748
0.964232
0.961069
1.04838
1.0504
1.05045
1.04844
1.0434
1.03544
1.02513
1.01358
1.00196
0.991162
0.981755
0.973993
0.967877
0.963352
0.960197
1.04934
1.05142
1.05149
1.04942
1.0442
1.03596
1.02531
1.01343
1.00152
0.990522
0.980978
0.973137
0.966986
0.962454
0.959309
1.05032
1.05246
1.05255
1.05042
1.04502
1.03648
1.02548
1.01326
1.00106
0.989852
0.980172
0.972255
0.966072
0.961535
0.958403
1.05132
1.05353
1.05364
1.05144
1.04585
1.037
1.02563
1.01305
1.00057
0.98915
0.979337
0.971348
0.965136
0.960598
0.957482
1.05234
1.05464
1.05476
1.05249
1.04669
1.03752
1.02577
1.01283
1.00005
0.988415
0.97847
0.970413
0.964176
0.959641
0.956543
1.0534
1.05577
1.05591
1.05357
1.04755
1.03804
1.02589
1.01257
0.999488
0.987646
0.977573
0.969451
0.963193
0.958664
0.955587
1.05448
1.05693
1.0571
1.05467
1.04842
1.03855
1.02598
1.01227
0.998892
0.986841
0.976643
0.96846
0.962186
0.957666
0.954614
1.05559
1.05812
1.05831
1.0558
1.04931
1.03905
1.02605
1.01195
0.998258
0.985999
0.97568
0.967441
0.961155
0.956649
0.953624
1.05673
1.05935
1.05956
1.05696
1.05021
1.03955
1.0261
1.01159
0.997584
0.985118
0.974682
0.966393
0.960099
0.955609
0.952615
1.0579
1.0606
1.06085
1.05815
1.05112
1.04004
1.02611
1.01119
0.996868
0.984197
0.97365
0.965315
0.959018
0.95455
0.951589
1.05909
1.0619
1.06217
1.05936
1.05204
1.04051
1.0261
1.01074
0.996107
0.983235
0.97258
0.964205
0.957911
0.953469
0.950545
1.06033
1.06323
1.06353
1.06061
1.05297
1.04097
1.02605
1.01025
0.995301
0.98223
0.971474
0.963066
0.956779
0.952366
0.949484
1.06159
1.0646
1.06493
1.06188
1.05391
1.04142
1.02597
1.00972
0.994445
0.981181
0.97033
0.961894
0.95562
0.951242
0.948403
1.06289
1.06601
1.06637
1.06319
1.05485
1.04184
1.02584
1.00913
0.99354
0.980086
0.969147
0.96069
0.954436
0.950096
0.947305
1.06423
1.06746
1.06785
1.06453
1.05581
1.04225
1.02567
1.0085
0.992581
0.978943
0.967923
0.959452
0.953224
0.948928
0.946188
1.0656
1.06895
1.06938
1.0659
1.05677
1.04262
1.02546
1.0078
0.991567
0.977752
0.966659
0.958183
0.951985
0.947738
0.945053
1.06702
1.07049
1.07095
1.0673
1.05773
1.04297
1.02519
1.00705
0.990495
0.97651
0.965353
0.956878
0.950719
0.946525
0.9439
1.06847
1.07207
1.07257
1.06873
1.05869
1.04328
1.02486
1.00623
0.989364
0.975218
0.964005
0.95554
0.949426
0.945291
0.942728
1.06997
1.07371
1.07424
1.07019
1.05965
1.04356
1.02448
1.00534
0.988169
0.973871
0.962613
0.954167
0.948104
0.944033
0.941537
1.0715
1.07539
1.07596
1.07169
1.0606
1.04379
1.02403
1.00439
0.986911
0.97247
0.961177
0.952759
0.946755
0.942754
0.940328
1.07309
1.07713
1.07773
1.07322
1.06155
1.04398
1.0235
1.00335
0.985584
0.971012
0.959696
0.951315
0.945377
0.941451
0.9391
1.07472
1.07892
1.07956
1.07478
1.06248
1.04411
1.0229
1.00225
0.984188
0.969498
0.95817
0.949836
0.943972
0.940127
0.937854
1.0764
1.08078
1.08145
1.07637
1.0634
1.04418
1.02222
1.00105
0.98272
0.967924
0.956596
0.948321
0.942538
0.938779
0.936589
1.07813
1.08269
1.0834
1.07798
1.06429
1.04418
1.02146
0.999774
0.981177
0.966291
0.954977
0.94677
0.941077
0.93741
0.935306
1.07992
1.08467
1.0854
1.07963
1.06515
1.04411
1.02059
0.998404
0.979557
0.964596
0.95331
0.945182
0.939587
0.936017
0.934004
1.08176
1.08671
1.08748
1.0813
1.06598
1.04395
1.01963
0.996939
0.977859
0.962839
0.951597
0.943559
0.93807
0.934603
0.932684
1.08366
1.08883
1.08961
1.08299
1.06677
1.04371
1.01856
0.995375
0.976078
0.961019
0.949834
0.941899
0.936524
0.933166
0.931345
1.08562
1.09102
1.09182
1.0847
1.06751
1.04336
1.01737
0.993709
0.974215
0.959135
0.948024
0.940203
0.934951
0.931708
0.929989
1.08765
1.09329
1.0941
1.08643
1.06819
1.04291
1.01607
0.991934
0.972266
0.957186
0.946166
0.938471
0.933349
0.930228
0.928614
1.08974
1.09565
1.09644
1.08816
1.0688
1.04233
1.01463
0.990048
0.970231
0.955173
0.94426
0.936704
0.931722
0.928726
0.927222
1.0919
1.09809
1.09886
1.0899
1.06933
1.04163
1.01306
0.988047
0.968106
0.953093
0.942305
0.9349
0.930066
0.927203
0.925813
1.09414
1.10063
1.10136
1.09164
1.06977
1.04078
1.01134
0.985928
0.965892
0.950948
0.940303
0.933063
0.928385
0.92566
0.924386
1.09645
1.10326
1.10392
1.09337
1.07011
1.03978
1.00948
0.983686
0.963587
0.948736
0.938253
0.93119
0.926678
0.924095
0.922941
1.09885
1.106
1.10657
1.09508
1.07032
1.03861
1.00745
0.98132
0.96119
0.946459
0.936157
0.929284
0.924945
0.92251
0.92148
1.10133
1.10885
1.10928
1.09676
1.0704
1.03726
1.00526
0.978824
0.9587
0.944117
0.934015
0.927345
0.923187
0.920905
0.920003
1.1039
1.11181
1.11208
1.09839
1.07033
1.03571
1.00289
0.9762
0.956119
0.94171
0.931828
0.925373
0.921405
0.919281
0.918509
1.10657
1.1149
1.11494
1.09997
1.07009
1.03396
1.00035
0.973442
0.953444
0.939238
0.929596
0.92337
0.919598
0.917638
0.916999
1.10934
1.11811
1.11787
1.10148
1.06965
1.03198
0.997619
0.970551
0.950678
0.936705
0.927322
0.921337
0.91777
0.915976
0.915473
1.11222
1.12147
1.12086
1.10289
1.069
1.02977
0.994695
0.967526
0.947821
0.934109
0.925005
0.919274
0.915918
0.914296
0.913932
1.11522
1.12496
1.12391
1.10419
1.06811
1.0273
0.991575
0.964366
0.944874
0.931455
0.922649
0.917183
0.914046
0.912599
0.912375
1.11834
1.12861
1.12701
1.10535
1.06696
1.02457
0.988254
0.961072
0.941839
0.928741
0.920255
0.915065
0.912153
0.910885
0.910804
1.12159
1.13242
1.13014
1.10635
1.06552
1.02155
0.984729
0.957646
0.938718
0.925973
0.917824
0.912922
0.910241
0.909155
0.909219
1.12499
1.1364
1.1333
1.10715
1.06376
1.01824
0.980998
0.954089
0.935514
0.923151
0.915358
0.910755
0.90831
0.907409
0.907619
1.12853
1.14055
1.13646
1.10772
1.06166
1.01462
0.977061
0.950405
0.93223
0.920279
0.912861
0.908566
0.906362
0.905649
0.906006
1.13224
1.14487
1.13961
1.10803
1.05918
1.01069
0.972917
0.946596
0.928869
0.917358
0.910333
0.906356
0.904398
0.903874
0.904379
1.13613
1.14939
1.14272
1.10803
1.0563
1.00643
0.968571
0.94267
0.925436
0.914394
0.907778
0.904127
0.902418
0.902085
0.90274
1.14021
1.15409
1.14576
1.10768
1.05298
1.00184
0.964026
0.938629
0.921935
0.911389
0.905198
0.901881
0.900425
0.900284
0.901088
1.1445
1.15898
1.1487
1.10693
1.0492
0.996907
0.959289
0.934481
0.918371
0.908348
0.902597
0.89962
0.898418
0.898471
0.899425
1.14901
1.16406
1.15149
1.10573
1.04493
0.991634
0.954367
0.930234
0.914749
0.905274
0.899977
0.897346
0.896401
0.896646
0.897749
1.15377
1.16933
1.15408
1.10403
1.04014
0.986024
0.949272
0.925895
0.911075
0.902172
0.897342
0.895061
0.894373
0.894811
0.896063
1.1588
1.17478
1.15643
1.10176
1.03481
0.980079
0.944014
0.921473
0.907355
0.899047
0.894694
0.892766
0.892336
0.892966
0.894365
1.16412
1.18039
1.15846
1.09886
1.02891
0.973812
0.93861
0.916978
0.903595
0.895903
0.892037
0.890465
0.890291
0.891112
0.892657
1.16976
1.18615
1.16011
1.09528
1.02243
0.967234
0.933072
0.912418
0.899803
0.892745
0.889375
0.888158
0.88824
0.88925
0.89094
1.17575
1.19202
1.1613
1.09095
1.01535
0.960368
0.927422
0.907806
0.895986
0.88958
0.88671
0.885849
0.886183
0.88738
0.889212
1.18212
1.19798
1.16193
1.0858
1.00768
0.953234
0.921676
0.903151
0.89215
0.886412
0.884047
0.883539
0.884123
0.885504
0.887476
1.1889
1.20397
1.16191
1.07977
0.999421
0.945866
0.915857
0.898464
0.888304
0.883247
0.881388
0.88123
0.882059
0.883621
0.88573
1.19614
1.20994
1.16112
1.07281
0.99058
0.938295
0.909983
0.893757
0.884456
0.880091
0.878738
0.878924
0.879995
0.881732
0.883977
1.20386
1.21582
1.15946
1.06486
0.981186
0.930563
0.904078
0.88904
0.880614
0.876949
0.876099
0.876624
0.877929
0.879838
0.882214
1.21212
1.2215
1.15678
1.05587
0.971274
0.922712
0.898162
0.884325
0.876787
0.873827
0.873475
0.87433
0.875864
0.877941
0.880445
1.22094
1.22688
1.15296
1.04581
0.960896
0.91479
0.892256
0.879622
0.872983
0.870732
0.870869
0.872044
0.8738
0.876039
0.878668
1.23036
1.23183
1.14786
1.03467
0.950115
0.906846
0.886379
0.874944
0.869212
0.867669
0.868284
0.869769
0.871739
0.874133
0.876884
1.24042
1.23619
1.14132
1.02243
0.939012
0.898932
0.88055
0.8703
0.865483
0.864643
0.865723
0.867505
0.86968
0.872225
0.875093
1.25115
1.23976
1.13319
1.00912
0.927677
0.891095
0.874785
0.865704
0.861804
0.86166
0.863188
0.865254
0.867625
0.870315
0.873297
1.26255
1.24234
1.12334
0.994796
0.916218
0.883384
0.869098
0.861165
0.858186
0.858724
0.86068
0.863016
0.865574
0.868402
0.871496
1.27464
1.24367
1.11161
0.979533
0.90475
0.87584