/*--------------------------------*- C++ -*----------------------------------*\
  =========                 |
  \\      /  F ield         | OpenFOAM: The Open Source CFD Toolbox
   \\    /   O peration     | Website:  https://openfoam.org
    \\  /    A nd           | Version:  6.0
     \\/     M anipulation  |
\*---------------------------------------------------------------------------*/
FoamFile
{
    version     2.0;
    format      ascii;
    class       volVectorField;
    location    "7.8";
    object      U;
}
// * * * * * * * * * * * * * * * * * * * * * * * * * * * * * * * * * * * * * //

dimensions      [0 1 -1 0 0 0 0];

internalField   nonuniform List<vector> 
34500
(
(0.999996 6.80662e-06 -4.63293e-17)
(0.99997 -6.54882e-06 -8.13475e-18)
(0.999921 -3.2153e-05 1.42201e-16)
(0.999856 -7.57045e-05 -1.07638e-16)
(0.999786 -0.000138909 3.35413e-17)
(0.999721 -0.000219265 -1.01434e-16)
(0.999671 -0.000312397 -1.00948e-16)
(0.999641 -0.000412592 8.64861e-17)
(0.999636 -0.000512406 1.07202e-16)
(0.999657 -0.000604007 -6.82645e-16)
(0.999701 -0.000678435 -1.03943e-15)
(0.999764 -0.000735892 1.26648e-16)
(0.999839 -0.000763332 4.33346e-16)
(0.999971 -0.000819042 -2.06748e-16)
(0.998946 -0.00130559 7.58045e-17)
(0.999992 1.95066e-05 3.24456e-17)
(0.999944 -1.28776e-05 9.76264e-17)
(0.999857 -6.76321e-05 7.1744e-17)
(0.999743 -0.000152944 -3.0213e-16)
(0.999622 -0.000271364 -5.0572e-16)
(0.999512 -0.000418183 -5.50204e-17)
(0.999429 -0.000585702 2.55399e-16)
(0.999384 -0.000764402 -6.76902e-16)
(0.999384 -0.000940249 -1.78519e-16)
(0.99943 -0.00109879 6.80911e-16)
(0.999519 -0.00122194 1.26089e-15)
(0.999641 -0.00130999 -6.28299e-16)
(0.999775 -0.00133743 -9.8247e-16)
(1.00005 -0.0013749 -3.93738e-16)
(0.999001 -0.00182605 5.17675e-16)
(0.999989 3.07949e-05 1.04672e-17)
(0.999947 -1.60046e-05 -1.22904e-16)
(0.999872 -8.28723e-05 -1.25145e-16)
(0.999776 -0.000174413 4.55549e-16)
(0.999676 -0.00029189 -2.86112e-17)
(0.99959 -0.000429993 -1.63953e-16)
(0.999529 -0.000581821 9.77766e-17)
(0.999502 -0.000740335 3.84353e-16)
(0.999514 -0.000893672 2.34873e-19)
(0.999567 -0.00103006 -3.92585e-16)
(0.999657 -0.00113222 -7.27195e-16)
(0.999777 -0.00120156 4.13066e-16)
(0.99989 -0.00121814 2.24352e-16)
(1.00018 -0.00122301 1.64e-16)
(0.99951 -0.00141885 -2.4326e-16)
(0.999985 4.05793e-05 -1.73541e-17)
(0.99995 -2.08237e-05 -9.02287e-18)
(0.999889 -9.93145e-05 4.83128e-17)
(0.999813 -0.000196101 -3.05308e-16)
(0.999736 -0.000311662 3.7209e-16)
(0.999673 -0.000440577 3.29774e-16)
(0.999633 -0.000577053 -3.99243e-16)
(0.999622 -0.000716201 -4.19634e-16)
(0.999645 -0.000849194 4.34631e-16)
(0.999701 -0.000967556 -4.7006e-16)
(0.999786 -0.00105672 -2.44138e-16)
(0.9999 -0.00111952 -3.84748e-16)
(0.99999 -0.00114497 5.41204e-16)
(1.00026 -0.00115031 -4.78971e-17)
(0.999807 -0.00132397 2.13986e-17)
(0.999979 4.95047e-05 -1.70429e-17)
(0.999944 -2.72176e-05 1.533e-16)
(0.999886 -0.000120818 6.95433e-17)
(0.999814 -0.000230803 1.69713e-16)
(0.999742 -0.000357786 4.67299e-17)
(0.999685 -0.000496263 -1.58177e-16)
(0.999652 -0.00064045 1.02468e-16)
(0.99965 -0.000785146 2.6613e-16)
(0.99968 -0.000922161 -4.17363e-16)
(0.999744 -0.00104358 -2.30775e-16)
(0.999836 -0.00113566 1.00539e-15)
(0.999959 -0.00120105 6.33289e-16)
(1.00005 -0.00123249 -2.89108e-16)
(1.00029 -0.00123118 5.9088e-16)
(1 -0.00138194 -5.86122e-16)
(0.999972 5.8032e-05 1.83514e-17)
(0.999936 -3.36123e-05 -9.4801e-17)
(0.999878 -0.000142595 -1.8631e-16)
(0.999806 -0.000267203 -5.29247e-17)
(0.999736 -0.000408351 1.09398e-16)
(0.999681 -0.000560545 -1.088e-16)
(0.999652 -0.000717592 1.48102e-16)
(0.999657 -0.000873086 1.31112e-16)
(0.999696 -0.00101813 2.9081e-16)
(0.999772 -0.00114406 -1.00172e-16)
(0.999876 -0.00123695 2.87682e-18)
(1.00001 -0.00129813 -3.88724e-16)
(1.00012 -0.00132132 1.82801e-17)
(1.00034 -0.00129563 -4.67856e-16)
(1.00018 -0.00136757 7.40184e-17)
(0.999963 6.62918e-05 3.25536e-18)
(0.999927 -3.95322e-05 -3.55842e-17)
(0.999873 -0.000162415 -2.90148e-17)
(0.999806 -0.000299179 1.75704e-16)
(0.999742 -0.000450814 -2.20394e-16)
(0.999694 -0.000612085 2.75355e-16)
(0.999673 -0.000776634 -6.18965e-16)
(0.999686 -0.000937355 -3.6965e-16)
(0.999737 -0.00108451 -1.515e-16)
(0.999823 -0.00120881 6.70834e-16)
(0.999938 -0.00129625 -7.6757e-16)
(1.00009 -0.00134708 2.97704e-16)
(1.0002 -0.00135677 4.55458e-16)
(1.0004 -0.00130578 -9.56784e-17)
(1.00035 -0.00131671 -1.20537e-16)
(0.999954 7.43545e-05 1.51158e-17)
(0.999919 -4.52279e-05 3.22831e-17)
(0.999869 -0.000181078 2.5025e-17)
(0.99981 -0.000328417 -1.50835e-16)
(0.999756 -0.000488115 3.28777e-16)
(0.999718 -0.000655335 -1.39541e-16)
(0.999708 -0.000823807 2.01459e-16)
(0.999731 -0.000986361 -1.46196e-16)
(0.999792 -0.0011325 3.9734e-16)
(0.999889 -0.00125265 1.77632e-16)
(1.00001 -0.00133293 2.44555e-16)
(1.00017 -0.00137297 -5.64561e-17)
(1.0003 -0.00137119 -5.03899e-16)
(1.00048 -0.00130236 1.13646e-15)
(1.00049 -0.00128385 1.86254e-16)
(0.999943 8.23352e-05 -1.12154e-17)
(0.999909 -5.0882e-05 9.89424e-17)
(0.999865 -0.000199559 1.50772e-16)
(0.999814 -0.000357392 1.11893e-16)
(0.999769 -0.00052501 -4.88535e-16)
(0.999742 -0.000697876 1.40919e-16)
(0.999743 -0.000869834 3.20584e-16)
(0.999778 -0.00103395 7.72132e-16)
(0.999849 -0.00117905 -3.85205e-16)
(0.999956 -0.00129543 8.99888e-17)
(1.00009 -0.0013694 4.48742e-16)
(1.00025 -0.00140019 -3.23442e-16)
(1.00039 -0.00138944 -1.53848e-16)
(1.00056 -0.00130857 -3.80298e-16)
(1.00061 -0.00127352 8.39246e-17)
(0.999932 9.03708e-05 4.06832e-17)
(0.999898 -5.64677e-05 -8.97246e-17)
(0.999858 -0.000218084 8.85082e-18)
(0.999815 -0.000386803 -1.10155e-16)
(0.99978 -0.000562937 4.10525e-16)
(0.999764 -0.000741977 7.95845e-17)
(0.999776 -0.000917797 2.70137e-16)
(0.999822 -0.00108373 -5.72836e-16)
(0.999904 -0.00122817 4.15688e-17)
(1.00002 -0.00134142 -7.86431e-17)
(1.00016 -0.00141017 -1.39582e-16)
(1.00034 -0.00143326 4.4097e-17)
(1.00048 -0.00141535 5.91651e-16)
(1.00065 -0.00132616 -8.03332e-16)
(1.00072 -0.00127908 -2.69083e-16)
(0.999919 9.85777e-05 -2.62203e-17)
(0.999886 -6.19088e-05 3.52449e-17)
(0.99985 -0.000236599 -1.47501e-16)
(0.999813 -0.000416614 2.499e-16)
(0.999788 -0.000601934 -3.61482e-16)
(0.999782 -0.000787787 -3.02991e-16)
(0.999806 -0.000967972 -3.38742e-16)
(0.999864 -0.00113598 3.91004e-17)
(0.999957 -0.00128009 -8.13784e-17)
(1.00008 -0.00139079 -4.24303e-16)
(1.00023 -0.00145544 -7.20725e-16)
(1.00041 -0.00147246 2.85629e-16)
(1.00057 -0.00144893 -3.2808e-16)
(1.00074 -0.00135398 9.06067e-16)
(1.00082 -0.00129666 5.3676e-17)
(0.999905 0.000107054 -2.4552e-17)
(0.999872 -6.71494e-05 -1.04218e-16)
(0.999839 -0.000255071 1.50711e-16)
(0.999809 -0.000446826 -2.34117e-16)
(0.999792 -0.000642114 7.68538e-17)
(0.999797 -0.000835684 4.54079e-16)
(0.999833 -0.00102113 5.53795e-17)
(0.999902 -0.00119189 -6.73304e-17)
(1.00001 -0.00133633 1.81486e-16)
(1.00014 -0.00144527 -1.56853e-16)
(1.0003 -0.0015069 -9.50353e-17)
(1.00049 -0.00151914 -6.67419e-17)
(1.00066 -0.00149052 -2.86922e-16)
(1.00083 -0.00139026 -6.20805e-16)
(1.00093 -0.00132075 1.24059e-17)
(0.999889 0.000115877 -2.17639e-18)
(0.999856 -7.21439e-05 1.40476e-16)
(0.999827 -0.000273464 -2.21483e-16)
(0.999802 -0.000477402 8.33945e-17)
(0.999793 -0.000683461 -9.3548e-17)
(0.999808 -0.000885786 -1.54727e-16)
(0.999855 -0.00107762 -3.88853e-17)
(0.999936 -0.00125211 3.64962e-16)
(1.00005 -0.00139773 -6.30093e-16)
(1.0002 -0.00150559 4.20149e-16)
(1.00037 -0.00156473 2.20432e-16)
(1.00057 -0.00157242 1.83994e-16)
(1.00075 -0.00153772 7.4903e-16)
(1.00092 -0.00143032 7.29453e-16)
(1.00104 -0.00134476 5.48284e-16)
(0.999872 0.000125105 8.30227e-18)
(0.999839 -7.68453e-05 5.2869e-17)
(0.999813 -0.000291687 1.76037e-16)
(0.999793 -0.000508117 5.57626e-17)
(0.999792 -0.000725513 1.70615e-16)
(0.999817 -0.000937386 1.6803e-16)
(0.999874 -0.00113651 -1.18448e-17)
(0.999967 -0.00131549 4.92881e-17)
(1.00009 -0.00146285 9.37527e-16)
(1.00025 -0.0015698 -1.13885e-16)
(1.00043 -0.00162616 5.42026e-16)
(1.00064 -0.0016285 -7.38776e-16)
(1.00083 -0.00158577 1.36909e-16)
(1.00101 -0.00146862 -1.3438e-15)
(1.00116 -0.00136465 -6.16156e-16)
(0.999854 0.000134768 9.93856e-18)
(0.999821 -8.12247e-05 -1.17665e-16)
(0.999797 -0.000309644 1.54769e-16)
(0.999784 -0.000538674 -2.24073e-16)
(0.99979 -0.000767599 1.56817e-16)
(0.999824 -0.000989327 2.07177e-17)
(0.999892 -0.00119608 1.94988e-16)
(0.999996 -0.00137983 -2.59963e-16)
(1.00014 -0.00152895 -8.3889e-16)
(1.00031 -0.00163466 2.4922e-16)
(1.0005 -0.0016874 -5.60064e-16)
(1.00071 -0.00168318 1.12785e-16)
(1.00092 -0.00163064 -4.9003e-16)
(1.00111 -0.00150202 2.65515e-16)
(1.00127 -0.00138039 -1.08463e-16)
(0.999834 0.000144877 3.32344e-17)
(0.999801 -8.52788e-05 7.18761e-17)
(0.999781 -0.000327285 -3.58904e-16)
(0.999773 -0.000568873 2.88344e-16)
(0.999787 -0.000809212 -2.79919e-16)
(0.999831 -0.00104066 -3.72916e-16)
(0.99991 -0.00125487 -3.82875e-16)
(1.00003 -0.00144316 3.37543e-16)
(1.00018 -0.00159368 7.18744e-16)
(1.00036 -0.00169756 1.62991e-16)
(1.00056 -0.00174581 9.4685e-17)
(1.00079 -0.00173408 7.00658e-17)
(1.001 -0.00167094 -7.32636e-16)
(1.0012 -0.00153072 6.43563e-17)
(1.00139 -0.00139463 6.32433e-16)
(0.999813 0.000155416 -8.96485e-17)
(0.99978 -8.90344e-05 -9.23827e-17)
(0.999764 -0.000344645 3.42801e-17)
(0.999762 -0.000598699 -2.64303e-16)
(0.999785 -0.000850201 -1.79641e-17)
(0.999839 -0.00109099 4.81577e-16)
(0.999929 -0.00131219 5.50621e-17)
(1.00006 -0.00150455 3.04031e-16)
(1.00022 -0.00165599 -6.0275e-16)
(1.00042 -0.00175754 -3.09602e-16)
(1.00063 -0.0018008 4.44488e-16)
(1.00087 -0.00178132 -1.4902e-16)
(1.00109 -0.00170787 4.83498e-16)
(1.0013 -0.0015573 7.49076e-16)
(1.0015 -0.00141072 -5.98147e-17)
(0.99979 0.000166359 2.80848e-17)
(0.999759 -9.25324e-05 1.14737e-17)
(0.999746 -0.000361807 1.15602e-16)
(0.999751 -0.000628289 2.25851e-18)
(0.999783 -0.000890748 9.8847e-17)
(0.999847 -0.00114052 -2.89584e-16)
(0.99995 -0.00136823 5.9813e-16)
(1.00009 -0.00156419 -1.53454e-16)
(1.00027 -0.00171619 6.52343e-16)
(1.00048 -0.00181523 -3.41253e-16)
(1.0007 -0.00185351 -5.43324e-16)
(1.00094 -0.00182677 5.24338e-16)
(1.00118 -0.00174408 -8.8391e-16)
(1.00139 -0.00158496 -1.30161e-15)
(1.00161 -0.00143103 -3.29411e-16)
(0.999766 0.000177663 3.12695e-18)
(0.999735 -9.58227e-05 1.94954e-17)
(0.999727 -0.000378882 -3.12103e-17)
(0.999738 -0.000657867 1.58642e-16)
(0.99978 -0.000931245 1.08805e-16)
(0.999855 -0.00118983 -4.26641e-17)
(0.99997 -0.00142377 -3.60531e-16)
(1.00012 -0.0016231 -3.47535e-16)
(1.00031 -0.00177557 -2.349e-16)
(1.00053 -0.00187226 4.32843e-16)
(1.00077 -0.00190604 3.35359e-16)
(1.00102 -0.00187291 -4.93018e-16)
(1.00127 -0.00178224 1.09498e-15)
(1.00149 -0.00161603 1.37152e-15)
(1.00171 -0.00145613 4.63426e-17)
(0.99974 0.000189284 3.57561e-17)
(0.999711 -9.8948e-05 -4.75903e-17)
(0.999706 -0.00039597 2.294e-16)
(0.999725 -0.000687656 -4.56875e-17)
(0.999775 -0.000972115 -1.74369e-16)
(0.999863 -0.0012396 7.39208e-17)
(0.99999 -0.0014798 -1.29681e-16)
(1.00016 -0.00168256 2.93428e-16)
(1.00036 -0.0018357 7.71307e-17)
(1.00059 -0.00193046 5.39164e-17)
(1.00084 -0.00196036 -2.57197e-16)
(1.0011 -0.00192173 3.41367e-16)
(1.00135 -0.00182393 1.73966e-16)
(1.00158 -0.00165121 1.55382e-16)
(1.00181 -0.00148486 3.93644e-16)
(0.999713 0.000201168 -1.83817e-17)
(0.999685 -0.000101946 2.72428e-17)
(0.999684 -0.00041314 -3.71856e-16)
(0.999709 -0.000717812 -2.37905e-16)
(0.999769 -0.00101367 3.29258e-16)
(0.999867 -0.00129036 -8.91339e-17)
(1.00001 -0.00153713 5.20656e-16)
(1.00019 -0.00174361 -1.41351e-16)
(1.0004 -0.00189779 -7.50644e-18)
(1.00065 -0.00199109 -1.49923e-16)
(1.00091 -0.00201763 3.84926e-16)
(1.00118 -0.001974 -2.4259e-16)
(1.00144 -0.00186925 -7.97293e-16)
(1.00168 -0.00168962 -1.89688e-16)
(1.00191 -0.0015152 -4.49668e-16)
(0.999684 0.000213266 2.47446e-17)
(0.999657 -0.000104841 1.12553e-16)
(0.99966 -0.000430416 3.35159e-16)
(0.999691 -0.000748383 2.60115e-16)
(0.99976 -0.00105602 -3.20616e-17)
(0.99987 -0.00134234 -1.30243e-16)
(1.00002 -0.00159608 -5.76387e-16)
(1.00021 -0.00180668 -6.70092e-17)
(1.00044 -0.00196227 -3.42324e-16)
(1.0007 -0.00205445 1.10865e-16)
(1.00097 -0.00207783 -7.05549e-16)
(1.00125 -0.00202919 3.40297e-16)
(1.00152 -0.00191707 1.14862e-15)
(1.00177 -0.00172948 -8.85155e-16)
(1.00201 -0.00154519 5.24213e-16)
(0.999654 0.000225522 -1.99527e-17)
(0.999628 -0.000107656 -1.58367e-16)
(0.999634 -0.000447793 -1.9182e-16)
(0.999672 -0.00077932 -9.567e-17)
(0.999749 -0.00109907 -6.12683e-17)
(0.99987 -0.00139539 8.41102e-17)
(1.00003 -0.00165647 -3.22089e-17)
(1.00024 -0.00187154 -4.4237e-16)
(1.00048 -0.00202878 -1.30198e-16)
(1.00075 -0.00211994 -3.27773e-17)
(1.00103 -0.00214001 6.42194e-16)
(1.00133 -0.00208595 1.07394e-16)
(1.00161 -0.00196569 -9.54982e-16)
(1.00187 -0.00176901 5.06525e-16)
(1.00212 -0.00157374 -1.01469e-16)
(0.999622 0.000237889 1.80239e-17)
(0.999597 -0.000110406 9.3115e-17)
(0.999607 -0.000465238 9.23236e-17)
(0.99965 -0.000810508 1.79547e-16)
(0.999737 -0.00114258 -9.78213e-17)
(0.999868 -0.00144911 -2.75146e-17)
(1.00004 -0.00171777 1.98785e-16)
(1.00026 -0.00193745 2.97024e-16)
(1.00052 -0.0020964 -2.14069e-17)
(1.0008 -0.00218643 -3.58544e-16)
(1.0011 -0.00220282 -2.7557e-16)
(1.0014 -0.00214276 -4.8432e-16)
(1.00169 -0.00201369 2.0311e-17)
(1.00196 -0.00180716 2.6228e-16)
(1.00223 -0.00160083 -1.58631e-16)
(0.99959 0.000250315 -9.63726e-18)
(0.999565 -0.000113116 -5.51032e-17)
(0.999578 -0.000482726 1.40211e-16)
(0.999628 -0.000841826 1.47057e-17)
(0.999723 -0.00118628 -1.24526e-16)
(0.999864 -0.00150307 1.00413e-16)
(1.00005 -0.00177932 -4.79639e-17)
(1.00028 -0.00200361 2.7387e-16)
(1.00055 -0.00216415 5.05983e-16)
(1.00085 -0.00225281 7.85683e-17)
(1.00116 -0.00226515 2.3781e-16)
(1.00147 -0.00219863 2.42003e-16)
(1.00178 -0.00206041 5.97172e-17)
(1.00206 -0.0018439 -5.39753e-16)
(1.00233 -0.00162735 1.30785e-16)
(0.999556 0.00026276 1.29093e-17)
(0.999532 -0.000115812 1.16056e-17)
(0.999548 -0.000500246 -2.86447e-16)
(0.999604 -0.000873188 -1.25138e-16)
(0.999708 -0.00122997 1.7593e-16)
(0.99986 -0.00155692 -2.74613e-17)
(1.00006 -0.00184065 1.83657e-16)
(1.00031 -0.00206939 -2.43916e-16)
(1.00059 -0.00223136 1.39036e-16)
(1.0009 -0.00231845 1.15622e-16)
(1.00122 -0.00232649 1.22029e-16)
(1.00155 -0.00225337 1.55241e-16)
(1.00186 -0.00210613 2.15719e-16)
(1.00215 -0.00188006 3.03427e-17)
(1.00244 -0.00165453 7.69347e-17)
(0.99952 0.000275184 -3.97186e-17)
(0.999497 -0.000118529 1.05096e-16)
(0.999517 -0.000517814 1.64473e-16)
(0.999579 -0.000904576 -1.0528e-16)
(0.999692 -0.00127358 -6.84421e-17)
(0.999856 -0.00161054 3.89537e-17)
(1.00007 -0.00190156 -2.00078e-16)
(1.00033 -0.0021346 -1.30909e-16)
(1.00062 -0.00229787 -1.71934e-16)
(1.00095 -0.00238334 2.73237e-16)
(1.00128 -0.00238711 -3.78995e-16)
(1.00162 -0.00230755 2.95949e-16)
(1.00195 -0.00215177 1.44889e-16)
(1.00225 -0.00191681 5.41913e-16)
(1.00254 -0.00168344 -4.95574e-16)
(0.999484 0.00028756 1.67597e-17)
(0.999461 -0.0001213 -7.91037e-17)
(0.999484 -0.000535465 5.79167e-17)
(0.999553 -0.000936031 1.28094e-16)
(0.999675 -0.00131718 -8.88038e-17)
(0.99985 -0.00166402 -1.50075e-16)
(1.00008 -0.00196221 -7.10509e-17)
(1.00035 -0.00219948 9.79078e-17)
(1.00066 -0.00236406 -4.47816e-16)
(1.001 -0.00244801 6.60679e-17)
(1.00135 -0.00244774 2.5182e-16)
(1.0017 -0.00236217 -7.03616e-16)
(1.00204 -0.00219841 1.42012e-16)
(1.00234 -0.00195517 2.17406e-17)
(1.00264 -0.00171447 3.65446e-16)
(0.999447 0.000299866 -6.37148e-18)
(0.999424 -0.000124159 9.69498e-17)
(0.99945 -0.000553249 -9.36643e-17)
(0.999526 -0.00096764 -5.81339e-17)
(0.999657 -0.00136092 -9.27147e-17)
(0.999844 -0.00171761 -4.9028e-17)
(1.00008 -0.00202297 -1.05707e-16)
(1.00037 -0.00226453 7.5465e-17)
(1.00069 -0.00243057 2.90188e-17)
(1.00105 -0.00251327 -3.10056e-16)
(1.00141 -0.00250932 -3.69812e-16)
(1.00178 -0.00241815 4.10127e-16)
(1.00212 -0.00224687 -3.57839e-16)
(1.00244 -0.0019956 -1.13859e-16)
(1.00275 -0.00174743 -1.11916e-17)
(0.999408 0.000312095 -1.92798e-17)
(0.999385 -0.000127133 -4.47861e-17)
(0.999415 -0.000571211 3.16312e-17)
(0.999497 -0.000999492 2.25393e-16)
(0.999638 -0.00140498 3.76393e-16)
(0.999837 -0.00177161 3.07263e-16)
(1.00009 -0.00208426 3.35687e-16)
(1.00039 -0.00233029 -2.14141e-16)
(1.00073 -0.00249805 6.68765e-20)
(1.0011 -0.00257982 2.32202e-16)
(1.00147 -0.00257252 4.57137e-17)
(1.00185 -0.00247606 2.5201e-16)
(1.00221 -0.00229742 2.02419e-16)
(1.00253 -0.00203798 -5.29995e-16)
(1.00285 -0.00178167 -3.47597e-16)
(0.999368 0.000324244 9.91962e-18)
(0.999345 -0.000130241 -8.0947e-17)
(0.999378 -0.000589387 -1.61914e-16)
(0.999467 -0.00103166 -1.58929e-16)
(0.999618 -0.00144948 1.4607e-17)
(0.999827 -0.00182622 -1.7347e-16)
(1.00009 -0.00214639 -3.77674e-16)
(1.00041 -0.00239717 2.88243e-16)
(1.00076 -0.00256693 2.34405e-16)
(1.00114 -0.00264805 -5.16791e-16)
(1.00153 -0.00263762 4.23841e-16)
(1.00192 -0.00253594 -3.08887e-16)
(1.00229 -0.00234981 -1.42319e-16)
(1.00263 -0.00208177 -1.24362e-16)
(1.00295 -0.0018165 1.48099e-16)
(0.999327 0.000336323 3.77603e-17)
(0.999303 -0.000133493 1.73689e-17)
(0.99934 -0.000607791 8.75725e-17)
(0.999436 -0.00106417 4.06789e-17)
(0.999595 -0.00149449 4.78579e-17)
(0.999816 -0.00188156 3.00017e-16)
(1.0001 -0.0022095 -1.35552e-16)
(1.00042 -0.00246529 1.48108e-16)
(1.00079 -0.00263731 8.50282e-17)
(1.00119 -0.00271796 5.92458e-17)
(1.00159 -0.00270444 1.97348e-16)
(1.002 -0.00259742 -4.20621e-17)
(1.00238 -0.00240348 9.34421e-18)
(1.00273 -0.0021263 8.67426e-16)
(1.00306 -0.00185139 2.75504e-18)
(0.999285 0.000348343 -3.66517e-17)
(0.99926 -0.000136892 -1.26582e-17)
(0.9993 -0.000626429 5.72545e-17)
(0.999402 -0.00109702 -1.74562e-16)
(0.999571 -0.00154001 -2.7959e-16)
(0.999804 -0.0019376 -2.67873e-16)
(1.0001 -0.00227353 2.26952e-16)
(1.00044 -0.00253456 -8.29971e-17)
(1.00082 -0.00270899 9.67776e-18)
(1.00123 -0.00278925 -5.0151e-18)
(1.00165 -0.00277256 -2.72588e-16)
(1.00207 -0.00265995 -2.46289e-16)
(1.00247 -0.00245787 -1.5875e-16)
(1.00282 -0.0021711 2.40807e-17)
(1.00316 -0.00188621 -5.42579e-17)
(0.999241 0.000360322 -1.82978e-17)
(0.999216 -0.000140436 4.84262e-17)
(0.999259 -0.000645288 4.76441e-17)
(0.999367 -0.0011302 7.75314e-17)
(0.999545 -0.00158596 1.06042e-16)
(0.999789 -0.00199423 1.67568e-18)
(1.00009 -0.00233832 2.26854e-16)
(1.00045 -0.00260473 -5.05798e-16)
(1.00085 -0.00278167 2.57898e-16)
(1.00128 -0.00286152 2.62982e-16)
(1.00171 -0.00284153 -3.76151e-16)
(1.00214 -0.0027231 7.02289e-16)
(1.00255 -0.00251263 3.69529e-16)
(1.00292 -0.00221604 -6.88123e-16)
(1.00327 -0.00192115 -2.04599e-16)
(0.999196 0.000372276 3.78384e-17)
(0.999169 -0.00014412 2.93807e-17)
(0.999216 -0.000664362 4.58806e-18)
(0.999331 -0.00116366 -3.47561e-17)
(0.999518 -0.0016323 2.01611e-17)
(0.999774 -0.00205135 2.84442e-16)
(1.00009 -0.0024037 -4.58447e-17)
(1.00047 -0.00267558 3.24586e-16)
(1.00088 -0.00285507 -4.80224e-17)
(1.00132 -0.00293447 -2.90891e-16)
(1.00177 -0.00291108 6.01778e-16)
(1.00222 -0.00278669 -3.61035e-16)
(1.00264 -0.00256775 -4.88558e-16)
(1.00302 -0.00226131 2.06384e-16)
(1.00337 -0.0019566 3.44841e-16)
(0.99915 0.000384227 -3.14659e-17)
(0.999122 -0.000147938 -1.32646e-17)
(0.999172 -0.000683641 -1.72971e-16)
(0.999293 -0.00119739 -8.45322e-17)
(0.999489 -0.00167899 5.20577e-17)
(0.999757 -0.0021089 -2.87152e-16)
(1.00009 -0.00246959 -8.44071e-17)
(1.00048 -0.002747 2.82897e-16)
(1.00091 -0.00292905 -2.39223e-16)
(1.00137 -0.00300801 7.01414e-17)
(1.00183 -0.00298119 -3.35092e-16)
(1.00229 -0.00285083 1.0539e-17)
(1.00272 -0.00262348 2.64439e-16)
(1.00311 -0.00230729 1.39055e-16)
(1.00348 -0.0019929 -5.41555e-17)
(0.999102 0.000396189 3.00175e-17)
(0.999073 -0.000151884 -9.73911e-17)
(0.999127 -0.000703128 8.17524e-17)
(0.999254 -0.00123141 5.35064e-17)
(0.99946 -0.00172605 -4.03416e-17)
(0.999739 -0.0021669 -1.72488e-16)
(1.00009 -0.00253601 5.22961e-17)
(1.00049 -0.00281902 -1.29697e-16)
(1.00094 -0.0030037 -2.18657e-16)
(1.00141 -0.00308228 -2.73253e-17)
(1.00189 -0.0030521 -4.84265e-16)
(1.00237 -0.00291584 4.95454e-16)
(1.00281 -0.00268019 3.84927e-17)
(1.00321 -0.00235434 -7.93851e-17)
(1.00358 -0.00203024 -7.71965e-18)
(0.999052 0.000408179 -3.68176e-17)
(0.999023 -0.000155949 1.00258e-16)
(0.999079 -0.000722826 -2.30306e-17)
(0.999213 -0.00126573 -2.09797e-16)
(0.999428 -0.00177351 -9.99583e-17)
(0.99972 -0.00222543 1.16114e-16)
(1.00008 -0.00260308 -1.70368e-16)
(1.0005 -0.00289182 -1.9082e-16)
(1.00096 -0.00307926 3.24706e-16)
(1.00145 -0.00315756 1.12967e-16)
(1.00195 -0.00312413 5.08134e-16)
(1.00244 -0.00298207 -3.82075e-16)
(1.0029 -0.0027382 1.37241e-16)
(1.00331 -0.00240266 -1.5443e-16)
(1.00369 -0.00206857 5.14615e-18)
(0.999 0.000420209 2.2788e-17)
(0.998971 -0.000160128 -5.80174e-17)
(0.999031 -0.000742748 7.20669e-17)
(0.999171 -0.00130039 3.12594e-16)
(0.999396 -0.00182147 1.3265e-16)
(0.9997 -0.00228462 8.22924e-17)
(1.00007 -0.00267099 3.38391e-16)
(1.00051 -0.00296563 1.60799e-16)
(1.00099 -0.00315598 -2.64816e-16)
(1.0015 -0.00323415 4.51149e-16)
(1.00201 -0.00319757 2.5084e-16)
(1.00251 -0.00304976 -2.12236e-16)
(1.00299 -0.00279764 -4.058e-16)
(1.00341 -0.00245222 -1.57602e-16)
(1.0038 -0.00210766 6.08183e-17)
(0.998947 0.000432293 4.67902e-18)
(0.998917 -0.000164406 -1.23607e-16)
(0.998981 -0.000762896 -9.17302e-17)
(0.999127 -0.00133543 -2.15239e-16)
(0.999362 -0.00186999 3.45738e-17)
(0.999678 -0.00234458 -3.34193e-16)
(1.00007 -0.0027399 -3.59255e-16)
(1.00052 -0.00304064 -1.44496e-16)
(1.00101 -0.00323407 3.07799e-16)
(1.00154 -0.00331224 -3.26897e-16)
(1.00207 -0.00327257 1.15572e-16)
(1.00259 -0.00311897 2.14781e-16)
(1.00307 -0.00285843 3.25935e-16)
(1.00351 -0.0025028 1.98789e-16)
(1.0039 -0.0021472 1.68731e-17)
(0.998892 0.000444436 3.28892e-17)
(0.998862 -0.000168775 2.02024e-16)
(0.998929 -0.000783278 9.40252e-17)
(0.999082 -0.00137087 1.80693e-16)
(0.999326 -0.00191912 1.08262e-16)
(0.999654 -0.00240538 4.56359e-17)
(1.00006 -0.00280988 5.26411e-17)
(1.00052 -0.00311695 -1.20937e-16)
(1.00104 -0.00331362 -1.2262e-16)
(1.00158 -0.00339186 1.43674e-17)
(1.00212 -0.00334908 -7.89693e-16)
(1.00266 -0.00318954 -3.08334e-16)
(1.00316 -0.00292033 3.24102e-16)
(1.00361 -0.00255412 -7.22424e-17)
(1.00401 -0.002187 -2e-16)
(0.998836 0.000456648 -4.42048e-17)
(0.998806 -0.000173218 -1.29462e-16)
(0.998876 -0.000803889 -1.85928e-16)
(0.999035 -0.00140671 6.10802e-17)
(0.999289 -0.00196887 -2.05392e-16)
(0.99963 -0.00246705 3.82572e-17)
(1.00005 -0.00288095 -4.73534e-17)
(1.00053 -0.00319453 -8.64403e-18)
(1.00106 -0.00339456 -1.46526e-16)
(1.00162 -0.00347291 -7.68179e-17)
(1.00218 -0.00342693 2.71955e-17)
(1.00273 -0.00326126 2.67776e-16)
(1.00325 -0.00298311 -1.34911e-16)
(1.00371 -0.00260598 2.66203e-16)
(1.00412 -0.00222699 9.40494e-17)
(0.998777 0.00046893 2.3626e-17)
(0.998748 -0.000177726 1.24024e-16)
(0.998821 -0.000824727 2.36216e-16)
(0.998987 -0.00144297 -6.82533e-17)
(0.99925 -0.00201923 -1.65584e-17)
(0.999603 -0.00252954 2.50707e-16)
(1.00004 -0.00295305 2.13168e-16)
(1.00054 -0.00327329 -1.46049e-16)
(1.00108 -0.00347676 3.91228e-16)
(1.00166 -0.00355519 3.54877e-16)
(1.00224 -0.0035059 3.77279e-16)
(1.00281 -0.00333391 -1.74152e-17)
(1.00334 -0.0030466 -2.99096e-16)
(1.00381 -0.0026583 -3.13972e-16)
(1.00423 -0.00226731 -3.02479e-17)
(0.998717 0.000481291 -2.02448e-17)
(0.998688 -0.000182284 -6.54938e-17)
(0.998764 -0.000845786 -1.95786e-16)
(0.998937 -0.00147962 1.26001e-16)
(0.99921 -0.00207018 1.20899e-16)
(0.999576 -0.0025928 -1.67866e-16)
(1.00002 -0.00302609 -8.47408e-17)
(1.00054 -0.00335311 8.37516e-18)
(1.0011 -0.00356005 -1.7387e-16)
(1.0017 -0.00363854 -3.04062e-16)
(1.0023 -0.00358585 -5.60918e-16)
(1.00288 -0.00340738 6.05639e-17)
(1.00342 -0.00311076 3.65182e-16)
(1.00391 -0.00271117 3.30487e-16)
(1.00434 -0.00230813 -6.94995e-17)
(0.998656 0.00049373 -1.61102e-17)
(0.998627 -0.000186888 -1.31741e-17)
(0.998706 -0.000867069 1.71332e-16)
(0.998885 -0.00151667 -1.61658e-16)
(0.999168 -0.0021217 -3.19442e-16)
(0.999547 -0.00265679 1.5502e-16)
(1.00001 -0.0031 8.7963e-17)
(1.00054 -0.0034339 4.07283e-16)
(1.00113 -0.00364436 5.82272e-17)
(1.00174 -0.00372289 2.83119e-16)
(1.00236 -0.00366674 8.40535e-16)
(1.00296 -0.00348171 -2.30532e-16)
(1.00351 -0.00317574 -9.78068e-17)
(1.00401 -0.00276481 -1.15369e-17)
(1.00445 -0.00234975 -2.7683e-17)
(0.998592 0.000506256 4.50553e-17)
(0.998564 -0.000191532 4.92197e-17)
(0.998647 -0.00088858 -1.47355e-16)
(0.998832 -0.00155413 1.36886e-16)
(0.999125 -0.0021738 -9.21326e-17)
(0.999516 -0.00272152 -2.96609e-16)
(0.999995 -0.00317477 1.30346e-17)
(1.00054 -0.00351564 -3.50316e-17)
(1.00115 -0.00372968 -2.15945e-16)
(1.00178 -0.00380827 1.82005e-16)
(1.00241 -0.00374867 -7.84586e-16)
(1.00303 -0.00355708 -1.42761e-17)
(1.0036 -0.00324176 -1.74712e-16)
(1.00411 -0.00281945 3.26189e-17)
(1.00456 -0.00239231 -8.20042e-17)
(0.998528 0.000518869 -1.14972e-17)
(0.998499 -0.00019622 -1.17275e-17)
(0.998586 -0.000910334 2.039e-17)
(0.998778 -0.00159203 -1.52223e-16)
(0.999081 -0.00222651 -2.73298e-17)
(0.999485 -0.00278703 3.62172e-16)
(0.999979 -0.00325045 -2.63935e-16)
(1.00055 -0.00359842 -3.26884e-16)
(1.00117 -0.00381613 3.49973e-16)
(1.00182 -0.00389485 -3.16593e-16)
(1.00247 -0.00383185 4.00606e-16)
(1.0031 -0.00363373 3.78902e-16)
(1.00369 -0.00330905 2.72803e-16)
(1.00421 -0.0028753 -1.81422e-16)
(1.00467 -0.00243594 -6.18149e-17)
(0.998461 0.00053158 -1.23993e-17)
(0.998433 -0.000200954 -7.19607e-17)
(0.998523 -0.000932347 -9.68985e-17)
(0.998722 -0.00163039 7.11174e-17)
(0.999035 -0.0022799 1.80238e-16)
(0.999453 -0.00285339 6.32172e-17)
(0.999962 -0.00332716 2.45291e-16)
(1.00055 -0.00368236 5.36079e-17)
(1.00119 -0.00390387 -4.60138e-16)
(1.00186 -0.00398282 1.60995e-16)
(1.00253 -0.00391648 -2.27527e-16)
(1.00318 -0.00371185 -1.88928e-16)
(1.00378 -0.00337777 -2.54385e-16)
(1.00431 -0.00293244 4.018e-17)
(1.00478 -0.00248052 1.49283e-16)
(0.998394 0.00054439 -1.90319e-17)
(0.998365 -0.000205745 3.42753e-17)
(0.998458 -0.000954644 4.13805e-17)
(0.998664 -0.00166927 -1.42544e-16)
(0.998988 -0.00233402 6.95615e-17)
(0.999419 -0.0029207 -2.1105e-16)
(0.999944 -0.00340503 -2.58519e-17)
(1.00055 -0.00376764 3.17384e-16)
(1.00121 -0.00399308 -2.02423e-16)
(1.00189 -0.00407237 -2.67541e-16)
(1.00258 -0.00400275 2.29754e-16)
(1.00325 -0.00379158 -6.81823e-17)
(1.00387 -0.003448 -7.20846e-16)
(1.00441 -0.00299086 7.35156e-17)
(1.00489 -0.002526 1.07395e-16)
(0.998324 0.000557311 -9.79616e-18)
(0.998296 -0.000210602 3.34325e-17)
(0.998392 -0.000977246 1.25952e-17)
(0.998605 -0.0017087 1.90013e-17)
(0.998939 -0.00238895 1.20041e-16)
(0.999383 -0.00298907 6.67015e-17)
(0.999925 -0.00348416 -2.1968e-16)
(1.00055 -0.00385438 -2.00578e-17)
(1.00122 -0.00408391 6.06293e-16)
(1.00193 -0.00416362 -1.9444e-16)
(1.00264 -0.00409075 -5.71579e-18)
(1.00333 -0.00387297 2.87472e-17)
(1.00396 -0.0035197 2.77405e-17)
(1.00452 -0.00305045 -5.08998e-17)
(1.005 -0.0025722 1.69521e-17)
(0.998254 0.000570344 2.58149e-17)
(0.998224 -0.000215541 -6.81962e-17)
(0.998324 -0.00100018 -7.78967e-17)
(0.998544 -0.00174872 1.49167e-19)
(0.998888 -0.00244474 -1.81259e-16)
(0.999346 -0.00305855 -2.89454e-17)
(0.999904 -0.00356465 4.26548e-17)
(1.00054 -0.00394267 -4.82983e-17)
(1.00124 -0.00417643 -4.10483e-16)
(1.00197 -0.00425664 5.46493e-16)
(1.0027 -0.00418048 -3.11835e-17)
(1.0034 -0.00395597 -5.70886e-17)
(1.00405 -0.00359279 3.36407e-16)
(1.00462 -0.00311111 -3.77127e-16)
(1.00511 -0.00261905 7.96062e-18)
(0.998181 0.000583497 2.73905e-18)
(0.998151 -0.000220573 8.18121e-17)
(0.998254 -0.00102345 2.19869e-16)
(0.998481 -0.00178935 -5.5448e-17)
(0.998835 -0.00250142 1.17799e-16)
(0.999307 -0.00312919 -1.83046e-16)
(0.999882 -0.00364653 -2.19209e-16)
(1.00054 -0.00403254 5.26489e-18)
(1.00126 -0.00427065 2.39002e-16)
(1.002 -0.00435138 -4.76983e-16)
(1.00275 -0.00427188 1.18798e-16)
(1.00348 -0.00404048 -2.06435e-17)
(1.00414 -0.00366714 2.59891e-16)
(1.00473 -0.00317272 8.02752e-17)
(1.00523 -0.00266644 -1.25006e-16)
(0.998108 0.000596768 1.05257e-18)
(0.998076 -0.000225715 -8.87938e-17)
(0.998183 -0.00104709 -1.25487e-16)
(0.998416 -0.00183061 2.07682e-17)
(0.998781 -0.002559 -2.18851e-17)
(0.999267 -0.00320099 1.66154e-16)
(0.999858 -0.00372981 3.59907e-16)
(1.00053 -0.00412398 -3.1924e-16)
(1.00127 -0.00436653 3.6312e-16)
(1.00204 -0.0044478 3.20952e-17)
(1.00281 -0.00436487 7.12236e-17)
(1.00355 -0.00412641 -1.3753e-16)
(1.00423 -0.0037427 2.65461e-16)
(1.00483 -0.00323525 1.50385e-16)
(1.00534 -0.00271446 1.96382e-16)
(0.998032 0.000610158 -8.60852e-18)
(0.998 -0.000230983 8.47003e-17)
(0.998109 -0.00107111 1.54564e-16)
(0.998349 -0.00187251 5.34022e-17)
(0.998725 -0.0026175 1.56197e-16)
(0.999225 -0.00327396 1.19959e-16)
(0.999833 -0.00381446 -3.23209e-16)
(1.00053 -0.00421695 6.47534e-16)
(1.00129 -0.00446401 -2.03676e-16)
(1.00207 -0.00454582 -6.77547e-17)
(1.00286 -0.00445939 -2.45206e-16)
(1.00362 -0.00421372 -1.07671e-16)
(1.00432 -0.00381942 -2.9543e-16)
(1.00494 -0.0032987 -1.08812e-16)
(1.00546 -0.00276311 4.72351e-17)
(0.997955 0.00062366 -3.05713e-17)
(0.997921 -0.000236395 -9.05803e-17)
(0.998034 -0.00109552 -1.08395e-17)
(0.998281 -0.00191506 1.06237e-16)
(0.998668 -0.0026769 -1.4215e-16)
(0.999181 -0.00334807 -1.04382e-16)
(0.999806 -0.00390046 4.04456e-16)
(1.00052 -0.00431141 -1.20796e-16)
(1.0013 -0.00456306 -5.16072e-16)
(1.00211 -0.00464541 7.10209e-17)
(1.00292 -0.00455542 -1.24504e-16)
(1.0037 -0.0043024 2.30311e-16)
(1.00441 -0.00389736 3.68826e-16)
(1.00504 -0.00336316 3.28434e-16)
(1.00557 -0.00281252 -2.75279e-16)
(0.997876 0.000637268 1.83339e-18)
(0.997841 -0.000241968 -1.74724e-17)
(0.997957 -0.00112034 -7.23259e-17)
(0.998211 -0.00195827 4.5084e-17)
(0.998608 -0.00273722 -7.88208e-17)
(0.999136 -0.00342333 1.34433e-16)
(0.999778 -0.0039878 -1.16221e-16)
(1.00051 -0.00440734 3.9887e-17)
(1.00131 -0.00466368 -1.08173e-16)
(1.00214 -0.00474658 2.75191e-16)
(1.00297 -0.00465297 3.36678e-16)
(1.00377 -0.00439252 1.94575e-18)
(1.00451 -0.00397657 -5.87003e-16)
(1.00515 -0.00342867 -3.99349e-16)
(1.00569 -0.00286269 2.72352e-16)