/*--------------------------------*- C++ -*----------------------------------*\
  =========                 |
  \\      /  F ield         | OpenFOAM: The Open Source CFD Toolbox
   \\    /   O peration     | Website:  https://openfoam.org
    \\  /    A nd           | Version:  6.0
     \\/     M anipulation  |
\*---------------------------------------------------------------------------*/
FoamFile
{
    version     2.0;
    format      ascii;
    class       surfaceScalarField;
    location    "13";
    object      phi;
}
// * * * * * * * * * * * * * * * * * * * * * * * * * * * * * * * * * * * * * //

dimensions      [0 3 -1 0 0 0 0];

internalField   nonuniform List<scalar> 
3880
(
-1.79644e-05
1.79644e-05
-2.40988e-11
-5.34141e-05
3.54496e-05
3.0556e-11
-9.51479e-05
4.17337e-05
1.45592e-10
-0.000136083
4.09347e-05
3.11508e-10
-0.000171848
3.5765e-05
5.14135e-10
-0.00020003
2.81805e-05
7.38437e-10
-0.000219698
1.96672e-05
9.79138e-10
-0.000231103
1.14042e-05
1.2346e-09
-0.00023547
4.36505e-06
1.50779e-09
-6.79522e-07
1.79485e-09
-0.000234792
-1.72849e-05
3.52493e-05
-5.07616e-05
6.89264e-05
-8.9367e-05
8.0339e-05
-0.00012613
7.76977e-05
-0.000156719
6.63546e-05
-0.000178686
5.01468e-05
-0.000191011
3.19928e-05
-0.000193845
1.42382e-05
-0.000188355
-1.12518e-06
-1.24657e-05
-0.000176569
-1.58907e-05
5.114e-05
-4.53407e-05
9.83764e-05
-7.76031e-05
0.000112601
-0.000105975
0.000106069
-0.000126249
8.66289e-05
-0.000135942
5.98394e-05
-0.000133875
2.99258e-05
-0.000119987
3.50209e-07
-9.53061e-05
-2.58059e-05
-4.58586e-05
-6.19131e-05
-1.36947e-05
6.48347e-05
-3.68699e-05
0.000121552
-5.93494e-05
0.000135081
-7.49372e-05
0.000121657
-7.97247e-05
9.14164e-05
-7.12797e-05
5.13945e-05
-4.82461e-05
6.8923e-06
-1.02424e-05
-3.76535e-05
4.19754e-05
-7.80237e-05
-0.000110189
0.000106305
-1.05335e-05
7.53682e-05
-2.48315e-05
0.00013585
-3.36371e-05
0.000143886
-3.16023e-05
0.000119622
-1.54251e-05
7.52393e-05
1.70347e-05
1.89346e-05
6.71968e-05
-4.32698e-05
0.000135825
-0.000106282
0.000222636
-0.000164835
-0.000213177
0.000325624
-6.15541e-06
8.15236e-05
-8.43566e-06
0.00013813
1.07255e-06
0.000134378
2.64511e-05
9.42439e-05
6.99411e-05
3.17493e-05
0.00013292
-4.40447e-05
0.000216485
-0.000126835
0.000321652
-0.000211449
0.000448847
-0.000292029
-0.00036066
0.00059633
-2.47663e-07
8.17713e-05
1.32958e-05
0.000124586
4.67763e-05
0.000100898
0.000102619
3.84009e-05
0.000181481
-4.71127e-05
0.000283259
-0.000145822
0.000407877
-0.000251453
0.000555904
-0.000359476
0.000728437
-0.000464562
-0.000556805
0.000924582
7.4744e-06
7.42969e-05
4.12487e-05
9.08122e-05
0.000105405
3.67408e-05
0.000200542
-5.67355e-05
0.000325365
-0.000171936
0.0004775
-0.000297957
0.000654334
-0.000428287
0.00085417
-0.000559312
0.00107749
-0.000687883
-0.000807077
0.00132776
1.71196e-05
5.71773e-05
7.57392e-05
3.21926e-05
0.000177856
-6.53765e-05
0.000322551
-0.00020143
0.000506861
-0.000356246
0.000726005
-0.000517101
0.000973692
-0.000675974
0.00124312
-0.000828742
0.00153055
-0.000975312
-0.00112652
0.00185
2.84228e-05
2.87545e-05
0.000115853
-5.52381e-05
0.000262492
-0.000212015
0.00046692
-0.000405858
0.000726321
-0.000615647
0.00103619
-0.000826973
0.00138971
-0.00102949
0.00177607
-0.00121511
0.00217963
-0.00137887
-0.00152432
0.00257742
4.05697e-05
-1.18152e-05
0.000158737
-0.000173406
0.000352874
-0.000406152
0.00062169
-0.000674674
0.000964532
-0.000958489
0.00138205
-0.00124449
0.00187745
-0.00152488
0.00245969
-0.00179735
0.00315142
-0.0020706
-0.00238254
0.00400964
5.24764e-05
-6.42916e-05
0.000200386
-0.000321316
0.000438917
-0.000644682
0.000764518
-0.00100028
0.00117447
-0.00136844
0.00166685
-0.00173688
0.00224055
-0.00209858
0.00289464
-0.00245144
0.0036236
-0.00279956
-0.00315213
0.00439319
6.36226e-05
-0.000127914
0.000238744
-0.000496438
0.000515878
-0.000921816
0.000886962
-0.00137136
0.00134418
-0.00182565
0.00187933
-0.00227204
0.00248318
-0.00270242
0.00314386
-0.00311212
0.00384281
-0.00349852
-0.00385564
0.00454633
7.40272e-05
-0.000201941
0.00027353
-0.000695941
0.000583207
-0.00123149
0.000989205
-0.00177736
0.00147758
-0.00231403
0.00203366
-0.00282812
0.00264159
-0.00331036
0.00328361
-0.00375414
0.00393843
-0.00415334
-0.00449692
0.00457971
8.38323e-05
-0.000285774
0.000304886
-0.000916994
0.000641164
-0.00156777
0.0010724
-0.0022086
0.00157851
-0.00282013
0.00213921
-0.00338882
0.00273425
-0.0039054
0.00334349
-0.00436337
0.00394676
-0.00475662
-0.00507441
0.00452425
9.30265e-05
-0.0003788
0.000332549
-0.00115652
0.000689173
-0.00192439
0.00113601
-0.00265543
0.00164723
-0.00333136
0.00219823
-0.00393982
0.00276624
-0.0044734
0.00333093
-0.00492806
0.00387487
-0.00530055
-0.00558376
0.00438422
0.000101365
-0.000480166
0.000355637
-0.00141079
0.000725524
-0.00229428
0.00117762
-0.00310753
0.00168116
-0.0038349
0.00220858
-0.00446724
0.00273632
-0.00500115
0.00324556
-0.0054373
0.00372247
-0.00577746
-0.00602022
0.00415892
0.000108418
-0.000588584
0.000372805
-0.00167517
0.000747796
-0.00266927
0.00119396
-0.0035537
0.00167673
-0.00431767
0.00216712
-0.00495762
0.00264244
-0.00547647
0.00308665
-0.0058815
0.00349019
-0.00618101
-0.00638025
0.00385022
0.000113662
-0.000702246
0.000382539
-0.00194405
0.000753483
-0.00304022
0.00118197
-0.00398219
0.00163109
-0.00476679
0.00207208
-0.00539861
0.00248462
-0.00588901
0.00285641
-0.0062533
0.00318243
-0.00650703
-0.00666228
0.00346447
0.000116564
-0.00081881
0.000383427
-0.00221091
0.000740502
-0.00339729
0.00113958
-0.00438127
0.00154309
-0.0051703
0.00192414
-0.00577966
0.00226596
-0.00623083
0.00256059
-0.00654793
0.00280737
-0.00675381
-0.00686679
0.00301188
0.000116661
-0.000935472
0.000374367
-0.00246862
0.000707548
-0.00373047
0.0010661
-0.00473982
0.00141363
-0.00551782
0.00172655
-0.00609258
0.00199244
-0.00649673
0.00220783
-0.00676331
0.00237592
-0.0069219
-0.006996
0.00250513
0.000113552
-0.00104902
0.000354597
-0.00270967
0.000654116
-0.00402999
0.000962203
-0.00504791
0.00124539
-0.00580101
0.00148454
-0.00633173
0.00167198
-0.00668417
0.00180841
-0.00689974
0.00190021
-0.0070137
-0.00705342
0.00195763
0.000106977
-0.001156
0.000323835
-0.00292652
0.000580634
-0.00428679
0.000829871
-0.00529714
0.00104259
-0.00601373
0.00120482
-0.00649396
0.0013136
-0.00679295
0.00137324
-0.00695938
0.00139242
-0.00703288
-0.00704332
0.00138233
9.6791e-05
-0.00125279
0.00028221
-0.00311194
0.000488262
-0.00449284
0.000672019
-0.0054809
0.000810287
-0.006152
0.000894623
-0.0065783
0.000926396
-0.00682473
0.000912724
-0.00694571
0.000863714
-0.00698387
-0.00697039
0.000790778
8.29775e-05
-0.00133577
0.000230241
-0.00325921
0.000378772
-0.00464137
0.00049218
-0.00559431
0.000553929
-0.00621375
0.000561092
-0.00658546
0.000518773
-0.00678241
0.000436031
-0.00686297
0.000323557
-0.0068714
-0.00683933
0.000192494
6.56555e-05
-0.00140142
0.000168819
-0.00336237
0.000254426
-0.00472698
0.000294249
-0.00563413
0.00027891
-0.00619841
0.00021074
-0.00651729
9.79024e-05
-0.00666957
-4.94418e-05
-0.00671562
-0.000220771
-0.00670007
-0.00665468
-0.00040542
4.50969e-05
-0.00144652
9.92075e-05
-0.00341648
0.000117937
-0.00474571
8.23832e-05
-0.00559858
-9.56024e-06
-0.00610646
-0.000150735
-0.00637611
-0.000330531
-0.00648977
-0.000538354
-0.0065078
-0.000764478
-0.00647394
-0.00642018
-0.000998972
2.1754e-05
-0.00146828
2.30831e-05
-0.00341781
-2.75016e-05
-0.00469512
-0.000138951
-0.00548713
-0.000306373
-0.00593904
-0.00051833
-0.00616416
-0.000762226
-0.00624588
-0.00102743
-0.0062426
-0.00130554
-0.00619583
-0.00613623
-0.0015895
-3.70042e-06
-0.00146457
-5.73907e-05
-0.00336412
-0.000178092
-0.00457442
-0.000364812
-0.00530041
-0.000606418
-0.00569744
-0.000887982
-0.00588259
-0.00119526
-0.0059386
-0.00151745
-0.0059204
-0.00184771
-0.00586557
-0.00579605
-0.00218789
-3.03089e-05
-0.00143427
-0.000139385
-0.00325504
-0.000328974
-0.00438483
-0.000588807
-0.00504058
-0.000903016
-0.00538323
-0.00125497
-0.00553064
-0.00163011
-0.00556346
-0.00201803
-0.00553248
-0.00241502
-0.00546858
-0.00540481
-0.00280626
-5.68344e-05
-0.00137743
-0.000219373
-0.00309251
-0.000473723
-0.00413048
-0.000800995
-0.0047133
-0.00118202
-0.0050022
-0.00160086
-0.0051118
-0.00204623
-0.00511808
-0.00251096
-0.00506776
-0.00299382
-0.00498572
-0.0048708
-0.00352783
-8.21981e-05
-0.00129523
-0.000294304
-0.0028804
-0.000606579
-0.00381821
-0.000991236
-0.00432865
-0.0014247
-0.00456874
-0.0018889
-0.0046476
-0.00237086
-0.00463612
-0.00286153
-0.00457708
-0.00335461
-0.00449264
-0.0043909
-0.00383452
-0.000105765
-0.00118947
-0.000362806
-0.00262336
-0.000726201
-0.00345481
-0.00115988
-0.00389497
-0.00163629
-0.00409233
-0.0021357
-0.00414819
-0.00264467
-0.00412716
-0.00315416
-0.00406759
-0.00365697
-0.00398982
-0.00390426
-0.00414361
-0.000127195
-0.00106227
-0.000424307
-0.00232625
-0.00083251
-0.00304661
-0.00130856
-0.00341892
-0.00182188
-0.00357901
-0.00235199
-0.00361807
-0.00288582
-0.00359333
-0.00341518
-0.00353823
-0.00393452
-0.00347049
-0.00339949
-0.00443928
-0.000146231
-0.000916043
-0.000478384
-0.00199409
-0.000925348
-0.00259965
-0.00143788
-0.00290638
-0.00198322
-0.00303368
-0.00254071
-0.00306058
-0.00309807
-0.00303598
-0.00364828
-0.00298801
-0.00418739
-0.00293138
-0.00287378
-0.0047131
-0.00016263
-0.000753413
-0.00052459
-0.00163213
-0.0010043
-0.00211994
-0.00154764
-0.00236304
-0.0021203
-0.00246103
-0.00270174
-0.00247913
-0.00328054
-0.00245718
-0.00385076
-0.00241779
-0.0044096
-0.00237254
-0.00232744
-0.00495595
-0.000176143
-0.00057727
-0.00056242
-0.00124586
-0.00106872
-0.00161364
-0.00163711
-0.00179464
-0.00223218
-0.00186596
-0.00283365
-0.00187766
-0.00343082
-0.00186001
-0.00401863
-0.00182998
-0.00459505
-0.00179613
-0.00176284
-0.00515964
-0.000186531
-0.000390738
-0.000591359
-0.00084103
-0.00111787
-0.00108713
-0.00170534
-0.00120717
-0.0023176
-0.0012537
-0.00293461
-0.00126065
-0.00354627
-0.00124836
-0.00414811
-0.00122814
-0.00473862
-0.00120562
-0.00118367
-0.00531779
-0.000193586
-0.000197153
-0.000610943
-0.000423673
-0.00115108
-0.000546996
-0.00175142
-0.000606824
-0.00237533
-0.000629794
-0.00300296
-0.000633017
-0.0036246
-0.000626721
-0.00423618
-0.000616556
-0.00483648
-0.000605314
-0.000594416
-0.00542574
-0.000197153
7.56605e-11
-0.000620826
1.75657e-10
-0.00116782
2.34257e-10
-0.00177465
2.58541e-10
-0.00240444
2.56719e-10
-0.00303746
2.38074e-10
-0.00366418
2.10151e-10
-0.00428073
1.7823e-10
-0.00488605
1.45771e-10
1.1326e-10
-0.00548046
-0.000197153
0.000197153
-0.000620826
0.000423673
-0.00116782
0.000546996
-0.00177465
0.000606824
-0.00240444
0.000629795
-0.00303746
0.000633017
-0.00366418
0.000626721
-0.00428073
0.000616556
-0.00488605
0.000605314
0.000594416
-0.00548046
-0.000193586
0.000390739
-0.000610943
0.00084103
-0.00115108
0.00108713
-0.00175142
0.00120717
-0.00237533
0.0012537
-0.00300296
0.00126065
-0.0036246
0.00124836
-0.00423618
0.00122814
-0.00483648
0.00120562
0.00118367
-0.00542574
-0.000186531
0.00057727
-0.000591359
0.00124586
-0.00111787
0.00161364
-0.00170534
0.00179464
-0.0023176
0.00186596
-0.00293461
0.00187766
-0.00354627
0.00186001
-0.00414811
0.00182998
-0.00473862
0.00179613
0.00176284
-0.00531779
-0.000176143
0.000753413
-0.00056242
0.00163214
-0.00106872
0.00211994
-0.00163711
0.00236304
-0.00223218
0.00246103
-0.00283365
0.00247913
-0.00343082
0.00245718
-0.00401863
0.00241779
-0.00459505
0.00237254
0.00232744
-0.00515964
-0.00016263
0.000916043
-0.00052459
0.00199409
-0.0010043
0.00259965
-0.00154764
0.00290638
-0.00212029
0.00303368
-0.00270174
0.00306058
-0.00328054
0.00303598
-0.00385076
0.00298801
-0.0044096
0.00293138
0.00287378
-0.00495595
-0.000146231
0.00106227
-0.000478384
0.00232625
-0.000925348
0.00304661
-0.00143788
0.00341892
-0.00198322
0.00357901
-0.00254071
0.00361807
-0.00309807
0.00359333
-0.00364828
0.00353823
-0.00418739
0.00347049
0.00339949
-0.0047131
-0.000127195
0.00118947
-0.000424306
0.00262336
-0.00083251
0.00345481
-0.00130856
0.00389497
-0.00182188
0.00409233
-0.00235199
0.00414819
-0.00288582
0.00412716
-0.00341518
0.00406759
-0.00393452
0.00398982
0.00390426
-0.00443928
-0.000105765
0.00129523
-0.000362806
0.0028804
-0.000726201
0.00381821
-0.00115988
0.00432865
-0.00163629
0.00456874
-0.0021357
0.0046476
-0.00264467
0.00463612
-0.00315415
0.00457708
-0.00365697
0.00449264
0.0043909
-0.00414361
-8.21981e-05
0.00137743
-0.000294304
0.00309251
-0.000606579
0.00413048
-0.000991236
0.0047133
-0.0014247
0.0050022
-0.0018889
0.0051118
-0.00237086
0.00511808
-0.00286153
0.00506776
-0.00335461
0.00498572
0.0048708
-0.00383452
-5.68344e-05
0.00143427
-0.000219373
0.00325504
-0.000473723
0.00438483
-0.000800995
0.00504058
-0.00118202
0.00538323
-0.00160086
0.00553064
-0.00204623
0.00556346
-0.00251096
0.00553248
-0.00299382
0.00546858
0.00540482
-0.00352783
-3.03089e-05
0.00146457
-0.000139385
0.00336412
-0.000328974
0.00457442
-0.000588807
0.00530041
-0.000903015
0.00569744
-0.00125497
0.00588259
-0.00163011
0.0059386
-0.00201803
0.0059204
-0.00241502
0.00586557
0.00579605
-0.00280626
-3.7004e-06
0.00146828
-5.73907e-05
0.00341781
-0.000178092
0.00469512
-0.000364812
0.00548713
-0.000606417
0.00593904
-0.000887981
0.00616416
-0.00119526
0.00624588
-0.00151745
0.0062426
-0.00184771
0.00619584
0.00613623
-0.00218789
2.1754e-05
0.00144652
2.30831e-05
0.00341648
-2.75015e-05
0.00474571
-0.000138951
0.00559858
-0.000306373
0.00610646
-0.00051833
0.00637611
-0.000762226
0.00648977
-0.00102743
0.0065078
-0.00130554
0.00647394
0.00642018
-0.00158949
4.5097e-05
0.00140142
9.92076e-05
0.00336237
0.000117937
0.00472698
8.23833e-05
0.00563413
-9.56001e-06
0.00619841
-0.000150735
0.00651729
-0.00033053
0.00666957
-0.000538354
0.00671562
-0.000764478
0.00670007
0.00665468
-0.000998971
6.56555e-05
0.00133577
0.000168819
0.00325921
0.000254426
0.00464137
0.000294249
0.00559431
0.000278911
0.00621375
0.00021074
0.00658546
9.79027e-05
0.00678241
-4.94414e-05
0.00686297
-0.000220771
0.0068714
0.00683933
-0.000405419
8.29776e-05
0.00125279
0.000230241
0.00311194
0.000378772
0.00449284
0.00049218
0.0054809
0.000553929
0.006152
0.000561093
0.0065783
0.000518774
0.00682473
0.000436031
0.00694571
0.000323557
0.00698387
0.00697039
0.000192495
9.6791e-05
0.001156
0.00028221
0.00292652
0.000488262
0.00428679
0.000672019
0.00529714
0.000810287
0.00601373
0.000894624
0.00649396
0.000926397
0.00679295
0.000912724
0.00695938
0.000863715
0.00703288
0.00704332
0.000790779
0.000106977
0.00104902
0.000323835
0.00270967
0.000580634
0.00402999
0.000829871
0.00504791
0.00104259
0.00580101
0.00120482
0.00633173
0.00131361
0.00668417
0.00137324
0.00689974
0.00139242
0.0070137
0.00705342
0.00138233
0.000113552
0.000935472
0.000354597
0.00246862
0.000654116
0.00373047
0.000962203
0.00473982
0.00124539
0.00551782
0.00148454
0.00609258
0.00167198
0.00649673
0.00180841
0.00676331
0.00190021
0.0069219
0.006996
0.00195763
0.000116661
0.00081881
0.000374367
0.00221091
0.000707548
0.00339729
0.0010661
0.00438127
0.00141363
0.0051703
0.00172655
0.00577966
0.00199244
0.00623083
0.00220783
0.00654793
0.00237592
0.00675381
0.00686679
0.00250513
0.000116564
0.000702246
0.000383427
0.00194405
0.000740503
0.00304022
0.00113958
0.00398219
0.00154309
0.00476679
0.00192414
0.00539861
0.00226596
0.00588901
0.00256059
0.0062533
0.00280737
0.00650703
0.00666228
0.00301188
0.000113662
0.000588584
0.000382539
0.00167517
0.000753483
0.00266927
0.00118198
0.0035537
0.00163109
0.00431767
0.00207208
0.00495762
0.00248462
0.00547647
0.00285641
0.0058815
0.00318243
0.00618101
0.00638024
0.00346447
0.000108418
0.000480166
0.000372805
0.00141079
0.000747796
0.00229428
0.00119396
0.00310753
0.00167673
0.0038349
0.00216712
0.00446723
0.00264244
0.00500115
0.00308665
0.00543729
0.0034902
0.00577746
0.00602021
0.00385023
0.000101365
0.0003788
0.000355637
0.00115652
0.000725524
0.00192439
0.00117762
0.00265543
0.00168116
0.00333136
0.00220858
0.00393982
0.00273632
0.0044734
0.00324556
0.00492806
0.00372247
0.00530055
0.00558376
0.00415892
9.30265e-05
0.000285774
0.000332549
0.000916994
0.000689173
0.00156777
0.00113601
0.0022086
0.00164723
0.00282013
0.00219823
0.00338882
0.00276624
0.0039054
0.00333093
0.00436337
0.00387487
0.00475662
0.00507441
0.00438422
8.38323e-05
0.000201941
0.000304886
0.000695941
0.000641164
0.00123149
0.0010724
0.00177736
0.00157851
0.00231403
0.00213921
0.00282811
0.00273425
0.00331036
0.00334349
0.00375414
0.00394677
0.00415334
0.00449692
0.00452425
7.40272e-05
0.000127914
0.00027353
0.000496437
0.000583207
0.000921815
0.000989205
0.00137136
0.00147758
0.00182565
0.00203366
0.00227204
0.00264159
0.00270242
0.00328361
0.00311212
0.00393843
0.00349852
0.00385564
0.00457971
6.36226e-05
6.42916e-05
0.000238744
0.000321316
0.000515878
0.000644682
0.000886962
0.00100027
0.00134418
0.00136844
0.00187933
0.00173688
0.00248318
0.00209858
0.00314386
0.00245143
0.00384281
0.00279956
0.00315212
0.00454633
5.24764e-05
1.18152e-05
0.000200386
0.000173406
0.000438917
0.000406152
0.000764518
0.000674673
0.00117447
0.000958488
0.00166685
0.00124449
0.00224055
0.00152488
0.00289464
0.00179735
0.0036236
0.0020706
0.00238253
0.00439319
4.05697e-05
-2.87545e-05
0.000158737
5.5238e-05
0.000352874
0.000212015
0.00062169
0.000405857
0.000964532
0.000615647
0.00138205
0.000826972
0.00187745
0.00102949
0.00245969
0.00121511
0.00315142
0.00137887
0.00152431
0.00400964
2.84228e-05
-5.71773e-05
0.000115853
-3.21926e-05
0.000262492
6.53763e-05
0.00046692
0.00020143
0.000726321
0.000356245
0.00103619
0.0005171
0.00138971
0.000675973
0.00177607
0.00082874
0.00217963
0.00097531
0.00112652
0.00257742
1.71195e-05
-7.42968e-05
7.57391e-05
-9.08122e-05
0.000177856
-3.6741e-05
0.000322551
5.67351e-05
0.000506861
0.000171935
0.000726005
0.000297956
0.000973692
0.000428286
0.00124312
0.00055931
0.00153055
0.00068788
0.000807075
0.00185
7.47438e-06
-8.17712e-05
4.12486e-05
-0.000124586
0.000105405
-0.000100898
0.000200542
-3.84012e-05
0.000325365
4.7112e-05
0.0004775
0.000145821
0.000654334
0.000251452
0.00085417
0.000359474
0.00107749
0.000464559
0.000556802
0.00132776
-2.47675e-07
-8.15235e-05
1.32958e-05
-0.00013813
4.67763e-05
-0.000134378
0.000102619
-9.42443e-05
0.000181481
-3.175e-05
0.000283259
4.40436e-05
0.000407877
0.000126833
0.000555904
0.000211447
0.000728437
0.000292026
0.000360657
0.000924582
-6.15542e-06
-7.53681e-05
-8.43565e-06
-0.00013585
1.07257e-06
-0.000143887
2.64512e-05
-0.000119623
6.99412e-05
-7.524e-05
0.000132921
-1.89358e-05
0.000216486
4.32682e-05
0.000321653
0.00010628
0.000448847
0.000164832
0.000213174
0.000596331
-1.05335e-05
-6.48346e-05
-2.48315e-05
-0.000121552
-3.3637e-05
-0.000135081
-3.16022e-05
-0.000121658
-1.5425e-05
-9.14172e-05
1.7035e-05
-5.13957e-05
6.71971e-05
-6.894e-06
0.000135826
3.76513e-05
0.000222637
7.8021e-05
0.000110185
0.000325625
-1.36947e-05
-5.11399e-05
-3.68699e-05
-9.83765e-05
-5.93493e-05
-0.000112602
-7.4937e-05
-0.00010607
-7.97245e-05
-8.66298e-05
-7.12794e-05
-5.98408e-05
-4.82458e-05
-2.99276e-05
-1.02419e-05
-3.52505e-07
4.1976e-05
2.5803e-05
4.58553e-05
0.000106306
-1.58907e-05
-3.52492e-05
-4.53407e-05
-6.89264e-05
-7.7603e-05
-8.03393e-05
-0.000105975
-7.76982e-05
-0.000126249
-6.63556e-05
-0.000135941
-5.01482e-05
-0.000133874
-3.19947e-05
-0.000119986
-1.42406e-05
-9.53055e-05
1.12225e-06
1.24622e-05
-6.19124e-05
-1.72849e-05
-1.79644e-05
-5.07616e-05
-3.54497e-05
-8.93669e-05
-4.1734e-05
-0.00012613
-4.09354e-05
-0.000156719
-3.5766e-05
-0.000178686
-2.81819e-05
-0.000191011
-1.96692e-05
-0.000193845
-1.14067e-05
-0.000188355
-4.36805e-06
6.75958e-07
-0.000176568
-1.79644e-05
-5.34141e-05
-9.51479e-05
-0.000136083
-0.000171848
-0.00020003
-0.000219698
-0.000231103
-0.00023547
-0.000234792
0.000200947
-0.000435823
8.3645e-08
0.00136076
-0.00115985
4.15025e-08
0.00255542
-0.00119452
-1.4772e-07
0.003343
-0.000787341
-2.42525e-07
0.00402539
-0.000682274
-1.1302e-07
0.00453128
-0.000506028
1.3683e-07
0.00499411
-0.000463041
2.11294e-07
0.00532773
-0.000333875
2.5585e-07
0.00567019
-0.00034254
8.68693e-08
-0.00023143
-1.32005e-07
0.000313331
-0.000925723
0.00144371
-0.00229023
0.00261185
-0.00236266
0.00338257
-0.00155806
0.00405286
-0.00135256
0.00455158
-0.00100474
0.00500939
-0.000920859
0.00534072
-0.000665203
0.00568161
-0.000683426
-0.000463559
0.000530783
-0.00151842
0.00160379
-0.00336323
0.00272035
-0.00347923
0.0034586
-0.00229631
0.00410561
-0.00199957
0.00459063
-0.00148976
0.00503892
-0.00136915
0.00536601
-0.000992296
0.00570403
-0.00102144
-0.000696964
0.000839166
-0.00225128
0.0018298
-0.00435387
0.00287259
-0.00452201
0.00356514
-0.00298887
0.00417947
-0.0026139
0.00464551
-0.00195581
0.00508071
-0.00180435
0.00540229
-0.00131387
0.00573664
-0.0013558
-0.000932635
0.00121853
-0.00314419
0.0021061
-0.00524144
0.0030569
-0.00547281
0.00369386
-0.00362583
0.00426858
-0.00318861
0.00471209
-0.00239932
0.00513196
-0.00222421
0.00544765
-0.00162956
0.00577826
-0.0016864
-0.00117195
0.00164442
-0.00419229
0.00241374
-0.00601075
0.0032593
-0.00631837
0.00383476
-0.00420128
0.00436589
-0.00371974
0.00478537
-0.0028188
0.00518923
-0.00262807
0.00549978
-0.00194012
0.00582741
-0.00201404
-0.00141676
0.00208855
-0.00535625
0.00273128
-0.00665348
0.00346429
-0.00705139
0.0039768
-0.0047138
0.00446361
-0.00420655
0.00485979
-0.00321499
0.00524868
-0.00301697
0.00555603
-0.00224746
0.00588241
-0.00234042
-0.00166942
0.00252068
-0.00654917
0.00303556
-0.00716836
0.00365576
-0.00767158
0.00410865
-0.00516668
0.00455377
-0.00465167
0.00492963
-0.00359084
0.00530632
-0.00339366
0.00561359
-0.00255473
0.00594141
-0.00266823
-0.00193286
0.00292234
-0.00762151
0.00330729
-0.00755331
0.00381951
-0.00818381
0.00421976
-0.00556694
0.00462885
-0.00506075
0.00498936
-0.00395136
0.0053582
-0.0037625
0.00566966
-0.00286619
0.0060025
-0.00300107
-0.00221046
0.00329774
-0.00834183
0.00354492
-0.00780049
0.00394465
-0.00858354
0.00430285
-0.00592513
0.00468214
-0.00544004
0.00503412
-0.00430333
0.00540035
-0.00412874
0.00572179
-0.00318763
0.00606322
-0.00334249
-0.00250668
0.0435249
-0.00115527
-0.0507114
0.0393648
-0.00364043
0.0374072
-0.00662594
0.0373899
-0.00590787
0.0374865
-0.00553665
0.037967
-0.00478381
0.0385728
-0.00473449
0.0392361
-0.00385095
0.0397944
-0.00390075
-0.00309577
0.0523404
0.0030735
-0.0565692
0.0502508
-0.00155084
0.0477435
-0.00411861
0.0462622
-0.00442658
0.0451544
-0.00442885
0.0444838
-0.00411315
0.0440302
-0.00428092
0.0438377
-0.00365845
0.0435207
-0.00358375
-0.00293641
0.0538513
0.00431283
-0.0550906
0.0525778
-0.000277315
0.0509824
-0.00252323
0.0496445
-0.00308869
0.0485003
-0.00328469
0.0476271
-0.00323993
0.0468543
-0.00350814
0.0463333
-0.00313737
0.0456714
-0.00292194
-0.00240513
0.051984
0.0042045
-0.0518757
0.051546
0.000160651
0.0506819
-0.00165912
0.0497653
-0.00217204
0.0488913
-0.00241071
0.0481613
-0.00250997
0.0474355
-0.00278231
0.046889
-0.00259085
0.0462298
-0.00226278
-0.00181202
0.0499398
0.00355774
-0.0492931
0.0497609
0.000339566
0.0492768
-0.00117497
0.0486818
-0.0015771
0.0480558
-0.00178466
0.0474941
-0.00194831
0.0468936
-0.00218177
0.046402
-0.00209928
0.0458566
-0.00171738
-0.00130018
0.0482491
0.00278874
-0.0474801
0.048219
0.000369616
0.0478909
-0.000846827
0.0474688
-0.001155
0.0469993
-0.00131513
0.0465453
-0.00149439
0.0460419
-0.00167835
0.0455963
-0.00165367
0.0451581
-0.00127918
-0.000900957
0.0470477
0.00202645
-0.0462854
0.0470847
0.000332671
0.0468271
-0.000589301
0.0464918
-0.000819662
0.046111
-0.000934367
0.0457125
-0.0010959
0.0452651
-0.00123096
0.0448432
-0.00123168
0.0444773
-0.000913311
-0.000598255
0.0462369
0.00131284
-0.0455233
0.0463241
0.00024543
0.0461066
-0.000371718
0.045814
-0.000527063
0.0454806
-0.000600979
0.0451068
-0.000722137
0.0446869
-0.000811046
0.0442743
-0.000819052
0.0439509
-0.000589945
-0.0003642
0.0457421
0.000643788
-0.0450731
0.0458612
0.000126336
0.0456704
-0.000180858
0.0453993
-0.00025603
0.0450899
-0.000291601
0.0447264
-0.000358582
0.0443187
-0.000403366
0.0439095
-0.000409839
0.0436088
-0.000289256
-0.000172547
0.0455072
-0.0448634
0.0456335
0.0454527
0.0451966
0.044905
0.0445464
0.0441431
0.0437332
0.043444
0.0568078
0.00229176
-0.0560876
0.0573714
0.0029008
0.0577301
0.00349154
0.057834
0.004055
0.0576362
0.00458205
0.0570965
0.00506394
0.0561832
0.00549306
0.0548662
0.00586332
0.0530894
0.00616996
0.00638763
0.0513922
0.00168396
-0.0507844
0.0520447
0.00224828
0.052728
0.00280821
0.0534244
0.00335867
0.0541125
0.00389396
0.0547685
0.00440789
0.0553676
0.00489402
0.0558849
0.00534602
0.0562966
0.0057582
0.00611503
0.0480808
0.00121039
-0.0476073
0.0486354
0.00169377
0.0492676
0.00217597
0.0499721
0.00265412
0.050741
0.00312508
0.0515635
0.00358538
0.0524263
0.00403122
0.0533139
0.00445843
0.0542096
0.0048625
0.00523406
0.0454772
0.000885283
-0.0451521
0.0458823
0.00128865
0.046368
0.00169026
0.0469342
0.00208788
0.0475801
0.00247923
0.0483035
0.002862
0.0491009
0.00323379
0.0499672
0.00359209
0.0508956
0.00393414
0.00425399
0.043892
0.000646792
-0.0436535
0.0442045
0.000976178
0.0445911
0.00130367
0.0450516
0.00162741
0.0455853
0.00194553
0.0461911
0.00225616
0.0468674
0.00255745
0.047612
0.00284751
0.0484219
0.00312426
0.00338281
0.0427962
0.000465745
-0.0426151
0.0430471
0.000725228
0.0433679
0.00098293
0.0437579
0.00123734
0.0442165
0.00148694
0.0447424
0.00173025
0.0453341
0.0019658
0.0459895
0.00219212
0.0467061
0.0024076
0.00260887
0.042104
0.000321977
-0.0419602
0.0423146
0.000514633
0.0425917
0.000705865
0.0429345
0.000894522
0.043342
0.00107946
0.0438127
0.00125955
0.0443448
0.00143367
0.0449362
0.00160072
0.0455843
0.00175951
0.00190774
0.0416525
0.000202283
-0.0415328
0.0418373
0.000329871
0.0420867
0.000456494
0.0423998
0.00058138
0.0427755
0.000703761
0.0432122
0.000822876
0.0437079
0.000937979
0.0442603
0.00104833
0.0448666
0.00115315
0.00125107
0.0413885
9.73169e-05
-0.0412835
0.0415574
0.000160904
0.0417899
0.000224027
0.042085
0.000286295
0.0424414
0.000347324
0.0428576
0.000406728
0.0433314
0.000464133
0.0438606
0.000519165
0.0444423
0.000571433
0.000620297
0.0412631
-0.0411658
0.041424
0.041648
0.0419343
0.0422816
0.0426884
0.0431525
0.0436717
0.0442431
0.048128
-0.00335661
-0.0475776
0.0488382
-0.00289812
0.0496581
-0.0024094
0.0505481
-0.00188897
0.0514809
-0.00133825
0.0524381
-0.00076465
0.0534013
-0.000172497
0.0543492
0.000434475
0.0552553
0.0010515
0.00167282
0.047973
-0.00341052
-0.0479191
0.0480707
-0.00299579
0.0482114
-0.00255005
0.0484007
-0.00207829
0.0486444
-0.00158194
0.0489466
-0.00106687
0.0493108
-0.000536717
0.0497391
6.18318e-06
0.0502313
0.000559316
0.00111971
0.0468967
-0.00315094
-0.0471563
0.046692
-0.00279111
0.046548
-0.00240598
0.0464698
-0.00200012
0.0464636
-0.00157575
0.0465329
-0.0011362
0.0466802
-0.00068395
0.0469073
-0.000220994
0.0472161
0.000250576
0.000728502
0.0455747
-0.00277405
-0.0459516
0.0452556
-0.00247205
0.044998
-0.0021483
0.0448052
-0.00180738
0.0446807
-0.00145118
0.0446266
-0.00108212
0.0446449
-0.000702246
0.0447374
-0.000313522
0.0449059
8.20457e-05
0.000482364
0.0446549
-0.00235186
-0.0450771
0.0442864
-0.00210358
0.0439763
-0.00183813
0.0437275
-0.00155862
0.043543
-0.00126669
0.0434251
-0.00096416
0.0433756
-0.000652771
0.0433963
-0.000334214
0.0434886
-1.02335e-05
0.000317379
0.0439839
-0.00190207
-0.0444337
0.0435861
-0.0017057
0.043244
-0.00149601
0.0429606
-0.00127528
0.0427387
-0.00104475
0.0425803
-0.000805812
0.0424874
-0.000559858
0.0424615
-0.00030828
0.0425038
-5.2504e-05
0.000206003
0.043554
-0.00143726
-0.0440188
0.0431395
-0.00129123
0.042779
-0.0011355
0.0424753
-0.000971553
0.0422308
-0.000800312
0.0420478
-0.000622793
0.041928
-0.000440029
0.0418728
-0.000253074
0.0418833
-6.3011e-05
0.000129051
0.0432752
-0.000962347
-0.0437502
0.0428497
-0.000865712
0.0424769
-0.000762688
0.0421596
-0.000654214
0.0419002
-0.000540893
0.0417008
-0.000423388
0.0415631
-0.000302382
0.0414886
-0.000178579
0.0414783
-5.27023e-05
7.45049e-05
0.0431146
-0.000481988
-0.043595
0.0426829
-0.000433992
0.042303
-0.000382826
0.0419777
-0.000328932
0.0417094
-0.000272611
0.0415002
-0.000214183
0.0413518
-0.000153988
0.0412656
-9.2374e-05
0.0412426
-2.9703e-05
3.3654e-05
0.0430407
-0.0435227
0.0426067
0.0422239
0.041895
0.0416224
0.0414082
0.0412542
0.0411618
0.0411321
0.0429488
0.000174044
-0.000193879
0.0429951
0.00051962
-0.000565907
0.0430727
0.000870506
-0.000948124
0.0431989
0.00123428
-0.00136055
0.0434036
0.00161621
-0.00182089
0.04373
0.00202048
-0.00234683
0.0442364
0.00244916
-0.00295558
0.0449942
0.00290468
-0.00366248
0.0460973
0.00336294
-0.00446601
0.00391218
-0.00539252
0.0429655
0.000137487
0.0430722
0.000412915
0.043253
0.000689737
0.0435181
0.000969109
0.0438825
0.00125183
0.0443649
0.00153813
0.0449869
0.00182711
0.0457727
0.0021189
0.0467377
0.00239797
0.00273072
0.0429664
9.99772e-05
0.0430775
0.000301881
0.043262
0.000505244
0.043524
0.000707104
0.0438692
0.000906577
0.044305
0.00110236
0.0448398
0.00129234
0.0454839
0.0014748
0.0462421
0.00163973
0.00181653
0.0429586
7.02999e-05
0.0430474
0.000213039
0.0431956
0.000357088
0.0434038
0.000498864
0.0436732
0.000637185
0.0440048
0.000770763
0.0443991
0.000898023
0.0448562
0.00101776
0.0453709
0.00112498
0.00123588
0.0429505
4.86859e-05
0.0430159
0.000147698
0.0431254
0.000247601
0.0432787
0.0003455
0.0434756
0.000440352
0.0437152
0.000531114
0.0439966
0.00061664
0.0443184
0.000695996
0.044677
0.000766385
0.000835743
0.0429445
3.31466e-05
0.0429916
0.000100567
0.0430706
0.000168561
0.0431811
0.000235076
0.0433221
0.000299346
0.0434925
0.000360642
0.043691
0.000418217
0.0439155
0.000471479
0.0441629
0.000518956
0.00056491
0.0429403
2.17998e-05
0.0429747
6.61303e-05
0.0430325
0.000110818
0.043113
0.000154502
0.0432157
0.000196669
0.0433395
0.000236833
0.0434832
0.000274516
0.0436454
0.000309327
0.0438239
0.000340436
0.000370001
0.0429375
1.31987e-05
0.0429636
4.00272e-05
0.0430074
6.70606e-05
0.0430684
9.3487e-05
0.0431461
0.000118997
0.0432396
0.000143302
0.043348
0.000166126
0.0434701
0.000187241
0.0436043
0.000206215
0.000224147
0.0429359
6.22212e-06
0.0429571
1.8865e-05
0.0429925
3.16014e-05
0.043042
4.40521e-05
0.0431049
5.60728e-05
0.0431807
6.75291e-05
0.0432685
7.82921e-05