1.45 	0 	0 	-0.291391
2.35 	0 	0 	-0.126638
