/*--------------------------------*- C++ -*----------------------------------*\
  =========                 |
  \\      /  F ield         | OpenFOAM: The Open Source CFD Toolbox
   \\    /   O peration     | Website:  https://openfoam.org
    \\  /    A nd           | Version:  6.0
     \\/     M anipulation  |
\*---------------------------------------------------------------------------*/
FoamFile
{
    version     2.0;
    format      ascii;
    class       surfaceScalarField;
    location    "55";
    object      phi;
}
// * * * * * * * * * * * * * * * * * * * * * * * * * * * * * * * * * * * * * //

dimensions      [0 3 -1 0 0 0 0];

internalField   nonuniform List<scalar> 
3880
(
-1.79759e-05
1.79761e-05
-2.12854e-10
-5.34936e-05
3.55182e-05
-5.70006e-10
-9.53859e-05
4.18931e-05
-8.54698e-10
-0.000136588
4.12031e-05
-1.07655e-09
-0.000172739
3.61527e-05
-1.24787e-09
-0.000201429
2.86913e-05
-1.38185e-09
-0.000221725
2.02971e-05
-1.49176e-09
-0.000233864
1.21408e-05
-1.59023e-09
-0.000239054
5.19173e-06
-1.68961e-09
2.24344e-07
-1.80131e-09
-0.000239277
-1.72974e-05
3.52735e-05
-5.0845e-05
6.90659e-05
-8.96143e-05
8.06624e-05
-0.000126653
7.82417e-05
-0.000157642
6.71414e-05
-0.000180136
5.11855e-05
-0.000193116
3.32772e-05
-0.00019672
1.57451e-05
-0.000192101
5.72156e-07
-1.06038e-05
-0.000181273
-1.5905e-05
5.11784e-05
-4.54313e-05
9.85922e-05
-7.78677e-05
0.000113099
-0.000106531
0.000106905
-0.000127227
8.7838e-05
-0.000137482
6.14397e-05
-0.000136117
3.1912e-05
-0.000123063
2.69163e-06
-9.93364e-05
-2.31546e-05
-4.29363e-05
-6.7004e-05
-1.37115e-05
6.48899e-05
-3.69706e-05
0.000121851
-5.96373e-05
0.000135765
-7.55361e-05
0.000122804
-8.07738e-05
9.30757e-05
-7.29297e-05
5.35956e-05
-5.06532e-05
9.63545e-06
-1.35594e-05
-3.44022e-05
3.76056e-05
-7.43196e-05
-0.000106082
0.000100751
-1.05535e-05
7.54434e-05
-2.4945e-05
0.000136243
-3.39534e-05
0.000144774
-3.22505e-05
0.000121101
-1.65504e-05
7.73757e-05
1.52732e-05
2.1772e-05
6.46303e-05
-3.97217e-05
0.000132283
-0.000102055
0.000217953
-0.000159989
-0.000207772
0.000319643
-6.17984e-06
8.16232e-05
-8.56609e-06
0.000138629
7.21023e-07
0.000135487
2.57466e-05
9.60752e-05
6.87373e-05
3.43849e-05
0.000131057
-4.05476e-05
0.00021379
-0.000122455
0.000317945
-0.00020621
0.000443944
-0.000285988
-0.000353886
0.000590057
-2.78686e-07
8.19019e-05
1.31416e-05
0.000125209
4.63783e-05
0.00010225
0.000101846
4.06078e-05
0.000180191
-4.39604e-05
0.000281301
-0.000141657
0.00040509
-0.000246244
0.000552115
-0.000353236
0.000723459
-0.000457332
-0.000548649
0.000918223
7.43365e-06
7.44682e-05
4.10607e-05
9.15816e-05
0.000104944
3.8367e-05
0.000199676
-5.41248e-05
0.000323966
-0.00016825
0.000475439
-0.000293131
0.000651481
-0.000422285
0.000850385
-0.00055214
0.00107262
-0.000679568
-0.000797585
0.00132156
1.70651e-05
5.74031e-05
7.5505e-05
3.31417e-05
0.000177308
-6.34365e-05
0.000321562
-0.000198378
0.000505315
-0.000352004
0.000723805
-0.00051162
0.000970757
-0.000669237
0.00123936
-0.00082074
0.00152584
-0.000966056
-0.00111588
0.00184414
2.835e-05
2.9053e-05
0.00011556
-5.40678e-05
0.000261833
-0.00020971
0.000465768
-0.000402313
0.000724576
-0.000610812
0.00103379
-0.000820834
0.00138662
-0.00102206
0.00177226
-0.00120638
0.00217501
-0.00136881
-0.00151334
0.00257247
4.04745e-05
-1.14215e-05
0.000158373
-0.000171967
0.000352085
-0.000403422
0.000620347
-0.000670575
0.000962541
-0.000953006
0.00137936
-0.00123766
0.00187406
-0.00151676
0.00245574
-0.00178806
0.00314734
-0.00206041
-0.00237217
0.00400617
5.23589e-05
-6.37804e-05
0.000199953
-0.000319561
0.000438003
-0.000641472
0.000762997
-0.00099557
0.00117226
-0.00136226
0.00166392
-0.00172932
0.00223691
-0.00208975
0.00289037
-0.00244153
0.00361882
-0.00278885
-0.00314077
0.00438742
6.34845e-05
-0.000127265
0.00023825
-0.000494326
0.000514861
-0.000918083
0.00088531
-0.00136602
0.00134183
-0.00181879
0.0018763
-0.00226378
0.00247952
-0.00269297
0.00313969
-0.0031017
0.00383825
-0.00348741
-0.00384397
0.00454145
7.38712e-05
-0.000201136
0.000272987
-0.000693442
0.000582119
-0.00122722
0.000987485
-0.00177138
0.00147521
-0.00230652
0.00203069
-0.00281927
0.00263815
-0.00330043
0.00327987
-0.00374342
0.00393458
-0.00414213
-0.00448535
0.00457596
8.36625e-05
-0.000284799
0.000304312
-0.000914092
0.000640046
-0.00156295
0.00107069
-0.00220203
0.00157622
-0.00281204
0.00213646
-0.00337951
0.0027312
-0.00389517
0.00334036
-0.00435257
0.0039438
-0.00474557
-0.00506325
0.00452169
9.2848e-05
-0.000377647
0.000331966
-0.00115321
0.000688071
-0.00191905
0.00113437
-0.00264833
0.00164513
-0.00332281
0.00219582
-0.00393019
0.00276372
-0.00446307
0.00332854
-0.0049174
0.00387285
-0.00528988
-0.00557322
0.00438283
0.000101184
-0.000478831
0.000355066
-0.00140709
0.000724483
-0.00228847
0.00117614
-0.00309998
0.00167935
-0.00382603
0.00220662
-0.00445746
0.00273444
-0.00499089
0.00324398
-0.00542693
0.00372141
-0.00576731
-0.00601041
0.00415861
0.000108241
-0.000587072
0.000372269
-0.00167112
0.000746862
-0.00266306
0.0011927
-0.00354582
0.00167529
-0.00430862
0.00216569
-0.00494786
0.00264125
-0.00546645
0.0030859
-0.00587159
0.00349007
-0.00617148
-0.00637123
0.00385088
0.000113496
-0.000700568
0.00038206
-0.00193968
0.000752694
-0.0030337
0.00118098
-0.00397411
0.00163007
-0.0047577
0.00207123
-0.00538902
0.00248414
-0.00587936
0.00285648
-0.00624392
0.00318316
-0.00649817
-0.00665404
0.00346597
0.000116416
-0.000816983
0.000383025
-0.00220629
0.000739894
-0.00339057
0.0011389
-0.00437312
0.00154253
-0.00516133
0.00192389
-0.00577039
0.00226619
-0.00622166
0.00256143
-0.00653916
0.00280888
-0.00674562
-0.00685928
0.00301412
0.000116537
-0.00093352
0.00037406
-0.00246382
0.000707145
-0.00372365
0.00106577
-0.00473174
0.00141355
-0.00550911
0.00172689
-0.00608373
0.00199335
-0.00648812
0.00220937
-0.00675518
0.00237813
-0.00691437
-0.00698915
0.002508
0.000113457
-0.00104698
0.000354398
-0.00270476
0.000653936
-0.00402319
0.000962217
-0.00504002
0.00124578
-0.00579267
0.00148546
-0.00632341
0.00167352
-0.00667618
0.0018106
-0.00689226
0.00190304
-0.00700681
-0.00704716
0.00196104
0.000106917
-0.00115389
0.000323755
-0.0029216
0.000580685
-0.00428012
0.000830233
-0.00528957
0.00104342
-0.00600587
0.00120626
-0.00648624
0.0013157
-0.00678562
0.001376
-0.00695256
0.00139579
-0.0070266
-0.0070376
0.00138624
9.67703e-05
-0.00125066
0.000282254
-0.00310708
0.000488542
-0.00448641
0.000672712
-0.00547374
0.000811537
-0.00614469
0.000896525
-0.00657123
0.000928986
-0.00681809
0.00091598
-0.00693956
0.000867565
-0.00697818
-0.00696517
0.000795131
8.29984e-05
-0.00133366
0.000230411
-0.00325449
0.000379273
-0.00463527
0.000493178
-0.00558764
0.000555545
-0.00620706
0.000563394
-0.00657908
0.000521777
-0.00677647
0.000439704
-0.00685748
0.000327822
-0.0068663
-0.00683459
0.00019725
6.57187e-05
-0.00139938
0.000169111
-0.00335788
0.000255134
-0.00472129
0.000295521
-0.00562803
0.000280841
-0.00619238
0.000213374
-0.00651161
0.000101241
-0.00666434
-4.54347e-05
-0.00671081
-0.000216161
-0.00669557
-0.00665045
-0.000400303
4.52019e-05
-0.00144458
9.9614e-05
-0.0034123
0.00011883
-0.00474051
8.38914e-05
-0.00559309
-7.3668e-06
-0.00610112
-0.000147834
-0.00637114
-0.000326932
-0.00648524
-0.000534091
-0.00650365
-0.000759586
-0.00647008
-0.00641654
-0.000993501
2.18976e-05
-0.00146648
2.35916e-05
-0.00341399
-2.64502e-05
-0.00469047
-0.000137246
-0.00548229
-0.000303965
-0.0059344
-0.000515212
-0.0061599
-0.000758417
-0.00624203
-0.00102294
-0.00623912
-0.00130036
-0.00619267
-0.00613332
-0.00158358
-3.52374e-06
-0.00146296
-5.67992e-05
-0.00336071
-0.000176918
-0.00457035
-0.00036296
-0.00529625
-0.000603848
-0.00569351
-0.000884692
-0.00587905
-0.00119126
-0.00593546
-0.00151272
-0.00591766
-0.00184204
-0.00586335
-0.00579383
-0.00218153
-3.01075e-05
-0.00143285
-0.000138738
-0.00325208
-0.000327726
-0.00438136
-0.000586876
-0.0050371
-0.000900369
-0.00538002
-0.0012516
-0.00552782
-0.00162603
-0.00556103
-0.00201326
-0.00553043
-0.00240933
-0.00546728
-0.00540647
-0.00279668
-5.66202e-05
-0.00137623
-0.000218705
-0.00309
-0.000472465
-0.0041276
-0.000799079
-0.00471049
-0.00117942
-0.00499968
-0.00159758
-0.00510967
-0.00204225
-0.00511636
-0.00250616
-0.00506651
-0.00298843
-0.00498502
-0.00486994
-0.00352496
-8.1986e-05
-0.00129424
-0.000293655
-0.00287833
-0.000605383
-0.00381587
-0.000989448
-0.00432642
-0.00142231
-0.00456682
-0.00188591
-0.00464606
-0.00236727
-0.004635
-0.00285739
-0.00457639
-0.0033501
-0.00449231
-0.00439084
-0.0038292
-0.000105567
-0.00118868
-0.00036221
-0.00262169
-0.000725121
-0.00345296
-0.0011583
-0.00389325
-0.00163423
-0.00409089
-0.00213319
-0.0041471
-0.00264174
-0.00412645
-0.00315089
-0.00406724
-0.00365346
-0.00398974
-0.00390445
-0.00413984
-0.000127019
-0.00106166
-0.000423779
-0.00232493
-0.00083157
-0.00304517
-0.00130721
-0.00341761
-0.00182015
-0.00357795
-0.00234994
-0.00361731
-0.00288351
-0.00359288
-0.00341269
-0.00353806
-0.00393191
-0.00347052
-0.00339976
-0.0044366
-0.000146081
-0.000915576
-0.00047793
-0.00199308
-0.00092455
-0.00259855
-0.00143675
-0.0029054
-0.0019818
-0.0030329
-0.00253907
-0.00306004
-0.00309626
-0.00303569
-0.00364639
-0.00298793
-0.00418547
-0.00293145
-0.00287403
-0.0047112
-0.000162504
-0.000753072
-0.000524205
-0.00163138
-0.00100363
-0.00211913
-0.00154671
-0.00236232
-0.00211914
-0.00246047
-0.00270043
-0.00247876
-0.00327912
-0.00245699
-0.0038493
-0.00241775
-0.00440816
-0.00237259
-0.00232762
-0.00495457
-0.000176038
-0.000577034
-0.000562094
-0.00124532
-0.00106815
-0.00161308
-0.00163633
-0.00179414
-0.00223122
-0.00186558
-0.00283257
-0.00187741
-0.00342968
-0.00185989
-0.00401747
-0.00182996
-0.00459391
-0.00179615
-0.00176296
-0.00515857
-0.000186443
-0.000390591
-0.000591077
-0.000840689
-0.00111738
-0.00108677
-0.00170467
-0.00120685
-0.00231678
-0.00125346
-0.0029337
-0.00126049
-0.00354531
-0.00124828
-0.00414715
-0.00122812
-0.00473767
-0.00120563
-0.00118375
-0.00531689
-0.000193509
-0.000197082
-0.00061069
-0.000423507
-0.00115064
-0.000546821
-0.00175082
-0.000606671
-0.0023746
-0.000629678
-0.00300215
-0.000632941
-0.00362375
-0.000626684
-0.00423532
-0.000616547
-0.00483563
-0.000605316
-0.000594448
-0.00542493
-0.000197082
-2.12355e-10
-0.000620589
-4.77486e-10
-0.00116741
-6.29015e-10
-0.00177408
-7.01647e-10
-0.00240376
-7.2355e-10
-0.0030367
-7.1434e-10
-0.00366338
-6.8582e-10
-0.00427993
-6.44391e-10
-0.00488524
-5.93614e-10
-5.36091e-10
-0.00547969
-0.000197082
0.000197082
-0.000620589
0.000423507
-0.00116741
0.00054682
-0.00177408
0.00060667
-0.00240376
0.000629677
-0.0030367
0.00063294
-0.00366338
0.000626682
-0.00427993
0.000616546
-0.00488524
0.000605315
0.000594447
-0.00547969
-0.000193509
0.00039059
-0.00061069
0.000840688
-0.00115064
0.00108677
-0.00175082
0.00120685
-0.0023746
0.00125346
-0.00300215
0.00126049
-0.00362375
0.00124828
-0.00423532
0.00122812
-0.00483563
0.00120563
0.00118374
-0.00542493
-0.000186443
0.000577033
-0.000591077
0.00124532
-0.00111738
0.00161307
-0.00170467
0.00179414
-0.00231678
0.00186558
-0.0029337
0.00187741
-0.00354531
0.00185988
-0.00414715
0.00182996
-0.00473767
0.00179615
0.00176296
-0.00531689
-0.000176039
0.000753072
-0.000562094
0.00163138
-0.00106815
0.00211913
-0.00163633
0.00236232
-0.00223122
0.00246047
-0.00283257
0.00247875
-0.00342968
0.00245699
-0.00401747
0.00241775
-0.00459391
0.00237259
0.00232762
-0.00515857
-0.000162504
0.000915576
-0.000524205
0.00199308
-0.00100363
0.00259855
-0.00154671
0.0029054
-0.00211914
0.0030329
-0.00270043
0.00306004
-0.00327912
0.00303569
-0.0038493
0.00298793
-0.00440816
0.00293145
0.00287403
-0.00495457
-0.000146081
0.00106166
-0.00047793
0.00232493
-0.00092455
0.00304517
-0.00143675
0.0034176
-0.0019818
0.00357795
-0.00253907
0.00361731
-0.00309626
0.00359288
-0.00364639
0.00353806
-0.00418547
0.00347052
0.00339976
-0.0047112
-0.000127019
0.00118868
-0.000423779
0.00262169
-0.00083157
0.00345296
-0.00130721
0.00389324
-0.00182015
0.00409089
-0.00234994
0.0041471
-0.00288351
0.00412645
-0.00341269
0.00406724
-0.00393191
0.00398974
0.00390445
-0.0044366
-0.000105567
0.00129424
-0.00036221
0.00287833
-0.000725121
0.00381587
-0.0011583
0.00432642
-0.00163423
0.00456682
-0.00213319
0.00464606
-0.00264174
0.004635
-0.00315089
0.00457639
-0.00365346
0.00449231
0.00439084
-0.00413984
-8.1986e-05
0.00137623
-0.000293655
0.00309
-0.000605383
0.0041276
-0.000989448
0.00471049
-0.00142231
0.00499968
-0.00188592
0.00510966
-0.00236727
0.00511636
-0.00285739
0.00506651
-0.0033501
0.00498502
0.00486994
-0.0038292
-5.66202e-05
0.00143285
-0.000218705
0.00325208
-0.000472465
0.00438136
-0.000799079
0.0050371
-0.00117942
0.00538002
-0.00159758
0.00552782
-0.00204225
0.00556103
-0.00250616
0.00553043
-0.00298843
0.00546728
0.00540647
-0.00352496
-3.01075e-05
0.00146296
-0.000138738
0.00336071
-0.000327726
0.00457035
-0.000586876
0.00529625
-0.000900369
0.00569351
-0.0012516
0.00587905
-0.00162603
0.00593546
-0.00201326
0.00591766
-0.00240933
0.00586335
0.00579383
-0.00279669
-3.52377e-06
0.00146648
-5.67993e-05
0.00341399
-0.000176918
0.00469047
-0.00036296
0.00548229
-0.000603848
0.0059344
-0.000884692
0.00615989
-0.00119127
0.00624203
-0.00151272
0.00623912
-0.00184204
0.00619266
0.00613332
-0.00218153
2.18976e-05
0.00144458
2.35915e-05
0.0034123
-2.64504e-05
0.00474051
-0.000137246
0.00559309
-0.000303965
0.00610112
-0.000515212
0.00637114
-0.000758417
0.00648524
-0.00102295
0.00650365
-0.00130036
0.00647008
0.00641653
-0.00158358
4.52018e-05
0.00139938
9.96139e-05
0.00335788
0.00011883
0.00472129
8.38911e-05
0.00562803
-7.36712e-06
0.00619238
-0.000147834
0.00651161
-0.000326933
0.00666433
-0.000534091
0.00671081
-0.000759586
0.00669557
0.00665045
-0.000993502
6.57187e-05
0.00133366
0.000169111
0.00325449
0.000255134
0.00463527
0.000295521
0.00558764
0.000280841
0.00620706
0.000213374
0.00657908
0.00010124
0.00677647
-4.54352e-05
0.00685748
-0.000216162
0.0068663
0.00683459
-0.000400304
8.29983e-05
0.00125066
0.000230411
0.00310708
0.000379273
0.00448641
0.000493178
0.00547374
0.000555545
0.00614469
0.000563394
0.00657123
0.000521777
0.00681808
0.000439703
0.00693956
0.000327822
0.00697818
0.00696516
0.000197249
9.67703e-05
0.00115389
0.000282254
0.0029216
0.000488542
0.00428012
0.000672711
0.00528957
0.000811536
0.00600587
0.000896524
0.00648624
0.000928985
0.00678562
0.00091598
0.00695256
0.000867565
0.00702659
0.0070376
0.000795131
0.000106917
0.00104698
0.000323755
0.00270476
0.000580684
0.00402319
0.000830232
0.00504002
0.00104342
0.00579267
0.00120626
0.00632341
0.0013157
0.00667618
0.001376
0.00689226
0.00139579
0.0070068
0.00704715
0.00138624
0.000113457
0.00093352
0.000354398
0.00246382
0.000653936
0.00372365
0.000962217
0.00473174
0.00124578
0.00550911
0.00148546
0.00608373
0.00167352
0.00648811
0.0018106
0.00675518
0.00190304
0.00691437
0.00698915
0.00196104
0.000116537
0.000816983
0.00037406
0.00220629
0.000707145
0.00339057
0.00106577
0.00437312
0.00141354
0.00516133
0.00172689
0.00577039
0.00199335
0.00622166
0.00220937
0.00653915
0.00237813
0.00674562
0.00685927
0.002508
0.000116416
0.000700568
0.000383025
0.00193968
0.000739894
0.0030337
0.0011389
0.00397411
0.00154253
0.0047577
0.00192389
0.00538902
0.00226619
0.00587936
0.00256143
0.00624392
0.00280888
0.00649816
0.00665403
0.00301412
0.000113495
0.000587072
0.00038206
0.00167112
0.000752694
0.00266306
0.00118098
0.00354582
0.00163007
0.00430862
0.00207123
0.00494786
0.00248414
0.00546645
0.00285648
0.00587158
0.00318316
0.00617148
0.00637123
0.00346597
0.000108241
0.000478831
0.000372269
0.00140709
0.000746862
0.00228847
0.0011927
0.00309998
0.00167529
0.00382603
0.00216569
0.00445746
0.00264125
0.00499089
0.0030859
0.00542693
0.00349007
0.00576731
0.00601041
0.00385088
0.000101184
0.000377647
0.000355066
0.00115321
0.000724483
0.00191905
0.00117614
0.00264833
0.00167935
0.00332281
0.00220662
0.00393019
0.00273444
0.00446307
0.00324398
0.0049174
0.00372141
0.00528988
0.00557322
0.00415861
9.2848e-05
0.000284799
0.000331966
0.000914092
0.000688071
0.00156295
0.00113437
0.00220203
0.00164513
0.00281204
0.00219582
0.0033795
0.00276372
0.00389517
0.00332854
0.00435257
0.00387285
0.00474557
0.00506325
0.00438282
8.36625e-05
0.000201136
0.000304312
0.000693442
0.000640046
0.00122722
0.00107069
0.00177138
0.00157622
0.00230652
0.00213646
0.00281927
0.0027312
0.00330043
0.00334036
0.00374342
0.0039438
0.00414213
0.00448535
0.00452169
7.38712e-05
0.000127265
0.000272987
0.000494326
0.000582119
0.000918083
0.000987484
0.00136602
0.00147521
0.00181879
0.00203069
0.00226378
0.00263815
0.00269297
0.00327987
0.0031017
0.00393458
0.00348741
0.00384397
0.00457596
6.34845e-05
6.37805e-05
0.00023825
0.000319561
0.000514861
0.000641472
0.00088531
0.00099557
0.00134183
0.00136226
0.0018763
0.00172932
0.00247951
0.00208975
0.00313969
0.00244153
0.00383825
0.00278885
0.00314077
0.00454145
5.23589e-05
1.14216e-05
0.000199953
0.000171967
0.000438003
0.000403422
0.000762997
0.000670576
0.00117226
0.000953006
0.00166392
0.00123766
0.0022369
0.00151676
0.00289037
0.00178806
0.00361882
0.00206041
0.00237217
0.00438742
4.04745e-05
-2.90529e-05
0.000158373
5.40681e-05
0.000352085
0.00020971
0.000620347
0.000402314
0.000962541
0.000610812
0.00137936
0.000820835
0.00187406
0.00102206
0.00245574
0.00120638
0.00314734
0.00136881
0.00151334
0.00400617
2.835e-05
-5.74029e-05
0.00011556
-3.31414e-05
0.000261833
6.3437e-05
0.000465768
0.000198379
0.000724576
0.000352005
0.00103379
0.000511621
0.00138661
0.000669237
0.00177226
0.000820741
0.00217501
0.000966057
0.00111589
0.00257247
1.70651e-05
-7.44681e-05
7.55049e-05
-9.15812e-05
0.000177308
-3.83663e-05
0.000321561
5.41256e-05
0.000505315
0.000168251
0.000723805
0.000293132
0.000970756
0.000422286
0.00123936
0.000552141
0.00152584
0.000679569
0.000797586
0.00184414
7.43362e-06
-8.19017e-05
4.10606e-05
-0.000125208
0.000104943
-0.000102249
0.000199676
-4.06068e-05
0.000323965
4.39615e-05
0.000475438
0.000141659
0.000651479
0.000246245
0.000850384
0.000353237
0.00107262
0.000457333
0.000548651
0.00132155
-2.78722e-07
-8.1623e-05
1.31415e-05
-0.000138628
4.6378e-05
-0.000135486
0.000101845
-9.60739e-05
0.00018019
-3.43835e-05
0.0002813
4.05492e-05
0.000405088
0.000122456
0.000552113
0.000206212
0.000723457
0.00028599
0.000353888
0.00091822
-6.17988e-06
-7.54431e-05
-8.56624e-06
-0.000136242
7.20708e-07
-0.000144773
2.5746e-05
-0.000121099
6.87365e-05
-7.7374e-05
0.000131056
-2.17702e-05
0.000213788
3.97236e-05
0.000317943
0.000102057
0.000443941
0.000159991
0.000207775
0.000590054
-1.05535e-05
-6.48896e-05
-2.49451e-05
-0.00012185
-3.39537e-05
-0.000135764
-3.2251e-05
-0.000122802
-1.65512e-05
-9.30738e-05
1.52721e-05
-5.35935e-05
6.46289e-05
-9.63315e-06
0.000132282
3.44047e-05
0.000217951
7.43222e-05
0.000106085
0.00031964
-1.37115e-05
-5.11781e-05
-3.69707e-05
-9.85912e-05
-5.96376e-05
-0.000113097
-7.55365e-05
-0.000106903
-8.07745e-05
-8.78359e-05
-7.29307e-05
-6.14373e-05
-5.06544e-05
-3.19094e-05
-1.35609e-05
-2.68888e-06
3.76038e-05
2.31575e-05
4.29394e-05
0.000100749
-1.5905e-05
-3.52731e-05
-4.54315e-05
-6.90648e-05
-7.78679e-05
-8.06607e-05
-0.000106531
-7.82397e-05
-0.000127228
-6.71391e-05
-0.000137482
-5.11829e-05
-0.000136117
-3.32744e-05
-0.000123064
-1.57421e-05
-9.93378e-05
-5.68989e-07
1.06072e-05
-6.70056e-05
-1.72974e-05
-1.79757e-05
-5.08451e-05
-3.55171e-05
-8.96144e-05
-4.18914e-05
-0.000126653
-4.1201e-05
-0.000157642
-3.61503e-05
-0.000180136
-2.86885e-05
-0.000193117
-2.02941e-05
-0.000196721
-1.21376e-05
-0.000192102
-5.18841e-06
-2.20799e-07
-0.000181274
-1.79759e-05
-5.34936e-05
-9.53859e-05
-0.000136588
-0.00017274
-0.000201429
-0.000221725
-0.000233864
-0.000239054
-0.000239277
0.000183619
-0.00042284
-5.55539e-08
0.0013217
-0.00113809
1.41942e-08
0.00248542
-0.00116389
1.63618e-07
0.00323243
-0.000747178
1.73879e-07
0.00385215
-0.000619709
-1.61092e-08
0.00428041
-0.000428101
-1.5803e-07
0.00462437
-0.000343618
-3.37497e-07
0.00485618
-0.000231451
-3.5933e-07
0.00506545
-0.000209371
1.03622e-07
-0.000124438
2.4349e-07
0.000295301
-0.000899414
0.0014041
-0.00224689
0.00254153
-0.00230133
0.00327197
-0.00147762
0.00388016
-0.00122789
0.00430178
-0.000849722
0.00464158
-0.000683423
0.00487162
-0.000461488
0.00508011
-0.000417868
-0.000249679
0.000511503
-0.00147792
0.00156324
-0.00329863
0.00264955
-0.00338764
0.00334811
-0.00217618
0.00393411
-0.00181388
0.00434308
-0.00125869
0.00467503
-0.00101538
0.00490183
-0.000688292
0.00510902
-0.000625053
-0.000377152
0.000818367
-0.00219554
0.00178822
-0.00426848
0.00280142
-0.00440084
0.00345516
-0.00282992
0.00401004
-0.00236877
0.00440155
-0.00165019
0.00472281
-0.00133665
0.00494553
-0.000911005
0.00515133
-0.000830853
-0.000508303
0.00119632
-0.00307222
0.00206375
-0.0051359
0.00298585
-0.00532294
0.00358512
-0.00342919
0.00410239
-0.00288604
0.00447328
-0.00202108
0.00478224
-0.00164561
0.00500085
-0.00112961
0.00520583
-0.00103583
-0.000644944
0.0016213
-0.00410346
0.00237126
-0.00588586
0.0031892
-0.00614088
0.00372833
-0.00396831
0.00420436
-0.00336207
0.00455348
-0.0023702
0.00484997
-0.0019421
0.00506547
-0.00134512
0.00527098
-0.00124134
-0.00078934
0.00206526
-0.0052505
0.00268957
-0.00651017
0.00339627
-0.00684758
0.00387403
-0.00444607
0.00430838
-0.00379642
0.00463677
-0.00269859
0.00492222
-0.00222755
0.00513674
-0.00155964
0.005345
-0.00144959
-0.000944259
0.00249787
-0.00642681
0.00299562
-0.00700792
0.00359106
-0.00744302
0.00401104
-0.00486605
0.0044066
-0.00419198
0.0047175
-0.00300948
0.00499496
-0.00250502
0.00521178
-0.00177646
0.00542589
-0.0016637
-0.00111298
0.00290154
-0.00748421
0.00327047
-0.00737685
0.00375955
-0.0079321
0.0041289
-0.0052354
0.00449153
-0.00455462
0.00479014
-0.00330809
0.00506417
-0.00277905
0.00528762
-0.00199991
0.00551156
-0.00188764
-0.00129929
0.00328105
-0.00819279
0.00351246
-0.00760826
0.00389086
-0.0083105
0.0042203
-0.00556484
0.00455644
-0.00489076
0.00484977
-0.00360142
0.00512584
-0.00305511
0.00536153
-0.0022356
0.00559952
-0.00212563
-0.00150793
0.0432805
-0.000914703
-0.0505585
0.0390639
-0.00339171
0.0369858
-0.00623244
0.0367996
-0.00537861
0.0366525
-0.0047437
0.036818
-0.00376684
0.037008
-0.00324519
0.0372614
-0.00248898
0.0374715
-0.00233573
-0.00179622
0.0523394
0.00331353
-0.0565676
0.050143
-0.00119529
0.0475495
-0.00363898
0.0460086
-0.00383773
0.0448011
-0.00353624
0.0439751
-0.00294077
0.0433278
-0.00259787
0.0429098
-0.00207102
0.0425081
-0.00193407
-0.00160335
0.0539042
0.00452445
-0.0551151
0.052622
8.69742e-05
0.0510056
-0.00202263
0.0496962
-0.00252829
0.0485976
-0.00243766
0.0477379
-0.00208107
0.0469855
-0.00184552
0.0464231
-0.00150859
0.0458667
-0.00137765
-0.00122138
0.0520608
0.00437465
-0.051911
0.0516518
0.000495964
0.0508184
-0.00118921
0.0499789
-0.0016888
0.0492357
-0.00169448
0.0486347
-0.00148004
0.0480836
-0.00129445
0.0476475
-0.00107248
0.0472092
-0.000939318
-0.000871588
0.0500075
0.00369128
-0.0493241
0.0498801
0.00062341
0.049457
-0.000766146
0.0489541
-0.00118587
0.0484826
-0.00122297
0.0480981
-0.00109556
0.0477482
-0.000944574
0.0474635
-0.000787775
0.047186
-0.000661839
-0.000622656
0.0483083
0.00289061
-0.0475076
0.0483335
0.000598192
0.048082
-0.000514669
0.0477506
-0.00085448
0.0474259
-0.000898206
0.0471563
-0.000826029
0.0469225
-0.000710695
0.0467304
-0.00059572
0.046558
-0.000489443
-0.000455517
0.0470996
0.00210094
-0.0463099
0.0471935
0.000504328
0.0470188
-0.000339995
0.0467672
-0.000602826
0.0465113
-0.000642322
0.0462896
-0.000604318
0.0461033
-0.000524468
0.0459497
-0.000442109
0.0458225
-0.000362216
-0.000331086
0.0462852
0.001362
-0.0455462
0.0464294
0.000360089
0.0462959
-0.000206489
0.0460799
-0.00038688
0.0458538
-0.000416169
0.0456483
-0.000398805
0.0454743
-0.000350488
0.0453295
-0.000297262
0.0452121
-0.000244885
-0.00022086
0.0457886
0.000668605
-0.0450952
0.0459648
0.000183855
0.0458571
-9.88322e-05
0.0456578
-0.000187521
0.0454441
-0.000202524
0.0452434
-0.000198083
0.045069
-0.000176131
0.0449223
-0.000150552
0.0448016
-0.000124119
-0.000111665
0.045554
-0.0448854
0.0457378
0.045639
0.0454515
0.0452489
0.0450509
0.0448747
0.0447242
0.0446001
0.0567753
0.00230159
-0.0560627
0.0573297
0.00291155
0.0576775
0.0035031
0.0577689
0.00406718
0.0575572
0.00459458
0.0570024
0.00507648
0.0560732
0.00550517
0.0547401
0.00587452
0.0529478
0.00617966
0.00639547
0.0513979
0.0016929
-0.0507892
0.0520516
0.00225785
0.0527363
0.00281843
0.0534339
0.00336956
0.054123
0.00390551
0.0547794
0.00442007
0.0553778
0.0049068
0.055893
0.00535932
0.0563007
0.0057719
0.00612862
0.0480918
0.001218
-0.0476169
0.0486477
0.00170197
0.0492813
0.00218477
0.0499874
0.00266353
0.0507578
0.00313508
0.0515819
0.00359596
0.0524463
0.00404234
0.0533356
0.00447005
0.054233
0.00487456
0.00524644
0.0454945
0.00089139
-0.0451679
0.0459013
0.00129521
0.0463888
0.00169729
0.0469569
0.00209538
0.0476048
0.00248723
0.0483302
0.00287049
0.0491298
0.00324277
0.0499983
0.00360155
0.0509288
0.00394405
0.00426426
0.0439058
0.000651557
-0.043666
0.0442198
0.000981278
0.0446079
0.00130912
0.0450701
0.00163321
0.0456056
0.0019517
0.0462134
0.00226271
0.0468918
0.00256437
0.0476386
0.0028548
0.0484507
0.00313191
0.00339081
0.0428101
0.000469383
-0.0426279
0.0430622
0.000729122
0.0433843
0.000987091
0.0437757
0.00124177
0.0442357
0.00149167
0.0447632
0.00173527
0.0453564
0.00197112
0.0460135
0.00219774
0.0467319
0.00241352
0.00261507
0.0421162
0.00032461
-0.0419714
0.0423279
0.00051745
0.0426061
0.000708874
0.0429501
0.000897733
0.0433589
0.00108288
0.043831
0.00126319
0.0443646
0.00143754
0.0449575
0.00160482
0.0456072
0.00176384
0.00191232
0.0416643
0.000203998
-0.0415437
0.04185
0.000331707
0.0421004
0.00045846
0.0424147
0.000583483
0.0427916
0.000706008
0.0432295
0.000825275
0.0437265
0.000940537
0.0442802
0.00105106
0.044888
0.00115604
0.00125414
0.0413996
9.81599e-05
-0.0412938
0.0415695
0.000161808
0.041803
0.000224995
0.0420992
0.000287334
0.0424567
0.000348437
0.0428741
0.000407922
0.0433492
0.000465411
0.0438797
0.000520532
0.0444629
0.000572894
0.000621856
0.0412742
-0.041176
0.041436
0.041661
0.0419483
0.0422967
0.0427047
0.0431701
0.0436906
0.0442635
0.0481094
-0.00335374
-0.0475524
0.0488228
-0.00289489
0.0496454
-0.00240622
0.0505376
-0.00188565
0.0514714
-0.00133414
0.0524282
-0.000759595
0.0533899
-0.000166525
0.0543348
0.00044138
0.0552364
0.00105938
0.00168168
0.0479852
-0.00340684
-0.0479321
0.0480815
-0.0029912
0.0482205
-0.00254526
0.0484082
-0.0020733
0.0486505
-0.00157645
0.0489517
-0.0010608
0.0493152
-0.000530089
0.0497433
1.33585e-05
0.0502356
0.000567054
0.00112803
0.046897
-0.0031475
-0.0471564
0.0466931
-0.0027873
0.0465499
-0.00240198
0.0464725
-0.00199591
0.0464672
-0.00157118
0.0465376
-0.0011312
0.046686
-0.000678482
0.0469144
-0.000215034
0.0472244
0.000257058
0.000735534
0.0455818
-0.00277137
-0.0459579
0.0452636
-0.00246906
0.0450067
-0.0021451
0.0448147
-0.00180392
0.0446909
-0.00144742
0.0446377
-0.001078
0.044657
-0.000697771
0.0447507
-0.000308666
0.0449204
8.72997e-05
0.000488035
0.0446599
-0.0023496
-0.0450817
0.044292
-0.00210111
0.0439823
-0.00183548
0.0437342
-0.00155579
0.0435504
-0.00126362
0.0434333
-0.00096085
0.0433847
-0.000649199
0.0434064
-0.000330366
0.0434998
-6.09505e-06
0.000321824
0.0439897
-0.00190031
-0.044439
0.0435923
-0.00170379
0.0432508
-0.00149397
0.0429681
-0.00127309
0.0427469
-0.00104239
0.0425893
-0.000803271
0.0424973
-0.000557122
0.0424722
-0.000305337
0.0425155
-4.93424e-05
0.000209397
0.043559
-0.00143593
-0.0440234
0.043145
-0.00128981
0.042785
-0.00113398
0.0424819
-0.000969929
0.042238
-0.000798572
0.0420557
-0.000620926
0.0419366
-0.000438028
0.0418822
-0.000250929
0.0418936
-6.07133e-05
0.000131511
0.0432802
-0.00096146
-0.0437547
0.0428551
-0.000864765
0.0424828
-0.000761683
0.0421661
-0.000653144
0.0419072
-0.000539751
0.0417085
-0.000422167
0.0415715
-0.000301076
0.0414978
-0.000177181
0.0414883
-5.12065e-05
7.61065e-05
0.0431193
-0.000481536
-0.0435992
0.042688
-0.000433515
0.0423086
-0.000382322
0.0419839
-0.000328399
0.0417162
-0.000272044
0.0415076
-0.000213579
0.0413599
-0.000153344
0.0412744
-9.16864e-05
0.0412521
-2.89678e-05
3.44409e-05
0.0430454
-0.043527
0.0426119
0.0422296
0.0419012
0.0416291
0.0414156
0.0412622
0.0411705
0.0411416
0.0429475
0.000174631
-0.000193169
0.0429914
0.000521277
-0.0005652
0.0430658
0.000872672
-0.000947119
0.0431884
0.001237
-0.00135953
0.043389
0.00161961
-0.00182026
0.0437114
0.00202475
-0.00234711
0.0442143
0.00245453
-0.0029574
0.0449695
0.00291138
-0.00366664
0.0460712
0.00337131
-0.00447303
0.00392367
-0.0054048
0.0429657
0.000137881
0.0430729
0.000414037
0.043254
0.00069155
0.0435194
0.000971605
0.043884
0.00125502
0.0443668
0.00154202
0.0449896
0.00183167
0.0457769
0.00212407
0.0467446
0.00240365
0.00273618
0.0429665
0.000100273
0.0430779
0.000302718
0.0432627
0.000506707
0.0435251
0.000709229
0.0438707
0.000909387
0.0443068
0.00110589
0.0448419
0.00129664
0.045486
0.00147994
0.0462438
0.00164581
0.00182364
0.0429586
7.05597e-05
0.0430476
0.000213752
0.043196
0.000358308
0.0434046
0.000500639
0.0436744
0.000639538
0.0440066
0.000773711
0.0444017
0.000901586
0.0448597
0.00102196
0.0453756
0.00112983
0.00124134
0.0429506
4.88963e-05
0.0430161
0.00014828
0.0431258
0.000248594
0.0432795
0.000346946
0.0434767
0.000442277
0.0437169
0.000533535
0.0439989
0.00061958
0.0443214
0.000699481
0.0446808
0.000770449
0.000840431
0.0429445
3.33082e-05
0.0429918
0.00010102
0.043071
0.000169336
0.0431818
0.000236203
0.0433232
0.000300845
0.0434942
0.000362524
0.0436933
0.000420497
0.0439186
0.000474171
0.044167
0.000522073
0.000568471
0.0429403
2.19176e-05
0.0429749
6.64644e-05
0.0430328
0.000111389
0.0431137
0.000155332
0.0432168
0.000197773
0.0433411
0.00023822
0.0434854
0.000276197
0.0436482
0.000311314
0.0438276
0.000342744
0.00037265
0.0429376
1.32771e-05
0.0429638
4.02498e-05
0.0430077
6.74383e-05
0.043069
9.40336e-05
0.0431471
0.000119721
0.0432411
0.000144211
0.0433501
0.000167225
0.0434728
0.000188539
0.0436079
0.000207718
0.000225866
0.0429359
6.2614e-06
0.0429572
1.89824e-05
0.0429929
3.17944e-05
0.0430426
4.43277e-05