/*--------------------------------*- C++ -*----------------------------------*\
  =========                 |
  \\      /  F ield         | OpenFOAM: The Open Source CFD Toolbox
   \\    /   O peration     | Website:  https://openfoam.org
    \\  /    A nd           | Version:  6.0
     \\/     M anipulation  |
\*---------------------------------------------------------------------------*/
FoamFile
{
    version     2.0;
    format      ascii;
    class       volScalarField;
    location    "5";
    object      p;
}
// * * * * * * * * * * * * * * * * * * * * * * * * * * * * * * * * * * * * * //

dimensions      [0 2 -2 0 0 0 0];

internalField   nonuniform List<scalar> 
2000
(
-0.381935
-0.38781
-0.389133
-0.387872
-0.385261
-0.381702
-0.377493
-0.372986
-0.368522
-0.363527
-0.384983
-0.390373
-0.391327
-0.389754
-0.386854
-0.383023
-0.378556
-0.373793
-0.369082
-0.363989
-0.391074
-0.395483
-0.395692
-0.39349
-0.390005
-0.385624
-0.380632
-0.375342
-0.370114
-0.364818
-0.400201
-0.403106
-0.402179
-0.399025
-0.394654
-0.389435
-0.383634
-0.377511
-0.371452
-0.365825
-0.412358
-0.413192
-0.410721
-0.406287
-0.400728
-0.394378
-0.387462
-0.380153
-0.372859
-0.366707
-0.427535
-0.425677
-0.421237
-0.4152
-0.408161
-0.400394
-0.392048
-0.383146
-0.374077
-0.367071
-0.445697
-0.44047
-0.433631
-0.425686
-0.416913
-0.407488
-0.397445
-0.38656
-0.375046
-0.366565
-0.466729
-0.457431
-0.447776
-0.437656
-0.426935
-0.415659
-0.40371
-0.390446
-0.375418
-0.363924
-0.490374
-0.476355
-0.463533
-0.451044
-0.438244
-0.424978
-0.410803
-0.394174
-0.372933
-0.354567
-0.516179
-0.496958
-0.480779
-0.465971
-0.451423
-0.436881
-0.421552
-0.402802
-0.376629
-0.351612
-0.543453
-0.5188
-0.499226
-0.482311
-0.466758
-0.45285
-0.440844
-0.431261
-0.429156
-0.445866
-0.571375
-0.541298
-0.518255
-0.498982
-0.481772
-0.466978
-0.454984
-0.446739
-0.44717
-0.461401
-0.599209
-0.563965
-0.537557
-0.515819
-0.496535
-0.479963
-0.466387
-0.456454
-0.453144
-0.45793
-0.626261
-0.586277
-0.556747
-0.532552
-0.510916
-0.491924
-0.475675
-0.462388
-0.453475
-0.449097
-0.651718
-0.607503
-0.57513
-0.548452
-0.524118
-0.502031
-0.482126
-0.464288
-0.448939
-0.436317
-0.674527
-0.62665
-0.591698
-0.56245
-0.535028
-0.50924
-0.484986
-0.462011
-0.440204
-0.420532
-0.69335
-0.642456
-0.605171
-0.573218
-0.542331
-0.512375
-0.483385
-0.455157
-0.427369
-0.401991
-0.706594
-0.653432
-0.614055
-0.579253
-0.544594
-0.510193
-0.476388
-0.443159
-0.410176
-0.380464
-0.712481
-0.657919
-0.616712
-0.578958
-0.540356
-0.501473
-0.463076
-0.425398
-0.388195
-0.355472
-0.70915
-0.654175
-0.611449
-0.570737
-0.528221
-0.485089
-0.442613
-0.40128
-0.360949
-0.326457
-0.694767
-0.640474
-0.596617
-0.553097
-0.506943
-0.460093
-0.414326
-0.370331
-0.328034
-0.292922
-0.667636
-0.615206
-0.570719
-0.52475
-0.475524
-0.425787
-0.377766
-0.332261
-0.289201
-0.254538
-0.626338
-0.577014
-0.532531
-0.484721
-0.433294
-0.381784
-0.33276
-0.287021
-0.244427
-0.211203
-0.569837
-0.524898
-0.481209
-0.43243
-0.379964
-0.328044
-0.279435
-0.234828
-0.193945
-0.163087
-0.497601
-0.458329
-0.416377
-0.367751
-0.315654
-0.26487
-0.218207
-0.176163
-0.138256
-0.110634
-0.409698
-0.377346
-0.3382
-0.291041
-0.240881
-0.192867
-0.149708
-0.111665
-0.0780105
-0.05448
-0.306887
-0.282622
-0.247426
-0.203158
-0.156549
-0.112909
-0.0747325
-0.0420496
-0.0139386
0.0045434
-0.190667
-0.17551
-0.145402
-0.105441
-0.0639294
-0.0261616
0.00564661
0.0315548
0.0524089
0.0643951
-0.0633013
-0.0580344
-0.0340222
0.000402633
0.0355697
0.0663067
0.0905611
0.107926
0.118497
0.121342
0.0722155
0.0671213
0.0842641
0.112318
0.140612
0.164315
0.181433
0.190353
0.189808
0.183468
0.212282
0.196664
0.206331
0.227398
0.248733
0.26638
0.279051
0.284914
0.284161
0.298479
0.352989
0.326933
0.328555
0.341779
0.355219
0.36557
0.371952
0.373466
0.372618
0.38589
0.490394
0.454254
0.447527
0.452345
0.457269
0.459588
0.45873
0.454278
0.448733
0.454087
0.620656
0.575025
0.559965
0.556209
0.552455
0.54659
0.538358
0.527611
0.516432
0.513751
0.740131
0.68582
0.662788
0.650725
0.6386
0.624881
0.609593
0.592776
0.576132
0.566278
0.845449
0.783488
0.753196
0.733516
0.713768
0.692946
0.671319
0.649076
0.627545
0.611428
0.933616
0.865239
0.828719
0.802487
0.776221
0.749371
0.722405
0.695625
0.670001
0.648642
1.00209
0.928725
0.887279
0.855862
0.82447
0.792904
0.761788
0.731504
0.702713
0.677268
1.04889
0.972105
0.927253
0.892251
0.857328
0.822528
0.788579
0.755915
0.724965
0.696715
1.07264
0.994117
0.947524
0.910692
0.873969
0.837527
0.802142
0.768275
0.736231
0.706554
1.07264
0.994118
0.947525
0.910692
0.87397
0.837528
0.802143
0.768277
0.736233
0.706556
1.0489
0.972107
0.927255
0.892253
0.85733
0.822532
0.788584
0.755921
0.724972
0.696723
1.0021
0.928729
0.887283
0.855866
0.824474
0.79291
0.761796
0.731514
0.702724
0.67728
0.933626
0.865247
0.828725
0.802492
0.776227
0.749378
0.722415
0.695637
0.670017
0.648659
0.845463
0.783497
0.753204
0.733522
0.713773
0.692953
0.671329
0.64909
0.627564
0.611449
0.740147
0.685831
0.662797
0.65073
0.638605
0.624887
0.609602
0.592791
0.576153
0.566301
0.620673
0.575036
0.559972
0.556212
0.552457
0.546593
0.538365
0.527624
0.516453
0.513776
0.490408
0.454263
0.447531
0.452345
0.457266
0.459585
0.458732
0.454286
0.448751
0.454109
0.352997
0.326935
0.328552
0.341772
0.355208
0.36556
0.371946
0.373467
0.37263
0.385906
0.21228
0.196656
0.206318
0.227381
0.248713
0.26636
0.279033
0.284901
0.284159
0.298487
0.0722004
0.0671005
0.0842392
0.11229
0.140581
0.164284
0.181404
0.190325
0.189783
0.183451
-0.0633319
-0.0580703
-0.0340609
0.000361923
0.0355274
0.0662633
0.0905172
0.107881
0.118452
0.121303
-0.190714
-0.175561
-0.145455
-0.105495
-0.0639842
-0.026218
0.00558857
0.0314942
0.0523464
0.0643352
-0.306949
-0.282688
-0.247493
-0.203225
-0.156616
-0.112977
-0.0748034
-0.0421238
-0.0140153
0.00446835
-0.409774
-0.377425
-0.338279
-0.291119
-0.240959
-0.192946
-0.14979
-0.111751
-0.0780983
-0.054567
-0.497689
-0.45842
-0.416467
-0.367838
-0.315741
-0.264959
-0.218298
-0.176258
-0.138353
-0.11073
-0.569937
-0.524999
-0.481309
-0.432527
-0.380059
-0.32814
-0.279534
-0.23493
-0.194048
-0.16319
-0.626447
-0.577124
-0.532639
-0.484826
-0.433397
-0.381888
-0.332865
-0.287128
-0.244534
-0.211311
-0.667753
-0.615324
-0.570833
-0.524861
-0.475634
-0.425897
-0.377877
-0.332373
-0.289313
-0.254649
-0.694889
-0.640597
-0.596737
-0.553213
-0.507058
-0.460209
-0.414442
-0.370446
-0.328148
-0.293036
-0.709276
-0.654303
-0.611572
-0.570856
-0.528339
-0.485208
-0.442732
-0.401398
-0.361065
-0.326572
-0.712609
-0.658048
-0.616838
-0.57908
-0.540477
-0.501594
-0.463196
-0.425516
-0.388311
-0.355587
-0.706721
-0.653561
-0.614181
-0.579376
-0.544715
-0.510313
-0.476507
-0.443276
-0.410291
-0.380579
-0.693475
-0.642583
-0.605296
-0.573341
-0.54245
-0.512493
-0.483501
-0.455271
-0.427481
-0.402104
-0.674646
-0.626773
-0.59182
-0.56257
-0.535145
-0.509355
-0.485098
-0.462121
-0.440313
-0.420643
-0.651831
-0.607621
-0.575249
-0.548569
-0.524231
-0.502141
-0.482233
-0.464393
-0.449044
-0.436424
-0.626366
-0.586387
-0.556861
-0.532665
-0.511025
-0.492029
-0.475776
-0.462487
-0.453575
-0.449199
-0.599305
-0.564067
-0.537663
-0.515925
-0.496638
-0.48006
-0.466479
-0.456545
-0.453236
-0.458024
-0.57146
-0.54139
-0.518354
-0.499081
-0.481866
-0.467067
-0.455067
-0.446819
-0.447251
-0.461483
-0.543525
-0.518882
-0.499314
-0.4824
-0.466842
-0.452928
-0.440914
-0.431325
-0.429218
-0.445926
-0.51624
-0.497028
-0.480856
-0.466049
-0.451496
-0.436948
-0.421609
-0.402848
-0.376659
-0.351623
-0.490424
-0.476415
-0.463599
-0.451111
-0.438307
-0.425033
-0.410849
-0.394209
-0.372953
-0.354572
-0.466768
-0.45748
-0.447831
-0.437712
-0.426987
-0.415705
-0.403746
-0.390472
-0.375432
-0.363924
-0.445727
-0.440509
-0.433675
-0.425731
-0.416955
-0.407524
-0.397473
-0.386578
-0.375053
-0.366561
-0.427557
-0.425708
-0.421272
-0.415235
-0.408194
-0.400422
-0.392068
-0.383157
-0.374079
-0.367065
-0.412374
-0.413216
-0.410748
-0.406315
-0.400753
-0.394399
-0.387475
-0.380159
-0.372857
-0.366699
-0.400214
-0.403124
-0.402199
-0.399046
-0.394673
-0.389449
-0.383642
-0.377513
-0.371449
-0.365816
-0.391084
-0.395497
-0.395706
-0.393505
-0.390018
-0.385633
-0.380637
-0.375342
-0.37011
-0.36481
-0.384989
-0.390382
-0.391336
-0.389763
-0.386861
-0.383027
-0.378558
-0.373793
-0.369079
-0.363983
-0.381937
-0.387813
-0.389136
-0.387875
-0.385264
-0.381704
-0.377494
-0.372985
-0.36852
-0.363525
-0.299185
-0.0888906
-0.0322041
0.0121612
0.0115032
0.0106224
0.00669194
0.00416471
0.00200763
0.00105629
-0.30094
-0.089852
-0.0327374
0.0118159
0.0113796
0.0105498
0.00666675
0.00415309
0.00200149
0.00105172
-0.304356
-0.0917341
-0.0337796
0.0111328
0.0111357
0.0104071
0.00661557
0.0041284
0.00199032
0.00104266
-0.309247
-0.0944769
-0.0352863
0.010126
0.0107759
0.0101969
0.00653837
0.00409052
0.00197478
0.00102935
-0.315299
-0.0979877
-0.0371847
0.00881994
0.0103062
0.00992191
0.0064358
0.00404006
0.00195475
0.00101206
-0.322043
-0.102125
-0.0393678
0.00725579
0.00973652
0.00958666
0.00630888
0.00397768
0.00193013
0.000991118
-0.329262
-0.106924
-0.0417993
0.00546693
0.00907719
0.00919801
0.00615931
0.00390412
0.001901
0.000966927
-0.337589
-0.113207
-0.0447746
0.00337649
0.00831514
0.00875969
0.00598954
0.00382125
0.00186803
0.000940269
-0.345255
-0.121603
-0.04851
0.000837047
0.00740872
0.00825728
0.00579777
0.0037301
0.00183263
0.000911233
-0.338872
-0.126436
-0.0506175
-0.00147955
0.00647034
0.00767254
0.00556316
0.00361741
0.00179153
0.000874579
-0.27133
-0.122913
-0.0487182
-0.00626779
0.00398966
0.00567958
0.00467454
0.0031545
0.00161755
0.000712821
-0.203893
-0.116017
-0.0462381
-0.0108931
-0.000802225
0.00193823
0.00258872
0.00205687
0.00110707
0.000454139
-0.154008
-0.099477
-0.042201
-0.0134051
-0.00460615
-0.00118984
0.000631001
0.000965366
0.00057818
0.000223988
-0.109782
-0.0806933
-0.0386796
-0.0154053
-0.00741939
-0.00362896
-0.0010935
-7.19421e-05
6.01778e-05
1.37012e-05
-0.0786762
-0.06558
-0.0365664
-0.0173631
-0.00956889
-0.00551684
-0.00256636
-0.00101578
-0.000421243
-0.000170142
-0.0577874
-0.0541624
-0.0347412
-0.0188153
-0.01111
-0.00690142
-0.00374643
-0.00182037
-0.000840621
-0.000322672
-0.0443008
-0.0457169
-0.0329879
-0.0197814
-0.0122108
-0.00789244
-0.00464793
-0.0024701
-0.00118648
-0.000443974
-0.0357397
-0.0397446
-0.0314727
-0.0203886
-0.0129772
-0.00857267
-0.00529508
-0.00295851
-0.00145119
-0.000534165
-0.0307189
-0.0359438
-0.0303863
-0.0207441
-0.0134617
-0.00899457
-0.00571078
-0.00328371
-0.00162986
-0.000593257
-0.0283889
-0.0340871
-0.0298284
-0.0209193
-0.013697
-0.00919216
-0.00591269
-0.00344589
-0.00172003
-0.000621175
-0.238671
-0.266799
-0.292914
-0.317308
-0.340364
-0.362553
-0.384435
-0.406576
-0.429289
-0.45344
-0.0821189
-0.0921208
-0.101141
-0.10942
-0.117258
-0.125031
-0.1332
-0.142318
-0.152968
-0.16692
-0.0552325
-0.0640869
-0.0725492
-0.080595
-0.0881892
-0.0952891
-0.101853
-0.107854
-0.113288
-0.118283
-0.0260968
-0.0314789
-0.0366495
-0.0416266
-0.0464336
-0.0510955
-0.0556362
-0.060078
-0.0644228
-0.0685767
-0.0186415
-0.0226755
-0.0265793
-0.0303513
-0.0339873
-0.0374827
-0.0408342
-0.0440403
-0.0470847
-0.0499563
-0.0122231
-0.0151395
-0.0179916
-0.0207801
-0.023504
-0.0261624
-0.0287556
-0.0312831
-0.033736
-0.0361303
-0.0101605
-0.0124189
-0.014635
-0.0168054
-0.0189264
-0.020995
-0.0230095
-0.0249685
-0.0268672
-0.0287294
-0.00867692
-0.0104726
-0.0122449
-0.0139899
-0.0157041
-0.0173846
-0.0190293
-0.0206358
-0.0222008
-0.0237414
-0.00816619
-0.00968988
-0.0111981
-0.0126869
-0.0141523
-0.0155908
-0.0169991
-0.0183743
-0.0197136
-0.0210282
-0.00790103
-0.00928488
-0.0106581
-0.0120165
-0.0133572
-0.0146777
-0.015975
-0.017246
-0.018488
-0.0197088
0.148827
0.107464
0.0620644
0.0189665
-0.0228324
-0.0637582
-0.103188
-0.14056
-0.175625
-0.208319
0.101784
0.0758815
0.0493679
0.0267743
0.00682189
-0.011706
-0.0288663
-0.0444505
-0.0584376
-0.0709443
0.0604695
0.0449131
0.0303089
0.0177275
0.00615801
-0.0050354
-0.0159034
-0.0263586
-0.0363811
-0.0459982
0.0427319
0.0338699
0.0255852
0.0182036
0.0112364
0.00444052
-0.00216934
-0.00853547
-0.0146392
-0.0204884
0.0291719
0.0234322
0.0179883
0.0129874
0.00817209
0.00342778
-0.00123129
-0.00577421
-0.0101901
-0.0144791
0.0205049
0.0168194
0.0132308
0.00984882
0.00655754
0.0032982
7.64021e-05
-0.0030915
-0.00619823
-0.00924231
0.0140019
0.0114593
0.00892349
0.0064692
0.00404715
0.0016298
-0.000778941
-0.00316833
-0.00553124
-0.00786324
0.00969526
0.00787159
0.00601875
0.00418389
0.00235035
0.000507285
-0.00134197
-0.00319024
-0.00503175
-0.00686199
0.00692605
0.00549117
0.00402125
0.00253957
0.00104143
-0.000475519
-0.00200704
-0.00354709
-0.0050902
-0.00663145
0.0056069
0.00434263
0.00304564
0.00172802
0.000389433
-0.000969144
-0.00234336
-0.00372814
-0.00511881
-0.00651109
0.319461
0.31873
0.317108
0.314112
0.308958
0.300403
0.286668
0.265342
0.233754
0.188484
0.230986
0.229854
0.227181
0.222534
0.215578
0.205886
0.192888
0.175929
0.154255
0.127314
0.161854
0.160723
0.158052
0.153519
0.147018
0.138444
0.12761
0.114304
0.098118
0.0791362
0.111977
0.111099
0.109014
0.10548
0.100482
0.0940467
0.086171
0.0768675
0.0660616
0.0540868
0.0772519
0.0766196
0.0751096
0.0725457
0.0689361
0.0643341
0.0587756
0.0523011
0.0448939
0.0367604
0.0534694
0.0530208
0.0519477
0.0501259
0.0475693
0.0443296
0.0404495
0.0359746
0.0309254
0.0254466
0.0374565
0.0371339
0.036362
0.0350519
0.0332156
0.0308933
0.0281193
0.0249273
0.0213384
0.0174357
0.0270304
0.02679
0.0262147
0.0252384
0.0238708
0.0221428
0.0200815
0.0177128
0.015058
0.0121689
0.0207682
0.0205761
0.0201167
0.0193371
0.0182451
0.0168651
0.0152182
0.0133239
0.0112004
0.00887928
0.0178341
0.0176641
0.0172581
0.0165696
0.0156052
0.0143861
0.0129309
0.0112562
0.00937917
0.00732276
0.46813
0.469862
0.476141
0.487202
0.502943
0.523678
0.549884
0.582104
0.620893
0.666526
0.465908
0.467615
0.473814
0.484718
0.500209
0.520563
0.546201
0.577575
0.615107
0.658919
0.461514
0.463176
0.469222
0.479822
0.494825
0.514433
0.538951
0.568659
0.603704
0.643916
0.455047
0.456655
0.462489
0.472657
0.486956
0.505482
0.528366
0.555632
0.587006
0.621924
0.446645
0.448203
0.453788
0.463417
0.476828
0.493976
0.514768
0.538884
0.565483
0.59353
0.436475
0.438005
0.443322
0.45233
0.464695
0.480212
0.498517
0.518865
0.539706
0.559472
0.424734
0.426303
0.43137
0.439711
0.450919
0.4646
0.480083
0.496118
0.510358
0.520619
0.411627
0.41342
0.418369
0.426113
0.436187
0.447981
0.460442
0.471678
0.478437
0.477766
0.397224
0.399486
0.404504
0.411773
0.420813
0.430796
0.440218
0.446356
0.444788
0.430351
0.381164
0.383564
0.388147
0.394275
0.401484
0.408823
0.414513
0.415322
0.406444
0.378206
0.381126
0.383525
0.38811
0.394241
0.401453
0.408797
0.414493
0.415311
0.406443
0.378218
0.397186
0.399448
0.404468
0.411739
0.420783
0.43077
0.4402
0.446346
0.444789
0.430363
0.411592
0.413385
0.418335
0.426081
0.43616
0.447959
0.460427
0.471672
0.478441
0.477781
0.424703
0.426272
0.431341
0.439683
0.450894
0.464581
0.480071
0.496114
0.510364
0.520637
0.436448
0.437979
0.443297
0.452307
0.464675
0.480197
0.498509
0.518864
0.539713
0.559489
0.446622
0.448181
0.453768
0.463399
0.476812
0.493964
0.514762
0.538884
0.56549
0.593546
0.455029
0.456638
0.462475
0.472643
0.486944
0.505473
0.528361
0.555632
0.587013
0.621937
0.461501
0.463164
0.469211
0.479813
0.494817
0.514427
0.538947
0.568659
0.603708
0.643925
0.4659
0.467608
0.473808
0.484712
0.500204
0.52056
0.546199
0.577575
0.61511
0.658925
0.468128
0.46986
0.476139
0.4872
0.502941
0.523677
0.549884
0.582104
0.620894
0.666528
0.0178652
0.0176954
0.0172899
0.0166024
0.0156392
0.0144216
0.0129679
0.0112948
0.00941949
0.00736509
0.0207962
0.0206041
0.0201449
0.0193661
0.0182752
0.0168966
0.0152512
0.0133582
0.011236
0.00891601
0.0270541
0.0268138
0.0262387
0.0252627
0.0238957
0.0221684
0.0201077
0.0177394
0.0150849
0.0121959
0.0374744
0.0371519
0.0363801
0.0350702
0.0332342
0.030912
0.0281378
0.0249456
0.0213562
0.0174531
0.0534813
0.0530327
0.0519597
0.0501378
0.0475811
0.0443409
0.0404603
0.0359849
0.0309351
0.0254559
0.0772575
0.0766253
0.0751154
0.0725514
0.0689415
0.064339
0.0587801
0.0523053
0.044898
0.0367648
0.111977
0.111098
0.109013
0.105479
0.100481
0.0940454
0.0861699
0.076867
0.0660621
0.0540891
0.161845
0.160714
0.158043
0.153511
0.147011
0.138437
0.127604
0.114299
0.0981142
0.0791341
0.230967
0.229835
0.227163
0.222517
0.215562
0.205871
0.192876
0.17592
0.154249
0.127312
0.319429
0.318699
0.317079
0.314086
0.308935
0.300384
0.286654
0.265335
0.233756
0.188497
0.00565178
0.00438953
0.00309368
0.00177658
0.000438379
-0.000919696
-0.00229334
-0.00367755
-0.00506763
-0.00645927
0.00696442
0.00553107
0.00406221
0.00258127
0.00108387
-0.000432229
-0.00196287
-0.00350207
-0.00504436
-0.00658484
0.00972257
0.00789944
0.00604734
0.00421379
0.00238174
0.000539937
-0.0013083
-0.00315572
-0.00499641
-0.0068258
0.0140192
0.0114766
0.00894099
0.00648749
0.00406637
0.00164986
-0.000758121
-0.00314671
-0.0055087
-0.00783959
0.0205147
0.0168296
0.0132409
0.00985856
0.00656674
0.00330708
8.51446e-05
-0.00308269
-0.00618911
-0.00923253
0.0291771
0.0234375
0.0179924
0.0129897
0.00817257
0.00342667
-0.00123386
-0.00577814
-0.0101952
-0.014485
0.0427352
0.0338707
0.0255811
0.0181959
0.0112259
0.00442707
-0.00218586
-0.00855501
-0.0146615
-0.0205129
0.0604689
0.0449114
0.0303033
0.0177166
0.00614093
-0.00505894
-0.0159335
-0.026395
-0.0364232
-0.0460451
0.101787
0.0758825
0.0493617
0.0267587
0.00679582
-0.011743
-0.028914
-0.0445076
-0.0585022
-0.071014
0.148844
0.107468
0.0620458
0.0189244
-0.0228957
-0.0638392
-0.103284
-0.140666
-0.175739
-0.208439
-0.00784836
-0.0092309
-0.0106031
-0.0119614
-0.0133023
-0.0146226
-0.0159194
-0.0171896
-0.0184306
-0.0196506
-0.00811881
-0.0096417
-0.0111491
-0.0126369
-0.0141013
-0.0155387
-0.0169461
-0.0183201
-0.0196581
-0.0209715
-0.00863961
-0.0104337
-0.012204
-0.0139469
-0.0156591
-0.0173378
-0.0189805
-0.0205847
-0.0221473
-0.023686
-0.0101353
-0.0123918
-0.0146051
-0.0167717
-0.0188885
-0.0209532
-0.0229642
-0.0249197
-0.0268151
-0.0286746
-0.0122122
-0.0151272
-0.0179766
-0.0207602
-0.0234782
-0.0261308
-0.0287185
-0.0312408
-0.0336887
-0.0360788
-0.0186479
-0.0226821
-0.0265848
-0.0303526
-0.0339823
-0.0374706
-0.0408148
-0.0440131
-0.0470494
-0.0499135
-0.0261222
-0.0315028
-0.0366703
-0.041644
-0.0464464
-0.0511015
-0.0556332
-0.0600644
-0.0643977
-0.0685404
-0.0552832
-0.0641405
-0.0726038
-0.0806481
-0.0882376
-0.0953294
-0.101881
-0.107867
-0.113285
-0.118261
-0.0821917
-0.0921956
-0.101216
-0.10949
-0.11732
-0.125082
-0.133238
-0.142339
-0.152968
-0.166894
-0.238795
-0.266925
-0.293039
-0.317431
-0.34048
-0.362659
-0.384527
-0.406647
-0.429332
-0.453444
-0.0283393
-0.0340577
-0.0298103
-0.0208974
-0.0136806
-0.00918329
-0.00590262
-0.00343606
-0.00171412
-0.00062081
-0.0306685
-0.0359135
-0.0303682
-0.0207235
-0.013446
-0.00898596
-0.00570089
-0.00327399
-0.00162412
-0.00059276
-0.0356873
-0.0397128
-0.0314552
-0.0203704
-0.0129625
-0.00856431
-0.0052855
-0.00294903
-0.00144574
-0.000533494
-0.0442453
-0.0456834
-0.0329717
-0.0197664
-0.0121971
-0.00788409
-0.00463867
-0.00246099
-0.00118141
-0.000443268
-0.0577273
-0.0541267
-0.0347275
-0.0188041
-0.0110976
-0.00689298
-0.00373738
-0.0018117
-0.000836168
-0.000322091
-0.0786089
-0.065541
-0.0365565
-0.0173567
-0.00955813
-0.00550888
-0.00255757
-0.00100765
-0.000417613
-0.000169627
-0.109702
-0.0806501
-0.0386759
-0.0154049
-0.00741101
-0.00362277
-0.00108543
-6.43412e-05
6.30303e-05
1.43054e-05
-0.153907
-0.099427
-0.0422069
-0.0134122
-0.0046012
-0.00118653
0.000637944
0.000972586
0.000580459
0.000224699
-0.203757
-0.115952
-0.0462507
-0.0109077
-0.000802089
0.00193831
0.00259449
0.00206351
0.00110901
0.000454962
-0.271177
-0.122832
-0.0487228
-0.00628229
0.00398523
0.00567656
0.00467867
0.00315983
0.00161942
0.000713853
-0.338754
-0.12637
-0.0506137
-0.00148448
0.00647012
0.00767248
0.00556725
0.00362147
0.00179393
0.000875741
-0.345159
-0.121543
-0.0485054
0.000833653
0.00740916
0.00825796
0.00580138
0.00373347
0.00183505
0.00091237
-0.337521
-0.113154
-0.0447709
0.0033733
0.00831565
0.00876093
0.00599238
0.00382364
0.00187041
0.000941305
-0.329211
-0.106878
-0.0417961
0.00546402
0.00907782
0.00919983
0.00616145
0.0039055
0.00190342
0.000967819
-0.322004
-0.102085
-0.0393641
0.00725339
0.0097372
0.00958897
0.00631029
0.00397795
0.00193255
0.0009918
-0.315268
-0.0979531
-0.0371807
0.00881814
0.0103071
0.00992473
0.00643648
0.00403925
0.00195725
0.00101249
-0.309223
-0.0944485
-0.0352824
0.0101249
0.0107774
0.0102002
0.00653821
0.00408862
0.00197741
0.0010295
-0.304338
-0.0917126
-0.0337762
0.0111324
0.0111378
0.0104106
0.00661462
0.00412571
0.00199304
0.00104262
-0.300929
-0.0898383
-0.032735
0.0118159
0.0113815
0.0105526
0.00666567
0.00415065
0.00200352
0.0010516
-0.299181
-0.088886
-0.0322034
0.0121612
0.011504
0.0106235
0.00669164
0.00416382
0.00200838
0.00105625
)
;

boundaryField
{
    inlet
    {
        type            zeroGradient;
    }
    outlet
    {
        type            fixedValue;
        value           uniform 0;
    }
    cylinder
    {
        type            zeroGradient;
    }
    top
    {
        type            symmetryPlane;
    }
    bottom
    {
        type            symmetryPlane;
    }
    defaultFaces
    {
        type            empty;
    }
}


// ************************************************************************* //
