/*--------------------------------*- C++ -*----------------------------------*\
  =========                 |
  \\      /  F ield         | OpenFOAM: The Open Source CFD Toolbox
   \\    /   O peration     | Website:  https://openfoam.org
    \\  /    A nd           | Version:  6.0
     \\/     M anipulation  |
\*---------------------------------------------------------------------------*/
FoamFile
{
    version     2.0;
    format      ascii;
    class       volVectorField;
    location    "5";
    object      U;
}
// * * * * * * * * * * * * * * * * * * * * * * * * * * * * * * * * * * * * * //

dimensions      [0 1 -1 0 0 0 0];

internalField   nonuniform List<vector> 
2000
(
(-0.00211954 0.00184847 6.28657e-20)
(-0.00793459 0.00342597 7.45414e-20)
(-0.0156679 0.00369116 -7.09933e-20)
(-0.0224062 0.00321444 -1.44621e-19)
(-0.0271682 0.00232851 -1.00821e-19)
(-0.0298062 0.00125042 1.34163e-19)
(-0.0304344 0.000136485 7.78588e-20)
(-0.0293674 -0.000897543 -3.15894e-20)
(-0.0271077 -0.00176259 -7.84748e-20)
(-0.023921 -0.00238601 5.70789e-20)
(-0.00262555 0.00537935 -1.55827e-19)
(-0.00862588 0.00990584 2.1479e-19)
(-0.0158745 0.0105965 2.11689e-20)
(-0.0217484 0.00911874 -1.24064e-19)
(-0.0254168 0.00644726 5.93068e-19)
(-0.0268139 0.00321715 -2.60653e-19)
(-0.0261048 -0.000113265 -2.81287e-19)
(-0.0236324 -0.0032 3.38901e-19)
(-0.0199181 -0.00577588 -3.32988e-19)
(-0.0153153 -0.007618 1.68619e-19)
(-0.00357591 0.00857745 2.59108e-20)
(-0.00985147 0.0156301 9.27504e-21)
(-0.0160628 0.0165499 6.43074e-19)
(-0.0201659 0.0140085 2.25156e-19)
(-0.0216282 0.00955948 4.4523e-20)
(-0.0205458 0.00421325 3.68367e-19)
(-0.017184 -0.00129812 -6.98894e-19)
(-0.0119377 -0.00641133 1.50528e-20)
(-0.00536316 -0.0106689 -4.12363e-19)
(0.00200323 -0.0136959 4.51185e-19)
(-0.00484939 0.0112362 -4.87315e-20)
(-0.0112981 0.0201385 2.79605e-19)
(-0.0157798 0.0209931 -8.14295e-19)
(-0.0171128 0.0173215 -1.04983e-19)
(-0.015208 0.0111518 -5.9777e-19)
(-0.0104013 0.00379432 6.1857e-19)
(-0.00310286 -0.00379806 -6.55549e-19)
(0.00622275 -0.0108638 4.59873e-19)
(0.0169758 -0.0167392 1.93028e-19)
(0.0283276 -0.020896 -2.16389e-19)
(-0.00625931 0.0131671 -5.42042e-19)
(-0.0124824 0.0230275 5.13902e-21)
(-0.0143209 0.0234718 1.00313e-18)
(-0.0117319 0.0186556 3.00086e-19)
(-0.00520981 0.0109358 -9.54771e-19)
(0.00459387 0.00181465 5.93682e-19)
(0.01708 -0.00762029 6.71267e-19)
(0.031705 -0.016456 -5.98067e-19)
(0.0478326 -0.0238118 4.26321e-19)
(0.064218 -0.0290101 1.0509e-19)
(-0.00754627 0.0142011 7.41283e-20)
(-0.012738 0.023965 1.36327e-20)
(-0.0107136 0.0236621 -1.28264e-18)
(-0.00282749 0.0178074 -7.1718e-19)
(0.00971074 0.00890922 8.55231e-19)
(0.0258554 -0.00147638 -1.00104e-18)
(0.0447677 -0.0122533 1.14669e-18)
(0.0658185 -0.0224511 -9.90786e-20)
(0.0883716 -0.0309944 -3.22341e-19)
(0.110638 -0.0370818 -9.34657e-19)
(-0.008371 0.0141915 -1.60873e-19)
(-0.0112121 0.0227034 -2.93569e-19)
(-0.00371914 0.0213846 -3.60713e-19)
(0.0111367 0.014782 7.69743e-19)
(0.0313162 0.00536397 1.42794e-18)
(0.055296 -0.0054091 -2.95151e-19)
(0.0819255 -0.0166 -7.17129e-19)
(0.110465 -0.0273564 2.1882e-19)
(0.140356 -0.0365149 -1.37866e-18)
(0.169184 -0.0432216 1.50862e-18)
(-0.00831374 0.0130256 9.83496e-19)
(-0.0068867 0.0191015 -5.36227e-19)
(0.00811726 0.0166109 1.04775e-18)
(0.0319676 0.00976713 -1.71237e-18)
(0.061712 0.000828704 -8.18682e-19)
(0.0952613 -0.00895794 -1.13453e-18)
(0.131041 -0.0189871 3.30095e-19)
(0.168114 -0.028782 -9.18466e-19)
(0.20613 -0.0373148 2.00131e-18)
(0.242147 -0.0438922 5.57654e-19)
(-0.00689078 0.0106504 7.13746e-20)
(0.00135808 0.0131611 8.73203e-19)
(0.0263543 0.00946609 1.73561e-18)
(0.0615918 0.00306548 5.31378e-19)
(0.103177 -0.00409344 1.57285e-18)
(0.148364 -0.0109645 8.60601e-20)
(0.194967 -0.0172618 -1.09286e-21)
(0.241588 -0.0229373 6.35668e-19)
(0.288088 -0.0272456 5.17213e-19)
(0.331558 -0.0306613 -1.66905e-18)
(-0.00360291 0.00711242 -5.80576e-19)
(0.0146155 0.00507867 -9.73049e-19)
(0.0524541 0.000222228 -1.41683e-18)
(0.10182 -0.00506944 3.26828e-20)
(0.158019 -0.0092176 -7.23726e-19)
(0.217752 -0.0111973 1.14165e-18)
(0.278245 -0.0105999 -3.14622e-18)
(0.33734 -0.0070998 1.41487e-18)
(0.394139 2.72512e-05 5.34127e-19)
(0.445495 0.00667601 1.67123e-18)
(0.0019712 0.00261088 2.9063e-19)
(0.0337177 -0.0046687 -1.11067e-18)
(0.0873459 -0.0106257 9.92879e-19)
(0.153562 -0.0144796 -3.85983e-19)
(0.227251 -0.0152624 4.19998e-19)
(0.305191 -0.0120323 9.14993e-19)
(0.385258 -0.00401224 -1.22857e-18)
(0.466697 0.00982556 1.59214e-19)
(0.550034 0.0290015 -5.88075e-19)
(0.636732 0.0440455 1.16266e-18)
(0.0100865 -0.00246014 4.14161e-19)
(0.0590304 -0.015182 -1.00477e-18)
(0.130999 -0.0220002 1.37249e-18)
(0.215772 -0.0243129 -8.56372e-19)
(0.30782 -0.0223019 -3.14466e-19)
(0.403776 -0.0158307 1.86274e-19)
(0.501497 -0.00495683 9.75698e-20)
(0.600044 0.0101075 1.30351e-18)
(0.698676 0.0269545 3.74695e-19)
(0.794578 0.037453 1.57588e-18)
(0.0208467 -0.00753474 -3.68599e-19)
(0.0905729 -0.0250911 1.29675e-18)
(0.182912 -0.0319091 -1.08603e-18)
(0.286944 -0.0319197 -1.27728e-18)
(0.396631 -0.0266887 1.78714e-18)
(0.50815 -0.0170225 -1.35941e-18)
(0.618786 -0.00382385 3.59056e-19)
(0.726679 0.01189 -2.11703e-18)
(0.829791 0.0277056 1.58372e-18)
(0.923878 0.0387213 7.76543e-20)
(0.0342527 -0.0119878 -4.78931e-19)
(0.128117 -0.0328485 -4.64922e-19)
(0.242344 -0.0380949 -9.93062e-19)
(0.365604 -0.034376 1.20394e-18)
(0.491413 -0.0247229 -6.09688e-20)
(0.615499 -0.0108567 7.80793e-19)
(0.734667 0.00563949 1.42236e-18)
(0.84648 0.0233439 -4.37062e-19)
(0.94845 0.0403738 -1.53092e-18)
(1.03648 0.05404 3.03589e-18)
(0.0502234 -0.0152137 -2.46714e-19)
(0.17118 -0.0369714 -2.94892e-19)
(0.308219 -0.0385003 5.34665e-19)
(0.450001 -0.0292542 -9.95846e-19)
(0.589823 -0.0137499 1.69991e-19)
(0.723218 0.00542745 1.5184e-19)
(0.846893 0.0261404 6.53597e-20)
(0.958418 0.0467461 -1.24157e-20)
(1.05561 0.0659085 -1.64863e-19)
(1.13514 0.0822418 -2.56919e-18)
(0.0685805 -0.016651 1.00203e-18)
(0.218973 -0.0361555 -6.99905e-19)
(0.379023 -0.0314672 8.76618e-21)
(0.537888 -0.0148423 -1.07421e-18)
(0.689031 0.00775495 -3.85569e-19)
(0.828191 0.0329628 3.60796e-19)
(0.95247 0.0582221 2.79316e-19)
(1.06002 0.0818057 -9.96472e-19)
(1.14949 0.10289 8.11062e-19)
(1.21869 0.12083 -1.06408e-18)
(0.0890198 -0.0157896 4.31103e-19)
(0.270376 -0.0293329 -3.84322e-19)
(0.452786 -0.015828 1.6044e-18)
(0.626546 0.00978857 1.64909e-19)
(0.785796 0.040235 3.77194e-19)
(0.927001 0.0715341 1.68522e-18)
(1.04819 0.100899 -2.57688e-19)
(1.1486 0.126703 2.34204e-19)
(1.2281 0.148672 9.58281e-20)
(1.28587 0.166606 -1.19811e-19)
(0.111085 -0.0121837 3.00226e-19)
(0.32393 -0.0157161 7.26306e-19)
(0.527145 0.00905283 -7.82278e-19)
(0.71293 0.0448051 -2.66297e-19)
(0.876727 0.0832055 -3.29217e-19)
(1.0163 0.119934 5.08574e-19)
(1.13113 0.152258 -2.64823e-19)
(1.22194 0.178902 7.12981e-19)
(1.29004 0.200248 2.39791e-19)
(1.33608 0.216408 -3.91338e-19)
(0.134156 -0.00547935 -3.2383e-19)
(0.377875 0.00515121 2.88783e-19)
(0.599466 0.0432549 -6.18512e-19)
(0.793888 0.0896642 2.6764e-19)
(0.958569 0.135426 -2.78263e-19)
(1.09316 0.176271 -3.47918e-19)
(1.19901 0.209889 -2.79974e-19)
(1.2786 0.235647 3.13109e-19)
(1.33476 0.254709 -5.91375e-19)
(1.36958 0.267469 3.58318e-19)
(0.157463 0.00454809 -1.15135e-19)
(0.430226 0.0333402 -2.26521e-19)
(0.667001 0.0862879 1.07992e-19)
(0.866381 0.14318 6.501e-21)
(1.02846 0.195062 9.01595e-20)
(1.15528 0.238225 1.2412e-19)
(1.25037 0.271189 1.15482e-19)
(1.31804 0.294255 -1.53047e-19)
(1.36255 0.309477 1.30909e-19)
(1.38728 0.317535 -2.05425e-19)
(0.180113 0.0179547 -6.66174e-20)
(0.478879 0.0684893 -2.50301e-20)
(0.727063 0.137096 1.00615e-19)
(0.9277 0.203608 -4.61427e-20)
(1.08415 0.25985 1.24112e-19)
(1.20117 0.30325 -1.60447e-19)
(1.28459 0.333569 3.71305e-20)
(1.34049 0.352278 3.98025e-20)
(1.37435 0.362386 -1.69333e-20)
(1.3906 0.364864 6.393e-20)
(0.201141 0.0345945 -7.16809e-20)
(0.521737 0.109779 -3.27056e-19)
(0.7772 0.194091 -2.31893e-20)
(0.975634 0.268746 6.95234e-21)
(1.12405 0.327246 -4.30716e-19)
(1.23011 0.368739 5.64995e-20)
(1.30184 0.394585 -4.8494e-20)
(1.34687 0.407584 -1.1844e-19)
(1.37157 0.411683 2.49679e-19)
(1.38119 0.408136 -4.57291e-19)
(0.219559 0.0540972 -3.47767e-20)
(0.556845 0.155934 6.63823e-19)
(0.815353 0.255216 1.07354e-19)
(1.00859 0.336058 -5.87722e-19)
(1.14737 0.39457 -4.80504e-20)
(1.24215 0.432153 -5.71233e-19)
(1.30295 0.452022 4.21378e-19)
(1.33854 0.458359 -1.55174e-19)
(1.35592 0.455968 2.76556e-19)
(1.36083 0.446362 -2.08664e-19)
(0.234428 0.0758611 -2.19723e-19)
(0.582525 0.205261 2.13552e-19)
(0.839985 0.318044 -1.54223e-19)
(1.02567 0.402801 1.16006e-18)
(1.15403 0.459132 5.76792e-19)
(1.23803 0.491105 -1.35073e-19)
(1.28923 0.50392 4.60792e-19)
(1.31721 0.503085 -3.04296e-19)
(1.32923 0.494121 -8.76361e-20)
(1.33127 0.47877 5.7896e-19)
(0.244918 0.0990635 -3.82224e-19)
(0.597488 0.255718 4.92357e-19)
(0.850164 0.379895 -9.72086e-19)
(1.02666 0.466164 1.3865e-19)
(1.14462 0.51834 3.14785e-19)
(1.219 0.54342 -4.74303e-19)
(1.26241 0.548579 -5.77203e-19)
(1.2848 0.540495 2.60116e-19)
(1.2934 0.525224 -3.18935e-19)
(1.29429 0.504728 4.10015e-19)
(0.250372 0.122688 -9.62651e-20)
(0.600919 0.305014 -5.02004e-19)
(0.845604 0.437974 2.75896e-19)
(1.01204 0.523388 4.79624e-19)
(1.12032 0.569787 -2.85543e-19)
(1.18676 0.587164 -2.19337e-19)
(1.22445 0.58453 -1.49316e-19)
(1.24331 0.569506 -7.25717e-20)
(1.25036 0.548474 5.95131e-21)
(1.25158 0.523647 1.96453e-19)
(0.250356 0.145571 7.60021e-20)
(0.592544 0.350728 -4.39652e-19)
(0.826663 0.489522 7.39665e-19)
(0.98287 0.571902 -4.35199e-19)
(1.08276 0.611327 1.40788e-19)
(1.14329 0.620667 -1.93985e-19)
(1.17747 0.610523 2.10714e-19)
(1.19482 0.589168 7.15565e-20)
(1.20198 0.563088 6.50462e-21)
(1.20479 0.534839 -2.96256e-21)
(0.244711 0.166463 -2.03845e-19)
(0.572649 0.390457 4.05508e-19)
(0.794308 0.53196 -1.41511e-20)
(0.940706 0.609433 -9.78729e-20)
(1.0339 0.641152 -2.15898e-19)
(1.09075 0.642571 3.5357e-20)
(1.1237 0.625563 -1.22185e-20)
(1.14152 0.598726 -9.70611e-20)
(1.15039 0.568356 1.0621e-19)
(1.15597 0.537513 1.16851e-19)
(0.233577 0.184117 9.01672e-20)
(0.542079 0.421966 -9.86016e-20)
(0.750023 0.563043 -9.02922e-21)
(0.887444 0.634095 1.04795e-19)
(0.975811 0.657785 -1.28368e-20)
(1.03129 0.651734 -9.38772e-20)
(1.06534 0.628754 -2.49116e-19)
(1.08584 0.597462 -1.09147e-19)
(1.09853 0.56364 -1.43373e-19)
(1.10847 0.531068 1.11918e-19)
(0.217418 0.197384 6.14256e-20)
(0.502196 0.443364 -1.22576e-19)
(0.69571 0.581016 1.2123e-19)
(0.825139 0.644509 -2.58262e-19)
(0.910382 0.660107 5.9384e-20)
(0.966434 0.646994 4.57589e-19)
(1.00364 0.618508 -1.41553e-19)
(1.0291 0.582987 1.61204e-19)
(1.0482 0.545592 2.44674e-19)
(1.06415 0.512032 8.99514e-19)
(0.197018 0.205337 6.20522e-19)
(0.454842 0.45329 -4.12892e-19)
(0.63364 0.584849 1.02694e-18)
(0.755965 0.640176 -1.74771e-19)
(0.839204 0.648062 8.96453e-19)
(0.896731 0.628378 5.63393e-19)
(0.937705 0.594194 -1.31986e-18)
(0.968622 0.552605 2.01805e-18)
(0.994141 0.506013 -4.29226e-19)
(1.01059 0.458655 8.53557e-19)
(0.173445 0.207335 -3.45647e-19)
(0.402294 0.450963 -2.54135e-19)
(0.56654 0.574244 2.55601e-19)
(0.682596 0.621586 -6.03621e-19)
(0.764477 0.623285 -1.89042e-18)
(0.823446 0.599436 -7.66189e-19)
(0.867253 0.562899 -6.8373e-19)
(0.901433 0.520841 3.37516e-19)
(0.929178 0.476763 2.78326e-18)
(0.946356 0.435625 -5.77008e-19)
(0.147966 0.203012 1.89077e-19)
(0.347143 0.436041 -7.7331e-19)
(0.497552 0.54919 1.68605e-19)
(0.608451 0.58904 -1.22944e-18)
(0.690013 0.586228 2.68383e-18)
(0.751234 0.560444 -3.14493e-19)
(0.798407 0.523979 1.46917e-18)
(0.836075 0.483642 -2.09836e-18)
(0.866802 0.442929 6.61149e-19)
(0.887873 0.406129 1.03164e-19)
(0.121919 0.192267 1.40137e-19)
(0.292013 0.408612 8.49641e-19)
(0.429724 0.509994 -2.5086e-18)
(0.536626 0.542916 1.21704e-18)
(0.618859 0.537099 -1.05779e-21)
(0.683144 0.511158 -4.11297e-19)
(0.734396 0.476464 5.21758e-19)
(0.77631 0.439234 -5.14473e-19)
(0.811096 0.402614 -1.76477e-18)
(0.836996 0.369862 -4.86615e-19)
(0.0966283 0.175262 4.64151e-19)
(0.239421 0.369204 5.20541e-19)
(0.36588 0.457393 2.14485e-18)
(0.469842 0.483965 -1.19439e-18)
(0.553452 0.476495 2.46092e-18)
(0.62125 0.451884 -5.29251e-19)
(0.676874 0.42026 -5.57762e-19)
(0.723283 0.387076 6.60491e-19)
(0.76241 0.355009 4.30344e-19)
(0.793206 0.3264 1.55797e-18)
(0.07335 0.152419 -4.73871e-19)
(0.191686 0.318779 1.55682e-19)
(0.308549 0.392566 4.2756e-20)
(0.410461 0.413358 1.22156e-18)
(0.495832 0.40544 -3.04786e-18)
(0.567207 0.383443 5.18946e-19)
(0.627088 0.355987 1.14079e-18)
(0.677797 0.327646 -1.37835e-18)
(0.721036 0.300582 4.85206e-19)
(0.756387 0.276393 -2.25118e-18)
(0.0532199 0.124403 1.01232e-19)
(0.150855 0.258711 5.45142e-19)
(0.259925 0.31711 2.11912e-19)
(0.360485 0.332649 2.87562e-19)
(0.447687 0.325328 5.49513e-19)
(0.522354 0.307031 1.63296e-18)
(0.586035 0.284667 -1.99763e-18)
(0.640514 0.261855 -1.12319e-18)
(0.687327 0.240245 1.85884e-19)
(0.726621 0.220864 1.46258e-18)
(0.0372102 0.0921024 -6.12843e-19)
(0.11865 0.190731 -7.22971e-20)
(0.221817 0.232983 -6.08609e-19)
(0.321545 0.243725 8.68983e-20)
(0.410372 0.237855 -5.20117e-19)
(0.487762 0.224134 -5.93711e-19)
(0.554515 0.207607 -8.84052e-19)
(0.612004 0.190889 2.37862e-18)
(0.661647 0.175135 4.09313e-19)
(0.704074 0.160955 -6.24288e-19)
(0.0260902 0.0565955 3.30641e-19)
(0.0964107 0.116874 4.3646e-19)
(0.195619 0.142442 1.71211e-19)
(0.294883 0.14874 -9.26098e-19)
(0.384916 0.144957 -4.30669e-19)
(0.464242 0.136459 -9.28202e-20)
(0.533147 0.126318 1.80897e-19)
(0.592725 0.116113 1.45295e-19)
(0.644325 0.106527 -1.11998e-18)
(0.688923 0.0978763 6.42865e-19)
(0.0203929 0.0191043 -1.72237e-19)
(0.0850558 0.0393965 -1.95655e-19)
(0.182278 0.0479619 1.55729e-19)
(0.281338 0.0500396 1.38163e-19)
(0.372011 0.0487358 1.41545e-19)
(0.452342 0.045859 2.16151e-19)
(0.522354 0.0424399 -1.15181e-20)
(0.583001 0.0390078 -2.83013e-19)
(0.635598 0.0357888 2.68301e-19)
(0.681308 0.0328794 -4.03519e-19)
(0.0203913 -0.0190588 -1.73334e-19)
(0.0850526 -0.0393036 -1.86384e-19)
(0.182274 -0.0478461 1.71646e-19)
(0.281334 -0.0499123 3.35712e-19)
(0.372007 -0.0486037 2.23381e-19)
(0.452338 -0.0457262 -2.94201e-19)
(0.52235 -0.0423092 -1.59497e-19)
(0.582997 -0.0388807 6.97191e-20)
(0.635595 -0.0356657 1.56215e-19)
(0.681305 -0.0327597 -9.29569e-20)
(0.0260852 -0.0565507 4.13406e-19)
(0.0964012 -0.116782 -5.24606e-19)
(0.195607 -0.142327 -4.34065e-20)
(0.294871 -0.148614 2.90316e-19)
(0.384904 -0.144825 -1.31078e-18)
(0.464231 -0.136327 5.59548e-19)
(0.533136 -0.126188 5.76681e-19)
(0.592715 -0.115986 -6.80282e-19)
(0.644314 -0.106405 6.48967e-19)
(0.688914 -0.0977571 -2.85292e-19)
(0.0372021 -0.0920589 -7.15258e-20)
(0.118635 -0.190642 -8.87634e-21)
(0.221799 -0.232871 -1.41399e-18)
(0.321526 -0.243601 -4.48638e-19)
(0.410352 -0.237726 -4.61789e-20)
(0.487743 -0.224004 -7.37629e-19)
(0.554496 -0.207479 1.37336e-18)
(0.611987 -0.190764 -4.8791e-20)
(0.66163 -0.175013 7.83057e-19)
(0.704058 -0.160837 -6.87154e-19)
(0.053209 -0.124361 1.20588e-19)
(0.150834 -0.258625 -5.55716e-19)
(0.2599 -0.317001 1.71189e-18)
(0.360459 -0.332528 2.42612e-19)
(0.44766 -0.325202 1.18861e-18)
(0.522328 -0.306903 -1.1599e-18)
(0.586009 -0.28454 1.21698e-18)
(0.64049 -0.261732 -8.77901e-19)
(0.687303 -0.240125 -3.85957e-19)
(0.726599 -0.220747 3.2645e-19)
(0.0733367 -0.15238 1.07216e-18)
(0.19166 -0.318698 2.92925e-21)
(0.308518 -0.392463 -1.79741e-18)
(0.410428 -0.413242 -5.20557e-19)
(0.495799 -0.405318 1.73102e-18)
(0.567174 -0.383319 -1.01258e-18)
(0.627057 -0.355863 -1.17189e-18)
(0.677767 -0.327524 1.05455e-18)
(0.721006 -0.300464 -7.16522e-19)
(0.756358 -0.276278 -1.54695e-19)
(0.0966129 -0.175226 -1.6034e-19)
(0.239391 -0.369127 -7.08424e-21)
(0.365843 -0.457295 1.94167e-18)
(0.469803 -0.483854 1.11367e-18)
(0.553413 -0.476377 -1.31225e-18)
(0.621211 -0.451763 1.59014e-18)
(0.676836 -0.420139 -1.72088e-18)
(0.723247 -0.386957 1.72434e-19)
(0.762374 -0.354893 5.1341e-19)
(0.793171 -0.326286 1.18364e-18)
(0.121902 -0.192234 1.80466e-19)
(0.291979 -0.408542 2.88644e-19)
(0.429684 -0.509902 3.11585e-19)
(0.536583 -0.542811 -1.02085e-18)
(0.618814 -0.536986 -1.81398e-18)
(0.6831 -0.511042 3.82464e-19)
(0.734352 -0.476347 1.11176e-18)
(0.776268 -0.439118 -3.17551e-19)
(0.811054 -0.402501 1.90491e-18)
(0.836955 -0.36975 -1.85934e-18)
(0.147948 -0.202982 -1.01822e-18)
(0.347106 -0.435977 3.83648e-19)
(0.497508 -0.549105 -1.05286e-18)
(0.608403 -0.588942 1.7003e-18)
(0.689964 -0.586122 8.51254e-19)
(0.751185 -0.560333 1.20222e-18)
(0.798358 -0.523867 -2.74835e-19)
(0.836027 -0.483531 1.09939e-18)
(0.866754 -0.442819 -2.32393e-18)
(0.887826 -0.406019 -6.07046e-19)
(0.173427 -0.207309 6.5313e-20)
(0.402256 -0.450905 -6.73769e-19)
(0.566494 -0.574167 -1.05953e-18)
(0.682546 -0.621495 -4.58374e-19)
(0.764424 -0.623185 -1.29153e-18)
(0.823392 -0.599331 -1.35106e-19)
(0.867199 -0.562792 1.18472e-19)
(0.90138 -0.520734 -5.02395e-19)
(0.929124 -0.476657 -5.68353e-19)
(0.946304 -0.435519 1.49492e-18)
(0.196999 -0.205315 3.10246e-19)
(0.454803 -0.45324 4.23099e-19)
(0.633592 -0.58478 7.71284e-19)
(0.755912 -0.640094 3.86344e-20)
(0.839147 -0.64797 5.25073e-19)
(0.896673 -0.62828 -7.105e-19)
(0.937647 -0.594093 2.18397e-18)
(0.968563 -0.552502 -9.6153e-19)
(0.994079 -0.505911 -4.78127e-19)
(1.01054 -0.458556 -1.44783e-18)
(0.217399 -0.197365 -1.18836e-19)
(0.502158 -0.443321 1.80275e-19)
(0.695662 -0.580955 -1.9071e-19)
(0.825084 -0.644435 1.09956e-19)
(0.910323 -0.660024 -1.3166e-19)
(0.966373 -0.646904 -3.45478e-19)
(1.00358 -0.618414 4.53079e-19)
(1.02904 -0.58289 -1.60365e-19)
(1.04814 -0.545492 2.31328e-19)
(1.06408 -0.511937 -5.12041e-19)
(0.233559 -0.184101 1.17149e-20)
(0.542041 -0.421929 -1.56972e-19)
(0.749975 -0.56299 9.11928e-20)
(0.887389 -0.63403 1.01721e-19)
(0.97575 -0.65771 -8.23207e-20)
(1.03123 -0.651652 2.74e-20)
(1.06528 -0.628667 -1.19583e-20)
(1.08577 -0.597372 -3.18254e-19)
(1.09846 -0.563546 -1.59584e-19)
(1.1084 -0.530973 -4.78793e-19)
(0.244694 -0.16645 -1.13842e-19)
(0.572613 -0.390427 4.05708e-19)
(0.794261 -0.531916 -2.68252e-19)
(0.94065 -0.609376 -1.43006e-19)
(1.03384 -0.641086 1.26921e-19)
(1.09068 -0.642498 1.29966e-21)
(1.12363 -0.625485 1.15282e-20)
(1.14145 -0.598645 1.86216e-19)
(1.15032 -0.568271 -1.73978e-19)
(1.1559 -0.537426 7.44261e-22)
(0.250341 -0.14556 -2.60639e-19)
(0.592509 -0.350704 -1.72439e-19)
(0.826618 -0.489484 -4.2255e-19)
(0.982816 -0.571853 4.84584e-19)
(1.0827 -0.61127 -3.42601e-20)
(1.14322 -0.620604 1.78116e-19)
(1.1774 -0.610455 2.29451e-19)
(1.19475 -0.589097 -7.92107e-20)
(1.20191 -0.563014 -2.72538e-20)
(1.20471 -0.534763 1.0339e-20)
(0.250357 -0.12268 -1.73769e-19)
(0.600887 -0.304994 -2.23378e-19)
(0.84556 -0.437944 3.43079e-19)
(1.01199 -0.523348 -5.25064e-19)
(1.12026 -0.569739 9.17668e-20)
(1.18669 -0.587109 4.98374e-20)
(1.22437 -0.584471 9.6952e-20)
(1.24323 -0.569444 -6.19316e-20)
(1.25028 -0.54841 -8.20841e-20)
(1.25149 -0.523581 -3.88166e-19)
(0.244905 -0.0990574 7.24529e-19)
(0.597458 -0.255703 -5.65509e-19)
(0.850123 -0.37987 2.53396e-20)
(1.02661 -0.466131 -7.37606e-19)
(1.14456 -0.5183 -2.18453e-19)
(1.21893 -0.543374 1.76772e-19)
(1.26233 -0.548529 1.311e-19)
(1.28472 -0.540443 -4.40724e-19)
(1.29332 -0.525171 2.13542e-19)
(1.2942 -0.504673 -3.70742e-19)
(0.234417 -0.0758566 3.56756e-19)
(0.582499 -0.205249 -3.5383e-19)
(0.839947 -0.318024 1.28187e-18)
(1.02562 -0.402775 1.04689e-19)
(1.15396 -0.459099 2.92395e-19)
(1.23796 -0.491067 1.06107e-18)
(1.28915 -0.50388 -2.15804e-19)
(1.31713 -0.503043 6.21115e-20)
(1.32914 -0.494079 -2.35354e-20)
(1.33118 -0.478727 -5.6646e-20)
(0.219549 -0.054094 2.73961e-19)
(0.556821 -0.155925 6.27278e-19)
(0.815318 -0.255201 -6.44059e-19)
(1.00854 -0.336037 -1.97971e-19)
(1.14731 -0.394544 -2.1152e-19)
(1.24208 -0.432124 4.1085e-19)
(1.30287 -0.451991 -1.95708e-19)
(1.33845 -0.458327 4.66168e-19)
(1.35583 -0.455936 1.16637e-19)
(1.36073 -0.44633 -2.04503e-19)
(0.201133 -0.0345923 -2.96287e-19)
(0.521716 -0.109772 2.76206e-19)
(0.777167 -0.194079 -5.69272e-19)
(0.975588 -0.26873 2.39323e-19)
(1.12399 -0.327227 -2.40672e-19)
(1.23003 -0.368717 -2.87601e-19)
(1.30176 -0.394563 -2.24663e-19)
(1.34678 -0.407562 2.4854e-19)
(1.37148 -0.411663 -4.36625e-19)
(1.38109 -0.408117 2.76776e-19)
(0.180107 -0.0179531 -1.10845e-19)
(0.478862 -0.0684846 -2.1889e-19)
(0.727033 -0.137087 1.03074e-19)
(0.927656 -0.203596 7.4496e-21)
(1.08409 -0.259836 8.26492e-20)
(1.20109 -0.303235 1.18907e-19)
(1.2845 -0.333554 1.02072e-19)
(1.3404 -0.352266 -1.37934e-19)
(1.37425 -0.362377 1.13502e-19)
(1.3905 -0.364856 -1.79935e-19)
(0.157459 -0.00454692 -7.00347e-20)
(0.430212 -0.0333366 -2.83191e-20)
(0.666975 -0.0862815 1.06309e-19)
(0.866339 -0.143172 -4.77823e-20)
(1.02841 -0.195053 1.34724e-19)
(1.15521 -0.238216 -1.70453e-19)
(1.25028 -0.271183 4.36409e-20)
(1.31794 -0.294251 3.7658e-20)
(1.36244 -0.309478 -1.37761e-20)
(1.38717 -0.31754 6.24266e-20)
(0.134154 0.00548047 -8.40247e-20)
(0.377865 -0.00514817 -3.58255e-19)
(0.599442 -0.0432499 -2.93527e-20)
(0.793847 -0.0896583 1.17188e-20)
(0.958511 -0.13542 -5.01221e-19)
(1.09308 -0.176268 5.28015e-20)
(1.19892 -0.20989 -5.61299e-20)
(1.2785 -0.235653 -1.53018e-19)
(1.33465 -0.254721 3.39418e-19)
(1.36946 -0.267484 -6.18476e-19)
(0.111085 0.0121851 -4.78411e-20)
(0.323923 0.0157192 7.69623e-19)
(0.527124 -0.00904867 1.03154e-19)
(0.712893 -0.0448012 -6.98252e-19)
(0.876671 -0.0832036 -8.38272e-20)
(1.01623 -0.119936 -7.91066e-19)
(1.13104 -0.152265 6.1553e-19)
(1.22183 -0.178916 -2.49911e-19)
(1.28992 -0.200269 4.73541e-19)
(1.33596 -0.216434 -4.17593e-19)
(0.0890218 0.0157916 -2.70505e-19)
(0.270372 0.0293366 3.17695e-19)
(0.452769 0.015832 -2.22263e-19)
(0.626511 -0.00978608 1.53597e-18)
(0.785741 -0.0402359 8.1491e-19)
(0.926926 -0.0715405 -2.13405e-19)
(1.0481 -0.100913 8.30782e-19)
(1.14849 -0.126724 -5.42682e-19)
(1.22798 -0.148702 -1.73855e-19)
(1.28574 -0.166643 1.26009e-18)
(0.0685845 0.0166539 -5.01391e-19)
(0.218973 0.0361604 7.51456e-19)
(0.37901 0.0314717 -1.42984e-18)
(0.537857 0.0148442 2.48103e-19)
(0.688978 -0.00775805 6.2042e-19)
(0.828116 -0.0329731 -7.78641e-19)
(0.952373 -0.0582415 -1.37968e-18)
(1.0599 -0.0818351 7.39115e-19)
(1.14936 -0.102929 -9.5755e-19)
(1.21856 -0.120877 1.53013e-18)
(0.0502291 0.0152176 -1.23772e-19)
(0.171183 0.0369781 -7.57264e-19)
(0.30821 0.0385062 3.73665e-19)
(0.449973 0.0292563 9.41006e-19)
(0.589774 0.0137456 -5.05373e-19)
(0.723145 -0.00544074 -4.99658e-19)
(0.846796 -0.0261649 -8.47212e-19)
(0.9583 -0.0467827 -3.85563e-19)
(1.05548 -0.0659567 -8.99969e-20)
(1.13501 -0.0822983 1.52473e-18)
(0.0342601 0.0119932 2.09307e-19)
(0.128124 0.0328577 -1.03137e-18)
(0.242339 0.0381032 1.7697e-18)
(0.365581 0.0343798 -9.85464e-19)
(0.491367 0.024719 6.41074e-19)
(0.615428 0.010842 -7.97301e-19)
(0.734571 -0.00566761 8.88216e-19)
(0.84636 -0.0233865 7.74023e-19)
(0.948313 -0.0404298 1.67611e-18)
(1.03634 -0.0541051 -2.76737e-18)
(0.0208555 0.00754196 -6.50144e-19)
(0.0905826 0.0251037 1.31003e-18)
(0.182911 0.0319213 1.8364e-20)
(0.286925 0.0319272 -4.72874e-19)
(0.396589 0.0266875 -2.50795e-19)
(0.508082 0.0170089 2.01107e-19)
(0.61869 0.00379474 -1.43026e-18)
(0.726558 -0.0119361 1.09782e-18)
(0.829651 -0.0277668 -1.41597e-18)
(0.923729 -0.0387926 -6.38361e-19)
(0.0100966 0.00246956 1.12189e-18)
(0.059043 0.0151993 -3.50016e-19)
(0.131001 0.0220182 -6.59911e-19)
(0.215756 0.0243267 1.79377e-18)
(0.307782 0.0223069 -1.76426e-18)
(0.40371 0.0158224 9.86206e-19)
(0.501402 0.00493148 1.04859e-18)
(0.599921 -0.0101518 2.85041e-19)
(0.698531 -0.0270157 2.9526e-19)
(0.794421 -0.0375255 -4.14802e-19)
(0.00198236 -0.00259873 -1.07481e-18)
(0.0337331 0.0046921 1.02391e-18)
(0.0873517 0.010652 -9.07162e-19)
(0.15355 0.0145032 1.14051e-18)
(0.227216 0.0152781 -3.40765e-19)
(0.305127 0.0120351 -1.18514e-18)
(0.385162 0.00399795 3.40265e-19)
(0.46657 -0.00985914 -5.5648e-19)
(0.549879 -0.0290525 -6.54762e-19)
(0.63656 -0.0441109 -2.02507e-18)
(-0.00359072 -0.00709691 -1.34718e-18)
(0.0146335 -0.00504757 1.0716e-18)
(0.0524635 -0.000185071 -2.10216e-18)
(0.101813 0.00510638 3.76418e-19)
(0.157988 0.00924872 -1.45945e-18)
(0.217691 0.0112176 -8.76851e-19)
(0.27815 0.0106053 2.10012e-18)
(0.33721 0.00708902 -2.87291e-18)
(0.393977 -5.35923e-05 5.5244e-19)
(0.445297 -0.0067141 -9.15435e-19)
(-0.0068777 -0.0106308 6.6397e-19)
(0.0013785 -0.0131206 2.81702e-19)
(0.0263672 -0.00941573 -8.44537e-20)
(0.0615887 -0.00301217 7.99636e-19)
(0.103151 0.00414366 2.3511e-18)
(0.148309 0.0110064 8.12204e-19)
(0.194879 0.0172915 8.40672e-19)
(0.241464 0.022953 -2.89805e-19)
(0.287932 0.0272482 -2.71879e-18)
(0.33137 0.0306519 6.87417e-19)
(-0.00830002 -0.0130014 -1.87994e-19)
(-0.00686435 -0.0190503 5.98835e-19)
(0.00813316 -0.0165455 -1.56827e-19)
(0.0319686 -0.00969533 1.10696e-18)
(0.0616915 -0.000757181 -2.55995e-18)
(0.0952136 0.00902359 2.17322e-19)
(0.130962 0.0190423 -1.21869e-18)
(0.168001 0.0288244 1.79537e-18)
(0.205985 0.0373447 -5.23605e-19)
(0.241969 0.0439086 -7.35501e-20)
(-0.00835705 -0.0141621 -1.2807e-19)
(-0.0111887 -0.0226405 -7.19728e-19)
(-0.00370115 -0.021303 1.81001e-18)
(0.0111411 -0.0146906 -9.54246e-19)
(0.0313009 -0.00527014 6.72301e-20)
(0.0552558 0.00549915 3.062e-19)
(0.0818566 0.0166812 -2.78734e-19)
(0.110364 0.0274254 3.63403e-19)
(0.140225 0.0365715 1.25889e-18)
(0.169021 0.0432636 3.23645e-19)
(-0.00753268 -0.0141663 -2.87719e-19)
(-0.0127148 -0.0238901 -3.19527e-19)
(-0.0106948 -0.0235641 -1.41734e-18)
(-0.00282072 -0.0176964 7.54388e-19)
(0.00969998 -0.00879319 -1.55529e-18)
(0.0258225 0.00159049 3.53525e-19)
(0.0447092 0.0123599 3.97533e-19)
(0.0657313 0.0225462 -4.18608e-19)
(0.0882567 0.0310773 -2.70176e-19)
(0.110493 0.0371491 -1.21105e-18)
(-0.0062468 -0.013127 2.24783e-19)
(-0.0124607 -0.0229408 -5.3081e-20)
(-0.0143028 -0.023358 1.11104e-21)
(-0.0117239 -0.0185258 -6.8018e-19)
(-0.00521681 -0.0107988 1.72183e-18)
(0.00456794 -0.00167796 -2.68349e-19)
(0.0170319 0.00775054 -6.68696e-19)
(0.0316322 0.0165753 8.1828e-19)
(0.0477355 0.0239191 -2.86458e-19)
(0.0640944 0.0291015 1.57823e-18)
(-0.00483868 -0.0111912 -4.21877e-20)
(-0.0112793 -0.0200411 -2.46848e-19)
(-0.0157636 -0.0208652 -9.72107e-20)
(-0.0171047 -0.0171751 -1.24273e-19)
(-0.015212 -0.0109964 -2.67015e-19)
(-0.0104207 -0.00363786 -8.36879e-19)
(-0.00314027 0.00394902 1.04573e-18)
(0.00616517 0.0110043 6.09255e-19)
(0.0168981 0.0168681 -1.1015e-19)
(0.0282279 0.0210087 -9.66409e-19)
(-0.0035675 -0.00852835 2.3962e-19)
(-0.00983657 -0.0155241 4.1767e-20)
(-0.0160498 -0.0164106 2.82712e-19)
(-0.0201587 -0.0138487 -3.19855e-20)
(-0.0216297 -0.00938933 2.5715e-19)
(-0.0205586 -0.00404098 2.89546e-19)
(-0.0172102 0.0014657 4.32483e-19)
(-0.0119789 0.00656889 -1.22446e-18)
(-0.00541937 0.0108152 -2.25321e-19)
(0.00193047 0.0138257 4.03332e-19)
(-0.00262012 -0.0053276 -1.21027e-19)
(-0.00861621 -0.0097938 -1.71618e-19)
(-0.0158655 -0.0104494 -8.22835e-20)
(-0.0217428 -0.00894993 4.03024e-19)
(-0.0254162 -0.00626691 1.95426e-19)
(-0.0268201 -0.0030339 4.00181e-20)
(-0.0261191 0.000292439 -8.67319e-20)
(-0.0236559 0.00336962 -6.69391e-20)
(-0.0199511 0.00593446 5.73506e-19)
(-0.0153586 0.0077597 -3.9025e-19)
(-0.00211759 -0.00179542 6.16738e-20)
(-0.00793099 -0.00331106 7.66257e-20)
(-0.0156647 -0.00354029 -6.52262e-20)
(-0.0224039 -0.00304106 -5.96158e-20)
(-0.0271673 -0.00214316 -6.17696e-20)
(-0.0298075 -0.00106172 -9.82508e-20)
(-0.0304382 4.86882e-05 3.314e-21)
(-0.0293743 0.00107338 1.35939e-19)
(-0.0271176 0.00192767 -1.35972e-19)
(-0.023935 0.00253431 2.46621e-19)
(0.0223864 -0.00549279 1.66518e-20)
(0.179212 -0.0102592 5.35644e-21)
(0.464257 -0.010092 -1.56353e-22)
(0.644909 -0.00704786 -6.23547e-23)
(0.788276 -0.0048721 2.51734e-23)
(0.87662 -0.00295116 -1.1971e-22)
(0.931243 -0.00175144 -2.65539e-22)
(0.963375 -0.000957794 9.28569e-23)
(0.979561 -0.000527769 -8.36795e-24)
(0.991494 -0.000210484 1.22162e-22)
(0.0426515 -0.0167374 2.9921e-20)
(0.195496 -0.0302148 5.78039e-21)
(0.474318 -0.0297195 -4.94676e-21)
(0.650749 -0.0207841 -2.51829e-21)
(0.791355 -0.0144155 -4.56865e-22)
(0.878185 -0.00882675 8.97856e-22)
(0.931987 -0.00526714 -1.0211e-21)
(0.963713 -0.00290293 -2.90592e-22)
(0.979715 -0.00164349 -5.95529e-22)
(0.99155 -0.000686476 -1.08142e-22)
(0.0823515 -0.0287963 2.52612e-20)
(0.227264 -0.04931 -3.02201e-20)
(0.493903 -0.0485994 6.81119e-21)
(0.662117 -0.034067 3.37848e-21)
(0.797348 -0.0236888 -5.31102e-22)
(0.881232 -0.01456 4.57743e-22)
(0.933436 -0.00871006 3.90083e-22)
(0.96437 -0.00481339 -1.11424e-22)
(0.980016 -0.00274223 4.09394e-22)
(0.99166 -0.00115656 -1.5138e-22)
(0.139998 -0.0420788 -4.75109e-20)
(0.273146 -0.0670422 -5.00769e-20)
(0.522117 -0.0662842 -1.338e-20)
(0.678527 -0.0466257 2.29146e-22)
(0.806022 -0.0325304 7.86754e-21)
(0.885659 -0.0200645 -4.05072e-21)
(0.93555 -0.0120345 3.08029e-22)
(0.965336 -0.00666729 -4.6606e-22)
(0.98046 -0.00381388 4.76482e-22)
(0.991824 -0.00161708 6.08977e-23)
(0.213466 -0.0567512 1.1927e-19)
(0.331203 -0.0829784 4.97811e-20)
(0.557659 -0.0823846 1.35954e-20)
(0.699246 -0.0582287 2.7179e-21)
(0.817005 -0.0408012 -6.3069e-21)
(0.891286 -0.0252657 -2.91872e-21)
(0.938247 -0.015201 -2.99316e-21)
(0.966572 -0.00844533 -7.5441e-22)
(0.981033 -0.00484884 -1.13278e-21)
(0.992037 -0.00206447 -2.89611e-22)
(0.300149 -0.0725783 -4.74263e-20)
(0.399119 -0.0967069 5.08913e-20)
(0.598979 -0.0965602 5.23737e-21)
(0.723403 -0.0686846 -5.84607e-21)
(0.829857 -0.0483891 2.3451e-21)
(0.897904 -0.0301033 4.35282e-21)
(0.941435 -0.0181774 3.1296e-21)
(0.968041 -0.0101316 9.35031e-22)
(0.981719 -0.00583893 4.7373e-22)
(0.992293 -0.00249581 3.7163e-22)
(0.397144 -0.0890928 -4.12969e-20)
(0.47434 -0.107925 -8.59707e-20)
(0.64437 -0.10857 -6.3222e-21)
(0.750031 -0.0778537 -9.75676e-22)
(0.84409 -0.0552132 -3.02206e-21)
(0.905277 -0.0345323 1.12255e-21)
(0.945008 -0.0209389 -2.68083e-21)
(0.969697 -0.0117135 -1.00905e-21)
(0.982499 -0.00677756 1.76109e-22)
(0.992585 -0.00290845 1.33924e-22)
(0.501468 -0.106575 1.18715e-19)
(0.554232 -0.117086 1.92673e-20)