1.45 	0 	0 	0.404615 	-0.019983 	1.69731e-21
2.35 	0 	0 	0.70616 	-0.0107117 	-1.0186e-21
