1.45 	0 	0 	-0.290826
2.35 	0 	0 	-0.126701
