/*--------------------------------*- C++ -*----------------------------------*\
  =========                 |
  \\      /  F ield         | OpenFOAM: The Open Source CFD Toolbox
   \\    /   O peration     | Website:  https://openfoam.org
    \\  /    A nd           | Version:  6.0
     \\/     M anipulation  |
\*---------------------------------------------------------------------------*/
FoamFile
{
    version     2.0;
    format      ascii;
    class       volScalarField;
    location    "1";
    object      p;
}
// * * * * * * * * * * * * * * * * * * * * * * * * * * * * * * * * * * * * * //

dimensions      [0 2 -2 0 0 0 0];

internalField   nonuniform List<scalar> 
8000
(
-0.345589
-0.347377
-0.346443
-0.343532
-0.339161
-0.333528
-0.326815
-0.319209
-0.310881
-0.302
-0.292729
-0.283229
-0.273653
-0.264149
-0.254849
-0.245849
-0.237239
-0.229298
-0.222383
-0.214298
-0.34722
-0.348912
-0.347914
-0.344956
-0.340548
-0.334885
-0.328151
-0.320526
-0.312182
-0.303284
-0.293994
-0.284469
-0.274864
-0.265324
-0.25598
-0.246932
-0.238266
-0.230263
-0.223282
-0.215188
-0.350474
-0.351973
-0.350846
-0.347793
-0.34331
-0.33759
-0.33081
-0.323149
-0.314772
-0.305839
-0.296509
-0.286937
-0.277273
-0.267661
-0.258231
-0.249085
-0.24031
-0.232182
-0.225074
-0.216965
-0.355332
-0.356541
-0.35522
-0.352026
-0.347431
-0.341623
-0.334777
-0.32706
-0.318632
-0.309647
-0.300258
-0.290614
-0.280861
-0.271139
-0.26158
-0.252287
-0.243348
-0.235031
-0.22773
-0.219598
-0.361769
-0.362592
-0.361011
-0.357629
-0.352884
-0.34696
-0.340023
-0.332232
-0.323736
-0.314681
-0.305212
-0.29547
-0.285596
-0.275727
-0.265994
-0.256502
-0.247342
-0.238771
-0.231209
-0.223042
-0.369749
-0.370089
-0.368184
-0.364567
-0.359636
-0.353567
-0.346515
-0.33863
-0.330048
-0.320904
-0.311332
-0.301466
-0.291438
-0.281382
-0.271428
-0.261685
-0.252245
-0.243351
-0.235457
-0.227242
-0.37923
-0.378991
-0.376698
-0.3728
-0.367643
-0.361399
-0.35421
-0.34621
-0.337523
-0.32827
-0.318573
-0.308553
-0.298337
-0.288052
-0.277828
-0.267777
-0.257996
-0.248708
-0.240406
-0.232126
-0.390161
-0.389246
-0.386501
-0.382274
-0.376856
-0.370407
-0.363057
-0.354922
-0.346111
-0.336727
-0.326878
-0.316675
-0.306233
-0.295675
-0.285128
-0.27471
-0.264521
-0.254763
-0.245971
-0.2376
-0.402481
-0.400796
-0.397534
-0.392934
-0.387217
-0.380534
-0.372998
-0.364707
-0.35575
-0.346212
-0.336185
-0.325766
-0.31506
-0.30418
-0.293254
-0.282404
-0.271733
-0.261421
-0.252048
-0.24355
-0.416123
-0.413573
-0.409732
-0.404711
-0.398658
-0.391712
-0.383967
-0.375499
-0.366373
-0.356659
-0.346426
-0.335757
-0.324742
-0.313489
-0.30212
-0.290766
-0.279532
-0.268572
-0.258513
-0.249839
-0.431009
-0.4275
-0.423017
-0.417532
-0.411109
-0.40387
-0.395891
-0.387223
-0.377909
-0.367992
-0.357524
-0.346568
-0.3352
-0.323517
-0.311637
-0.299697
-0.287807
-0.27609
-0.265219
-0.256296
-0.447053
-0.442493
-0.437309
-0.431316
-0.424487
-0.416927
-0.408691
-0.399802
-0.390276
-0.380133
-0.3694
-0.358119
-0.34635
-0.334176
-0.32171
-0.309091
-0.296437
-0.283835
-0.271998
-0.262722
-0.464159
-0.458459
-0.452517
-0.445975
-0.438706
-0.430798
-0.422281
-0.413149
-0.40339
-0.392996
-0.38197
-0.370328
-0.35811
-0.345382
-0.332247
-0.318847
-0.305303
-0.291659
-0.278661
-0.268881
-0.482219
-0.475296
-0.468542
-0.461413
-0.453672
-0.44539
-0.43657
-0.427175
-0.417163
-0.406498
-0.395152
-0.383116
-0.370404
-0.357061
-0.343172
-0.328877
-0.314295
-0.299419
-0.285003
-0.274495
-0.501116
-0.492894
-0.485279
-0.477528
-0.469287
-0.460606
-0.451463
-0.441787
-0.431506
-0.420551
-0.408867
-0.396413
-0.383173
-0.369161
-0.354438
-0.339128
-0.323339
-0.306988
-0.290807
-0.279241
-0.520718
-0.511134
-0.502617
-0.494214
-0.485447
-0.476346
-0.46686
-0.456888
-0.446325
-0.435074
-0.423045
-0.410166
-0.396385
-0.381678
-0.366061
-0.349627
-0.332451
-0.314336
-0.295922
-0.282812
-0.540885
-0.529888
-0.520437
-0.511358
-0.502044
-0.492504
-0.48266
-0.47238
-0.461531
-0.449985
-0.437625
-0.424344
-0.410051
-0.394671
-0.378164
-0.360561
-0.341877
-0.321734
-0.300515
-0.285105
-0.561467
-0.549024
-0.538617
-0.528845
-0.518967
-0.508972
-0.498757
-0.488163
-0.477031
-0.46521
-0.452556
-0.438934
-0.424213
-0.408261
-0.390957
-0.37224
-0.352021
-0.329588
-0.304584
-0.285202
-0.582303
-0.5684
-0.557029
-0.546554
-0.536101
-0.525639
-0.515044
-0.504133
-0.492729
-0.480667
-0.467789
-0.453942
-0.438964
-0.422662
-0.404806
-0.38517
-0.363382
-0.337876
-0.306495
-0.279259
-0.603229
-0.587874
-0.575543
-0.564364
-0.55333
-0.542391
-0.531407
-0.520177
-0.508517
-0.496263
-0.483267
-0.469392
-0.454497
-0.438402
-0.420864
-0.401563
-0.379755
-0.352719
-0.316147
-0.281319
-0.624079
-0.607302
-0.594028
-0.582152
-0.570534
-0.55911
-0.547724
-0.536166
-0.524253
-0.511837
-0.498807
-0.485091
-0.470658
-0.455527
-0.439799
-0.423707
-0.407464
-0.391032
-0.376914
-0.37712
-0.644685
-0.626535
-0.612348
-0.599789
-0.587589
-0.57567
-0.563864
-0.551951
-0.539753
-0.527141
-0.514037
-0.500419
-0.486332
-0.471901
-0.457365
-0.443085
-0.429424
-0.417045
-0.409457
-0.412425
-0.664886
-0.64543
-0.63037
-0.617149
-0.604374
-0.591949
-0.579696
-0.567387
-0.55485
-0.541968
-0.528687
-0.515018
-0.501048
-0.486943
-0.472973
-0.459483
-0.446789
-0.435572
-0.428591
-0.427473
-0.684523
-0.663842
-0.64796
-0.634105
-0.620762
-0.607821
-0.59509
-0.582336
-0.569387
-0.556137
-0.542546
-0.528644
-0.51453
-0.500378
-0.486439
-0.472995
-0.46028
-0.448871
-0.440885
-0.435848
-0.703442
-0.681629
-0.664983
-0.650526
-0.636626
-0.623157
-0.609915
-0.596659
-0.583216
-0.569487
-0.555438
-0.541106
-0.526588
-0.512043
-0.497683
-0.483724
-0.470313
-0.457934
-0.448298
-0.439868
-0.721493
-0.698646
-0.681301
-0.666278
-0.651834
-0.637825
-0.624036
-0.610215
-0.596192
-0.581869
-0.567217
-0.55227
-0.537118
-0.521902
-0.506797
-0.491962
-0.477491
-0.46381
-0.452355
-0.441016
-0.738527
-0.714751
-0.696773
-0.681223
-0.666248
-0.651688
-0.637312
-0.622866
-0.608177
-0.59315
-0.577759
-0.562037
-0.546069
-0.529978
-0.513912
-0.497997
-0.482302
-0.467222
-0.453989
-0.440195
-0.754395
-0.729796
-0.711256
-0.695218
-0.679726
-0.664601
-0.649602
-0.63447
-0.619034
-0.603204
-0.586959
-0.570335
-0.553413
-0.53631
-0.519159
-0.502068
-0.485104
-0.468648
-0.453761
-0.43792
-0.768944
-0.743632
-0.724601
-0.708114
-0.69212
-0.676418
-0.660761
-0.644887
-0.628631
-0.611913
-0.594721
-0.577099
-0.559133
-0.540938
-0.522644
-0.504359
-0.486155
-0.468408
-0.452028
-0.434501
-0.78202
-0.756105
-0.736655
-0.71976
-0.703277
-0.686987
-0.670639
-0.653974
-0.636838
-0.619165
-0.600958
-0.582275
-0.563211
-0.543891
-0.52445
-0.505
-0.485631
-0.466708
-0.449009
-0.430118
-0.793462
-0.767057
-0.747261
-0.729998
-0.713041
-0.696155
-0.679089
-0.661593
-0.643528
-0.624851
-0.605584
-0.585805
-0.565626
-0.545184
-0.524627
-0.504077
-0.483641
-0.463675
-0.444831
-0.424862
-0.803109
-0.776328
-0.756258
-0.738669
-0.721253
-0.703767
-0.685961
-0.667603
-0.648576
-0.628864
-0.608516
-0.587632
-0.566348
-0.544818
-0.523201
-0.501637
-0.480249
-0.459374
-0.439556
-0.418761
-0.810793
-0.783755
-0.763487
-0.745612
-0.727757
-0.709668
-0.691109
-0.671868
-0.65186
-0.6311
-0.609669
-0.587696
-0.56534
-0.542776
-0.520179
-0.4977
-0.475479
-0.453832
-0.433201
-0.411804
-0.816349
-0.789175
-0.768784
-0.750666
-0.732391
-0.713705
-0.694386
-0.674254
-0.65326
-0.631457
-0.608962
-0.585935
-0.562561
-0.539037
-0.515549
-0.492265
-0.469334
-0.447048
-0.425755
-0.403956
-0.819608
-0.792425
-0.77199
-0.753672
-0.735002
-0.715727
-0.695652
-0.674633
-0.652664
-0.629839
-0.606315
-0.582287
-0.557966
-0.533567
-0.509291
-0.485315
-0.461799
-0.439
-0.417187
-0.395162
-0.820409
-0.793347
-0.772945
-0.754475
-0.735438
-0.715591
-0.694772
-0.672882
-0.649962
-0.626153
-0.601655
-0.576694
-0.551509
-0.526332
-0.501376
-0.476827
-0.452847
-0.429659
-0.407459
-0.385365
-0.818592
-0.791785
-0.7715
-0.752926
-0.733554
-0.713159
-0.691619
-0.668885
-0.645054
-0.620316
-0.59491
-0.569099
-0.543145
-0.517296
-0.491775
-0.466771
-0.442448
-0.418989
-0.396525
-0.374504
-0.814008
-0.787594
-0.767508
-0.748881
-0.729213
-0.708302
-0.686074
-0.66254
-0.637851
-0.61225
-0.586018
-0.559451
-0.532834
-0.506427
-0.480459
-0.45512
-0.430572
-0.406956
-0.384344
-0.362522
-0.806516
-0.780637
-0.760835
-0.742211
-0.72229
-0.700903
-0.678033
-0.653752
-0.628272
-0.601889
-0.574927
-0.54771
-0.520543
-0.493697
-0.467402
-0.441849
-0.417192
-0.393529
-0.370877
-0.349369
-0.795992
-0.77079
-0.751359
-0.732796
-0.712671
-0.690859
-0.667402
-0.642441
-0.616251
-0.58918
-0.561592
-0.53384
-0.506245
-0.479083
-0.452585
-0.426938
-0.402286
-0.378681
-0.356093
-0.335003
-0.782328
-0.757947
-0.738975
-0.720535
-0.700262
-0.678082
-0.654105
-0.628543
-0.601736
-0.574083
-0.545986
-0.517822
-0.489924
-0.462574
-0.435998
-0.410376
-0.385841
-0.362396
-0.339969
-0.319391
-0.765424
-0.74201
-0.723587
-0.705334
-0.684977
-0.662497
-0.638078
-0.612007
-0.584689
-0.55657
-0.528089
-0.499644
-0.471577
-0.444168
-0.417638
-0.39216
-0.36785
-0.344665
-0.322493
-0.302512
-0.745211
-0.722907
-0.705125
-0.687129
-0.666756
-0.644054
-0.619282
-0.592805
-0.56509
-0.536633
-0.507902
-0.479311
-0.45121
-0.423874
-0.397516
-0.372298
-0.348321
-0.325492
-0.303661
-0.284354
-0.721639
-0.700589
-0.683536
-0.66587
-0.645558
-0.622719
-0.597694
-0.570925
-0.54294
-0.514279
-0.485438
-0.456843
-0.428846
-0.401716
-0.375654
-0.35081
-0.32727
-0.304891
-0.283485
-0.264919
-0.694685
-0.675027
-0.658793
-0.641531
-0.621364
-0.598483
-0.573314
-0.546377
-0.518258
-0.489536
-0.460729
-0.432275
-0.404521
-0.37773
-0.352086
-0.327728
-0.304726
-0.282886
-0.261984
-0.244218
-0.664347
-0.646215
-0.63089
-0.614112
-0.594178
-0.571359
-0.546166
-0.519192
-0.491081
-0.462447
-0.433825
-0.405657
-0.378288
-0.351965
-0.32686
-0.303098
-0.280731
-0.259518
-0.239192
-0.222276
-0.630653
-0.614175
-0.599847
-0.583636
-0.564029
-0.541384
-0.516293
-0.489424
-0.461471
-0.433077
-0.404792
-0.377059
-0.350213
-0.324488
-0.30004
-0.276979
-0.255341
-0.234836
-0.215156
-0.199129
-0.593656
-0.578956
-0.565712
-0.550151
-0.530972
-0.508619
-0.483765
-0.457148
-0.429506
-0.401509
-0.373715
-0.346564
-0.320379
-0.295379
-0.271702
-0.249443
-0.228624
-0.208907
-0.189935
-0.174827
-0.55344
-0.540633
-0.528557
-0.513734
-0.495089
-0.473151
-0.448674
-0.42246
-0.395288
-0.367847
-0.340698
-0.314274
-0.288886
-0.264734
-0.241938
-0.22058
-0.200665
-0.181812
-0.163605
-0.149434
-0.510116
-0.49931
-0.488485
-0.474487
-0.456484
-0.43509
-0.411136
-0.385481
-0.358938
-0.332211
-0.30586
-0.280309
-0.25585
-0.232666
-0.210859
-0.190495
-0.171567
-0.153648
-0.136258
-0.12303
-0.463824
-0.455118
-0.445622
-0.432539
-0.415289
-0.394572
-0.371287
-0.346348
-0.320596
-0.294741
-0.26934
-0.244802
-0.221402
-0.199303
-0.178589
-0.15931
-0.141447
-0.124533
-0.108007
-0.095716
-0.414731
-0.408216
-0.400124
-0.388045
-0.371662
-0.351754
-0.329288
-0.305222
-0.280419
-0.255593
-0.23129
-0.207903
-0.185689
-0.16479
-0.145269
-0.127165
-0.110445
-0.0946033
-0.0789888
-0.067615
-0.363034
-0.35879
-0.352174
-0.341186
-0.325782
-0.306817
-0.285317
-0.26228
-0.238583
-0.214937
-0.191876
-0.169775
-0.14887
-0.129283
-0.111057
-0.0942169
-0.0787204
-0.0640233
-0.0493669
-0.038882
-0.308955
-0.307054
-0.301979
-0.292166
-0.277852
-0.259963
-0.239573
-0.217714
-0.195274
-0.172954
-0.151275
-0.13059
-0.111114
-0.0929504
-0.0761228
-0.0606402
-0.0464537
-0.0329833
-0.0193432
-0.00971074
-0.252743
-0.253244
-0.24977
-0.241216
-0.228099
-0.21141
-0.19227
-0.171733
-0.150691
-0.129836
-0.109669
-0.0905232
-0.0725941
-0.0559649
-0.0406424
-0.0266215
-0.0138473
-0.00170901
0.0108299
0.0196463
-0.194673
-0.197624
-0.195804
-0.188584
-0.176765
-0.161397
-0.143635
-0.124554
-0.105042
-0.0857772
-0.067242
-0.04975
-0.033478
-0.0184937
-0.0047893
0.0076515
0.0188847
0.0295428
0.0408408
0.048854
-0.135043
-0.140478
-0.140358
-0.134542
-0.124115
-0.110178
-0.0939127
-0.0764061
-0.0585393
-0.0409746
-0.0241747
-0.00843515
0.00608171
0.0193187
0.0312916
0.0420225
0.0515608
0.060539
0.0703576
0.0774897
-0.074171
-0.0821129
-0.0837282
-0.0793775
-0.0704272
-0.058019
-0.0433552
-0.0275259
-0.0114013
0.00437491
0.0193588
0.0332701
0.0459554
0.0573593
0.0674939
0.076379
0.0840476
0.0910625
0.0988936
0.104757
-0.0123967
-0.0228518
-0.0262289
-0.0233967
-0.0159964
-0.00520284
0.0077718
0.0218401
0.0361483
0.050074
0.0631917
0.0752331
0.0860466
0.0955631
0.103768
0.110656
0.116199
0.12064
0.125067
0.12832
0.049923
0.0369641
0.0318097
0.0330809
0.0388692
0.0479769
0.0591908
0.0714343
0.0838764
0.09592
0.107162
0.117349
0.12633
0.134019
0.14036
0.145317
0.148713
0.149946
0.148891
0.147754
0.112415
0.0969791
0.0900439
0.0897224
0.0938494
0.101214
0.110611
0.120983
0.131529
0.141683
0.151074
0.159477
0.166766
0.172877
0.177799
0.181614
0.184225
0.184272
0.180675
0.186537
0.17472
0.156844
0.148132
0.146195
0.148621
0.154196
0.161732
0.170197
0.178823
0.187084
0.194642
0.201305
0.206983
0.211653
0.215365
0.218292
0.220466
0.22092
0.219538
0.227754
0.236451
0.216189
0.205717
0.202152
0.202851
0.206604
0.212246
0.218776
0.225466
0.231825
0.237549
0.242477
0.246543
0.249752
0.252175
0.25399
0.255235
0.255134
0.253853
0.261169
0.297229
0.274648
0.262443
0.25725
0.256208
0.258118
0.261846
0.266426
0.271168
0.275619
0.279506
0.282693
0.285135
0.28685
0.287919
0.288509
0.288645
0.287643
0.285712
0.291387
0.356676
0.331858
0.317958
0.311149
0.308364
0.308426
0.310234
0.31286
0.315654
0.318198
0.320249
0.321692
0.322496
0.322688
0.322349
0.32163
0.320544
0.318478
0.315677
0.319672
0.414426
0.387462
0.371915
0.363513
0.359
0.357222
0.35712
0.357803
0.358662
0.359313
0.359542
0.359249
0.358416
0.357073
0.355299
0.353227
0.350861
0.347655
0.343891
0.346217
0.470121
0.441114
0.423978
0.414019
0.407805
0.404214
0.402227
0.400995
0.399949
0.398739
0.397173
0.39517
0.392719
0.389855
0.38665
0.383224
0.379571
0.375217
0.370467
0.37115
0.523417
0.492477
0.473821
0.462352
0.454482
0.44912
0.445292
0.442192
0.439288
0.436265
0.432952
0.429283
0.425255
0.420904
0.4163
0.411547
0.406638
0.401164
0.395442
0.394527
0.573987
0.541233
0.521132
0.508215
0.498745
0.491672
0.486065
0.481161
0.476467
0.471696
0.466702
0.46143
0.455885
0.450103
0.444152
0.438124
0.43201
0.425466
0.418804
0.416355
0.621518
0.587075
0.565617
0.551322
0.540327
0.531618
0.524313
0.517688
0.511287
0.504853
0.498259
0.491464
0.484478
0.47734
0.470111
0.462874
0.455624
0.448073
0.440517
0.436611
0.66572
0.629719
0.606996
0.591408
0.578976
0.568724
0.559817
0.55157
0.543564
0.535567
0.527473
0.519249
0.510914
0.502505
0.494082
0.485718
0.477411
0.468926
0.460532
0.455257
0.706318
0.668897
0.645011
0.628225
0.614457
0.602772
0.592375
0.582622
0.573126
0.563683
0.554199
0.544656
0.535075
0.525495
0.515971
0.506571
0.497294
0.487954
0.478787
0.472245
0.743064
0.704366
0.679426
0.661547
0.646558
0.63356
0.621802
0.610674
0.599819
0.589056
0.578309
0.567566
0.556853
0.54621
0.53569
0.525352
0.515199
0.50509
0.495219
0.487522
0.775731
0.735903
0.710025
0.691168
0.675084
0.660909
0.64793
0.63557
0.6235
0.611557
0.599682
0.587869
0.576147
0.564558
0.553152
0.54198
0.531051
0.520261
0.509764
0.501034
0.804116
0.763311
0.736618
0.716906
0.699863
0.684658
0.670611
0.657173
0.644041
0.63107
0.61821
0.605465
0.592866
0.580455
0.568278
0.556384
0.544782
0.533402
0.52236
0.512727
0.828046
0.786419
0.759038
0.738602
0.720747
0.704667
0.689714
0.675364
0.661332
0.647491
0.6338
0.620268
0.606928
0.593823
0.580998
0.568495
0.556328
0.544453
0.53295
0.522552
0.84737
0.805082
0.777145
0.756122
0.737607
0.720819
0.70513
0.69004
0.675281
0.660735
0.646371
0.632203
0.618265
0.6046
0.591251
0.578256
0.565634
0.553361
0.541486
0.530468
0.86197
0.819183
0.790825
0.769358
0.750343
0.733017
0.716771
0.701121
0.68581
0.670731
0.655859
0.641209
0.626819
0.612731
0.598986
0.585621
0.572655
0.560082
0.547925
0.536438
0.871753
0.828634
0.799994
0.778228
0.758877
0.741189
0.72457
0.708544
0.692863
0.677426
0.662212
0.64724
0.632546
0.618175
0.604166
0.590552
0.577356
0.564582
0.552237
0.540433
0.876661
0.833374
0.804592
0.782677
0.763157
0.745288
0.728482
0.712267
0.6964
0.680784
0.665399
0.650264
0.635419
0.620905
0.606763
0.593024
0.579713
0.566839
0.554399
0.542437
0.876661
0.833374
0.804593
0.782678
0.763158
0.74529
0.728484
0.712269
0.696402
0.680786
0.665401
0.650266
0.635421
0.620907
0.606764
0.593026
0.579715
0.56684
0.5544
0.542438
0.871754
0.828635
0.799995
0.77823
0.75888
0.741193
0.724575
0.70855
0.692869
0.677433
0.662218
0.647245
0.632552
0.61818
0.60417
0.590556
0.57736
0.564586
0.55224
0.540437
0.861971
0.819185
0.790828
0.769362
0.750348
0.733023
0.71678
0.70113
0.68582
0.670741
0.655868
0.641218
0.626827
0.612739
0.598994
0.585628
0.572662
0.560089
0.547931
0.536443
0.847373
0.805086
0.777149
0.756128
0.737614
0.720828
0.705141
0.690053
0.675294
0.660748
0.646384
0.632214
0.618276
0.604611
0.591261
0.578266
0.565643
0.55337
0.541494
0.530476
0.828049
0.786424
0.759044
0.73861
0.720756
0.704679
0.689727
0.675378
0.661348
0.647507
0.633815
0.620282
0.606942
0.593837
0.581011
0.568507
0.55634
0.544465
0.532961
0.522563
0.804122
0.763318
0.736626
0.716916
0.699875
0.684672
0.670626
0.65719
0.644058
0.631087
0.618227
0.605481
0.592882
0.58047
0.568293
0.556398
0.544796
0.533416
0.522373
0.512739
0.775738
0.735911
0.710036
0.69118
0.675098
0.660925
0.647947
0.635589
0.623519
0.611577
0.599701
0.587887
0.576165
0.564576
0.55317
0.541998
0.531068
0.520277
0.509779
0.501048
0.743074
0.704377
0.679439
0.661562
0.646574
0.633578
0.621821
0.610694
0.59984
0.589078
0.57833
0.567587
0.556874
0.546231
0.535711
0.525372
0.515218
0.505108
0.495236
0.487539
0.70633
0.668912
0.645027
0.628242
0.614476
0.602792
0.592397
0.582645
0.57315
0.563706
0.554223
0.544681
0.535099
0.525518
0.515995
0.506594
0.497316
0.487975
0.478806
0.472264
0.665735
0.629737
0.607015
0.591428
0.578998
0.568748
0.559841
0.551595
0.543589
0.535594
0.527499
0.519277
0.510941
0.502531
0.494108
0.485743
0.477435
0.468948
0.460553
0.455278
0.621537
0.587097
0.565639
0.551346
0.540352
0.531645
0.52434
0.517715
0.511315
0.504882
0.498289
0.491495
0.484508
0.477369
0.470139
0.462902
0.455651
0.448098
0.440541
0.436634
0.574009
0.541258
0.521159
0.508243
0.498774
0.491701
0.486095
0.481192
0.476498
0.471728
0.466735
0.461463
0.455918
0.450136
0.444183
0.438154
0.432039
0.425493
0.41883
0.41638
0.523443
0.492507
0.473852
0.462384
0.454514
0.449153
0.445325
0.442225
0.439323
0.4363
0.432988
0.429319
0.425291
0.42094
0.416334
0.41158
0.40667
0.401194
0.39547
0.394554
0.470151
0.441147
0.424013
0.414055
0.407842
0.404251
0.402264
0.401032
0.399987
0.398777
0.397212
0.395209
0.392758
0.389893
0.386687
0.38326
0.379606
0.37525
0.370498
0.37118
0.41446
0.3875
0.371955
0.363553
0.359041
0.357263
0.357161
0.357844
0.358703
0.359355
0.359584
0.359291
0.358458
0.357114
0.355339
0.353267
0.350898
0.347691
0.343925
0.346251
0.356716
0.3319
0.318002
0.311194
0.308409
0.308471
0.310279
0.312905
0.315698
0.318242
0.320294
0.321737
0.322541
0.322733
0.322393
0.321673
0.320585
0.318517
0.315715
0.319708
0.297274
0.274696
0.262492
0.2573
0.256258
0.258167
0.261895
0.266475
0.271217
0.275667
0.279554
0.282741
0.285183
0.286898
0.287967
0.288555
0.28869
0.287686
0.285753
0.291427
0.236502
0.216243
0.205772
0.202207
0.202906
0.206658
0.212299
0.218829
0.225518
0.231877
0.237601
0.242528
0.246595
0.249803
0.252226
0.25404
0.255283
0.255181
0.253898
0.261213
0.174777
0.156904
0.148193
0.146255
0.148681
0.154255
0.16179
0.170254
0.17888
0.18714
0.194697
0.20136
0.207038
0.211708
0.215419
0.218345
0.220518
0.220971
0.219587
0.227802
0.112478
0.0970453
0.0901108
0.0897886
0.0939144
0.101277
0.110673
0.121044
0.131589
0.141743
0.151133
0.159535
0.166824
0.172935
0.177856
0.181671
0.184281
0.184327
0.18073
0.186591
0.0499928
0.0370367
0.0318828
0.0331529
0.0389396
0.0480455
0.0592578
0.0714999
0.083941
0.095984
0.107226
0.117412
0.126393
0.134081
0.140422
0.145378
0.148772
0.150005
0.148949
0.147811
-0.0123201
-0.0227726
-0.0261496
-0.0233187
-0.0159205
-0.00512899
0.00784371
0.0219104
0.0362176
0.0501426
0.0632598
0.0753007
0.0861135
0.0956292
0.103833
0.11072
0.116262
0.120703
0.125129
0.128381
-0.0740871
-0.0820266
-0.0836421
-0.0792932
-0.0703452
-0.0579394
-0.0432778
-0.0274503
-0.0113271
0.00444834
0.0194316
0.0333422
0.0460266
0.0574294
0.067563
0.076447
0.0841146
0.0911289
0.0989596
0.104823
-0.134951
-0.140384
-0.140265
-0.13445
-0.124026
-0.110092
-0.0938292
-0.0763247
-0.0584595
-0.040896
-0.0240972
-0.00835869
0.00615698
0.0193927
0.0313644
0.0420941
0.0516313
0.0606088
0.0704269
0.0775585
-0.194574
-0.197522
-0.195703
-0.188485
-0.176669
-0.161304
-0.143545
-0.124466
-0.104956
-0.0856931
-0.0671596
-0.0496692
-0.0333988
-0.0184159
-0.0047129
0.00772666
0.0189587
0.0296158
0.0409132
0.0489258
-0.252636
-0.253134
-0.249661
-0.241109
-0.227995
-0.211309
-0.192172
-0.171638
-0.150599
-0.129746
-0.109581
-0.090438
-0.0725109
-0.0558834
-0.0405624
-0.0265428
-0.0137699
-0.00163269
0.0109054
0.0197211
-0.308839
-0.306935
-0.301861
-0.292051
-0.27774
-0.259854
-0.239468
-0.217612
-0.195175
-0.172858
-0.151182
-0.1305
-0.111027
-0.092865
-0.076039
-0.0605578
-0.0463728
-0.0329038
-0.0192647
-0.00963317
-0.362909
-0.358664
-0.352048
-0.341062
-0.325661
-0.3067
-0.285204
-0.26217
-0.238477
-0.214835
-0.191778
-0.169681
-0.148778
-0.129193
-0.11097
-0.0941308
-0.078636
-0.0639405
-0.0492853
-0.0388017
-0.414598
-0.408081
-0.39999
-0.387913
-0.371533
-0.351629
-0.329167
-0.305105
-0.280307
-0.255485
-0.231186
-0.207803
-0.185592
-0.164696
-0.145177
-0.127075
-0.110357
-0.0945174
-0.0789043
-0.0675321
-0.463682
-0.454975
-0.445479
-0.432398
-0.415152
-0.394438
-0.371158
-0.346223
-0.320476
-0.294626
-0.269231
-0.244696
-0.2213
-0.199205
-0.178493
-0.159216
-0.141356
-0.124444
-0.10792
-0.0956306
-0.509966
-0.499159
-0.488333
-0.474338
-0.456338
-0.434948
-0.410998
-0.385348
-0.358812
-0.33209
-0.305745
-0.280198
-0.255743
-0.232563
-0.210759
-0.190398
-0.171472
-0.153556
-0.136168
-0.122943
-0.553282
-0.540473
-0.528398
-0.513576
-0.494934
-0.473
-0.448529
-0.422321
-0.395155
-0.367719
-0.340576
-0.314158
-0.288774
-0.264626
-0.241834
-0.220479
-0.200568
-0.181718
-0.163512
-0.149344
-0.59349
-0.578788
-0.565543
-0.549984
-0.530809
-0.50846
-0.483612
-0.457001
-0.429366
-0.401375
-0.373587
-0.346442
-0.320262
-0.295266
-0.271593
-0.249339
-0.228523
-0.20881
-0.18984
-0.174735
-0.630478
-0.613998
-0.59967
-0.58346
-0.563857
-0.541216
-0.516132
-0.48927
-0.461323
-0.432936
-0.404658
-0.376931
-0.350091
-0.324371
-0.299928
-0.276871
-0.255237
-0.234736
-0.215059
-0.199035
-0.664164
-0.64603
-0.630705
-0.613929
-0.593997
-0.571184
-0.545997
-0.51903
-0.490927
-0.462299
-0.433684
-0.405524
-0.378161
-0.351844
-0.326744
-0.302987
-0.280625
-0.259415
-0.239093
-0.22218
-0.694494
-0.674835
-0.658601
-0.64134
-0.621176
-0.598301
-0.573138
-0.546208
-0.518096
-0.489381
-0.460581
-0.432135
-0.404389
-0.377604
-0.351966
-0.327614
-0.304617
-0.282781
-0.261882
-0.24412
-0.721441
-0.70039
-0.683337
-0.665672
-0.645364
-0.62253
-0.597511
-0.570749
-0.542771
-0.514118
-0.485283
-0.456697
-0.428708
-0.401586
-0.37553
-0.350692
-0.327158
-0.304783
-0.283381
-0.264819
-0.745005
-0.722702
-0.704919
-0.686925
-0.666556
-0.643858
-0.619092
-0.592622
-0.564915
-0.536465
-0.507741
-0.479159
-0.451067
-0.42374
-0.397389
-0.372177
-0.348206
-0.325382
-0.303556
-0.284253
-0.765212
-0.741798
-0.723376
-0.705126
-0.684772
-0.662297
-0.637883
-0.611819
-0.584507
-0.556396
-0.527923
-0.499487
-0.471429
-0.444029
-0.417507
-0.392036
-0.367733
-0.344553
-0.322386
-0.30241
-0.78211
-0.757729
-0.738759
-0.720321
-0.700052
-0.677877
-0.653905
-0.62835
-0.60155
-0.573904
-0.545815
-0.51766
-0.489772
-0.462432
-0.435864
-0.41025
-0.385721
-0.362283
-0.339862
-0.31929
-0.795768
-0.770567
-0.751138
-0.732578
-0.712457
-0.69065
-0.667198
-0.642243
-0.61606
-0.588997
-0.561418
-0.533675
-0.506089
-0.478937
-0.452449
-0.42681
-0.402166
-0.378567
-0.355986
-0.334903
-0.806287
-0.780409
-0.760609
-0.741989
-0.722072
-0.700691
-0.677826
-0.65355
-0.628077
-0.601702
-0.574748
-0.547541
-0.520384
-0.493548
-0.467263
-0.44172
-0.417071
-0.393415
-0.370771
-0.349271
-0.813775
-0.787363
-0.767279
-0.748656
-0.728992
-0.708086
-0.685864
-0.662335
-0.637652
-0.612059
-0.585836
-0.55928
-0.532673
-0.506277
-0.480319
-0.45499
-0.430451
-0.406844
-0.38424
-0.362426
-0.818356
-0.791552
-0.771269
-0.752698
-0.733331
-0.71294
-0.691405
-0.668677
-0.644852
-0.620121
-0.594725
-0.568924
-0.542982
-0.517144
-0.491634
-0.46664
-0.442327
-0.418879
-0.396423
-0.37441
-0.820172
-0.793112
-0.772714
-0.754247
-0.735214
-0.715371
-0.694556
-0.67267
-0.649756
-0.625956
-0.601467
-0.576517
-0.551344
-0.526178
-0.501234
-0.476696
-0.452728
-0.429551
-0.40736
-0.385275
-0.819371
-0.792191
-0.771758
-0.753444
-0.734777
-0.715506
-0.695434
-0.67442
-0.652457
-0.62964
-0.606126
-0.582109
-0.5578
-0.533413
-0.50915
-0.485186
-0.461682
-0.438895
-0.417093
-0.395077
-0.816112
-0.788941
-0.768554
-0.750438
-0.732167
-0.713483
-0.694168
-0.67404
-0.653052
-0.631257
-0.608771
-0.585755
-0.562395
-0.538883
-0.515409
-0.492138
-0.469221
-0.446946
-0.425665
-0.403876
-0.810558
-0.783523
-0.763258
-0.745386
-0.727533
-0.709448
-0.690891
-0.671654
-0.651652
-0.630899
-0.609478
-0.587517
-0.565174
-0.542624
-0.520041
-0.497576
-0.475369
-0.453735
-0.433117
-0.411731
-0.802876
-0.776098
-0.756032
-0.738445
-0.721032
-0.703548
-0.685746
-0.667391
-0.64837
-0.628665
-0.608326
-0.587454
-0.566183
-0.544667
-0.523066
-0.501516
-0.480142
-0.459282
-0.439477
-0.418693
-0.793232
-0.76683
-0.747037
-0.729777
-0.712822
-0.695939
-0.678876
-0.661383
-0.643324
-0.624654
-0.605397
-0.585629
-0.565463
-0.545037
-0.524494
-0.503959
-0.483539
-0.463587
-0.444759
-0.424801
-0.781793
-0.755882
-0.736435
-0.719542
-0.703061
-0.686774
-0.670429
-0.653768
-0.636637
-0.618971
-0.600773
-0.582101
-0.563051
-0.543745
-0.52432
-0.504886
-0.485533
-0.466626
-0.448943
-0.430065
-0.768722
-0.743413
-0.724385
-0.7079
-0.691908
-0.676208
-0.660554
-0.644684
-0.628433
-0.611722
-0.594539
-0.576928
-0.558975
-0.540795
-0.522518
-0.504249
-0.486062
-0.468332
-0.451968
-0.434455
-0.754177
-0.729582
-0.711044
-0.695007
-0.679518
-0.664395
-0.6494
-0.634272
-0.618841
-0.603017
-0.58678
-0.570167
-0.553258
-0.53617
-0.519036
-0.501963
-0.485016
-0.468578
-0.453708
-0.437881
-0.738314
-0.714541
-0.696565
-0.681016
-0.666044
-0.651487
-0.637115
-0.622673
-0.607989
-0.592968
-0.577585
-0.561873
-0.545918
-0.529842
-0.513794
-0.497897
-0.482219
-0.467158
-0.453943
-0.440164
-0.721286
-0.698441
-0.681097
-0.666076
-0.651635
-0.63763
-0.623844
-0.610028
-0.59601
-0.581693
-0.567048
-0.552111
-0.536972
-0.521771
-0.506683
-0.491866
-0.477414
-0.463752
-0.452315
-0.440993
-0.703241
-0.681429
-0.664785
-0.65033
-0.636432
-0.622968
-0.60973
-0.596478
-0.58304
-0.569316
-0.555275
-0.540953
-0.526447
-0.511917
-0.497575
-0.483633
-0.470241
-0.457881
-0.448264
-0.439851
-0.684329
-0.663649
-0.647768
-0.633915
-0.620574
-0.607638
-0.594911
-0.582162
-0.569218
-0.555973
-0.54239
-0.528497
-0.514395
-0.500258
-0.486335
-0.47291
-0.460213
-0.448823
-0.440856
-0.435837
-0.664699
-0.645245
-0.630185
-0.616966
-0.604193
-0.591773
-0.579524
-0.56722
-0.554687
-0.541811
-0.528536
-0.514877
-0.500919
-0.486828
-0.472875
-0.459403
-0.446728
-0.435529
-0.428568
-0.427469
-0.644507
-0.626358
-0.612171
-0.599614
-0.587416
-0.575502
-0.563699
-0.551791
-0.539598
-0.526991
-0.513894
-0.500284
-0.486209
-0.471792
-0.457272
-0.44301
-0.429368
-0.417008
-0.40944
-0.412427
-0.62391
-0.607133
-0.59386
-0.581985
-0.570369
-0.558949
-0.547568
-0.536014
-0.524105
-0.511695
-0.498672
-0.484964
-0.470542
-0.455425
-0.439712
-0.423637
-0.407412
-0.390999
-0.376899
-0.377123
-0.603069
-0.587715
-0.575384
-0.564206
-0.553173
-0.542238
-0.531258
-0.520032
-0.508377
-0.496129
-0.48314
-0.469274
-0.454389
-0.438307
-0.420783
-0.401498
-0.379706
-0.352686
-0.316131
-0.281311
-0.582153
-0.56825
-0.556879
-0.546404
-0.535953
-0.525494
-0.514903
-0.503996
-0.492597
-0.480541
-0.46767
-0.453832
-0.438864
-0.422575
-0.404733
-0.385112
-0.36334
-0.337852
-0.306489
-0.279265
-0.561327
-0.548883
-0.538476
-0.528703
-0.518827
-0.508835
-0.498624
-0.488034
-0.476907
-0.465092
-0.452445
-0.438833
-0.424122
-0.408183
-0.390892
-0.37219
-0.351987
-0.329572
-0.304588
-0.28522
-0.540756
-0.529758
-0.520305
-0.511225
-0.501912
-0.492375
-0.482535
-0.472259
-0.461415
-0.449876
-0.437523
-0.424251
-0.409969
-0.394601
-0.378107
-0.360518
-0.34185
-0.321725
-0.300526
-0.28513
-0.520599
-0.511013
-0.502493
-0.49409
-0.485324
-0.476226
-0.466744
-0.456776
-0.446218
-0.434973
-0.422951
-0.410082
-0.396311
-0.381615
-0.366011
-0.349592
-0.332431
-0.314334
-0.29594
-0.282843
-0.501006
-0.492782
-0.485165
-0.477413
-0.469173
-0.460495
-0.451355
-0.441683
-0.431407
-0.420459
-0.408782
-0.396336
-0.383106
-0.369106
-0.354396
-0.3391
-0.323325
-0.306991
-0.290829
-0.279276
-0.482119
-0.475193
-0.468437
-0.461307
-0.453567
-0.445287
-0.436471
-0.42708
-0.417074
-0.406414
-0.395075
-0.383047
-0.370345
-0.357012
-0.343136
-0.328855
-0.314288
-0.299427
-0.285029
-0.274533
-0.464068
-0.458365
-0.452421
-0.445878
-0.43861
-0.430704
-0.422191
-0.413063
-0.403309
-0.392921
-0.381901
-0.370266
-0.358058
-0.34534
-0.332217
-0.318831
-0.3053
-0.291671
-0.27869
-0.26892
-0.446971
-0.442408
-0.437223
-0.431229
-0.4244
-0.416843
-0.40861
-0.399725
-0.390203
-0.380065
-0.369338
-0.358065
-0.346304
-0.33414
-0.321685
-0.30908
-0.296438
-0.28385
-0.272029
-0.262762
-0.430936
-0.427424
-0.42294
-0.417455
-0.411032
-0.403795
-0.395819
-0.387155
-0.377844
-0.367933
-0.35747
-0.346521
-0.335161
-0.323487
-0.311618
-0.299689
-0.287811
-0.276106
-0.26525
-0.256335
-0.416058
-0.413505
-0.409663
-0.404643
-0.398591
-0.391646
-0.383904
-0.375438
-0.366317
-0.356607
-0.346379
-0.335716
-0.324709
-0.313465
-0.302106
-0.290762
-0.279538
-0.268589
-0.258543
-0.249876
-0.402424
-0.400737
-0.397475
-0.392875
-0.387158
-0.380476
-0.372943
-0.364654
-0.3557
-0.346166
-0.336145
-0.325731
-0.315032
-0.304161
-0.293243
-0.282402
-0.27174
-0.261438
-0.252077