1.45 	0 	0 	-0.00751956 	-0.00260229 	3.84703e-21
2.35 	0 	0 	0.0627944 	-0.00668007 	2.37373e-21
