1.45 	0 	0 	-0.00127215 	-0.00317111 	3.9732e-21
2.35 	0 	0 	0.0875647 	-0.00754581 	2.27706e-21
