1.45 	0 	0 	-0.295554
2.35 	0 	0 	-0.130363
