1.45 	0 	0 	-0.00758766 	-0.00259769 	3.84026e-21
2.35 	0 	0 	0.0625948 	-0.0066729 	2.36513e-21
