1.275 	2.15223e-18 	-2.76991e-20 	-0.0344001 	-0.000441329 	-1.92967e-22
1.825 	2.15223e-18 	-1.39322e-20 	-0.0093504 	-0.00277291 	1.71305e-21
2.375 	2.15223e-18 	-2.66896e-23 	0.115628 	-0.00326159 	-7.14805e-22
