/*--------------------------------*- C++ -*----------------------------------*\
  =========                 |
  \\      /  F ield         | OpenFOAM: The Open Source CFD Toolbox
   \\    /   O peration     | Website:  https://openfoam.org
    \\  /    A nd           | Version:  6.0
     \\/     M anipulation  |
\*---------------------------------------------------------------------------*/
FoamFile
{
    version     2.0;
    format      ascii;
    class       volScalarField;
    location    "18";
    object      p;
}
// * * * * * * * * * * * * * * * * * * * * * * * * * * * * * * * * * * * * * //

dimensions      [0 2 -2 0 0 0 0];

internalField   nonuniform List<scalar> 
62000
(
0.0221905
0.0224248
0.0226226
0.0228118
0.0229937
0.0231772
0.0233804
0.023604
0.0238705
0.0241763
0.0245486
0.0249792
0.0254978
0.0260945
0.0267978
0.027601
0.0285275
0.0295778
0.0307688
0.0321097
0.0336108
0.0352895
0.037151
0.0392181
0.0414933
0.0440007
0.0467412
0.0497372
0.0529827
0.0564985
0.0602622
0.0642876
0.068571
0.0731055
0.077874
0.0828488
0.0880008
0.093296
0.0987044
0.104193
0.109728
0.115254
0.120691
0.125874
0.130438
0.133739
0.134847
0.132867
0.127349
0.119246
0.110527
0.103399
0.0984679
0.094595
0.0896485
0.0822807
0.07363
0.0605289
0.0493976
0.0725607
0.0259203
0.026321
0.0266715
0.0270267
0.027352
0.0276666
0.0279656
0.0282593
0.0285536
0.0288566
0.029184
0.0295417
0.0299523
0.0304209
0.0309731
0.0316154
0.032372
0.0332524
0.0342763
0.0354568
0.0368079
0.0383457
0.0400797
0.0420273
0.0441968
0.0466032
0.0492532
0.0521559
0.0553128
0.0587212
0.0623812
0.0662828
0.0704244
0.0747961
0.0793769
0.0841432
0.0890672
0.0941252
0.0992975
0.104572
0.10994
0.115382
0.120864
0.126275
0.131307
0.135357
0.137503
0.136797
0.132637
0.125839
0.118348
0.112532
0.109277
0.107481
0.104573
0.0988822
0.0914475
0.0768833
0.0675731
0.0180972
0.0345196
0.0349995
0.0354198
0.0358241
0.0361753
0.0364938
0.036767
0.0370075
0.0372138
0.0373973
0.0375681
0.0377363
0.037922
0.0381359
0.0384042
0.0387396
0.0391697
0.0397097
0.0403847
0.0412122
0.042212
0.0434028
0.0447987
0.0464176
0.0482713
0.0503748
0.0527365
0.0553631
0.0582535
0.0614077
0.0648123
0.0684689
0.0723681
0.0764991
0.0808426
0.0853752
0.090073
0.0949165
0.0998942
0.105003
0.110249
0.115626
0.121129
0.126681
0.132007
0.136528
0.139306
0.139303
0.135707
0.129076
0.121197
0.11455
0.110377
0.10797
0.104623
0.0988583
0.0915105
0.0764296
0.066819
0.0385864
0.0424792
0.0430956
0.0436921
0.0443072
0.0448831
0.045437
0.0459345
0.0463849
0.0467672
0.0470921
0.0473519
0.0475615
0.0477266
0.0478668
0.0479985
0.0481458
0.0483322
0.0485852
0.0489307
0.0493973
0.0500093
0.0507932
0.0517689
0.0529593
0.0543813
0.0560534
0.0579889
0.0601948
0.0626733
0.0654168
0.0684246
0.0716857
0.0751985
0.0789515
0.0829276
0.0871066
0.0914696
0.0960044
0.100709
0.105592
0.110672
0.115962
0.121491
0.127225
0.132935
0.138087
0.141757
0.142838
0.140306
0.134416
0.126717
0.11972
0.115076
0.112583
0.109669
0.104808
0.0982388
0.0830448
0.0723495
0.0482922
0.0474983
0.0480575
0.0486426
0.0493187
0.0500249
0.0507833
0.0515507
0.0523301
0.0530844
0.0538106
0.0544808
0.0550936
0.0556341
0.0561085
0.0565161
0.0568733
0.0571929
0.0575005
0.0578189
0.0581812
0.0586151
0.0591549
0.0598283
0.0606669
0.0616964
0.0629444
0.064432
0.0661747
0.0681775
0.0704437
0.0729647
0.0757444
0.0787779
0.0820586
0.0855739
0.0893086
0.0932508
0.0973972
0.101757
0.106353
0.111223
0.116399
0.121955
0.127914
0.134107
0.140072
0.144933
0.147545
0.146694
0.142297
0.135558
0.128917
0.124322
0.122115
0.120075
0.116479
0.110753
0.0949537
0.0821148
0.0591541
0.0484222
0.0487596
0.0491598
0.049706
0.0503572
0.0511441
0.0520373
0.0530453
0.0541314
0.0552897
0.0564775
0.0576817
0.0588612
0.0600035
0.0610768
0.0620777
0.0629903
0.0638244
0.0645821
0.0652879
0.0659597
0.0666309
0.0673299
0.0680934
0.0689553
0.0699527
0.0711195
0.0724816
0.074059
0.0758601
0.0778978
0.0801742
0.0826983
0.0854699
0.0884845
0.0917358
0.0952212
0.0989486
0.102939
0.10723
0.111872
0.11692
0.122492
0.128665
0.135337
0.142134
0.148246
0.152527
0.153585
0.150977
0.145465
0.139223
0.13436
0.131674
0.129509
0.126286
0.120968
0.104616
0.0897067
0.0680925
0.0470636
0.0471758
0.0473208
0.047609
0.048003
0.0485588
0.0492621
0.0501487
0.0512008
0.0524344
0.0538197
0.0553519
0.0569883
0.0587078
0.0604603
0.0622196
0.0639391
0.0655984
0.0671654
0.0686362
0.0699997
0.0712687
0.0724539
0.0735819
0.0746813
0.0757909
0.0769493
0.0781932
0.0795531
0.0810577
0.0827261
0.0845854
0.0866542
0.0889481
0.0914772
0.0942495
0.0972767
0.100581
0.104199
0.108181
0.112593
0.117507
0.123079
0.129439
0.136556
0.144154
0.151519
0.157539
0.160697
0.160195
0.156279
0.150701
0.145465
0.141703
0.138381
0.134452
0.128933
0.112262
0.0958917
0.076114
0.0452951
0.0452432
0.0451904
0.0452311
0.0453401
0.0455682
0.0459174
0.0464355
0.0471276
0.0480359
0.0491577
0.0505201
0.052103
0.0539097
0.0558985
0.0580495
0.0603049
0.0626296
0.0649626
0.0672698
0.0695024
0.0716373
0.0736492
0.0755336
0.0772928
0.0789464
0.0805212
0.0820478
0.0835604
0.0850896
0.0866758
0.0883508
0.0901557
0.0921225
0.0942804
0.0966571
0.0992842
0.102205
0.105473
0.109159
0.113345
0.118123
0.123682
0.130205
0.137735
0.146105
0.154728
0.162585
0.168112
0.170222
0.168644
0.164557
0.159637
0.15505
0.150249
0.144929
0.138524
0.120997
0.10275
0.0832136
0.0433498
0.0433097
0.0432366
0.0432221
0.0432205
0.0432805
0.0433895
0.0435986
0.0439119
0.0443865
0.0450364
0.0459165
0.0470382
0.048441
0.0501184
0.0520828
0.0543012
0.0567543
0.0593846
0.0621506
0.0649842
0.0678347
0.0706414
0.0733617
0.0759584
0.0784151
0.0807255
0.0828959
0.0849398
0.0868823
0.0887515
0.0905919
0.0924483
0.0943673
0.0963947
0.0985772
0.100967
0.10363
0.106643
0.110096
0.114092
0.118749
0.124287
0.130934
0.138808
0.147852
0.157633
0.167277
0.175279
0.180366
0.181821
0.180211
0.176655
0.17208
0.166148
0.159165
0.151092
0.131646
0.110337
0.0889389
0.0419501
0.0419419
0.0419042
0.041904
0.0419012
0.0419237
0.0419523
0.04202
0.04212
0.0422994
0.0425671
0.0429843
0.0435722
0.0443961
0.0454765
0.0468662
0.048569
0.0506073
0.0529553
0.055599
0.0584835
0.0615608
0.0647594
0.0680155
0.0712614
0.0744446
0.077521
0.0804584
0.0832376
0.0858503
0.0883116
0.0906419
0.0928849
0.0950854
0.0972949
0.0995702
0.101977
0.104599
0.107531
0.110883
0.114777
0.119354
0.124858
0.131555
0.139614
0.149081
0.159676
0.170719
0.180857
0.18876
0.193393
0.194755
0.193335
0.189561
0.183009
0.174406
0.164206
0.142042
0.116963
0.0928446
0.0403189
0.0404221
0.0404992
0.0406201
0.0407311
0.0408612
0.0409744
0.0410969
0.0412024
0.0413255
0.0414561
0.0416445
0.0419013
0.0422924
0.0428456
0.043633
0.0446858
0.0460633
0.0477804
0.0498656
0.0523029
0.055077
0.0581374
0.0614306
0.0648855
0.0684352
0.0720107
0.0755494
0.0789951
0.0823087
0.0854629
0.0884593
0.091314
0.0940568
0.0967301
0.0993852
0.102089
0.104927
0.108003
0.111436
0.115356
0.11992
0.125381
0.132016
0.140025
0.149524
0.160377
0.172113
0.183601
0.193582
0.200863
0.205014
0.205908
0.203385
0.19674
0.186849
0.174605
0.149851
0.121427
0.0952264
0.039196
0.0393484
0.03949
0.0396767
0.0398699
0.0400901
0.0403056
0.0405325
0.0407379
0.0409419
0.0411175
0.0412969
0.0414695
0.041686
0.0419586
0.0423566
0.0429128
0.0437038
0.0447676
0.046169
0.0479312
0.0500826
0.0526129
0.0555042
0.0587103
0.0621784
0.0658422
0.069628
0.0734625
0.0772746
0.0810159
0.0846463
0.0881582
0.091553
0.0948501
0.0980814
0.101298
0.104576
0.108007
0.111703
0.115789
0.120414
0.125822
0.132276
0.139969
0.14906
0.159527
0.1711
0.182916
0.193882
0.202807
0.209004
0.211872
0.210666
0.2043
0.1937
0.180123
0.153749
0.123319
0.0964797
0.0377755
0.038031
0.0382777
0.0385777
0.0388856
0.039231
0.0395772
0.0399463
0.0402999
0.0406573
0.0409805
0.041292
0.0415628
0.0418261
0.0420727
0.0423541
0.0426878
0.0431433
0.0437608
0.044618
0.0457619
0.047254
0.0491229
0.0513931
0.0540586
0.0571017
0.0604818
0.0641416
0.06801
0.0720139
0.0760794
0.0801553
0.0842015
0.0881943
0.0921235
0.095994
0.0998292
0.103679
0.107611
0.11171
0.116075
0.120832
0.126186
0.132359
0.139516
0.147822
0.157341
0.16798
0.179148
0.189984
0.199432
0.206728
0.210959
0.210921
0.205173
0.19458
0.180701
0.154145
0.123324
0.0973611
0.0368636
0.0371577
0.0374506
0.0377936
0.0381558
0.0385623
0.0389861
0.0394478
0.039914
0.0404028
0.040875
0.0413485
0.041784
0.0422031
0.0425771
0.0429398
0.0432852
0.0436656
0.0441044
0.0446734
0.0454203
0.04642
0.0477238
0.0493882
0.0514447
0.0539152
0.056798
0.0600671
0.0636775
0.0675653
0.0716711
0.0759268
0.0802865
0.0847046
0.0891466
0.0935886
0.0980228
0.102466
0.106948
0.111515
0.116226
0.12116
0.126466
0.132304
0.138788
0.146072
0.154269
0.163436
0.173234
0.183055
0.192064
0.199569
0.204534
0.20542
0.200497
0.190609
0.177517
0.152123
0.122264
0.098266
0.0356071
0.0360011
0.0363906
0.0368329
0.0372881
0.0377904
0.0383078
0.0388703
0.0394437
0.0400544
0.0406637
0.0412938
0.041903
0.0425098
0.0430758
0.0436221
0.0441247
0.0446161
0.0450983
0.0456254
0.0462308
0.0469839
0.0479394
0.0491675
0.0507231
0.0526594
0.0550095
0.0577849
0.0609732
0.064544
0.0684484
0.0726419
0.0770755
0.0816989
0.0864638
0.0913239
0.0962441
0.101207
0.106202
0.11123
0.116297
0.121428
0.126698
0.132197
0.13798
0.144174
0.150922
0.158386
0.166438
0.174724
0.182669
0.189753
0.194949
0.196547
0.192638
0.184004
0.172523
0.149264
0.121165
0.0996711
0.0348399
0.035271
0.0357021
0.03618
0.0366768
0.0372209
0.037788
0.0384056
0.0390452
0.0397342
0.0404384
0.0411832
0.0419292
0.0426972
0.0434452
0.0441909
0.0448983
0.0455875
0.046241
0.0468941
0.0475594
0.0482901
0.0491294
0.0501443
0.0513955
0.0529513
0.0548689
0.0571886
0.0599324
0.0630975
0.066675
0.0706334
0.0749461
0.0795701
0.0844545
0.0895437
0.0947828
0.100127
0.10553
0.110948
0.116335
0.121653
0.126905
0.132103
0.137247
0.142433
0.147809
0.153614
0.159882
0.16647
0.173073
0.179388
0.184508
0.18665
0.183797
0.176744
0.167364
0.146661
0.120557
0.101602
0.0336867
0.0342175
0.0347444
0.0353197
0.035905
0.036536
0.037182
0.0378774
0.0385916
0.0393589
0.0401459
0.0409857
0.0418415
0.0427404
0.0436423
0.0445666
0.0454742
0.0463792
0.0472525
0.048115
0.0489605
0.0498238
0.0507298
0.0517318
0.0528825
0.0542506
0.0559016
0.0578929
0.0602689
0.0630592
0.0662744
0.0699223
0.0739948
0.0784688
0.0833036
0.0884451
0.0938304
0.099398
0.105073
0.110776
0.116412
0.121889
0.12714
0.132109
0.136744
0.141112
0.145361
0.149762
0.154462
0.159487
0.164775
0.17025
0.175162
0.17775
0.175975
0.170598
0.16341
0.145235
0.120925
0.104209
0.0329881
0.0335559
0.0341241
0.0347354
0.0353619
0.0360329
0.0367236
0.0374642
0.0382274
0.0390463
0.0398904
0.0407948
0.0417263
0.0427168
0.0437299
0.0447904
0.04586
0.0469536
0.048037
0.0491237
0.0501943
0.051268
0.0523519
0.0534814
0.0546939
0.0560479
0.0576051
0.0594259
0.0615667
0.0640702
0.0669805
0.0703185
0.0741098
0.0783516
0.0830219
0.0880772
0.0934581
0.0990964
0.104903
0.11077
0.116571
0.122165
0.127429
0.132251
0.136538
0.140334
0.143771
0.147139
0.150635
0.154412
0.158603
0.163338
0.168048
0.171017
0.170204
0.166408
0.161243
0.145204
0.122244
0.107275
0.0318598
0.0325298
0.0331964
0.0339081
0.034626
0.0353864
0.0361568
0.0369735
0.0378052
0.0386902
0.0395965
0.0405647
0.0415626
0.042628
0.0437279
0.0448929
0.0460886
0.0473339
0.0485949
0.0498837
0.0511746
0.0524769
0.0537842
0.0551159
0.056493
0.057959
0.0595631
0.0613594
0.0634028
0.0657473
0.0684382
0.0715288
0.0750583
0.0790497
0.0835012
0.088386
0.0936552
0.0992451
0.105061
0.110984
0.116866
0.122534
0.127824
0.132581
0.136688
0.140167
0.14314
0.14588
0.148601
0.151529
0.154953
0.159166
0.163754
0.167073
0.167124
0.164685
0.161164
0.146721
0.12457
0.110818
0.0312365
0.0319408
0.0326445
0.0333883
0.0341433
0.0349399
0.035751
0.0366088
0.0374841
0.0384127
0.0393641
0.0403782
0.0414244
0.0425429
0.0437035
0.0449416
0.0462267
0.0475829
0.0489794
0.0504306
0.0519093
0.0534207
0.0549503
0.0565059
0.0580946
0.0597443
0.0614894
0.0633713
0.065437
0.0677324
0.0703186
0.0732441
0.076572
0.0803411
0.0845687
0.0892464
0.0943407
0.0997995
0.105533
0.111422
0.117311
0.12301
0.128332
0.133096
0.137168
0.140562
0.143375
0.145863
0.148214
0.150689
0.153685
0.157617
0.162202
0.165843
0.16657
0.165202
0.162906
0.149456
0.127607
0.114564
0.0302642
0.0310466
0.0318259
0.0326485
0.0334763
0.0343471
0.035226
0.0361518
0.0370895
0.0380802
0.0390884
0.0401592
0.0412588
0.0424323
0.0436488
0.0449489
0.0463044
0.047745
0.0492436
0.050819
0.0524464
0.0541313
0.0558562
0.0576226
0.0594277
0.0612872
0.0632211
0.0652566
0.0674271
0.0697747
0.0723435
0.0751977
0.0783997
0.082002
0.0860373
0.0905135
0.0954136
0.100701
0.106297
0.112091
0.117933
0.12363
0.128987
0.133815
0.137973
0.141465
0.144378
0.146928
0.149256
0.151631
0.154517
0.158404
0.163101
0.167053
0.168333
0.167745
0.166235
0.153256
0.131287
0.118545
0.0292791
0.0301354
0.0309897
0.0318873
0.0327893
0.0337341
0.034685
0.0356816
0.0366868
0.0377427
0.0388124
0.0399416
0.0410961
0.0423226
0.0435905
0.0449435
0.0463556
0.0478608
0.0494354
0.0511035
0.0528434
0.0546636
0.0565473
0.0584937
0.060495
0.0625586
0.0646934
0.0669137
0.0692399
0.0716971
0.0743324
0.0771901
0.0803417
0.0838426
0.0877352
0.0920402
0.0967555
0.10186
0.107293
0.112957
0.118715
0.124386
0.129778
0.134704
0.139028
0.142752
0.145943
0.148782
0.151345
0.153887
0.156908
0.16094
0.165851
0.170095
0.171757
0.171693
0.170621
0.157672
0.135294
0.12253
0.0282413
0.0291688
0.0300969
0.0310688
0.0320451
0.0330644
0.0340886
0.0351581
0.036234
0.0373596
0.0384957
0.0396897
0.0409053
0.0421906
0.0435145
0.0449219
0.0463881
0.0479498
0.0495863
0.0513258
0.0531507
0.0550735
0.0570803
0.0591715
0.0613377
0.0635827
0.0659074
0.068316
0.0708164
0.0734265
0.0761676
0.079092
0.0822566
0.0857191
0.0895264
0.0937068
0.09827
0.10321
0.10848
0.114005
0.119664
0.125296
0.130721
0.135768
0.140308
0.144345
0.147933
0.151211
0.15419
0.15709
0.160432
0.164754
0.169954
0.174485
0.176453
0.17671
0.175786
0.162572
0.13961
0.12661
0.027293
0.0282835
0.0292762
0.0303135
0.0313559
0.0324422
0.0335338
0.0346705
0.0358131
0.0370039
0.0382036
0.0394587
0.0407327
0.0420735
0.0434497
0.0449075
0.0464223
0.048033
0.0497207
0.0515168
0.0534069
0.0554077
0.0575085
0.0597126
0.0620119
0.0644089
0.0669004
0.0694841
0.0721592
0.074926
0.0778104
0.0808354
0.0840614
0.0875385
0.0913131
0.0954171
0.099868
0.104672
0.109798
0.115188
0.120747
0.126332
0.131787
0.136959
0.141734
0.14612
0.150155
0.153948
0.157434
0.160803
0.164572
0.169276
0.174822
0.179626
0.181791
0.182227
0.181281
0.167596
0.143996
0.1306
0.0263513
0.0274
0.0284527
0.0295509
0.0306548
0.0318036
0.0329576
0.0341577
0.0353632
0.0366178
0.0378801
0.039198
0.0405329
0.0419337
0.0433672
0.04488
0.0464471
0.0481082
0.0498454
0.0516923
0.0536373
0.0557003
0.0578745
0.0601665
0.0625709
0.0650909
0.0677226
0.0704594
0.0732934
0.076223
0.0792478
0.0823992
0.0857176
0.0892491
0.0930367
0.0971117
0.101496
0.106202
0.111214
0.116491
0.12196
0.127503
0.132986
0.13828
0.14329
0.148026
0.152522
0.156852
0.160887
0.16478
0.169041
0.174184
0.180104
0.185187
0.187537
0.188069
0.186978
0.172736
0.148513
0.134645
0.0254774
0.0265802
0.0276876
0.0288417
0.0300023
0.0312094
0.0324224
0.0336824
0.034948
0.0362624
0.0375841
0.0389602
0.0403519
0.041808
0.0432947
0.0448592
0.0464758
0.0481853
0.0499695
0.0518638
0.0538579
0.055974
0.0582085
0.060571
0.0630589
0.0656779
0.0684246
0.0712916
0.0742676
0.077339
0.0805127
0.0837924
0.0872208
0.0908333
0.0946674
0.0987513
0.103107
0.107754
0.112683
0.117871
0.123266
0.128772
0.13428
0.139684
0.144909
0.149972
0.154901
0.159746
0.164316
0.168735
0.1735
0.179102
0.185418
0.190776
0.193261
0.19385
0.192591
0.177752
0.152983
0.138594
0.0245357
0.0256961
0.0268617
0.0280749
0.0292942
0.0305611
0.0318335
0.0331544
0.0344804
0.0358571
0.03724
0.0386788
0.040132
0.0416496
0.0431961
0.044819
0.0464916
0.0482546
0.05009
0.0520338
0.0540766
0.0562427
0.0585305
0.0609525
0.0635093
0.0662094
0.0690511
0.072027
0.0751237
0.07833
0.0816301
0.085041
0.0885854
0.0922948
0.0962004
0.100325
0.104688
0.109313
0.114195
0.119323
0.124665
0.130145
0.135677
0.141178
0.146594
0.151948
0.157269
0.162586
0.16766
0.172584
0.177848
0.183912
0.190628
0.196278
0.198933
0.19958
0.198141
0.182738
0.157517
0.142627
0.0236021
0.0248215
0.0260459
0.0273186
0.0285974
0.0299249
0.0312579
0.03264
0.0340271
0.0354646
0.036908
0.0384066
0.0399188
0.0414948
0.0430984
0.0447776
0.0465052
0.0483223
0.0502099
0.0522048
0.0542975
0.0565133
0.0588521
0.0613286
0.0639459
0.0667152
0.0696367
0.072705
0.0759068
0.0792218
0.0826488
0.0861779
0.0898388
0.0936525
0.0976435
0.101829
0.106226
0.110856
0.115719
0.120813
0.126121
0.131586
0.137139
0.142721
0.148296
0.153895
0.159548
0.165276
0.170796
0.17618
0.18191
0.188422
0.195543
0.20149
0.2043
0.205027
0.20346
0.18753
0.16197
0.146603
0.0225727
0.0238537
0.0251404
0.0264764
0.0278179
0.0292091
0.030605
0.0320514
0.033502
0.035005
0.0365127
0.0380775
0.0396549
0.0412969
0.0429654
0.0447089
0.046499
0.0483768
0.0503228
0.0523737
0.0545203
0.0567883
0.0591791
0.0617088
0.0643826
0.0672141
0.0702059
0.0733539
0.0766448
0.0800653
0.0835938
0.087238
0.0910108
0.0949304
0.0990159
0.103278
0.10773
0.112391
0.117262
0.122348
0.127643
0.133104
0.138679
0.144328
0.150032
0.155832
0.161765
0.167845
0.173756
0.179555
0.185721
0.192664
0.200184
0.20645
0.209477
0.21032
0.208665
0.192279
0.166483
0.150693
0.0215408
0.0228823
0.0242298
0.025628
0.0270322
0.0284875
0.0299481
0.0314599
0.032976
0.0345442
0.0361171
0.0377465
0.0393879
0.0410937
0.042825
0.0446315
0.0464836
0.0484232
0.0504295
0.0525396
0.0547436
0.0570675
0.059513
0.0620973
0.0648272
0.0677182
0.0707751
0.0739959
0.0773692
0.080875
0.0845081
0.0882532
0.0921322
0.0961557
0.100338
0.104684
0.109203
0.11391
0.118807
0.123904
0.1292
0.134666
0.140262
0.145963
0.151765
0.157721
0.163874
0.170242
0.17648
0.18264
0.189199
0.196551
0.204471
0.211064
0.214307
0.215309
0.213641
0.196854
0.170927
0.154733
0.020415
0.0218182
0.0232287
0.0246916
0.0261604
0.0276822
0.0292086
0.0307884
0.0323719
0.03401
0.0356518
0.0373524
0.0390643
0.0408419
0.0426441
0.0445214
0.0464432
0.0484511
0.050524
0.0526987
0.0549652
0.0573494
0.0598536
0.0624958
0.0652839
0.0682353
0.0713565
0.0746468
0.0780954
0.0816898
0.0854062
0.0892505
0.0932289
0.0973531
0.101633
0.106069
0.110664
0.115433
0.120372
0.125496
0.130809
0.136289
0.141908
0.14765
0.153526
0.1596
0.165928
0.172532
0.179047
0.185524
0.192446
0.200186
0.208498
0.215443
0.21897
0.220176
0.21854
0.201426
0.175456
0.158899
0.0193236
0.0207858
0.0222558
0.0237796
0.0253104
0.0268957
0.0284868
0.0301324
0.0317823
0.033487
0.0351961
0.0369638
0.0387429
0.0405879
0.0424575
0.0444028
0.0463924
0.0484688
0.0506094
0.0528515
0.0551841
0.0576332
0.060201
0.0629057
0.0657564
0.0687715
0.0719584
0.0753185
0.0788423
0.0825106
0.0863195
0.0902512
0.0943248
0.0985457
0.102921
0.107446
0.112121
0.116956
0.121947
0.127107
0.132445
0.137945
0.143583
0.149355
0.15528
0.161439
0.167894
0.174683
0.181423
0.188171
0.195418
0.203526
0.21223
0.219534
0.223347
0.224797
0.223266
0.205871
0.179949
0.163033
0.0181746
0.0196955
0.0212255
0.0228109
0.0244031
0.0260518
0.0277062
0.0294174
0.0311329
0.0329064
0.034684
0.0365232
0.0383739
0.0402927
0.0422359
0.0442557
0.0463195
0.0484698
0.0506835
0.0529977
0.0554014
0.0579201
0.0605565
0.063329
0.066247
0.0693297
0.0725858
0.0760169
0.079614
0.0833664
0.087251
0.091273
0.0954377
0.099752
0.104221
0.108837
0.113595
0.118503
0.123553
0.128759
0.13413
0.139655
0.145313
0.151107
0.157065
0.163281
0.169834
0.17677
0.1837
0.190687
0.198235
0.206695
0.215785
0.22347
0.227633
0.229365
0.227978
0.210365
0.184566
0.167319
0.0170695
0.018647
0.020234
0.0218779
0.0235296
0.0252395
0.0269563
0.0287312
0.0305115
0.0323501
0.0341942
0.0361001
0.0380183
0.0400054
0.0420177
0.0441081
0.0462433
0.0484665
0.0507536
0.0531421
0.0556198
0.0582123
0.0609221
0.0637672
0.0667575
0.0699127
0.0732418
0.0767481
0.0804232
0.0842499
0.0882243
0.0923292
0.0965828
0.100988
0.105547
0.110251
0.115091
0.120071
0.125183
0.130437
0.135844
0.141394
0.147068
0.152875
0.158849
0.165098
0.171714
0.178763
0.185844
0.193034
0.200854
0.209652
0.219128
0.227199
0.231711
0.233758
0.232569
0.214778
0.189169
0.17158
0.0158996
0.0175355
0.0191822
0.0208874
0.0226005
0.0243736
0.0261534
0.0279938
0.0298395
0.0317469
0.0336592
0.0356369
0.0376271
0.0396888
0.041776
0.0439428
0.046155
0.0484558
0.0508205
0.053287
0.0558427
0.0585129
0.0613001
0.0642224
0.0672898
0.0705225
0.07393
0.0775152
0.0812699
0.0851842
0.0892348
0.0934288
0.09777
0.102265
0.106914
0.111706
0.116629
0.121684
0.12686
0.132165
0.137611
0.143188
0.148878
0.154692
0.160671
0.166936
0.173597
0.180734
0.187944
0.195317
0.203394
0.212516
0.222373
0.23085
0.235771
0.238161
0.237194
0.219285
0.193888
0.176002
0.0147853
0.016478
0.0181819
0.0199456
0.0217182
0.0235524
0.0253945
0.0272983
0.0292085
0.0311807
0.0331592
0.0352034
0.0372611
0.0393914
0.0415485
0.0437873
0.046073
0.0484498
0.0508919
0.0534375
0.0560733
0.0588243
0.0616928
0.0646967
0.0678461
0.0711615
0.0746518
0.0783213
0.0821616
0.0861553
0.0902999
0.0945778
0.099008
0.103592
0.10833
0.113207
0.11821
0.123338
0.128575
0.13393
0.139413
0.145014
0.150715
0.156528
0.162499
0.168763
0.175444
0.182646
0.189958
0.197487
0.205798
0.215235
0.225475
0.234358
0.239684
0.242445
0.241735
0.223745
0.198576
0.18041
0.0136189
0.0153698
0.017133
0.0189575
0.0207908
0.0226874
0.0245918
0.0265602
0.0285353
0.0305755
0.0326221
0.0347377
0.0368676
0.0390728
0.0413057
0.0436222
0.0459867
0.0484436
0.0509667
0.0535944
0.0563133
0.0591482
0.0621014
0.0651909
0.0684265
0.0718288
0.0754072
0.0791649
0.0830933
0.0871824
0.0914095
0.0957811
0.100302
0.104976
0.109804
0.114767
0.119851
0.125052
0.130352
0.135757
0.141277
0.146901
0.15261
0.158418
0.164373
0.170624
0.177315
0.184567
0.191967
0.199642
0.208178
0.21792
0.228537
0.237843
0.243628
0.246786
0.246341
0.228318
0.203399
0.184989
0.0124915
0.0142998
0.0161207
0.0180044
0.0198979
0.0218564
0.0238241
0.0258568
0.0278973
0.0300033
0.0321171
0.0343004
0.036499
0.0387742
0.0410785
0.0434688
0.0459091
0.0484446
0.0510482
0.0537591
0.0565629
0.0594843
0.0625255
0.065704
0.0690299
0.0725238
0.0761948
0.0800468
0.0840708
0.0882496
0.0925791
0.097042
0.101657
0.106423
0.111341
0.116389
0.121552
0.126822
0.132181
0.137632
0.143184
0.148826
0.154537
0.16033
0.166259
0.172482
0.179167
0.18645
0.193919
0.201718
0.21046
0.2205
0.231498
0.241225
0.247462
0.251042
0.250887
0.232854
0.208227
0.189543
0.0112874
0.0131555
0.0150378
0.0169843
0.0189407
0.020964
0.0229963
0.0250962
0.0272041
0.0293806
0.0315651
0.0338223
0.0360956
0.0384484
0.0408313
0.043302
0.0458243
0.0484431
0.0511317
0.053929
0.0568208
0.0598317
0.0629641
0.0662354
0.0696557
0.073246
0.0770153
0.0809666
0.0850903
0.0893754
0.093797
0.0983623
0.103074
0.107936
0.112946
0.118082
0.123325
0.128666
0.134083
0.13958
0.145162
0.150818
0.156527
0.162301
0.168196
0.174384
0.181053
0.188358
0.195888
0.203805
0.212748
0.223077
0.234451
0.244615
0.251353
0.255381
0.255524
0.237513
0.213217
0.194249
0.010122
0.0120487
0.01399
0.0159971
0.0180154
0.020102
0.0221994
0.0243654
0.0265409
0.0287854
0.0310394
0.0333666
0.0357114
0.0381369
0.0405944
0.0431422
0.0457439
0.0484453
0.0512189
0.0541042
0.0570864
0.0601898
0.063417
0.0667852
0.0703047
0.0739966
0.0778691
0.0819262
0.0861571
0.0905424
0.0950776
0.0997433
0.104558
0.109519
0.114623
0.119846
0.125168
0.130577
0.136048
0.141584
0.14719
0.152854
0.158552
0.164298
0.170149
0.176288
0.182927
0.190237
0.197812
0.205829
0.214957
0.22557
0.237324
0.247922
0.255152
0.259653
0.260121
0.242149
0.218224
0.198904
0.00888631
0.0108724
0.0128753
0.0149452
0.017027
0.0191788
0.0213418
0.0235758
0.0258199
0.0281363
0.0304628
0.032866
0.035288
0.037794
0.0403333
0.0429655
0.0456535
0.0484432
0.0513068
0.0542842
0.0573606
0.0605602
0.063886
0.0673552
0.0709782
0.074776
0.0787574
0.0829247
0.0872664
0.0917698
0.0964085
0.101187
0.106109
0.111173
0.116376
0.12169
0.127092
0.132571
0.138096
0.143671
0.149297
0.154964
0.160647
0.166358
0.172158
0.17824
0.184839
0.192148
0.199763
0.207876
0.217185
0.228075
0.240206
0.251252
0.259018
0.264019
0.264824
0.246929
0.223409
0.203685
0.00767754
0.00972296
0.0117868
0.0139193
0.0160656
0.0182835
0.020514
0.0228163
0.02513
0.0275163
0.029914
0.0323891
0.0348853
0.037467
0.040085
0.0427986
0.0455713
0.0484488
0.0514032
0.0544746
0.0576476
0.0609465
0.0643744
0.0679483
0.0716787
0.0755873
0.0796818
0.0839656
0.0884259
0.0930419
0.0978058
0.102696
0.10773
0.112902
0.118205
0.123611
0.129094
0.134639
0.140215
0.145822
0.151462
0.157123
0.162781
0.168446
0.174183
0.180194
0.18674
0.194031
0.201671
0.209863
0.219337
0.230501
0.243014
0.254506
0.262799
0.268325
0.269494
0.251699
0.228626
0.208374
0.00645697
0.00855683
0.0106797
0.0128775
0.0150869
0.017371
0.0196669
0.0220385
0.0244183
0.0268751
0.0293433
0.0318941
0.0344678
0.0371315
0.0398336
0.0426344
0.0454966
0.048466
0.0515144
0.0546823
0.0579544
0.0613549
0.0648874
0.068569
0.0724105
0.0764336
0.0806466
0.0850511
0.0896338
0.0943793
0.0992573
0.104272
0.109422
0.114707
0.120116
0.125618
0.131185
0.136798
0.142425
0.148062
0.153713
0.159362
0.164987
0.1706
0.176265
0.182198
0.188679
0.195945
0.203606
0.211875
0.221511
0.232941
0.245833
0.257787
0.266649
0.272726
0.274275
0.25662
0.234044
0.213179
0.00553422
0.00767668
0.00984063
0.0120781
0.0143283
0.0166543
0.0189947
0.0214124
0.0238423
0.0263514
0.0288764
0.0314867
0.0341252
0.036857
0.0396326
0.0425111
0.0454559
0.0485125
0.0516522
0.0549155
0.0582869
0.0617903
0.0654295
0.0692216
0.0731774
0.0773194
0.0816544
0.0861852
0.0908968
0.0957644
0.100779
0.105915
0.111188
0.11659
0.122108
0.127707
0.133357
0.139038
0.144711
0.150373
0.156026
0.161655
0.167237
0.172783
0.178364
0.184202
0.190603
0.197829
0.205496
0.213823
0.223606
0.235301
0.248578
0.260993
0.270413
0.277067
0.279021
0.261531
0.239508
0.217988
0.00430489
0.00652237
0.00876127
0.0110753
0.0133988
0.0157988
0.0182095
0.0206993
0.023198
0.0257794
0.0283752
0.0310609
0.0337746
0.0365861
0.0394422
0.0424051
0.0454364
0.0485831
0.0518156
0.0551758
0.0586475
0.0622552
0.0660031
0.0699082
0.0739815
0.0782452
0.0827068
0.0873671
0.0922103
0.0972181
0.102357
0.107629
0.11303
0.118553
0.124186
0.129888
0.135625
0.141374
0.147094
0.15278
0.15843
0.164031
0.169561
0.175034
0.180519
0.186256
0.192564
0.199743
0.20741
0.215792
0.22572
0.237671
0.251333
0.264225
0.274245
0.281502
0.283878
0.266594
0.245167
0.223059
0.00328544
0.00556247
0.00786014
0.0102321
0.0126137
0.015072
0.0175418
0.0200909
0.0226502
0.0252925
0.0279507
0.0307001
0.0334802
0.0363611
0.0392903
0.0423309
0.0454444
0.0486784
0.0520029
0.0554602
0.0590338
0.0627479
0.066607
0.070628
0.0748218
0.0792113
0.083803
0.0885988
0.0935811
0.0987223
0.10401
0.109414
0.114948
0.120599
0.126348
0.132155
0.137979
0.143795
0.149559
0.155261
0.160901
0.166463
0.171931
0.177311
0.18269
0.188303
0.194507
0.201619
0.209272
0.217689
0.227746
0.239953
0.254007
0.267378
0.277989
0.285876
0.288697
0.271647
0.25085
0.228187
0.00196741
0.00432409
0.00670254
0.00915843
0.011622
0.014164
0.0167147
0.0193464
0.0219856
0.0247099
0.0274485
0.0302808
0.0331432
0.036109
0.0391235
0.0422522
0.0454559
0.0487832
0.0522043
0.0557622
0.0594407
0.0632642
0.0672377
0.071378
0.0756963
0.080216
0.0849434
0.0898791
0.0950042
0.100297
0.10572
0.111272
0.116945
0.122728
0.128601
0.134517
0.140432
0.146318
0.152125
0.157843
0.163467
0.168983
0.174375
0.179656
0.184914
0.1904
0.19649
0.203523
0.211151
0.219601
0.229783
0.242238
0.256684
0.270555
0.281795
0.290339
0.293624
0.276852
0.256708
0.23356
0.000868048
0.00328122
0.00571703
0.00823172
0.0107558
0.0133606
0.0159762
0.0186744
0.021382
0.0241759
0.0269857
0.0298905
0.0328278
0.0358709
0.0389662
0.0421794
0.0454721
0.0488931
0.0524125
0.0560738
0.0598609
0.0637976
0.0678899
0.072154
0.0766019
0.0812571
0.0861251
0.0912074
0.0964837
0.101921
0.107506
0.113202
0.119021
0.124942
0.130942
0.136969
0.142976
0.148929
0.154776
0.160503
0.166103
0.171561
0.176866
0.182028
0.187152
0.192487
0.198449
0.205387
0.212971
0.22143
0.231723
0.244426
0.259272
0.273646
0.285509
0.294737
0.298511
0.282047
0.262565
0.238966
-0.000505204
0.00198134
0.00449308
0.00708734
0.00969112
0.0123784
0.0150757
0.0178588
0.0206499
0.0235306
0.0264262
0.0294205
0.0324467
0.0355822
0.03877
0.0420791
0.0454695
0.0489918
0.0526157
0.056386
0.0602865
0.0643416
0.0685576
0.072951
0.0775338
0.0823299
0.0873449
0.0925793
0.0980105
0.103614
0.109347
0.115205
0.121177
0.127243
0.133376
0.13952
0.145623
0.151646
0.157534
0.163267
0.168838
0.17423
0.179434
0.184469
0.189445
0.194624
0.200452
0.207277
0.214802
0.223266
0.233665
0.24661
0.261857
0.276757
0.289281
0.29922
0.303506
0.287395
0.268579
0.244606
-0.00164845
0.000891304
0.00345672
0.00610633
0.00876719
0.0115146
0.0142745
0.017123
0.0199822
0.0229335
0.0259019
0.0289718
0.0320765
0.0352943
0.0385683
0.0419685
0.045455
0.0490791
0.0528099
0.0566928
0.0607116
0.0648901
0.0692356
0.0737638
0.0784873
0.0834306
0.0885988
0.0939928
0.0995899
0.105353
0.111264
0.117282
0.123414
0.12963
0.135901
0.142164
0.148364
0.154457
0.160381
0.166115
0.171647
0.176961
0.182052
0.186937
0.191751
0.196748
0.202429
0.209119
0.216563
0.225008
0.235497
0.248686
0.264344
0.279776
0.292958
0.303634
0.308459
0.292723
0.274572
0.250277
-0.00304464
-0.000432996
0.00220508
0.0049303
0.00766589
0.0104906
0.0133272
0.0162558
0.0191947
0.0222299
0.025283
0.0284422
0.0316376
0.0349504
0.0383214
0.0418229
0.0454139
0.0491468
0.0529905
0.0569914
0.0611334
0.0654405
0.0699205
0.0745893
0.0794594
0.0845563
0.089885
0.095446
0.101214
0.107159
0.113235
0.119432
0.125731
0.132106
0.138522
0.144911
0.151213
0.157378
0.163339
0.169072
0.17456
0.179787
0.184751
0.189479
0.194113
0.198927
0.204451
0.210987
0.218327
0.226744
0.237321
0.250747
0.266819
0.282808
0.296688
0.308125
0.313525
0.298178
0.280735
0.256187
-0.00425336
-0.00158546
0.00110896
0.0038921
0.00668657
0.00957301
0.0124728
0.0154675
0.0184744
0.0215805
0.0247064
0.027942
0.0312169
0.0346141
0.038074
0.0416705
0.0453624
0.049203
0.0531604
0.057282
0.061551
0.0659912
0.0706109
0.0754256
0.0804484
0.0857056
0.0912015