/*--------------------------------*- C++ -*----------------------------------*\
  =========                 |
  \\      /  F ield         | OpenFOAM: The Open Source CFD Toolbox
   \\    /   O peration     | Website:  https://openfoam.org
    \\  /    A nd           | Version:  6.0
     \\/     M anipulation  |
\*---------------------------------------------------------------------------*/
FoamFile
{
    version     2.0;
    format      ascii;
    class       surfaceScalarField;
    location    "18";
    object      phi;
}
// * * * * * * * * * * * * * * * * * * * * * * * * * * * * * * * * * * * * * //

dimensions      [0 3 -1 0 0 0 0];

internalField   nonuniform List<scalar> 
123526
(
-0.000157285
2.63829e-05
0.000157741
-0.000156811
2.8546e-05
-0.000156312
3.08904e-05
-0.00015578
3.34267e-05
-0.000155207
3.6172e-05
-0.000154593
3.91439e-05
-0.000153922
4.23618e-05
-0.000153202
4.58467e-05
-0.000152406
4.96211e-05
-0.00015155
5.371e-05
-0.000150602
5.81423e-05
-0.00014958
6.29472e-05
-0.00014845
6.81584e-05
-0.000147226
7.38087e-05
-0.000145878
7.99392e-05
-0.000144416
8.65965e-05
-0.000142822
9.38246e-05
-0.000141081
0.000101667
-0.000139188
0.000110187
-0.000137127
0.00011945
-0.00013489
0.000129506
-0.000132446
0.000140438
-0.000129806
0.000152332
-0.000126913
0.000165248
-0.000123783
0.000179312
-0.000120369
0.000194606
-0.000116661
0.000211242
-0.000112622
0.000229356
-0.000108228
0.000249052
-0.000103437
0.000270508
-9.82233e-05
0.000293835
-9.25604e-05
0.000319233
-8.64016e-05
0.000346847
-7.97088e-05
0.000376868
-7.24441e-05
0.000409486
-6.45474e-05
0.000444857
-5.59916e-05
0.000483202
-4.67236e-05
0.000524662
-3.66843e-05
0.000569389
-2.58334e-05
0.000617511
-1.41063e-05
0.000669078
-1.43034e-06
0.000724062
1.22736e-05
0.000782341
2.70948e-05
0.000843615
4.31556e-05
0.000907367
6.05649e-05
0.000972797
7.94218e-05
0.00103876
9.97129e-05
0.00110376
0.000121284
0.00116598
0.000143815
0.00122321
0.000166965
0.00127248
0.000190466
0.00130927
0.000214337
0.00132684
0.000238222
0.00131674
0.000261588
0.00126905
0.000283586
0.00117214
0.00030324
0.00101112
0.000323906
0.000772552
0.000252053
0.000459639
-0.000295258
7.92197e-05
-0.000154253
2.59221e-05
0.00015469
-0.000153754
2.80559e-05
-0.000153242
3.03679e-05
-0.000152681
3.28715e-05
-0.000152099
3.55829e-05
-0.00015147
3.85189e-05
-0.00015081
4.16982e-05
-0.000150102
4.51411e-05
-0.00014935
4.88679e-05
-0.000148542
5.29027e-05
-0.000147675
5.7274e-05
-0.000146739
6.20096e-05
-0.000145726
6.71417e-05
-0.000144622
7.27004e-05
-0.000143417
7.87266e-05
-0.000142101
8.52712e-05
-0.000140664
9.2374e-05
-0.000139083
0.000100071
-0.000137351
0.000108436
-0.000135453
0.000117533
-0.000133372
0.000127401
-0.000131084
0.000138129
-0.00012859
0.000149812
-0.000125845
0.000162479
-0.000122851
0.00017629
-0.000119574
0.0001913
-0.000115992
0.000207627
-0.000112084
0.000225413
-0.000107807
0.000244742
-0.000103142
0.00026581
-9.80421e-05
0.000288705
-9.24923e-05
0.000313646
-8.6444e-05
0.000340756
-7.98558e-05
0.000370236
-7.26916e-05
0.000402277
-6.48884e-05
0.00043701
-5.64203e-05
0.000474691
-4.72317e-05
0.000515433
-3.72651e-05
0.000559382
-2.64781e-05
0.000606685
-1.48078e-05
0.00065737
-2.18185e-06
0.000711395
1.14844e-05
0.000768633
2.62877e-05
0.000828759
4.23418e-05
0.000891251
5.9724e-05
0.00095532
7.84765e-05
0.00101987
9.85121e-05
0.00108351
0.000119624
0.00114456
0.000141514
0.00120088
0.000163954
0.00124945
0.0001868
0.00128562
0.000210162
0.00130264
0.00023369
0.00129203
0.000256785
0.00124413
0.000278582
0.0011477
0.000297888
0.00098809
0.000315692
0.000749165
0.000336776
0.000437575
-0.000319494
0.000359647
-0.000151898
2.54672e-05
0.000152347
-0.000151381
2.75629e-05
-0.000150856
2.98317e-05
-0.000150261
3.22915e-05
-0.000149647
3.49586e-05
-0.000148967
3.78502e-05
-0.000148262
4.09847e-05
-0.000147496
4.43822e-05
-0.000146695
4.80618e-05
-0.000145837
5.20464e-05
-0.000144932
5.63645e-05
-0.000143966
6.1042e-05
-0.000142939
6.61099e-05
-0.000141839
7.15939e-05
-0.000140655
7.75354e-05
-0.00013938
8.39871e-05
-0.000138002
9.09854e-05
-0.000136499
9.85571e-05
-0.000134861
0.000106785
-0.000133074
0.000115732
-0.000131115
0.000125426
-0.000128962
0.000135961
-0.000126609
0.00014744
-0.000124014
0.000159866
-0.000121174
0.000173428
-0.000118056
0.00018816
-0.000114635
0.000204181
-0.000110891
0.000221641
-0.000106779
0.000240602
-0.000102277
0.000261287
-9.73422e-05
0.000283747
-9.19542e-05
0.000308231
-8.6065e-05
0.000334834
-7.96327e-05
0.000363769
-7.26175e-05
0.000395226
-6.49546e-05
0.000429312
-5.66144e-05
0.000466316
-4.75389e-05
0.000506322
-3.76681e-05
0.000549476
-2.69583e-05
0.00059594
-1.53474e-05
0.000645723
-2.76573e-06
0.000698774
1.08667e-05
0.00075496
2.5634e-05
0.000813942
4.162e-05
0.000875212
5.88561e-05
0.000938013
7.73313e-05
0.00100131
9.69209e-05
0.0010638
0.000117432
0.00112388
0.000138652
0.00117945
0.000160478
0.00122737
0.000182859
0.00126287
0.000205912
0.0012793
0.000229224
0.00126833
0.000252117
0.00122077
0.000273747
0.00112564
0.000292672
0.000969132
0.000310432
0.00073106
0.00032055
0.000428112
-0.000268434
0.000269965
-0.000149529
2.50632e-05
0.000149906
-0.000149073
2.71163e-05
-0.000148595
2.93381e-05
-0.000148044
3.17469e-05
-0.00014746
3.43604e-05
-0.000146799
3.71961e-05
-0.0001461
4.02734e-05
-0.000145324
4.36129e-05
-0.000144506
4.72331e-05
-0.00014361
5.11572e-05
-0.000142668
5.5414e-05
-0.000141649
6.00286e-05
-0.000140578
6.50307e-05
-0.000139423
7.04426e-05
-0.0001382
7.63049e-05
-0.000136887
8.26733e-05
-0.000135489
8.95788e-05
-0.000133976
9.70398e-05
-0.000132347
0.000105146
-0.000130584
0.000113961
-0.000128668
0.000123497
-0.000126575
0.000133858
-0.000124298
0.000145151
-0.000121797
0.000157351
-0.000119063
0.000170679
-0.000116066
0.000185146
-0.000112776
0.000200873
-0.000109176
0.000218018
-0.000105215
0.000236621
-0.000100875
0.000256929
-9.61057e-05
0.000278962
-9.08892e-05
0.000302994
-8.51753e-05
0.000329095
-7.892e-05
0.000357485
-7.20812e-05
0.000388357
-6.45911e-05
0.000421792
-5.64167e-05
0.000458111
-4.74966e-05
0.000497371
-3.77683e-05
0.000539715
-2.71859e-05
0.000585323
-1.56883e-05
0.000634191
-3.20765e-06
0.000686256
1.03246e-05
0.00074139
2.49699e-05
0.000799251
4.07809e-05
0.000859354
5.77526e-05
0.000920976
7.5845e-05
0.000983143
9.49298e-05
0.0010446
0.000114863
0.00110378
0.000135524
0.00115855
0.000156897
0.00120568
0.000178973
0.00124036
0.000201827
0.00125604
0.000224961
0.00124458
0.000247634
0.00119705
0.000269053
0.00110263
0.000287659
0.000948005
0.000303574
0.000710908
0.000317114
0.000413611
-0.000259899
0.000306902
-0.00014728
2.46892e-05
0.000147629
-0.000146853
2.67067e-05
-0.000146425
2.88897e-05
-0.000145918
3.12534e-05
-0.000145391
3.38161e-05
-0.000144778
3.65956e-05
-0.000144129
3.96118e-05
-0.000143391
4.28863e-05
-0.000142605
4.64373e-05
-0.000141727
5.02889e-05
-0.000140792
5.44712e-05
-0.000139764
5.90092e-05
-0.000138673
6.39325e-05
-0.000137487
6.92608e-05
-0.000136226
7.50353e-05
-0.000134866
8.13146e-05
-0.000133422
8.81256e-05
-0.000131863
9.54778e-05
-0.000130194
0.000103468
-0.000128398
0.00011216
-0.000126462
0.000121551
-0.000124362
0.00013175
-0.000122094
0.000142872
-0.000119617
0.000154864
-0.000116925
0.000167975
-0.000113987
0.000182194
-0.000110774
0.000197644
-0.000107264
0.000214492
-0.000103411
0.000232751
-9.91921e-05
0.000252698
-9.45588e-05
0.000274317
-8.94904e-05
0.000297909
-8.39359e-05
0.000323518
-7.78498e-05
0.000351374
-7.11877e-05
0.000381669
-6.38799e-05
0.000414457
-5.58899e-05
0.000450093
-4.71538e-05
0.000488606
-3.76064e-05
0.000530138
-2.71999e-05
0.000574885
-1.58731e-05
0.000622831
-3.55911e-06
0.000673906
9.79746e-06
0.000727996
2.42339e-05
0.000784771
3.97794e-05
0.000843765
5.64086e-05
0.000904293
7.40741e-05
0.000965421
9.26658e-05
0.00102593
0.000112096
0.00108425
0.000132318
0.00113822
0.000153364
0.00118451
0.000175228
0.00121831
0.000197919
0.00123328
0.000220859
0.00122153
0.000243273
0.00117454
0.00026442
0.00108152
0.000282751
0.00093015
0.000297457
0.000696332
0.000308312
0.000403798
-0.000244021
0.000293263
-0.000145523
2.42948e-05
0.000145899
-0.00014509
2.6284e-05
-0.000144651
2.84366e-05
-0.000144155
3.07641e-05
-0.000143639
3.32843e-05
-0.000143051
3.60148e-05
-0.000142429
3.89753e-05
-0.000141723
4.21876e-05
-0.00014097
4.56698e-05
-0.000140119
4.94462e-05
-0.000139209
5.35488e-05
-0.000138195
5.80025e-05
-0.000137112
6.28377e-05
-0.000135918
6.80722e-05
-0.000134643
7.37485e-05
-0.000133254
7.99289e-05
-0.000131776
8.66368e-05
-0.000130173
9.38741e-05
-0.000128459
0.000101745
-0.000126616
0.000110313
-0.000124635
0.000119561
-0.000122496
0.000129606
-0.000120198
0.000140565
-0.000117702
0.000152359
-0.000115003
0.000165268
-0.000112074
0.000179254
-0.000108884
0.000194442
-0.000105416
0.000211008
-0.000101621
0.000228942
-9.74771e-05
0.000248544
-9.29372e-05
0.000269767
-8.79788e-05
0.000292937
-8.25515e-05
0.000318072
-7.66087e-05
0.000345409
-7.01049e-05
0.000375141
-6.2969e-05
0.000407296
-5.51629e-05
0.000442261
-4.66201e-05
0.000480036
-3.72742e-05
0.000520763
-2.7075e-05
0.000564656
-1.59608e-05
0.000611684
-3.86466e-06
0.000661774
9.25701e-06
0.000714838
2.34224e-05
0.000770564
3.86467e-05
0.0008285
5.48987e-05
0.000887987
7.21383e-05
0.000948123
9.02819e-05
0.0010077
0.000109293
0.00106513
0.000129174
0.00111818
0.000149974
0.00116349
0.000171666
0.00119634
0.000194189
0.00121051
0.00021691
0.00119843
0.000239034
0.0011517
0.000259876
0.00105955
0.00027796
0.000910052
0.00029181
0.000678828
0.000301878
0.000392855
-0.000234747
0.000290839
-0.000144211
2.38581e-05
0.000144618
-0.000143734
2.5822e-05
-0.000143267
2.79479e-05
-0.000142738
3.02454e-05
-0.000142203
3.2731e-05
-0.000141599
3.54212e-05
-0.000140973
3.83352e-05
-0.000140269
4.1494e-05
-0.000139526
4.49147e-05
-0.000138691
4.86214e-05
-0.0001378
5.2647e-05
-0.000136805
5.70166e-05
-0.000135739
6.17611e-05
-0.000134557
6.68966e-05
-0.000133287
7.24675e-05
-0.000131895
7.85403e-05
-0.000130405
8.51361e-05
-0.000128781
9.22495e-05
-0.000127039
9.99927e-05
-0.00012516
0.000108431
-0.000123141
0.000117533
-0.000120962
0.000127421
-0.000118625
0.00013822
-0.000116095
0.000149822
-0.000113369
0.000162534
-0.000110421
0.000176297
-0.000107226
0.000191236
-0.000103764
0.000207534
-9.99903e-05
0.000225157
-9.58851e-05
0.000244431
-9.14006e-05
0.000265276
-8.65167e-05
0.00028804
-8.11825e-05
0.000312719
-7.53523e-05
0.000339557
-6.89803e-05
0.000368747
-6.19957e-05
0.000400288
-5.43591e-05
0.000434601
-4.60038e-05
0.000471655
-3.68618e-05
0.000511595
-2.6882e-05
0.000554647
-1.60014e-05
0.000600773
-4.15326e-06
0.000649892
8.69877e-06
0.000701952
2.25607e-05
0.000756662
3.74428e-05
0.00081358
5.33174e-05
0.000872065
7.01598e-05
0.000931237
8.79136e-05
0.000989885
0.000106581
0.00104639
0.000126192
0.0010985
0.000146788
0.00114282
0.000168308
0.00117471
0.000190628
0.0011882
0.000213084
0.00117598
0.000234886
0.00112994
0.000255385
0.00103927
0.000273235
0.000892852
0.000286579
0.000665777
0.000295832
0.000384936
-0.000222272
0.000284469
-0.000143051
2.33937e-05
0.000143497
-0.000142549
2.53295e-05
-0.000142042
2.74263e-05
-0.000141485
2.96935e-05
-0.000140915
3.2146e-05
-0.000140288
3.47997e-05
-0.000139641
3.76725e-05
-0.000138925
4.07847e-05
-0.000138177
4.41514e-05
-0.000137343
4.77961e-05
-0.000136463
5.17519e-05
-0.000135482
5.60433e-05
-0.000134435
6.0701e-05
-0.000133272
6.57394e-05
-0.000132022
7.12042e-05
-0.000130645
7.71666e-05
-0.000129166
8.36451e-05
-0.000127545
9.06284e-05
-0.0001258
9.8237e-05
-0.000123909
0.000106538
-0.000121873
0.000115487
-0.00011967
0.000125214
-0.000117306
0.000135848
-0.000114748
0.000147257
-0.000111995
0.000159774
-0.000109024
0.000173317
-0.000105811
0.000188014
-0.000102342
0.000204052
-9.8571e-05
0.000221376
-9.44812e-05
0.000240335
-9.00284e-05
0.000260816
-8.51921e-05
0.000283193
-7.9924e-05
0.000307434
-7.41793e-05
0.000333792
-6.79133e-05
0.000362459
-6.10565e-05
0.000393409
-5.35697e-05
0.000427091
-4.53865e-05
0.000463448
-3.64389e-05
0.000502621
-2.6675e-05
0.000544855
-1.60315e-05
0.000590099
-4.44135e-06
0.000638269
8.12817e-06
0.000689348
2.16799e-05
0.000743071
3.62248e-05
0.000798996
5.17446e-05
0.000856496
6.82321e-05
0.000914698
8.56535e-05
0.000972389
0.000104037
0.00102792
0.00012342
0.00107899
0.00014382
0.00112225
0.000165142
0.00115317
0.000187206
0.00116596
0.000209345
0.00115356
0.000230783
0.00110792
0.000250909
0.00101822
0.000268488
0.000873475
0.000281429
0.000649426
0.000290485
0.000375079
-0.000212434
0.000278888
-0.000141917
2.29171e-05
0.000142363
-0.000141396
2.48203e-05
-0.000140874
2.68831e-05
-0.000140289
2.91162e-05
-0.000139695
3.15335e-05
-0.000139037
3.41504e-05
-0.000138364
3.69837e-05
-0.000137623
4.0053e-05
-0.000136857
4.33713e-05
-0.000136012
4.69608e-05
-0.000135127
5.08546e-05
-0.000134151
5.50755e-05
-0.000133116
5.96538e-05
-0.000131971
6.46012e-05
-0.000130744
6.99645e-05
-0.000129394
7.58187e-05
-0.000127941
8.218e-05
-0.000126343
8.90311e-05
-0.000124619
9.65012e-05
-0.000122742
0.000104659
-0.000120714
0.000113449
-0.000118513
0.000123008
-0.000116145
0.000133472
-0.000113577
0.000144683
-0.000110813
0.000157002
-0.000107829
0.000170325
-0.000104605
0.00018478
-0.000101127
0.000200563
-9.73551e-05
0.000217595
-9.32737e-05
0.000236247
-8.88394e-05
0.000256377
-8.40358e-05
0.000278379
-7.88159e-05
0.000302198
-7.3137e-05
0.000328094
-6.69562e-05
0.000356258
-6.02061e-05
0.000386638
-5.28488e-05
0.000419711
-4.4819e-05
0.000455394
-3.60498e-05
0.000493827
-2.64893e-05
0.000535267
-1.60742e-05
0.000579656
-4.7382e-06
0.000626901
7.55273e-06
0.000677026
2.08038e-05
0.000729781
3.50317e-05
0.000784736
5.02283e-05
0.000841253
6.64045e-05
0.000898488
8.35409e-05
0.000955198
0.000101681
0.00100973
0.000120852
0.00105977
0.000141041
0.001102
0.00016212
0.00113202
0.00018387
0.00114426
0.000205631
0.00113187
0.000226662
0.001087
0.000246376
0.000998825
0.000263643
0.000856904
0.000276258
0.000637175
0.000285476
0.00036747
-0.000199964
0.000274412
-0.000140652
2.24495e-05
0.000141101
-0.00014014
2.43155e-05
-0.00013961
2.63393e-05
-0.000139023
2.85331e-05
-0.000138416
3.09104e-05
-0.000137747
3.34863e-05
-0.000137056
3.62774e-05
-0.000136299
3.93023e-05
-0.000135517
4.25729e-05
-0.000134658
4.61098e-05
-0.000133764
4.99459e-05
-0.000132783
5.41024e-05
-0.000131753
5.86085e-05
-0.000130618
6.34728e-05
-0.00012941
6.87422e-05
-0.000128083
7.4495e-05
-0.00012666
8.07443e-05
-0.000125096
8.74667e-05
-0.000123406
9.47995e-05
-0.000121562
0.000102813
-0.000119565
0.000111441
-0.000117389
0.000120829
-0.000115042
0.000131118
-0.000112491
0.000142125
-0.000109737
0.000154241
-0.00010676
0.000167341
-0.00010354
0.000181553
-0.000100067
0.00019708
-9.63026e-05
0.000213822
-9.22318e-05
0.000232173
-8.78165e-05
0.000251956
-8.30405e-05
0.000273593
-7.78605e-05
0.000297003
-7.22358e-05
0.000322451
-6.61262e-05
0.000350128
-5.94665e-05
0.000379958
-5.22211e-05
0.000412444
-4.43265e-05
0.000447477
-3.57181e-05
0.000485193
-2.6344e-05
0.000525867
-1.61426e-05
0.000569425
-5.04703e-06
0.000615775
6.97815e-06
0.000664966
1.99483e-05
0.000716775
3.38845e-05
0.00077076
4.87925e-05
0.0008263
6.46931e-05
0.000882536
8.15794e-05
0.000938243
9.9496e-05
0.00099173
0.000118453
0.0010407
0.000138404
0.00108189
0.000159193
0.00111103
0.000180574
0.00112273
0.000201913
0.00111029
0.000222506
0.00106591
0.000241794
0.000978735
0.000258706
0.000838325
0.000270967
0.00062164
0.000280507
0.000357244
-0.000192252
0.000271113
-0.000139289
2.19973e-05
0.00013971
-0.000138787
2.38237e-05
-0.000138274
2.5805e-05
-0.00013769
2.79556e-05
-0.000137087
3.02886e-05
-0.000136412
3.28194e-05
-0.000135715
3.55645e-05
-0.000134947
3.85422e-05
-0.000134152
4.17631e-05
-0.00013328
4.5247e-05
-0.000132374
4.90265e-05
-0.000131385
5.31214e-05
-0.00013035
5.75596e-05
-0.000129218
6.23464e-05
-0.000128018
6.75287e-05
-0.000126707
7.31874e-05
-0.000125308
7.93321e-05
-0.000123774
8.59325e-05
-0.00012212
9.31336e-05
-0.000120317
0.000101007
-0.000118361
0.000109476
-0.000116228
0.000118691
-0.000113921
0.000128803
-0.000111406
0.000139605
-0.000108686
0.000151514
-0.000105739
0.000164386
-0.000102545
0.000178351
-9.90957e-05
0.00019362
-9.53534e-05
0.000210071
-9.13068e-05
0.000228121
-8.69178e-05
0.000247564
-8.21743e-05
0.000268841
-7.70346e-05
0.000291849
-7.14609e-05
0.00031686
-6.54154e-05
0.000344064
-5.88362e-05
0.000373359
-5.16898e-05
0.000405277
-4.39157e-05
0.000439682
-3.54511e-05
0.000476705
-2.62463e-05
0.000516638
-1.62405e-05
0.000559393
-5.3685e-06
0.000604873
6.41041e-06
0.000653158
1.91212e-05
0.000704028
3.27929e-05
0.000757058
4.74399e-05
0.00081161
6.30928e-05
0.000866854
7.97476e-05
0.000921539
9.74454e-05
0.000973994
0.000116173
0.00102193
0.000135854
0.00106216
0.00015631
0.00109053
0.000177283
0.00110182
0.00019817
0.00108951
0.00021831
0.00104592
0.000237166
0.000960263
0.000253707
0.000822496
0.000265641
0.000610103
0.000275484
0.000349218
-0.000183679
0.000268548
-0.000137765
2.15698e-05
0.000138174
-0.00013729
2.33555e-05
-0.000136793
2.52929e-05
-0.000136231
2.73976e-05
-0.000135642
2.96831e-05
-0.000134982
3.21648e-05
-0.000134293
3.48595e-05
-0.000133531
3.77858e-05
-0.000132737
4.09531e-05
-0.000131863
4.43808e-05
-0.000130953
4.81017e-05
-0.000129959
5.21344e-05
-0.00012892
5.65058e-05
-0.000127786
6.1218e-05
-0.000126589
6.63177e-05
-0.000125286
7.18879e-05
-0.000123902
7.79347e-05
-0.00012239
8.44206e-05
-0.000120765
9.14972e-05
-0.000118998
9.92375e-05
-0.000117084
0.000107552
-0.000114997
0.0001166
-0.000112739
0.000126537
-0.000110274
0.000137134
-0.000107603
0.000148836
-0.000104704
0.000161478
-0.000101555
0.000175195
-9.81488e-05
0.000190203
-9.44478e-05
0.000206362
-9.04407e-05
0.00022411
-8.60928e-05
0.000243212
-8.13923e-05
0.000264132
-7.63003e-05
0.000286743
-7.07814e-05
0.000311323
-6.48e-05
0.000338065
-5.82977e-05
0.000366837
-5.1243e-05
0.000398203
-4.35791e-05
0.000431996
-3.52452e-05
0.000468349
-2.61943e-05
0.000507562
-1.63672e-05
0.000549538
-5.69974e-06
0.000594176
5.85245e-06
0.000641572
1.83265e-05
0.000691519
3.17559e-05
0.000743589
4.61651e-05
0.000797158
6.15856e-05
0.000851381
7.80175e-05
0.00090504
9.54899e-05
0.000956439
0.000113968
0.00100334
0.000133348
0.00104262
0.00015344
0.00107026
0.000173983
0.00108115
0.00019441
0.00106887
0.000214105
0.00102576
0.000232549
0.000941087
0.000248719
0.000804727
0.000260297
0.000595304
0.000270354
0.000338549
-0.000181117
0.000266199
-0.000136161
2.11636e-05
0.000136536
-0.000135706
2.29093e-05
-0.000135237
2.48028e-05
-0.000134695
2.68612e-05
-0.000134128
2.90978e-05
-0.000133485
3.15286e-05
-0.000132812
3.41706e-05
-0.000132061
3.70424e-05
-0.000131276
4.0153e-05
-0.000130408
4.35215e-05
-0.000129501
4.7181e-05
-0.000128508
5.11493e-05
-0.000127469
5.54525e-05
-0.000126335
6.009e-05
-0.00012514
6.51083e-05
-0.000123842
7.05929e-05
-0.000122466
7.6546e-05
-0.000120969
8.29228e-05
-0.000119365
8.98816e-05
-0.000117625
9.74955e-05
-0.000115746
0.000105663
-0.000113701
0.000114551
-0.000111491
0.000124319
-0.000109078
0.000134716
-0.000106463
0.000146213
-0.00010362
0.000158628
-0.00010053
0.000172096
-9.71809e-05
0.000186844
-9.35365e-05
0.00020271
-8.95856e-05
0.000220155
-8.52933e-05
0.000238916
-8.06492e-05
0.000259479
-7.56164e-05
0.000281696
-7.01603e-05
0.000305851
-6.42487e-05
0.000332135
-5.78247e-05
0.000360395
-5.08604e-05
0.00039122
-4.3301e-05
0.000424417
-3.50894e-05
0.000460115
-2.61805e-05
0.00049863
-1.65176e-05
0.00053985
-6.03788e-06
0.000583669
5.3067e-06
0.000630199
1.75622e-05
0.000679231
3.07678e-05
0.000730353
4.49523e-05
0.000782934
6.0149e-05
0.000836159
7.63551e-05
0.00088879
9.35892e-05
0.000939181
0.000111795
0.000985107
0.00013085
0.00102353
0.000150558
0.00105052
0.000170665
0.00106112
0.00019064
0.00104903
0.00020991
0.00100667
0.000227965
0.000923463
0.000243786
0.000789613
0.000255059
0.000584438
0.000265192
0.000330435
-0.00017774
0.000263668
-0.000134436
2.07816e-05
0.000134798
-0.000134008
2.24888e-05
-0.00013356
2.43398e-05
-0.000133048
2.63523e-05
-0.000132506
2.854e-05
-0.000131891
3.09188e-05
-0.000131243
3.35062e-05
-0.000130516
3.63212e-05
-0.000129751
3.93723e-05
-0.0001289
4.26784e-05
-0.000128008
4.62734e-05
-0.000127025
5.01745e-05
-0.000125994
5.44072e-05
-0.000124867
5.89684e-05
-0.000123677
6.39047e-05
-0.000122385
6.9304e-05
-0.000121018
7.51651e-05
-0.00011953
8.14361e-05
-0.000117942
8.82814e-05
-0.000116223
9.57744e-05
-0.000114372
0.000103802
-0.00011236
0.000112535
-0.000110191
0.000122142
-0.000107827
0.000132345
-0.000105265
0.000143645
-0.000102482
0.000155837
-9.94537e-05
0.00016906
-9.61695e-05
0.00018355
-9.25916e-05
0.000199124
-8.87079e-05
0.000216268
-8.44838e-05
0.000234688
-7.99087e-05
0.000254896
-7.49464e-05
0.000276719
-6.95638e-05
0.000300452
-6.37297e-05
0.000326283
-5.73898e-05
0.000354037
-5.0518e-05
0.000384329
-4.30626e-05
0.000416941
-3.49689e-05
0.000451999
-2.61945e-05
0.000489832
-1.66852e-05
0.000530313
-6.3792e-06
0.000573335
4.77271e-06
0.000619014
1.6825e-05
0.000667146
2.98182e-05
0.000717319
4.37871e-05
0.000768924
5.87589e-05
0.00082113
7.47334e-05
0.000872751
9.17125e-05
0.000922118
0.000109627
0.000967079
0.000128338
0.00100466
0.000147655
0.00103103
0.000167334
0.00104132
0.00018688
0.00102929
0.000205755
0.000987361
0.000223462
0.000905086
0.000238961
0.000772583
0.000249934
0.000570286
0.000260043
0.000319815
-0.000179901
0.000260728
-0.00013267
2.04171e-05
0.000133004
-0.000132261
2.20877e-05
-0.00013184
2.38982e-05
-0.000131349
2.58667e-05
-0.000130834
2.80067e-05
-0.000130243
3.03346e-05
-0.000129621
3.28677e-05
-0.000128917
3.56255e-05
-0.000128176
3.86161e-05
-0.000127347
4.18581e-05
-0.000126474
4.53864e-05
-0.000125509
4.92177e-05
-0.000124494
5.33774e-05
-0.00012338
5.786e-05
-0.000122202
6.27127e-05
-0.00012092
6.80256e-05
-0.000119563
7.37946e-05
-0.000118087
7.99609e-05
-0.000116513
8.6695e-05
-0.000114811
9.40704e-05
-0.000112982
0.000101963
-0.000110998
0.000110548
-0.000108863
0.000119998
-0.00010654
0.000130016
-0.000104026
0.000141124
-0.000101297
0.0001531
-9.83304e-05
0.000166085
-9.51115e-05
0.000180321
-9.16035e-05
0.000195608
-8.77932e-05
0.000212453
-8.36443e-05
0.000230537
-7.91475e-05
0.000250391
-7.42651e-05
0.000271824
-6.89656e-05
0.000295136
-6.32175e-05
0.000320518
-5.69688e-05
0.000347771
-5.01944e-05
0.000377537
-4.28454e-05
0.000409573
-3.4869e-05
0.000444003
-2.62257e-05
0.000481166
-1.68629e-05
0.000520928
-6.72127e-06
0.000563168
4.24993e-06
0.000608016
1.61082e-05
0.000655257
2.88968e-05
0.000704503
4.26509e-05
0.000755135
5.73951e-05
0.000806363
7.31264e-05
0.000856983
8.98358e-05
0.000905393
0.000107442
0.000949454
0.000125801
0.000986272
0.000144728
0.00101209
0.000163995
0.00102215
0.00018314
0.0010103
0.000201654
0.000969058
0.000219046
0.000888164
0.000234261
0.000758075
0.000245006
0.000559943
0.000254975
0.000312032
-0.000180223
0.000257304
-0.000130824
2.00714e-05
0.00013115
-0.000130437
2.17078e-05
-0.000130034
2.34802e-05
-0.00012957
2.54066e-05
-0.00012908
2.75008e-05
-0.00012852
2.97788e-05
-0.000127926
3.22584e-05
-0.000127253
3.49592e-05
-0.000126541
3.78887e-05
-0.000125741
4.10658e-05
-0.000124895
4.4526e-05
-0.000123955
4.82858e-05
-0.000122963
5.23704e-05
-0.000121868
5.67725e-05
-0.000120709
6.15394e-05
-0.000119444
6.67644e-05
-0.000118103
7.24401e-05
-0.000116642
7.85012e-05
-0.000115084
8.51246e-05
-0.000113399
9.2384e-05
-0.00011159
0.000100143
-0.000109631
0.000108584
-0.000107525
0.000117884
-0.000105237
0.000127721
-0.000102765
0.000138644
-0.000100085
0.000150411
-9.71734e-05
0.000163165
-9.40169e-05
0.000177155
-9.05774e-05
0.000192161
-8.68402e-05
0.000208713
-8.27701e-05
0.000226463
-7.83552e-05
0.000245968
-7.35594e-05
0.000267014
-6.83494e-05
0.000289909
-6.26948e-05
0.000314846
-5.65437e-05
0.000341602
-4.98727e-05
0.000370848
-4.26339e-05
0.000402315
-3.47771e-05
0.000436125
-2.62641e-05
0.00047263
-1.7045e-05
0.000511682
-7.06129e-06
0.000553157
3.7357e-06
0.000597186
1.54068e-05
0.000643554
2.79924e-05
0.000691875
4.1532e-05
0.000741556
5.60406e-05
0.000791794
7.15203e-05
0.00084144
8.79463e-05
0.00088888
0.000105235
0.00093205
0.000123239
0.000968111
0.000141785
0.000993374
0.000160664
0.00100315
0.000179441
0.000991336
0.00019763
0.000950455
0.000214744
0.000870419
0.000229705
0.000741625
0.000240236
0.00054624
0.00025003
0.000301787
-0.000185019
0.000253459
-0.000128972
1.97376e-05
0.000129275
-0.000128598
2.13419e-05
-0.000128216
2.30785e-05
-0.00012777
2.49655e-05
-0.000127304
2.70161e-05
-0.000126765
2.92468e-05
-0.000126198
3.16749e-05
-0.000125551
3.43203e-05
-0.000124867
3.719e-05
-0.000124096
4.03026e-05
-0.000123278
4.36946e-05
-0.000122366
4.73821e-05
-0.000121401
5.13906e-05
-0.000120333
5.57105e-05
-0.000119198
6.03902e-05
-0.000117955
6.55256e-05
-0.000116635
7.11065e-05
-0.000115195
7.70616e-05
-0.000113656
8.35739e-05
-0.000111992
9.07176e-05
-0.000110204
9.83454e-05
-0.000108269
0.000106644
-0.00010619
0.000115797
-0.000103933
0.000125459
-0.000101498
0.000136202
-9.88609e-05
0.000147766
-9.59995e-05
0.000160295
-9.28998e-05
0.000174045
-8.95243e-05
0.000188778
-8.58578e-05
0.000205043
-8.18647e-05
0.000222467
-7.75329e-05
0.000241629
-7.28258e-05
0.000262293
-6.77093e-05
0.000284777
-6.21527e-05
0.000309273
-5.61045e-05
0.000335538
-4.95419e-05
0.000364269
-4.24177e-05
0.000395174
-3.46836e-05
0.000428372
-2.63024e-05
0.00046423
-1.72263e-05
0.000502584
-7.39822e-06
0.000543306
3.22869e-06
0.000586534
1.47143e-05
0.000632042
2.70976e-05
0.000679464
4.04181e-05
0.000728207
5.46857e-05
0.000777502
6.99037e-05
0.000826196
8.60385e-05
0.000872738
0.000103005
0.000915075
0.000120658
0.000950436
0.000138839
0.000975193
0.000157353
0.000984743
0.000175793
0.000973076
0.000193686
0.000932795
0.00021055
0.000854054
0.000225288
0.000727579
0.000235666
0.000536241
0.000245224
0.000294584
-0.000186956
0.00024929
-0.00012707
1.94175e-05
0.00012737
-0.000126713
2.09917e-05
-0.000126344
2.26949e-05
-0.000125919
2.45446e-05
-0.000125473
2.65542e-05
-0.000124961
2.87395e-05
-0.000124419
3.11182e-05
-0.000123802
3.371e-05
-0.000123149
3.65212e-05
-0.000122407
3.95704e-05
-0.000121622
4.28948e-05
-0.000120741
4.65103e-05
-0.000119807
5.04422e-05
-0.000118769
5.46794e-05
-0.000117664
5.92707e-05
-0.000116449
6.43152e-05
-0.000115156
6.97999e-05
-0.000113741
7.56479e-05
-0.000112227
8.20481e-05
-0.000110587
8.90755e-05
-0.000108824
9.65721e-05
-0.000106914
0.00010473
-0.000104863
0.000113737
-0.000102637
0.000123227
-0.000100236
0.000133794
-9.76382e-05
0.000145161
-9.4822e-05
0.000157471
-9.17743e-05
0.000170989
-8.84578e-05
0.000185454
-8.48576e-05
0.00020144
-8.09379e-05
0.000218546
-7.66874e-05
0.000237371
-7.2068e-05
0.00025766
-6.70458e-05
0.000279738
-6.15892e-05
0.0003038
-5.56471e-05
0.000329579
-4.91963e-05
0.000357801
-4.21907e-05
0.000388149
-3.45823e-05
0.000420744
-2.63355e-05
0.000455961
-1.74035e-05
0.000493627
-7.73076e-06
0.000533607
2.72685e-06
0.000576044
1.40275e-05
0.00062071
2.62062e-05
0.000667243
3.93049e-05
0.000715071
5.33247e-05
0.000763419
6.82769e-05
0.000811186
8.41153e-05
0.000856812
0.00010076
0.000898316
0.000118072
0.00093297
0.000135905
0.000957197
0.000154082
0.000966449
0.000172214
0.000954766
0.00018984
0.00091478
0.000206478
0.000836834
0.000221012
0.00071161
0.000231233
0.00052287
0.000240573
0.000284882
-0.000192564
0.000244935
-0.000125185
1.91046e-05
0.000125466
-0.000124835
2.06504e-05
-0.000124482
2.23222e-05
-0.00012407
2.41371e-05
-0.000123642
2.61081e-05
-0.000123147
2.82509e-05
-0.000122627
3.05829e-05
-0.000122033
3.31236e-05
-0.000121406
3.58788e-05
-0.000120693
3.88666e-05
-0.000119938
4.21252e-05
-0.000119089
4.56697e-05
-0.000118187
4.95258e-05
-0.000117182
5.36803e-05
-0.000116108
5.81831e-05
-0.000114926
6.3136e-05
-0.000113663
6.85239e-05
-0.000112279
7.4264e-05
-0.000110794
8.05514e-05
-0.000109182
8.7462e-05
-0.000107447
9.48274e-05
-0.000105566
0.000102845
-0.000103545
0.000111707
-0.00010135
0.000121027
-9.8984e-05
0.000131421
-9.64239e-05
0.000142594
-9.36505e-05
0.000154691
-9.0651e-05
0.000167981
-8.73895e-05
0.000182187
-8.38507e-05
0.000197901
-8.00009e-05
0.000214695
-7.58276e-05
0.00023319
-7.12936e-05
0.000253112
-6.63642e-05
0.000274793
-6.10075e-05
0.000298427
-5.51722e-05
0.000323728
-4.88352e-05
0.000351448
-4.19504e-05
0.000381249
-3.44705e-05
0.000413247
-2.63605e-05
0.000447833
-1.75745e-05
0.000484822
-8.05838e-06
0.00052407
2.22949e-06
0.000565733
1.33435e-05
0.000609574
2.53159e-05
0.000655244
3.81884e-05
0.000702176
5.19582e-05
0.000749625
6.66405e-05
0.00079649
8.21838e-05
0.000841268
9.85131e-05
0.000881986
0.000115496
0.000915973
0.000133002
0.000939704
0.000150865
0.000948706
0.000168713
0.000937113
0.000186091
0.000897655
0.000202517
0.000820932
0.000216862
0.00069795
0.000226968
0.000513116
0.000236058
0.000278288
-0.000194763
0.000240467
-0.000123267
1.88018e-05
0.000123549
-0.000122929
2.03208e-05
-0.000122584
2.1963e-05
-0.000122188
2.37449e-05
-0.000121775
2.56794e-05
-0.000121301
2.77818e-05
-0.000120803
3.00694e-05
-0.000120234
3.25614e-05
-0.000119633
3.52628e-05
-0.000118949
3.81916e-05
-0.000118225
4.13861e-05
-0.000117408
4.48614e-05
-0.000116539
4.86429e-05
-0.000115568
5.27158e-05
-0.000114529
5.71306e-05
-0.000113382
6.19921e-05
-0.000112153
6.72828e-05
-0.000110803
7.29145e-05
-0.000109352
7.90886e-05
-0.000107773
8.58818e-05
-0.000106071
9.31156e-05
-0.000104223
0.000100993
-0.000102234
0.000109711
-0.000100074
0.000118861
-9.77428e-05
0.000129085
-9.52212e-05
0.000140066
-9.24896e-05
0.000151953
-8.95366e-05
0.00016502
-8.63269e-05
0.000178972
-8.2847e-05
0.00019442
-7.90626e-05
0.000210911
-7.49631e-05
0.000229084
-7.05109e-05
0.000248647
-6.56714e-05
0.000269938
-6.04126e-05
0.000293152
-5.46834e-05
0.000317983
-4.84602e-05
0.000345209
-4.16973e-05
0.000374469
-3.43475e-05
0.000405878
-2.63762e-05
0.00043984
-1.7738e-05
0.00047616
-8.38022e-06
0.000514687
1.73628e-06
0.000555586
1.26624e-05
0.000598618
2.44263e-05
0.000643438
3.70716e-05
0.000689495
5.05896e-05
0.000736043
6.5004e-05
0.000782021
8.02556e-05
0.000825929
9.62785e-05
0.00086585
0.000112949
0.00089915