/*--------------------------------*- C++ -*----------------------------------*\
  =========                 |
  \\      /  F ield         | OpenFOAM: The Open Source CFD Toolbox
   \\    /   O peration     | Website:  https://openfoam.org
    \\  /    A nd           | Version:  6.0
     \\/     M anipulation  |
\*---------------------------------------------------------------------------*/
FoamFile
{
    version     2.0;
    format      ascii;
    class       volVectorField;
    location    "18";
    object      U;
}
// * * * * * * * * * * * * * * * * * * * * * * * * * * * * * * * * * * * * * //

dimensions      [0 1 -1 0 0 0 0];

internalField   nonuniform List<vector> 
62000
(
(1.00014 -0.00194194 -2.8886e-19)
(1.00006 -0.00186784 -1.23099e-18)
(1.0001 -0.00169324 1.6377e-19)
(1.00014 -0.00141323 -7.45737e-21)
(1.00014 -0.0011263 1.30694e-18)
(1.00014 -0.000805279 -1.36923e-19)
(1.00013 -0.000466616 -8.72966e-19)
(1.00012 -0.000117625 8.87336e-19)
(1.00009 0.000232353 -1.09043e-18)
(1.00007 0.000576775 -7.47179e-19)
(1.00004 0.000907452 4.53363e-19)
(1.00001 0.00121885 1.24692e-18)
(0.999984 0.00150677 -7.97105e-19)
(0.999952 0.00176669 8.38071e-19)
(0.999919 0.00199914 -8.89364e-19)
(0.999883 0.00220066 1.37927e-18)
(0.999845 0.00237514 -1.78963e-18)
(0.999803 0.00252032 4.41175e-19)
(0.999759 0.00264146 1.64383e-19)
(0.999711 0.00273728 1.00745e-19)
(0.99966 0.00281245 -1.44484e-18)
(0.999607 0.00286648 7.61618e-19)
(0.999553 0.00290224 -7.54497e-20)
(0.999499 0.00291964 2.44091e-19)
(0.999446 0.00291956 -3.26758e-19)
(0.999396 0.00290167 -1.36536e-18)
(0.99935 0.00286588 1.48675e-18)
(0.999312 0.00281106 1.54715e-19)
(0.999282 0.00273813 2.24103e-19)
(0.999267 0.00264392 -1.51897e-18)
(0.999261 0.00253024 1.05887e-18)
(0.999276 0.00240252 -2.67008e-18)
(0.999309 0.00225963 -6.73889e-19)
(0.999361 0.00210413 2.37722e-19)
(0.999435 0.00193877 4.93379e-19)
(0.999526 0.00177003 -2.55438e-18)
(0.999633 0.00160668 5.63966e-19)
(0.999749 0.00145909 4.78534e-19)
(0.999864 0.00133738 6.298e-19)
(0.999965 0.00124938 -9.28671e-19)
(1.00003 0.00119751 -7.23729e-19)
(1.00004 0.00117602 1.91175e-20)
(0.999964 0.00116784 -6.38421e-19)
(0.999762 0.00111468 1.26194e-18)
(0.999402 0.00093148 2.07602e-18)
(0.998862 0.000517677 -3.72782e-18)
(0.99814 -0.000206935 7.10727e-18)
(0.997267 -0.00125569 9.75852e-18)
(0.996296 -0.00250889 -3.88343e-18)
(0.995255 -0.00376337 1.13715e-17)
(0.994099 -0.0049149 1.76877e-17)
(0.992701 -0.00616439 2.5103e-17)
(0.990944 -0.00802919 4.94181e-18)
(0.98884 -0.0111619 7.87073e-18)
(0.986667 -0.0159879 1.39078e-17)
(0.984616 -0.0228874 3.32745e-17)
(0.982866 -0.0334605 5.11822e-18)
(0.980524 -0.0486852 5.90448e-17)
(1.01609 -0.06387 -3.92932e-17)
(0.374448 -0.647953 3.59685e-17)
(1.00036 -0.00285417 -7.80444e-20)
(1.00059 -0.00293541 5.4631e-19)
(1.00089 -0.00304142 -2.3748e-19)
(1.0012 -0.00296857 2.835e-19)
(1.00143 -0.00286984 6.70904e-19)
(1.00164 -0.00268534 -9.64606e-20)
(1.0018 -0.00241927 -7.67482e-19)
(1.00192 -0.0020718 -4.49165e-20)
(1.00201 -0.00164858 6.29483e-19)
(1.00207 -0.00115394 -1.07431e-18)
(1.0021 -0.000601479 -3.95677e-19)
(1.0021 -1.06198e-06 1.37943e-18)
(1.0021 0.00063255 -1.01539e-18)
(1.00207 0.00128662 6.91841e-19)
(1.00204 0.00194858 -9.75542e-19)
(1.002 0.0026055 5.38092e-19)
(1.00195 0.00324856 -2.28848e-19)
(1.00189 0.00386688 -1.74626e-19)
(1.00182 0.00445579 1.72714e-19)
(1.00173 0.00500747 -2.58576e-20)
(1.00164 0.00552023 3.80327e-19)
(1.00153 0.00598968 -4.21258e-19)
(1.0014 0.00641524 -3.26163e-19)
(1.00126 0.00679452 4.17658e-19)
(1.00111 0.00712612 -1.17644e-18)
(1.00094 0.00740728 -2.28347e-19)
(1.00077 0.00763566 2.42523e-18)
(1.00058 0.0078092 -1.02843e-18)
(1.00041 0.00792659 2.30094e-18)
(1.00024 0.00798666 -1.90696e-19)
(1.00008 0.0079894 -1.47718e-18)
(0.999934 0.00793032 4.96501e-19)
(0.999819 0.00780556 6.81105e-20)
(0.999737 0.00760947 8.48286e-19)
(0.999693 0.00734086 -1.87648e-18)
(0.99969 0.00700364 5.80902e-19)
(0.999727 0.0066045 7.46763e-19)
(0.999796 0.00615353 -3.83016e-19)
(0.999883 0.00566146 2.43444e-19)
(0.999962 0.00513689 1.12744e-19)
(0.999995 0.00458206 9.51643e-19)
(0.999935 0.00399004 -1.34716e-19)
(0.999711 0.00333321 5.52321e-19)
(0.99926 0.00248228 5.96266e-19)
(0.998548 0.00131992 -3.82994e-18)
(0.997577 -0.000238333 2.77818e-18)
(0.9964 -0.00214146 -9.93819e-18)
(0.995105 -0.00416883 -5.60472e-18)
(0.993764 -0.00588215 -2.64656e-18)
(0.99228 -0.00695154 -1.34608e-18)
(0.990393 -0.00761589 -1.97885e-17)
(0.987834 -0.00884629 -2.48394e-17)
(0.984499 -0.0118459 1.98845e-18)
(0.980565 -0.0176592 -3.85003e-18)
(0.976868 -0.0265701 -1.57003e-17)
(0.973638 -0.0386031 6.35041e-18)
(0.971278 -0.0561562 6.44622e-18)
(0.967352 -0.0787524 -9.90276e-18)
(0.994104 -0.127068 5.9431e-17)
(1.05114 -0.123342 -2.30681e-17)
(0.999035 -0.000371102 1.01647e-18)
(0.999294 -0.000713679 -3.01452e-19)
(0.999604 -0.000949499 -1.5792e-19)
(0.999981 -0.00111485 -6.95225e-20)
(1.00036 -0.00130095 2.25194e-18)
(1.00075 -0.00143985 -1.8646e-18)
(1.00112 -0.00152182 -7.01688e-19)
(1.00148 -0.00152848 4.59957e-19)
(1.0018 -0.0014482 1.21242e-18)
(1.00208 -0.00126747 5.05111e-19)
(1.00231 -0.000985626 -2.04463e-18)
(1.00251 -0.000599418 -9.71063e-19)
(1.00266 -0.000115321 9.32513e-19)
(1.00277 0.000459988 -3.42084e-19)
(1.00285 0.00111482 7.69964e-20)
(1.0029 0.00183516 1.58375e-18)
(1.00293 0.00260696 -1.55261e-18)
(1.00293 0.00341328 1.53363e-18)
(1.0029 0.00424054 -1.9566e-19)
(1.00286 0.0050724 1.06233e-18)
(1.00279 0.00589749 -4.84405e-19)
(1.00271 0.00670287 -8.76535e-19)
(1.00259 0.00747913 2.61426e-19)
(1.00246 0.00821714 1.13869e-18)
(1.0023 0.00890797 -8.40532e-19)
(1.00212 0.00954327 1.18004e-18)
(1.00191 0.0101151 -9.87912e-20)
(1.00169 0.0106176 -6.48703e-19)
(1.00146 0.0110472 -1.54336e-18)
(1.00122 0.0113969 1.67658e-18)
(1.00098 0.011662 2.96246e-19)
(1.00075 0.0118334 4.20686e-19)
(1.00052 0.0118959 -1.21082e-18)
(1.00032 0.011838 1.50651e-18)
(1.00015 0.0116489 -1.11036e-19)
(1.00002 0.0113221 1.14894e-18)
(0.999925 0.0108533 -9.00772e-20)
(0.999864 0.0102419 3.15264e-19)
(0.999824 0.00948897 -7.99198e-19)
(0.999781 0.00859621 1.77259e-19)
(0.999698 0.00756272 -7.05474e-19)
(0.999526 0.00638785 3.60642e-20)
(0.999179 0.00504022 -9.17987e-19)
(0.998593 0.00339139 -2.59223e-18)
(0.997764 0.00137172 1.80382e-18)
(0.996734 -0.000994828 -4.49992e-19)
(0.995602 -0.00347272 8.57221e-19)
(0.994487 -0.00562541 -5.4177e-18)
(0.993453 -0.00682976 -2.68848e-19)
(0.992325 -0.00681372 -4.40261e-20)
(0.990741 -0.00619373 -2.35339e-17)
(0.988408 -0.00645305 -9.2643e-18)
(0.985273 -0.00914669 1.41574e-17)
(0.981594 -0.0151732 1.40596e-17)
(0.978369 -0.0243781 1.42759e-17)
(0.975635 -0.0362548 -6.47366e-17)
(0.974148 -0.0527109 2.18425e-17)
(0.969134 -0.0728774 -3.14578e-17)
(0.997547 -0.104673 -1.10512e-16)
(0.913645 -0.255976 1.56098e-17)
(0.998929 0.00151344 8.54039e-19)
(0.998889 0.00139274 -5.84606e-19)
(0.998864 0.00140722 3.84688e-19)
(0.998936 0.00140638 5.53071e-19)
(0.999074 0.00129964 -1.16484e-18)
(0.999288 0.00116546 -1.14221e-18)
(0.999557 0.00100678 8.92794e-19)
(0.999869 0.00085246 1.43846e-19)
(1.00021 0.000723725 3.02533e-19)
(1.00055 0.000647374 -1.15262e-18)
(1.00089 0.000639583 -3.0908e-19)
(1.00122 0.000720704 2.50699e-19)
(1.00151 0.000899824 7.24706e-19)
(1.00178 0.00118664 8.10867e-20)
(1.00201 0.0015815 1.05974e-18)
(1.0022 0.00208298 -1.99116e-18)
(1.00235 0.00268329 8.03735e-19)
(1.00246 0.00337231 8.62202e-19)
(1.00254 0.00413648 -2.08772e-18)
(1.00259 0.00496061 2.1448e-18)
(1.0026 0.00582928 -2.55456e-19)
(1.00258 0.00672608 -2.02713e-18)
(1.00253 0.0076355 -4.8665e-19)
(1.00244 0.00854352 8.03866e-19)
(1.00233 0.00943367 4.24187e-20)
(1.00219 0.0102922 -1.16518e-18)
(1.00201 0.011104 1.71806e-18)
(1.00182 0.0118585 -8.92355e-19)
(1.0016 0.0125463 1.4393e-19)
(1.00137 0.013157 3.0191e-19)
(1.00112 0.0136787 2.023e-19)
(1.00087 0.0140921 4.64286e-19)
(1.00062 0.0143781 1.82298e-19)
(1.00037 0.0145147 -8.78603e-19)
(1.00015 0.0144823 -3.40984e-19)
(0.999944 0.0142637 3.13035e-19)
(0.999769 0.0138417 -2.18392e-18)
(0.999619 0.0132032 -6.15681e-20)
(0.999483 0.0123373 4.25585e-19)
(0.999337 0.0112363 -1.35408e-18)
(0.999147 0.00989481 -2.48745e-19)
(0.998864 0.00831889 -9.71962e-20)
(0.998388 0.00646336 1.72364e-18)
(0.997659 0.00425477 4.63678e-19)
(0.996693 0.00168508 3.49711e-18)
(0.995554 -0.00112511 -1.22689e-18)
(0.994362 -0.00381739 5.02776e-18)
(0.993258 -0.00585116 3.02148e-19)
(0.992313 -0.00656033 2.17846e-17)
(0.991347 -0.00580736 -4.25575e-18)
(0.989987 -0.00450454 4.37827e-17)
(0.987933 -0.00442439 3.6107e-17)
(0.985087 -0.00731507 -2.05252e-17)
(0.981622 -0.0139727 1.76027e-17)
(0.978485 -0.0240922 2.89281e-17)
(0.975603 -0.0369544 2.80267e-17)
(0.97442 -0.0541344 9.98964e-18)
(0.968504 -0.0756263 1.1217e-17)
(0.98704 -0.102414 7.26171e-17)
(0.980231 -0.23499 -2.43378e-17)
(1.00097 0.00257792 -8.98213e-19)
(1.00067 0.00280416 -1.7056e-18)
(1.00033 0.0030855 3.52561e-20)
(1.00004 0.00339364 2.8716e-19)
(0.99979 0.00357598 -1.32932e-18)
(0.999616 0.00370326 2.324e-18)
(0.999513 0.0037544 -2.39432e-19)
(0.999484 0.0037481 1.26008e-18)
(0.999522 0.00369683 5.40587e-19)
(0.99962 0.00362527 -2.95325e-18)
(0.999766 0.00355194 1.36429e-18)
(0.999946 0.00350358 -1.17281e-19)
(1.00015 0.00349951 -2.87961e-20)
(1.00036 0.00356158 1.65317e-18)
(1.00057 0.00370378 -1.5926e-18)
(1.00077 0.0039385 3.27828e-19)
(1.00096 0.00427135 -3.87472e-19)
(1.00112 0.0047043 4.92592e-19)
(1.00126 0.00523355 -7.30762e-19)
(1.00137 0.00585256 1.17677e-18)
(1.00145 0.00655117 -1.26769e-18)
(1.0015 0.0073165 1.07529e-18)
(1.00152 0.00813459 1.59093e-18)
(1.00151 0.00899187 -1.61248e-18)
(1.00147 0.00986936 -4.74483e-19)
(1.0014 0.0107515 2.20756e-18)
(1.00129 0.0116193 -2.06511e-18)
(1.00116 0.0124583 6.3301e-19)
(1.001 0.0132568 -1.75858e-18)
(1.00081 0.0139986 2.47473e-18)
(1.00061 0.0146683 -1.03917e-18)
(1.00039 0.0152416 -1.34763e-18)
(1.00016 0.0156912 -2.882e-18)
(0.999932 0.0159895 8.77327e-19)
(0.999706 0.0161089 2.14007e-19)
(0.999492 0.0160233 -2.87548e-19)
(0.999292 0.0157044 2.10287e-18)
(0.999102 0.0151287 1.91123e-18)
(0.998911 0.0142734 -4.724e-19)
(0.998698 0.0131216 8.00359e-19)
(0.998424 0.0116623 -2.47114e-19)
(0.998036 0.00990529 -1.64613e-19)
(0.997424 0.00778059 -1.51802e-18)
(0.996529 0.00529602 -3.0862e-18)
(0.995369 0.00248911 -1.92035e-18)
(0.994007 -0.000470635 -3.09841e-18)
(0.992574 -0.00318303 -1.35537e-18)
(0.991228 -0.00510493 3.29247e-18)
(0.990072 -0.00561326 2.67166e-18)
(0.988977 -0.00470085 -7.03868e-18)
(0.98762 -0.0034475 -2.99494e-18)
(0.985697 -0.003716 -1.8522e-17)
(0.983007 -0.00732202 -9.5767e-19)
(0.979553 -0.0150342 -1.82845e-17)
(0.9761 -0.0266909 1.79322e-17)
(0.972597 -0.0416352 -8.54834e-18)
(0.97139 -0.0612033 -3.99522e-18)
(0.965302 -0.0859968 -4.48203e-18)
(0.976936 -0.115056 4.22018e-17)
(0.960937 -0.241478 1.12631e-17)
(1.00411 0.00503159 -5.6282e-19)
(1.00387 0.00539421 6.83753e-19)
(1.00351 0.0056783 1.1181e-18)
(1.0031 0.00608321 -1.13824e-19)
(1.00264 0.00641271 -7.19984e-19)
(1.00218 0.00671729 -8.13562e-19)
(1.00174 0.00695857 -2.96309e-19)
(1.00133 0.00713348 -1.42928e-18)
(1.00097 0.00723798 1.93042e-18)
(1.00065 0.00728033 1.76353e-18)
(1.0004 0.00726968 -2.17272e-18)
(1.0002 0.00722634 1.2307e-18)
(1.00005 0.00716831 -4.16222e-19)
(0.999944 0.00711984 1.0047e-18)
(0.999881 0.00710049 -1.89793e-19)
(0.99985 0.00713142 -5.01336e-19)
(0.999845 0.00722754 -2.5706e-18)
(0.99986 0.00740208 3.85517e-18)
(0.999886 0.00766109 -1.87211e-18)
(0.99992 0.008009 1.19393e-18)
(0.999956 0.00844361 -1.77786e-18)
(0.999989 0.00895996 1.33889e-18)
(1.00002 0.00955013 -1.19073e-18)
(1.00004 0.0102054 -6.8858e-19)
(1.00004 0.0109088 3.86843e-20)
(1.00003 0.0116479 3.2692e-20)
(0.999999 0.0124029 1.10343e-18)
(0.999945 0.0131599 1.83628e-18)
(0.999869 0.0139067 -5.94527e-19)
(0.999769 0.0146277 7.66089e-19)
(0.999647 0.0153054 -5.56973e-19)
(0.999505 0.0159113 9.69877e-20)
(0.999347 0.0164181 3.62058e-18)
(0.999177 0.0167929 -1.93989e-19)
(0.998999 0.0170047 2.34186e-18)
(0.998817 0.0170217 -1.45348e-18)
(0.998632 0.0168083 -3.40949e-18)
(0.998439 0.016333 -1.91987e-18)
(0.998225 0.0155635 -3.73728e-19)
(0.997965 0.0144741 6.95077e-20)
(0.997621 0.0130479 2.45187e-19)
(0.997129 0.0112941 7.58812e-21)
(0.996382 0.00911354 -2.02162e-19)
(0.995321 0.00659244 2.71376e-18)
(0.993949 0.003791 -2.80528e-18)
(0.992316 0.000879105 3.76081e-18)
(0.990556 -0.00176685 -9.60722e-19)
(0.988851 -0.00366733 -7.01941e-18)
(0.987359 -0.00427541 -1.24303e-17)
(0.986053 -0.0036612 1.65389e-17)
(0.984718 -0.00292008 -1.54011e-17)
(0.983086 -0.00379323 1.53934e-17)
(0.980848 -0.00799997 5.0781e-18)
(0.977791 -0.01625 -5.83083e-18)
(0.974395 -0.0286291 -9.7833e-17)
(0.970568 -0.0447766 2.85695e-17)
(0.969414 -0.0659019 -2.855e-17)
(0.963805 -0.0929508 1.83448e-17)
(0.970531 -0.122406 1.08977e-17)
(0.964281 -0.244412 -1.27773e-17)
(1.00643 0.00943067 -3.27662e-18)
(1.00651 0.00963569 1.86261e-18)
(1.00642 0.00968521 7.39759e-19)
(1.00622 0.00993977 6.01721e-19)
(1.00589 0.0101933 -1.44784e-18)
(1.00548 0.0104864 -1.61727e-18)
(1.005 0.0107717 3.47687e-18)
(1.00448 0.0110314 -4.79723e-19)
(1.00392 0.011242 4.2591e-19)
(1.00336 0.0113942 -2.97251e-18)
(1.0028 0.0114786 2.03877e-18)
(1.00226 0.0115008 -1.1425e-18)
(1.00175 0.0114673 -1.55551e-18)
(1.00126 0.0113954 3.19967e-18)
(1.00081 0.011302 -5.80404e-19)
(1.0004 0.0112094 -1.205e-18)
(1.00003 0.0111368 -1.46067e-18)
(0.999702 0.0111038 4.58804e-18)
(0.999418 0.0111249 -2.18092e-18)
(0.999177 0.0112132 -2.13956e-18)
(0.998976 0.0113746 2.44732e-18)
(0.998815 0.0116125 -1.96125e-19)
(0.99869 0.0119265 -1.66017e-20)
(0.998599 0.0123135 -9.4259e-19)
(0.998534 0.0127615 4.35233e-19)
(0.998492 0.0132626 -1.76053e-18)
(0.998462 0.0137994 -1.46326e-18)
(0.998439 0.0143606 4.61949e-19)
(0.998417 0.0149376 1.66467e-18)
(0.998391 0.0155147 1.10035e-18)
(0.998357 0.0160781 1.13251e-18)
(0.998312 0.0165997 -9.88091e-19)
(0.998254 0.0170528 4.1791e-19)
(0.99818 0.0174056 1.07312e-18)
(0.99809 0.0176273 -1.77382e-18)
(0.997983 0.0176852 -1.43077e-19)
(0.997855 0.0175405 -2.16167e-19)
(0.997696 0.0171579 1.36265e-18)
(0.997489 0.0164986 -2.06177e-19)
(0.997208 0.0155298 6.729e-19)
(0.996807 0.0142295 4.34681e-20)
(0.996216 0.0126025 -1.2061e-19)
(0.995339 0.010523 1.14387e-18)
(0.994118 0.00813014 -6.7021e-19)
(0.992524 0.00548448 3.42565e-18)
(0.990583 0.00271584 -1.28705e-19)
(0.988426 0.000128405 1.31001e-17)
(0.986259 -0.00190453 8.10006e-18)
(0.984306 -0.00292556 -1.31546e-19)
(0.98267 -0.00303119 -2.27702e-17)
(0.981301 -0.00320959 2.84222e-18)
(0.980018 -0.00491666 -1.66021e-17)
(0.978448 -0.00962258 2.30959e-17)
(0.976166 -0.0179084 -4.18014e-18)
(0.973315 -0.0300972 3.4916e-17)
(0.969616 -0.0463352 -2.39247e-17)
(0.968618 -0.0679552 -8.7092e-18)
(0.963634 -0.0964675 -4.91394e-17)
(0.967093 -0.125924 -1.07703e-16)
(0.962407 -0.246872 2.27845e-17)
(1.00737 0.0150999 1.17324e-18)
(1.0078 0.0150158 2.18287e-18)
(1.00807 0.0147498 -1.21657e-18)
(1.00822 0.0147179 -1.52224e-18)
(1.0082 0.0147419 -4.36934e-19)
(1.00807 0.0148606 1.76172e-18)
(1.00781 0.0150371 7.03193e-19)
(1.00744 0.0152484 6.39893e-19)
(1.00699 0.0154649 -8.57761e-19)
(1.00646 0.0156626 6.35091e-19)
(1.00588 0.0158171 -1.0753e-18)
(1.00525 0.0159161 -1.98834e-18)
(1.00459 0.0159492 2.60856e-18)
(1.0039 0.015919 -9.44202e-19)
(1.0032 0.0158308 -5.28675e-20)
(1.00249 0.0157 -2.51464e-18)
(1.00179 0.0155424 1.6206e-18)
(1.00111 0.015379 6.80063e-19)
(1.00046 0.0152276 -1.36839e-18)
(0.999852 0.015108 4.17524e-18)
(0.999292 0.0150325 -1.59825e-18)
(0.998789 0.015013 -3.46114e-18)
(0.998351 0.0150567 3.46625e-18)
(0.997981 0.0151668 -4.00618e-18)
(0.997679 0.015338 9.54787e-19)
(0.997445 0.0155673 2.2749e-18)
(0.997269 0.0158406 1.28799e-19)
(0.997146 0.0161512 -1.46325e-18)
(0.997068 0.0164933 8.56616e-19)
(0.997028 0.016856 -2.36293e-20)
(0.997017 0.0172274 -1.94553e-18)
(0.997024 0.0175811 -5.58458e-19)
(0.997039 0.0178966 -1.10458e-18)
(0.997054 0.0181444 -1.51177e-18)
(0.997059 0.0182985 -8.97928e-19)
(0.997045 0.0183297 2.28972e-18)
(0.997 0.0182004 -9.22731e-20)
(0.996905 0.0178762 -1.1625e-18)
(0.996737 0.0173151 1.81181e-18)
(0.99646 0.0164805 -8.07917e-19)
(0.996023 0.015347 4.16779e-20)
(0.995345 0.0139127 -1.95072e-19)
(0.994342 0.0120319 -2.51246e-18)
(0.992956 0.00986088 7.20525e-19)
(0.991118 0.00744096 1.50828e-18)
(0.988811 0.00483223 2.04256e-18)
(0.986156 0.00223302 -5.81715e-18)
(0.983368 -0.000118237 6.79238e-18)
(0.980728 -0.00186675 -2.38347e-17)
(0.978473 -0.00311394 4.98199e-18)
(0.976739 -0.00468545 1.0383e-17)
(0.975483 -0.0076709 -9.56308e-18)
(0.974348 -0.0132087 -3.02337e-17)
(0.972766 -0.0216965 1.45179e-17)
(0.970574 -0.0336345 1.26637e-17)
(0.967233 -0.0497707 -5.80599e-17)
(0.966489 -0.0717898 -1.77774e-17)
(0.962255 -0.101925 5.59793e-17)
(0.963638 -0.1328 1.0072e-16)
(0.963362 -0.252061 -2.24033e-17)
(1.00722 0.021371 -2.2872e-18)
(1.00789 0.0210212 2.6832e-18)
(1.00843 0.020478 -1.47749e-18)
(1.00888 0.0201429 -1.68674e-19)
(1.00919 0.019873 8.20207e-19)
(1.00937 0.0197203 -4.1599e-19)
(1.00941 0.0196649 1.52724e-18)
(1.00933 0.0196967 7.16672e-19)
(1.00914 0.0197907 -1.13651e-18)
(1.00884 0.019924 -2.18766e-18)
(1.00845 0.0200652 2.48211e-18)
(1.00797 0.0201912 1.73909e-19)
(1.00741 0.0202767 -1.38464e-19)
(1.00677 0.0203078 -3.1128e-19)
(1.00607 0.0202734 1.59817e-18)
(1.00531 0.0201744 -2.10088e-18)
(1.0045 0.0200152 2.34277e-18)
(1.00365 0.0198096 -3.81846e-18)
(1.00278 0.0195724 1.57482e-18)
(1.0019 0.0193238 -7.44546e-19)
(1.00104 0.0190793 4.21607e-20)
(1.0002 0.0188574 -1.74093e-18)
(0.999414 0.0186721 4.44349e-18)
(0.998695 0.0185331 -1.22142e-18)
(0.998055 0.0184436 1.22734e-18)
(0.997503 0.0184058 -1.79132e-18)
(0.997042 0.0184111 -2.09581e-18)
(0.996673 0.018458 2.06647e-18)
(0.996396 0.0185447 -5.61546e-19)
(0.996204 0.0186631 -3.41536e-19)
(0.996089 0.0188054 5.32893e-19)
(0.996038 0.0189489 1.43002e-18)
(0.996035 0.0190766 -7.02116e-20)
(0.996064 0.0191655 2.73791e-18)
(0.99611 0.0191959 -2.10556e-18)
(0.996154 0.019145 1.33635e-18)
(0.996172 0.01898 5.85846e-19)
(0.996136 0.0186713 6.8554e-19)
(0.996011 0.0181777 -5.55798e-19)
(0.99575 0.0174623 1.10524e-19)
(0.99529 0.0164992 4.49961e-19)
(0.994535 0.0152791 9.59497e-20)
(0.993414 0.0136453 1.1688e-18)
(0.991861 0.0117362 -7.36667e-20)
(0.989762 0.0095594 -1.90762e-18)
(0.987052 0.0070897 -5.50253e-20)
(0.983829 0.00440342 -6.8786e-18)
(0.980296 0.00159094 -6.75389e-18)
(0.976764 -0.00110642 2.41007e-17)
(0.973577 -0.00379761 -3.73289e-18)
(0.971053 -0.00714581 1.89621e-18)
(0.969312 -0.0118765 -5.79769e-18)
(0.968098 -0.0187796 1.16903e-17)
(0.966804 -0.0280452 -3.16043e-17)
(0.965071 -0.0402585 -1.1452e-17)
(0.962162 -0.0567059 6.41612e-17)
(0.961905 -0.0794132 3.94133e-18)
(0.958814 -0.111195 4.41983e-17)
(0.959423 -0.14398 -2.11218e-17)
(0.967144 -0.256495 4.1367e-17)
(1.00648 0.0274637 -1.08971e-19)
(1.00724 0.0269557 -1.97681e-18)
(1.00791 0.0262602 9.20953e-19)
(1.00854 0.0257097 -1.07505e-18)
(1.00907 0.0252003 1.16534e-18)
(1.0095 0.0247886 -5.28611e-19)
(1.00981 0.0244774 2.12637e-18)
(1.01001 0.0242703 -1.31553e-18)
(1.01009 0.0241595 1.63386e-18)
(1.01006 0.0241317 -7.953e-19)
(1.00993 0.0241629 -2.10184e-19)
(1.0097 0.0242303 6.3346e-19)
(1.00938 0.0243039 -1.98797e-18)
(1.00896 0.0243603 3.5223e-18)
(1.00845 0.0243746 1.76553e-19)
(1.00785 0.024333 -3.98811e-20)
(1.00716 0.0242241 -2.59247e-18)
(1.00638 0.0240486 1.85555e-18)
(1.00552 0.0238102 -2.42669e-18)
(1.00459 0.0235222 1.6389e-18)
(1.00362 0.0231967 2.53099e-19)
(1.00261 0.0228534 1.2464e-18)
(1.00161 0.0225095 -1.26258e-18)
(1.00062 0.0221797 -2.21408e-18)
(0.999684 0.0218757 1.69704e-18)
(0.998813 0.0216053 1.5031e-18)
(0.998027 0.0213669 -1.65265e-18)
(0.997343 0.0211656 2.06303e-19)
(0.99677 0.0210036 8.82436e-19)
(0.996314 0.0208795 -2.82357e-18)
(0.995973 0.0207864 5.86493e-19)
(0.995737 0.0207054 1.71557e-19)
(0.995593 0.0206259 -3.70592e-19)
(0.995523 0.020529 -6.10305e-19)
(0.995507 0.020403 -6.8815e-19)
(0.995519 0.0202323 -2.56696e-19)
(0.99553 0.0199911 -3.09632e-22)
(0.995498 0.0196571 -4.81971e-19)
(0.995379 0.0191932 1.50726e-18)
(0.995111 0.0185654 -3.53074e-19)
(0.994618 0.017751 -1.64391e-19)
(0.99379 0.0167334 2.84339e-19)
(0.99256 0.0153543 1.46573e-18)
(0.990855 0.0137081 1.21763e-18)
(0.98852 0.0117609 -2.25999e-18)
(0.985445 0.00940344 2.84399e-18)
(0.981693 0.00659241 -2.27744e-18)
(0.977445 0.00327908 -1.00993e-17)
(0.972998 -0.000408984 -1.52414e-17)
(0.968765 -0.0045978 2.15514e-17)
(0.965207 -0.00981942 -1.95386e-17)
(0.962603 -0.0164855 9.75566e-18)
(0.960856 -0.0250739 -4.08864e-17)
(0.959426 -0.0355691 -6.25202e-18)
(0.957885 -0.048538 -1.85013e-17)
(0.955424 -0.065634 3.5392e-18)
(0.955929 -0.089059 3.16046e-17)
(0.954457 -0.121863 -4.62992e-17)
(0.955215 -0.155559 -4.38458e-17)
(0.973176 -0.258834 -5.73415e-17)
(1.0057 0.033167 -3.9366e-19)
(1.00642 0.03263 3.97308e-19)
(1.00707 0.0319062 8.21824e-19)
(1.00776 0.0312543 7.48608e-19)
(1.00839 0.0305941 -1.37816e-18)
(1.00896 0.0299877 -5.60136e-19)
(1.00944 0.0294507 1.37373e-18)
(1.00983 0.0290031 8.45844e-19)
(1.01011 0.0286522 -1.75794e-18)
(1.01031 0.0284015 2.04202e-18)
(1.0104 0.0282404 -1.1941e-18)
(1.01041 0.0281569 -1.82409e-18)
(1.01032 0.0281264 1.40822e-18)
(1.01015 0.0281267 1.41299e-19)
(1.00988 0.0281282 -2.25878e-18)
(1.00952 0.0281081 1.55641e-18)
(1.00907 0.0280426 5.43805e-19)
(1.00851 0.0279186 -2.40177e-19)
(1.00784 0.0277253 3.58261e-19)
(1.00706 0.0274634 1.26732e-18)
(1.00619 0.0271353 -2.80498e-18)
(1.00523 0.0267548 1.55286e-18)
(1.00421 0.0263355 -5.09877e-19)
(1.00314 0.0258935 3.3737e-18)
(1.00206 0.0254448 -2.7663e-18)
(1.00099 0.0250012 8.90777e-19)
(0.999962 0.0245682 -2.29271e-18)
(0.999005 0.0241581 1.55803e-18)
(0.998143 0.0237784 -6.59039e-19)
(0.997395 0.0234332 2.16244e-18)
(0.99677 0.0231197 1.01188e-18)
(0.996269 0.0228243 -2.6416e-18)
(0.995887 0.0225387 1.42249e-18)
(0.995611 0.0222508 -4.63062e-20)
(0.995423 0.0219554 -9.70879e-19)
(0.995297 0.0216437 1.46491e-18)
(0.9952 0.0212979 1.8694e-19)
(0.995085 0.0209036 4.69029e-19)
(0.994899 0.0204298 -1.38405e-18)
(0.994572 0.0198487 5.32534e-19)
(0.994014 0.0191429 -3.22616e-19)
(0.993105 0.0182912 -1.77174e-20)
(0.991777 0.0171406 -9.79559e-19)
(0.989955 0.0157287 -1.95659e-19)
(0.987459 0.0139783 -5.8437e-19)
(0.984142 0.0117123 -3.24834e-18)
(0.980031 0.00878818 -1.88879e-18)
(0.975271 0.00504381 1.00754e-17)
(0.970114 0.000508592 1.8983e-17)
(0.964994 -0.00496509 -1.04353e-17)
(0.960461 -0.0118175 1.56654e-17)
(0.956916 -0.020221 1.32238e-17)
(0.954435 -0.0304063 2.28635e-17)
(0.952614 -0.0421775 6.42963e-17)
(0.951063 -0.0560082 4.08655e-17)
(0.949033 -0.0737326 -7.15349e-18)
(0.950449 -0.0975367 -1.01091e-16)
(0.95079 -0.130422 -2.52389e-17)
(0.95198 -0.163657 -4.73321e-18)
(0.980193 -0.258259 4.83364e-17)
(1.00505 0.0381013 1.14021e-18)
(1.00563 0.0376306 -1.18498e-18)
(1.00618 0.0369946 -4.32095e-19)
(1.00682 0.0363663 2.54098e-18)
(1.00745 0.0356829 -1.93203e-18)
(1.00806 0.0349989 -9.54898e-19)
(1.00862 0.0343378 1.9424e-18)
(1.00912 0.0337251 -2.0964e-18)
(1.00955 0.0331813 2.00257e-18)
(1.00989 0.032722 7.08298e-19)
(1.01015 0.0323525 -7.99412e-19)
(1.01032 0.0320746 -1.26144e-18)
(1.01042 0.031877 9.99036e-19)
(1.01044 0.0317468 -7.54055e-19)
(1.01038 0.0316595 2.10886e-19)
(1.01025 0.0315932 -3.65692e-19)
(1.01003 0.0315195 9.15132e-19)
(1.00972 0.0314176 1.22446e-18)
(1.0093 0.0312647 -3.44252e-18)
(1.00877 0.0310492 2.26995e-18)
(1.00813 0.0307608 -1.44194e-18)
(1.00737 0.0304024 -1.33662e-18)
(1.0065 0.0299788 1.63395e-18)
(1.00553 0.0295015 -6.87647e-20)
(1.00448 0.0289845 -9.52193e-19)
(1.00339 0.0284407 1.85601e-19)
(1.00228 0.0278796 2.15733e-18)
(1.00117 0.0273184 3.65904e-19)
(1.00012 0.0267696 -1.62077e-18)
(0.999139 0.0262453 1.14684e-18)
(0.998258 0.0257446 -1.73456e-18)
(0.997487 0.0252592 1.93568e-18)
(0.996834 0.0247864 1.24154e-18)
(0.996295 0.024318 6.15797e-19)
(0.995861 0.0238552 2.61097e-20)
(0.995511 0.023395 5.31464e-19)
(0.995215 0.022927 -1.28233e-18)
(0.994929 0.0224446 -1.45826e-18)
(0.994596 0.0219236 4.27011e-19)
(0.994143 0.0213442 4.74475e-19)
(0.993475 0.0206959 2.17676e-19)
(0.992469 0.0199554 2.53507e-20)
(0.991056 0.0189809 -2.19018e-18)
(0.989166 0.0177512 -7.09263e-19)
(0.986612 0.0161508 1.10851e-18)
(0.983224 0.013959 1.62261e-18)
(0.979 0.0109645 9.65367e-18)
(0.974042 0.00693047 -1.39203e-18)
(0.968531 0.00181343 5.05368e-18)
(0.962884 -0.00455374 2.4339e-17)
(0.957675 -0.012555 -1.88668e-18)
(0.953375 -0.0222005 -7.77739e-18)
(0.950212 -0.0335547 1.8831e-17)
(0.94794 -0.0462919 9.91531e-18)
(0.946261 -0.0607563 1.71158e-17)
(0.944574 -0.0788279 5.80092e-17)
(0.946833 -0.102566 8.31573e-17)
(0.948805 -0.134798 7.59652e-18)
(0.949982 -0.166902 6.5939e-17)
(0.986794 -0.255849 9.34823e-18)
(1.00476 0.0424097 -1.58777e-18)
(1.00516 0.0420702 1.14863e-18)
(1.00553 0.0415839 1.31863e-18)
(1.00604 0.0410576 -4.93635e-19)
(1.00658 0.0404348 -1.55721e-18)
(1.00714 0.0397639 3.0968e-18)
(1.0077 0.0390668 -3.76564e-18)
(1.00823 0.038372 1.30767e-18)
(1.00872 0.0377037 6.86276e-19)
(1.00914 0.0370862 1.31169e-18)
(1.0095 0.0365352 -1.86043e-18)
(1.00979 0.036065 -5.81293e-20)
(1.01 0.0356775 -5.18998e-19)
(1.01015 0.0353729 2.90999e-18)
(1.01023 0.0351375 -1.57995e-18)
(1.01025 0.0349572 9.1377e-19)
(1.01021 0.0348078 -1.2074e-18)
(1.01009 0.0346684 1.6258e-19)
(1.00989 0.0345111 1.50584e-18)
(1.0096 0.0343169 -8.73389e-19)
(1.0092 0.0340652 -6.48411e-19)
(1.00869 0.0337473 -4.4823e-19)
(1.00805 0.033357 1.46838e-18)
(1.00729 0.0328973 -8.93833e-19)
(1.00642 0.0323748 4.95746e-19)
(1.00545 0.0317985 -9.62621e-19)
(1.00439 0.0311775 7.74037e-19)
(1.0033 0.0305306 -1.13226e-18)
(1.00218 0.0298737 3.93674e-20)
(1.00109 0.0292223 -1.04854e-18)
(1.00004 0.0285803 8.6463e-20)
(0.999059 0.0279452 4.35545e-20)
(0.998168 0.0273158 -7.85028e-20)
(0.997372 0.0266904 3.63787e-19)
(0.996672 0.0260747 -2.86494e-19)
(0.99606 0.0254701 1.17909e-18)
(0.995511 0.0248729 -6.72018e-19)
(0.99499 0.024283 2.90101e-19)
(0.994446 0.0236829 3.3722e-19)
(0.99381 0.0230615 -4.0652e-19)
(0.992991 0.0224154 5.58652e-20)
(0.99187 0.0217221 -2.68967e-20)
(0.990384 0.020854 2.61239e-18)
(0.988472 0.0197398 1.52158e-18)
(0.985962 0.0182327 9.28615e-19)
(0.982674 0.0160959 2.85215e-18)
(0.978584 0.0130817 -3.74045e-18)
(0.973752 0.00891854 -1.02708e-17)
(0.968274 0.00351994 -7.61508e-18)
(0.962518 -0.00329521 -1.11233e-17)
(0.957031 -0.0118824 -4.45202e-18)
(0.952295 -0.0221617 -1.60428e-17)
(0.948646 -0.0341123 3.75779e-17)
(0.945981 -0.0473406 -6.35168e-17)
(0.944106 -0.0620734 -2.3636e-17)
(0.942608 -0.0801774 -5.35995e-17)
(0.945433 -0.103582 -4.26142e-17)
(0.94854 -0.134928 -6.07828e-17)
(0.949075 -0.165868 -1.52008e-17)
(0.992195 -0.252538 7.80897e-18)
(1.00477 0.0459413 1.82521e-18)
(1.00495 0.0457542 1.78825e-18)
(1.00512 0.0454597 -2.47622e-18)
(1.00545 0.0450967 7.27696e-19)
(1.00584 0.0446136 2.47787e-19)
(1.00631 0.0440453 1.62619e-18)
(1.0068 0.0434109 1.39005e-19)
(1.0073 0.042733 -2.26962e-18)
(1.00779 0.0420366 8.57877e-19)
(1.00825 0.0413469 7.16106e-19)
(1.00866 0.0406855 -8.26175e-20)
(1.00901 0.0400743 7.21288e-19)
(1.00929 0.0395261 2.51033e-19)
(1.00952 0.0390524 -2.02771e-18)
(1.00969 0.038652 5.14488e-19)
(1.0098 0.0383222 9.612e-19)
(1.00986 0.0380481 -3.66709e-19)
(1.00987 0.0378154 -2.0821e-18)
(1.00982 0.0375986 2.12224e-18)
(1.0097 0.037378 -4.52631e-19)
(1.0095 0.0371283 -9.01527e-19)
(1.0092 0.0368332 3.446e-19)
(1.00879 0.0364767 -2.19034e-19)
(1.00826 0.0360535 2.399e-19)
(1.00761 0.0355594 -1.21548e-18)
(1.00684 0.0349971 2.32938e-19)
(1.00595 0.0343709 -1.19377e-18)
(1.00496 0.0336962 8.39413e-19)
(1.00391 0.0329892 1.08488e-18)
(1.00282 0.0322682 1.74759e-19)
(1.00171 0.0315372 -1.25537e-18)
(1.00062 0.0307974 -9.99562e-19)
(0.999565 0.030052 9.28359e-19)
(0.998566 0.0293019 1.62066e-18)
(0.997634 0.0285572 -1.95514e-18)
(0.996768 0.0278222 6.81047e-19)
(0.995959 0.0270989 1.08085e-18)
(0.99518 0.0263916 8.76243e-19)
(0.994393 0.0256893 4.74187e-19)
(0.993541 0.0249884 4.86062e-19)
(0.992542 0.0242929 2.68415e-19)
(0.991295 0.0235822 -1.09108e-19)
(0.989742 0.022745 4.94879e-19)
(0.987842 0.021673 -1.8904e-18)
(0.985451 0.0201978 -6.11641e-19)
(0.98239 0.0180905 -7.64927e-18)
(0.97862 0.0150949 7.75869e-18)
(0.974165 0.0109401 1.66194e-17)
(0.969032 0.00552231 -9.49216e-18)
(0.963523 -0.00134745 -1.98374e-17)
(0.958121 -0.0100172 -2.0364e-17)
(0.953268 -0.0203766 3.8009e-17)
(0.949364 -0.0323921 -2.30227e-17)
(0.946408 -0.0456706 2.10121e-17)
(0.944294 -0.060355 1.24466e-17)
(0.942799 -0.0782887 -3.08585e-17)
(0.945847 -0.101308 1.39954e-17)
(0.949528 -0.131941 1.15367e-17)
(0.948711 -0.162381 4.582e-17)
(0.995934 -0.249872 -7.60616e-17)
(1.00516 0.0489748 -1.95823e-18)
(1.00512 0.0489453 2.89892e-18)
(1.00507 0.0488398 -3.89491e-19)
(1.0052 0.0486523 -1.71437e-18)
(1.00541 0.0483308 2.6399e-18)
(1.00572 0.047903 -2.10595e-18)
(1.00609 0.0473804 9.44431e-19)
(1.0065 0.0467814 -5.93757e-19)
(1.00694 0.0461253 -5.33969e-19)
(1.00737 0.0454361 1.73755e-18)
(1.00778 0.044735 8.76219e-19)
(1.00815 0.0440468 -2.33387e-18)
(1.00848 0.0433894 1.35369e-19)
(1.00875 0.0427825 -7.62419e-19)
(1.00896 0.0422342 7.8972e-19)
(1.00913 0.0417529 4.33889e-19)
(1.00924 0.0413342 6.14392e-19)
(1.00931 0.0409738 -1.24463e-18)
(1.00934 0.0406536 1.05701e-18)
(1.00932 0.0403586 -7.59322e-19)
(1.00923 0.0400651 5.93515e-20)
(1.00908 0.0397545 1.46581e-18)
(1.00885 0.0394058 -1.33675e-18)
(1.00851 0.0390073 1.71559e-18)
(1.00806 0.0385453 -6.86614e-19)
(1.00749 0.0380153 1.02404e-18)
(1.0068 0.0374142 5.41386e-19)
(1.00598 0.0367516 -3.56538e-19)
(1.00506 0.0360413 -2.28401e-19)
(1.00406 0.0352976 -9.14333e-19)
(1.00299 0.0345261 1.96707e-18)
(1.00188 0.0337294 -5.96501e-19)
(1.00075 0.0329098 5.52266e-19)
(0.999629 0.0320722 -1.06814e-18)
(0.998527 0.0312283 -7.11579e-19)
(0.997456 0.0303848 -1.23872e-18)
(0.996416 0.0295471 4.56092e-19)
(0.995395 0.0287228 6.15731e-19)
(0.994368 0.0279055 4.768e-19)
(0.993292 0.0270983 -2.94247e-19)