1.45 	0 	0 	0.0257126 	-0.00595211 	3.7713e-21
2.35 	0 	0 	0.199046 	-0.010819 	1.03213e-21
