1.45 	0 	0 	-0.00804715 	-0.00258672 	1.65549e-20
2.35 	0 	0 	0.0623704 	-0.00660741 	9.91908e-21
