1.45 	0 	0 	-0.29075
2.35 	0 	0 	-0.126603
