1.45 	0 	0 	-0.291375
2.35 	0 	0 	-0.126614
