/*--------------------------------*- C++ -*----------------------------------*\
  =========                 |
  \\      /  F ield         | OpenFOAM: The Open Source CFD Toolbox
   \\    /   O peration     | Website:  https://openfoam.org
    \\  /    A nd           | Version:  6.0
     \\/     M anipulation  |
\*---------------------------------------------------------------------------*/
FoamFile
{
    version     2.0;
    format      ascii;
    class       volScalarField;
    location    "47";
    object      p;
}
// * * * * * * * * * * * * * * * * * * * * * * * * * * * * * * * * * * * * * //

dimensions      [0 2 -2 0 0 0 0];

internalField   nonuniform List<scalar> 
2000
(
-0.348047
-0.353953
-0.355641
-0.354973
-0.353113
-0.350436
-0.347221
-0.343759
-0.340339
-0.336643
-0.350765
-0.356251
-0.3576
-0.356629
-0.354482
-0.35153
-0.348052
-0.34433
-0.340655
-0.336839
-0.35622
-0.360848
-0.361505
-0.359926
-0.357197
-0.35369
-0.349676
-0.345417
-0.341214
-0.337154
-0.364454
-0.367743
-0.367338
-0.364832
-0.361221
-0.356869
-0.352031
-0.346929
-0.341878
-0.337428
-0.375527
-0.376932
-0.375067
-0.371308
-0.366514
-0.361018
-0.355049
-0.348748
-0.342449
-0.337406
-0.389502
-0.388403
-0.384652
-0.379315
-0.373041
-0.366115
-0.358697
-0.350792
-0.342717
-0.336757
-0.406413
-0.402113
-0.396034
-0.388811
-0.380799
-0.3722
-0.36307
-0.353179
-0.34268
-0.335223
-0.426204
-0.417963
-0.409121
-0.399734
-0.389772
-0.379316
-0.368281
-0.356039
-0.342096
-0.331653
-0.448664
-0.435779
-0.423798
-0.412045
-0.4
-0.387556
-0.374316
-0.358755
-0.33867
-0.321359
-0.473357
-0.455298
-0.439966
-0.425891
-0.412105
-0.398409
-0.384045
-0.36638
-0.341341
-0.317364
-0.499598
-0.476093
-0.457354
-0.441184
-0.426455
-0.413544
-0.402789
-0.394832
-0.39497
-0.414503
-0.526561
-0.497587
-0.475346
-0.456815
-0.440478
-0.426796
-0.416243
-0.409879
-0.412835
-0.430106
-0.553524
-0.519322
-0.493669
-0.472667
-0.454303
-0.438941
-0.426948
-0.419043
-0.418334
-0.426152
-0.579839
-0.540827
-0.51201
-0.488566
-0.46793
-0.450286
-0.435795
-0.42471
-0.418507
-0.41717
-0.604756
-0.561433
-0.529746
-0.503869
-0.480656
-0.460091
-0.442132
-0.426657
-0.414087
-0.40446
-0.627287
-0.580208
-0.545931
-0.517568
-0.491425
-0.467352
-0.445226
-0.424736
-0.405714
-0.388927
-0.646146
-0.595941
-0.559335
-0.528381
-0.49895
-0.470899
-0.444191
-0.41852
-0.393468
-0.370815
-0.659776
-0.607177
-0.568497
-0.534824
-0.501801
-0.469474
-0.43806
-0.407406
-0.377061
-0.349886
-0.666413
-0.612277
-0.571794
-0.535305
-0.498502
-0.461822
-0.425871
-0.39073
-0.35603
-0.325642
-0.66419
-0.609503
-0.567533
-0.528211
-0.487623
-0.446772
-0.406739
-0.367854
-0.329861
-0.297495
-0.651254
-0.597111
-0.554042
-0.512015
-0.467872
-0.423319
-0.379932
-0.338252
-0.298107
-0.264911
-0.625867
-0.573462
-0.529786
-0.485378
-0.43819
-0.390704
-0.344946
-0.301587
-0.260479
-0.227518
-0.586559
-0.537148
-0.493486
-0.447262
-0.397839
-0.348478
-0.301555
-0.257765
-0.216914
-0.185182
-0.53223
-0.487109
-0.444232
-0.397015
-0.346466
-0.296541
-0.249837
-0.206967
-0.167616
-0.138043
-0.462278
-0.422748
-0.381575
-0.334442
-0.284124
-0.235145
-0.190169
-0.149642
-0.11306
-0.0865284
-0.376701
-0.344029
-0.305608
-0.259832
-0.211276
-0.16485
-0.123153
-0.0864087
-0.0538823
-0.0312619
-0.276188
-0.251557
-0.217013
-0.173985
-0.128779
-0.0865002
-0.0495588
-0.0179669
0.0091966
0.0269295
-0.162177
-0.146621
-0.117075
-0.0781898
-0.0378685
-0.00123508
0.0295552
0.0545657
0.074635
0.086016
-0.0368791
-0.0311931
-0.00764429
0.0258802
0.060071
0.0898925
0.113331
0.129976
0.13991
0.142281
0.096751
0.0920852
0.108866
0.136195
0.163717
0.186706
0.203194
0.211561
0.210527
0.203798
0.235137
0.219948
0.229354
0.249861
0.270611
0.287725
0.299929
0.305411
0.304364
0.318282
0.374385
0.34875
0.350205
0.363025
0.376045
0.386019
0.392072
0.393314
0.392236
0.40516
0.510549
0.47482
0.468012
0.472564
0.477217
0.479296
0.478233
0.473612
0.467919
0.473022
0.639785
0.594548
0.579483
0.575581
0.571682
0.565694
0.557358
0.546524
0.535266
0.532424
0.758429
0.704496
0.681523
0.669414
0.657248
0.6435
0.628189
0.611352
0.594682
0.584735
0.863097
0.801496
0.771314
0.75167
0.731961
0.711185
0.689598
0.667386
0.645871
0.629715
0.950772
0.882741
0.846369
0.820233
0.79407
0.767321
0.740442
0.713731
0.688156
0.666797
1.0189
0.945863
0.904593
0.873318
0.842072
0.810646
0.77965
0.749462
0.720742
0.695326
1.06548
0.98901
0.944351
0.909519
0.874771
0.840135
0.806327
0.773776
0.742911
0.71471
1.08912
1.01091
0.964517
0.927868
0.891333
0.855066
0.819832
0.786087
0.754135
0.724516
1.08912
1.01091
0.964517
0.927868
0.891333
0.855066
0.819832
0.786087
0.754135
0.724516
1.06548
0.98901
0.944351
0.909519
0.874771
0.840135
0.806327
0.773776
0.742911
0.71471
1.0189
0.945863
0.904593
0.873318
0.842072
0.810646
0.77965
0.749462
0.720742
0.695326
0.950772
0.882741
0.846368
0.820233
0.79407
0.767321
0.740442
0.713731
0.688156
0.666797
0.863097
0.801496
0.771314
0.75167
0.731961
0.711185
0.689598
0.667386
0.645871
0.629715
0.758429
0.704496
0.681523
0.669414
0.657248
0.6435
0.628189
0.611352
0.594682
0.584735
0.639785
0.594548
0.579483
0.575581
0.571682
0.565694
0.557358
0.546524
0.535266
0.532424
0.510549
0.47482
0.468012
0.472564
0.477217
0.479296
0.478233
0.473612
0.467919
0.473022
0.374385
0.34875
0.350205
0.363024
0.376045
0.386018
0.392072
0.393314
0.392236
0.40516
0.235137
0.219948
0.229354
0.249861
0.270611
0.287725
0.299929
0.305411
0.304364
0.318282
0.0967509
0.092085
0.108866
0.136195
0.163716
0.186706
0.203193
0.211561
0.210526
0.203797
-0.0368792
-0.0311933
-0.00764444
0.0258801
0.0600708
0.0898923
0.113331
0.129975
0.139909
0.14228
-0.162177
-0.146622
-0.117075
-0.07819
-0.0378687
-0.00123524
0.029555
0.0545655
0.0746349
0.0860159
-0.276188
-0.251558
-0.217013
-0.173985
-0.128779
-0.0865004
-0.049559
-0.0179671
0.00919644
0.0269294
-0.376702
-0.344029
-0.305608
-0.259832
-0.211276
-0.16485
-0.123153
-0.0864089
-0.0538824
-0.0312621
-0.462278
-0.422748
-0.381575
-0.334442
-0.284125
-0.235145
-0.190169
-0.149642
-0.11306
-0.0865286
-0.53223
-0.487109
-0.444232
-0.397015
-0.346466
-0.296541
-0.249837
-0.206967
-0.167616
-0.138044
-0.586559
-0.537149
-0.493486
-0.447262
-0.39784
-0.348478
-0.301555
-0.257765
-0.216914
-0.185182
-0.625868
-0.573463
-0.529786
-0.485378
-0.43819
-0.390704
-0.344947
-0.301587
-0.26048
-0.227519
-0.651254
-0.597112
-0.554042
-0.512015
-0.467872
-0.42332
-0.379933
-0.338252
-0.298108
-0.264911
-0.664191
-0.609503
-0.567533
-0.528211
-0.487624
-0.446773
-0.406739
-0.367854
-0.329862
-0.297496
-0.666413
-0.612277
-0.571795
-0.535305
-0.498503
-0.461823
-0.425872
-0.390731
-0.35603
-0.325642
-0.659776
-0.607177
-0.568497
-0.534825
-0.501801
-0.469474
-0.438061
-0.407407
-0.377061
-0.349886
-0.646147
-0.595941
-0.559336
-0.528381
-0.49895
-0.470899
-0.444191
-0.41852
-0.393468
-0.370815
-0.627287
-0.580209
-0.545931
-0.517569
-0.491426
-0.467352
-0.445226
-0.424736
-0.405715
-0.388927
-0.604757
-0.561434
-0.529746
-0.503869
-0.480656
-0.460091
-0.442133
-0.426658
-0.414087
-0.404461
-0.57984
-0.540827
-0.512011
-0.488567
-0.467931
-0.450287
-0.435795
-0.42471
-0.418508
-0.41717
-0.553525
-0.519323
-0.49367
-0.472667
-0.454303
-0.438941
-0.426948
-0.419043
-0.418335
-0.426152
-0.526561
-0.497588
-0.475346
-0.456816
-0.440479
-0.426797
-0.416244
-0.40988
-0.412836
-0.430107
-0.499598
-0.476093
-0.457354
-0.441184
-0.426456
-0.413544
-0.402789
-0.394832
-0.39497
-0.414503
-0.473358
-0.455298
-0.439966
-0.425891
-0.412106
-0.398409
-0.384046
-0.366381
-0.341341
-0.317364
-0.448665
-0.43578
-0.423799
-0.412045
-0.4
-0.387556
-0.374316
-0.358756
-0.338671
-0.32136
-0.426205
-0.417963
-0.409122
-0.399735
-0.389772
-0.379317
-0.368282
-0.35604
-0.342097
-0.331654
-0.406413
-0.402113
-0.396035
-0.388811
-0.380799
-0.3722
-0.36307
-0.353179
-0.342681
-0.335224
-0.389503
-0.388404
-0.384652
-0.379316
-0.373042
-0.366116
-0.358698
-0.350793
-0.342717
-0.336758
-0.375527
-0.376933
-0.375067
-0.371309
-0.366514
-0.361019
-0.35505
-0.348749
-0.342449
-0.337406
-0.364455
-0.367743
-0.367338
-0.364832
-0.361222
-0.356869
-0.352032
-0.346929
-0.341878
-0.337429
-0.356221
-0.360848
-0.361506
-0.359926
-0.357197
-0.35369
-0.349676
-0.345418
-0.341214
-0.337154
-0.350765
-0.356252
-0.3576
-0.356629
-0.354482
-0.35153
-0.348052
-0.34433
-0.340655
-0.33684
-0.348047
-0.353953
-0.355641
-0.354973
-0.353113
-0.350436
-0.347221
-0.343759
-0.340339
-0.336643
-0.290434
-0.126294
-0.0812271
-0.0303247
-0.0192198
-0.0077864
-0.00434609
-0.000875377
-0.00045776
0.00217128
-0.291664
-0.126842
-0.0814977
-0.0305234
-0.0192877
-0.00784601
-0.00437549
-0.000895834
-0.000466819
0.0021553
-0.294056
-0.127923
-0.0820333
-0.030922
-0.0194234
-0.00796511
-0.00443444
-0.000937
-0.000484955
0.00212362
-0.297467
-0.129514
-0.0828225
-0.0315223
-0.0196264
-0.00814324
-0.00452276
-0.000998775
-0.000511984
0.00207659
-0.301652
-0.13157
-0.0838391
-0.0323228
-0.0198948
-0.008379
-0.00463996
-0.00108096
-0.000547627
0.00201464
-0.306256
-0.134016
-0.0850338
-0.0333095
-0.0202227
-0.00866882
-0.00478481
-0.00118303
-0.000591527
0.00193842
-0.311148
-0.136921
-0.086412
-0.0344778
-0.0206108
-0.00900995
-0.0049568
-0.00130401
-0.000643886
0.00184952
-0.316851
-0.140936
-0.0882364
-0.0359284
-0.0211023
-0.00941584
-0.00516194
-0.00144425
-0.000706242
0.0017507
-0.321628
-0.146441
-0.0906852
-0.0378265
-0.021748
-0.00991356
-0.00540942
-0.00160911
-0.000777003
0.0016394
-0.313824
-0.148817
-0.091796
-0.0395281
-0.0222504
-0.0104055
-0.00565408
-0.00179994
-0.000836621
0.00149274
-0.247292
-0.140719
-0.088175
-0.0427834
-0.0227491
-0.011737
-0.00637046
-0.00253954
-0.00100213
0.000839518
-0.189197
-0.131711
-0.0821723
-0.0442417
-0.0244823
-0.0141292
-0.00821952
-0.0040234
-0.00176367
-2.37703e-06
-0.147781
-0.113853
-0.0727432
-0.0428106
-0.0259078
-0.0163352
-0.0101549
-0.00561539
-0.00269825
-0.000682109
-0.108188
-0.0929522
-0.0633233
-0.0408412
-0.0269573
-0.0181305
-0.0118299
-0.00705079
-0.00358915
-0.00115292
-0.0789506
-0.0756799
-0.056523
-0.0395858
-0.0277814
-0.0194759
-0.0131423
-0.00820502
-0.00433658
-0.00145132
-0.0588589
-0.0628328
-0.051563
-0.038586
-0.0281925
-0.020323
-0.0140693
-0.0090595
-0.0049149
-0.00164482
-0.0458335
-0.0535717
-0.0477013
-0.0376158
-0.0282805
-0.0208045
-0.0146931
-0.00966777
-0.00534349
-0.00178143
-0.0375892
-0.0471124
-0.0447392
-0.0367627
-0.0282356
-0.0210741
-0.0151013
-0.0100848
-0.00564621
-0.00188021
-0.0327674
-0.0430116
-0.0427317
-0.0361597
-0.0281793
-0.0212206
-0.0153462
-0.0103442
-0.00583918
-0.00194479
-0.0305369
-0.0410101
-0.0417207
-0.0358627
-0.0281555
-0.0212854
-0.0154593
-0.0104661
-0.00593354
-0.00197504
-0.21859
-0.246487
-0.272267
-0.29621
-0.318705
-0.340254
-0.361479
-0.383023
-0.405389
-0.429231
-0.0679452
-0.0780878
-0.0872524
-0.0956823
-0.103685
-0.11164
-0.120006
-0.129323
-0.140169
-0.154336
-0.0451741
-0.0543559
-0.0631521
-0.071536
-0.07947
-0.0869094
-0.0938106
-0.100147
-0.105915
-0.111236
-0.0187509
-0.0244709
-0.0299846
-0.0353109
-0.0404716
-0.0454902
-0.0503898
-0.0551923
-0.0598979
-0.0643859
-0.0130416
-0.0173976
-0.0216289
-0.0257321
-0.0297035
-0.0335391
-0.0372352
-0.040789
-0.0441808
-0.0473792
-0.00798727
-0.0112046
-0.0143625
-0.0174601
-0.0204968
-0.0234719
-0.0263852
-0.0292351
-0.0320099
-0.0347133
-0.00686367
-0.00940058
-0.0119012
-0.0143614
-0.0167778
-0.0191472
-0.0214671
-0.0237349
-0.0259447
-0.0281097
-0.0060627
-0.00812061
-0.010162
-0.0121828
-0.0141793
-0.016148
-0.0180859
-0.01999
-0.0218568
-0.0236937
-0.0059751
-0.0077498
-0.00951657
-0.0112709
-0.0130086
-0.0147258
-0.0164189
-0.0180848
-0.0197213
-0.0213297
-0.00591911
-0.0075451
-0.0091685
-0.0107855
-0.0123927
-0.0139866
-0.0155642
-0.0171226
-0.0186603
-0.0201755
0.168009
0.127022
0.0816737
0.0386046
-0.00313381
-0.0440129
-0.0834161
-0.120761
-0.15578
-0.188386
0.117539
0.0916246
0.0648328
0.041994
0.0218739
0.00320013
-0.0141102
-0.0298462
-0.0439813
-0.0566307
0.0734195
0.0577215
0.0427685
0.0298564
0.0180051
0.00653847
-0.00461445
-0.0153657
-0.0256922
-0.0356205
0.0531638
0.0440908
0.0354618
0.0277514
0.0204851
0.0133925
0.00647592
-0.000205996
-0.00663195
-0.0128091
0.0376272
0.0316758
0.0259356
0.020645
0.0155547
0.0105337
0.00558867
0.000751039
-0.00396669
-0.0085641
0.0273657
0.0234768
0.0196315
0.0159938
0.0124513
0.00893592
0.00544918
0.0020078
-0.00137991
-0.00471192
0.0196632
0.0169348
0.0141796
0.011503
0.00885696
0.0062086
0.0035597
0.000921435
-0.00169834
-0.00429479
0.0144829
0.0124878
0.0104425
0.00840945
0.00637198
0.0043165
0.00224538
0.000166165
-0.0019148
-0.0039926
0.0111523
0.0095574
0.00791347
0.00624975
0.00456146
0.00284548
0.00110569
-0.000651762
-0.00242113
-0.00419723
0.00955623
0.00813561
0.00667166
0.00517862
0.00365586
0.00210445
0.000528702
-0.0010662
-0.00267543
-0.00429449
0.335424
0.334724
0.333174
0.3303
0.325316
0.316985
0.303535
0.282574
0.251467
0.20685
0.245526
0.24441
0.241774
0.23719
0.230319
0.220734
0.207862
0.191047
0.16954
0.142785
0.174695
0.173566
0.1709
0.166375
0.159885
0.151321
0.140495
0.127191
0.111003
0.0920164
0.123086
0.1222
0.120098
0.116535
0.111496
0.105004
0.0970548
0.0876566
0.0767318
0.0646156
0.0867523
0.0861078
0.0845688
0.0819558
0.0782758
0.0735814
0.0679067
0.0612898
0.0537112
0.0453794
0.0615733
0.0611099
0.0600013
0.0581192
0.0554767
0.052125
0.0481059
0.0434632
0.0382147
0.0325065
0.0444221
0.0440835
0.0432734
0.0418981
0.0399694
0.0375274
0.0346059
0.0312377
0.0274422
0.0233034
0.0331366
0.0328798
0.0322653
0.0312222
0.02976
0.0279099
0.0256989
0.023152
0.0202897
0.0171638
0.0263009
0.0260924
0.0255937
0.0247473
0.0235606
0.0220587
0.0202627
0.0181917
0.0158633
0.013309
0.0230805
0.022894
0.0224488
0.0216937
0.0206349
0.0192945
0.0176911
0.015841
0.013761
0.0114739
0.485398
0.487151
0.493484
0.50463
0.520481
0.541341
0.567675
0.600008
0.638875
0.684523
0.483157
0.484884
0.491137
0.502127
0.51773
0.538212
0.563982
0.595476
0.633096
0.67693
0.478726
0.480408
0.486508
0.497195
0.512312
0.532054
0.556713
0.586554
0.621704
0.661954
0.472206
0.473833
0.479723
0.489978
0.504395
0.523061
0.546098
0.573516
0.605023
0.64
0.463736
0.465312
0.470953
0.480673
0.494204
0.5115
0.53246
0.55675
0.583516
0.611655
0.453483
0.455032
0.460406
0.469507
0.481998
0.497671
0.516158
0.536704
0.557756
0.577656
0.441644
0.443233
0.44836
0.456799
0.468138
0.481984
0.497662
0.513919
0.528418
0.538868
0.428425
0.43024
0.435256
0.443105
0.45332
0.465289
0.477958
0.489439
0.496503
0.496087
0.413896
0.416187
0.421281
0.428667
0.437863
0.448035
0.457686
0.464097
0.462886
0.448807
0.397694
0.400129
0.404796
0.411053
0.418433
0.425983
0.431931
0.433055
0.424589
0.396886
0.397694
0.40013
0.404797
0.411053
0.418433
0.425984
0.431932
0.433055
0.424589
0.396886
0.413896
0.416188
0.421282
0.428668
0.437863
0.448036
0.457686
0.464097
0.462886
0.448807
0.428425
0.430241
0.435256
0.443105
0.453321
0.465289
0.477959
0.489439
0.496503
0.496087
0.441644
0.443233
0.44836
0.456799
0.468139
0.481985
0.497663
0.513919
0.528418
0.538868
0.453483
0.455032
0.460406
0.469507
0.481998
0.497671
0.516158
0.536704
0.557756
0.577656
0.463736
0.465313
0.470954
0.480673
0.494204
0.5115
0.53246
0.55675
0.583516
0.611655
0.472206
0.473833
0.479723
0.489979
0.504395
0.523061
0.546098
0.573516
0.605023
0.64
0.478726
0.480408
0.486508
0.497195
0.512312
0.532054
0.556713
0.586554
0.621704
0.661954
0.483157
0.484884
0.491137
0.502127
0.51773
0.538212
0.563982
0.595476
0.633096
0.67693
0.485398
0.487151
0.493484
0.50463
0.520481
0.541341
0.567675
0.600008
0.638875
0.684523
0.0230807
0.0228942
0.022449
0.0216939
0.0206351
0.0192947
0.0176913
0.0158412
0.0137612
0.011474
0.0263011
0.0260926
0.0255939
0.0247475
0.0235608
0.0220589
0.0202629
0.0181919
0.0158635
0.0133092
0.0331368
0.03288
0.0322655
0.0312224
0.0297601
0.0279101
0.0256991
0.0231522
0.0202898
0.017164
0.0444222
0.0440837
0.0432735
0.0418983
0.0399695
0.0375275
0.0346061
0.0312379
0.0274423
0.0233035
0.0615734
0.06111
0.0600015
0.0581193
0.0554768
0.0521252
0.048106
0.0434634
0.0382148
0.0325066
0.0867523
0.0861079
0.0845689
0.0819559
0.0782759
0.0735815
0.0679068
0.0612899
0.0537112
0.0453795
0.123086
0.1222
0.120098
0.116535
0.111496
0.105004
0.0970549
0.0876567
0.0767318
0.0646156
0.174695
0.173566
0.1709
0.166375
0.159885
0.151321
0.140495
0.127191
0.111003
0.0920164
0.245526
0.24441
0.241774
0.23719
0.230319
0.220734
0.207863
0.191047
0.16954
0.142785
0.335424
0.334724
0.333175
0.3303
0.325316
0.316985
0.303536
0.282574
0.251467
0.20685
0.00955637
0.00813574
0.00667178
0.00517871
0.00365594
0.0021045
0.000528739
-0.00106619
-0.00267544
-0.00429453
0.0111525
0.00955753
0.00791358
0.00624984
0.00456153
0.00284554
0.00110573
-0.000651749
-0.00242114
-0.00419726
0.014483
0.0124879
0.0104426
0.00840954
0.00637205
0.00431656
0.00224543
0.000166188
-0.0019148
-0.00399261
0.0196633
0.0169349
0.0141797
0.0115031
0.00885702
0.00620865
0.00355973
0.000921447
-0.00169835
-0.00429482
0.0273658
0.0234769
0.0196316
0.0159939
0.0124513
0.00893597
0.00544922
0.00200781
-0.00137992
-0.00471195
0.0376272
0.0316759
0.0259357
0.0206451
0.0155548
0.0105337
0.00558868
0.000751026
-0.00396673
-0.00856416
0.0531638
0.0440908
0.0354618
0.0277514
0.0204851
0.0133925
0.00647591
-0.00020602
-0.00663199
-0.0128091
0.0734195
0.0577215
0.0427685
0.0298564
0.0180051
0.00653843
-0.00461451
-0.0153658
-0.0256923
-0.0356206
0.117539
0.0916246
0.0648327
0.041994
0.0218738
0.00320005
-0.0141103
-0.0298463
-0.0439814
-0.0566309
0.168009
0.127022
0.0816736
0.0386044
-0.00313398
-0.044013
-0.0834163
-0.120761
-0.15578
-0.188387
-0.00591915
-0.00754516
-0.00916857
-0.0107856
-0.0123928
-0.0139867
-0.0155643
-0.0171227
-0.0186604
-0.0201757
-0.00597514
-0.00774985
-0.00951665
-0.011271
-0.0130087
-0.0147259
-0.0164191
-0.0180849
-0.0197214
-0.0213298
-0.00606273
-0.00812068
-0.0101621
-0.0121829
-0.0141794
-0.0161482
-0.0180861
-0.0199901
-0.0218569
-0.0236938
-0.00686372
-0.00940065
-0.0119013
-0.0143616
-0.016778
-0.0191474
-0.0214672
-0.0237351
-0.0259448
-0.0281098
-0.00798732
-0.0112047
-0.0143626
-0.0174602
-0.0204969
-0.0234721
-0.0263854
-0.0292353
-0.0320101
-0.0347135
-0.0130417
-0.0173977
-0.021629
-0.0257323
-0.0297037
-0.0335392
-0.0372354
-0.0407892
-0.044181
-0.0473794
-0.018751
-0.024471
-0.0299847
-0.035311
-0.0404718
-0.0454904
-0.05039
-0.0551926
-0.0598982
-0.0643862
-0.0451742
-0.0543561
-0.0631523
-0.0715362
-0.0794703
-0.0869097
-0.0938109
-0.100147
-0.105915
-0.111237
-0.0679454
-0.078088
-0.0872527
-0.0956827
-0.103685
-0.111641
-0.120007
-0.129323
-0.140169
-0.154336
-0.218591
-0.246488
-0.272267
-0.296211
-0.318705
-0.340255
-0.361479
-0.383023
-0.405389
-0.429232
-0.030537
-0.0410103
-0.041721
-0.035863
-0.028156
-0.0212861
-0.0154602
-0.0104669
-0.00593408
-0.00197525
-0.0327675
-0.0430118
-0.042732
-0.0361599
-0.0281798
-0.0212213
-0.0153471
-0.010345
-0.00583974
-0.001945
-0.0375893
-0.0471126
-0.0447395
-0.0367629
-0.028236
-0.0210749
-0.0151023
-0.0100857
-0.00564685
-0.00188042
-0.0458337
-0.053572
-0.0477015
-0.0376158
-0.0282808
-0.0208053
-0.0146941
-0.00966885
-0.00534423
-0.00178162
-0.0588591
-0.062833
-0.0515631
-0.0385859
-0.0281928
-0.0203239
-0.0140705
-0.00906085
-0.00491578
-0.00164495
-0.0789508
-0.0756801
-0.056523
-0.0395853
-0.0277815
-0.0194769
-0.0131438
-0.00820682
-0.00433763
-0.0014513
-0.108189
-0.0929524
-0.063323
-0.0408402
-0.0269573
-0.0181317
-0.0118317
-0.00705322
-0.00359038
-0.00115263
-0.147782
-0.113854
-0.0727425
-0.0428089
-0.0259076
-0.0163367
-0.0101573
-0.00561871
-0.00269962
-0.000681392
-0.189198
-0.131711
-0.082171
-0.044239
-0.0244816
-0.0141307
-0.00822259
-0.00402779
-0.0017651
-1.10208e-06
-0.247293
-0.14072
-0.0881734
-0.0427799
-0.0227479
-0.0117382
-0.00637394
-0.00254473
-0.00100349
0.000841265
-0.313825
-0.148818
-0.0917945
-0.0395249
-0.0222493
-0.0104063
-0.00565718
-0.00180486
-0.000837648
0.00149453
-0.321629
-0.146442
-0.0906837
-0.0378235
-0.0217471
-0.00991439
-0.00541236
-0.00161373
-0.000777902
0.00164111
-0.316852
-0.140937
-0.0882349
-0.0359256
-0.0211015
-0.00941664
-0.00516463
-0.00144838
-0.00070701
0.00175222
-0.311149
-0.136921
-0.0864106
-0.0344753
-0.02061
-0.0090107
-0.0049592
-0.00130763
-0.000644538
0.00185085
-0.306257
-0.134017
-0.0850326
-0.0333073
-0.0202221
-0.00866949
-0.00478691
-0.00118613
-0.000592072
0.00193956
-0.301653
-0.131571
-0.083838
-0.0323209
-0.0198943
-0.00837957
-0.00464172
-0.00108353
-0.000548071
0.00201558
-0.297467
-0.129514
-0.0828216
-0.0315209
-0.019626
-0.0081437
-0.00452415
-0.0010008
-0.000512332
0.00207733
-0.294056
-0.127923
-0.0820326
-0.0309209
-0.0194231
-0.00796545
-0.00443545
-0.000938459
-0.000485212
0.00212415
-0.291665
-0.126842
-0.0814973
-0.0305228
-0.0192875
-0.00784622
-0.0043761
-0.000896718
-0.000466992
0.00215562
-0.290434
-0.126294
-0.081227
-0.0303244
-0.0192197
-0.00778647
-0.00434629
-0.000875674
-0.000457826
0.00217138
)
;

boundaryField
{
    inlet
    {
        type            zeroGradient;
    }
    outlet
    {
        type            fixedValue;
        value           uniform 0;
    }
    cylinder
    {
        type            zeroGradient;
    }
    top
    {
        type            symmetryPlane;
    }
    bottom
    {
        type            symmetryPlane;
    }
    defaultFaces
    {
        type            empty;
    }
}


// ************************************************************************* //
