/*--------------------------------*- C++ -*----------------------------------*\
  =========                 |
  \\      /  F ield         | OpenFOAM: The Open Source CFD Toolbox
   \\    /   O peration     | Website:  https://openfoam.org
    \\  /    A nd           | Version:  6.0
     \\/     M anipulation  |
\*---------------------------------------------------------------------------*/
FoamFile
{
    version     2.0;
    format      ascii;
    class       surfaceScalarField;
    location    "47";
    object      phi;
}
// * * * * * * * * * * * * * * * * * * * * * * * * * * * * * * * * * * * * * //

dimensions      [0 3 -1 0 0 0 0];

internalField   nonuniform List<scalar> 
3880
(
-1.79761e-05
1.79756e-05
5.22577e-10
-5.34941e-05
3.55168e-05
1.13734e-09
-9.53867e-05
4.18912e-05
1.47078e-09
-0.000136589
4.12008e-05
1.62497e-09
-0.000172741
3.61501e-05
1.66333e-09
-0.000201431
2.86884e-05
1.626e-09
-0.000221726
2.02941e-05
1.54054e-09
-0.000233865
1.21376e-05
1.42805e-09
-0.000239055
5.18833e-06
1.30594e-09
2.20699e-07
1.18774e-09
-0.000239277
-1.72975e-05
3.52731e-05
-5.08455e-05
6.90648e-05
-8.96151e-05
8.06608e-05
-0.000126654
7.82398e-05
-0.000157643
6.71391e-05
-0.000180138
5.11829e-05
-0.000193118
3.32742e-05
-0.000196722
1.57418e-05
-0.000192102
5.68405e-07
-1.06081e-05
-0.000181273
-1.59051e-05
5.11782e-05
-4.54318e-05
9.85915e-05
-7.78684e-05
0.000113097
-0.000106532
0.000106903
-0.000127229
8.7836e-05
-0.000137483
6.14373e-05
-0.000136118
3.19091e-05
-0.000123064
2.68814e-06
-9.93372e-05
-2.31587e-05
-4.29412e-05
-6.70041e-05
-1.37116e-05
6.48898e-05
-3.69709e-05
0.000121851
-5.96378e-05
0.000135764
-7.55368e-05
0.000122802
-8.07747e-05
9.30739e-05
-7.29306e-05
5.35932e-05
-5.0654e-05
9.63243e-06
-1.35598e-05
-3.4406e-05
3.76057e-05
-7.43242e-05
-0.000106088
0.000100752
-1.05536e-05
7.54434e-05
-2.49452e-05
0.000136242
-3.39537e-05
0.000144773
-3.22508e-05
0.000121099
-1.65507e-05
7.73738e-05
1.5273e-05
2.17695e-05
6.46304e-05
-3.97249e-05
0.000132284
-0.00010206
0.000217954
-0.000159994
-0.000207779
0.000319645
-6.17986e-06
8.16233e-05
-8.5661e-06
0.000138629
7.21047e-07
0.000135486
2.57467e-05
9.60738e-05
6.87376e-05
3.43829e-05
0.000131058
-4.05504e-05
0.000213791
-0.000122458
0.000317946
-0.000206215
0.000443946
-0.000285994
-0.000353893
0.00059006
-2.7865e-07
8.19019e-05
1.31418e-05
0.000125208
4.63786e-05
0.000102249
0.000101846
4.06062e-05
0.000180192
-4.39628e-05
0.000281302
-0.000141661
0.000405092
-0.000246248
0.000552118
-0.000353241
0.000723463
-0.000457339
-0.000548658
0.000918228
7.43373e-06
7.44682e-05
4.1061e-05
9.15811e-05
0.000104944
3.83658e-05
0.000199677
-5.41268e-05
0.000323967
-0.000168253
0.000475441
-0.000293135
0.000651484
-0.00042229
0.000850389
-0.000552147
0.00107263
-0.000679576
-0.000797594
0.00132156
1.70653e-05
5.7403e-05
7.55054e-05
3.3141e-05
0.000177309
-6.34381e-05
0.000321563
-0.00019838
0.000505317
-0.000352008
0.000723808
-0.000511625
0.00097076
-0.000669243
0.00123936
-0.000820747
0.00152585
-0.000966065
-0.00111589
0.00184415
2.83502e-05
2.90528e-05
0.00011556
-5.40689e-05
0.000261834
-0.000209712
0.00046577
-0.000402316
0.000724578
-0.000610816
0.00103379
-0.00082084
0.00138662
-0.00102207
0.00177226
-0.00120639
0.00217502
-0.00136882
-0.00151335
0.00257248
4.04746e-05
-1.14218e-05
0.000158374
-0.000171968
0.000352086
-0.000403424
0.000620348
-0.000670579
0.000962543
-0.00095301
0.00137937
-0.00123766
0.00187407
-0.00151677
0.00245575
-0.00178807
0.00314735
-0.00206042
-0.00237218
0.00400617
5.23591e-05
-6.37809e-05
0.000199953
-0.000319562
0.000438004
-0.000641475
0.000762999
-0.000995574
0.00117226
-0.00136227
0.00166392
-0.00172932
0.00223691
-0.00208976
0.00289038
-0.00244154
0.00361882
-0.00278886
-0.00314078
0.00438742
6.34846e-05
-0.000127266
0.00023825
-0.000494327
0.000514862
-0.000918086
0.000885311
-0.00136602
0.00134183
-0.00181879
0.0018763
-0.00226379
0.00247952
-0.00269298
0.00313969
-0.00310171
0.00383825
-0.00348742
-0.00384398
0.00454145
7.38713e-05
-0.000201137
0.000272988
-0.000693444
0.00058212
-0.00122722
0.000987486
-0.00177139
0.00147521
-0.00230652
0.0020307
-0.00281927
0.00263815
-0.00330043
0.00327987
-0.00374342
0.00393458
-0.00414214
-0.00448536
0.00457596
8.36626e-05
-0.000284799
0.000304313
-0.000914094
0.000640047
-0.00156295
0.00107069
-0.00220203
0.00157622
-0.00281205
0.00213646
-0.00337951
0.0027312
-0.00389518
0.00334036
-0.00435258
0.0039438
-0.00474557
-0.00506325
0.00452169
9.28481e-05
-0.000377647
0.000331966
-0.00115321
0.000688071
-0.00191906
0.00113437
-0.00264833
0.00164513
-0.00332281
0.00219582
-0.0039302
0.00276372
-0.00446308
0.00332854
-0.0049174
0.00387285
-0.00528988
-0.00557322
0.00438282
0.000101184
-0.000478832
0.000355066
-0.00140709
0.000724484
-0.00228848
0.00117614
-0.00309998
0.00167935
-0.00382603
0.00220662
-0.00445747
0.00273444
-0.0049909
0.00324398
-0.00542694
0.00372141
-0.00576732
-0.00601042
0.00415861
0.000108241
-0.000587073
0.000372269
-0.00167112
0.000746862
-0.00266307
0.0011927
-0.00354582
0.00167529
-0.00430862
0.00216569
-0.00494787
0.00264125
-0.00546646
0.0030859
-0.00587159
0.00349007
-0.00617149
-0.00637123
0.00385088
0.000113496
-0.000700569
0.00038206
-0.00193969
0.000752694
-0.0030337
0.00118098
-0.00397411
0.00163007
-0.00475771
0.00207123
-0.00538903
0.00248414
-0.00587936
0.00285648
-0.00624393
0.00318316
-0.00649817
-0.00665404
0.00346597
0.000116416
-0.000816985
0.000383026
-0.0022063
0.000739894
-0.00339057
0.0011389
-0.00437312
0.00154253
-0.00516134
0.00192389
-0.00577039
0.00226619
-0.00622166
0.00256142
-0.00653916
0.00280888
-0.00674562
-0.00685928
0.00301412
0.000116537
-0.000933521
0.00037406
-0.00246382
0.000707145
-0.00372366
0.00106577
-0.00473174
0.00141354
-0.00550912
0.00172689
-0.00608374
0.00199335
-0.00648812
0.00220937
-0.00675518
0.00237812
-0.00691437
-0.00698915
0.00250799
0.000113457
-0.00104698
0.000354398
-0.00270476
0.000653935
-0.00402319
0.000962217
-0.00504002
0.00124578
-0.00579268
0.00148545
-0.00632341
0.00167352
-0.00667618
0.0018106
-0.00689226
0.00190303
-0.00700681
-0.00704716
0.00196104
0.000106917
-0.0011539
0.000323755
-0.0029216
0.000580684
-0.00428012
0.000830232
-0.00528957
0.00104342
-0.00600587
0.00120625
-0.00648624
0.0013157
-0.00678563
0.001376
-0.00695257
0.00139579
-0.0070266
-0.0070376
0.00138623
9.67702e-05
-0.00125067
0.000282254
-0.00310708
0.000488542
-0.00448641
0.000672711
-0.00547374
0.000811535
-0.00614469
0.000896523
-0.00657123
0.000928983
-0.00681809
0.000915977
-0.00693956
0.000867562
-0.00697818
-0.00696517
0.000795127
8.29983e-05
-0.00133366
0.000230411
-0.00325449
0.000379273
-0.00463527
0.000493177
-0.00558764
0.000555544
-0.00620706
0.000563392
-0.00657908
0.000521775
-0.00677647
0.000439701
-0.00685748
0.000327819
-0.0068663
-0.00683459
0.000197246
6.57186e-05
-0.00139938
0.00016911
-0.00335789
0.000255133
-0.0047213
0.00029552
-0.00562803
0.00028084
-0.00619238
0.000213372
-0.00651161
0.000101238
-0.00666434
-4.54377e-05
-0.00671081
-0.000216165
-0.00669557
-0.00665045
-0.000400307
4.52018e-05
-0.00144458
9.96137e-05
-0.0034123
0.000118829
-0.00474051
8.38902e-05
-0.00559309
-7.36839e-06
-0.00610112
-0.000147836
-0.00637114
-0.000326935
-0.00648524
-0.000534094
-0.00650365
-0.000759589
-0.00647008
-0.00641654
-0.000993505
2.18975e-05
-0.00146648
2.35913e-05
-0.00341399
-2.64509e-05
-0.00469047
-0.000137247
-0.0054823
-0.000303966
-0.0059344
-0.000515214
-0.0061599
-0.000758419
-0.00624203
-0.00102295
-0.00623912
-0.00130036
-0.00619267
-0.00613332
-0.00158358
-3.52385e-06
-0.00146296
-5.67996e-05
-0.00336072
-0.000176919
-0.00457035
-0.000362961
-0.00529625
-0.000603849
-0.00569351
-0.000884694
-0.00587905
-0.00119127
-0.00593546
-0.00151273
-0.00591766
-0.00184204
-0.00586335
-0.00579383
-0.00218153
-3.01076e-05
-0.00143285
-0.000138738
-0.00325209
-0.000327727
-0.00438136
-0.000586877
-0.0050371
-0.00090037
-0.00538002
-0.0012516
-0.00552782
-0.00162603
-0.00556103
-0.00201327
-0.00553043
-0.00240933
-0.00546728
-0.00540647
-0.00279669
-5.66203e-05
-0.00137623
-0.000218705
-0.00309
-0.000472465
-0.0041276
-0.00079908
-0.00471049
-0.00117942
-0.00499968
-0.00159758
-0.00510967
-0.00204225
-0.00511636
-0.00250616
-0.00506651
-0.00298843
-0.00498502
-0.00486994
-0.00352496
-8.19861e-05
-0.00129424
-0.000293656
-0.00287833
-0.000605384
-0.00381587
-0.000989449
-0.00432642
-0.00142231
-0.00456682
-0.00188592
-0.00464606
-0.00236727
-0.004635
-0.00285739
-0.00457639
-0.00335011
-0.00449231
-0.00439084
-0.00382921
-0.000105567
-0.00118868
-0.00036221
-0.00262169
-0.000725122
-0.00345296
-0.0011583
-0.00389325
-0.00163423
-0.00409089
-0.00213319
-0.0041471
-0.00264174
-0.00412645
-0.0031509
-0.00406724
-0.00365346
-0.00398974
-0.00390445
-0.00413984
-0.000127019
-0.00106166
-0.000423779
-0.00232493
-0.000831571
-0.00304517
-0.00130721
-0.00341761
-0.00182015
-0.00357795
-0.00234994
-0.00361731
-0.00288351
-0.00359288
-0.00341269
-0.00353806
-0.00393191
-0.00347052
-0.00339976
-0.0044366
-0.000146081
-0.000915576
-0.00047793
-0.00199308
-0.00092455
-0.00259855
-0.00143676
-0.0029054
-0.0019818
-0.0030329
-0.00253907
-0.00306004
-0.00309627
-0.00303569
-0.00364639
-0.00298793
-0.00418547
-0.00293145
-0.00287403
-0.0047112
-0.000162504
-0.000753072
-0.000524205
-0.00163138
-0.00100363
-0.00211913
-0.00154671
-0.00236232
-0.00211914
-0.00246047
-0.00270043
-0.00247875
-0.00327912
-0.00245699
-0.0038493
-0.00241775
-0.00440816
-0.00237259
-0.00232762
-0.00495457
-0.000176039
-0.000577033
-0.000562094
-0.00124532
-0.00106815
-0.00161307
-0.00163633
-0.00179414
-0.00223122
-0.00186558
-0.00283257
-0.00187741
-0.00342968
-0.00185988
-0.00401747
-0.00182996
-0.00459391
-0.00179615
-0.00176296
-0.00515857
-0.000186443
-0.00039059
-0.000591077
-0.000840689
-0.00111738
-0.00108677
-0.00170467
-0.00120685
-0.00231678
-0.00125346
-0.0029337
-0.00126049
-0.00354531
-0.00124828
-0.00414715
-0.00122812
-0.00473767
-0.00120563
-0.00118374
-0.00531689
-0.000193509
-0.000197082
-0.000610691
-0.000423507
-0.00115064
-0.00054682
-0.00175082
-0.00060667
-0.0023746
-0.000629677
-0.00300215
-0.00063294
-0.00362375
-0.000626683
-0.00423532
-0.000616546
-0.00483563
-0.000605315
-0.000594447
-0.00542493
-0.000197082
1.52034e-10
-0.000620589
3.18128e-10
-0.00116741
4.00195e-10
-0.00177408
4.47092e-10
-0.00240376
4.84403e-10
-0.0030367
5.20503e-10
-0.00366338
5.5579e-10
-0.00427993
5.88055e-10
-0.00488524
6.13218e-10
6.23897e-10
-0.00547969
-0.000197082
0.000197082
-0.000620589
0.000423507
-0.00116741
0.000546821
-0.00177408
0.000606671
-0.00240376
0.000629678
-0.0030367
0.000632941
-0.00366338
0.000626684
-0.00427993
0.000616547
-0.00488524
0.000605316
0.000594448
-0.00547969
-0.000193509
0.000390591
-0.000610691
0.000840689
-0.00115064
0.00108677
-0.00175082
0.00120685
-0.0023746
0.00125346
-0.00300215
0.00126049
-0.00362375
0.00124828
-0.00423532
0.00122812
-0.00483563
0.00120563
0.00118375
-0.00542493
-0.000186443
0.000577034
-0.000591077
0.00124532
-0.00111738
0.00161308
-0.00170467
0.00179414
-0.00231678
0.00186558
-0.0029337
0.00187741
-0.00354531
0.00185989
-0.00414715
0.00182996
-0.00473767
0.00179615
0.00176296
-0.00531689
-0.000176039
0.000753072
-0.000562094
0.00163138
-0.00106815
0.00211913
-0.00163633
0.00236232
-0.00223122
0.00246047
-0.00283257
0.00247876
-0.00342968
0.00245699
-0.00401747
0.00241775
-0.00459391
0.00237259
0.00232762
-0.00515857
-0.000162504
0.000915576
-0.000524205
0.00199308
-0.00100363
0.00259855
-0.00154671
0.0029054
-0.00211914
0.0030329
-0.00270043
0.00306004
-0.00327912
0.00303569
-0.0038493
0.00298793
-0.00440816
0.00293145
0.00287403
-0.00495457
-0.000146081
0.00106166
-0.00047793
0.00232493
-0.00092455
0.00304517
-0.00143676
0.00341761
-0.0019818
0.00357795
-0.00253907
0.00361731
-0.00309627
0.00359288
-0.00364639
0.00353806
-0.00418547
0.00347053
0.00339976
-0.0047112
-0.000127019
0.00118868
-0.000423779
0.00262169
-0.000831571
0.00345296
-0.00130721
0.00389325
-0.00182015
0.00409089
-0.00234994
0.0041471
-0.00288351
0.00412645
-0.00341269
0.00406724
-0.00393191
0.00398974
0.00390445
-0.0044366
-0.000105567
0.00129424
-0.00036221
0.00287833
-0.000725122
0.00381587
-0.0011583
0.00432642
-0.00163423
0.00456682
-0.00213319
0.00464606
-0.00264174
0.004635
-0.0031509
0.00457639
-0.00365346
0.00449231
0.00439084
-0.00413984
-8.19861e-05
0.00137623
-0.000293656
0.00309
-0.000605384
0.0041276
-0.000989449
0.00471049
-0.00142231
0.00499968
-0.00188592
0.00510967
-0.00236727
0.00511636
-0.00285739
0.00506651
-0.00335011
0.00498502
0.00486994
-0.00382921
-5.66203e-05
0.00143285
-0.000218705
0.00325209
-0.000472465
0.00438136
-0.00079908
0.0050371
-0.00117942
0.00538002
-0.00159758
0.00552782
-0.00204225
0.00556103
-0.00250616
0.00553043
-0.00298843
0.00546729
0.00540647
-0.00352496
-3.01076e-05
0.00146296
-0.000138738
0.00336072
-0.000327727
0.00457035
-0.000586877
0.00529625
-0.00090037
0.00569352
-0.0012516
0.00587905
-0.00162603
0.00593546
-0.00201327
0.00591766
-0.00240933
0.00586335
0.00579383
-0.00279669
-3.52385e-06
0.00146648
-5.67996e-05
0.00341399
-0.000176919
0.00469047
-0.000362961
0.0054823
-0.000603849
0.0059344
-0.000884694
0.0061599
-0.00119127
0.00624203
-0.00151273
0.00623912
-0.00184204
0.00619267
0.00613332
-0.00218153
2.18975e-05
0.00144458
2.35913e-05
0.0034123
-2.64509e-05
0.00474051
-0.000137247
0.00559309
-0.000303966
0.00610112
-0.000515214
0.00637114
-0.000758419
0.00648524
-0.00102295
0.00650365
-0.00130036
0.00647008
0.00641654
-0.00158358
4.52018e-05
0.00139938
9.96137e-05
0.00335789
0.000118829
0.0047213
8.38902e-05
0.00562803
-7.3684e-06
0.00619238
-0.000147836
0.00651161
-0.000326935
0.00666434
-0.000534094
0.00671081
-0.000759589
0.00669557
0.00665045
-0.000993505
6.57186e-05
0.00133366
0.00016911
0.00325449
0.000255133
0.00463527
0.00029552
0.00558764
0.00028084
0.00620706
0.000213372
0.00657908
0.000101238
0.00677647
-4.54377e-05
0.00685749
-0.000216165
0.0068663
0.00683459
-0.000400307
8.29983e-05
0.00125067
0.000230411
0.00310708
0.000379273
0.00448641
0.000493177
0.00547374
0.000555544
0.0061447
0.000563392
0.00657123
0.000521775
0.00681809
0.000439701
0.00693956
0.000327819
0.00697818
0.00696517
0.000197246
9.67702e-05
0.0011539
0.000282254
0.0029216
0.000488542
0.00428012
0.00067271
0.00528957
0.000811535
0.00600587
0.000896522
0.00648624
0.000928983
0.00678563
0.000915977
0.00695257
0.000867562
0.0070266
0.0070376
0.000795127
0.000106917
0.00104698
0.000323755
0.00270476
0.000580684
0.0040232
0.000830232
0.00504002
0.00104342
0.00579268
0.00120625
0.00632341
0.0013157
0.00667618
0.001376
0.00689226
0.00139579
0.00700681
0.00704716
0.00138623
0.000113457
0.000933521
0.000354398
0.00246382
0.000653935
0.00372366
0.000962217
0.00473174
0.00124578
0.00550912
0.00148545
0.00608374
0.00167352
0.00648812
0.0018106
0.00675518
0.00190303
0.00691438
0.00698915
0.00196104
0.000116537
0.000816985
0.00037406
0.0022063
0.000707144
0.00339057
0.00106577
0.00437312
0.00141354
0.00516134
0.00172689
0.00577039
0.00199335
0.00622166
0.00220937
0.00653916
0.00237812
0.00674562
0.00685928
0.00250799
0.000116416
0.000700569
0.000383026
0.00193969
0.000739894
0.0030337
0.0011389
0.00397411
0.00154253
0.00475771
0.00192389
0.00538903
0.00226619
0.00587936
0.00256142
0.00624393
0.00280888
0.00649817
0.00665404
0.00301411
0.000113496
0.000587073
0.00038206
0.00167112
0.000752694
0.00266307
0.00118098
0.00354582
0.00163007
0.00430862
0.00207123
0.00494787
0.00248414
0.00546646
0.00285648
0.00587159
0.00318316
0.00617149
0.00637123
0.00346597
0.000108241
0.000478832
0.000372269
0.00140709
0.000746862
0.00228848
0.0011927
0.00309999
0.00167529
0.00382603
0.00216569
0.00445747
0.00264125
0.0049909
0.0030859
0.00542694
0.00349007
0.00576732
0.00601042
0.00385088
0.000101184
0.000377648
0.000355066
0.00115321
0.000724484
0.00191906
0.00117614
0.00264833
0.00167935
0.00332282
0.00220662
0.0039302
0.00273444
0.00446308
0.00324398
0.0049174
0.00372141
0.00528988
0.00557323
0.00415861
9.28481e-05
0.0002848
0.000331966
0.000914095
0.000688071
0.00156295
0.00113437
0.00220203
0.00164514
0.00281205
0.00219582
0.00337951
0.00276372
0.00389518
0.00332854
0.00435258
0.00387285
0.00474558
0.00506326
0.00438282
8.36626e-05
0.000201137
0.000304313
0.000693444
0.000640047
0.00122722
0.00107069
0.00177139
0.00157622
0.00230652
0.00213646
0.00281927
0.0027312
0.00330043
0.00334036
0.00374343
0.0039438
0.00414214
0.00448536
0.00452169
7.38713e-05
0.000127266
0.000272988
0.000494328
0.00058212
0.000918087
0.000987486
0.00136602
0.00147521
0.00181879
0.0020307
0.00226379
0.00263815
0.00269298
0.00327987
0.00310171
0.00393458
0.00348742
0.00384398
0.00457596
6.34847e-05
6.3781e-05
0.00023825
0.000319562
0.000514862
0.000641475
0.000885311
0.000995574
0.00134184
0.00136227
0.0018763
0.00172932
0.00247952
0.00208976
0.00313969
0.00244154
0.00383825
0.00278886
0.00314078
0.00454145
5.23591e-05
1.14219e-05
0.000199954
0.000171968
0.000438004
0.000403425
0.000762999
0.000670579
0.00117226
0.000953011
0.00166392
0.00123766
0.00223691
0.00151677
0.00289038
0.00178807
0.00361882
0.00206042
0.00237218
0.00438742
4.04747e-05
-2.90529e-05
0.000158374
5.40688e-05
0.000352087
0.000209712
0.000620349
0.000402317
0.000962544
0.000610816
0.00137937
0.00082084
0.00187407
0.00102207
0.00245575
0.00120639
0.00314735
0.00136882
0.00151336
0.00400617
2.83503e-05
-5.74031e-05
0.00011556
-3.31413e-05
0.000261834
6.34377e-05
0.000465771
0.00019838
0.00072458
0.000352008
0.00103379
0.000511626
0.00138662
0.000669243
0.00177226
0.000820749
0.00217502
0.000966066
0.0011159
0.00257248
1.70654e-05
-7.44685e-05
7.55058e-05
-9.15817e-05
0.00017731
-3.83665e-05
0.000321564
5.41262e-05
0.000505319
0.000168253
0.00072381
0.000293134
0.000970763
0.000422291
0.00123936
0.000552147
0.00152585
0.000679577
0.000797596
0.00184416
7.43385e-06
-8.19023e-05
4.10614e-05
-0.000125209
0.000104945
-0.00010225
0.000199678
-4.06073e-05
0.000323969
4.39618e-05
0.000475444
0.00014166
0.000651487
0.000246248
0.000850393
0.000353241
0.00107263
0.000457339
0.000548659
0.00132157
-2.7852e-07
-8.16238e-05
1.31422e-05
-0.00013863
4.63794e-05
-0.000135487
0.000101847
-9.60754e-05
0.000180194
-3.43844e-05
0.000281304
4.05492e-05
0.000405095
0.000122457
0.000552122
0.000206214
0.000723467
0.000285994
0.000353893
0.000918232
-6.17973e-06
-7.54441e-05
-8.5657e-06
-0.000136244
7.21833e-07
-0.000144775
2.5748e-05
-0.000121101
6.87394e-05
-7.73758e-05
0.00013106
-2.17713e-05
0.000213794
3.97234e-05
0.00031795
0.000102058
0.00044395
0.000159993
0.000207778
0.000590065
-1.05535e-05
-6.48906e-05
-2.49448e-05
-0.000121853
-3.3953e-05
-0.000135767
-3.22497e-05
-0.000122805
-1.65492e-05
-9.30763e-05
1.52751e-05
-5.35955e-05
6.4633e-05
-9.63447e-06
0.000132287
3.44043e-05
0.000217958
7.43228e-05
0.000106087
0.000319649
-1.37115e-05
-5.11791e-05
-3.69706e-05
-9.85935e-05
-5.96372e-05
-0.0001131
-7.55359e-05
-0.000106906
-8.07734e-05
-8.78388e-05
-7.29289e-05
-6.144e-05
-5.06518e-05
-3.19115e-05
-1.35572e-05
-2.69035e-06
3.76088e-05
2.31568e-05
4.29396e-05
0.000100756
-1.5905e-05
-3.52741e-05
-4.54315e-05
-6.9067e-05
-7.7868e-05
-8.06636e-05
-0.000106531
-7.82428e-05
-0.000127228
-6.71422e-05
-0.000137482
-5.11859e-05
-0.000136116
-3.3277e-05
-0.000123062
-1.57443e-05
-9.93348e-05
-5.70696e-07
1.06061e-05
-6.70013e-05
-1.72975e-05
-1.79766e-05
-5.08454e-05
-3.55191e-05
-8.96148e-05
-4.18941e-05
-0.000126654
-4.1204e-05
-0.000157642
-3.61534e-05
-0.000180137
-2.86916e-05
-0.000193117
-2.02971e-05
-0.000196721
-1.21404e-05
-0.0001921
-5.19087e-06
-2.22985e-07
-0.000181271
-1.79761e-05
-5.3494e-05
-9.53866e-05
-0.000136589
-0.000172741
-0.000201431
-0.000221726
-0.000233865
-0.000239055
-0.000239276
0.000183674
-0.000422947
-4.52599e-09
0.00132173
-0.00113784
-2.16366e-07
0.00248547
-0.00116352
-2.20653e-07
0.0032325
-0.000747232
2.0534e-07
0.00385222
-0.00062019
4.62225e-07
0.00428051
-0.000428706
4.23777e-07
0.00462448
-0.000344271
2.93746e-07
0.00485633
-0.000231328
-5.21271e-07
0.00506565
-0.000208462
-8.51371e-07
-0.000124053
-2.08906e-07
0.000295353
-0.000899573
0.00140413
-0.00224662
0.00254158
-0.00230097
0.00327205
-0.00147769
0.00388023
-0.00122837
0.00430187
-0.000850345
0.00464169
-0.000684095
0.00487177
-0.000461407
0.00508031
-0.000417004
-0.000249362
0.000511551
-0.00147813
0.00156327
-0.00329834
0.00264961
-0.0033873
0.00334819
-0.00217627
0.00393418
-0.00181436
0.00434316
-0.00125933
0.00467513
-0.00101607
0.00490198
-0.000688255
0.00510922
-0.000624242
-0.000376902
0.000818412
-0.00219579
0.00178825
-0.00426818
0.00280148
-0.00440053
0.00345523
-0.00283003
0.00401011
-0.00236924
0.00440163
-0.00165084
0.00472291
-0.00133735
0.00494567
-0.000911014
0.00515152
-0.000830094
-0.000508117
0.00119636
-0.00307251
0.00206378
-0.0051356
0.00298591
-0.00532267
0.0035852
-0.00342931
0.00410246
-0.0028865
0.00447335
-0.00202174
0.00478233
-0.00164633
0.00500098
-0.00112967
0.00520602
-0.00103513
-0.000644822
0.00162134
-0.00410379
0.00237129
-0.00588555
0.00318927
-0.00614064
0.0037284
-0.00396845
0.00420442
-0.00336251
0.00455355
-0.00237087
0.00485005
-0.00194283
0.0050656
-0.00134522
0.00527117
-0.00124069
-0.000789281
0.00206529
-0.00525085
0.0026896
-0.00650985
0.00339633
-0.00684737
0.00387411
-0.00444623
0.00430844
-0.00379685
0.00463683
-0.00269926
0.00492229
-0.00222829
0.00513686
-0.00155979
0.00534517
-0.001449
-0.000944259
0.0024979
-0.00642719
0.00299564
-0.00700759
0.00359112
-0.00744285
0.00401111
-0.00486622
0.00440666
-0.0041924
0.00471756
-0.00301015
0.00499503
-0.00250576
0.00521189
-0.00177666
0.00542605
-0.00166316
-0.00111304
0.00290157
-0.0074846
0.00327049
-0.00737652
0.0037596
-0.00793195
0.00412896
-0.00523559
0.00449159
-0.00455503
0.0047902
-0.00330876
0.00506423
-0.00277979
0.00528772
-0.00200014
0.00551171
-0.00188716
-0.0012994
0.00328106
-0.00819319
0.00351248
-0.00760793
0.0038909
-0.00831038
0.00422036
-0.00556504
0.00455649
-0.00489116
0.00484982
-0.00360209
0.00512589
-0.00305586
0.00536162
-0.00223587
0.00559966
-0.00212519
-0.00150809
0.0432804
-0.000915037
-0.0505586
0.0390641
-0.00339158
0.0369861
-0.00623237
0.0368
-0.00537894
0.036653
-0.00474414
0.0368183
-0.00376744
0.0370083
-0.00324582
0.0372618
-0.00248937
0.0374721
-0.00233551
-0.0017966
0.0523393
0.00331328
-0.0565676
0.0501431
-0.00119535
0.0475496
-0.00363895
0.0460088
-0.00383806
0.0448013
-0.00353672
0.0439752
-0.00294132
0.0433278
-0.00259841
0.0429099
-0.00207145
0.0425083
-0.00193398
-0.00160383
0.0539041
0.00452428
-0.0551151
0.052622
8.68183e-05
0.0510057
-0.00202266
0.0496962
-0.00252856
0.0485976
-0.00243812
0.0477378
-0.00208157
0.0469854
-0.00184597
0.046423
-0.00150903
0.0458666
-0.00137763
-0.00122191
0.0520607
0.00437456
-0.051911
0.0516517
0.000495782
0.0508184
-0.00118928
0.0499788
-0.00168901
0.0492356
-0.00169487
0.0486345
-0.00148047
0.0480833
-0.00129483
0.0476472
-0.0010729
0.0472089
-0.000939355
-0.000872094
0.0500074
0.00369122
-0.0493241
0.04988
0.00062324
0.0494569
-0.000766232
0.048954
-0.00118603
0.0484824
-0.00122328
0.0480978
-0.00109593
0.0477479
-0.00094488
0.0474631
-0.000788156
0.0471857
-0.000661903
-0.000623105
0.0483082
0.00289058
-0.0475076
0.0483334
0.00059805
0.048082
-0.000514756
0.0477505
-0.000854591
0.0474257
-0.000898434
0.0471561
-0.000826318
0.0469221
-0.000710933
0.04673
-0.000596039
0.0465576
-0.000489514
-0.000455887
0.0470996
0.00210092
-0.0463099
0.0471934
0.00050422
0.0470187
-0.000340069
0.046767
-0.000602904
0.0465111
-0.00064248
0.0462893
-0.000604534
0.046103
-0.000524643
0.0459493
-0.000442354
0.0458221
-0.000362278
-0.000331367
0.0462851
0.00136199
-0.0455462
0.0464293
0.000360016
0.0462958
-0.000206542
0.0460798
-0.000386931
0.0458536
-0.000416267
0.045648
-0.000398948
0.045474
-0.000350602
0.0453291
-0.000297427
0.0452117
-0.00024493
-0.000221048
0.0457885
0.000668603
-0.0450951
0.0459647
0.000183818
0.045857
-9.88598e-05
0.0456577
-0.000187546
0.045444
-0.00020257
0.0452432
-0.000198155
0.0450688
-0.000176187
0.044922
-0.000150636
0.0448012
-0.000124142
-0.00011176
0.0455539
-0.0448853
0.0457378
0.0456389
0.0454514
0.0452488
0.0450506
0.0448744
0.0447238
0.0445997
0.0567753
0.00230159
-0.0560628
0.0573297
0.00291154
0.0576775
0.00350309
0.0577689
0.00406718
0.0575572
0.00459457
0.0570024
0.00507647
0.0560732
0.00550516
0.0547401
0.00587452
0.0529479
0.00617966
0.00639547
0.0513979
0.00169289
-0.0507892
0.0520516
0.00225784
0.0527363
0.00281842
0.0534339
0.00336955
0.054123
0.0039055
0.0547794
0.00442006
0.0553778
0.00490679
0.055893
0.00535931
0.0563007
0.00577189
0.00612861
0.0480918
0.00121799
-0.0476169
0.0486477
0.00170196
0.0492813
0.00218477
0.0499873
0.00266352
0.0507578
0.00313508
0.0515819
0.00359595
0.0524463
0.00404233
0.0533356
0.00447004
0.0542329
0.00487455
0.00524643
0.0454945
0.000891386
-0.0451679
0.0459013
0.00129521
0.0463888
0.00169728
0.0469569
0.00209538
0.0476048
0.00248722
0.0483302
0.00287048
0.0491298
0.00324276
0.0499983
0.00360155
0.0509288
0.00394404
0.00426425
0.0439058
0.000651554
-0.043666
0.0442197
0.000981274
0.0446079
0.00130912
0.0450701
0.00163321
0.0456056
0.0019517
0.0462134
0.0022627
0.0468918
0.00256437
0.0476385
0.0028548
0.0484507
0.00313191
0.00339081
0.0428101
0.00046938
-0.0426279
0.0430622
0.000729119
0.0433842
0.000987088
0.0437757
0.00124177
0.0442357
0.00149166
0.0447632
0.00173527
0.0453564
0.00197111
0.0460135
0.00219773
0.0467319
0.00241351
0.00261507
0.0421162
0.000324608
-0.0419714
0.0423279
0.000517448
0.0426061
0.000708872
0.0429501
0.000897731
0.0433589
0.00108288
0.043831
0.00126318
0.0443646
0.00143753
0.0449575
0.00160482
0.0456072
0.00176384
0.00191231
0.0416643
0.000203997
-0.0415437
0.04185
0.000331706
0.0421004
0.000458458
0.0424147
0.000583481
0.0427916
0.000706006
0.0432295
0.000825273
0.0437265
0.000940536
0.0442802
0.00105105
0.044888
0.00115604
0.00125414
0.0413996
9.81593e-05
-0.0412938
0.0415695
0.000161807
0.041803
0.000224995
0.0420991
0.000287333
0.0424567
0.000348436
0.0428741
0.000407921
0.0433492
0.00046541
0.0438797
0.000520531
0.0444629
0.000572893
0.000621855
0.0412742
-0.041176
0.041436
0.041661
0.0419483
0.0422967
0.0427047
0.0431701
0.0436906
0.0442635
0.0481094
-0.00335374
-0.0475524
0.0488228
-0.0028949
0.0496454
-0.00240622
0.0505376
-0.00188566
0.0514714
-0.00133414
0.0524283
-0.0007596
0.0533899
-0.00016653
0.0543348
0.000441374
0.0552364
0.00105937
0.00168168
0.0479852
-0.00340684
-0.0479321
0.0480815
-0.0029912
0.0482205
-0.00254526
0.0484082
-0.0020733
0.0486505
-0.00157646
0.0489517
-0.0010608
0.0493152
-0.000530093
0.0497433
1.33538e-05
0.0502356
0.000567049
0.00112803
0.046897
-0.0031475
-0.0471564
0.0466931
-0.00278731
0.0465499
-0.00240198
0.0464725
-0.00199591
0.0464672
-0.00157118
0.0465376
-0.0011312
0.046686
-0.000678485
0.0469144
-0.000215038
0.0472244
0.000257053
0.000735529
0.0455818
-0.00277138
-0.0459579
0.0452636
-0.00246906
0.0450067
-0.0021451
0.0448147
-0.00180393
0.0446909
-0.00144742
0.0446377
-0.00107801
0.044657
-0.000697774
0.0447507
-0.000308669
0.0449204
8.72963e-05
0.000488032
0.0446599
-0.0023496
-0.0450817
0.0442919
-0.00210111
0.0439823
-0.00183548
0.0437342
-0.00155579
0.0435504
-0.00126363
0.0434332
-0.000960852
0.0433847
-0.000649201
0.0434064
-0.000330369
0.0434998
-6.09776e-06
0.000321821
0.0439897
-0.00190031
-0.0444389
0.0435923
-0.0017038
0.0432508
-0.00149397
0.0429681
-0.00127309
0.0427469
-0.00104239
0.0425893
-0.000803272
0.0424972
-0.000557124
0.0424722
-0.000305339
0.0425155
-4.93445e-05
0.000209394
0.043559
-0.00143593
-0.0440234
0.043145
-0.00128981
0.042785
-0.00113398
0.0424818
-0.00096993
0.042238
-0.000798573
0.0420557
-0.000620928
0.0419366
-0.000438029
0.0418822
-0.000250931
0.0418936
-6.07148e-05
0.00013151
0.0432802
-0.00096146
-0.0437546
0.0428551
-0.000864766
0.0424828
-0.000761684
0.0421661
-0.000653144
0.0419072
-0.000539752
0.0417085
-0.000422168
0.0415715
-0.000301077
0.0414978
-0.000177182
0.0414883
-5.12075e-05
7.61054e-05
0.0431193
-0.000481537
-0.0435992
0.042688
-0.000433515
0.0423086
-0.000382322
0.0419839
-0.000328399
0.0417162
-0.000272044
0.0415076
-0.00021358
0.0413599
-0.000153344
0.0412744
-9.16869e-05
0.0412521
-2.89683e-05
3.44403e-05
0.0430454
-0.043527
0.0426119
0.0422296
0.0419012
0.0416291
0.0414156
0.0412622
0.0411705
0.0411416
0.0429475
0.00017463
-0.000193168
0.0429914
0.000521276
-0.000565199
0.0430658
0.000872671
-0.000947118
0.0431884
0.001237
-0.00135953
0.043389
0.00161961
-0.00182026
0.0437114
0.00202475
-0.0023471
0.0442143
0.00245452
-0.0029574
0.0449695
0.00291137
-0.00366664
0.0460712
0.00337131
-0.00447302
0.00392367
-0.00540479
0.0429657
0.000137881
0.0430729
0.000414036
0.043254
0.000691549
0.0435194
0.000971603
0.043884
0.00125501
0.0443668
0.00154202
0.0449896
0.00183167
0.0457769
0.00212407
0.0467446
0.00240364
0.00273618
0.0429665
0.000100273
0.0430779
0.000302717
0.0432627
0.000506706
0.0435251
0.000709227
0.0438707
0.000909385
0.0443068
0.00110588
0.0448419
0.00129664
0.045486
0.00147993
0.0462438
0.00164581
0.00182364
0.0429586
7.05595e-05
0.0430476
0.000213751
0.043196
0.000358308
0.0434046
0.000500638
0.0436744
0.000639536
0.0440066
0.000773709
0.0444017
0.000901584
0.0448597
0.00102196
0.0453756
0.00112982
0.00124133
0.0429506
4.88962e-05
0.0430161
0.000148279
0.0431258
0.000248594
0.0432795
0.000346945
0.0434767
0.000442275
0.0437169
0.000533533
0.0439989
0.000619578
0.0443214
0.000699479
0.0446808
0.000770447
0.000840428
0.0429445
3.33081e-05
0.0429918
0.00010102
0.043071
0.000169335
0.0431818
0.000236202
0.0433232
0.000300844
0.0434942
0.000362522
0.0436933
0.000420495
0.0439186
0.00047417
0.044167
0.000522071
0.000568468
0.0429403
2.19175e-05
0.0429749
6.64642e-05
0.0430328
0.000111389
0.0431137
0.000155332
0.0432168
0.000197772
0.0433411
0.000238219
0.0434854
0.000276196
0.0436482
0.000311313
0.0438276
0.000342742
0.000372649
0.0429376
1.3277e-05
0.0429638
4.02497e-05
0.0430077
6.7438e-05
0.043069
9.40332e-05
0.0431471
0.000119721
0.0432411
0.00014421
0.0433501
0.000167224
0.0434728
0.000188538
0.0436079
0.000207717
0.000225865
0.0429359
6.26137e-06
0.0429572
1.89823e-05
0.0429929
3.17943e-05
0.0430426
4.43275e-05
0.0431058
5.64355e-05