/*--------------------------------*- C++ -*----------------------------------*\
  =========                 |
  \\      /  F ield         | OpenFOAM: The Open Source CFD Toolbox
   \\    /   O peration     | Website:  https://openfoam.org
    \\  /    A nd           | Version:  6.0
     \\/     M anipulation  |
\*---------------------------------------------------------------------------*/
FoamFile
{
    version     2.0;
    format      ascii;
    class       volVectorField;
    location    "47";
    object      U;
}
// * * * * * * * * * * * * * * * * * * * * * * * * * * * * * * * * * * * * * //

dimensions      [0 1 -1 0 0 0 0];

internalField   nonuniform List<vector> 
2000
(
(-0.00199124 0.00173826 5.72904e-20)
(-0.00762163 0.00330235 6.80435e-20)
(-0.0153302 0.00366154 -6.48686e-20)
(-0.0223325 0.00333718 -1.32366e-19)
(-0.0276806 0.00263951 -9.24646e-20)
(-0.0312216 0.00177167 1.23182e-19)
(-0.033053 0.000879029 7.17502e-20)
(-0.0334438 6.82947e-05 -2.90252e-20)
(-0.0328263 -0.000581412 -7.24577e-20)
(-0.0314953 -0.00100621 5.28313e-20)
(-0.0024897 0.00512125 -1.42007e-19)
(-0.00837071 0.0096853 1.96038e-19)
(-0.0157253 0.0106972 1.95486e-20)
(-0.0220252 0.00969699 -1.13553e-19)
(-0.0264595 0.00759771 5.43362e-19)
(-0.0289519 0.0049962 -2.3914e-19)
(-0.0296477 0.00232076 -2.58719e-19)
(-0.0288425 -0.000110289 3.12047e-19)
(-0.0269848 -0.00205524 -3.07752e-19)
(-0.0244467 -0.00332164 1.55256e-19)
(-0.00343576 0.00822484 2.35849e-20)
(-0.00972812 0.0154094 8.3883e-21)
(-0.0163015 0.0168858 5.87521e-19)
(-0.0211437 0.0151399 2.06097e-19)
(-0.0237177 0.0116328 4.08758e-20)
(-0.0240983 0.00731639 3.38024e-19)
(-0.0225238 0.00287636 -6.42033e-19)
(-0.0193385 -0.00116444 1.39246e-20)
(-0.0150201 -0.00438924 -3.79653e-19)
(-0.0101028 -0.00647445 4.18233e-19)
(-0.00472405 0.010868 -4.43656e-20)
(-0.0114034 0.0200602 2.55243e-19)
(-0.0166178 0.0217187 -7.4366e-19)
(-0.0191362 0.0191489 -9.6125e-20)
(-0.018832 0.0142671 -5.47359e-19)
(-0.0160035 0.00831117 5.66879e-19)
(-0.0110227 0.00217574 -6.01282e-19)
(-0.00429637 -0.00343009 4.22271e-19)
(0.00366303 -0.00789658 1.77524e-19)
(0.0120635 -0.0107646 -2.00599e-19)
(-0.00618707 0.0128748 -4.93791e-19)
(-0.01294 0.0232572 4.45595e-21)
(-0.0159822 0.0247662 9.16082e-19)
(-0.0151343 0.0213425 2.74638e-19)
(-0.0108145 0.0152248 -8.73251e-19)
(-0.00361571 0.00783506 5.43006e-19)
(0.00591838 0.000195969 6.15487e-19)
(0.0173141 -0.00683898 -5.48754e-19)
(0.0300358 -0.0124525 3.91258e-19)
(0.0429239 -0.0160469 9.60781e-20)
(-0.00758377 0.0140743 6.74979e-20)
(-0.0136957 0.0246648 1.25189e-20)
(-0.0134291 0.0257005 -1.17121e-18)
(-0.0079206 0.0215113 -6.55227e-19)
(0.00173578 0.0144919 7.8163e-19)
(0.0145789 0.00611524 -9.15322e-19)
(0.0298498 -0.00258995 1.04886e-18)
(0.0470091 -0.0107145 -9.05991e-20)
(0.06554 -0.017249 -2.95079e-19)
(0.0837998 -0.0214704 -8.57629e-19)
(-0.00858783 0.0143041 -1.46872e-19)
(-0.0128317 0.0240056 -2.6825e-19)
(-0.00771323 0.0243087 -3.2956e-19)
(0.00407951 0.0196268 7.0304e-19)
(0.0206599 0.0123267 1.30414e-18)
(0.0406181 0.00378448 -2.69547e-19)
(0.0629146 -0.00513238 -6.56029e-19)
(0.0869297 -0.0136323 2.0009e-19)
(0.11225 -0.0206147 -1.26008e-18)
(0.136674 -0.025283 1.38409e-18)
(-0.00878374 0.0134242 8.98281e-19)
(-0.00932798 0.0210859 -4.90325e-19)
(0.00264626 0.0205022 9.57261e-19)
(0.0227359 0.0158173 -1.56397e-18)
(0.0481738 0.00920543 -7.4729e-19)
(0.0770146 0.001826 -1.03509e-18)
(0.10783 -0.00579434 3.00723e-19)
(0.139843 -0.0132488 -8.37274e-19)
(0.172877 -0.0195733 1.8233e-18)
(0.204274 -0.0240801 5.10398e-19)
(-0.00768223 0.0113475 6.61299e-20)
(-0.00204456 0.015839 7.98699e-19)
(0.0192556 0.0143224 1.5872e-18)
(0.050065 0.0103 4.85014e-19)
(0.0867025 0.00565907 1.43556e-18)
(0.126595 0.00135975 7.86859e-20)
(0.167734 -0.00240755 -7.09482e-22)
(0.208921 -0.00569284 5.78761e-19)
(0.250234 -0.00783922 4.68113e-19)
(0.289116 -0.00926304 -1.51929e-18)
(-0.00477043 0.00808576 -5.32105e-19)
(0.010147 0.00838444 -8.91198e-19)
(0.0436439 0.00593772 -1.29539e-18)
(0.0879965 0.00320889 3.06111e-20)
(0.13875 0.00175658 -6.60378e-19)
(0.192805 0.0025425 1.04083e-18)
(0.247587 0.00588893 -2.86552e-18)
(0.301161 0.0120147 1.28649e-18)
(0.352883 0.0215145 4.83557e-19)
(0.40003 0.0302471 1.51715e-18)
(0.000388728 0.00380849 2.66177e-19)
(0.0281182 -0.000874527 -1.01895e-18)
(0.0768098 -0.00427303 9.09827e-19)
(0.137563 -0.00546169 -3.52982e-19)
(0.205554 -0.00344278 3.83948e-19)
(0.277821 0.00270738 8.35879e-19)
(0.352529 0.0137253 -1.12226e-18)
(0.429275 0.0305525 1.45811e-19)
(0.509037 0.0524525 -5.37774e-19)
(0.594171 0.0694529 1.09111e-18)
(0.00806027 -0.00110798 3.81368e-19)
(0.0522603 -0.0110932 -9.23815e-19)
(0.118756 -0.0153297 1.2587e-18)
(0.197749 -0.015019 -7.83875e-19)
(0.284049 -0.0102797 -2.8756e-19)
(0.374604 -0.000972363 1.70249e-19)
(0.467606 0.0128147 8.80222e-20)
(0.562489 0.0307695 1.19396e-18)
(0.658903 0.0501763 3.43715e-19)
(0.754559 0.0623394 1.46943e-18)
(0.0183521 -0.00610199 -3.40403e-19)
(0.0826129 -0.0209187 1.19444e-18)
(0.169007 -0.0252639 -9.96649e-19)
(0.267055 -0.0228313 -1.16886e-18)
(0.371088 -0.0151011 1.63537e-18)
(0.477616 -0.00286618 -1.24344e-18)
(0.58424 0.0129426 3.2845e-19)
(0.689406 0.0312133 -1.94711e-18)
(0.791334 0.0492634 1.45851e-18)
(0.886041 0.0617486 7.28732e-20)
(0.0312703 -0.0105458 -4.43626e-19)
(0.118977 -0.0287939 -4.28435e-19)
(0.226869 -0.0317845 -9.1232e-19)
(0.344063 -0.0258916 1.10585e-18)
(0.464447 -0.0140397 -5.5855e-20)
(0.584061 0.00207579 7.14928e-19)
(0.699968 0.0208537 1.30423e-18)
(0.80993 0.040796 -4.00794e-19)
(0.911577 0.0598085 -1.41762e-18)
(1.00091 0.0748776 2.81452e-18)
(0.0467453 -0.0138317 -2.29307e-19)
(0.160911 -0.0332169 -2.73518e-19)
(0.29134 -0.0327802 4.92218e-19)
(0.427114 -0.0216648 -9.14901e-19)
(0.561884 -0.00426193 1.56306e-19)
(0.691441 0.01688 1.39097e-19)
(0.812663 0.0396124 6.10008e-20)
(0.923201 0.0622297 -9.85869e-21)
(1.02086 0.0832287 -1.49428e-19)
(1.10226 0.100991 -2.37942e-18)
(0.0646186 -0.0153976 9.30824e-19)
(0.207683 -0.0328633 -6.49612e-19)
(0.360983 -0.0265373 8.30777e-21)
(0.514053 -0.00833861 -9.89354e-19)
(0.660654 0.0159065 -3.53963e-19)
(0.796702 0.0428753 3.3096e-19)
(0.919361 0.0699938 2.57019e-19)
(1.02673 0.0954712 -9.15875e-19)
(1.11735 0.118342 7.48598e-19)
(1.18885 0.137792 -9.81518e-19)
(0.0846111 -0.0147325 4.01748e-19)
(0.258228 -0.0266432 -3.57047e-19)
(0.4339 -0.0118355 1.48302e-18)
(0.602224 0.0151007 1.51205e-19)
(0.75755 0.047019 3.47498e-19)
(0.896412 0.0799692 1.54881e-18)
(1.01678 0.111131 -2.36814e-19)
(1.11772 0.138797 2.15773e-19)
(1.19888 0.162564 8.93485e-20)
(1.25919 0.182096 -1.09971e-19)
(0.106293 -0.0113861 2.80679e-19)
(0.311141 -0.0137428 6.74817e-19)
(0.50778 0.012012 -7.22891e-19)
(0.688608 0.0488894 -2.44725e-19)
(0.849159 0.0886659 -3.02311e-19)
(0.987143 0.127018 4.68417e-19)
(1.10185 0.161148 -2.43647e-19)
(1.19374 0.189674 6.55505e-19)
(1.26384 0.212846 2.20584e-19)
(1.3125 0.230666 -3.59622e-19)
(0.129071 -0.00499457 -3.02466e-19)
(0.364701 0.00632846 2.68844e-19)
(0.580015 0.045137 -5.73662e-19)
(0.770039 0.0925429 2.47449e-19)
(0.932159 0.139656 -2.56761e-19)
(1.06584 0.182157 -3.20448e-19)
(1.17213 0.217628 -2.57331e-19)
(1.25319 0.2453 2.87585e-19)
(1.3115 0.266204 -5.42208e-19)
(1.34885 0.280637 3.27674e-19)
(0.152192 0.00468204 -1.07815e-19)
(0.416946 0.0336823 -2.10898e-19)
(0.647853 0.0871017 1.00429e-19)
(0.843432 0.144924 6.19183e-21)
(1.0036 0.198186 8.33299e-20)
(1.13007 0.243068 1.14321e-19)
(1.22601 0.277937 1.0595e-19)
(1.29535 0.302934 -1.40495e-19)
(1.34201 0.31998 1.19608e-19)
(1.36911 0.329675 -1.8718e-19)
(0.174775 0.017719 -6.24096e-20)
(0.465773 0.0680015 -2.34117e-20)
(0.708578 0.1369 9.31623e-20)
(0.906007 0.204326 -4.28886e-20)
(1.0611 0.262007 1.1431e-19)
(1.17821 0.307192 -1.47595e-19)
(1.26274 0.33945 3.42084e-20)
(1.32037 0.360077 3.6705e-20)
(1.35627 0.371951 -1.53847e-20)
(1.37465 0.375986 5.82075e-20)
(0.195856 0.0339917 -6.73283e-20)
(0.50907 0.10851 -3.04679e-19)
(0.75969 0.192986 -2.11025e-20)
(0.955468 0.268575 6.27155e-21)
(1.10299 0.328579 -3.96275e-19)
(1.20943 0.371907 5.23879e-20)
(1.2824 0.399693 -4.46006e-20)
(1.3291 0.414556 -1.07577e-19)
(1.35567 0.420329 2.2428e-19)
(1.36715 0.418231 -4.0893e-19)
(0.214444 0.0531505 -3.25173e-20)
(0.544851 0.15397 6.17063e-19)
(0.799064 0.253335 9.94253e-20)
(0.990134 0.335148 -5.43243e-19)
(1.12837 0.395217 -4.40519e-20)
(1.22372 0.434653 -5.20577e-19)
(1.28574 0.456424 3.81593e-19)
(1.32289 0.464538 -1.38448e-19)
(1.34191 0.463703 2.456e-19)
(1.34841 0.45542 -1.79445e-19)
(0.229587 0.0746121 -2.05053e-19)
(0.571393 0.202718 1.9584e-19)
(0.825092 0.315541 -1.41354e-19)
(1.00902 0.401307 1.06545e-18)
(1.13708 0.459223 5.25834e-19)
(1.22172 0.493027 -1.21915e-19)
(1.27409 0.507671 4.10722e-19)
(1.30345 0.508498 -2.70257e-19)
(1.31688 0.500956 -7.52892e-20)
(1.32028 0.486798 4.93984e-19)
(0.240436 0.0975684 -3.54919e-19)
(0.587355 0.252731 4.51654e-19)
(0.836773 0.376931 -8.88623e-19)
(1.01185 0.464233 1.24794e-19)
(1.12967 0.51799 2.78868e-19)
(1.20469 0.544843 -4.27656e-19)
(1.24914 0.551725 -4.97923e-19)
(1.27272 0.545172 2.18562e-19)
(1.28252 0.531183 -2.63174e-19)
(1.28453 0.511755 3.15959e-19)
(0.246312 0.121013 -8.96755e-20)
(0.591872 0.301725 -4.59572e-19)
(0.833754 0.434708 2.54254e-19)
(0.99903 0.521159 4.26371e-19)
(1.10725 0.569097 -2.56406e-19)
(1.17428 0.588156 -1.91029e-19)
(1.21287 0.587119 -1.04309e-19)
(1.23273 0.573484 -5.15664e-20)
(1.24077 0.553598 1.07845e-20)
(1.24291 0.529719 1.07528e-19)
(0.246759 0.143785 6.58201e-20)
(0.584617 0.347278 -3.85627e-19)
(0.81634 0.486098 6.43181e-19)
(0.971581 0.569494 -3.81077e-19)
(1.07145 0.610386 1.06483e-19)
(1.13247 0.621291 -1.5106e-19)
(1.16741 0.612602 1.62624e-19)
(1.18559 0.592496 3.11547e-20)
(1.19356 0.567431 -7.79984e-20)
(1.19711 0.540021 1.51494e-19)
(0.241593 0.164636 -1.73031e-19)
(0.565833 0.386974 3.38045e-19)
(0.785448 0.528508 -1.5203e-20)
(0.931025 0.60695 -7.3227e-20)
(1.02419 0.640034 -2.0131e-19)
(1.08145 0.642882 2.48071e-20)
(1.11501 0.627183 6.15199e-20)
(1.1335 0.601458 -1.51512e-19)
(1.14303 0.571983 1.76956e-19)
(1.1492 0.541879 1.50321e-19)
(0.230935 0.18231 3.84372e-20)
(0.536325 0.418562 -8.09306e-20)
(0.742532 0.559669 2.42407e-20)
(0.879239 0.631621 1.24602e-20)
(0.967553 0.656554 7.79593e-20)
(1.02334 0.651785 -1.44058e-19)
(1.05788 0.629967 -3.01342e-19)
(1.07891 0.599657 -1.22928e-19)
(1.09213 0.566623 -1.57122e-19)
(1.10255 0.534701 1.33124e-19)
(0.21523 0.195653 1.10778e-19)
(0.49743 0.44013 -1.71713e-19)
(0.689467 0.577805 1.6574e-19)
(0.818263 0.64211 -3.14824e-19)
(0.903422 0.658818 7.63822e-20)
(0.959696 0.646834 5.16191e-19)
(0.997278 0.619363 -1.58291e-19)
(1.02316 0.584702 1.88166e-19)
(1.04271 0.548005 2.75473e-19)
(1.05903 0.515027 1.00197e-18)
(0.195249 0.203726 6.8045e-19)
(0.450967 0.450296 -4.6301e-19)
(0.628514 0.581864 1.12681e-18)
(0.750268 0.637905 -1.92979e-19)
(0.833389 0.646759 9.66759e-19)
(0.891057 0.628052 6.06537e-19)
(0.93231 0.594737 -1.42496e-18)
(0.963571 0.55388 2.16348e-18)
(0.989456 0.507899 -4.57208e-19)
(1.00632 0.461006 8.99667e-19)
(0.17205 0.205874 -3.75354e-19)
(0.399204 0.448254 -2.67604e-19)
(0.562391 0.571529 2.58803e-19)
(0.677928 0.619481 -6.41005e-19)
(0.759661 0.622009 -2.00214e-18)
(0.818699 0.598991 -8.0519e-19)
(0.862692 0.563188 -7.2574e-19)
(0.897113 0.521741 3.51219e-19)
(0.925117 0.478159 2.92723e-18)
(0.942605 0.437392 -6.089e-19)
(0.146894 0.201721 1.97536e-19)
(0.344727 0.433649 -7.99423e-19)
(0.494241 0.546774 1.75832e-19)
(0.604666 0.587133 -1.28046e-18)
(0.686058 0.585016 2.80346e-18)
(0.747292 0.559929 -3.24922e-19)
(0.794584 0.52408 1.52763e-18)
(0.832423 0.484256 -2.18833e-18)
(0.863342 0.443962 6.86532e-19)
(0.884648 0.407477 1.06206e-19)
(0.121118 0.191156 1.45618e-19)
(0.290163 0.40655 8.81721e-19)
(0.427119 0.507894 -2.58993e-18)
(0.533587 0.541229 1.26028e-18)
(0.615632 0.535982 -4.16018e-21)
(0.679887 0.510616 -4.25284e-19)
(0.731204 0.476429 5.35223e-19)
(0.773236 0.439624 -5.31929e-19)
(0.808165 0.403351 -1.82849e-18)
(0.834247 0.370865 -5.01002e-19)
(0.0960486 0.174334 4.76477e-19)
(0.238033 0.367474 5.34619e-19)
(0.363854 0.455615 2.2082e-18)
(0.467419 0.482513 -1.22843e-18)
(0.550831 0.4755 2.53212e-18)
(0.618565 0.451352 -5.45422e-19)
(0.674213 0.420139 -5.76529e-19)
(0.720699 0.387299 6.81301e-19)
(0.759931 0.355514 4.44205e-19)
(0.790869 0.327124 1.61058e-18)
(0.0729448 0.15167 -4.83557e-19)
(0.190664 0.317377 1.57841e-19)
(0.306988 0.391111 4.26869e-20)
(0.408535 0.412151 1.25234e-18)
(0.493702 0.404588 -3.12605e-18)
(0.56499 0.382953 5.3105e-19)
(0.624864 0.35582 1.17262e-18)
(0.675617 0.327751 -1.41764e-18)
(0.718933 0.30091 4.99426e-19)
(0.754394 0.276897 -2.31787e-18)
(0.0529469 0.123826 1.03049e-19)
(0.150114 0.257626 5.55917e-19)
(0.258722 0.315974 2.16215e-19)
(0.358945 0.331692 2.93021e-19)
(0.445941 0.324635 5.61471e-19)
(0.520504 0.306609 1.67168e-18)
(0.584154 0.284488 -2.04676e-18)
(0.638655 0.261882 -1.15279e-18)
(0.685522 0.240441 1.91038e-19)
(0.724903 0.221195 1.50297e-18)
(0.0370318 0.0916908 -6.23148e-19)
(0.118111 0.189953 -7.41308e-20)
(0.220874 0.23216 -6.20977e-19)
(0.320288 0.243022 8.84364e-20)
(0.408909 0.237333 -5.3159e-19)
(0.486184 0.2238 -6.06906e-19)
(0.55289 0.207442 -9.04444e-19)
(0.610384 0.190868 2.43723e-18)
(0.660066 0.175233 4.20483e-19)
(0.702562 0.161149 -6.40952e-19)
(0.0259729 0.0563424 3.35845e-19)
(0.0960029 0.116392 4.4391e-19)
(0.194847 0.141927 1.74893e-19)
(0.293812 0.148292 -9.43898e-19)
(0.38364 0.144613 -4.39427e-19)
(0.462844 0.136226 -9.46234e-20)
(0.531693 0.126185 1.84896e-19)
(0.591264 0.116066 1.48464e-19)
(0.642892 0.106552 -1.14803e-18)
(0.687548 0.0979585 6.58763e-19)
(0.0203063 0.0190052 -1.74894e-19)
(0.084714 0.0392055 -1.98971e-19)
(0.181592 0.047752 1.58583e-19)
(0.280362 0.0498476 1.40794e-19)
(0.370831 0.0485767 1.44294e-19)
(0.451036 0.045736 2.20674e-19)
(0.520987 0.0423507 -1.16023e-20)
(0.581621 0.0389482 -2.89465e-19)
(0.634242 0.0357541 2.7496e-19)
(0.680003 0.0328651 -4.13689e-19)
(0.0203063 -0.0190052 -1.76044e-19)
(0.084714 -0.0392057 -1.89615e-19)
(0.181592 -0.0477521 1.74744e-19)
(0.280362 -0.0498478 3.42132e-19)
(0.370831 -0.0485769 2.27967e-19)
(0.451036 -0.0457362 -3.00376e-19)
(0.520987 -0.0423509 -1.63221e-19)
(0.581621 -0.0389484 7.11802e-20)
(0.634242 -0.0357543 1.60031e-19)
(0.680003 -0.0328653 -9.52965e-20)
(0.0259729 -0.0563424 4.2012e-19)
(0.0960029 -0.116392 -5.33927e-19)
(0.194847 -0.141927 -4.44093e-20)
(0.293812 -0.148292 2.95832e-19)
(0.38364 -0.144614 -1.33751e-18)
(0.462844 -0.136227 5.71504e-19)
(0.531693 -0.126185 5.89955e-19)
(0.591264 -0.116066 -6.96469e-19)
(0.642892 -0.106552 6.65294e-19)
(0.687548 -0.0979588 -2.92004e-19)
(0.0370318 -0.0916909 -7.26355e-20)
(0.118111 -0.189953 -9.26694e-21)
(0.220874 -0.23216 -1.44218e-18)
(0.320288 -0.243022 -4.58784e-19)
(0.408909 -0.237333 -4.83715e-20)
(0.486184 -0.2238 -7.54742e-19)
(0.55289 -0.207442 1.40628e-18)
(0.610384 -0.190868 -4.94207e-20)
(0.660066 -0.175233 8.03017e-19)
(0.702562 -0.161149 -7.06079e-19)
(0.0529469 -0.123826 1.22673e-19)
(0.150114 -0.257626 -5.67943e-19)
(0.258722 -0.315974 1.74756e-18)
(0.358945 -0.331692 2.47298e-19)
(0.445941 -0.324635 1.21577e-18)
(0.520504 -0.306609 -1.18858e-18)
(0.584154 -0.284488 1.24777e-18)
(0.638655 -0.261882 -8.99607e-19)
(0.685522 -0.240441 -3.95063e-19)
(0.724903 -0.221195 3.35612e-19)
(0.0729448 -0.15167 1.0954e-18)
(0.190664 -0.317377 2.80497e-21)
(0.306988 -0.391112 -1.84177e-18)
(0.408535 -0.412151 -5.34355e-19)
(0.493703 -0.404589 1.77428e-18)
(0.56499 -0.382954 -1.03983e-18)
(0.624864 -0.355821 -1.20379e-18)
(0.675617 -0.327751 1.08311e-18)
(0.718933 -0.300911 -7.37376e-19)
(0.754394 -0.276898 -1.58973e-19)
(0.0960487 -0.174334 -1.63516e-19)
(0.238033 -0.367474 -7.75573e-21)
(0.363854 -0.455615 1.99877e-18)
(0.467419 -0.482513 1.14607e-18)
(0.550831 -0.4755 -1.35149e-18)
(0.618565 -0.451352 1.63637e-18)
(0.674213 -0.420139 -1.77564e-18)
(0.720699 -0.387299 1.767e-19)
(0.759931 -0.355515 5.28875e-19)
(0.790869 -0.327125 1.22376e-18)
(0.121118 -0.191156 1.87437e-19)
(0.290163 -0.40655 3.01843e-19)
(0.427119 -0.507894 3.28336e-19)
(0.533587 -0.541229 -1.05558e-18)
(0.615632 -0.535983 -1.88028e-18)
(0.679887 -0.510616 3.95962e-19)
(0.731204 -0.47643 1.14584e-18)
(0.773236 -0.439624 -3.27993e-19)
(0.808165 -0.403351 1.97469e-18)
(0.834247 -0.370865 -1.92477e-18)
(0.146894 -0.201721 -1.06106e-18)
(0.344727 -0.433649 4.07722e-19)
(0.494241 -0.546774 -1.10092e-18)
(0.604666 -0.587133 1.7798e-18)
(0.686058 -0.585016 8.89972e-19)
(0.747292 -0.559929 1.25654e-18)
(0.794584 -0.52408 -2.9079e-19)
(0.832423 -0.484257 1.14572e-18)
(0.863342 -0.443962 -2.42573e-18)
(0.884648 -0.407477 -6.32404e-19)
(0.17205 -0.205874 6.24632e-20)
(0.399204 -0.448254 -7.12832e-19)
(0.562391 -0.571529 -1.14139e-18)
(0.677928 -0.619482 -4.836e-19)
(0.759661 -0.622009 -1.36657e-18)
(0.818699 -0.598991 -1.38991e-19)
(0.862692 -0.563188 1.18832e-19)
(0.897113 -0.521741 -5.34011e-19)
(0.925117 -0.478159 -5.96792e-19)
(0.942605 -0.437392 1.57389e-18)
(0.195249 -0.203726 3.35413e-19)
(0.450967 -0.450296 4.68406e-19)
(0.628514 -0.581864 8.39139e-19)
(0.750268 -0.637905 3.72163e-20)
(0.833389 -0.646759 5.59884e-19)
(0.891057 -0.628052 -7.66678e-19)
(0.93231 -0.594737 2.34075e-18)
(0.963571 -0.55388 -1.03349e-18)
(0.989457 -0.507899 -5.07565e-19)
(1.00632 -0.461007 -1.53052e-18)
(0.21523 -0.195653 -1.32112e-19)
(0.49743 -0.44013 2.33393e-19)
(0.689467 -0.577805 -2.3917e-19)
(0.818263 -0.64211 1.28943e-19)
(0.903422 -0.658818 -1.52374e-19)
(0.959696 -0.646834 -3.90794e-19)
(0.997278 -0.619363 5.14068e-19)
(1.02316 -0.584703 -1.68152e-19)
(1.04271 -0.548005 2.60866e-19)
(1.05903 -0.515028 -5.69245e-19)
(0.230935 -0.18231 -7.3886e-21)
(0.536326 -0.418562 -1.0647e-19)
(0.742532 -0.559669 2.11846e-20)
(0.879239 -0.631621 1.44565e-19)
(0.967553 -0.656554 -6.53344e-20)
(1.02334 -0.651785 1.75414e-20)
(1.05788 -0.629967 -1.71886e-20)
(1.07891 -0.599657 -3.83353e-19)
(1.09214 -0.566623 -1.77956e-19)
(1.10255 -0.534701 -5.59972e-19)
(0.241593 -0.164636 -9.61317e-20)
(0.565833 -0.386974 3.39246e-19)
(0.785448 -0.528508 -2.10764e-19)
(0.931026 -0.60695 -7.59659e-20)
(1.02419 -0.640034 3.39291e-20)
(1.08145 -0.642882 7.15088e-20)
(1.11501 -0.627183 -7.01962e-21)
(1.1335 -0.601458 2.92442e-19)
(1.14303 -0.571983 -2.52709e-19)
(1.1492 -0.541879 -3.57972e-21)
(0.246759 -0.143785 -2.36708e-19)
(0.584617 -0.347278 -1.48242e-19)
(0.81634 -0.486098 -3.68105e-19)
(0.971582 -0.569494 4.18732e-19)
(1.07145 -0.610386 -3.07027e-20)
(1.13247 -0.621291 1.36109e-19)
(1.16741 -0.612602 1.53604e-19)
(1.18559 -0.592496 -5.58763e-20)
(1.19356 -0.567431 5.04846e-20)
(1.19711 -0.540021 -1.59858e-19)
(0.246312 -0.121013 -1.61019e-19)
(0.591873 -0.301725 -2.06835e-19)
(0.833755 -0.434708 3.1166e-19)
(0.99903 -0.521159 -4.68264e-19)
(1.10725 -0.569097 8.22588e-20)
(1.17428 -0.588156 4.1575e-20)
(1.21287 -0.587119 9.19874e-20)
(1.23273 -0.573484 -6.04728e-20)
(1.24077 -0.553598 -7.24222e-20)
(1.24291 -0.529719 -2.35901e-19)
(0.240436 -0.0975684 6.71305e-19)
(0.587356 -0.252731 -5.25375e-19)
(0.836773 -0.376931 2.45463e-20)
(1.01185 -0.464234 -6.73206e-19)
(1.12967 -0.51799 -1.9543e-19)
(1.20469 -0.544843 1.56347e-19)
(1.24914 -0.551725 1.14546e-19)
(1.27272 -0.545172 -3.82072e-19)
(1.28252 -0.531184 1.67693e-19)
(1.28453 -0.511755 -3.0244e-19)
(0.229587 -0.0746121 3.33151e-19)
(0.571393 -0.202718 -3.29721e-19)
(0.825093 -0.315541 1.18318e-18)
(1.00902 -0.401307 9.43477e-20)
(1.13708 -0.459223 2.68325e-19)
(1.22172 -0.493027 9.57168e-19)
(1.27409 -0.507671 -1.98964e-19)
(1.30345 -0.508498 4.83169e-20)
(1.31688 -0.500956 -2.84375e-20)
(1.32028 -0.486798 -4.95297e-20)
(0.214444 -0.0531505 2.56807e-19)
(0.544851 -0.15397 5.83534e-19)
(0.799064 -0.253335 -5.94783e-19)
(0.990134 -0.335148 -1.80664e-19)
(1.12837 -0.395217 -1.9127e-19)
(1.22372 -0.434653 3.76549e-19)
(1.28574 -0.456424 -1.77685e-19)
(1.32289 -0.464538 4.1894e-19)
(1.34191 -0.463703 1.00807e-19)
(1.34841 -0.45542 -1.77289e-19)
(0.195856 -0.0339917 -2.77404e-19)
(0.50907 -0.10851 2.57425e-19)
(0.75969 -0.192986 -5.28497e-19)
(0.955468 -0.268575 2.21268e-19)
(1.10299 -0.328579 -2.21765e-19)
(1.20943 -0.371907 -2.63699e-19)
(1.2824 -0.399693 -2.04605e-19)
(1.3291 -0.414556 2.25742e-19)
(1.35567 -0.420329 -3.92366e-19)
(1.36715 -0.418231 2.48392e-19)
(0.174775 -0.017719 -1.03926e-19)
(0.465773 -0.0680015 -2.03937e-19)
(0.708579 -0.1369 9.59364e-20)
(0.906007 -0.204326 7.0831e-21)
(1.0611 -0.262007 7.63539e-20)
(1.17821 -0.307192 1.09398e-19)
(1.26274 -0.33945 9.31506e-20)
(1.32037 -0.360077 -1.26032e-19)
(1.35627 -0.371951 1.02738e-19)
(1.37465 -0.375986 -1.62289e-19)
(0.152192 -0.00468203 -6.54864e-20)
(0.416946 -0.0336823 -2.63955e-20)
(0.647854 -0.0871017 9.83504e-20)
(0.843432 -0.144924 -4.437e-20)
(1.0036 -0.198186 1.24172e-19)
(1.13007 -0.243068 -1.56953e-19)
(1.22601 -0.277937 4.03221e-20)
(1.29535 -0.302934 3.46037e-20)
(1.34201 -0.31998 -1.23618e-20)
(1.36911 -0.329675 5.67357e-20)
(0.129071 0.00499457 -7.85616e-20)
(0.364701 -0.00632845 -3.33065e-19)
(0.580015 -0.045137 -2.68245e-20)
(0.770039 -0.0925428 1.07069e-20)
(0.932159 -0.139655 -4.61995e-19)
(1.06584 -0.182157 4.87862e-20)
(1.17214 -0.217628 -5.16881e-20)
(1.25319 -0.2453 -1.40587e-19)
(1.3115 -0.266204 3.11074e-19)
(1.34885 -0.280637 -5.6594e-19)
(0.106293 0.0113861 -4.45388e-20)
(0.311141 0.0137429 7.14371e-19)
(0.50778 -0.012012 9.52802e-20)
(0.688608 -0.0488894 -6.45317e-19)
(0.849159 -0.0886658 -7.72726e-20)
(0.987143 -0.127018 -7.27712e-19)
(1.10185 -0.161148 5.65843e-19)
(1.19374 -0.189674 -2.2966e-19)
(1.26384 -0.212846 4.35305e-19)
(1.3125 -0.230666 -3.84025e-19)
(0.0846112 0.0147326 -2.51898e-19)
(0.258228 0.0266433 2.933e-19)
(0.4339 0.0118356 -2.04871e-19)
(0.602224 -0.0151007 1.41613e-18)
(0.75755 -0.047019 7.49603e-19)
(0.896412 -0.0799691 -1.96289e-19)
(1.01678 -0.111131 7.63251e-19)
(1.11772 -0.138797 -4.99041e-19)
(1.19888 -0.162564 -1.60485e-19)
(1.25919 -0.182096 1.15952e-18)
(0.0646186 0.0153977 -4.65671e-19)
(0.207683 0.0328633 6.95274e-19)
(0.360983 0.0265374 -1.31853e-18)
(0.514054 0.00833866 2.28234e-19)
(0.660654 -0.0159065 5.69055e-19)
(0.796702 -0.0428753 -7.15107e-19)
(0.919361 -0.0699937 -1.26654e-18)
(1.02673 -0.095471 6.78971e-19)
(1.11735 -0.118342 -8.83015e-19)
(1.18885 -0.137792 1.41311e-18)
(0.0467453 0.0138317 -1.15117e-19)
(0.160911 0.0332169 -6.99813e-19)
(0.29134 0.0327803 3.45456e-19)
(0.427115 0.0216649 8.64163e-19)
(0.561884 0.00426199 -4.64186e-19)
(0.691441 -0.01688 -4.58083e-19)
(0.812664 -0.0396123 -7.76659e-19)
(0.923201 -0.0622296 -3.55883e-19)
(1.02086 -0.0832286 -8.54678e-20)
(1.10226 -0.100991 1.41222e-18)
(0.0312704 0.0105458 1.93285e-19)
(0.118977 0.0287939 -9.50663e-19)
(0.22687 0.0317845 1.62606e-18)
(0.344064 0.0258916 -9.05451e-19)
(0.464447 0.0140398 5.8664e-19)
(0.584061 -0.00207572 -7.29957e-19)
(0.699969 -0.0208536 8.12996e-19)
(0.80993 -0.0407959 7.10037e-19)
(0.911578 -0.0598083 1.55134e-18)
(1.00091 -0.0748774 -2.56473e-18)
(0.0183521 0.00610199 -6.00586e-19)
(0.082613 0.0209187 1.20599e-18)
(0.169007 0.0252639 1.6094e-20)
(0.267055 0.0228313 -4.34383e-19)
(0.371089 0.0151011 -2.30677e-19)
(0.477616 0.00286624 1.8437e-19)
(0.58424 -0.0129426 -1.30893e-18)
(0.689406 -0.0312132 1.01128e-18)
(0.791334 -0.0492633 -1.30334e-18)
(0.886042 -0.0617484 -5.94922e-19)
(0.00806028 0.00110798 1.03349e-18)
(0.0522604 0.0110932 -3.224e-19)
(0.118756 0.0153297 -6.04776e-19)
(0.197749 0.015019 1.64255e-18)
(0.284049 0.0102798 -1.6135e-18)
(0.374604 0.000972389 9.0148e-19)
(0.467607 -0.0128146 9.60116e-19)
(0.562489 -0.0307694 2.62729e-19)
(0.658904 -0.0501762 2.73254e-19)
(0.75456 -0.0623392 -3.8763e-19)
(0.000388731 -0.0038085 -9.88398e-19)
(0.0281182 0.000874503 9.39459e-19)
(0.0768099 0.00427299 -8.31386e-19)
(0.137564 0.00546165 1.04309e-18)
(0.205554 0.00344274 -3.11637e-19)
(0.277821 -0.0027074 -1.08232e-18)
(0.352529 -0.0137253 3.10379e-19)
(0.429275 -0.0305524 -5.12097e-19)
(0.509037 -0.0524524 -6.06535e-19)
(0.594172 -0.0694527 -1.89223e-18)
(-0.00477044 -0.00808579 -1.23469e-18)
(0.010147 -0.0083845 9.81604e-19)
(0.0436439 -0.00593781 -1.92326e-18)
(0.0879966 -0.00320899 3.43912e-19)
(0.13875 -0.00175669 -1.33241e-18)
(0.192805 -0.0025426 -7.99111e-19)
(0.247588 -0.00588901 1.91237e-18)
(0.301162 -0.0120147 -2.61448e-18)
(0.352883 -0.0215145 5.03233e-19)
(0.400031 -0.030247 -8.2868e-19)
(-0.00768225 -0.0113476 6.08192e-19)
(-0.00204458 -0.0158391 2.57333e-19)
(0.0192556 -0.0143225 -7.65403e-20)
(0.0500651 -0.0103001 7.30857e-19)
(0.0867027 -0.00565926 2.14611e-18)
(0.126595 -0.00135993 7.40713e-19)
(0.167734 0.0024074 7.6536e-19)
(0.208921 0.00569271 -2.64643e-19)
(0.250234 0.00783912 -2.46856e-18)
(0.289116 0.00926297 6.26052e-19)
(-0.00878377 -0.0134242 -1.71699e-19)
(-0.00932802 -0.0210861 5.46482e-19)
(0.00264626 -0.0205024 -1.43159e-19)
(0.0227359 -0.0158176 1.01081e-18)
(0.0481739 -0.00920569 -2.33709e-18)
(0.0770148 -0.00182626 1.98372e-19)
(0.10783 0.0057941 -1.11228e-18)
(0.139844 0.0132486 1.63669e-18)
(0.172878 0.0195731 -4.78392e-19)
(0.204275 0.0240799 -6.83598e-20)
(-0.00858786 -0.0143041 -1.16886e-19)
(-0.0128318 -0.0240058 -6.57208e-19)
(-0.00771325 -0.0243089 1.65283e-18)
(0.00407955 -0.0196271 -8.71461e-19)
(0.02066 -0.0123271 6.12492e-20)
(0.0406183 -0.00378482 2.79667e-19)
(0.0629149 0.00513206 -2.55582e-19)
(0.0869301 0.0136321 3.32164e-19)
(0.11225 0.0206145 1.151e-18)
(0.136675 0.0252828 3.01192e-19)
(-0.00758382 -0.0140744 -2.62168e-19)
(-0.0136958 -0.0246651 -2.91604e-19)
(-0.0134291 -0.0257008 -1.29434e-18)
(-0.00792058 -0.0215117 6.89188e-19)
(0.00173587 -0.0144923 -1.42152e-18)
(0.0145791 -0.00611566 3.2294e-19)
(0.02985 0.00258956 3.63123e-19)
(0.0470095 0.0107141 -3.83747e-19)
(0.0655404 0.0172487 -2.48277e-19)
(0.0838003 0.0214701 -1.11582e-18)
(-0.00618711 -0.0128749 2.04802e-19)
(-0.01294 -0.0232576 -4.81734e-20)
(-0.0159823 -0.0247667 9.78711e-22)
(-0.0151343 -0.021343 -6.22007e-19)
(-0.0108145 -0.0152253 1.57458e-18)
(-0.00361558 -0.00783554 -2.45597e-19)
(0.0059186 -0.00019643 -6.12895e-19)
(0.0173144 0.00683855 7.50156e-19)
(0.0300362 0.0124521 -2.63618e-19)
(0.0429243 0.0160466 1.45711e-18)
(-0.00472408 -0.0108682 -3.844e-20)
(-0.0114034 -0.0200605 -2.25372e-19)
(-0.0166178 -0.0217192 -8.89478e-20)
(-0.0191362 -0.0191494 -1.13635e-19)
(-0.018832 -0.0142677 -2.44311e-19)
(-0.0160034 -0.00831172 -7.67227e-19)
(-0.0110225 -0.00217626 9.59707e-19)
(-0.00429614 0.00342962 5.60615e-19)
(0.00366332 0.00789615 -1.00429e-19)
(0.0120639 0.0107642 -8.93758e-19)
(-0.00343579 -0.00822503 2.18288e-19)
(-0.00972817 -0.0154098 3.81461e-20)
(-0.0163016 -0.0168864 2.58204e-19)
(-0.0211437 -0.0151405 -2.95524e-20)
(-0.0237177 -0.0116334 2.35113e-19)
(-0.0240982 -0.00731699 2.65263e-19)
(-0.0225237 -0.00287693 3.97681e-19)
(-0.0193383 0.00116392 -1.12656e-18)
(-0.0150199 0.00438877 -2.07928e-19)
(-0.0101026 0.00647402 3.72651e-19)
(-0.00248972 -0.00512145 -1.10223e-19)
(-0.00837075 -0.00968574 -1.56662e-19)
(-0.0157253 -0.0106978 -7.53643e-20)
(-0.0220252 -0.00969762 3.68616e-19)
(-0.0264595 -0.00759836 1.78927e-19)
(-0.0289519 -0.00499683 3.66939e-20)
(-0.0296477 -0.00232136 -7.95554e-20)
(-0.0288424 0.000109734 -6.1713e-20)
(-0.0269846 0.00205474 5.2972e-19)
(-0.0244466 0.00332118 -3.60779e-19)
(-0.00199125 -0.00173847 5.61907e-20)
(-0.00762164 -0.0033028 6.99172e-20)
(-0.0153302 -0.00366213 -5.96177e-20)
(-0.0223325 -0.00333783 -5.45296e-20)
(-0.0276806 -0.00264018 -5.6539e-20)
(-0.0312216 -0.00177232 -9.02168e-20)
(-0.0330529 -0.000879645 2.89771e-21)
(-0.0334438 -6.88659e-05 1.25175e-19)
(-0.0328263 0.000580889 -1.25685e-19)
(-0.0314952 0.00100573 2.28674e-19)
(-0.0081344 -0.00258591 1.65345e-20)
(0.0621373 -0.00662483 9.88733e-21)
(0.27754 -0.00670826 1.33774e-21)
(0.376974 -0.00439108 -9.02458e-22)
(0.479667 -0.00368696 -6.35491e-23)
(0.553567 -0.00264269 1.48075e-22)
(0.606049 -0.00218698 1.6643e-22)
(0.660363 -0.00157428 -3.40442e-23)
(0.68359 -0.00145351 -2.48367e-24)
(0.733835 -0.00100765 2.43811e-22)
(0.0086653 -0.0080614 2.62209e-20)
(0.0773908 -0.0197167 1.25339e-21)
(0.289031 -0.0199745 -1.74812e-20)
(0.385732 -0.0130667 1.40456e-20)
(0.486375 -0.0109736 8.87273e-22)
(0.558802 -0.00786733 -5.94348e-22)
(0.61032 -0.00651553 6.89077e-22)
(0.663722 -0.00470757 6.98131e-23)
(0.686522 -0.00435728 1.40605e-22)
(0.736059 -0.00301429 -2.23435e-22)
(0.0419702 -0.0144172 2.68571e-20)
(0.107424 -0.0323275 -3.61025e-20)
(0.311585 -0.0327819 1.78701e-20)
(0.402933 -0.0214415 -1.16356e-20)
(0.499558 -0.0180329 8.28392e-22)
(0.569105 -0.0129404 -6.45566e-22)
(0.618736 -0.0107291 -2.56955e-22)
(0.670353 -0.00776122 8.42227e-25)
(0.69232 -0.00719523 -1.07681e-22)
(0.740463 -0.00498136 -3.26172e-22)
(0.0911786 -0.0221314 -4.16275e-20)
(0.151315 -0.0441582 -5.01131e-20)
(0.344372 -0.0448452 -2.31233e-20)
(0.427972 -0.0293319 1.21287e-20)
(0.518764 -0.0247251 -1.45385e-20)
(0.584151 -0.0177686 3.84553e-21)
(0.631055 -0.014756 -2.08961e-22)
(0.680086 -0.0106854 1.20941e-22)
(0.700849 -0.00992581 -1.29314e-22)
(0.746969 -0.00688352 1.21062e-22)
(0.155359 -0.031477 1.15129e-19)
(0.207738 -0.054921 7.22373e-20)
(0.386204 -0.0559009 2.59809e-20)
(0.459981 -0.0365759 -2.35701e-20)
(0.543348 -0.0309263 1.19338e-20)
(0.603476 -0.0222691 3.16112e-21)
(0.646926 -0.0185321 2.21011e-21)
(0.692674 -0.0134352 2.39398e-22)
(0.711919 -0.0125107 2.87474e-22)
(0.755455 -0.008697 -6.42254e-22)
(0.233231 -0.0423813 -5.08263e-20)
(0.275016 -0.064301 3.90013e-20)
(0.435601 -0.0656955 4.82019e-21)
(0.49788 -0.0430301 2.62866e-20)
(0.572506 -0.0365296 -5.94713e-21)
(0.626499 -0.0263713 -3.68425e-21)
(0.665909 -0.0220022 -2.28298e-21)
(0.707808 -0.0159718 -1.4774e-22)
(0.725286 -0.0149162 -1.55915e-22)
(0.765769 -0.0104002 6.89021e-22)
(0.323165 -0.0545641 -3.86786e-20)
(0.351178 -0.0720335 -1.00779e-19)
(0.490865 -0.0740262 -1.70481e-20)
(0.540432 -0.0485786 -1.46399e-20)
(0.605325 -0.0414524 6.97309e-21)
(0.652554 -0.0300199 -1.94221e-21)
(0.687497 -0.025122 2.45584e-21)
(0.725123 -0.0182634 4.49662e-22)
(0.740664 -0.0171139 -4.66795e-23)