1.275 	2.15223e-18 	-2.76991e-20 	-0.0340381 	-0.00044227 	-1.98516e-22
1.825 	2.15223e-18 	-1.39322e-20 	-0.00869122 	-0.00277226 	1.78272e-21
2.375 	2.15223e-18 	-2.66896e-23 	0.117505 	-0.00327866 	-7.44152e-22
