1.45 	0 	0 	-0.00816134 	-0.00256826 	3.7811e-21
2.35 	0 	0 	0.0613269 	-0.00662805 	2.28216e-21
