1.45 	0 	0 	-0.303057
2.35 	0 	0 	-0.134579
