1.275 	2.15223e-18 	-2.76991e-20 	-0.034483 	-0.000440026 	-1.90144e-22
1.825 	2.15223e-18 	-1.39322e-20 	-0.00950285 	-0.0027567 	1.67611e-21
2.375 	2.15223e-18 	-2.66896e-23 	0.115188 	-0.00323131 	-6.99051e-22
