1.45 	0 	0 	-0.00799249 	-0.00257609 	3.7964e-21
2.35 	0 	0 	0.0615892 	-0.00664061 	2.30542e-21
