/*--------------------------------*- C++ -*----------------------------------*\
  =========                 |
  \\      /  F ield         | OpenFOAM: The Open Source CFD Toolbox
   \\    /   O peration     | Website:  https://openfoam.org
    \\  /    A nd           | Version:  6.0
     \\/     M anipulation  |
\*---------------------------------------------------------------------------*/
FoamFile
{
    version     2.0;
    format      ascii;
    class       surfaceScalarField;
    location    "0.5";
    object      phi;
}
// * * * * * * * * * * * * * * * * * * * * * * * * * * * * * * * * * * * * * //

dimensions      [0 3 -1 0 0 0 0];

internalField   nonuniform List<scalar> 
1540
(
1.00636e-08
-1.00487e-08
-3.42995e-10
1.04068e-08
-3.69217e-08
3.65788e-08
-9.45368e-08
5.76151e-08
-1.66417e-07
7.18805e-08
-2.46499e-07
8.00814e-08
-3.30089e-07
8.35906e-08
-4.1393e-07
8.38402e-08
-4.95965e-07
8.20351e-08
-5.75046e-07
7.90809e-08
-6.50655e-07
7.56087e-08
-7.22684e-07
7.20296e-08
-7.91273e-07
6.85886e-08
-8.56682e-07
6.54093e-08
-9.19207e-07
6.25243e-08
-9.79101e-07
5.9894e-08
-1.03652e-06
5.74156e-08
-1.09144e-06
5.4926e-08
-1.14364e-06
5.22016e-08
-1.1926e-06
4.89572e-08
-1.23745e-06
4.48472e-08
-1.27692e-06
3.94713e-08
-1.30931e-06
3.23882e-08
-1.33245e-06
2.31409e-08
-1.34375e-06
1.12979e-08
-1.34026e-06
-3.48667e-09
-1.31887e-06
-2.13917e-08
-1.27654e-06
-4.23273e-08
-1.21072e-06
-6.58207e-08
-1.11982e-06
-9.09025e-08
-1.0038e-06
-1.16021e-07
-8.64779e-07
-1.39018e-07
-7.07582e-07
-1.57196e-07
-5.40059e-07
-1.67523e-07
-3.73092e-07
-1.66968e-07
-2.20089e-07
-1.53002e-07
-9.58208e-08
-1.24268e-07
-1.44626e-08
-8.1358e-08
1.42947e-08
-2.87572e-08
1.42947e-08
-1.01959e-08
1.47352e-10
-7.01882e-08
7.03992e-08
-1.83553e-07
1.49943e-07
-3.41444e-07
2.15506e-07
-5.31331e-07
2.61768e-07
-7.40895e-07
2.89645e-07
-9.59799e-07
3.02495e-07
-1.18026e-06
3.04304e-07
-1.39694e-06
2.98714e-07
-1.60651e-06
2.88649e-07
-1.80717e-06
2.76269e-07
-1.9982e-06
2.6306e-07
-2.17957e-06
2.49956e-07
-2.35162e-06
2.3746e-07
-2.51484e-06
2.25741e-07
-2.66963e-06
2.1469e-07
-2.81618e-06
2.0396e-07
-2.95424e-06
1.92987e-07
-3.08303e-06
1.80995e-07
-3.20108e-06
1.6701e-07
-3.30611e-06
1.49872e-07
-3.39491e-06
1.2827e-07
-3.46332e-06
1.00803e-07
-3.50625e-06
6.60693e-08
-3.51777e-06
2.28141e-08
-3.49138e-06
-2.98765e-08
-3.42045e-06
-9.23209e-08
-3.29884e-06
-1.63939e-07
-3.12173e-06
-2.42926e-07
-2.88669e-06
-3.25941e-07
-2.59482e-06
-4.07895e-07
-2.25191e-06
-4.81923e-07
-1.86946e-06
-5.39654e-07
-1.46511e-06
-5.71866e-07
-1.06248e-06
-5.69605e-07
-6.8967e-07
-5.25808e-07
-3.76495e-07
-4.37443e-07
-1.49802e-07
-3.08052e-07
-2.63465e-08
-1.52213e-07
-1.20519e-08
-3.91064e-08
3.92538e-08
-1.59014e-07
1.90306e-07
-3.52354e-07
3.43284e-07
-6.04613e-07
4.67765e-07
-8.98768e-07
5.55923e-07
-1.2185e-06
6.09374e-07
-1.54996e-06
6.33959e-07
-1.88248e-06
6.36822e-07
-2.20848e-06
6.24718e-07
-2.52309e-06
6.0325e-07
-2.8235e-06
5.7668e-07
-3.10846e-06
5.48022e-07
-3.37772e-06
5.19221e-07
-3.63163e-06
4.91363e-07
-3.87072e-06
4.64837e-07
-4.09549e-06
4.39457e-07
-4.30607e-06
4.14542e-07
-4.50205e-06
3.88963e-07
-4.68224e-06
3.61182e-07
-4.8445e-06
3.29277e-07
-4.98563e-06
2.90997e-07
-5.10119e-06
2.43835e-07
-5.18555e-06
1.85158e-07
-5.23187e-06
1.12396e-07
-5.23238e-06
2.33169e-08
-5.17865e-06
-8.36065e-08
-5.06223e-06
-2.08737e-07
-4.87544e-06
-3.50734e-07
-4.61239e-06
-5.05975e-07
-4.2703e-06
-6.68025e-07
-3.85093e-06
-8.2727e-07
-3.36198e-06
-9.70875e-07
-2.81836e-06
-1.08327e-06
-2.24286e-06
-1.14737e-06
-1.66586e-06
-1.1466e-06
-1.12369e-06
-1.06798e-06
-6.55185e-07
-9.05945e-07
-2.96466e-07
-6.66771e-07
-7.42423e-08
-3.74437e-07
-8.62942e-08
-6.7361e-08
1.06615e-07
-2.47975e-07
3.7092e-07
-5.20365e-07
6.15674e-07
-8.61785e-07
8.09185e-07
-1.24996e-06
9.44096e-07
-1.66497e-06
1.02438e-06
-2.0904e-06
1.05939e-06
-2.5137e-06
1.06013e-06
-2.926e-06
1.03702e-06
-3.32155e-06
9.98792e-07
-3.69705e-06
9.52185e-07
-4.05105e-06
9.02019e-07
-4.38328e-06
8.51455e-07
-4.6942e-06
8.0228e-07
-4.98452e-06
7.55156e-07
-5.25487e-06
7.09814e-07
-5.50551e-06
6.6518e-07
-5.73602e-06
6.19474e-07
-5.94511e-06
5.70273e-07
-6.13042e-06
5.14583e-07
-6.28835e-06
4.48927e-07
-6.41399e-06
3.69479e-07
-6.5011e-06
2.72265e-07
-6.54216e-06
1.53454e-07
-6.52861e-06
9.76758e-09
-6.45123e-06
-1.60988e-07
-6.30071e-06
-3.59259e-07
-6.06848e-06
-5.82962e-07
-5.7478e-06
-8.26657e-07
-5.33507e-06
-1.08075e-06
-4.83141e-06
-1.33093e-06
-4.24428e-06
-1.558e-06
-3.58906e-06
-1.7385e-06
-2.89009e-06
-1.84633e-06
-2.18094e-06
-1.85576e-06
-1.50307e-06
-1.74584e-06
-9.0282e-07
-1.5062e-06
-4.26477e-07
-1.14311e-06
-1.14713e-07
-6.86202e-07
-2.01007e-07
-9.3242e-08
1.99857e-07
-3.31522e-07
6.09199e-07
-6.78737e-07
9.62889e-07
-1.10244e-06
1.23289e-06
-1.57419e-06
1.41584e-06
-2.0703e-06
1.52049e-06
-2.57215e-06
1.56124e-06
-3.06598e-06
1.55396e-06
-3.54232e-06
1.51335e-06
-3.9952e-06
1.45168e-06
-4.42142e-06
1.3784e-06
-4.81973e-06
1.30033e-06
-5.19019e-06
1.22192e-06
-5.53363e-06
1.14572e-06
-5.85113e-06
1.07266e-06
-6.14371e-06
1.00239e-06
-6.41192e-06
9.33394e-07
-6.65565e-06
8.63208e-07
-6.87387e-06
7.88486e-07
-7.06441e-06
7.0513e-07
-7.2239e-06
6.08415e-07
-7.3476e-06
4.93181e-07
-7.42944e-06
3.54098e-07
-7.46203e-06
1.86042e-07
-7.43687e-06
-1.53843e-08
-7.34468e-06
-2.53183e-07
-7.17582e-06
-5.28117e-07
-6.92106e-06
-8.37719e-07
-6.57253e-06
-1.17519e-06
-6.12498e-06
-1.52831e-06
-5.57737e-06
-1.87854e-06
-4.93478e-06
-2.20059e-06
-4.21037e-06
-2.46291e-06
-3.42725e-06
-2.62945e-06
-2.6196e-06
-2.66341e-06
-1.83247e-06
-2.53297e-06
-1.11961e-06
-2.21906e-06
-5.39153e-07
-1.72357e-06
-1.48236e-07
-1.07712e-06
-3.49243e-07
-1.16633e-07
3.1649e-07
-4.08156e-07
9.00722e-07
-8.24116e-07
1.37885e-06
-1.32159e-06
1.73036e-06
-1.8653e-06
1.95956e-06
-2.4276e-06
2.08279e-06
-2.98789e-06
2.12153e-06
-3.53169e-06
2.09777e-06
-4.04958e-06
2.03124e-06
-4.53607e-06
1.93816e-06
-4.98858e-06
1.83091e-06
-5.40658e-06
1.71833e-06
-5.79087e-06
1.60621e-06
-6.14295e-06
1.49779e-06
-6.46456e-06
1.39428e-06
-6.75732e-06
1.29515e-06
-7.0224e-06
1.19847e-06
-7.26024e-06
1.10105e-06
-7.47042e-06
9.9866e-07
-7.65141e-06
8.86127e-07
-7.80054e-06
7.57538e-07
-7.91381e-06
6.06459e-07
-7.98596e-06
4.26244e-07
-8.01039e-06
2.1047e-07
-7.97929e-06
-4.64826e-08
-7.88382e-06
-3.48658e-07
-7.71437e-06
-6.97559e-07
-7.46112e-06
-1.09097e-06
-7.11472e-06
-1.52159e-06
-6.66742e-06
-1.97561e-06
-6.11463e-06
-2.43132e-06
-5.45703e-06
-2.85819e-06
-4.70313e-06
-3.21681e-06
-3.87214e-06
-3.46044e-06
-2.99655e-06
-3.539e-06
-2.12358e-06
-3.40594e-06
-1.31443e-06
-3.02821e-06
-6.40608e-07
-2.3974e-06
-1.77821e-07
-1.5399e-06
-5.27064e-07
-1.37955e-07
4.54444e-07
-4.78255e-07
1.24102e-06
-9.56153e-07
1.85675e-06
-1.51768e-06
2.29188e-06
-2.12031e-06
2.56219e-06
-2.7324e-06
2.69489e-06
-3.33174e-06
2.72087e-06
-3.90376e-06
2.66978e-06
-4.43978e-06
2.56727e-06
-4.93547e-06
2.43385e-06
-5.38953e-06
2.28497e-06
-5.80266e-06
2.13146e-06
-6.17679e-06
1.98034e-06
-6.51446e-06
1.83545e-06
-6.81832e-06
1.69814e-06
-7.09083e-06
1.56766e-06
-7.33397e-06
1.4416e-06
-7.54901e-06
1.31609e-06
-7.73638e-06
1.18604e-06
-7.89555e-06
1.0453e-06
-8.0249e-06
8.8688e-07
-8.12162e-06
7.03188e-07
-8.18173e-06
4.86348e-07
-8.19991e-06
2.28652e-07
-8.16955e-06
-7.68394e-08
-8.08271e-06
-4.35501e-07
-7.93017e-06
-8.50104e-07
-7.70162e-06
-1.31951e-06
-7.38613e-06
-1.83708e-06
-6.97291e-06
-2.38883e-06
-6.45275e-06
-2.95149e-06
-5.82021e-06
-3.49073e-06
-5.07681e-06
-3.9602e-06
-4.23509e-06
-4.30217e-06
-3.32303e-06
-4.45106e-06
-2.38787e-06
-4.34109e-06
-1.49758e-06
-3.9185e-06
-7.38228e-07
-3.15675e-06
-2.06675e-07
-2.07146e-06
-7.33739e-07
-1.57989e-07
6.12433e-07
-5.43461e-07
1.62649e-06
-1.07658e-06
2.38987e-06
-1.69155e-06
2.90686e-06
-2.3384e-06
3.20903e-06
-2.98181e-06
3.3383e-06
-3.59865e-06
3.33772e-06
-4.17516e-06
3.24629e-06
-4.70429e-06
3.0964e-06
-5.18369e-06
2.91325e-06
-5.61399e-06
2.71527e-06
-5.99767e-06
2.51515e-06
-6.33821e-06
2.32087e-06
-6.63942e-06
2.13667e-06
-6.9051e-06
1.96382e-06
-7.13869e-06
1.80126e-06
-7.34312e-06
1.64603e-06
-7.5206e-06
1.49358e-06
-7.6726e-06
1.33804e-06
-7.79971e-06
1.17241e-06
-7.90161e-06
9.88777e-07
-7.97697e-06
7.78548e-07
-8.02338e-06
5.32759e-07
-8.03721e-06
2.42485e-07
-8.01346e-06
-1.00592e-07
-7.94554e-06
-5.03424e-07
-7.82506e-06
-9.70577e-07
-7.64171e-06
-1.50287e-06
-7.38319e-06
-2.0956e-06
-7.03568e-06
-2.73635e-06
-6.5848e-06
-3.40236e-06
-6.01781e-06
-4.05772e-06
-5.32711e-06
-4.65091e-06
-4.51546e-06
-5.11382e-06
-3.60264e-06
-5.36387e-06
-2.63241e-06
-5.31132e-06
-1.67736e-06
-4.87355e-06
-8.38605e-07
-3.99551e-06
-2.37637e-07
-2.67242e-06
-9.71377e-07
-1.77927e-07
7.9036e-07
-6.06609e-07
2.05518e-06
-1.18888e-06
2.97214e-06
-1.84585e-06
3.56383e-06
-2.52008e-06
3.88325e-06
-3.17345e-06
3.99167e-06
-3.7832e-06
3.94747e-06
-4.33766e-06
3.80074e-06
-4.83264e-06
3.59139e-06
-5.26872e-06
3.34932e-06
-5.64921e-06
3.09576e-06
-5.97887e-06
2.84482e-06
-6.26303e-06
2.60502e-06
-6.50698e-06
2.38062e-06
-6.71573e-06
2.17257e-06
-6.89375e-06
1.97927e-06
-7.04486e-06
1.79714e-06
-7.17224e-06
1.62095e-06
-7.27833e-06
1.44413e-06
-7.36491e-06
1.25898e-06
-7.43297e-06
1.05684e-06
-7.48277e-06
8.28344e-07
-7.51364e-06
5.63634e-07
-7.52389e-06
2.5273e-07
-7.51046e-06
-1.14014e-07
-7.46863e-06
-5.45254e-07
-7.39148e-06
-1.04773e-06
-7.26937e-06
-1.62498e-06
-7.08948e-06
-2.27549e-06
-6.83558e-06
-2.99025e-06
-6.48847e-06
-3.74947e-06
-6.02762e-06
-4.51857e-06
-5.43462e-06
-5.24391e-06
-4.69929e-06
-5.84915e-06
-3.82854e-06
-6.23462e-06
-2.85723e-06
-6.28263e-06
-1.85823e-06
-5.87255e-06
-9.4677e-07
-4.90697e-06
-2.73121e-07
-3.34607e-06
-1.2445e-06
-1.99629e-07
9.89989e-07
-6.72052e-07
2.5276e-06
-1.29829e-06
3.59838e-06
-1.98443e-06
4.24998e-06
-2.666e-06
4.56482e-06
-3.30381e-06
4.62948e-06
-3.87754e-06
4.5212e-06
-4.37961e-06
4.3028e-06
-4.81025e-06
4.02203e-06
-5.17409e-06
3.71316e-06
-5.47787e-06
3.39955e-06
-5.72905e-06
3.09599e-06
-5.93496e-06
2.81094e-06
-6.10244e-06
2.5481e-06
-6.23757e-06
2.3077e-06
-6.34569e-06
2.08739e-06
-6.43136e-06
1.88282e-06
-6.49849e-06
1.68808e-06
-6.55034e-06
1.49599e-06
-6.58967e-06
1.2983e-06
-6.61869e-06
1.08587e-06
-6.63913e-06
8.48785e-07
-6.6521e-06
5.76605e-07
-6.65792e-06
2.58551e-07
-6.65579e-06
-1.16147e-07
-6.64329e-06
-5.57759e-07
-6.61568e-06
-1.07533e-06
-6.56508e-06
-1.67558e-06
-6.47939e-06
-2.36117e-06
-6.34145e-06
-3.1282e-06
-6.12849e-06
-3.96243e-06
-5.81284e-06
-4.83423e-06
-5.36463e-06
-5.69212e-06
-4.75793e-06
-6.45585e-06
-3.98141e-06
-7.01114e-06
-3.05355e-06
-7.21049e-06
-2.03998e-06
-6.88612e-06
-1.06624e-06
-5.88071e-06
-3.15422e-07
-4.09689e-06
-1.55992e-06
-2.26092e-07
1.21608e-06
-7.46277e-07
3.04778e-06
-1.41185e-06
4.26395e-06
-2.11141e-06
4.94953e-06
-2.77492e-06
5.22832e-06
-3.3653e-06
5.21987e-06
-3.86803e-06
5.02393e-06
-4.28233e-06
4.7171e-06
-4.61481e-06
4.35451e-06
-4.8754e-06
3.97376e-06
-5.07489e-06
3.59903e-06
-5.22363e-06
3.24473e-06
-5.33094e-06
2.91824e-06
-5.40489e-06
2.62205e-06
-5.45238e-06
2.35519e-06
-5.47921e-06
2.11421e-06
-5.4903e-06
1.89391e-06
-5.4899e-06
1.68768e-06
-5.48175e-06
1.48783e-06
-5.46923e-06
1.28579e-06
-5.4555e-06
1.07214e-06
-5.4435e-06
8.36788e-07
-5.43594e-06
5.69048e-07
-5.43512e-06
2.57726e-07
-5.44259e-06
-1.08681e-07
-5.45862e-06
-5.41725e-07
-5.48141e-06
-1.05254e-06
-5.50595e-06
-1.65105e-06
-5.52256e-06
-2.34457e-06
-5.51525e-06
-3.13551e-06
-5.4601e-06
-4.01757e-06
-5.32442e-06
-4.9699e-06
-5.06782e-06
-5.94872e-06
-4.64715e-06
-6.87653e-06
-4.0276e-06
-7.63069e-06
-3.20192e-06
-8.03616e-06
-2.2168e-06
-7.87124e-06
-1.19933e-06
-6.89818e-06
-3.67321e-07
-4.92889e-06
-1.92724e-06
-2.62286e-07
1.47837e-06
-8.38718e-07
3.62422e-06
-1.53796e-06
4.9632e-06
-2.22886e-06
5.64044e-06
-2.83974e-06
5.8392e-06
-3.34122e-06
5.72135e-06
-3.72955e-06
5.41226e-06
-4.01438e-06
5.00193e-06
-4.21091e-06
4.55104e-06
-4.33543e-06
4.09828e-06
-4.40308e-06
3.66668e-06
-4.42692e-06
3.26858e-06
-4.4178e-06
2.90912e-06
-4.38447e-06
2.58872e-06
-4.33395e-06
2.30467e-06
-4.27193e-06
2.05219e-06
-4.2031e-06
1.82508e-06
-4.13151e-06
1.61608e-06
-4.06085e-06
1.41717e-06
-3.99469e-06
1.21963e-06
-3.93666e-06
1.01411e-06
-3.89056e-06
7.90686e-07
-3.86035e-06
5.38837e-07
-3.85007e-06
2.47448e-07
-3.86357e-06
-9.51837e-08
-3.90399e-06
-5.01301e-07
-3.973e-06
-9.83531e-07
-4.06955e-06
-1.5545e-06
-4.18814e-06
-2.22597e-06
-4.31658e-06
-3.00707e-06
-4.43316e-06
-3.90099e-06
-4.504e-06
-4.89907e-06
-4.48147e-06
-5.97126e-06
-4.30622e-06
-7.05177e-06
-3.91647e-06
-8.02044e-06
-3.26909e-06
-8.68355e-06
-2.37538e-06
-8.76495e-06
-1.34724e-06
-7.92632e-06
-4.32967e-07
-5.84317e-06
-2.36021e-06
-3.16554e-07
1.79492e-06
-9.62451e-07
4.27011e-06
-1.68417e-06
5.68492e-06
-2.33139e-06
6.28766e-06
-2.83961e-06
6.34742e-06
-3.19651e-06
6.07824e-06
-3.41613e-06
5.63188e-06
-3.52277e-06
5.10856e-06
-3.54217e-06
4.57044e-06
-3.49745e-06
4.05356e-06
-3.40764e-06
3.57687e-06
-3.28765e-06
3.14859e-06
-3.14878e-06
2.77025e-06
-2.99942e-06
2.43936e-06
-2.84579e-06
2.15104e-06
-2.69257e-06
1.89897e-06
-2.54346e-06
1.67597e-06
-2.40164e-06
1.47427e-06
-2.27017e-06
1.2857e-06
-2.15223e-06
1.10169e-06
-2.05144e-06
9.13314e-07
-1.97193e-06
7.11181e-07
-1.9185e-06
4.85405e-07
-1.89653e-06
2.2548e-07
-1.91186e-06
-7.98516e-08
-1.97041e-06
-4.42751e-07
-2.07752e-06
-8.76429e-07
-2.23682e-06
-1.3952e-06
-2.44854e-06
-2.01425e-06
-2.70687e-06
-2.74874e-06
-2.99636e-06
-3.6115e-06
-3.28727e-06
-4.60815e-06
-3.53084e-06
-5.72769e-06
-3.65654e-06
-6.92607e-06
-3.57612e-06
-8.10086e-06
-3.20211e-06
-9.05756e-06
-2.49016e-06
-9.47689e-06
-1.50879e-06
-8.90769e-06
-5.19054e-07
-6.8329e-06
-2.87926e-06
-4.0287e-07
2.19779e-06
-1.13358e-06
5.00082e-06
-1.85039e-06
6.40172e-06
-2.39372e-06
6.83098e-06
-2.72439e-06
6.6781e-06
-2.86166e-06
6.21551e-06
-2.84596e-06
5.61619e-06
-2.72003e-06
4.98264e-06
-2.52078e-06
4.37119e-06
-2.27705e-06
3.80982e-06
-2.00999e-06
3.30981e-06
-1.7344e-06
2.873e-06
-1.46024e-06
2.49608e-06
-1.19396e-06
2.17308e-06
-9.39654e-07
1.89674e-06
-6.99959e-07
1.65928e-06
-4.76713e-07
1.45272e-06
-2.71521e-07
1.26908e-06
-8.61675e-08
1.10034e-06
7.70581e-08
9.38468e-07
2.15105e-07
7.75266e-07
3.23971e-07
6.02315e-07
3.98571e-07
4.10805e-07
4.32676e-07
1.91374e-07
4.18953e-07
-6.61284e-08
3.49142e-07
-3.7294e-07
2.14474e-07
-7.41761e-07
6.46151e-09
-1.18719e-06
-2.8167e-07
-1.72612e-06
-6.5257e-07
-2.37784e-06
-1.10086e-06
-3.16321e-06
-1.60724e-06
-4.10177e-06
-2.13063e-06
-5.2043e-06
-2.59939e-06
-6.45731e-06
-2.90636e-06
-7.79389e-06
-2.9177e-06
-9.04622e-06
-2.51295e-06
-9.88165e-06
-1.6755e-06
-9.74515e-06
-6.35801e-07
-7.87259e-06
-3.51506e-06
-5.43317e-07
2.74111e-06
-1.36478e-06
5.82229e-06
-2.00969e-06
7.04664e-06
-2.34329e-06
7.16458e-06
-2.38518e-06
6.71999e-06
-2.20548e-06
6.0358e-06
-1.87874e-06
5.28945e-06
-1.46674e-06
4.57064e-06
-1.01477e-06
3.91922e-06
-5.53484e-07
3.34854e-06
-1.02301e-07
2.85863e-06
3.27402e-07
2.4433e-06
7.29666e-07
2.09382e-06
1.10199e-06
1.80076e-06
1.44389e-06
1.55484e-06
1.75591e-06
1.34725e-06
2.03888e-06
1.16975e-06
2.2934e-06
1.01456e-06
2.51943e-06
8.74311e-07
2.71603e-06
7.41863e-07
2.88112e-06
6.10178e-07
3.01127e-06
4.7216e-07
3.10159e-06
3.20487e-07
3.14557e-06
1.47397e-07
3.13502e-06
-5.55735e-08
3.06003e-06
-2.97959e-07
2.90914e-06
-5.90864e-07
2.66959e-06
-9.47638e-07
2.32821e-06
-1.38475e-06
1.87311e-06
-1.92274e-06
1.29692e-06
-2.58702e-06
6.02676e-07
-3.40752e-06
-1.86472e-07
-4.41515e-06
-1.01303e-06
-5.63076e-06
-1.76848e-06
-7.03844e-06
-2.28381e-06
-8.53089e-06
-2.35108e-06
-9.81438e-06
-1.81657e-06
-1.02797e-05
-7.94986e-07
-8.89418e-06
-4.31005e-06
-7.65102e-07
3.50621e-06
-1.63751e-06
6.69469e-06
-2.05811e-06
7.46724e-06
-2.00268e-06
7.10915e-06
-1.60152e-06
6.31882e-06
-9.93074e-07
5.42736e-06
-2.85508e-07
4.58188e-06
4.48085e-07
3.83705e-06
1.16321e-06
3.2041e-06
1.83545e-06
2.6763e-06
2.45344e-06
2.24064e-06
3.01376e-06
1.88298e-06
3.51758e-06
1.59e-06
3.96843e-06
1.34991e-06
4.37079e-06
1.15248e-06
4.72919e-06
9.88855e-07
5.04763e-06
8.5131e-07
5.3292e-06
7.32987e-07
5.57585e-06
6.27667e-07
5.78814e-06
5.29566e-07
5.96517e-06
4.33149e-07
6.10437e-06
3.32963e-07
6.20139e-06
2.23461e-07
6.24998e-06
9.88087e-08
6.24178e-06
-4.73718e-08
6.16617e-06
-2.22343e-07
6.01005e-06
-4.34752e-07
5.75778e-06
-6.95359e-07
5.39112e-06
-1.01809e-06
4.8899e-06
-1.42152e-06
4.23367e-06
-1.9308e-06
3.4059e-06
-2.57975e-06
2.40275e-06
-3.412e-06
1.24958e-06
-4.47759e-06
2.7975e-08
-5.81683e-06
-1.09033e-06
-7.41258e-06
-1.82453e-06
-9.08019e-06
-1.83867e-06
-1.02655e-05
-9.94789e-07
-9.73805e-06
-5.30484e-06
-1.07141e-06
4.57762e-06
-1.80886e-06
7.43213e-06
-1.69234e-06
7.35072e-06
-9.77363e-07
6.39417e-06
4.28852e-08
5.29857e-06
1.16843e-06
4.30181e-06
2.28084e-06
3.46947e-06
3.31869e-06
2.7992e-06
4.25594e-06
2.26684e-06
5.08657e-06
1.84567e-06
5.81487e-06
1.51235e-06
6.44992e-06
1.24793e-06
7.0025e-06
1.03742e-06
7.48336e-06
8.69052e-07
7.90235e-06
7.33487e-07
8.26799e-06
6.23217e-07
8.58723e-06
5.32068e-07
8.86538e-06
4.54833e-07
9.10606e-06
3.86985e-07
9.31117e-06
3.24461e-07
9.48084e-06
2.63481e-07
9.61339e-06
2.00406e-07
9.70526e-06
1.31591e-07
9.75084e-06
5.32345e-08
9.74227e-06
-3.88094e-08
9.66922e-06
-1.49292e-07
9.51843e-06
-2.83959e-07
9.27321e-06
-4.50142e-07
8.91281e-06
-6.57689e-07
8.41171e-06
-9.20421e-07
7.73931e-06
-1.25839e-06
6.86085e-06
-1.70129e-06
5.74192e-06
-2.29306e-06
4.36111e-06
-3.09678e-06
2.73899e-06
-4.19472e-06
9.92227e-07
-5.66581e-06
-5.90299e-07
-7.49766e-06
-1.49661e-06
-9.35921e-06
-1.16861e-06
-1.00661e-05
-6.47345e-06
-1.3253e-06
5.90293e-06
-1.34269e-06
7.44952e-06
-1.39306e-07
6.14734e-06
1.5366e-06
4.71827e-06
3.26768e-06
3.5675e-06
4.87353e-06
2.69596e-06
6.28872e-06
2.05428e-06
7.50329e-06
1.58463e-06
8.53199e-06
1.23815e-06
9.39828e-06
9.79386e-07
1.01269e-05
7.83771e-07
1.07405e-05
6.34231e-07
1.12592e-05
5.18756e-07
1.16995e-05
4.28727e-07
1.20752e-05
3.57809e-07
1.23972e-05
3.01206e-07
1.26741e-05
2.55174e-07
1.29123e-05
2.16685e-07
1.3116e-05
1.83206e-07
1.3288e-05
1.52526e-07
1.34288e-05
1.22642e-07
1.35376e-05
9.16624e-08
1.36114e-05
5.77168e-08
1.36458e-05
1.8874e-08
1.3634e-05
-2.69648e-08
1.35669e-05
-8.22115e-08
1.34327e-05
-1.4981e-07
1.32162e-05
-2.33583e-07
1.28973e-05
-3.38807e-07
1.245e-05
-4.73181e-07
1.18401e-05
-6.48491e-07
1.10224e-05
-8.83551e-07
9.93871e-06
-1.20937e-06
8.51993e-06
-1.678e-06
6.70114e-06
-2.37593e-06
4.47098e-06
-3.43565e-06
1.988e-06
-5.01468e-06
-2.11454e-07
-7.15975e-06
-1.06049e-06
-9.21702e-06
-7.53394e-06
-6.51485e-07
6.55441e-06
1.50399e-06
5.29404e-06
4.37368e-06
3.27765e-06
6.97993e-06
2.11202e-06
9.13484e-06
1.41259e-06
1.08629e-05
9.679e-07
1.2235e-05
6.82148e-07
1.33242e-05
4.95428e-07
1.41927e-05
3.69646e-07
1.489e-05
2.82144e-07
1.54542e-05
2.19564e-07
1.59146e-05
1.7378e-07
1.62937e-05
1.39657e-07
1.66086e-05
1.13823e-07
1.68725e-05
9.39678e-08
1.70952e-05
7.84436e-08
1.72844e-05
6.6021e-08
1.74453e-05
5.57429e-08
1.75817e-05
4.68306e-08
1.76956e-05
3.86211e-08
1.77877e-05
3.05241e-08
1.78574e-05
2.19885e-08
1.79026e-05
1.24759e-08
1.79201e-05
1.43299e-09
1.79049e-05
-1.17394e-08
1.78504e-05
-2.77304e-08
1.7748e-05
-4.73858e-08
1.75862e-05
-7.18165e-08
1.735e-05
-1.02585e-07
1.70188e-05
-1.42034e-07
1.65642e-05
-1.93904e-07
1.59452e-05
-2.64548e-07
1.51013e-05
-3.65447e-07
1.3942e-05
-5.18662e-07
1.23346e-05
-7.68586e-07
1.01053e-05
-1.20632e-06
7.10435e-06
-2.01374e-06
3.4552e-06
-3.5106e-06
2.29505e-07
-5.99133e-06
-7.30443e-06
6.55441e-06
1.18485e-05
1.51261e-05
1.72381e-05
1.86507e-05
1.96186e-05
2.03008e-05
2.07962e-05
2.11658e-05
2.1448e-05
2.16675e-05
2.18413e-05
2.1981e-05
2.20948e-05
2.21888e-05
2.22672e-05
2.23332e-05
2.2389e-05
2.24358e-05
2.24744e-05
2.2505e-05
2.25269e-05
2.25394e-05
2.25409e-05
2.25291e-05
2.25014e-05
2.2454e-05
2.23822e-05
2.22796e-05
2.21376e-05
2.19437e-05
2.16791e-05
2.13137e-05
2.0795e-05
2.00264e-05
1.88201e-05
1.68064e-05
1.32958e-05
7.30443e-06
)
;

boundaryField
{
    movingWall
    {
        type            calculated;
        value           uniform 0;
    }
    fixedWalls
    {
        type            calculated;
        value           uniform 0;
    }
    frontAndBack
    {
        type            empty;
        value           nonuniform 0();
    }
}


// ************************************************************************* //
