1.45 	0 	0 	-0.00399515 	-0.00287227 	3.95854e-21
2.35 	0 	0 	0.0744949 	-0.00704893 	2.42195e-21
