/*--------------------------------*- C++ -*----------------------------------*\
  =========                 |
  \\      /  F ield         | OpenFOAM: The Open Source CFD Toolbox
   \\    /   O peration     | Website:  https://openfoam.org
    \\  /    A nd           | Version:  6.0
     \\/     M anipulation  |
\*---------------------------------------------------------------------------*/
FoamFile
{
    version     2.0;
    format      ascii;
    class       volScalarField;
    location    "0.2";
    object      p;
}
// * * * * * * * * * * * * * * * * * * * * * * * * * * * * * * * * * * * * * //

dimensions      [0 2 -2 0 0 0 0];

internalField   nonuniform List<scalar> 
200
(
-1.1789e-10
-0.000421277
-0.000822806
-0.00115766
-0.00144935
-0.00167758
-0.00179362
-0.00173235
-0.00140964
-0.000711984
0.000518906
0.00250266
0.0055316
0.00995863
0.0160979
0.0239053
0.0324015
0.0393269
0.0421447
0.0408956
0.000437809
-7.18122e-06
-0.000352244
-0.000658529
-0.000962907
-0.00122279
-0.00137774
-0.00136067
-0.00109225
-0.000472462
0.000630622
0.00239387
0.0050575
0.00895404
0.0144945
0.0219007
0.0304856
0.037962
0.0412415
0.039689
0.000733336
0.000183155
-0.00017036
-0.000493203
-0.000848861
-0.00118202
-0.00142708
-0.00152152
-0.00140097
-0.000994057
-0.000214718
0.00105023
0.00297238
0.00587198
0.0103578
0.017211
0.0264418
0.0357485
0.0406795
0.0392275
0.00054557
-0.000107994
-0.000487373
-0.000844834
-0.00126504
-0.00168351
-0.00203499
-0.00226826
-0.00234437
-0.0022379
-0.00193643
-0.00143481
-0.000704042
0.000453115
0.00277699
0.00784437
0.0170978
0.0290887
0.0381373
0.0397806
-0.000371031
-0.00108952
-0.00144859
-0.00180011
-0.00225076
-0.00272373
-0.00315419
-0.00350486
-0.00376892
-0.00398165
-0.00423483
-0.00469232
-0.00558492
-0.00703284
-0.00837796
-0.00723247
-5.27426e-05
0.0141375
0.0302897
0.0404869
-0.00228049
-0.00298334
-0.00317678
-0.00340043
-0.00379285
-0.00424631
-0.0046858
-0.00508187
-0.00545794
-0.00591527
-0.00666941
-0.00809613
-0.0107556
-0.0151771
-0.0209318
-0.025065
-0.0219864
-0.00726876
0.0170076
0.0402707
-0.00563638
-0.00608158
-0.00572158
-0.00557285
-0.00576693
-0.0060952
-0.00644303
-0.00677246
-0.00712574
-0.00765914
-0.0087013
-0.0108175
-0.0148274
-0.0214934
-0.0304432
-0.0383063
-0.0381552
-0.0226489
0.00960084
0.0477303
-0.0114647
-0.0107111
-0.00886525
-0.00801623
-0.00783039
-0.00789836
-0.00804165
-0.00819932
-0.00842041
-0.00889064
-0.0100071
-0.0124192
-0.0170017
-0.0243565
-0.0336959
-0.040875
-0.0378425
-0.0150831
0.0311429
0.0896807
-0.0220382
-0.0172731
-0.0121099
-0.00944828
-0.00855395
-0.00828945
-0.00823916
-0.00829764
-0.00850105
-0.00902788
-0.0102948
-0.0129026
-0.0175605
-0.0243227
-0.0315443
-0.0336879
-0.0208676
0.0196468
0.0940373
0.190148
-0.0591897
-0.0204355
-0.00667186
-0.00435407
-0.00431229
-0.00451438
-0.00486642
-0.00536378
-0.00602786
-0.00701851
-0.00876517
-0.0117854
-0.0165891
-0.0226791
-0.0276635
-0.0246614
-0.00175026
0.0590792
0.170185
0.320337
)
;

boundaryField
{
    movingWall
    {
        type            zeroGradient;
    }
    fixedWalls
    {
        type            zeroGradient;
    }
    frontAndBack
    {
        type            empty;
    }
}


// ************************************************************************* //
