1.45 	0 	0 	-0.00565528 	-0.00273785 	3.93172e-21
2.35 	0 	0 	0.0686704 	-0.0068431 	2.44661e-21
