1.45 	0 	0 	-0.00813532 	-0.0025855 	1.65342e-20
2.35 	0 	0 	0.0621193 	-0.00662724 	9.88731e-21
