/*--------------------------------*- C++ -*----------------------------------*\
  =========                 |
  \\      /  F ield         | OpenFOAM: The Open Source CFD Toolbox
   \\    /   O peration     | Website:  https://openfoam.org
    \\  /    A nd           | Version:  6.0
     \\/     M anipulation  |
\*---------------------------------------------------------------------------*/
FoamFile
{
    version     2.0;
    format      ascii;
    class       volScalarField;
    location    "6.8";
    object      p;
}
// * * * * * * * * * * * * * * * * * * * * * * * * * * * * * * * * * * * * * //

dimensions      [0 2 -2 0 0 0 0];

internalField   nonuniform List<scalar> 
34500
(
1.00576
1.00582
1.00568
1.00537
1.00491
1.00435
1.00375
1.00314
1.00255
1.00199
1.00148
1.00105
1.00067
1.00041
1.00025
1.00577
1.00585
1.00577
1.00553
1.00516
1.00467
1.00413
1.00355
1.00296
1.00238
1.00183
1.00133
1.00087
1.00055
1.00033
1.00577
1.00584
1.00574
1.00548
1.00507
1.00455
1.00398
1.00338
1.00278
1.0022
1.00167
1.00119
1.00077
1.00049
1.00028
1.00577
1.00584
1.00572
1.00543
1.00501
1.00447
1.00388
1.00326
1.00266
1.0021
1.00157
1.00112
1.00073
1.00048
1.00029
1.00578
1.00585
1.00573
1.00546
1.00504
1.00452
1.00393
1.00333
1.00273
1.00216
1.00163
1.00118
1.00078
1.00052
1.00032
1.00579
1.00586
1.00575
1.00549
1.00509
1.00458
1.00401
1.00341
1.00281
1.00224
1.0017
1.00123
1.00081
1.00054
1.00033
1.00579
1.00587
1.00576
1.00551
1.00511
1.0046
1.00404
1.00344
1.00284
1.00226
1.00172
1.00124
1.00082
1.00054
1.00032
1.0058
1.00588
1.00577
1.00551
1.00511
1.00461
1.00405
1.00345
1.00285
1.00226
1.00172
1.00124
1.00081
1.00053
1.00031
1.00581
1.00589
1.00578
1.00552
1.00512
1.00462
1.00405
1.00345
1.00285
1.00227
1.00172
1.00123
1.00081
1.00052
1.00031
1.00583
1.0059
1.00579
1.00553
1.00513
1.00463
1.00406
1.00347
1.00286
1.00228
1.00172
1.00124
1.00081
1.00052
1.00031
1.00584
1.00591
1.00581
1.00555
1.00515
1.00465
1.00408
1.00348
1.00288
1.00229
1.00173
1.00124
1.00081
1.00052
1.0003
1.00586
1.00593
1.00583
1.00557
1.00518
1.00467
1.00411
1.0035
1.0029
1.00231
1.00175
1.00126
1.00082
1.00053
1.0003
1.00587
1.00595
1.00585
1.0056
1.0052
1.0047
1.00414
1.00354
1.00292
1.00233
1.00177
1.00127
1.00084
1.00053
1.0003
1.00589
1.00597
1.00587
1.00562
1.00523
1.00474
1.00417
1.00357
1.00296
1.00236
1.00179
1.00129
1.00085
1.00053
1.00029
1.00591
1.00599
1.00589
1.00565
1.00527
1.00477
1.00421
1.0036
1.00299
1.00239
1.00181
1.0013
1.00085
1.00052
1.00027
1.00593
1.00601
1.00592
1.00568
1.00529
1.0048
1.00424
1.00364
1.00302
1.00241
1.00183
1.00131
1.00085
1.00051
1.00026
1.00595
1.00603
1.00594
1.0057
1.00532
1.00483
1.00427
1.00366
1.00304
1.00243
1.00184
1.00132
1.00085
1.00051
1.00025
1.00597
1.00606
1.00597
1.00573
1.00535
1.00486
1.0043
1.00369
1.00306
1.00244
1.00185
1.00132
1.00085
1.0005
1.00023
1.006
1.00608
1.00599
1.00575
1.00538
1.00489
1.00432
1.00371
1.00307
1.00245
1.00186
1.00132
1.00085
1.00049
1.00022
1.00602
1.00611
1.00602
1.00578
1.0054
1.00491
1.00434
1.00373
1.00309
1.00247
1.00186
1.00132
1.00084
1.00048
1.0002
1.00605
1.00614
1.00605
1.00581
1.00543
1.00494
1.00437
1.00375
1.00311
1.00248
1.00188
1.00133
1.00084
1.00047
1.00018
1.00608
1.00617
1.00608
1.00585
1.00547
1.00497
1.0044
1.00378
1.00314
1.0025
1.00189
1.00134
1.00084
1.00046
1.00017
1.00611
1.0062
1.00611
1.00588
1.0055
1.00501
1.00444
1.00381
1.00316
1.00252
1.0019
1.00134
1.00084
1.00045
1.00015
1.00614
1.00623
1.00615
1.00592
1.00554
1.00505
1.00447
1.00384
1.00319
1.00254
1.00192
1.00135
1.00084
1.00044
1.00013
1.00617
1.00627
1.00618
1.00595
1.00558
1.00508
1.00451
1.00388
1.00322
1.00256
1.00193
1.00135
1.00084
1.00043
1.00011
1.0062
1.0063
1.00622
1.00599
1.00562
1.00512
1.00454
1.00391
1.00324
1.00258
1.00194
1.00135
1.00083
1.00041
1.00009
1.00624
1.00634
1.00626
1.00603
1.00565
1.00516
1.00458
1.00394
1.00326
1.00259
1.00194
1.00135
1.00082
1.0004
1.00007
1.00628
1.00638
1.0063
1.00607
1.00569
1.0052
1.00461
1.00396
1.00329
1.00261
1.00195
1.00135
1.00081
1.00038
1.00004
1.00631
1.00642
1.00634
1.00611
1.00573
1.00523
1.00464
1.00399
1.00331
1.00262
1.00196
1.00135
1.00081
1.00036
1.00002
1.00635
1.00646
1.00638
1.00615
1.00577
1.00527
1.00468
1.00402
1.00333
1.00264
1.00197
1.00135
1.0008
1.00035
0.999996
1.00639
1.0065
1.00642
1.0062
1.00582
1.00531
1.00471
1.00405
1.00335
1.00265
1.00197
1.00135
1.00079
1.00033
0.999971
1.00644
1.00654
1.00647
1.00624
1.00586
1.00535
1.00475
1.00408
1.00338
1.00267
1.00198
1.00135
1.00078
1.00031
0.999945
1.00648
1.00659
1.00652
1.00629
1.0059
1.00539
1.00479
1.00411
1.0034
1.00269
1.00199
1.00135
1.00077
1.00029
0.999918
1.00652
1.00664
1.00656
1.00634
1.00595
1.00544
1.00483
1.00415
1.00343
1.0027
1.002
1.00135
1.00076
1.00027
0.99989
1.00657
1.00669
1.00661
1.00638
1.006
1.00548
1.00486
1.00418
1.00345
1.00272
1.002
1.00134
1.00075
1.00025
0.999861
1.00662
1.00674
1.00666
1.00643
1.00605
1.00553
1.0049
1.00421
1.00348
1.00274
1.00201
1.00134
1.00073
1.00023
0.999831
1.00667
1.00679
1.00671
1.00649
1.00609
1.00557
1.00494
1.00425
1.0035
1.00275
1.00201
1.00133
1.00072
1.0002
0.9998
1.00672
1.00684
1.00677
1.00654
1.00615
1.00562
1.00499
1.00428
1.00353
1.00277
1.00202
1.00133
1.0007
1.00018
0.999769
1.00677
1.00689
1.00682
1.00659
1.0062
1.00566
1.00503
1.00431
1.00355
1.00278
1.00202
1.00132
1.00069
1.00016
0.999736
1.00682
1.00695
1.00688
1.00665
1.00625
1.00571
1.00507
1.00435
1.00358
1.0028
1.00203
1.00132
1.00067
1.00013
0.999703
1.00688
1.00701
1.00694
1.00671
1.00631
1.00576
1.00511
1.00438
1.0036
1.00281
1.00203
1.00131
1.00065
1.0001
0.999667
1.00694
1.00707
1.007
1.00677
1.00636
1.00582
1.00516
1.00442
1.00363
1.00283
1.00204
1.0013
1.00064
1.00008
0.999631
1.007
1.00713
1.00706
1.00683
1.00642
1.00587
1.00521
1.00446
1.00366
1.00284
1.00204
1.00129
1.00062
1.00005
0.999594
1.00706
1.00719
1.00712
1.00689
1.00648
1.00592
1.00525
1.0045
1.00368
1.00286
1.00204
1.00128
1.0006
1.00002
0.999556
1.00712
1.00725
1.00719
1.00695
1.00654
1.00598
1.0053
1.00453
1.00371
1.00287
1.00205
1.00127
1.00057
0.999985
0.999516
1.00718
1.00732
1.00725
1.00702
1.0066
1.00603
1.00535
1.00457
1.00374
1.00289
1.00205
1.00126
1.00055
0.999952
0.999475
1.00725
1.00739
1.00732
1.00708
1.00666
1.00609
1.00539
1.00461
1.00376
1.0029
1.00205
1.00125
1.00053
0.999918
0.999433
1.00731
1.00745
1.00739
1.00715
1.00672
1.00614
1.00544
1.00465
1.00379
1.00291
1.00205
1.00124
1.0005
0.999884
0.99939
1.00738
1.00752
1.00746
1.00722
1.00679
1.0062
1.00549
1.00468
1.00382
1.00293
1.00205
1.00123
1.00048
0.999848
0.999345
1.00745
1.0076
1.00753
1.00729
1.00685
1.00626
1.00554
1.00472
1.00384
1.00294
1.00205
1.00121
1.00045
0.999812
0.9993
1.00752
1.00767
1.0076
1.00736
1.00692
1.00632
1.00559
1.00476
1.00387
1.00295
1.00205
1.0012
1.00043
0.999773
0.999252
1.0076
1.00775
1.00768
1.00743
1.00699
1.00638
1.00565
1.00481
1.0039
1.00297
1.00205
1.00119
1.0004
0.999734
0.999204
1.00767
1.00782
1.00776
1.00751
1.00706
1.00645
1.0057
1.00485
1.00393
1.00298
1.00205
1.00117
1.00037
0.999693
0.999153
1.00775
1.0079
1.00784
1.00758
1.00713
1.00651
1.00575
1.00489
1.00396
1.003
1.00205
1.00115
1.00034
0.999651
0.999102
1.00783
1.00798
1.00792
1.00766
1.00721
1.00658
1.00581
1.00493
1.00399
1.00301
1.00204
1.00114
1.00031
0.999608
0.999049
1.00791
1.00807
1.008
1.00774
1.00728
1.00665
1.00587
1.00498
1.00402
1.00302
1.00204
1.00112
1.00028
0.999563
0.998994
1.00799
1.00815
1.00808
1.00783
1.00736
1.00672
1.00593
1.00502
1.00404
1.00304
1.00204
1.0011
1.00024
0.999516
0.998938
1.00807
1.00824
1.00817
1.00791
1.00744
1.00679
1.00598
1.00507
1.00407
1.00305
1.00204
1.00108
1.00021
0.999469
0.99888
1.00816
1.00833
1.00826
1.008
1.00752
1.00686
1.00604
1.00511
1.0041
1.00306
1.00203
1.00106
1.00017
0.99942
0.99882
1.00825
1.00842
1.00835
1.00809
1.0076
1.00693
1.00611
1.00516
1.00414
1.00308
1.00203
1.00104
1.00013
0.999369
0.99876
1.00834
1.00851
1.00844
1.00817
1.00768
1.007
1.00617
1.00521
1.00417
1.00309
1.00202
1.00101
1.00009
0.999317
0.998696
1.00843
1.00861
1.00854
1.00827
1.00777
1.00708
1.00623
1.00526
1.0042
1.0031
1.00202
1.00099
1.00005
0.999264
0.998632
1.00853
1.0087
1.00863
1.00836
1.00786
1.00716
1.0063
1.0053
1.00423
1.00312
1.00201
1.00097
1.00001
0.999208
0.998565
1.00862
1.0088
1.00873
1.00846
1.00794
1.00724
1.00636
1.00535
1.00426
1.00313
1.002
1.00094
0.999971
0.999152
0.998497
1.00872
1.0089
1.00883
1.00855
1.00803
1.00732
1.00643
1.0054
1.00429
1.00314
1.00199
1.00091
0.999926
0.999093
0.998427
1.00882
1.00901
1.00894
1.00865
1.00813
1.0074
1.0065
1.00546
1.00432
1.00315
1.00199
1.00089
0.999881
0.999033
0.998355
1.00892
1.00911
1.00904
1.00875
1.00822
1.00748
1.00656
1.00551
1.00436
1.00316
1.00198
1.00086
0.999834
0.99897
0.99828
1.00903
1.00922
1.00915
1.00886
1.00832
1.00757
1.00664
1.00556
1.00439
1.00318
1.00197
1.00083
0.999786
0.998907
0.998205
1.00913
1.00933
1.00926
1.00896
1.00842
1.00765
1.00671
1.00561
1.00442
1.00319
1.00196
1.0008
0.999736
0.998841
0.998126
1.00924
1.00944
1.00937
1.00907
1.00852
1.00774
1.00678
1.00567
1.00446
1.0032
1.00195
1.00077
0.999685
0.998774
0.998046
1.00936
1.00956
1.00948
1.00918
1.00862
1.00783
1.00685
1.00572
1.00449
1.00321
1.00194
1.00073
0.999632
0.998704
0.997963
1.00947
1.00967
1.0096
1.00929
1.00872
1.00792
1.00693
1.00578
1.00452
1.00322
1.00192
1.0007
0.999578
0.998633
0.997879
1.00958
1.00979
1.00972
1.00941
1.00883
1.00802
1.00701
1.00584
1.00456
1.00323
1.00191
1.00066
0.999521
0.99856
0.997792
1.0097
1.00991
1.00984
1.00953
1.00894
1.00811
1.00708
1.00589
1.00459
1.00324
1.0019
1.00063
0.999464
0.998484
0.997703
1.00982
1.01004
1.00996
1.00964
1.00905
1.00821
1.00716
1.00595
1.00463
1.00325
1.00188
1.00059
0.999404
0.998407
0.997611
1.00995
1.01016
1.01009
1.00977
1.00916
1.00831
1.00724
1.00601
1.00466
1.00326
1.00187
1.00055
0.999343
0.998328
0.997517
1.01007
1.01029
1.01021
1.00989
1.00927
1.00841
1.00733
1.00607
1.0047
1.00327
1.00185
1.00051
0.99928
0.998246
0.99742
1.0102
1.01043
1.01035
1.01002
1.00939
1.00851
1.00741
1.00613
1.00474
1.00328
1.00184
1.00047
0.999215
0.998162
0.997322
1.01033
1.01056
1.01048
1.01015
1.00951
1.00861
1.00749
1.0062
1.00477
1.00329
1.00182
1.00042
0.999148
0.998076
0.99722
1.01046
1.0107
1.01062
1.01028
1.00963
1.00872
1.00758
1.00626
1.00481
1.0033
1.0018
1.00038
0.99908
0.997988
0.997116
1.0106
1.01084
1.01075
1.01041
1.00975
1.00883
1.00767
1.00632
1.00485
1.00331
1.00178
1.00033
0.999009
0.997897
0.997009
1.01074
1.01098
1.0109
1.01055
1.00988
1.00894
1.00776
1.00639
1.00489
1.00332
1.00176
1.00028
0.998937
0.997804
0.9969
1.01088
1.01113
1.01104
1.01069
1.01001
1.00905
1.00785
1.00646
1.00492
1.00333
1.00174
1.00023
0.998861
0.997708
0.996787
1.01102
1.01127
1.01119
1.01083
1.01014
1.00917
1.00795
1.00652
1.00496
1.00334
1.00172
1.00018
0.998785
0.99761
0.996672
1.01117
1.01143
1.01134
1.01098
1.01027
1.00928
1.00804
1.00659
1.005
1.00334
1.00169
1.00013
0.998705
0.997508
0.996554
1.01132
1.01158
1.01149
1.01113
1.01041
1.0094
1.00814
1.00666
1.00504
1.00335
1.00167
1.00008
0.998624
0.997405
0.996433
1.01147
1.01174
1.01165
1.01128
1.01055
1.00953
1.00823
1.00673
1.00508
1.00336
1.00164
1.00002
0.99854
0.997298
0.996308
1.01163
1.0119
1.01181
1.01143
1.01069
1.00965
1.00834
1.0068
1.00512
1.00336
1.00162
0.999961
0.998455
0.99719
0.996181
1.01179
1.01206
1.01197
1.01159
1.01083
1.00977
1.00844
1.00688
1.00516
1.00337
1.00159
0.999901
0.998366
0.997077
0.996051
1.01195
1.01223
1.01214
1.01175
1.01098
1.0099
1.00854
1.00695
1.0052
1.00338
1.00156
0.99984
0.998275
0.996963
0.995917
1.01212
1.0124
1.01231
1.01191
1.01113
1.01003
1.00864
1.00702
1.00524
1.00338
1.00153
0.999776
0.998182
0.996845
0.99578
1.01229
1.01257
1.01248
1.01208
1.01128
1.01017
1.00875
1.0071
1.00528
1.00339
1.0015
0.99971
0.998086
0.996724
0.995639
1.01246
1.01275
1.01265
1.01225
1.01144
1.0103
1.00886
1.00718
1.00532
1.00339
1.00146
0.999642
0.997987
0.9966
0.995495
1.01263
1.01293
1.01283
1.01242
1.0116
1.01044
1.00897
1.00725
1.00536
1.00339
1.00143
0.999573
0.997887
0.996473
0.995348
1.01281
1.01312
1.01302
1.0126
1.01176
1.01058
1.00908
1.00733
1.0054
1.0034
1.00139
0.999501
0.997782
0.996342
0.995196
1.013
1.0133
1.0132
1.01278
1.01193
1.01073
1.0092
1.00741
1.00545
1.0034
1.00136
0.999427
0.997676
0.996209
0.995042
1.01318
1.01349
1.01339
1.01296
1.0121
1.01087
1.00932
1.0075
1.00549
1.0034
1.00132
0.99935
0.997566
0.996071
0.994883
1.01337
1.01369
1.01359
1.01315
1.01227
1.01102
1.00943
1.00758
1.00553
1.0034
1.00128
0.999272
0.997453
0.995931
0.994721
1.01356
1.01389
1.01378
1.01334
1.01244
1.01117
1.00956
1.00766
1.00557
1.0034
1.00123
0.999191
0.997337
0.995786
0.994554
1.01376
1.01409
1.01399
1.01353
1.01262
1.01133
1.00968
1.00775
1.00562
1.0034
1.00119
0.999107
0.997218
0.995638
0.994383
1.01396
1.0143
1.01419
1.01373
1.0128
1.01148
1.0098
1.00783
1.00566
1.0034
1.00115
0.999021
0.997096
0.995486
0.994208
1.01416
1.01451
1.0144
1.01393
1.01299
1.01165
1.00993
1.00792
1.0057
1.0034
1.0011
0.998932
0.99697
0.995331
0.994029
1.01437
1.01472
1.01461
1.01414
1.01318
1.01181
1.01006
1.00801
1.00575
1.00339
1.00105
0.99884
0.996841
0.995171
0.993846
1.01459
1.01494
1.01483
1.01435
1.01337
1.01198
1.01019
1.0081
1.00579
1.00339
1.001
0.998746
0.996709
0.995008
0.993658
1.0148
1.01517
1.01506
1.01456
1.01357
1.01214
1.01033
1.00819
1.00584
1.00338
1.00094
0.998649
0.996573
0.99484
0.993466
1.01502
1.0154
1.01528
1.01478
1.01377
1.01232
1.01046
1.00828
1.00588
1.00338
1.00089
0.998549
0.996433
0.994668
0.993269
1.01525
1.01563
1.01551
1.015
1.01397
1.01249
1.0106
1.00838
1.00592
1.00337
1.00083
0.998445
0.996289
0.994492
0.993067
1.01548
1.01586
1.01575
1.01523
1.01418
1.01267
1.01074
1.00847
1.00597
1.00336
1.00077
0.998339
0.996142
0.994311
0.992861
1.01571
1.01611
1.01599
1.01546
1.01439
1.01286
1.01089
1.00857
1.00601
1.00335
1.00071
0.998229
0.99599
0.994126
0.992649
1.01595
1.01635
1.01623
1.0157
1.01461
1.01304
1.01103
1.00867
1.00606
1.00334
1.00065
0.998116
0.995835
0.993936
0.992433
1.01619
1.0166
1.01648
1.01594
1.01483
1.01323
1.01118
1.00877
1.0061
1.00333
1.00058
0.998
0.995675
0.993741
0.992211
1.01644
1.01686
1.01674
1.01619
1.01505
1.01342
1.01133
1.00887
1.00614
1.00332
1.00051
0.99788
0.995512
0.993542
0.991985
1.01669
1.01712
1.017
1.01644
1.01528
1.01362
1.01148
1.00897
1.00619
1.0033
1.00044
0.997756
0.995343
0.993337
0.991753
1.01695
1.01739
1.01726
1.01669
1.01552
1.01382
1.01164
1.00907
1.00623
1.00328
1.00036
0.997629
0.99517
0.993128
0.991515
1.01721
1.01766
1.01753
1.01695
1.01576
1.01403
1.0118
1.00917
1.00628
1.00327
1.00029
0.997497
0.994992
0.992913
0.991272
1.01748
1.01794
1.01781
1.01722
1.016
1.01423
1.01196
1.00928
1.00632
1.00325
1.00021
0.997362
0.99481
0.992693
0.991023
1.01775
1.01822
1.01809
1.01749
1.01625
1.01445
1.01212
1.00938
1.00636
1.00322
1.00012
0.997223
0.994623
0.992467
0.990768
1.01803
1.01851
1.01838
1.01777
1.0165
1.01466
1.01229
1.00949
1.0064
1.0032
1.00004
0.997079
0.994431
0.992236
0.990508
1.01832
1.0188
1.01867
1.01805
1.01676
1.01488
1.01246
1.0096
1.00645
1.00318
0.999946
0.996931
0.994233
0.991999
0.990241
1.0186
1.0191
1.01897
1.01834
1.01702
1.01511
1.01263
1.00971
1.00649
1.00315
0.999853
0.996779
0.99403
0.991756
0.989968
1.0189
1.01941
1.01927
1.01863
1.01729
1.01533
1.0128
1.00982
1.00653
1.00312
0.999756
0.996621
0.993821
0.991507
0.989688
1.0192
1.01972
1.01959
1.01893
1.01756
1.01557
1.01298
1.00993
1.00657
1.00309
0.999655
0.996459
0.993608
0.991252
0.989403
1.01951
1.02003
1.0199
1.01924
1.01784
1.0158
1.01316
1.01005
1.00661
1.00305
0.99955
0.996292
0.993388
0.990991
0.98911
1.01982
1.02036
1.02023
1.01955
1.01812
1.01604
1.01335
1.01016
1.00665
1.00301
0.999442
0.99612
0.993162
0.990723
0.988811
1.02014
1.02069
1.02056
1.01987
1.01841
1.01629
1.01353
1.01027
1.00669
1.00297
0.999329
0.995942
0.99293
0.990449
0.988505
1.02046
1.02103
1.02089
1.02019
1.01871
1.01654
1.01372
1.01039
1.00672
1.00293
0.999212
0.995759
0.992693
0.990168
0.988192
1.02079
1.02137
1.02124
1.02052
1.01901
1.01679
1.01391
1.01051
1.00676
1.00289
0.99909
0.99557
0.992448
0.989879
0.987872
1.02113
1.02172
1.02159
1.02086
1.01932
1.01705
1.01411
1.01063
1.00679
1.00284
0.998965
0.995376
0.992197
0.989585
0.987545
1.02148
1.02208
1.02195
1.02121
1.01963
1.01732
1.01431
1.01074
1.00683
1.00279
0.998833
0.995175
0.991939
0.989282
0.987209
1.02183
1.02245
1.02231
1.02156
1.01995
1.01759
1.01451
1.01086
1.00686
1.00273
0.998698
0.994969
0.991675
0.988973
0.986867
1.02219
1.02282
1.02269
1.02192
1.02028
1.01786
1.01471
1.01098
1.00689
1.00267
0.998556
0.994756
0.991402
0.988655
0.986516
1.02255
1.0232
1.02307
1.02229
1.02061
1.01814
1.01492
1.01111
1.00692
1.00261
0.99841
0.994537
0.991123
0.98833
0.986158
1.02293
1.02359
1.02345
1.02266
1.02095
1.01842
1.01513
1.01123
1.00695
1.00254
0.998257
0.99431
0.990836
0.987997
0.985791
1.02331
1.02399
1.02385
1.02304
1.0213
1.01871
1.01534
1.01135
1.00697
1.00247
0.998099
0.994077
0.990542
0.987656
0.985417
1.0237
1.02439
1.02426
1.02343
1.02165
1.01901
1.01556
1.01147
1.00699
1.0024
0.997935
0.993835
0.990239
0.987306
0.985034
1.02409
1.0248
1.02467
1.02383
1.02202
1.01931
1.01578
1.01159
1.00701
1.00232
0.997764
0.993587
0.989928
0.986948
0.984642
1.0245
1.02523
1.02509
1.02424
1.02238
1.01962
1.016
1.01172
1.00703
1.00223
0.997587
0.993331
0.989609
0.986581
0.984241
1.02491
1.02566
1.02552
1.02466
1.02276
1.01993
1.01622
1.01184
1.00705
1.00214
0.997403
0.993067
0.989281
0.986206
0.983833
1.02533
1.0261
1.02596
1.02508
1.02314
1.02024
1.01645
1.01196
1.00706
1.00205
0.997212
0.992795
0.988944
0.98582
0.983414
1.02576
1.02655
1.02641
1.02551
1.02353
1.02057
1.01668
1.01209
1.00707
1.00195
0.997014
0.992514
0.988599
0.985427
0.982986
1.0262
1.027
1.02687
1.02596
1.02393
1.02089
1.01691
1.01221
1.00708
1.00184
0.996807
0.992224
0.988243
0.985023
0.982549
1.02665
1.02747
1.02734
1.02641
1.02434
1.02123
1.01715
1.01233
1.00708
1.00173
0.996594
0.991926
0.987878
0.98461
0.982102
1.0271
1.02795
1.02782
1.02687
1.02476
1.02157
1.01739
1.01245
1.00708
1.00161
0.996371
0.991617
0.987503
0.984186
0.981645
1.02757
1.02844
1.02831
1.02734
1.02518
1.02192
1.01763
1.01258
1.00707
1.00149
0.996141
0.9913
0.987119
0.983753
0.981179
1.02805
1.02894
1.02881
1.02783
1.02561
1.02227
1.01788
1.0127
1.00706
1.00136
0.9959
0.990972
0.986723
0.983308
0.980702
1.02853
1.02945
1.02933
1.02832
1.02605
1.02263
1.01813
1.01282
1.00705
1.00122
0.995652
0.990634
0.986317
0.982854
0.980215
1.02903
1.02997
1.02985
1.02882
1.02651
1.02299
1.01838
1.01293
1.00703
1.00107
0.995392
0.990285
0.9859
0.982388
0.979717
1.02954
1.0305
1.03038
1.02934
1.02697
1.02336
1.01863
1.01305
1.00701
1.00091
0.995124
0.989925
0.985472
0.981912
0.97921
1.03005
1.03104
1.03093
1.02986
1.02743
1.02374
1.01889
1.01316
1.00698
1.00075
0.994844
0.989553
0.985031
0.981423
0.97869
1.03058
1.0316
1.03149
1.0304
1.02791
1.02413
1.01914
1.01328
1.00694
1.00058
0.994555
0.989171
0.98458
0.980924
0.97816
1.03112
1.03217
1.03206
1.03095
1.0284
1.02452
1.0194
1.01339
1.0069
1.00039
0.994253
0.988775
0.984115
0.980412
0.977618
1.03168
1.03275
1.03264
1.03151
1.0289
1.02492
1.01967
1.01349
1.00685
1.0002
0.99394
0.988368
0.983639
0.979888
0.977066
1.03224
1.03334
1.03324
1.03208
1.02941
1.02532
1.01993
1.0136
1.00679
0.999998
0.993615
0.987947
0.983149
0.979352
0.9765
1.03282
1.03395
1.03385
1.03267
1.02993
1.02573
1.02019
1.0137
1.00673
0.999784
0.993277
0.987514
0.982647
0.978803
0.975924
1.0334
1.03456
1.03448
1.03327
1.03046
1.02615
1.02046
1.01379
1.00665
0.999559
0.992926
0.987066
0.98213
0.978241
0.975335
1.03401
1.0352
1.03511
1.03388
1.03101
1.02657
1.02073
1.01389
1.00657
0.999322
0.992561
0.986604
0.9816
0.977667
0.974735
1.03462
1.03585
1.03577
1.03451
1.03156
1.027
1.021
1.01397
1.00648
0.999072
0.992182
0.986128
0.981055
0.977078
0.974122
1.03525
1.03651
1.03644
1.03515
1.03212
1.02744
1.02127
1.01406
1.00638
0.99881
0.991789
0.985637
0.980496
0.976476
0.973497
1.03589
1.03719
1.03712
1.03581
1.0327
1.02788
1.02154
1.01413
1.00627
0.998533
0.99138
0.985129
0.979921
0.97586
0.972858
1.03655
1.03788
1.03782
1.03648
1.03329
1.02834
1.02181
1.0142
1.00615
0.998243
0.990955
0.984606
0.979332
0.97523
0.972207
1.03722
1.03859
1.03854
1.03717
1.03389
1.02879
1.02208
1.01427
1.00601
0.997937
0.990514
0.984066
0.978726
0.974584
0.971542
1.03791
1.03932
1.03927
1.03787
1.0345
1.02926
1.02235
1.01432
1.00587
0.997615
0.990056
0.98351
0.978105
0.973925
0.970864
1.03861
1.04006
1.04003
1.03859
1.03513
1.02973
1.02261
1.01437
1.00571
0.997277
0.989579
0.982935
0.977467
0.973249
0.970172
1.03933
1.04082
1.0408
1.03932
1.03577
1.0302
1.02288
1.01441
1.00553
0.996921
0.989085
0.982343
0.976812
0.972559
0.969467
1.04006
1.0416
1.04158
1.04008
1.03642
1.03068
1.02314
1.01444
1.00534
0.996547
0.988571
0.981732
0.976139
0.971853
0.968747
1.04082
1.0424
1.04239
1.04085
1.03708
1.03117
1.02341
1.01446
1.00513
0.996155
0.988038
0.981102
0.975449
0.971131
0.968014
1.04159
1.04322
1.04322
1.04164
1.03776
1.03166
1.02366
1.01447
1.00491
0.995742
0.987484
0.980451
0.97474
0.970392
0.967266
1.04237
1.04406
1.04407
1.04245
1.03845
1.03216
1.02392
1.01446
1.00467
0.995309
0.986909
0.979782
0.974014
0.969638
0.966503
1.04318
1.04491
1.04494
1.04327
1.03916
1.03267
1.02416
1.01444
1.00441
0.994853
0.986311
0.97909
0.973267
0.968865
0.965725
1.04401
1.04579
1.04583
1.04412
1.03988
1.03318
1.02441
1.01441
1.00413
0.994376
0.985691
0.978378
0.972503
0.968076
0.964932
1.04485
1.04669
1.04674
1.04499
1.04061
1.03369
1.02464
1.01436
1.00383
0.993874
0.985047
0.977642
0.971717
0.967269
0.964124
1.04572
1.04762
1.04768
1.04588
1.04136
1.0342
1.02487
1.01429
1.0035
0.993348
0.984379
0.976885
0.970912
0.966445
0.9633
1.04661
1.04856
1.04864
1.04679
1.04212
1.03472
1.02509
1.01421
1.00315
0.992795
0.983685
0.976104
0.970085
0.965602
0.96246
1.04751
1.04953
1.04963
1.04772
1.0429
1.03524
1.0253
1.01411
1.00278
0.992216
0.982966
0.9753
0.969238
0.964742
0.961605
1.04845
1.05053
1.05064
1.04868
1.04369
1.03577
1.0255
1.01398
1.00238
0.991609
0.982218
0.97447
0.968369
0.963862
0.960732
1.0494
1.05155
1.05168
1.04966
1.04449
1.03629
1.02568
1.01383
1.00195
0.990972
0.981444
0.973616
0.967479
0.962964
0.959844
1.05038
1.0526
1.05274
1.05066
1.04531
1.03682
1.02586
1.01366
1.0015
0.990304
0.98064
0.972736
0.966565
0.962045
0.958938
1.05138
1.05367
1.05384
1.05169
1.04615
1.03734
1.02601
1.01347
1.00101
0.989605
0.979807
0.97183
0.96563
0.961108
0.958017
1.05241
1.05478
1.05496
1.05274
1.04699
1.03786
1.02615
1.01324
1.00049
0.988873
0.978942
0.970896
0.96467
0.96015
0.957077
1.05347
1.05591
1.05612
1.05382
1.04785
1.03838
1.02627
1.01298
0.999929
0.988106
0.978047
0.969935
0.963688
0.959173
0.956121
1.05455
1.05707
1.0573
1.05493
1.04873
1.0389
1.02637
1.01269
0.999336
0.987303
0.977118
0.968945
0.962681
0.958175
0.955147
1.05566
1.05827
1.05852
1.05606
1.04962
1.03941
1.02644
1.01237
0.998705
0.986463
0.976157
0.967927
0.96165
0.957157
0.954156
1.0568
1.0595
1.05977
1.05722
1.05052
1.03991
1.02649
1.01201
0.998033
0.985584
0.97516
0.966879
0.960593
0.956117
0.953146
1.05797
1.06076
1.06106
1.05841
1.05143
1.0404
1.02651
1.01162
0.99732
0.984666
0.974129
0.965801
0.959512
0.955057
0.952119
1.05917
1.06205
1.06239
1.05963
1.05236
1.04088
1.0265
1.01117
0.996562
0.983705
0.973061
0.964692
0.958405
0.953974
0.951073
1.0604
1.06339
1.06375
1.06088
1.05329
1.04134
1.02646
1.01069
0.995758
0.982703
0.971956
0.963553
0.957272
0.952871
0.95001
1.06167
1.06476
1.06515
1.06216
1.05423
1.04179
1.02638
1.01016
0.994905
0.981654
0.970812
0.96238
0.956113
0.951745
0.948928
1.06297
1.06617
1.06659
1.06347
1.05519
1.04222
1.02626
1.00958
0.994002
0.980561
0.96963
0.961177
0.954927
0.950598
0.947829
1.06431
1.06763
1.06808
1.06481
1.05614
1.04263
1.02609
1.00894
0.993044
0.97942
0.968406
0.959939
0.953714
0.949428
0.94671
1.06569
1.06912
1.06961
1.06618
1.05711
1.04301
1.02588
1.00825
0.992033
0.97823
0.967143
0.958668
0.952474
0.948236
0.945573
1.0671
1.07066
1.07119
1.06759
1.05807
1.04336
1.02561
1.00749
0.990962
0.976989
0.965836
0.957363
0.951206
0.947021
0.944417
1.06856
1.07225
1.07281
1.06903
1.05904
1.04367
1.02529
1.00668
0.989832
0.975696
0.964488
0.956024
0.949912
0.945785
0.943244
1.07005
1.07389
1.07448
1.0705
1.06
1.04395
1.0249
1.0058
0.988639
0.97435
0.963095
0.954649
0.948588
0.944525
0.94205
1.07159
1.07558
1.07621
1.072
1.06096
1.04419
1.02446
1.00484
0.987382
0.972949
0.961659
0.953241
0.947237
0.943244
0.940839
1.07318
1.07732
1.07799
1.07353
1.06191
1.04438
1.02394
1.00381
0.986056
0.971492
0.960177
0.951795
0.945858
0.941939
0.939609
1.07481
1.07911
1.07982
1.07509
1.06284
1.04451
1.02334
1.0027
0.984661
0.969977
0.95865
0.950315
0.944451
0.940612
0.938361
1.0765
1.08097
1.08171
1.07668
1.06376
1.04458
1.02266
1.00151
0.983193
0.968403
0.957076
0.948797
0.943015
0.939262
0.937093
1.07823
1.08289
1.08366
1.07831
1.06466
1.04459
1.0219
1.00023
0.98165
0.966769
0.955455
0.947245
0.941551
0.93789
0.935807
1.08002
1.08487
1.08568
1.07995
1.06552
1.04452
1.02103
0.998866
0.98003
0.965073
0.953787
0.945655
0.940058
0.936495
0.934503
1.08186
1.08692
1.08775
1.08163
1.06636
1.04437
1.02007
0.997402
0.978332
0.963315
0.952071
0.944029
0.938538
0.935078
0.93318
1.08377
1.08904
1.0899
1.08332
1.06715
1.04412
1.019
0.995838
0.976551
0.961494
0.950306
0.942367
0.93699
0.933638
0.931839
1.08573
1.09124
1.09211
1.08504
1.06789
1.04378
1.01782
0.994172
0.974687
0.959608
0.948494
0.940668
0.935414
0.932177
0.93048
1.08776
1.09351
1.09439
1.08677
1.06858
1.04333
1.01651
0.992397
0.972737
0.957658
0.946633
0.938933
0.93381
0.930694
0.929102
1.08985
1.09587
1.09674
1.08851
1.06919
1.04276
1.01508
0.990512
0.9707
0.955642
0.944725
0.937163
0.932179
0.929189
0.927707
1.09202
1.09832
1.09916
1.09025
1.06973
1.04206
1.01351
0.98851
0.968574
0.95356
0.942767
0.935357
0.93052
0.927663
0.926295
1.09426
1.10086
1.10166
1.09199
1.07017
1.04121
1.01179
0.98639
0.966358
0.951412
0.940762
0.933516
0.928836
0.926116
0.924865
1.09658
1.1035
1.10423
1.09373
1.07051
1.04021
1.00993
0.984148
0.964051
0.949198
0.938709
0.93164
0.927125
0.924548
0.923417
1.09898
1.10624
1.10688
1.09544
1.07073
1.03904
1.0079
0.98178
0.961652
0.946918
0.93661
0.929731
0.925389
0.92296
0.921954
1.10146
1.1091
1.1096
1.09712
1.07081
1.03769
1.00571
0.979283
0.95916
0.944573
0.934464
0.927787
0.923627
0.921352
0.920473
1.10404
1.11207
1.1124
1.09876
1.07074
1.03615
1.00335
0.976657
0.956576
0.942163
0.932274
0.925812
0.921841
0.919725
0.918976
1.10671
1.11516
1.11527
1.10034
1.0705
1.0344
1.0008
0.973897
0.953898
0.939688
0.930038
0.923805
0.920032
0.918078
0.917463
1.10949
1.11838
1.1182
1.10185
1.07006
1.03242
0.998068
0.971004
0.951129
0.93715
0.92776
0.921768
0.918199
0.916413
0.915934
1.11237
1.12174
1.1212
1.10327
1.06941
1.0302
0.995143
0.967976
0.948268
0.934551
0.925439
0.919701
0.916344
0.91473
0.91439
1.11537
1.12524
1.12426
1.10457
1.06853
1.02774
0.992023
0.964814
0.945318
0.931892
0.923079
0.917606
0.914468
0.913029
0.912831
1.1185
1.1289
1.12736
1.10574
1.06738
1.025
0.9887
0.961517
0.942279
0.929174
0.92068
0.915484
0.912571
0.911312
0.911257
1.12175
1.13271
1.1305
1.10674
1.06594
1.02199
0.985173
0.958088
0.939155
0.926401
0.918244
0.913336
0.910655
0.909578
0.909668
1.12515
1.13669
1.13366
1.10754
1.06418
1.01868
0.98144
0.954527
0.935946
0.923574
0.915774
0.911164
0.90872
0.907829
0.908066
1.1287
1.14085
1.13683
1.10812
1.06208
1.01506
0.977501
0.95084
0.932658
0.920697
0.913271
0.90897
0.906768
0.906064
0.90645
1.13242
1.14518
1.13998
1.10843
1.05961
1.01113
0.973355
0.947028
0.929293
0.917772
0.910739
0.906755
0.904799
0.904286
0.904821
1.13631
1.1497
1.1431
1.10844
1.05673
1.00687
0.969007
0.943097
0.925855
0.914803
0.908179
0.904522
0.902815
0.902494
0.903179
1.14039
1.15441
1.14614
1.10809
1.05341
1.00227
0.964459
0.939052
0.922349
0.911792
0.905594
0.902271
0.900817
0.900689
0.901525
1.14468
1.15931
1.14908
1.10734
1.04964
0.997342
0.95972
0.9349
0.91878
0.908745
0.902987
0.900005
0.898807
0.898873
0.899859
1.1492
1.16439
1.15187
1.10615
1.04537
0.992069
0.954795
0.930648
0.915152
0.905665
0.900361
0.897725
0.896785
0.897045
0.898181
1.15397
1.16967
1.15447
1.10445
1.04058
0.986457
0.949696
0.926304
0.911473
0.902557
0.89772
0.895434
0.894753
0.895206
0.896493
1.159
1.17512
1.15682
1.10218
1.03524
0.980511
0.944435
0.921877
0.907747
0.899426
0.895066
0.893134
0.892711
0.893358
0.894793
1.16432
1.18074
1.15886
1.09929
1.02935
0.974242
0.939026
0.917376
0.903981
0.896275
0.892404
0.890827
0.890662
0.891501
0.893084
1.16997
1.1865
1.16052
1.09571
1.02287
0.967663
0.933485
0.912811
0.900183
0.893111
0.889735
0.888515
0.888606
0.889636
0.891364
1.17596
1.19238
1.16171
1.09138
1.0158
0.960794
0.92783
0.908193
0.896359
0.889939
0.887064
0.8862
0.886546
0.887763
0.889635
1.18233
1.19834
1.16235
1.08624
1.00813
0.953659
0.92208
0.903532
0.892517
0.886764
0.884394
0.883884
0.884481
0.885883
0.887897
1.18912
1.20434
1.16233
1.08022
0.999866
0.946287
0.916255
0.898839
0.888665
0.883592
0.881729
0.88157
0.882413
0.883997
0.886151
1.19636
1.21031
1.16155
1.07326
0.991026
0.938714
0.910377
0.894126
0.88481
0.880429
0.879071
0.879258
0.880344
0.882106
0.884396
1.20409
1.21619
1.15989
1.06531
0.981633
0.930978
0.904466
0.889403
0.880961
0.87728
0.876426
0.876951
0.878274
0.880209
0.882633
1.21235
1.22188
1.15722
1.05633
0.971721
0.923123
0.898544
0.884681
0.877127
0.87415
0.873795
0.874651
0.876205
0.878309
0.880863
1.22117
1.22727
1.15341
1.04627
0.961343
0.915197
0.892632
0.879972
0.873316
0.871048
0.871182
0.87236
0.874137
0.876405
0.879085
1.2306
1.23222
1.14831
1.03513
0.950561
0.907248
0.886749
0.875286
0.869537
0.867976
0.868589
0.870079
0.872071
0.874498
0.877301
1.24067
1.23658
1.14177
1.0229
0.939456
0.899328
0.880913
0.870636
0.865799
0.864942
0.866021
0.867809
0.870009
0.872588
0.875511
1.2514
1.24016
1.13366
1.0096
0.928118
0.891486
0.875141
0.866031
0.862113
0.86195
0.863478
0.865552
0.86795
0.870676
0.873716
1.26281
1.24275
1.12381
0.995273
0.916656
0.883767
0.869447
0.861485
0.858486
0.859006
0.860963
0.863309
0.865896
0.868763
0.871916
1.27489
1.24407
1.11209
0.980012
0.905184
0.876215
0.863843
0.857008