/*--------------------------------*- C++ -*----------------------------------*\
  =========                 |
  \\      /  F ield         | OpenFOAM: The Open Source CFD Toolbox
   \\    /   O peration     | Website:  https://openfoam.org
    \\  /    A nd           | Version:  6.0
     \\/     M anipulation  |
\*---------------------------------------------------------------------------*/
FoamFile
{
    version     2.0;
    format      ascii;
    class       surfaceScalarField;
    location    "6.8";
    object      phi;
}
// * * * * * * * * * * * * * * * * * * * * * * * * * * * * * * * * * * * * * //

dimensions      [0 3 -1 0 0 0 0];

internalField   nonuniform List<scalar> 
68636
(
3.02268e-05
0.00310561
3.96437e-09
6.08409e-05
0.00307074
9.10899e-05
0.00300252
0.00012048
0.00290145
0.000148623
0.00276858
0.000175173
0.00260537
0.000199816
0.00241363
0.000222267
0.00219547
0.00024227
0.00195329
0.000259597
0.00168976
0.000274052
0.00140777
0.000285471
0.00111038
0.000293733
0.000800897
0.000298722
0.000482498
0.000157154
0.000299777
2.99475e-05
0.00307565
9.19023e-09
6.02841e-05
0.00304041
9.02586e-05
0.00297255
0.000119381
0.00287233
0.000147268
0.0027407
0.000173575
0.00257907
0.000197993
0.00238921
0.000220239
0.00217323
0.000240059
0.00193347
0.000257228
0.00167259
0.000271552
0.00139344
0.000282867
0.00109906
0.000291066
0.000792698
0.000295944
0.000477621
0.000156016
0.000297082
2.96708e-05
0.00304597
1.39365e-08
5.97324e-05
0.00301035
8.94349e-05
0.00294284
0.000118293
0.00284347
0.000145926
0.00271306
0.000171994
0.002553
0.000196189
0.00236502
0.000218232
0.00215118
0.000237872
0.00191383
0.000254885
0.00165558
0.000269078
0.00137925
0.000280288
0.00108785
0.000288413
0.000784573
0.000293284
0.00047275
0.000154726
0.000294574
2.9397e-05
0.00301655
1.83949e-08
5.91859e-05
0.00298056
8.86188e-05
0.00291341
0.000117215
0.00281488
0.000144597
0.00268568
0.000170427
0.00252717
0.000194402
0.00234104
0.000216244
0.00212934
0.000235705
0.00189437
0.000252562
0.00163872
0.000266626
0.00136519
0.000277732
0.00107675
0.000285778
0.000776528
0.000290627
0.000467902
0.000153362
0.000291992
2.91259e-05
0.0029874
2.24286e-08
5.86444e-05
0.00295104
8.78101e-05
0.00288425
0.000116146
0.00278654
0.000143279
0.00265855
0.000168874
0.00250158
0.00019263
0.00231729
0.000214273
0.0021077
0.000233556
0.00187509
0.00025026
0.00162202
0.000264195
0.00135125
0.000275199
0.00106574
0.000283165
0.000768561
0.000287974
0.000463093
0.000151946
0.00028939
2.88572e-05
0.00295852
2.61524e-08
5.81078e-05
0.00292179
8.70085e-05
0.00285534
0.000115087
0.00275846
0.000141972
0.00263166
0.000167334
0.00247621
0.000190874
0.00229375
0.00021232
0.00208625
0.000231427
0.00185598
0.000247978
0.00160547
0.000261786
0.00133744
0.000272691
0.00105484
0.000280578
0.000760675
0.000285345
0.000458327
0.000150491
0.000286802
2.8591e-05
0.0029299
2.96893e-08
5.75758e-05
0.0028928
8.62139e-05
0.00282671
0.000114037
0.00273064
0.000140678
0.00260502
0.000165809
0.00245108
0.000189134
0.00227042
0.000210385
0.002065
0.000229318
0.00183705
0.000245718
0.00158907
0.0002594
0.00132376
0.000270205
0.00104403
0.000278016
0.000752864
0.000282741
0.000453603
0.000149007
0.000284224
2.83273e-05
0.00290154
3.30383e-08
5.70486e-05
0.00286408
8.54263e-05
0.00279833
0.000112996
0.00270307
0.000139395
0.00257862
0.000164297
0.00242618
0.00018741
0.00224731
0.000208467
0.00204394
0.000227228
0.00181829
0.000243478
0.00157282
0.000257036
0.0013102
0.000267743
0.00103333
0.00027548
0.000745127
0.000280161
0.000448923
0.000147511
0.000281658
2.80658e-05
0.00287344
3.63338e-08
5.6526e-05
0.00283562
8.46457e-05
0.00277021
0.000111965
0.00267575
0.000138123
0.00255246
0.000162799
0.00240151
0.000185701
0.00222441
0.000206567
0.00202308
0.000225157
0.0017997
0.000241259
0.00155671
0.000254693
0.00129677
0.000265304
0.00102272
0.000272969
0.000737463
0.000277606
0.000444285
0.000146009
0.000279108
2.78068e-05
0.00284559
3.96643e-08
5.60081e-05
0.00280742
8.3872e-05
0.00274234
0.000110943
0.00264868
0.000136863
0.00252654
0.000161314
0.00237705
0.000184008
0.00220171
0.000204684
0.0020024
0.000223105
0.00178128
0.000239061
0.00154076
0.000252372
0.00128346
0.000262887
0.0010122
0.000270481
0.000729869
0.000275076
0.000439691
0.000144509
0.000276577
2.755e-05
0.002818
4.30724e-08
5.54948e-05
0.00277948
8.31053e-05
0.00271473
0.00010993
0.00262186
0.000135614
0.00250086
0.000159843
0.00235283
0.000182331
0.00217923
0.000202819
0.00198191
0.000221072
0.00176303
0.000236882
0.00152495
0.000250072
0.00127027
0.000260492
0.00100178
0.000268017
0.000722343
0.00027257
0.000435138
0.000143013
0.000274065
2.72955e-05
0.00279065
4.66366e-08
5.4986e-05
0.00275179
8.23454e-05
0.00268737
0.000108926
0.00259528
0.000134377
0.00247541
0.000158385
0.00232882
0.000180669
0.00215694
0.00020097
0.00196161
0.000219057
0.00174494
0.000234723
0.00150928
0.000247794
0.0012572
0.000258119
0.000991458
0.000265576
0.000714886
0.000270087
0.000430628
0.000141527
0.000271575
2.70432e-05
0.00276356
5.03799e-08
5.44819e-05
0.00272435
8.15923e-05
0.00266026
0.000107931
0.00256894
0.000133151
0.00245019
0.000156941
0.00230503
0.000179021
0.00213486
0.000199138
0.0019415
0.00021706
0.00172702
0.000232584
0.00149376
0.000245535
0.00124424
0.000255767
0.000981226
0.000263157
0.000707496
0.000267628
0.000426156
0.000140046
0.000269108
2.67932e-05
0.00273671
5.43076e-08
5.39822e-05
0.00269716
8.0846e-05
0.0026334
0.000106945
0.00254284
0.000131935
0.0024252
0.000155509
0.00228145
0.000177389
0.00211298
0.000197323
0.00192156
0.000215082
0.00170926
0.000230465
0.00147837
0.000243298
0.00123141
0.000253437
0.000971088
0.00026076
0.000700172
0.000265192
0.000421726
0.000138574
0.000266665
2.65454e-05
0.00271011
5.84152e-08
5.34869e-05
0.00267022
8.01064e-05
0.00260678
0.000105968
0.00251698
0.000130731
0.00240043
0.00015409
0.00225809
0.000175772
0.0020913
0.000195524
0.00190181
0.000213122
0.00169166
0.000228365
0.00146313
0.000241081
0.0012187
0.000251127
0.000961042
0.000258385
0.000692914
0.000262778
0.000417333
0.000137108
0.000264244
2.62997e-05
0.00268375
6.26628e-08
5.29961e-05
0.00264352
7.93734e-05
0.0025804
0.000105
0.00249135
0.000129538
0.0023759
0.000152685
0.00223495
0.000174169
0.00206982
0.000193742
0.00188224
0.00021118
0.00167422
0.000226284
0.00144803
0.000238884
0.0012061
0.000248839
0.000951087
0.000256032
0.000685722
0.000260386
0.000412979
0.000135649
0.000261845
2.60562e-05
0.00265762
6.70023e-08
5.25097e-05
0.00261707
7.8647e-05
0.00255427
0.00010404
0.00246596
0.000128355
0.00235158
0.000151292
0.00221201
0.000172581
0.00204853
0.000191976
0.00186284
0.000209255
0.00165694
0.000224222
0.00143306
0.000236707
0.00119361
0.000246572
0.000941222
0.0002537
0.000678594
0.000258015
0.000408663
0.000134198
0.000259466
2.58148e-05
0.00263174
7.13772e-08
5.20277e-05
0.00259085
7.79271e-05
0.00252837
0.000103089
0.00244079
0.000127183
0.00232749
0.000149912
0.00218928
0.000171007
0.00202743
0.000190226
0.00184362
0.000207348
0.00163982
0.000222178
0.00141823
0.000234551
0.00118124
0.000244325
0.000931447
0.000251389
0.000671531
0.000255666
0.000404386
0.000132758
0.000257107
2.55755e-05
0.00260609
7.5722e-08
5.15499e-05
0.00256488
7.72138e-05
0.0025027
0.000102147
0.00241586
0.000126022
0.00230361
0.000148544
0.00216676
0.000169447
0.00200653
0.000188491
0.00182458
0.000205458
0.00162285
0.000220154
0.00140353
0.000232413
0.00116898
0.0002421
0.000921761
0.000249099
0.000664531
0.000253339
0.000400146
0.000131326
0.000254769
2.53384e-05
0.00258067
7.99789e-08
5.10765e-05
0.00253914
7.65068e-05
0.00247727
0.000101214
0.00239115
0.000124871
0.00227995
0.000147188
0.00214444
0.000167902
0.00198581
0.000186773
0.00180571
0.000203585
0.00160604
0.000218147
0.00138897
0.000230296
0.00115683
0.000239894
0.000912163
0.000246831
0.000657595
0.000251032
0.000395946
0.000129909
0.000252451
2.51034e-05
0.00255548
8.40957e-08
5.06073e-05
0.00251364
7.58063e-05
0.00245207
0.000100288
0.00236667
0.000123731
0.00225651
0.000145845
0.00212233
0.000166371
0.00196529
0.00018507
0.00178701
0.000201729
0.00158938
0.000216159
0.00137454
0.000228197
0.00114479
0.000237708
0.000902651
0.000244583
0.00065072
0.000248747
0.000391781
0.000128501
0.000250153
2.48705e-05
0.00253052
8.803e-08
5.01423e-05
0.00248837
7.5112e-05
0.0024271
9.93715e-05
0.00234241
0.000122601
0.00223328
0.000144514
0.00210042
0.000164853
0.00194495
0.000183383
0.00176848
0.00019989
0.00157288
0.000214189
0.00136024
0.000226118
0.00113286
0.000235543
0.000893227
0.000242355
0.000643908
0.000246482
0.000387655
0.000127107
0.000247877
2.46397e-05
0.00250579
9.17546e-08
4.96815e-05
0.00246332
7.4424e-05
0.00240236
9.84629e-05
0.00231837
0.000121481
0.00221026
0.000143195
0.0020787
0.000163349
0.0019248
0.00018171
0.00175012
0.000198068
0.00155652
0.000212237
0.00134607
0.000224058
0.00112104
0.000233397
0.000883887
0.000240148
0.000637156
0.000244238
0.000383564
0.000125722
0.000245622
2.44109e-05
0.00248128
9.52566e-08
4.92249e-05
0.00243851
7.37423e-05
0.00237784
9.75625e-05
0.00229455
0.000120372
0.00218745
0.000141888
0.00205719
0.000161859
0.00190482
0.000180053
0.00173192
0.000196263
0.00154031
0.000210303
0.00133203
0.000222016
0.00110933
0.000231271
0.000874633
0.000237961
0.000630466
0.000242015
0.000379511
0.000124349
0.000243388
2.41843e-05
0.002457
9.85385e-08
4.87724e-05
0.00241392
7.30667e-05
0.00235355
9.66703e-05
0.00227095
0.000119272
0.00216485
0.000140593
0.00203586
0.000160383
0.00188503
0.000178411
0.0017139
0.000194473
0.00152425
0.000208386
0.00131812
0.000219993
0.00109772
0.000229164
0.000865461
0.000235794
0.000623836
0.000239812
0.000375492
0.000122985
0.000241175
2.39597e-05
0.00243294
1.0162e-07
4.8324e-05
0.00238956
7.23973e-05
0.00232948
9.57861e-05
0.00224756
0.000118182
0.00214246
0.00013931
0.00201474
0.000158919
0.00186543
0.000176784
0.00169603
0.0001927
0.00150833
0.000206487
0.00130433
0.000217988
0.00108622
0.000227076
0.000856374
0.000233647
0.000617265
0.000237629
0.00037151
0.000121634
0.000238981
2.37372e-05
0.0024091
1.04533e-07
4.78797e-05
0.00236541
7.17339e-05
0.00230562
9.491e-05
0.00222438
0.000117103
0.00212026
0.000138038
0.0019938
0.000157469
0.00184599
0.000175172
0.00167833
0.000190943
0.00149256
0.000204605
0.00129067
0.000216002
0.00107482
0.000225007
0.000847368
0.000231519
0.000610753
0.000235466
0.000367562
0.000120292
0.000236807
2.35168e-05
0.00238547
1.07323e-07
4.74395e-05
0.00234149
7.10765e-05
0.00228198
9.40417e-05
0.00220142
0.000116033
0.00209827
0.000136777
0.00197306
0.000156032
0.00182674
0.000173574
0.00166079
0.000189202
0.00147693
0.00020274
0.00127713
0.000214034
0.00106353
0.000222958
0.000838444
0.000229411
0.000604301
0.000233323
0.000363651
0.000118963
0.000234652
2.32983e-05
0.00236206
1.10039e-07
4.70032e-05
0.00231779
7.04251e-05
0.00225856
9.31814e-05
0.00217866
0.000114972
0.00207648
0.000135529
0.0019525
0.000154608
0.00180766
0.000171991
0.0016434
0.000187477
0.00146144
0.000200892
0.00126372
0.000212083
0.00105234
0.000220927
0.0008296
0.000227322
0.000597905
0.000231199
0.000359773
0.000117643
0.000232517
2.30819e-05
0.00233887
1.12733e-07
4.65709e-05
0.0022943
6.97796e-05
0.00223535
9.23288e-05
0.00215611
0.000113922
0.00205489
0.000134291
0.00193213
0.000153197
0.00178875
0.000170422
0.00162618
0.000185767
0.0014461
0.00019906
0.00125043
0.000210151
0.00104125
0.000218914
0.000820837
0.000225252
0.000591568
0.000229095
0.00035593
0.000116337
0.000230402
2.28675e-05
0.00231589
1.15449e-07
4.61426e-05
0.00227102
6.914e-05
0.00221236
9.1484e-05
0.00213377
0.00011288
0.00203349
0.000133064
0.00191195
0.000151799
0.00177002
0.000168867
0.00160911
0.000184073
0.00143089
0.000197246
0.00123725
0.000208236
0.00103026
0.00021692
0.000812152
0.000223201
0.000585287
0.00022701
0.000352121
0.00011504
0.000228305
2.26551e-05
0.00229311
1.18225e-07
4.57181e-05
0.00224796
6.85062e-05
0.00218957
9.06468e-05
0.00211163
0.000111848
0.00201229
0.000131849
0.00189195
0.000150413
0.00175145
0.000167326
0.0015922
0.000182395
0.00141582
0.000195448
0.0012242
0.000206338
0.00101937
0.000214944
0.000803546
0.000221169
0.000579063
0.000224944
0.000348347
0.000113756
0.000226228
2.24447e-05
0.00227055
1.21084e-07
4.52976e-05
0.00222511
6.78781e-05
0.00216699
8.98173e-05
0.00208969
0.000110826
0.00199128
0.000130645
0.00187213
0.00014904
0.00173306
0.0001658
0.00157544
0.000180732
0.00140089
0.000193666
0.00121127
0.000204458
0.00100857
0.000212987
0.000795017
0.000219155
0.000572894
0.000222896
0.000344605
0.000112481
0.00022417
2.22362e-05
0.00224819
1.24037e-07
4.48809e-05
0.00220246
6.72558e-05
0.00214461
8.89952e-05
0.00206795
0.000109813
0.00197046
0.000129451
0.00185249
0.00014768
0.00171483
0.000164287
0.00155883
0.000179083
0.0013861
0.000191901
0.00119845
0.000202595
0.00099788
0.000211047
0.000786566
0.00021716
0.000566781
0.000220868
0.000340897
0.000111218
0.000222131
2.20296e-05
0.00222603
1.27078e-07
4.4468e-05
0.00218002
6.66391e-05
0.00212244
8.81807e-05
0.00204641
0.000108809
0.00194984
0.000128269
0.00183303
0.000146332
0.00169677
0.000162788
0.00154237
0.00017745
0.00137143
0.000190152
0.00118575
0.00020075
0.000987282
0.000209125
0.00077819
0.000215183
0.000560722
0.000218858
0.000337221
0.000109964
0.000220111
2.18249e-05
0.00220408
1.30192e-07
4.40588e-05
0.00215779
6.6028e-05
0.00210047
8.73735e-05
0.00202506
0.000107814
0.00192939
0.000127097
0.00181375
0.000144996
0.00167887
0.000161303
0.00152607
0.000175832
0.0013569
0.000188419
0.00117316
0.000198921
0.00097678
0.00020722
0.000769891
0.000213224
0.000554718
0.000216866
0.000333579
0.000108723
0.000218108
2.16221e-05
0.00218232
1.33354e-07
4.36534e-05
0.00213576
6.54225e-05
0.0020787
8.65736e-05
0.00200391
0.000106828
0.00190914
0.000125936
0.00179464
0.000143672
0.00166113
0.000159831
0.00150991
0.000174229
0.00134251
0.000186701
0.00116069
0.000197108
0.000966373
0.000205333
0.000761666
0.000211283
0.000548768
0.000214893
0.000329968
0.00010749
0.000216124
2.14212e-05
0.00216076
1.36531e-07
4.32517e-05
0.00211393
6.48225e-05
0.00205713
8.57811e-05
0.00198295
0.000105851
0.00188907
0.000124786
0.0017757
0.000142361
0.00164356
0.000158373
0.0014939
0.00017264
0.00132824
0.000185
0.00114833
0.000195313
0.00095606
0.000203463
0.000753516
0.00020936
0.000542871
0.000212938
0.000326391
0.00010627
0.000214158
2.12221e-05
0.0021394
1.39688e-07
4.28537e-05
0.0020923
6.42279e-05
0.00203576
8.49957e-05
0.00196218
0.000104883
0.00186918
0.000123645
0.00175694
0.000141061
0.00162614
0.000156928
0.00147803
0.000171066
0.0013141
0.000183314
0.00113608
0.000193533
0.00094584
0.00020161
0.000745438
0.000207454
0.000537027
0.000211
0.000322844
0.000105059
0.00021221
2.10248e-05
0.00211823
1.42791e-07
4.24593e-05
0.00207086
6.36388e-05
0.00201458
8.42175e-05
0.00194161
0.000103924
0.00184947
0.000122516
0.00173835
0.000139773
0.00160888
0.000155496
0.0014623
0.000169506
0.00130009
0.000181643
0.00112394
0.00019177
0.000935713
0.000199775
0.000737434
0.000205566
0.000531236
0.000209081
0.00031933
0.000103861
0.00021028
2.08293e-05
0.00209726
1.45805e-07
4.20685e-05
0.00204962
6.3055e-05
0.00199359
8.34464e-05
0.00192121
0.000102974
0.00182995
0.000121396
0.00171993
0.000138497
0.00159178
0.000154078
0.00144672
0.00016796
0.00128621
0.000179987
0.00111191
0.000190023
0.000925676
0.000197956
0.000729501
0.000203695
0.000525496
0.000207178
0.000315846
0.000102671
0.000208367
2.06357e-05
0.00207647
1.48703e-07
4.16813e-05
0.00202858
6.24766e-05
0.0019728
8.26822e-05
0.00190101
0.000102032
0.0018106
0.000120287
0.00170167
0.000137232
0.00157484
0.000152672
0.00143128
0.000166429
0.00127245
0.000178347
0.0011
0.000188292
0.000915731
0.000196153
0.000721641
0.000201841
0.000519808
0.000205294
0.000312394
0.000101493
0.000206472
2.04438e-05
0.00205588
1.51464e-07
4.12976e-05
0.00200772
6.19034e-05
0.00195219
8.19251e-05
0.00188099
0.000101099
0.00179142
0.000119188
0.00168358
0.00013598
0.00155805
0.000151279
0.00141598
0.000164911
0.00125882
0.000176722
0.00108819
0.000186577
0.000905875
0.000194367
0.00071385
0.000200004
0.00051417
0.000203426
0.000308971
0.000100323
0.000204594
2.02536e-05
0.00203547
1.54074e-07
4.09173e-05
0.00198706
6.13354e-05
0.00193177
8.11748e-05
0.00186115
0.000100174
0.00177242
0.000118099
0.00166566
0.000134738
0.00154141
0.000149899
0.00140082
0.000163408
0.00124531
0.000175111
0.00107648
0.000184878
0.000896108
0.000192598
0.00070613
0.000198184
0.000508584
0.000201576
0.000305581
9.91654e-05
0.000202734
2.00652e-05
0.00201525
1.5653e-07
4.05406e-05
0.00196658
6.07726e-05
0.00191154
8.04314e-05
0.00184149
9.9258e-05
0.0017536
0.00011702
0.0016479
0.000133508
0.00152492
0.000148531
0.0013858
0.000161918
0.00123192
0.000173516
0.00106488
0.000183194
0.000886429
0.000190845
0.00069848
0.000196381
0.000503047
0.000199742
0.000302219
9.80157e-05
0.00020089
1.98785e-05
0.00199521
1.58841e-07
4.01673e-05
0.00194629
6.0215e-05
0.00189149
7.96948e-05
0.00182201
9.83501e-05
0.00173494
0.000115951
0.0016303
0.000132289
0.00150858
0.000147176
0.00137091
0.000160442
0.00121866
0.000171935
0.00105339
0.000181526
0.000876838
0.000189107
0.000690898
0.000194594
0.000497561
0.000197925
0.000298888
9.68778e-05
0.000199064
1.96935e-05
0.00197536
1.61024e-07
3.97973e-05
0.00192619
5.96624e-05
0.00187163
7.89649e-05
0.00180271
9.74505e-05
0.00171646
0.000114891
0.00161285
0.000131081
0.00149239
0.000145833
0.00135616
0.000158979
0.00120551
0.000170368
0.001042
0.000179873
0.000867333
0.000187386
0.000683384
0.000192824
0.000492122
0.000196125
0.000295586
9.5748e-05
0.000197254
1.95102e-05
0.00195568
1.63105e-07
3.94308e-05
0.00190627
5.91149e-05
0.00185194
7.82416e-05
0.00178358
9.65592e-05
0.00169814
0.000113841
0.00159557
0.000129885
0.00147635
0.000144503
0.00134154
0.000157529
0.00119249
0.000168816
0.00103071
0.000178235
0.000857914
0.000185681
0.000675939
0.000191069
0.000486734
0.000194342
0.000292314
9.463e-05
0.00019546
1.93285e-05
0.00193619
1.65118e-07
3.90676e-05
0.00188653
5.85723e-05
0.00183244
7.7525e-05
0.00176463
9.56759e-05
0.00167999
0.000112801
0.00157845
0.000128699
0.00146045
0.000143185
0.00132706
0.000156093
0.00117958
0.000167278
0.00101953
0.000176612
0.00084858
0.000183991
0.00066856
0.000189331
0.000481393
0.000192574
0.00028907
9.35199e-05
0.000193683
1.91486e-05
0.00191687
1.671e-07
3.87077e-05
0.00186697
5.80347e-05
0.00181311
7.68149e-05
0.00174585
9.48008e-05
0.001662
0.00011177
0.00156148
0.000127524
0.0014447
0.000141879
0.0013127
0.00015467
0.00116679
0.000165754
0.00100845
0.000175004
0.00083933
0.000182316
0.000661248
0.000187609
0.0004761
0.000190823
0.000285857
9.24214e-05
0.000191922
1.89702e-05
0.00189774
1.69087e-07
3.8351e-05
0.00184759
5.7502e-05
0.00179396
7.61112e-05
0.00172724
9.39336e-05
0.00164418
0.000110749
0.00154466
0.00012636
0.00142908
0.000140585
0.00129848
0.000153261
0.00115411
0.000164244
0.000997463
0.00017341
0.000830163
0.000180657
0.000654
0.000185903
0.000470854
0.000189088
0.00028267
9.13305e-05
0.000190178
1.87935e-05
0.00187877
1.71113e-07
3.79977e-05
0.00182839
5.69742e-05
0.00177498
7.5414e-05
0.0017088
9.30744e-05
0.00162652
0.000109737
0.001528
0.000125206
0.00141362
0.000139302
0.00128438
0.000151864
0.00114155
0.000162748
0.000986579
0.000171832
0.000821079
0.000179013
0.000646819
0.000184212
0.000465656
0.000187369
0.000279513
9.0251e-05
0.000188449
1.86184e-05
0.00185998
1.732e-07
3.76475e-05
0.00180936
5.64512e-05
0.00175618
7.47232e-05
0.00169053
9.2223e-05
0.00160902
0.000108735
0.00151149
0.000124063
0.00139829
0.000138032
0.00127041
0.000150479
0.0011291
0.000161265
0.000975793
0.000170267
0.000812077
0.000177384
0.000639701
0.000182536
0.000460503
0.000185666
0.000276383
8.91789e-05
0.000186736
1.84449e-05
0.00184136
1.75366e-07
3.73006e-05
0.0017905
5.5933e-05
0.00173755
7.40387e-05
0.00167242
9.13794e-05
0.00159168
0.000107741
0.00149513
0.000122931
0.0013831
0.000136773
0.00125657
0.000149108
0.00111677
0.000159797
0.000965104
0.000168718
0.000803156
0.000175771
0.000632649
0.000180876
0.000455398
0.000183978
0.000273282
8.8118e-05
0.000185039
1.8273e-05
0.00182291
1.77613e-07
3.69568e-05
0.00177182
5.54195e-05
0.00171909
7.33605e-05
0.00165448
9.05436e-05
0.00157449
0.000106757
0.00147891
0.000121809
0.00136805
0.000135525
0.00124285
0.000147749
0.00110454
0.000158341
0.000954512
0.000167182
0.000794315
0.000174172
0.000625658
0.000179232
0.000450337
0.000182306
0.000270208
8.70643e-05
0.000183358
1.81027e-05
0.00180463
1.79938e-07
3.66162e-05
0.0017533
5.49108e-05
0.00170079
7.26885e-05
0.0016367
8.97154e-05
0.00155747
0.000105781
0.00146285
0.000120697
0.00135313
0.000134289
0.00122926
0.000146403
0.00109243
0.000156899
0.000944015
0.00016566
0.000785554
0.000172587
0.000618732
0.000177602
0.000445322
0.000180649
0.000267161
8.60215e-05
0.000181692
1.7934e-05
0.00178651
1.82324e-07
3.62788e-05
0.00173496
5.44067e-05
0.00168266
7.20226e-05
0.00161909
8.88948e-05
0.0015406
0.000104815
0.00144693
0.000119595
0.00133835
0.000133065
0.00121579
0.000145068
0.00108042
0.00015547
0.000933613
0.000164153
0.000776871
0.000171017
0.000611866
0.000175987
0.000440352
0.000179007
0.000264141
8.49859e-05
0.000180041
1.77667e-05
0.00176856
1.84751e-07
3.59444e-05
0.00171678
5.39072e-05
0.0016647
7.13629e-05
0.00160163
8.80817e-05
0.00152388
0.000103857
0.00143115
0.000118504
0.0013237
0.000131851
0.00120244
0.000143747
0.00106853
0.000154055
0.000923305
0.000162659
0.000768267
0.000169462
0.000605063
0.000174388
0.000435426
0.00017738
0.000261149
8.39611e-05
0.000178406
1.76011e-05
0.00175077
1.87193e-07
3.56131e-05
0.00169877
5.34123e-05
0.0016469
7.07091e-05
0.00158433
8.7276e-05
0.00150731
0.000102908
0.00141552
0.000117422
0.00130919
0.000130649
0.00118922
0.000142437
0.00105674
0.000152652
0.00091309
0.000161179
0.00075974
0.000167921
0.000598321
0.000172802
0.000430544
0.000175769
0.000258181
8.29432e-05
0.000176785
1.74369e-05
0.00173314
1.89621e-07
3.52848e-05
0.00168092
5.29219e-05
0.00162926
7.00614e-05
0.00156719
8.64778e-05
0.00149089
0.000101968
0.00140003
0.000116351
0.00129481
0.000129458
0.00117611
0.000141139
0.00104506
0.000151262
0.000902967
0.000159712
0.00075129
0.000166394
0.000591639
0.000171232
0.000425706
0.000174172
0.000255242
8.19359e-05
0.00017518
1.72743e-05
0.00171568
1.92009e-07
3.49595e-05
0.00166324
5.2436e-05
0.00161179
6.94196e-05
0.00155021
8.56868e-05
0.00147463
0.000101037
0.00138468
0.000115289
0.00128055
0.000128277
0.00116312
0.000139853
0.00103348
0.000149885
0.000892934
0.000158259
0.000742915
0.000164881
0.000585017
0.000169676
0.000420911
0.00017259
0.000252327
8.09354e-05
0.000173589
1.71131e-05
0.00169837
1.94332e-07
3.46372e-05
0.00164571
5.19546e-05
0.00159447
6.87837e-05
0.00153338
8.49031e-05
0.00145851
0.000100114
0.00136947
0.000114237
0.00126643
0.000127108
0.00115025
0.000138579
0.00102201
0.000148521
0.000882993
0.00015682
0.000734617
0.000163382
0.000578455
0.000168134
0.000416159
0.000171022
0.000249439
7.99452e-05
0.000172013
1.69535e-05
0.00168122
1.96569e-07
3.43179e-05
0.00162835
5.14776e-05
0.00157731
6.81537e-05
0.0015167
8.41266e-05
0.00144253
9.91995e-05
0.00135439
0.000113194
0.00125244
0.000125949
0.00113749
0.000137317
0.00101064
0.000147169
0.000873141
0.000155393
0.000726392
0.000161897
0.000571951
0.000166606
0.000411448
0.000169469
0.000246576
7.89617e-05
0.000170451
1.67953e-05
0.00166422
1.98706e-07
3.40016e-05
0.00161114
5.1005e-05
0.00156031
6.75294e-05
0.00150018
8.33573e-05
0.00142671
9.82934e-05
0.00133946
0.000112162
0.00123857
0.000124801
0.00112486
0.000136066
0.000999377
0.00014583
0.000863378
0.00015398
0.000718242
0.000160425
0.000565505
0.000165093
0.000406781
0.00016793
0.000243739
7.79884e-05
0.000168904
1.66386e-05
0.00164739
2.00733e-07
3.36881e-05
0.00159409
5.05368e-05
0.00154346
6.69108e-05
0.00148381
8.2595e-05
0.00141102
9.73957e-05
0.00132466
0.000111138
0.00122483
0.000123664
0.00111233
0.000134827
0.000988213
0.000144503
0.000853702
0.00015258
0.000710164
0.000158967
0.000559117
0.000163593
0.000402154
0.000166406
0.000240926
7.70215e-05
0.000167371
1.64833e-05
0.0016307
2.0265e-07
3.33775e-05
0.0015772
5.00728e-05
0.00152676
6.6298e-05
0.00146758
8.18397e-05
0.00139548
9.65062e-05
0.00130999
0.000110124
0.00121121
0.000122536
0.00109992
0.0001336
0.00097715
0.000143188
0.000844114
0.000151192
0.00070216
0.000157523
0.000552787
0.000162108
0.00039757
0.000164895
0.000238139
7.60647e-05
0.000165852
1.63295e-05
0.00161417
2.0446e-07
3.30698e-05
0.00156046
4.96131e-05
0.00151022
6.56907e-05
0.0014515
8.10913e-05
0.00138008
9.56249e-05
0.00129546
0.00010912
0.00119771
0.00012142
0.00108762
0.000132383
0.000966186
0.000141885
0.000834611
0.000149818
0.000694226
0.000156092
0.000546512
0.000160636
0.000393025
0.000163399
0.000235375
7.51141e-05
0.000164348
1.61771e-05
0.00159778
2.06176e-07
3.27649e-05
0.00154387
4.91576e-05
0.00149383
6.50891e-05
0.00143557
8.03499e-05
0.00136482
9.47517e-05
0.00128105
0.000108125
0.00118434
0.000120313
0.00107543
0.000131178
0.000955322
0.000140594
0.000825195
0.000148456
0.000686365
0.000154674
0.000540295
0.000159177
0.000388522
0.000161916
0.000232637
7.41734e-05
0.000162857
1.60261e-05
0.00158155
2.07815e-07
3.24628e-05
0.00152743
4.87063e-05
0.00147758
6.44929e-05
0.00141978
7.96152e-05
0.0013497
9.38865e-05
0.00126678
0.000107138
0.00117109
0.000119217
0.00106335
0.000129984
0.000944555
0.000139316
0.000815863
0.000147107
0.000678573
0.000153269
0.000534132
0.000157732
0.000384057
0.000160447
0.000229922
7.32387e-05
0.00016138
1.58765e-05
0.00156546
2.094e-07
3.21635e-05
0.00151114
4.82592e-05
0.00146149
6.39023e-05
0.00140414
7.88873e-05
0.00133471
9.30293e-05
0.00125264
0.000106161
0.00115795
0.000118131
0.00105138
0.000128801
0.000933885
0.000138049
0.000806615
0.00014577
0.000670852
0.000151877
0.000528025
0.000156301
0.000379634
0.000158991
0.000227232
7.23138e-05
0.000159916
1.57283e-05
0.00154952
2.10955e-07
3.1867e-05
0.00149501
4.78161e-05
0.00144554
6.33171e-05
0.00138864
7.81661e-05
0.00131986
9.218e-05
0.00123863
0.000105193
0.00114494
0.000117055
0.00103952
0.000127629
0.000923311
0.000136793
0.00079745
0.000144445
0.0006632
0.000150498
0.000521972
0.000154882
0.000375249
0.000157549
0.000224564
7.13947e-05
0.000158467
1.55814e-05
0.00153373
2.12506e-07
3.15731e-05
0.00147901
4.73772e-05
0.00142973
6.27372e-05
0.00137328
7.74515e-05
0.00130515
9.13385e-05
0.00122474
0.000104234
0.00113205
0.000115989
0.00102776
0.000126467
0.000912833
0.00013555
0.000788367
0.000143133
0.000655616
0.000149132
0.000515974
0.000153477
0.000370903
0.00015612
0.000221921
7.04852e-05
0.00015703
1.54359e-05
0.00151808
2.14076e-07
3.1282e-05
0.00146317
4.69422e-05
0.00141407
6.21627e-05
0.00135806
7.67435e-05
0.00129057
9.05047e-05
0.00121098
0.000103284
0.00111927
0.000114932
0.00101612
0.000125317
0.000902449
0.000134317
0.000779366
0.000141833
0.0006481
0.000147778
0.000510029
0.000152085
0.000366596
0.000154705
0.000219301
6.95815e-05
0.000155607
1.52917e-05
0.00150257
2.15686e-07
3.09935e-05
0.00144747
4.65113e-05
0.00139856
6.15935e-05
0.00134298
7.60421e-05
0.00127612
8.96787e-05
0.00119734
0.000102342
0.0011066
0.000113886
0.00100457
0.000124177
0.000892158
0.000133097
0.000770446
0.000140545
0.000640652
0.000146437
0.000504137
0.000150705
0.000362327
0.000153302
0.000216704
6.86871e-05
0.000154197
1.51489e-05
0.00148721
2.1735e-07
3.07077e-05
0.00143191
4.60844e-05
0.00138318
6.10296e-05
0.00132803
7.53471e-05
0.0012618
8.88602e-05
0.00118383
0.000101409
0.00109405
0.000112849
0.000993132
0.000123047
0.00088196
0.000131887
0.000761605
0.000139269
0.00063327
0.000145108
0.000498297
0.000149339
0.000358096
0.000151913
0.000214129
6.77983e-05
0.0001528
1.50074e-05
0.00147198
2.19078e-07
3.04246e-05
0.00141649
4.56613e-05
0.00136794
6.04708e-05
0.00131322
7.46585e-05
0.00124761
8.80493e-05
0.00117044
0.000100485
0.00108162
0.000111822
0.000981796
0.000121928
0.000871853
0.000130689
0.000752845
0.000138004
0.000625954
0.000143792
0.00049251
0.000147985
0.000353903
0.000150537
0.000211577
6.69188e-05
0.000151416
1.48671e-05
0.00145689
2.20868e-07
3.0144e-05
0.00140121
4.52422e-05
0.00135285
5.99172e-05
0.00129855
7.39762e-05
0.00123355
8.72459e-05
0.00115717
9.95696e-05
0.00106929
0.000110804
0.000970561
0.000120819
0.000861837
0.000129502
0.000744162
0.000136752
0.000618704
0.000142487
0.000486774
0.000146643
0.000349746
0.000149173
0.000209047
6.60448e-05
0.000150045
1.47282e-05
0.00144194
2.22715e-07
2.9866e-05
0.00138608
4.48269e-05
0.00133788
5.93686e-05
0.00128401
7.33003e-05
0.00121962
8.64499e-05
0.00114402
9.86623e-05
0.00105708
0.000109795
0.000959428
0.000119721
0.000851912
0.000128325
0.000735558
0.000135511
0.000611519
0.000141195
0.000481089
0.000145315
0.000345626
0.000147822
0.00020654
6.51798e-05
0.000148687
1.45905e-05
0.00142713
2.24606e-07
2.95906e-05
0.00137108
4.44155e-05
0.00132306
5.88252e-05
0.0012696
7.26305e-05
0.00120582
8.56613e-05
0.00113099
9.77635e-05
0.00104498
0.000108796
0.000948395
0.000118633
0.000842075
0.00012716
0.00072703
0.000134281
0.000604397
0.000139915
0.000475455
0.000143998
0.000341543
0.000146483
0.000204054
6.43202e-05
0.000147341
1.44542e-05
0.00141244
2.26522e-07
2.93177e-05
0.00135621
4.40078e-05
0.00130837
5.82867e-05
0.00125532
7.1967e-05
0.00119214
8.488e-05
0.00111807
9.6873e-05
0.00103299
0.000107807
0.000937461
0.000117555
0.000832327
0.000126005
0.000718579
0.000133063
0.00059734
0.000138647
0.000469871
0.000142694
0.000337496
0.000145157
0.000201591
6.34694e-05
0.000146008
1.4319e-05
0.0013979
2.2844e-07
2.90474e-05
0.00134148
4.36039e-05
0.00129381
5.77532e-05
0.00124117
7.13096e-05
0.00117858
8.41058e-05
0.00110528
9.59907e-05
0.0010211
0.000106826
0.000926626
0.000116486
0.000822666
0.000124862
0.000710204
0.000131856
0.000590344
0.00013739
0.000464336
0.000141401
0.000333485
0.000143843
0.000199148
6.26239e-05
0.000144687
1.41851e-05
0.00138348
2.30337e-07
2.87795e-05
0.00132689
4.32037e-05
0.00127939
5.72247e-05
0.00122715
7.06583e-05
0.00116515
8.33389e-05
0.0010926
9.51166e-05
0.00100932
0.000105854
0.000915888
0.000115428
0.000813093
0.000123728
0.000701903
0.000130661