1.45 	0 	0 	-0.300228
2.35 	0 	0 	-0.133474
