/*--------------------------------*- C++ -*----------------------------------*\
  =========                 |
  \\      /  F ield         | OpenFOAM: The Open Source CFD Toolbox
   \\    /   O peration     | Website:  https://openfoam.org
    \\  /    A nd           | Version:  6.0
     \\/     M anipulation  |
\*---------------------------------------------------------------------------*/
FoamFile
{
    version     2.0;
    format      ascii;
    class       volScalarField;
    location    "0.3";
    object      p;
}
// * * * * * * * * * * * * * * * * * * * * * * * * * * * * * * * * * * * * * //

dimensions      [0 2 -2 0 0 0 0];

internalField   nonuniform List<scalar> 
200
(
6.32373e-09
-0.000587163
-0.0012622
-0.00192042
-0.00259275
-0.00328936
-0.00397891
-0.0045845
-0.00496437
-0.0048728
-0.00390182
-0.00142121
0.00343005
0.0115905
0.0235722
0.0384919
0.0531547
0.0627242
0.0640844
0.0599577
0.000606732
-4.10346e-05
-0.000609681
-0.0011533
-0.00174337
-0.00235812
-0.00293749
-0.00339519
-0.00361341
-0.00343264
-0.00262127
-0.000790484
0.00275436
0.00907584
0.0191945
0.032935
0.0476287
0.0583419
0.0609034
0.0564179
0.00127648
0.000394787
-0.00017654
-0.00067823
-0.00125767
-0.00188205
-0.00248832
-0.00302005
-0.00344295
-0.00375799
-0.00396615
-0.00390319
-0.00291479
0.000408271
0.00791145
0.0205822
0.0367385
0.05114
0.057058
0.0527617
0.00146462
0.000309581
-0.000309376
-0.000825142
-0.00145134
-0.00214408
-0.0028567
-0.00360105
-0.00448654
-0.00574909
-0.00768443
-0.0103675
-0.0131494
-0.0142273
-0.0108327
-0.000434593
0.0171135
0.0371867
0.050359
0.0504418
0.000570629
-0.000804826
-0.00141377
-0.00190264
-0.00252668
-0.00321661
-0.00395314
-0.00484437
-0.00617974
-0.00845834
-0.0122745
-0.017932
-0.0248136
-0.0308382
-0.0325022
-0.0258174
-0.0083865
0.0172364
0.0409514
0.051405
-0.00210662
-0.00353193
-0.00387322
-0.00410741
-0.00450882
-0.00495511
-0.00545668
-0.00622769
-0.00773252
-0.0106887
-0.0158995
-0.0238047
-0.0338026
-0.0436644
-0.0494881
-0.0464168
-0.0303483
-0.00112328
0.0334148
0.0584347
-0.00756166
-0.00849277
-0.00784102
-0.00731983
-0.00711224
-0.00696494
-0.00689976
-0.00722039
-0.00852114
-0.0116421
-0.0174501
-0.0263665
-0.0377084
-0.0491115
-0.0564449
-0.0544099
-0.0380566
-0.00527339
0.0394307
0.0810522
-0.0178486
-0.0162762
-0.0130045
-0.0109405
-0.0096514
-0.00861429
-0.00779904
-0.00753815
-0.00847001
-0.0114352
-0.0172191
-0.0260733
-0.0371079
-0.0477099
-0.0534045
-0.0482517
-0.0263726
0.0158986
0.0768271
0.142198
-0.0387558
-0.0265784
-0.0172032
-0.0123573
-0.00981043
-0.00805979
-0.00682351
-0.00636868
-0.00725674
-0.0102069
-0.0158251
-0.0241172
-0.0339363
-0.0423551
-0.044439
-0.0331464
-0.000476277
0.0609917
0.153653
0.264911
-0.0974262
-0.03236
-0.009075
-0.0045303
-0.00323833
-0.00224556
-0.001734
-0.00205439
-0.00365111
-0.00710885
-0.0128969
-0.0208555
-0.0297045
-0.0363488
-0.0356754
-0.01973
0.0217455
0.103444
0.237285
0.418893
)
;

boundaryField
{
    movingWall
    {
        type            zeroGradient;
    }
    fixedWalls
    {
        type            zeroGradient;
    }
    frontAndBack
    {
        type            empty;
    }
}


// ************************************************************************* //
