1.45 	0 	0 	-0.00785046 	-0.00261449 	1.66217e-20
2.35 	0 	0 	0.0626153 	-0.00666189 	1.00249e-20
