/*--------------------------------*- C++ -*----------------------------------*\
  =========                 |
  \\      /  F ield         | OpenFOAM: The Open Source CFD Toolbox
   \\    /   O peration     | Website:  https://openfoam.org
    \\  /    A nd           | Version:  6.0
     \\/     M anipulation  |
\*---------------------------------------------------------------------------*/
FoamFile
{
    version     2.0;
    format      ascii;
    class       surfaceScalarField;
    location    "0.3";
    object      phi;
}
// * * * * * * * * * * * * * * * * * * * * * * * * * * * * * * * * * * * * * //

dimensions      [0 3 -1 0 0 0 0];

internalField   nonuniform List<scalar> 
1540
(
5.96387e-09
-5.96378e-09
8.34296e-09
-2.37903e-09
3.27145e-09
5.07153e-09
-8.11628e-09
1.13877e-08
-2.36884e-08
1.55721e-08
-4.16357e-08
1.79472e-08
-6.08321e-08
1.91964e-08
-8.07933e-08
1.99612e-08
-1.01493e-07
2.06996e-08
-1.23188e-07
2.16946e-08
-1.4631e-07
2.31222e-08
-1.71429e-07
2.51187e-08
-1.99256e-07
2.78277e-08
-2.30681e-07
3.14245e-08
-2.66805e-07
3.61242e-08
-3.08983e-07
4.21782e-08
-3.58847e-07
4.98635e-08
-4.18308e-07
5.94612e-08
-4.89528e-07
7.12198e-08
-5.74817e-07
8.52889e-08
-6.76424e-07
1.01608e-07
-7.96157e-07
1.19733e-07
-9.34753e-07
1.38596e-07
-1.09098e-06
1.56224e-07
-1.26046e-06
1.69486e-07
-1.43449e-06
1.74024e-07
-1.59906e-06
1.64574e-07
-1.73492e-06
1.35859e-07
-1.81904e-06
8.41221e-08
-1.82812e-06
9.07351e-09
-1.74385e-06
-8.42694e-08
-1.55925e-06
-1.84601e-07
-1.28431e-06
-2.74937e-07
-9.48846e-07
-3.35462e-07
-5.99962e-07
-3.48884e-07
-2.9252e-07
-3.07442e-07
-7.36373e-08
-2.18883e-07
3.3401e-08
-1.07038e-07
3.9543e-08
-6.14198e-09
3.95431e-08
2.34959e-09
-8.31334e-09
-7.65817e-09
7.62874e-09
-3.36498e-08
3.10632e-08
-7.33146e-08
5.10525e-08
-1.22748e-07
6.50054e-08
-1.78416e-07
7.36148e-08
-2.37911e-07
7.8691e-08
-3.00027e-07
8.20773e-08
-3.64528e-07
8.5201e-08
-4.31873e-07
8.90394e-08
-5.03021e-07
9.42706e-08
-5.79353e-07
1.0145e-07
-6.62667e-07
1.11142e-07
-7.55235e-07
1.23992e-07
-8.59854e-07
1.40743e-07
-9.79888e-07
1.62212e-07
-1.11925e-06
1.89223e-07
-1.28229e-06
2.22502e-07
-1.47355e-06
2.62485e-07
-1.69731e-06
3.0904e-07
-1.95674e-06
3.61044e-07
-2.25282e-06
4.15816e-07
-2.5827e-06
4.68476e-07
-2.93787e-06
5.11391e-07
-3.3024e-06
5.34011e-07
-3.65188e-06
5.23512e-07
-3.95387e-06
4.66559e-07
-4.17027e-06
3.52259e-07
-4.26203e-06
1.75886e-07
-4.19552e-06
-5.7443e-08
-3.94969e-06
-3.301e-07
-3.52312e-06
-6.11169e-07
-2.9397e-06
-8.58359e-07
-2.25149e-06
-1.02367e-06
-1.53637e-06
-1.06401e-06
-8.86903e-07
-9.56905e-07
-3.88611e-07
-7.17175e-07
-9.14772e-08
-4.04172e-07
1.28794e-08
-1.10499e-07
5.24223e-08
-7.44966e-09
-8.63656e-10
-3.86938e-08
3.88729e-08
-9.32174e-08
8.55868e-08
-1.66345e-07
1.2418e-07
-2.52594e-07
1.51254e-07
-3.47338e-07
1.68358e-07
-4.47453e-07
1.78806e-07
-5.51336e-07
1.85961e-07
-6.58632e-07
1.92497e-07
-7.69927e-07
2.00335e-07
-8.86542e-07
2.10886e-07
-1.01044e-06
2.25351e-07
-1.14424e-06
2.44943e-07
-1.29125e-06
2.71001e-07
-1.45551e-06
3.05003e-07
-1.64178e-06
3.48484e-07
-1.85543e-06
4.02866e-07
-2.1021e-06
4.69178e-07
-2.38724e-06
5.47625e-07
-2.71516e-06
6.36962e-07
-3.0878e-06
7.33677e-07
-3.503e-06
8.31023e-07
-3.95267e-06
9.18145e-07
-4.42095e-06
9.79668e-07
-4.88321e-06
9.96269e-07
-5.30638e-06
9.46686e-07
-5.65108e-06
8.11255e-07
-5.87537e-06
5.76546e-07
-5.93966e-06
2.40186e-07
-5.81199e-06
-1.85121e-07
-5.47305e-06
-6.69034e-07
-4.92139e-06
-1.16283e-06
-4.17872e-06
-1.60103e-06
-3.2953e-06
-1.90709e-06
-2.3529e-06
-2.00641e-06
-1.45993e-06
-1.84988e-06
-7.31168e-07
-1.44594e-06
-2.5012e-07
-8.8522e-07
-2.97639e-08
-3.30855e-07
2.26584e-08
-1.94578e-08
1.85942e-08
-7.62043e-08
9.56193e-08
-1.63503e-07
1.72886e-07
-2.73108e-07
2.33785e-07
-3.97563e-07
2.7571e-07
-5.3123e-07
3.02025e-07
-6.70504e-07
3.1808e-07
-8.1359e-07
3.29046e-07
-9.60112e-07
3.39019e-07
-1.11077e-06
3.50997e-07
-1.26715e-06
3.67265e-07
-1.43162e-06
3.8982e-07
-1.60735e-06
4.20675e-07
-1.79836e-06
4.62005e-07
-2.00947e-06
5.16116e-07
-2.24626e-06
5.85274e-07
-2.51478e-06
6.71384e-07
-2.82107e-06
7.7547e-07
-3.1704e-06
8.96952e-07
-3.5661e-06
1.03266e-06
-4.0081e-06
1.17568e-06
-4.49123e-06
1.31415e-06
-5.0036e-06
1.43051e-06
-5.52558e-06
1.50164e-06
-6.02977e-06
1.50047e-06
-6.48239e-06
1.3993e-06
-6.84568e-06
1.17455e-06
-7.08111e-06
8.11973e-07
-7.15241e-06
3.11487e-07
-7.02837e-06
-3.09164e-07
-6.68558e-06
-1.01182e-06
-6.11223e-06
-1.73617e-06
-5.31421e-06
-2.39905e-06
-4.32432e-06
-2.89698e-06
-3.21337e-06
-3.11735e-06
-2.09676e-06
-2.96649e-06
-1.12288e-06
-2.41982e-06
-4.28797e-07
-1.5793e-06
-7.29429e-08
-6.86709e-07
-5.02842e-08
-3.21635e-08
5.07578e-08
-1.16101e-07
1.79557e-07
-2.37769e-07
2.94553e-07
-3.84553e-07
3.80569e-07
-5.46661e-07
4.37817e-07
-7.17368e-07
4.72732e-07
-8.92662e-07
4.93374e-07
-1.07064e-06
5.07028e-07
-1.25096e-06
5.19337e-07
-1.43442e-06
5.3445e-07
-1.62274e-06
5.55587e-07
-1.81853e-06
5.85611e-07
-2.02527e-06
6.27414e-07
-2.24731e-06
6.84051e-07
-2.48985e-06
7.58655e-07
-2.75872e-06
8.54144e-07
-3.06004e-06
9.72705e-07
-3.39962e-06
1.11505e-06
-3.78206e-06
1.27939e-06
-4.20958e-06
1.46019e-06
-4.68068e-06
1.64678e-06
-5.18878e-06
1.82225e-06
-5.7212e-06
1.96294e-06
-6.25886e-06
2.0393e-06
-6.77678e-06
2.01839e-06
-7.24549e-06
1.86801e-06
-7.63269e-06
1.56174e-06
-7.90485e-06
1.08414e-06
-8.0284e-06
4.35034e-07
-7.97052e-06
-3.6704e-07
-7.7003e-06
-1.28205e-06
-7.19111e-06
-2.24536e-06
-6.42627e-06
-3.16389e-06
-5.41034e-06
-3.9129e-06
-4.18776e-06
-4.33993e-06
-2.86478e-06
-4.28947e-06
-1.61837e-06
-3.66623e-06
-6.58831e-07
-2.53884e-06
-1.26762e-07
-1.21878e-06
-1.77046e-07
-4.49415e-08
9.56992e-08
-1.5626e-07
2.90876e-07
-3.12099e-07
4.50392e-07
-4.9502e-07
5.6349e-07
-6.92647e-07
6.35444e-07
-8.971e-07
6.77185e-07
-1.10397e-06
7.00245e-07
-1.31129e-06
7.14347e-07
-1.51873e-06
7.26782e-07
-1.72714e-06
7.42859e-07
-1.93829e-06
7.66733e-07
-2.15482e-06
8.0214e-07
-2.38024e-06
8.52839e-07
-2.61893e-06
9.22738e-07
-2.876e-06
1.01573e-06
-3.1571e-06
1.13524e-06
-3.46798e-06
1.28359e-06
-3.81391e-06
1.46098e-06
-4.19879e-06
1.66426e-06
-4.62417e-06
1.88557e-06
-5.08823e-06
2.11085e-06
-5.58487e-06
2.31889e-06
-6.10318e-06
2.48125e-06
-6.62746e-06
2.56357e-06
-7.13772e-06
2.52865e-06
-7.61047e-06
2.34076e-06
-8.01946e-06
1.97074e-06
-8.33624e-06
1.40091e-06
-8.5303e-06
6.29103e-07
-8.56906e-06
-3.28283e-07
-8.41735e-06
-1.43377e-06
-8.03727e-06
-2.62544e-06
-7.39056e-06
-3.8106e-06
-6.44781e-06
-4.85566e-06
-5.21049e-06
-5.57725e-06
-3.74818e-06
-5.75177e-06
-2.23903e-06
-5.17539e-06
-9.67416e-07
-3.81045e-06
-2.02587e-07
-1.98361e-06
-3.79633e-07
-5.7574e-08
1.53273e-07
-1.95778e-07
4.2908e-07
-3.84614e-07
6.39227e-07
-6.01548e-07
7.80425e-07
-8.31507e-07
8.65402e-07
-1.06544e-06
9.11121e-07
-1.29858e-06
9.33383e-07
-1.5289e-06
9.44668e-07
-1.7561e-06
9.53978e-07
-1.98099e-06
9.67748e-07
-2.20526e-06
9.91006e-07
-2.43141e-06
1.02829e-06
-2.66271e-06
1.08414e-06
-2.9032e-06
1.16323e-06
-3.15757e-06
1.27009e-06
-3.4309e-06
1.40857e-06
-3.72827e-06
1.58097e-06
-4.05426e-06
1.78697e-06
-4.41221e-06
2.02221e-06
-4.8035e-06
2.27686e-06
-5.22685e-06
2.5342e-06
-5.67777e-06
2.76981e-06
-6.1483e-06
2.95178e-06
-6.62702e-06
3.04229e-06
-7.09926e-06
3.00089e-06
-7.54741e-06
2.78891e-06
-7.95127e-06
2.3746e-06
-8.28842e-06
1.73807e-06
-8.5345e-06
8.75183e-07
-8.66261e-06
-2.00175e-07
-8.64108e-06
-1.4553e-06
-8.42952e-06
-2.83699e-06
-7.97548e-06
-4.26465e-06
-7.21743e-06
-5.61371e-06
-6.10364e-06
-6.69105e-06
-4.63739e-06
-7.21802e-06
-2.95018e-06
-6.8626e-06
-1.36366e-06
-5.39697e-06
-3.08776e-07
-3.03849e-06
-6.88409e-07
-7.01446e-08
2.23418e-07
-2.34699e-07
5.93635e-07
-4.55081e-07
8.59609e-07
-7.0343e-07
1.02877e-06
-9.61955e-07
1.12393e-06
-1.22053e-06
1.1697e-06
-1.47411e-06
1.18697e-06
-1.72069e-06
1.19125e-06
-1.95998e-06
1.19327e-06
-2.19274e-06
1.2005e-06
-2.42043e-06
1.2187e-06
-2.64522e-06
1.25308e-06
-2.86989e-06
1.30881e-06
-3.09785e-06
1.39119e-06
-3.33299e-06
1.50523e-06
-3.57951e-06
1.65509e-06
-3.8416e-06
1.84306e-06
-4.12302e-06
2.06838e-06
-4.42658e-06
2.32578e-06
-4.7537e-06
2.60398e-06
-5.10393e-06
2.88443e-06
-5.47468e-06
3.14055e-06
-5.86098e-06
3.33808e-06
-6.25551e-06
3.43682e-06
-6.64853e-06
3.39391e-06
-7.02816e-06
3.16854e-06
-7.38087e-06
2.7273e-06
-7.69225e-06
2.04945e-06
-7.94767e-06
1.1306e-06
-8.1313e-06
-1.65398e-08
-8.22231e-06
-1.36428e-06
-8.18735e-06
-2.87196e-06
-7.97114e-06
-4.48085e-06
-7.49089e-06
-6.09396e-06
-6.64515e-06
-7.53679e-06
-5.35483e-06
-8.50834e-06
-3.65512e-06
-8.56231e-06
-1.8296e-06
-7.22248e-06
-4.50777e-07
-4.41731e-06
-1.13919e-06
-8.30371e-08
3.06455e-07
-2.73944e-07
7.84542e-07
-5.24718e-07
1.11038e-06
-8.01846e-07
1.3059e-06
-1.08491e-06
1.40699e-06
-1.36292e-06
1.44771e-06
-1.63078e-06
1.45483e-06
-1.88664e-06
1.44711e-06
-2.13031e-06
1.43694e-06
-2.36245e-06
1.43264e-06
-2.58426e-06
1.44051e-06
-2.79738e-06
1.4662e-06
-3.00389e-06
1.51532e-06
-3.20627e-06
1.59357e-06
-3.40735e-06
1.70631e-06
-3.61016e-06
1.8579e-06
-3.81772e-06
2.05063e-06
-4.03281e-06
2.28347e-06
-4.25765e-06
2.55061e-06
-4.4936e-06
2.83993e-06
-4.74102e-06
3.13185e-06
-4.99903e-06
3.39857e-06
-5.26551e-06
3.60456e-06
-5.53698e-06
3.70829e-06
-5.80873e-06
3.66566e-06
-6.07508e-06
3.4349e-06
-6.33023e-06
2.98245e-06
-6.56927e-06
2.28849e-06
-6.78891e-06
1.35023e-06
-6.98633e-06
1.80885e-07
-7.15469e-06
-1.19592e-06
-7.27393e-06
-2.75273e-06
-7.29739e-06
-4.45739e-06
-7.13781e-06
-6.25354e-06
-6.66243e-06
-8.01217e-06
-5.71723e-06
-9.45354e-06
-4.21401e-06
-1.00655e-05
-2.31281e-06
-9.12369e-06
-6.30838e-07
-6.09928e-06
-1.77002e-06
-9.70165e-08
4.03471e-07
-3.15401e-07
1.00293e-06
-5.96155e-07
1.39114e-06
-8.99622e-07
1.60937e-06
-1.20296e-06
1.71032e-06
-1.49478e-06
1.73953e-06
-1.77033e-06
1.73038e-06
-2.02819e-06
1.70497e-06
-2.26842e-06
1.67717e-06
-2.49165e-06
1.65587e-06
-2.69879e-06
1.64765e-06
-2.8909e-06
1.6583e-06
-3.06917e-06
1.69359e-06
-3.23497e-06
1.75937e-06
-3.38981e-06
1.86115e-06
-3.5353e-06
2.00339e-06
-3.6731e-06
2.18843e-06
-3.80481e-06
2.41518e-06
-3.93188e-06
2.67768e-06
-4.05556e-06
2.96362e-06
-4.17688e-06
3.25317e-06
-4.29669e-06
3.51838e-06
-4.41574e-06
3.7236e-06
-4.53473e-06
3.82729e-06
-4.65459e-06
3.78551e-06
-4.77677e-06
3.55708e-06
-4.90399e-06
3.10967e-06
-5.04098e-06
2.42547e-06
-5.19476e-06
1.50402e-06
-5.37348e-06
3.59599e-07
-5.58231e-06
-9.87086e-07
-5.81523e-06
-2.51981e-06
-6.0411e-06
-4.23152e-06
-6.18473e-06
-6.10991e-06
-6.10852e-06
-8.08839e-06
-5.61252e-06
-9.94954e-06
-4.49353e-06
-1.11845e-05
-2.73196e-06
-1.08853e-05
-8.45183e-07
-7.98606e-06
-2.61521e-06
-1.13422e-07
5.16893e-07
-3.62214e-07
1.25172e-06
-6.73593e-07
1.70252e-06
-1.00106e-06
1.93684e-06
-1.31987e-06
2.02913e-06
-1.619e-06
2.03867e-06
-1.89472e-06
2.0061e-06
-2.1465e-06
1.95675e-06
-2.37493e-06
1.90559e-06
-2.58081e-06
1.86175e-06
-2.76482e-06
1.83166e-06
-2.92746e-06
1.82094e-06
-3.06904e-06
1.83517e-06
-3.18972e-06
1.88005e-06
-3.28956e-06
1.96099e-06
-3.36862e-06
2.08245e-06
-3.427e-06
2.24681e-06
-3.465e-06
2.45318e-06
-3.4832e-06
2.69587e-06
-3.48266e-06
2.96307e-06
-3.46512e-06
3.23564e-06
-3.43331e-06
3.48657e-06
-3.39117e-06
3.68146e-06
-3.34418e-06
3.78029e-06
-3.29955e-06
3.74089e-06
-3.26654e-06
3.52406e-06
-3.25649e-06
3.09962e-06
-3.28285e-06
2.45183e-06
-3.36052e-06
1.58169e-06
-3.50449e-06
5.03568e-07
-3.72693e-06
-7.64649e-07
-4.0316e-06
-2.21513e-06
-4.4032e-06
-3.85993e-06
-4.78859e-06
-5.72451e-06
-5.07007e-06
-7.80691e-06
-5.04066e-06
-9.97894e-06
-4.41995e-06
-1.18052e-05
-3.00199e-06
-1.23032e-05
-1.07835e-06
-9.9097e-06
-3.69356e-06
-1.34562e-07
6.51456e-07
-4.19388e-07
1.53655e-06
-7.63176e-07
2.0463e-06
-1.11183e-06
2.28549e-06
-1.43981e-06
2.35711e-06
-1.73785e-06
2.33671e-06
-2.00425e-06
2.2725e-06
-2.24004e-06
2.19254e-06
-2.44678e-06
2.11234e-06
-2.62575e-06
2.04072e-06
-2.77767e-06
1.98358e-06
-2.90266e-06
1.94593e-06
-3.00029e-06
1.9328e-06
-3.06962e-06
1.94938e-06
-3.10934e-06
2.00071e-06
-3.11793e-06
2.09104e-06
-3.09392e-06
2.2228e-06
-3.0362e-06
2.39546e-06
-2.9444e-06
2.60408e-06
-2.81933e-06
2.838e-06
-2.66344e-06
3.07975e-06
-2.48138e-06
3.30451e-06
-2.28048e-06
3.48056e-06
-2.07112e-06
3.57093e-06
-1.86699e-06
3.53676e-06
-1.68491e-06
3.34198e-06
-1.54422e-06
2.95894e-06
-1.46562e-06
2.37323e-06
-1.46947e-06
1.58554e-06
-1.57399e-06
6.08088e-07
-1.79341e-06
-5.45231e-07
-2.13551e-06
-1.87303e-06
-2.59615e-06
-3.39929e-06
-3.1458e-06
-5.17486e-06
-3.70205e-06
-7.25067e-06
-4.08673e-06
-9.59426e-06
-3.99321e-06
-1.18987e-05
-3.06355e-06
-1.32329e-05
-1.29998e-06
-1.16733e-05
-4.99354e-06
-1.64544e-07
8.16e-07
-4.94941e-07
1.86694e-06
-8.73652e-07
2.42501e-06
-1.23868e-06
2.65052e-06
-1.56613e-06
2.68456e-06
-1.85077e-06
2.62135e-06
-2.0944e-06
2.51613e-06
-2.30051e-06
2.39864e-06
-2.47224e-06
2.28407e-06
-2.61182e-06
2.1803e-06
-2.72041e-06
2.09217e-06
-2.79817e-06
2.0237e-06
-2.8443e-06
1.97893e-06
-2.8571e-06
1.96218e-06
-2.83419e-06
1.9778e-06
-2.77271e-06
2.02955e-06
-2.66973e-06
2.11983e-06
-2.52276e-06
2.24849e-06
-2.33036e-06
2.41167e-06
-2.09284e-06
2.60048e-06
-1.81308e-06
2.79998e-06
-1.49726e-06
2.98869e-06
-1.15556e-06
3.13886e-06
-8.0267e-07
3.21804e-06
-4.57783e-07
3.19187e-06
-1.44091e-07
3.02829e-06
1.12596e-07
2.70225e-06
2.86012e-07
2.19981e-06
3.52056e-07
1.5195e-06
2.91122e-07
6.69022e-07
8.93677e-08
-3.43477e-07
-2.61229e-07
-1.52243e-06
-7.62409e-07
-2.89811e-06
-1.40388e-06
-4.53339e-06
-2.1426e-06
-6.51194e-06
-2.85353e-06
-8.88333e-06
-3.25409e-06
-1.14982e-05
-2.89038e-06
-1.35966e-05
-1.46862e-06
-1.3095e-05
-6.46215e-06
-2.10993e-07
1.02699e-06
-6.01984e-07
2.25793e-06
-1.01715e-06
2.84018e-06
-1.38832e-06
3.0217e-06
-1.69832e-06
2.99456e-06
-1.94957e-06
2.8726e-06
-2.14938e-06
2.71594e-06
-2.30483e-06
2.5541e-06
-2.42142e-06
2.40066e-06
-2.50294e-06
2.26181e-06
-2.55158e-06
2.14081e-06
-2.56811e-06
2.04023e-06
-2.55193e-06
1.96275e-06
-2.50118e-06
1.91144e-06
-2.41294e-06
1.88956e-06
-2.28349e-06
1.9001e-06
-2.1088e-06
1.94513e-06
-1.88512e-06
2.02481e-06
-1.60984e-06
2.13639e-06
-1.2824e-06
2.27304e-06
-9.05346e-07
2.42293e-06
-4.85364e-07
2.56871e-06
-3.41253e-08
2.68763e-06
4.31173e-07
2.75274e-06
8.8786e-07
2.73519e-06
1.30867e-06
2.60748e-06
1.66361e-06
2.34731e-06
1.92272e-06
1.9407e-06
2.05928e-06
1.38294e-06
2.05243e-06
6.75873e-07
1.88821e-06
-1.7926e-07
1.55836e-06
-1.19258e-06
1.05747e-06
-2.39723e-06
3.82068e-07
-3.85798e-06
-4.59415e-07
-5.67046e-06
-1.40463e-06
-7.93812e-06
-2.23633e-06
-1.06665e-05
-2.46884e-06
-1.33641e-05
-1.53871e-06
-1.40252e-05
-8.00086e-06
-2.88605e-07
1.3156e-06
-7.62141e-07
2.73147e-06
-1.2089e-06
3.28693e-06
-1.56269e-06
3.37548e-06
-1.8232e-06
3.25506e-06
-2.00599e-06
3.05539e-06
-2.12648e-06
2.83643e-06
-2.19675e-06
2.62437e-06
-2.22559e-06
2.4295e-06
-2.2191e-06
2.25531e-06
-2.18115e-06
2.10287e-06
-2.11372e-06
1.9728e-06
-2.01702e-06
1.86604e-06
-1.88964e-06
1.78406e-06
-1.72876e-06
1.72868e-06
-1.53042e-06
1.70177e-06
-1.28999e-06
1.7047e-06
-1.00283e-06
1.73765e-06
-6.65158e-07
1.79872e-06
-2.75131e-07
1.88301e-06
1.6594e-07
1.98186e-06
6.52385e-07
2.08226e-06
1.17313e-06
2.16688e-06
1.71105e-06
2.21482e-06
2.24301e-06
2.20322e-06
2.74081e-06
2.10968e-06
3.17315e-06
1.91497e-06
3.50853e-06
1.60532e-06
3.71844e-06
1.17303e-06
3.77994e-06
6.14371e-07
3.6765e-06
-7.58197e-08
3.39634e-06
-9.12418e-07
2.92841e-06
-1.92929e-06
2.25797e-06
-3.18755e-06
1.36742e-06
-4.77991e-06
2.6149e-07
-6.83219e-06
-9.33777e-07
-9.47123e-06
-1.76824e-06
-1.25296e-05
-1.46204e-06
-1.43314e-05
-9.46291e-06
-4.26146e-07
1.74174e-06
-1.00945e-06
3.31477e-06
-1.45969e-06
3.73717e-06
-1.73988e-06
3.65568e-06
-1.88609e-06
3.40128e-06
-1.93498e-06
3.10428e-06
-1.9134e-06
2.81485e-06
-1.84014e-06
2.5511e-06
-1.72825e-06
2.31761e-06
-1.58665e-06
2.11371e-06
-1.42114e-06
1.93736e-06
-1.23501e-06
1.78666e-06
-1.02939e-06
1.66043e-06
-8.03529e-07
1.5582e-06
-5.55001e-07
1.48015e-06
-2.79994e-07
1.42676e-06
2.62814e-08
1.39843e-06
3.68999e-07
1.39494e-06
7.52909e-07
1.41481e-06
1.1813e-06
1.45462e-06
1.65479e-06
1.50837e-06
2.17005e-06
1.567e-06
2.71865e-06
1.61829e-06
3.28624e-06
1.64723e-06
3.85242e-06
1.63705e-06
4.3914e-06
1.5707e-06
4.87369e-06
1.43268e-06
5.26853e-06
1.21048e-06
5.5466e-06
8.94965e-07
5.68209e-06
4.78882e-07
5.65316e-06
-4.68904e-08
5.4402e-06
-6.99456e-07
5.02176e-06
-1.51086e-06
4.37001e-06
-2.53579e-06
3.44757e-06
-3.85747e-06
2.21694e-06
-5.60156e-06
7.09403e-07
-7.9637e-06
-7.22857e-07
-1.10973e-05
-1.17356e-06
-1.38807e-05
-1.06365e-05
-6.79805e-07
2.42155e-06
-1.38125e-06
4.01622e-06
-1.72802e-06
4.08394e-06
-1.79473e-06
3.72239e-06
-1.68939e-06
3.29594e-06
-1.48059e-06
2.89548e-06
-1.20921e-06
2.54347e-06
-9.00827e-07
2.24272e-06
-5.71786e-07
1.98857e-06
-2.32265e-07
1.77419e-06
1.11748e-07
1.59334e-06
4.57233e-07
1.44118e-06
8.03447e-07
1.31421e-06
1.15152e-06
1.21013e-06
1.50419e-06
1.12748e-06
1.86552e-06
1.06543e-06
2.2406e-06
1.02335e-06
2.63506e-06
1.00048e-06
3.05445e-06
9.95415e-07
3.50339e-06
1.00568e-06
3.98453e-06
1.02723e-06
4.49736e-06
1.05417e-06
5.03713e-06
1.07852e-06
5.59389e-06
1.09047e-06
6.1521e-06
1.07884e-06
6.69086e-06
1.03193e-06
7.18494e-06
9.38603e-07
7.6064e-06
7.89021e-07
7.92641e-06
5.74949e-07
8.1166e-06
2.88697e-07
8.1488e-06
-7.9089e-08
7.99313e-06
-5.43792e-07
7.61384e-06
-1.13157e-06
6.96535e-06
-1.8873e-06
5.98937e-06
-2.88149e-06
4.61948e-06
-4.23166e-06
2.80893e-06
-6.15315e-06
7.69502e-07
-9.05792e-06
-5.79518e-07
-1.25316e-05
-1.1216e-05
-1.15342e-06
3.57497e-06
-1.78374e-06
4.64654e-06
-1.65533e-06
3.95553e-06
-1.16792e-06
3.23497e-06
-5.49494e-07
2.67752e-06
1.09251e-07
2.23673e-06
7.69348e-07
1.88337e-06
1.41059e-06
1.60148e-06
2.02306e-06
1.37609e-06
2.60312e-06
1.19413e-06
3.15059e-06
1.04588e-06
3.66727e-06
9.24499e-07
4.15626e-06
8.25222e-07
4.62168e-06
7.44712e-07
5.06848e-06
6.8068e-07
5.50236e-06
6.3155e-07
5.92955e-06
5.96154e-07
6.35661e-06
5.73426e-07
6.78992e-06
5.62101e-07
7.23518e-06
5.60419e-07
7.69656e-06
5.65852e-07
8.17583e-06
5.74893e-07
8.6714e-06
5.82957e-07
9.17743e-06
5.8444e-07
9.6833e-06
5.72971e-07
1.01734e-05
5.41817e-07
1.06276e-05
4.84404e-07
1.1022e-05
3.94673e-07
1.13296e-05
2.67262e-07
1.15215e-05
9.68313e-08
1.15653e-05
-1.2286e-07
1.14232e-05
-4.01755e-07
1.10473e-05
-7.55616e-07
1.03735e-05
-1.21353e-06
9.31655e-06
-1.82451e-06
7.77497e-06
-2.69008e-06
5.63533e-06
-4.0135e-06
2.92644e-06
-6.34904e-06
4.56736e-07
-1.00619e-05
-1.07593e-05
-1.72564e-06
5.30061e-06
-8.88632e-07
3.80954e-06
7.13463e-07
2.35343e-06
2.21676e-06
1.73167e-06
3.54412e-06
1.35016e-06
4.72154e-06
1.05931e-06
5.7643e-06
8.40613e-07
6.6864e-06
6.79383e-07
7.50367e-06
5.58827e-07
8.23127e-06
4.66533e-07
8.88249e-06
3.94649e-07
9.46887e-06
3.38127e-07
1.00005e-05
2.93541e-07
1.04867e-05
2.58518e-07
1.0936e-05
2.3142e-07
1.13564e-05
2.11107e-07
1.17559e-05
1.96736e-07
1.21417e-05
1.87599e-07
1.25208e-05
1.82969e-07
1.28993e-05
1.81974e-07
1.32816e-05
1.83482e-07
1.36705e-05
1.86019e-07
1.40657e-05
1.87739e-07
1.44637e-05
1.86444e-07
1.4857e-05
1.79694e-07
1.52339e-05
1.6495e-07
1.55785e-05
1.39788e-07
1.58712e-05
1.01997e-07
1.60887e-05
4.96816e-08
1.62047e-05
-1.90831e-08
1.61882e-05
-1.06397e-07
1.60023e-05
-2.15815e-07
1.55989e-05
-3.52288e-07
1.49115e-05
-5.26115e-07
1.38415e-05
-7.54465e-07
1.22409e-05
-1.08954e-06
9.8981e-06
-1.67069e-06
6.5445e-06
-2.99544e-06
2.42177e-06
-5.93919e-06
-8.33749e-06
5.30061e-06
9.11015e-06
1.14636e-05
1.31953e-05
1.45454e-05
1.56047e-05
1.64453e-05
1.71247e-05
1.76835e-05
1.81501e-05
1.85447e-05
1.88829e-05
1.91764e-05
1.94349e-05
1.96663e-05
1.98774e-05
2.00742e-05
2.02618e-05
2.04447e-05
2.06267e-05
2.08102e-05
2.09962e-05
2.1184e-05
2.13704e-05
2.15501e-05
2.1715e-05
2.18548e-05
2.19568e-05
2.20065e-05
2.19874e-05
2.1881e-05
2.16652e-05
2.13129e-05
2.07868e-05
2.00323e-05
1.89428e-05
1.72721e-05
1.42767e-05
8.33749e-06
)
;

boundaryField
{
    movingWall
    {
        type            calculated;
        value           uniform 0;
    }
    fixedWalls
    {
        type            calculated;
        value           uniform 0;
    }
    frontAndBack
    {
        type            empty;
        value           nonuniform 0();
    }
}


// ************************************************************************* //
