1.45 	0 	0 	-0.308128
2.35 	0 	0 	-0.125508
