1.45 	0 	0 	-0.291406
2.35 	0 	0 	-0.12666
