/*--------------------------------*- C++ -*----------------------------------*\
  =========                 |
  \\      /  F ield         | OpenFOAM: The Open Source CFD Toolbox
   \\    /   O peration     | Website:  https://openfoam.org
    \\  /    A nd           | Version:  6.0
     \\/     M anipulation  |
\*---------------------------------------------------------------------------*/
FoamFile
{
    version     2.0;
    format      ascii;
    class       surfaceScalarField;
    location    "1.5";
    object      phi;
}
// * * * * * * * * * * * * * * * * * * * * * * * * * * * * * * * * * * * * * //

dimensions      [1 0 -1 0 0 0 0];

internalField   nonuniform List<scalar> 
8300
(
0.000641966
1.03543e-08
0.000200696
0.000568579
2.88075e-08
7.33674e-05
0.000529639
8.48094e-08
3.88424e-05
0.000467033
1.64608e-07
6.24275e-05
0.000384765
2.8257e-07
8.19451e-05
0.000265162
3.69762e-07
0.000119413
0.000417638
3.07051e-06
-0.000158453
0.000318808
1.20576e-05
8.87064e-05
0.000342754
9.61009e-05
-0.000119953
7.66361e-05
0.000264603
0.000641945
4.72902e-08
0.000200687
0.000568544
5.40341e-08
7.33808e-05
0.00052967
2.03198e-07
3.87525e-05
0.000466986
4.05169e-07
6.24328e-05
0.000384069
8.23414e-07
8.23847e-05
0.000266747
2.30548e-06
0.000115172
0.000419018
5.92112e-06
-0.000153503
0.00031159
1.09176e-05
0.000108246
0.000344114
0.00012671
-6.66849e-05
0.000182243
0.000233762
0.000642111
6.84767e-08
0.000200524
0.00056846
9.37775e-08
7.36225e-05
0.000530003
3.27305e-07
3.83272e-05
0.000467501
6.54355e-07
6.22498e-05
0.000385205
1.27432e-06
8.18253e-05
0.000267591
2.89584e-06
0.000117048
0.000419491
9.4257e-06
-0.000153854
0.000309623
2.38741e-05
9.50627e-05
0.000333699
0.000183254
-8.30739e-05
0.00028826
0.000226959
0.000642282
1.0963e-07
0.000200338
0.000568343
1.33667e-07
7.39105e-05
0.000530444
5.02238e-07
3.77203e-05
0.00046801
1.00868e-06
6.20739e-05
0.000385457
2.0071e-06
8.18085e-05
0.000268194
4.83324e-06
0.000115328
0.000414102
1.45027e-05
-0.000149792
0.000308021
3.91247e-05
8.94164e-05
0.000309472
0.000294365
-0.000113306
0.000409797
0.000189377
0.000642618
1.55743e-07
0.000200014
0.000568155
1.94203e-07
7.44072e-05
0.000531241
7.2397e-07
3.66915e-05
0.000469038
1.44412e-06
6.1758e-05
0.000387094
2.79534e-06
8.11535e-05
0.000267176
6.41394e-06
0.000118301
0.000408852
1.90503e-05
-0.000146691
0.000303964
5.01786e-05
9.472e-05
0.000300788
0.000402693
-0.000105995
0.000547841
0.000163988
0.00064304
2.1895e-07
0.000199579
0.000567881
3.02105e-07
7.50557e-05
0.000532221
1.07257e-06
3.53104e-05
0.00047016
2.04403e-06
6.14503e-05
0.000388074
3.78378e-06
8.11005e-05
0.000268578
8.4045e-06
0.000117401
0.00040785
2.48981e-05
-0.000145018
0.000301928
6.23452e-05
9.47401e-05
0.000290765
0.000524567
-0.000112169
0.000700563
0.000138207
0.00064347
3.29097e-07
0.000199104
0.000567478
5.34276e-07
7.57679e-05
0.000533201
1.49609e-06
3.3847e-05
0.000471456
2.72982e-06
6.10491e-05
0.000389545
4.8435e-06
8.08393e-05
0.000271671
1.05117e-05
0.000115701
0.00040482
3.23618e-05
-0.000139664
0.000299616
7.9049e-05
8.78382e-05
0.000282424
0.000662009
-0.000122426
0.00087244
0.000110045
0.000643587
4.46318e-07
0.000198992
0.00056687
7.58429e-07
7.64932e-05
0.000533779
2.01645e-06
3.25625e-05
0.000473038
3.60108e-06
5.98575e-05
0.000392662
6.26431e-06
7.89334e-05
0.000274802
1.33263e-05
0.000115039
0.000388931
4.16067e-05
-0.000123405
0.000296119
0.000105812
6.54388e-05
0.000274118
0.000816808
-0.000134981
0.00106821
7.69079e-05
0.000643623
5.72144e-07
0.000198961
0.00056603
9.65881e-07
7.73821e-05
0.000534352
2.56709e-06
3.11155e-05
0.000475061
4.58997e-06
5.82852e-05
0.000396722
8.01309e-06
7.65674e-05
0.000281124
1.72368e-05
0.000111649
0.000372059
5.40651e-05
-0.000103268
0.000292904
0.000140542
4.39089e-05
0.000267656
0.000991018
-0.00015099
0.0013057
2.85315e-05
0.000643708
0.000198858
7.3228e-07
0.000564963
7.85855e-05
1.11886e-06
0.000535217
2.91854e-05
3.10771e-06
0.000478114
5.62169e-05
5.4555e-06
0.000402901
7.35537e-05
9.64486e-06
0.000293974
0.000105188
2.09216e-05
0.000354664
-7.81677e-05
7.17156e-05
0.000293024
1.84208e-05
0.000183244
0.000259391
-0.00018686
0.00120966
-6.184e-05
0.0016249
0.000902957
2.27e-08
0.000137271
0.000859057
7.7711e-08
0.000117186
0.000787301
1.99288e-07
0.000110392
0.000756016
4.70363e-07
9.32296e-05
0.000753953
1.08137e-06
8.2904e-05
0.000785588
2.76279e-06
8.50309e-05
0.000559828
7.44351e-06
5.99494e-05
0.000594924
2.66675e-05
2.77921e-05
-0.000103578
0.000321919
0.000253347
0.000167203
-8.93257e-06
0.000902937
7.4603e-08
0.00013725
0.000859056
1.78525e-07
0.000117156
0.000787209
4.20338e-07
0.000110371
0.000756012
9.58316e-07
9.31307e-05
0.000754681
2.1561e-06
8.26319e-05
0.000783668
4.92185e-06
8.39101e-05
0.000566785
1.27789e-05
5.77102e-05
0.000627625
5.02041e-05
2.34336e-05
0.000376701
0.000394287
0.000109492
0.000599807
0.000176694
0.000902856
1.07915e-07
0.000137181
0.000859291
2.81508e-07
0.000117076
0.000786953
6.76535e-07
0.000110399
0.000755575
1.54978e-06
9.3027e-05
0.000753664
3.46593e-06
8.23655e-05
0.000783905
8.09085e-06
8.36979e-05
0.000564564
2.04986e-05
5.81006e-05
0.00062283
7.25296e-05
1.44015e-05
0.00023699
0.000636441
5.79123e-05
0.000960967
0.000102115
0.000902747
1.68474e-07
0.00013708
0.000859517
4.27771e-07
0.000116986
0.000786404
1.02329e-06
0.000110478
0.000754815
2.32386e-06
9.28786e-05
0.000752923
5.14378e-06
8.19807e-05
0.000781715
1.17015e-05
8.29543e-05
0.000564577
3.00519e-05
5.80221e-05
0.000615101
0.000100735
1.07945e-05
0.000225075
0.000899513
1.0584e-05
0.00130046
7.43041e-05
0.00090257
2.51038e-07
0.000136917
0.000859878
6.50416e-07
0.000116871
0.000785436
1.52359e-06
0.000110626
0.000753475
3.35654e-06
9.26735e-05
0.000751092
7.24551e-06
8.14325e-05
0.00078224
1.64431e-05
8.23396e-05
0.000566164
4.17118e-05
5.75366e-05
0.000612217
0.000138356
1.14742e-05
0.00024735
0.00118034
-2.56684e-05
0.00166654
4.40491e-05
0.000902305
4.08009e-07
0.000136674
0.000860172
1.07189e-06
0.000116762
0.000783807
2.31136e-06
0.000110877
0.000751532
4.72441e-06
9.23408e-05
0.000749494
9.81331e-06
8.05653e-05
0.00078032
2.19585e-05
8.09533e-05
0.000564032
5.58024e-05
5.68593e-05
0.000604784
0.000182314
1.0191e-05
0.00025077
0.00147587
-5.76287e-05
0.0020385
1.4449e-05
0.000901885
9.21793e-07
0.000136265
0.000860075
1.93304e-06
0.000116709
0.00078209
3.43284e-06
0.000110699
0.000749748
6.33556e-06
9.17628e-05
0.000748058
1.27357e-05
7.95751e-05
0.000777929
2.83205e-05
7.94122e-05
0.000564602
7.273e-05
5.66597e-05
0.000596515
0.000233422
4.74675e-06
0.000249064
0.00178477
-8.75621e-05
0.00240875
-1.43696e-05
0.000903062
1.2864e-06
0.00013513
0.000862453
2.70037e-06
0.000116323
0.000784148
4.66158e-06
0.000109626
0.000751049
8.29696e-06
9.09767e-05
0.000747664
1.63454e-05
7.86726e-05
0.000776653
3.63871e-05
7.7936e-05
0.000574728
9.45284e-05
5.67547e-05
0.000591337
0.000288978
-6.59638e-06
0.000254867
0.00210162
-0.000118458
0.00278436
-4.79533e-05
0.000904639
1.60045e-06
0.000133581
0.000865545
3.35815e-06
0.000115804
0.000787476
5.78338e-06
0.000108046
0.000753909
1.02649e-05
8.98604e-05
0.000749151
2.02215e-05
7.74113e-05
0.000776303
4.5388e-05
7.54177e-05
0.000592873
0.000119963
5.46715e-05
0.000592667
0.000351364
-1.82722e-05
0.000273796
0.00241482
-0.000148154
0.0031653
-8.27165e-05
0.000906444
0.000131701
1.89939e-06
0.000869407
0.000115136
3.82795e-06
0.00079176
0.000106066
6.52958e-06
0.000758142
8.84404e-05
1.16311e-05
0.000753502
7.5717e-05
2.26518e-05
0.000782638
7.15367e-05
4.98037e-05
0.00064455
4.88858e-05
0.000130859
0.000607199
-3.95881e-05
0.000446979
0.000309553
-0.000181503
0.0027043
-0.000123744
0.00353225
0.000915011
1.08293e-08
6.16826e-05
0.000953015
6.7723e-08
7.91113e-05
0.000982859
2.04057e-07
8.0339e-05
0.000997935
5.06418e-07
7.76373e-05
0.000996385
1.2293e-06
8.32063e-05
0.000991284
3.15183e-06
8.69469e-05
0.000953066
8.86269e-06
8.92176e-05
0.000903107
3.4507e-05
4.3304e-05
0.000824309
0.000298853
2.76785e-05
0.000407163
0.000404915
0.00091499
2.66604e-08
6.1677e-05
0.000952957
1.57e-07
7.90965e-05
0.000982802
4.28536e-07
8.0295e-05
0.000997871
1.02877e-06
7.75287e-05
0.000996251
2.4602e-06
8.30003e-05
0.000990448
6.23047e-06
8.65869e-05
0.000951143
1.7537e-05
8.83193e-05
0.000903177
6.7621e-05
3.83189e-05
0.000721354
0.000597606
-1.29703e-05
0.00105918
0.000242596
0.000914934
3.67517e-08
6.16691e-05
0.000952823
2.62294e-07
7.90764e-05
0.000982891
7.10173e-07
8.00415e-05
0.000997897
1.67579e-06
7.73623e-05
0.000995935
3.96119e-06
8.28008e-05
0.000989811
9.97284e-06
8.60582e-05
0.000950744
2.78111e-05
8.7002e-05
0.000897991
0.000102565
3.21134e-05
0.000616156
0.000992405
-6.07574e-05
0.00154457
0.000229598
0.00091484
5.45304e-08
6.16551e-05
0.000952601
4.25361e-07
7.90563e-05
0.000983059
1.10732e-06
7.96148e-05
0.00099799
2.51638e-06
7.70941e-05
0.0009956
5.80109e-06
8.25042e-05
0.000988647
1.44185e-05
8.54291e-05
0.000948938
4.00586e-05
8.55269e-05
0.000891104
0.000143912
2.7186e-05
0.000603889
0.00138778
-0.000103664
0.00203883
0.000181092
0.000914683
8.86064e-08
6.16349e-05
0.000952244
6.98583e-07
7.90318e-05
0.000983317
1.69329e-06
7.89594e-05
0.00099824
3.55321e-06
7.6698e-05
0.000995324
7.99745e-06
8.21249e-05
0.000987626
1.97986e-05
8.45989e-05
0.00094606
5.50818e-05
8.39931e-05
0.000882449
0.000195071
2.38504e-05
0.000580935
0.00178228
-0.000124906
0.00251995
0.000141228
0.000914424
1.80957e-07
6.15931e-05
0.000951685
1.19726e-06
7.89956e-05
0.000984111
2.23721e-06
7.78972e-05
0.000999284
4.61971e-06
7.60835e-05
0.000995708
1.05151e-05
8.15916e-05
0.000986535
2.62903e-05
8.35651e-05
0.000942828
7.36141e-05
8.19449e-05
0.000874295
0.000253947
1.97654e-05
0.000552846
0.00218731
-0.000147311
0.00297612
0.000108527
0.000913969
4.33834e-07
6.14789e-05
0.000950973
1.98427e-06
7.89064e-05
0.000984104
2.91096e-06
7.68895e-05
0.000999167
5.87487e-06
7.54267e-05
0.000994968
1.34699e-05
8.07772e-05
0.000984594
3.39725e-05
8.20249e-05
0.000940192
9.57341e-05
7.88802e-05
0.000864564
0.000320112
1.40753e-05
0.00053494
0.00259129
-0.000167902
0.00341888
7.54166e-05
0.000913153
6.36638e-07
6.12117e-05
0.000950054
2.71428e-06
7.86766e-05
0.00098271
3.80409e-06
7.60723e-05
0.000997317
7.42995e-06
7.47941e-05
0.000992948
1.69663e-05
7.94962e-05
0.000982076
4.29251e-05
7.97631e-05
0.000938408
0.000121494
7.45751e-05
0.000855754
0.000389449
6.48524e-06
0.000514978
0.00299775
-0.000189835
0.00383821
4.52041e-05
0.000912042
8.00895e-07
6.08154e-05
0.000948881
3.30853e-06
7.83523e-05
0.000981053
4.60615e-06
7.50688e-05
0.0009953
9.03805e-06
7.39825e-05
0.000991122
2.06837e-05
7.78146e-05
0.000980099
5.23743e-05
7.68786e-05
0.000937605
0.00014932
6.91939e-05
0.000847576
0.000462936
-1.99285e-06
0.000515392
0.0033896
-0.000213425
0.00425907
9.61743e-06
0.000910692
6.03242e-05
9.28648e-07
0.000947491
7.79393e-05
3.6853e-06
0.000979118
7.39013e-05
5.14226e-06
0.0009933
7.30254e-05
1.02453e-05
0.000990642
7.57875e-05
2.32052e-05
0.000983352
7.3389e-05
5.76773e-05
0.000954535
6.25432e-05
0.000164286
0.000850304
-1.29304e-05
0.000540153
0.00050531
-0.000233116
0.00378088
-3.97599e-05
0.00467772
0.000887807
3.23672e-09
1.35468e-05
0.00092282
5.17638e-08
4.40449e-05
0.000959975
1.58941e-07
4.30209e-05
0.000985511
4.15675e-07
5.16779e-05
0.00102037
1.12493e-06
4.72066e-05
0.00105642
3.10944e-06
4.77554e-05
0.0010824
9.19665e-06
5.40147e-05
0.00105569
3.7251e-05
3.26524e-05
0.000779373
0.000315426
-1.93485e-05
0.000834812
0.000345067
0.000887789
4.40235e-09
1.35618e-05
0.000922769
1.25671e-07
4.40389e-05
0.000960049
2.82099e-07
4.28905e-05
0.000985577
8.29619e-07
5.15784e-05
0.00102024
2.3236e-06
4.71137e-05
0.00105576
6.47288e-06
4.76621e-05
0.00108059
1.91911e-05
5.34816e-05
0.00104952
7.67286e-05
2.96965e-05
0.000613234
0.000773068
-4.22076e-05
0.00148549
0.000200919
0.000887734
4.99918e-09
1.36087e-05
0.000922689
2.25431e-07
4.40173e-05
0.000959768
4.80983e-07
4.27633e-05
0.000985231
1.34781e-06
5.13713e-05
0.00101972
3.72336e-06
4.68847e-05
0.00105449
1.03168e-05
4.73974e-05
0.00107767
3.05588e-05
5.24423e-05
0.00103654
0.000123095
2.65764e-05
0.000535834
0.00127414
-6.89308e-05
0.00209067
0.000156308
0.000887634
7.0191e-09
1.36938e-05
0.000922549
3.8538e-07
4.3976e-05
0.000959323
7.72519e-07
4.25489e-05
0.000984707
2.01244e-06
5.10344e-05
0.00101898
5.40477e-06
4.65264e-05
0.00105278
1.48474e-05
4.70368e-05
0.00107346
4.40179e-05
5.13528e-05
0.00102372
0.00017624
2.34378e-05
0.00053387
0.00174075
-8.79629e-05
0.00266514
0.000136767
0.000887462
1.70339e-08
1.38388e-05
0.000922316
6.54334e-07
4.39025e-05
0.000958685
1.16268e-06
4.21985e-05
0.000984086
2.77318e-06
5.05233e-05
0.00101827
7.31995e-06
4.59973e-05
0.001051
2.01482e-05
4.65012e-05
0.0010684
6.01051e-05
5.04562e-05
0.00101116
0.000236311
2.07397e-05
0.000517067
0.00220618
-0.000103795
0.0032015
0.000118552
0.000887172
4.91411e-08
1.40655e-05
0.000921957
1.09023e-06
4.37662e-05
0.000957851
1.47563e-06
4.16877e-05
0.000983472
3.42962e-06
4.97926e-05
0.00101778
9.33298e-06
4.52328e-05
0.00104935
2.63093e-05
4.57727e-05
0.00106271
7.94483e-05
4.91831e-05
0.00099768
0.000303431
1.73602e-05
0.000497809
0.00266998
-0.000118631
0.00370636
9.80918e-05
0.000886688
1.20873e-07
1.43963e-05
0.00092152
1.66298e-06
4.34884e-05
0.000956964
1.79064e-06
4.11329e-05
0.000982827
4.09908e-06
4.88831e-05
0.00101698
1.15879e-05
4.43334e-05
0.00104698
3.34708e-05
4.47777e-05
0.00105582
0.000102136
4.72676e-05
0.000982137
0.000377097
1.37177e-05
0.000481026
0.00312865
-0.000132802
0.00417513
8.45079e-05
0.000885946
1.85778e-07
1.488e-05
0.000921029
2.20182e-06
4.30368e-05
0.000956112
2.20288e-06
4.05817e-05
0.000982397
4.97887e-06
4.76179e-05
0.00101577
1.4305e-05
4.33676e-05
0.00104366
4.17451e-05
4.35003e-05
0.0010476
0.000127971
4.46759e-05
0.000966715
0.000454232
9.79036e-06
0.000463155
0.00357737
-0.000142165
0.00461432
6.60631e-05
0.000884962
2.34455e-07
1.54847e-05
0.00092045
2.61512e-06
4.24307e-05
0.000955196
2.56534e-06
3.99682e-05
0.000982093
5.95981e-06
4.60934e-05
0.0010146
1.7343e-05
4.22173e-05
0.00104041
5.06802e-05
4.20244e-05
0.00103982
0.00015583
4.17564e-05
0.000952688
0.000533371
5.52903e-06
0.000458284
0.00401982
-0.000168526
0.00501909
6.02752e-05
0.000883793
1.6185e-05
2.62272e-07
0.000919805
4.16964e-05
2.82297e-06
0.000954184
3.92868e-05
2.8126e-06
0.000981878
4.43492e-05
6.93153e-06
0.0010141
4.09356e-05
1.9924e-05
0.00104058
4.04392e-05
5.70229e-05
0.00104413
3.86849e-05
0.00017593
0.000952027
-2.55393e-07
0.000612216
0.000428437
-0.00018704
0.00449014
3.35205e-05
0.0053713
0.0008534
7.84976e-09
-8.51825e-10
0.000897389
5.29812e-08
3.33085e-10
0.000940325
8.14158e-08
3.34137e-09
0.000991729
2.80485e-07
-1.37077e-08
0.00103801
9.38237e-07
-3.85456e-08
0.00108291
2.90996e-06
-9.70538e-08
0.00112804
9.0634e-06
-2.53886e-07
0.00112396
3.73975e-05
-3.82824e-07
0.000754483
0.000337275
3.39457e-06
0.00109479
-8.31952e-07
0.000853412
1.91368e-08
-7.93966e-10
0.000897371
1.29236e-07
-7.22158e-10
0.000940209
1.29397e-07
7.35261e-09
0.000991523
5.45048e-07
-5.52768e-09
0.00103764
1.93843e-06
-2.52592e-08
0.00108213
6.10369e-06
-7.15379e-08
0.00112561
1.91168e-05
-1.49812e-07
0.00111313
7.95913e-05
2.3432e-07
0.000518705
0.00087582
4.30349e-06
0.00181205
-2.81864e-06
0.000853454
3.57694e-08
-9.39104e-10
0.000897355
2.41118e-07
-1.25714e-09
0.000940012
2.33559e-07
7.9802e-09
0.000991045
8.7869e-07
-6.58224e-10
0.00103677
3.08459e-06
-1.36088e-08
0.00108056
9.70351e-06
-4.7099e-08
0.00112146
3.0657e-05
-1.12764e-07
0.00109641
0.000131383
2.40587e-08
0.000458665
0.001432
3.40166e-06
0.00242499
-2.95212e-06
0.00085353
6.20339e-08
-1.03279e-09
0.000897324
4.18577e-07
-1.63402e-09
0.000939713
3.91949e-07
7.12067e-09
0.000990337
1.27959e-06
4.00878e-09
0.00103552
4.40036e-06
-7.80461e-11
0.00107838
1.38342e-05
-1.71554e-08
0.00111618
4.41934e-05
-8.16356e-08
0.00108097
0.000190529
-3.20113e-07
0.000478102
0.00193558
2.22925e-06
0.003036
-1.01186e-06
0.000853659
1.03946e-07
-6.78582e-10
0.000897273
7.00704e-07
-7.88837e-10
0.0009393
5.62144e-07
6.76842e-09
0.000989413
1.67817e-06
5.04915e-09
0.00103394
5.83948e-06
3.55711e-09
0.00107561
1.8605e-05
-6.40395e-09
0.00111028
5.99464e-05
-5.05596e-08
0.00106646
0.000255266
-2.60222e-07
0.000453545
0.00243413
1.35201e-06
0.00360438
-8.7036e-07
0.00085387
1.6333e-07
-3.53818e-10
0.000897232
1.09488e-06
-4.05546e-10
0.000938785
6.9652e-07
6.32996e-09
0.000988238
2.00831e-06
4.07178e-09
0.00103191
7.36741e-06
2.07127e-09
0.00107208
2.41413e-05
-6.14222e-09
0.00110242
7.87419e-05
-2.86736e-08
0.0010488
0.000325908
-5.61662e-08
0.00043186
0.00292272
7.76432e-07
0.0041306
-5.92142e-07
0.000854195
2.30916e-07
-4.94527e-10
0.000897218
1.54507e-06
1.89287e-10
0.00093827
7.81398e-07
5.3108e-09
0.000986852
2.30196e-06
4.79918e-09
0.00102945
9.07286e-06
1.30764e-09
0.00106771
3.05867e-05
-9.51842e-09
0.00109288
0.00010076
-2.67443e-08
0.00102954
0.000402482
2.45217e-08
0.000400858
0.00340951
5.07935e-07
0.0046123
-4.39322e-07
0.000854685
2.96196e-07
-1.02764e-09
0.000897274
1.97285e-06
4.10992e-10
0.000937807
8.38979e-07
4.50383e-09
0.00098508
2.64214e-06
3.76741e-09
0.00102639
1.10937e-05
1.28994e-10
0.00106232
3.80767e-05
-1.05682e-08
0.00108167
0.000125981
-3.08797e-08
0.00101094
0.000482497
-3.11467e-08
0.000385214
0.00388477
1.66131e-07
0.00505982
-1.71942e-07
0.000855313
3.42851e-07
-1.13075e-09
0.000897415
2.27749e-06
7.41077e-10
0.000937381
8.53451e-07
3.66565e-09
0.00098301
3.10689e-06
3.25753e-09
0.00102277
1.35167e-05
6.4983e-10
0.0010563
4.64744e-05
-7.64862e-09
0.00107016
0.000153725
-2.58504e-08
0.000993581
0.000564086
-5.9807e-08
0.000343136
0.00435883
-1.21505e-07
0.00545954
1.0747e-07
0.00085604
-1.02324e-09
3.66852e-07
0.00089765
8.71487e-10
2.33549e-06
0.000936955
2.97507e-09
8.5431e-07
0.000980567
2.90173e-09
3.84902e-06
0.00101892
1.1729e-09
1.60581e-05
0.00105227
-5.11432e-09
5.34503e-05
0.00106707
-2.05641e-08
0.00017741
0.000990131
-7.02627e-08
0.000640188
0.000235386
-3.34069e-07
0.00491858
2.24825e-07
0.00572462
0.000853411
7.68304e-09
-1.35587e-05
0.000897378
5.17886e-08
-4.40224e-05
0.000940325
8.25967e-08
-4.30267e-05
0.000991747
2.81401e-07
-5.17254e-05
0.001038
9.38687e-07
-4.72592e-05
0.00108289
2.91184e-06
-4.79354e-05
0.00112809
9.06565e-06
-5.46152e-05
0.00112459
3.73752e-05
-3.40749e-05
0.000756014
0.000335449
2.71192e-05
0.00109541
-0.000345786
0.000853423
1.88828e-08
-1.3574e-05
0.000897359
1.27329e-07
-4.4017e-05
0.000940206
1.26049e-07
-4.28807e-05
0.000991548
5.42834e-07
-5.16151e-05
0.00103766
1.94148e-06
-4.71615e-05
0.00108211
6.12436e-06
-4.77856e-05
0.00112572
1.91944e-05
-5.3991e-05
0.00111365
7.96778e-05
-2.98317e-05
0.000519549
0.000873627
5.08933e-05
0.00181416
-0.000207157
0.000853465
3.53777e-08
-1.3621e-05
0.000897343
2.38311e-07
-4.39965e-05
0.000940006
2.27827e-07
-4.27517e-05
0.000991061
8.73584e-07
-5.13925e-05
0.00103679
3.08672e-06
-4.69097e-05
0.00108055
9.73236e-06
-4.74714e-05
0.0011215
3.07768e-05
-5.27575e-05
0.00109672
0.000131758
-2.71241e-05
0.000460241
0.00143057
7.36974e-05
0.00242605
-0.000159672
0.000853541
6.16044e-08
-1.37063e-05
0.000897313
4.15266e-07
-4.39576e-05
0.000939705
3.85485e-07
-4.25374e-05
0.000990342
1.27165e-06
-5.10382e-05
0.00103553
4.39496e-06
-4.65233e-05
0.00107838
1.38425e-05
-4.70433e-05
0.00111617
4.42566e-05
-5.14483e-05
0.00108107
0.000190777
-2.40638e-05
0.000480285
0.00193454
8.99653e-05
0.00303711
-0.000136774
0.000853667
1.03515e-07
-1.38478e-05
0.000897263
6.97528e-07
-4.38867e-05
0.000939292
5.56103e-07
-4.21876e-05
0.000989414
1.66886e-06
-5.05218e-05
0.00103394
5.82706e-06
-4.59828e-05
0.00107561
1.85898e-05
-4.64931e-05
0.00111027
5.99326e-05
-5.04656e-05
0.00106646
0.000255277
-2.10408e-05
0.000455281
0.00243341
0.000104451
0.00360539
-0.000118614
0.000853876
1.62989e-07
-1.40721e-05
0.000897223
1.09227e-06
-4.37534e-05
0.000938778
6.91797e-07
-4.16779e-05
0.000988239
2.00068e-06
-4.97944e-05
0.00103191
7.35537e-06
-4.52231e-05
0.00107207
2.41221e-05
-4.57789e-05
0.00110242
7.87119e-05
-4.92272e-05
0.00104881
0.000325873
-1.74334e-05
0.000433002
0.00292226
0.000118799
0.00413166
-9.83545e-05
0.000854198
2.30693e-07
-1.44004e-05
0.000897211
1.54331e-06
-4.34788e-05
0.000938263
7.77339e-07
-4.11238e-05
0.00098684
2.29541e-06
-4.887e-05
0.00102944
9.06385e-06
-4.43363e-05
0.0010677
3.05758e-05
-4.48063e-05
0.00109289
0.000100752
-4.73579e-05
0.00102957
0.0004025
-1.37404e-05
0.000401925
0.00340916
0.00013268
0.00461319
-8.43416e-05
0.000854686
2.96039e-07
-1.48829e-05
0.000897268
1.97163e-06
-4.303e-05
0.000937801
8.35593e-07
-4.0574e-05
0.00098507
2.63693e-06
-4.76073e-05
0.00102638
1.10875e-05
-4.33711e-05
0.00106231
3.80722e-05
-4.35302e-05
0.00108167
0.000125989
-4.47614e-05
0.00101097
0.000482551
-9.9118e-06
0.000385617
0.00388455
0.000142006
0.00506083
-6.63108e-05
0.000855313
3.4271e-07
-1.54865e-05
0.00089741
2.27649e-06
-4.24253e-05
0.000937376
8.50787e-07
-3.9962e-05
0.000983
3.10278e-06
-4.60839e-05
0.00102276
1.35119e-05
-4.22175e-05
0.00105629
4.64712e-05
-4.20431e-05
0.00107015
0.000153733
-4.18095e-05
0.000993571
0.000564131
-5.63921e-06
0.000342685
0.00435875
0.000168605
0.00546063
-6.07272e-05
0.000856039
-1.61862e-05
3.66711e-07
0.000897646
-4.16918e-05
2.33457e-06
0.00093695
-3.92814e-05
8.52114e-07
0.000980559
-4.43404e-05
3.8455e-06
0.00101891
-4.09331e-05
1.60536e-05
0.00105226
-4.04505e-05
5.34459e-05
0.00106706
-3.87187e-05
0.000177411
0.000990088
1.64663e-07
0.00064021
0.000233906
0.000187267
0.00491908
-3.41533e-05
0.00572516
0.000887779
2.58047e-09
-6.16656e-05
0.000922784
4.87218e-08
-7.90793e-05
0.000959907
1.5814e-07
-8.03141e-05
0.000985382
4.07533e-07
-7.76199e-05
0.00102024
1.1067e-06
-8.32486e-05
0.00105617
3.08134e-06
-8.69871e-05
0.00108214
9.1043e-06
-8.96204e-05
0.00105767
3.64828e-05
-4.64592e-05
0.000791157
0.000307671
-2.16945e-05
0.000836469
-0.00039494
0.00088776
3.70833e-09
-6.1661e-05
0.000922729
1.20113e-07
-7.9061e-05
0.00096003
2.71631e-07
-8.02986e-05
0.000985534
8.18072e-07
-7.75414e-05
0.00102023
2.31872e-06
-8.3094e-05
0.00105552
6.5052e-06
-8.65486e-05
0.0010805
1.94024e-05
-8.92348e-05
0.00105117
7.76668e-05
-4.21192e-05
0.000615804
0.000768165
1.80152e-05
0.00149288
-0.000251395
0.000887707
3.73115e-09
-6.16531e-05
0.00092265
2.17028e-07
-7.90422e-05
0.000959744
4.65032e-07
-8.00417e-05
0.0009852
1.33001e-06
-7.73714e-05
0.00101974
3.71698e-06
-8.28713e-05
0.0010544
1.03681e-05
-8.60462e-05
0.00107754
3.08631e-05
-8.73524e-05
0.00103723
0.000124627
-3.41119e-05
0.000538922
0.00127195
6.05611e-05
0.00209442
-0.000225951
0.000887609
4.9467e-09
-6.16413e-05
0.000922514
3.73703e-07
-7.90253e-05
0.000959296
7.52636e-07
-7.961e-05
0.000984689
1.98871e-06
-7.71027e-05
0.00101903
5.38686e-06
-8.25645e-05
0.00105282
1.48623e-05
-8.53794e-05
0.00107355
4.41725e-05
-8.55231e-05
0.00102386
0.000176918
-2.70097e-05
0.000536824
0.00173908
0.000102389
0.00267008
-0.000179194
0.000887441
1.49331e-08
-6.16227e-05
0.000922286
6.43512e-07
-7.90088e-05
0.000958658
1.14373e-06
-7.89544e-05
0.000984063
2.74685e-06
-7.66986e-05
0.0010183
7.28676e-06
-8.21525e-05
0.00105106
2.01079e-05
-8.45592e-05
0.0010685
6.00485e-05
-8.38497e-05
0.00101108
0.000236113
-2.30941e-05
0.000519054
0.00220517
0.000122866
0.00320682
-0.000139647
0.000887155
4.79429e-08
-6.15836e-05
0.000921932
1.08159e-06
-7.89775e-05
0.000957827
1.46203e-06
-7.78953e-05
0.000983439
3.40761e-06
-7.60816e-05
0.00101778
9.30037e-06
-8.16113e-05
0.00104932
2.62594e-05
-8.35422e-05
0.00106271
7.93599e-05
-8.19885e-05
0.000997693
0.000303228
-1.98353e-05
0.000499548
0.00266937
0.000145391
0.00371077
-0.000106412
0.000886676
1.20581e-07
-6.1471e-05
0.000921499
1.65764e-06
-7.88923e-05
0.000956944
1.77925e-06
-7.68848e-05
0.000982817
4.08227e-06
-7.54302e-05
0.00101696
1.15645e-05
-8.07818e-05
0.00104692
3.34408e-05
-8.20238e-05
0.00105575
0.000102113
-7.90316e-05
0.000982221
0.0003772
-1.45556e-05
0.000482417
0.00312841
0.0001661
0.00417905
-7.34989e-05
0.000885935
1.85287e-07
-6.12042e-05
0.000921012
2.19778e-06
-7.86645e-05
0.000956095
2.19361e-06
-7.6068e-05
0.000982387
4.96488e-06
-7.47938e-05
0.00101575
1.42873e-05
-7.94942e-05
0.0010436
4.17279e-05
-7.97668e-05
0.00104753
0.000127981
-7.46797e-05
0.000966756
0.000454425
-6.82011e-06
0.000464274
0.00357731
0.000188414
0.00461739
-4.35664e-05
0.000884954
2.33798e-07
-6.08087e-05
0.000920436
2.61166e-06
-7.83425e-05
0.000955182
2.55768e-06
-7.5065e-05
0.000982083
5.9485e-06
-7.39815e-05
0.00101459
1.73288e-05
-7.78107e-05
0.00104037
5.06668e-05
-7.68729e-05
0.00103977
0.000155841
-6.92343e-05
0.000952644
0.000533521
1.89255e-06
0.000459244
0.00401994
0.00021234
0.00502148
-8.39911e-06
0.000883786
-6.03183e-05
2.61551e-07
0.000919793
-7.79312e-05
2.8199e-06
0.000954171
-7.38977e-05
2.80617e-06
0.00098187
-7.30234e-05
6.92171e-06
0.00101408
-7.57813e-05
1.99107e-05
0.00104054
-7.33771e-05
5.70065e-05
0.00104407
-6.254e-05
0.00017592
0.000951915
1.29755e-05
0.000612268
0.000428621
0.000232384
0.00449098
4.03413e-05
0.00537263
0.000914965
1.00647e-08
-0.00013721
0.000952949
6.36485e-08
-0.000117132
0.000982798
1.9131e-07
-0.000110364
0.00099779
4.77666e-07
-9.31059e-05
0.000995967
1.16651e-06
-8.26248e-05
0.000990748
2.98882e-06
-8.47855e-05
0.00095089
8.46536e-06
-5.80825e-05
0.000904623
3.09262e-05
-3.11891e-05
0.000847218
0.000280722
-0.000251936
0.000450869
-1.40664e-06
0.000914942
2.59545e-08
-0.000137186
0.000952891
1.48941e-07
-0.0001171
0.000982717
4.10601e-07
-0.000110353
0.000997677
9.9743e-07
-9.30384e-05
0.000995787
2.41492e-06
-8.24777e-05
0.000990659
6.19275e-06
-8.47249e-05
0.000948433
1.76173e-05
-5.62013e-05
0.000902994
7.12413e-05
-3.70118e-05
0.000723489
0.000595671
-0.00012339
0.00105759
-0.000137761
0.000914886
3.43518e-08
-0.000137115
0.00095276
2.49374e-07
-0.000117023
0.000982818
6.85247e-07
-0.000110384
0.000997754
1.63646e-06
-9.29625e-05
0.000995622
3.90689e-06
-8.22606e-05
0.000990074
9.92198e-06
-8.42594e-05
0.000950008
2.79399e-05
-5.75352e-05
0.000897498
0.000105658
-1.61343e-05
0.000624216
0.000989725
-6.58057e-05
0.0015449
-9.21049e-05
0.000914795
4.5509e-08
-0.000137015
0.000952542
4.0208e-07
-0.000116933
0.000983001
1.0724e-06
-0.000110466
0.000997894
2.47184e-06
-9.2847e-05
0.000995396
5.75318e-06
-8.19457e-05
0.000989208
1.43966e-05
-8.36854e-05
0.000949809
4.01304e-05
-5.82891e-05
0.000891596
0.000144436
-7.76026e-06
0.000606497
0.00138902
-1.76166e-05
0.00204546
-7.55911e-05
0.000914648
8.03611e-08
-0.000136871
0.000952197
6.76763e-07
-0.00011684
0.000983264
1.65936e-06
-0.000110619
0.000998163
3.5093e-06
-9.26529e-05
0.000995205
7.94481e-06
-8.14192e-05
0.000987965
1.97406e-05
-8.27205e-05
0.000946923
5.49895e-05
-5.78032e-05
0.000882857
0.000194163
-8.87931e-06
0.000581429
0.00178319
2.39662e-05
0.00252693
-4.19658e-05
0.000914397
1.75371e-07
-0.000136641
0.000951647
1.18106e-06
-0.00011674
0.000984057
2.21441e-06
-0.000110872
0.000999195
4.58752e-06
-9.23185e-05
0.000995557
1.04726e-05
-8.0538e-05
0.000986625
2.62399e-05
-8.11881e-05
0.000942714
7.35252e-05
-5.67543e-05
0.000874446
0.000253457
-1.09845e-05
0.000551201
0.0021881
5.76408e-05
0.00298324
-1.391e-05
0.000913948
4.32204e-07
-0.000136241
0.000950943
1.97554e-06
-0.000116693
0.000984069
2.8939e-06
-0.000110697
0.000999095
5.84913e-06
-9.17385e-05
0.000994832
1.34326e-05
-7.95247e-05
0.000984443
3.3922e-05
-7.94081e-05
0.000939285
9.5674e-05
-5.61118e-05
0.000864519
0.000320475
-6.96718e-06
0.000532101
0.00259235
8.82755e-05
0.00342603
1.34652e-05
0.000913135
6.34317e-07
-0.000135105
0.000950028
2.7068e-06
-0.000116304
0.000982679
3.78973e-06
-0.000109621
0.000997261
7.40706e-06
-9.09552e-05
0.000992836
1.69312e-05
-7.86197e-05
0.000981876
4.28714e-05
-7.78502e-05
0.000937682
0.000121428
-5.63196e-05
0.000855737
0.000389782
5.54855e-06
0.000512187
0.00299872
0.000119917
0.00384391
4.82749e-05
0.000912028
7.98624e-07
-0.000133561
0.00094886
3.30189e-06
-0.00011579
0.000981028
4.59386e-06
-0.000108042
0.000995255
9.01906e-06
-8.9845e-05
0.000991035
2.06556e-05
-7.73751e-05
0.000979953
5.23336e-05
-7.53681e-05
0.000937165
0.000149279
-5.44367e-05
0.000847538
0.000463152
1.78542e-05
0.000512875
0.00339051
0.000149626
0.00426319
8.30275e-05
0.00091068
-0.000131683
9.26597e-07
0.000947474
-0.000115125
3.67962e-06
0.000979097
-0.000106062
5.13196e-06
0.000993265
-8.84293e-05
1.02292e-05
0.000990581
-7.56911e-05
2.31805e-05
0.000983256
-7.14934e-05
5.76377e-05
0.000954299
-4.87185e-05
0.000164223
0.000850154
3.96828e-05
0.000540207
0.000503062
0.000182777
0.00378189
0.000124714
0.00467939
0.000902873
2.45507e-08
-0.000200561
0.000859221
7.44584e-08
-7.35651e-05
0.000787068
1.90354e-07
-3.84124e-05
0.000755558
4.49571e-07
-6.20567e-05
0.0007529
1.03702e-06
-8.10752e-05
0.000786674
2.31957e-06
-0.000120817
0.000548087
7.08919e-06
0.000173495
0.000592961
1.84159e-05
-9.42108e-05
-0.00010775
0.000302191
0.000141704
0.000151304
-0.000264512
0.000902851
7.49425e-08
-0.000200531
0.000859276
1.717e-07
-7.36298e-05
0.000786892
3.91302e-07
-3.81743e-05
0.000755337
8.91275e-07
-6.19416e-05
0.000752228
2.02013e-06
-8.02799e-05
0.000791382
4.79167e-06
-0.000126794
0.000571409
1.18253e-05
0.000157705
0.000644855
5.52396e-05
-0.000148444
0.000351937
0.000398681
6.98683e-05
0.00061874
-0.000253196
0.000902767
1.05973e-07
-0.000200366
0.000859495
2.68278e-07
-7.38566e-05
0.000786736
6.40108e-07
-3.78858e-05
0.000755058
1.47088e-06
-6.18793e-05
0.000751889
3.3096e-06
-8.04448e-05
0.000787553
7.70941e-06
-0.000122804
0.000560365
1.97261e-05
0.000161929
0.000617885
7.34258e-05
-9.155e-05
0.000226367
0.000642109
7.85202e-05
0.000982354
-0.000231972
0.000902656
1.46197e-07
-0.000200165
0.000859741
3.95867e-07
-7.41549e-05
0.000786279
9.74791e-07
-3.7356e-05
0.000754403
2.24504e-06
-6.17651e-05
0.00075122
4.99615e-06
-8.05528e-05
0.000784997
1.15019e-05
-0.000121083
0.000559565
2.96722e-05
0.000157867
0.000607509
9.91685e-05
-8.0955e-05
0.000211145
0.000908004
0.000108981
0.00130027
-0.000184208
0.000902506
2.33549e-07
-0.000199911
0.000859983
6.2012e-07
-7.4549e-05
0.000785315
1.48103e-06
-3.64715e-05
0.000753172
3.29736e-06
-6.15845e-05
0.000750179
7.1559e-06
-8.06186e-05
0.000783406