1.45 	0 	0 	-0.00778955 	-0.00262637 	1.66523e-20
2.35 	0 	0 	0.0627487 	-0.00665178 	1.00683e-20
