1.45 	0 	0 	-0.292277
2.35 	0 	0 	-0.128128
