/*--------------------------------*- C++ -*----------------------------------*\
  =========                 |
  \\      /  F ield         | OpenFOAM: The Open Source CFD Toolbox
   \\    /   O peration     | Website:  https://openfoam.org
    \\  /    A nd           | Version:  6.0
     \\/     M anipulation  |
\*---------------------------------------------------------------------------*/
FoamFile
{
    version     2.0;
    format      ascii;
    class       volScalarField;
    location    "4.8";
    object      p;
}
// * * * * * * * * * * * * * * * * * * * * * * * * * * * * * * * * * * * * * //

dimensions      [0 2 -2 0 0 0 0];

internalField   nonuniform List<scalar> 
24000
(
1.00647
1.0065
1.00631
1.00584
1.00506
1.00411
1.00309
1.00215
1.00132
1.00072
1.00022
0.999874
1.00648
1.00655
1.00647
1.00612
1.00547
1.00461
1.00361
1.00263
1.00171
1.00098
1.00032
0.999851
1.00648
1.00652
1.0064
1.00601
1.00533
1.00447
1.0035
1.00255
1.00166
1.00096
1.00032
0.9999
1.00648
1.0065
1.00633
1.0059
1.00519
1.00432
1.00336
1.00244
1.00159
1.00092
1.00031
0.999906
1.00648
1.0065
1.00633
1.00588
1.00516
1.00429
1.00334
1.00242
1.00158
1.00091
1.00029
0.999872
1.00648
1.00651
1.00634
1.0059
1.00518
1.00431
1.00335
1.00243
1.00158
1.0009
1.00027
0.999836
1.00649
1.00652
1.00635
1.00591
1.0052
1.00432
1.00336
1.00243
1.00157
1.00089
1.00025
0.999814
1.0065
1.00652
1.00636
1.00592
1.00521
1.00434
1.00338
1.00245
1.00159
1.0009
1.00025
0.999799
1.0065
1.00653
1.00636
1.00593
1.00523
1.00437
1.00341
1.00249
1.00162
1.00092
1.00025
0.999783
1.00651
1.00654
1.00637
1.00594
1.00524
1.00438
1.00343
1.00251
1.00164
1.00093
1.00024
0.999759
1.00652
1.00655
1.00637
1.00594
1.00524
1.00439
1.00344
1.00252
1.00164
1.00092
1.00023
0.999734
1.00653
1.00656
1.00638
1.00594
1.00524
1.00439
1.00344
1.00251
1.00163
1.00091
1.00021
0.99971
1.00654
1.00657
1.00639
1.00594
1.00524
1.00439
1.00344
1.00251
1.00163
1.00091
1.0002
0.999691
1.00655
1.00658
1.0064
1.00595
1.00524
1.0044
1.00345
1.00252
1.00164
1.00091
1.00019
0.999675
1.00656
1.0066
1.00641
1.00596
1.00526
1.00441
1.00346
1.00254
1.00165
1.00092
1.00019
0.99966
1.00658
1.00662
1.00643
1.00598
1.00527
1.00443
1.00348
1.00256
1.00166
1.00092
1.00019
0.999644
1.00659
1.00664
1.00645
1.006
1.00529
1.00445
1.0035
1.00257
1.00168
1.00093
1.00019
0.999628
1.00661
1.00665
1.00647
1.00602
1.00531
1.00447
1.00352
1.00259
1.00169
1.00093
1.00018
0.999612
1.00662
1.00667
1.00649
1.00604
1.00533
1.00449
1.00354
1.00261
1.0017
1.00094
1.00018
0.999596
1.00664
1.00669
1.00651
1.00606
1.00535
1.00451
1.00356
1.00262
1.00171
1.00094
1.00018
0.99958
1.00665
1.0067
1.00652
1.00608
1.00537
1.00453
1.00358
1.00264
1.00172
1.00094
1.00017
0.999563
1.00667
1.00672
1.00653
1.00609
1.00539
1.00455
1.0036
1.00265
1.00173
1.00094
1.00016
0.999546
1.00668
1.00673
1.00655
1.00611
1.00541
1.00456
1.00361
1.00266
1.00173
1.00094
1.00016
0.999529
1.0067
1.00675
1.00656
1.00612
1.00542
1.00458
1.00362
1.00267
1.00174
1.00094
1.00015
0.999511
1.00672
1.00677
1.00657
1.00613
1.00543
1.00459
1.00363
1.00268
1.00174
1.00094
1.00014
0.999494
1.00674
1.00678
1.00658
1.00614
1.00544
1.0046
1.00364
1.00269
1.00175
1.00093
1.00013
0.999477
1.00676
1.0068
1.0066
1.00615
1.00545
1.00461
1.00365
1.0027
1.00175
1.00093
1.00012
0.999459
1.00678
1.00682
1.00662
1.00617
1.00547
1.00462
1.00367
1.00271
1.00176
1.00093
1.00012
0.999441
1.0068
1.00684
1.00664
1.00619
1.00548
1.00464
1.00368
1.00272
1.00176
1.00093
1.00011
0.999423
1.00682
1.00687
1.00666
1.00621
1.0055
1.00465
1.00369
1.00273
1.00176
1.00092
1.0001
0.999405
1.00685
1.00689
1.00668
1.00623
1.00551
1.00467
1.0037
1.00274
1.00177
1.00092
1.00009
0.999387
1.00687
1.00692
1.0067
1.00625
1.00553
1.00469
1.00372
1.00274
1.00177
1.00091
1.00008
0.999368
1.0069
1.00694
1.00673
1.00627
1.00555
1.0047
1.00373
1.00275
1.00177
1.00091
1.00007
0.99935
1.00692
1.00697
1.00676
1.00629
1.00557
1.00472
1.00374
1.00276
1.00178
1.0009
1.00006
0.999331
1.00695
1.007
1.00678
1.00632
1.0056
1.00474
1.00376
1.00277
1.00178
1.0009
1.00005
0.999313
1.00698
1.00703
1.00681
1.00635
1.00562
1.00476
1.00378
1.00278
1.00178
1.0009
1.00004
0.999294
1.00701
1.00706
1.00685
1.00638
1.00564
1.00478
1.00379
1.0028
1.00179
1.00089
1.00002
0.999275
1.00704
1.00709
1.00688
1.00641
1.00567
1.0048
1.00381
1.00281
1.00179
1.00089
1.00001
0.999255
1.00707
1.00713
1.00691
1.00644
1.0057
1.00483
1.00383
1.00282
1.0018
1.00088
1
0.999235
1.0071
1.00716
1.00694
1.00647
1.00573
1.00485
1.00385
1.00283
1.0018
1.00088
0.99999
0.999214
1.00714
1.00719
1.00698
1.0065
1.00576
1.00488
1.00387
1.00285
1.00181
1.00087
0.999977
0.999192
1.00717
1.00723
1.00701
1.00653
1.00579
1.0049
1.00389
1.00286
1.00181
1.00087
0.999963
0.999169
1.00721
1.00726
1.00704
1.00656
1.00582
1.00493
1.00391
1.00287
1.00181
1.00086
0.999947
0.999145
1.00724
1.0073
1.00708
1.0066
1.00584
1.00495
1.00392
1.00288
1.00181
1.00085
0.999931
0.999121
1.00728
1.00733
1.00711
1.00663
1.00587
1.00497
1.00394
1.00289
1.00181
1.00084
0.999914
0.999095
1.00732
1.00737
1.00715
1.00666
1.0059
1.005
1.00395
1.00289
1.00181
1.00083
0.999897
0.999069
1.00736
1.00741
1.00718
1.00669
1.00592
1.00502
1.00397
1.0029
1.00181
1.00082
0.999879
0.999043
1.0074
1.00745
1.00722
1.00672
1.00595
1.00504
1.00399
1.00291
1.00181
1.0008
0.999859
0.999015
1.00744
1.00749
1.00726
1.00676
1.00598
1.00506
1.004
1.00292
1.00181
1.00079
0.99984
0.998988
1.00748
1.00753
1.0073
1.00679
1.00601
1.00509
1.00402
1.00292
1.0018
1.00078
0.99982
0.998959
1.00753
1.00758
1.00734
1.00683
1.00605
1.00511
1.00404
1.00293
1.0018
1.00077
0.999799
0.99893
1.00758
1.00762
1.00739
1.00687
1.00608
1.00514
1.00405
1.00294
1.0018
1.00076
0.999777
0.9989
1.00762
1.00767
1.00743
1.00692
1.00612
1.00517
1.00407
1.00295
1.0018
1.00074
0.999755
0.99887
1.00767
1.00772
1.00748
1.00696
1.00615
1.0052
1.00409
1.00296
1.0018
1.00073
0.999733
0.998839
1.00772
1.00777
1.00753
1.007
1.00619
1.00523
1.00411
1.00297
1.0018
1.00072
0.99971
0.998808
1.00777
1.00782
1.00758
1.00705
1.00623
1.00526
1.00413
1.00298
1.00179
1.0007
0.999686
0.998776
1.00783
1.00787
1.00763
1.0071
1.00627
1.00529
1.00415
1.00298
1.00179
1.00069
0.999662
0.998743
1.00788
1.00793
1.00768
1.00715
1.00631
1.00532
1.00418
1.00299
1.00179
1.00067
0.999637
0.99871
1.00794
1.00798
1.00774
1.0072
1.00636
1.00536
1.0042
1.003
1.00178
1.00066
0.999611
0.998675
1.00799
1.00804
1.00779
1.00725
1.0064
1.00539
1.00422
1.00301
1.00178
1.00064
0.999585
0.998639
1.00805
1.00809
1.00785
1.0073
1.00644
1.00542
1.00424
1.00302
1.00178
1.00062
0.999558
0.998603
1.00811
1.00815
1.00791
1.00735
1.00649
1.00546
1.00427
1.00303
1.00177
1.0006
0.999529
0.998564
1.00817
1.00821
1.00797
1.00741
1.00653
1.0055
1.00429
1.00304
1.00177
1.00058
0.9995
0.998525
1.00823
1.00827
1.00803
1.00746
1.00658
1.00553
1.00431
1.00305
1.00176
1.00056
0.999469
0.998485
1.0083
1.00834
1.00809
1.00752
1.00663
1.00557
1.00433
1.00306
1.00176
1.00054
0.999438
0.998443
1.00836
1.0084
1.00815
1.00757
1.00667
1.0056
1.00435
1.00306
1.00175
1.00052
0.999405
0.9984
1.00843
1.00847
1.00821
1.00763
1.00672
1.00564
1.00438
1.00307
1.00174
1.0005
0.999371
0.998356
1.00849
1.00853
1.00827
1.00769
1.00677
1.00567
1.0044
1.00308
1.00173
1.00048
0.999336
0.998311
1.00856
1.0086
1.00834
1.00775
1.00682
1.00571
1.00442
1.00308
1.00173
1.00046
0.999301
0.998264
1.00863
1.00867
1.00841
1.00781
1.00687
1.00575
1.00444
1.00309
1.00172
1.00043
0.999264
0.998217
1.00871
1.00875
1.00848
1.00787
1.00692
1.00579
1.00447
1.0031
1.00171
1.00041
0.999227
0.998169
1.00878
1.00882
1.00855
1.00794
1.00698
1.00583
1.00449
1.00311
1.0017
1.00038
0.999189
0.998119
1.00886
1.0089
1.00862
1.00801
1.00703
1.00587
1.00452
1.00312
1.00169
1.00036
0.99915
0.998068
1.00893
1.00897
1.0087
1.00808
1.00709
1.00592
1.00455
1.00313
1.00169
1.00033
0.999109
0.998016
1.00901
1.00905
1.00877
1.00815
1.00715
1.00596
1.00457
1.00314
1.00168
1.00031
0.999068
0.997963
1.00909
1.00913
1.00885
1.00822
1.00721
1.00601
1.0046
1.00315
1.00167
1.00028
0.999026
0.997907
1.00918
1.00922
1.00893
1.00829
1.00727
1.00606
1.00463
1.00316
1.00166
1.00025
0.998982
0.997851
1.00926
1.0093
1.00901
1.00837
1.00734
1.0061
1.00466
1.00317
1.00165
1.00023
0.998937
0.997792
1.00935
1.00939
1.0091
1.00845
1.0074
1.00615
1.00469
1.00318
1.00164
1.0002
0.998891
0.997732
1.00944
1.00948
1.00918
1.00853
1.00747
1.00621
1.00473
1.00319
1.00163
1.00017
0.998843
0.997669
1.00953
1.00957
1.00927
1.00861
1.00754
1.00626
1.00476
1.0032
1.00162
1.00013
0.998793
0.997605
1.00962
1.00966
1.00936
1.00869
1.00761
1.00631
1.00479
1.00321
1.00161
1.0001
0.998742
0.997538
1.00971
1.00975
1.00945
1.00878
1.00768
1.00637
1.00483
1.00323
1.0016
1.00007
0.998689
0.997469
1.00981
1.00985
1.00955
1.00886
1.00775
1.00642
1.00486
1.00324
1.00159
1.00003
0.998633
0.997398
1.0099
1.00995
1.00964
1.00895
1.00783
1.00648
1.00489
1.00325
1.00158
0.999997
0.998577
0.997324
1.01
1.01005
1.00974
1.00904
1.0079
1.00653
1.00493
1.00326
1.00156
0.999959
0.998518
0.997248
1.01011
1.01015
1.00984
1.00913
1.00798
1.00659
1.00497
1.00327
1.00155
0.999919
0.998457
0.997171
1.01021
1.01025
1.00994
1.00922
1.00806
1.00665
1.005
1.00328
1.00153
0.999878
0.998394
0.99709
1.01032
1.01036
1.01004
1.00932
1.00814
1.00672
1.00504
1.0033
1.00152
0.999836
0.998329
0.997007
1.01042
1.01047
1.01015
1.00942
1.00822
1.00678
1.00508
1.00331
1.0015
0.999792
0.998262
0.996921
1.01054
1.01058
1.01026
1.00952
1.00831
1.00684
1.00512
1.00332
1.00149
0.999747
0.998193
0.996834
1.01065
1.01069
1.01037
1.00962
1.0084
1.00691
1.00516
1.00333
1.00147
0.9997
0.998121
0.996743
1.01076
1.01081
1.01048
1.00972
1.00849
1.00698
1.0052
1.00334
1.00145
0.999652
0.998048
0.99665
1.01088
1.01093
1.0106
1.00983
1.00858
1.00705
1.00524
1.00335
1.00143
0.999602
0.997972
0.996554
1.011
1.01105
1.01072
1.00994
1.00867
1.00712
1.00529
1.00336
1.00141
0.999551
0.997894
0.996455
1.01112
1.01117
1.01084
1.01005
1.00877
1.00719
1.00533
1.00337
1.00139
0.999497
0.997813
0.996353
1.01125
1.0113
1.01097
1.01017
1.00887
1.00726
1.00538
1.00339
1.00136
0.999442
0.99773
0.996249
1.01137
1.01143
1.01109
1.01028
1.00897
1.00734
1.00542
1.0034
1.00134
0.999384
0.997644
0.996141
1.0115
1.01156
1.01122
1.0104
1.00907
1.00741
1.00547
1.00341
1.00132
0.999325
0.997556
0.996031
1.01164
1.01169
1.01136
1.01052
1.00918
1.00749
1.00551
1.00342
1.00129
0.999264
0.997465
0.995917
1.01177
1.01183
1.01149
1.01065
1.00928
1.00757
1.00556
1.00342
1.00126
0.999201
0.997372
0.995801
1.01191
1.01197
1.01163
1.01077
1.00939
1.00765
1.00561
1.00343
1.00123
0.999135
0.997275
0.995681
1.01205
1.01211
1.01177
1.0109
1.0095
1.00773
1.00566
1.00344
1.0012
0.999067
0.997177
0.995558
1.01219
1.01226
1.01192
1.01103
1.00962
1.00781
1.00571
1.00345
1.00117
0.998997
0.997074
0.995431
1.01234
1.01241
1.01206
1.01117
1.00973
1.00789
1.00575
1.00346
1.00114
0.998925
0.996969
0.995301
1.01248
1.01256
1.01221
1.0113
1.00985
1.00798
1.0058
1.00346
1.00111
0.99885
0.996861
0.995167
1.01263
1.01271
1.01236
1.01144
1.00997
1.00806
1.00585
1.00347
1.00107
0.998774
0.99675
0.995031
1.01279
1.01287
1.01252
1.01158
1.01009
1.00815
1.0059
1.00347
1.00103
0.998694
0.996636
0.99489
1.01294
1.01303
1.01268
1.01173
1.01021
1.00824
1.00595
1.00348
1.00099
0.998612
0.996519
0.994746
1.0131
1.0132
1.01284
1.01187
1.01033
1.00833
1.006
1.00348
1.00095
0.998528
0.996398
0.994598
1.01327
1.01336
1.013
1.01202
1.01046
1.00842
1.00606
1.00349
1.00091
0.998441
0.996275
0.994447
1.01343
1.01353
1.01317
1.01217
1.01059
1.00851
1.00611
1.00349
1.00087
0.998352
0.996147
0.994291
1.0136
1.01371
1.01334
1.01233
1.01072
1.00861
1.00616
1.00349
1.00082
0.99826
0.996017
0.994132
1.01377
1.01388
1.01351
1.01249
1.01086
1.0087
1.00621
1.0035
1.00077
0.998165
0.995883
0.993968
1.01395
1.01406
1.01369
1.01265
1.01099
1.0088
1.00627
1.0035
1.00073
0.998068
0.995746
0.993801
1.01413
1.01425
1.01387
1.01281
1.01113
1.0089
1.00632
1.0035
1.00067
0.997967
0.995605
0.993629
1.01431
1.01444
1.01405
1.01298
1.01128
1.009
1.00638
1.0035
1.00062
0.997865
0.99546
0.993454
1.01449
1.01463
1.01424
1.01315
1.01142
1.00911
1.00643
1.0035
1.00057
0.997758
0.995312
0.993273
1.01468
1.01482
1.01443
1.01333
1.01157
1.00921
1.00649
1.0035
1.00051
0.997649
0.99516
0.993089
1.01488
1.01502
1.01463
1.01351
1.01172
1.00932
1.00654
1.0035
1.00045
0.997537
0.995003
0.992899
1.01508
1.01523
1.01483
1.01369
1.01187
1.00943
1.0066
1.00349
1.00039
0.997422
0.994843
0.992706
1.01528
1.01543
1.01503
1.01387
1.01202
1.00954
1.00666
1.00349
1.00033
0.997302
0.994678
0.992507
1.01548
1.01565
1.01524
1.01406
1.01218
1.00965
1.00671
1.00348
1.00026
0.997181
0.99451
0.992304
1.01569
1.01586
1.01545
1.01425
1.01234
1.00976
1.00677
1.00348
1.00019
0.997054
0.994336
0.992095
1.01591
1.01608
1.01566
1.01445
1.01251
1.00988
1.00683
1.00347
1.00012
0.996926
0.994159
0.991882
1.01612
1.01631
1.01588
1.01465
1.01267
1.00999
1.00689
1.00346
1.00005
0.996792
0.993977
0.991663
1.01635
1.01653
1.01611
1.01486
1.01284
1.01011
1.00694
1.00345
0.999974
0.996656
0.99379
0.991439
1.01657
1.01677
1.01633
1.01506
1.01301
1.01023
1.007
1.00344
0.999895
0.996515
0.993598
0.99121
1.0168
1.01701
1.01657
1.01528
1.01319
1.01035
1.00706
1.00343
0.999815
0.996371
0.993403
0.990975
1.01704
1.01725
1.0168
1.01549
1.01337
1.01048
1.00712
1.00342
0.999731
0.996223
0.993201
0.990734
1.01728
1.0175
1.01705
1.01571
1.01355
1.01061
1.00718
1.0034
0.999645
0.996071
0.992995
0.990488
1.01753
1.01775
1.01729
1.01594
1.01374
1.01073
1.00724
1.00339
0.999555
0.995914
0.992783
0.990236
1.01778
1.01801
1.01755
1.01617
1.01393
1.01087
1.0073
1.00337
0.999463
0.995753
0.992567
0.989978
1.01803
1.01827
1.0178
1.0164
1.01412
1.011
1.00736
1.00335
0.999368
0.995587
0.992344
0.989713
1.01829
1.01854
1.01807
1.01664
1.01431
1.01113
1.00742
1.00333
0.99927
0.995418
0.992116
0.989442
1.01856
1.01882
1.01833
1.01689
1.01452
1.01127
1.00749
1.00331
0.999167
0.995243
0.991882
0.989164
1.01883
1.0191
1.01861
1.01714
1.01472
1.01141
1.00755
1.00329
0.999063
0.995064
0.991643
0.988881
1.01911
1.01938
1.01889
1.01739
1.01493
1.01155
1.00761
1.00326
0.998953
0.994879
0.991396
0.988589
1.01939
1.01967
1.01917
1.01765
1.01514
1.0117
1.00767
1.00324
0.998842
0.99469
0.991145
0.988292
1.01968
1.01997
1.01946
1.01792
1.01536
1.01185
1.00774
1.00321
0.998725
0.994495
0.990885
0.987986
1.01997
1.02028
1.01976
1.01819
1.01558
1.01199
1.0078
1.00318
0.998605
0.994295
0.990621
0.987674
1.02027
1.02059
1.02007
1.01846
1.0158
1.01215
1.00786
1.00315
0.998481
0.994088
0.990348
0.987353
1.02058
1.02091
1.02038
1.01875
1.01603
1.0123
1.00793
1.00311
0.998353
0.993877
0.99007
0.987026
1.02089
1.02123
1.02069
1.01904
1.01627
1.01246
1.00799
1.00308
0.998219
0.993659
0.989783
0.986689
1.02121
1.02156
1.02102
1.01933
1.01651
1.01262
1.00805
1.00304
0.998083
0.993436
0.989491
0.986346
1.02154
1.0219
1.02135
1.01963
1.01675
1.01278
1.00812
1.00299
0.99794
0.993205
0.989189
0.985993
1.02187
1.02225
1.02169
1.01994
1.017
1.01294
1.00818
1.00295
0.997794
0.992969
0.988881
0.985633
1.02221
1.0226
1.02203
1.02025
1.01725
1.01311
1.00824
1.0029
0.997641
0.992725
0.988564
0.985263
1.02256
1.02297
1.02239
1.02058
1.01751
1.01328
1.00831
1.00285
0.997485
0.992476
0.98824
0.984886
1.02291
1.02334
1.02275
1.02091
1.01778
1.01345
1.00837
1.0028
0.997322
0.992218
0.987907
0.984497
1.02328
1.02372
1.02312
1.02124
1.01805
1.01363
1.00843
1.00274
0.997154
0.991954
0.987566
0.984101
1.02365
1.0241
1.0235
1.02159
1.01832
1.0138
1.00849
1.00268
0.99698
0.991681
0.987215
0.983694
1.02402
1.0245
1.02389
1.02194
1.0186
1.01399
1.00855
1.00262
0.996801
0.991402
0.986857
0.983279
1.02441
1.0249
1.02428
1.0223
1.01889
1.01417
1.00861
1.00255
0.996614
0.991114
0.986488
0.982852
1.02481
1.02532
1.02469
1.02267
1.01918
1.01436
1.00867
1.00248
0.996422
0.990818
0.98611
0.982416
1.02521
1.02574
1.0251
1.02304
1.01948
1.01454
1.00873
1.0024
0.996222
0.990512
0.985722
0.981968
1.02563
1.02618
1.02553
1.02343
1.01979
1.01474
1.00879
1.00232
0.996016
0.990199
0.985324
0.981511
1.02605
1.02662
1.02596
1.02382
1.0201
1.01493
1.00885
1.00224
0.995802
0.989876
0.984915
0.981041
1.02648
1.02708
1.02641
1.02423
1.02042
1.01513
1.00891
1.00215
0.995581
0.989544
0.984497
0.980561
1.02693
1.02754
1.02686
1.02464
1.02074
1.01533
1.00896
1.00206
0.995351
0.989202
0.984066
0.980068
1.02738
1.02802
1.02733
1.02506
1.02108
1.01553
1.00901
1.00196
0.995114
0.98885
0.983626
0.979565
1.02785
1.02851
1.02781
1.02549
1.02141
1.01574
1.00906
1.00185
0.994867
0.988487
0.983172
0.979048
1.02832
1.02901
1.0283
1.02594
1.02176
1.01595
1.00911
1.00174
0.994612
0.988114
0.982708
0.97852
1.02881
1.02952
1.0288
1.02639
1.02211
1.01616
1.00916
1.00162
0.994347
0.987728
0.982231
0.977978
1.02931
1.03005
1.02932
1.02686
1.02248
1.01637
1.0092
1.00149
0.994073
0.987333
0.981742
0.977424
1.02982
1.03058
1.02985
1.02733
1.02284
1.01659
1.00924
1.00136
0.993788
0.986924
0.981238
0.976855
1.03034
1.03114
1.03039
1.02782
1.02322
1.01681
1.00928
1.00122
0.993493
0.986504
0.980723
0.976273
1.03088
1.0317
1.03094
1.02832
1.0236
1.01703
1.00931
1.00107
0.993186
0.98607
0.980193
0.975676
1.03143
1.03228
1.03152
1.02884
1.024
1.01725
1.00934
1.00092
0.992868
0.985623
0.97965
0.975066
1.03199
1.03288
1.0321
1.02936
1.0244
1.01747
1.00937
1.00075
0.992537
0.985162
0.97909
0.97444
1.03257
1.03349
1.0327
1.0299
1.02481
1.0177
1.00939
1.00058
0.992195
0.984688
0.978518
0.9738
1.03316
1.03412
1.03332
1.03045
1.02522
1.01793
1.0094
1.00039
0.991838
0.984198
0.977928
0.973143
1.03377
1.03476
1.03395
1.03102
1.02565
1.01816
1.00942
1.00019
0.991468
0.983694
0.977325
0.972471
1.03439
1.03542
1.0346
1.0316
1.02608
1.01839
1.00942
0.999986
0.991083
0.983172
0.976703
0.971782
1.03503
1.0361
1.03527
1.0322
1.02653
1.01862
1.00942
0.999766
0.990684
0.982636
0.976066
0.971077
1.03568
1.0368
1.03596
1.03281
1.02698
1.01885
1.00941
0.999533
0.990268
0.982081
0.975411
0.970354
1.03635
1.03751
1.03667
1.03344
1.02744
1.01908
1.00939
0.999287
0.989837
0.98151
0.974739
0.969614
1.03704
1.03825
1.03739
1.03408
1.02791
1.01931
1.00936
0.999026
0.989387
0.980919
0.974047
0.968855
1.03775
1.039
1.03814
1.03475
1.02839
1.01954
1.00932
0.99875
0.98892
0.980311
0.973338
0.96808
1.03848
1.03978
1.03891
1.03542
1.02888
1.01977
1.00928
0.998457
0.988433
0.979682
0.972608
0.967283
1.03923
1.04058
1.0397
1.03612
1.02937
1.01999
1.00922
0.998148
0.987927
0.979033
0.971859
0.966469
1.04
1.04141
1.04051
1.03684
1.02988
1.02021
1.00915
0.99782
0.987399
0.978363
0.971089
0.965634
1.04079
1.04225
1.04135
1.03757
1.03039
1.02043
1.00906
0.997473
0.986851
0.977671
0.970299
0.964779
1.0416
1.04313
1.04221
1.03833
1.03092
1.02065
1.00896
0.997105
0.986279
0.976956
0.969486
0.963903
1.04244
1.04403
1.0431
1.0391
1.03145
1.02086
1.00885
0.996716
0.985685
0.976219
0.968651
0.963007
1.04329
1.04495
1.04402
1.03989
1.03199
1.02106
1.00871
0.996303
0.985064
0.975456
0.967793
0.962087
1.04418
1.04591
1.04496
1.04071
1.03253
1.02126
1.00856
0.995866
0.984418
0.974668
0.966912
0.961147
1.04509
1.04689
1.04594
1.04155
1.03309
1.02144
1.00839
0.995402
0.983744
0.973854
0.966005
0.960183
1.04603
1.0479
1.04694
1.04241
1.03365
1.02162
1.0082
0.994912
0.983043
0.973014
0.965075
0.959197
1.04699
1.04895
1.04798
1.0433
1.03422
1.02179
1.00798
0.994391
0.982311
0.972144
0.964117
0.958185
1.04799
1.05003
1.04905
1.0442
1.03479
1.02194
1.00773
0.99384
0.981549
0.971247
0.963135
0.957151
1.04901
1.05115
1.05015
1.04514
1.03536
1.02207
1.00746
0.993256
0.980753
0.970318
0.962124
0.95609
1.05007
1.0523
1.05129
1.04609
1.03595
1.02219
1.00716
0.992637
0.979924
0.96936
0.961086
0.955006
1.05116
1.05349
1.05247
1.04707
1.03653
1.02229
1.00682
0.991981
0.979058
0.968367
0.960019
0.953894
1.05229
1.05472
1.05369
1.04808
1.03711
1.02237
1.00645
0.991287
0.978157
0.967343
0.958923
0.952757
1.05345
1.056
1.05495
1.04911
1.03769
1.02242
1.00604
0.99055
0.977215
0.966284
0.957796
0.951591
1.05465
1.05732
1.05626
1.05017
1.03827
1.02245
1.00559
0.989771
0.976234
0.965189
0.956639
0.950399
1.05589
1.05868
1.05761
1.05126
1.03885
1.02244
1.0051
0.988944
0.97521
0.964057
0.955449
0.949178
1.05717
1.0601
1.059
1.05237
1.03942
1.0224
1.00456
0.98807
0.974143
0.962888
0.954228
0.94793
1.0585
1.06157
1.06045
1.0535
1.03997
1.02232
1.00396
0.987143
0.973029
0.961679
0.952972
0.94665
1.05987
1.06309
1.06195
1.05466
1.04052
1.02219
1.00331
0.986163
0.971868
0.960431
0.951683
0.945343
1.06129
1.06467
1.0635
1.05585
1.04105
1.02202
1.0026
0.985124
0.970657
0.959139
0.950358
0.944003
1.06276
1.06631
1.0651
1.05706
1.04155
1.02179
1.00183
0.984026
0.969395
0.957807
0.948999
0.942634
1.06429
1.06802
1.06677
1.05829
1.04203
1.02151
1.00098
0.982864
0.968078
0.956428
0.947602
0.941232
1.06587
1.06979
1.0685
1.05954
1.04248
1.02116
1.00007
0.981635
0.966707
0.955006
0.946169
0.9398
1.06751
1.07164
1.07028
1.06081
1.0429
1.02073
0.999069
0.980336
0.965277
0.953536
0.944697
0.938334
1.06921
1.07356
1.07214
1.0621
1.04326
1.02023
0.997988
0.978963
0.963789
0.952019
0.943187
0.936836
1.07098
1.07557
1.07406
1.0634
1.04358
1.01964
0.996816
0.977513
0.962238
0.950453
0.941637
0.935303
1.07282
1.07766
1.07606
1.0647
1.04383
1.01895
0.995549
0.975984
0.960625
0.948837
0.940048
0.933737
1.07473
1.07985
1.07812
1.06601
1.04402
1.01816
0.994177
0.974369
0.958945
0.94717
0.938417
0.932136
1.07672
1.08213
1.08026
1.06732
1.04412
1.01725
0.992698
0.972668
0.957199
0.945451
0.936746
0.930501
1.0788
1.08452
1.08248
1.06861
1.04413
1.01621
0.991102
0.970875
0.955383
0.943678
0.935032
0.928829
1.08096
1.08703
1.08477
1.06989
1.04403
1.01503
0.989383
0.968988
0.953496
0.941852
0.933277
0.927122
1.08322
1.08965
1.08714
1.07113
1.04381
1.01371
0.987535
0.967004
0.951537
0.93997
0.931478
0.925377
1.08558
1.0924
1.08959
1.07233
1.04344
1.01222
0.985552
0.964919
0.949504
0.938033
0.929637
0.923598
1.08805
1.09529
1.09211
1.07348
1.04292
1.01055
0.983424
0.96273
0.947395
0.936039
0.92775
0.921782
1.09063
1.09832
1.0947
1.07455
1.04222
1.00869
0.981148
0.960436
0.945211
0.933989
0.925821
0.91993
1.09334
1.10151
1.09736
1.07552
1.04132
1.00663
0.978716
0.958032
0.942949
0.931881
0.923846
0.918041
1.09619
1.10487
1.10009
1.07638
1.04019
1.00435
0.976121
0.955519
0.940609
0.929717
0.921829
0.916118
1.09918
1.1084
1.10286
1.07709
1.0388
1.00183
0.97336
0.952894
0.938191
0.927494
0.919766
0.914157
1.10233
1.11212
1.10568
1.07763
1.03714
0.999057
0.970427
0.950156
0.935694
0.925215
0.91766
0.912163
1.10566
1.11605
1.10852
1.07795
1.03516
0.99602
0.967318
0.947305
0.933119
0.922878
0.915509
0.910131
1.10917
1.12018
1.11136
1.07802
1.03283
0.992703
0.964031
0.944341
0.930466
0.920485
0.913316
0.908066
1.11289
1.12453
1.11418
1.0778
1.03012
0.989092
0.960564
0.941266
0.927736
0.918036
0.91108
0.905966
1.11683
1.1291
1.11695
1.07722
1.02699
0.985176
0.956919
0.93808
0.92493
0.915533
0.908802
0.903832
1.12103
1.13392
1.11963
1.07624
1.0234
0.980946
0.953095
0.934787
0.92205
0.912977
0.906482
0.901664
1.1255
1.13897
1.12216
1.07478
1.01932
0.976393
0.949098
0.931389
0.919098
0.910369
0.904123
0.899465
1.13028
1.14427
1.12448
1.07277
1.01471
0.971516
0.944934
0.927892
0.916076
0.907711
0.901724
0.897232
1.1354
1.1498
1.12654
1.07014
1.00953
0.966315
0.94061
0.924299
0.912988
0.905006
0.899289
0.894969
1.14089
1.15555
1.12823
1.0668
1.00375
0.960795
0.936137
0.920616
0.909837
0.902256
0.896817
0.892675
1.14681
1.1615
1.12946
1.06265
0.997342
0.954969
0.931529
0.91685
0.906626
0.899466
0.894313
0.890352
1.15319
1.16761
1.13011
1.05761
0.990291
0.948854
0.9268
0.913007
0.90336
0.896636
0.891775
0.887999
1.1601
1.17384
1.13004
1.05157
0.982582
0.942477
0.921968
0.909096
0.900045
0.893774
0.889209
0.885619
1.1676
1.1801
1.12909
1.04444
0.974219
0.935872
0.917052
0.905123
0.896685
0.890883
0.886616
0.883211
1.17574
1.18631
1.12707
1.03611
0.965219
0.92908
0.912072
0.901097
0.893287
0.887968
0.883999
0.880776
1.1846
1.19233
1.12379
1.0265
0.955621
0.92215
0.907048
0.897025
0.889859
0.885036
0.88136
0.878313
1.19425
1.19798
1.11901
1.01555
0.945482
0.915138
0.902001
0.892918
0.886409
0.882093
0.878703
0.875824
1.20476
1.20306
1.11248
1.0032
0.934892
0.908107
0.89695
0.888782
0.882946
0.879148
0.876031
0.873303
1.21621
1.20727
1.10394
0.989443
0.92396
0.901121
0.891912
0.884628
0.879483
0.87621
0.873348
0.870752
1.22866
1.21029
1.0931
0.974315
0.91283
0.894242
0.8869
0.880465
0.876032
0.873289
0.870657
0.868162
1.24213
1.21166
1.07969
0.957913
0.901667
0.887529
0.881925
0.876306
0.87261
0.8704
0.867964
0.865527
1.25663
1.21087
1.06345
0.940419
0.890659
0.881033
0.876995
0.872165
0.869236
0.86755
0.86526
0.86283
1.27211
1.20726
1.04415
0.922104
0.879992
0.874777
0.872108
0.868063
0.865946
0.864786
0.862581
0.860087
1.2884
1.20004
1.02166
0.903359
0.869874
0.868795
0.867264
0.863989
0.862697
0.86201
0.859804
0.857209
1.3052
1.18827
0.995984
0.884626
0.860394
0.863046
0.862543
0.860166
0.859829
0.859608
0.857255
0.854419
1.32203
1.17085
0.96749
0.866672
0.851813
0.857323
0.857415
0.855833
0.856404
0.856662
0.854135
0.851181
1.33793
1.14639
0.936587
0.849675
0.844603
0.852991
0.853872
0.853216
0.854471
0.854698
0.851431
0.848051
1.35179
1.11408
0.906142
0.83353
0.835471
0.845522
0.847465
0.848554
0.851363
0.851981
0.848103
0.844339
1.36005
1.06984
0.880746
0.827306
0.834826
0.844107
0.845179
0.846656
0.850182
0.850733
0.846183
0.842174
1.36382
1.00012
0.83253
0.803955
0.824187
0.838591
0.842151
0.845339
0.849881
0.850645
0.846056
0.842138
0.998041
0.998787
0.999481
0.999502
0.999145
0.998832
0.998715
0.998705
0.998658
0.998512
0.99831
0.998142
0.998464
0.998922
0.999423
0.999434
0.999132
0.998849
0.998725
0.998694
0.998638
0.998502
0.998317
0.998165
0.998723
0.998892
0.999231
0.999288
0.999088
0.998855
0.998718
0.998657
0.998592
0.998477
0.998324
0.998194
0.998781
0.998817
0.999093
0.999215
0.999099
0.998892
0.998726
0.998631
0.998563
0.998473
0.998354
0.998245
0.998801
0.998799
0.99904
0.999181
0.999096
0.99889
0.998704
0.998593
0.998533
0.998471
0.99838
0.998287
0.998854
0.998832
0.999021
0.999138
0.999057
0.998861
0.99868
0.998576
0.998529
0.998486
0.998413
0.998327
0.998925
0.99887
0.998996
0.999078
0.999004
0.998834
0.998676
0.998583
0.998541
0.998502
0.998434
0.998352
0.998977
0.998887
0.998959
0.999019
0.998962
0.998824
0.998687
0.998599
0.998551
0.998508
0.998441
0.998363
0.999001
0.998888
0.998928
0.998977
0.998937
0.998824
0.9987
0.998609
0.998553
0.998505
0.998442
0.99837
0.999008
0.998889
0.998911
0.998954
0.998923
0.998823
0.998706
0.998613
0.998551
0.998501
0.998442
0.998375
0.999017
0.998899
0.998908
0.998941
0.99891
0.998817
0.998705
0.998613
0.998548
0.998497
0.998439
0.998376
0.999032
0.998914
0.99891
0.998929
0.998896
0.998808
0.998702
0.998611
0.998544
0.998491
0.998434
0.998374
0.999051
0.99893
0.998912
0.998918
0.998881
0.998797
0.998696
0.998606
0.998538
0.998483
0.998427
0.998371
0.999066
0.998942
0.998911
0.998906
0.998866
0.998785
0.998688
0.998599
0.99853
0.998474
0.998419
0.998366
0.999076
0.99895
0.998909
0.998895
0.998852
0.998772
0.998677
0.99859
0.99852
0.998464
0.998411
0.99836
0.999081
0.998954
0.998906
0.998884
0.998837
0.998758
0.998665
0.99858
0.99851
0.998454
0.998401
0.998352
0.999083
0.998956
0.998901
0.998872
0.998822
0.998743
0.998652
0.998568
0.998499
0.998443
0.99839
0.998342
0.999082
0.998955
0.998895
0.998859
0.998806
0.998727
0.998638
0.998555
0.998487
0.99843
0.998378
0.99833
0.999079
0.998952
0.998887
0.998846
0.998791
0.998712
0.998624
0.998542
0.998473
0.998416
0.998364
0.998318
0.999073
0.998946
0.998878
0.998833
0.998775
0.998697
0.998609
0.998527
0.998458
0.998401
0.998349
0.998305
0.999065
0.998939
0.998868
0.998821
0.998761
0.998681
0.998593
0.998511
0.998442
0.998385
0.998335
0.998293
0.999056
0.998931
0.998858
0.998808
0.998745
0.998664
0.998576
0.998495
0.998426
0.99837
0.998321
0.99828
0.999046
0.998922
0.998848
0.998794
0.998729
0.998647
0.998559
0.998478
0.998409
0.998354
0.998307
0.998268
0.999035
0.998912
0.998836
0.99878
0.998713
0.99863
0.998541
0.99846
0.998393
0.998339
0.998293
0.998256
0.999024
0.998901
0.998823
0.998764
0.998695
0.998612
0.998524
0.998444
0.998377
0.998324
0.998279
0.998244
0.999011
0.998888
0.998809
0.998748
0.998677
0.998594
0.998506
0.998427
0.998362
0.99831
0.998265
0.998231
0.998998
0.998875
0.998794
0.99873
0.998659
0.998576
0.998489
0.998411
0.998346
0.998294
0.99825
0.998217
0.998983
0.99886
0.998777
0.998713
0.998641
0.998558
0.998472
0.998394
0.99833
0.998279
0.998235
0.998201
0.998968
0.998844
0.998761
0.998695
0.998623
0.99854
0.998455
0.998378
0.998313
0.998262
0.998218
0.998185
0.998952
0.998828
0.998743
0.998677
0.998605
0.998522
0.998437
0.99836
0.998295
0.998244
0.9982
0.998167
0.998935
0.998812
0.998726
0.998658
0.998586
0.998504
0.998419
0.998341
0.998276
0.998224
0.998181
0.998149
0.998919
0.998795
0.998708
0.998639
0.998566
0.998484
0.998399
0.998321
0.998256
0.998204
0.998161
0.998129
0.998902
0.998777
0.998689
0.998619
0.998546
0.998463
0.998378
0.998299
0.998234
0.998182
0.99814
0.99811
0.998885
0.998759
0.998669
0.998597
0.998524
0.998441
0.998355
0.998276
0.998211
0.998159
0.998118
0.998089
0.998868
0.998741
0.998649
0.998575
0.998501
0.998418
0.998331
0.998252
0.998186
0.998136
0.998096
0.998069
0.998849
0.998721
0.998627
0.998552
0.998477
0.998393
0.998306
0.998227
0.998161
0.998111
0.998073
0.998047
0.99883
0.9987
0.998604
0.998528
0.998451
0.998367
0.99828
0.9982
0.998135
0.998086
0.998049
0.998025
0.998809
0.998677
0.99858
0.998502
0.998425
0.99834
0.998253
0.998173
0.998108
0.99806
0.998025
0.998003
0.998787
0.998654
0.998555
0.998476
0.998398
0.998313
0.998225
0.998144
0.99808
0.998033
0.997999
0.99798
0.998764
0.998629
0.998529
0.998449
0.998371
0.998285
0.998196
0.998115
0.998051
0.998006
0.997973
0.997956
0.99874
0.998604
0.998502
0.998422
0.998343
0.998256
0.998167
0.998086
0.998022
0.997978
0.997947
0.997932
0.998715
0.998578
0.998475
0.998395
0.998315
0.998227
0.998136
0.998055
0.997992
0.997949
0.99792
0.997907
0.998689
0.998551
0.998448
0.998367
0.998286
0.998198
0.998106
0.998024
0.997961
0.997919
0.997892
0.997882
0.998662
0.998524
0.99842
0.998339
0.998257
0.998167
0.998075
0.997993
0.997929
0.997889
0.997863
0.997855
0.998635
0.998497