/*--------------------------------*- C++ -*----------------------------------*\
  =========                 |
  \\      /  F ield         | OpenFOAM: The Open Source CFD Toolbox
   \\    /   O peration     | Website:  https://openfoam.org
    \\  /    A nd           | Version:  6.0
     \\/     M anipulation  |
\*---------------------------------------------------------------------------*/
FoamFile
{
    version     2.0;
    format      ascii;
    class       volVectorField;
    location    "4.8";
    object      U;
}
// * * * * * * * * * * * * * * * * * * * * * * * * * * * * * * * * * * * * * //

dimensions      [0 1 -1 0 0 0 0];

internalField   nonuniform List<vector> 
24000
(
(0.999994 3.39038e-06 -7.95892e-17)
(0.999949 -1.25964e-05 1.08392e-16)
(0.999863 -5.5985e-05 -1.90651e-16)
(0.999755 -0.000142066 2.1044e-16)
(0.999652 -0.000266888 -1.03849e-15)
(0.999583 -0.000413747 -6.15735e-16)
(0.999571 -0.000551675 6.30433e-16)
(0.999614 -0.000655769 -1.39688e-15)
(0.999707 -0.000691052 4.38562e-16)
(0.999818 -0.000672137 -3.22568e-16)
(0.999945 -0.000486594 -3.12425e-16)
(1.0005 0.000348541 -4.66476e-16)
(0.999988 1.52756e-05 1.16674e-16)
(0.999906 -2.06296e-05 -1.60391e-16)
(0.999749 -0.000110541 3.5625e-16)
(0.999551 -0.000281201 -8.89864e-17)
(0.999367 -0.000522294 4.62219e-16)
(0.999248 -0.000799221 6.22733e-16)
(0.999235 -0.00105369 -3.50729e-16)
(0.999324 -0.00124184 1.48412e-15)
(0.999504 -0.00129859 -3.11427e-16)
(0.99972 -0.00126199 1.59778e-17)
(0.999916 -0.000936061 8.1632e-17)
(1.00105 0.000289431 1.5522e-16)
(0.999987 2.72121e-05 -8.88673e-17)
(0.999918 -2.09386e-05 2.16113e-16)
(0.999779 -0.000120651 -1.23476e-16)
(0.999604 -0.000296644 4.51658e-16)
(0.999441 -0.0005396 2.51733e-16)
(0.999333 -0.000814556 2.31589e-16)
(0.999326 -0.00106602 5.1877e-16)
(0.999414 -0.00125462 -6.59789e-16)
(0.999587 -0.00131722 -3.68254e-16)
(0.999808 -0.00130084 -1.30049e-16)
(0.999935 -0.00103712 -2.91242e-17)
(1.00113 -0.000240453 4.91098e-16)
(0.999986 3.75015e-05 -3.79457e-17)
(0.999932 -2.46811e-05 -2.04472e-16)
(0.999821 -0.000131947 -3.15846e-16)
(0.999683 -0.000304136 -2.23912e-16)
(0.999553 -0.000534371 -1.31177e-16)
(0.999466 -0.000789445 -9.06468e-16)
(0.999464 -0.0010225 -1.43625e-15)
(0.999545 -0.00120019 1.64115e-16)
(0.999699 -0.00126554 4.70205e-17)
(0.999918 -0.00126233 6.46367e-16)
(0.999974 -0.00105776 -4.13064e-16)
(1.00107 -0.000482983 -5.74428e-16)
(0.999983 4.62362e-05 6.76005e-17)
(0.999934 -3.36642e-05 3.30095e-17)
(0.999832 -0.000156845 1.60063e-16)
(0.999711 -0.000339133 -7.56839e-17)
(0.999599 -0.000573954 2.08011e-16)
(0.999529 -0.000825677 1.87301e-16)
(0.999536 -0.00105255 1.45289e-15)
(0.999623 -0.00122279 -9.49484e-17)
(0.999777 -0.00128153 -2.80117e-16)
(1.00001 -0.00126638 7.61509e-17)
(1.00004 -0.00106432 2.85064e-16)
(1.00103 -0.000475163 -1.52104e-16)
(0.999978 5.35911e-05 3.91192e-18)
(0.99993 -4.5417e-05 -1.8993e-17)
(0.99983 -0.000187542 -2.13632e-17)
(0.999718 -0.000385521 -3.8691e-18)
(0.999619 -0.000631573 -8.63255e-16)
(0.999565 -0.000885322 1.05661e-15)
(0.999586 -0.00110783 2.93199e-17)
(0.999686 -0.00126806 1.46348e-16)
(0.999848 -0.00131227 6.92361e-16)
(1.00011 -0.00127669 -3.40917e-16)
(1.00013 -0.00106275 5.17283e-16)
(1.00101 -0.000463866 3.48389e-16)
(0.999972 5.95459e-05 -3.54018e-18)
(0.999926 -5.85186e-05 2.04819e-16)
(0.99983 -0.000218686 -2.07787e-16)
(0.999726 -0.0004316 -1.01343e-16)
(0.99964 -0.000688247 4.43629e-16)
(0.999601 -0.00094377 -2.18271e-16)
(0.999637 -0.00116144 -6.04602e-16)
(0.999749 -0.00131221 -3.13715e-16)
(0.999919 -0.00134417 1.22294e-16)
(1.0002 -0.00129594 6.02964e-16)
(1.00023 -0.00108377 -1.2211e-15)
(1.00102 -0.000534878 3.19446e-16)
(0.999966 6.40684e-05 -5.22897e-17)
(0.999923 -7.2859e-05 7.92932e-17)
(0.999831 -0.000250126 2.39433e-16)
(0.999736 -0.000477383 4.53396e-16)
(0.99966 -0.000744992 2.4143e-16)
(0.999634 -0.00100465 -2.67951e-16)
(0.999681 -0.00122123 -2.91388e-16)
(0.999804 -0.0013683 -1.39692e-16)
(0.999979 -0.00139546 4.82712e-17)
(1.00027 -0.00134221 -1.30596e-16)
(1.00034 -0.00113958 1.04549e-15)
(1.00105 -0.000648151 -5.52271e-16)
(0.999959 6.72076e-05 2.0588e-17)
(0.999918 -8.84056e-05 -1.94722e-16)
(0.999832 -0.000282249 1.46127e-17)
(0.999743 -0.000523675 -7.23582e-17)
(0.999677 -0.000802809 7.30305e-17)
(0.999662 -0.00106879 -6.11692e-17)
(0.999718 -0.00128738 5.12594e-17)
(0.999851 -0.00143442 5.5939e-16)
(1.00003 -0.00146046 -6.93346e-17)
(1.00035 -0.00140159 -7.91154e-16)
(1.00044 -0.00120338 -8.81997e-16)
(1.00111 -0.000743165 9.82462e-16)
(0.999951 6.90611e-05 7.31703e-17)
(0.999913 -0.000104931 4.86735e-18)
(0.999833 -0.00031464 1.8449e-16)
(0.999753 -0.000569156 -4.83815e-16)
(0.999697 -0.000858403 -1.15495e-16)
(0.999692 -0.00112962 5.22789e-16)
(0.999758 -0.00134896 -4.44132e-16)
(0.999901 -0.00149428 -6.69919e-16)
(1.00009 -0.00151717 2.05208e-16)
(1.00042 -0.00144769 2.05843e-16)
(1.00056 -0.00124643 6.55836e-16)
(1.0012 -0.000798752 -1.38921e-16)
(0.999942 6.97328e-05 -1.00359e-16)
(0.999907 -0.000122245 -2.31101e-17)
(0.999834 -0.000347045 -2.19875e-16)
(0.999764 -0.000613097 3.65972e-17)
(0.99972 -0.000910027 1.6733e-16)
(0.999727 -0.00118374 -3.60805e-16)
(0.999805 -0.00140061 2.71101e-16)
(0.999959 -0.00154043 7.54825e-16)
(1.00016 -0.00155666 -5.62917e-16)
(1.0005 -0.00147362 2.24619e-16)
(1.00067 -0.00126748 -8.49585e-16)
(1.0013 -0.000833707 -9.10246e-16)
(0.999932 6.9332e-05 6.51547e-18)
(0.9999 -0.000140294 1.91961e-16)
(0.999836 -0.000379777 -1.92575e-16)
(0.999777 -0.000656356 1.48969e-16)
(0.999746 -0.000959381 -4.57885e-16)
(0.999767 -0.00123401 -2.04055e-16)
(0.999856 -0.00144674 6.64534e-17)
(1.00002 -0.00157927 -3.03147e-16)
(1.00023 -0.00158766 -3.94684e-16)
(1.00058 -0.00149236 3.63512e-16)
(1.00078 -0.00128447 2.86393e-16)
(1.0014 -0.000874246 1.01291e-17)
(0.999921 6.79763e-05 2.4515e-17)
(0.999892 -0.000159043 -1.91833e-17)
(0.999835 -0.000413241 5.30625e-16)
(0.999788 -0.000700138 1.53108e-16)
(0.999771 -0.00100896 2.61734e-16)
(0.999804 -0.00128471 -2.9261e-16)
(0.999905 -0.00149408 -1.47992e-16)
(1.00008 -0.00162042 1.20688e-16)
(1.0003 -0.00162259 4.66163e-16)
(1.00066 -0.00151861 -1.22131e-15)
(1.00089 -0.00131257 -4.87864e-16)
(1.00149 -0.000930583 5.45683e-16)
(0.999909 6.57855e-05 -7.57134e-17)
(0.999882 -0.000178418 -6.73977e-17)
(0.999832 -0.000447576 -4.19365e-16)
(0.999797 -0.000744988 -3.31452e-16)
(0.999792 -0.00105986 -2.32336e-16)
(0.999837 -0.00133765 3.65254e-16)
(0.99995 -0.00154549 2.51207e-16)
(1.00014 -0.00166795 -2.76782e-16)
(1.00036 -0.00166653 -3.71495e-16)
(1.00073 -0.00155699 -1.33133e-16)
(1.00099 -0.00135403 6.92824e-16)
(1.00159 -0.00099695 -4.8485e-16)
(0.999897 6.28721e-05 4.07547e-17)
(0.999871 -0.000198302 3.22201e-17)
(0.999827 -0.000482657 4.9537e-17)
(0.999803 -0.000790806 7.90562e-17)
(0.999811 -0.00111187 8.22153e-17)
(0.999867 -0.00139222 -1.48352e-16)
(0.999991 -0.00159983 7.77889e-18)
(1.00019 -0.00172019 -3.83369e-16)
(1.00042 -0.00171707 3.6305e-16)
(1.0008 -0.00160342 1.38448e-15)
(1.00109 -0.00140252 -2.06025e-16)
(1.00168 -0.00106356 6.75226e-16)
(0.999884 5.93347e-05 -3.93514e-17)
(0.999858 -0.000218577 1.48651e-18)
(0.99982 -0.000518268 1.47837e-16)
(0.999806 -0.000837321 2.09103e-16)
(0.999826 -0.00116447 2.31351e-16)
(0.999895 -0.00144726 -1.50342e-16)
(1.00003 -0.00165496 -2.4213e-16)
(1.00024 -0.00177379 5.92217e-16)
(1.00048 -0.00176962 1.43441e-16)
(1.00087 -0.00165203 -1.49223e-15)
(1.00119 -0.00145155 2.36157e-16)
(1.00177 -0.00112553 2.23843e-17)
(0.99987 5.52573e-05 9.0038e-17)
(0.999845 -0.000239131 3.30841e-17)
(0.999812 -0.000554184 -3.19545e-16)
(0.999808 -0.000884325 1.37936e-16)
(0.99984 -0.00121747 -5.61555e-17)
(0.999922 -0.00150234 3.67625e-16)
(1.00007 -0.00170987 6.26e-16)
(1.00029 -0.00182697 1.05422e-16)
(1.00054 -0.00182162 5.11309e-16)
(1.00094 -0.00169989 1.24061e-15)
(1.00128 -0.0014987 1.4368e-15)
(1.00187 -0.00118315 -5.38698e-16)
(0.999855 5.07101e-05 3.46066e-17)
(0.99983 -0.000259863 -2.74395e-17)
(0.999803 -0.00059019 3.03936e-16)
(0.999807 -0.000931641 -2.77302e-16)
(0.999852 -0.00127093 3.92602e-16)
(0.999947 -0.00155778 4.03455e-18)
(1.00011 -0.00176491 -4.06966e-16)
(1.00034 -0.00187996 1.28343e-16)
(1.0006 -0.00187312 -4.42719e-16)
(1.00101 -0.00174722 -2.16793e-16)
(1.00137 -0.00154478 -5.76298e-16)
(1.00196 -0.00123858 -1.06935e-16)
(0.99984 4.57539e-05 -4.15021e-17)
(0.999815 -0.000280672 -2.31053e-16)
(0.999793 -0.000626051 -1.265e-16)
(0.999806 -0.000978983 1.55298e-16)
(0.999862 -0.00132474 -2.8212e-17)
(0.99997 -0.00161386 -2.62204e-16)
(1.00014 -0.00182071 -5.46926e-17)
(1.00039 -0.00193367 -3.38019e-17)
(1.00066 -0.00192514 -5.31441e-16)
(1.00108 -0.00179518 -3.90046e-16)
(1.00146 -0.00159108 -1.72792e-15)
(1.00205 -0.00129266 1.02904e-15)
(0.999824 4.04407e-05 -3.95435e-17)
(0.999799 -0.00030148 2.40542e-16)
(0.999782 -0.000661541 -1.7175e-16)
(0.999803 -0.00102595 7.66765e-17)
(0.99987 -0.00137849 -1.88284e-16)
(0.999991 -0.0016704 -4.26639e-16)
(1.00018 -0.00187738 5.41359e-17)
(1.00044 -0.00198839 -6.91363e-17)
(1.00073 -0.00197811 2.87692e-16)
(1.00115 -0.00184415 4.47374e-16)
(1.00155 -0.00163778 1.54635e-15)
(1.00215 -0.00134514 -9.95063e-16)
(0.999808 3.48206e-05 2.8443e-17)
(0.999783 -0.000322218 -1.11995e-17)
(0.999772 -0.000696479 2.72402e-17)
(0.9998 -0.0010721 -6.35952e-17)
(0.999878 -0.00143158 -2.36586e-16)
(1.00001 -0.00172672 -9.46351e-18)
(1.00021 -0.00193427 -1.25553e-16)
(1.00048 -0.00204359 -6.70859e-16)
(1.00079 -0.00203148 4.04348e-16)
(1.00122 -0.0018935 2.19101e-16)
(1.00164 -0.00168419 6.5429e-17)
(1.00224 -0.00139541 2.23715e-16)
(0.999791 2.89437e-05 3.25338e-17)
(0.999767 -0.000342856 -2.63897e-16)
(0.999762 -0.000730785 5.16869e-16)
(0.999798 -0.00111715 4.91975e-17)
(0.999886 -0.00148345 1.43509e-16)
(1.00003 -0.00178209 8.70221e-16)
(1.00024 -0.00199056 7.15854e-16)
(1.00053 -0.00209839 3.62404e-16)
(1.00085 -0.00208443 -9.60625e-16)
(1.00129 -0.00194247 -2.80307e-16)
(1.00174 -0.00172987 9.28234e-17)
(1.00234 -0.00144388 -3.34011e-17)
(0.999773 2.28699e-05 -6.09689e-17)
(0.99975 -0.00036338 1.05126e-16)
(0.999752 -0.000764476 -6.96953e-17)
(0.999796 -0.00116104 -8.85317e-17)
(0.999895 -0.0015339 -2.55305e-16)
(1.00005 -0.00183612 -5.05299e-16)
(1.00028 -0.00204577 -2.74718e-16)
(1.00058 -0.00215235 -2.17937e-17)
(1.00091 -0.00213664 2.7841e-16)
(1.00137 -0.00199097 -2.65653e-16)
(1.00183 -0.00177512 -1.56905e-15)
(1.00243 -0.00149147 7.9771e-16)
(0.999754 1.6668e-05 4.45155e-17)
(0.999733 -0.000383794 6.34388e-18)
(0.999742 -0.000797663 -1.89652e-16)
(0.999794 -0.00120393 -1.4509e-16)
(0.999904 -0.0015831 -8.05316e-17)
(1.00008 -0.00188894 -1.19078e-16)
(1.00031 -0.00210002 -2.17284e-16)
(1.00063 -0.00220567 -2.31877e-16)
(1.00097 -0.00218845 -6.7617e-17)
(1.00144 -0.00203957 -2.46479e-16)
(1.00192 -0.00182073 9.31426e-17)
(1.00253 -0.00153926 -1.58725e-16)
(0.999735 1.0422e-05 1.52586e-17)
(0.999715 -0.000404095 1.49371e-16)
(0.999731 -0.000830473 4.08986e-17)
(0.999792 -0.00124613 -1.57093e-17)
(0.999913 -0.00163147 9.89065e-17)
(1.0001 -0.00194102 2.7802e-16)
(1.00035 -0.00215383 1.07047e-16)
(1.00068 -0.00225894 2.67825e-16)
(1.00104 -0.00224058 3.14092e-16)
(1.00151 -0.00208899 -3.06702e-16)
(1.00201 -0.00186738 1.00777e-15)
(1.00262 -0.00158779 -6.26308e-16)
(0.999715 4.22347e-06 -2.0691e-17)
(0.999696 -0.000424274 -1.95434e-17)
(0.999718 -0.000863024 -1.47766e-16)
(0.999789 -0.00128794 -9.72803e-17)
(0.999922 -0.00167948 -3.48776e-17)
(1.00012 -0.00199294 -1.79062e-16)
(1.00038 -0.00220781 1.04238e-17)
(1.00073 -0.00231279 -3.11755e-16)
(1.0011 -0.00229362 -2.70949e-17)
(1.00159 -0.00213971 1.05401e-15)
(1.0021 -0.00191522 4.97716e-16)
(1.00272 -0.00163691 5.34309e-17)
(0.999695 -1.82632e-06 -9.84406e-18)
(0.999676 -0.000444301 -1.14654e-16)
(0.999705 -0.000895376 -5.0537e-17)
(0.999785 -0.00132958 -7.55266e-17)
(0.999929 -0.00172753 5.57796e-16)
(1.00014 -0.00204516 -1.29271e-16)
(1.00042 -0.00226239 1.53934e-16)
(1.00078 -0.0023676 -1.5999e-16)
(1.00116 -0.0023478 -2.55727e-16)
(1.00166 -0.00219169 -2.65786e-16)
(1.00219 -0.00196396 -1.96995e-17)
(1.00282 -0.00168613 -2.02499e-16)
(0.999673 -7.62852e-06 3.40861e-17)
(0.999654 -0.000464137 -4.08498e-17)
(0.99969 -0.000927544 1.71649e-16)
(0.99978 -0.00137119 3.46637e-16)
(0.999935 -0.00177581 -5.27427e-16)
(1.00016 -0.00209791 4.99362e-16)
(1.00045 -0.00231779 -2.76227e-16)
(1.00082 -0.00242343 -1.44278e-16)
(1.00123 -0.00240304 -1.94456e-16)
(1.00174 -0.00224465 -3.55866e-16)
(1.00228 -0.00201321 -1.51214e-16)
(1.00291 -0.00173511 -1.215e-16)
(0.99965 -1.30865e-05 -5.82224e-18)
(0.999632 -0.000483732 -1.56663e-17)
(0.999674 -0.000959502 -1.57844e-17)
(0.999773 -0.00141278 -3.35541e-16)
(0.99994 -0.00182439 -1.44095e-16)
(1.00018 -0.00215127 -1.30643e-17)
(1.00048 -0.00237402 -3.90112e-16)
(1.00087 -0.0024802 7.19271e-16)
(1.00129 -0.00245911 -5.86862e-18)
(1.00182 -0.00229828 2.51403e-16)
(1.00237 -0.00206269 1.78343e-16)
(1.00301 -0.00178392 -5.46526e-18)
(0.999626 -1.81165e-05 -1.88895e-17)
(0.999608 -0.000503039 1.07875e-16)
(0.999657 -0.000991219 3.21352e-17)
(0.999765 -0.00145432 4.61179e-16)
(0.999944 -0.00187322 2.51756e-16)
(1.00019 -0.00220518 -4.22489e-16)
(1.00052 -0.00243099 1.91904e-16)
(1.00092 -0.00253779 -3.78951e-16)
(1.00135 -0.00251587 1.31268e-15)
(1.00189 -0.00235246 -1.02118e-16)
(1.00246 -0.0021124 2.24915e-17)
(1.00311 -0.00183274 -1.41648e-16)
(0.999601 -2.26442e-05 -1.97103e-17)
(0.999584 -0.000522013 7.5362e-17)
(0.999638 -0.00102267 -9.0557e-17)
(0.999755 -0.00149578 -4.47588e-16)
(0.999946 -0.00192225 4.636e-16)
(1.00021 -0.00225955 2.71284e-16)
(1.00055 -0.00248862 3.43228e-16)
(1.00097 -0.00259613 1.53644e-16)
(1.00142 -0.00257329 -1.09044e-16)
(1.00197 -0.00240723 5.4792e-16)
(1.00255 -0.00216258 -9.95128e-16)
(1.00321 -0.001882 1.12769e-15)
(0.999575 -2.66116e-05 2.74649e-17)
(0.999558 -0.000540621 -1.44237e-16)
(0.999618 -0.00105385 -8.42361e-17)
(0.999745 -0.00153716 -2.68401e-17)
(0.999948 -0.00197142 -1.77316e-16)
(1.00023 -0.00231433 -5.03949e-18)
(1.00058 -0.00254688 -2.82131e-16)
(1.00101 -0.00265523 -2.1362e-16)
(1.00148 -0.00263147 -1.20574e-15)
(1.00205 -0.00246281 -3.98274e-16)
(1.00264 -0.00221358 -2.56404e-16)
(1.00331 -0.00193198 -3.02337e-17)
(0.999547 -2.99705e-05 1.05327e-17)
(0.999531 -0.000558835 -1.18578e-17)
(0.999598 -0.00108478 -4.26203e-17)
(0.999734 -0.00157849 3.25618e-16)
(0.999949 -0.00202077 -5.52997e-16)
(1.00024 -0.00236953 -4.10518e-16)
(1.00061 -0.0026058 3.52821e-16)
(1.00106 -0.0027152 -2.33561e-17)
(1.00155 -0.0026906 7.3063e-17)
(1.00212 -0.0025195 4.22108e-16)
(1.00273 -0.00226574 -1.68945e-16)
(1.0034 -0.00198291 3.05748e-16)
(0.999518 -3.26871e-05 -1.51724e-17)
(0.999502 -0.000576638 1.70073e-16)
(0.999576 -0.00111551 2.88572e-16)
(0.999721 -0.00161985 -9.61696e-17)
(0.99995 -0.0020704 4.35803e-17)
(1.00026 -0.00242527 1.82395e-16)
(1.00064 -0.00266551 -4.21219e-16)
(1.00111 -0.0027762 4.43697e-16)
(1.00161 -0.00275092 3.45161e-16)
(1.0022 -0.00257755 -2.84609e-16)
(1.00282 -0.00231935 3.23994e-18)
(1.0035 -0.00203487 -1.9159e-17)
(0.999487 -3.47337e-05 -4.29411e-18)
(0.999473 -0.000594009 -2.47071e-16)
(0.999552 -0.00114608 -4.85076e-17)
(0.999708 -0.00166136 5.79579e-17)
(0.999949 -0.00212047 6.52379e-16)
(1.00027 -0.00248173 5.21061e-17)
(1.00067 -0.00272621 3.91102e-16)
(1.00115 -0.00283846 -7.24697e-16)
(1.00167 -0.00281268 3.64141e-16)
(1.00228 -0.00263721 -4.37767e-16)
(1.00292 -0.00237457 9.40467e-16)
(1.0036 -0.00208786 -4.69029e-16)
(0.999455 -3.60943e-05 2.14644e-17)
(0.999443 -0.000610936 1.0954e-16)
(0.999528 -0.00117652 -1.16362e-16)
(0.999693 -0.00170311 4.79128e-17)
(0.999947 -0.00217115 -3.92435e-16)
(1.00028 -0.00253911 -1.38212e-16)
(1.0007 -0.00278811 2.26968e-17)
(1.0012 -0.00290219 5.19302e-16)
(1.00174 -0.00287606 3.136e-16)
(1.00236 -0.00269857 -2.1667e-17)
(1.00301 -0.00243139 1.23917e-15)
(1.0037 -0.00214166 -6.13599e-16)
(0.999422 -3.67576e-05 1.44288e-18)
(0.999411 -0.000627399 1.19557e-16)
(0.999502 -0.00120682 1.19473e-16)
(0.999676 -0.00174517 -1.44054e-17)
(0.999943 -0.00222258 2.86995e-16)
(1.00029 -0.0025976 3.71238e-16)
(1.00073 -0.0028514 -1.13322e-16)
(1.00125 -0.00296752 5.21658e-16)
(1.0018 -0.00294113 -1.19767e-15)
(1.00244 -0.00276158 -1.32965e-16)
(1.0031 -0.00248963 -1.78389e-15)
(1.0038 -0.00219575 1.41589e-16)
(0.999387 -3.67235e-05 -6.22537e-17)
(0.999378 -0.000643387 7.43869e-17)
(0.999474 -0.00123698 -2.1263e-17)
(0.999658 -0.00178753 1.55138e-16)
(0.999938 -0.00227481 -2.13686e-16)
(1.00031 -0.00265728 -5.20959e-16)
(1.00076 -0.00291614 -4.00872e-17)
(1.00129 -0.00303448 -3.7183e-16)
(1.00186 -0.00300781 1.27578e-15)
(1.00251 -0.00282603 -4.3013e-17)
(1.00319 -0.00254898 3.82837e-16)
(1.0039 -0.00224979 7.07661e-16)
(0.999351 -3.59981e-05 1.54815e-17)
(0.999344 -0.000658887 -3.1892e-16)
(0.999446 -0.00126693 1.09944e-16)
(0.999639 -0.00183013 -5.10041e-16)
(0.999932 -0.00232777 2.55255e-16)
(1.00031 -0.00271809 8.45423e-16)
(1.00078 -0.00298227 -2.1928e-16)
(1.00134 -0.00310292 -5.19454e-16)
(1.00193 -0.00307588 -4.06005e-16)
(1.00259 -0.00289163 -8.03402e-17)
(1.00328 -0.00260906 3.96823e-16)
(1.004 -0.0023034 -6.47141e-16)
(0.999313 -3.46001e-05 3.55045e-17)
(0.999309 -0.000673899 9.26566e-17)
(0.999416 -0.00129664 -3.33883e-16)
(0.999619 -0.00187287 4.62543e-16)
(0.999925 -0.00238134 -6.95635e-16)
(1.00032 -0.0027799 -6.95117e-16)
(1.00081 -0.0030496 2.65088e-16)
(1.00138 -0.00317262 9.32637e-16)
(1.00199 -0.00314506 -5.25641e-16)
(1.00267 -0.00295802 2.11683e-16)
(1.00338 -0.00266954 -1.71247e-16)
(1.0041 -0.00235648 6.06192e-17)
(0.999274 -3.25551e-05 -6.04772e-18)
(0.999274 -0.000688433 1.99969e-16)
(0.999386 -0.00132606 2.66384e-16)
(0.999597 -0.00191564 -3.17154e-16)
(0.999917 -0.00243533 1.54343e-16)
(1.00033 -0.00284247 4.28195e-16)
(1.00083 -0.00311788 1.44043e-16)
(1.00142 -0.0032433 -9.66696e-17)
(1.00205 -0.00321504 7.36827e-16)
(1.00275 -0.00302492 3.75236e-16)
(1.00347 -0.00273018 7.06632e-17)
(1.00421 -0.00240885 6.39644e-17)
(0.999234 -2.9902e-05 1.35956e-17)
(0.999237 -0.000702518 -2.23077e-16)
(0.999355 -0.00135518 -5.89485e-17)
(0.999576 -0.00195833 1.24209e-16)
(0.999908 -0.00248958 7.5108e-16)
(1.00034 -0.00290557 -3.85371e-16)
(1.00086 -0.00318685 -3.28435e-16)
(1.00147 -0.00331468 -7.46737e-17)
(1.00211 -0.0032856 -7.28776e-16)
(1.00283 -0.00309215 4.24068e-16)
(1.00356 -0.00279093 -5.90854e-17)
(1.00431 -0.00246072 3.80477e-16)
(0.999193 -2.66852e-05 -1.07879e-17)
(0.999199 -0.000716192 1.39677e-16)
(0.999324 -0.001384 -9.63981e-17)
(0.999553 -0.00200092 3.61806e-16)
(0.999898 -0.00254396 -7.05585e-16)
(1.00034 -0.00296903 4.95912e-16)
(1.00088 -0.00325633 -4.82586e-17)
(1.00151 -0.00338661 -5.04437e-17)
(1.00218 -0.0033566 7.54094e-16)
(1.00291 -0.00315966 -2.90954e-16)
(1.00366 -0.00285183 -2.38437e-16)
(1.00441 -0.00251222 -9.61074e-17)
(0.99915 -2.29595e-05 1.51842e-18)
(0.999161 -0.000729513 -2.60341e-17)
(0.999291 -0.0014126 1.17462e-16)
(0.99953 -0.00204343 -4.01309e-16)
(0.999889 -0.00259844 3.48359e-16)
(1.00035 -0.0030328 1.16587e-16)
(1.00091 -0.00332625 1.67987e-16)
(1.00156 -0.00345905 -8.77417e-16)
(1.00224 -0.00342807 -3.68324e-16)
(1.00299 -0.00322756 -1.32575e-15)
(1.00375 -0.002913 -6.93955e-16)
(1.00452 -0.00256376 -7.15048e-16)
(0.999106 -1.87814e-05 -1.97128e-17)
(0.999121 -0.000742541 1.80462e-17)
(0.999258 -0.00144106 -2.20107e-16)
(0.999507 -0.00208594 1.44749e-17)
(0.999879 -0.0026531 -8.84989e-17)
(1.00036 -0.00309691 5.25595e-18)
(1.00093 -0.00339665 3.10322e-16)
(1.0016 -0.00353206 1.18621e-15)
(1.0023 -0.00350013 1.03177e-16)
(1.00307 -0.003296 8.27438e-16)
(1.00385 -0.00297464 -1.21569e-16)
(1.00462 -0.00261549 1.29779e-15)
(0.999061 -1.42137e-05 1.89665e-17)
(0.999081 -0.000755346 1.0956e-17)
(0.999224 -0.00146949 2.97456e-16)
(0.999483 -0.00212859 -1.74004e-16)
(0.999868 -0.00270806 -2.03797e-16)
(1.00036 -0.0031615 -2.35463e-16)
(1.00096 -0.00346767 -1.42868e-16)
(1.00164 -0.0036058 -4.75615e-16)
(1.00237 -0.00357295 8.56429e-17)
(1.00315 -0.00336517 8.221e-16)
(1.00394 -0.00303693 7.99073e-16)
(1.00472 -0.00266781 -1.15252e-15)
(0.999015 -9.31734e-06 -1.93634e-17)
(0.999039 -0.000767991 -2.39553e-16)
(0.999189 -0.00149798 -1.27557e-16)
(0.999458 -0.00217153 2.92288e-17)
(0.999857 -0.00276352 5.10889e-16)
(1.00037 -0.00322676 -4.05233e-16)
(1.00098 -0.00353951 -3.61766e-16)
(1.00169 -0.00368047 -4.4739e-16)
(1.00243 -0.00364671 -5.36636e-16)
(1.00323 -0.00343525 -1.77627e-15)
(1.00404 -0.00309981 -5.94763e-16)
(1.00483 -0.00272063 5.84347e-16)
(0.998967 -4.15594e-06 9.69085e-18)
(0.998996 -0.000780543 2.00069e-16)
(0.999152 -0.00152666 6.03519e-17)
(0.999431 -0.00221491 3.72422e-16)
(0.999845 -0.00281965 -5.89665e-16)
(1.00037 -0.0032929 5.74965e-16)
(1.00101 -0.00361238 -6.8531e-18)
(1.00173 -0.00375624 1.05427e-15)
(1.0025 -0.0037216 3.80831e-16)
(1.00331 -0.00350638 2.31644e-15)
(1.00413 -0.00316332 3.30741e-16)
(1.00493 -0.00277409 5.44571e-16)
(0.998918 1.21093e-06 -1.97851e-17)
(0.998951 -0.000793056 4.2977e-17)
(0.999115 -0.0015556 9.36164e-17)
(0.999404 -0.00225886 -1.45646e-16)
(0.999832 -0.00287663 5.03824e-16)
(1.00038 -0.0033601 -6.06612e-16)
(1.00103 -0.00368644 5.54014e-16)
(1.00178 -0.00383327 -1.42277e-16)
(1.00256 -0.00379771 2.32333e-16)
(1.00339 -0.00357861 -1.68929e-15)
(1.00423 -0.00322754 1.00502e-15)
(1.00504 -0.00282838 -1.21538e-15)
(0.998868 6.72207e-06 2.12811e-17)
(0.998905 -0.000805585 -1.18971e-16)
(0.999075 -0.00158487 -1.72999e-16)
(0.999375 -0.00230348 -1.71064e-16)
(0.999817 -0.00293456 5.21831e-17)
(1.00038 -0.00342847 -1.59693e-16)
(1.00105 -0.00376179 -3.01765e-16)
(1.00182 -0.00391165 -6.69907e-16)
(1.00262 -0.00387509 -2.40059e-16)
(1.00347 -0.00365199 3.94819e-16)
(1.00432 -0.00329258 -9.87249e-16)
(1.00514 -0.00288375 7.02664e-16)
(0.998817 1.23206e-05 5.12771e-17)
(0.998858 -0.000818176 1.44673e-17)
(0.999035 -0.00161451 -4.60343e-17)
(0.999345 -0.00234882 1.24313e-16)
(0.999802 -0.00299351 -6.87973e-16)
(1.00038 -0.00349808 1.16492e-16)
(1.00108 -0.0038385 5.04924e-16)
(1.00186 -0.0039914 -2.81993e-16)
(1.00269 -0.00395375 9.47802e-17)
(1.00355 -0.00372648 -1.24284e-16)
(1.00442 -0.00335839 2.25351e-16)
(1.00525 -0.00294011 -5.29552e-16)
(0.998765 1.79482e-05 -3.34732e-17)
(0.998809 -0.000830878 7.3529e-17)
(0.998992 -0.00164457 -1.34568e-16)
(0.999313 -0.00239491 -8.06318e-17)
(0.999785 -0.00305351 5.11799e-16)
(1.00038 -0.00356895 2.11737e-16)
(1.0011 -0.00391657 -2.23564e-16)
(1.0019 -0.00407251 4.58742e-16)
(1.00275 -0.00403369 1.51084e-16)
(1.00363 -0.00380211 2.98317e-16)
(1.00452 -0.00342503 -3.07718e-16)
(1.00535 -0.00299749 -1.11207e-17)
(0.998712 2.35503e-05 -5.12623e-17)
(0.998759 -0.000843731 -2.66863e-17)
(0.998949 -0.00167508 1.38726e-16)
(0.99928 -0.00244176 1.22646e-16)
(0.999767 -0.00311457 1.59549e-16)
(1.00038 -0.00364108 4.31688e-16)
(1.00112 -0.00399598 -1.93785e-16)
(1.00195 -0.00415498 -8.64553e-17)
(1.00281 -0.00411489 -1.83305e-16)
(1.00371 -0.00387885 -6.7069e-18)
(1.00461 -0.00349261 6.66214e-18)
(1.00546 -0.00305608 3.87682e-16)
(0.998658 2.90711e-05 8.62415e-17)
(0.998708 -0.000856785 -1.39863e-17)
(0.998904 -0.00170606 1.60352e-16)
(0.999246 -0.00248941 -7.32691e-17)
(0.999747 -0.00317668 -1.40475e-16)
(1.00038 -0.00371444 -5.68341e-16)
(1.00114 -0.00407673 -3.44276e-16)
(1.00199 -0.0042388 2.24248e-16)
(1.00287 -0.00419738 3.53322e-17)
(1.00379 -0.00395674 5.37543e-17)
(1.00471 -0.00356128 8.32828e-17)
(1.00556 -0.00311586 3.46509e-17)
(0.998603 3.44587e-05 -8.60176e-17)
(0.998655 -0.000870082 1.31644e-16)
(0.998858 -0.00173755 -2.36076e-16)
(0.99921 -0.00253787 1.62482e-16)
(0.999727 -0.00323985 -3.77381e-18)
(1.00038 -0.00378904 3.85828e-16)
(1.00116 -0.0041588 3.35998e-16)
(1.00203 -0.00432396 -2.24467e-16)
(1.00294 -0.00428117 3.69419e-16)
(1.00387 -0.00403578 -2.39565e-16)
(1.0048 -0.00363115 7.16259e-16)
(1.00566 -0.00317693 7.25867e-16)
(0.998547 3.96614e-05 6.59194e-17)
(0.998601 -0.000883668 -9.52943e-17)
(0.998811 -0.00176959 -4.00495e-17)
(0.999173 -0.00258717 1.20948e-16)
(0.999706 -0.00330411 -1.51849e-16)
(1.00038 -0.0038649 -2.36247e-16)
(1.00118 -0.00424223 3.60917e-16)
(1.00207 -0.00441052 -2.11457e-16)
(1.003 -0.0043663 -4.49834e-16)
(1.00395 -0.00411603 2.42113e-16)
(1.0049 -0.0037023 -4.11124e-16)
(1.00577 -0.00323901 -5.68685e-16)
(0.998491 4.4633e-05 2.74047e-17)
(0.998546 -0.000897585 -1.01344e-16)
(0.998762 -0.00180223 4.14247e-16)
(0.999136 -0.00263733 -2.02496e-16)
(0.999684 -0.00336948 8.27726e-17)
(1.00038 -0.00394205 -1.92061e-16)
(1.00119 -0.00432704 -4.74317e-16)
(1.00211 -0.00449848 4.12115e-16)
(1.00306 -0.00445279 4.75086e-16)
(1.00404 -0.00419746 -6e-16)
(1.005 -0.00377472 -2.34382e-16)
(1.00587 -0.00330169 -1.78311e-16)
(0.998433 4.93285e-05 -7.85503e-17)
(0.99849 -0.000911878 3.0609e-17)
(0.998712 -0.00183549 -1.87501e-16)
(0.999097 -0.00268841 2.56601e-17)
(0.99966 -0.003436 1.14237e-16)
(1.00037 -0.00402051 4.66614e-16)
(1.00121 -0.00441326 5.04842e-18)
(1.00215 -0.00458787 -2.43841e-17)
(1.00312 -0.00454063 -6.53256e-16)
(1.00412 -0.00428006 9.59484e-17)
(1.00509 -0.00384832 -1.35237e-16)
(1.00598 -0.00336469 7.26923e-17)
(0.998375 5.37112e-05 -1.26832e-17)
(0.998432 -0.000926582 -2.33495e-17)
(0.998661 -0.0018694 -2.73622e-16)
(0.999056 -0.00274041 -5.001e-17)
(0.999636 -0.00350369 -1.79799e-16)
(1.00037 -0.00410031 -1.30144e-16)
(1.00123 -0.00450088 -1.32757e-16)
(1.00219 -0.00467867 1.63176e-16)
(1.00318 -0.00462978 1.83732e-16)
(1.0042 -0.00436375 3.14531e-16)
(1.00519 -0.00392296 4.4377e-16)
(1.00609 -0.00342781 -2.29933e-16)
(0.998316 5.77477e-05 3.0672e-17)
(0.998373 -0.000941737 1.59433e-17)
(0.998608 -0.001904 2.61241e-16)
(0.999015 -0.00279335 -5.24957e-17)
(0.99961 -0.00357253 -9.68763e-17)
(1.00036 -0.00418143 -1.49327e-16)
(1.00124 -0.00458989 4.4298e-16)
(1.00222 -0.00477085 -2.97182e-16)
(1.00324 -0.00472019 1.05033e-16)
(1.00428 -0.00444847 4.09661e-16)
(1.00529 -0.0039985 -2.60848e-16)
(1.00619 -0.00349097 -4.0911e-17)
(0.998256 6.14139e-05 -4.19373e-17)
(0.998313 -0.000957377 4.33943e-17)
(0.998555 -0.0019393 8.90358e-17)
(0.998972 -0.00284722 1.89736e-16)
(0.999584 -0.00364252 3.4199e-16)
(1.00035 -0.00426383 -2.54636e-16)
(1.00126 -0.00468023 -1.68941e-16)
(1.00226 -0.00486431 1.78191e-17)
(1.0033 -0.00481177 -3.11751e-16)
(1.00436 -0.00453411 -4.48975e-16)
(1.00538 -0.00407481 5.98775e-16)
(1.0063 -0.00355392 2.5141e-16)
(0.998195 6.46896e-05 6.74975e-17)
(0.998252 -0.000973536 8.24728e-17)
(0.9985 -0.00197532 -8.45758e-17)
(0.998929 -0.00290201 -1.72056e-16)
(0.999556 -0.00371362 4.4754e-17)
(1.00035 -0.00434747 4.16922e-16)
(1.00127 -0.00477184 -2.97713e-16)
(1.0023 -0.00495899 -1.07604e-17)
(1.00336 -0.00490445 3.97847e-16)
(1.00444 -0.00462061 -3.90197e-16)
(1.00548 -0.00415176 -5.08453e-16)
(1.00641 -0.00361671 -1.30497e-16)
(0.998134 6.75644e-05 8.35054e-18)
(0.99819 -0.000990246 8.44334e-18)
(0.998444 -0.00201206 -2.78276e-16)
(0.998884 -0.00295771 -2.27028e-16)
(0.999528 -0.00378579 -3.82087e-16)
(1.00034 -0.00443227 5.2053e-17)
(1.00129 -0.00486465 8.53881e-17)
(1.00234 -0.0050548 -5.94374e-17)
(1.00342 -0.00499816 -3.2683e-16)
(1.00452 -0.00470792 7.32865e-16)
(1.00558 -0.00422932 3.7995e-16)
(1.00652 -0.00367926 -1.17419e-16)
(0.998072 7.00318e-05 -3.9648e-17)
(0.998126 -0.00100754 -7.72862e-17)
(0.998387 -0.00204955 3.70965e-16)
(0.998838 -0.00301432 3.37954e-16)
(0.999499 -0.003859 -7.43061e-18)
(1.00033 -0.00451821 7.23456e-17)
(1.0013 -0.0049586 -1.12361e-16)
(1.00238 -0.00515171 8.25975e-17)
(1.00348 -0.00509287 3.47921e-16)
(1.0046 -0.00479608 -1.80954e-16)
(1.00568 -0.00430752 1.29042e-16)
(1.00663 -0.003742 2.1809e-16)
(0.998008 7.20936e-05 -2.48079e-18)
(0.998061 -0.00102545 5.34732e-17)
(0.998329 -0.00208781 -1.62412e-16)
(0.998792 -0.00307184 -3.19403e-16)
(0.999468 -0.00393324 1.93484e-16)
(1.00032 -0.00460525 -4.43881e-16)
(1.00131 -0.00505368 1.31212e-16)
(1.00241 -0.00524971 -1.94944e-16)
(1.00354 -0.00518861 3.08349e-17)
(1.00468 -0.00488513 1.85597e-16)
(1.00578 -0.00438622 -1.60085e-16)
(1.00674 -0.00380489 -4.86052e-16)
(0.997944 7.37539e-05 2.29188e-17)
(0.997995 -0.001044 -1.48469e-16)
(0.99827 -0.00212688 1.66643e-16)
(0.998744 -0.00313028 2.79965e-16)
(0.999437 -0.00400852 -3.6016e-16)
(1.00031 -0.00469341 -3.04853e-17)
(1.00133 -0.0051499 2.19384e-16)
(1.00245 -0.00534884 -2.64884e-16)
(1.0036 -0.00528544 -3.21108e-16)
(1.00476 -0.00497518 9.08882e-17)
(1.00587 -0.00446541 -2.78914e-16)
(1.00684 -0.00386825 4.2807e-16)
(0.997878 7.50239e-05 1.50608e-17)
(0.997928 -0.00106322 7.82519e-17)
(0.998209 -0.00216677 -7.7321e-17)
(0.998695 -0.00318969 2.35917e-16)
(0.999405 -0.00408488 1.75031e-16)
(1.0003 -0.00478273 1.47447e-16)
(1.00134 -0.00524731 -2.48064e-16)
(1.00248 -0.00544918 3.78208e-16)
(1.00366 -0.00538343 -3.36496e-18)
(1.00484 -0.00506634 -7.20564e-16)
(1.00597 -0.0045453 1.3798e-16)
(1.00695 -0.00393248 -2.69417e-17)
(0.997812 7.59157e-05 -2.40092e-17)
(0.997859 -0.00108312 8.0833e-17)
(0.998147 -0.00220752 -2.69359e-16)
(0.998645 -0.0032501 -1.9765e-16)
(0.999373 -0.00416237 4.02455e-17)
(1.00028 -0.00487328 1.55034e-16)
(1.00135 -0.005346 2.59104e-16)
(1.00252 -0.00555082 3.53773e-17)
(1.00372 -0.00548271 2.80441e-17)
(1.00492 -0.00515874 4.79814e-16)
(1.00607 -0.00462615 1.46169e-16)
(1.00706 -0.00399807 -2.33728e-16)
(0.997743 7.64473e-05 -1.89775e-17)
(0.997789 -0.00110372 -2.24299e-17)
(0.998084 -0.00224916 2.85498e-16)
(0.998594 -0.00331155 4.56097e-18)
(0.999338 -0.00424104 2.46097e-16)
(1.00027 -0.00496512 -2.32082e-16)
(1.00136 -0.00544605 -1.51969e-16)
(1.00256 -0.00565386 -4.51647e-17)
(1.00378 -0.00558337 5.44775e-18)
(1.005 -0.00525246 2.91467e-16)
(1.00617 -0.00470795 -4.54885e-16)
(1.00717 -0.00406483 -2.68776e-16)
(0.997674 7.66363e-05 5.17505e-18)
(0.997718 -0.00112501 -7.87914e-17)
(0.998019 -0.0022917 -2.76164e-16)
(0.998541 -0.00337408 4.92437e-17)
(0.999303 -0.00432095 2.30064e-17)
(1.00026 -0.00505833 2.92902e-18)
(1.00137 -0.00554756 -8.02945e-17)
(1.00259 -0.0057584 3.49259e-16)
(1.00384 -0.00568551 3.83143e-16)
(1.00509 -0.0053476 -2.55027e-16)
(1.00627 -0.00479085 6.89051e-16)
(1.00728 -0.00413282 6.34231e-16)