1.45 	0 	0 	-0.303055
2.35 	0 	0 	-0.0928852
