1.45 	0 	0 	0.00173457 	-0.00354779 	3.96575e-21
2.35 	0 	0 	0.103484 	-0.00812108 	2.07864e-21
