1.45 	0 	0 	-0.293652
2.35 	0 	0 	-0.128754
