1.275 	2.15223e-18 	-2.76991e-20 	0.532164 	-0.0130778 	-6.19738e-23
1.825 	2.15223e-18 	-1.39322e-20 	0.737352 	-0.00635959 	-3.11569e-22
2.375 	2.15223e-18 	-2.66896e-23 	0.88638 	-0.00322442 	-3.00678e-23
