1.45 	0 	0 	-0.303403
2.35 	0 	0 	-0.134612
