/*--------------------------------*- C++ -*----------------------------------*\
  =========                 |
  \\      /  F ield         | OpenFOAM: The Open Source CFD Toolbox
   \\    /   O peration     | Website:  https://openfoam.org
    \\  /    A nd           | Version:  6.0
     \\/     M anipulation  |
\*---------------------------------------------------------------------------*/
FoamFile
{
    version     2.0;
    format      ascii;
    class       volScalarField;
    location    "2.8";
    object      p;
}
// * * * * * * * * * * * * * * * * * * * * * * * * * * * * * * * * * * * * * //

dimensions      [0 2 -2 0 0 0 0];

internalField   nonuniform List<scalar> 
34500
(
1.00575
1.00578
1.00562
1.00529
1.00483
1.00428
1.00369
1.00309
1.0025
1.00195
1.00145
1.00101
1.00064
1.00038
1.00022
1.00575
1.00582
1.00571
1.00545
1.00507
1.00459
1.00406
1.00349
1.0029
1.00233
1.00178
1.00128
1.00082
1.0005
1.00028
1.00575
1.00581
1.00568
1.0054
1.00498
1.00447
1.0039
1.0033
1.00271
1.00214
1.0016
1.00113
1.00071
1.00044
1.00023
1.00576
1.0058
1.00566
1.00536
1.00492
1.00438
1.00379
1.00319
1.00259
1.00203
1.0015
1.00106
1.00067
1.00042
1.00023
1.00576
1.00581
1.00567
1.00538
1.00495
1.00443
1.00385
1.00325
1.00265
1.00208
1.00156
1.0011
1.00071
1.00045
1.00025
1.00577
1.00582
1.0057
1.00542
1.00501
1.0045
1.00393
1.00333
1.00273
1.00216
1.00163
1.00116
1.00074
1.00047
1.00026
1.00578
1.00583
1.00571
1.00543
1.00503
1.00453
1.00396
1.00336
1.00277
1.00219
1.00165
1.00117
1.00075
1.00047
1.00024
1.00579
1.00584
1.00572
1.00544
1.00504
1.00454
1.00397
1.00338
1.00277
1.00219
1.00165
1.00116
1.00074
1.00045
1.00023
1.0058
1.00585
1.00573
1.00545
1.00505
1.00455
1.00398
1.00338
1.00278
1.00219
1.00164
1.00116
1.00073
1.00044
1.00022
1.00581
1.00587
1.00574
1.00547
1.00506
1.00456
1.00399
1.00339
1.00279
1.0022
1.00164
1.00116
1.00073
1.00043
1.00021
1.00583
1.00588
1.00576
1.00548
1.00508
1.00457
1.004
1.0034
1.00279
1.0022
1.00165
1.00115
1.00072
1.00043
1.0002
1.00584
1.0059
1.00577
1.0055
1.0051
1.00459
1.00402
1.00342
1.00281
1.00221
1.00165
1.00116
1.00073
1.00042
1.00019
1.00586
1.00591
1.00579
1.00552
1.00512
1.00461
1.00404
1.00344
1.00283
1.00223
1.00167
1.00117
1.00073
1.00042
1.00018
1.00587
1.00593
1.00581
1.00555
1.00515
1.00465
1.00408
1.00347
1.00285
1.00225
1.00169
1.00118
1.00074
1.00042
1.00017
1.00589
1.00595
1.00584
1.00558
1.00518
1.00468
1.00411
1.0035
1.00288
1.00228
1.0017
1.00119
1.00074
1.00041
1.00015
1.00591
1.00598
1.00586
1.0056
1.00521
1.00471
1.00414
1.00353
1.00291
1.0023
1.00172
1.0012
1.00074
1.0004
1.00014
1.00593
1.006
1.00589
1.00563
1.00524
1.00474
1.00417
1.00356
1.00293
1.00232
1.00173
1.0012
1.00074
1.00038
1.00012
1.00596
1.00602
1.00591
1.00566
1.00527
1.00477
1.0042
1.00358
1.00295
1.00233
1.00173
1.0012
1.00073
1.00037
1.0001
1.00598
1.00605
1.00594
1.00568
1.00529
1.0048
1.00422
1.0036
1.00297
1.00234
1.00174
1.0012
1.00072
1.00035
1.00007
1.006
1.00607
1.00597
1.00571
1.00532
1.00482
1.00425
1.00362
1.00298
1.00235
1.00174
1.00119
1.00071
1.00034
1.00005
1.00603
1.0061
1.00599
1.00574
1.00535
1.00485
1.00427
1.00364
1.003
1.00236
1.00174
1.00119
1.0007
1.00032
1.00003
1.00606
1.00613
1.00602
1.00577
1.00538
1.00488
1.0043
1.00367
1.00301
1.00237
1.00175
1.00119
1.0007
1.00031
1.00001
1.00609
1.00616
1.00606
1.0058
1.00541
1.00491
1.00432
1.00369
1.00303
1.00238
1.00176
1.00119
1.00069
1.00029
0.999988
1.00612
1.00619
1.00609
1.00584
1.00545
1.00494
1.00436
1.00372
1.00306
1.0024
1.00177
1.00119
1.00068
1.00028
0.999964
1.00615
1.00623
1.00612
1.00587
1.00548
1.00498
1.00439
1.00375
1.00308
1.00241
1.00177
1.00119
1.00067
1.00026
0.999938
1.00619
1.00626
1.00616
1.00591
1.00552
1.00501
1.00442
1.00377
1.0031
1.00243
1.00178
1.00119
1.00066
1.00024
0.999912
1.00622
1.0063
1.0062
1.00595
1.00556
1.00505
1.00445
1.0038
1.00312
1.00244
1.00178
1.00118
1.00065
1.00022
0.999885
1.00626
1.00634
1.00624
1.00599
1.00559
1.00508
1.00448
1.00382
1.00314
1.00245
1.00178
1.00118
1.00064
1.0002
0.999857
1.00629
1.00638
1.00627
1.00603
1.00563
1.00512
1.00451
1.00385
1.00315
1.00246
1.00179
1.00117
1.00062
1.00018
0.999828
1.00633
1.00642
1.00632
1.00607
1.00567
1.00515
1.00454
1.00387
1.00317
1.00247
1.00179
1.00116
1.00061
1.00015
0.9998
1.00637
1.00646
1.00636
1.00611
1.00571
1.00519
1.00457
1.0039
1.00319
1.00248
1.00179
1.00116
1.00059
1.00013
0.99977
1.00641
1.0065
1.0064
1.00615
1.00575
1.00523
1.00461
1.00393
1.00321
1.00249
1.00179
1.00115
1.00058
1.00011
0.999739
1.00646
1.00655
1.00645
1.0062
1.00579
1.00527
1.00464
1.00395
1.00323
1.0025
1.0018
1.00115
1.00056
1.00008
0.999707
1.0065
1.00659
1.00649
1.00624
1.00584
1.00531
1.00468
1.00398
1.00325
1.00251
1.0018
1.00114
1.00055
1.00006
0.999673
1.00655
1.00664
1.00654
1.00629
1.00588
1.00535
1.00472
1.00401
1.00327
1.00253
1.0018
1.00113
1.00053
1.00003
0.999639
1.0066
1.00669
1.00659
1.00634
1.00593
1.00539
1.00475
1.00404
1.00329
1.00254
1.0018
1.00112
1.00051
1
0.999604
1.00664
1.00674
1.00664
1.00639
1.00598
1.00544
1.00479
1.00407
1.00331
1.00255
1.0018
1.00111
1.00049
0.999973
0.999568
1.00669
1.00679
1.0067
1.00644
1.00603
1.00548
1.00483
1.0041
1.00333
1.00256
1.0018
1.0011
1.00047
0.999943
0.999531
1.00675
1.00685
1.00675
1.00649
1.00608
1.00552
1.00486
1.00413
1.00335
1.00257
1.0018
1.00109
1.00044
0.999912
0.999492
1.0068
1.0069
1.0068
1.00655
1.00613
1.00557
1.0049
1.00416
1.00337
1.00258
1.0018
1.00107
1.00042
0.999881
0.999453
1.00685
1.00696
1.00686
1.0066
1.00618
1.00562
1.00494
1.00419
1.00339
1.00259
1.0018
1.00106
1.0004
0.999848
0.999413
1.00691
1.00702
1.00692
1.00666
1.00623
1.00566
1.00498
1.00422
1.00342
1.0026
1.00179
1.00105
1.00038
0.999814
0.999371
1.00697
1.00708
1.00698
1.00672
1.00629
1.00571
1.00503
1.00426
1.00344
1.00261
1.00179
1.00103
1.00035
0.999779
0.999328
1.00703
1.00714
1.00704
1.00678
1.00634
1.00576
1.00507
1.00429
1.00346
1.00262
1.00179
1.00102
1.00032
0.999743
0.999284
1.00709
1.0072
1.0071
1.00684
1.0064
1.00582
1.00511
1.00432
1.00348
1.00263
1.00179
1.001
1.0003
0.999705
0.999238
1.00715
1.00726
1.00717
1.0069
1.00646
1.00587
1.00516
1.00436
1.0035
1.00263
1.00178
1.00099
1.00027
0.999667
0.999192
1.00722
1.00733
1.00723
1.00697
1.00652
1.00592
1.0052
1.00439
1.00352
1.00264
1.00178
1.00097
1.00024
0.999626
0.999144
1.00728
1.0074
1.0073
1.00703
1.00658
1.00597
1.00524
1.00442
1.00355
1.00265
1.00177
1.00095
1.00021
0.999586
0.999095
1.00735
1.00747
1.00737
1.0071
1.00664
1.00603
1.00529
1.00446
1.00357
1.00266
1.00176
1.00093
1.00017
0.999543
0.999044
1.00742
1.00754
1.00744
1.00717
1.0067
1.00608
1.00534
1.00449
1.00359
1.00267
1.00176
1.00091
1.00014
0.9995
0.998992
1.00749
1.00761
1.00751
1.00724
1.00677
1.00614
1.00538
1.00453
1.00361
1.00267
1.00175
1.00089
1.00011
0.999456
0.998938
1.00756
1.00769
1.00759
1.00731
1.00684
1.0062
1.00543
1.00457
1.00363
1.00268
1.00175
1.00087
1.00007
0.99941
0.998884
1.00764
1.00776
1.00766
1.00738
1.0069
1.00626
1.00548
1.0046
1.00366
1.00269
1.00174
1.00085
1.00004
0.999363
0.998827
1.00771
1.00784
1.00774
1.00746
1.00697
1.00632
1.00553
1.00464
1.00368
1.0027
1.00173
1.00082
1
0.999314
0.998769
1.00779
1.00792
1.00782
1.00753
1.00704
1.00638
1.00559
1.00468
1.00371
1.00271
1.00172
1.0008
0.999963
0.999264
0.998709
1.00787
1.008
1.0079
1.00761
1.00712
1.00645
1.00564
1.00472
1.00373
1.00272
1.00171
1.00078
0.999924
0.999213
0.998648
1.00795
1.00809
1.00798
1.00769
1.00719
1.00651
1.00569
1.00476
1.00375
1.00272
1.00171
1.00075
0.999883
0.999159
0.998585
1.00804
1.00817
1.00807
1.00777
1.00727
1.00658
1.00575
1.0048
1.00378
1.00273
1.0017
1.00072
0.999842
0.999105
0.998521
1.00812
1.00826
1.00815
1.00786
1.00734
1.00665
1.0058
1.00484
1.0038
1.00274
1.00168
1.0007
0.999798
0.999049
0.998454
1.00821
1.00835
1.00824
1.00794
1.00742
1.00672
1.00586
1.00488
1.00383
1.00274
1.00167
1.00067
0.999754
0.998991
0.998386
1.0083
1.00844
1.00833
1.00803
1.0075
1.00679
1.00592
1.00492
1.00385
1.00275
1.00166
1.00064
0.999708
0.998932
0.998316
1.00839
1.00853
1.00843
1.00812
1.00758
1.00686
1.00598
1.00497
1.00388
1.00276
1.00165
1.00061
0.999661
0.998871
0.998245
1.00848
1.00863
1.00852
1.00821
1.00767
1.00693
1.00604
1.00501
1.0039
1.00276
1.00164
1.00058
0.999613
0.998809
0.998171
1.00858
1.00873
1.00862
1.0083
1.00775
1.00701
1.0061
1.00506
1.00393
1.00277
1.00162
1.00054
0.999563
0.998745
0.998096
1.00868
1.00883
1.00872
1.0084
1.00784
1.00708
1.00616
1.0051
1.00396
1.00278
1.00161
1.00051
0.999512
0.998678
0.998018
1.00877
1.00893
1.00882
1.00849
1.00793
1.00716
1.00622
1.00515
1.00398
1.00278
1.00159
1.00047
0.999459
0.998611
0.997938
1.00888
1.00903
1.00892
1.00859
1.00802
1.00724
1.00629
1.00519
1.00401
1.00279
1.00158
1.00044
0.999405
0.998541
0.997857
1.00898
1.00914
1.00902
1.00869
1.00811
1.00732
1.00635
1.00524
1.00404
1.00279
1.00156
1.0004
0.999349
0.99847
0.997773
1.00909
1.00925
1.00913
1.0088
1.00821
1.00741
1.00642
1.00529
1.00406
1.0028
1.00154
1.00036
0.999292
0.998397
0.997687
1.00919
1.00936
1.00924
1.0089
1.00831
1.00749
1.00649
1.00534
1.00409
1.0028
1.00153
1.00032
0.999233
0.998322
0.997599
1.0093
1.00947
1.00935
1.00901
1.0084
1.00758
1.00656
1.00539
1.00412
1.00281
1.00151
1.00028
0.999172
0.998245
0.997509
1.00942
1.00959
1.00947
1.00912
1.00851
1.00766
1.00663
1.00544
1.00415
1.00281
1.00149
1.00024
0.99911
0.998166
0.997417
1.00953
1.00971
1.00958
1.00923
1.00861
1.00775
1.0067
1.00549
1.00417
1.00282
1.00147
1.0002
0.999046
0.998084
0.997321
1.00965
1.00983
1.0097
1.00935
1.00871
1.00784
1.00677
1.00554
1.0042
1.00282
1.00145
1.00015
0.998981
0.998001
0.997224
1.00977
1.00995
1.00982
1.00946
1.00882
1.00794
1.00685
1.00559
1.00423
1.00282
1.00143
1.00011
0.998913
0.997915
0.997124
1.00989
1.01007
1.00995
1.00958
1.00893
1.00803
1.00692
1.00565
1.00426
1.00283
1.0014
1.00006
0.998844
0.997828
0.997023
1.01002
1.0102
1.01007
1.0097
1.00904
1.00813
1.007
1.0057
1.00429
1.00283
1.00138
1.00001
0.998773
0.997738
0.996918
1.01014
1.01033
1.0102
1.00983
1.00915
1.00823
1.00708
1.00576
1.00432
1.00283
1.00136
0.999964
0.9987
0.997646
0.99681
1.01027
1.01046
1.01033
1.00995
1.00927
1.00833
1.00716
1.00582
1.00435
1.00284
1.00133
0.999912
0.998625
0.997551
0.9967
1.0104
1.0106
1.01047
1.01008
1.00939
1.00843
1.00724
1.00587
1.00438
1.00284
1.0013
0.99986
0.998548
0.997454
0.996588
1.01054
1.01074
1.0106
1.01021
1.00951
1.00853
1.00732
1.00593
1.00441
1.00284
1.00128
0.999805
0.998469
0.997355
0.996472
1.01068
1.01088
1.01074
1.01035
1.00963
1.00864
1.00741
1.00599
1.00444
1.00284
1.00125
0.999749
0.998388
0.997253
0.996354
1.01082
1.01102
1.01089
1.01048
1.00975
1.00875
1.0075
1.00605
1.00448
1.00284
1.00122
0.999691
0.998304
0.997148
0.996232
1.01096
1.01117
1.01103
1.01062
1.00988
1.00886
1.00758
1.00611
1.00451
1.00284
1.00119
0.999632
0.998219
0.997041
0.996109
1.01111
1.01132
1.01118
1.01077
1.01001
1.00897
1.00767
1.00618
1.00454
1.00284
1.00116
0.999571
0.998131
0.996931
0.995981
1.01126
1.01147
1.01133
1.01091
1.01014
1.00908
1.00776
1.00624
1.00457
1.00284
1.00113
0.999508
0.998041
0.996819
0.995851
1.01141
1.01163
1.01148
1.01106
1.01028
1.0092
1.00786
1.0063
1.0046
1.00284
1.00109
0.999443
0.997948
0.996703
0.995717
1.01156
1.01179
1.01164
1.01121
1.01042
1.00932
1.00795
1.00637
1.00464
1.00284
1.00106
0.999377
0.997854
0.996585
0.995581
1.01172
1.01195
1.0118
1.01136
1.01056
1.00944
1.00805
1.00643
1.00467
1.00284
1.00102
0.999309
0.997756
0.996464
0.995441
1.01188
1.01212
1.01197
1.01152
1.0107
1.00956
1.00815
1.0065
1.0047
1.00284
1.00098
0.999239
0.997657
0.99634
0.995298
1.01205
1.01228
1.01213
1.01168
1.01085
1.00969
1.00824
1.00657
1.00474
1.00284
1.00095
0.999166
0.997554
0.996212
0.995151
1.01221
1.01246
1.0123
1.01184
1.011
1.00982
1.00835
1.00664
1.00477
1.00283
1.00091
0.999092
0.997449
0.996082
0.995001
1.01239
1.01263
1.01247
1.01201
1.01115
1.00995
1.00845
1.00671
1.00481
1.00283
1.00086
0.999015
0.997341
0.995948
0.994847
1.01256
1.01281
1.01265
1.01218
1.0113
1.01008
1.00856
1.00678
1.00484
1.00282
1.00082
0.998937
0.997231
0.995812
0.99469
1.01274
1.01299
1.01283
1.01235
1.01146
1.01022
1.00866
1.00686
1.00487
1.00282
1.00078
0.998856
0.997118
0.995671
0.994528
1.01292
1.01318
1.01302
1.01253
1.01162
1.01036
1.00877
1.00693
1.00491
1.00281
1.00073
0.998773
0.997002
0.995528
0.994364
1.0131
1.01337
1.0132
1.01271
1.01179
1.0105
1.00888
1.007
1.00494
1.00281
1.00068
0.998687
0.996882
0.995381
0.994195
1.01329
1.01356
1.01339
1.01289
1.01195
1.01064
1.009
1.00708
1.00498
1.0028
1.00064
0.9986
0.99676
0.99523
0.994022
1.01348
1.01376
1.01359
1.01308
1.01212
1.01079
1.00911
1.00716
1.00502
1.00279
1.00058
0.998509
0.996634
0.995076
0.993845
1.01368
1.01396
1.01379
1.01327
1.0123
1.01094
1.00923
1.00724
1.00505
1.00278
1.00053
0.998417
0.996506
0.994918
0.993664
1.01388
1.01417
1.01399
1.01347
1.01248
1.01109
1.00935
1.00732
1.00509
1.00277
1.00048
0.998321
0.996373
0.994756
0.993479
1.01408
1.01437
1.0142
1.01366
1.01266
1.01125
1.00947
1.0074
1.00512
1.00276
1.00042
0.998223
0.996238
0.99459
0.99329
1.01429
1.01459
1.01441
1.01387
1.01284
1.01141
1.00959
1.00748
1.00516
1.00275
1.00036
0.998122
0.996099
0.99442
0.993095
1.0145
1.0148
1.01462
1.01407
1.01303
1.01157
1.00972
1.00756
1.0052
1.00274
1.0003
0.998018
0.995957
0.994246
0.992897
1.01471
1.01503
1.01484
1.01428
1.01322
1.01173
1.00985
1.00765
1.00523
1.00273
1.00024
0.997911
0.99581
0.994068
0.992694
1.01493
1.01525
1.01507
1.0145
1.01342
1.0119
1.00998
1.00773
1.00527
1.00271
1.00018
0.997801
0.995661
0.993886
0.992487
1.01516
1.01548
1.0153
1.01472
1.01362
1.01207
1.01011
1.00782
1.00531
1.0027
1.00011
0.997688
0.995507
0.993698
0.992274
1.01538
1.01572
1.01553
1.01494
1.01382
1.01224
1.01024
1.00791
1.00534
1.00268
1.00004
0.997572
0.99535
0.993507
0.992057
1.01562
1.01596
1.01577
1.01517
1.01403
1.01242
1.01038
1.008
1.00538
1.00266
0.999972
0.997452
0.995188
0.993311
0.991834
1.01585
1.0162
1.01601
1.0154
1.01424
1.0126
1.01052
1.00809
1.00541
1.00264
0.999899
0.99733
0.995022
0.993111
0.991607
1.01609
1.01645
1.01626
1.01564
1.01446
1.01279
1.01066
1.00818
1.00545
1.00262
0.999823
0.997203
0.994852
0.992905
0.991374
1.01634
1.0167
1.01651
1.01588
1.01468
1.01297
1.01081
1.00827
1.00549
1.0026
0.999745
0.997074
0.994678
0.992695
0.991136
1.01659
1.01696
1.01676
1.01613
1.0149
1.01317
1.01095
1.00837
1.00552
1.00258
0.999663
0.99694
0.994499
0.992479
0.990893
1.01685
1.01723
1.01703
1.01638
1.01513
1.01336
1.0111
1.00846
1.00556
1.00255
0.99958
0.996803
0.994316
0.992259
0.990644
1.01711
1.0175
1.01729
1.01664
1.01537
1.01356
1.01126
1.00856
1.00559
1.00252
0.999492
0.996661
0.994127
0.992033
0.990389
1.01738
1.01777
1.01757
1.0169
1.01561
1.01376
1.01141
1.00866
1.00563
1.00249
0.999403
0.996516
0.993934
0.991802
0.990129
1.01765
1.01805
1.01785
1.01717
1.01585
1.01397
1.01157
1.00876
1.00566
1.00246
0.999309
0.996366
0.993736
0.991565
0.989863
1.01792
1.01834
1.01813
1.01744
1.0161
1.01418
1.01173
1.00886
1.0057
1.00243
0.999213
0.996213
0.993534
0.991323
0.989591
1.0182
1.01863
1.01842
1.01772
1.01635
1.01439
1.01189
1.00896
1.00573
1.0024
0.999113
0.996054
0.993325
0.991074
0.989312
1.01849
1.01893
1.01872
1.01801
1.01661
1.01461
1.01206
1.00906
1.00577
1.00236
0.999011
0.995891
0.993112
0.990821
0.989028
1.01879
1.01923
1.01902
1.0183
1.01687
1.01483
1.01222
1.00916
1.0058
1.00232
0.998904
0.995723
0.992892
0.99056
0.988737
1.01908
1.01954
1.01933
1.01859
1.01714
1.01506
1.0124
1.00927
1.00583
1.00228
0.998793
0.995551
0.992668
0.990294
0.98844
1.01939
1.01986
1.01964
1.01889
1.01741
1.01529
1.01257
1.00937
1.00586
1.00224
0.998679
0.995374
0.992437
0.990021
0.988135
1.0197
1.02018
1.01996
1.0192
1.01769
1.01553
1.01275
1.00948
1.00589
1.00219
0.998561
0.995191
0.992201
0.989742
0.987825
1.02002
1.02051
1.02029
1.01952
1.01798
1.01577
1.01293
1.00959
1.00592
1.00214
0.998438
0.995003
0.991957
0.989456
0.987507
1.02034
1.02084
1.02062
1.01984
1.01827
1.01601
1.01311
1.0097
1.00595
1.00209
0.998311
0.99481
0.991709
0.989164
0.987182
1.02067
1.02118
1.02096
1.02016
1.01857
1.01626
1.01329
1.00981
1.00598
1.00204
0.99818
0.99461
0.991453
0.988864
0.98685
1.02101
1.02153
1.02131
1.0205
1.01887
1.01652
1.01348
1.00992
1.00601
1.00198
0.998044
0.994406
0.991191
0.988558
0.986511
1.02135
1.02189
1.02166
1.02084
1.01918
1.01677
1.01367
1.01003
1.00603
1.00192
0.997903
0.994195
0.990922
0.988244
0.986164
1.0217
1.02225
1.02203
1.02119
1.0195
1.01704
1.01387
1.01014
1.00605
1.00185
0.997757
0.993978
0.990647
0.987923
0.98581
1.02206
1.02262
1.0224
1.02154
1.01982
1.01731
1.01406
1.01025
1.00608
1.00179
0.997605
0.993754
0.990363
0.987594
0.985447
1.02242
1.023
1.02278
1.02191
1.02015
1.01758
1.01427
1.01037
1.0061
1.00171
0.997449
0.993524
0.990073
0.987257
0.985077
1.0228
1.02339
1.02316
1.02228
1.02048
1.01786
1.01447
1.01048
1.00612
1.00164
0.997287
0.993286
0.989775
0.986912
0.984698
1.02317
1.02378
1.02355
1.02266
1.02082
1.01814
1.01467
1.0106
1.00613
1.00156
0.997119
0.993043
0.98947
0.98656
0.984312
1.02356
1.02419
1.02396
1.02304
1.02117
1.01843
1.01488
1.01071
1.00615
1.00147
0.996944
0.992791
0.989156
0.986199
0.983917
1.02396
1.0246
1.02437
1.02344
1.02153
1.01873
1.0151
1.01083
1.00616
1.00139
0.996764
0.992532
0.988834
0.985829
0.983514
1.02436
1.02502
1.02479
1.02384
1.02189
1.01903
1.01531
1.01094
1.00617
1.00129
0.996577
0.992265
0.988503
0.985451
0.983101
1.02477
1.02544
1.02522
1.02425
1.02226
1.01933
1.01553
1.01106
1.00618
1.00119
0.996383
0.991991
0.988165
0.985064
0.98268
1.02519
1.02588
1.02565
1.02467
1.02264
1.01964
1.01575
1.01117
1.00618
1.00109
0.996181
0.991708
0.987816
0.984667
0.98225
1.02562
1.02633
1.0261
1.0251
1.02303
1.01996
1.01598
1.01129
1.00618
1.00098
0.995973
0.991416
0.98746
0.984262
0.981811
1.02605
1.02679
1.02656
1.02554
1.02342
1.02028
1.0162
1.0114
1.00618
1.00086
0.995757
0.991116
0.987093
0.983846
0.981361
1.0265
1.02725
1.02702
1.02599
1.02382
1.02061
1.01643
1.01152
1.00617
1.00074
0.995533
0.990807
0.986717
0.983421
0.980903
1.02696
1.02773
1.0275
1.02645
1.02424
1.02095
1.01667
1.01163
1.00616
1.00062
0.9953
0.990487
0.986331
0.982986
0.980434
1.02742
1.02821
1.02799
1.02692
1.02465
1.02129
1.0169
1.01175
1.00615
1.00048
0.99506
0.990159
0.985935
0.982541
0.979957
1.0279
1.02871
1.02848
1.0274
1.02508
1.02163
1.01714
1.01186
1.00613
1.00034
0.99481
0.98982
0.985528
0.982085
0.979468
1.02838
1.02922
1.02899
1.02788
1.02552
1.02199
1.01738
1.01197
1.00611
1.00019
0.994551
0.989472
0.985111
0.98162
0.978969
1.02888
1.02974
1.02951
1.02838
1.02597
1.02235
1.01763
1.01208
1.00608
1.00003
0.994282
0.989112
0.984683
0.981142
0.97846
1.02938
1.03026
1.03004
1.02889
1.02642
1.02271
1.01787
1.01219
1.00605
0.999868
0.994003
0.988742
0.984244
0.980654
0.97794
1.0299
1.03081
1.03059
1.02942
1.02689
1.02308
1.01812
1.0123
1.00601
0.999694
0.993713
0.988359
0.983792
0.980154
0.977409
1.03043
1.03136
1.03114
1.02995
1.02736
1.02346
1.01837
1.0124
1.00597
0.999512
0.993414
0.987966
0.983329
0.979643
0.976868
1.03096
1.03192
1.03171
1.03049
1.02785
1.02385
1.01862
1.0125
1.00591
0.99932
0.993102
0.98756
0.982854
0.97912
0.976314
1.03152
1.0325
1.03229
1.03105
1.02834
1.02424
1.01888
1.0126
1.00586
0.999118
0.992779
0.987142
0.982366
0.978585
0.97575
1.03208
1.03309
1.03289
1.03162
1.02885
1.02464
1.01914
1.0127
1.00579
0.998906
0.992443
0.98671
0.981865
0.978037
0.975173
1.03265
1.0337
1.03349
1.0322
1.02936
1.02504
1.0194
1.01279
1.00572
0.998683
0.992096
0.986266
0.981351
0.977477
0.974586
1.03324
1.03432
1.03412
1.0328
1.02989
1.02545
1.01965
1.01288
1.00564
0.998448
0.991734
0.985808
0.980823
0.976903
0.973985
1.03384
1.03495
1.03475
1.03341
1.03042
1.02587
1.01992
1.01296
1.00555
0.998202
0.99136
0.985335
0.980282
0.976317
0.973374
1.03445
1.03559
1.0354
1.03403
1.03097
1.0263
1.02018
1.01304
1.00545
0.997943
0.99097
0.984848
0.979726
0.975717
0.972748
1.03508
1.03625
1.03607
1.03467
1.03153
1.02673
1.02044
1.01312
1.00534
0.997671
0.990567
0.984346
0.979156
0.975104
0.972112
1.03572
1.03693
1.03675
1.03532
1.0321
1.02717
1.0207
1.01319
1.00522
0.997385
0.990148
0.983828
0.97857
0.974476
0.971461
1.03638
1.03762
1.03745
1.03599
1.03269
1.02761
1.02097
1.01325
1.00509
0.997085
0.989713
0.983294
0.97797
0.973834
0.970799
1.03705
1.03833
1.03816
1.03668
1.03328
1.02806
1.02123
1.01331
1.00494
0.996769
0.989261
0.982744
0.977353
0.973177
0.970122
1.03773
1.03906
1.03889
1.03737
1.03389
1.02852
1.02149
1.01335
1.00479
0.996438
0.988793
0.982177
0.976721
0.972506
0.969433
1.03843
1.0398
1.03964
1.03809
1.03451
1.02899
1.02175
1.01339
1.00462
0.99609
0.988307
0.981591
0.976071
0.971819
0.968729
1.03915
1.04056
1.04041
1.03882
1.03515
1.02946
1.02201
1.01342
1.00443
0.995725
0.987802
0.980989
0.975405
0.971118
0.968012
1.03988
1.04133
1.0412
1.03957
1.03579
1.02993
1.02227
1.01345
1.00424
0.995342
0.987278
0.980366
0.974721
0.9704
0.96728
1.04064
1.04213
1.042
1.04034
1.03645
1.03041
1.02252
1.01346
1.00402
0.99494
0.986735
0.979726
0.97402
0.969667
0.966535
1.0414
1.04295
1.04283
1.04113
1.03712
1.0309
1.02277
1.01346
1.00379
0.994517
0.98617
0.979065
0.9733
0.968916
0.965775
1.04219
1.04378
1.04367
1.04193
1.03781
1.03139
1.02302
1.01344
1.00354
0.994074
0.985585
0.978384
0.972562
0.96815
0.965
1.043
1.04464
1.04454
1.04275
1.03851
1.03189
1.02326
1.01342
1.00327
0.993609
0.984977
0.977681
0.971805
0.967366
0.96421
1.04382
1.04551
1.04543
1.0436
1.03923
1.03239
1.0235
1.01337
1.00298
0.993122
0.984347
0.976958
0.971029
0.966566
0.963406
1.04467
1.04641
1.04634
1.04446
1.03995
1.0329
1.02372
1.01332
1.00267
0.99261
0.983692
0.976212
0.970232
0.965747
0.962586
1.04553
1.04733
1.04727
1.04535
1.0407
1.03341
1.02394
1.01324
1.00234
0.992074
0.983014
0.975445
0.969416
0.964912
0.961751
1.04642
1.04828
1.04823
1.04625
1.04145
1.03392
1.02416
1.01315
1.00198
0.991512
0.982309
0.974653
0.968578
0.964058
0.960899
1.04733
1.04925
1.04921
1.04718
1.04222
1.03444
1.02436
1.01304
1.0016
0.990923
0.98158
0.973838
0.967721
0.963186
0.960032
1.04826
1.05024
1.05022
1.04813
1.04301
1.03495
1.02455
1.01291
1.00119
0.990305
0.980822
0.972997
0.96684
0.962295
0.959148
1.04921
1.05126
1.05126
1.04911
1.04381
1.03547
1.02473
1.01275
1.00075
0.989659
0.980037
0.972132
0.965939
0.961386
0.958249
1.05019
1.05231
1.05232
1.05011
1.04462
1.03599
1.02489
1.01257
1.00028
0.988981
0.979222
0.971241
0.965015
0.960456
0.957332
1.05119
1.05338
1.05341
1.05113
1.04545
1.03651
1.02504
1.01236
0.999784
0.988272
0.978379
0.970324
0.964069
0.959508
0.9564
1.05222
1.05448
1.05453
1.05218
1.04629
1.03702
1.02517
1.01213
0.999252
0.987529
0.977504
0.96938
0.963098
0.95854
0.95545
1.05327
1.05561
1.05568
1.05326
1.04715
1.03754
1.02528
1.01186
0.998686
0.986752
0.976598
0.968408
0.962105
0.957552
0.954483
1.05435
1.05677
1.05687
1.05436
1.04802
1.03804
1.02537
1.01157
0.998083
0.985939
0.975658
0.967407
0.961087
0.956543
0.953498
1.05546
1.05797
1.05808
1.05549
1.0489
1.03854
1.02544
1.01123
0.997443
0.985088
0.974686
0.966379
0.960046
0.955515
0.952497
1.0566
1.05919
1.05933
1.05664
1.0498
1.03904
1.02548
1.01087
0.996761
0.984199
0.973679
0.96532
0.958979
0.954464
0.951478
1.05777
1.06045
1.06062
1.05783
1.0507
1.03952
1.02549
1.01046
0.996038
0.98327
0.972636
0.964232
0.957887
0.953394
0.950441
1.05897
1.06175
1.06194
1.05904
1.05162
1.03999
1.02547
1.01001
0.995269
0.982299
0.971557
0.963112
0.956769
0.952301
0.949386
1.0602
1.06308
1.0633
1.06029
1.05255
1.04045
1.02542
1.00951
0.994455
0.981285
0.970441
0.961961
0.955626
0.951188
0.948313
1.06147
1.06445
1.0647
1.06156
1.05349
1.04089
1.02533
1.00897
0.993591
0.980226
0.969286
0.960778
0.954457
0.950053
0.947222
1.06277
1.06586
1.06614
1.06287
1.05443
1.04131
1.0252
1.00838
0.992677
0.979121
0.968093
0.959564
0.953261
0.948896
0.946113
1.06411
1.06731
1.06762
1.0642
1.05538
1.04171
1.02502
1.00773
0.991709
0.977968
0.966858
0.958315
0.952037
0.947716
0.944986
1.06548
1.06881
1.06915
1.06557
1.05634
1.04208
1.0248
1.00703
0.990686
0.976767
0.965583
0.957034
0.950788
0.946516
0.943841
1.0669
1.07035
1.07072
1.06697
1.0573
1.04242
1.02453
1.00627
0.989604
0.975515
0.964266
0.955718
0.94951
0.945292
0.942676
1.06835
1.07193
1.07234
1.0684
1.05825
1.04273
1.02419
1.00544
0.988463
0.974211
0.962906
0.954368
0.948205
0.944046
0.941494
1.06985
1.07357
1.07401
1.06986
1.05921
1.043
1.0238
1.00455
0.987258
0.972852
0.961502
0.952983
0.946872
0.942778
0.940293
1.07139
1.07525
1.07573
1.07136
1.06016
1.04323
1.02334
1.00358
0.985989
0.97144
0.960054
0.951563
0.945511
0.941488
0.939074
1.07297
1.07699
1.0775
1.07288
1.0611
1.04341
1.02281
1.00254
0.984651
0.96997
0.95856
0.950107
0.944122
0.940174
0.937836
1.07461
1.07879
1.07933
1.07444
1.06203
1.04353
1.0222
1.00142
0.983244
0.968443
0.957022
0.948616
0.942705
0.938839
0.936581
1.07629
1.08064
1.08122
1.07603
1.06294
1.04359
1.02151
1.00022
0.981763
0.966856
0.955435
0.947088
0.94126
0.937481
0.935306
1.07803
1.08256
1.08317
1.07764
1.06383
1.04359
1.02074
0.998927
0.980208
0.96521
0.953803
0.945524
0.939787
0.936101
0.934013
1.07981
1.08454
1.08517
1.07928
1.06468
1.04351
1.01986
0.997545
0.978575
0.963501
0.952122
0.943924
0.938285
0.934698
0.932702
1.08166
1.08658
1.08725
1.08095
1.06551
1.04335
1.01889
0.996069
0.976863
0.961731
0.950395
0.942287
0.936756
0.933273
0.931373
1.08356
1.0887
1.08938
1.08264
1.06629
1.04309
1.01781
0.994492
0.975069
0.959896
0.948618
0.940614
0.935198
0.931826
0.930026
1.08552
1.0909
1.09159
1.08434
1.06702
1.04274
1.01661
0.992812
0.973191
0.957998
0.946794
0.938905
0.933613
0.930358
0.928661
1.08755
1.09317
1.09386
1.08606
1.06769
1.04227
1.01529
0.991024
0.971227
0.956033
0.94492
0.937159
0.932
0.928867
0.927278
1.08964
1.09552
1.09621
1.08779
1.0683
1.04169
1.01385
0.989124
0.969177
0.954004
0.942999
0.935378
0.93036
0.927356
0.925879
1.09181
1.09797
1.09863
1.08953
1.06882
1.04097
1.01226
0.987109
0.967036
0.951908
0.941029
0.933561
0.928693
0.925823
0.924461
1.09405
1.10051
1.10112
1.09126
1.06925
1.04012
1.01053
0.984974
0.964806
0.949746
0.939011
0.931709
0.927
0.92427
0.923027
1.09637
1.10314
1.10368
1.09298
1.06958
1.0391
1.00865
0.982716
0.962484
0.947518
0.936945
0.929822
0.92528
0.922696
0.921576
1.09876
1.10588
1.10632
1.09469
1.06979
1.03792
1.00661
0.980333
0.96007
0.945224
0.934833
0.927902
0.923536
0.921102
0.920108
1.10125
1.10873
1.10904
1.09636
1.06985
1.03656
1.0044
0.977821
0.957562
0.942863
0.932674
0.925948
0.921766
0.919489
0.918624
1.10383
1.11169
1.11183
1.09799
1.06977
1.035
1.00202
0.975179
0.954962
0.940438
0.93047
0.923962
0.919973
0.917856
0.917125
1.1065
1.11478
1.11468
1.09956
1.06951
1.03323
0.999461
0.972403
0.952268
0.937948
0.928221
0.921944
0.918155
0.916205
0.915609
1.10927
1.118
1.11761
1.10105
1.06906
1.03124
0.996713
0.969493
0.949483
0.935395
0.925929
0.919896
0.916315
0.914535
0.914079
1.11216
1.12135
1.1206
1.10245
1.0684
1.029
0.993771
0.966448
0.946605
0.93278
0.923595
0.917818
0.914453
0.912848
0.912533
1.11516
1.12485
1.12364
1.10374
1.0675
1.02652
0.990633
0.963269
0.943637
0.930105
0.921221
0.915713
0.91257
0.911144
0.910973
1.11828
1.12849
1.12673
1.10489
1.06633
1.02377
0.987293
0.959954
0.940581
0.927371
0.918808
0.91358
0.910666
0.909423
0.909398
1.12154
1.1323
1.12986
1.10588
1.06487
1.02074
0.983749
0.956507
0.937438
0.924581
0.916358
0.911422
0.908743
0.907687
0.90781
1.12493
1.13628
1.13301
1.10666
1.0631
1.01741
0.979997
0.952928
0.934212
0.921737
0.913874
0.90924
0.906803
0.905935
0.906208
1.12848
1.14042
1.13616
1.10722
1.06098
1.01377
0.976039
0.949221
0.930905
0.918843
0.911357
0.907036
0.904845
0.904169
0.904594
1.13219
1.14475
1.1393
1.10752
1.05849
1.00982
0.971875
0.945389
0.92752
0.9159
0.90881
0.904811
0.902871
0.902389
0.902966
1.13608
1.14926
1.1424
1.1075
1.05559
1.00554
0.967507
0.941438
0.924063
0.912913
0.906236
0.902568
0.900882
0.900597
0.901327
1.14016
1.15395
1.14542
1.10714
1.05225
1.00093
0.962939
0.937373
0.920537
0.909884
0.903637
0.900307
0.89888
0.898792
0.899676
1.14445
1.15884
1.14835
1.10637
1.04846
0.995975
0.958178
0.9332
0.916947
0.906819
0.901016
0.898032
0.896866
0.896976
0.898013
1.14897
1.16391
1.15112
1.10515
1.04416
0.990681
0.953233
0.928926
0.913298
0.90372
0.898376
0.895744
0.894841
0.895149
0.89634
1.15373
1.16917
1.1537
1.10343
1.03935
0.985048
0.948112
0.92456
0.909597
0.900593
0.895721
0.893445
0.892806
0.893312
0.894656
1.15875
1.17461
1.15603
1.10114
1.034
0.97908
0.942829
0.92011
0.905849
0.897442
0.893053
0.891137
0.890763
0.891467
0.892962
1.16407
1.18021
1.15805
1.09823
1.02808
0.972789
0.937397
0.915586
0.902062
0.894273
0.890376
0.888822
0.888712
0.889613
0.891258
1.16971
1.18596
1.15968
1.09462
1.02157
0.966187
0.931833
0.910997
0.89824
0.891089
0.887694
0.886504
0.886657
0.887752
0.889546
1.1757
1.19182
1.16085
1.09027
1.01448
0.959295
0.926154
0.906354
0.894393
0.887898
0.88501
0.884183
0.884596
0.885884
0.887824
1.18207
1.19776
1.16146
1.0851
1.00679
0.952135
0.920379
0.901668
0.890527
0.884703
0.882327
0.881861
0.882533
0.88401
0.886094
1.18885
1.20374
1.16142
1.07905
0.998501
0.944739
0.914528
0.896949
0.88665
0.881512
0.87965
0.879542
0.880468
0.882131
0.884355
1.19608
1.20969
1.16061
1.07207
0.989636
0.93714
0.908623
0.892208
0.88277
0.878329
0.876982
0.877227
0.878402
0.880247
0.882608
1.2038
1.21554
1.15892
1.06409
0.980216
0.929378
0.902685
0.887456
0.878896
0.87516
0.874325
0.874919
0.876337
0.878359
0.880854
1.21204
1.2212
1.15622
1.05508
0.970278
0.921497
0.896734
0.882705
0.875036
0.872013
0.871685
0.872618
0.874274
0.876468
0.879092
1.22086
1.22656
1.15238
1.045
0.959873
0.913543
0.890792
0.877967
0.871199
0.868892
0.869063
0.870327
0.872213
0.874573
0.877323
1.23027
1.23149
1.14725
1.03383
0.949064
0.905566
0.884878
0.87325
0.867394
0.865803
0.866464
0.868048
0.870156
0.872676
0.875547
1.24032
1.23582
1.14068
1.02157
0.93793
0.897615
0.879009
0.868568
0.863631
0.862753
0.86389
0.865783
0.868103
0.870777
0.873764
1.25103
1.23937
1.13253
1.00823
0.926564
0.889741
0.873203
0.863932
0.859919
0.859747
0.861344
0.863531
0.866054
0.868876
0.871975
1.26241
1.24191
1.12265
0.99388
0.915071
0.88199
0.867474
0.859353
0.856268
0.85679
0.858828
0.861296
0.864012
0.866973
0.87018
1.27448
1.2432
1.11089
0.978588