/*--------------------------------*- C++ -*----------------------------------*\
  =========                 |
  \\      /  F ield         | OpenFOAM: The Open Source CFD Toolbox
   \\    /   O peration     | Website:  https://openfoam.org
    \\  /    A nd           | Version:  6.0
     \\/     M anipulation  |
\*---------------------------------------------------------------------------*/
FoamFile
{
    version     2.0;
    format      ascii;
    class       volVectorField;
    location    "2.8";
    object      U;
}
// * * * * * * * * * * * * * * * * * * * * * * * * * * * * * * * * * * * * * //

dimensions      [0 1 -1 0 0 0 0];

internalField   nonuniform List<vector> 
34500
(
(0.999996 5.62122e-06 -4.6329e-17)
(0.99997 -7.57756e-06 -8.13452e-18)
(0.999922 -3.29983e-05 1.42195e-16)
(0.999858 -7.55217e-05 -1.07632e-16)
(0.999789 -0.000137215 3.35385e-17)
(0.999725 -0.00021596 -1.01428e-16)
(0.999676 -0.000307764 -1.00944e-16)
(0.999646 -0.000406729 8.64793e-17)
(0.999641 -0.000505253 1.07199e-16)
(0.999662 -0.000595247 -6.82619e-16)
(0.999707 -0.000667309 -1.03937e-15)
(0.999769 -0.000722129 1.26637e-16)
(0.999844 -0.00074471 4.33299e-16)
(0.999975 -0.000797234 -2.06712e-16)
(0.998961 -0.00127943 7.57905e-17)
(0.999992 1.6042e-05 3.24453e-17)
(0.999945 -1.54229e-05 9.76237e-17)
(0.999859 -6.89608e-05 7.17405e-17)
(0.999748 -0.00015166 -3.0211e-16)
(0.999628 -0.000266775 -5.05686e-16)
(0.999521 -0.000410571 -5.50152e-17)
(0.999439 -0.000575862 2.55383e-16)
(0.999394 -0.000752618 -6.76867e-16)
(0.999394 -0.000926145 -1.78508e-16)
(0.999441 -0.00108131 6.8087e-16)
(0.99953 -0.00119913 1.26081e-15)
(0.999653 -0.00128078 -6.28247e-16)
(0.999785 -0.00129658 -9.82356e-16)
(1.00007 -0.00132363 -3.93663e-16)
(0.999028 -0.00174662 5.17525e-16)
(0.99999 2.5557e-05 1.04672e-17)
(0.999948 -1.94523e-05 -1.229e-16)
(0.999875 -8.39803e-05 -1.25139e-16)
(0.999782 -0.000171722 4.55519e-16)
(0.999686 -0.000284646 -2.86076e-17)
(0.999602 -0.000418504 -1.63939e-16)
(0.999543 -0.00056708 9.77671e-17)
(0.999517 -0.000722428 3.84327e-16)
(0.999531 -0.000872089 2.37377e-19)
(0.999585 -0.00100288 -3.92561e-16)
(0.999676 -0.00109662 -7.27136e-16)
(0.999797 -0.00115539 4.13024e-16)
(0.999906 -0.0011557 2.24325e-16)
(1.00021 -0.00114479 1.63967e-16)
(0.999547 -0.00128882 -2.43148e-16)
(0.999986 3.40789e-05 -1.7354e-17)
(0.999951 -2.47888e-05 -9.02262e-18)
(0.999893 -0.000100083 4.83104e-17)
(0.999821 -0.000192305 -3.05286e-16)
(0.999747 -0.000302527 3.72062e-16)
(0.999688 -0.000426276 3.29749e-16)
(0.999651 -0.000558634 -3.99212e-16)
(0.999642 -0.00069354 -4.196e-16)
(0.999666 -0.000821925 4.34596e-16)
(0.999724 -0.000933381 -4.70019e-16)
(0.99981 -0.00101262 -2.44113e-16)
(0.999925 -0.00106303 -3.84703e-16)
(1.00001 -0.00107148 5.41124e-16)
(1.00028 -0.00106091 -4.78855e-17)
(0.999834 -0.00118801 2.13874e-17)
(0.99998 4.21755e-05 -1.70428e-17)
(0.999946 -3.1421e-05 1.53296e-16)
(0.999891 -0.000121219 6.95399e-17)
(0.999823 -0.000226242 1.697e-16)
(0.999755 -0.000347533 4.67262e-17)
(0.999702 -0.000480427 -1.58163e-16)
(0.999672 -0.000620028 1.0246e-16)
(0.999672 -0.000759996 2.66107e-16)
(0.999705 -0.000892082 -4.17326e-16)
(0.99977 -0.00100648 -2.30752e-16)
(0.999862 -0.00108881 1.00528e-15)
(0.999986 -0.00114231 6.33209e-16)
(1.00007 -0.00115854 -2.89062e-16)
(1.00032 -0.00114384 5.90739e-16)
(1.00001 -0.00125574 -5.85768e-16)
(0.999973 5.02267e-05 1.83513e-17)
(0.999938 -3.78551e-05 -9.47983e-17)
(0.999882 -0.000142657 -1.86301e-16)
(0.999814 -0.00026223 -5.29211e-17)
(0.999748 -0.000397763 1.09389e-16)
(0.999698 -0.000544485 -1.08791e-16)
(0.999673 -0.000696954 1.48089e-16)
(0.99968 -0.000847664 1.31101e-16)
(0.999722 -0.000987733 2.90784e-16)
(0.999798 -0.00110695 -1.00163e-16)
(0.999903 -0.00119076 2.87654e-18)
(1.00004 -0.00124104 -3.88675e-16)
(1.00014 -0.00125082 1.82772e-17)
(1.00036 -0.00121353 -4.67749e-16)
(1.00018 -0.00124543 7.3974e-17)
(0.999965 5.83022e-05 3.25532e-18)
(0.999929 -4.36672e-05 -3.55832e-17)
(0.999877 -0.000162179 -2.90135e-17)
(0.999814 -0.000294067 1.75692e-16)
(0.999753 -0.000440505 -2.20377e-16)
(0.999709 -0.000596841 2.75332e-16)
(0.999692 -0.000757298 -6.18913e-16)
(0.999709 -0.00091348 -3.69618e-16)
(0.999761 -0.00105573 -1.51486e-16)
(0.999849 -0.00117356 6.70767e-16)
(0.999964 -0.00125244 -7.67485e-16)
(1.00011 -0.00129285 2.97665e-16)
(1.00022 -0.00128996 4.55383e-16)
(1.00042 -0.00122749 -9.56551e-17)
(1.00034 -0.00119419 -1.20455e-16)
(0.999955 6.64205e-05 1.51156e-17)
(0.999921 -4.91347e-05 3.22822e-17)
(0.999873 -0.000180544 2.50237e-17)
(0.999817 -0.000323266 -1.50825e-16)
(0.999765 -0.00047833 3.28752e-16)
(0.999731 -0.000641357 -1.39531e-16)
(0.999725 -0.000806549 2.01442e-16)
(0.999752 -0.000965027 -1.46184e-16)
(0.999815 -0.00110648 3.97305e-16)
(0.999914 -0.00122024 1.77615e-16)
(1.00004 -0.00129211 2.44529e-16)
(1.0002 -0.0013216 -5.64488e-17)
(1.00032 -0.00130701 -5.03817e-16)
(1.00049 -0.00122557 1.13619e-15)
(1.00048 -0.00115842 1.8613e-16)
(0.999945 7.46483e-05 -1.12153e-17)
(0.999912 -5.44636e-05 9.89396e-17)
(0.999869 -0.000198671 1.50765e-16)
(0.999821 -0.000352104 1.11886e-16)
(0.999778 -0.000515557 -4.88498e-16)
(0.999755 -0.000684878 1.40908e-16)
(0.999759 -0.000854363 3.20558e-16)
(0.999797 -0.00101488 7.72066e-16)
(0.999871 -0.00115552 -3.8517e-16)
(0.99998 -0.00126539 8.99798e-17)
(1.00011 -0.00133074 4.48691e-16)
(1.00028 -0.00135026 -3.23398e-16)
(1.00041 -0.00132567 -1.53821e-16)
(1.00058 -0.0012303 -3.80203e-16)
(1.0006 -0.00114252 8.38628e-17)
(0.999934 8.30785e-05 4.06828e-17)
(0.999901 -5.96507e-05 -8.9722e-17)
(0.999862 -0.000216766 8.85035e-18)
(0.999822 -0.000381168 -1.10148e-16)
(0.999789 -0.000553328 4.10494e-16)
(0.999777 -0.000729127 7.95781e-17)
(0.999792 -0.000902929 2.70114e-16)
(0.999841 -0.00106551 -5.72786e-16)
(0.999926 -0.00120552 4.1565e-17)
(1.00004 -0.00131192 -7.8636e-17)
(1.00019 -0.00137148 -1.39568e-16)
(1.00036 -0.00138222 4.40914e-17)
(1.0005 -0.00134911 5.91547e-16)
(1.00066 -0.00124352 -8.03131e-16)
(1.00071 -0.00114121 -2.68886e-16)
(0.999921 9.17869e-05 -2.622e-17)
(0.999889 -6.4655e-05 3.52439e-17)
(0.999855 -0.000234805 -1.47494e-16)
(0.999821 -0.000410457 2.49882e-16)
(0.999799 -0.000591695 -3.61453e-16)
(0.999797 -0.000774197 -3.02964e-16)
(0.999824 -0.000952311 -3.38713e-16)
(0.999884 -0.00111684 3.90981e-17)
(0.99998 -0.00125625 -8.13702e-17)
(1.00011 -0.00135958 -4.24258e-16)
(1.00026 -0.00141434 -7.20638e-16)
(1.00044 -0.00141795 2.85587e-16)
(1.0006 -0.00137815 -3.28019e-16)
(1.00075 -0.00126574 9.05821e-16)
(1.00082 -0.0011532 5.36346e-17)
(0.999907 0.000100839 -2.45517e-17)
(0.999875 -6.94517e-05 -1.04215e-16)
(0.999845 -0.00025282 1.50704e-16)
(0.999819 -0.000440117 -2.341e-16)
(0.999805 -0.000631052 7.68479e-17)
(0.999814 -0.000820866 4.54038e-16)
(0.999853 -0.00100378 5.53741e-17)
(0.999925 -0.00117061 -6.73223e-17)
(1.00003 -0.00130988 1.81467e-16)
(1.00017 -0.0014109 -1.56834e-16)
(1.00033 -0.0014621 -9.50217e-17)
(1.00052 -0.00146028 -6.67325e-17)
(1.00069 -0.00141509 -2.86867e-16)
(1.00085 -0.00129753 -6.20639e-16)
(1.00092 -0.00117478 1.23969e-17)
(0.999891 0.000110283 -2.17636e-18)
(0.99986 -7.40217e-05 1.40472e-16)
(0.999833 -0.000270845 -2.21472e-16)
(0.999813 -0.000470295 8.33884e-17)
(0.999808 -0.000671759 -9.35397e-17)
(0.999828 -0.000869873 -1.54713e-16)
(0.999878 -0.00105859 -3.88817e-17)
(0.999962 -0.00122858 3.64925e-16)
(1.00008 -0.00136853 -6.30023e-16)
(1.00023 -0.00146808 4.201e-16)
(1.0004 -0.00151664 2.20403e-16)
(1.0006 -0.00151025 1.83964e-16)
(1.00077 -0.00145946 7.48878e-16)
(1.00094 -0.0013359 7.29245e-16)
(1.00103 -0.00119949 5.47837e-16)
(0.999874 0.000120156 8.30218e-18)
(0.999843 -7.83264e-05 5.28674e-17)
(0.99982 -0.000288823 1.76028e-16)
(0.999805 -0.00050088 5.57585e-17)
(0.999808 -0.000713635 1.706e-16)
(0.999838 -0.000921012 1.68014e-16)
(0.999899 -0.00111656 -1.18437e-17)
(0.999995 -0.00129059 4.92826e-17)
(1.00012 -0.00143196 9.37421e-16)
(1.00029 -0.00153052 -1.13871e-16)
(1.00046 -0.00157656 5.41953e-16)
(1.00067 -0.00156532 -7.38657e-16)
(1.00086 -0.00150735 1.36881e-16)
(1.00103 -0.0013754 -1.34342e-15)
(1.00114 -0.00122178 -6.15668e-16)
(0.999856 0.00013047 9.93843e-18)
(0.999825 -8.23372e-05 -1.17661e-16)
(0.999805 -0.000306653 1.54761e-16)
(0.999796 -0.000531591 -2.24057e-16)
(0.999806 -0.000756091 1.56803e-16)
(0.999845 -0.000973325 2.07159e-17)
(0.999917 -0.00117635 1.94968e-16)
(1.00002 -0.00135494 -2.59935e-16)
(1.00017 -0.00149801 -8.38793e-16)
(1.00034 -0.0015955 2.49189e-16)
(1.00053 -0.00163846 -5.59986e-16)
(1.00074 -0.00162132 1.12767e-16)
(1.00094 -0.00155422 -4.89927e-16)
(1.00113 -0.00141154 2.65436e-16)
(1.00126 -0.0012395 -1.08371e-16)
(0.999836 0.000141219 3.3234e-17)
(0.999806 -8.60411e-05 7.18739e-17)
(0.999788 -0.000324246 -3.58886e-16)
(0.999785 -0.000562148 2.88323e-16)
(0.999803 -0.000798491 -2.79895e-16)
(0.999851 -0.00102571 -3.72881e-16)
(0.999934 -0.00123632 -3.82836e-16)
(1.00005 -0.0014195 3.37507e-16)
(1.00021 -0.00156412 7.18662e-16)
(1.00039 -0.00166007 1.62971e-16)
(1.00059 -0.00169904 9.46719e-17)
(1.00082 -0.00167482 7.00544e-17)
(1.00103 -0.00159715 -7.32483e-16)
(1.00122 -0.00144258 6.43381e-17)
(1.00137 -0.0012536 6.31913e-16)
(0.999815 0.000152369 -8.96475e-17)
(0.999785 -8.94597e-05 -9.23798e-17)
(0.999771 -0.000341585 3.42782e-17)
(0.999773 -0.000592408 -2.64284e-16)
(0.999799 -0.000840442 -1.7963e-17)
(0.999858 -0.00107742 4.81533e-16)
(0.999952 -0.00129531 5.50563e-17)
(1.00008 -0.00148272 3.03999e-16)
(1.00025 -0.00162845 -6.02682e-16)
(1.00045 -0.00172226 -3.09563e-16)
(1.00066 -0.00175644 4.44426e-16)
(1.00089 -0.00172443 -1.48995e-16)
(1.00111 -0.00163574 4.83394e-16)
(1.00131 -0.00146958 7.48843e-16)
(1.00149 -0.00126699 -5.9763e-17)
(0.999791 0.000163876 2.80845e-17)
(0.999763 -9.2631e-05 1.14733e-17)
(0.999752 -0.000358709 1.15597e-16)
(0.999761 -0.000622381 2.25827e-18)
(0.999796 -0.000881865 9.88389e-17)
(0.999865 -0.00112821 -2.89558e-16)
(0.999971 -0.0013529 5.98073e-16)
(1.00011 -0.00154404 -1.53437e-16)
(1.00029 -0.00169039 6.52269e-16)
(1.0005 -0.00178162 -3.41211e-16)
(1.00073 -0.00181062 -5.43249e-16)
(1.00097 -0.00177076 5.24251e-16)
(1.0012 -0.00167158 -8.83716e-16)
(1.00141 -0.0014952 -1.3012e-15)
(1.0016 -0.00128265 -3.29127e-16)
(0.999767 0.000175679 3.12691e-18)
(0.99974 -9.5613e-05 1.94948e-17)
(0.999733 -0.000375711 -3.12088e-17)
(0.999749 -0.000652212 1.58631e-16)
(0.999793 -0.000922971 1.08796e-16)
(0.999872 -0.00117837 -4.26603e-17)
(0.99999 -0.00140942 -3.60496e-16)
(1.00015 -0.00160388 -3.47498e-16)
(1.00034 -0.00175053 -2.34874e-16)
(1.00056 -0.00183907 4.32788e-16)
(1.0008 -0.00186299 3.35311e-16)
(1.00105 -0.00181584 -4.92932e-16)
(1.00129 -0.00170729 1.09473e-15)
(1.00151 -0.00152236 1.37107e-15)
(1.0017 -0.00130254 4.6301e-17)
(0.999741 0.000187717 3.57557e-17)
(0.999715 -9.8459e-05 -4.75888e-17)
(0.999712 -0.000392689 2.29389e-16)
(0.999735 -0.000682098 -4.56844e-17)
(0.999788 -0.000964114 -1.74355e-16)
(0.999879 -0.00122845 7.39142e-17)
(1.00001 -0.00146566 -1.29668e-16)
(1.00018 -0.00166328 2.93397e-16)
(1.00038 -0.00181021 7.71212e-17)
(1.00062 -0.00189627 5.39087e-17)
(1.00087 -0.00191558 -2.57159e-16)
(1.00113 -0.001862 3.41307e-16)
(1.00138 -0.0017452 1.73924e-16)
(1.0016 -0.00155294 1.55329e-16)
(1.0018 -0.00132681 3.93293e-16)
(0.999713 0.000199921 -1.83815e-17)
(0.999689 -0.000101224 2.7242e-17)
(0.99969 -0.000409739 -3.71837e-16)
(0.99972 -0.000712229 -2.37889e-16)
(0.999782 -0.00100566 3.29231e-16)
(0.999885 -0.00127905 -8.91258e-17)
(1.00003 -0.00152251 5.20603e-16)
(1.00021 -0.00172343 -1.41336e-16)
(1.00043 -0.00187088 -7.5064e-18)
(1.00067 -0.00195486 -1.49903e-16)
(1.00093 -0.00197015 3.84866e-16)
(1.0012 -0.0019109 -2.42544e-16)
(1.00146 -0.00178655 -7.97099e-16)
(1.0017 -0.0015873 -1.89625e-16)
(1.0019 -0.00135427 -4.49247e-16)
(0.999685 0.000212233 2.47443e-17)
(0.999662 -0.000103944 1.1255e-16)
(0.999667 -0.000426914 3.35142e-16)
(0.999702 -0.000742711 2.60096e-16)
(0.999774 -0.00104781 -3.20594e-17)
(0.999888 -0.00133055 -1.30231e-16)
(1.00004 -0.00158058 -5.76328e-16)
(1.00024 -0.00178512 -6.70022e-17)
(1.00047 -0.00193347 -3.42281e-16)
(1.00073 -0.00201584 1.10849e-16)
(1.001 -0.00202752 -7.05436e-16)
(1.00128 -0.00196299 3.40233e-16)
(1.00155 -0.00183117 1.14833e-15)
(1.00179 -0.00162445 -8.8485e-16)
(1.00201 -0.00138305 5.23734e-16)
(0.999655 0.000224591 -1.99524e-17)
(0.999633 -0.000106655 -1.58362e-16)
(0.999641 -0.000444236 -1.9181e-16)
(0.999684 -0.000773568 -9.56632e-17)
(0.999764 -0.00109063 -6.12633e-17)
(0.999889 -0.00138306 8.41023e-17)
(1.00006 -0.00164002 -3.22052e-17)
(1.00026 -0.00184858 -4.42316e-16)
(1.00051 -0.00199819 -1.3018e-16)
(1.00078 -0.00207925 -3.27731e-17)
(1.00106 -0.00208749 6.42088e-16)
(1.00135 -0.00201762 1.07372e-16)
(1.00163 -0.00187791 -9.54738e-16)
(1.00189 -0.00166276 5.06342e-16)
(1.00211 -0.00141158 -1.01373e-16)
(0.999623 0.00023695 1.80236e-17)
(0.999603 -0.000109378 9.3112e-17)
(0.999615 -0.000461694 9.23187e-17)
(0.999663 -0.000804735 1.79534e-16)
(0.999752 -0.00113397 -9.78128e-17)
(0.999888 -0.00143635 -2.75117e-17)
(1.00007 -0.00170055 1.98763e-16)
(1.00029 -0.00191343 2.96988e-16)
(1.00054 -0.00206454 -2.1403e-17)
(1.00083 -0.0021444 -3.5849e-16)
(1.00113 -0.00214908 -2.75524e-16)
(1.00143 -0.00207351 -4.84222e-16)
(1.00172 -0.00192528 2.03065e-17)
(1.00198 -0.00170078 2.62185e-16)
(1.00222 -0.00143903 -1.58483e-16)
(0.999591 0.000249265 -9.63713e-18)
(0.999571 -0.000112139 -5.51013e-17)
(0.999586 -0.000479273 1.40204e-16)
(0.999641 -0.00083612 1.47044e-17)
(0.999739 -0.00117764 -1.24514e-16)
(0.999885 -0.00149009 1.00403e-16)
(1.00008 -0.00176168 -4.79585e-17)
(1.00031 -0.00197902 2.73835e-16)
(1.00058 -0.00213169 5.05912e-16)
(1.00088 -0.00221029 7.85566e-17)
(1.00119 -0.00221113 2.37768e-16)
(1.0015 -0.00212943 2.41953e-16)
(1.0018 -0.00197219 5.97019e-17)
(1.00208 -0.00173784 -5.3955e-16)
(1.00232 -0.00146568 1.30658e-16)
(0.999557 0.000261505 1.29091e-17)
(0.999538 -0.000114958 1.16053e-17)
(0.999556 -0.000496953 -2.86432e-16)
(0.999617 -0.000867633 -1.25128e-16)
(0.999724 -0.00122142 1.75914e-16)
(0.999881 -0.00154392 -2.74584e-17)
(1.00009 -0.0018229 1.83635e-16)
(1.00033 -0.00204468 -2.43885e-16)
(1.00062 -0.00219887 1.39016e-16)
(1.00093 -0.00227608 1.15604e-16)
(1.00125 -0.00227283 1.22007e-16)
(1.00158 -0.00218469 1.55209e-16)
(1.00189 -0.00201829 2.15662e-16)
(1.00217 -0.0017741 3.0332e-17)
(1.00243 -0.00149225 7.68605e-17)
(0.999523 0.000273646 -3.9718e-17)
(0.999503 -0.000117866 1.05093e-16)
(0.999525 -0.000514743 1.64464e-16)
(0.999592 -0.000899237 -1.05272e-16)
(0.999709 -0.00126521 -6.84359e-17)
(0.999877 -0.00159767 3.89495e-17)
(1.00009 -0.00188391 -2.00054e-16)
(1.00036 -0.00211006 -1.30892e-16)
(1.00065 -0.00226566 -1.71909e-16)
(1.00098 -0.00234139 2.73193e-16)
(1.00131 -0.00233395 -3.78927e-16)
(1.00165 -0.00223937 2.95886e-16)
(1.00198 -0.00206401 1.44849e-16)
(1.00227 -0.00181038 5.41701e-16)
(1.00253 -0.00151981 -4.95081e-16)
(0.999487 0.000285675 1.67594e-17)
(0.999468 -0.000120886 -7.91009e-17)
(0.999493 -0.00053266 5.79135e-17)
(0.999567 -0.000930939 1.28084e-16)
(0.999692 -0.00130901 -8.87956e-17)
(0.999871 -0.00165131 -1.50059e-16)
(1.0001 -0.0019447 -7.10424e-17)
(1.00038 -0.00217514 9.7895e-17)
(1.00069 -0.00233213 -4.4775e-16)
(1.00103 -0.00240642 6.60567e-17)
(1.00138 -0.00239487 2.51774e-16)
(1.00173 -0.00229406 -7.03465e-16)
(1.00206 -0.00211018 1.41972e-16)
(1.00237 -0.00184762 2.1731e-17)
(1.00264 -0.00154902 3.65088e-16)
(0.99945 0.000297586 -6.37136e-18)
(0.99943 -0.000124046 9.69463e-17)
(0.99946 -0.000550741 -9.36591e-17)
(0.99954 -0.000962805 -5.81294e-17)
(0.999674 -0.00135294 -9.27059e-17)
(0.999865 -0.00170502 -4.90225e-17)
(1.00011 -0.00200553 -1.05694e-16)
(1.0004 -0.00224027 7.54548e-17)
(1.00072 -0.00239873 2.90151e-17)
(1.00108 -0.00247174 -3.10005e-16)
(1.00144 -0.00245634 -3.69743e-16)
(1.00181 -0.00234963 4.10036e-16)
(1.00215 -0.00215765 -3.57736e-16)
(1.00246 -0.00188653 -1.13814e-16)
(1.00274 -0.00157999 -1.11807e-17)
(0.999412 0.000309387 -1.92794e-17)
(0.999392 -0.000127363 -4.47845e-17)
(0.999425 -0.000569021 3.16294e-17)
(0.999512 -0.000994908 2.25376e-16)
(0.999656 -0.00139715 3.76358e-16)
(0.999858 -0.00175907 3.0723e-16)
(1.00011 -0.00206678 3.35646e-16)
(1.00042 -0.00230595 -2.14111e-16)
(1.00076 -0.00246607 6.76322e-20)
(1.00113 -0.00253805 2.32163e-16)
(1.0015 -0.00251908 4.57056e-17)
(1.00188 -0.00240678 2.51953e-16)
(1.00224 -0.00220695 2.02361e-16)
(1.00256 -0.00192729 -5.2978e-16)
(1.00285 -0.00161235 -3.47248e-16)
(0.999372 0.000321084 9.91943e-18)
(0.999352 -0.000130851 -8.0944e-17)
(0.999388 -0.000587535 -1.61904e-16)
(0.999482 -0.00102733 -1.58917e-16)
(0.999635 -0.00144179 1.46054e-17)
(0.999849 -0.0018137 -1.73451e-16)
(1.00012 -0.0021288 -3.77627e-16)
(1.00044 -0.00237263 2.88202e-16)
(1.00079 -0.00253466 2.34369e-16)
(1.00117 -0.00260588 -5.16702e-16)
(1.00157 -0.00258356 4.23758e-16)
(1.00196 -0.00246579 -3.08815e-16)
(1.00232 -0.00225812 -1.42277e-16)
(1.00266 -0.00196963 -1.24308e-16)
(1.00295 -0.00164555 1.47944e-16)
(0.999332 0.000332699 3.77595e-17)
(0.99931 -0.000134509 1.73683e-17)
(0.99935 -0.000606294 8.75675e-17)
(0.99945 -0.0010601 4.06756e-17)
(0.999613 -0.00148694 4.7853e-17)
(0.999839 -0.00186907 2.99983e-16)
(1.00012 -0.00219181 -1.35534e-16)
(1.00045 -0.00244057 1.48086e-16)
(1.00082 -0.00260476 8.50147e-17)
(1.00122 -0.00267541 5.92363e-17)
(1.00163 -0.00264983 1.97308e-16)
(1.00203 -0.00252653 -4.20523e-17)
(1.00241 -0.00231076 9.34142e-18)
(1.00275 -0.00201294 8.6706e-16)
(1.00306 -0.00167895 2.75233e-18)
(0.99929 0.000344249 -3.6651e-17)
(0.999267 -0.000138335 -1.26577e-17)
(0.999311 -0.000625303 5.72511e-17)
(0.999417 -0.00109324 -1.74548e-16)
(0.999589 -0.00153264 -2.79562e-16)
(0.999827 -0.00192521 -2.67843e-16)
(1.00012 -0.00225585 2.26923e-16)
(1.00047 -0.0025098 -8.29855e-17)
(1.00085 -0.00267634 9.67604e-18)
(1.00127 -0.00274651 -5.0134e-18)
(1.00169 -0.00271761 -2.72533e-16)
(1.0021 -0.00258857 -2.46229e-16)
(1.0025 -0.00236437 -1.587e-16)
(1.00285 -0.00205671 2.40684e-17)
(1.00316 -0.0017123 -5.41996e-17)
(0.999246 0.000355758 -1.82974e-17)
(0.999223 -0.000142315 4.84244e-17)
(0.99927 -0.000644547 4.76413e-17)
(0.999383 -0.00112672 7.75251e-17)
(0.999564 -0.00157884 1.06031e-16)
(0.999813 -0.00198205 1.67547e-18)
(1.00012 -0.00232081 2.26824e-16)
(1.00048 -0.00258013 -5.05723e-16)
(1.00088 -0.00274912 2.57855e-16)
(1.00131 -0.00281882 2.62934e-16)
(1.00175 -0.00278646 -3.76074e-16)
(1.00218 -0.00265141 7.02117e-16)
(1.00258 -0.00241846 3.69413e-16)
(1.00295 -0.00210061 -6.87822e-16)
(1.00327 -0.00174557 -2.04383e-16)
(0.999201 0.000367246 3.78376e-17)
(0.999177 -0.000146437 2.93796e-17)
(0.999227 -0.000664014 4.58777e-18)
(0.999347 -0.00116052 -3.47532e-17)
(0.999537 -0.00162549 2.0159e-17)
(0.999797 -0.00203949 2.84408e-16)
(1.00012 -0.00238651 -4.58387e-17)
(1.0005 -0.00265132 3.24537e-16)
(1.00091 -0.00282281 -4.80151e-17)
(1.00136 -0.00289198 -2.90836e-16)
(1.00181 -0.00285602 6.0165e-16)
(1.00225 -0.00271474 -3.60945e-16)
(1.00267 -0.00247287 -4.88399e-16)
(1.00305 -0.00214471 2.0629e-16)
(1.00338 -0.00177914 3.44463e-16)
(0.999154 0.000378737 -3.14652e-17)
(0.99913 -0.000150682 -1.32642e-17)
(0.999184 -0.000683684 -1.72961e-16)
(0.999309 -0.00119461 -8.45251e-17)
(0.999509 -0.00167251 5.20524e-17)
(0.999781 -0.00209741 -2.87118e-16)
(1.00012 -0.0024528 -8.43957e-17)
(1.00051 -0.00272315 2.82853e-16)
(1.00094 -0.00289717 -2.39183e-16)
(1.0014 -0.00296576 7.01289e-17)
(1.00187 -0.00292611 -3.35021e-16)
(1.00233 -0.00277851 1.05361e-17)
(1.00276 -0.0025277 2.64354e-16)
(1.00315 -0.00218925 1.38991e-16)
(1.00348 -0.00181333 -5.4097e-17)
(0.999106 0.000390245 3.00169e-17)
(0.999081 -0.00015504 -9.73873e-17)
(0.999138 -0.000703554 8.17474e-17)
(0.99927 -0.00122898 5.3502e-17)
(0.999479 -0.00171991 -4.03376e-17)
(0.999763 -0.00215578 -1.72467e-16)
(1.00011 -0.00251961 5.22887e-17)
(1.00052 -0.00279558 -1.29677e-16)
(1.00097 -0.00297213 -2.18618e-16)
(1.00145 -0.00304017 -2.73192e-17)
(1.00193 -0.00299684 -4.84158e-16)
(1.0024 -0.00284293 4.95322e-16)
(1.00285 -0.00258329 3.84797e-17)
(1.00324 -0.00223467 -7.93481e-17)
(1.00359 -0.00184854 -7.71093e-18)
(0.999056 0.000401793 -3.68168e-17)
(0.999031 -0.000159491 1.00254e-16)
(0.999091 -0.000723617 -2.30292e-17)
(0.99923 -0.00126363 -2.09779e-16)
(0.999449 -0.00176769 -9.9948e-17)
(0.999745 -0.00221464 1.161e-16)
(1.00011 -0.002587 -1.70344e-16)
(1.00053 -0.00286867 -1.9079e-16)
(1.001 -0.00304784 3.24649e-16)
(1.00149 -0.00311539 1.12945e-16)
(1.00199 -0.00306846 5.0802e-16)
(1.00248 -0.00290835 -3.81975e-16)
(1.00293 -0.00264 1.37194e-16)
(1.00334 -0.00228128 -1.54357e-16)
(1.0037 -0.0018848 5.14048e-18)
(0.999004 0.000413389 2.27875e-17)
(0.998979 -0.000164029 -5.80151e-17)
(0.999043 -0.000743885 7.20624e-17)
(0.999188 -0.00129861 3.12568e-16)
(0.999417 -0.00181592 1.32636e-16)
(0.999725 -0.00227409 8.22821e-17)
(1.0001 -0.00265513 3.38343e-16)
(1.00054 -0.00294263 1.60773e-16)
(1.00102 -0.00312455 -2.64768e-16)
(1.00153 -0.00319173 4.51056e-16)
(1.00205 -0.00314133 2.50781e-16)
(1.00255 -0.00297511 -2.12178e-16)
(1.00302 -0.00269811 -4.05657e-16)
(1.00344 -0.00232922 -1.57525e-16)
(1.0038 -0.00192205 6.07481e-17)
(0.998951 0.000425051 4.67892e-18)
(0.998926 -0.000168636 -1.23602e-16)
(0.998993 -0.000764361 -9.17244e-17)
(0.999145 -0.00133395 -2.1522e-16)
(0.999383 -0.00186469 3.45699e-17)
(0.999704 -0.00233425 -3.3415e-16)
(1.0001 -0.00272415 -3.59202e-16)
(1.00055 -0.00301767 -1.44472e-16)
(1.00105 -0.0032025 3.07742e-16)
(1.00158 -0.00326946 -3.2683e-16)
(1.00211 -0.00321568 1.15543e-16)
(1.00263 -0.00304339 2.14721e-16)
(1.00311 -0.00275768 3.2582e-16)
(1.00354 -0.00237837 1.98692e-16)
(1.00391 -0.00195997 1.68537e-17)
(0.998896 0.000436784 3.28885e-17)
(0.998871 -0.000173306 2.02016e-16)
(0.998942 -0.000785056 9.40192e-17)
(0.9991 -0.00136968 1.80677e-16)
(0.999348 -0.00191406 1.0825e-16)
(0.999681 -0.00239525 4.56306e-17)
(1.00009 -0.00279423 5.26334e-17)
(1.00056 -0.00309397 -1.20916e-16)
(1.00108 -0.00328188 -1.22597e-16)
(1.00162 -0.00334874 1.43644e-17)
(1.00217 -0.00329163 -7.89503e-16)
(1.0027 -0.0031132 -3.08247e-16)
(1.0032 -0.00281859 3.23983e-16)
(1.00364 -0.00242854 -7.22057e-17)
(1.00402 -0.00199835 -1.99764e-16)
(0.998839 0.000448602 -4.42039e-17)
(0.998815 -0.000178022 -1.29457e-16)
(0.998889 -0.000805972 -1.85916e-16)
(0.999054 -0.00140584 6.10747e-17)
(0.999311 -0.00196408 -2.0537e-16)
(0.999657 -0.00245713 3.82527e-17)
(1.00008 -0.00286544 -4.7346e-17)
(1.00057 -0.0031716 -8.64216e-18)
(1.0011 -0.00336274 -1.46498e-16)
(1.00166 -0.00342956 -7.68012e-17)
(1.00223 -0.00336909 2.71897e-17)
(1.00278 -0.00318437 2.67699e-16)
(1.00329 -0.0028806 -1.34863e-16)
(1.00374 -0.00247941 2.66068e-16)
(1.00413 -0.00203693 9.394e-17)
(0.998781 0.000460506 2.36255e-17)
(0.998757 -0.000182781 1.24018e-16)
(0.998834 -0.000827113 2.362e-16)
(0.999005 -0.00144242 -6.82471e-17)
(0.999273 -0.00201475 -1.65566e-17)
(0.999631 -0.00251992 2.50674e-16)
(1.00007 -0.00293777 2.13135e-16)
(1.00057 -0.00325054 -1.46023e-16)
(1.00112 -0.00344501 3.91151e-16)
(1.0017 -0.00351181 3.54798e-16)
(1.00228 -0.00344788 3.77185e-16)
(1.00285 -0.00325666 -1.74106e-17)
(1.00338 -0.00294348 -2.98984e-16)
(1.00384 -0.00253084 -3.13808e-16)
(1.00423 -0.00207576 -3.02111e-17)
(0.998721 0.000472507 -2.02443e-17)
(0.998697 -0.000187569 -6.5491e-17)
(0.998778 -0.000848474 -1.95773e-16)
(0.998956 -0.00147943 1.25989e-16)
(0.999233 -0.00206608 1.20885e-16)
(0.999604 -0.00258357 -1.67843e-16)
(1.00006 -0.00301116 -8.47276e-17)
(1.00058 -0.00333067 8.37431e-18)
(1.00115 -0.00352854 -1.73836e-16)
(1.00174 -0.00359529 -3.03995e-16)
(1.00234 -0.00352779 -5.60776e-16)
(1.00293 -0.00332989 6.05453e-17)
(1.00346 -0.00300707 3.65043e-16)
(1.00394 -0.00258275 3.30315e-16)
(1.00434 -0.00211487 -6.94159e-17)
(0.998659 0.000484607 -1.61099e-17)
(0.998636 -0.000192388 -1.31735e-17)
(0.99872 -0.000870062 1.71321e-16)
(0.998905 -0.00151687 -1.61643e-16)
(0.999192 -0.00211803 -3.19406e-16)
(0.999575 -0.00264804 1.54999e-16)
(1.00004 -0.00308553 8.79488e-17)
(1.00058 -0.0034119 4.07209e-16)
(1.00117 -0.0036132 5.82149e-17)
(1.00178 -0.00367987 2.83054e-16)
(1.0024 -0.00360871 8.40318e-16)
(1.003 -0.00340399 -2.30462e-16)
(1.00355 -0.00307141 -9.77697e-17)
(1.00405 -0.00263527 -1.15314e-17)
(1.00445 -0.00215455 -2.7648e-17)
(0.998597 0.000496814 4.50542e-17)
(0.998573 -0.000197236 4.92175e-17)
(0.998661 -0.000891875 -1.47345e-16)
(0.998852 -0.00155473 1.36873e-16)
(0.999149 -0.0021706 -9.21217e-17)
(0.999546 -0.00271329 -2.96567e-16)
(1.00003 -0.00316083 1.30323e-17)
(1.00058 -0.00349414 -3.50254e-17)
(1.00119 -0.00369892 -2.15901e-16)
(1.00182 -0.00376549 1.81962e-16)
(1.00246 -0.00369062 -7.84382e-16)
(1.00308 -0.00347901 -1.42716e-17)
(1.00364 -0.00313661 -1.74644e-16)
(1.00415 -0.00268858 3.26005e-17)
(1.00456 -0.00219497 -8.19025e-17)
(0.998532 0.000509127 -1.14969e-17)
(0.998509 -0.000202124 -1.17271e-17)
(0.9986 -0.000913932 2.03886e-17)
(0.998798 -0.00159303 -1.52209e-16)
(0.999105 -0.0022238 -2.73263e-17)
(0.999515 -0.00277934 3.62121e-16)
(1.00001 -0.00323705 -2.63892e-16)
(1.00059 -0.00357741 -3.26823e-16)
(1.00121 -0.00378572 3.49899e-16)
(1.00186 -0.00385223 -3.16519e-16)
(1.00252 -0.00377365 4.005e-16)
(1.00315 -0.00355512 3.78781e-16)
(1.00373 -0.0032029 2.72692e-16)
(1.00425 -0.00274293 -1.81321e-16)
(1.00467 -0.00223632 -6.1735e-17)
(0.998467 0.000521555 -1.2399e-17)
(0.998443 -0.000207056 -7.19575e-17)
(0.998537 -0.000936245 -9.68918e-17)
(0.998742 -0.0016318 7.11106e-17)
(0.999059 -0.00227765 1.80217e-16)
(0.999482 -0.00284622 6.32081e-17)
(0.999997 -0.00331425 2.45251e-16)
(1.00059 -0.00366177 5.35983e-17)
(1.00123 -0.00387371 -4.60041e-16)
(1.0019 -0.0039402 1.60956e-16)
(1.00257 -0.00385796 -2.27466e-16)
(1.00323 -0.00363252 -1.88869e-16)
(1.00382 -0.00327044 -2.54283e-16)
(1.00435 -0.00279843 4.01573e-17)
(1.00478 -0.00227857 1.49095e-16)
(0.998399 0.000534093 -1.90314e-17)
(0.998375 -0.000212055 3.42737e-17)
(0.998473 -0.000958841 4.13777e-17)
(0.998684 -0.00167106 -1.4253e-16)
(0.999012 -0.00233221 6.95533e-17)
(0.999449 -0.00291399 -2.1102e-16)
(0.999979 -0.00339252 -2.58477e-17)
(1.00059 -0.00374735 3.17324e-16)
(1.00125 -0.00396303 -2.02378e-16)
(1.00194 -0.0040296 -2.67476e-16)
(1.00263 -0.00394375 2.2969e-16)
(1.0033 -0.00371141 -6.81605e-17)
(1.00391 -0.00333939 -7.20544e-16)
(1.00445 -0.00285516 7.34727e-17)
(1.0049 -0.00232174 1.07255e-16)
(0.99833 0.000546749 -9.79587e-18)
(0.998306 -0.00021713 3.3431e-17)
(0.998407 -0.000981742 1.25944e-17)
(0.998625 -0.00171085 1.89995e-17)
(0.998964 -0.00238753 1.20026e-16)
(0.999413 -0.00298275 6.66918e-17)
(0.99996 -0.00347197 -2.19642e-16)
(1.00059 -0.00383428 -2.00543e-17)
(1.00127 -0.00405384 6.06161e-16)
(1.00198 -0.00412058 -1.94391e-16)
(1.00269 -0.00403115 -5.71436e-18)
(1.00338 -0.00379186 2.87373e-17)
(1.004 -0.00340978 2.77315e-17)
(1.00456 -0.00291308 -5.0871e-17)
(1.00501 -0.00236567 1.69304e-17)
(0.99826 0.000559516 2.58141e-17)
(0.998234 -0.000222308 -6.81931e-17)
(0.998339 -0.00100498 -7.78911e-17)
(0.998564 -0.00175122 1.49257e-19)
(0.998913 -0.00244368 -1.81237e-16)
(0.999377 -0.00305257 -2.8941e-17)
(0.99994 -0.0035527 4.26477e-17)
(1.00058 -0.00392268 -4.8289e-17)
(1.00128 -0.00414625 -4.10391e-16)
(1.00202 -0.00421325 5.46355e-16)
(1.00275 -0.00412024 -3.11746e-17)
(1.00345 -0.00387391 -5.70696e-17)
(1.00409 -0.00348158 3.36264e-16)
(1.00466 -0.00297212 -3.76902e-16)
(1.00512 -0.00241032 7.95012e-18)
(0.998188 0.000572397 2.73897e-18)
(0.998161 -0.0002276 8.18083e-17)
(0.998269 -0.00102857 2.19853e-16)
(0.998501 -0.0017922 -5.54423e-17)
(0.998861 -0.00250069 1.17784e-16)
(0.999339 -0.0031235 -1.83018e-16)
(0.999918 -0.00363476 -2.19169e-16)
(1.00058 -0.00401259 5.2636e-18)
(1.0013 -0.00424031 2.38948e-16)
(1.00205 -0.00430761 -4.76862e-16)
(1.0028 -0.00421099 1.18763e-16)
(1.00353 -0.00395749 -2.06367e-17)
(1.00419 -0.00355469 2.59779e-16)
(1.00477 -0.00303214 8.02283e-17)
(1.00523 -0.00245552 -1.24839e-16)
(0.998115 0.000585382 1.05254e-18)
(0.998087 -0.000233031 -8.87895e-17)
(0.998198 -0.00105255 -1.25478e-16)
(0.998437 -0.00183381 2.07663e-17)
(0.998807 -0.00255859 -2.18824e-17)
(0.999299 -0.00319558 1.66128e-16)
(0.999895 -0.0037182 3.59843e-16)
(1.00058 -0.00410406 -3.19174e-16)
(1.00132 -0.00433602 3.63035e-16)
(1.00209 -0.00440365 3.20872e-17)
(1.00286 -0.00430337 7.12017e-17)
(1.0036 -0.00404254 -1.37482e-16)
(1.00428 -0.00362904 2.65342e-16)
(1.00487 -0.00309312 1.50293e-16)
(1.00535 -0.00250135 1.96112e-16)
(0.998039 0.000598468 -8.60824e-18)
(0.99801 -0.000238615 8.46962e-17)
(0.998125 -0.00107691 1.54552e-16)
(0.998371 -0.00187606 5.33968e-17)
(0.998752 -0.00261741 1.56177e-16)
(0.999257 -0.00326881 1.19941e-16)
(0.99987 -0.00380301 -3.23151e-16)
(1.00057 -0.00419705 6.474e-16)
(1.00133 -0.00443336 -2.0363e-16)
(1.00212 -0.00450132 -6.77364e-17)
(1.00292 -0.0043973 -2.45133e-16)
(1.00368 -0.00412899 -1.07633e-16)
(1.00437 -0.00370458 -2.95298e-16)
(1.00498 -0.00315503 -1.08745e-16)
(1.00546 -0.00254779 4.71702e-17)
(0.997962 0.000611641 -3.05703e-17)
(0.997932 -0.000244374 -9.05759e-17)
(0.99805 -0.0011017 -1.08387e-17)
(0.998303 -0.00191897 1.06226e-16)
(0.998695 -0.00267714 -1.42132e-16)
(0.999214 -0.0033432 -1.04366e-16)
(0.999844 -0.00388917 4.04381e-16)
(1.00056 -0.00429155 -1.20771e-16)
(1.00135 -0.00453228 -5.15949e-16)
(1.00216 -0.0046006 7.10021e-17)
(1.00297 -0.00449277 -1.24465e-16)
(1.00375 -0.00421684 2.30228e-16)
(1.00446 -0.00378135 3.68655e-16)
(1.00508 -0.00321793 3.28225e-16)
(1.00558 -0.00259496 -2.74889e-16)
(0.997883 0.000624895 1.83335e-18)
(0.997852 -0.000250319 -1.74715e-17)
(0.997973 -0.00112691 -7.23204e-17)
(0.998233 -0.00196256 4.50792e-17)
(0.998636 -0.00273779 -7.88103e-17)
(0.999169 -0.00341874 1.34412e-16)
(0.999817 -0.00397669 -1.162e-16)
(1.00056 -0.00438754 3.98776e-17)
(1.00136 -0.00463278 -1.08146e-16)
(1.00219 -0.00470145 2.75116e-16)
(1.00303 -0.00458977 3.36574e-16)
(1.00383 -0.00430611 1.94497e-18)
(1.00455 -0.00385936 -5.8673e-16)
(1.00519 -0.00328185 -3.99095e-16)