/*--------------------------------*- C++ -*----------------------------------*\
  =========                 |
  \\      /  F ield         | OpenFOAM: The Open Source CFD Toolbox
   \\    /   O peration     | Website:  https://openfoam.org
    \\  /    A nd           | Version:  6.0
     \\/     M anipulation  |
\*---------------------------------------------------------------------------*/
FoamFile
{
    version     2.0;
    format      ascii;
    class       volVectorField;
    location    "2.8";
    object      U;
}
// * * * * * * * * * * * * * * * * * * * * * * * * * * * * * * * * * * * * * //

dimensions      [0 1 -1 0 0 0 0];

internalField   nonuniform List<vector> 
24000
(
(0.999994 2.34404e-06 -7.96353e-17)
(0.999945 -2.04507e-05 1.08439e-16)
(0.99986 -6.87424e-05 -1.90665e-16)
(0.999762 -0.000149208 2.10387e-16)
(0.999683 -0.000254889 -1.03794e-15)
(0.999642 -0.000366049 -6.15274e-16)
(0.999651 -0.000458759 6.29895e-16)
(0.999704 -0.000512645 -1.39559e-15)
(0.999794 -0.000500723 4.38088e-16)
(0.999897 -0.00042303 -3.22119e-16)
(0.999994 -0.000131989 -3.1165e-16)
(1.00106 0.00104354 -4.62504e-16)
(0.999987 3.00525e-06 1.16742e-16)
(0.999898 -4.89975e-05 -1.60463e-16)
(0.999747 -0.000145281 3.56281e-16)
(0.999574 -0.000298437 -8.89673e-17)
(0.999437 -0.000495132 4.61961e-16)
(0.999374 -0.000694664 6.2225e-16)
(0.999401 -0.000854937 -3.50421e-16)
(0.999511 -0.000939807 1.4826e-15)
(0.999683 -0.000901733 -3.11078e-16)
(0.999881 -0.000747428 1.59637e-17)
(1 -0.000230216 8.14088e-17)
(1.00197 0.00154768 1.53966e-16)
(0.999986 1.16882e-06 -8.89192e-17)
(0.999906 -6.79143e-05 2.16212e-16)
(0.999772 -0.000174503 -1.23485e-16)
(0.999618 -0.000331761 4.51564e-16)
(0.9995 -0.00052696 2.51604e-16)
(0.999452 -0.000717283 2.31432e-16)
(0.999491 -0.000862127 5.18321e-16)
(0.999605 -0.00093168 -6.59083e-16)
(0.999777 -0.000880303 -3.67813e-16)
(0.999982 -0.000730076 -1.29845e-16)
(1.00003 -0.000250778 -2.90458e-17)
(1.00207 0.00114321 4.87088e-16)
(0.999983 -2.43334e-06 -3.79681e-17)
(0.999917 -8.72687e-05 -2.04569e-16)
(0.999807 -0.000201049 -3.15889e-16)
(0.999681 -0.000356775 -2.23867e-16)
(0.999585 -0.000543956 -1.31117e-16)
(0.999549 -0.000722253 -9.05856e-16)
(0.99959 -0.000854808 -1.43505e-15)
(0.9997 -0.000919274 1.63959e-16)
(0.999861 -0.000872804 4.6947e-17)
(1.00007 -0.000741297 6.45363e-16)
(1.00006 -0.00032987 -4.11937e-16)
(1.00193 0.000764812 -5.69848e-16)
(0.999979 -6.89403e-06 6.76405e-17)
(0.999917 -0.000108836 3.30246e-17)
(0.999816 -0.000236487 1.60086e-16)
(0.999702 -0.000402123 -7.56733e-17)
(0.999616 -0.000596087 2.0793e-16)
(0.999585 -0.000778899 1.87163e-16)
(0.999629 -0.000915003 1.45175e-15)
(0.999742 -0.000984216 -9.48517e-17)
(0.999906 -0.00094285 -2.79818e-16)
(1.00014 -0.000808515 7.60464e-17)
(1.00012 -0.000415788 2.84284e-16)
(1.00179 0.000603402 -1.50902e-16)
(0.999973 -1.16991e-05 3.91429e-18)
(0.999912 -0.000130601 -1.90028e-17)
(0.999817 -0.000273933 -2.13671e-17)
(0.999712 -0.000451392 -3.86869e-18)
(0.999638 -0.000652479 -8.62925e-16)
(0.999617 -0.000837539 1.05598e-15)
(0.999669 -0.000972023 2.93037e-17)
(0.999792 -0.00103631 1.46214e-16)
(0.999964 -0.000986379 6.91587e-16)
(1.00022 -0.000831785 -3.40398e-16)
(1.00022 -0.000433018 5.15874e-16)
(1.00171 0.000569158 3.45702e-16)
(0.999967 -1.67401e-05 -3.54224e-18)
(0.999908 -0.00015181 2.0492e-16)
(0.999821 -0.000309964 -2.07823e-16)
(0.99973 -0.000496653 -1.01332e-16)
(0.999671 -0.000699858 4.43459e-16)
(0.999665 -0.000879961 -2.18142e-16)
(0.99973 -0.00100448 -6.04144e-16)
(0.999864 -0.00105516 -3.13424e-16)
(1.00004 -0.000989721 1.22152e-16)
(1.00032 -0.000816276 6.02023e-16)
(1.00033 -0.000419832 -1.21775e-15)
(1.00168 0.000528243 3.16994e-16)
(0.99996 -2.20299e-05 -5.23211e-17)
(0.999903 -0.000172905 7.93332e-17)
(0.999824 -0.000346058 2.39474e-16)
(0.999746 -0.000542126 4.53349e-16)
(0.999703 -0.000747699 2.41337e-16)
(0.999711 -0.000923722 -2.67788e-16)
(0.999788 -0.00104033 -2.91163e-16)
(0.999932 -0.00108085 -1.3956e-16)
(1.00012 -0.0010052 4.82137e-17)
(1.00041 -0.000823822 -1.30396e-16)
(1.00044 -0.000443587 1.04264e-15)
(1.00166 0.000419867 -5.48112e-16)
(0.999952 -2.75569e-05 2.06003e-17)
(0.999897 -0.000194179 -1.9482e-16)
(0.999824 -0.000383251 1.46148e-17)
(0.999755 -0.0005907 -7.2344e-17)
(0.999723 -0.000802045 7.30049e-17)
(0.999742 -0.000979159 -6.1128e-17)
(0.999828 -0.00109486 5.12166e-17)
(0.999982 -0.00113343 5.58864e-16)
(1.00018 -0.001056 -6.92505e-17)
(1.00048 -0.000874034 -7.8991e-16)
(1.00055 -0.000512869 -8.79588e-16)
(1.00166 0.000274507 9.75131e-16)
(0.999944 -3.33149e-05 7.32146e-17)
(0.99989 -0.000215527 4.86965e-18)
(0.999821 -0.000420808 1.8453e-16)
(0.99976 -0.000640597 -4.83786e-16)
(0.999737 -0.00085943 -1.15457e-16)
(0.999765 -0.00104026 5.22514e-16)
(0.99986 -0.00115866 -4.43818e-16)
(1.00002 -0.00119936 -6.69303e-16)
(1.00023 -0.00112391 2.04985e-16)
(1.00054 -0.000941202 2.05522e-16)
(1.00065 -0.000592945 6.54061e-16)
(1.00169 0.000144868 -1.37905e-16)
(0.999935 -3.93217e-05 -1.0042e-16)
(0.999882 -0.000236801 -2.31221e-17)
(0.999818 -0.000457747 -2.19924e-16)
(0.999764 -0.000689354 3.65893e-17)
(0.999751 -0.000915036 1.67283e-16)
(0.99979 -0.00109872 -3.60595e-16)
(0.999894 -0.0012188 2.70893e-16)
(1.00007 -0.00126038 7.54158e-16)
(1.00028 -0.00118552 -5.62283e-16)
(1.00061 -0.000998121 2.24277e-16)
(1.00076 -0.000655644 -8.47305e-16)
(1.00174 5.08581e-05 -9.03633e-16)
(0.999925 -4.56087e-05 6.51936e-18)
(0.999874 -0.000257976 1.9206e-16)
(0.999817 -0.000493725 -1.92624e-16)
(0.99977 -0.000736188 1.48966e-16)
(0.999767 -0.000967563 -4.57773e-16)
(0.999818 -0.00115244 -2.03947e-16)
(0.999934 -0.00127173 6.63999e-17)
(1.00012 -0.00131112 -3.02879e-16)
(1.00034 -0.00123379 -3.94259e-16)
(1.00069 -0.00103848 3.62966e-16)
(1.00087 -0.000698112 2.85627e-16)
(1.0018 -1.92895e-05 1.00589e-17)
(0.999915 -5.21882e-05 2.45299e-17)
(0.999866 -0.000279087 -1.91932e-17)
(0.999817 -0.000528828 5.30757e-16)
(0.999777 -0.00078144 1.53112e-16)
(0.999785 -0.0010181 2.61668e-16)
(0.999848 -0.00120371 -2.92476e-16)
(0.999977 -0.00132103 -1.47904e-16)
(1.00017 -0.0013564 1.2059e-16)
(1.00041 -0.0012747 4.65652e-16)
(1.00077 -0.00107074 -1.21945e-15)
(1.00097 -0.00073193 -4.8656e-16)
(1.00186 -8.35267e-05 5.41795e-16)
(0.999904 -5.90467e-05 -7.57597e-17)
(0.999858 -0.000300138 -6.74325e-17)
(0.999816 -0.000563162 -4.1947e-16)
(0.999785 -0.000825408 -3.31465e-16)
(0.999802 -0.0010676 -2.32293e-16)
(0.999878 -0.00125476 3.65094e-16)
(1.00002 -0.00137065 2.51045e-16)
(1.00023 -0.00140211 -2.76551e-16)
(1.00048 -0.00131592 -3.71094e-16)
(1.00084 -0.00110429 -1.32929e-16)
(1.00108 -0.000767302 6.90984e-16)
(1.00193 -0.000150135 -4.81443e-16)
(0.999892 -6.61397e-05 4.07796e-17)
(0.99985 -0.000321102 3.22363e-17)
(0.999816 -0.000596759 4.95495e-17)
(0.999792 -0.000868063 7.90583e-17)
(0.99982 -0.00111607 8.21956e-17)
(0.999907 -0.00130594 -1.48287e-16)
(1.00006 -0.00142171 7.77221e-18)
(1.00028 -0.00145038 -3.83054e-16)
(1.00054 -0.00136055 3.62654e-16)
(1.00092 -0.00114246 1.38235e-15)
(1.00118 -0.000806881 -2.05471e-16)
(1.00201 -0.000218111 6.70489e-16)
(0.99988 -7.33981e-05 -3.93757e-17)
(0.999841 -0.000341941 1.48697e-18)
(0.999815 -0.000629656 1.47874e-16)
(0.9998 -0.000909312 2.09112e-16)
(0.999838 -0.00116306 2.31307e-16)
(0.999936 -0.00135633 -1.5028e-16)
(1.0001 -0.00147306 -2.41986e-16)
(1.00033 -0.0015 5.91731e-16)
(1.00061 -0.00140734 1.43284e-16)
(1.001 -0.00118357 -1.48993e-15)
(1.00129 -0.000848326 2.35527e-16)
(1.00209 -0.000283856 2.2229e-17)
(0.999867 -8.07277e-05 9.00933e-17)
(0.999831 -0.000362629 3.31005e-17)
(0.999813 -0.000661981 -3.19622e-16)
(0.999808 -0.000949332 1.37942e-16)
(0.999857 -0.00120845 -5.61454e-17)
(0.999966 -0.00140521 3.67476e-16)
(1.00014 -0.00152335 6.25622e-16)
(1.00039 -0.00154911 1.05337e-16)
(1.00067 -0.00145411 5.10749e-16)
(1.00108 -0.00122512 1.23867e-15)
(1.00139 -0.000889357 1.43293e-15)
(1.00217 -0.000346279 -5.34977e-16)
(0.999853 -8.80137e-05 3.4628e-17)
(0.99982 -0.000383132 -2.7453e-17)
(0.99981 -0.000693921 3.04008e-16)
(0.999816 -0.000988585 -2.77313e-16)
(0.999876 -0.00125277 3.92531e-16)
(0.999996 -0.00145283 4.0343e-18)
(1.00019 -0.00157243 -4.06722e-16)
(1.00044 -0.00159725 1.28241e-16)
(1.00074 -0.00150019 -4.42233e-16)
(1.00116 -0.00126655 -2.16453e-16)
(1.00149 -0.000930028 -5.74749e-16)
(1.00225 -0.000407087 -1.06207e-16)
(0.999838 -9.51263e-05 -4.15277e-17)
(0.999807 -0.000403409 -2.31169e-16)
(0.999806 -0.000725661 -1.26531e-16)
(0.999823 -0.00102767 1.55303e-16)
(0.999894 -0.00129694 -2.82055e-17)
(1.00003 -0.00150027 -2.62098e-16)
(1.00023 -0.00162141 -5.46613e-17)
(1.0005 -0.0016455 -3.37722e-17)
(1.00081 -0.00154672 -5.30856e-16)
(1.00124 -0.00130915 -3.89431e-16)
(1.00159 -0.000971915 -1.72324e-15)
(1.00233 -0.000468229 1.02204e-15)
(0.999822 -0.00010193 -3.95683e-17)
(0.999793 -0.000423393 2.40664e-16)
(0.999799 -0.000757293 -1.71795e-16)
(0.999827 -0.00106706 7.66805e-17)
(0.99991 -0.00134182 -1.88249e-16)
(1.00006 -0.0015487 -4.2647e-16)
(1.00027 -0.00167164 5.41022e-17)
(1.00056 -0.00169536 -6.90775e-17)
(1.00088 -0.00159521 2.87374e-16)
(1.00132 -0.00135432 4.46668e-16)
(1.00169 -0.00101607 1.54216e-15)
(1.00242 -0.00052987 -9.88406e-16)
(0.999806 -0.000108295 2.84608e-17)
(0.999777 -0.000443004 -1.12041e-17)
(0.99979 -0.000788804 2.72428e-17)
(0.999828 -0.00110693 -6.35962e-17)
(0.999924 -0.00138786 -2.36545e-16)
(1.00008 -0.00159881 -9.4657e-18)
(1.00031 -0.00172395 -1.25484e-16)
(1.00061 -0.00174764 -6.7032e-16)
(1.00095 -0.00164631 4.03905e-16)
(1.0014 -0.0014023 2.18755e-16)
(1.00178 -0.00106218 6.52522e-17)
(1.00251 -0.000590791 2.22218e-16)
(0.999788 -0.000114103 3.25544e-17)
(0.99976 -0.000462155 -2.64035e-16)
(0.99978 -0.000820095 5.17011e-16)
(0.999828 -0.00114721 4.92033e-17)
(0.999936 -0.001435 1.43486e-16)
(1.00011 -0.00165059 8.69893e-16)
(1.00035 -0.00177828 7.15448e-16)
(1.00066 -0.00180212 3.62115e-16)
(1.00102 -0.00169953 -9.59581e-16)
(1.00148 -0.00145218 -2.7986e-16)
(1.00188 -0.00110901 9.25732e-17)
(1.0026 -0.000649682 -3.31819e-17)
(0.99977 -0.00011926 -6.10081e-17)
(0.999742 -0.000480778 1.05181e-16)
(0.999768 -0.000851045 -6.97107e-17)
(0.999826 -0.00118769 -8.85362e-17)
(0.999946 -0.00148292 -2.55273e-16)
(1.00013 -0.0017036 -5.05112e-16)
(1.00039 -0.00183405 -2.7456e-16)
(1.00072 -0.00185805 -2.17766e-17)
(1.00108 -0.00175389 2.78101e-16)
(1.00156 -0.00150283 -2.6523e-16)
(1.00198 -0.00115562 -1.56475e-15)
(1.00269 -0.000706359 7.92449e-16)
(0.99975 -0.000123693 4.45441e-17)
(0.999723 -0.000498822 6.34642e-18)
(0.999755 -0.000881566 -1.89709e-16)
(0.999823 -0.00122814 -1.45106e-16)
(0.999955 -0.00153121 -8.05304e-17)
(1.00016 -0.00175732 -1.19041e-16)
(1.00043 -0.00189065 -2.17168e-16)
(1.00077 -0.00191472 -2.31703e-16)
(1.00115 -0.00180869 -6.75507e-17)
(1.00164 -0.00155369 -2.4609e-16)
(1.00208 -0.0012019 9.28826e-17)
(1.00278 -0.000761446 -1.57691e-16)
(0.999729 -0.000127354 1.52687e-17)
(0.999703 -0.000516268 1.49456e-16)
(0.999741 -0.000911633 4.09128e-17)
(0.999819 -0.00126843 -1.57137e-17)
(0.999964 -0.00157964 9.889e-17)
(1.00018 -0.00181143 2.77933e-16)
(1.00046 -0.00194779 1.06992e-16)
(1.00082 -0.00197192 2.67623e-16)
(1.00122 -0.00186388 3.13753e-16)
(1.00172 -0.00160498 -3.06219e-16)
(1.00218 -0.00124857 1.00499e-15)
(1.00288 -0.000815812 -6.22219e-16)
(0.999707 -0.000130216 -2.07047e-17)
(0.999683 -0.000533117 -1.95535e-17)
(0.999727 -0.000941277 -1.47819e-16)
(0.999814 -0.00130855 -9.72992e-17)
(0.999972 -0.00162816 -3.48824e-17)
(1.0002 -0.00186588 -1.79011e-16)
(1.0005 -0.00200545 1.04197e-17)
(1.00088 -0.00202981 -3.11531e-16)
(1.00129 -0.00191983 -2.70689e-17)
(1.0018 -0.00165732 1.05234e-15)
(1.00227 -0.00129645 4.9635e-16)
(1.00297 -0.000870279 5.30846e-17)
(0.999683 -0.000132267 -9.85071e-18)
(0.999661 -0.000549385 -1.14721e-16)
(0.999712 -0.000970568 -5.05586e-17)
(0.999809 -0.00134859 -7.5546e-17)
(0.99998 -0.00167685 5.57777e-16)
(1.00022 -0.00192078 -1.29242e-16)
(1.00054 -0.00206386 1.53866e-16)
(1.00093 -0.00208873 -1.59884e-16)
(1.00136 -0.00197705 -2.55465e-16)
(1.00189 -0.0017113 -2.65361e-16)
(1.00237 -0.00134608 -1.96411e-17)
(1.00307 -0.000925331 -2.01184e-16)
(0.999658 -0.000133508 3.41093e-17)
(0.999639 -0.000565088 -4.08751e-17)
(0.999696 -0.00099958 1.71715e-16)
(0.999803 -0.00138867 3.46704e-16)
(0.999987 -0.00172588 -5.27421e-16)
(1.00024 -0.00197632 4.99246e-16)
(1.00058 -0.00212322 -2.76104e-16)
(1.00098 -0.00214896 -1.44188e-16)
(1.00143 -0.00203586 -1.94264e-16)
(1.00197 -0.00176715 -3.55305e-16)
(1.00247 -0.00139748 -1.50792e-16)
(1.00316 -0.000980672 -1.20721e-16)
(0.999632 -0.000133953 -5.82613e-18)
(0.999615 -0.00058025 -1.56769e-17)
(0.999679 -0.00102837 -1.57907e-17)
(0.999796 -0.00142891 -3.35617e-16)
(0.999993 -0.00177544 -1.44105e-16)
(1.00026 -0.00203269 -1.30537e-17)
(1.00061 -0.00218372 -3.89955e-16)
(1.00104 -0.00221065 7.1878e-16)
(1.0015 -0.00209633 -5.87361e-18)
(1.00205 -0.00182477 2.51005e-16)
(1.00257 -0.00145038 1.7785e-16)
(1.00326 -0.0010357 -5.4335e-18)
(0.999605 -0.000133617 -1.89027e-17)
(0.999591 -0.000594884 1.07942e-16)
(0.99966 -0.00105696 3.21491e-17)
(0.999788 -0.00146935 4.6129e-16)
(0.999998 -0.00182563 2.51759e-16)
(1.00028 -0.00209003 -4.22409e-16)
(1.00065 -0.00224546 1.91818e-16)
(1.00109 -0.00227378 -3.78704e-16)
(1.00157 -0.00215833 1.31136e-15)
(1.00214 -0.00188385 -1.01958e-16)
(1.00266 -0.00150427 2.24342e-17)
(1.00336 -0.00109 -1.40737e-16)
(0.999576 -0.000132529 -1.97243e-17)
(0.999565 -0.000609008 7.541e-17)
(0.999641 -0.00108534 -9.05968e-17)
(0.999778 -0.00151002 -4.47706e-16)
(1 -0.0018765 4.63632e-16)
(1.0003 -0.00214839 2.71241e-16)
(1.00068 -0.00230842 3.43097e-16)
(1.00114 -0.00233826 1.53542e-16)
(1.00164 -0.0022216 -1.08926e-16)
(1.00222 -0.00194396 5.47061e-16)
(1.00276 -0.00155863 -9.9234e-16)
(1.00345 -0.00114331 1.12032e-15)
(0.999546 -0.000130722 2.74845e-17)
(0.999539 -0.000622635 -1.44329e-16)
(0.999621 -0.00111348 -8.42756e-17)
(0.999768 -0.00155085 -2.68534e-17)
(1 -0.00192797 -1.77325e-16)
(1.00032 -0.00220769 -5.0352e-18)
(1.00072 -0.00237249 -2.82035e-16)
(1.00119 -0.00240385 -2.13492e-16)
(1.00171 -0.00228582 -1.20457e-15)
(1.0023 -0.00200468 -3.97647e-16)
(1.00286 -0.001613 -2.55691e-16)
(1.00355 -0.00119544 -3.00339e-17)
(0.999515 -0.00012824 1.05404e-17)
(0.999512 -0.000635792 -1.18661e-17)
(0.9996 -0.00114135 -4.26423e-17)
(0.999757 -0.00159172 3.25714e-16)
(1.00001 -0.00197989 -5.53061e-16)
(1.00034 -0.00226775 -4.10475e-16)
(1.00075 -0.00243746 3.52705e-16)
(1.00124 -0.0024703 -2.33487e-17)
(1.00177 -0.00235064 7.29823e-17)
(1.00239 -0.00206564 4.21449e-16)
(1.00295 -0.00166711 -1.68474e-16)
(1.00365 -0.00124649 3.03735e-16)
(0.999483 -0.000125131 -1.51835e-17)
(0.999484 -0.00064851 1.70184e-16)
(0.999578 -0.00116891 2.88709e-16)
(0.999745 -0.00163252 -9.62003e-17)
(1.00001 -0.00203205 4.35776e-17)
(1.00035 -0.00232833 1.82375e-16)
(1.00079 -0.00250305 -4.21093e-16)
(1.0013 -0.00253731 4.43437e-16)
(1.00184 -0.00241578 3.44826e-16)
(1.00247 -0.00212659 -2.84161e-16)
(1.00305 -0.0017208 3.22533e-18)
(1.00375 -0.00129668 -1.90286e-17)
(0.999449 -0.000121454 -4.29733e-18)
(0.999455 -0.000660842 -2.47236e-16)
(0.999556 -0.00119617 -4.85303e-17)
(0.999732 -0.00167319 5.79771e-17)
(1.00001 -0.00208428 6.52479e-16)
(1.00037 -0.00238919 5.21012e-17)
(1.00082 -0.00256902 3.90989e-16)
(1.00135 -0.00260465 -7.24291e-16)
(1.00191 -0.00248106 3.63796e-16)
(1.00255 -0.00218746 -4.37081e-16)
(1.00315 -0.00177421 9.37788e-16)
(1.00385 -0.00134629 -4.65904e-16)
(0.999414 -0.000117271 2.14806e-17)
(0.999425 -0.000672846 1.09613e-16)
(0.999533 -0.0012232 -1.1642e-16)
(0.999719 -0.00171369 4.79302e-17)
(1.00001 -0.00213649 -3.925e-16)
(1.00039 -0.00245018 -1.38209e-16)
(1.00086 -0.00263522 2.26929e-17)
(1.0014 -0.00267221 5.1901e-16)
(1.00198 -0.00254647 3.1331e-16)
(1.00264 -0.00224838 -2.16348e-17)
(1.00325 -0.00182761 1.23565e-15)
(1.00395 -0.00139587 -6.09529e-16)
(0.999378 -0.000112653 1.44412e-18)
(0.999394 -0.000684598 1.19639e-16)
(0.99951 -0.00125008 1.19533e-16)
(0.999706 -0.00175413 -1.441e-17)
(1.00001 -0.00218871 2.8705e-16)
(1.0004 -0.0025113 3.71229e-16)
(1.00089 -0.00270166 -1.13293e-16)
(1.00145 -0.00274007 5.21379e-16)
(1.00205 -0.00261219 -1.19656e-15)
(1.00272 -0.00230964 -1.32758e-16)
(1.00335 -0.00188137 -1.77876e-15)
(1.00406 -0.00144609 1.40637e-16)
(0.999341 -0.000107667 -6.23018e-17)
(0.999362 -0.00069617 7.44391e-17)
(0.999485 -0.00127695 -2.12734e-17)
(0.999692 -0.00179464 1.55197e-16)
(1.00001 -0.00224109 -2.13728e-16)
(1.00042 -0.0025727 -5.20956e-16)
(1.00092 -0.00276851 -4.00781e-17)
(1.00151 -0.00280845 -3.71631e-16)
(1.00213 -0.00267849 1.27461e-15)
(1.00281 -0.00237158 -4.29489e-17)
(1.00345 -0.00193584 3.81735e-16)
(1.00416 -0.00149724 7.02938e-16)
(0.999303 -0.000102387 1.54933e-17)
(0.999329 -0.000707643 -3.19142e-16)
(0.999459 -0.00130392 1.10001e-16)
(0.999677 -0.00183543 -5.10236e-16)
(1.00001 -0.00229386 2.55312e-16)
(1.00044 -0.00263464 8.45429e-16)
(1.00096 -0.00283603 -2.19234e-16)
(1.00156 -0.00287763 -5.19188e-16)
(1.0022 -0.00274572 -4.05629e-16)
(1.0029 -0.00243453 -8.02179e-17)
(1.00354 -0.00199135 3.95673e-16)
(1.00426 -0.00154924 -6.42778e-16)
(0.999263 -9.68793e-05 3.55325e-17)
(0.999295 -0.000719082 9.27207e-17)
(0.999432 -0.00133114 -3.34059e-16)
(0.999661 -0.00187669 4.62724e-16)
(1.00001 -0.00234729 -6.95796e-16)
(1.00045 -0.00269739 -6.95129e-16)
(1.00099 -0.00290452 2.65032e-16)
(1.00161 -0.00294792 9.32167e-16)
(1.00227 -0.00281412 -5.25167e-16)
(1.00298 -0.0024987 2.11349e-16)
(1.00364 -0.00204802 -1.70748e-16)
(1.00436 -0.00160217 6.02121e-17)
(0.999223 -9.12153e-05 -6.05253e-18)
(0.999259 -0.000730549 2.00113e-16)
(0.999404 -0.00135871 2.66527e-16)
(0.999644 -0.0019186 -3.17284e-16)
(1 -0.00240161 1.54374e-16)
(1.00047 -0.00276123 4.28211e-16)
(1.00103 -0.00297425 1.44017e-16)
(1.00166 -0.00301955 -9.66152e-17)
(1.00234 -0.0028839 7.36161e-16)
(1.00307 -0.00256419 3.74646e-16)
(1.00374 -0.00210582 7.04579e-17)
(1.00446 -0.00165598 6.35318e-17)
(0.999181 -8.5458e-05 1.36067e-17)
(0.999222 -0.000742092 -2.2324e-16)
(0.999374 -0.00138668 -5.89805e-17)
(0.999625 -0.00196128 1.24259e-16)
(0.999999 -0.002457 7.51279e-16)
(1.00048 -0.00282635 -3.85392e-16)
(1.00106 -0.00304539 -3.28379e-16)
(1.00171 -0.00309264 -7.4632e-17)
(1.00241 -0.00295511 -7.28129e-16)
(1.00315 -0.00263097 4.2341e-16)
(1.00384 -0.00216466 -5.89108e-17)
(1.00457 -0.00171055 3.77927e-16)
(0.999138 -7.96754e-05 -1.07967e-17)
(0.999184 -0.000753756 1.39781e-16)
(0.999342 -0.00141511 -9.64537e-17)
(0.999604 -0.00200479 3.6197e-16)
(0.999994 -0.00251354 -7.05783e-16)
(1.00049 -0.00289285 4.95952e-16)
(1.00109 -0.00311801 -4.82557e-17)
(1.00176 -0.00316723 -5.04149e-17)
(1.00248 -0.00302771 7.53429e-16)
(1.00324 -0.00269896 -2.90494e-16)
(1.00394 -0.00222446 -2.37733e-16)
(1.00467 -0.00176553 -9.5455e-17)
(0.999094 -7.39274e-05 1.51973e-18)
(0.999144 -0.000765578 -2.60534e-17)
(0.999309 -0.00144401 1.17531e-16)
(0.999582 -0.00204914 -4.01494e-16)
(0.999987 -0.00257122 3.48464e-16)
(1.0005 -0.0029607 1.1661e-16)
(1.00112 -0.00319208 1.67962e-16)
(1.00181 -0.00324323 -8.77034e-16)
(1.00254 -0.00310159 -3.68003e-16)
(1.00332 -0.00276803 -1.3237e-15)
(1.00404 -0.00228519 -6.91915e-16)
(1.00478 -0.00182091 -7.10254e-16)
(0.99905 -6.82805e-05 -1.97294e-17)
(0.999103 -0.000777595 1.80607e-17)
(0.999275 -0.00147338 -2.20242e-16)
(0.999559 -0.0020943 1.44802e-17)
(0.999979 -0.00263001 -8.85271e-17)
(1.00051 -0.00302984 5.26961e-18)
(1.00115 -0.0032675 3.10292e-16)
(1.00186 -0.00332055 1.18571e-15)
(1.00261 -0.00317665 1.03089e-16)
(1.00341 -0.00283805 8.2614e-16)
(1.00413 -0.00234668 -1.21217e-16)
(1.00488 -0.00187646 1.28903e-15)
(0.999005 -6.2793e-05 1.89825e-17)
(0.999061 -0.000789846 1.09654e-17)
(0.99924 -0.00150324 2.97643e-16)
(0.999535 -0.00214022 -1.74098e-16)
(0.999969 -0.00268981 -2.03873e-16)
(1.00052 -0.00310015 -2.35489e-16)
(1.00118 -0.00334415 -1.42852e-16)
(1.00191 -0.00339905 -4.75417e-16)
(1.00268 -0.00325278 8.55734e-17)
(1.00349 -0.00290898 8.20832e-16)
(1.00423 -0.00240896 7.96696e-16)
(1.00499 -0.00193217 -1.14478e-15)
(0.998959 -5.75289e-05 -1.93801e-17)
(0.999018 -0.000802374 -2.39748e-16)
(0.999203 -0.00153359 -1.27638e-16)
(0.999509 -0.00218689 2.9239e-17)
(0.999959 -0.00275057 5.11088e-16)
(1.00053 -0.00317155 -4.05305e-16)
(1.0012 -0.00342193 -3.61748e-16)
(1.00196 -0.00347866 -4.47222e-16)
(1.00275 -0.00332992 -5.36195e-16)
(1.00358 -0.00298078 -1.77353e-15)
(1.00433 -0.00247228 -5.9299e-16)
(1.00509 -0.00198812 5.80393e-16)
(0.998912 -5.25428e-05 9.69915e-18)
(0.998973 -0.00081522 2.00232e-16)
(0.999166 -0.00156445 6.03926e-17)
(0.999483 -0.0022343 3.72632e-16)
(0.999948 -0.00281224 -5.89908e-16)
(1.00054 -0.00324396 5.75089e-16)
(1.00123 -0.00350077 -6.85963e-18)
(1.00201 -0.00355932 1.0539e-15)
(1.00282 -0.00340807 3.80519e-16)
(1.00366 -0.00305346 2.31288e-15)
(1.00443 -0.00253671 3.29749e-16)
(1.0052 -0.00204431 5.40913e-16)
(0.998864 -4.78939e-05 -1.98025e-17)
(0.998928 -0.000828432 4.30134e-17)
(0.999127 -0.00159587 9.36824e-17)
(0.999456 -0.00228246 -1.4573e-16)
(0.999936 -0.00287481 5.04044e-16)
(1.00054 -0.00331738 -6.06752e-16)
(1.00126 -0.00358066 5.54012e-16)
(1.00206 -0.00364103 -1.42214e-16)
(1.00288 -0.00348722 2.3215e-16)
(1.00374 -0.00312703 -1.68669e-15)
(1.00452 -0.00260196 1.002e-15)
(1.00531 -0.00210037 -1.20712e-15)
(0.998816 -4.36291e-05 2.12997e-17)
(0.998881 -0.000842052 -1.19072e-16)
(0.999088 -0.00162789 -1.7312e-16)
(0.999427 -0.0023314 -1.7117e-16)
(0.999924 -0.0029383 5.22137e-17)
(1.00055 -0.0033918 -1.59742e-16)
(1.00129 -0.0036616 -3.01768e-16)
(1.0021 -0.00372379 -6.6969e-16)
(1.00295 -0.0035674 -2.3987e-16)
(1.00383 -0.0032015 3.9421e-16)
(1.00462 -0.00266795 -9.84292e-16)
(1.00541 -0.00215616 6.97904e-16)
(0.998767 -3.97966e-05 5.13228e-17)
(0.998834 -0.000856123 1.4479e-17)
(0.999047 -0.00166053 -4.60683e-17)
(0.999398 -0.00238115 1.2439e-16)
(0.99991 -0.00300273 -6.88312e-16)
(1.00055 -0.00346725 1.16518e-16)
(1.00131 -0.0037436 5.04953e-16)
(1.00215 -0.00380762 -2.81914e-16)
(1.00302 -0.00364859 9.4708e-17)
(1.00391 -0.00327681 -1.24098e-16)
(1.00472 -0.00273472 2.24669e-16)
(1.00552 -0.00221188 -5.25922e-16)
(0.998718 -3.64301e-05 -3.35028e-17)
(0.998786 -0.000870681 7.35931e-17)
(0.999006 -0.00169384 -1.34669e-16)
(0.999368 -0.00243173 -8.06856e-17)
(0.999896 -0.00306812 5.12058e-16)
(1.00056 -0.00354373 2.118e-16)
(1.00134 -0.00382666 -2.2357e-16)
(1.0022 -0.00389249 4.58612e-16)
(1.00308 -0.00373076 1.50973e-16)
(1.004 -0.00335291 2.97861e-16)
(1.00482 -0.00280215 -3.06798e-16)
(1.00563 -0.00226743 -1.10468e-17)
(0.998667 -3.35633e-05 -5.13083e-17)
(0.998736 -0.000885762 -2.67099e-17)
(0.998964 -0.00172784 1.38828e-16)
(0.999337 -0.00248315 1.22727e-16)
(0.999881 -0.00313448 1.59638e-16)
(1.00056 -0.00362124 4.31838e-16)
(1.00136 -0.00391076 -1.93798e-16)
(1.00224 -0.00397836 -8.64324e-17)
(1.00315 -0.00381382 -1.83166e-16)
(1.00408 -0.00342969 -6.69744e-18)
(1.00492 -0.00286994 6.63682e-18)
(1.00573 -0.0023226 3.84992e-16)
(0.998616 -3.12126e-05 8.63193e-17)
(0.998686 -0.000901393 -1.3999e-17)
(0.99892 -0.00176254 1.60474e-16)
(0.999305 -0.00253542 -7.332e-17)
(0.999865 -0.00320177 -1.40549e-16)
(1.00056 -0.00369973 -5.68544e-16)
(1.00139 -0.00399584 -3.44318e-16)
(1.00229 -0.00406515 2.24196e-16)
(1.00322 -0.00389771 3.5308e-17)
(1.00417 -0.00350709 5.36729e-17)
(1.00501 -0.00293798 8.30273e-17)
(1.00584 -0.00237757 3.44119e-17)
(0.998565 -2.93933e-05 -8.60955e-17)
(0.998634 -0.000917605 1.31764e-16)
(0.998876 -0.00179797 -2.36259e-16)
(0.999273 -0.00258851 1.62596e-16)
(0.999848 -0.00326996 -3.77365e-18)
(1.00057 -0.00377915 3.85977e-16)
(1.00141 -0.00408184 3.36042e-16)
(1.00233 -0.0041528 -2.24415e-16)
(1.00328 -0.00398235 3.69159e-16)
(1.00425 -0.00358507 -2.39204e-16)
(1.00511 -0.00300614 7.14085e-16)
(1.00595 -0.00243247 7.2076e-16)
(0.998513 -2.81033e-05 6.59794e-17)
(0.998581 -0.000934421 -9.53811e-17)
(0.99883 -0.00183413 -4.00831e-17)
(0.999239 -0.00264242 1.21038e-16)
(0.999831 -0.00333903 -1.51939e-16)
(1.00057 -0.00385945 -2.36341e-16)
(1.00143 -0.00416869 3.6098e-16)
(1.00238 -0.00424125 -2.11417e-16)
(1.00335 -0.00406771 -4.49513e-16)
(1.00433 -0.00366363 2.41747e-16)
(1.00521 -0.00307451 -4.09875e-16)
(1.00606 -0.00248768 -5.64668e-16)
(0.998459 -2.73408e-05 2.743e-17)
(0.998528 -0.000951867 -1.01439e-16)
(0.998784 -0.00187104 4.14579e-16)
(0.999204 -0.00269715 -2.02643e-16)
(0.999812 -0.00340894 8.28236e-17)
(1.00057 -0.00394061 -1.92145e-16)
(1.00145 -0.00425637 -4.74397e-16)
(1.00242 -0.0043305 4.12037e-16)
(1.00341 -0.0041538 4.7476e-16)
(1.00442 -0.00374283 -5.99098e-16)
(1.00531 -0.00314325 -2.33667e-16)
(1.00617 -0.00254364 -1.77033e-16)
(0.998405 -2.70871e-05 -7.86224e-17)
(0.998473 -0.00096996 3.0637e-17)
(0.998736 -0.00190871 -1.87652e-16)
(0.999169 -0.00275271 2.568e-17)
(0.999793 -0.00347969 1.14311e-16)
(1.00057 -0.0040226 4.66824e-16)
(1.00148 -0.00434489 5.04901e-18)
(1.00247 -0.00442057 -2.43764e-17)
(1.00348 -0.0042407 -6.52807e-16)
(1.0045 -0.00382279 9.5796e-17)
(1.00541 -0.00321257 -1.34828e-16)
(1.00628 -0.00260057 7.21742e-17)
(0.99835 -2.73255e-05 -1.26951e-17)
(0.998417 -0.000988721 -2.33725e-17)
(0.998688 -0.00194718 -2.73849e-16)
(0.999132 -0.00280912 -5.0048e-17)
(0.999773 -0.00355134 -1.79915e-16)
(1.00057 -0.0041055 -1.30201e-16)
(1.0015 -0.00443431 -1.32788e-16)
(1.00251 -0.00451156 1.63156e-16)
(1.00354 -0.00432852 1.83606e-16)
(1.00459 -0.00390364 3.14051e-16)
(1.00551 -0.00328263 4.42401e-16)
(1.00639 -0.00265837 -2.28267e-16)
(0.998294 -2.80243e-05 3.07003e-17)
(0.998359 -0.00100816 1.59578e-17)
(0.998638 -0.00198646 2.61459e-16)
(0.999095 -0.00286643 -5.25374e-17)
(0.999753 -0.00362392 -9.69426e-17)
(1.00057 -0.00418935 -1.49399e-16)
(1.00152 -0.00452474 4.43087e-16)
(1.00255 -0.0046036 -2.97138e-16)
(1.00361 -0.00441741 1.04965e-16)
(1.00467 -0.00398555 4.09047e-16)
(1.00561 -0.0033536 -2.60045e-16)
(1.0065 -0.00271728 -4.0615e-17)
(0.998237 -2.91572e-05 -4.19767e-17)
(0.998301 -0.00102827 4.34361e-17)
(0.998587 -0.00202659 8.91123e-17)
(0.999056 -0.00292467 1.89888e-16)
(0.999731 -0.0036975 3.42227e-16)
(1.00057 -0.00427427 -2.54768e-16)
(1.00154 -0.00461628 -1.6898e-16)
(1.00259 -0.0046968 1.78177e-17)
(1.00367 -0.00450748 -3.11548e-16)
(1.00475 -0.00406862 -4.48301e-16)
(1.00571 -0.00342565 5.96915e-16)
(1.00661 -0.0027774 2.49573e-16)
(0.998179 -3.06845e-05 6.75609e-17)
(0.998241 -0.00104906 8.25545e-17)
(0.998534 -0.00206755 -8.46479e-17)
(0.999016 -0.00298387 -1.72196e-16)
(0.999707 -0.00377215 4.47908e-17)
(1.00056 -0.00436033 4.17141e-16)
(1.00156 -0.00470904 -2.97796e-16)
(1.00264 -0.00479128 -1.07584e-17)
(1.00374 -0.00459885 3.97594e-16)
(1.00484 -0.00415294 -3.89622e-16)
(1.00581 -0.00349895 -5.06871e-16)
(1.00672 -0.00283877 -1.29544e-16)
(0.998119 -3.25738e-05 8.35862e-18)
(0.99818 -0.0010705 8.45265e-18)
(0.99848 -0.00210936 -2.78522e-16)
(0.998974 -0.00304407 -2.2722e-16)
(0.999683 -0.00384792 -3.82363e-16)
(1.00056 -0.00444761 5.20858e-17)
(1.00158 -0.00480312 8.54104e-17)
(1.00268 -0.00488713 -5.94323e-17)
(1.0038 -0.00469159 -3.26624e-16)
(1.00492 -0.00423855 7.31765e-16)
(1.00591 -0.00357338 3.78761e-16)
(1.00683 -0.00290111 -1.16555e-16)
(0.998057 -3.4781e-05 -3.96857e-17)
(0.998117 -0.00109257 -7.73639e-17)
(0.998425 -0.00215199 3.71295e-16)
(0.998931 -0.00310525 3.3824e-16)
(0.999657 -0.00392482 -7.4386e-18)
(1.00055 -0.00453616 7.2393e-17)
(1.00159 -0.00489856 -1.12401e-16)
(1.00272 -0.00498441 8.25925e-17)
(1.00386 -0.00478574 3.47709e-16)
(1.005 -0.00432546 -1.80684e-16)
(1.00601 -0.00364898 1.28642e-16)
(1.00694 -0.00296423 2.16493e-16)
(0.997994 -3.72716e-05 -2.48324e-18)
(0.998053 -0.00111524 5.35283e-17)
(0.998368 -0.00219543 -1.62558e-16)
(0.998887 -0.0031674 -3.19683e-16)
(0.99963 -0.00400285 1.93632e-16)
(1.00055 -0.00462599 -4.44143e-16)
(1.00161 -0.00499537 1.31254e-16)
(1.00276 -0.00508309 -1.94936e-16)
(1.00393 -0.00488125 3.08218e-17)
(1.00509 -0.00441362 1.85322e-16)
(1.00611 -0.00372592 -1.59576e-16)
(1.00706 -0.00302806 -4.82461e-16)
(0.99793 -3.99998e-05 2.2941e-17)
(0.997988 -0.00113847 -1.48624e-16)
(0.99831 -0.00223962 1.66798e-16)
(0.998841 -0.00323048 2.80212e-16)
(0.999602 -0.00408198 -3.60448e-16)
(1.00054 -0.00471706 -3.05089e-17)
(1.00163 -0.00509353 2.19465e-16)
(1.0028 -0.00518317 -2.64885e-16)
(1.00399 -0.00497813 -3.20917e-16)
(1.00517 -0.004503 9.07571e-17)
(1.00621 -0.00380425 -2.78034e-16)
(1.00717 -0.00309259 4.24918e-16)
(0.997863 -4.29309e-05 1.50757e-17)
(0.997921 -0.00116222 7.83334e-17)
(0.99825 -0.00228454 -7.73923e-17)
(0.998794 -0.00329445 2.36135e-16)
(0.999572 -0.00416217 1.75169e-16)
(1.00053 -0.00480935 1.47538e-16)
(1.00164 -0.00519302 -2.48159e-16)
(1.00284 -0.00528461 3.782e-16)
(1.00405 -0.00507632 -3.36409e-18)
(1.00526 -0.00459355 -7.19503e-16)
(1.00632 -0.00388366 1.37543e-16)
(1.00729 -0.00315744 -2.67402e-17)
(0.997795 -4.60189e-05 -2.40327e-17)
(0.997853 -0.00118646 8.09193e-17)
(0.998189 -0.00233012 -2.69617e-16)
(0.998745 -0.00335926 -1.97831e-16)
(0.999541 -0.00424338 4.02771e-17)
(1.00052 -0.00490281 1.55139e-16)
(1.00165 -0.00529379 2.59213e-16)
(1.00288 -0.00538738 3.53774e-17)
(1.00412 -0.00517582 2.80273e-17)
(1.00534 -0.00468529 4.79105e-16)
(1.00642 -0.00396409 1.45709e-16)
(1.0074 -0.00322255 -2.31998e-16)
(0.997725 -4.92309e-05 -1.89964e-17)
(0.997783 -0.00121114 -2.24535e-17)
(0.998126 -0.00237635 2.85774e-16)
(0.998695 -0.00342487 4.56676e-18)
(0.999509 -0.00432556 2.4631e-16)
(1.00051 -0.00499741 -2.32243e-16)
(1.00167 -0.0053958 -1.52033e-16)
(1.00291 -0.00549143 -4.51669e-17)
(1.00418 -0.00527659 5.44426e-18)
(1.00542 -0.00477814 2.91041e-16)
(1.00652 -0.00404563 -4.5344e-16)
(1.00752 -0.00328826 -2.6677e-16)
(0.997654 -5.25227e-05 5.18017e-18)
(0.997712 -0.00123623 -7.88773e-17)
(0.998062 -0.00242317 -2.76437e-16)
(0.998644 -0.00349124 4.92933e-17)
(0.999475 -0.00440868 2.30311e-17)
(1.0005 -0.00509311 2.92794e-18)
(1.00168 -0.00549904 -8.03325e-17)
(1.00295 -0.00559678 3.49282e-16)
(1.00424 -0.00537864 3.82942e-16)
(1.00551 -0.00487217 -2.54653e-16)
(1.00663 -0.00412829 6.86869e-16)