1.45 	0 	0 	-0.303734
2.35 	0 	0 	-0.134602
