1.45 	0 	0 	-0.00707831 	-0.00263533 	3.88062e-21
2.35 	0 	0 	0.0642354 	-0.00672506 	2.41077e-21
