1.45 	0 	0 	-0.301699
2.35 	0 	0 	-0.13417
