1.45 	0 	0 	-0.142561
2.35 	0 	0 	0.0107405
