1.45 	0 	0 	-0.00793891 	-0.00257862 	3.80167e-21
2.35 	0 	0 	0.0617128 	-0.0066441 	2.31253e-21
