1.45 	0 	0 	-0.299013
2.35 	0 	0 	-0.132798
