1.275 	2.15223e-18 	-2.76991e-20 	-0.034089 	-0.000443719 	-1.98099e-22
1.825 	2.15223e-18 	-1.39322e-20 	-0.00878399 	-0.00276884 	1.77784e-21
2.375 	2.15223e-18 	-2.66896e-23 	0.117245 	-0.00326707 	-7.42148e-22
