1.275 	2.15223e-18 	-2.76991e-20 	-0.0339145 	-0.000442105 	-1.99313e-22
1.825 	2.15223e-18 	-1.39322e-20 	-0.00846971 	-0.00278622 	1.79163e-21
2.375 	2.15223e-18 	-2.66896e-23 	0.118116 	-0.00330903 	-7.47768e-22
