/*--------------------------------*- C++ -*----------------------------------*\
  =========                 |
  \\      /  F ield         | OpenFOAM: The Open Source CFD Toolbox
   \\    /   O peration     | Website:  https://openfoam.org
    \\  /    A nd           | Version:  6.0
     \\/     M anipulation  |
\*---------------------------------------------------------------------------*/
FoamFile
{
    version     2.0;
    format      ascii;
    class       surfaceScalarField;
    location    "21";
    object      phi;
}
// * * * * * * * * * * * * * * * * * * * * * * * * * * * * * * * * * * * * * //

dimensions      [0 3 -1 0 0 0 0];

internalField   nonuniform List<scalar> 
3880
(
-1.79839e-05
1.7984e-05
-1.20341e-10
-5.35309e-05
3.55473e-05
-2.8671e-10
-9.54603e-05
4.19297e-05
-3.69679e-10
-0.0001367
4.12404e-05
-3.96684e-10
-0.000172886
3.61857e-05
-3.82184e-10
-0.000201602
2.8717e-05
-3.35001e-10
-0.000221918
2.03159e-05
-2.59277e-10
-0.000234074
1.21567e-05
-1.57526e-10
-0.000239283
5.20821e-06
-3.40024e-11
2.36457e-07
1.22824e-10
-0.000239519
-1.73084e-05
3.52924e-05
-5.08919e-05
6.91307e-05
-8.97066e-05
8.07445e-05
-0.000126793
7.83264e-05
-0.000157825
6.7218e-05
-0.000180355
5.1247e-05
-0.000193362
3.33233e-05
-0.000196989
1.57831e-05
-0.000192389
6.08431e-07
-1.05789e-05
-0.000181574
-1.59219e-05
5.12143e-05
-4.54963e-05
9.87052e-05
-7.79942e-05
0.000113242
-0.000106723
0.000107056
-0.000127483
8.7978e-05
-0.000137792
6.1556e-05
-0.000136471
3.20015e-05
-0.00012345
2.76299e-06
-9.97488e-05
-2.30932e-05
-4.28994e-05
-6.74283e-05
-1.37363e-05
6.49506e-05
-3.70602e-05
0.000122029
-5.98108e-05
0.000135993
-7.58026e-05
0.000123048
-8.11337e-05
9.33091e-05
-7.33748e-05
5.37971e-05
-5.11692e-05
9.79588e-06
-1.41302e-05
-3.4276e-05
3.69968e-05
-7.42202e-05
-0.00010603
0.000100128
-1.05873e-05
7.55379e-05
-2.5062e-05
0.000136504
-3.41801e-05
0.000145111
-3.26032e-05
0.000121471
-1.70357e-05
7.77416e-05
1.46598e-05
2.21016e-05
6.39037e-05
-3.9448e-05
0.000131465
-0.000101838
0.000217071
-0.000159826
-0.000207695
0.000318735
-6.2217e-06
8.17596e-05
-8.7077e-06
0.00013899
4.45339e-07
0.000135958
2.53109e-05
9.66051e-05
6.81246e-05
3.49279e-05
0.000130262
-4.00362e-05
0.000212823
-0.000122009
0.000316831
-0.000205845
0.000442724
-0.000285719
-0.000353758
0.000588787
-3.25485e-07
8.20851e-05
1.29857e-05
0.000125679
4.60724e-05
0.000102871
0.000101353
4.1324e-05
0.000179481
-4.31995e-05
0.000280351
-0.000140906
0.000403896
-0.000245553
0.000550695
-0.000352644
0.000721866
-0.000456891
-0.000548435
0.000916543
7.38736e-06
7.46978e-05
4.09086e-05
9.21574e-05
0.000104643
3.91366e-05
0.000199184
-5.32166e-05
0.000323235
-0.000167251
0.000474424
-0.000292095
0.000650147
-0.000421276
0.000848724
-0.000551221
0.00107067
-0.000678836
-0.000797258
0.00131949
1.70266e-05
5.76712e-05
7.53813e-05
3.38027e-05
0.000177064
-6.25463e-05
0.000321155
-0.000197308
0.000504694
-0.00035079
0.000722903
-0.000510304
0.000969501
-0.000667874
0.00123771
-0.000819427
0.00152381
-0.000964941
-0.00111536
0.00184191
2.83272e-05
2.9344e-05
0.000115491
-5.33612e-05
0.000261703
-0.000208758
0.000465556
-0.00040116
0.000724246
-0.00060948
0.00103328
-0.000819341
0.00138585
-0.00102044
0.00177118
-0.00120476
0.00217365
-0.00136741
-0.00151204
0.00257033
4.04732e-05
-1.11292e-05
0.00015838
-0.000171268
0.000352117
-0.000402495
0.000620423
-0.000669466
0.000962679
-0.000951736
0.00137958
-0.00123624
0.00187438
-0.00151524
0.00245612
-0.00178649
0.00314752
-0.00205881
-0.00237031
0.0040058
5.23783e-05
-6.35076e-05
0.000200035
-0.000318925
0.000438197
-0.000640657
0.000763361
-0.00099463
0.00117286
-0.00136123
0.00166484
-0.00172823
0.00223825
-0.00208865
0.00289222
-0.00244047
0.00362129
-0.00278789
-0.00314021
0.00439119
6.35211e-05
-0.000127029
0.000238396
-0.0004938
0.000515191
-0.000917452
0.000885905
-0.00136534
0.00134278
-0.00181811
0.0018777
-0.00226315
0.00248147
-0.00269242
0.00314229
-0.00310129
0.00384161
-0.00348721
-0.00384428
0.00454567
7.39219e-05
-0.000200951
0.000273186
-0.000693064
0.000582557
-0.00122682
0.000988254
-0.00177104
0.0014764
-0.00230626
0.00203239
-0.00281914
0.00264043
-0.00330046
0.00328278
-0.00374363
0.00393815
-0.00414258
-0.00448628
0.00458016
8.37258e-05
-0.000284676
0.000304556
-0.000913894
0.000640571
-0.00156284
0.00107159
-0.00220206
0.00157758
-0.00281225
0.00213834
-0.0033799
0.00273366
-0.00389577
0.00334339
-0.00435337
0.00394739
-0.00474657
-0.00506464
0.00452574
9.29235e-05
-0.0003776
0.000332248
-0.00115322
0.000688668
-0.00191926
0.00113537
-0.00264876
0.00164661
-0.00332349
0.00219782
-0.00393111
0.00276626
-0.00446421
0.00333161
-0.00491872
0.00387639
-0.00529135
-0.00557496
0.00438671
0.000101272
-0.000478872
0.000355384
-0.00140733
0.00072514
-0.00228902
0.00117721
-0.00310084
0.00168091
-0.00382718
0.00220868
-0.00445888
0.002737
-0.00499253
0.003247
-0.00542872
0.00372483
-0.00576919
-0.00601244
0.0041623
0.000108341
-0.000587212
0.000372617
-0.00167161
0.000747562
-0.00266396
0.00119382
-0.0035471
0.00167687
-0.00431023
0.00216774
-0.00494975
0.00264374
-0.00546853
0.0030888
-0.00587377
0.0034933
-0.00617369
-0.00637348
0.00385435
0.000113604
-0.000700816
0.000382428
-0.00194043
0.000753415
-0.00303495
0.00118211
-0.00397579
0.00163162
-0.00475974
0.00207319
-0.00539132
0.00248648
-0.00588182
0.00285916
-0.00624645
0.00318613
-0.00650066
-0.00665649
0.00346914
0.00011653
-0.000817347
0.000383401
-0.0022073
0.000740607
-0.00339215
0.00113999
-0.00437517
0.00154398
-0.00516374
0.00192569
-0.00577303
0.00226829
-0.00622443
0.0025638
-0.00654195
0.00281148
-0.00674835
-0.0068619
0.00301689
0.000116653
-0.000934
0.000374427
-0.00246508
0.000707818
-0.00372554
0.00106676
-0.00473411
0.00141483
-0.00551181
0.00172844
-0.00608664
0.00199512
-0.00649111
0.00221134
-0.00675816
0.00238027
-0.00691728
-0.00699192
0.00251029
0.000113569
-0.00104757
0.000354738
-0.00270625
0.000654536
-0.00402534
0.000963067
-0.00504264
0.00124684
-0.00579559
0.00148669
-0.00632648
0.00167488
-0.00667931
0.00181208
-0.00689536
0.00190464
-0.00700983
-0.00705005
0.00196276
0.000107018
-0.00115459
0.000324051
-0.00292328
0.000581181
-0.00428247
0.000830899
-0.00529235
0.00104421
-0.00600891
0.00120712
-0.00648939
0.00131661
-0.00678879
0.00137694
-0.0069557
0.00139679
-0.00702968
-0.00704057
0.00138731
9.68544e-05
-0.00125144
0.000282487
-0.00310891
0.000488907
-0.00448889
0.000673162
-0.00547661
0.00081202
-0.00614776
0.000896991
-0.00657436
0.000929404
-0.00682121
0.000916348
-0.00694264
0.000867913
-0.00698124
-0.00696816
0.000795504
8.30595e-05
-0.0013345
0.000230567
-0.00325642
0.000379486
-0.00463781
0.000493391
-0.00559052
0.000555703
-0.00621007
0.00056345
-0.00658211
0.000521703
-0.00677946
0.000439498
-0.00686044
0.000327517
-0.00686926
-0.00683754
0.000196899
6.5752e-05
-0.00140025
0.000169178
-0.00335984
0.000255179
-0.00472381
0.000295485
-0.00563082
0.000280669
-0.00619526
0.000213026
-0.00651446
0.000100692
-0.00666712
-4.61883e-05
-0.00671356
-0.000217099
-0.00669835
-0.00665327
-0.000401374
4.52037e-05
-0.00144546
9.95854e-05
-0.00341423
0.000118703
-0.00474293
8.36044e-05
-0.00559572
-7.86105e-06
-0.00610379
-0.000148568
-0.00637376
-0.000327927
-0.00648777
-0.000535353
-0.00650613
-0.000761123
-0.00647258
-0.00641909
-0.000995304
2.18666e-05
-0.00146732
2.34665e-05
-0.00341583
-2.67465e-05
-0.00469272
-0.000137775
-0.00548469
-0.000304769
-0.0059368
-0.000516317
-0.00616221
-0.000759838
-0.00624424
-0.0010247
-0.00624127
-0.00130251
-0.00619477
-0.00613539
-0.00158621
-3.58611e-06
-0.00146374
-5.70136e-05
-0.0033624
-0.000177367
-0.00457236
-0.000363705
-0.00529836
-0.000604933
-0.00569557
-0.000886144
-0.005881
-0.0011931
-0.00593729
-0.00151501
-0.00591935
-0.00184502
-0.00586476
-0.00579544
-0.00218498
-3.01965e-05
-0.00143354
-0.000139024
-0.00325357
-0.000328293
-0.00438309
-0.000587786
-0.00503886
-0.000901666
-0.00538169
-0.00125332
-0.00552935
-0.00162819
-0.00556241
-0.00201588
-0.00553167
-0.00241267
-0.00546798
-0.00540439
-0.00280371
-5.6727e-05
-0.00137681
-0.000219035
-0.00309126
-0.000473097
-0.00412903
-0.00080007
-0.00471189
-0.00118081
-0.00500095
-0.0015994
-0.00511076
-0.00204456
-0.00511725
-0.00250911
-0.00506712
-0.00299183
-0.00498525
-0.00487049
-0.00352572
-8.20978e-05
-0.00129472
-0.000293994
-0.00287937
-0.000606014
-0.00381701
-0.000990411
-0.00432749
-0.00142363
-0.00456773
-0.00188762
-0.00464677
-0.0023694
-0.00463547
-0.00285993
-0.00457658
-0.0033529
-0.00449229
-0.00439067
-0.00383272
-0.000105673
-0.00118904
-0.000362527
-0.00262251
-0.000725697
-0.00345384
-0.00115915
-0.00389404
-0.00163536
-0.00409152
-0.0021346
-0.00414753
-0.00264341
-0.00412665
-0.00315278
-0.00406722
-0.00365551
-0.00398956
-0.0039041
-0.00414208
-0.000127112
-0.00106193
-0.000424058
-0.00232557
-0.000832065
-0.00304583
-0.00130792
-0.00341818
-0.00182107
-0.00357838
-0.00235104
-0.00361756
-0.00288474
-0.00359294
-0.00341402
-0.00353794
-0.00393328
-0.0034703
-0.00339939
-0.00443799
-0.000146158
-0.000915773
-0.000478164
-0.00199356
-0.000924958
-0.00259904
-0.00143733
-0.00290581
-0.00198252
-0.00303319
-0.00253989
-0.00306019
-0.00309715
-0.00303568
-0.00364729
-0.0029878
-0.00418634
-0.00293125
-0.00287372
-0.00471201
-0.000162565
-0.000753208
-0.000524396
-0.00163173
-0.00100395
-0.00211948
-0.00154716
-0.0023626
-0.00211969
-0.00246066
-0.00270104
-0.00247884
-0.00327975
-0.00245697
-0.00384991
-0.00241764
-0.00440871
-0.00237245
-0.0023274
-0.00495503
-0.000176085
-0.000577123
-0.000562248
-0.00124557
-0.00106841
-0.00161332
-0.00163669
-0.00179433
-0.00223165
-0.0018657
-0.00283303
-0.00187746
-0.00343014
-0.00185986
-0.0040179
-0.00182988
-0.00459428
-0.00179607
-0.00176282
-0.00515886
-0.000186479
-0.000390644
-0.000591203
-0.000840843
-0.0011176
-0.00108692
-0.00170496
-0.00120697
-0.00231712
-0.00125354
-0.00293406
-0.00126052
-0.00354566
-0.00124826
-0.00414747
-0.00122807
-0.00473796
-0.00120558
-0.00118366
-0.00531711
-0.000193537
-0.000197107
-0.000610799
-0.000423582
-0.00115083
-0.000546893
-0.00175107
-0.000606727
-0.00237489
-0.000629714
-0.00300246
-0.000632954
-0.00362404
-0.000626675
-0.00423559
-0.000616526
-0.00483587
-0.000605297
-0.000594411
-0.00542513
-0.000197107
-6.27151e-11
-0.000620688
-1.51838e-10
-0.00116758
-1.77968e-10
-0.00177431
-1.69233e-10
-0.00240402
-1.40418e-10
-0.00303698
-1.00977e-10
-0.00366365
-5.69871e-11
-0.00428018
-1.20359e-11
-0.00488547
3.11097e-11
7.73563e-11
-0.00547988
-0.000197107
0.000197107
-0.000620688
0.000423581
-0.00116758
0.000546892
-0.00177431
0.000606727
-0.00240402
0.000629713
-0.00303698
0.000632954
-0.00366365
0.000626675
-0.00428018
0.000616526
-0.00488547
0.000605297
0.000594411
-0.00547988
-0.000193537
0.000390644
-0.000610799
0.000840843
-0.00115083
0.00108692
-0.00175107
0.00120697
-0.00237489
0.00125354
-0.00300246
0.00126052
-0.00362404
0.00124826
-0.00423559
0.00122807
-0.00483587
0.00120558
0.00118366
-0.00542513
-0.000186479
0.000577123
-0.000591203
0.00124557
-0.0011176
0.00161332
-0.00170496
0.00179433
-0.00231712
0.0018657
-0.00293406
0.00187746
-0.00354566
0.00185986
-0.00414747
0.00182988
-0.00473796
0.00179607
0.00176282
-0.00531711
-0.000176085
0.000753208
-0.000562248
0.00163173
-0.00106841
0.00211948
-0.00163669
0.0023626
-0.00223165
0.00246066
-0.00283303
0.00247884
-0.00343014
0.00245697
-0.0040179
0.00241764
-0.00459428
0.00237245
0.0023274
-0.00515886
-0.000162565
0.000915773
-0.000524396
0.00199356
-0.00100395
0.00259904
-0.00154716
0.00290581
-0.00211969
0.00303319
-0.00270104
0.00306019
-0.00327975
0.00303568
-0.00384991
0.0029878
-0.00440871
0.00293125
0.00287372
-0.00495503
-0.000146158
0.00106193
-0.000478164
0.00232557
-0.000924958
0.00304583
-0.00143733
0.00341818
-0.00198252
0.00357838
-0.00253989
0.00361756
-0.00309715
0.00359294
-0.00364729
0.00353794
-0.00418634
0.0034703
0.00339939
-0.00471201
-0.000127112
0.00118904
-0.000424058
0.00262251
-0.000832065
0.00345384
-0.00130792
0.00389404
-0.00182107
0.00409152
-0.00235104
0.00414753
-0.00288474
0.00412665
-0.00341402
0.00406722
-0.00393328
0.00398956
0.0039041
-0.00443799
-0.000105673
0.00129472
-0.000362527
0.00287937
-0.000725697
0.00381701
-0.00115915
0.00432749
-0.00163536
0.00456773
-0.0021346
0.00464677
-0.00264341
0.00463547
-0.00315278
0.00457658
-0.00365551
0.00449229
0.00439067
-0.00414208
-8.20978e-05
0.00137681
-0.000293994
0.00309126
-0.000606014
0.00412903
-0.000990411
0.00471189
-0.00142363
0.00500095
-0.00188762
0.00511076
-0.0023694
0.00511725
-0.00285993
0.00506712
-0.0033529
0.00498525
0.00487049
-0.00383272
-5.6727e-05
0.00143354
-0.000219035
0.00325357
-0.000473097
0.00438309
-0.00080007
0.00503886
-0.00118081
0.00538169
-0.0015994
0.00552935
-0.00204456
0.00556241
-0.00250911
0.00553167
-0.00299183
0.00546798
0.00540439
-0.00352573
-3.01965e-05
0.00146374
-0.000139024
0.0033624
-0.000328293
0.00457236
-0.000587786
0.00529836
-0.000901666
0.00569557
-0.00125332
0.005881
-0.00162819
0.00593729
-0.00201588
0.00591935
-0.00241267
0.00586476
0.00579544
-0.00280371
-3.58613e-06
0.00146732
-5.70136e-05
0.00341583
-0.000177367
0.00469272
-0.000363706
0.00548469
-0.000604933
0.0059368
-0.000886144
0.00616221
-0.0011931
0.00624424
-0.00151501
0.00624127
-0.00184502
0.00619477
0.00613539
-0.00218498
2.18666e-05
0.00144546
2.34664e-05
0.00341423
-2.67466e-05
0.00474293
-0.000137775
0.00559572
-0.000304769
0.00610379
-0.000516317
0.00637376
-0.000759838
0.00648777
-0.0010247
0.00650613
-0.00130251
0.00647258
0.00641909
-0.00158621
4.52036e-05
0.00140025
9.95853e-05
0.00335984
0.000118703
0.00472381
8.36042e-05
0.00563082
-7.8613e-06
0.00619526
-0.000148569
0.00651446
-0.000327927
0.00666712
-0.000535354
0.00671356
-0.000761124
0.00669835
0.00665327
-0.000995304
6.5752e-05
0.0013345
0.000169178
0.00325642
0.000255179
0.00463781
0.000295484
0.00559052
0.000280669
0.00621007
0.000213026
0.00658211
0.000100691
0.00677946
-4.61888e-05
0.00686044
-0.0002171
0.00686926
0.00683754
-0.000401374
8.30595e-05
0.00125144
0.000230567
0.00310891
0.000379485
0.00448889
0.000493391
0.00547661
0.000555702
0.00614776
0.00056345
0.00657436
0.000521702
0.00682121
0.000439498
0.00694264
0.000327517
0.00698124
0.00696816
0.000196899
9.68544e-05
0.00115459
0.000282487
0.00292328
0.000488907
0.00428247
0.000673162
0.00529235
0.000812019
0.00600891
0.00089699
0.00648939
0.000929403
0.00678879
0.000916347
0.0069557
0.000867913
0.00702968
0.00704057
0.000795503
0.000107018
0.00104757
0.000324051
0.00270625
0.000581181
0.00402534
0.000830899
0.00504264
0.00104421
0.00579559
0.00120712
0.00632648
0.00131661
0.00667931
0.00137694
0.00689536
0.00139679
0.00700983
0.00705005
0.00138731
0.000113569
0.000934
0.000354738
0.00246508
0.000654536
0.00372554
0.000963066
0.00473411
0.00124684
0.00551181
0.00148669
0.00608664
0.00167488
0.00649111
0.00181208
0.00675816
0.00190463
0.00691728
0.00699192
0.00196276
0.000116653
0.000817347
0.000374427
0.0022073
0.000707818
0.00339215
0.00106675
0.00437517
0.00141483
0.00516374
0.00172844
0.00577303
0.00199512
0.00622443
0.00221134
0.00654195
0.00238027
0.00674835
0.0068619
0.00251029
0.00011653
0.000700816
0.000383401
0.00194043
0.000740607
0.00303495
0.00113999
0.00397579
0.00154398
0.00475974
0.00192569
0.00539132
0.00226829
0.00588182
0.00256379
0.00624645
0.00281148
0.00650066
0.00665649
0.00301689
0.000113604
0.000587212
0.000382428
0.00167161
0.000753414
0.00266396
0.00118211
0.0035471
0.00163162
0.00431023
0.00207319
0.00494975
0.00248648
0.00546853
0.00285916
0.00587377
0.00318613
0.00617369
0.00637348
0.00346914
0.00010834
0.000478872
0.000372617
0.00140733
0.000747562
0.00228902
0.00119382
0.00310084
0.00167687
0.00382718
0.00216774
0.00445888
0.00264374
0.00499253
0.0030888
0.00542872
0.0034933
0.00576919
0.00601244
0.00385435
0.000101272
0.0003776
0.000355384
0.00115322
0.00072514
0.00191926
0.00117721
0.00264876
0.00168091
0.00332349
0.00220868
0.00393111
0.00273699
0.00446421
0.003247
0.00491872
0.00372483
0.00529135
0.00557496
0.0041623
9.29235e-05
0.000284676
0.000332248
0.000913894
0.000688668
0.00156284
0.00113537
0.00220206
0.00164661
0.00281225
0.00219782
0.0033799
0.00276626
0.00389577
0.00333161
0.00435337
0.00387638
0.00474657
0.00506464
0.0043867
8.37257e-05
0.000200951
0.000304556
0.000693064
0.000640571
0.00122682
0.00107159
0.00177104
0.00157758
0.00230626
0.00213834
0.00281914
0.00273366
0.00330046
0.00334339
0.00374363
0.00394738
0.00414258
0.00448629
0.00452574
7.39219e-05
0.000127029
0.000273186
0.0004938
0.000582557
0.000917453
0.000988253
0.00136534
0.0014764
0.00181811
0.00203239
0.00226315
0.00264043
0.00269242
0.00328278
0.00310129
0.00393815
0.00348721
0.00384428
0.00458016
6.35211e-05
6.35077e-05
0.000238396
0.000318925
0.000515191
0.000640658
0.000885905
0.000994631
0.00134278
0.00136123
0.0018777
0.00172823
0.00248147
0.00208865
0.00314229
0.00244047
0.00384161
0.00278789
0.00314021
0.00454567
5.23783e-05
1.11294e-05
0.000200035
0.000171268
0.000438197
0.000402496
0.000763361
0.000669467
0.00117286
0.000951737
0.00166484
0.00123625
0.00223825
0.00151524
0.00289222
0.0017865
0.00362129
0.00205882
0.00237031
0.00439119
4.04732e-05
-2.93438e-05
0.00015838
5.33617e-05
0.000352117
0.000208759
0.000620422
0.000401161
0.000962679
0.00060948
0.00137958
0.000819342
0.00187438
0.00102044
0.00245612
0.00120476
0.00314752
0.00136741
0.00151204
0.0040058
2.83272e-05
-5.7671e-05
0.000115491
-3.38022e-05
0.000261703
6.2547e-05
0.000465556
0.000197308
0.000724245
0.000350791
0.00103328
0.000510305
0.00138585
0.000667875
0.00177118
0.000819428
0.00217365
0.000964941
0.00111536
0.00257033
1.70266e-05
-7.46976e-05
7.53812e-05
-9.21569e-05
0.000177064
-3.91358e-05
0.000321155
5.32174e-05
0.000504694
0.000167252
0.000722903
0.000292096
0.000969501
0.000421277
0.00123771
0.000551222
0.00152381
0.000678836
0.000797259
0.00184191
7.38735e-06
-8.20849e-05
4.09086e-05
-0.000125678
0.000104643
-0.00010287
0.000199184
-4.13231e-05
0.000323235
4.32005e-05
0.000474424
0.000140907
0.000650146
0.000245554
0.000848724
0.000352645
0.00107067
0.000456891
0.000548435
0.00131949
-3.255e-07
-8.17594e-05
1.29856e-05
-0.000138989
4.60724e-05
-0.000135957
0.000101353
-9.66042e-05
0.000179481
-3.4927e-05
0.000280351
4.00371e-05
0.000403896
0.00012201
0.000550695
0.000205846
0.000721866
0.00028572
0.000353758
0.000916544
-6.22171e-06
-7.55377e-05
-8.70772e-06
-0.000136503
4.45309e-07
-0.00014511
2.53109e-05
-0.00012147
6.81246e-05
-7.77407e-05
0.000130262
-2.21007e-05
0.000212823
3.94487e-05
0.000316831
0.000101838
0.000442724
0.000159826
0.000207695
0.000588787
-1.05873e-05
-6.49504e-05
-2.5062e-05
-0.000122028
-3.41801e-05
-0.000135992
-3.26032e-05
-0.000123047
-1.70357e-05
-9.33082e-05
1.46599e-05
-5.37963e-05
6.39038e-05
-9.7952e-06
0.000131466
3.42765e-05
0.000217071
7.42205e-05
0.00010603
0.000318736
-1.37363e-05
-5.12141e-05
-3.70602e-05
-9.87046e-05
-5.98108e-05
-0.000113242
-7.58026e-05
-0.000107055
-8.11337e-05
-8.79772e-05
-7.33747e-05
-6.15552e-05
-5.11691e-05
-3.20009e-05
-1.413e-05
-2.76256e-06
3.69971e-05
2.30934e-05
4.28993e-05
0.000100128
-1.59219e-05
-3.52922e-05
-4.54963e-05
-6.91302e-05
-7.79942e-05
-8.07437e-05
-0.000106723
-7.83256e-05
-0.000127483
-6.72172e-05
-0.000137792
-5.12463e-05
-0.00013647
-3.33227e-05
-0.00012345
-1.57827e-05
-9.97485e-05
-6.083e-07
1.05787e-05
-6.7428e-05
-1.73084e-05
-1.79838e-05
-5.08919e-05
-3.55467e-05
-8.97066e-05
-4.1929e-05
-0.000126793
-4.12396e-05
-0.000157825
-3.61849e-05
-0.000180355
-2.87163e-05
-0.000193362
-2.03154e-05
-0.000196989
-1.21564e-05
-0.000192389
-5.20813e-06
-2.36687e-07
-0.000181573
-1.79839e-05
-5.35309e-05
-9.54603e-05
-0.0001367
-0.000172886
-0.000201602
-0.000221918
-0.000234074
-0.000239282
-0.000239519
0.000181019
-0.000420568
2.93317e-08
0.00132051
-0.0011395
1.63548e-08
0.00249198
-0.00117141
-7.1134e-08
0.00323815
-0.000746041
-1.25529e-07
0.00386666
-0.000628512
1.51933e-09
0.00429753
-0.000430992
1.1905e-07
0.00465123
-0.000353865
1.70213e-07
0.00489442
-0.000243327
1.4013e-07
0.0051125
-0.000217992
-9.55744e-08
-0.000141705
-1.36945e-07
0.000292792
-0.000894933
0.00140304
-0.00224975
0.00254813
-0.00231649
0.00327774
-0.00147566
0.00389466
-0.00124543
0.00431886
-0.000855194
0.00466838
-0.000703382
0.00490977
-0.00048472
0.00512711
-0.000435337
-0.000284588
0.000509165
-0.00147153
0.00156242
-0.00330301
0.00265621
-0.00341028
0.00335396
-0.00217341
0.00394858
-0.00184005
0.00436007
-0.00126668
0.00470168
-0.00104499
0.0049398
-0.000722839
0.0051559
-0.000651434
-0.000429687
0.000816262
-0.00218766
0.00178771
-0.00427447
0.00280813
-0.0044307
0.00346109
-0.00282636
0.00402445
-0.00240342
0.00441839
-0.00166062
0.00474924
-0.00137584
0.00498321
-0.000956813
0.00519801
-0.000866233
-0.000578438
0.00119447
-0.0030634
0.00206358
-0.00514357
0.00299258
-0.0053597
0.00359111
-0.00342489
0.00411665
-0.00292896
0.00448989
-0.00203386
0.00480831
-0.00169425
0.00503811
-0.00118662
0.0052522
-0.00108033
-0.000732646
0.00161968
-0.00409429
0.00237137
-0.00589527
0.00319587
-0.0061842
0.00373431
-0.00396333
0.00421837
-0.00341302
0.00456975
-0.00238524
0.00487554
-0.00200004
0.00510217
-0.00141324
0.00531692
-0.00129508
-0.000894562
0.0020639
-0.00524165
0.00268993
-0.00652129
0.00340279
-0.00689706
0.00387993
-0.00444047
0.00432201
-0.0038551
0.00465258
-0.0027158
0.00494711
-0.00229458
0.00517269
-0.00163882
0.00539034
-0.00151273
-0.00106693
0.00249714
-0.00641929
0.00299628
-0.00702044
0.00359739
-0.00749817
0.00401677
-0.00485984
0.00441971
-0.00425805
0.00473271
-0.0030288
0.005019
-0.00258087
0.00524678
-0.0018666
0.00547044
-0.00173639
-0.00125302
0.00290098
-0.00747836
0.00327119
-0.00739064
0.00376552
-0.00799251
0.00413433
-0.00522865
0.00450395
-0.00462767
0.00480461
-0.00332946
0.00508714
-0.0028634
0.00532146
-0.00210092
0.0055551
-0.00197003
-0.00145658
0.0032797
-0.00818773
0.00351296
-0.0076239
0.00389614
-0.00837569
0.00422535
-0.00555786
0.00456792
-0.00497024
0.00486341
-0.00362495
0.00514748
-0.00314747
0.00539404
-0.00234748
0.0056418
-0.00221778
-0.00168215
0.04339
-0.000942955
-0.0506348
0.0390933
-0.00332721
0.0370141
-0.00629643
0.0368491
-0.00539287
0.0367209
-0.00484201
0.0369197
-0.0038238
0.0371292
-0.00335696
0.0374616
-0.00267993
0.0377106
-0.00246675
-0.00205165
0.0523155
0.00328711
-0.0565456
0.050154
-0.00116565
0.0475608
-0.00370328
0.0460341
-0.0038662
0.0448349
-0.0036428
0.0440336
-0.00302251
0.0433858
-0.00270912
0.0430248
-0.00231893
0.0426571
-0.00209906
-0.00190692
0.0538852
0.00449709
-0.0550952
0.052617
0.000102572
0.0509999
-0.00208619
0.0496958
-0.00256211
0.0485963
-0.00254326
0.0477471
-0.00217332
0.0469786
-0.00194068
0.0464387
-0.00177898
0.045902
-0.00156236
-0.00153876
0.0520358
0.00435464
-0.0518933
0.0516426
0.000495773
0.050806
-0.00124965
0.0499649
-0.00172102
0.0492135
-0.00179182
0.0486102
-0.00157003
0.0480345
-0.001365
0.0475894
-0.00133382
0.0471519
-0.00112492
-0.00117303
0.0499934
0.00367714
-0.0493159
0.0498706
0.000618607
0.0494417
-0.000820816
0.0489348
-0.00121404
0.0484508
-0.00130789
0.0480559
-0.00117512
0.0476814
-0.000990508
0.0473668
-0.00101915
0.0470743
-0.000832503
-0.000887004
0.0483003
0.00288162
-0.0475048
0.0483268
0.000592108
0.0480668
-0.00056084
0.0477304
-0.000877652
0.0473907
-0.000968176
0.0471065
-0.000890886
0.0468531
-0.000737161
0.0466204
-0.000786353
0.0464223
-0.000634433
-0.000670908
0.0470966
0.0020954
-0.0463104
0.0471892
0.000499479
0.0470043
-0.000375853
0.0467473
-0.000620679
0.0464749
-0.000695801
0.0462369
-0.000652876
0.0460377
-0.000537983
0.0458387
-0.000587333
0.0456792
-0.000474975
-0.000492731
0.0462844
0.00135889
-0.0455479
0.0464271
0.000356792
0.0462821
-0.000230809
0.0460605
-0.000399047
0.0458168
-0.000452145
0.0455949
-0.000430963
0.0454134
-0.00035646
0.0452211
-0.0003951
0.0450677
-0.000321582
-0.000327981
0.0457891
0.000667088
-0.0450973
0.0459638
0.000182131
0.0458438
-0.000110847
0.0456384
-0.000193673
0.0454066
-0.000220356
0.0451901
-0.000214407
0.0450115
-0.00017792
0.0448166
-0.000200166
0.0446576
-0.000162535
-0.000165026
0.0455545
-0.0448874
0.0457366
0.0456258
0.0454321
0.0452117
0.0449973
0.0448194
0.0446192
0.0444567
0.0567859
0.00229946
-0.0560684
0.0573462
0.00290883
0.0577007
0.0034998
0.0577997
0.00406334
0.0575961
0.00459028
0.05705
0.00507188
0.0561297
0.00550046
0.0548054
0.00586996
0.053021
0.00617556
0.006392
0.0513881
0.00169173
-0.0507804
0.0520404
0.00225656
0.0527232
0.00281697
0.0534187
0.00336786
0.0541055
0.0039035
0.0547597
0.00441768
0.0553562
0.00490393
0.0558703
0.0053559
0.0562779
0.00576787
0.00612436
0.0480849
0.00121745
-0.0476106
0.0486401
0.00170134
0.0492731
0.00218405
0.0499782
0.0026627
0.0507476
0.00313414
0.0515704
0.00359488
0.0524332
0.0040411
0.0533205
0.00446862
0.0542155
0.00487292
0.00524464
0.0454857
0.00089135
-0.0451596
0.0458919
0.00129516
0.0463787
0.00169723
0.0469461
0.00209531
0.0475931
0.00248713
0.0483176
0.00287036
0.0491161
0.00324259
0.0499834
0.00360131
0.0509126
0.00394374
0.00426394
0.0439026
0.000651794
-0.043663
0.0442162
0.000981546
0.044604
0.00130942
0.0450658
0.00163355
0.0456008
0.00195207
0.0462081
0.0022631
0.0468859
0.0025648
0.0476319
0.00285526
0.0484433
0.00313239
0.00339132
0.0428079
0.000469674
-0.0426257
0.04306
0.000729442
0.0433819
0.000987443
0.0437733
0.00124216
0.0442333
0.00149209
0.0447607
0.00173573
0.0453539
0.00197161
0.0460109
0.00219827
0.0467292
0.00241409
0.00261569
0.0421161
0.000324864
-0.0419713
0.0423278
0.000517728
0.042606
0.000709179
0.0429501
0.000898066
0.043359
0.00108324
0.0438311
0.00126358
0.0443648
0.00143796
0.0449578
0.00160528
0.0456075
0.00176434
0.00191283
0.0416647
0.000204171
-0.041544
0.0418505
0.000331894
0.0421011
0.000458661
0.0424154
0.000583699
0.0427924
0.00070624
0.0432305
0.000825524
0.0437276
0.000940804
0.0442816
0.00105134
0.0448896
0.00115635
0.00125446
0.0414006
9.82446e-05
-0.0412946
0.0415706
0.000161898
0.0418041
0.000225092
0.0421004
0.000287437
0.0424581
0.000348547
0.0428756
0.000408039
0.0433508
0.000465535
0.0438815
0.000520663
0.0444648
0.000573032
0.000621997
0.0412751
-0.0411769
0.041437
0.0416621
0.0419496
0.0422981
0.0427062
0.0431717
0.0436924
0.0442654
0.0481183
-0.00335362
-0.0475684
0.048828
-0.00289466
0.0496473
-0.00240552
0.0505367
-0.00188466
0.0514688
-0.00133347
0.0524251
-0.000759369
0.0533873
-0.000166705
0.0543338
0.000440781
0.0552382
0.00105831
0.0016801
0.0479685
-0.00340745
-0.0479147
0.0480662
-0.0029923
0.0482068
-0.00254617
0.0483961
-0.002074
0.0486399
-0.00157722
0.0489422
-0.00106168
0.0493065
-0.000531036
0.0497349
1.23719e-05
0.0502272
0.000566027
0.00112695
0.0468958
-0.00314805
-0.0471552
0.0466914
-0.00278787
0.0465476
-0.0024024
0.0464698
-0.00199619
0.046464
-0.00157144
0.0465338
-0.00113149
0.0466816
-0.000678802
0.0469094
-0.000215395
0.0472188
0.000256646
0.00073506
0.0455765
-0.00277147
-0.0459531
0.0452578
-0.00246919
0.0450006
-0.00214516
0.0448083
-0.00180394
0.0446843
-0.00144743
0.0446309
-0.00107803
0.0446499
-0.000697799
0.0447432
-0.000308697
0.0449126
8.72666e-05
0.000488
0.0446582
-0.00234964
-0.04508
0.0442901
-0.00210114
0.0439804
-0.00183547
0.0437322
-0.00155573
0.0435483
-0.00126354
0.0434311
-0.000960748
0.0433823
-0.000649074
0.0434039
-0.000330216
0.043497
-5.91753e-06
0.00032203
0.0439882
-0.00190025
-0.0444376
0.0435907
-0.00170372
0.0432491
-0.00149387
0.0429664
-0.00127296
0.0427451
-0.00104224
0.0425874
-0.000803099
0.0424953
-0.00055693
0.0424702
-0.000305123
0.0425134
-4.9104e-05
0.000209661
0.0435587
-0.00143586
-0.044023
0.0431447
-0.00128973
0.0427847
-0.00113388
0.0424815
-0.000969808
0.0422377
-0.000798435
0.0420554
-0.000620774
0.0419363
-0.000437858
0.0418819
-0.000250741
0.0418933
-6.05046e-05
0.000131742
0.0432802
-0.000961397
-0.0437546
0.0428551
-0.000864696
0.0424828
-0.000761601
0.0421661
-0.00065305
0.0419073
-0.000539647
0.0417086
-0.000422054
0.0415717
-0.000300952
0.041498
-0.000177046
0.0414885
-5.10593e-05
7.6266e-05
0.0431196
-0.000481503
-0.0435995
0.0426884
-0.000433477
0.0423091
-0.000382278
0.0419844
-0.000328349
0.0417167
-0.000271989
0.0415082
-0.00021352
0.0413605
-0.00015328
0.0412751
-9.16177e-05
0.0412529
-2.8894e-05
3.452e-05
0.0430458
-0.0435273
0.0426123
0.04223
0.0419017
0.0416297
0.0414162
0.0412629
0.0411713
0.0411424
0.0429487
0.000174215
-0.000193984
0.0429948
0.00052014
-0.000566229
0.0430721
0.000871387
-0.00094867
0.0431979
0.00123555
-0.00136133
0.0434019
0.00161789
-0.00182191
0.0437274
0.0020226
-0.0023481
0.0442327
0.00245178
-0.0029571
0.0449891
0.00290783
-0.00366425
0.0460904
0.00336673
-0.004468
0.00391654
-0.00539458
0.0429654
0.000137696
0.043072
0.000413552
0.0432526
0.000690815
0.0435175
0.000970656
0.0438815
0.00125388
0.0443634
0.00154073
0.0449849
0.00183029
0.04577
0.00212274
0.0467342
0.00240252
0.00273602
0.0429664
0.000100196
0.0430774
0.00030255
0.0432619
0.000506379
0.0435238
0.000708732
0.0438689
0.00090873
0.0443046
0.00110508
0.0448392
0.00129567
0.0454832
0.00147879
0.0462412
0.00164444
0.00182204
0.0429586
7.05087e-05
0.0430475
0.000213677
0.0431957
0.000358172
0.043404
0.000500417
0.0436735
0.000639236
0.0440052
0.000773343
0.0443997
0.00090117
0.044857
0.00102152
0.0453721
0.00112939
0.00124102
0.0429506
4.88715e-05
0.043016
0.000148267
0.0431256
0.000248567
0.0432791
0.000346882
0.0434762
0.000442173
0.0437161
0.0005334
0.0439979
0.00061942
0.0443201
0.000699302
0.0446792
0.000770248
0.000840226
0.0429445
3.33009e-05
0.0429917
0.00010104
0.0430709
0.000169364
0.0431816
0.000236224
0.0433229
0.000300857
0.0434938
0.000362534
0.0436927
0.000420512
0.0439178
0.0004742
0.0441659
0.000522124
0.000568572
0.0429403
2.19181e-05
0.0429749
6.6493e-05
0.0430328
0.000111434
0.0431136
0.000155382
0.0432167
0.000197826
0.0433409
0.00023828
0.0434852
0.000276267
0.043648
0.000311399
0.0438272
0.000342844
0.000372777
0.0429376
1.32785e-05
0.0429638
4.02719e-05
0.0430077
6.74761e-05
0.043069
9.40805e-05
0.0431471
0.000119776
0.0432411
0.000144276
0.0433501
0.000167303
0.0434728
0.000188632
0.0436079
0.000207828
0.000226003
0.0429359
6.26224e-06
0.0429572
1.89881e-05
0.0429929
3.18104e-05
0.0430426