/*--------------------------------*- C++ -*----------------------------------*\
  =========                 |
  \\      /  F ield         | OpenFOAM: The Open Source CFD Toolbox
   \\    /   O peration     | Website:  https://openfoam.org
    \\  /    A nd           | Version:  6.0
     \\/     M anipulation  |
\*---------------------------------------------------------------------------*/
FoamFile
{
    version     2.0;
    format      ascii;
    class       volScalarField;
    location    "0.2";
    object      p;
}
// * * * * * * * * * * * * * * * * * * * * * * * * * * * * * * * * * * * * * //

dimensions      [0 2 -2 0 0 0 0];

internalField   nonuniform List<scalar> 
1600
(
7.98747e-09
-0.00117924
-0.00388858
-0.00754217
-0.0114708
-0.015177
-0.0183025
-0.0205949
-0.0218862
-0.0220766
-0.0211204
-0.0190153
-0.015795
-0.011522
-0.00628377
-0.000187821
0.00664094
0.0140632
0.0219276
0.0300732
0.0383321
0.0465315
0.0544971
0.0620561
0.069041
0.0752933
0.0806684
0.0850404
0.0883076
0.0903987
0.0912787
0.0909565
0.0894922
0.087007
0.0836942
0.0798327
0.0758025
0.0721119
0.069429
0.0683119
0.00120314
2.28683e-05
-0.00217793
-0.00501423
-0.00804378
-0.0109008
-0.0133007
-0.0150302
-0.0159388
-0.0159306
-0.0149554
-0.0130016
-0.01009
-0.00626856
-0.00160848
0.00379962
0.00984861
0.0164176
0.0233741
0.0305769
0.0378781
0.0451255
0.0521661
0.0588487
0.0650274
0.0705656
0.0753398
0.0792444
0.0821963
0.0841406
0.0850553
0.0849574
0.0839087
0.0820224
0.0794689
0.0764823
0.0733641
0.07049
0.0683087
0.067197
0.0039633
0.00224469
8.63203e-06
-0.00253883
-0.00515598
-0.0075735
-0.00956787
-0.0109673
-0.0116462
-0.0115208
-0.0105449
-0.0087054
-0.00601741
-0.00252067
0.00172401
0.00663763
0.0121258
0.018081
0.0243851
0.0309114
0.0375269
0.0440947
0.0504773
0.056539
0.062149
0.0671854
0.0715389
0.0751165
0.0778464
0.0796822
0.0806072
0.0806393
0.0798348
0.0782926
0.0761569
0.0736184
0.070917
0.0683343
0.0661289
0.0645119
0.00774052
0.00513695
0.00250317
-0.00011652
-0.00266184
-0.00493366
-0.00675805
-0.00800329
-0.00857102
-0.00839439
-0.00743674
-0.00568869
-0.00316498
9.83087e-05
0.00404623
0.00860736
0.0136962
0.019215
0.0250561
0.0311036
0.0372356
0.0433265
0.0492498
0.0548803
0.0600978
0.0647898
0.0688556
0.0722093
0.0747846
0.0765378
0.0774521
0.0775408
0.0768504
0.0754625
0.0734941
0.0710971
0.0684637
0.0658087
0.0632188
0.060753
0.011938
0.00830671
0.00510333
0.00223017
-0.000419184
-0.00270173
-0.00448518
-0.00567512
-0.00620026
-0.00601228
-0.00508629
-0.00341931
-0.00102836
0.0020514
0.00576841
0.0100566
0.014837
0.0200197
0.0255053
0.0311866
0.0369506
0.0426805
0.0482582
0.0535669
0.0584936
0.0629323
0.0667876
0.0699777
0.0724379
0.0741244
0.0750168
0.0751212
0.0744721
0.073133
0.0711949
0.0687745
0.0660255
0.0631105
0.0599582
0.0564933
0.0161318
0.0114306
0.00756571
0.00432204
0.00144689
-0.000959805
-0.00279915
-0.00400936
-0.00454465
-0.00437502
-0.00348816
-0.00188906
0.000401121
0.00334617
0.0068959
0.0109875
0.0155468
0.0204895
0.0257226
0.0311455
0.0366521
0.042132
0.0474735
0.0525652
0.0572989
0.0615725
0.0652929
0.0683794
0.0707665
0.072407
0.073275
0.0733675
0.072706
0.0713364
0.0693259
0.0667615
0.0637669
0.0604669
0.0566524
0.052138
0.0200136
0.0142477
0.00967535
0.00598574
0.00280037
0.000187862
-0.0017788
-0.0030654
-0.00364903
-0.00351688
-0.0026693
-0.00112003
0.00110441
0.00396524
0.00741206
0.0113836
0.0158086
0.0206067
0.0256893
0.0309605
0.036319
0.041659
0.0468726
0.0518517
0.0564905
0.0606881
0.0643514
0.0673979
0.0697589
0.0713818
0.0722331
0.0722994
0.0715891
0.0701315
0.0679731
0.0651763
0.0618436
0.058074
0.0535419
0.0479736
0.0233512
0.0165449
0.0112474
0.0070685
0.00352052
0.000649697
-0.00149062
-0.00288946
-0.00354373
-0.00345636
-0.00263994
-0.00111719
0.00107928
0.00390712
0.00731447
0.0112403
0.0156146
0.0203595
0.025389
0.0306106
0.0359257
0.0412312
0.0464213
0.051389
0.0560288
0.0602388
0.0639236
0.0669968
0.0693841
0.0710259
0.0718794
0.0719203
0.0711436
0.0695632
0.0672079
0.0641205
0.060389
0.0560967
0.0508181
0.0442081
0.0259631
0.0181434
0.0121177
0.00742707
0.00348705
0.000327587
-0.00201263
-0.0035421
-0.00427491
-0.0042283
-0.00342644
-0.00190095
0.000309116
0.00315719
0.00658896
0.0105424
0.014948
0.0197285
0.0247997
0.0300705
0.0354439
0.0408178
0.0460867
0.0511431
0.0558797
0.0601917
0.0639795
0.0671508
0.069624
0.0713306
0.0722174
0.072248
0.0714045
0.0696866
0.0671074
0.0636942
0.0595263
0.0546783
0.0486371
0.0409967
0.0276991
0.0188877
0.0121367
0.00692477
0.00257859
-0.000883607
-0.00343423
-0.0050982
-0.00590489
-0.00588458
-0.00507226
-0.00350829
-0.00123834
0.00168627
0.00520811
0.00926343
0.0137819
0.0186863
0.0238927
0.0293105
0.0348429
0.0403874
0.0458374
0.0510834
0.0560148
0.060522
0.0644994
0.067847
0.0704742
0.072302
0.0732654
0.0733155
0.072421
0.0705678
0.0677555
0.063999
0.0593726
0.0539476
0.0471308
0.0384621
0.0284265
0.0186365
0.011164
0.00542862
0.000672698
-0.00309412
-0.00585295
-0.00764312
-0.00850787
-0.00848955
-0.00763347
-0.00598853
-0.00360716
-0.000545826
0.00313443
0.00736743
0.0120814
0.0171983
0.0226337
0.0282964
0.0340887
0.0399069
0.045642
0.0511811
0.0564088
0.0612096
0.0654697
0.0690801
0.0719393
0.0739563
0.0750529
0.0751665
0.0742518
0.0722814
0.0692422
0.0651384
0.0600423
0.0540256
0.0464188
0.0367102
0.02802
0.0172549
0.00906291
0.00280601
-0.00235573
-0.0064196
-0.00937394
-0.0112714
-0.0121683
-0.0121183
-0.0111769
-0.00940156
-0.00685156
-0.00358883
0.000321571
0.00481062
0.00980451
0.0152238
0.0209829
0.0269894
0.0331441
0.0393409
0.0454678
0.0514072
0.0570381
0.062237
0.0668812
0.0708507
0.0740313
0.0763182
0.0776184
0.0778543
0.0769655
0.0749108
0.0716644
0.0672208
0.0616521
0.0550327
0.0466169
0.0358421
0.0263544
0.014608
0.00569563
-0.0010785
-0.00663658
-0.0109822
-0.0141104
-0.0160867
-0.0169801
-0.0168558
-0.0157794
-0.0138169
-0.0110349
-0.00750104
-0.0032847
0.0015419
0.00690259
0.0127162
0.0188954
0.0253465
0.031968
0.0386514
0.0452804
0.0517324
0.0578793
0.0635891
0.0687281
0.0731639
0.0767679
0.0794195
0.0810091
0.0814417
0.0806406
0.0785494
0.0751288
0.0703635
0.0643261
0.0570948
0.0478453
0.0359629
0.0232988
0.0105561
0.000919116
-0.00636644
-0.0123069
-0.0169122
-0.0201842
-0.0222017
-0.0230465
-0.0227959
-0.021526
-0.0193119
-0.016228
-0.0123476
-0.00774495
-0.0024956
0.00332173
0.00962392
0.0163222
0.0233208
0.0305165
0.0377975
0.0450435
0.0521259
0.0589091
0.0652512
0.0710065
0.0760284
0.0801721
0.0832989
0.08528
0.0860011
0.0853663
0.0833021
0.0797541
0.0746958
0.0682
0.060349
0.0502355
0.0371895
0.0187129
0.00495007
-0.0054189
-0.0132089
-0.0195134
-0.0243496
-0.0277268
-0.0297379
-0.0304792
-0.0300404
-0.0285092
-0.0259707
-0.0225072
-0.0181987
-0.0131241
-0.00736256
-0.000995376
0.0058926
0.0132111
0.0208631
0.0287431
0.0367366
0.044719
0.0525559
0.0601033
0.0672089
0.0737139
0.0794555
0.0842709
0.0880007
0.0904943
0.0916146
0.0912438
0.0892876
0.085674
0.0803629
0.0734265
0.0649501
0.0539365
0.0396569
0.012443
-0.00237197
-0.0134835
-0.0217694
-0.028415
-0.0334458
-0.03688
-0.0388267
-0.0393978
-0.0386978
-0.036827
-0.0338815
-0.0299525
-0.0251269
-0.0194889
-0.0131211
-0.00610712
0.00146679
0.00950945
0.0179228
0.0266002
0.0354247
0.0442678
0.0529893
0.0614371
0.0694478
0.0768482
0.0834584
0.0890949
0.0935752
0.0967231
0.0983751
0.0983871
0.0966403
0.0930405
0.0875308
0.0801801
0.0710756
0.0591214
0.0435244
0.00431921
-0.0115885
-0.0234563
-0.0322277
-0.0391853
-0.0443654
-0.0477972
-0.0496084
-0.0499297
-0.0488821
-0.0465809
-0.0431346
-0.0386443
-0.0332047
-0.0269051
-0.0198319
-0.0120703
-0.00370731
0.00516572
0.0144509
0.024041
0.0338179
0.0436503
0.0533927
0.0628851
0.0719528
0.080408
0.0880518
0.094678
0.100078
0.104045
0.106386
0.106925
0.105513
0.102027
0.0963897
0.0886626
0.0789322
0.0659929
0.0489818
-0.0058481
-0.0228989
-0.0355397
-0.0447829
-0.052016
-0.0572885
-0.0606441
-0.0622331
-0.0622084
-0.060711
-0.0578736
-0.0538192
-0.0486605
-0.0425003
-0.0354337
-0.0275501
-0.018936
-0.00967818
0.000133275
0.0104019
0.0210218
0.0318749
0.0428284
0.053733
0.0644217
0.0747091
0.0843919
0.0932515
0.101056
0.107568
0.112548
0.115765
0.117003
0.116079
0.112833
0.10716
0.0991093
0.0887625
0.0747911
0.0562559
-0.0182724
-0.0365281
-0.0499618
-0.0596585
-0.06712
-0.0724129
-0.0756002
-0.0768601
-0.0763726
-0.0743032
-0.0708055
-0.0660197
-0.0600715
-0.0530732
-0.0451256
-0.0363206
-0.0267452
-0.0164844
-0.00562536
0.00573882
0.0175056
0.0295593
0.0417679
0.05398
0.0660232
0.0777022
0.088799
0.0990741
0.108269
0.116113
0.122328
0.126638
0.128785
0.128536
0.125689
0.120098
0.111796
0.100853
0.0858015
0.0656183
-0.0331964
-0.0527334
-0.0669832
-0.0771083
-0.0847364
-0.0899574
-0.0928599
-0.0936574
-0.0925639
-0.0897752
-0.0854703
-0.0798099
-0.072935
-0.0649681
-0.0560157
-0.0461719
-0.0355224
-0.0241488
-0.0121332
0.00043753
0.0134669
0.0268444
0.0404417
0.0541083
0.0676687
0.0809196
0.0936294
0.105538
0.116358
0.125782
0.133488
0.139151
0.142455
0.14311
0.140858
0.135503
0.127048
0.115544
0.0993647
0.0773947
-0.0508987
-0.0718126
-0.0869055
-0.0974234
-0.105136
-0.110165
-0.112633
-0.112801
-0.110924
-0.107237
-0.10195
-0.0952472
-0.0872885
-0.0782072
-0.0681155
-0.0571085
-0.0452688
-0.0326721
-0.0193924
-0.00550734
0.00889622
0.023717
0.0388337
0.0541007
0.0693427
0.0843518
0.0988844
0.11266
0.125364
0.136648
0.146141
0.153458
0.158218
0.160058
0.158649
0.153726
0.145249
0.133241
0.115889
0.0919762
-0.0717034
-0.0941152
-0.110082
-0.120942
-0.128628
-0.133306
-0.135148
-0.134471
-0.13159
-0.126785
-0.120305
-0.112364
-0.103141
-0.0927819
-0.0814046
-0.0691029
-0.0559541
-0.0420248
-0.0273773
-0.0120759
0.00380663
0.0201825
0.0369429
0.0539512
0.0710376
0.0879936
0.104567
0.120461
0.135331
0.148788
0.160405
0.169731
0.176303
0.179671
0.179413
0.175176
0.166857
0.154429
0.135867
0.109834
-0.0959943
-0.120059
-0.136934
-0.148061
-0.155568
-0.159683
-0.160646
-0.158853
-0.154689
-0.148495
-0.140568
-0.131156
-0.120461
-0.108642
-0.0958198
-0.0820855
-0.0675074
-0.052139
-0.0360264
-0.0192157
-0.0017603
0.0162713
0.0347881
0.0536693
0.0727563
0.0918461
0.110684
0.128959
0.1463
0.162277
0.176404
0.188151
0.196963
0.20228
0.203562
0.200338
0.192416
0.179696
0.159893
0.131538
-0.124234
-0.150153
-0.167974
-0.179256
-0.186371
-0.189637
-0.189388
-0.186125
-0.180327
-0.17241
-0.162728
-0.151571
-0.139166
-0.125683
-0.111244
-0.095934
-0.0798073
-0.0628994
-0.0452345
-0.0268346
-0.00772775
0.0120434
0.0324131
0.0532833
0.0745147
0.0959173
0.117241
0.138169
0.158308
0.177187
0.194259
0.208909
0.220471
0.228254
0.231566
0.229783
0.222582
0.209754
0.188697
0.157785
-0.156996
-0.185032
-0.203831
-0.215103
-0.221526
-0.22355
-0.221646
-0.216455
-0.208578
-0.198524
-0.186718
-0.173495
-0.159106
-0.143733
-0.127495
-0.110463
-0.0926725
-0.0741346
-0.0548448
-0.0347942
-0.0139782
0.00759401
0.0298898
0.0528429
0.0763426
0.100222
0.124247
0.148102
0.171381
0.193578
0.214087
0.232198
0.24712
0.258004
0.263969
0.264184
0.258145
0.245476
0.223176
0.189428
-0.195004
-0.225503
-0.245303
-0.256309
-0.261608
-0.26185
-0.257698
-0.249984
-0.239463
-0.226764
-0.212391
-0.196726
-0.180047
-0.162539
-0.14431
-0.125412
-0.105853
-0.0856106
-0.0646442
-0.0429058
-0.0203502
0.00305516
0.02732
0.0524199
0.0782838
0.10478
0.131703
0.158754
0.185526
0.211489
0.235981
0.258198
0.27721
0.291979
0.301388
0.304337
0.300064
0.287944
0.264457
0.227537
-0.239205
-0.272622
-0.293411
-0.303751
-0.307301
-0.305009
-0.297814
-0.286802
-0.27293
-0.256963
-0.239496
-0.220962
-0.201653
-0.181749
-0.161339
-0.140441
-0.119025
-0.0970274
-0.0743605
-0.0509291
-0.0266383
-0.00140469
0.0248337
0.052105
0.080391
0.10961
0.139601
0.1701
0.200718
0.230919
0.259998
0.287062
0.311033
0.330655
0.344523
0.351184
0.349513
0.338517
0.313968
0.273464
-0.290867
-0.327799
-0.349488
-0.358533
-0.359416
-0.353539
-0.342231
-0.32692
-0.308808
-0.288824
-0.267653
-0.245769
-0.223466
-0.200904
-0.178131
-0.15512
-0.13179
-0.108019
-0.0836657
-0.0585765
-0.0325982
-0.00558675
0.022582
0.0520009
0.0827178
0.114719
0.147906
0.182074
0.216879
0.251804
0.286125
0.318879
0.34884
0.374513
0.394144
0.405827
0.407935
0.398919
0.373564
0.328964
-0.351748
-0.392968
-0.415306
-0.422048
-0.418904
-0.407964
-0.39111
-0.37021
-0.346764
-0.321875
-0.296309
-0.270557
-0.244891
-0.219421
-0.194134
-0.168937
-0.143675
-0.118162
-0.0921846
-0.0655238
-0.0379579
-0.00927372
0.0207253
0.0522084
0.0853043
0.120084
0.156538
0.194548
0.233847
0.273978
0.314239
0.353628
0.390793
0.423993
0.451071
0.469547
0.477107
0.471373
0.445697
0.396372
-0.424374
-0.470846
-0.493248
-0.49605
-0.486848
-0.468769
-0.444456
-0.416331
-0.386229
-0.355414
-0.3247
-0.294553
-0.265177
-0.236594
-0.208698
-0.181298
-0.154153
-0.126988
-0.0995126
-0.0714281
-0.0424373
-0.0122494
0.0194131
0.0528067
0.0881554
0.125635
0.165349
0.207299
0.251342
0.29713
0.344043
0.391103
0.436884
0.479421
0.516117
0.543795
0.559215
0.558782
0.533695
0.478897
-0.51251
-0.565349
-0.58655
-0.582728
-0.564421
-0.536295
-0.502
-0.464612
-0.426301
-0.388438
-0.351809
-0.316777
-0.283413
-0.251597
-0.221083
-0.191556
-0.162659
-0.134016
-0.105243
-0.0759564
-0.0457756
-0.0143265
0.0187564
0.0538254
0.0912125
0.131216
0.174081
0.219969
0.268907
0.320729
0.374982
0.430809
0.486811
0.540873
0.589975
0.630138
0.656924
0.664972
0.642198
0.581141
-0.62203
-0.682248
-0.699617
-0.684734
-0.652752
-0.610539
-0.562995
-0.513886
-0.465628
-0.419564
-0.376315
-0.336023
-0.29853
-0.263499
-0.230494
-0.199037
-0.168631
-0.138782
-0.109004
-0.078821
-0.0477665
-0.01538
0.0187949
0.0552121
0.0943205
0.136558
0.182336
0.232013
0.285852
0.34395
0.406135
0.471816
0.539788
0.60796
0.673005
0.730117
0.773398
0.795011
0.777839
0.710022
-0.762552
-0.830222
-0.838386
-0.805097
-0.752631
-0.690814
-0.62592
-0.562266
-0.502257
-0.446949
-0.396571
-0.35087
-0.309329
-0.271308
-0.236121
-0.203088
-0.171552
-0.140887
-0.1105
-0.07982
-0.0482962
-0.0153838
0.0194631
0.0567994
0.0971955
0.141239
0.189528
0.24266
0.301191
0.36558
0.436079
0.512565
0.59429
0.679498
0.76486
0.844919
0.912196
0.955577
0.950338
0.87653
-0.950767
-1.02254
-1.01059
-0.946791
-0.863867
-0.775148
-0.688019
-0.606837
-0.533465
-0.468214
-0.410587
-0.359702
-0.314529
-0.274025
-0.237201
-0.20314
-0.17101
-0.14005
-0.109559
-0.0788794
-0.0473811
-0.0144438
0.0205593
0.0582775
0.0993983
0.14466
0.194862
0.250866
0.31358
0.383924
0.462739
0.550628
0.647677
0.752977
0.863813
0.974672
1.07679
1.15519
1.17424
1.09929
-1.21717
-1.27952
-1.22536
-1.11136
-0.983875
-0.859171
-0.744553
-0.643228
-0.555541
-0.480371
-0.416041
-0.360761
-0.31283
-0.270716
-0.23308
-0.19876
-0.166745
-0.136147
-0.106171
-0.0760847
-0.0451954
-0.0128227
0.021725
0.0591755
0.100318
0.146032
0.197311
0.255291
0.321271
0.396715
0.483219
0.582402
0.695672
0.823722
0.965536
1.11689
1.26904
1.40371
1.47135
1.41164
-1.61775
-1.63082
-1.49138
-1.29653
-1.10569
-0.934801
-0.788109
-0.665345
-0.563785
-0.479943
-0.410445
-0.352321
-0.303073
-0.260637
-0.223323
-0.189736
-0.158712
-0.12926
-0.100517
-0.0717001
-0.0420787
-0.0109364
0.0224587
0.0588868
0.0992119
0.144423
0.195682
0.254379
0.3222
0.401192
0.493825
0.603011
0.732021
0.884134
1.06171
1.26438
1.48668
1.71031
1.87266
1.87322
-2.25444
-2.11576
-1.81335
-1.49417
-1.21721
-0.990311
-0.809215
-0.666256
-0.553431
-0.46382
-0.391875
-0.33328
-0.284712
-0.243614
-0.207997
-0.176293
-0.147236
-0.11978
-0.0930301
-0.0661899
-0.0385206
-0.00930133
0.0222078
0.0568038
0.0953844
0.139002
0.188928
0.246747
0.314467
0.394676
0.490736
0.607022
0.74915
0.9241
1.13993
1.40435
1.72104
2.07948
2.41811
2.58955
-3.35463
-2.78392
-2.17238
-1.67538
-1.29229
-1.00549
-0.793919
-0.637055
-0.51912
-0.428971
-0.358775
-0.302987
-0.257645
-0.219867
-0.187511
-0.158945
-0.132888
-0.108302
-0.0843145
-0.0601576
-0.0351232
-0.00852158
0.0203566
0.0522814
0.0881311
0.128952
0.176041
0.231053
0.296171
0.374338
0.469614
0.587699
0.736669
0.928021
1.17809
1.50841
1.94087
2.49109
3.15912
3.79349
-5.51232
-3.66667
-2.43122
-1.71333
-1.24124
-0.921396
-0.704493
-0.553639
-0.4452
-0.364945
-0.303942
-0.256341
-0.218183
-0.186708
-0.159922
-0.136333
-0.114788
-0.0943616
-0.0742781
-0.05386
-0.0324827
-0.00953844
0.0155987
0.0436101
0.0752767
0.111536
0.153559
0.202869
0.261509
0.332318
0.419378
0.528749
0.669715
0.857062
1.11536
1.48374
2.01553
2.8061
4.12987
6.08297
-9.19544
-4.52317
-2.30659
-1.42082
-0.958853
-0.682881
-0.512188
-0.400486
-0.322799
-0.266286
-0.223752
-0.190765
-0.164416
-0.142695
-0.124145
-0.107669
-0.0924055
-0.0776575
-0.0628345
-0.0474153
-0.030917
-0.0128686
0.00721497
0.0298594
0.0556635
0.0853402
0.119774
0.160103
0.207848
0.26512
0.334981
0.422098
0.534019
0.684036
0.897776
1.2244
1.75396
2.73404
5.06538
9.85798
)
;

boundaryField
{
    movingWall
    {
        type            zeroGradient;
    }
    fixedWalls
    {
        type            zeroGradient;
    }
    frontAndBack
    {
        type            empty;
    }
}


// ************************************************************************* //
