/*--------------------------------*- C++ -*----------------------------------*\
  =========                 |
  \\      /  F ield         | OpenFOAM: The Open Source CFD Toolbox
   \\    /   O peration     | Website:  https://openfoam.org
    \\  /    A nd           | Version:  6.0
     \\/     M anipulation  |
\*---------------------------------------------------------------------------*/
FoamFile
{
    version     2.0;
    format      ascii;
    class       surfaceScalarField;
    location    "0.2";
    object      phi;
}
// * * * * * * * * * * * * * * * * * * * * * * * * * * * * * * * * * * * * * //

dimensions      [0 3 -1 0 0 0 0];

internalField   nonuniform List<scalar> 
3120
(
2.53869e-09
-2.53856e-09
4.08838e-09
-1.54987e-09
2.24161e-09
1.84674e-09
-3.56745e-09
5.80905e-09
-1.3149e-08
9.58154e-09
-2.59948e-08
1.28458e-08
-4.14657e-08
1.54711e-08
-5.88864e-08
1.74205e-08
-7.75889e-08
1.87025e-08
-9.69371e-08
1.93482e-08
-1.16337e-07
1.93998e-08
-1.35242e-07
1.89054e-08
-1.53159e-07
1.79165e-08
-1.69644e-07
1.64855e-08
-1.8431e-07
1.46657e-08
-1.96821e-07
1.2511e-08
-2.06896e-07
1.00755e-08
-2.14311e-07
7.41433e-09
-2.18894e-07
4.58362e-09
-2.20535e-07
1.64124e-09
-2.19182e-07
-1.35294e-09
-2.14846e-07
-4.33684e-09
-2.07599e-07
-7.24605e-09
-1.97585e-07
-1.0014e-08
-1.85013e-07
-1.25723e-08
-1.70162e-07
-1.48515e-08
-1.53379e-07
-1.67821e-08
-1.35084e-07
-1.82957e-08
-1.15757e-07
-1.93266e-08
-9.59432e-08
-1.9814e-08
-7.62397e-08
-1.97035e-08
-5.72893e-08
-1.89504e-08
-3.97663e-08
-1.75231e-08
-2.43579e-08
-1.54084e-08
-1.1736e-08
-1.26219e-08
-2.50599e-09
-9.22993e-09
2.8882e-09
-5.39418e-09
4.35098e-09
-1.46278e-09
2.55827e-09
1.79273e-09
2.55832e-09
1.61798e-09
-4.15627e-09
-1.17287e-09
1.24088e-09
-1.17207e-08
1.23947e-08
-3.10778e-08
2.51662e-08
-5.90441e-08
3.75476e-08
-9.46764e-08
4.84781e-08
-1.36626e-07
5.74211e-08
-1.83355e-07
6.41493e-08
-2.33264e-07
6.86113e-08
-2.84772e-07
7.08563e-08
-3.36366e-07
7.09938e-08
-3.8663e-07
6.91689e-08
-4.34262e-07
6.55487e-08
-4.7809e-07
6.03133e-08
-5.17075e-07
5.3651e-08
-5.50321e-07
4.57564e-08
-5.77074e-07
3.68285e-08
-5.96731e-07
2.70714e-08
-6.08841e-07
1.66944e-08
-6.13114e-07
5.91343e-09
-6.09418e-07
-5.04885e-09
-5.97792e-07
-1.59621e-08
-5.78449e-07
-2.65888e-08
-5.51778e-07
-3.6685e-08
-5.18349e-07
-4.6002e-08
-4.78911e-07
-5.42893e-08
-4.34394e-07
-6.12987e-08
-3.85901e-07
-6.67892e-08
-3.34694e-07
-7.05335e-08
-2.82182e-07
-7.23256e-08
-2.29895e-07
-7.19903e-08
-1.79451e-07
-6.93948e-08
-1.32509e-07
-6.4465e-08
-9.07083e-08
-5.72088e-08
-5.55761e-08
-4.77542e-08
-2.83886e-08
-3.64175e-08
-9.95583e-09
-2.38269e-08
-2.95865e-10
-1.11227e-08
1.85046e-09
-3.53537e-10
4.40878e-09
-1.66844e-09
-2.4879e-09
-1.21162e-08
1.16886e-08
-3.40847e-08
3.43632e-08
-6.84347e-08
5.9516e-08
-1.14753e-07
8.38654e-08
-1.71753e-07
1.05479e-07
-2.37604e-07
1.23272e-07
-3.10169e-07
1.36715e-07
-3.87181e-07
1.45623e-07
-4.66356e-07
1.50032e-07
-5.45476e-07
1.50113e-07
-6.22439e-07
1.46132e-07
-6.95299e-07
1.38409e-07
-7.6229e-07
1.27305e-07
-8.21843e-07
1.13204e-07
-8.72598e-07
9.65105e-08
-9.13411e-07
7.76417e-08
-9.43368e-07
5.70287e-08
-9.61789e-07
3.51152e-08
-9.68234e-07
1.2359e-08
-9.62516e-07
-1.07674e-08
-9.44701e-07
-3.37772e-08
-9.1512e-07
-5.61694e-08
-8.74373e-07
-7.74318e-08
-8.2333e-07
-9.70448e-08
-7.63131e-07
-1.14488e-07
-6.9518e-07
-1.2925e-07
-6.21132e-07
-1.40837e-07
-5.42876e-07
-1.4879e-07
-4.62502e-07
-1.527e-07
-3.82263e-07
-1.52229e-07
-3.04518e-07
-1.4714e-07
-2.31658e-07
-1.37325e-07
-1.66006e-07
-1.22861e-07
-1.09685e-07
-1.04075e-07
-6.4438e-08
-8.16646e-08
-3.13815e-08
-5.68835e-08
-1.06942e-08
-3.181e-08
-1.23988e-09
-9.80785e-09
3.16887e-09
-5.56768e-09
3.07985e-09
-2.49696e-08
3.10905e-08
-5.96639e-08
6.90575e-08
-1.09826e-07
1.09678e-07
-1.74565e-07
1.48605e-07
-2.52176e-07
1.8309e-07
-3.40388e-07
2.11483e-07
-4.36584e-07
2.3291e-07
-5.37975e-07
2.47015e-07
-6.41735e-07
2.53791e-07
-7.45095e-07
2.53472e-07
-8.45413e-07
2.46451e-07
-9.40233e-07
2.33228e-07
-1.02731e-06
2.14382e-07
-1.10465e-06
1.9054e-07
-1.17051e-06
1.62369e-07
-1.22343e-06
1.30564e-07
-1.26225e-06
9.58462e-08
-1.28609e-06
5.89596e-08
-1.2944e-06
2.06732e-08
-1.28695e-06
-1.822e-08
-1.26382e-06
-5.69039e-08
-1.22545e-06
-9.45411e-08
-1.17261e-06
-1.30277e-07
-1.1064e-06
-1.6325e-07
-1.02829e-06
-1.92598e-07
-9.40066e-07
-2.17478e-07
-8.43819e-07
-2.37083e-07
-7.41939e-07
-2.5067e-07
-6.37055e-07
-2.57583e-07
-5.31989e-07
-2.57296e-07
-4.29677e-07
-2.49452e-07
-3.33079e-07
-2.33923e-07
-2.45059e-07
-2.10882e-07
-1.68228e-07
-1.80906e-07
-1.04763e-07
-1.4513e-07
-5.61804e-08
-1.05466e-07
-2.30948e-08
-6.48955e-08
-4.98567e-09
-2.79169e-08
-1.81679e-09
-9.46432e-09
1.25442e-08
-3.81561e-08
5.9782e-08
-8.60356e-08
1.16937e-07
-1.52318e-07
1.7596e-07
-2.35435e-07
2.31722e-07
-3.3315e-07
2.80804e-07
-4.42724e-07
3.21059e-07
-5.61095e-07
3.51281e-07
-6.85027e-07
3.70946e-07
-8.11242e-07
3.80006e-07
-9.36526e-07
3.78757e-07
-1.05781e-06
3.67732e-07
-1.17222e-06
3.47636e-07
-1.27713e-06
3.19293e-07
-1.3702e-06
2.8361e-07
-1.44939e-06
2.4156e-07
-1.51298e-06
1.94161e-07
-1.55961e-06
1.42475e-07
-1.58825e-06
8.76009e-08
-1.59825e-06
3.06732e-08
-1.58934e-06
-2.71379e-08
-1.56161e-06
-8.46292e-08
-1.51558e-06
-1.40568e-07
-1.45216e-06
-1.937e-07
-1.37265e-06
-2.4276e-07
-1.27876e-06
-2.8649e-07
-1.17257e-06
-3.23663e-07
-1.05655e-06
-3.53108e-07
-9.33466e-07
-3.73752e-07
-8.06391e-07
-3.84659e-07
-6.78602e-07
-3.85085e-07
-5.53512e-07
-3.74542e-07
-4.34558e-07
-3.52877e-07
-3.25075e-07
-3.20364e-07
-2.28142e-07
-2.77839e-07
-1.46408e-07
-2.26864e-07
-8.19088e-08
-1.69966e-07
-3.58998e-08
-1.10905e-07
-8.75209e-09
-5.50646e-08
-1.05688e-08
-1.31551e-08
2.56992e-08
-5.0999e-08
9.76261e-08
-1.12033e-07
1.77971e-07
-1.944e-07
2.58327e-07
-2.95727e-07
3.33049e-07
-4.1315e-07
3.98227e-07
-5.43411e-07
4.5132e-07
-6.82989e-07
4.90859e-07
-8.28226e-07
5.16183e-07
-9.75446e-07
5.27226e-07
-1.12106e-06
5.24365e-07
-1.26162e-06
5.08298e-07
-1.39394e-06
4.79952e-07
-1.51507e-06
4.40427e-07
-1.6224e-06
3.90942e-07
-1.71365e-06
3.32809e-07
-1.7869e-06
2.67408e-07
-1.84061e-06
1.96182e-07
-1.87363e-06
1.20624e-07
-1.88523e-06
4.22793e-08
-1.87511e-06
-3.7262e-08
-1.84338e-06
-1.16364e-07
-1.79059e-06
-1.93353e-07
-1.71776e-06
-2.66528e-07
-1.62635e-06
-3.34176e-07
-1.51824e-06
-3.94595e-07
-1.39578e-06
-4.46128e-07
-1.26169e-06
-4.87197e-07
-1.11908e-06
-5.16361e-07
-9.71372e-07
-5.32366e-07
-8.22235e-07
-5.34221e-07
-6.75496e-07
-5.21281e-07
-5.35028e-07
-4.93344e-07
-4.04625e-07
-4.50768e-07
-2.87851e-07
-3.94613e-07
-1.87892e-07
-3.26823e-07
-1.07407e-07
-2.5045e-07
-4.84276e-08
-1.69884e-07
-1.23293e-08
-9.11629e-08
-2.2898e-08
-1.66001e-08
4.22994e-08
-6.32735e-08
1.44299e-07
-1.37195e-07
2.51893e-07
-2.35423e-07
3.56555e-07
-3.54717e-07
4.52342e-07
-4.91514e-07
5.35024e-07
-6.41984e-07
6.01791e-07
-8.0212e-07
6.50996e-07
-9.67841e-07
6.81904e-07
-1.13509e-06
6.94477e-07
-1.29994e-06
6.89209e-07
-1.45863e-06
6.66991e-07
-1.60768e-06
6.29007e-07
-1.74391e-06
5.76658e-07
-1.86448e-06
5.11504e-07
-1.9669e-06
4.35228e-07
-2.04909e-06
3.49602e-07
-2.10939e-06
2.56481e-07
-2.14655e-06
1.57785e-07
-2.15977e-06
5.54984e-08
-2.1487e-06
-4.83322e-08
-2.11346e-06
-1.51606e-07
-2.05464e-06
-2.52173e-07
-1.97331e-06
-3.47849e-07
-1.87105e-06
-4.36436e-07
-1.7499e-06
-5.1575e-07
-1.61237e-06
-5.83662e-07
-1.46141e-06
-6.38151e-07
-1.30041e-06
-6.77362e-07
-1.13309e-06
-6.99686e-07
-9.63464e-07
-7.03846e-07
-7.95748e-07
-6.88998e-07
-6.34241e-07
-6.54851e-07
-4.83209e-07
-6.01799e-07
-3.46746e-07
-5.31076e-07
-2.28639e-07
-4.4493e-07
-1.32254e-07
-3.46834e-07
-6.04674e-08
-2.41671e-07
-1.56792e-08
-1.35951e-07
-3.85773e-08
-1.98289e-08
6.21284e-08
-7.49842e-08
1.99455e-07
-1.61459e-07
3.38367e-07
-2.7526e-07
4.70357e-07
-4.12257e-07
5.89339e-07
-5.68144e-07
6.90912e-07
-7.38476e-07
7.72122e-07
-9.18727e-07
8.31247e-07
-1.10438e-06
8.67557e-07
-1.29101e-06
8.81104e-07
-1.47435e-06
8.7255e-07
-1.65038e-06
8.43021e-07
-1.81536e-06
7.93993e-07
-1.96591e-06
7.27203e-07
-2.09899e-06
6.44583e-07
-2.21197e-06
5.48211e-07
-2.30265e-06
4.40278e-07
-2.36924e-06
3.23073e-07
-2.41042e-06
1.98967e-07
-2.42533e-06
7.04092e-08
-2.41359e-06
-6.00782e-08
-2.37529e-06
-1.89904e-07
-2.31104e-06
-3.16417e-07
-2.22197e-06
-4.36924e-07
-2.1097e-06
-5.48708e-07
-1.97637e-06
-6.49073e-07
-1.82466e-06
-7.35381e-07
-1.65768e-06
-8.05124e-07
-1.47905e-06
-8.55993e-07
-1.29277e-06
-8.85974e-07
-1.10316e-06
-8.93452e-07
-9.14826e-07
-8.77332e-07
-7.325e-07
-8.37177e-07
-5.6095e-07
-7.7335e-07
-4.04844e-07
-6.87181e-07
-2.68635e-07
-5.8114e-07
-1.56452e-07
-4.59017e-07
-7.20539e-08
-3.26069e-07
-1.88388e-08
-1.89166e-07
-5.74162e-08
-2.28939e-08
8.50222e-08
-8.62371e-08
2.62798e-07
-1.84959e-07
4.37089e-07
-3.14063e-07
5.99461e-07
-4.68526e-07
7.43802e-07
-6.43275e-07
8.65661e-07
-8.33213e-07
9.62061e-07
-1.03327e-06
1.03131e-06
-1.23848e-06
1.07277e-06
-1.44404e-06
1.08666e-06
-1.64536e-06
1.07387e-06
-1.83817e-06
1.03583e-06
-2.01852e-06
9.74341e-07
-2.18283e-06
8.91513e-07
-2.32793e-06
7.8968e-07
-2.45106e-06
6.71342e-07
-2.54991e-06
5.39132e-07
-2.62263e-06
3.9579e-07
-2.66782e-06
2.44154e-07
-2.68456e-06
8.7149e-08
-2.67243e-06
-7.221e-08
-2.6315e-06
-2.30828e-07
-2.56238e-06
-3.85538e-07
-2.46619e-06
-5.33113e-07
-2.3446e-06
-6.70299e-07
-2.19982e-06
-7.93853e-07
-2.03461e-06
-9.00596e-07
-1.85224e-06
-9.87489e-07
-1.65651e-06
-1.05172e-06
-1.45167e-06
-1.09082e-06
-1.24236e-06
-1.10276e-06
-1.03356e-06
-1.08614e-06
-8.30451e-07
-1.04029e-06
-6.38342e-07
-9.65458e-07
-4.62528e-07
-8.62996e-07
-3.08175e-07
-7.35493e-07
-1.80226e-07
-5.86966e-07
-8.33361e-08
-4.22959e-07
-2.18725e-08
-2.5063e-07
-7.92886e-08
-2.58509e-08
1.10873e-07
-9.71739e-08
3.34121e-07
-2.07917e-07
5.47832e-07
-3.52119e-07
7.43662e-07
-5.23868e-07
9.15552e-07
-7.17309e-07
1.0591e-06
-9.2667e-07
1.17142e-06
-1.14632e-06
1.25095e-06
-1.37081e-06
1.29726e-06
-1.59496e-06
1.31081e-06
-1.81388e-06
1.2928e-06
-2.02305e-06
1.245e-06
-2.21833e-06
1.16962e-06
-2.39598e-06
1.06917e-06
-2.55272e-06
9.46419e-07
-2.6857e-06
8.04321e-07
-2.79253e-06
6.45962e-07
-2.87129e-06
4.74548e-07
-2.92053e-06
2.93391e-07
-2.93928e-06
1.05901e-07
-2.92708e-06
-8.44122e-08
-2.88396e-06
-2.73944e-07
-2.8105e-06
-4.59001e-07
-2.7078e-06
-6.35814e-07
-2.57753e-06
-8.0057e-07
-2.42192e-06
-9.49455e-07
-2.2438e-06
-1.07871e-06
-2.04656e-06
-1.18473e-06
-1.83414e-06
-1.26414e-06
-1.61103e-06
-1.31393e-06
-1.38216e-06
-1.33163e-06
-1.1529e-06
-1.3154e-06
-9.28916e-07
-1.26427e-06
-7.16085e-07
-1.17829e-06
-5.20373e-07
-1.05871e-06
-3.47713e-07
-9.08153e-07
-2.039e-07
-7.30779e-07
-9.45079e-08
-5.32351e-07
-2.48512e-08
-3.20286e-07
-1.0414e-07
-2.8752e-08
1.39625e-07
-1.07941e-07
4.13311e-07
-2.30579e-07
6.70469e-07
-3.89761e-07
9.02845e-07
-5.78691e-07
1.10448e-06
-7.90714e-07
1.27112e-06
-1.01936e-06
1.40007e-06
-1.25842e-06
1.49001e-06
-1.50197e-06
1.5408e-06
-1.74442e-06
1.55326e-06
-1.98061e-06
1.52898e-06
-2.20576e-06
1.47016e-06
-2.41558e-06
1.37943e-06
-2.6062e-06
1.25979e-06
-2.77425e-06
1.11447e-06
-2.91682e-06
9.46886e-07
-3.03146e-06
7.60603e-07
-3.11621e-06
5.59299e-07
-3.16958e-06
3.46762e-07
-3.19056e-06
1.26883e-07
-3.17863e-06
-9.63383e-08
-3.13379e-06
-3.18789e-07
-3.05654e-06
-5.3625e-07
-2.94795e-06
-7.44406e-07
-2.80965e-06
-9.38872e-07
-2.64386e-06
-1.11524e-06
-2.45343e-06
-1.26915e-06
-2.24181e-06
-1.39635e-06
-2.01309e-06
-1.49286e-06
-1.77193e-06
-1.55509e-06
-1.5236e-06
-1.57996e-06
-1.27382e-06
-1.56517e-06
-1.02878e-06
-1.50931e-06
-7.94962e-07
-1.41211e-06
-5.7904e-07
-1.27463e-06
-3.87768e-07
-1.09942e-06
-2.27839e-07
-8.90707e-07
-1.05775e-07
-6.54416e-07
-2.78444e-08
-3.98217e-07
-1.31984e-07
-3.16435e-08
1.71269e-07
-1.18678e-07
5.00345e-07
-2.53188e-07
8.04979e-07
-4.27328e-07
1.07699e-06
-6.33406e-07
1.31056e-06
-8.63952e-07
1.50167e-06
-1.11179e-06
1.64791e-06
-1.37009e-06
1.74832e-06
-1.63245e-06
1.80316e-06
-1.8929e-06
1.81372e-06
-2.14598e-06
1.78206e-06
-2.38671e-06
1.71089e-06
-2.61064e-06
1.60336e-06
-2.81382e-06
1.46298e-06
-2.99282e-06
1.29347e-06
-3.14469e-06
1.09875e-06
-3.26696e-06
8.82876e-07
-3.35765e-06
6.49991e-07
-3.41525e-06
4.04355e-07
-3.43869e-06
1.50329e-07
-3.42742e-06
-1.07609e-07
-3.38136e-06
-3.64853e-07
-3.30094e-06
-6.16669e-07
-3.18715e-06
-8.58198e-07
-3.04154e-06
-1.08448e-06
-2.86629e-06
-1.29049e-06
-2.66422e-06
-1.47122e-06
-2.4388e-06
-1.62177e-06
-2.1942e-06
-1.73745e-06
-1.9353e-06
-1.81399e-06
-1.6676e-06
-1.84766e-06
-1.39725e-06
-1.83552e-06
-1.13093e-06
-1.77563e-06
-8.75765e-07
-1.66727e-06
-6.39206e-07
-1.51119e-06
-4.28874e-07
-1.30976e-06
-2.52413e-07
-1.06717e-06
-1.17341e-07
-7.89487e-07
-3.09173e-08
-4.84641e-07
-1.62901e-07
-3.45655e-08
2.05834e-07
-1.29509e-07
5.95288e-07
-2.75968e-07
9.51438e-07
-4.65135e-07
1.26615e-06
-6.88397e-07
1.53382e-06
-9.37443e-07
1.75072e-06
-1.20436e-06
1.91483e-06
-1.48171e-06
2.02567e-06
-1.76259e-06
2.08404e-06
-2.04066e-06
2.09178e-06
-2.31016e-06
2.05157e-06
-2.56595e-06
1.96668e-06
-2.80346e-06
1.84087e-06
-3.01869e-06
1.6782e-06
-3.20817e-06
1.48295e-06
-3.36896e-06
1.25954e-06
-3.49861e-06
1.01253e-06
-3.59514e-06
7.46521e-07
-3.65702e-06
4.66234e-07
-3.68317e-06
1.76478e-07
-3.67296e-06
-1.17813e-07
-3.62625e-06
-4.11567e-07
-3.54337e-06
-6.99554e-07
-3.42518e-06
-9.76384e-07
-3.27313e-06
-1.23652e-06
-3.08929e-06
-1.47433e-06
-2.8764e-06
-1.68412e-06
-2.63791e-06
-1.86026e-06
-2.37804e-06
-1.99733e-06
-2.10178e-06
-2.09025e-06
-1.81492e-06
-2.13453e-06
-1.52397e-06
-2.12647e-06
-1.23614e-06
-2.06346e-06
-9.59243e-07
-1.94417e-06
-7.01526e-07
-1.76891e-06
-4.71549e-07
-1.53973e-06
-2.77978e-07
-1.26074e-06
-1.29399e-07
-9.38065e-07
-3.41302e-08
-5.7991e-07
-1.97032e-07
-3.75533e-08
2.43388e-07
-1.40547e-07
6.98282e-07
-2.99123e-07
1.11001e-06
-5.03467e-07
1.4705e-06
-7.44002e-07
1.77436e-06
-1.01154e-06
2.01826e-06
-1.29742e-06
2.2007e-06
-1.59355e-06
2.3218e-06
-1.89255e-06
2.38303e-06
-2.18769e-06
2.38693e-06
-2.47299e-06
2.33687e-06
-2.74315e-06
2.23683e-06
-2.99351e-06
2.09123e-06
-3.22006e-06
1.90476e-06
-3.41938e-06
1.68227e-06
-3.58857e-06
1.42873e-06
-3.72522e-06
1.14918e-06
-3.82739e-06
8.48688e-07
-3.89356e-06
5.32404e-07
-3.92264e-06
2.05555e-07
-3.91394e-06
-1.2651e-07
-3.86722e-06
-4.58286e-07
-3.78269e-06
-7.84082e-07
-3.66107e-06
-1.098e-06
-3.50364e-06
-1.39396e-06
-3.3123e-06
-1.66567e-06
-3.08964e-06
-1.90677e-06
-2.83905e-06
-2.11085e-06
-2.56471e-06
-2.27166e-06
-2.27172e-06
-2.38324e-06
-1.96605e-06
-2.44019e-06
-1.6546e-06
-2.43792e-06
-1.34511e-06
-2.37295e-06
-1.04607e-06
-2.24321e-06
-7.66606e-07
-2.04837e-06
-5.16281e-07
-1.79006e-06
-3.04872e-07
-1.47215e-06
-1.42132e-07
-1.1008e-06
-3.75395e-08
-6.84503e-07
-2.34571e-07
-4.0639e-08
2.84027e-07
-1.51896e-07
8.09539e-07
-3.22841e-07
1.28096e-06
-5.42581e-07
1.69024e-06
-8.00515e-07
2.03229e-06
-1.08653e-06
2.30428e-06
-1.39117e-06
2.50534e-06
-1.70571e-06
2.63634e-06
-2.02224e-06
2.69957e-06
-2.33373e-06
2.69842e-06
-2.63396e-06
2.63709e-06
-2.91751e-06
2.52038e-06
-3.17972e-06
2.35345e-06
-3.41664e-06
2.14167e-06
-3.62491e-06
1.89054e-06
-3.80174e-06
1.60556e-06
-3.94482e-06
1.29226e-06
-4.05229e-06
9.56152e-07
-4.12266e-06
6.02778e-07
-4.15485e-06
2.37741e-07
-4.14811e-06
-1.33242e-07
-4.10211e-06
-5.04288e-07
-4.0169e-06
-8.69294e-07
-3.893e-06
-1.2219e-06
-3.73148e-06
-1.55548e-06
-3.534e-06
-1.86315e-06
-3.30296e-06
-2.13781e-06
-3.04155e-06
-2.37226e-06
-2.75388e-06
-2.55933e-06
-2.44505e-06
-2.69207e-06
-2.1212e-06
-2.76404e-06
-1.78954e-06
-2.76958e-06
-1.45834e-06
-2.70415e-06
-1.13681e-06
-2.56474e-06
-8.34988e-07
-2.35019e-06
-5.63524e-07
-2.06152e-06
-3.33416e-07
-1.70226e-06
-1.55714e-07
-1.27851e-06
-4.11987e-08
-7.99019e-07
-2.7577e-07
-4.3853e-08
3.2788e-07
-1.63654e-07
9.2934e-07
-3.47297e-07
1.4646e-06
-5.82712e-07
1.92565e-06
-8.5819e-07
2.30777e-06
-1.16263e-06
2.60872e-06
-1.48573e-06
2.82844e-06
-1.81811e-06
2.96872e-06
-2.15139e-06
3.03285e-06
-2.47819e-06
3.02522e-06
-2.79214e-06
2.95104e-06
-3.08778e-06
2.81602e-06
-3.3605e-06
2.62617e-06
-3.60646e-06
2.38763e-06
-3.82246e-06
2.10654e-06
-4.00588e-06
1.78898e-06
-4.15457e-06
1.44095e-06
-4.26679e-06
1.06837e-06
-4.34114e-06
6.77132e-07
-4.37655e-06
2.73155e-07
-4.37225e-06
-1.37545e-07
-4.32777e-06
-5.48771e-07
-4.24299e-06
-9.54074e-07
-4.1182e-06
-1.34669e-06
-3.95418e-06
-1.71951e-06
-3.75229e-06
-2.06504e-06
-3.51462e-06
-2.37548e-06
-3.24411e-06
-2.64278e-06
-2.94465e-06
-2.85878e-06
-2.62128e-06
-3.01544e-06
-2.28022e-06
-3.10511e-06
-1.92893e-06
-3.12086e-06
-1.57618e-06
-3.0569e-06
-1.23192e-06
-2.90901e-06
-9.07146e-07
-2.67496e-06
-6.13692e-07
-2.35498e-06
-3.63911e-07
-1.95204e-06
-1.70312e-07
-1.47211e-06
-4.51598e-08
-9.24171e-07
-3.2093e-07
-4.72267e-08
3.75106e-07
-1.75922e-07
1.05804e-06
-3.72669e-07
1.66135e-06
-6.24088e-07
2.17707e-06
-9.17251e-07
2.60093e-06
-1.23998e-06
2.93145e-06
-1.5811e-06
3.16955e-06
-1.93053e-06
3.31815e-06
-2.27943e-06
3.38175e-06
-2.62016e-06
3.36595e-06
-2.94621e-06
3.2771e-06
-3.25219e-06
3.12199e-06
-3.53361e-06
2.90759e-06
-3.78684e-06
2.64086e-06
-4.00893e-06
2.32864e-06
-4.19752e-06
1.97757e-06
-4.35068e-06
1.59411e-06
-4.46685e-06
1.18454e-06
-4.54478e-06
7.55061e-07
-4.58344e-06
3.11812e-07
-4.58202e-06
-1.38965e-07
-4.53994e-06
-5.9085e-07
-4.45688e-06
-1.03714e-06
-4.33284e-06
-1.47073e-06
-4.16825e-06
-1.88409e-06
-3.96409e-06
-2.2692e-06
-3.72203e-06
-2.61754e-06
-3.44463e-06
-2.92018e-06
-3.13547e-06
-3.16794e-06
-2.79937e-06
-3.35154e-06
-2.44252e-06
-3.46196e-06
-2.07259e-06
-3.4908e-06
-1.69876e-06
-3.43073e-06
-1.33171e-06
-3.27605e-06
-9.83474e-07
-3.0232e-06
-6.67165e-07
-2.67129e-06
-3.96648e-07
-2.22256e-06
-1.86092e-07
-1.68266e-06
-4.94755e-08
-1.06079e-06
-3.70405e-07
-5.07959e-08
4.25902e-07
-1.88815e-07
1.19605e-06
-3.9915e-07
1.87168e-06
-6.66948e-07
2.44487e-06
-9.77914e-07
2.9119e-06
-1.3187e-06
3.27223e-06
-1.67716e-06
3.52801e-06
-2.04254e-06
3.68354e-06
-2.40555e-06
3.74476e-06
-2.75832e-06
3.71872e-06
-3.09436e-06
3.61313e-06
-3.40836e-06
3.436e-06
-3.69613e-06
3.19536e-06
-3.95433e-06
2.89907e-06
-4.18038e-06
2.55468e-06
-4.37225e-06
2.16944e-06
-4.52834e-06
1.7502e-06
-4.64736e-06
1.30356e-06
-4.72822e-06
8.35926e-07
-4.77e-06
3.53592e-07
-4.77188e-06
-1.37088e-07
-4.73315e-06
-6.29576e-07
-4.65327e-06
-1.11701e-06
-4.53191e-06
-1.59209e-06
-4.36908e-06
-2.04693e-06
-4.16527e-06
-2.47302e-06
-3.92162e-06
-2.86119e-06
-3.64015e-06
-3.20164e-06
-3.32401e-06
-3.48409e-06
-2.97763e-06
-3.69792e-06
-2.60704e-06
-3.83256e-06
-2.21995e-06
-3.87788e-06
-1.82592e-06
-3.82476e-06
-1.43634e-06
-3.66563e-06
-1.06429e-06
-3.39525e-06
-7.24293e-07
-3.01128e-06
-4.31913e-07
-2.51493e-06
-2.03224e-07
-1.91135e-06
-5.42012e-08
-1.20981e-06
-4.24606e-07
-5.46041e-08
4.80506e-07
-2.02467e-07
1.34392e-06
-4.2697e-07
2.09619e-06
-7.11564e-07
2.72946e-06
-1.04041e-06
3.24074e-06
-1.39884e-06
3.63066e-06
-1.7737e-06
3.90287e-06
-2.15353e-06
4.06337e-06
-2.52862e-06
4.11986e-06
-2.89099e-06
4.08109e-06
-3.23422e-06
3.95636e-06
-3.55329e-06
3.75507e-06
-3.84437e-06
3.48644e-06
-4.1046e-06
3.15929e-06
-4.33186e-06
2.78194e-06
-4.52458e-06
2.36216e-06
-4.68161e-06
1.90722e-06
-4.80197e-06
1.42393e-06
-4.88485e-06
9.18804e-07
-4.92945e-06
3.98191e-07
-4.93497e-06
-1.31565e-07
-4.9006e-06
-6.63946e-07
-4.82554e-06
-1.19207e-06
-4.70909e-06
-1.70854e-06
-4.55077e-06
-2.20525e-06
-4.35046e-06
-2.67333e-06
-4.10865e-06
-3.10299e-06
-3.82669e-06
-3.4836e-06
-3.50705e-06
-3.80373e-06
-3.15364e-06
-4.05133e-06
-2.77208e-06
-4.21411e-06
-2.37003e-06
-4.27994e-06
-1.95725e-06
-4.23753e-06
-1.54579e-06
-4.07709e-06
-1.14982e-06
-3.79122e-06
-7.854e-07
-3.37571e-06
-4.69997e-07
-2.83034e-06
-2.21889e-07
-2.15946e-06
-5.93975e-08
-1.3723e-06
-4.84004e-07
-5.87075e-08
5.39214e-07
-2.17054e-07
1.50226e-06
-4.56418e-07
2.33555e-06
-7.58273e-07
3.03132e-06
-1.105e-06
3.58747e-06
-1.48046e-06
4.00612e-06
-1.8704e-06
4.29281e-06
-2.26266e-06
4.45563e-06
-2.64719e-06
4.50439e-06
-3.01598e-06
4.44988e-06
-3.36285e-06
4.30323e-06
-3.68322e-06
4.07543e-06
-3.9738e-06
3.77702e-06
-4.23234e-06
3.41783e-06
-4.45736e-06
3.00696e-06
-4.64789e-06
2.5527e-06
-4.8033e-06
2.06262e-06
-4.92306e-06
1.54369e-06
-5.00669e-06
1.00243e-06
-5.05358e-06
4.45083e-07
-5.06299e-06
-1.22154e-07
-5.034e-06
-6.92929e-07
-4.96557e-06
-1.2605e-06
-4.85658e-06
-1.81754e-06
-4.70596e-06
-2.35587e-06
-4.51291e-06
-2.86637e-06
-4.27712e-06
-3.33878e-06
-3.99906e-06
-3.76167e-06
-3.68033e-06
-4.12246e-06
-3.32406e-06
-4.4076e-06
-2.93528e-06
-4.60289e-06
-2.52129e-06
-4.69393e-06
-2.09195e-06
-4.66687e-06
-1.65984e-06
-4.50921e-06
-1.24022e-06
-4.21084e-06
-8.50796e-07
-3.76513e-06
-5.1121e-07
-3.16992e-06
-2.42289e-07
-2.42838e-06
-6.51343e-08
-1.54946e-06
-5.49138e-07
-6.31816e-08
6.02395e-07
-2.32806e-07
1.67189e-06
-4.8787e-07
2.59062e-06
-8.07505e-07
3.35095e-06
-1.17201e-06
3.95198e-06
-1.5636e-06
4.39771e-06
-1.96683e-06
4.69604e-06
-2.36885e-06
4.85764e-06
-2.75938e-06
4.89491e-06
-3.13053e-06
4.82103e-06
-3.47656e-06
4.64926e-06
-3.79351e-06
4.39238e-06
-4.07885e-06
4.06235e-06
-4.33113e-06
3.67011e-06
-4.54967e-06
3.2255e-06
-4.73424e-06
2.73727e-06
-4.88486e-06
2.21324e-06
-5.00158e-06
1.6604e-06
-5.08429e-06
1.08514e-06
-5.13267e-06
4.93462e-07
-5.14607e-06
-1.08755e-07
-5.1235e-06
-7.155e-07
-5.06364e-06
-1.32036e-06
-4.96494e-06
-1.91624e-06
-4.8257e-06
-2.49511e-06
-4.64431e-06
-3.04776e-06
-4.41949e-06
-3.5636e-06
-4.15066e-06
-4.0305e-06
-3.83831e-06
-4.43481e-06
-3.4845e-06
-4.76141e-06
-3.09335e-06
-4.99403e-06
-2.67156e-06
-5.11572e-06
-2.22879e-06
-5.10964e-06
-1.778e-06
-4.96e-06
-1.33551e-06
-4.65333e-06
-9.2078e-07
-4.17986e-06
-5.55893e-07
-3.53481e-06
-2.6466e-07
-2.71961e-06
-7.14958e-08
-1.74262e-06
-6.20634e-07
-6.81294e-08
6.70525e-07
-2.50035e-07
1.85379e-06
-5.21831e-07
2.86241e-06
-8.59825e-07
3.68894e-06
-1.24188e-06
4.33403e-06
-1.6483e-06
4.80413e-06
-2.0624e-06
5.11014e-06
-2.47069e-06
5.26593e-06
-2.86279e-06
5.28701e-06
-3.23118e-06
5.18942e-06
-3.57077e-06
4.98886e-06
-3.8785e-06
4.70011e-06
-4.15281e-06
4.33667e-06
-4.39328e-06
3.91059e-06
-4.60021e-06
3.43242e-06
-4.77428e-06
2.91134e-06
-4.91629e-06
2.35526e-06
-5.02694e-06
1.77106e-06
-5.10664e-06
1.16484e-06
-5.15539e-06
5.42211e-07
-5.17269e-06
-9.14551e-08
-5.15751e-06
-7.30682e-07
-5.10828e-06
-1.36958e-06
-5.02299e-06
-2.00154e-06
-4.89925e-06
-2.61885e-06
-4.73455e-06
-3.21246e-06
-4.52652e-06
-3.77163e-06
-4.27329e-06
-4.28373e-06
-3.97398e-06
-4.73412e-06
-3.62927e-06
-5.10613e-06
-3.24199e-06
-5.38131e-06
-2.81785e-06
-5.53986e-06
-2.36599e-06
-5.5615e-06
-1.89949e-06
-5.4265e-06
-1.43561e-06
-5.11722e-06
-9.95654e-07
-4.61981e-06
-6.04445e-07
-3.92602e-06
-2.89291e-07
-3.03477e-06
-7.85868e-08
-1.95332e-06
-6.99221e-07
-7.36944e-08
7.44219e-07
-2.6917e-07
2.04927e-06
-5.58977e-07
3.15222e-06
-9.15977e-07
4.04594e-06
-1.31512e-06
4.73317e-06
-1.73456e-06
5.22358e-06
-2.1563e-06
5.53188e-06
-2.56631e-06
5.67595e-06
-2.95437e-06
5.67507e-06
-3.31357e-06
5.54862e-06
-3.63983e-06
5.31512e-06
-3.93126e-06
4.99153e-06
-4.18758e-06
4.59299e-06
-4.40962e-06
4.13263e-06
-4.59887e-06
3.62167e-06
-4.75706e-06
3.06954e-06
-4.88593e-06
2.48413e-06
-4.98693e-06
1.87205e-06
-5.06105e-06
1.23896e-06
-5.10869e-06
5.89856e-07
-5.12957e-06
-7.05747e-08
-5.12266e-06
-7.37597e-07
-5.08617e-06
-1.40607e-06
-5.01762e-06
-2.07009e-06
-4.91393e-06
-2.72254e-06
-4.7716e-06
-3.35478e-06
-4.58704e-06
-3.95619e-06
-4.35688e-06
-4.51388e-06
-4.07861e-06
-5.0124e-06
-3.75112e-06
-5.43362e-06
-3.37556e-06
-5.75686e-06
-2.95616e-06
-5.95926e-06
-2.50108e-06
-6.01659e-06
-2.02312e-06
-5.90445e-06
-1.54028e-06
-5.60006e-06
-1.07573e-06
-5.08436e-06
-6.57346e-07
-4.3444e-06
-3.16546e-07
-3.37557e-06
-8.65436e-08
-2.18333e-06
-7.85765e-07
-8.00766e-08
8.24296e-07
-2.90795e-07
2.25999e-06
-6.00218e-07
3.46164e-06
-9.76927e-07
4.42265e-06
-1.39238e-06
5.14861e-06
-1.8223e-06
5.6535e-06
-2.24736e-06
5.95695e-06
-2.65322e-06
6.0818e-06
-3.0301e-06
6.05195e-06
-3.37216e-06
5.89068e-06
-3.67668e-06
5.61964e-06
-3.94333e-06
5.25818e-06
-4.17342e-06
4.82307e-06
-4.36928e-06
4.32849e-06
-4.53379e-06
3.78617e-06
-4.66991e-06
3.20566e-06
-4.78041e-06
2.59462e-06
-4.86758e-06
1.95923e-06
-4.93308e-06
1.30446e-06
-4.97778e-06
6.34554e-07
-5.00166e-06
-4.67013e-08
-5.00373e-06
-7.35521e-07
-4.98206e-06
-1.42775e-06
-4.93373e-06
-2.11842e-06
-4.85495e-06
-2.80131e-06
-4.74124e-06
-3.46849e-06
-4.58765e-06
-4.10979e-06
-4.38917e-06
-4.71236e-06
-4.14133e-06
-5.26024e-06
-3.84089e-06
-5.73406e-06
-3.48678e-06
-6.11097e-06
-3.08118e-06
-6.36486e-06
-2.63064e-06
-6.46713e-06
-2.14716e-06
-6.38793e-06
-1.64907e-06
-6.09815e-06
-1.16133e-06
-5.57209e-06
-7.15198e-07
-4.79054e-06
-3.46903e-07
-3.74386e-06
-9.55488e-08
-2.43468e-06
-8.81313e-07
-8.75575e-08
9.11853e-07
-3.15716e-07
2.48815e-06
-6.46767e-07
3.79269e-06
-1.0439e-06
4.81979e-06
-1.47438e-06
5.57909e-06
-1.91121e-06
6.09033e-06
-2.33384e-06
6.37957e-06
-2.72793e-06
6.4759e-06
-3.08467e-06
6.40869e-06
-3.39978e-06
6.20579e-06
-3.67244e-06
5.8923e-06
-3.90428e-06
5.49003e-06
-4.09855e-06
5.01734e-06
-4.25936e-06
4.4893e-06
-4.39114e-06
3.91796e-06
-4.49822e-06
3.31274e-06
-4.58449e-06
2.68089e-06
-4.65314e-06
2.02788e-06
-4.70656e-06
1.35788e-06
-4.7461e-06
6.74102e-07
-4.77209e-06
-2.07161e-08
-4.78366e-06
-7.23951e-07
-4.77876e-06
-1.43264e-06
-4.75414e-06
-2.14304e-06
-4.70535e-06
-2.8501e-06
-4.62692e-06
-3.54692e-06
-4.51253e-06
-4.22418e-06
-4.3554e-06
-4.86949e-06
-4.14885e-06
-5.46679e-06
-3.8871e-06
-5.99581e-06
-3.56631e-06
-6.43175e-06
-3.1859e-06
-6.74527e-06
-2.75002e-06
-6.90301e-06
-2.2691e-06
-6.86884e-06
-1.7612e-06
-6.60605e-06
-1.2528e-06
-6.08049e-06
-7.78766e-07
-5.26458e-06
-3.81002e-07
-4.14163e-06
-1.05853e-07
-2.70983e-06
-9.87167e-07
-9.65366e-08
1.00839e-06
-3.45042e-07
2.73665e-06
-7.00229e-07
4.14788e-06
-1.11843e-06
5.23799e-06
-1.56184e-06
6.0225e-06
-2.00054e-06
6.52903e-06
-2.41301e-06
6.79205e-06
-2.78552e-06
6.8484e-06
-3.11089e-06
6.73407e-06
-3.38712e-06
6.48201e-06
-3.61586e-06
6.12104e-06
-3.80123e-06
5.6754e-06
-3.94875e-06
5.16487e-06
-4.06457e-06
4.60512e-06
-4.15483e-06
4.00822e-06
-4.22528e-06
3.38319e-06
-4.28096e-06
2.73657e-06
-4.32601e-06
2.07293e-06
-4.36352e-06
1.39538e-06
-4.3954e-06
7.0598e-07
-4.42231e-06
6.20118e-09
-4.4436e-06
-7.02659e-07
-4.45721e-06
-1.41904e-06
-4.45963e-06
-2.14062e-06
-4.44589e-06
-2.86384e-06
-4.40962e-06
-3.58319e-06
-4.34318e-06
-4.29062e-06
-4.23797e-06
-4.97471e-06
-4.08493e-06
-5.61983e-06
-3.87538e-06
-6.20536e-06
-3.60213e-06
-6.705e-06
-3.26103e-06
-7.08638e-06
-2.85284e-06
-7.3112e-06
-2.38535e-06
-7.33634e-06
-1.8754e-06
-7.11601e-06
-1.35044e-06
-6.60544e-06
-8.49041e-07
-5.76598e-06
-4.1972e-07
-4.57095e-06
-1.17812e-07
-3.01174e-06
-1.10498e-06
-1.07589e-07
1.11598e-06
-3.80308e-07
3.00937e-06
-7.62703e-07
4.53027e-06
-1.20229e-06
5.67758e-06
-1.65523e-06
6.47544e-06
-2.08864e-06
6.96244e-06
-2.48059e-06
7.184e-06
-2.81884e-06
7.18665e-06
-3.09887e-06
7.0141e-06
-3.3218e-06
6.70494e-06
-3.49252e-06
6.29176e-06
-3.61814e-06
5.80101e-06
-3.7068e-06
5.25353e-06
-3.76684e-06
4.66516e-06
-3.8062e-06
4.04758e-06
-3.83206e-06
3.40905e-06
-3.85057e-06
2.75509e-06
-3.86676e-06
2.08912e-06
-3.88437e-06
1.41299e-06
-3.90584e-06
7.27457e-07
-3.93224e-06
3.25976e-08
-3.96315e-06
-6.71751e-07
-3.99661e-06
-1.38557e-06
-4.02903e-06
-2.1082e-06
-4.05511e-06
-2.83776e-06
-4.06776e-06
-3.57054e-06
-4.05819e-06
-4.30019e-06
-4.01606e-06
-5.01683e-06
-3.92991e-06
-5.70598e-06
-3.78787e-06
-6.34741e-06
-3.57885e-06
-6.91402e-06
-3.29427e-06
-7.37096e-06
-2.9303e-06
-7.67517e-06
-2.49065e-06
-7.77598e-06
-1.98956e-06
-7.6171e-06
-1.45443e-06
-7.14058e-06
-9.27297e-07
-6.29311e-06
-4.64278e-07
-5.03397e-06
-1.31938e-07
-3.34408e-06
-1.23692e-06
-1.21555e-07
1.23753e-06
-4.23643e-07
3.31146e-06
-8.36887e-07
4.94352e-06
-1.29741e-06
6.1381e-06
-1.75437e-06
6.9324e-06
-2.17219e-06
7.38026e-06
-2.52964e-06
7.54145e-06
-2.81736e-06
7.47437e-06
-3.0348e-06
7.23154e-06
-3.18733e-06
6.85748e-06
-3.28387e-06
6.38829e-06
-3.33501e-06
5.85216e-06
-3.35179e-06
5.27031e-06
-3.34482e-06
4.65819e-06
-3.32377e-06
4.02654e-06
-3.29714e-06
3.38241e-06
-3.27205e-06
2.73e-06
-3.25424e-06
2.07131e-06
-3.24804e-06
1.40679e-06
-3.25633e-06
7.35749e-07
-3.28055e-06
5.68134e-08
-3.32059e-06
-6.31709e-07
-3.37474e-06
-1.33143e-06
-3.4395e-06
-2.04343e-06
-3.5095e-06
-2.76777e-06
-3.57725e-06
-3.50279e-06
-3.63313e-06
-4.24431e-06
-3.66533e-06
-4.98463e-06
-3.66011e-06
-5.7112e-06
-3.60237e-06
-6.40515e-06
-3.4767e-06
-7.03969e-06
-3.26921e-06
-7.57845e-06
-2.97012e-06
-7.97426e-06
-2.57725e-06
-8.16885e-06
-2.10021e-06
-8.09414e-06
-1.56459e-06
-7.6762e-06
-1.01514e-06
-6.84256e-06
-5.16391e-07
-5.53271e-06
-1.48995e-07
-3.71148e-06
-1.38591e-06
-1.39696e-07
1.37723e-06
-4.78016e-07
3.64978e-06
-9.2615e-07
5.39165e-06
-1.40553e-06
6.61748e-06
-1.85755e-06
7.38442e-06
-2.24495e-06
7.76766e-06
-2.54908e-06
7.84558e-06
-2.76548e-06
7.69078e-06
-2.89934e-06
7.36539e-06
-2.96157e-06
6.91972e-06
-2.96592e-06
6.39264e-06
-2.92687e-06
5.81311e-06
-2.85844e-06
5.20188e-06
-2.77341e-06
4.57315e-06
-2.68296e-06
3.93609e-06
-2.5966e-06
3.29606e-06
-2.52216e-06
2.65555e-06
-2.46584e-06
2.01499e-06
-2.43233e-06
1.37328e-06
-2.42484e-06
7.2826e-07
-2.44512e-06
7.70975e-08
-2.49343e-06
-5.83401e-07
-2.56841e-06
-1.25645e-06
-2.66692e-06
-1.94492e-06
-2.78382e-06
-2.65087e-06
-2.91168e-06
-3.37492e-06
-3.04052e-06
-4.11548e-06
-3.15757e-06
-4.86757e-06
-3.24727e-06
-5.6215e-06
-3.29146e-06
-6.36095e-06
-3.27031e-06
-7.06084e-06
-3.16389e-06
-7.68486e-06
-2.95504e-06
-8.18311e-06
-2.6335e-06
-8.49039e-06
-2.20147e-06
-8.52617e-06
-1.67993e-06
-8.19774e-06
-1.1145e-06
-7.40799e-06
-5.78498e-07
-6.06871e-06
-1.70149e-07
-4.11983e-06
-1.55606e-06
-1.63952e-07
1.54118e-06
-5.47577e-07
4.0334e-06
-1.03447e-06
5.87855e-06
-1.52741e-06
7.11042e-06
-1.95997e-06
7.81698e-06
-2.29554e-06
8.10322e-06
-2.52112e-06
8.07116e-06
-2.64001e-06
7.80967e-06
-2.66529e-06
7.39067e-06
-2.61478e-06
6.86921e-06
-2.50772e-06
6.28557e-06
-2.36264e-06
5.66803e-06
-2.19633e-06
5.03557e-06
-2.02334e-06
4.40016e-06
-1.85592e-06