/*--------------------------------*- C++ -*----------------------------------*\
  =========                 |
  \\      /  F ield         | OpenFOAM: The Open Source CFD Toolbox
   \\    /   O peration     | Website:  https://openfoam.org
    \\  /    A nd           | Version:  6.0
     \\/     M anipulation  |
\*---------------------------------------------------------------------------*/
FoamFile
{
    version     2.0;
    format      ascii;
    class       volVectorField;
    location    "0.2";
    object      U;
}
// * * * * * * * * * * * * * * * * * * * * * * * * * * * * * * * * * * * * * //

dimensions      [0 1 -1 0 0 0 0];

internalField   nonuniform List<vector> 
1600
(
(6.07824e-05 -6.01801e-05 0)
(0.000155867 -5.67758e-05 0)
(0.000156553 -6.8618e-06 0)
(6.04286e-06 5.26147e-05 0)
(-0.000303872 0.000108162 0)
(-0.000757004 0.000155049 0)
(-0.00132889 0.000191909 0)
(-0.00199257 0.000218775 0)
(-0.00272084 0.000236223 0)
(-0.00348742 0.000244996 0)
(-0.0042676 0.000245885 0)
(-0.00503851 0.000239674 0)
(-0.0057793 0.000227125 0)
(-0.00647121 0.000208972 0)
(-0.00709762 0.000185925 0)
(-0.00764404 0.000158677 0)
(-0.00809814 0.000127911 0)
(-0.00844978 9.43083e-05 0)
(-0.00869104 5.85587e-05 0)
(-0.00881629 2.13712e-05 0)
(-0.00882223 -1.65178e-05 0)
(-0.00870801 -5.43399e-05 0)
(-0.00847532 -9.12913e-05 0)
(-0.00812845 -0.000126532 0)
(-0.00767442 -0.000159189 0)
(-0.00712301 -0.000188364 0)
(-0.00648677 -0.000213143 0)
(-0.00578104 -0.000232609 0)
(-0.00502387 -0.000245863 0)
(-0.00423583 -0.000252038 0)
(-0.00343984 -0.000250318 0)
(-0.00266084 -0.000239964 0)
(-0.00192533 -0.00022034 0)
(-0.0012608 -0.000190966 0)
(-0.000694804 -0.000151645 0)
(-0.000253575 -0.000102801 0)
(4.03901e-05 -4.63147e-05 0)
(0.000173962 1.25805e-05 0)
(0.000160167 6.01562e-05 0)
(6.02378e-05 6.00066e-05 0)
(5.8916e-05 -0.000156638 0)
(7.27148e-05 -6.88447e-05 0)
(-0.00017858 0.000182667 0)
(-0.000772897 0.000477135 0)
(-0.00172476 0.000761094 0)
(-0.00300767 0.0010094 0)
(-0.0045731 0.00121074 0)
(-0.0063617 0.00136119 0)
(-0.00830971 0.00146067 0)
(-0.010353 0.00151107 0)
(-0.0124292 0.00151535 0)
(-0.0144795 0.00147707 0)
(-0.0164494 0.00140011 0)
(-0.0182893 0.00128851 0)
(-0.019955 0.0011464 0)
(-0.0214077 0.000977999 0)
(-0.0226142 0.000787554 0)
(-0.0235475 0.000579402 0)
(-0.0241865 0.000357974 0)
(-0.0245162 0.000127831 0)
(-0.0245281 -0.000106308 0)
(-0.0242205 -0.000339556 0)
(-0.0235982 -0.000566856 0)
(-0.0226732 -0.000782987 0)
(-0.0214648 -0.000982603 0)
(-0.0199993 -0.00116029 0)
(-0.0183103 -0.00131064 0)
(-0.0164386 -0.00142835 0)
(-0.0144317 -0.00150839 0)
(-0.0123431 -0.00154607 0)
(-0.010232 -0.00153733 0)
(-0.00816157 -0.00147887 0)
(-0.00619802 -0.00136855 0)
(-0.00440802 -0.00120579 0)
(-0.00285596 -0.000992514 0)
(-0.00159956 -0.000734766 0)
(-0.000683261 -0.000446092 0)
(-0.000127228 -0.000153639 0)
(9.17826e-05 8.81829e-05 0)
(6.17015e-05 0.000160564 0)
(1.14502e-05 -0.000162369 0)
(-0.000171904 0.000179026 0)
(-0.000803833 0.000814153 0)
(-0.0019305 0.00153618 0)
(-0.0035527 0.00223816 0)
(-0.00563449 0.00286068 0)
(-0.00811112 0.00337214 0)
(-0.0109011 0.00375815 0)
(-0.013915 0.00401456 0)
(-0.0170609 0.00414329 0)
(-0.020248 0.00415003 0)
(-0.0233896 0.00404276 0)
(-0.0264043 0.00383091 0)
(-0.0292177 0.00352478 0)
(-0.031763 0.00313529 0)
(-0.0339815 0.00267372 0)
(-0.035823 0.00215173 0)
(-0.0372462 0.00158126 0)
(-0.0382193 0.000974597 0)
(-0.0387197 0.0003444 0)
(-0.0387348 -0.00029626 0)
(-0.0382622 -0.000933892 0)
(-0.0373097 -0.00155459 0)
(-0.0358959 -0.0021441 0)
(-0.0340502 -0.00268793 0)
(-0.0318128 -0.00317151 0)
(-0.0292348 -0.00358045 0)
(-0.0263774 -0.0039008 0)
(-0.0233118 -0.00411951 0)
(-0.0201178 -0.0042248 0)
(-0.0168829 -0.00420682 0)
(-0.0136999 -0.00405829 0)
(-0.0106646 -0.00377553 0)
(-0.0078725 -0.00335981 0)
(-0.00541393 -0.00281957 0)
(-0.00336837 -0.00217414 0)
(-0.00179546 -0.00146014 0)
(-0.000723137 -0.000741304 0)
(-0.000139003 -0.000126759 0)
(1.76015e-05 0.000179726 0)
(-4.5485e-05 -2.17449e-05 0)
(-0.000464277 0.000768342 0)
(-0.00153468 0.00194122 0)
(-0.00324031 0.00322581 0)
(-0.00555197 0.00446663 0)
(-0.00841868 0.00556887 0)
(-0.0117595 0.00647754 0)
(-0.0154746 0.00716456 0)
(-0.0194542 0.00761928 0)
(-0.023585 0.00784239 0)
(-0.0277541 0.00784201 0)
(-0.031853 0.00763115 0)
(-0.035779 0.00722606 0)
(-0.0394379 0.00664513 0)
(-0.0427447 0.00590822 0)
(-0.0456244 0.00503625 0)
(-0.048013 0.00405094 0)
(-0.0498579 0.00297478 0)
(-0.0511182 0.00183092 0)
(-0.0517652 0.000643292 0)
(-0.0517832 -0.000563451 0)
(-0.051169 -0.00176389 0)
(-0.0499331 -0.00293193 0)
(-0.0480994 -0.00404088 0)
(-0.0457057 -0.00506377 0)
(-0.0428034 -0.0059736 0)
(-0.0394574 -0.00674386 0)
(-0.0357458 -0.00734912 0)
(-0.0317584 -0.00776577 0)
(-0.0275962 -0.00797293 0)
(-0.0233687 -0.0079536 0)
(-0.0191919 -0.007696 0)
(-0.0151848 -0.0071954 0)
(-0.0114652 -0.00645661 0)
(-0.00814426 -0.0054975 0)
(-0.00531999 -0.00435453 0)
(-0.00306775 -0.00309121 0)
(-0.00142939 -0.00180966 0)
(-0.000420036 -0.000669736 0)
(-3.67837e-05 5.94547e-05 0)
(-0.000100603 0.000278736 0)
(-0.000760936 0.001729 0)
(-0.0022885 0.00359098 0)
(-0.00459103 0.00555404 0)
(-0.00759889 0.00742568 0)
(-0.01124 0.00908087 0)
(-0.0154149 0.0104427 0)
(-0.0200053 0.0114691 0)
(-0.0248838 0.0121422 0)
(-0.0299191 0.0124609 0)
(-0.0349803 0.0124356 0)
(-0.0399412 0.0120846 0)
(-0.0446823 0.0114319 0)
(-0.0490933 0.0105052 0)
(-0.0530747 0.00933485 0)
(-0.0565385 0.00795324 0)
(-0.0594096 0.00639426 0)
(-0.061626 0.00469309 0)
(-0.0631397 0.00288616 0)
(-0.0639171 0.00101103 0)
(-0.0639395 -0.000893535 0)
(-0.0632036 -0.00278765 0)
(-0.0617216 -0.00463044 0)
(-0.0595216 -0.00638025 0)
(-0.056648 -0.00799504 0)
(-0.0531611 -0.00943295 0)
(-0.049137 -0.010653 0)
(-0.0446668 -0.0116162 0)
(-0.0398557 -0.0122866 0)
(-0.034821 -0.0126326 0)
(-0.0296905 -0.0126292 0)
(-0.0245988 -0.0122598 0)
(-0.0196841 -0.0115186 0)
(-0.0150833 -0.0104149 0)
(-0.0109263 -0.00897706 0)
(-0.00732986 -0.00725931 0)
(-0.0043879 -0.00535122 0)
(-0.00216258 -0.00338908 0)
(-0.000707053 -0.00157316 0)
(-8.97372e-05 -0.000214925 0)
(-0.000150872 0.000732503 0)
(-0.00104548 0.00306171 0)
(-0.00302772 0.0057707 0)
(-0.00592701 0.00852821 0)
(-0.0096281 0.0111163 0)
(-0.0140331 0.0133867 0)
(-0.0190208 0.0152445 0)
(-0.0244536 0.0166352 0)
(-0.0301865 0.0175348 0)
(-0.036072 0.0179406 0)
(-0.0419636 0.0178658 0)
(-0.0477202 0.0173346 0)
(-0.0532084 0.0163796 0)
(-0.058305 0.0150388 0)
(-0.0628987 0.0133545 0)
(-0.0668912 0.0113721 0)
(-0.0701983 0.00913915 0)
(-0.0727507 0.00670547 0)
(-0.0744946 0.0041225 0)
(-0.0753924 0.00144345 0)
(-0.075423 -0.00127684 0)
(-0.0745824 -0.00398199 0)
(-0.0728842 -0.00661428 0)
(-0.0703597 -0.009115 0)
(-0.0670581 -0.011425 0)
(-0.0630467 -0.0134856 0)
(-0.0584101 -0.0152394 0)
(-0.05325 -0.0166319 0)
(-0.0476836 -0.0176132 0)
(-0.0418419 -0.0181399 0)
(-0.0358677 -0.0181777 0)
(-0.0299118 -0.0177042 0)
(-0.0241293 -0.0167127 0)
(-0.018675 -0.015216 0)
(-0.0136977 -0.0132527 0)
(-0.00933427 -0.0108935 0)
(-0.00570096 -0.00825088 0)
(-0.0028851 -0.00548941 0)
(-0.000983311 -0.00283952 0)
(-0.000138037 -0.000637741 0)
(-0.000196205 0.00132924 0)
(-0.00131357 0.00475505 0)
(-0.0037386 0.00847276 0)
(-0.00722517 0.0121427 0)
(-0.0116108 0.0155314 0)
(-0.0167688 0.0184743 0)
(-0.0225534 0.0208632 0)
(-0.0288061 0.022635 0)
(-0.0353639 0.0237608 0)
(-0.0420633 0.0242381 0)
(-0.0487436 0.0240838 0)
(-0.0552504 0.0233294 0)
(-0.0614387 0.0220167 0)
(-0.0671744 0.0201954 0)
(-0.0723368 0.017921 0)
(-0.0768191 0.0152528 0)
(-0.08053 0.0122537 0)
(-0.0833944 0.00898945 0)
(-0.0853537 0.00552796 0)
(-0.086367 0.00193955 0)
(-0.0864111 -0.00170331 0)
(-0.0854813 -0.00532619 0)
(-0.0835918 -0.00885291 0)
(-0.0807758 -0.0122061 0)
(-0.0770862 -0.0153078 0)
(-0.0725952 -0.0180808 0)
(-0.0673942 -0.0204496 0)
(-0.0615929 -0.0223427 0)
(-0.0553184 -0.0236947 0)
(-0.0487133 -0.0244486 0)
(-0.0419334 -0.0245596 0)
(-0.035144 -0.0239984 0)
(-0.0285167 -0.0227556 0)
(-0.022224 -0.0208468 0)
(-0.0164347 -0.0183185 0)
(-0.0113082 -0.0152555 0)
(-0.00698599 -0.0117893 0)
(-0.00358416 -0.00810648 0)
(-0.00124468 -0.0044595 0)
(-0.000181568 -0.0011993 0)
(-0.000237542 0.00205925 0)
(-0.00156645 0.00679449 0)
(-0.00442009 0.0116838 0)
(-0.00848135 0.0163862 0)
(-0.0135409 0.0206598 0)
(-0.0194413 0.0243307 0)
(-0.0260106 0.0272824 0)
(-0.0330676 0.0294466 0)
(-0.0404305 0.030793 0)
(-0.0479196 0.0313212 0)
(-0.0553604 0.0310538 0)
(-0.0625865 0.0300306 0)
(-0.0694424 0.0283044 0)
(-0.0757851 0.0259376 0)
(-0.0814858 0.0229998 0)
(-0.0864311 0.0195659 0)
(-0.0905242 0.015715 0)
(-0.0936849 0.0115296 0)
(-0.0958513 0.0070955 0)
(-0.0969794 0.00250111 0)
(-0.097044 -0.00216238 0)
(-0.0960396 -0.00680132 0)
(-0.0939802 -0.0113199 0)
(-0.0909001 -0.0156208 0)
(-0.0868543 -0.019606 0)
(-0.0819185 -0.0231782 0)
(-0.0761888 -0.0262425 0)
(-0.0697814 -0.0287086 0)
(-0.0628315 -0.0304938 0)
(-0.0554915 -0.031526 0)
(-0.0479291 -0.0317482 0)
(-0.0403236 -0.031122 0)
(-0.0328629 -0.0296336 0)
(-0.025738 -0.0272989 0)
(-0.0191393 -0.02417 0)
(-0.013251 -0.020342 0)
(-0.00824237 -0.0159613 0)
(-0.00426053 -0.0112317 0)
(-0.00149299 -0.00642145 0)
(-0.000221346 -0.00189076 0)
(-0.000276022 0.00291477 0)
(-0.00180747 0.00916673 0)
(-0.00507716 0.0153902 0)
(-0.00970129 0.0212467 0)
(-0.0154247 0.0264911 0)
(-0.0220586 0.0309455 0)
(-0.0294031 0.0344901 0)
(-0.0372535 0.0370555 0)
(-0.0454079 0.0386135 0)
(-0.0536701 0.0391687 0)
(-0.061852 0.0387516 0)
(-0.0697758 0.0374122 0)
(-0.0772766 0.0352161 0)
(-0.0842035 0.0322396 0)
(-0.0904212 0.0285677 0)
(-0.095811 0.0242918 0)
(-0.100271 0.0195081 0)
(-0.103719 0.0143171 0)
(-0.106089 0.00882276 0)
(-0.107334 0.00313256 0)
(-0.107428 -0.0026429 0)
(-0.106363 -0.00839001 0)
(-0.104154 -0.0139925 0)
(-0.100834 -0.0193322 0)
(-0.0964586 -0.0242898 0)
(-0.0911065 -0.0287468 0)
(-0.0848765 -0.0325874 0)
(-0.0778896 -0.0357009 0)
(-0.0702877 -0.0379855 0)
(-0.0622318 -0.039352 0)
(-0.0539008 -0.0397285 0)
(-0.0454877 -0.0390656 0)
(-0.037197 -0.0373421 0)
(-0.0292395 -0.0345712 0)
(-0.0218288 -0.0308072 0)
(-0.015176 -0.0261523 0)
(-0.00948038 -0.0207636 0)
(-0.00492166 -0.0148579 0)
(-0.00173254 -0.00871597 0)
(-0.000258667 -0.0027056 0)
(-0.000312702 0.00389032 0)
(-0.00204051 0.0118615 0)
(-0.00571711 0.0195812 0)
(-0.0108952 0.0267144 0)
(-0.0172749 0.0330168 0)
(-0.0246355 0.0383108 0)
(-0.0327485 0.0424778 0)
(-0.0413842 0.0454517 0)
(-0.0503202 0.0472101 0)
(-0.0593434 0.0477659 0)
(-0.068252 0.0471602 0)
(-0.0768572 0.0454558 0)
(-0.0849855 0.0427326 0)
(-0.0924791 0.0390828 0)
(-0.0991976 0.0346079 0)
(-0.105018 0.0294167 0)
(-0.109836 0.0236236 0)
(-0.113564 0.0173472 0)
(-0.116136 0.0107106 0)
(-0.117503 0.00384044 0)
(-0.117636 -0.00313283 0)
(-0.116527 -0.0100752 0)
(-0.114187 -0.0168495 0)
(-0.11065 -0.023316 0)
(-0.105971 -0.0293333 0)
(-0.100228 -0.0347607 0)
(-0.0935227 -0.0394598 0)
(-0.0859789 -0.043298 0)
(-0.0777437 -0.0461523 0)
(-0.0689859 -0.0479138 0)
(-0.0598947 -0.0484932 0)
(-0.0506771 -0.0478267 0)
(-0.0415545 -0.0458826 0)
(-0.0327588 -0.0426678 0)
(-0.0245285 -0.0382353 0)
(-0.0171037 -0.0326903 0)
(-0.0107156 -0.0261972 0)
(-0.00557787 -0.0189826 0)
(-0.00196838 -0.0113381 0)
(-0.000294794 -0.00364014 0)
(-0.000348483 0.00498266 0)
(-0.00226937 0.0148724 0)
(-0.00634781 0.0242496 0)
(-0.0120748 0.0327828 0)
(-0.0191064 0.0402312 0)
(-0.0271895 0.046421 0)
(-0.0360664 0.0512393 0)
(-0.0454814 0.0546276 0)
(-0.055191 0.0565732 0)
(-0.0649648 0.057101 0)
(-0.0745873 0.0562659 0)
(-0.0838595 0.0541463 0)
(-0.0925997 0.0508385 0)
(-0.100645 0.0464522 0)
(-0.107849 0.0411071 0)
(-0.114088 0.0349303 0)
(-0.119254 0.0280547 0)
(-0.123259 0.0206179 0)
(-0.126034 0.0127619 0)
(-0.127529 0.00463288 0)
(-0.127713 -0.00361897 0)
(-0.126575 -0.0118392 0)
(-0.124125 -0.0198695 0)
(-0.120395 -0.0275483 0)
(-0.115438 -0.0347116 0)
(-0.109331 -0.0411952 0)
(-0.102175 -0.046837 0)
(-0.0940963 -0.0514805 0)
(-0.0852457 -0.0549792 0)
(-0.0757987 -0.0572017 0)
(-0.065954 -0.0580382 0)
(-0.0559323 -0.0574067 0)
(-0.0459728 -0.0552611 0)
(-0.0363296 -0.0515979 0)
(-0.0272675 -0.0464644 0)
(-0.0190579 -0.0399653 0)
(-0.0119658 -0.0322688 0)
(-0.00624042 -0.0236093 0)
(-0.00220561 -0.0142884 0)
(-0.000330869 -0.00469357 0)
(-0.000384114 0.00619049 0)
(-0.00249747 0.0181967 0)
(-0.00697682 0.0293923 0)
(-0.0132519 0.039449 0)
(-0.0209344 0.0481314 0)
(-0.0297385 0.0552728 0)
(-0.039376 0.0607701 0)
(-0.0495652 0.0645767 0)
(-0.0600403 0.0666939 0)
(-0.0705537 0.0671626 0)
(-0.0808766 0.0660552 0)
(-0.0907999 0.0634686 0)
(-0.100135 0.0595181 0)
(-0.108714 0.0543329 0)
(-0.11639 0.0480521 0)
(-0.123034 0.0408222 0)
(-0.128539 0.0327951 0)
(-0.132815 0.0241275 0)
(-0.135794 0.0149804 0)
(-0.137423 0.00551907 0)
(-0.137669 -0.00408681 0)
(-0.136521 -0.0136627 0)
(-0.133984 -0.0230294 0)
(-0.130087 -0.0320033 0)
(-0.124881 -0.0403975 0)
(-0.118439 -0.0480236 0)
(-0.110861 -0.0546944 0)
(-0.102273 -0.0602276 0)
(-0.0928276 -0.0644505 0)
(-0.0827059 -0.0672062 0)
(-0.0721156 -0.0683603 0)
(-0.0612906 -0.0678088 0)
(-0.0504881 -0.0654861 0)
(-0.0399854 -0.061374 0)
(-0.0300757 -0.0555094 0)
(-0.0210631 -0.0479923 0)
(-0.0132491 -0.0389917 0)
(-0.00692057 -0.0287479 0)
(-0.00244915 -0.0175727 0)
(-0.000367911 -0.00586779 0)
(-0.000420222 0.00751427 0)
(-0.00272786 0.0218353 0)
(-0.00761112 0.0350105 0)
(-0.0144375 0.0467142 0)
(-0.0227732 0.0567176 0)
(-0.0322987 0.0648649 0)
(-0.0426947 0.0710664 0)
(-0.0536521 0.0752921 0)
(-0.064883 0.0775621 0)
(-0.0761223 0.0779376 0)
(-0.0871282 0.0765123 0)
(-0.0976827 0.0734051 0)
(-0.107591 0.0687531 0)
(-0.116683 0.0627071 0)
(-0.124809 0.0554271 0)
(-0.131842 0.0470798 0)
(-0.137673 0.0378367 0)
(-0.142214 0.0278734 0)
(-0.145395 0.0173695 0)
(-0.147164 0.00650868 0)
(-0.147486 -0.00452053 0)
(-0.146347 -0.0155243 0)
(-0.143749 -0.026303 0)
(-0.139716 -0.0366516 0)
(-0.134294 -0.04636 0)
(-0.127552 -0.055215 0)
(-0.119587 -0.0630031 0)
(-0.110521 -0.0695141 0)
(-0.100508 -0.0745466 0)
(-0.0897316 -0.0779144 0)
(-0.0784079 -0.0794543 0)
(-0.0667831 -0.0790352 0)
(-0.0551326 -0.0765671 0)
(-0.0437576 -0.0720113 0)
(-0.0329813 -0.0653894 0)
(-0.0231431 -0.0567922 0)
(-0.0145833 -0.046386 0)
(-0.00762917 -0.0344153 0)
(-0.00270357 -0.0212027 0)
(-0.000406832 -0.00716724 0)
(-0.000457342 0.00895597 0)
(-0.00296322 0.0257924 0)
(-0.00825698 0.0411093 0)
(-0.0156414 0.0545827 0)
(-0.0246356 0.0659926 0)
(-0.0348845 0.0751968 0)
(-0.0460364 0.0821239 0)
(-0.0577542 0.0867651 0)
(-0.0697275 0.0891644 0)
(-0.0816738 0.0894081 0)
(-0.0933393 0.0876159 0)
(-0.104498 0.0839321 0)
(-0.114951 0.078519 0)
(-0.124527 0.071551 0)
(-0.133076 0.0632106 0)
(-0.140472 0.0536857 0)
(-0.146611 0.0431673 0)
(-0.151404 0.03185 0)
(-0.154784 0.0199308 0)
(-0.156698 0.00761114 0)
(-0.15711 -0.00490304 0)
(-0.156002 -0.0173997 0)
(-0.153372 -0.0296601 0)
(-0.149239 -0.0414582 0)
(-0.143642 -0.0525612 0)
(-0.136644 -0.0627309 0)
(-0.128335 -0.0717261 0)
(-0.118832 -0.079307 0)
(-0.108287 -0.0852403 0)
(-0.0968855 -0.0893068 0)
(-0.0848481 -0.0913097 0)
(-0.0724328 -0.0910851 0)
(-0.0599328 -0.0885125 0)
(-0.0476739 -0.0835264 0)
(-0.0360106 -0.0761271 0)
(-0.0253201 -0.066391 0)
(-0.0159849 -0.0544779 0)
(-0.00837647 -0.0406347 0)
(-0.00297319 -0.0251948 0)
(-0.000448468 -0.00859866 0)
(-0.000495952 0.0105189 0)
(-0.00320602 0.0300752 0)
(-0.00892019 0.047697 0)
(-0.0168729 0.0630621 0)
(-0.026533 0.0759608 0)
(-0.0375079 0.0862685 0)
(-0.0494119 0.0939365 0)
(-0.0618787 0.0989832 0)
(-0.074575 0.101482 0)
(-0.0872019 0.10155 0)
(-0.0994942 0.0993367 0)
(-0.11122 0.0950173 0)
(-0.122178 0.0887821 0)
(-0.132197 0.0808317 0)
(-0.141132 0.0713728 0)
(-0.148859 0.0606148 0)
(-0.155278 0.0487688 0)
(-0.160305 0.0360469 0)
(-0.163875 0.0226632 0)
(-0.165935 0.00883482 0)
(-0.166449 -0.00521629 0)
(-0.165396 -0.0192618 0)
(-0.162769 -0.0330652 0)
(-0.158579 -0.0463811 0)
(-0.152857 -0.0589546 0)
(-0.145657 -0.0705226 0)
(-0.137059 -0.0808155 0)
(-0.127173 -0.0895618 0)
(-0.116146 -0.0964936 0)
(-0.10416 -0.101354 0)
(-0.0914398 -0.103908 0)
(-0.0782525 -0.103951 0)
(-0.064908 -0.101327 0)
(-0.0517569 -0.0959349 0)
(-0.0391866 -0.0877469 0)
(-0.0276147 -0.0768188 0)
(-0.0174699 -0.0632994 0)
(-0.00917224 -0.0474352 0)
(-0.00326211 -0.0295708 0)
(-0.000493612 -0.010171 0)
(-0.0005365 0.0122075 0)
(-0.00345861 0.0346935 0)
(-0.00960626 0.0547854 0)
(-0.0181404 0.0721624 0)
(-0.0284757 0.0866278 0)
(-0.0401789 0.0980787 0)
(-0.0528281 0.106495 0)
(-0.0660268 0.111928 0)
(-0.0794188 0.114488 0)
(-0.0926892 0.114327 0)
(-0.105563 0.111634 0)
(-0.117805 0.106616 0)
(-0.129214 0.0994964 0)
(-0.139623 0.0905044 0)
(-0.148891 0.0798723 0)
(-0.156903 0.0678319 0)
(-0.163565 0.0546137 0)
(-0.168798 0.040447 0)
(-0.172542 0.0255607 0)
(-0.174746 0.010186 0)
(-0.175374 -0.00544165 0)
(-0.174402 -0.0210799 0)
(-0.171816 -0.036477 0)
(-0.167619 -0.0513699 0)
(-0.161832 -0.0654831 0)
(-0.154497 -0.078529 0)
(-0.145681 -0.0902094 0)
(-0.135483 -0.10022 0)
(-0.12404 -0.108254 0)
(-0.111527 -0.114013 0)
(-0.0981703 -0.117218 0)
(-0.0842424 -0.117618 0)
(-0.0700685 -0.115009 0)
(-0.0560233 -0.109249 0)
(-0.0425285 -0.100274 0)
(-0.0300453 -0.0881089 0)
(-0.0190528 -0.0728874 0)
(-0.0100259 -0.0548518 0)
(-0.00357433 -0.034357 0)
(-0.000543046 -0.0118953 0)
(-0.000579456 0.0140276 0)
(-0.00372344 0.0396599 0)
(-0.0103209 0.0623891 0)
(-0.0194525 0.0818959 0)
(-0.0304734 0.0979996 0)
(-0.0429058 0.110624 0)
(-0.0562889 0.119785 0)
(-0.0701947 0.125574 0)
(-0.0842439 0.128144 0)
(-0.098107 0.127694 0)
(-0.111502 0.124453 0)
(-0.124192 0.118668 0)
(-0.13598 0.1106 0)
(-0.146706 0.100508 0)
(-0.156239 0.0886528 0)
(-0.164473 0.0752882 0)
(-0.171325 0.0606638 0)
(-0.176726 0.0450241 0)
(-0.180619 0.0286113 0)
(-0.18296 0.0116678 0)
(-0.183711 -0.00556058 0)
(-0.182846 -0.0228204 0)
(-0.180345 -0.0398477 0)
(-0.176201 -0.0563643 0)
(-0.170421 -0.0720765 0)
(-0.163033 -0.0866736 0)
(-0.154088 -0.0998289 0)
(-0.143668 -0.111203 0)
(-0.131895 -0.12045 0)
(-0.118936 -0.127224 0)
(-0.105008 -0.131194 0)
(-0.0903883 -0.132055 0)
(-0.0754139 -0.129547 0)
(-0.0604828 -0.123477 0)
(-0.0460516 -0.11373 0)
(-0.0326282 -0.100296 0)
(-0.0207476 -0.083283 0)
(-0.0109465 -0.0629243 0)
(-0.00391388 -0.0395842 0)
(-0.000597576 -0.0137847 0)
(-0.000625359 0.0159862 0)
(-0.00400326 0.0449899 0)
(-0.0110703 0.0705259 0)
(-0.0208184 0.0922767 0)
(-0.0325359 0.110082 0)
(-0.0456959 0.123898 0)
(-0.0597951 0.133784 0)
(-0.0743726 0.139883 0)
(-0.0890262 0.1424 0)
(-0.103414 0.141585 0)
(-0.117248 0.137718 0)
(-0.130296 0.131094 0)
(-0.142369 0.12201 0)
(-0.153318 0.110763 0)
(-0.163026 0.0976397 0)
(-0.171402 0.0829184 0)
(-0.178375 0.066866 0)
(-0.183889 0.0497407 0)
(-0.187897 0.0317947 0)
(-0.190358 0.0132784 0)
(-0.191238 -0.00555547 0)
(-0.190508 -0.0244465 0)
(-0.18814 -0.0431221 0)
(-0.184117 -0.0612931 0)
(-0.178431 -0.0786502 0)
(-0.17109 -0.0948619 0)
(-0.162125 -0.109574 0)
(-0.151597 -0.122412 0)
(-0.139608 -0.132987 0)
(-0.126305 -0.140901 0)
(-0.111898 -0.145766 0)
(-0.0966583 -0.147213 0)
(-0.0809317 -0.144916 0)
(-0.0651373 -0.138614 0)
(-0.0497667 -0.128133 0)
(-0.035378 -0.113415 0)
(-0.0225679 -0.0945301 0)
(-0.0119436 -0.0716976 0)
(-0.00428498 -0.0452877 0)
(-0.000658074 -0.0158545 0)
(-0.000674878 0.018092 0)
(-0.00430145 0.0507024 0)
(-0.011862 0.079217 0)
(-0.0222487 0.103321 0)
(-0.0346744 0.122878 0)
(-0.0485563 0.137887 0)
(-0.0633451 0.148462 0)
(-0.078545 0.154805 0)
(-0.0937319 0.157185 0)
(-0.108553 0.155916 0)
(-0.122722 0.151335 0)
(-0.136012 0.143788 0)
(-0.148248 0.13362 0)
(-0.159299 0.121164 0)
(-0.169066 0.106736 0)
(-0.177479 0.0906373 0)
(-0.184485 0.0731505 0)
(-0.190041 0.0545451 0)
(-0.194114 0.0350801 0)
(-0.196671 0.0150097 0)
(-0.197681 -0.00541075 0)
(-0.197112 -0.0259188 0)
(-0.194931 -0.0462382 0)
(-0.191107 -0.0660732 0)
(-0.185614 -0.0851032 0)
(-0.17844 -0.102979 0)
(-0.169589 -0.119321 0)
(-0.159095 -0.13372 0)
(-0.147032 -0.145742 0)
(-0.133524 -0.154934 0)
(-0.118759 -0.160841 0)
(-0.103 -0.163022 0)
(-0.0865948 -0.16107 0)
(-0.0699791 -0.154644 0)
(-0.0536797 -0.143495 0)
(-0.0383072 -0.127497 0)
(-0.0245271 -0.106675 0)
(-0.0130269 -0.0812211 0)
(-0.00469225 -0.0515077 0)
(-0.000725522 -0.0181222 0)
(-0.00072889 0.0203555 0)
(-0.00462234 0.0568203 0)
(-0.0127056 0.0884875 0)
(-0.0237569 0.115045 0)
(-0.0369021 0.13639 0)
(-0.0514949 0.152573 0)
(-0.066935 0.163774 0)
(-0.0826903 0.17027 0)
(-0.0983163 0.172408 0)
(-0.113453 0.170575 0)
(-0.12782 0.165176 0)
(-0.141204 0.156619 0)
(-0.15345 0.145296 0)
(-0.164451 0.13158 0)
(-0.174134 0.11582 0)
(-0.182452 0.098336 0)
(-0.189376 0.0794269 0)
(-0.194885 0.0593691 0)
(-0.198958 0.0384243 0)
(-0.201574 0.0168458 0)
(-0.202708 -0.0051142 0)
(-0.202327 -0.0271965 0)
(-0.200389 -0.0491271 0)
(-0.196851 -0.0706092 0)
(-0.191668 -0.0913165 0)
(-0.184801 -0.110887 0)
(-0.176224 -0.128918 0)
(-0.165937 -0.144969 0)
(-0.153978 -0.158558 0)
(-0.140438 -0.169175 0)
(-0.125476 -0.176291 0)
(-0.109336 -0.179378 0)
(-0.092358 -0.177939 0)
(-0.07499 -0.171531 0)
(-0.0577909 -0.159812 0)
(-0.0414266 -0.14257 0)
(-0.0266387 -0.119764 0)
(-0.0142072 -0.0915484 0)
(-0.00514098 -0.0582891 0)
(-0.000801088 -0.0206079 0)
(-0.000788581 0.0227897 0)
(-0.00497172 0.0633718 0)
(-0.0136138 0.0983677 0)
(-0.0253605 0.12747 0)
(-0.0392361 0.150617 0)
(-0.0545211 0.167925 0)
(-0.0705588 0.179658 0)
(-0.0867797 0.186186 0)
(-0.102721 0.187948 0)
(-0.118022 0.185419 0)
(-0.132414 0.179084 0)
(-0.145706 0.169417 0)
(-0.157771 0.156866 0)
(-0.168533 0.141846 0)
(-0.177954 0.124737 0)
(-0.186017 0.105879 0)
(-0.19272 0.0855818 0)
(-0.198067 0.0641253 0)
(-0.202057 0.0417692 0)
(-0.204683 0.0187602 0)
(-0.205927 -0.00465855 0)
(-0.205755 -0.028238 0)
(-0.204121 -0.0517132 0)
(-0.200966 -0.0747934 0)
(-0.196223 -0.0971529 0)
(-0.189825 -0.118423 0)
(-0.181711 -0.138184 0)
(-0.171839 -0.155965 0)
(-0.160203 -0.17124 0)
(-0.14685 -0.183436 0)
(-0.131898 -0.191944 0)
(-0.115558 -0.196141 0)
(-0.098155 -0.195418 0)
(-0.0801378 -0.189214 0)
(-0.0620939 -0.177066 0)
(-0.0447454 -0.158653 0)
(-0.0289177 -0.133844 0)
(-0.0154972 -0.102737 0)
(-0.00563751 -0.0656827 0)
(-0.000886207 -0.0233349 0)
(-0.000855601 0.0254115 0)
(-0.00535752 0.0703923 0)
(-0.0146035 0.108895 0)
(-0.0270825 0.140618 0)
(-0.0416983 0.165552 0)
(-0.0576464 0.183901 0)
(-0.0742076 0.196033 0)
(-0.0907748 0.202432 0)
(-0.106872 0.203649 0)
(-0.122144 0.200266 0)
(-0.136344 0.192858 0)
(-0.149313 0.181974 0)
(-0.160963 0.168122 0)
(-0.171258 0.151761 0)
(-0.180201 0.133301 0)
(-0.187813 0.113101 0)
(-0.194127 0.0914756 0)
(-0.199174 0.0687049 0)
(-0.202979 0.0450402 0)
(-0.20555 0.0207151 0)
(-0.206878 -0.00404313 0)
(-0.206933 -0.0290029 0)
(-0.205663 -0.0539161 0)
(-0.202994 -0.0785061 0)
(-0.198838 -0.102456 0)
(-0.193094 -0.125398 0)
(-0.185661 -0.146904 0)
(-0.17645 -0.166476 0)
(-0.165401 -0.183546 0)
(-0.152504 -0.19748 0)
(-0.137823 -0.207582 0)
(-0.121522 -0.213122 0)
(-0.103892 -0.213361 0)
(-0.0853739 -0.207596 0)
(-0.0665743 -0.195213 0)
(-0.0482711 -0.175751 0)
(-0.0313804 -0.148958 0)
(-0.0169118 -0.11485 0)
(-0.00618973 -0.0737455 0)
(-0.000982717 -0.0263301 0)
(-0.000932274 0.0282421 0)
(-0.00579069 0.0779271 0)
(-0.0156979 0.120114 0)
(-0.0289537 0.154512 0)
(-0.0443173 0.181183 0)
(-0.0608845 0.20044 0)
(-0.0778679 0.212787 0)
(-0.0946241 0.218849 0)
(-0.11067 0.219315 0)
(-0.12567 0.214889 0)
(-0.139408 0.20625 0)
(-0.151772 0.194033 0)
(-0.162724 0.178809 0)
(-0.172279 0.161082 0)
(-0.180488 0.141289 0)
(-0.187419 0.119803 0)
(-0.193144 0.0969413 0)
(-0.197729 0.072976 0)
(-0.201224 0.0481439 0)
(-0.203658 0.0226589 0)
(-0.205035 -0.00327568 0)
(-0.205328 -0.0294535 0)
(-0.204481 -0.0556519 0)
(-0.202408 -0.0816176 0)
(-0.198995 -0.107052 0)
(-0.194111 -0.131599 0)
(-0.187608 -0.154827 0)
(-0.179343 -0.176223 0)
(-0.169194 -0.195185 0)
(-0.157079 -0.211013 0)
(-0.142993 -0.222926 0)
(-0.127034 -0.230073 0)
(-0.109441 -0.231567 0)
(-0.0906277 -0.226535 0)
(-0.0712074 -0.214179 0)
(-0.052009 -0.193852 0)
(-0.0340463 -0.165144 0)
(-0.01847 -0.127954 0)
(-0.00680785 -0.0825432 0)
(-0.00109305 -0.029625 0)
(-0.00102191 0.0313098 0)
(-0.00628644 0.0860343 0)
(-0.0169284 0.132083 0)
(-0.031015 0.169181 0)
(-0.0471292 0.197486 0)
(-0.0642504 0.217458 0)
(-0.0815177 0.229772 0)
(-0.0982562 0.235232 0)
(-0.113988 0.234693 0)
(-0.128409 0.229001 0)
(-0.141355 0.218957 0)
(-0.152773 0.205286 0)
(-0.162688 0.188625 0)
(-0.171181 0.169523 0)
(-0.178359 0.148438 0)
(-0.184343 0.125754 0)
(-0.189249 0.101783 0)
(-0.193183 0.076783 0)
(-0.196223 0.0509682 0)
(-0.198423 0.0245253 0)
(-0.199799 -0.00237397 0)
(-0.200332 -0.0295572 0)
(-0.199964 -0.0568362 0)
(-0.198597 -0.0839908 0)
(-0.196096 -0.110752 0)
(-0.192293 -0.136784 0)
(-0.186997 -0.161669 0)
(-0.180003 -0.184887 0)
(-0.171116 -0.205808 0)
(-0.160173 -0.223678 0)
(-0.147079 -0.237626 0)
(-0.131843 -0.246674 0)
(-0.11463 -0.249769 0)
(-0.0957995 -0.245833 0)
(-0.0759536 -0.233843 0)
(-0.0559617 -0.212918 0)
(-0.0369385 -0.182433 0)
(-0.020196 -0.142119 0)
(-0.00750551 -0.0921511 0)
(-0.00122052 -0.0332576 0)
(-0.00112929 0.0346521 0)
(-0.00686609 0.09479 0)
(-0.0183377 0.144873 0)
(-0.0333199 0.184653 0)
(-0.0501784 0.214422 0)
(-0.0677572 0.234835 0)
(-0.0851195 0.246792 0)
(-0.101569 0.251316 0)
(-0.11665 0.249464 0)
(-0.130111 0.242251 0)
(-0.141861 0.23061 0)
(-0.151926 0.215363 0)
(-0.160411 0.197213 0)
(-0.167469 0.176749 0)
(-0.173277 0.154447 0)
(-0.178013 0.13069 0)
(-0.181844 0.105779 0)
(-0.184915 0.0799478 0)
(-0.187337 0.0533823 0)
(-0.189187 0.0262332 0)
(-0.1905 -0.00136718 0)
(-0.191266 -0.0292887 0)
(-0.191425 -0.0573868 0)
(-0.190872 -0.0854848 0)
(-0.189453 -0.113354 0)
(-0.186968 -0.140696 0)
(-0.183176 -0.167114 0)
(-0.177813 -0.192101 0)
(-0.170603 -0.215011 0)
(-0.161286 -0.235048 0)
(-0.149659 -0.251254 0)
(-0.13562 -0.262521 0)
(-0.119225 -0.267611 0)
(-0.100749 -0.265215 0)
(-0.080753 -0.254028 0)
(-0.0601271 -0.232874 0)
(-0.0400854 -0.20084 0)
(-0.0221221 -0.157424 0)
(-0.00830135 -0.102659 0)
(-0.0013698 -0.0372742 0)
(-0.00126136 0.0383199 0)
(-0.00755967 0.104295 0)
(-0.0199842 0.158574 0)
(-0.0359376 0.200958 0)
(-0.0535164 0.231927 0)
(-0.0714098 0.252406 0)
(-0.0886075 0.263582 0)
(-0.10441 0.266758 0)
(-0.118412 0.26323 0)
(-0.130444 0.254207 0)
(-0.140513 0.240766 0)
(-0.148747 0.22383 0)
(-0.155346 0.204163 0)
(-0.160551 0.182384 0)
(-0.164613 0.158978 0)
(-0.167773 0.134318 0)
(-0.17025 0.108682 0)
(-0.172228 0.0822734 0)
(-0.173854 0.0552393 0)
(-0.175229 0.0276875 0)
(-0.176404 -0.000296526 0)
(-0.177381 -0.0286327 0)
(-0.178106 -0.0572287 0)
(-0.178468 -0.0859613 0)
(-0.178298 -0.114655 0)
(-0.177367 -0.143059 0)
(-0.175393 -0.17082 0)
(-0.172048 -0.197457 0)
(-0.166972 -0.222331 0)
(-0.159801 -0.244617 0)
(-0.150204 -0.263288 0)
(-0.137937 -0.277106 0)
(-0.122913 -0.284639 0)
(-0.10528 -0.284308 0)
(-0.0855138 -0.274478 0)
(-0.0644941 -0.253594 0)
(-0.0435216 -0.220362 0)
(-0.0242916 -0.173949 0)
(-0.00922155 -0.114173 0)
(-0.00154763 -0.041733 0)
(-0.00142853 0.0423831 0)
(-0.00840994 0.114682 0)
(-0.0219466 0.173298 0)
(-0.0389553 0.218116 0)
(-0.0571979 0.249898 0)
(-0.0751911 0.269933 0)
(-0.0918657 0.279789 0)
(-0.106551 0.281114 0)
(-0.118932 0.275491 0)
(-0.128959 0.264345 0)
(-0.136771 0.248905 0)
(-0.142621 0.230188 0)
(-0.146824 0.209012 0)
(-0.149717 0.186011 0)
(-0.15163 0.161665 0)
(-0.152867 0.136324 0)
(-0.153699 0.110231 0)
(-0.154349 0.08355 0)
(-0.154994 0.056381 0)
(-0.155758 0.028782 0)
(-0.156712 0.000784985 0)
(-0.157869 -0.0275862 0)
(-0.159184 -0.0562989 0)
(-0.160545 -0.0852918 0)
(-0.161775 -0.114454 0)
(-0.162628 -0.143597 0)
(-0.162784 -0.172429 0)
(-0.161859 -0.200517 0)
(-0.15941 -0.227253 0)
(-0.154961 -0.25181 0)
(-0.14804 -0.273112 0)
(-0.138234 -0.289807 0)
(-0.125268 -0.300265 0)
(-0.109112 -0.302614 0)
(-0.0900952 -0.294827 0)
(-0.0690347 -0.274876 0)
(-0.0472883 -0.240961 0)
(-0.0267634 -0.191781 0)
(-0.0103037 -0.126824 0)
(-0.00176407 -0.0467092 0)
(-0.00164671 0.0469392 0)
(-0.00947865 0.126129 0)
(-0.0243315 0.189179 0)
(-0.0424794 0.236133 0)
(-0.0612694 0.268167 0)
(-0.0790385 0.287079 0)
(-0.094692 0.294936 0)
(-0.107642 0.293814 0)
(-0.117718 0.285627 0)
(-0.125044 0.272036 0)
(-0.129927 0.254419 0)
(-0.132773 0.233874 0)
(-0.134023 0.211252 0)
(-0.134118 0.187184 0)
(-0.133468 0.162124 0)
(-0.132437 0.136384 0)
(-0.131338 0.110161 0)
(-0.13043 0.0835662 0)
(-0.129914 0.0566466 0)
(-0.129934 0.0294045 0)
(-0.130577 0.00181433 0)
(-0.131871 -0.0261607 0)
(-0.13378 -0.054552 0)
(-0.136201 -0.0833673 0)
(-0.138959 -0.112569 0)
(-0.141798 -0.142046 0)
(-0.144376 -0.171584 0)
(-0.146264 -0.200826 0)
(-0.146947 -0.229221 0)
(-0.14584 -0.255978 0)
(-0.14232 -0.280006 0)
(-0.135778 -0.299869 0)
(-0.125712 -0.313753 0)
(-0.111843 -0.319478 0)
(-0.0942778 -0.314566 0)
(-0.0736882 -0.29641 0)
(-0.0514305 -0.262543 0)
(-0.0296178 -0.211006 0)
(-0.0116028 -0.140779 0)
(-0.00203467 -0.0523025 0)
(-0.00194104 0.0521266 0)
(-0.0108564 0.138873 0)
(-0.0272822 0.206377 0)
(-0.0466314 0.254969 0)
(-0.0657459 0.286459 0)
(-0.0827992 0.303357 0)
(-0.0967382 0.30838 0)
(-0.107141 0.304125 0)
(-0.114063 0.292878 0)
(-0.11786 0.27654 0)
(-0.11905 0.256621 0)
(-0.118214 0.234274 0)
(-0.115932 0.210349 0)
(-0.112744 0.185449 0)
(-0.109132 0.159978 0)
(-0.10551 0.13419 0)
(-0.102224 0.108222 0)
(-0.0995549 0.0821241 0)
(-0.097719 0.0558838 0)
(-0.0968742 0.0294447 0)
(-0.0971197 0.00272199 0)
(-0.0984964 -0.0243828 0)
(-0.100984 -0.0519669 0)
(-0.104493 -0.0801097 0)
(-0.108862 -0.108853 0)
(-0.113843 -0.138175 0)
(-0.119088 -0.167956 0)
(-0.124145 -0.197938 0)
(-0.128447 -0.227666 0)
(-0.131313 -0.256424 0)
(-0.131973 -0.28316 0)
(-0.129609 -0.3064 0)
(-0.123447 -0.324187 0)
(-0.112888 -0.33404 0)
(-0.0977142 -0.33299 0)
(-0.0783311 -0.317731 0)
(-0.055989 -0.28493 0)
(-0.032963 -0.231702 0)
(-0.0132011 -0.156244 0)
(-0.00238434 -0.0586506 0)
(-0.00235273 0.0581459 0)
(-0.0126786 0.153232 0)
(-0.0309879 0.225057 0)
(-0.0515327 0.274497 0)
(-0.0705624 0.304331 0)
(-0.0861529 0.318066 0)
(-0.0974145 0.319258 0)