1.275 	2.15223e-18 	-2.76991e-20 	-0.0343694 	-0.000446226 	-1.93818e-22
1.825 	2.15223e-18 	-1.39322e-20 	-0.00929517 	-0.00277755 	1.72411e-21
2.375 	2.15223e-18 	-2.66896e-23 	0.115784 	-0.00326083 	-7.19518e-22
