1.45 	0 	0 	0.0112255 	-0.00462824 	3.895e-21
2.35 	0 	0 	0.147028 	-0.00950398 	1.56671e-21
