/*--------------------------------*- C++ -*----------------------------------*\
  =========                 |
  \\      /  F ield         | OpenFOAM: The Open Source CFD Toolbox
   \\    /   O peration     | Website:  https://openfoam.org
    \\  /    A nd           | Version:  6.0
     \\/     M anipulation  |
\*---------------------------------------------------------------------------*/
FoamFile
{
    version     2.0;
    format      ascii;
    class       volScalarField;
    location    "0.5";
    object      p;
}
// * * * * * * * * * * * * * * * * * * * * * * * * * * * * * * * * * * * * * //

dimensions      [0 2 -2 0 0 0 0];

internalField   nonuniform List<scalar> 
200
(
1.13017e-08
-0.00019647
-0.000518933
-0.000948016
-0.00150786
-0.00222912
-0.0031424
-0.00427617
-0.00563294
-0.00710586
-0.00833345
-0.00866399
-0.00730126
-0.00321377
0.00492367
0.017507
0.0319871
0.0427829
0.045417
0.041822
0.000201747
-1.93347e-05
-0.000309445
-0.000690351
-0.00119277
-0.00182512
-0.00258647
-0.00347216
-0.00449301
-0.00571545
-0.00721772
-0.00881014
-0.00964873
-0.0080873
-0.00213815
0.00908517
0.0235814
0.036078
0.0412138
0.039034
0.000537073
0.000239431
-3.97544e-05
-0.000379869
-0.0008302
-0.00138657
-0.00204603
-0.00285519
-0.00400325
-0.00590999
-0.00907241
-0.0134829
-0.0179889
-0.0202952
-0.0177945
-0.00885711
0.00577416
0.0219462
0.0331851
0.0360348
0.000817686
0.000427996
0.000147348
-0.000170844
-0.000593086
-0.00110936
-0.00174517
-0.0026691
-0.00436267
-0.00768257
-0.0134312
-0.0214475
-0.0300572
-0.0365226
-0.038017
-0.0323583
-0.0187842
0.000693718
0.0201256
0.0321026
0.000786721
0.00031572
4.37084e-05
-0.000248813
-0.000633863
-0.00109157
-0.0016906
-0.00274994
-0.00503928
-0.00973567
-0.01774
-0.0286267
-0.0403029
-0.0498198
-0.0544262
-0.0519255
-0.0407649
-0.0208632
0.00426862
0.0257264
0.000128361
-0.00038213
-0.000568459
-0.000749228
-0.000994154
-0.00126586
-0.00167963
-0.00268317
-0.00522472
-0.0105984
-0.0196643
-0.0318383
-0.044876
-0.0557809
-0.0619217
-0.0613591
-0.0525929
-0.0344398
-0.00765017
0.0207145
-0.00160987
-0.00203261
-0.00187072
-0.00170261
-0.00158813
-0.00144281
-0.0014248
-0.00207834
-0.00442118
-0.00970468
-0.0186841
-0.0307542
-0.0437661
-0.0547727
-0.0611169
-0.0608313
-0.0524711
-0.0342841
-0.00514696
0.0302254
-0.00520434
-0.00503568
-0.00386306
-0.00307563
-0.00236399
-0.00157358
-0.000910967
-0.000998151
-0.00287543
-0.00768521
-0.0160557
-0.0273931
-0.0397326
-0.0501541
-0.0557179
-0.0536878
-0.0416546
-0.0164902
0.024154
0.0750716
-0.0116734
-0.0103806
-0.00694526
-0.00444145
-0.00280476
-0.00135411
-0.000145316
0.000192356
-0.00135207
-0.00577244
-0.0135772
-0.0241475
-0.0356802
-0.0451933
-0.0492632
-0.0436056
-0.0233118
0.0183042
0.0850946
0.168724
-0.039167
-0.0132849
-0.00356292
-0.00104572
0.000188107
0.00145181
0.00247786
0.00258472
0.000833497
-0.00362812
-0.0112387
-0.0213749
-0.0323579
-0.0411627
-0.0439815
-0.0351029
-0.00674402
0.0532109
0.153449
0.283017
)
;

boundaryField
{
    movingWall
    {
        type            zeroGradient;
    }
    fixedWalls
    {
        type            zeroGradient;
    }
    frontAndBack
    {
        type            empty;
    }
}


// ************************************************************************* //
