1.275 	2.15223e-18 	-2.76991e-20 	-0.0344752 	-0.00043719 	-1.90631e-22
1.825 	2.15223e-18 	-1.39322e-20 	-0.0094876 	-0.00275268 	1.68255e-21
2.375 	2.15223e-18 	-2.66896e-23 	0.11524 	-0.00323099 	-7.01803e-22
