1.275 	2.15223e-18 	-2.76991e-20 	-0.0342852 	-0.000451551 	-1.95643e-22
1.825 	2.15223e-18 	-1.39322e-20 	-0.00914304 	-0.00277513 	1.74756e-21
2.375 	2.15223e-18 	-2.66896e-23 	0.116221 	-0.00325011 	-7.29473e-22
