/*--------------------------------*- C++ -*----------------------------------*\
  =========                 |
  \\      /  F ield         | OpenFOAM: The Open Source CFD Toolbox
   \\    /   O peration     | Website:  https://openfoam.org
    \\  /    A nd           | Version:  6.0
     \\/     M anipulation  |
\*---------------------------------------------------------------------------*/
FoamFile
{
    version     2.0;
    format      ascii;
    class       volScalarField;
    location    "0.2";
    object      p;
}
// * * * * * * * * * * * * * * * * * * * * * * * * * * * * * * * * * * * * * //

dimensions      [0 2 -2 0 0 0 0];

internalField   nonuniform List<scalar> 
24000
(
1.0064
1.0062
1.00564
1.00485
1.00397
1.00312
1.00233
1.00163
1.00103
1.00054
1.00017
0.999945
1.0064
1.00625
1.00577
1.00507
1.00426
1.00343
1.00264
1.00189
1.00122
1.00063
1.00016
0.999858
1.0064
1.00623
1.00572
1.00498
1.00412
1.00325
1.00243
1.00166
1.00101
1.00046
1.00003
0.999766
1.0064
1.00622
1.00569
1.00493
1.00405
1.00316
1.00233
1.00157
1.00092
1.00041
0.999991
0.999739
1.00641
1.00622
1.00571
1.00498
1.00412
1.00325
1.00243
1.00167
1.00101
1.00048
1.00002
0.999739
1.00641
1.00623
1.00573
1.00502
1.00419
1.00333
1.00252
1.00176
1.00109
1.00052
1.00004
0.999713
1.00641
1.00623
1.00574
1.00503
1.00421
1.00334
1.00252
1.00176
1.00108
1.0005
1
0.999663
1.00642
1.00623
1.00573
1.00503
1.0042
1.00332
1.0025
1.00172
1.00104
1.00046
0.999952
0.99961
1.00642
1.00623
1.00573
1.00503
1.00419
1.00332
1.00248
1.0017
1.00101
1.00042
0.999912
0.999566
1.00643
1.00624
1.00573
1.00503
1.0042
1.00333
1.00249
1.0017
1.001
1.0004
0.999884
0.999529
1.00644
1.00624
1.00573
1.00503
1.00421
1.00334
1.0025
1.0017
1.001
1.00039
0.999861
0.999493
1.00645
1.00625
1.00574
1.00504
1.00422
1.00335
1.00251
1.00171
1.00099
1.00038
0.999837
0.999456
1.00646
1.00626
1.00575
1.00504
1.00422
1.00335
1.00251
1.00171
1.00098
1.00036
0.99981
0.999418
1.00647
1.00627
1.00576
1.00505
1.00423
1.00336
1.00251
1.0017
1.00097
1.00034
0.999781
0.99938
1.00648
1.00629
1.00577
1.00507
1.00424
1.00337
1.00252
1.0017
1.00096
1.00032
0.999752
0.999343
1.00649
1.0063
1.00579
1.00508
1.00426
1.00338
1.00253
1.0017
1.00095
1.0003
0.999725
0.999307
1.0065
1.00632
1.00581
1.00511
1.00428
1.0034
1.00254
1.0017
1.00095
1.00028
0.999697
0.99927
1.00652
1.00634
1.00583
1.00513
1.0043
1.00341
1.00255
1.00171
1.00094
1.00026
0.999669
0.999233
1.00653
1.00635
1.00585
1.00515
1.00432
1.00343
1.00256
1.00171
1.00093
1.00024
0.999639
0.999196
1.00655
1.00637
1.00587
1.00517
1.00434
1.00345
1.00257
1.00171
1.00092
1.00022
0.99961
0.99916
1.00656
1.00639
1.00589
1.00518
1.00435
1.00346
1.00257
1.0017
1.00091
1.0002
0.999581
0.999124
1.00658
1.00641
1.00591
1.0052
1.00437
1.00347
1.00258
1.0017
1.0009
1.00018
0.999553
0.999088
1.0066
1.00643
1.00592
1.00522
1.00439
1.00349
1.00259
1.00171
1.00089
1.00016
0.999525
0.999052
1.00662
1.00644
1.00594
1.00524
1.00441
1.0035
1.0026
1.00171
1.00088
1.00014
0.999497
0.999016
1.00663
1.00646
1.00596
1.00526
1.00443
1.00352
1.00261
1.00171
1.00087
1.00012
0.999467
0.998979
1.00665
1.00648
1.00598
1.00529
1.00445
1.00354
1.00262
1.00171
1.00086
1.0001
0.999437
0.998941
1.00667
1.0065
1.006
1.00531
1.00447
1.00355
1.00263
1.00171
1.00085
1.00008
0.999405
0.998902
1.0067
1.00652
1.00602
1.00533
1.00449
1.00357
1.00264
1.00171
1.00084
1.00005
0.999372
0.998863
1.00672
1.00654
1.00604
1.00535
1.00451
1.00358
1.00264
1.0017
1.00083
1.00003
0.999338
0.998822
1.00674
1.00657
1.00606
1.00537
1.00452
1.00359
1.00265
1.0017
1.00081
1
0.999303
0.998782
1.00677
1.00659
1.00608
1.00539
1.00454
1.0036
1.00265
1.00169
1.00079
0.999973
0.999267
0.998741
1.00679
1.00661
1.0061
1.0054
1.00455
1.00361
1.00265
1.00168
1.00078
0.999945
0.999231
0.998699
1.00682
1.00664
1.00612
1.00542
1.00457
1.00362
1.00265
1.00168
1.00076
0.999916
0.999194
0.998657
1.00684
1.00666
1.00615
1.00544
1.00458
1.00363
1.00266
1.00167
1.00074
0.999888
0.999158
0.998615
1.00687
1.00669
1.00617
1.00546
1.0046
1.00364
1.00266
1.00166
1.00072
0.99986
0.999121
0.998572
1.0069
1.00672
1.0062
1.00549
1.00462
1.00366
1.00266
1.00166
1.00071
0.999831
0.999083
0.998528
1.00693
1.00675
1.00623
1.00552
1.00464
1.00367
1.00267
1.00165
1.00069
0.999802
0.999045
0.998484
1.00697
1.00678
1.00626
1.00555
1.00467
1.00369
1.00268
1.00165
1.00067
0.999774
0.999007
0.998439
1.007
1.00681
1.0063
1.00558
1.00469
1.0037
1.00268
1.00164
1.00066
0.999744
0.998967
0.998394
1.00703
1.00685
1.00633
1.00561
1.00472
1.00372
1.00269
1.00164
1.00064
0.999714
0.998928
0.998348
1.00707
1.00688
1.00636
1.00564
1.00474
1.00374
1.0027
1.00163
1.00062
0.999683
0.998887
0.9983
1.0071
1.00692
1.0064
1.00567
1.00477
1.00375
1.0027
1.00163
1.0006
0.999652
0.998846
0.998253
1.00714
1.00695
1.00643
1.0057
1.00479
1.00377
1.00271
1.00162
1.00058
0.99962
0.998804
0.998204
1.00717
1.00699
1.00647
1.00573
1.00482
1.00379
1.00272
1.00161
1.00056
0.999588
0.998761
0.998155
1.00721
1.00703
1.0065
1.00576
1.00484
1.00381
1.00272
1.00161
1.00054
0.999555
0.998717
0.998105
1.00725
1.00707
1.00654
1.0058
1.00487
1.00382
1.00273
1.0016
1.00052
0.999521
0.998673
0.998054
1.00729
1.00711
1.00657
1.00583
1.0049
1.00384
1.00274
1.00159
1.0005
0.999486
0.998627
0.998001
1.00733
1.00715
1.00661
1.00586
1.00492
1.00386
1.00274
1.00159
1.00048
0.999451
0.99858
0.997948
1.00737
1.00719
1.00665
1.0059
1.00495
1.00388
1.00275
1.00158
1.00046
0.999414
0.998532
0.997894
1.00741
1.00723
1.00668
1.00593
1.00498
1.00389
1.00275
1.00157
1.00043
0.999377
0.998484
0.997839
1.00746
1.00727
1.00672
1.00596
1.005
1.00391
1.00275
1.00156
1.00041
0.999338
0.998434
0.997783
1.0075
1.00732
1.00676
1.006
1.00503
1.00392
1.00276
1.00155
1.00038
0.9993
0.998385
0.997726
1.00755
1.00736
1.0068
1.00603
1.00506
1.00394
1.00276
1.00154
1.00036
0.99926
0.998334
0.997667
1.00759
1.00741
1.00685
1.00607
1.00508
1.00396
1.00277
1.00153
1.00033
0.99922
0.998283
0.997609
1.00764
1.00746
1.00689
1.00611
1.00511
1.00397
1.00277
1.00151
1.00031
0.99918
0.998231
0.997548
1.00769
1.00751
1.00694
1.00615
1.00514
1.00399
1.00277
1.0015
1.00028
0.99914
0.998179
0.997487
1.00774
1.00756
1.00698
1.00619
1.00517
1.00401
1.00278
1.00149
1.00026
0.999099
0.998126
0.997425
1.00779
1.00761
1.00703
1.00623
1.00521
1.00403
1.00279
1.00148
1.00023
0.999058
0.998073
0.997362
1.00785
1.00767
1.00708
1.00628
1.00524
1.00406
1.00279
1.00148
1.0002
0.999017
0.998018
0.997298
1.0079
1.00772
1.00713
1.00632
1.00528
1.00408
1.0028
1.00147
1.00018
0.998975
0.997963
0.997232
1.00796
1.00778
1.00719
1.00637
1.00532
1.0041
1.00281
1.00146
1.00015
0.998932
0.997907
0.997166
1.00802
1.00784
1.00724
1.00642
1.00535
1.00413
1.00282
1.00145
1.00012
0.998888
0.99785
0.997099
1.00807
1.0079
1.0073
1.00647
1.00539
1.00415
1.00282
1.00144
1.0001
0.998844
0.997792
0.99703
1.00813
1.00796
1.00735
1.00652
1.00543
1.00418
1.00283
1.00143
1.00007
0.998799
0.997733
0.996961
1.00819
1.00802
1.00741
1.00657
1.00547
1.0042
1.00284
1.00142
1.00004
0.998753
0.997673
0.99689
1.00826
1.00808
1.00746
1.00662
1.00551
1.00422
1.00285
1.00141
1.00001
0.998707
0.997613
0.996819
1.00832
1.00815
1.00752
1.00667
1.00555
1.00425
1.00286
1.00139
0.999979
0.998659
0.997551
0.996746
1.00839
1.00821
1.00758
1.00672
1.00559
1.00428
1.00286
1.00138
0.999949
0.998612
0.997488
0.996673
1.00845
1.00828
1.00764
1.00677
1.00563
1.0043
1.00287
1.00137
0.999918
0.998563
0.997425
0.996598
1.00852
1.00835
1.00771
1.00683
1.00567
1.00433
1.00288
1.00136
0.999888
0.998514
0.99736
0.996522
1.00859
1.00842
1.00777
1.00688
1.00571
1.00436
1.00289
1.00135
0.999856
0.998464
0.997295
0.996444
1.00867
1.00849
1.00784
1.00694
1.00576
1.00438
1.0029
1.00134
0.999825
0.998414
0.997229
0.996365
1.00874
1.00857
1.0079
1.007
1.0058
1.00441
1.00291
1.00133
0.999792
0.998363
0.997161
0.996284
1.00882
1.00864
1.00797
1.00706
1.00585
1.00444
1.00292
1.00132
0.999761
0.998312
0.997094
0.996202
1.00889
1.00872
1.00804
1.00712
1.0059
1.00447
1.00293
1.00131
0.999728
0.998259
0.997024
0.996118
1.00897
1.0088
1.00811
1.00719
1.00595
1.00451
1.00294
1.0013
0.999696
0.998207
0.996954
0.996033
1.00905
1.00888
1.00819
1.00725
1.006
1.00454
1.00295
1.00128
0.999663
0.998154
0.996883
0.995946
1.00914
1.00896
1.00826
1.00732
1.00605
1.00457
1.00296
1.00128
0.999631
0.9981
0.996811
0.995858
1.00922
1.00905
1.00834
1.00739
1.00611
1.00461
1.00298
1.00127
0.999598
0.998045
0.996737
0.995767
1.00931
1.00913
1.00842
1.00746
1.00616
1.00465
1.00299
1.00126
0.999565
0.99799
0.996662
0.995676
1.0094
1.00922
1.0085
1.00753
1.00622
1.00469
1.00301
1.00125
0.999532
0.997934
0.996586
0.995581
1.00949
1.00931
1.00858
1.00761
1.00628
1.00473
1.00302
1.00124
0.999499
0.997878
0.996508
0.995486
1.00958
1.0094
1.00867
1.00768
1.00634
1.00477
1.00304
1.00123
0.999465
0.997819
0.996429
0.995387
1.00967
1.0095
1.00875
1.00776
1.0064
1.00481
1.00306
1.00123
0.999431
0.997761
0.996348
0.995288
1.00977
1.00959
1.00884
1.00784
1.00646
1.00485
1.00307
1.00122
0.999396
0.997701
0.996265
0.995185
1.00986
1.00969
1.00893
1.00792
1.00653
1.0049
1.00309
1.00121
0.999361
0.99764
0.996181
0.995082
1.00996
1.00979
1.00902
1.00801
1.00659
1.00494
1.00311
1.0012
0.999325
0.997577
0.996095
0.994975
1.01006
1.00989
1.00912
1.00809
1.00666
1.00499
1.00313
1.0012
0.999289
0.997514
0.996007
0.994866
1.01017
1.01
1.00921
1.00818
1.00673
1.00504
1.00316
1.00119
0.999252
0.997449
0.995917
0.994755
1.01027
1.0101
1.00931
1.00827
1.0068
1.00509
1.00318
1.00118
0.999215
0.997383
0.995825
0.994642
1.01038
1.01021
1.00941
1.00836
1.00688
1.00514
1.0032
1.00118
0.999177
0.997316
0.995732
0.994526
1.01049
1.01032
1.00952
1.00845
1.00695
1.00519
1.00322
1.00117
0.999138
0.997248
0.995636
0.994409
1.0106
1.01044
1.00962
1.00855
1.00703
1.00525
1.00325
1.00117
0.999099
0.997177
0.995538
0.994288
1.01071
1.01055
1.00973
1.00865
1.00711
1.00531
1.00327
1.00116
0.999059
0.997106
0.995439
0.994165
1.01083
1.01067
1.00984
1.00875
1.00719
1.00536
1.0033
1.00115
0.999018
0.997033
0.995337
0.994039
1.01095
1.01079
1.00996
1.00886
1.00727
1.00542
1.00333
1.00115
0.998977
0.996959
0.995233
0.993911
1.01107
1.01092
1.01007
1.00896
1.00736
1.00549
1.00336
1.00114
0.998934
0.996883
0.995127
0.993779
1.01119
1.01104
1.01019
1.00907
1.00745
1.00555
1.00339
1.00114
0.998891
0.996806
0.995018
0.993646
1.01132
1.01117
1.01031
1.00918
1.00754
1.00561
1.00341
1.00113
0.998847
0.996727
0.994907
0.993509
1.01145
1.01131
1.01044
1.0093
1.00763
1.00568
1.00345
1.00112
0.998803
0.996646
0.994795
0.99337
1.01158
1.01144
1.01057
1.00942
1.00773
1.00575
1.00348
1.00112
0.998756
0.996564
0.994679
0.993227
1.01172
1.01158
1.0107
1.00954
1.00783
1.00582
1.00351
1.00111
0.99871
0.99648
0.994561
0.993082
1.01185
1.01172
1.01083
1.00966
1.00793
1.00589
1.00354
1.0011
0.998662
0.996394
0.994441
0.992934
1.01199
1.01186
1.01097
1.00978
1.00803
1.00596
1.00358
1.0011
0.998613
0.996306
0.994318
0.992783
1.01214
1.01201
1.01111
1.00991
1.00813
1.00603
1.00361
1.00109
0.998563
0.996216
0.994192
0.992628
1.01228
1.01216
1.01125
1.01004
1.00824
1.00611
1.00364
1.00108
0.998512
0.996124
0.994064
0.992471
1.01243
1.01231
1.0114
1.01018
1.00835
1.00618
1.00368
1.00108
0.99846
0.99603
0.993933
0.99231
1.01258
1.01247
1.01155
1.01031
1.00846
1.00626
1.00372
1.00107
0.998406
0.995935
0.9938
0.992146
1.01274
1.01263
1.0117
1.01045
1.00858
1.00634
1.00375
1.00106
0.998351
0.995836
0.993663
0.991979
1.01289
1.01279
1.01186
1.0106
1.00869
1.00642
1.00379
1.00105
0.998295
0.995736
0.993524
0.991808
1.01306
1.01296
1.01202
1.01074
1.00881
1.00651
1.00383
1.00104
0.998237
0.995634
0.993381
0.991634
1.01322
1.01313
1.01218
1.01089
1.00893
1.00659
1.00387
1.00103
0.998179
0.995529
0.993236
0.991457
1.01339
1.0133
1.01234
1.01104
1.00905
1.00668
1.00391
1.00102
0.998118
0.995421
0.993087
0.991275
1.01356
1.01348
1.01251
1.01119
1.00918
1.00676
1.00395
1.00101
0.998056
0.995312
0.992936
0.991091
1.01373
1.01366
1.01268
1.01135
1.00931
1.00685
1.00399
1.001
0.997992
0.9952
0.992781
0.990902
1.01391
1.01384
1.01286
1.01151
1.00944
1.00694
1.00403
1.00099
0.997927
0.995086
0.992624
0.990711
1.01409
1.01403
1.01304
1.01168
1.00957
1.00704
1.00407
1.00098
0.99786
0.994968
0.992462
0.990514
1.01428
1.01422
1.01322
1.01184
1.00971
1.00713
1.00411
1.00097
0.997792
0.994849
0.992298
0.990315
1.01447
1.01442
1.01341
1.01201
1.00984
1.00723
1.00415
1.00095
0.997721
0.994726
0.99213
0.990111
1.01466
1.01461
1.0136
1.01219
1.00998
1.00732
1.0042
1.00094
0.99765
0.994601
0.991959
0.989904
1.01486
1.01482
1.0138
1.01236
1.01013
1.00742
1.00424
1.00092
0.997575
0.994473
0.991784
0.989692
1.01506
1.01502
1.01399
1.01255
1.01028
1.00753
1.00428
1.00091
0.9975
0.994342
0.991605
0.989477
1.01526
1.01524
1.0142
1.01273
1.01043
1.00763
1.00433
1.00089
0.997422
0.994208
0.991423
0.989256
1.01547
1.01545
1.0144
1.01292
1.01058
1.00773
1.00438
1.00088
0.997343
0.994072
0.991237
0.989032
1.01569
1.01567
1.01461
1.01311
1.01073
1.00784
1.00442
1.00086
0.997261
0.993931
0.991046
0.988803
1.0159
1.0159
1.01483
1.01331
1.01089
1.00795
1.00447
1.00084
0.997177
0.993788
0.990852
0.98857
1.01613
1.01613
1.01505
1.01351
1.01105
1.00806
1.00452
1.00082
0.997091
0.993641
0.990654
0.988331
1.01635
1.01636
1.01527
1.01371
1.01122
1.00817
1.00456
1.0008
0.997003
0.993491
0.990451
0.988089
1.01658
1.0166
1.0155
1.01392
1.01139
1.00829
1.00461
1.00078
0.996911
0.993337
0.990244
0.987841
1.01682
1.01684
1.01574
1.01413
1.01156
1.00841
1.00466
1.00076
0.996818
0.99318
0.990033
0.987588
1.01706
1.01709
1.01598
1.01435
1.01173
1.00852
1.00471
1.00073
0.996721
0.993018
0.989816
0.98733
1.0173
1.01735
1.01622
1.01457
1.01191
1.00865
1.00476
1.00071
0.996623
0.992854
0.989596
0.987068
1.01755
1.0176
1.01647
1.0148
1.01209
1.00877
1.00481
1.00068
0.99652
0.992684
0.98937
0.986799
1.01781
1.01787
1.01672
1.01503
1.01228
1.00889
1.00486
1.00065
0.996416
0.992511
0.98914
0.986525
1.01807
1.01814
1.01698
1.01526
1.01247
1.00902
1.00491
1.00062
0.996308
0.992334
0.988904
0.986245
1.01834
1.01841
1.01725
1.0155
1.01266
1.00915
1.00496
1.00059
0.996198
0.992152
0.988664
0.985961
1.01861
1.0187
1.01752
1.01575
1.01286
1.00928
1.00501
1.00056
0.996084
0.991966
0.988417
0.985669
1.01888
1.01898
1.01779
1.016
1.01306
1.00941
1.00506
1.00053
0.995967
0.991775
0.988166
0.985373
1.01917
1.01928
1.01808
1.01626
1.01326
1.00955
1.00512
1.00049
0.995846
0.991579
0.987909
0.985069
1.01946
1.01958
1.01837
1.01652
1.01347
1.00969
1.00517
1.00045
0.995723
0.991379
0.987646
0.98476
1.01975
1.01988
1.01866
1.01678
1.01369
1.00983
1.00522
1.00041
0.995594
0.991173
0.987377
0.984444
1.02005
1.0202
1.01896
1.01706
1.01391
1.00997
1.00527
1.00037
0.995463
0.990963
0.987102
0.984122
1.02036
1.02052
1.01927
1.01734
1.01413
1.01012
1.00533
1.00033
0.995327
0.990746
0.98682
0.983792
1.02067
1.02084
1.01958
1.01762
1.01436
1.01027
1.00538
1.00028
0.995187
0.990524
0.986532
0.983456
1.021
1.02118
1.01991
1.01791
1.01459
1.01042
1.00543
1.00023
0.995042
0.990296
0.986237
0.983111
1.02132
1.02152
1.02024
1.01821
1.01482
1.01057
1.00549
1.00018
0.994893
0.990063
0.985935
0.982761
1.02166
1.02187
1.02057
1.01851
1.01507
1.01073
1.00554
1.00013
0.994739
0.989822
0.985626
0.982402
1.022
1.02222
1.02092
1.01882
1.01531
1.01089
1.00559
1.00007
0.99458
0.989576
0.98531
0.982036
1.02235
1.02259
1.02127
1.01914
1.01556
1.01105
1.00564
1.00001
0.994416
0.989322
0.984986
0.981661
1.02271
1.02296
1.02163
1.01947
1.01582
1.01121
1.0057
0.999951
0.994247
0.989062
0.984655
0.981279
1.02308
1.02334
1.02199
1.0198
1.01608
1.01138
1.00575
0.999884
0.994071
0.988795
0.984314
0.980887
1.02345
1.02373
1.02237
1.02014
1.01635
1.01154
1.0058
0.999815
0.993891
0.98852
0.983967
0.980488
1.02383
1.02413
1.02276
1.02048
1.01662
1.01171
1.00585
0.999741
0.993703
0.988237
0.98361
0.980079
1.02422
1.02454
1.02315
1.02084
1.0169
1.01189
1.0059
0.999664
0.99351
0.987948
0.983245
0.979662
1.02462
1.02495
1.02355
1.0212
1.01719
1.01206
1.00595
0.999582
0.99331
0.987649
0.98287
0.979234
1.02503
1.02538
1.02397
1.02157
1.01748
1.01224
1.00599
0.999496
0.993103
0.987342
0.982487
0.978798
1.02545
1.02581
1.02439
1.02195
1.01778
1.01242
1.00604
0.999405
0.992888
0.987026
0.982093
0.978351
1.02588
1.02626
1.02482
1.02234
1.01808
1.01261
1.00608
0.999309
0.992667
0.986701
0.98169
0.977895
1.02632
1.02672
1.02527
1.02274
1.01839
1.01279
1.00612
0.999208
0.992437
0.986366
0.981276
0.977427
1.02676
1.02719
1.02572
1.02315
1.0187
1.01298
1.00617
0.999101
0.9922
0.986022
0.980853
0.97695
1.02722
1.02766
1.02619
1.02357
1.01903
1.01317
1.0062
0.998988
0.991953
0.985667
0.980417
0.97646
1.02769
1.02815
1.02666
1.02399
1.01936
1.01336
1.00624
0.99887
0.991698
0.985302
0.979971
0.975961
1.02817
1.02866
1.02715
1.02443
1.01969
1.01356
1.00627
0.998744
0.991433
0.984926
0.979513
0.975448
1.02866
1.02917
1.02765
1.02488
1.02004
1.01376
1.00631
0.998612
0.991158
0.984539
0.979043
0.974925
1.02917
1.0297
1.02817
1.02534
1.02039
1.01396
1.00633
0.998472
0.990873
0.984139
0.97856
0.974387
1.02968
1.03024
1.02869
1.02581
1.02074
1.01416
1.00636
0.998325
0.990578
0.983728
0.978066
0.973839
1.03021
1.0308
1.02923
1.02629
1.02111
1.01436
1.00638
0.998168
0.99027
0.983303
0.977556
0.973276
1.03075
1.03136
1.02979
1.02678
1.02148
1.01457
1.00639
0.998003
0.989952
0.982866
0.977035
0.972701
1.03131
1.03195
1.03035
1.02728
1.02186
1.01477
1.0064
0.997828
0.98962
0.982414
0.976498
0.972111
1.03187
1.03254
1.03094
1.0278
1.02225
1.01498
1.00641
0.997645
0.989277
0.981949
0.975948
0.971508
1.03246
1.03316
1.03154
1.02833
1.02264
1.01519
1.00641
0.997449
0.988919
0.981468
0.975381
0.970889
1.03305
1.03379
1.03215
1.02888
1.02305
1.01539
1.00641
0.997244
0.988548
0.980972
0.9748
0.970257
1.03367
1.03443
1.03278
1.02943
1.02346
1.0156
1.00639
0.997026
0.988161
0.98046
0.974202
0.969607
1.03429
1.0351
1.03343
1.03001
1.02388
1.01581
1.00638
0.996796
0.98776
0.979933
0.973589
0.968943
1.03494
1.03578
1.03409
1.03059
1.02431
1.01602
1.00635
0.996552
0.987341
0.979387
0.972958
0.968262
1.0356
1.03648
1.03478
1.03119
1.02474
1.01623
1.00631
0.996295
0.986907
0.978824
0.97231
0.967565
1.03628
1.03719
1.03548
1.03181
1.02518
1.01644
1.00627
0.996023
0.986454
0.978242
0.971643
0.966849
1.03697
1.03793
1.0362
1.03244
1.02564
1.01664
1.00621
0.995735
0.985984
0.977641
0.970958
0.966117
1.03769
1.03869
1.03694
1.03309
1.0261
1.01685
1.00615
0.99543
0.985493
0.97702
0.970252
0.965365
1.03842
1.03947
1.03771
1.03376
1.02657
1.01705
1.00607
0.995108
0.984983
0.976379
0.969528
0.964596
1.03917
1.04027
1.03849
1.03444
1.02704
1.01725
1.00598
0.994767
0.98445
0.975715
0.968781
0.963806
1.03995
1.0411
1.0393
1.03514
1.02753
1.01744
1.00588
0.994406
0.983896
0.975029
0.968015
0.962998
1.04075
1.04195
1.04014
1.03586
1.02802
1.01763
1.00576
0.994023
0.983318
0.97432
0.967225
0.962168
1.04156
1.04282
1.04099
1.0366
1.02852
1.01781
1.00562
0.993619
0.982716
0.973587
0.966414
0.961318
1.04241
1.04372
1.04188
1.03736
1.02902
1.01799
1.00547
0.993189
0.982088
0.972828
0.965578
0.960445
1.04327
1.04465
1.04279
1.03814
1.02954
1.01816
1.0053
0.992736
0.981433
0.972044
0.964719
0.959551
1.04416
1.0456
1.04372
1.03894
1.03006
1.01831
1.0051
0.992255
0.98075
0.971232
0.963834
0.958634
1.04508
1.04659
1.04469
1.03976
1.03058
1.01846
1.00489
0.991747
0.980038
0.970394
0.962925
0.957694
1.04603
1.0476
1.04569
1.0406
1.03111
1.0186
1.00465
0.991208
0.979295
0.969525
0.961988
0.956729
1.047
1.04865
1.04672
1.04146
1.03165
1.01872
1.00438
0.990638
0.978521
0.968627
0.961025
0.95574
1.048
1.04973
1.04778
1.04235
1.03219
1.01883
1.00408
0.990034
0.977711
0.967697
0.960032
0.954725
1.04904
1.05085
1.04887
1.04326
1.03273
1.01892
1.00376
0.989395
0.976868
0.966736
0.959012
0.953685
1.0501
1.052
1.05
1.04419
1.03327
1.01899
1.0034
0.988717
0.975987
0.96574
0.957961
0.952617
1.0512
1.05319
1.05117
1.04514
1.03382
1.01904
1.00301
0.988001
0.975069
0.964711
0.95688
0.951523
1.05234
1.05442
1.05238
1.04612
1.03436
1.01906
1.00257
0.987241
0.974109
0.963644
0.955766
0.9504
1.05351
1.0557
1.05363
1.04713
1.0349
1.01906
1.0021
0.986438
0.973109
0.962541
0.954621
0.949249
1.05472
1.05701
1.05492
1.04815
1.03544
1.01902
1.00158
0.985586
0.972063
0.961399
0.953441
0.948067
1.05596
1.05838
1.05625
1.04921
1.03597
1.01895
1.00101
0.984686
0.970973
0.960218
0.952228
0.946856
1.05725
1.05979
1.05763
1.05028
1.03648
1.01884
1.0004
0.983732
0.969835
0.958995
0.950978
0.945613
1.05859
1.06126
1.05906
1.05138
1.03699
1.01869
0.999722
0.982723
0.968647
0.957731
0.949694
0.94434
1.05997
1.06277
1.06054
1.0525
1.03748
1.01849
0.998988
0.981655
0.967408
0.956422
0.948371
0.943033
1.0614
1.06435
1.06207
1.05365
1.03795
1.01824
0.99819
0.980525
0.966115
0.955068
0.947011
0.941694
1.06288
1.06599
1.06366
1.05482
1.03839
1.01794
0.997323
0.97933
0.964766
0.953668
0.945612
0.940319
1.06441
1.06769
1.0653
1.056
1.03881
1.01756
0.996383
0.978068
0.96336
0.95222
0.944173
0.938911
1.066
1.06946
1.067
1.0572
1.03919
1.01712
0.995363
0.976733
0.961894
0.950723
0.942692
0.937467
1.06765
1.0713
1.06877
1.05842
1.03953
1.0166
0.994259
0.975323
0.960365
0.949176
0.941171
0.935988
1.06936
1.07322
1.0706
1.05966
1.03982
1.016
0.993064
0.973833
0.958772
0.947577
0.939606
0.934471
1.07114
1.07521
1.07249
1.0609
1.04005
1.0153
0.991773
0.972261
0.957113
0.945925
0.937999
0.932917
1.07298
1.0773
1.07445
1.06214
1.04022
1.0145
0.990379
0.970602
0.955385
0.944218
0.936347
0.931323
1.07491
1.07947
1.07648
1.06338
1.04031
1.01359
0.988876
0.968853
0.953587
0.942457
0.934651
0.929692
1.0769
1.08175
1.07858
1.06462
1.04032
1.01256
0.987256
0.96701
0.951715
0.940639
0.932908
0.92802
1.07899
1.08412
1.08076
1.06584
1.04022
1.01139
0.985513
0.965069
0.94977
0.938764
0.931119
0.926309
1.08116
1.08661
1.083
1.06703
1.04001
1.01008
0.983639
0.963027
0.947747
0.93683
0.929283
0.924556
1.08343
1.08922
1.08532
1.06819
1.03968
1.00861
0.981628
0.96088
0.945648
0.934837
0.9274
0.922762
1.08579
1.09195
1.08772
1.06931
1.03919
1.00696
0.979472
0.958624
0.943468
0.932784
0.925469
0.920926
1.08827
1.09482
1.09018
1.07035
1.03854
1.00513
0.977163
0.956257
0.941208
0.930671
0.923489
0.919047
1.09086
1.09783
1.09271
1.07132
1.0377
1.0031
0.974694
0.953775
0.938866
0.928496
0.921461
0.917124
1.09358
1.10099
1.09531
1.07219
1.03665
1.00086
0.97206
0.951177
0.936441
0.926261
0.919385
0.915158
1.09643
1.10432
1.09796
1.07293
1.03537
0.998379
0.969251
0.94846
0.933933
0.923965
0.917259
0.913149
1.09943
1.10782
1.10065
1.07351
1.03382
0.995653
0.966265
0.945623
0.931342
0.921608
0.915084
0.911096
1.10259
1.11151
1.10338
1.07392
1.03198
0.992663
0.963093
0.942663
0.928667
0.919189
0.912861
0.908999
1.10592
1.11539
1.10612
1.0741
1.02981
0.989393
0.959733
0.939582
0.925909
0.916712
0.910589
0.906858
1.10944
1.11947
1.10886
1.07402
1.02728
0.985828
0.956181
0.936379
0.92307
0.914175
0.908269
0.904672
1.11317
1.12377
1.11157
1.07363
1.02435
0.981954
0.952435
0.933055
0.92015
0.91158
0.905902
0.902442
1.11712
1.12829
1.11422
1.07287
1.021
0.977756
0.948494
0.929613
0.917152
0.908929
0.903488
0.900167
1.12132
1.13303
1.11676
1.0717
1.01717
0.973225
0.944361
0.926055
0.914078
0.906224
0.901027
0.897848
1.12579
1.13801
1.11914
1.07004
1.01282
0.968352
0.940037
0.922386
0.910932
0.903466
0.898522
0.895483
1.13057
1.14322
1.12131
1.06782
1.00793
0.963131
0.935529
0.91861
0.907716
0.900658
0.895972
0.893074
1.13569
1.14865
1.1232
1.06495
1.00244
0.957563
0.930845
0.914734
0.904436
0.897803
0.893378
0.890619
1.14118
1.15429
1.1247
1.06136
0.996338
0.95165
0.925996
0.910765
0.901096
0.894904
0.890743
0.88812
1.14709
1.16012
1.12573
1.05694
0.989579
0.945403
0.920995
0.906711
0.897702
0.891965
0.888066
0.885576
1.15346
1.16609
1.12616
1.05161
0.982143
0.938838
0.915859
0.902583
0.89426
0.888988
0.885351
0.882987
1.16036
1.17216
1.12585
1.04526
0.974017
0.93198
0.910606
0.89839
0.890778
0.885979
0.882596
0.880352
1.16782
1.17825
1.12464
1.03778
0.965198
0.924861
0.905259
0.894144
0.887262
0.882941
0.879804
0.877674
1.17592
1.18425
1.12234
1.02908
0.955701
0.917521
0.899842
0.889859
0.883722
0.879878
0.876976
0.87495
1.18473
1.19004
1.11875
1.01906
0.945557
0.910012
0.89438
0.885546
0.880165
0.876795
0.874112
0.872183
1.19431
1.19545
1.11363
1.00766
0.934823
0.902391
0.8889
0.881222
0.8766
0.873696
0.871214
0.869372
1.20473
1.20024
1.10674
0.994807
0.923579
0.894723
0.883431
0.876899
0.873038
0.870584
0.868283
0.86652
1.21606
1.20414
1.0978
0.980492
0.911934
0.887079
0.878
0.872594
0.869487
0.867464
0.865319
0.863628
1.22834
1.20681
1.08653
0.964739
0.900028
0.879535
0.872635
0.868322
0.865956
0.864338
0.862323
0.8607
1.2416
1.20779
1.07263
0.947634
0.888028
0.872162
0.867359
0.864097
0.862453
0.861211
0.859304
0.857743
1.25584
1.20656
1.05584
0.929345
0.876127
0.865033
0.862198
0.859933
0.858984
0.858079
0.856254
0.85475
1.27099
1.20245
1.03593
0.910133
0.864532
0.858203
0.857166
0.855848
0.855572
0.854981
0.853227
0.851771
1.28687
1.19467
1.01272
0.890382
0.853477
0.851735
0.852267
0.851801
0.852131
0.851784
0.850083
0.848677
1.30316
1.18224
0.986218
0.870553
0.843118
0.84566
0.847613
0.84801
0.84897
0.848866
0.847167
0.845697
1.31936
1.16402
0.95673
0.851418
0.833744
0.839795
0.842697
0.843744
0.845217
0.84542
0.843838
0.842402
1.33449
1.1386
0.924705
0.833275
0.825872
0.835409
0.839315
0.841008
0.842803
0.843007
0.841245
0.839545
1.34741
1.10505
0.893134
0.816432
0.816654
0.828249
0.833067
0.835869
0.838681
0.839483
0.837935
0.836142
1.3545
1.05905
0.866211
0.809624
0.816498
0.827892
0.831592
0.833962
0.836742
0.837572
0.836016
0.83416
1.35722
0.986798
0.815462
0.784712
0.805217
0.822344
0.828645
0.832434
0.835967
0.837173
0.835857
0.834129
0.998423
0.997942
0.998018
0.998549
0.998997
0.999059
0.998815
0.998507
0.998311
0.998259
0.998287
0.99832
0.99844
0.9981
0.998171
0.99859
0.998949
0.998996
0.998782
0.998504
0.998321
0.998265
0.998287
0.998317
0.998606
0.998368
0.998363
0.998603
0.998845
0.998889
0.998732
0.998508
0.998343
0.99828
0.99829
0.998315
0.998815
0.998566
0.998447
0.998537
0.998705
0.998774
0.998689
0.998519
0.998369
0.998294
0.998289
0.998308
0.998922
0.998637
0.998453
0.998473
0.998617
0.998716
0.998681
0.998545
0.998399
0.998311
0.998291
0.998303
0.998928
0.998644
0.998457
0.998459
0.998585
0.998686
0.998669
0.998548
0.998406
0.998311
0.998281
0.998287
0.998905
0.998653
0.998485
0.998475
0.998571
0.998653
0.998637
0.998531
0.998401
0.998309
0.998274
0.998276
0.998898
0.998677
0.998523
0.998493
0.998554
0.998614
0.9986
0.998512
0.998397
0.99831
0.998271
0.998267
0.998906
0.998702
0.998551
0.998501
0.998534
0.998577
0.998567
0.998493
0.998391
0.998307
0.998264
0.998256
0.998913
0.998718
0.998567
0.998503
0.998516
0.998546
0.998537
0.998473
0.998381
0.998301
0.998257
0.998248
0.99891
0.998722
0.998574
0.998503
0.998501
0.998519
0.998507
0.998449
0.998366
0.998292
0.998251
0.998243
0.998899
0.99872
0.998578
0.998502
0.998487
0.998494
0.998478
0.998425
0.998351
0.998285
0.998246
0.998237
0.998885
0.998716
0.998579
0.998499
0.998472
0.998468
0.998449
0.998402
0.998336
0.998277
0.99824
0.998228
0.998872
0.998711
0.998576
0.998491
0.998456
0.998444
0.998423
0.99838
0.998322
0.998266
0.99823
0.998215
0.998857
0.998701
0.998569
0.998481
0.998439
0.998421
0.9984
0.99836
0.998305
0.998253
0.998216
0.998198
0.998841
0.998689
0.998559
0.99847
0.998423
0.998401
0.998378
0.998338
0.998286
0.998235
0.998197
0.998178
0.998821
0.998674
0.998547
0.998457
0.998408
0.998382
0.998355
0.998315
0.998264
0.998213
0.998176
0.998155
0.9988
0.998658
0.998535
0.998445
0.998392
0.998361
0.998331
0.998289
0.998239
0.998189
0.998152
0.99813
0.998779
0.998642
0.998521
0.998431
0.998374
0.998338
0.998305
0.998261
0.998211
0.998162
0.998126
0.998104
0.998759
0.998626
0.998507
0.998415
0.998354
0.998314
0.998276
0.998232
0.998181
0.998134
0.998099
0.998078
0.998738
0.998608
0.998489
0.998395
0.998331
0.998286
0.998246
0.9982
0.998151
0.998105
0.998071
0.998051
0.998716
0.998587
0.998468
0.998373
0.998305
0.998257
0.998215
0.998168
0.998119
0.998075
0.998042
0.998023
0.998691
0.998563
0.998445
0.998347
0.998277
0.998226
0.998182
0.998135
0.998088
0.998045
0.998013
0.997994
0.998663
0.998537
0.998418
0.998319
0.998247
0.998195
0.998149
0.998102
0.998056
0.998014
0.997983
0.997964
0.998633
0.998508
0.998388
0.998289
0.998215
0.998162
0.998116
0.998069
0.998023
0.997982
0.997952
0.997933
0.9986
0.998476
0.998357
0.998257
0.998183
0.998128
0.998082
0.998035
0.99799
0.997949
0.997919
0.997901
0.998565
0.998442
0.998324
0.998224
0.998149
0.998094
0.998047
0.998001
0.997955
0.997915
0.997886
0.997868
0.998529
0.998408
0.99829
0.99819
0.998115
0.998059
0.998012
0.997965
0.99792
0.997881
0.997851
0.997834
0.998491
0.998372
0.998255
0.998155
0.998079
0.998023
0.997975
0.997929
0.997884
0.997844
0.997815
0.997798
0.998454
0.998336
0.99822
0.99812
0.998043
0.997986
0.997937
0.997891
0.997846
0.997807
0.997778
0.997762
0.998415
0.9983
0.998184
0.998084
0.998005
0.997947
0.997898
0.997852
0.997807
0.997769
0.99774
0.997724
0.998377
0.998263
0.998148
0.998046
0.997967
0.997907
0.997858
0.997811
0.997767
0.997729
0.997701
0.997685
0.998339
0.998226
0.998111
0.998008
0.997926
0.997866
0.997816
0.99777
0.997725
0.997688
0.997659
0.997644
0.9983
0.998188
0.998072
0.997968
0.997885
0.997824
0.997773
0.997727
0.997682
0.997645
0.997617
0.997601
0.998261
0.99815
0.998033
0.997927
0.997842
0.99778
0.997728
0.997682
0.997638
0.997601
0.997572
0.997557
0.998221
0.998111
0.997993
0.997885
0.997799
0.997735
0.997683
0.997636
0.997592
0.997555
0.997526
0.997511
0.998181
0.998071
0.997952
0.997842
0.997754
0.997688
0.997636
0.997589
0.997545
0.997507
0.997479
0.997464
0.998141
0.99803
0.99791
0.997798
0.997708
0.997641
0.997587
0.99754
0.997495
0.997458
0.99743
0.997416
0.998099
0.997988
0.997867
0.997753
0.99766
0.997592
0.997538
0.99749
0.997445
0.997407
0.99738
0.997366
0.998057
0.997946
0.997824
0.997706
0.997612
0.997541
0.997486
0.997438
0.997393
0.997355
0.997328
0.997316
0.998014
0.997902
0.997778
0.997658
0.997561
0.997489
0.997434
0.997384
0.99734
0.997302
0.997276
0.997264
0.99797
0.997857
0.997731
0.997609
0.99751
0.997436
0.99738
0.99733
0.997286
0.997248
0.997224
0.997212
0.997925
0.997811
0.997683
0.997558
0.997457