/*--------------------------------*- C++ -*----------------------------------*\
  =========                 |
  \\      /  F ield         | OpenFOAM: The Open Source CFD Toolbox
   \\    /   O peration     | Website:  https://openfoam.org
    \\  /    A nd           | Version:  6.0
     \\/     M anipulation  |
\*---------------------------------------------------------------------------*/
FoamFile
{
    version     2.0;
    format      ascii;
    class       surfaceScalarField;
    location    "0.2";
    object      phi;
}
// * * * * * * * * * * * * * * * * * * * * * * * * * * * * * * * * * * * * * //

dimensions      [0 3 -1 0 0 0 0];

internalField   nonuniform List<scalar> 
47678
(
2.98115e-05
0.00388594
-2.84684e-11
5.98477e-05
0.00381846
8.91145e-05
0.0036859
0.000116963
0.00349028
0.000142854
0.00323502
0.000166312
0.00292452
0.000186914
0.00256409
0.000204294
0.00215998
0.000218144
0.00171913
0.000228219
0.00124915
0.00023434
0.000758497
0.000256769
0.000236631
2.96224e-05
0.00385632
-5.31228e-11
5.9469e-05
0.00378862
8.85501e-05
0.00365682
0.000116221
0.00346261
0.000141945
0.0032093
0.000165252
0.00290121
0.000185723
0.00254363
0.000202992
0.00214272
0.000216754
0.00170537
0.000226764
0.00123914
0.000232885
0.000752379
0.000254456
0.000235194
2.94347e-05
0.00382689
-2.13545e-10
5.90924e-05
0.00375896
8.79889e-05
0.00362792
0.000115483
0.00343512
0.000141043
0.00318374
0.000164201
0.00287805
0.000184541
0.00252329
0.0002017
0.00212556
0.000215375
0.00169169
0.000225322
0.0012292
0.000231416
0.000746284
0.000252177
0.000233691
2.92484e-05
0.00379764
-4.81985e-10
5.87183e-05
0.00372949
8.74311e-05
0.00359921
0.00011475
0.0034078
0.000140147
0.00315834
0.000163157
0.00285505
0.000183367
0.00250308
0.000200417
0.00210851
0.000214005
0.00167811
0.000223889
0.00121932
0.000229945
0.000740231
0.000249947
0.000232172
2.90634e-05
0.00376858
-7.70936e-10
5.83466e-05
0.00370021
8.68766e-05
0.00357068
0.000114021
0.00338066
0.000139255
0.00313311
0.000162118
0.00283218
0.000182199
0.002483
0.00019914
0.00209157
0.000212643
0.00166461
0.000222466
0.00120949
0.000228479
0.000734217
0.000247752
0.000230669
2.88795e-05
0.0037397
-1.09207e-09
5.7977e-05
0.00367111
8.63253e-05
0.00354233
0.000113296
0.00335369
0.000138369
0.00310804
0.000161087
0.00280947
0.000181039
0.00246305
0.000197873
0.00207474
0.000211289
0.00165119
0.000221051
0.00119973
0.000227023
0.000728248
0.000245581
0.000229191
2.86967e-05
0.003711
-1.45152e-09
5.76094e-05
0.0036422
8.57771e-05
0.00351416
0.000112576
0.00332689
0.000137489
0.00308312
0.000160062
0.0027869
0.000179887
0.00244323
0.000196613
0.00205801
0.000209945
0.00163786
0.000219646
0.00119003
0.000225578
0.000722314
0.000243427
0.000227728
2.85149e-05
0.00368249
-1.8236e-09
5.72438e-05
0.00361347
8.52321e-05
0.00348617
0.00011186
0.00330026
0.000136615
0.00305837
0.000159043
0.00276447
0.000178742
0.00242353
0.000195363
0.0020414
0.000208609
0.00162462
0.00021825
0.00118039
0.000224144
0.000716422
0.000241295
0.000226274
2.83341e-05
0.00365416
-2.19635e-09
5.68802e-05
0.00358493
8.46903e-05
0.00345836
0.000111148
0.0032738
0.000135746
0.00303377
0.000158031
0.00274218
0.000177605
0.00240395
0.00019412
0.00202488
0.000207283
0.00161145
0.000216864
0.00117081
0.00022272
0.000710565
0.000239184
0.000224827
2.81542e-05
0.00362601
-2.48611e-09
5.65187e-05
0.00355656
8.41517e-05
0.00343073
0.000110441
0.00324752
0.000134882
0.00300933
0.000157026
0.00272004
0.000176476
0.00238451
0.000192886
0.00200847
0.000205965
0.00159838
0.000215486
0.00116129
0.000221304
0.000704748
0.000237099
0.000223388
2.79752e-05
0.00359803
-2.61204e-09
5.61592e-05
0.00352838
8.36164e-05
0.00340327
0.000109739
0.00322139
0.000134024
0.00298505
0.000156027
0.00269804
0.000175353
0.00236518
0.000191659
0.00199216
0.000204656
0.00158538
0.000214117
0.00115183
0.000219897
0.000698967
0.000235033
0.00022196
2.77971e-05
0.00357024
-2.47806e-09
5.58017e-05
0.00350037
8.30843e-05
0.00337599
0.00010904
0.00319544
0.000133171
0.00296092
0.000155035
0.00267617
0.000174238
0.00234598
0.000190441
0.00197596
0.000203355
0.00157247
0.000212757
0.00114243
0.000218499
0.000693226
0.00023299
0.000220542
2.76199e-05
0.00354262
-1.98682e-09
5.54464e-05
0.00347255
8.25555e-05
0.00334888
0.000108347
0.00316965
0.000132324
0.00293694
0.000154049
0.00265445
0.00017313
0.0023269
0.00018923
0.00195986
0.000202063
0.00155963
0.000211406
0.00113308
0.000217111
0.000687519
0.000230964
0.000219135
2.74436e-05
0.00351518
-1.07363e-09
5.50931e-05
0.0034449
8.20298e-05
0.00332195
0.000107657
0.00314402
0.000131483
0.00291312
0.000153069
0.00263286
0.000172029
0.00230794
0.000188027
0.00194387
0.000200779
0.00154688
0.000210063
0.0011238
0.000215732
0.000681852
0.000228959
0.000217737
2.72683e-05
0.00348791
3.02614e-10
5.4742e-05
0.00341742
8.15075e-05
0.00329518
0.000106972
0.00311855
0.000130646
0.00288944
0.000152096
0.00261141
0.000170936
0.0022891
0.000186832
0.00192797
0.000199504
0.00153421
0.00020873
0.00111457
0.000214361
0.000676219
0.00022697
0.000216348
2.70939e-05
0.00346082
2.13592e-09
5.4393e-05
0.00339013
8.09884e-05
0.00326859
0.000106291
0.00309325
0.000129815
0.00286592
0.000151129
0.0025901
0.000169849
0.00227038
0.000185645
0.00191217
0.000198237
0.00152162
0.000207405
0.00110541
0.000213
0.000670625
0.000225001
0.00021497
2.69205e-05
0.00343389
4.37486e-09
5.40461e-05
0.003363
8.04725e-05
0.00324216
0.000105615
0.00306811
0.000128989
0.00284254
0.000150168
0.00256892
0.000168769
0.00225178
0.000184465
0.00189648
0.000196978
0.0015091
0.000206089
0.0010963
0.000211648
0.000665064
0.000223044
0.000213601
2.6748e-05
0.00340714
6.93902e-09
5.37013e-05
0.00333605
7.99599e-05
0.0032159
0.000104943
0.00304313
0.000128169
0.00281932
0.000149213
0.00254788
0.000167697
0.00223329
0.000183293
0.00188088
0.000195727
0.00149667
0.000204781
0.00108724
0.000210305
0.000659541
0.000221108
0.000212241
2.65765e-05
0.00338055
9.72454e-09
5.33585e-05
0.00330926
7.94505e-05
0.00318981
0.000104275
0.0030183
0.000127353
0.00279624
0.000148264
0.00252697
0.000166631
0.00221493
0.000182129
0.00186538
0.000194484
0.00148431
0.000203481
0.00107825
0.00020897
0.00065405
0.000219182
0.00021089
2.64059e-05
0.00335413
1.26344e-08
5.30179e-05
0.00328265
7.89442e-05
0.00316388
0.000103611
0.00299364
0.000126543
0.00277331
0.000147321
0.00250619
0.000165572
0.00219668
0.000180972
0.00184998
0.000193249
0.00147204
0.00020219
0.00106931
0.000207644
0.000648598
0.000217277
0.000209549
2.62362e-05
0.00332788
1.55856e-08
5.26793e-05
0.00325621
7.8441e-05
0.00313812
0.000102951
0.00296912
0.000125738
0.00275052
0.000146385
0.00248554
0.00016452
0.00217854
0.000179822
0.00183468
0.000192023
0.00145984
0.000200907
0.00106042
0.000206327
0.000643176
0.000215381
0.000208216
2.60675e-05
0.00330179
1.85236e-08
5.23427e-05
0.00322993
7.7941e-05
0.00311252
0.000102296
0.00294477
0.000124938
0.00272788
0.000145454
0.00246503
0.000163474
0.00216052
0.00017868
0.00181947
0.000190803
0.00144771
0.000199632
0.00105159
0.000205018
0.000637792
0.000213506
0.000206891
2.58998e-05
0.00327587
2.14197e-08
5.20082e-05
0.00320383
7.7444e-05
0.00308709
0.000101644
0.00292057
0.000124143
0.00270538
0.000144529
0.00244464
0.000162435
0.00214261
0.000177545
0.00180436
0.000189592
0.00143567
0.000198366
0.00104282
0.000203717
0.000632439
0.000211638
0.000205576
2.57331e-05
0.00325012
2.42678e-08
5.16757e-05
0.00317788
7.69502e-05
0.00306181
0.000100997
0.00289652
0.000123354
0.00268302
0.00014361
0.00242438
0.000161403
0.00212482
0.000176418
0.00178935
0.000188389
0.0014237
0.000197107
0.0010341
0.000202424
0.000627123
0.000209793
0.000204269
2.55673e-05
0.00322452
2.70723e-08
5.13453e-05
0.0031521
7.64593e-05
0.0030367
0.000100354
0.00287263
0.000122569
0.00266081
0.000142697
0.00240425
0.000160378
0.00210714
0.000175297
0.00177443
0.000187193
0.0014118
0.000195856
0.00102544
0.00020114
0.000621837
0.000207953
0.000202971
2.54024e-05
0.00319909
2.98419e-08
5.10169e-05
0.00312649
7.59716e-05
0.00301175
9.97148e-05
0.00284889
0.000121789
0.00263874
0.00014179
0.00238425
0.000159359
0.00208957
0.000174184
0.00175961
0.000186005
0.00139998
0.000194614
0.00101683
0.000199864
0.000616589
0.000206135
0.000201681
2.52386e-05
0.00317382
3.25764e-08
5.06904e-05
0.00310104
7.54869e-05
0.00298695
9.90796e-05
0.00282529
0.000121014
0.0026168
0.000140889
0.00236438
0.000158347
0.00207211
0.000173078
0.00174487
0.000184824
0.00138823
0.000193379
0.00100827
0.000198596
0.000611369
0.000204322
0.0002004
2.50757e-05
0.00314871
3.52682e-08
5.0366e-05
0.00307575
7.50052e-05
0.00296231
9.84484e-05
0.00280185
0.000120244
0.00259501
0.000139993
0.00234463
0.000157341
0.00205477
0.000171979
0.00173023
0.000183651
0.00137656
0.000192152
0.000999772
0.000197336
0.000606187
0.000202531
0.000199128
2.49138e-05
0.00312376
3.78955e-08
5.00437e-05
0.00305062
7.45265e-05
0.00293783
9.78213e-05
0.00277855
0.000119479
0.00257335
0.000139103
0.002325
0.000156341
0.00203753
0.000170887
0.00171569
0.000182485
0.00136496
0.000190933
0.000991323
0.000196084
0.000601033
0.000200743
0.000197863
2.47529e-05
0.00309896
4.04301e-08
4.97233e-05
0.00302565
7.40509e-05
0.0029135
9.71981e-05
0.00275541
0.000118719
0.00255183
0.000138219
0.00230551
0.000155348
0.0020204
0.000169802
0.00170123
0.000181327
0.00135344
0.000189721
0.00098293
0.00019484
0.000595917
0.000198978
0.000196607
2.45931e-05
0.00307433
4.2837e-08
4.94049e-05
0.00300084
7.35782e-05
0.00288933
9.65789e-05
0.00273241
0.000117964
0.00253044
0.000137341
0.00228613
0.000154361
0.00200338
0.000168724
0.00168687
0.000180176
0.00134199
0.000188517
0.000974587
0.000193604
0.000590827
0.000197216
0.000195359
2.44342e-05
0.00304985
4.50849e-08
4.90886e-05
0.00297618
7.31086e-05
0.00286531
9.59636e-05
0.00270955
0.000117213
0.00250919
0.000136468
0.00226687
0.000153381
0.00198647
0.000167653
0.0016726
0.000179033
0.00133061
0.000187321
0.0009663
0.000192376
0.000585775
0.000195477
0.000194119
2.42764e-05
0.00302552
4.7146e-08
4.87742e-05
0.00295168
7.26419e-05
0.00284144
9.53523e-05
0.00268684
0.000116467
0.00248808
0.0001356
0.00224774
0.000152406
0.00196966
0.000166589
0.00165842
0.000177896
0.0013193
0.000186133
0.000958062
0.000191155
0.00058075
0.000193739
0.000192886
2.41196e-05
0.00300136
4.90049e-08
4.84619e-05
0.00292734
7.21783e-05
0.00281772
9.47449e-05
0.00266427
0.000115726
0.0024671
0.000134738
0.00222873
0.000151438
0.00195296
0.000165531
0.00164432
0.000176767
0.00130807
0.000184952
0.000949879
0.000189943
0.000575761
0.000192024
0.000191662
2.39638e-05
0.00297734
5.06545e-08
4.81516e-05
0.00290315
7.17176e-05
0.00279416
9.41414e-05
0.00264185
0.00011499
0.00244625
0.000133882
0.00220984
0.000150477
0.00193637
0.00016448
0.00163032
0.000175646
0.0012969
0.000183779
0.000941744
0.000188738
0.000570799
0.000190311
0.000190445
2.38091e-05
0.00295348
5.21016e-08
4.78433e-05
0.00287912
7.12599e-05
0.00277074
9.35417e-05
0.00261957
0.000114259
0.00242553
0.000133031
0.00219106
0.000149521
0.00191988
0.000163436
0.00161641
0.000174531
0.0012858
0.000182613
0.000933664
0.00018754
0.000565874
0.000188619
0.000189236
2.36554e-05
0.00292977
5.33581e-08
4.7537e-05
0.00285524
7.08052e-05
0.00274747
9.29459e-05
0.00259743
0.000113532
0.00240494
0.000132186
0.00217241
0.000148571
0.00190349
0.000162398
0.00160258
0.000173423
0.00127478
0.000181454
0.000925631
0.00018635
0.000560974
0.000186928
0.000188034
2.35028e-05
0.00290621
5.44433e-08
4.72328e-05
0.00283151
7.03534e-05
0.00272435
9.2354e-05
0.00257543
0.00011281
0.00238449
0.000131346
0.00215387
0.000147628
0.00188721
0.000161367
0.00158884
0.000172323
0.00126382
0.000180303
0.000917653
0.000185168
0.000556111
0.000185258
0.00018684
2.33512e-05
0.00288281
5.53743e-08
4.69305e-05
0.00280793
6.99046e-05
0.00270138
9.17659e-05
0.00255357
0.000112092
0.00236416
0.000130511
0.00213545
0.00014669
0.00187103
0.000160343
0.00157518
0.000171229
0.00125294
0.000179159
0.000909721
0.000183993
0.000551272
0.000183588
0.000185654
2.32007e-05
0.00285955
5.61683e-08
4.66303e-05
0.0027845
6.94587e-05
0.00267855
9.11815e-05
0.00253184
0.000111379
0.00234396
0.000129682
0.00211715
0.000145758
0.00185495
0.000159325
0.00156162
0.000170142
0.00124212
0.000178022
0.000901843
0.000182826
0.00054647
0.000181939
0.000184475
2.30513e-05
0.00283644
5.68351e-08
4.6332e-05
0.00276122
6.90156e-05
0.00265587
9.06009e-05
0.00251026
0.000110671
0.00232389
0.000128858
0.00209896
0.000144833
0.00183898
0.000158314
0.00154814
0.000169063
0.00123137
0.000176893
0.000894011
0.000181666
0.000541693
0.000180289
0.000183304
2.29029e-05
0.00281348
5.73829e-08
4.60357e-05
0.00273809
6.85755e-05
0.00263333
9.00241e-05
0.00248881
0.000109967
0.00230395
0.000128039
0.00208089
0.000143913
0.0018231
0.000157309
0.00153474
0.00016799
0.00122069
0.000175771
0.000886232
0.000180514
0.000536952
0.000178661
0.00018214
2.27555e-05
0.00279067
5.78149e-08
4.57414e-05
0.0027151
6.81382e-05
0.00261093
8.9451e-05
0.0024675
0.000109268
0.00228413
0.000127225
0.00206294
0.000142999
0.00180733
0.00015631
0.00152143
0.000166924
0.00121007
0.000174655
0.000878498
0.000179368
0.000532234
0.00017703
0.000180984
2.26092e-05
0.002768
5.81377e-08
4.5449e-05
0.00269226
6.77038e-05
0.00258867
8.88815e-05
0.00244632
0.000108573
0.00226444
0.000126417
0.00204509
0.000142091
0.00179166
0.000155317
0.0015082
0.000165864
0.00119953
0.000173547
0.000870817
0.00017823
0.000527552
0.000175423
0.000179836
2.24638e-05
0.00274548
5.83598e-08
4.51586e-05
0.00266956
6.72722e-05
0.00256656
8.83157e-05
0.00242528
0.000107883
0.00224487
0.000125613
0.00202736
0.000141188
0.00177608
0.000154331
0.00149506
0.000164812
0.00118905
0.000172446
0.000863179
0.0001771
0.000522893
0.000173811
0.000178694
2.23196e-05
0.0027231
5.85e-08
4.487e-05
0.00264701
6.68434e-05
0.00254459
8.77536e-05
0.00240437
0.000107197
0.00222543
0.000124815
0.00200974
0.000140291
0.00176061
0.000153352
0.001482
0.000163766
0.00117863
0.000171352
0.000855595
0.000175976
0.00051827
0.000172224
0.000177561
2.21763e-05
0.00270087
5.85837e-08
4.45834e-05
0.00262461
6.64173e-05
0.00252275
8.7195e-05
0.00238359
0.000106515
0.00220611
0.000124022
0.00199224
0.0001394
0.00174523
0.000152378
0.00146902
0.000162726
0.00116828
0.000170265
0.000848053
0.00017486
0.000513667
0.000170631
0.000176434
2.2034e-05
0.00267878
5.86474e-08
4.42987e-05
0.00260234
6.59941e-05
0.00250106
8.66401e-05
0.00236294
0.000105838
0.00218692
0.000123234
0.00197484
0.000138515
0.00172995
0.000151411
0.00145613
0.000161694
0.001158
0.000169185
0.000840564
0.000173751
0.0005091
0.000169066
0.000175315
2.18927e-05
0.00265682
5.87309e-08
4.40158e-05
0.00258022
6.55735e-05
0.0024795
8.60886e-05
0.00234243
0.000105164
0.00216784
0.00012245
0.00195755
0.000137635
0.00171476
0.000150449
0.00144331
0.000160667
0.00114778
0.000168112
0.000833116
0.000172649
0.000504554
0.000167495
0.000174203
2.17523e-05
0.00263501
5.88783e-08
4.37348e-05
0.00255824
6.51557e-05
0.00245808
8.55407e-05
0.00232204
0.000104496
0.00214888
0.000121672
0.00194038
0.000136761
0.00169967
0.000149494
0.00143058
0.000159648
0.00113763
0.000167045
0.000825721
0.000171553
0.000500044
0.000165952
0.000173099
2.16129e-05
0.00261334
5.91279e-08
4.34556e-05
0.00253639
6.47405e-05
0.0024368
8.49963e-05
0.00230178
0.000103831
0.00213005
0.000120899
0.00192331
0.000135892
0.00168468
0.000148545
0.00141792
0.000158635
0.00112754
0.000165986
0.000818366
0.000170466
0.000495552
0.000164401
0.000172002
2.14745e-05
0.00259181
5.95126e-08
4.31783e-05
0.00251469
6.4328e-05
0.00241565
8.44554e-05
0.00228166
0.000103171
0.00211133
0.000120131
0.00190635
0.000135029
0.00166978
0.000147602
0.00140535
0.000157628
0.00111751
0.000164933
0.000811064
0.000169385
0.000491097
0.00016288
0.000170912
2.1337e-05
0.00257041
6.00513e-08
4.29028e-05
0.00249312
6.39182e-05
0.00239463
8.39178e-05
0.00226166
0.000102515
0.00209274
0.000119367
0.0018895
0.000134171
0.00165497
0.000146665
0.00139286
0.000156628
0.00110755
0.000163887
0.000803801
0.00016831
0.000486661
0.000161351
0.000169828
2.12004e-05
0.00254915
6.07523e-08
4.2629e-05
0.0024717
6.3511e-05
0.00237375
8.33838e-05
0.00224179
0.000101863
0.00207426
0.000118608
0.00187275
0.000133319
0.00164027
0.000145734
0.00138044
0.000155634
0.00109765
0.000162847
0.000796589
0.000167243
0.000482262
0.00015985
0.000168752
2.10647e-05
0.00252802
6.16089e-08
4.2357e-05
0.0024504
6.31064e-05
0.002353
8.2853e-05
0.00222204
0.000101215
0.0020559
0.000117855
0.00185611
0.000132472
0.00162565
0.000144808
0.00136811
0.000154646
0.00108781
0.000161814
0.000789417
0.000166183
0.000477881
0.000158342
0.000167683
2.09299e-05
0.00250703
6.26068e-08
4.20868e-05
0.00242925
6.27043e-05
0.00233238
8.23257e-05
0.00220242
0.000100571
0.00203765
0.000117105
0.00183958
0.000131631
0.00161112
0.000143889
0.00135585
0.000153665
0.00107803
0.000160788
0.000782296
0.00016513
0.000473537
0.000156859
0.00016662
2.07959e-05
0.00248617
6.37219e-08
4.18183e-05
0.00240822
6.23048e-05
0.00231189
8.18017e-05
0.00218292
9.99315e-05
0.00201952
0.000116361
0.00182315
0.000130794
0.00159669
0.000142976
0.00134367
0.00015269
0.00106832
0.000159769
0.000775212
0.000164083
0.000469211
0.000155366
0.000165564
2.06629e-05
0.00246544
6.49299e-08
4.15515e-05
0.00238734
6.19079e-05
0.00229154
8.1281e-05
0.00216355
9.92959e-05
0.00200151
0.000115622
0.00180682
0.000129964
0.00158235
0.000142068
0.00133156
0.000151722
0.00105866
0.000158756
0.00076818
0.000163043
0.000464922
0.000153899
0.000164515
2.05306e-05
0.00244484
6.62042e-08
4.12865e-05
0.00236658
6.15135e-05
0.00227131
8.07636e-05
0.0021443
9.86644e-05
0.0019836
0.000114887
0.0017906
0.000129138
0.00156809
0.000141166
0.00131953
0.000150759
0.00104907
0.000157749
0.000761184
0.00016201
0.00046065
0.000152422
0.000163473
2.03992e-05
0.00242438
6.75245e-08
4.10231e-05
0.00234596
6.11215e-05
0.00225121
8.02495e-05
0.00212517
9.80368e-05
0.00196582
0.000114156
0.00177448
0.000128318
0.00155393
0.00014027
0.00130758
0.000149803
0.00103954
0.000156749
0.00075424
0.000160984
0.000456415
0.000150968
0.000162437
2.02687e-05
0.00240404
6.8872e-08
4.07614e-05
0.00232546
6.07321e-05
0.00223124
7.97387e-05
0.00210616
9.74132e-05
0.00194814
0.000113431
0.00175846
0.000127503
0.00153986
0.00013938
0.0012957
0.000148853
0.00103006
0.000155756
0.000747331
0.000159964
0.000452195
0.000149504
0.000161408
2.01389e-05
0.00238383
7.0236e-08
4.05013e-05
0.0023051
6.03451e-05
0.0022114
7.9231e-05
0.00208728
9.67935e-05
0.00193058
0.00011271
0.00174255
0.000126693
0.00152588
0.000138495
0.0012839
0.000147909
0.00102065
0.000154769
0.000740472
0.000158951
0.000448012
0.000148065
0.000160386
2.001e-05
0.00236375
7.16065e-08
4.02429e-05
0.00228487
5.99605e-05
0.00219168
7.87266e-05
0.00206851
9.61778e-05
0.00191313
0.000111993
0.00172673
0.000125888
0.00151198
0.000137617
0.00127217
0.000146971
0.00101129
0.000153788
0.000733649
0.000157944
0.000443845
0.000146613
0.00015937
1.98818e-05
0.00234379
7.29797e-08
3.99861e-05
0.00226476
5.95784e-05
0.00217209
7.82254e-05
0.00204986
9.5566e-05
0.00189579
0.000111282
0.00171101
0.000125089
0.00149817
0.000136743
0.00126052
0.000146039
0.001002
0.000152813
0.000726875
0.000156944
0.000439713
0.000145189
0.000158361
1.97544e-05
0.00232396
7.43491e-08
3.97309e-05
0.00224479
5.91987e-05
0.00215262
7.77273e-05
0.00203133
9.49581e-05
0.00187856
0.000110574
0.0016954
0.000124295
0.00148445
0.000135876
0.00124893
0.000145113
0.000992755
0.000151845
0.000720137
0.00015595
0.000435595
0.000143752
0.000157359
1.96278e-05
0.00230426
7.57112e-08
3.94773e-05
0.00222494
5.88214e-05
0.00213328
7.72324e-05
0.00201292
9.4354e-05
0.00186144
0.000109872
0.00167988
0.000123505
0.00147082
0.000135014
0.00123743
0.000144193
0.000983576
0.000150883
0.000713447
0.000154963
0.000431512
0.000142344
0.000156364
1.9502e-05
0.00228468
7.70577e-08
3.92253e-05
0.00220521
5.84464e-05
0.00211406
7.67406e-05
0.00199463
9.37538e-05
0.00184442
0.000109173
0.00166446
0.000122721
0.00145727
0.000134157
0.00122599
0.000143279
0.00097445
0.000149928
0.000706791
0.000153982
0.000427443
0.000140926
0.000155374
1.93769e-05
0.00226522
7.8382e-08
3.89748e-05
0.00218562
5.80738e-05
0.00209496
7.6252e-05
0.00197645
9.31574e-05
0.00182752
0.00010848
0.00164914
0.000121942
0.00144381
0.000133306
0.00121462
0.000142371
0.000965385
0.000148978
0.000700184
0.000153007
0.000423409
0.000139538
0.000154392
1.92526e-05
0.00224589
7.96727e-08
3.8726e-05
0.00216614
5.77035e-05
0.00207598
7.57664e-05
0.00195839
9.25648e-05
0.00181072
0.00010779
0.00163391
0.000121168
0.00143043
0.000132461
0.00120333
0.000141469
0.000956372
0.000148035
0.00069361
0.000152039
0.000419389
0.000138138
0.000153416
1.9129e-05
0.00222668
8.0921e-08
3.84786e-05
0.00214679
5.73356e-05
0.00205712
7.52839e-05
0.00194044
9.19759e-05
0.00179403
0.000107105
0.00161878
0.000120399
0.00141714
0.000131621
0.00119211
0.000140573
0.00094742
0.000147098
0.000687085
0.000151077
0.000415403
0.000136768
0.000152447
1.90062e-05
0.00220759
8.21152e-08
3.82328e-05
0.00212757
5.697e-05
0.00203839
7.48044e-05
0.00192261
9.13909e-05
0.00177744
0.000106425
0.00160375
0.000119635
0.00140392
0.000130786
0.00118095
0.000139682
0.000938519
0.000146167
0.000680592
0.000150122
0.000411431
0.00013539
0.000151484
1.88841e-05
0.00218862
8.32481e-08
3.79885e-05
0.00210846
5.66067e-05
0.00201977
7.43281e-05
0.00190489
9.08095e-05
0.00176096
0.000105749
0.00158881
0.000118875
0.0013908
0.000129957
0.00116987
0.000138797
0.000929679
0.000145242
0.000674147
0.000149173
0.000407495
0.000134038
0.000150527
1.87628e-05
0.00216977
8.43109e-08
3.77458e-05
0.00208948
5.62457e-05
0.00200127
7.38547e-05
0.00188728
9.02319e-05
0.00174458
0.000105077
0.00157396
0.000118121
0.00137775
0.000129133
0.00115885
0.000137918
0.000920888
0.000144323
0.000667735
0.00014823
0.000403572
0.000132678
0.000149576
1.86421e-05
0.00215105
8.53006e-08
3.75045e-05
0.00207062
5.58869e-05
0.00198289
7.33843e-05
0.00186978
8.9658e-05
0.00172831
0.000104409
0.00155921
0.000117371
0.00136479
0.000128315
0.00114791
0.000137045
0.000912157
0.00014341
0.000661369
0.000147293
0.000399684
0.000131344
0.000148632
1.85222e-05
0.00213244
8.62125e-08
3.72648e-05
0.00205187
5.55304e-05
0.00196462
7.2917e-05
0.00185239
8.90877e-05
0.00171213
0.000103746
0.00154455
0.000116627
0.00135191
0.000127501
0.00113703
0.000136177
0.000903475
0.000142503
0.000655036
0.000146362
0.00039581
0.00013
0.000147694
1.84031e-05
0.00211395
8.70478e-08
3.70265e-05
0.00203325
5.51762e-05
0.00194647
7.24526e-05
0.00183512
8.85211e-05
0.00169607
0.000103087
0.00152999
0.000115887
0.00133911
0.000126693
0.00112623
0.000135315
0.000894853
0.000141602
0.000648749
0.000145438
0.000391971
0.000128681
0.000146762
1.82846e-05
0.00209557
8.78049e-08
3.67898e-05
0.00201475
5.48242e-05
0.00192844
7.19912e-05
0.00181795
8.79582e-05
0.0016801
0.000102432
0.00151551
0.000115152
0.00132638
0.000125891
0.00111548
0.000134459
0.000886279
0.000140706
0.000642493
0.000144519
0.000388144
0.000127352
0.000145836
1.81669e-05
0.00207732
8.84869e-08
3.65545e-05
0.00199636
5.44745e-05
0.00191052
7.15327e-05
0.00180089
8.73988e-05
0.00166423
0.000101782
0.00150113
0.000114421
0.00131375
0.000125093
0.00110481
0.000133608
0.000877763
0.000139817
0.000636284
0.000143607
0.000384352
0.000126048
0.000144916
1.80499e-05
0.00205918
8.90938e-08
3.63206e-05
0.00197809
5.41269e-05
0.00189271
7.10771e-05
0.00178394
8.68431e-05
0.00164847
0.000101135
0.00148683
0.000113696
0.00130118
0.000124301
0.0010942
0.000132763
0.000869295
0.000138933
0.000630105
0.0001427
0.000380573
0.000124734
0.000144003
1.79337e-05
0.00204115
8.96301e-08
3.60883e-05
0.00195993
5.37816e-05
0.00187502
7.06245e-05
0.0017671
8.62909e-05
0.0016328
0.000100493
0.00147263
0.000112975
0.0012887
0.000123514
0.00108366
0.000131923
0.000860885
0.000138055
0.000623972
0.0001418
0.000376827
0.000123444
0.000143095
1.78181e-05
0.00202325
9.00975e-08
3.58574e-05
0.00194189
5.34385e-05
0.00185744
7.01748e-05
0.00175036
8.57423e-05
0.00161723
9.98555e-05
0.00145852
0.000112259
0.0012763
0.000122732
0.00107319
0.000131089
0.000852522
0.000137183
0.000617869
0.000140905
0.000373093
0.000122144
0.000142193
1.77033e-05
0.00200545
9.05032e-08
3.5628e-05
0.00192397
5.30975e-05
0.00183997
6.9728e-05
0.00173373
8.51973e-05
0.00160176
9.92217e-05
0.00144449
0.000111547
0.00126397
0.000121955
0.00106278
0.00013026
0.000844216
0.000136317
0.000611812
0.000140016
0.000369393
0.000120869
0.000141297
1.75892e-05
0.00198777
9.08529e-08
3.54e-05
0.00190616
5.27587e-05
0.00182261
6.92841e-05
0.0017172
8.46558e-05
0.00158639
9.85921e-05
0.00143055
0.00011084
0.00125172
0.000121183
0.00105243
0.000129437
0.000835956
0.000135456
0.000605784
0.000139133
0.000365705
0.000119584
0.000140407
1.74758e-05
0.0019702
9.11591e-08
3.51734e-05
0.00188846
5.24221e-05
0.00180536
6.8843e-05
0.00170078
8.41177e-05
0.00157112
9.79665e-05
0.0014167
0.000110138
0.00123955
0.000120417
0.00104215
0.000128619
0.000827753
0.000134601
0.0005998
0.000138256
0.000362049
0.000118322
0.000139523
1.73632e-05
0.00195275
9.14336e-08
3.49483e-05
0.00187088
5.20877e-05
0.00178822
6.84047e-05
0.00168447
8.35832e-05
0.00155594
9.7345e-05
0.00140294
0.000109441
0.00122745
0.000119655
0.00103193
0.000127807
0.000819595
0.000133752
0.000593847
0.000137385
0.000358406
0.000117051
0.000138645
1.72512e-05
0.0019354
9.1695e-08
3.47247e-05
0.0018534
5.17554e-05
0.00177119
6.79693e-05
0.00166825
8.30522e-05
0.00154085
9.67275e-05
0.00138927
0.000108747
0.00121543
0.000118898
0.00102178
0.000126999
0.000811493
0.000132908
0.000587937
0.000136519
0.000354794
0.000115804
0.000137772
1.714e-05
0.00191817
9.19604e-08
3.45025e-05
0.00183604
5.14253e-05
0.00175427
6.75368e-05
0.00165214
8.25246e-05
0.00152586
9.61141e-05
0.00137567
0.000108059
0.00120348
0.000118146
0.00101169
0.000126197
0.000803435
0.00013207
0.000582056
0.000135659
0.000351194
0.000114547
0.000136905
1.70295e-05
0.00190105
9.22518e-08
3.42817e-05
0.00181879
5.10973e-05
0.00173745
6.7107e-05
0.00163613
8.20004e-05
0.00151097
9.55047e-05
0.00136217
0.000107375
0.00119161
0.0001174
0.00100166
0.000125401
0.000795434
0.000131237
0.000576218
0.000134805
0.000347626
0.000113314
0.000136044
1.69198e-05
0.00188404
9.25872e-08
3.40623e-05
0.00180165
5.07714e-05
0.00172074
6.668e-05
0.00162022
8.14797e-05
0.00149617
9.48993e-05
0.00134875
0.000106695
0.00117981
0.000116658
0.000991698
0.000124609
0.000787476
0.00013041
0.00057041
0.000133956
0.000344069
0.000112071
0.000135189
1.68107e-05
0.00186713
9.29868e-08
3.38444e-05
0.00178461
5.04476e-05
0.00170414
6.62558e-05
0.00160441
8.09624e-05
0.00148146
9.42979e-05
0.00133541
0.00010602
0.00116809
0.000115921
0.000981797
0.000123823
0.000779573
0.000129588
0.000564644
0.000133113
0.000340544
0.000110851
0.00013434
1.67023e-05
0.00185033
9.34637e-08
3.36278e-05
0.00176769
5.0126e-05
0.00168764
6.58344e-05
0.0015887
8.04484e-05
0.00146685
9.37004e-05
0.00132216
0.000105349
0.00115644
0.000115188
0.000971953
0.000123042
0.000771713
0.000128772
0.000558906
0.000132276
0.00033703
0.000109622
0.000133496
1.65947e-05
0.00183365
9.40309e-08
3.34127e-05
0.00175087
4.98064e-05
0.00167125
6.54158e-05
0.0015731
7.99379e-05
0.00145233
9.31068e-05
0.00130899
0.000104683
0.00114486
0.000114461
0.000962175
0.000122266
0.000763907
0.000127961
0.00055321
0.000131444
0.000333546
0.000108415
0.000132657
1.64878e-05
0.00181706
9.46925e-08
3.3199e-05
0.00173416
4.9489e-05
0.00165496
6.49998e-05
0.00155758
7.94306e-05
0.00143789
9.25171e-05
0.0012959
0.000104021
0.00113335
0.000113738
0.000952454
0.000121495
0.000756144
0.000127155
0.000547543
0.000130618
0.000330075
0.000107199
0.000131824
1.63816e-05
0.00180059
9.54515e-08
3.29867e-05
0.00171755
4.91736e-05
0.00163877
6.45866e-05
0.00154217
7.89267e-05
0.00142355
9.19313e-05
0.0012829
0.000103364
0.00112192
0.000113021
0.000942797
0.00012073
0.000748434
0.000126355
0.000541916
0.000129797
0.000326633
0.000106005
0.000130997
1.62761e-05
0.00178421
9.63026e-08
3.27758e-05
0.00170105
4.88603e-05
0.00162269
6.41761e-05
0.00152685
7.84262e-05
0.0014093
9.13493e-05
0.00126997
0.00010271
0.00111056
0.000112307
0.000933195
0.000119969
0.000740767
0.00012556
0.000536318
0.000128981
0.000323203
0.000104803
0.000130175
1.61713e-05
0.00176794
9.72403e-08
3.25663e-05
0.00168466
4.8549e-05
0.0016067
6.37683e-05
0.00151163
7.79289e-05
0.00139514
9.07712e-05
0.00125713
0.000102062
0.00109927
0.000111599
0.000923658
0.000119213
0.000733152
0.00012477
0.000530761
0.000128171
0.000319802
0.000103622
0.000129359
1.60672e-05
0.00175178
9.82522e-08
3.23582e-05
0.00166837
4.82399e-05
0.00159082
6.33632e-05
0.00149651
7.74349e-05
0.00138107
9.01968e-05
0.00124437
0.000101417
0.00108805
0.000110895
0.000914175
0.000118463
0.000725579
0.000123985
0.000525231
0.000127366
0.000316413
0.000102432
0.000128548
1.59638e-05
0.00173571
9.93277e-08
3.21515e-05
0.00165218
4.79327e-05
0.00157504
6.29608e-05
0.00148148
7.69441e-05
0.00136709
8.96263e-05
0.00123168
0.000100777
0.0010769
0.000110196
0.000904756
0.000117717
0.000718058
0.000123206
0.000519741
0.000126567
0.000313052
0.000101263
0.000127743
1.5861e-05
0.00171975
1.00451e-07
3.19461e-05
0.00163609
4.76276e-05
0.00155936
6.2561e-05
0.00146655
7.64566e-05
0.00135319
8.90595e-05
0.00121908
0.00010014
0.00106581
0.000109502
0.00089539
0.000116976
0.000710577
0.000122432
0.000514278
0.000125773
0.000309704
0.000100086
0.000126942
1.5759e-05
0.00170389
1.01611e-07
3.17422e-05
0.00162011
4.73245e-05
0.00154378
6.21638e-05
0.00145171
7.59723e-05
0.00133938
8.84965e-05
0.00120656
9.95085e-05
0.0010548
0.000108812
0.000886088
0.000116241
0.000703149
0.000121663
0.000508855
0.000124984
0.000306383
9.89297e-05
0.000126148
1.56577e-05
0.00168813
1.02791e-07
3.15395e-05
0.00160423
4.70234e-05
0.00152829
6.17693e-05
0.00143696
7.54912e-05
0.00132566
8.79372e-05
0.00119411
9.88808e-05
0.00104385
0.000108127
0.000876838
0.00011551
0.00069576
0.000120899
0.000503459
0.000124201
0.000303074
9.77647e-05
0.000125358
1.55571e-05
0.00167247
1.03982e-07
3.13383e-05
0.00158845
4.67243e-05
0.00151291
6.13774e-05
0.00142231
7.50133e-05
0.00131202
8.73816e-05