/*--------------------------------*- C++ -*----------------------------------*\
  =========                 |
  \\      /  F ield         | OpenFOAM: The Open Source CFD Toolbox
   \\    /   O peration     | Website:  https://openfoam.org
    \\  /    A nd           | Version:  6.0
     \\/     M anipulation  |
\*---------------------------------------------------------------------------*/
FoamFile
{
    version     2.0;
    format      ascii;
    class       volVectorField;
    location    "0.2";
    object      U;
}
// * * * * * * * * * * * * * * * * * * * * * * * * * * * * * * * * * * * * * //

dimensions      [0 1 -1 0 0 0 0];

internalField   nonuniform List<vector> 
24000
(
(0.999995 -3.11187e-06 -7.95834e-17)
(0.999952 -2.02103e-05 1.0836e-16)
(0.99988 -6.18568e-05 -1.9052e-16)
(0.9998 -0.000128482 2.10231e-16)
(0.999736 -0.000213181 -1.03717e-15)
(0.9997 -0.000304633 -6.14886e-16)
(0.999698 -0.000391676 6.29611e-16)
(0.999734 -0.000454405 -1.39518e-15)
(0.9998 -0.000476631 4.38037e-16)
(0.99989 -0.000427711 -3.22116e-16)
(0.999975 -0.000256246 -3.11844e-16)
(1.00048 0.000282546 -4.66565e-16)
(0.99999 -7.79186e-06 1.16666e-16)
(0.999914 -4.7499e-05 -1.60343e-16)
(0.999788 -0.000132279 3.56001e-16)
(0.999653 -0.000253839 -8.88853e-17)
(0.999547 -0.000401969 4.61611e-16)
(0.999494 -0.000559678 6.21828e-16)
(0.999502 -0.000706365 -3.5027e-16)
(0.999576 -0.000805201 1.48204e-15)
(0.999704 -0.000828699 -3.11043e-16)
(0.999874 -0.000721563 1.59744e-17)
(1.00001 -0.000396533 8.14608e-17)
(1.00089 0.000466476 1.55244e-16)
(0.99999 -1.38257e-05 -8.88608e-17)
(0.999924 -6.75561e-05 2.1605e-16)
(0.999819 -0.000161874 -1.23387e-16)
(0.999711 -0.000277255 4.51163e-16)
(0.999636 -0.000404672 2.51384e-16)
(0.999611 -0.000530973 2.31233e-16)
(0.999641 -0.000639159 5.17957e-16)
(0.999728 -0.000695386 -6.58796e-16)
(0.999857 -0.000678063 -3.67694e-16)
(1.00002 -0.000547597 -1.2981e-16)
(1.00013 -0.000206569 -2.90666e-17)
(1.00103 0.000626586 4.90652e-16)
(0.999989 -2.14765e-05 -3.79429e-17)
(0.999936 -8.95403e-05 -2.04415e-16)
(0.999851 -0.000191933 -3.15638e-16)
(0.999767 -0.000302393 -2.23666e-16)
(0.999716 -0.000414796 -1.31001e-16)
(0.99971 -0.000520452 -9.05115e-16)
(0.999752 -0.000606268 -1.43407e-15)
(0.999842 -0.000642122 1.63869e-16)
(0.999968 -0.000611241 4.6936e-17)
(1.00012 -0.000491549 6.45249e-16)
(1.00021 -0.000190221 -4.12118e-16)
(1.00103 0.000487919 -5.73487e-16)
(0.999987 -2.99985e-05 6.75956e-17)
(0.999936 -0.000114089 3.29999e-17)
(0.999853 -0.000230919 1.59958e-16)
(0.999769 -0.000352376 -7.56074e-17)
(0.999718 -0.000475404 2.07755e-16)
(0.999713 -0.000593486 1.86995e-16)
(0.999757 -0.000694074 1.45079e-15)
(0.999853 -0.000745882 -9.47946e-17)
(0.999988 -0.000731053 -2.79747e-16)
(1.00015 -0.000629121 7.60526e-17)
(1.00027 -0.000359177 2.84391e-16)
(1.001 0.000209288 -1.51763e-16)
(0.999984 -3.87714e-05 3.9116e-18)
(0.999932 -0.00013825 -1.89875e-17)
(0.999849 -0.000269169 -2.13496e-17)
(0.999763 -0.00040346 -3.86557e-18)
(0.99971 -0.00054009 -8.62218e-16)
(0.999707 -0.000673131 1.05518e-15)
(0.999755 -0.00079005 2.93068e-17)
(0.999858 -0.000857458 1.46149e-16)
(1.00001 -0.000855604 6.91382e-16)
(1.00019 -0.000755028 -3.40356e-16)
(1.00034 -0.000489463 5.1608e-16)
(1.00102 6.81502e-05 3.47398e-16)
(0.99998 -4.75257e-05 -3.53992e-18)
(0.999932 -0.000160787 2.04762e-16)
(0.999855 -0.000302101 -2.07651e-16)
(0.999774 -0.000443782 -1.01244e-16)
(0.999729 -0.000585585 4.431e-16)
(0.999736 -0.000721189 -2.17985e-16)
(0.999794 -0.0008388 -6.03781e-16)
(0.999906 -0.000904715 -3.13276e-16)
(1.00007 -0.000899777 1.22116e-16)
(1.00026 -0.000785311 6.01964e-16)
(1.00043 -0.000510752 -1.2182e-15)
(1.00108 7.1675e-05 3.18361e-16)
(0.999975 -5.6088e-05 -5.22855e-17)
(0.999933 -0.000182052 7.92692e-17)
(0.999865 -0.000331788 2.39278e-16)
(0.999794 -0.000478395 4.52946e-16)
(0.999762 -0.000621816 2.41137e-16)
(0.999782 -0.000754402 -2.67592e-16)
(0.999853 -0.000864726 -2.90975e-16)
(0.999978 -0.000919958 -1.39482e-16)
(1.00015 -0.000903248 4.81854e-17)
(1.00035 -0.000771675 -1.30416e-16)
(1.00053 -0.000489181 1.04298e-15)
(1.00115 9.75826e-05 -5.50161e-16)
(0.99997 -6.42512e-05 2.05863e-17)
(0.999932 -0.000202426 -1.94664e-16)
(0.999873 -0.000360615 1.46034e-17)
(0.999812 -0.000513209 -7.2288e-17)
(0.99979 -0.000660548 7.29389e-17)
(0.999823 -0.000793042 -6.10865e-17)
(0.999908 -0.000898436 5.11895e-17)
(1.00004 -0.000944625 5.58545e-16)
(1.00023 -0.000916985 -6.92395e-17)
(1.00043 -0.000772748 -7.89801e-16)
(1.00062 -0.000487113 -8.79818e-16)
(1.00122 8.0292e-05 9.78333e-16)
(0.999964 -7.18058e-05 7.31641e-17)
(0.99993 -0.00022191 4.86601e-18)
(0.999879 -0.000389053 1.84365e-16)
(0.999825 -0.000549 -4.83325e-16)
(0.999813 -0.000703139 -1.1535e-16)
(0.999855 -0.000839978 5.22043e-16)
(0.999951 -0.000945645 -4.43474e-16)
(1.0001 -0.000988068 -6.68892e-16)
(1.00029 -0.000953932 2.04883e-16)
(1.00051 -0.000802039 2.05485e-16)
(1.00071 -0.000515388 6.54212e-16)
(1.00128 2.9349e-05 -1.38305e-16)
(0.999957 -7.85924e-05 -1.00351e-16)
(0.999927 -0.000240444 -2.31027e-17)
(0.999883 -0.00041686 -2.19725e-16)
(0.999838 -0.000584473 3.65591e-17)
(0.999833 -0.000746259 1.6712e-16)
(0.999884 -0.000889317 -3.60284e-16)
(0.999991 -0.00099826 2.70697e-16)
(1.00015 -0.00104047 7.53663e-16)
(1.00036 -0.0010031 -5.62026e-16)
(1.00058 -0.000845702 2.24223e-16)
(1.00079 -0.000556826 -8.4745e-16)
(1.00134 -2.50064e-05 -9.05892e-16)
(0.999949 -8.45004e-05 6.51492e-18)
(0.999923 -0.000258097 1.919e-16)
(0.999886 -0.000444106 -1.92443e-16)
(0.999851 -0.000619191 1.48817e-16)
(0.999856 -0.000787992 -4.57311e-16)
(0.999916 -0.000936697 -2.03763e-16)
(1.00003 -0.00104909 6.6354e-17)
(1.0002 -0.00109178 -3.0268e-16)
(1.00042 -0.00105192 -3.94056e-16)
(1.00066 -0.00088865 3.62866e-16)
(1.00088 -0.00059516 2.8568e-16)
(1.0014 -6.73175e-05 1.00878e-17)
(0.99994 -8.94554e-05 2.45127e-17)
(0.999917 -0.00027501 -1.91773e-17)
(0.999887 -0.000471174 5.3026e-16)
(0.999864 -0.00065383 1.52952e-16)
(0.99988 -0.00082889 2.61404e-16)
(0.99995 -0.000981889 -2.92193e-16)
(1.00008 -0.00109656 -1.47772e-16)
(1.00026 -0.00113878 1.205e-16)
(1.00049 -0.00109565 4.65417e-16)
(1.00074 -0.000925543 -1.21912e-15)
(1.00097 -0.000626016 -4.86599e-16)
(1.00147 -9.98535e-05 5.42801e-16)
(0.99993 -9.34055e-05 -7.5706e-17)
(0.999909 -0.000291298 -6.73759e-17)
(0.999886 -0.000498399 -4.19076e-16)
(0.999874 -0.0006893 -3.31114e-16)
(0.999902 -0.00087053 -2.32044e-16)
(0.999985 -0.00102702 3.6473e-16)
(1.00012 -0.00114296 2.50837e-16)
(1.00032 -0.00118378 -2.76353e-16)
(1.00056 -0.00113656 -3.70884e-16)
(1.00082 -0.000959345 -1.32873e-16)
(1.00106 -0.000653695 6.91045e-16)
(1.00155 -0.000130849 -4.82178e-16)
(0.99992 -9.63238e-05 4.07508e-17)
(0.9999 -0.000307013 3.22095e-17)
(0.999883 -0.000525893 4.95025e-17)
(0.999882 -0.0007261 7.89748e-17)
(0.999922 -0.000914125 8.21112e-17)
(1.00002 -0.00107426 -1.48139e-16)
(1.00017 -0.00119134 7.76879e-18)
(1.00037 -0.00123058 -3.82759e-16)
(1.00063 -0.00117904 3.62452e-16)
(1.0009 -0.000995043 1.3819e-15)
(1.00115 -0.000683374 -2.05467e-16)
(1.00163 -0.000164659 6.71338e-16)
(0.999908 -9.82061e-05 -3.93474e-17)
(0.999889 -0.000322159 1.48589e-18)
(0.999878 -0.000553537 1.47734e-16)
(0.999887 -0.000764129 2.08888e-16)
(0.999939 -0.00095987 2.31058e-16)
(1.00005 -0.00112439 -1.50124e-16)
(1.00021 -0.00124309 -2.41761e-16)
(1.00043 -0.0012811 5.91273e-16)
(1.0007 -0.00122532 1.43199e-16)
(1.00098 -0.00103468 -1.48939e-15)
(1.00124 -0.000716244 2.3553e-16)
(1.0017 -0.000199799 2.2248e-17)
(0.999895 -9.90745e-05 9.00288e-17)
(0.999877 -0.00033672 3.30729e-17)
(0.999872 -0.000581102 -3.19322e-16)
(0.99989 -0.000802877 1.37794e-16)
(0.999953 -0.00100708 -5.60844e-17)
(1.00007 -0.00117673 3.67091e-16)
(1.00025 -0.00129756 6.25046e-16)
(1.00048 -0.00133461 1.05248e-16)
(1.00077 -0.00127446 5.10423e-16)
(1.00106 -0.0010767 1.23819e-15)
(1.00133 -0.000750094 1.43281e-15)
(1.00179 -0.000233096 -5.35361e-16)
(0.99988 -9.89697e-05 3.4603e-17)
(0.999864 -0.000350688 -2.74301e-17)
(0.999865 -0.000608365 3.03722e-16)
(0.999893 -0.000841738 -2.77015e-16)
(0.999967 -0.00105475 3.92104e-16)
(1.0001 -0.00122994 4.02768e-18)
(1.00029 -0.00135306 -4.06342e-16)
(1.00054 -0.00138905 1.28129e-16)
(1.00083 -0.00132409 -4.41953e-16)
(1.00114 -0.00111852 -2.16368e-16)
(1.00143 -0.000782586 -5.74696e-16)
(1.00187 -0.000263473 -1.06247e-16)
(0.999865 -9.79487e-05 -4.14977e-17)
(0.999851 -0.000364077 -2.30973e-16)
(0.999858 -0.000635216 -1.2641e-16)
(0.999895 -0.000880319 1.55136e-16)
(0.999981 -0.00110219 -2.8177e-17)
(1.00013 -0.00128299 -2.61821e-16)
(1.00033 -0.00140835 -5.46058e-17)
(1.00059 -0.00144302 -3.37529e-17)
(1.0009 -0.00137279 -5.30494e-16)
(1.00123 -0.00115903 -3.89252e-16)
(1.00152 -0.000813605 -1.72292e-15)
(1.00196 -0.000292736 1.02226e-15)
(0.999848 -9.60735e-05 -3.95394e-17)
(0.999837 -0.000376921 2.40459e-16)
(0.999851 -0.000661657 -1.71629e-16)
(0.999897 -0.000918517 7.6596e-17)
(0.999995 -0.00114922 -1.88044e-16)
(1.00015 -0.00133567 -4.26008e-16)
(1.00037 -0.00146324 5.40538e-17)
(1.00065 -0.0014965 -6.90275e-17)
(1.00097 -0.00142091 2.87179e-16)
(1.00131 -0.0011992 4.46446e-16)
(1.00161 -0.000844923 1.5418e-15)
(1.00205 -0.000323304 -9.88367e-16)
(0.99983 -9.34098e-05 2.84401e-17)
(0.999822 -0.000389264 -1.11953e-17)
(0.999843 -0.000687775 2.72198e-17)
(0.999899 -0.000956472 -6.35284e-17)
(1.00001 -0.00119607 -2.36281e-16)
(1.00018 -0.00138835 -9.44681e-18)
(1.00042 -0.00151837 -1.25353e-16)
(1.0007 -0.00155047 -6.69728e-16)
(1.00104 -0.00146984 4.03606e-16)
(1.00139 -0.00124081 2.18628e-16)
(1.00171 -0.000878485 6.52222e-17)
(1.00213 -0.000356522 2.22166e-16)
(0.999811 -9.0019e-05 3.25305e-17)
(0.999806 -0.000401147 -2.63805e-16)
(0.999834 -0.000713667 5.16501e-16)
(0.9999 -0.000994393 4.91462e-17)
(1.00002 -0.00124314 1.43324e-16)
(1.00021 -0.00144158 8.68924e-16)
(1.00046 -0.00157445 7.14721e-16)
(1.00076 -0.00160591 3.6179e-16)
(1.00111 -0.00152075 -9.58841e-16)
(1.00148 -0.00128498 -2.79707e-16)
(1.0018 -0.000914969 9.25274e-17)
(1.00222 -0.000391759 -3.31599e-17)
(0.999791 -8.59619e-05 -6.09629e-17)
(0.999789 -0.000412603 1.0509e-16)
(0.999824 -0.000739402 -6.96442e-17)
(0.9999 -0.00103246 -8.8438e-17)
(1.00003 -0.00129075 -2.54975e-16)
(1.00023 -0.00149573 -5.04543e-16)
(1.0005 -0.0016319 -2.74282e-16)
(1.00082 -0.00166319 -2.17565e-17)
(1.00118 -0.00157396 2.77894e-16)
(1.00156 -0.00133167 -2.65068e-16)
(1.00189 -0.000953694 -1.56408e-15)
(1.00231 -0.000427674 7.91877e-16)
(0.999769 -8.12967e-05 4.45112e-17)
(0.999771 -0.000423655 6.34138e-18)
(0.999812 -0.000764999 -1.89518e-16)
(0.999899 -0.00107077 -1.44939e-16)
(1.00004 -0.00133905 -8.04301e-17)
(1.00026 -0.00155096 -1.189e-16)
(1.00054 -0.00169074 -2.16938e-16)
(1.00087 -0.00172213 -2.31477e-16)
(1.00125 -0.00162896 -6.74833e-17)
(1.00164 -0.00137996 -2.45923e-16)
(1.00199 -0.000993308 9.28636e-17)
(1.0024 -0.000462608 -1.57553e-16)
(0.999747 -7.6086e-05 1.52572e-17)
(0.999753 -0.000434324 1.4932e-16)
(0.9998 -0.000790441 4.08701e-17)
(0.999896 -0.0011093 -1.56939e-17)
(1.00005 -0.00138807 9.87769e-17)
(1.00028 -0.00160722 2.77606e-16)
(1.00058 -0.00175074 1.06876e-16)
(1.00092 -0.00178224 2.67362e-16)
(1.00132 -0.00168499 3.13493e-16)
(1.00172 -0.0014288 -3.05992e-16)
(1.00208 -0.00103265 1.00445e-15)
(1.00249 -0.000495604 -6.21503e-16)
(0.999723 -7.03951e-05 -2.06892e-17)
(0.999733 -0.000444635 -1.95366e-17)
(0.999786 -0.000815684 -1.47664e-16)
(0.999892 -0.00114799 -9.71813e-17)
(1.00006 -0.0014377 -3.48353e-17)
(1.0003 -0.00166437 -1.78796e-16)
(1.00061 -0.00181165 1.04071e-17)
(1.00098 -0.00184306 -3.11211e-16)
(1.00139 -0.00174139 -2.70398e-17)
(1.0018 -0.00147742 1.05156e-15)
(1.00217 -0.00107105 4.96033e-16)
(1.00259 -0.000526341 5.30175e-17)
(0.999698 -6.42987e-05 -9.84321e-18)
(0.999713 -0.000454627 -1.14615e-16)
(0.999772 -0.000840695 -5.05026e-17)
(0.999887 -0.00118672 -7.54507e-17)
(1.00007 -0.00148776 5.57088e-16)
(1.00033 -0.0017222 -1.2908e-16)
(1.00065 -0.00187321 1.53687e-16)
(1.00103 -0.00190426 -1.59706e-16)
(1.00146 -0.00179776 -2.55219e-16)
(1.00188 -0.00152548 -2.65161e-16)
(1.00226 -0.00110833 -1.96443e-17)
(1.00268 -0.000555201 -2.0086e-16)
(0.999672 -5.7877e-05 3.40833e-17)
(0.999691 -0.000464354 -4.08357e-17)
(0.999757 -0.000865466 1.7153e-16)
(0.999881 -0.00122538 3.46281e-16)
(1.00008 -0.00153803 -5.26759e-16)
(1.00035 -0.00178046 4.98622e-16)
(1.00069 -0.00193515 -2.75784e-16)
(1.00109 -0.00196559 -1.44017e-16)
(1.00152 -0.0018539 -1.9406e-16)
(1.00197 -0.00157287 -3.55006e-16)
(1.00236 -0.00114459 -1.50691e-16)
(1.00277 -0.000582466 -1.20492e-16)
(0.999646 -5.12193e-05 -5.8218e-18)
(0.999669 -0.000473894 -1.56607e-17)
(0.999742 -0.000890042 -1.57735e-17)
(0.999875 -0.00126388 -3.35197e-16)
(1.00008 -0.00158832 -1.43913e-16)
(1.00037 -0.00183888 -1.30454e-17)
(1.00073 -0.00199725 -3.8948e-16)
(1.00114 -0.00202689 7.17992e-16)
(1.00159 -0.00190974 -5.84454e-18)
(1.00205 -0.00161973 2.50784e-16)
(1.00245 -0.00118015 1.77685e-16)
(1.00287 -0.000608615 -5.40719e-18)
(0.999618 -4.44171e-05 -1.88881e-17)
(0.999646 -0.000483341 1.07837e-16)
(0.999726 -0.000914514 3.21127e-17)
(0.999869 -0.00130226 4.60706e-16)
(1.00009 -0.00163851 2.51437e-16)
(1.00039 -0.00189729 -4.21861e-16)
(1.00077 -0.00205934 1.91596e-16)
(1.00119 -0.00208808 -3.78269e-16)
(1.00166 -0.00196535 1.31e-15)
(1.00213 -0.00166627 -1.01862e-16)
(1.00255 -0.00121541 2.23937e-17)
(1.00297 -0.000634143 -1.40411e-16)
(0.999589 -3.75652e-05 -1.97089e-17)
(0.999622 -0.000492802 7.53351e-17)
(0.999709 -0.000939039 -9.0493e-17)
(0.999863 -0.00134064 -4.47127e-16)
(1.0001 -0.00168866 4.6301e-16)
(1.00041 -0.00195568 2.70879e-16)
(1.0008 -0.00212143 3.42669e-16)
(1.00125 -0.00214923 1.53368e-16)
(1.00173 -0.00202095 -1.0883e-16)
(1.00222 -0.00171288 5.46507e-16)
(1.00264 -0.00125086 -9.91355e-16)
(1.00306 -0.000659642 1.11765e-15)
(0.999559 -3.07538e-05 2.74629e-17)
(0.999597 -0.000502388 -1.44185e-16)
(0.999692 -0.000963793 -8.41759e-17)
(0.999856 -0.00137922 -2.68115e-17)
(1.0001 -0.00173896 -1.77092e-16)
(1.00043 -0.00201422 -5.03291e-18)
(1.00084 -0.00218367 -2.81666e-16)
(1.0013 -0.00221059 -2.13224e-16)
(1.0018 -0.00207685 -1.20321e-15)
(1.0023 -0.00175994 -3.97239e-16)
(1.00273 -0.00128691 -2.55397e-16)
(1.00316 -0.000685497 -2.99697e-17)
(0.999528 -2.40701e-05 1.0532e-17)
(0.999571 -0.000512205 -1.18535e-17)
(0.999673 -0.000988968 -4.25893e-17)
(0.999848 -0.00141828 3.25279e-16)
(1.00011 -0.00178972 -5.52288e-16)
(1.00046 -0.00207321 -4.09898e-16)
(1.00088 -0.0022464 3.52237e-16)
(1.00136 -0.00227251 -2.33074e-17)
(1.00187 -0.00213345 7.29199e-17)
(1.00238 -0.00180785 4.20972e-16)
(1.00283 -0.0013239 -1.68253e-16)
(1.00325 -0.00071201 3.02877e-16)
(0.999496 -1.75914e-05 -1.51714e-17)
(0.999544 -0.000522343 1.70011e-16)
(0.999654 -0.00101472 2.88364e-16)
(0.99984 -0.00145809 -9.6069e-17)
(1.00011 -0.00184128 4.35261e-17)
(1.00048 -0.00213302 1.8212e-16)
(1.00092 -0.00230996 -4.20514e-16)
(1.00141 -0.00233532 4.42867e-16)
(1.00194 -0.00219104 3.44423e-16)
(1.00246 -0.00185682 -2.83844e-16)
(1.00292 -0.00136188 3.24912e-18)
(1.00335 -0.000739118 -1.89942e-17)
(0.999464 -1.13894e-05 -4.29382e-18)
(0.999515 -0.000532876 -2.4698e-16)
(0.999632 -0.00104117 -4.84725e-17)
(0.999829 -0.00149883 5.7897e-17)
(1.00012 -0.00189392 6.51536e-16)
(1.0005 -0.00219395 5.20273e-17)
(1.00096 -0.00237466 3.90444e-16)
(1.00147 -0.00239927 -7.23318e-16)
(1.00201 -0.00224979 3.63342e-16)
(1.00255 -0.00190691 -4.3655e-16)
(1.00301 -0.0014008 9.36566e-16)
(1.00345 -0.000766581 -4.64447e-16)
(0.99943 -5.52572e-06 2.14631e-17)
(0.999486 -0.000543855 1.095e-16)
(0.999609 -0.00106838 -1.16278e-16)
(0.999818 -0.00154062 4.78623e-17)
(1.00012 -0.0019478 -3.91926e-16)
(1.00052 -0.00225618 -1.38e-16)
(1.00099 -0.00244065 2.2657e-17)
(1.00152 -0.00246446 5.18313e-16)
(1.00208 -0.0023097 3.12895e-16)
(1.00263 -0.00195802 -2.16008e-17)
(1.00311 -0.00144047 1.23389e-15)
(1.00354 -0.000794267 -6.07475e-16)
(0.999396 -5.70097e-08 1.44282e-18)
(0.999454 -0.000555319 1.19513e-16)
(0.999585 -0.00109637 1.19386e-16)
(0.999805 -0.0015835 -1.43904e-17)
(1.00012 -0.00200295 2.86621e-16)
(1.00053 -0.00231976 3.70667e-16)
(1.00103 -0.00250795 -1.1313e-16)
(1.00157 -0.00253084 5.20644e-16)
(1.00215 -0.00237068 -1.19496e-15)
(1.00271 -0.00201 -1.32573e-16)
(1.0032 -0.00148072 -1.77614e-15)
(1.00364 -0.000822321 1.40145e-16)
(0.99936 4.96803e-06 -6.22499e-17)
(0.999422 -0.000567294 7.43592e-17)
(0.99956 -0.00112512 -2.12475e-17)
(0.99979 -0.00162739 1.54974e-16)
(1.00012 -0.0020593 -2.13407e-16)
(1.00055 -0.00238459 -5.20153e-16)
(1.00106 -0.00257644 -4.00181e-17)
(1.00163 -0.00259829 -3.71105e-16)
(1.00222 -0.00243253 1.27286e-15)
(1.00279 -0.00206267 -4.28771e-17)
(1.00329 -0.00152139 3.81146e-16)
(1.00373 -0.000850681 7.00285e-16)
(0.999324 9.50381e-06 1.54805e-17)
(0.999389 -0.000579801 -3.18801e-16)
(0.999533 -0.0011546 1.09863e-16)
(0.999774 -0.00167221 -5.09498e-16)
(1.00012 -0.00211672 2.5492e-16)
(1.00057 -0.00245052 8.44107e-16)
(1.0011 -0.00264596 -2.18897e-16)
(1.00168 -0.00266664 -5.18419e-16)
(1.00229 -0.00249515 -4.05065e-16)
(1.00287 -0.00211595 -8.00879e-17)
(1.00338 -0.00156251 3.95016e-16)
(1.00383 -0.000879399 -6.40236e-16)
(0.999288 1.35118e-05 3.55023e-17)
(0.999354 -0.000592858 9.2622e-17)
(0.999506 -0.00118477 -3.33637e-16)
(0.999758 -0.00171788 4.6205e-16)
(1.00012 -0.00217505 -6.9472e-16)
(1.00058 -0.00251735 -6.94032e-16)
(1.00113 -0.00271632 2.64625e-16)
(1.00173 -0.00273574 9.30767e-16)
(1.00235 -0.00255841 -5.24394e-16)
(1.00295 -0.00216979 2.11045e-16)
(1.00348 -0.00160409 -1.7046e-16)
(1.00392 -0.000908494 5.99648e-17)
(0.999251 1.69571e-05 -6.04734e-18)
(0.999319 -0.000606483 1.99895e-16)
(0.999477 -0.00121563 2.66188e-16)
(0.99974 -0.00176431 -3.16816e-16)
(1.00012 -0.00223418 1.54141e-16)
(1.0006 -0.00258495 4.27522e-16)
(1.00116 -0.00278741 1.43788e-16)
(1.00178 -0.00280552 -9.64805e-17)
(1.00242 -0.00262232 7.35056e-16)
(1.00304 -0.00222425 3.74067e-16)
(1.00357 -0.00164622 7.03228e-17)
(1.00402 -0.000938221 6.32559e-17)
(0.999213 1.98125e-05 1.35947e-17)
(0.999283 -0.000620694 -2.22994e-16)
(0.999448 -0.00124717 -5.8905e-17)
(0.999722 -0.00181148 1.24076e-16)
(1.00011 -0.00229402 7.50087e-16)
(1.00061 -0.00265323 -3.84763e-16)
(1.00119 -0.00285916 -3.27851e-16)
(1.00183 -0.00287594 -7.45261e-17)
(1.00249 -0.00268687 -7.26999e-16)
(1.00312 -0.00227936 4.22714e-16)
(1.00366 -0.00168892 -5.8805e-17)
(1.00411 -0.000968501 3.76191e-16)
(0.999174 2.20568e-05 -1.07872e-17)
(0.999246 -0.000635506 1.39625e-16)
(0.999418 -0.0012794 -9.6327e-17)
(0.999703 -0.00185936 3.61419e-16)
(1.00011 -0.00235457 -7.0465e-16)
(1.00062 -0.00272218 4.95124e-16)
(1.00122 -0.00293156 -4.817e-17)
(1.00188 -0.00294702 -5.03434e-17)
(1.00255 -0.00275212 7.52229e-16)
(1.0032 -0.00233519 -2.90021e-16)
(1.00375 -0.00173224 -2.37259e-16)
(1.00421 -0.00099936 -9.50093e-17)
(0.999135 2.3679e-05 1.51834e-18)
(0.999208 -0.000650931 -2.60243e-17)
(0.999387 -0.00131233 1.17376e-16)
(0.999684 -0.00190798 -4.00881e-16)
(1.0001 -0.00241583 3.47897e-16)
(1.00063 -0.00279182 1.16399e-16)
(1.00126 -0.00300464 1.67686e-16)
(1.00193 -0.0030188 -8.75576e-16)
(1.00262 -0.00281808 -3.67404e-16)
(1.00328 -0.0023917 -1.32138e-15)
(1.00385 -0.00177615 -6.90449e-16)
(1.0043 -0.00103055 -7.0671e-16)
(0.999095 2.46759e-05 -1.97113e-17)
(0.999169 -0.000666974 1.80396e-17)
(0.999355 -0.00134596 -2.19945e-16)
(0.999663 -0.00195733 1.44592e-17)
(1.0001 -0.00247783 -8.83816e-17)
(1.00065 -0.00286218 5.24526e-18)
(1.00128 -0.00307843 3.09757e-16)
(1.00197 -0.00309131 1.1837e-15)
(1.00268 -0.00288478 1.02914e-16)
(1.00336 -0.00244887 8.24676e-16)
(1.00394 -0.00182051 -1.2092e-16)
(1.0044 -0.00106201 1.28233e-15)
(0.999055 2.50547e-05 1.89649e-17)
(0.999129 -0.000683634 1.0952e-17)
(0.999322 -0.00138027 2.97238e-16)
(0.999642 -0.0020074 -1.73819e-16)
(1.00009 -0.00254056 -2.03526e-16)
(1.00066 -0.00293327 -2.35087e-16)
(1.00131 -0.00315295 -1.42609e-16)
(1.00202 -0.00316452 -4.74602e-16)
(1.00275 -0.00295213 8.54198e-17)
(1.00344 -0.00250657 8.19293e-16)
(1.00403 -0.00186521 7.94896e-16)
(1.0045 -0.00109333 -1.13862e-15)
(0.999014 2.48313e-05 -1.93618e-17)
(0.999088 -0.000700907 -2.39465e-16)
(0.999289 -0.00141526 -1.27463e-16)
(0.999619 -0.00205816 2.91976e-17)
(1.00008 -0.00260399 5.1021e-16)
(1.00067 -0.00300505 -4.04581e-16)
(1.00134 -0.00322814 -3.61099e-16)
(1.00207 -0.00323837 -4.46419e-16)
(1.00281 -0.00302006 -5.35228e-16)
(1.00352 -0.00256472 -1.77008e-15)
(1.00413 -0.00191034 -5.91563e-16)
(1.00459 -0.0011247 5.77149e-16)
(0.998972 2.40311e-05 9.69e-18)
(0.999047 -0.000718783 1.99994e-16)
(0.999254 -0.00145089 6.03074e-17)
(0.999596 -0.00210956 3.72025e-16)
(1.00007 -0.00266805 -5.88879e-16)
(1.00068 -0.00307744 5.74035e-16)
(1.00137 -0.00330393 -6.8377e-18)
(1.00212 -0.00331277 1.05196e-15)
(1.00288 -0.00308844 3.79824e-16)
(1.0036 -0.00262316 2.30826e-15)
(1.00422 -0.00195578 3.28953e-16)
(1.00469 -0.00115587 5.37766e-16)
(0.998929 2.26866e-05 -1.97831e-17)
(0.999004 -0.000737252 4.2961e-17)
(0.999219 -0.00148713 9.35472e-17)
(0.999572 -0.00216154 -1.45491e-16)
(1.00007 -0.00273266 5.0315e-16)
(1.00068 -0.00315036 -6.05627e-16)
(1.0014 -0.00338021 5.52977e-16)
(1.00216 -0.00338762 -1.41973e-16)
(1.00294 -0.00315722 2.31705e-16)
(1.00368 -0.00268189 -1.68321e-15)
(1.00431 -0.0020014 9.99418e-16)
(1.00479 -0.00118671 -1.1999e-15)
(0.998886 2.08373e-05 2.12789e-17)
(0.99896 -0.000756303 -1.18926e-16)
(0.999183 -0.00152396 -1.72871e-16)
(0.999547 -0.00221405 -1.7088e-16)
(1.00006 -0.00279774 5.21117e-17)
(1.00069 -0.00322371 -1.5943e-16)
(1.00142 -0.00345691 -3.01198e-16)
(1.00221 -0.00346287 -6.68412e-16)
(1.00301 -0.00322635 -2.39406e-16)
(1.00376 -0.00274091 3.93384e-16)
(1.0044 -0.0020472 -9.81665e-16)
(1.00489 -0.00121715 6.93598e-16)
(0.998841 1.85276e-05 5.12713e-17)
(0.998916 -0.000775924 1.44619e-17)
(0.999145 -0.00156136 -4.59998e-17)
(0.999522 -0.00226706 1.2418e-16)
(1.00005 -0.00286326 -6.87045e-16)
(1.0007 -0.00329746 1.16303e-16)
(1.00145 -0.003534 5.03958e-16)
(1.00225 -0.00353851 -2.81348e-16)
(1.00307 -0.0032959 9.45159e-17)
(1.00384 -0.00280035 -1.23813e-16)
(1.0045 -0.00209351 2.24055e-16)
(1.005 -0.00124771 -5.2257e-16)
(0.998796 1.58065e-05 -3.34692e-17)
(0.99887 -0.000796104 7.35012e-17)
(0.999107 -0.00159934 -1.34467e-16)
(0.999495 -0.00232059 -8.05439e-17)
(1.00003 -0.00292922 5.11106e-16)
(1.00071 -0.00337161 2.11387e-16)
(1.00148 -0.00361151 -2.2314e-16)
(1.0023 -0.00361462 4.57693e-16)
(1.00314 -0.00336596 1.50654e-16)
(1.00392 -0.00286034 2.97191e-16)
(1.00459 -0.00214044 -3.05904e-16)
(1.0051 -0.00127847 -1.09662e-17)
(0.998749 1.27261e-05 -5.12557e-17)
(0.998823 -0.000816825 -2.66761e-17)
(0.999068 -0.00163792 1.38622e-16)
(0.999468 -0.00237467 1.22512e-16)
(1.00002 -0.00299568 1.59329e-16)
(1.00071 -0.00344626 4.30963e-16)
(1.0015 -0.00368956 -1.93411e-16)
(1.00234 -0.00369136 -8.62545e-17)
(1.0032 -0.00343673 -1.82783e-16)
(1.004 -0.00292113 -6.68005e-18)
(1.00469 -0.0021882 6.63439e-18)
(1.0052 -0.00130955 3.82389e-16)
(0.998702 9.34004e-06 8.62299e-17)
(0.998775 -0.000838066 -1.39809e-17)
(0.999027 -0.00167708 1.6023e-16)
(0.99944 -0.00242934 -7.31885e-17)
(1.00001 -0.00306272 -1.40283e-16)
(1.00072 -0.00352151 -5.67384e-16)
(1.00153 -0.00376831 -3.43598e-16)
(1.00239 -0.00376891 2.23718e-16)
(1.00326 -0.00350842 3.52278e-17)
(1.00408 -0.0029829 5.35437e-17)
(1.00478 -0.00223682 8.2787e-17)
(1.0053 -0.00134114 3.41663e-17)
(0.998653 5.70292e-06 -8.60055e-17)
(0.998726 -0.000859796 1.31592e-16)
(0.998986 -0.00171686 -2.35895e-16)
(0.99941 -0.00248466 1.62302e-16)
(0.999996 -0.00313046 -3.76986e-18)
(1.00072 -0.00359754 3.8517e-16)
(1.00155 -0.00384795 3.35331e-16)
(1.00243 -0.00384747 -2.23933e-16)
(1.00333 -0.00358123 3.68321e-16)
(1.00416 -0.00304585 -2.38604e-16)
(1.00487 -0.00228645 7.11812e-16)
(1.00541 -0.00137322 7.15579e-16)
(0.998602 1.8693e-06 6.59098e-17)
(0.998675 -0.00088198 -9.5257e-17)
(0.998942 -0.00175722 -4.00175e-17)
(0.999379 -0.00254068 1.20812e-16)
(0.99998 -0.003199 -1.51637e-16)
(1.00072 -0.00367448 -2.35843e-16)
(1.00157 -0.00392863 3.60188e-16)
(1.00248 -0.0039272 -2.10943e-16)
(1.00339 -0.00365528 -4.48492e-16)
(1.00424 -0.00311007 2.41133e-16)
(1.00497 -0.00233708 -4.08538e-16)
(1.00551 -0.00140613 -5.60543e-16)
(0.99855 -2.10682e-06 2.74004e-17)
(0.998623 -0.00090457 -1.01304e-16)
(0.998898 -0.00179817 4.13925e-16)
(0.999346 -0.00259741 -2.02269e-16)
(0.999964 -0.00326839 8.26557e-17)
(1.00073 -0.00375244 -1.91727e-16)
(1.0016 -0.00401049 -4.73356e-16)
(1.00252 -0.00400823 4.11105e-16)
(1.00345 -0.00373068 4.73634e-16)
(1.00432 -0.0031756 -5.97512e-16)
(1.00507 -0.00238879 -2.32871e-16)
(1.00561 -0.00144024 -1.75706e-16)
(0.998497 -6.1742e-06 -7.85381e-17)
(0.99857 -0.000927516 3.0597e-17)
(0.998851 -0.00183963 -1.87354e-16)
(0.999312 -0.00265482 2.5631e-17)
(0.999945 -0.00333866 1.14074e-16)
(1.00073 -0.00383146 4.65798e-16)
(1.00162 -0.00409357 5.03855e-18)
(1.00256 -0.00409059 -2.43266e-17)
(1.00352 -0.00380743 -6.51244e-16)
(1.0044 -0.0032424 9.556e-17)
(1.00516 -0.00244151 -1.34345e-16)
(1.00572 -0.00147559 7.16072e-17)
(0.998441 -1.02837e-05 -1.26811e-17)
(0.998515 -0.000950763 -2.33402e-17)
(0.998804 -0.00188158 -2.73406e-16)
(0.999276 -0.0027129 -4.99533e-17)
(0.999926 -0.00340978 -1.79542e-16)
(1.00073 -0.00391154 -1.29917e-16)
(1.00164 -0.00417788 -1.3248e-16)
(1.0026 -0.00417428 1.62762e-16)
(1.00358 -0.0038855 1.83157e-16)
(1.00448 -0.00331042 3.13196e-16)
(1.00526 -0.00249515 4.40822e-16)
(1.00582 -0.00151205 -2.26456e-16)
(0.998385 -1.43903e-05 3.06671e-17)
(0.998459 -0.000974259 1.5937e-17)
(0.998755 -0.00192394 2.61035e-16)
(0.999239 -0.00277155 -5.24357e-17)
(0.999905 -0.0034817 -9.67364e-17)
(1.00072 -0.00399263 -1.49062e-16)
(1.00166 -0.00426336 4.4205e-16)
(1.00265 -0.00425922 -2.9643e-16)
(1.00364 -0.00396479 1.04697e-16)
(1.00457 -0.00337954 4.07886e-16)
(1.00535 -0.00254964 -2.59083e-16)
(1.00593 -0.00154963 -4.02845e-17)
(0.998326 -1.84509e-05 -4.19304e-17)
(0.998402 -0.000997954 4.33771e-17)
(0.998705 -0.00196666 8.89646e-17)
(0.999201 -0.00283073 1.89518e-16)
(0.999883 -0.00355435 3.41494e-16)
(1.00072 -0.00407465 -2.54178e-16)
(1.00168 -0.00434994 -1.68586e-16)
(1.00269 -0.00434534 1.77726e-17)
(1.0037 -0.00404525 -3.10744e-16)
(1.00465 -0.00344973 -4.46996e-16)
(1.00545 -0.00260496 5.9465e-16)
(1.00604 -0.0015884 2.47486e-16)
(0.998266 -2.24286e-05 6.74864e-17)
(0.998343 -0.0010218 8.24399e-17)
(0.998653 -0.00200969 -8.45083e-17)
(0.999161 -0.00289037 -1.71858e-16)
(0.999859 -0.00362765 4.46868e-17)
(1.00072 -0.00415753 4.16168e-16)
(1.00169 -0.00443753 -2.97076e-16)
(1.00273 -0.00443256 -1.07329e-17)
(1.00377 -0.0041268 3.96547e-16)
(1.00473 -0.00352092 -3.88443e-16)
(1.00555 -0.00266114 -5.04905e-16)
(1.00614 -0.00162841 -1.28447e-16)
(0.998204 -2.62884e-05 8.34913e-18)
(0.998283 -0.00104577 8.43992e-18)
(0.9986 -0.00205299 -2.78052e-16)
(0.999121 -0.00295044 -2.26763e-16)
(0.999835 -0.00370156 -3.81526e-16)
(1.00071 -0.00424123 5.19559e-17)
(1.00171 -0.0045261 8.52051e-17)
(1.00277 -0.00452084 -5.92803e-17)
(1.00383 -0.00420944 -3.25746e-16)
(1.00481 -0.00359312 7.29542e-16)
(1.00565 -0.0027181 3.77245e-16)
(1.00625 -0.00166971 -1.1554e-16)
(0.998141 -3.00017e-05 -3.96415e-17)
(0.998222 -0.00106982 -7.72551e-17)
(0.998547 -0.00209654 3.70665e-16)
(0.999079 -0.0030109 3.3756e-16)
(0.999809 -0.00377606 -7.41878e-18)
(1.00071 -0.0043257 7.22098e-17)
(1.00173 -0.00461563 -1.12114e-16)
(1.00281 -0.00461019 8.23765e-17)
(1.00389 -0.00429317 3.4675e-16)
(1.00489 -0.00366636 -1.80121e-16)
(1.00575 -0.00277602 1.28102e-16)
(1.00636 -0.00171205 2.14564e-16)
(0.998076 -3.35408e-05 -2.48038e-18)
(0.998159 -0.00109393 5.34515e-17)
(0.998491 -0.00214032 -1.62279e-16)
(0.999036 -0.00307177 -3.19027e-16)
(0.999783 -0.00385115 1.93195e-16)
(1.0007 -0.00441099 -4.43056e-16)
(1.00174 -0.00470614 1.30924e-16)
(1.00285 -0.00470065 -1.94415e-16)
(1.00395 -0.00437805 3.07241e-17)
(1.00498 -0.00374071 1.84728e-16)
(1.00585 -0.00283515 -1.58918e-16)
(1.00647 -0.00175558 -4.78075e-16)
(0.998008 -3.68855e-05 2.29151e-17)
(0.998095 -0.00111809 -1.48409e-16)
(0.998435 -0.00218433 1.66506e-16)
(0.998991 -0.00313305 2.79634e-16)
(0.999755 -0.00392687 -3.59618e-16)
(1.00069 -0.00449712 -3.04263e-17)
(1.00176 -0.0047977 2.18893e-16)
(1.00289 -0.00479228 -2.64154e-16)
(1.00402 -0.00446415 -3.20001e-16)
(1.00506 -0.00381623 9.04534e-17)
(1.00595 -0.00289555 -2.76842e-16)
(1.00658 -0.00180007 4.20993e-16)
(0.99794 -4.00166e-05 1.50584e-17)
(0.998029 -0.00114227 7.82201e-17)
(0.998377 -0.00222858 -7.72574e-17)
(0.998946 -0.0031948 2.35635e-16)
(0.999727 -0.00400327 1.74767e-16)
(1.00069 -0.00458419 1.47169e-16)
(1.00177 -0.00489037 -2.47504e-16)
(1.00292 -0.00488516 3.77163e-16)
(1.00408 -0.00455155 -3.35193e-18)
(1.00515 -0.00389298 -7.17088e-16)
(1.00605 -0.00295708 1.36936e-16)
(1.0067 -0.00184515 -2.64929e-17)
(0.997869 -4.29222e-05 -2.40055e-17)
(0.997962 -0.00116646 8.07999e-17)
(0.998318 -0.00227308 -2.69134e-16)
(0.998899 -0.00325702 -1.97414e-16)
(0.999697 -0.00408041 4.01847e-17)
(1.00068 -0.00467224 1.54738e-16)
(1.00179 -0.00498423 2.58513e-16)
(1.00296 -0.00497936 3.52783e-17)
(1.00414 -0.00464031 2.79453e-17)
(1.00523 -0.00397103 4.7748e-16)
(1.00616 -0.00301974 1.45045e-16)
(1.00681 -0.00189065 -2.29772e-16)
(0.997796 -4.55909e-05 -1.89746e-17)
(0.997894 -0.00119066 -2.24207e-17)
(0.998257 -0.00231783 2.85259e-16)
(0.998851 -0.00331977 4.55495e-18)
(0.999666 -0.00415834 2.45718e-16)
(1.00067 -0.00476135 -2.31635e-16)
(1.0018 -0.00507936 -1.5162e-16)
(1.003 -0.00507496 -4.50361e-17)
(1.00421 -0.00473049 5.42866e-18)
(1.00532 -0.00405042 2.9002e-16)
(1.00626 -0.00308371 -4.51346e-16)
(1.00693 -0.00193679 -2.64147e-16)
(0.997722 -4.80193e-05 5.17429e-18)
(0.997824 -0.00121485 -7.8759e-17)
(0.998195 -0.00236285 -2.7593e-16)
(0.998801 -0.00338307 4.91831e-17)
(0.999633 -0.00423711 2.29691e-17)
(1.00065 -0.00485156 2.9249e-18)
(1.00182 -0.0051758 -8.01072e-17)
(1.00304 -0.00517199 3.48253e-16)
(1.00427 -0.00482213 3.81742e-16)
(1.0054 -0.00413117 -2.5375e-16)
(1.00637 -0.00314891 6.83624e-16)