1.45 	0 	0 	-0.2954
2.35 	0 	0 	-0.130237
