1.45 	0 	0 	0.0238365 	-0.00579577 	3.78704e-21
2.35 	0 	0 	0.192927 	-0.0106812 	1.091e-21
