1.45 	0 	0 	-0.00682818 	-0.00265406 	3.89378e-21
2.35 	0 	0 	0.0650572 	-0.00674658 	2.42275e-21
