1.45 	0 	0 	0.00123852 	-0.00348557 	3.96803e-21
2.35 	0 	0 	0.100895 	-0.00803006 	2.11084e-21
