1.45 	0 	0 	-0.307005
2.35 	0 	0 	-0.107653
