1.45 	0 	0 	-0.295518
2.35 	0 	0 	-0.130333
