1.275 	2.15223e-18 	-2.76991e-20 	0.0660671 	-0.00646405 	-1.64391e-22
1.825 	2.15223e-18 	-1.39322e-20 	0.307035 	-0.00965855 	3.38756e-22
2.375 	2.15223e-18 	-2.66896e-23 	0.595589 	-0.00779866 	-9.60958e-23
