/*--------------------------------*- C++ -*----------------------------------*\
  =========                 |
  \\      /  F ield         | OpenFOAM: The Open Source CFD Toolbox
   \\    /   O peration     | Website:  https://openfoam.org
    \\  /    A nd           | Version:  6.0
     \\/     M anipulation  |
\*---------------------------------------------------------------------------*/
FoamFile
{
    version     2.0;
    format      ascii;
    class       surfaceScalarField;
    location    "23";
    object      phi;
}
// * * * * * * * * * * * * * * * * * * * * * * * * * * * * * * * * * * * * * //

dimensions      [0 3 -1 0 0 0 0];

internalField   nonuniform List<scalar> 
3880
(
-1.7984e-05
1.79842e-05
-1.95525e-10
-5.35336e-05
3.55501e-05
-4.947e-10
-9.54693e-05
4.19364e-05
-7.28059e-10
-0.00013672
4.12516e-05
-9.09903e-10
-0.000172921
3.62019e-05
-1.04616e-09
-0.000201658
2.87383e-05
-1.14047e-09
-0.000221999
2.03423e-05
-1.19508e-09
-0.000234186
1.21879e-05
-1.21264e-09
-0.000239428
5.24366e-06
-1.19726e-09
2.75452e-07
-1.14299e-09
-0.000239703
-1.73087e-05
3.52929e-05
-5.08952e-05
6.91366e-05
-8.97168e-05
8.0758e-05
-0.000126814
7.83492e-05
-0.000157863
6.72507e-05
-0.000180415
5.12901e-05
-0.000193449
3.33766e-05
-0.000197107
1.5846e-05
-0.000192544
6.80023e-07
-1.05e-05
-0.000181768
-1.59225e-05
5.12154e-05
-4.55007e-05
9.87148e-05
-7.80067e-05
0.000113264
-0.000106749
0.000107091
-0.000127527
8.8029e-05
-0.00013786
6.16228e-05
-0.000136567
3.20841e-05
-0.000123582
2.86056e-06
-9.99198e-05
-2.29821e-05
-4.27767e-05
-6.76432e-05
-1.37375e-05
6.49529e-05
-3.70662e-05
0.000122044
-5.98265e-05
0.000136024
-7.58333e-05
0.000123098
-8.11852e-05
9.33808e-05
-7.34529e-05
5.38906e-05
-5.12799e-05
9.91106e-06
-1.42793e-05
-3.414e-05
3.68037e-05
-7.40651e-05
-0.000105859
9.9886e-05
-1.0589e-05
7.55419e-05
-2.507e-05
0.000136525
-3.41997e-05
0.000145154
-3.26403e-05
0.000121539
-1.70964e-05
7.7837e-05
1.45691e-05
2.2225e-05
6.37766e-05
-3.92964e-05
0.000131296
-0.000101659
0.000216853
-0.000159622
-0.00020747
0.000318464
-6.22409e-06
8.1766e-05
-8.71787e-06
0.000139018
4.21416e-07
0.000136015
2.52669e-05
9.66934e-05
6.80538e-05
3.50501e-05
0.000130158
-3.98792e-05
0.000212679
-0.000121817
0.00031664
-0.00020562
0.000442481
-0.000285463
-0.000353475
0.000588486
-3.28522e-07
8.20945e-05
1.29734e-05
0.000125717
4.60443e-05
0.000102944
0.000101303
4.14351e-05
0.0001794
-4.30476e-05
0.000280234
-0.000140713
0.000403735
-0.000245318
0.000550484
-0.000352369
0.0007216
-0.000456579
-0.000548092
0.000916218
7.38375e-06
7.47108e-05
4.08944e-05
9.22059e-05
0.000104611
3.92268e-05
0.000199127
-5.30806e-05
0.000323146
-0.000167067
0.000474296
-0.000291862
0.000649972
-0.000420995
0.000848497
-0.000550895
0.00107039
-0.000678468
-0.000796856
0.00131915
1.70225e-05
5.76883e-05
7.53657e-05
3.38627e-05
0.00017703
-6.24372e-05
0.000321095
-0.000197146
0.000504601
-0.000350572
0.000722769
-0.000510031
0.00096932
-0.000667546
0.00123747
-0.000819049
0.00152352
-0.000964517
-0.0011149
0.00184157
2.83228e-05
2.93655e-05
0.000115475
-5.32892e-05
0.000261668
-0.00020863
0.000465495
-0.000400972
0.000724152
-0.00060923
0.00103315
-0.000819031
0.00138568
-0.00102007
0.00177096
-0.00120433
0.00217338
-0.00136694
-0.00151153
0.00257002
4.04687e-05
-1.11033e-05
0.000158363
-0.000171184
0.000352082
-0.000402348
0.000620364
-0.000669254
0.000962593
-0.000951459
0.00137947
-0.0012359
0.00187424
-0.00151484
0.00245595
-0.00178604
0.00314734
-0.00205832
-0.0023698
0.00400561
5.23737e-05
-6.34769e-05
0.000200018
-0.000318828
0.000438162
-0.000640493
0.000763305
-0.000994397
0.00117278
-0.00136093
0.00166474
-0.00172787
0.00223813
-0.00208824
0.00289209
-0.00244001
0.00362117
-0.0027874
-0.00313971
0.00439107
6.35162e-05
-0.000126993
0.000238379
-0.000493691
0.000515158
-0.000917271
0.000885853
-0.00136509
0.00134271
-0.00181779
0.00187762
-0.00226277
0.00248138
-0.002692
0.0031422
-0.00310083
0.00384153
-0.00348672
-0.00384379
0.00454561
7.39168e-05
-0.00020091
0.000273169
-0.000692944
0.000582525
-0.00122663
0.000988206
-0.00177077
0.00147634
-0.00230593
0.00203232
-0.00281876
0.00264036
-0.00330003
0.00328272
-0.00374318
0.00393811
-0.00414212
-0.00448583
0.00458015
8.37206e-05
-0.00028463
0.000304539
-0.000913763
0.000640542
-0.00156263
0.00107155
-0.00220178
0.00157753
-0.00281191
0.00213829
-0.00337952
0.00273361
-0.00389536
0.00334337
-0.00435293
0.00394738
-0.00474614
-0.00506422
0.00452578
9.29185e-05
-0.000377549
0.000332233
-0.00115308
0.000688642
-0.00191904
0.00113534
-0.00264848
0.00164658
-0.00332315
0.00219779
-0.00393073
0.00276624
-0.00446381
0.00333161
-0.00491831
0.00387643
-0.00529095
-0.00557457
0.00438678
0.000101267
-0.000478816
0.000355371
-0.00140718
0.00072512
-0.00228879
0.00117719
-0.00310055
0.00168089
-0.00382684
0.00220867
-0.00445852
0.00273701
-0.00499215
0.00324704
-0.00542834
0.00372491
-0.00576882
-0.00601209
0.00416243
0.000108337
-0.000587153
0.000372607
-0.00167145
0.000747548
-0.00266373
0.00119381
-0.00354681
0.00167687
-0.0043099
0.00216775
-0.0049494
0.00264378
-0.00546818
0.00308887
-0.00587343
0.00349342
-0.00617336
-0.00637318
0.00385451
0.000113601
-0.000700754
0.000382422
-0.00194027
0.000753408
-0.00303471
0.00118211
-0.00397551
0.00163163
-0.00475943
0.00207323
-0.005391
0.00248655
-0.0058815
0.00285927
-0.00624614
0.00318628
-0.00650038
-0.00665622
0.00346932
0.000116529
-0.000817282
0.000383399
-0.00220714
0.000740608
-0.00339192
0.00114
-0.0043749
0.00154401
-0.00516344
0.00192575
-0.00577273
0.00226839
-0.00622414
0.00256392
-0.00654168
0.00281165
-0.0067481
-0.00686167
0.0030171
0.000116652
-0.000933934
0.000374428
-0.00246492
0.000707827
-0.00372532
0.00106678
-0.00473385
0.00141488
-0.00551154
0.00172852
-0.00608637
0.00199523
-0.00649086
0.00221148
-0.00675793
0.00238045
-0.00691707
-0.00699173
0.00251051
0.000113569
-0.0010475
0.000354744
-0.00270609
0.000654553
-0.00402513
0.000963101
-0.0050424
0.0012469
-0.00579534
0.00148678
-0.00632625
0.00167501
-0.00667908
0.00181224
-0.00689516
0.00190483
-0.00700965
-0.00704989
0.00196298
0.00010702
-0.00115452
0.000324059
-0.00292313
0.000581203
-0.00428228
0.000830942
-0.00529214
0.00104428
-0.00600869
0.00120722
-0.00648918
0.00131674
-0.0067886
0.0013771
-0.00695553
0.00139698
-0.00702953
-0.00704044
0.00138753
9.6857e-05
-0.00125138
0.000282499
-0.00310877
0.000488934
-0.00448871
0.000673211
-0.00547641
0.000812095
-0.00614757
0.000897094
-0.00657418
0.000929535
-0.00682104
0.000916507
-0.0069425
0.000868098
-0.00698112
-0.00696805
0.000795713
8.3063e-05
-0.00133444
0.000230581
-0.00325629
0.000379516
-0.00463765
0.000493444
-0.00559034
0.00055578
-0.00620991
0.000563554
-0.00658195
0.000521832
-0.00677932
0.000439652
-0.00686032
0.000327694
-0.00686916
-0.00683746
0.000197096
6.57561e-05
-0.0014002
0.000169193
-0.00335973
0.000255212
-0.00472367
0.000295539
-0.00563067
0.000280747
-0.00619511
0.000213128
-0.00651433
0.000100816
-0.00666701
-4.60426e-05
-0.00671346
-0.000216934
-0.00669827
-0.0066532
-0.000401191
4.52083e-05
-0.00144541
9.9602e-05
-0.00341412
0.000118737
-0.0047428
8.36588e-05
-0.00559559
-7.78507e-06
-0.00610367
-0.000148471
-0.00637365
-0.000327809
-0.00648767
-0.000535218
-0.00650605
-0.000760971
-0.00647252
-0.00641903
-0.000995137
2.18716e-05
-0.00146728
2.34835e-05
-0.00341573
-2.67127e-05
-0.0046926
-0.000137722
-0.00548458
-0.000304696
-0.0059367
-0.000516226
-0.00616212
-0.000759729
-0.00624417
-0.00102458
-0.0062412
-0.00130237
-0.00619472
-0.00613535
-0.00158606
-3.58099e-06
-0.0014637
-5.69966e-05
-0.00336232
-0.000177334
-0.00457227
-0.000363655
-0.00529826
-0.000604866
-0.00569549
-0.00088606
-0.00588092
-0.001193
-0.00593722
-0.0015149
-0.0059193
-0.0018449
-0.00586472
-0.00579541
-0.00218484
-3.01914e-05
-0.00143351
-0.000139007
-0.0032535
-0.000328262
-0.00438301
-0.00058774
-0.00503878
-0.000901605
-0.00538162
-0.00125324
-0.00552929
-0.00162811
-0.00556236
-0.00201578
-0.00553163
-0.00241256
-0.00546795
-0.00540437
-0.0028036
-5.67221e-05
-0.00137678
-0.000219019
-0.00309121
-0.000473069
-0.00412896
-0.000800028
-0.00471182
-0.00118076
-0.00500089
-0.00159933
-0.00511071
-0.00204448
-0.00511721
-0.00250902
-0.00506709
-0.00299174
-0.00498523
-0.00487048
-0.00352563
-8.20933e-05
-0.00129469
-0.00029398
-0.00287932
-0.000605988
-0.00381696
-0.000990373
-0.00432744
-0.00142358
-0.00456768
-0.00188756
-0.00464673
-0.00236933
-0.00463544
-0.00285986
-0.00457656
-0.00335282
-0.00449227
-0.00439066
-0.00383264
-0.000105669
-0.00118902
-0.000362514
-0.00262247
-0.000725674
-0.0034538
-0.00115912
-0.00389399
-0.00163532
-0.00409149
-0.00213455
-0.0041475
-0.00264336
-0.00412663
-0.00315272
-0.0040672
-0.00365544
-0.00398955
-0.00390409
-0.00414201
-0.000127108
-0.00106191
-0.000424046
-0.00232554
-0.000832044
-0.0030458
-0.00130789
-0.00341815
-0.00182103
-0.00357835
-0.00235099
-0.00361754
-0.00288469
-0.00359292
-0.00341396
-0.00353793
-0.00393322
-0.00347029
-0.00339939
-0.00443792
-0.000146154
-0.00091576
-0.000478154
-0.00199354
-0.00092494
-0.00259901
-0.0014373
-0.00290578
-0.00198248
-0.00303317
-0.00253985
-0.00306017
-0.00309711
-0.00303567
-0.00364724
-0.00298779
-0.00418629
-0.00293125
-0.00287372
-0.00471196
-0.000162562
-0.000753198
-0.000524387
-0.00163171
-0.00100394
-0.00211946
-0.00154714
-0.00236258
-0.00211966
-0.00246065
-0.002701
-0.00247883
-0.00327971
-0.00245696
-0.00384987
-0.00241763
-0.00440867
-0.00237245
-0.0023274
-0.00495499
-0.000176082
-0.000577116
-0.00056224
-0.00124555
-0.0010684
-0.0016133
-0.00163667
-0.00179432
-0.00223162
-0.00186569
-0.002833
-0.00187745
-0.00343011
-0.00185985
-0.00401787
-0.00182987
-0.00459425
-0.00179607
-0.00176282
-0.00515883
-0.000186476
-0.00039064
-0.000591196
-0.000840835
-0.00111759
-0.00108691
-0.00170494
-0.00120696
-0.0023171
-0.00125353
-0.00293404
-0.00126051
-0.00354563
-0.00124826
-0.00414744
-0.00122807
-0.00473792
-0.00120558
-0.00118366
-0.00531708
-0.000193535
-0.000197105
-0.000610792
-0.000423577
-0.00115082
-0.000546888
-0.00175105
-0.000606723
-0.00237487
-0.00062971
-0.00300243
-0.000632951
-0.00362402
-0.000626673
-0.00423556
-0.000616524
-0.00483585
-0.000605297
-0.000594411
-0.0054251
-0.000197105
-7.01308e-11
-0.000620682
-1.65071e-10
-0.00116757
-2.03475e-10
-0.00177429
-2.07576e-10
-0.002404
-1.90779e-10
-0.00303695
-1.62253e-10
-0.00366363
-1.27985e-10
-0.00428015
-9.1718e-11
-0.00488545
-5.61404e-11
-1.84927e-11
-0.00547986
-0.000197105
0.000197104
-0.000620682
0.000423577
-0.00116757
0.000546887
-0.00177429
0.000606723
-0.002404
0.000629709
-0.00303695
0.000632951
-0.00366363
0.000626673
-0.00428015
0.000616524
-0.00488545
0.000605296
0.000594411
-0.00547986
-0.000193535
0.000390639
-0.000610792
0.000840834
-0.00115082
0.00108691
-0.00175105
0.00120696
-0.00237487
0.00125353
-0.00300243
0.00126051
-0.00362402
0.00124826
-0.00423556
0.00122807
-0.00483585
0.00120558
0.00118366
-0.0054251
-0.000186476
0.000577116
-0.000591196
0.00124555
-0.00111759
0.0016133
-0.00170494
0.00179432
-0.0023171
0.00186569
-0.00293404
0.00187745
-0.00354563
0.00185985
-0.00414744
0.00182987
-0.00473792
0.00179607
0.00176282
-0.00531708
-0.000176082
0.000753198
-0.00056224
0.00163171
-0.0010684
0.00211946
-0.00163667
0.00236258
-0.00223162
0.00246065
-0.002833
0.00247883
-0.00343011
0.00245696
-0.00401787
0.00241763
-0.00459425
0.00237245
0.0023274
-0.00515883
-0.000162562
0.00091576
-0.000524387
0.00199354
-0.00100394
0.00259901
-0.00154714
0.00290578
-0.00211966
0.00303317
-0.002701
0.00306017
-0.00327971
0.00303567
-0.00384987
0.00298779
-0.00440867
0.00293125
0.00287372
-0.00495499
-0.000146154
0.00106191
-0.000478154
0.00232554
-0.00092494
0.0030458
-0.0014373
0.00341815
-0.00198248
0.00357835
-0.00253985
0.00361754
-0.00309711
0.00359292
-0.00364724
0.00353793
-0.00418629
0.00347029
0.00339939
-0.00471196
-0.000127108
0.00118902
-0.000424046
0.00262247
-0.000832045
0.00345379
-0.00130789
0.00389399
-0.00182103
0.00409149
-0.00235099
0.0041475
-0.00288469
0.00412663
-0.00341396
0.0040672
-0.00393322
0.00398955
0.00390409
-0.00443792
-0.000105669
0.00129469
-0.000362514
0.00287932
-0.000725674
0.00381695
-0.00115912
0.00432744
-0.00163532
0.00456768
-0.00213455
0.00464673
-0.00264336
0.00463544
-0.00315272
0.00457656
-0.00365544
0.00449227
0.00439066
-0.00414201
-8.20933e-05
0.00137678
-0.00029398
0.00309121
-0.000605988
0.00412896
-0.000990373
0.00471182
-0.00142358
0.00500089
-0.00188756
0.00511071
-0.00236933
0.00511721
-0.00285986
0.00506709
-0.00335282
0.00498523
0.00487048
-0.00383264
-5.67221e-05
0.00143351
-0.000219019
0.0032535
-0.000473069
0.00438301
-0.000800028
0.00503878
-0.00118076
0.00538162
-0.00159933
0.00552929
-0.00204448
0.00556236
-0.00250902
0.00553163
-0.00299174
0.00546795
0.00540437
-0.00352563
-3.01915e-05
0.0014637
-0.000139007
0.00336232
-0.000328262
0.00457227
-0.00058774
0.00529826
-0.000901605
0.00569549
-0.00125324
0.00588092
-0.00162811
0.00593722
-0.00201578
0.0059193
-0.00241256
0.00586472
0.00579541
-0.0028036
-3.58101e-06
0.00146728
-5.69967e-05
0.00341573
-0.000177334
0.0046926
-0.000363656
0.00548458
-0.000604866
0.0059367
-0.000886061
0.00616212
-0.00119301
0.00624417
-0.0015149
0.0062412
-0.0018449
0.00619472
0.00613535
-0.00218485
2.18716e-05
0.00144541
2.34835e-05
0.00341412
-2.67128e-05
0.0047428
-0.000137722
0.00559559
-0.000304696
0.00610367
-0.000516226
0.00637365
-0.00075973
0.00648767
-0.00102458
0.00650605
-0.00130238
0.00647252
0.00641903
-0.00158606
4.52083e-05
0.0014002
9.96019e-05
0.00335973
0.000118737
0.00472367
8.36586e-05
0.00563067
-7.78532e-06
0.00619511
-0.000148471
0.00651433
-0.00032781
0.00666701
-0.000535218
0.00671346
-0.000760972
0.00669827
0.0066532
-0.000995138
6.57561e-05
0.00133444
0.000169193
0.00325629
0.000255212
0.00463765
0.000295539
0.00559034
0.000280747
0.00620991
0.000213127
0.00658195
0.000100816
0.00677932
-4.6043e-05
0.00686032
-0.000216934
0.00686916
0.00683746
-0.000401192
8.30629e-05
0.00125138
0.00023058
0.00310877
0.000379516
0.00448871
0.000493444
0.00547641
0.00055578
0.00614757
0.000563553
0.00657418
0.000521832
0.00682104
0.000439652
0.0069425
0.000327693
0.00698112
0.00696805
0.000197096
9.6857e-05
0.00115452
0.000282499
0.00292313
0.000488934
0.00428228
0.000673211
0.00529214
0.000812094
0.00600869
0.000897093
0.00648918
0.000929535
0.0067886
0.000916506
0.00695553
0.000868098
0.00702953
0.00704044
0.000795712
0.00010702
0.0010475
0.000324059
0.00270609
0.000581203
0.00402513
0.000830942
0.0050424
0.00104428
0.00579534
0.00120722
0.00632625
0.00131674
0.00667908
0.0013771
0.00689516
0.00139698
0.00700965
0.00704989
0.00138753
0.000113569
0.000933935
0.000354743
0.00246492
0.000654552
0.00372532
0.000963101
0.00473385
0.0012469
0.00551154
0.00148678
0.00608637
0.00167501
0.00649086
0.00181224
0.00675793
0.00190482
0.00691707
0.00699173
0.00196298
0.000116652
0.000817283
0.000374428
0.00220714
0.000707827
0.00339192
0.00106678
0.0043749
0.00141488
0.00516344
0.00172852
0.00577273
0.00199523
0.00622414
0.00221148
0.00654168
0.00238045
0.0067481
0.00686167
0.00251051
0.000116528
0.000700754
0.000383399
0.00194027
0.000740608
0.00303471
0.00114
0.00397551
0.00154401
0.00475943
0.00192575
0.005391
0.00226838
0.0058815
0.00256392
0.00624614
0.00281165
0.00650038
0.00665622
0.0030171
0.000113601
0.000587153
0.000382421
0.00167145
0.000753408
0.00266373
0.00118211
0.00354681
0.00163163
0.0043099
0.00207323
0.0049494
0.00248655
0.00546818
0.00285927
0.00587343
0.00318628
0.00617336
0.00637318
0.00346932
0.000108337
0.000478816
0.000372606
0.00140718
0.000747548
0.00228879
0.00119381
0.00310055
0.00167687
0.00382685
0.00216775
0.00445852
0.00264378
0.00499215
0.00308887
0.00542834
0.00349342
0.00576882
0.00601209
0.00385451
0.000101267
0.000377549
0.000355371
0.00115308
0.00072512
0.00191904
0.00117719
0.00264848
0.00168089
0.00332315
0.00220867
0.00393073
0.00273701
0.00446381
0.00324704
0.00491831
0.00372491
0.00529095
0.00557458
0.00416242
9.29185e-05
0.000284631
0.000332233
0.000913763
0.000688642
0.00156263
0.00113534
0.00220178
0.00164658
0.00281191
0.00219779
0.00337952
0.00276624
0.00389536
0.00333161
0.00435294
0.00387642
0.00474614
0.00506422
0.00438678
8.37206e-05
0.00020091
0.000304539
0.000692944
0.000640542
0.00122663
0.00107155
0.00177077
0.00157753
0.00230593
0.00213829
0.00281876
0.00273361
0.00330003
0.00334336
0.00374318
0.00394738
0.00414212
0.00448583
0.00452577
7.39168e-05
0.000126993
0.000273169
0.000493692
0.000582525
0.000917272
0.000988206
0.00136509
0.00147634
0.0018178
0.00203232
0.00226277
0.00264036
0.002692
0.00328272
0.00310083
0.00393811
0.00348672
0.00384379
0.00458014
6.35162e-05
6.34771e-05
0.000238379
0.000318829
0.000515158
0.000640493
0.000885853
0.000994398
0.00134271
0.00136093
0.00187762
0.00172787
0.00248138
0.00208824
0.0031422
0.00244001
0.00384153
0.0027874
0.00313971
0.00454561
5.23737e-05
1.11034e-05
0.000200018
0.000171184
0.000438162
0.000402349
0.000763305
0.000669255
0.00117278
0.00095146
0.00166474
0.00123591
0.00223813
0.00151484
0.00289209
0.00178605
0.00362117
0.00205833
0.0023698
0.00439107
4.04687e-05
-2.93653e-05
0.000158363
5.32897e-05
0.000352082
0.000208631
0.000620363
0.000400973
0.000962592
0.000609231
0.00137947
0.000819032
0.00187424
0.00102007
0.00245595
0.00120434
0.00314734
0.00136694
0.00151153
0.0040056
2.83228e-05
-5.76881e-05
0.000115475
-3.38622e-05
0.000261668
6.24381e-05
0.000465494
0.000197147
0.000724152
0.000350574
0.00103315
0.000510032
0.00138568
0.000667547
0.00177096
0.00081905
0.00217338
0.000964519
0.0011149
0.00257002
1.70225e-05
-7.47106e-05
7.53656e-05
-9.22053e-05
0.00017703
-3.92259e-05
0.000321094
5.30817e-05
0.0005046
0.000167068
0.000722769
0.000291864
0.00096932
0.000420996
0.00123747
0.000550896
0.00152352
0.00067847
0.000796857
0.00184157
7.38372e-06
-8.20943e-05
4.08943e-05
-0.000125716
0.000104611
-0.000102943
0.000199127
-4.14338e-05
0.000323146
4.3049e-05
0.000474295
0.000140714
0.000649971
0.00024532
0.000848497
0.000352371
0.00107039
0.000456581
0.000548094
0.00131915
-3.28551e-07
-8.17658e-05
1.29733e-05
-0.000139018
4.60441e-05
-0.000136014
0.000101302
-9.6692e-05
0.0001794
-3.50485e-05
0.000280233
3.9881e-05
0.000403734
0.000121819
0.000550483
0.000205622
0.000721599
0.000285465
0.000353477
0.000916217
-6.22412e-06
-7.55416e-05
-8.71798e-06
-0.000136524
4.21211e-07
-0.000145153
2.52666e-05
-0.000121537
6.80533e-05
-7.78352e-05
0.000130157
-2.22232e-05
0.000212678
3.92984e-05
0.000316639
0.000101661
0.00044248
0.000159624
0.000207471
0.000588485
-1.05891e-05
-6.49526e-05
-2.50701e-05
-0.000122043
-3.41999e-05
-0.000136023
-3.26406e-05
-0.000123097
-1.70969e-05
-9.3379e-05
1.45686e-05
-5.38886e-05
6.3776e-05
-9.90895e-06
0.000131295
3.41422e-05
0.000216852
7.40673e-05
0.000105861
0.000318462
-1.37375e-05
-5.12151e-05
-3.70663e-05
-9.87139e-05
-5.98267e-05
-0.000113263
-7.58336e-05
-0.00010709
-8.11855e-05
-8.80271e-05
-7.34534e-05
-6.16207e-05
-5.12805e-05
-3.20818e-05
-1.42801e-05
-2.85829e-06
3.68029e-05
2.29843e-05
4.27788e-05
9.98851e-05
-1.59225e-05
-3.52925e-05
-4.55008e-05
-6.91356e-05
-7.80068e-05
-8.07566e-05
-0.000106749
-7.83474e-05
-0.000127527
-6.72487e-05
-0.00013786
-5.12879e-05
-0.000136568
-3.33742e-05
-0.000123582
-1.58437e-05
-9.99204e-05
-6.77701e-07
1.05022e-05
-6.76439e-05
-1.73087e-05
-1.79838e-05
-5.08952e-05
-3.55491e-05
-8.97169e-05
-4.1935e-05
-0.000126814
-4.12498e-05
-0.000157863
-3.61999e-05
-0.000180415
-2.87361e-05
-0.000193449
-2.034e-05
-0.000197108
-1.21855e-05
-0.000192544
-5.24129e-06
-2.73186e-07
-0.000181769
-1.7984e-05
-5.35336e-05
-9.54693e-05
-0.00013672
-0.000172921
-0.000201658
-0.000221999
-0.000234186
-0.000239428
-0.000239703
0.000180282
-0.000419976
-8.54055e-09
0.00131867
-0.00113842
3.726e-08
0.00248881
-0.00117019
5.50439e-08
0.0032346
-0.000745738
-5.22135e-08
0.00385945
-0.000624727
-1.26122e-07
0.00429028
-0.000430765
-6.98208e-08
0.00463728
-0.000347003
8.26452e-09
0.00487608
-0.000238972
1.74579e-07
0.00509185
-0.000215943
1.72784e-07
-0.000133941
7.60168e-09
0.000292032
-0.000893776
0.00140118
-0.00224757
0.00254495
-0.00231396
0.00327417
-0.00147496
0.00388745
-0.00123801
0.00431163
-0.000854944
0.00465447
-0.000689843
0.00489146
-0.000475965
0.00510647
-0.000430944
-0.000268929
0.000508365
-0.00146978
0.00156053
-0.00329974
0.00265303
-0.00340646
0.00335035
-0.00217228
0.0039414
-0.00182906
0.0043529
-0.00126644
0.00468788
-0.00102482
0.00492157
-0.000709664
0.00513528
-0.000644645
-0.000406159
0.000815417
-0.00218531
0.00178578
-0.0042701
0.00280497
-0.00442564
0.00345744
-0.00282476
0.00401731
-0.00238892
0.0044113
-0.00166044
0.00473558
-0.00134911
0.0049651
-0.000939183
0.00517743
-0.000856973
-0.000547082
0.00119359
-0.00306044
0.00206162
-0.00513814
0.00298945
-0.00535347
0.00358745
-0.00342275
0.00410958
-0.00291105
0.00448292
-0.00203378
0.00479488
-0.00166106
0.00502018
-0.00116448
0.0052317
-0.00106849
-0.000693515
0.00161878
-0.00409074
0.00236943
-0.00588878
0.00319281
-0.00617686
0.00373067
-0.00396061
0.00421141
-0.0033918
0.00456296
-0.00238533
0.00486242
-0.00196052
0.00508448
-0.00138654
0.00529655
-0.00128056
-0.000847725
0.00206302
-0.00523754
0.00268803
-0.00651378
0.00339984
-0.00688867
0.00387635
-0.00443712
0.00431522
-0.00383067
0.00464602
-0.00271613
0.0049344
-0.0022489
0.00515533
-0.00160746
0.00537015
-0.00149538
-0.00101248
0.00249633
-0.00641472
0.00299449
-0.00701194
0.00359461
-0.00748879
0.00401332
-0.00485583
0.00441315
-0.0042305
0.00472646
-0.00302944
0.0050068
-0.00252924
0.00522983
-0.0018305
0.00545051
-0.00171606
-0.00119104
0.00290028
-0.00747343
0.00326955
-0.00738122
0.00376295
-0.00798219
0.00413107
-0.00522395
0.00449768
-0.00459711
0.00479872
-0.00333049
0.00507556
-0.00280608
0.00530502
-0.00205996
0.00553552
-0.00194656
-0.00138719
0.00327914
-0.00818256
0.00351156
-0.00761364
0.00389381
-0.00836444
0.00422236
-0.0055525
0.00456201
-0.00493676
0.00485792
-0.0036264
0.00513667
-0.00308482
0.00537818
-0.00230147
0.00562267
-0.00219105
-0.00160549
0.0433837
-0.00093479
-0.0506315
0.0390847
-0.00331461
0.0369945
-0.00627424
0.0368269
-0.0053849
0.0366817
-0.00479157
0.0368799
-0.00382459
0.0370719
-0.00327684
0.0373602
-0.00258973
0.0376001
-0.00243098
-0.00194037
0.0523143
0.00329507
-0.0565442
0.0501537
-0.00115405
0.0475524
-0.00367288
0.0460238
-0.00385633
0.0448107
-0.00357847
0.0440124
-0.00302629
0.0433641
-0.00262852
0.0429631
-0.00218872
0.0425833
-0.00205119
-0.0017784
0.0538864
0.00450339
-0.0550947
0.0526218
0.000110495
0.051002
-0.00205306
0.0496979
-0.00255226
0.0485887
-0.00246923
0.047745
-0.00218262
0.0469913
-0.00187478
0.0464266
-0.00162408
0.0458774
-0.00150199
-0.00140896
0.0520378
0.00435897
-0.0518934
0.0516486
0.000499703
0.0508136
-0.00121806
0.049974
-0.00171261
0.0492184
-0.00171367
0.0486207
-0.00158487
0.0480675
-0.00132157
0.0476157
-0.00117235
0.0471699
-0.00105611
-0.00105403
0.0499958
0.00367954
-0.0493164
0.0498759
0.00061963
0.0494509
-0.000793081
0.0489456
-0.0012073
0.048464
-0.00123201
0.0480728
-0.00119374
0.04772
-0.000968711
0.0474139
-0.000866304
0.0471196
-0.000761799
-0.000786274
0.0483028
0.0028824
-0.0475057
0.0483309
0.000591583
0.0480757
-0.000537932
0.0477407
-0.000872307
0.0474094
-0.000900624
0.0471264
-0.000910757
0.0468885
-0.000730878
0.0466752
-0.000652953
0.0464823
-0.000568934
-0.000591698
0.047099
0.00209509
-0.0463117
0.0471921
0.000498454
0.0470124
-0.00035821
0.0467566
-0.000616519
0.0464974
-0.000641468
0.0462579
-0.000671168
0.0460669
-0.000539902
0.0458948
-0.000480914
0.0457468
-0.000420875
-0.000435293
0.0462864
0.00135818
-0.0455495
0.046429
0.000355885
0.0462895
-0.000218767
0.0460692
-0.00039613
0.0458421
-0.000414373
0.0456158
-0.000444953
0.0454367
-0.000360738
0.0452768
-0.000321026
0.0451393
-0.000283386
-0.00029103
0.0457907
0.000666582
-0.0450991
0.0459649
0.000181619
0.0458509
-0.000104701
0.0456469
-0.0001922
0.0454336
-0.000201051
0.0452106
-0.000221932
0.0450308
-0.000181004
0.0448718
-0.000162001
0.0447314
-0.000143
-0.000146983
0.0455558
-0.0448892
0.0457374
0.0456327
0.0454405
0.0452395
0.0450175
0.0448365
0.0446745
0.0445315
0.0567848
0.00229979
-0.0560675
0.0573449
0.00290918
0.0576993
0.00350014
0.057798
0.00406368
0.0575942
0.00459061
0.0570478
0.00507218
0.0561272
0.00550073
0.0548027
0.00587019
0.053018
0.00617574
0.00639211
0.0513877
0.00169209
-0.05078
0.0520399
0.00225694
0.0527227
0.00281736
0.0534181
0.00336826
0.0541048
0.00390391
0.0547589
0.00441808
0.0553553
0.00490433
0.0558692
0.00535629
0.0562767
0.00576824
0.00612469
0.0480848
0.00121781
-0.0476105
0.04864
0.00170172
0.049273
0.00218444
0.0499781
0.00266311
0.0507475
0.00313456
0.0515702
0.00359532
0.052433
0.00404155
0.0533202
0.00446907
0.0542151
0.00487336
0.00524507
0.0454858
0.000891689
-0.0451597
0.045892
0.00129552
0.0463789
0.00169761
0.0469463
0.00209571
0.0475933
0.00248755
0.0483178
0.00287079
0.0491163
0.00324304
0.0499836
0.00360178
0.0509128
0.00394421
0.00426441
0.0439029
0.000652101
-0.0436633
0.0442165
0.000981873
0.0446044
0.00130977
0.0450662
0.00163392
0.0456013
0.00195245
0.0462085
0.00226351
0.0468864
0.00256523
0.0476324
0.0028557
0.0484438
0.00313285
0.00339178
0.0428084
0.000469937
-0.0426262
0.0430605
0.000729723
0.0433825
0.000987742
0.043774
0.00124248
0.044234
0.00149242
0.0447614
0.00173609
0.0453547
0.00197199
0.0460117
0.00219867
0.04673
0.00241451
0.00261611
0.0421167
0.00032507
-0.0419719
0.0423285
0.000517949
0.0426068
0.000709415
0.042951
0.000898318
0.0433599
0.00108351
0.0438321
0.00126387
0.0443658
0.00143826
0.0449589
0.0016056
0.0456087
0.00176468
0.00191318
0.0416655
0.000204312
-0.0415447
0.0418514
0.000332045
0.042102
0.000458823
0.0424164
0.000583873
0.0427935
0.000706426
0.0432317
0.000825723
0.0437289
0.000941016
0.0442829
0.00105157
0.044891
0.00115658
0.0012547
0.0414014
9.83158e-05
-0.0412955
0.0415715
0.000161975
0.0418052
0.000225174
0.0421015
0.000287525
0.0424593
0.000348641
0.0428769
0.00040814
0.0433523
0.000465643
0.043883
0.000520779
0.0444665
0.000573155
0.000622125
0.0412761
-0.0411777
0.041438
0.0416632
0.0419507
0.0422994
0.0427075
0.0431732
0.0436939
0.0442671
0.0481179
-0.00335348
-0.047568
0.0488275
-0.0028945
0.0496468
-0.00240534
0.0505361
-0.00188446
0.0514682
-0.00133325
0.0524244
-0.000759125
0.0533866
-0.000166441
0.054333
0.000441065
0.0552374
0.00105861
0.00168042
0.0479682
-0.0034073
-0.0479144
0.0480659
-0.00299212
0.0482065
-0.00254597
0.0483958
-0.00207378
0.0486396
-0.00157698
0.0489419
-0.00106143
0.0493062
-0.00053076
0.0497346
1.26692e-05
0.0502269
0.000566345
0.00112729
0.0468957
-0.00314789
-0.0471551
0.0466913
-0.0027877
0.0465475
-0.00240221
0.0464697
-0.00199598
0.0464639
-0.00157121
0.0465337
-0.00113124
0.0466815
-0.000678531
0.0469093
-0.000215103
0.0472186
0.00025696
0.000735395
0.0455765
-0.00277132
-0.0459531
0.0452578
-0.00246902
0.0450006
-0.00214498
0.0448084
-0.00180374
0.0446844
-0.00144721
0.0446309
-0.00107779
0.0446499
-0.000697543
0.0447432
-0.000308421
0.0449126
8.75629e-05
0.000488317
0.0446583
-0.0023495
-0.0450801
0.0442902
-0.00210099
0.0439806
-0.0018353
0.0437324
-0.00155555
0.0435485
-0.00126334
0.0434312
-0.000960534
0.0433825
-0.000648842
0.0434041
-0.000329967
0.0434973
-5.64928e-06
0.000322317
0.0439883
-0.00190012
-0.0444377
0.0435909
-0.00170359
0.0432494
-0.00149372
0.0429666
-0.0012728
0.0427453
-0.00104207
0.0425877
-0.000802915
0.0424956
-0.000556732
0.0424705
-0.00030491
0.0425138
-4.88752e-05
0.000209906
0.0435589
-0.00143576
-0.0440233
0.0431449
-0.00128962
0.042785
-0.00113376
0.0424819
-0.000969684
0.0422381
-0.000798301
0.0420558
-0.00062063
0.0419368
-0.000437703
0.0418824
-0.000250574
0.0418939
-6.03252e-05
0.000131934
0.0432805
-0.000961327
-0.0437549
0.0428555
-0.000864621
0.0424832
-0.00076152
0.0421665
-0.000652963
0.0419078
-0.000539554
0.0417091
-0.000421954
0.0415722
-0.000300845
0.0414986
-0.000176932
0.0414892
-5.09365e-05
7.63978e-05
0.04312
-0.000481466
-0.0435998
0.0426888
-0.000433438
0.0423095
-0.000382236
0.0419848
-0.000328304
0.0417172
-0.000271942
0.0415087
-0.00021347
0.0413611
-0.000153226
0.0412757
-9.15598e-05
0.0412536
-2.8832e-05
3.45864e-05
0.0430462
-0.0435276
0.0426127
0.0422305
0.0419022
0.0416302
0.0414168
0.0412636
0.041172
0.0411432
0.0429487
0.000174223
-0.000193989
0.0429948
0.000520166
-0.000566244
0.043072
0.00087143
-0.000948696
0.0431978
0.00123561
-0.00136137
0.0434018
0.00161797
-0.00182196
0.0437272
0.0020227
-0.00234816
0.0442325
0.0024519
-0.00295717
0.0449889
0.00290798
-0.00366433
0.0460901
0.0033669
-0.0044681
0.00391674
-0.00539468
0.0429654
0.000137706
0.043072
0.000413584
0.0432526
0.00069087
0.0435175
0.000970734
0.0438815
0.00125398
0.0443633
0.00154086
0.0449848
0.00183045
0.0457698
0.00212292
0.046734
0.00240274
0.00273628
0.0429664
0.000100208
0.0430774
0.000302586
0.0432619
0.00050644
0.0435238
0.000708819
0.0438689
0.000908845
0.0443045
0.00110522
0.0448391
0.00129584
0.0454831
0.001479
0.0462411
0.00164469
0.00182232
0.0429586
7.05206e-05
0.0430475
0.000213714
0.0431957
0.000358234
0.043404
0.000500506
0.0436735
0.000639353
0.0440052
0.00077349
0.0443997
0.000901348
0.044857
0.00102173
0.045372
0.00112964
0.0012413
0.0429506
4.8883e-05
0.043016
0.000148302
0.0431256
0.000248627
0.0432791
0.000346967
0.0434762
0.000442285
0.0437161
0.00053354
0.0439979
0.00061959
0.0443201
0.000699503
0.0446793
0.000770483
0.000840497
0.0429445
3.33112e-05
0.0429917
0.000101071
0.0430709
0.000169418
0.0431816
0.0002363
0.0433229
0.000300957
0.0434938
0.000362658
0.0436927
0.000420663
0.0439179
0.000474379
0.044166
0.000522332
0.000568811
0.0429403
2.19265e-05
0.0429749
6.65187e-05
0.0430328
0.000111477
0.0431137
0.000155444
0.0432167
0.000197907
0.043341
0.000238381
0.0434853
0.00027639
0.0436481
0.000311544
0.0438274
0.000343013
0.000372971
0.0429376
1.32845e-05
0.0429638
4.02901e-05
0.0430078
6.75069e-05
0.0430691
9.41243e-05
0.0431472
0.000119834
0.0432412
0.000144347
0.0433502
0.000167389
0.043473
0.000188734
0.0436081
0.000207946
0.000226139
0.0429359
6.26535e-06
0.0429572
1.89975e-05
0.0429929
3.18264e-05
0.0430427
4.43732e-05
0.043106