1.45 	0 	0 	-0.304704
2.35 	0 	0 	-0.0981886
