1.45 	0 	0 	-0.000915081 	-0.00315179 	1.73737e-20
2.35 	0 	0 	0.0891148 	-0.00745667 	9.80717e-21
