/*--------------------------------*- C++ -*----------------------------------*\
  =========                 |
  \\      /  F ield         | OpenFOAM: The Open Source CFD Toolbox
   \\    /   O peration     | Website:  https://openfoam.org
    \\  /    A nd           | Version:  6.0
     \\/     M anipulation  |
\*---------------------------------------------------------------------------*/
FoamFile
{
    version     2.0;
    format      ascii;
    class       surfaceScalarField;
    location    "59";
    object      phi;
}
// * * * * * * * * * * * * * * * * * * * * * * * * * * * * * * * * * * * * * //

dimensions      [0 3 -1 0 0 0 0];

internalField   nonuniform List<scalar> 
68636
(
3.0223e-05
0.00310561
7.08981e-09
6.08371e-05
0.00307074
9.10862e-05
0.00300248
0.000120473
0.00290133
0.000148615
0.00276827
0.000175165
0.00260473
0.00019981
0.00241251
0.000222263
0.00219376
0.000242267
0.00195088
0.000259595
0.0016865
0.000274049
0.0014035
0.000285473
0.00110466
0.000293796
0.000793594
0.000298733
0.000471802
0.000130643
0.000295338
2.99335e-05
0.00307565
2.23169e-08
6.02697e-05
0.0030404
9.02442e-05
0.00297251
0.000119365
0.00287222
0.000147252
0.0027404
0.000173561
0.00257843
0.000197983
0.00238811
0.000220232
0.00217153
0.000240054
0.00193108
0.000257224
0.00166936
0.000271549
0.0013892
0.000282859
0.00109338
0.000291203
0.000785284
0.000295585
0.000467469
0.000133463
0.000292851
2.96464e-05
0.00304597
3.74064e-08
5.97072e-05
0.00301034
8.94098e-05
0.00294281
0.000118267
0.00284336
0.000145903
0.00271276
0.000171976
0.00255236
0.000196178
0.00236391
0.000218225
0.00214948
0.000237868
0.00191144
0.000254882
0.00165234
0.000269078
0.001375
0.000280269
0.00108218
0.00028854
0.000777007
0.000293166
0.00046283
0.000134826
0.000291763
2.93622e-05
0.00301656
5.22288e-08
5.91502e-05
0.00298056
8.85837e-05
0.00291338
0.000117181
0.00281477
0.000144568
0.00268538
0.000170406
0.00252653
0.000194389
0.00233994
0.000216237
0.00212764
0.000235701
0.00189199
0.000252561
0.00163549
0.000266629
0.00136095
0.000277706
0.00107112
0.000285852
0.000768884
0.0002906
0.000458117
0.000135517
0.000289966
2.90809e-05
0.00298741
6.67805e-08
5.85987e-05
0.00295104
8.77656e-05
0.00288421
0.000116105
0.00278643
0.000143246
0.00265824
0.00016885
0.00250093
0.000192616
0.00231617
0.000214266
0.00210599
0.000233553
0.0018727
0.000250258
0.00161878
0.000264199
0.00134701
0.000275169
0.00106015
0.00028318
0.000760863
0.000287906
0.000453375
0.000135629
0.000287749
2.88022e-05
0.00295853
8.10821e-08
5.80523e-05
0.00292179
8.69551e-05
0.00285531
0.000115039
0.00275835
0.000141935
0.00263135
0.000167308
0.00247556
0.000190859
0.00229262
0.000212311
0.00208454
0.000231423
0.00185359
0.000247976
0.00160224
0.000261789
0.00133321
0.000272659
0.00104929
0.000280543
0.000752996
0.000285209
0.000448736
0.000135488
0.000285393
2.85262e-05
0.00292991
9.51747e-08
5.7511e-05
0.0028928
8.61522e-05
0.00282667
0.000113982
0.00273052
0.000140636
0.0026047
0.00016578
0.00245041
0.000189117
0.00226929
0.000210374
0.00206328
0.000229312
0.00183465
0.000245713
0.00158583
0.000259401
0.00131951
0.000270173
0.00103851
0.000277946
0.000745213
0.000282548
0.000444117
0.000135025
0.000282966
2.82529e-05
0.00290154
1.0903e-07
5.6975e-05
0.00286408
8.53569e-05
0.00279829
0.000112936
0.00270294
0.000139349
0.00257828
0.000164265
0.0024255
0.00018739
0.00224617
0.000208454
0.00204222
0.00022722
0.00181589
0.000243472
0.00156959
0.000257033
0.00130596
0.000267709
0.00102785
0.000275385
0.000737552
0.000279925
0.000439599
0.000134477
0.000280508
2.79822e-05
0.00287344
1.22636e-07
5.6444e-05
0.00283562
8.45691e-05
0.00277016
0.000111899
0.00267561
0.000138073
0.00255211
0.000162763
0.00240081
0.000185678
0.00222325
0.000206551
0.00202135
0.000225146
0.00179729
0.000241249
0.00155348
0.000254686
0.00129252
0.000265268
0.00101725
0.000272856
0.000729952
0.00027734
0.000435098
0.000133725
0.000278048
2.77142e-05
0.00284559
1.35995e-07
5.59182e-05
0.00280742
8.37887e-05
0.00274229
0.000110871
0.00264853
0.000136808
0.00252617
0.000161275
0.00237634
0.000183981
0.00220055
0.000204665
0.00200067
0.000223091
0.00177887
0.000239047
0.00153753
0.000252359
0.00127921
0.000262847
0.00100678
0.000270356
0.000722456
0.000274791
0.000430683
0.000132947
0.0002756
2.74487e-05
0.00281799
1.491e-07
5.53973e-05
0.00277947
8.30155e-05
0.00271467
0.000109853
0.00262169
0.000135555
0.00250047
0.000159799
0.0023521
0.000182299
0.00217805
0.000202795
0.00198017
0.000221053
0.00176061
0.000236864
0.00152172
0.000250053
0.00126602
0.000260446
0.000996376
0.000267881
0.00071501
0.000272273
0.000426275
0.000132014
0.000273164
2.71858e-05
0.00279064
1.61945e-07
5.48813e-05
0.00275177
8.22495e-05
0.00268731
0.000108844
0.00259509
0.000134313
0.002475
0.000158336
0.00232807
0.000180632
0.00215575
0.000200941
0.00195986
0.000219034
0.00174252
0.0002347
0.00150605
0.000247767
0.00125296
0.000258067
0.000986085
0.000265431
0.000707657
0.000269782
0.000421941
0.000131082
0.000270742
2.69254e-05
0.00276354
1.74504e-07
5.43701e-05
0.00272433
8.14905e-05
0.00266019
0.000107844
0.00256874
0.000133081
0.00244977
0.000156886
0.00230427
0.00017898
0.00213366
0.000199104
0.00193973
0.000217032
0.00172459
0.000232556
0.00149053
0.000245502
0.00124001
0.000255708
0.000975872
0.000263003
0.00070035
0.000267318
0.000417611
0.000130025
0.000268335
2.66676e-05
0.00273669
1.86764e-07
5.38636e-05
0.00269713
8.07383e-05
0.00263331
0.000106853
0.00254263
0.00013186
0.00242476
0.000155449
0.00228068
0.000177342
0.00211177
0.000197284
0.00191979
0.000215049
0.00170683
0.000230432
0.00147515
0.000243258
0.00122719
0.00025337
0.000965768
0.000260599
0.000693132
0.000264877
0.000413349
0.000128986
0.000265942
2.64122e-05
0.00271008
1.98704e-07
5.33617e-05
0.00267018
7.99929e-05
0.00260668
0.00010587
0.00251675
0.00013065
0.00239998
0.000154025
0.0022573
0.000175719
0.00209007
0.000195479
0.00190003
0.000213083
0.00168922
0.000228326
0.0014599
0.000241034
0.00121447
0.000251053
0.000955741
0.000258216
0.000685959
0.000262459
0.00040909
0.000127844
0.000263564
2.61593e-05
0.00268371
2.10305e-07
5.28644e-05
0.00264348
7.9254e-05
0.00258029
0.000104896
0.00249111
0.000129451
0.00237543
0.000152613
0.00223414
0.00017411
0.00206858
0.000193691
0.00188045
0.000211135
0.00167178
0.000226239
0.0014448
0.00023883
0.00120189
0.000248757
0.000945822
0.000255855
0.00067887
0.000260063
0.000404898
0.000126733
0.0002612
2.59087e-05
0.00265758
2.21545e-07
5.23715e-05
0.00261702
7.85216e-05
0.00255414
0.000103931
0.0024657
0.000128262
0.00235109
0.000151214
0.00221119
0.000172515
0.00204727
0.00019192
0.00186104
0.000209205
0.00165449
0.000224172
0.00142983
0.000236647
0.00118941
0.000246482
0.000935979
0.000253517
0.000671826
0.00025769
0.00040071
0.000125536
0.00025885
2.56606e-05
0.00263169
2.32413e-07
5.1883e-05
0.00259079
7.77957e-05
0.00252823
0.000102974
0.00244052
0.000127084
0.00232699
0.000149827
0.00218845
0.000170936
0.00202617
0.000190164
0.00184182
0.000207292
0.00163737
0.000222123
0.00141501
0.000234483
0.00117705
0.000244228
0.000926242
0.0002512
0.000664864
0.000255338
0.000396586
0.000124383
0.000256515
2.54148e-05
0.00260603
2.42907e-07
5.1399e-05
0.00256481
7.70762e-05
0.00250255
0.000102025
0.00241557
0.000125917
0.00230309
0.000148453
0.00216591
0.00016937
0.00200525
0.000188424
0.00182276
0.000205397
0.00162039
0.000220092
0.00140031
0.000232339
0.0011648
0.000241995
0.000916579
0.000248904
0.000657944
0.000253008
0.000392467
0.00012316
0.000254196
2.51714e-05
0.00258061
2.53037e-07
5.09193e-05
0.00253906
7.63631e-05
0.00247711
0.000101085
0.00239085
0.000124759
0.00227942
0.000147091
0.00214358
0.000167818
0.00198453
0.000186699
0.00180388
0.000203518
0.00160358
0.00021808
0.00138575
0.000230215
0.00115267
0.000239782
0.000907019
0.00024663
0.000651105
0.000250699
0.000388412
0.000121988
0.000251894
2.49303e-05
0.00255541
2.62818e-07
5.0444e-05
0.00251355
7.56563e-05
0.0024519
0.000100154
0.00236635
0.000123613
0.00225596
0.000145742
0.00212145
0.000166281
0.00196399
0.000184991
0.00178517
0.000201657
0.00158691
0.000216087
0.00137131
0.000228111
0.00114064
0.00023759
0.000897533
0.000244377
0.000644308
0.000248412
0.000384362
0.000120757
0.00024961
2.46915e-05
0.00253045
2.7228e-07
4.9973e-05
0.00248827
7.49559e-05
0.00242692
9.92306e-05
0.00234208
0.000122476
0.00223272
0.000144405
0.00209952
0.000164758
0.00194363
0.000183298
0.00176663
0.000199812
0.0015704
0.000214111
0.00135702
0.000226025
0.00112873
0.000235417
0.000888147
0.000242145
0.000637588
0.000246146
0.000380374
0.000119579
0.000247346
2.44549e-05
0.00250571
2.81458e-07
4.95063e-05
0.00246322
7.42618e-05
0.00240216
9.83157e-05
0.00231802
0.00012135
0.00220968
0.00014308
0.00207779
0.000163248
0.00192346
0.00018162
0.00174826
0.000197984
0.00155403
0.000212153
0.00134285
0.000223958
0.00111692
0.000233265
0.000878834
0.000239933
0.00063091
0.000243901
0.000376391
0.000118347
0.000245101
2.42207e-05
0.0024812
2.90391e-07
4.90439e-05
0.00243839
7.35741e-05
0.00237763
9.74092e-05
0.00229419
0.000120234
0.00218686
0.000141767
0.00205626
0.000161752
0.00190348
0.000179957
0.00173006
0.000196173
0.00153782
0.000210213
0.00132881
0.00022191
0.00110523
0.000231132
0.000869618
0.000237742
0.000624308
0.000241677
0.000372468
0.000117169
0.000242877
2.39887e-05
0.00245691
2.99118e-07
4.85858e-05
0.0024138
7.28926e-05
0.00235332
9.6511e-05
0.00227057
0.000119129
0.00216424
0.000140466
0.00203492
0.00016027
0.00188368
0.00017831
0.00171201
0.000194378
0.00152174
0.00020829
0.0013149
0.000219881
0.00109363
0.000229019
0.000860474
0.000235571
0.000617747
0.000239474
0.000368551
0.000115941
0.000240671
2.37589e-05
0.00243285
3.07668e-07
4.8132e-05
0.00238942
7.22175e-05
0.00232924
9.5621e-05
0.00224717
0.000118033
0.00214183
0.000139177
0.00201378
0.000158801
0.00186405
0.000176677
0.00169414
0.000192599
0.00150582
0.000206385
0.00130111
0.00021787
0.00108215
0.000226925
0.000851425
0.000233419
0.00061126
0.00023729
0.000364691
0.000114767
0.000238485
2.35313e-05
0.002409
3.16068e-07
4.76825e-05
0.00236527
7.15486e-05
0.00230537
9.47392e-05
0.00222397
0.000116948
0.00211962
0.000137899
0.00199283
0.000157345
0.00184461
0.000175059
0.00167642
0.000190837
0.00149004
0.000204497
0.00128745
0.000215878
0.00107076
0.00022485
0.000842446
0.000231287
0.000604813
0.000235127
0.000360838
0.000113548
0.000236319
2.33059e-05
0.00238537
3.24333e-07
4.72371e-05
0.00234134
7.0886e-05
0.00228172
9.38656e-05
0.002201
0.000115873
0.00209761
0.000136633
0.00197207
0.000155903
0.00182534
0.000173456
0.00165887
0.00018909
0.00147441
0.000202626
0.00127392
0.000213903
0.00105949
0.000222794
0.000833561
0.000229175
0.000598439
0.000232984
0.00035704
0.000112379
0.000234173
2.30827e-05
0.00236196
3.32469e-07
4.6796e-05
0.00231763
7.02295e-05
0.00225829
9.30001e-05
0.00217822
0.000114807
0.0020758
0.000135379
0.0019515
0.000154473
0.00180624
0.000171867
0.00164148
0.000187359
0.00145892
0.000200772
0.0012605
0.000211947
0.00104831
0.000220757
0.000824745
0.000227082
0.000592105
0.000230861
0.000353248
0.000111164
0.000232048
2.28616e-05
0.00233876
3.40472e-07
4.63589e-05
0.00229413
6.95791e-05
0.00223507
9.21426e-05
0.00215566
0.000113751
0.0020542
0.000134136
0.00193111
0.000153057
0.00178732
0.000170292
0.00162424
0.000185644
0.00144357
0.000198934
0.00124721
0.000210008
0.00103724
0.000218738
0.00081602
0.000225008
0.000585842
0.000228757
0.000349511
0.000109997
0.000229944
2.26426e-05
0.00231576
3.4833e-07
4.5926e-05
0.00227085
6.89348e-05
0.00221206
9.12929e-05
0.0021333
0.000112705
0.00203278
0.000132905
0.00191091
0.000151653
0.00176857
0.000168732
0.00160716
0.000183944
0.00142835
0.000197114
0.00123404
0.000208087
0.00102626
0.000216738
0.000807363
0.000222953
0.000579618
0.000226672
0.000345779
0.000108783
0.000227859
2.24257e-05
0.00229298
3.56025e-07
4.54971e-05
0.00224778
6.82964e-05
0.00218926
9.04511e-05
0.00211115
0.000111668
0.00201157
0.000131685
0.0018909
0.000150263
0.00175
0.000167186
0.00159024
0.00018226
0.00141328
0.00019531
0.00122099
0.000206183
0.00101539
0.000214756
0.000798796
0.000220917
0.000573465
0.000224606
0.000342101
0.000107618
0.000225791
2.22109e-05
0.00227041
3.63535e-07
4.50722e-05
0.00222492
6.76639e-05
0.00216667
8.96169e-05
0.0020892
0.000110641
0.00199054
0.000130475
0.00187106
0.000148885
0.00173158
0.000165654
0.00157347
0.000180591
0.00139834
0.000193522
0.00120806
0.000204297
0.00100461
0.000212793
0.000790294
0.000218899
0.00056735
0.000222558
0.000338429
0.00010641
0.00022374
2.19982e-05
0.00224804
3.70841e-07
4.46512e-05
0.00220226
6.70372e-05
0.00214429
8.87904e-05
0.00206744
0.000109623
0.00196971
0.000129277
0.00185141
0.000147519
0.00171334
0.000164136
0.00155685
0.000178937
0.00138354
0.000191751
0.00119525
0.000202429
0.000993941
0.000210848
0.000781881
0.000216901
0.000561305
0.00022053
0.000334811
0.000105254
0.000221706
2.17876e-05
0.00222587
3.77927e-07
4.42342e-05
0.00217982
6.64163e-05
0.0021221
8.79715e-05
0.00204589
0.000108615
0.00194907
0.00012809
0.00183193
0.000146166
0.00169527
0.000162632
0.00154039
0.000177298
0.00136888
0.000189996
0.00118255
0.000200577
0.000983356
0.00020892
0.000773532
0.00021492
0.000555296
0.000218519
0.000331199
0.000104059
0.000219689
2.15789e-05
0.00220391
3.84784e-07
4.38211e-05
0.00215758
6.58012e-05
0.00210012
8.71601e-05
0.00202453
0.000107616
0.00192861
0.000126913
0.00181264
0.000144825
0.00167736
0.000161142
0.00152407
0.000175675
0.00135435
0.000188257
0.00116997
0.000198742
0.000972875
0.00020701
0.00076527
0.000212958
0.000549356
0.000216527
0.000327641
0.000102915
0.000217689
2.13723e-05
0.00218215
3.91412e-07
4.34118e-05
0.00213554
6.51917e-05
0.00207834
8.63561e-05
0.00200337
0.000106625
0.00190834
0.000125748
0.00179351
0.000143496
0.00165961
0.000159665
0.0015079
0.000174066
0.00133994
0.000186534
0.0011575
0.000196924
0.000962481
0.000205118
0.00075707
0.000211014
0.000543451
0.000214553
0.000324088
0.000101735
0.000215709
2.11677e-05
0.00216058
3.97818e-07
4.30064e-05
0.0021137
6.45879e-05
0.00205676
8.55595e-05
0.00198239
0.000105644
0.00188826
0.000124592
0.00177457
0.00014218
0.00164202
0.000158201
0.00149188
0.000172471
0.00132567
0.000184827
0.00114515
0.000195123
0.000952189
0.000203243
0.000748955
0.000209087
0.000537614
0.000212597
0.000320588
0.000100604
0.000213747
2.09651e-05
0.00213921
4.04012e-07
4.26048e-05
0.00209206
6.39896e-05
0.00203538
8.47702e-05
0.00196161
0.000104672
0.00186836
0.000123448
0.00175579
0.000140875
0.00162459
0.000156751
0.001476
0.000170892
0.00131153
0.000183135
0.0011329
0.000193338
0.00094198
0.000201386
0.000740902
0.000207178
0.000531813
0.000210659
0.000317094
9.94351e-05
0.000211804
2.07644e-05
0.00211804
4.10008e-07
4.2207e-05
0.00207062
6.33969e-05
0.00201419
8.39881e-05
0.00194102
0.000103709
0.00184864
0.000122314
0.00173719
0.000139583
0.00160733
0.000155314
0.00146028
0.000169326
0.00129752
0.000181459
0.00112077
0.00019157
0.000931873
0.000199545
0.000732932
0.000205287
0.000526077
0.000208739
0.000313651
9.8313e-05
0.000209878
2.05656e-05
0.00209706
4.15814e-07
4.18128e-05
0.00204937
6.28096e-05
0.00199319
8.32132e-05
0.00192062
0.000102754
0.0018291
0.00012119
0.00171875
0.000138302
0.00159021
0.00015389
0.00144468
0.000167775
0.00128363
0.000179798
0.00110874
0.000189818
0.000921848
0.000197721
0.000725023
0.000203413
0.000520377
0.000206836
0.000310215
9.71565e-05
0.000207969
2.03688e-05
0.00207627
4.21437e-07
4.14223e-05
0.00202832
6.22277e-05
0.00197239
8.24454e-05
0.0019004
0.000101808
0.00180973
0.000120076
0.00170048
0.000137032
0.00157326
0.00015248
0.00142924
0.000166239
0.00126988
0.000178152
0.00109683
0.000188082
0.000911922
0.000195914
0.000717195
0.000201556
0.000514741
0.00020495
0.000306829
9.60471e-05
0.000206075
2.01738e-05
0.00205567
4.26875e-07
4.10353e-05
0.00200745
6.16511e-05
0.00195177
8.16846e-05
0.00188037
0.000100871
0.00179055
0.000118973
0.00168238
0.000135775
0.00155645
0.000151082
0.00141393
0.000164716
0.00125624
0.000176522
0.00108502
0.000186362
0.000902077
0.000194124
0.000709426
0.000199716
0.00050914
0.000203081
0.000303452
9.49092e-05
0.000204196
1.99808e-05
0.00203525
4.32128e-07
4.0652e-05
0.00198678
6.10798e-05
0.00193134
8.09307e-05
0.00186052
9.99426e-05
0.00177154
0.000117879
0.00166444
0.000134529
0.0015398
0.000149697
0.00139876
0.000163207
0.00124273
0.000174906
0.00107333
0.000184658
0.000892329
0.000192351
0.000701737
0.000197894
0.000503602
0.000201229
0.000300124
9.38206e-05
0.000202332
1.97896e-05
0.00201503
4.37191e-07
4.02723e-05
0.0019663
6.05138e-05
0.0019111
8.01838e-05
0.00184085
9.90225e-05
0.00175269
0.000116796
0.00164667
0.000133294
0.0015233
0.000148324
0.00138373
0.000161713
0.00122934
0.000173306
0.00106173
0.000182969
0.00088266
0.000190593
0.000694107
0.000196088
0.0004981
0.000199394
0.000296805
9.2709e-05
0.000200484
1.96004e-05
0.00199498
4.42063e-07
3.98962e-05
0.001946
5.99531e-05
0.00189104
7.94438e-05
0.00182136
9.81109e-05
0.00173403
0.000115723
0.00162906
0.000132071
0.00150696
0.000146965
0.00136884
0.000160232
0.00121607
0.00017172
0.00105024
0.000181296
0.000873086
0.000188852
0.000686554
0.000194299
0.000492658
0.000197576
0.000293535
9.16462e-05
0.000198652
1.94129e-05
0.00197512
4.46746e-07
3.95236e-05
0.00192589
5.93976e-05
0.00187117
7.87106e-05
0.00180204
9.72078e-05
0.00171553
0.00011466
0.0016116
0.000130859
0.00149076
0.000145618
0.00135408
0.000158764
0.00120292
0.000170149
0.00103886
0.000179638
0.000863592
0.000187127
0.00067906
0.000192526
0.000487251
0.000195774
0.000290275
9.05622e-05
0.000196838
1.92274e-05
0.00195544
4.51249e-07
3.91546e-05
0.00190596
5.88473e-05
0.00185147
7.79843e-05
0.0017829
9.6313e-05
0.0016972
0.000113606
0.00159431
0.000129658
0.0014747
0.000144283
0.00133945
0.00015731
0.00118989
0.000168592
0.00102758
0.000177996
0.000854189
0.000185417
0.000671641
0.000190769
0.000481903
0.00019399
0.00028706
8.95228e-05
0.000195042
1.90436e-05
0.00193594
4.55583e-07
3.87891e-05
0.00188622
5.83021e-05
0.00183196
7.72647e-05
0.00176394
9.54264e-05
0.00167904
0.000112562
0.00157717
0.000128468
0.00145879
0.00014296
0.00132496
0.00015587
0.00117698
0.000167049
0.00101639
0.000176369
0.000844865
0.000183724
0.000664281
0.000189028
0.000476591
0.000192222
0.000283856
8.84598e-05
0.000193265
1.88617e-05
0.00191662
4.59763e-07
3.8427e-05
0.00186665
5.77621e-05
0.00181263
7.65518e-05
0.00174515
9.45481e-05
0.00166104
0.000111528
0.00156019
0.00012729
0.00144303
0.00014165
0.0013106
0.000154442
0.00116419
0.00016552
0.00100532
0.000174756
0.00083563
0.000182045
0.000656994
0.000187303
0.000471337
0.00019047
0.000280695
8.74354e-05
0.000191508
1.86815e-05
0.00189748
4.63807e-07
3.80684e-05
0.00184727
5.72271e-05
0.00179347
7.58455e-05
0.00172653
9.36779e-05
0.00164321
0.000110503
0.00154337
0.000126121
0.00142741
0.000140351
0.00129637
0.000153028
0.00115151
0.000164005
0.000994335
0.000173158
0.000826474
0.000180382
0.000649765
0.000185594
0.000466118
0.000188735
0.000277544
8.63838e-05
0.000189768
1.8503e-05
0.00187851
4.67728e-07
3.77131e-05
0.00182806
5.66971e-05
0.00177448
7.51458e-05
0.00170808
9.28157e-05
0.00162554
0.000109488
0.0015267
0.000124964
0.00141194
0.000139065
0.00128227
0.000151626
0.00113895
0.000162505
0.000983458
0.000171575
0.000817406
0.000178734
0.000642609
0.0001839
0.000460957
0.000187015
0.000274435
8.53667e-05
0.000188046
1.83262e-05
0.00185971
4.71537e-07
3.73611e-05
0.00180902
5.6172e-05
0.00175567
7.44525e-05
0.0016898
9.19614e-05
0.00160803
0.000108482
0.00151017
0.000123817
0.0013966
0.00013779
0.00126829
0.000150237
0.0011265
0.000161018
0.000972675
0.000170006
0.000808414
0.000177101
0.00063551
0.000182221
0.00045583
0.000185312
0.000271335
8.43205e-05
0.00018634
1.81511e-05
0.00184108
4.75237e-07
3.70124e-05
0.00179016
5.56517e-05
0.00173703
7.37655e-05
0.00167169
9.11149e-05
0.00159068
0.000107485
0.00149381
0.000122681
0.0013814
0.000136527
0.00125445
0.000148862
0.00111417
0.000159544
0.000961994
0.000168452
0.000799509
0.000175483
0.000628482
0.000180558
0.00045076
0.000183624
0.000268277
8.33076e-05
0.00018465
1.79777e-05
0.00182263
4.78826e-07
3.66669e-05
0.00177147
5.51361e-05
0.00171856
7.30848e-05
0.00165374
9.02762e-05
0.00157349
0.000106497
0.00147758
0.000121555
0.00136634
0.000135275
0.00124073
0.000147498
0.00110194
0.000158085
0.000951406
0.000166912
0.000790678
0.000173881
0.00062151
0.000178911
0.000445723
0.000181951
0.000265227
8.22666e-05
0.000182975
1.78059e-05
0.00180434
4.82298e-07
3.63246e-05
0.00175295
5.46254e-05
0.00170026
7.24104e-05
0.00163595
8.94452e-05
0.00155645
0.000105519
0.00146151
0.00012044
0.00135142
0.000134035
0.00122713
0.000146148
0.00108983
0.000156638
0.000940918
0.000165386
0.000781934
0.000172293
0.000614608
0.000177279
0.000440742
0.000180294
0.00026222
8.12606e-05
0.000181313
1.76357e-05
0.00178622
4.85639e-07
3.59854e-05
0.0017346
5.41193e-05
0.00168213
7.17422e-05
0.00161833
8.86218e-05
0.00153957
0.000104549
0.00144558
0.000119335
0.00133664
0.000132807
0.00121366
0.00014481
0.00107783
0.000155206
0.00093052
0.000163875
0.000773261
0.00017072
0.000607759
0.000175662
0.000435794
0.000178651
0.000259221
8.02298e-05
0.000179665
1.74672e-05
0.00176826
4.88841e-07
3.56495e-05
0.00171642
5.36178e-05
0.00166416
7.10801e-05
0.00160087
8.7806e-05
0.00152285
0.000103588
0.0014298
0.00011824
0.00132199
0.00013159
0.00120031
0.000143484
0.00106594
0.000153786
0.000920222
0.000162378
0.000764674
0.000169161
0.00060098
0.00017406
0.000430901
0.000177024
0.000256264
7.92361e-05
0.00017803
1.73004e-05
0.00175047
4.91892e-07
3.53166e-05
0.00169841
5.31211e-05
0.00164636
7.04241e-05
0.00158357
8.69977e-05
0.00150628
0.000102636
0.00141416
0.000117155
0.00130747
0.000130384
0.00118708
0.000142171
0.00105415
0.00015238
0.00091001
0.000160894
0.000756156
0.000167618
0.000594252
0.000172473
0.000426039
0.000175411
0.000253316
7.82211e-05
0.000176409
1.71351e-05
0.00173284
4.94791e-07
3.4987e-05
0.00168055
5.26289e-05
0.00162872
6.97743e-05
0.00156642
8.61969e-05
0.00148985
0.000101694
0.00139867
0.00011608
0.00129308
0.00012919
0.00117398
0.00014087
0.00104247
0.000150987
0.000899897
0.000159425
0.000747722
0.000166088
0.000587593
0.000170901
0.000421231
0.000173813
0.000250411
7.72445e-05
0.000174802
1.69715e-05
0.00171537
4.97537e-07
3.46604e-05
0.00166286
5.21414e-05
0.00161123
6.91305e-05
0.00154943
8.54036e-05
0.00147358
0.000100759
0.00138331
0.000115015
0.00127883
0.000128006
0.00116098
0.00013958
0.00103089
0.000149607
0.000889868
0.000157969
0.000739355
0.000164573
0.000580984
0.000169344
0.000416454
0.00017223
0.000247514
7.62496e-05
0.000173209
1.68095e-05
0.00169806
5.00141e-07
3.4337e-05
0.00164534
5.16585e-05
0.00159391
6.84927e-05
0.0015326
8.46177e-05
0.00145746
9.98339e-05
0.0013681
0.000113961
0.0012647
0.000126833
0.00114811
0.000138303
0.00101943
0.000148239
0.000879936
0.000156526
0.000731072
0.000163072
0.000574443
0.0001678
0.00041173
0.000170662
0.000244658
7.52922e-05
0.00017163
1.66491e-05
0.00168091
5.02612e-07
3.40166e-05
0.00162797
5.11801e-05
0.00157675
6.78609e-05
0.00151592
8.38392e-05
0.00144148
9.8917e-05
0.00135302
0.000112916
0.0012507
0.000125672
0.00113536
0.000137038
0.00100806
0.000146884
0.000870087
0.000155097
0.000722854
0.000161584
0.000567951
0.000166272
0.000407035
0.000169108
0.000241812
7.43179e-05
0.000170066
1.64902e-05
0.00166392
5.04969e-07
3.36993e-05
0.00161076
5.07063e-05
0.00155974
6.72351e-05
0.00149939
8.30679e-05
0.00142565
9.80087e-05
0.00133808
0.00011188
0.00123683
0.000124521
0.00112272
0.000135784
0.000996798
0.000145542
0.000860332
0.000153681
0.000714718
0.000160111
0.000561525
0.000164757
0.000402393
0.000167568
0.000239006
7.33791e-05
0.000168516
1.6333e-05
0.00164707
5.07223e-07
3.3385e-05
0.00159371
5.02369e-05
0.00154289
6.66151e-05
0.00148301
8.23038e-05
0.00140996
9.71088e-05
0.00132328
0.000110854
0.00122309
0.000123381
0.00111019
0.000134542
0.000985633
0.000144212
0.000850659
0.000152278
0.000706647
0.000158651
0.000555147
0.000163256
0.000397781
0.000166043
0.000236209
7.2424e-05
0.000166982
1.61772e-05
0.00163039
5.09387e-07
3.30737e-05
0.00157681
4.97719e-05
0.00152619
6.60009e-05
0.00146679
8.15468e-05
0.00139441
9.62173e-05
0.00130861
0.000109838
0.00120947
0.000122251
0.00109778
0.000133312
0.000974574
0.000142894
0.000841079
0.000150888
0.000698655
0.000157204
0.000548835
0.000161769
0.00039322
0.000164532
0.00023345
7.15014e-05
0.000165462
1.6023e-05
0.00161385
5.11464e-07
3.27654e-05
0.00156007
4.93113e-05
0.00150965
6.53924e-05
0.0014507
8.07969e-05
0.00137901
9.5334e-05
0.00129407
0.000108831
0.00119597
0.000121132
0.00108547
0.000132093
0.00096361
0.000141589
0.000831579
0.000149511
0.000690729
0.00015577
0.00054257
0.000160295
0.000388688
0.000163034
0.000230701
7.05627e-05
0.000163958
1.58703e-05
0.00159747
5.13458e-07
3.24599e-05
0.00154348
4.8855e-05
0.00149325
6.47897e-05
0.00143477
8.00539e-05
0.00136374
9.4459e-05
0.00127966
0.000107834
0.00118259
0.000120023
0.00107329
0.000130885
0.000952749
0.000140296
0.00082217
0.000148147
0.000682879
0.00015435
0.000536369
0.000158835
0.000384206
0.000161551
0.00022799
6.9654e-05
0.000162467
1.5719e-05
0.00158124
5.15361e-07
3.21574e-05
0.00152704
4.8403e-05
0.001477
6.41925e-05
0.00141898
7.93178e-05
0.00134862
9.3592e-05
0.00126539
0.000106846
0.00116934
0.000118924
0.00106121
0.000129688
0.000941982
0.000139014
0.000812841
0.000146795
0.000675094
0.000152943
0.000530216
0.000157389
0.000379754
0.000160081
0.000225288
6.87296e-05
0.000160991
1.55692e-05
0.00156515
5.1717e-07
3.18576e-05
0.00151075
4.79551e-05
0.00146091
6.36008e-05
0.00140333
7.85885e-05
0.00133363
9.2733e-05
0.00125124
0.000105866
0.0011562
0.000117836
0.00104924
0.000128503
0.000931316
0.000137745
0.0008036
0.000145456
0.000667384
0.000151549
0.000524125
0.000155956
0.00037535
0.000158626
0.000222622
6.7833e-05
0.000159529
1.54208e-05
0.00154921
5.18876e-07
3.15607e-05
0.00149461
4.75114e-05
0.00144496
6.30146e-05
0.00138783
7.7866e-05
0.00131878
9.1882e-05
0.00123723
0.000104896
0.00114319
0.000116757
0.00103737
0.000127328
0.000920743
0.000136487
0.000794439
0.000144129
0.000659738
0.000150168
0.000518081
0.000154536
0.000370976
0.000157183
0.000219966
6.69212e-05
0.000158081
1.52738e-05
0.00153342
5.20476e-07
3.12665e-05
0.00147862
4.70718e-05
0.00142915
6.24338e-05
0.00137247
7.71501e-05
0.00130406
9.10389e-05
0.00122334
0.000103935
0.00113029
0.000115689
0.00102562
0.000126164
0.000910269
0.000135241
0.000785363
0.000142814
0.000652165
0.0001488
0.000512097
0.000153129
0.000366649
0.000155754
0.000217345
6.6036e-05
0.000156646
1.51283e-05
0.00151776
5.21973e-07
3.09751e-05
0.00146277
4.66363e-05
0.00141349
6.18584e-05
0.00135724
7.64409e-05
0.00128948
9.02035e-05
0.00120957
0.000102983
0.00111751
0.00011463
0.00101397
0.000125011
0.000899886
0.000134006
0.000776366
0.000141512
0.000644656
0.000147444
0.00050616
0.000151736
0.000362351
0.000154338
0.000214734
6.51367e-05
0.000155225
1.49841e-05
0.00150226
5.23375e-07
3.06863e-05
0.00144707
4.62048e-05
0.00139797
6.12883e-05
0.00134216
7.57382e-05
0.00127503
8.93759e-05
0.00119594
0.00010204
0.00110485
0.000113582
0.00100243
0.000123869
0.0008896
0.000132783
0.000767453
0.000140222
0.000637218
0.000146102
0.000500283
0.000150355
0.0003581
0.000152936
0.000212157
6.4263e-05
0.000153816
1.48413e-05
0.00148689
5.24696e-07
3.04003e-05
0.00143151
4.57773e-05
0.00138259
6.07234e-05
0.00132721
7.5042e-05
0.00126071
8.85559e-05
0.00118242
0.000101105
0.0010923
0.000112543
0.00099099
0.000122737
0.000879403
0.000131571
0.000758616
0.000138943
0.000629842
0.000144771
0.000494451
0.000148988
0.000353878
0.000151546
0.00020959
6.3376e-05
0.00015242
1.46999e-05
0.00147167
5.25955e-07
3.01169e-05
0.0014161
4.53538e-05
0.00136736
6.01638e-05
0.0013124
7.43522e-05
0.00124652
8.77435e-05
0.00116903
0.000100179
0.00107986
0.000111513
0.000979656
0.000121616
0.000869302
0.000130371
0.000749863
0.000137677
0.000622537
0.000143453
0.000488677
0.000147633
0.000349701
0.000150169
0.000207057
6.25143e-05
0.000151037
1.45598e-05
0.00145658
5.27171e-07
2.98362e-05
0.00140082
4.49342e-05
0.00135226
5.96094e-05
0.00129773
7.36688e-05
0.00123246
8.69387e-05
0.00115576
9.92614e-05
0.00106754
0.000110494
0.000968422
0.000120505
0.000859288
0.000129181
0.000741184
0.000136423
0.000615293
0.000142147
0.000482948
0.00014629
0.000345553
0.000148805
0.000204533
6.16403e-05
0.000149667
1.4421e-05
0.00144163
5.28362e-07
2.95581e-05
0.00138568
4.45185e-05
0.0013373
5.90602e-05
0.00128319
7.29918e-05
0.00121853
8.61413e-05
0.00114261
9.83525e-05
0.00105533
0.000109483
0.000957293
0.000119405
0.000849368
0.000128003
0.000732588
0.00013518
0.000608118
0.000140854
0.000477277
0.00014496
0.000341449
0.000147454
0.000202043
6.07908e-05
0.000148309
1.42836e-05
0.00142682
5.29541e-07
2.92826e-05
0.00137068
4.41067e-05
0.00132247
5.8516e-05
0.00126878
7.23211e-05
0.00120472
8.53513e-05
0.00112958
9.74521e-05
0.00104322
0.000108482
0.000946261
0.000118315
0.000839534
0.000126836
0.000724064
0.000133948
0.000601002
0.000139572
0.000471649
0.000143643
0.000337372
0.000146115
0.000199563
5.99301e-05
0.000146964
1.41474e-05
0.00141214
5.30713e-07
2.90097e-05
0.00135582
4.36987e-05
0.00130778
5.79769e-05
0.0012545
7.16566e-05
0.00119104
8.45687e-05
0.00111667
9.656e-05
0.00103123
0.000107491
0.000935331
0.000117234
0.000829791
0.000125679
0.000715621
0.000132728
0.000593954
0.000138302
0.000466078
0.000142337
0.00033334
0.000144789
0.000197114
5.9093e-05
0.000145631
1.40126e-05
0.00139759
5.31874e-07
2.87394e-05
0.00134109
4.32945e-05
0.00129323
5.74428e-05
0.00124035
7.09982e-05
0.00117749
8.37934e-05
0.00110387
9.56763e-05
0.00101935
0.000106509
0.000924498
0.000116165
0.000820133
0.000124534
0.00070725
0.00013152
0.000586965
0.000137044
0.000460549
0.000141044
0.000329335
0.000143475
0.000194676
5.82456e-05
0.000144311
1.3879e-05
0.00138318
5.33013e-07
2.84716e-05
0.0013265
4.28941e-05
0.00127881
5.69137e-05
0.00122633
7.03461e-05
0.00116405
8.30252e-05
0.0010912
9.48007e-05
0.00100757
0.000105535
0.000913764
0.000115105
0.000810565
0.000123399
0.000698957
0.000130323