/*--------------------------------*- C++ -*----------------------------------*\
  =========                 |
  \\      /  F ield         | OpenFOAM: The Open Source CFD Toolbox
   \\    /   O peration     | Website:  https://openfoam.org
    \\  /    A nd           | Version:  6.0
     \\/     M anipulation  |
\*---------------------------------------------------------------------------*/
FoamFile
{
    version     2.0;
    format      ascii;
    class       volVectorField;
    location    "13";
    object      U;
}
// * * * * * * * * * * * * * * * * * * * * * * * * * * * * * * * * * * * * * //

dimensions      [0 1 -1 0 0 0 0];

internalField   nonuniform List<vector> 
8000
(
(-0.000399416 0.000444253 -1.4173e-21)
(-0.0021016 0.00106979 8.25891e-21)
(-0.00515165 0.00147771 -1.02996e-20)
(-0.00878215 0.00171968 8.00675e-21)
(-0.0125958 0.00183319 3.97374e-21)
(-0.016366 0.00184734 -1.2125e-20)
(-0.0199301 0.00178589 -1.08306e-21)
(-0.0231802 0.00166822 -3.797e-22)
(-0.0260525 0.00151028 -6.50323e-21)
(-0.0285155 0.00132537 -3.542e-21)
(-0.030561 0.00112472 2.69297e-21)
(-0.0321987 0.000917923 1.02078e-20)
(-0.0334515 0.000713197 -8.08211e-22)
(-0.0343516 0.00051759 1.07697e-21)
(-0.0349385 0.000337098 -1.0422e-20)
(-0.0352567 0.000176722 6.44318e-21)
(-0.0353538 4.04933e-05 -9.21422e-21)
(-0.0352711 -6.83427e-05 1.40154e-20)
(-0.0350399 -0.000147016 -1.60537e-23)
(-0.0347665 -0.000194741 3.49748e-21)
(-0.000467046 0.00132652 4.70318e-21)
(-0.00225408 0.00319234 -2.62541e-20)
(-0.00533906 0.00440741 -1.86164e-20)
(-0.00896626 0.00512641 -1.29125e-20)
(-0.0127462 0.00546151 -1.69137e-20)
(-0.0164581 0.00549979 3.76872e-21)
(-0.019944 0.00531217 -2.00717e-20)
(-0.0230999 0.00495654 -4.53003e-21)
(-0.0258649 0.00448051 1.51184e-21)
(-0.0282096 0.00392377 1.54775e-20)
(-0.0301276 0.00331991 -1.69736e-20)
(-0.0316299 0.00269756 2.3772e-20)
(-0.0327404 0.00208135 -1.78871e-20)
(-0.0334926 0.00149245 -2.12647e-20)
(-0.0339266 0.000948881 -2.92973e-20)
(-0.0340881 0.000465748 1.89745e-20)
(-0.0340257 5.52418e-05 -6.02095e-21)
(-0.0337813 -0.000272755 -2.21498e-20)
(-0.0333866 -0.000509756 2.10693e-20)
(-0.0329514 -0.000653479 -1.81498e-20)
(-0.000600906 0.00219195 4.59911e-20)
(-0.00255487 0.00526933 2.61942e-20)
(-0.00570704 0.00726917 3.01157e-20)
(-0.00932517 0.00844812 2.57305e-21)
(-0.0130355 0.0089922 1.7296e-20)
(-0.016629 0.00904558 2.18069e-20)
(-0.0199573 0.0087255 -4.04284e-20)
(-0.0229239 0.0081275 -2.15496e-20)
(-0.0254736 0.00733009 -2.83479e-20)
(-0.0275815 0.00639879 3.05306e-20)
(-0.0292444 0.00538904 -2.35031e-20)
(-0.0304762 0.00434828 -3.03918e-20)
(-0.0313028 0.00331739 -1.11653e-20)
(-0.0317595 0.00233167 1.06489e-20)
(-0.0318885 0.00142139 -2.82016e-21)
(-0.0317373 0.000611991 4.38239e-21)
(-0.0313566 -7.58444e-05 4.94575e-20)
(-0.0307897 -0.000625157 -7.19565e-21)
(-0.0300687 -0.00102118 -5.04512e-20)
(-0.0293112 -0.00126037 7.71153e-20)
(-0.00079819 0.00302936 1.61857e-20)
(-0.00299558 0.00727058 -2.47115e-20)
(-0.0062418 0.0100182 -6.43806e-21)
(-0.00984018 0.0116291 1.22757e-20)
(-0.0134408 0.0123617 3.52893e-20)
(-0.0168522 0.0124158 7.83587e-20)
(-0.0199406 0.0119535 7.75704e-20)
(-0.0226207 0.0111066 6.51409e-21)
(-0.024846 0.00998313 4.85339e-20)
(-0.0265979 0.00867346 7.49072e-20)
(-0.0278784 0.00725409 -6.00187e-20)
(-0.0287049 0.00579071 8.98892e-20)
(-0.0291068 0.00434025 -2.0184e-20)
(-0.0291219 0.00295219 5.3248e-21)
(-0.028795 0.00166927 2.1286e-20)
(-0.0281765 0.000527747 2.82516e-20)
(-0.0273203 -0.000442617 -4.51612e-20)
(-0.0262716 -0.00121701 -3.75919e-20)
(-0.0250634 -0.00177342 -6.63631e-20)
(-0.0238258 -0.00210745 1.1226e-19)
(-0.00105462 0.00382761 -8.37136e-21)
(-0.00356342 0.00916613 -9.46403e-20)
(-0.00692225 0.0126103 -2.87381e-20)
(-0.0104826 0.0146149 -7.13328e-20)
(-0.0139267 0.0155087 2.75534e-20)
(-0.017087 0.0155449 -4.38617e-20)
(-0.019849 0.0149283 1.54402e-20)
(-0.0221423 0.0138249 -9.51068e-20)
(-0.023932 0.0123705 5.0824e-20)
(-0.0252078 0.0106788 -6.09415e-20)
(-0.0259784 0.00884606 -5.44806e-20)
(-0.0262659 0.00695549 -6.13231e-20)
(-0.0261035 0.00507965 5.58674e-20)
(-0.0255325 0.00328217 -5.03496e-20)
(-0.0246011 0.00161867 7.04567e-20)
(-0.0233631 0.000136869 2.02559e-20)
(-0.0218764 -0.00112352 5.02153e-20)
(-0.0201893 -0.00212866 2.18694e-20)
(-0.0183357 -0.00284782 -8.77111e-20)
(-0.0164637 -0.00327639 1.65372e-19)
(-0.00136434 0.00457558 3.75984e-20)
(-0.00424084 0.0109263 2.86726e-21)
(-0.0077195 0.0150022 1.73559e-20)
(-0.0112132 0.0173531 6.15776e-20)
(-0.014445 0.0183748 -9.31905e-21)
(-0.0172775 0.0183716 1.03311e-19)
(-0.0196205 0.0175879 4.65503e-20)
(-0.0214224 0.0162212 4.04694e-21)
(-0.0226624 0.0144327 1.21601e-19)
(-0.0233409 0.012357 3.99685e-20)
(-0.0234739 0.0101089 1.91581e-20)
(-0.0230896 0.00778759 6.11303e-20)
(-0.0222253 0.00548077 5.61916e-20)
(-0.0209264 0.00326612 1.02649e-19)
(-0.0192446 0.00121256 -9.24558e-20)
(-0.0172381 -0.00061986 1.30074e-19)
(-0.0149694 -0.00218026 1.03885e-21)
(-0.0124904 -0.00342407 -1.67e-19)
(-0.00983699 -0.00430981 2.166e-19)
(-0.00718163 -0.00483355 1.03515e-19)
(-0.00171977 0.00526205 -2.20292e-20)
(-0.00500514 0.0125214 -4.44286e-20)
(-0.00859619 0.0171517 -9.43355e-20)
(-0.0119813 0.0197931 -2.8965e-21)
(-0.0149333 0.0209054 1.6884e-20)
(-0.0173516 0.0208401 -1.26397e-19)
(-0.0191751 0.0198779 -9.48406e-20)
(-0.0203752 0.018244 -1.37943e-20)
(-0.0209477 0.0161221 -1.22184e-19)
(-0.0209053 0.013665 -8.50533e-20)
(-0.0202729 0.0110032 -2.49708e-20)
(-0.019085 0.00825086 -8.0853e-20)
(-0.0173838 0.00550945 -1.54917e-21)
(-0.0152183 0.0028705 -1.08149e-19)
(-0.0126442 0.000416672 4.51961e-20)
(-0.00972426 -0.00177859 -5.21117e-20)
(-0.00652659 -0.0036516 3.94467e-20)
(-0.00310674 -0.00514476 -5.13858e-20)
(0.000496042 -0.00620306 -1.45168e-19)
(0.00407724 -0.0068243 -5.11186e-20)
(-0.00211139 0.00587558 -8.63438e-21)
(-0.00582796 0.0139219 -1.02179e-20)
(-0.00950571 0.0190173 7.94345e-20)
(-0.0127236 0.021887 -1.3224e-19)
(-0.0153138 0.0230501 1.96559e-20)
(-0.0172191 0.0229011 -7.89475e-20)
(-0.018413 0.0217526 3.74134e-20)
(-0.0188931 0.0198536 1.70231e-19)
(-0.0186749 0.0174058 -1.14318e-20)
(-0.0177854 0.0145769 -1.28975e-19)
(-0.0162591 0.0115105 2.35102e-20)
(-0.0141372 0.00833278 4.81871e-21)
(-0.0114667 0.00515772 -2.63586e-20)
(-0.00830018 0.00209 3.34387e-21)
(-0.0046969 -0.000773684 2.36142e-19)
(-0.000724235 -0.00334524 -3.41393e-20)
(0.0035439 -0.00554616 -6.5767e-20)
(0.00804761 -0.00730263 -1.17362e-19)
(0.0127433 -0.00854243 1.20626e-19)
(0.0173849 -0.0092663 6.01881e-20)
(-0.00252747 0.0064044 4.19224e-20)
(-0.00667459 0.0150983 -6.03622e-20)
(-0.0103914 0.0205588 8.72528e-20)
(-0.0133635 0.0235894 8.99089e-20)
(-0.0154926 0.0247631 8.40231e-20)
(-0.0167711 0.0245125 1.72056e-19)
(-0.0172126 0.0231765 1.12269e-19)
(-0.0168451 0.021023 -2.43726e-19)
(-0.0157064 0.0182674 1.25643e-19)
(-0.0138391 0.0150878 9.89984e-20)
(-0.0112889 0.0116367 -1.77478e-21)
(-0.00810376 0.00804932 1.11707e-19)
(-0.00433494 0.00444974 8.6705e-20)
(-3.80659e-05 0.000954461 -4.80328e-20)
(0.00472497 -0.00232583 1.60551e-19)
(0.00988272 -0.00528717 -2.00311e-19)
(0.0153554 -0.00783368 7.99309e-20)
(0.0210788 -0.00987129 1.02593e-19)
(0.0270035 -0.0113055 -2.38034e-20)
(0.0328304 -0.0121413 2.39595e-19)
(-0.0029537 0.00683633 8.61003e-20)
(-0.00750338 0.0160208 5.20635e-21)
(-0.0111858 0.0217369 -3.41768e-20)
(-0.0138103 0.0248579 -3.65543e-20)
(-0.015358 0.0260037 -1.73132e-19)
(-0.0158784 0.0256391 2.5544e-20)
(-0.0154298 0.024124 7.0925e-20)
(-0.0140748 0.0217394 -3.49784e-20)
(-0.0118764 0.0187086 2.89512e-20)
(-0.0088951 0.0152151 -7.76441e-21)
(-0.00518825 0.0114154 -3.7936e-20)
(-0.000811035 0.00744946 3.64731e-20)
(0.00418159 0.00344778 -1.56078e-19)
(0.0097323 -0.000463611 1.513e-19)
(0.0157779 -0.00416087 -1.30223e-19)
(0.0222442 -0.00752322 4.0723e-20)
(0.0290464 -0.0104346 9.14642e-20)
(0.0361161 -0.0127754 -1.955e-20)
(0.0433969 -0.0144221 -6.34861e-20)
(0.050523 -0.0153848 -5.01256e-20)
(-0.0033729 0.00715868 -1.08921e-19)
(-0.00826508 0.0166597 -7.83505e-21)
(-0.0118098 0.0225138 2.55405e-20)
(-0.0139584 0.0256528 6.63985e-20)
(-0.0147811 0.0267359 -9.51718e-20)
(-0.0143909 0.0262534 -8.38311e-20)
(-0.0128966 0.0245799 1.96914e-19)
(-0.0103992 0.0220033 -1.10788e-19)
(-0.00699001 0.018749 -7.16504e-20)
(-0.00274964 0.0149996 -1.02875e-19)
(0.00225136 0.0109099 6.84328e-20)
(0.00795034 0.00661874 -2.47067e-21)
(0.0142893 0.00225783 -1.29072e-19)
(0.0212107 -0.00204128 -2.09532e-19)
(0.0286525 -0.00614382 1.60678e-19)
(0.0365399 -0.00991218 -1.29051e-19)
(0.0447846 -0.0132073 1.83744e-19)
(0.0533158 -0.0158776 -5.20749e-20)
(0.0620688 -0.0177614 1.06357e-19)
(0.0705955 -0.0188735 -4.26313e-19)
(-0.00376465 0.00735847 -2.25547e-19)
(-0.00890242 0.0169856 1.6075e-19)
(-0.0121731 0.0228533 2.18817e-20)
(-0.0136874 0.0259379 4.48691e-21)
(-0.0136149 0.0269286 -1.02862e-19)
(-0.0121382 0.0263345 1.53341e-19)
(-0.00942137 0.0245379 1.62041e-20)
(-0.00560797 0.0218275 -3.17028e-20)
(-0.000821178 0.0184247 -1.03002e-19)
(0.00483552 0.0145046 1.11942e-19)
(0.0112764 0.0102132 2.83532e-19)
(0.0184304 0.00568094 -6.3319e-20)
(0.0262368 0.0010337 1.42331e-19)
(0.0346395 -0.003598 -1.67433e-19)
(0.0435805 -0.00807316 -1.5994e-19)
(0.052988 -0.0122393 9.70812e-20)
(0.0627737 -0.0159325 1.5802e-19)
(0.0728671 -0.0189617 -5.14246e-19)
(0.0831956 -0.0211144 6.1731e-20)
(0.0932102 -0.0224084 9.59407e-20)
(-0.00410513 0.00742267 1.6842e-19)
(-0.0093501 0.0169704 6.29475e-20)
(-0.0121738 0.0227219 3.2002e-19)
(-0.0128637 0.0256808 1.67626e-20)
(-0.0116969 0.0265557 -3.59738e-20)
(-0.00893121 0.025867 -1.7403e-19)
(-0.00479051 0.0239986 1.50499e-19)
(0.000535015 0.021234 2.71544e-19)
(0.0068866 0.0177844 1.80228e-19)
(0.0141344 0.0138111 1.31345e-19)
(0.0221745 0.00944386 1.13296e-19)
(0.0309253 0.00479596 -2.03663e-19)
(0.0403224 -2.20957e-05 -6.28544e-20)
(0.0503128 -0.00489054 -4.67621e-20)
(0.0608453 -0.00967085 5.01279e-19)
(0.0718564 -0.0142014 -3.3052e-21)
(0.0832634 -0.0182942 -1.24013e-19)
(0.0950016 -0.0217113 -3.67633e-20)
(0.106994 -0.0241727 3.56375e-19)
(0.118569 -0.0256928 5.50565e-20)
(-0.00436706 0.00733887 -6.63576e-21)
(-0.00953526 0.0165884 -1.74315e-19)
(-0.0117005 0.0220901 -2.63736e-19)
(-0.011342 0.0248535 -7.44892e-20)
(-0.00885149 0.0255952 4.25249e-20)
(-0.00456587 0.0248397 9.5671e-21)
(0.00122746 0.0229664 2.41822e-19)
(0.00828803 0.0202485 -3.02584e-19)
(0.0164176 0.0168822 -1.16011e-19)
(0.0254556 0.0130096 -2.33195e-19)
(0.0352756 0.00873702 -1.98293e-19)
(0.0457815 0.0041514 -1.75695e-19)
(0.0569027 -0.000663824 4.43646e-20)
(0.0685883 -0.0056133 -5.72568e-20)
(0.080797 -0.0105753 2.42971e-19)
(0.093479 -0.0153916 -1.35024e-19)
(0.106566 -0.019857 -4.15544e-19)
(0.120009 -0.0236819 -8.0865e-20)
(0.133737 -0.0264975 2.04039e-19)
(0.146929 -0.0283006 -2.06907e-19)
(-0.00452006 0.00709608 -2.62343e-20)
(-0.00937872 0.0158182 2.19321e-19)
(-0.0106344 0.0209338 -2.82659e-19)
(-0.00896962 0.0234339 6.58437e-20)
(-0.00489504 0.0240303 -1.36345e-19)
(0.0011709 0.0232441 3.09235e-19)
(0.00887518 0.0214455 -2.21699e-19)
(0.0179243 0.0188937 2.53989e-19)
(0.0280768 0.0157674 -2.43498e-19)
(0.0391369 0.012186 1.02767e-19)
(0.0509499 0.00822733 -5.11093e-20)
(0.0633988 0.00394424 -1.26902e-19)
(0.0764007 -0.000619237 -1.55645e-19)
(0.0899029 -0.00540928 1.55025e-19)
(0.103873 -0.0103422 -1.29415e-19)
(0.118281 -0.0152863 -2.79847e-19)
(0.133083 -0.0200383 2.91612e-19)
(0.148266 -0.0242606 -3.69217e-19)
(0.16378 -0.0274709 1.65431e-19)
(0.178636 -0.029624 4.2055e-21)
(-0.00453134 0.0066859 -2.59018e-19)
(-0.00879713 0.0146449 -3.00944e-19)
(-0.00885292 0.0192373 3.45438e-20)
(-0.00559124 0.0214079 -2.95944e-19)
(0.000357068 0.0218497 -2.65575e-20)
(0.00849238 0.0210734 -2.20381e-19)
(0.0183958 0.0194359 -5.10945e-20)
(0.0297198 0.0171814 -1.49643e-19)
(0.0421774 0.0144707 5.09011e-22)
(0.0555333 0.0114012 -6.6403e-20)
(0.0695983 0.00802197 3.23869e-21)
(0.0842258 0.00434802 -1.89798e-19)
(0.099311 0.000374857 2.06489e-19)
(0.114789 -0.00390243 -2.95377e-19)
(0.130631 -0.00846529 1.02774e-19)
(0.146824 -0.0132447 2.55563e-21)
(0.16336 -0.0180796 -1.63083e-19)
(0.180287 -0.0226107 3.99744e-19)
(0.197626 -0.0262245 -9.56249e-20)
(0.214188 -0.028798 -7.21032e-20)
(-0.0043668 0.00610385 2.94777e-19)
(-0.00770589 0.0130625 1.7105e-19)
(-0.00623467 0.0169961 1.59719e-19)
(-0.00105596 0.018772 2.3589e-20)
(0.00708168 0.0190498 2.22061e-19)
(0.0176006 0.0183227 3.20496e-19)
(0.0300186 0.0169312 2.64398e-19)
(0.0439358 0.0151046 2.18333e-20)
(0.0590199 0.0129896 1.9329e-19)
(0.0749945 0.0106669 3.00226e-19)
(0.0916306 0.00816335 -7.84294e-20)
(0.108744 0.00546102 1.31482e-19)
(0.126195 0.0025074 1.07295e-19)
(0.14389 -0.00077061 1.08211e-19)
(0.161786 -0.00444487 6.26637e-19)
(0.179878 -0.00855641 -2.35486e-19)
(0.198189 -0.0130582 -1.40977e-20)
(0.216864 -0.0176485 2.63632e-19)
(0.236075 -0.0216056 -1.48496e-19)
(0.254432 -0.0246754 8.72855e-20)
(-0.00399257 0.00535066 -2.43136e-19)
(-0.0060229 0.0110773 1.89637e-20)
(-0.00266479 0.0142203 -2.10569e-19)
(0.00477533 0.0155373 -2.59943e-20)
(0.0154376 0.0156386 1.57181e-19)
(0.0286727 0.0149923 -4.67566e-19)
(0.0439409 0.0139191 3.03367e-21)
(0.060795 0.0126351 2.18904e-19)
(0.0788622 0.0112781 2.06351e-19)
(0.0978273 0.00992241 -9.13838e-20)
(0.117423 0.00858674 2.94396e-20)
(0.137422 0.00723824 7.0152e-20)
(0.157639 0.00579441 -3.36028e-20)
(0.177936 0.00412649 -3.66437e-19)
(0.198226 0.00206819 9.38193e-20)
(0.218477 -0.000571071 2.49584e-19)
(0.238718 -0.00396036 -3.53663e-19)
(0.259192 -0.00801602 1.72923e-19)
(0.280371 -0.0120026 4.41844e-20)
(0.300758 -0.0154682 2.65167e-19)
(-0.00337678 0.00443347 -3.77111e-20)
(-0.00367254 0.00870969 -1.84865e-19)
(0.00195922 0.0109384 8.38689e-20)
(0.0120222 0.0117343 -2.32443e-21)
(0.0255556 0.0116416 -3.79422e-19)
(0.0418471 0.0110944 5.99892e-20)
(0.0603085 0.0103891 -1.03696e-20)
(0.0804543 0.0097281 7.70487e-20)
(0.101881 0.00924598 -3.54524e-19)
(0.124244 0.00902197 -2.26812e-20)
(0.147249 0.00908643 -8.13283e-20)
(0.170633 0.00942171 7.6197e-20)
(0.194168 0.00995787 2.49476e-19)
(0.217658 0.0105651 -3.91061e-20)
(0.240942 0.011042 1.39188e-20)
(0.263898 0.0110888 9.82414e-20)
(0.286453 0.010298 -2.35261e-20)
(0.308849 0.00843579 1.81315e-19)
(0.331988 0.0061665 -1.16069e-19)
(0.354647 0.00379455 -1.95162e-19)
(-0.00249135 0.00336663 3.40943e-20)
(-0.000589556 0.00599666 7.72286e-21)
(0.00772227 0.00720064 7.63052e-20)
(0.020778 0.00741825 1.8693e-19)
(0.0375291 0.00710981 1.04586e-19)
(0.057211 0.00666415 1.05003e-20)
(0.0791975 0.00634614 -1.26659e-19)
(0.102977 0.00634044 3.33463e-20)
(0.128129 0.00677801 1.70669e-19)
(0.154301 0.00774875 -2.91527e-19)
(0.181193 0.00930926 2.20731e-19)
(0.208542 0.0114862 -1.66056e-19)
(0.236115 0.0142756 1.40756e-19)
(0.263705 0.0176371 -3.02638e-19)
(0.291121 0.0214788 3.29566e-19)
(0.318168 0.0256082 -3.53773e-19)
(0.344635 0.0296944 -8.90506e-20)
(0.370588 0.0335748 2.70217e-19)
(0.39702 0.0378671 -9.81062e-20)
(0.423034 0.0408775 4.16862e-20)
(-0.00131348 0.00217187 -2.69188e-20)
(0.00327785 0.00299239 2.66501e-19)
(0.014688 0.00308133 -3.32648e-21)
(0.0311059 0.00267366 -1.67479e-19)
(0.0514095 0.0021278 -1.1237e-19)
(0.0747931 0.00177402 2.08376e-19)
(0.100603 0.00183397 -8.34113e-20)
(0.128312 0.00246412 -1.08636e-20)
(0.157499 0.00378174 1.71607e-19)
(0.187823 0.00587736 -2.17001e-19)
(0.219012 0.00882433 2.30537e-20)
(0.250855 0.0126866 -2.82149e-19)
(0.283205 0.0175256 1.48316e-19)
(0.315998 0.0234065 -4.26499e-19)
(0.349276 0.0303972 6.7962e-19)
(0.383261 0.0385507 -1.23384e-19)
(0.418526 0.0479249 1.29431e-19)
(0.456477 0.0586924 -3.42123e-19)
(0.499982 0.0702851 4.84882e-21)
(0.553572 0.0769341 4.8117e-19)
(0.000173334 0.000877709 -8.34621e-20)
(0.00796622 -0.000232272 7.60029e-20)
(0.022897 -0.00132046 -2.77337e-19)
(0.0430372 -0.00238218 4.12908e-19)
(0.0672059 -0.00317843 -2.99728e-19)
(0.0945652 -0.0034521 1.49248e-20)
(0.124441 -0.00303915 -3.23931e-19)
(0.156297 -0.00182703 2.32973e-19)
(0.189716 0.000268851 -3.47915e-20)
(0.224375 0.00331428 -2.0729e-19)
(0.260035 0.00736273 -1.19949e-19)
(0.296542 0.0124593 1.26937e-19)
(0.333836 0.0186407 8.45113e-20)
(0.371972 0.0259286 -3.79339e-19)
(0.411165 0.034305 1.38505e-19)
(0.451852 0.0436655 -2.03429e-19)
(0.494843 0.0537865 2.22487e-20)
(0.541523 0.0642038 -1.78804e-19)
(0.593525 0.0730844 8.23291e-20)
(0.65153 0.0750636 -3.30753e-19)
(0.00197915 -0.000481712 2.35064e-19)
(0.0134966 -0.00359175 -1.49699e-19)
(0.0323675 -0.0058824 1.24073e-19)
(0.0565744 -0.00759949 -1.56844e-19)
(0.0848908 -0.00863904 2.67449e-19)
(0.116454 -0.0088311 -5.78612e-21)
(0.150571 -0.00808344 -3.26572e-20)
(0.186698 -0.00634294 -2.42954e-20)
(0.224416 -0.00357606 1.50017e-19)
(0.263409 0.000235393 2.54589e-19)
(0.303454 0.00509575 -1.53246e-19)
(0.344417 0.0109935 1.47676e-19)
(0.386261 0.0178936 2.71303e-19)
(0.429058 0.0257202 -1.93113e-19)
(0.473006 0.034322 -3.94679e-19)
(0.518456 0.0434223 7.26182e-19)
(0.565967 0.0525827 -1.31597e-19)
(0.616316 0.0610722 -4.42021e-20)
(0.669983 0.067065 4.78437e-19)
(0.726246 0.0669759 -1.22586e-19)
(0.00410797 -0.00186836 -3.87321e-19)
(0.0198754 -0.00698932 -2.74431e-19)
(0.0430974 -0.0104631 -1.05398e-19)
(0.0716951 -0.0128005 2.041e-19)
(0.104409 -0.0140453 -4.62425e-19)
(0.140355 -0.0141262 2.38821e-19)
(0.178824 -0.0130345 3.023e-20)
(0.219259 -0.0107882 2.92898e-20)
(0.26123 -0.00741707 -3.17885e-19)
(0.304413 -0.00296339 -1.13455e-19)
(0.348575 0.00251564 -1.99696e-19)
(0.393565 0.00894209 1.93037e-19)
(0.439314 0.0162067 5.48244e-20)
(0.485836 0.0241506 9.45958e-21)
(0.533218 0.0325358 2.57381e-19)
(0.581624 0.0410114 -2.62399e-19)
(0.631293 0.0491027 -1.12653e-20)
(0.682497 0.0561247 5.5606e-21)
(0.735097 0.0606195 3.55161e-20)
(0.788146 0.0602464 2.5705e-19)
(0.00655872 -0.00324224 1.24804e-19)
(0.0270964 -0.0103213 3.4072e-19)
(0.0550671 -0.0149082 2.73645e-19)
(0.0883564 -0.0177877 -9.42006e-20)
(0.125683 -0.0191602 3.27345e-19)
(0.166147 -0.0190624 -2.81967e-20)
(0.20902 -0.0175764 -3.94519e-20)
(0.25373 -0.0147987 2.35016e-20)
(0.299827 -0.0108282 3.22976e-19)
(0.346965 -0.00577127 1.89759e-19)
(0.394881 0.000253429 5.53343e-20)
(0.443388 0.00710772 3.42802e-21)
(0.492358 0.0146243 -3.74299e-19)
(0.541719 0.0225926 3.27169e-19)
(0.591439 0.0307391 5.69641e-20)
(0.64151 0.0387118 -9.38777e-20)
(0.691947 0.0460907 -4.12656e-19)
(0.742729 0.0523309 -3.603e-20)
(0.793472 0.0563148 1.66988e-19)
(0.843333 0.0564759 -3.88148e-20)
(0.0093264 -0.00456309 -3.16067e-19)
(0.0351429 -0.0134813 1.40768e-19)
(0.0682419 -0.0190568 -6.87647e-19)
(0.106498 -0.0223529 2.81969e-19)
(0.14862 -0.0237327 -2.26579e-19)
(0.193695 -0.0233458 1.68104e-19)
(0.240978 -0.0213703 -2.61162e-19)
(0.289876 -0.017984 2.47764e-20)
(0.339916 -0.0133558 -1.29975e-20)
(0.390724 -0.00765403 7.03902e-20)
(0.442001 -0.00105268 1.02371e-19)
(0.493511 0.00626189 -1.95974e-19)
(0.545068 0.0140836 1.03903e-19)
(0.596521 0.0221773 9.6181e-20)
(0.64774 0.0302683 4.18925e-19)
(0.6986 0.0380389 -1.83313e-19)
(0.74898 0.0451497 -1.23421e-19)
(0.798718 0.0511909 2.09388e-19)
(0.847359 0.0552919 1.14779e-19)
(0.89422 0.0563915 -2.66728e-19)
(0.012403 -0.0057917 2.78282e-19)
(0.043989 -0.0163642 2.84598e-19)
(0.082574 -0.0227486 8.26047e-20)
(0.126045 -0.0262877 3.47974e-19)
(0.173112 -0.0275106 1.69637e-19)
(0.222852 -0.0266832 -3.10782e-19)
(0.274509 -0.0240811 4.71579e-19)
(0.327469 -0.0199636 -2.34133e-19)
(0.381236 -0.0145679 2.33591e-19)
(0.435405 -0.00811971 3.02861e-19)
(0.489644 -0.000840431 -1.74391e-19)
(0.543673 0.00704676 3.33899e-20)
(0.597257 0.0153118 1.86582e-19)
(0.650187 0.0237125 1.32152e-19)
(0.702267 0.031989 3.06578e-19)
(0.753303 0.0398675 -1.23487e-19)
(0.803105 0.0470838 -1.519e-20)
(0.851451 0.0533325 1.98409e-19)
(0.897886 0.057918 -4.26238e-20)
(0.941868 0.0601334 1.00994e-21)
(0.0157784 -0.00689073 -1.44869e-19)
(0.0536011 -0.0188685 -5.6073e-19)
(0.0980034 -0.0258282 1.32241e-19)
(0.146907 -0.0293912 -1.01816e-19)
(0.199032 -0.0302534 -2.33789e-19)
(0.253457 -0.0287979 -1.66297e-19)
(0.309415 -0.0253983 -1.02541e-19)
(0.366279 -0.0203938 2.54353e-19)
(0.42353 -0.014087 -1.52003e-19)
(0.480741 -0.00675589 -1.56164e-19)
(0.537549 0.00133745 -1.9809e-19)
(0.593646 0.00994163 -3.29804e-20)
(0.648761 0.018812 -2.28718e-20)
(0.702649 0.0277075 -4.65126e-19)
(0.755081 0.0363881 2.26826e-19)
(0.80583 0.0446207 -3.00744e-19)
(0.854681 0.0522013 9.51388e-20)
(0.901395 0.0588999 -7.30113e-19)
(0.94555 0.0641513 2.21167e-19)
(0.986715 0.0675107 3.37804e-19)
(0.0194404 -0.00782499 -3.55135e-20)
(0.0639386 -0.0208987 2.73635e-19)
(0.114458 -0.0281501 1.81008e-20)
(0.168976 -0.0314764 4.23268e-20)
(0.226238 -0.0317401 -8.64314e-20)
(0.285331 -0.0294413 -1.79303e-21)
(0.345485 -0.0250499 -1.52536e-21)
(0.406062 -0.0189835 -5.17549e-20)
(0.466534 -0.0116065 1.88718e-19)
(0.526455 -0.00324473 7.34101e-20)
(0.585447 0.00580441 3.33284e-19)
(0.643183 0.0152671 -9.20354e-20)
(0.699377 0.0248891 6.41762e-20)
(0.753769 0.0344338 -8.29745e-21)
(0.806121 0.04368 1.80083e-19)
(0.856203 0.0524287 1.10913e-19)
(0.903801 0.060521 2.69069e-19)
(0.948685 0.0677813 -4.38014e-19)
(0.99048 0.0737484 5.55264e-19)
(1.02885 0.0781769 -2.1304e-19)
(0.0233748 -0.00856155 -3.31154e-19)
(0.0749533 -0.0223658 -1.08552e-19)
(0.131853 -0.0295805 8.77185e-20)
(0.19213 -0.0323747 5.55037e-20)
(0.25457 -0.0317758 5.71242e-20)
(0.318274 -0.0283996 5.66024e-20)
(0.382481 -0.0228107 -1.45389e-19)
(0.446554 -0.0155019 -5.90715e-20)
(0.509961 -0.00689625 1.95092e-20)
(0.572251 0.0026362 -1.79676e-19)
(0.633042 0.0127672 -8.12816e-20)
(0.692005 0.0232043 4.96928e-19)
(0.748854 0.0336868 -1.29391e-19)
(0.803337 0.0439831 -1.79048e-19)
(0.855225 0.0538889 -8.53736e-20)
(0.904304 0.0632325 5.97277e-20)
(0.950382 0.071889 7.30484e-20)
(0.993256 0.0797233 -3.52722e-19)
(1.03261 0.0863627 5.1354e-19)
(1.06817 0.0917139 -5.37192e-19)
(0.027565 -0.00906957 -3.65915e-20)
(0.0865893 -0.0231882 1.10025e-20)
(0.15009 -0.0299991 -1.43572e-20)
(0.216229 -0.0319381 2.12581e-19)
(0.283843 -0.0301947 1.18722e-20)
(0.352063 -0.025498 7.84336e-20)
(0.420147 -0.0185045 -1.66228e-19)
(0.487467 -0.00977959 -5.76352e-21)
(0.553501 0.000198912 2.33008e-19)
(0.617806 0.0110205 3.24022e-20)
(0.68001 0.0223298 -2.05584e-19)
(0.739796 0.033819 -1.81638e-20)
(0.796898 0.045223 -1.70819e-19)
(0.851084 0.056316 1.71863e-19)
(0.902154 0.0669089 2.39897e-19)
(0.949928 0.0768527 -2.66522e-20)
(0.994247 0.086049 -3.25225e-20)
(1.03495 0.0943954 9.99254e-20)
(1.07178 0.101598 -3.2275e-19)
(1.10453 0.107677 3.43387e-19)
(0.0319916 -0.00932019 3.69042e-20)
(0.0987818 -0.0232919 -2.54952e-19)
(0.169059 -0.0293002 6.986e-20)
(0.241115 -0.0300408 -2.12901e-19)
(0.313855 -0.0268614 7.47348e-20)
(0.386455 -0.0206012 -2.75195e-19)
(0.4582 -0.0120051 1.12037e-19)
(0.52849 -0.00170672 -3.63823e-20)
(0.596822 0.00976487 -1.48607e-21)
(0.662775 0.0219631 3.71545e-20)
(0.726003 0.0345092 -1.36478e-19)
(0.786218 0.0470837 -1.96446e-19)
(0.843184 0.0594198 -4.0502e-20)
(0.896709 0.0712987 -1.83387e-20)
(0.946635 0.0825461 -4.69532e-20)
(0.992826 0.0930338 -1.53912e-20)
(1.03517 0.102686 -4.63546e-20)
(1.07356 0.111429 -4.04125e-20)
(1.1078 0.11904 -1.20612e-19)
(1.13774 0.125624 2.2583e-19)
(0.0366313 -0.00928649 8.84771e-20)
(0.111457 -0.0226102 -1.0364e-19)
(0.188634 -0.0273926 2.23122e-19)
(0.266611 -0.0265798 -9.79556e-20)
(0.344384 -0.0216718 2.63094e-19)
(0.421183 -0.0136135 4.82855e-21)
(0.49634 -0.00323339 1.33571e-19)
(0.569292 0.00877111 -3.68489e-20)
(0.639572 0.021825 1.51986e-19)
(0.706797 0.0354505 1.07314e-20)
(0.77066 0.0492503 3.68377e-19)
(0.830915 0.0628975 -2.56716e-19)
(0.887375 0.0761272 3.49474e-20)
(0.939899 0.0887303 6.72586e-20)
(0.988381 0.100549 3.54308e-19)
(1.03274 0.111475 -1.28323e-19)
(1.07293 0.121454 -2.55265e-20)
(1.10889 0.130439 -1.35487e-19)
(1.14049 0.138278 -1.40355e-20)
(1.16765 0.145129 8.06111e-20)
(0.0414572 -0.00894365 -4.02946e-20)
(0.12453 -0.0210848 1.26799e-19)
(0.208674 -0.0242007 -1.3144e-19)
(0.292526 -0.021475 5.15314e-20)
(0.375188 -0.0145522 -6.3608e-20)
(0.455964 -0.0044771 2.32914e-19)
(0.534247 0.00784442 -3.36701e-20)
(0.609528 0.0216575 8.05865e-20)
(0.68139 0.0363474 -4.88279e-20)
(0.749504 0.0514111 -1.72356e-21)
(0.813614 0.066439 5.62808e-20)
(0.873535 0.081102 -4.43549e-20)
(0.929139 0.095142 1.15994e-19)
(0.980347 0.108364 -5.8427e-20)
(1.02712 0.120628 -2.59121e-19)
(1.06944 0.131849 2.59467e-19)
(1.10732 0.141994 -1.17357e-19)
(1.14076 0.151045 9.4292e-20)
(1.16971 0.158913 1.63731e-19)
(1.19413 0.165792 7.93538e-20)
(0.0464376 -0.00826925 1.00734e-19)
(0.137906 -0.018666 -2.22227e-19)
(0.229026 -0.0196646 4.17065e-20)
(0.31865 -0.0146695 -3.12266e-20)
(0.40601 -0.00545943 -1.28384e-19)
(0.490501 0.00682894 -1.00863e-19)
(0.571593 0.0212203 -2.04295e-20)
(0.648847 0.0369102 -1.8412e-19)
(0.721913 0.0532517 -1.17928e-20)
(0.790529 0.0697245 -3.51722e-20)
(0.854509 0.0859137 -9.65202e-20)
(0.913738 0.101495 -2.16303e-20)
(0.96816 0.116223 -7.55147e-20)
(1.01777 0.129921 -1.27428e-19)
(1.0626 0.142474 1.31599e-19)
(1.1027 0.15382 1.80875e-20)
(1.13816 0.163951 3.6133e-20)
(1.16903 0.172878 -1.54218e-19)
(1.19534 0.180574 -4.31327e-21)
(1.2171 0.187247 -2.79409e-19)
(0.0515364 -0.00724372 1.07323e-19)
(0.151482 -0.0153137 7.64443e-20)
(0.249522 -0.0137413 -1.25178e-19)
(0.344761 -0.00613019 1.97064e-19)
(0.436581 0.00561977 -2.2254e-20)
(0.524486 0.0202904 7.5066e-20)
(0.608041 0.0368469 2.65312e-20)
(0.686895 0.054445 9.50046e-20)
(0.760781 0.0724152 -7.54818e-20)
(0.829518 0.0902288 2.57554e-20)
(0.893004 0.107474 -2.48418e-20)
(0.951207 0.123841 -1.09975e-20)
(1.00415 0.139102 2.14226e-20)
(1.05192 0.153106 -3.98455e-20)
(1.09461 0.165766 -1.23635e-20)
(1.13237 0.17705 -3.80135e-20)
(1.16532 0.186976 -6.20584e-20)
(1.19362 0.195586 4.04345e-20)
(1.21734 0.202912 -5.49671e-20)
(1.23653 0.209165 2.78977e-19)
(0.0567129 -0.00585087 -5.22555e-20)
(0.16514 -0.0109983 -1.58772e-19)
(0.269983 -0.00640552 -2.03214e-20)
(0.370624 0.00415178 -6.69311e-21)
(0.466621 0.018669 -7.33577e-20)
(0.557605 0.0358593 -1.22508e-19)
(0.643256 0.0546405 4.0672e-20)
(0.723325 0.0741405 -5.68022e-20)
(0.797645 0.0936784 -6.46824e-20)
(0.866134 0.112728 3.6867e-20)
(0.928783 0.130891 -2.81982e-20)
(0.985655 0.147879 -5.82146e-20)
(1.03687 0.163493 -2.16978e-21)
(1.08258 0.177613 4.04482e-20)
(1.12299 0.190186 -4.17079e-20)
(1.1583 0.201212 5.8412e-20)
(1.18873 0.210739 1.59584e-20)
(1.21447 0.218843 4.00313e-20)
(1.23567 0.225615 7.76183e-20)
(1.25243 0.231251 -7.74322e-20)
(0.0619222 -0.00407858 4.8859e-20)
(0.17876 -0.00570223 -3.8072e-21)
(0.290221 0.00234933 2.44561e-20)
(0.395998 0.0161607 -3.2634e-20)
(0.495846 0.0336426 3.43204e-21)
(0.589545 0.0534551 1.17336e-19)
(0.676906 0.0744834 -7.782e-20)
(0.757801 0.0958414 3.413e-20)
(0.832179 0.11685 3.09175e-20)
(0.900066 0.136998 -8.71147e-20)
(0.961563 0.155912 8.35836e-20)
(1.01683 0.173333 9.69393e-22)
(1.06609 0.1891 -6.08703e-20)
(1.10959 0.203133 7.42049e-20)
(1.14761 0.215417 -2.96903e-20)
(1.18043 0.225989 2.28884e-20)
(1.20834 0.234929 -2.59104e-20)
(1.23159 0.242351 -1.05173e-20)
(1.25039 0.248398 -9.03875e-20)
(1.26487 0.253247 3.21298e-20)
(0.0671156 -0.00191934 -1.5564e-20)
(0.192209 0.000579308 4.63608e-20)
(0.310038 0.01251 7.57309e-21)
(0.420635 0.0298555 3.083e-20)
(0.523971 0.0504658 1.51865e-20)
(0.619997 0.072966 7.25628e-21)
(0.708672 0.0962263 4.16091e-20)
(0.790006 0.119363 -4.89731e-21)
(0.864078 0.141712 1.93595e-20)
(0.931035 0.162792 3.15954e-20)
(0.991094 0.182264 1.56532e-20)
(1.04453 0.199914 1.14712e-20)
(1.09166 0.215625 4.70523e-20)
(1.13283 0.229362 -4.58784e-20)
(1.1684 0.241155 9.97911e-21)
(1.19873 0.251082 -9.36144e-21)
(1.22417 0.259258 1.47048e-20)
(1.24502 0.265835 1.23803e-20)
(1.26155 0.271009 2.57014e-20)
(1.27393 0.274927 1.21622e-21)
(0.072241 0.000629124 9.46086e-21)
(0.205352 0.00783712 8.95729e-21)
(0.329235 0.0240426 -1.25717e-20)
(0.444285 0.0451696 7.97403e-21)
(0.550715 0.0690351 4.63017e-21)
(0.648661 0.0942507 -1.47222e-20)
(0.738251 0.119691 4.99387e-21)
(0.819647 0.144492 9.94664e-22)
(0.893068 0.168023 9.0342e-21)
(0.958796 0.189845 -2.49419e-20)
(1.01717 0.209668 -1.50137e-22)
(1.06858 0.22733 7.21085e-21)
(1.11345 0.242769 -5.79671e-21)
(1.15222 0.256002 5.99919e-21)
(1.18533 0.267108 1.58278e-20)
(1.2132 0.276211 -9.05347e-21)
(1.23625 0.283462 2.57263e-21)
(1.25484 0.289052 9.98996e-21)
(1.26926 0.293225 -1.64939e-20)
(1.27974 0.296098 9.2439e-21)
(0.0772447 0.00356341 2.44311e-20)
(0.218049 0.0160472 -1.44226e-20)
(0.347608 0.0368919 1.72304e-20)
(0.466703 0.0620111 -1.30422e-20)
(0.575805 0.0892197 -6.03847e-21)
(0.675255 0.11714 1.89427e-21)
(0.765363 0.144673 -6.26414e-21)
(0.846456 0.170994 2.30629e-20)
(0.918908 0.195524 -1.98283e-20)
(0.983141 0.217879 4.81107e-21)
(1.03963 0.237832 -3.58219e-21)
(1.08887 0.255285 -2.43635e-20)
(1.13139 0.270238 2.4009e-20)
(1.16773 0.282766 9.29577e-21)
(1.1984 0.293002 -9.3492e-21)
(1.2239 0.301117 2.20883e-20)
(1.24468 0.307301 -3.6198e-22)
(1.26116 0.311782 -2.15636e-20)
(1.27366 0.314852 1.59804e-20)
(1.28242 0.316591 5.6961e-21)
(0.0820708 0.00687409 -8.78045e-21)
(0.23016 0.0251705 2.56044e-20)
(0.364959 0.0509814 3.02935e-20)
(0.48765 0.0802628 -1.4857e-20)
(0.59898 0.110862 2.60317e-20)
(0.699512 0.141439 4.29946e-20)
(0.78975 0.170944 -2.61128e-21)
(0.8702 0.198615 -8.2739e-21)
(0.941396 0.223939 4.01906e-20)
(1.00391 0.246606 2.02371e-20)
(1.05833 0.266465 -3.92767e-21)
(1.1053 0.283489 3.16957e-20)
(1.14544 0.297747 -3.49677e-20)
(1.17936 0.309381 5.47661e-20)
(1.20766 0.31858 -9.2728e-21)
(1.2309 0.325561 2.66553e-20)
(1.24957 0.330556 4.75064e-21)
(1.26411 0.333831 1.91387e-20)
(1.27488 0.335719 -1.83431e-20)
(1.28216 0.336263 5.02732e-21)
(0.0866625 0.0105453 -1.29035e-20)
(0.241545 0.035152 3.10823e-20)
(0.38109 0.0662128 2.32507e-20)
(0.506896 0.099783 -3.68233e-21)
(0.619998 0.133779 3.94542e-20)
(0.721191 0.166928 -3.20838e-20)
(0.811187 0.198256 -3.25162e-21)
(0.890678 0.227083 2.88394e-20)
(0.960365 0.252984 8.92061e-21)
(1.02097 0.275736 1.39558e-20)
(1.07322 0.295274 -2.13842e-20)