/*--------------------------------*- C++ -*----------------------------------*\
  =========                 |
  \\      /  F ield         | OpenFOAM: The Open Source CFD Toolbox
   \\    /   O peration     | Website:  https://openfoam.org
    \\  /    A nd           | Version:  6.0
     \\/     M anipulation  |
\*---------------------------------------------------------------------------*/
FoamFile
{
    version     2.0;
    format      ascii;
    class       volScalarField;
    location    "13";
    object      p;
}
// * * * * * * * * * * * * * * * * * * * * * * * * * * * * * * * * * * * * * //

dimensions      [0 2 -2 0 0 0 0];

internalField   nonuniform List<scalar> 
34500
(
1.00382
1.00368
1.00417
1.00503
1.00535
1.00501
1.00436
1.0039
1.00356
1.00326
1.00284
1.00236
1.00172
1.00132
1.00116
1.00382
1.00366
1.00415
1.00507
1.00549
1.00523
1.00457
1.0041
1.00377
1.00354
1.00316
1.0027
1.00199
1.0016
1.0012
1.00382
1.00357
1.00395
1.0048
1.0052
1.0049
1.0041
1.00344
1.00293
1.0026
1.00221
1.00182
1.00124
1.00101
1.0006
1.00381
1.0035
1.00378
1.00458
1.00504
1.00484
1.00403
1.00327
1.00258
1.0021
1.00163
1.00123
1.00073
1.00057
1.00025
1.00382
1.00344
1.00363
1.00442
1.00501
1.00503
1.00438
1.00364
1.00285
1.00222
1.00159
1.00108
1.00052
1.00031
0.999948
1.00383
1.00337
1.0034
1.00408
1.00473
1.00494
1.00449
1.00385
1.00302
1.00228
1.00151
1.00086
1.00022
0.999918
0.999502
1.00386
1.00327
1.00307
1.00351
1.00406
1.00434
1.00403
1.00349
1.00269
1.0019
1.00105
1.00034
0.999689
0.999371
0.998997
1.00389
1.00316
1.00269
1.0028
1.00311
1.00332
1.00307
1.00261
1.00187
1.0011
1.00027
0.99959
0.999019
0.998764
0.998503
1.00393
1.00309
1.00236
1.00211
1.00213
1.00218
1.00191
1.0015
1.00083
1.00014
0.999392
0.998804
0.998372
0.998221
0.998092
1.00399
1.00308
1.00214
1.00159
1.00131
1.00116
1.00083
1.00044
0.999838
0.999229
0.998587
0.998116
0.997831
0.997777
0.99775
1.00408
1.00314
1.00208
1.0013
1.00077
1.00042
1.00001
0.999604
0.999052
0.998518
0.99797
0.997601
0.997434
0.997443
0.997477
1.00418
1.00327
1.00217
1.00125
1.00053
1.00001
0.999502
0.999061
0.998527
0.998035
0.99755
0.997245
0.997152
0.997184
0.997234
1.0043
1.00345
1.00238
1.0014
1.00056
0.999908
0.9993
0.998804
0.998255
0.997771
0.997307
0.997025
0.996959
0.996978
0.997017
1.00443
1.00366
1.00266
1.00169
1.00077
1.00003
0.999331
0.998764
0.998173
0.997661
0.997183
0.996884
0.996809
0.996787
0.996792
1.00458
1.00389
1.00299
1.00205
1.00112
1.0003
0.999522
0.998877
0.998223
0.997657
0.997133
0.996789
0.996678
0.996601
0.996565
1.00474
1.00413
1.00333
1.00245
1.00151
1.00064
0.999795
0.999066
0.998336
0.997697
0.997107
0.996698
0.996536
0.996397
0.996314
1.0049
1.00437
1.00365
1.00283
1.00191
1.00101
1.0001
0.999285
0.998471
0.997748
0.997081
0.996599
0.996378
0.996178
0.996053
1.00506
1.0046
1.00396
1.00319
1.00228
1.00135
1.00038
0.999488
0.998588
0.997777
0.997027
0.996469
0.996188
0.99593
0.995766
1.00523
1.00481
1.00424
1.00351
1.00262
1.00165
1.00063
0.999661
0.998676
0.997777
0.996945
0.996312
0.995975
0.995665
0.995469
1.00539
1.00501
1.00448
1.00379
1.00289
1.0019
1.00083
0.999785
0.998718
0.997734
0.996823
0.996119
0.99573
0.995374
0.995148
1.00556
1.0052
1.0047
1.00402
1.00312
1.0021
1.00098
0.999866
0.998722
0.997657
0.996671
0.995901
0.995466
0.995069
0.99482
1.00573
1.00539
1.0049
1.00422
1.00331
1.00226
1.00108
0.999899
0.998681
0.99754
0.996484
0.995654
0.995175
0.994742
0.994471
1.0059
1.00556
1.00507
1.00439
1.00346
1.00237
1.00115
0.9999
0.998611
0.997398
0.996276
0.99539
0.994872
0.994407
0.994119
1.00608
1.00574
1.00524
1.00454
1.00358
1.00245
1.00118
0.999866
0.99851
0.997228
0.996044
0.995103
0.994549
0.994054
0.993749
1.00626
1.00591
1.0054
1.00467
1.00369
1.00251
1.00119
0.999814
0.998392
0.997044
0.9958
0.994808
0.994219
0.993696
0.993377
1.00644
1.00609
1.00556
1.0048
1.00378
1.00256
1.00118
0.999742
0.998255
0.996842
0.995538
0.994497
0.993875
0.993324
0.992988
1.00664
1.00627
1.00572
1.00493
1.00387
1.0026
1.00117
0.999664
0.998111
0.996633
0.995272
0.994182
0.993526
0.992948
0.992599
1.00683
1.00645
1.00588
1.00506
1.00396
1.00264
1.00115
0.999575
0.997956
0.996414
0.994995
0.993856
0.993165
0.99256
0.992194
1.00704
1.00664
1.00604
1.00519
1.00405
1.00267
1.00112
0.999487
0.997802
0.996195
0.994717
0.993528
0.992801
0.992169
0.991788
1.00725
1.00684
1.00621
1.00532
1.00414
1.00271
1.0011
0.999396
0.997642
0.995968
0.99443
0.99319
0.992427
0.991766
0.991368
1.00747
1.00704
1.0064
1.00547
1.00424
1.00276
1.00108
0.999309
0.997485
0.995744
0.994145
0.992853
0.992052
0.991361
0.990947
1.0077
1.00726
1.00658
1.00562
1.00435
1.00281
1.00107
0.999222
0.997326
0.995514
0.993853
0.992507
0.991667
0.990945
0.990512
1.00794
1.00748
1.00678
1.00579
1.00447
1.00287
1.00106
0.999143
0.997172
0.995289
0.993563
0.992162
0.991281
0.990527
0.990075
1.00818
1.00771
1.00699
1.00596
1.00459
1.00293
1.00106
0.999064
0.997017
0.99506
0.993267
0.991808
0.990884
0.990097
0.989625
1.00844
1.00795
1.00721
1.00614
1.00473
1.00301
1.00107
0.998994
0.996868
0.994836
0.992974
0.991456
0.990488
0.989666
0.989174
1.0087
1.0082
1.00743
1.00633
1.00487
1.00309
1.00108
0.998926
0.996719
0.994608
0.992675
0.991096
0.990081
0.989223
0.988709
1.00897
1.00846
1.00767
1.00654
1.00503
1.00319
1.0011
0.998866
0.996577
0.994386
0.99238
0.990737
0.989673
0.988778
0.988242
1.00925
1.00873
1.00792
1.00675
1.0052
1.00329
1.00113
0.99881
0.996434
0.99416
0.992078
0.99037
0.989256
0.988322
0.987762
1.00954
1.009
1.00818
1.00697
1.00538
1.00341
1.00117
0.998762
0.996299
0.99394
0.99178
0.990005
0.988838
0.987864
0.98728
1.00984
1.00929
1.00844
1.00721
1.00556
1.00353
1.00121
0.998718
0.996164
0.993717
0.991477
0.989631
0.98841
0.987394
0.986785
1.01015
1.00959
1.00872
1.00746
1.00577
1.00367
1.00127
0.998684
0.996037
0.993499
0.991177
0.989259
0.987981
0.986922
0.986287
1.01047
1.0099
1.00901
1.00771
1.00598
1.00381
1.00133
0.998652
0.99591
0.993279
0.990871
0.988879
0.987542
0.986438
0.985776
1.0108
1.01022
1.00931
1.00799
1.0062
1.00397
1.0014
0.998631
0.995791
0.993065
0.990569
0.9885
0.987102
0.985953
0.985263
1.01114
1.01054
1.00963
1.00827
1.00643
1.00413
1.00148
0.998614
0.995673
0.992848
0.990262
0.988113
0.986652
0.985455
0.984737
1.01149
1.01089
1.00995
1.00856
1.00668
1.00431
1.00157
0.998608
0.995564
0.992638
0.989958
0.987727
0.986201
0.984955
0.984207
1.01184
1.01124
1.01029
1.00887
1.00694
1.0045
1.00167
0.998605
0.995455
0.992425
0.989649
0.987333
0.98574
0.984442
0.983665
1.01221
1.0116
1.01064
1.00919
1.00721
1.00471
1.00179
0.998614
0.995355
0.992218
0.989343
0.986941
0.985278
0.983928
0.983118
1.01259
1.01197
1.011
1.00952
1.0075
1.00492
1.00191
0.998628
0.995257
0.99201
0.989033
0.98654
0.984805
0.9834
0.982558
1.01298
1.01236
1.01137
1.00987
1.0078
1.00515
1.00204
0.998653
0.995168
0.991808
0.988726
0.986141
0.984331
0.982871
0.981995
1.01338
1.01275
1.01176
1.01023
1.00811
1.00539
1.00218
0.998684
0.99508
0.991604
0.988414
0.985733
0.983846
0.982328
0.981417
1.01379
1.01316
1.01216
1.01061
1.00844
1.00564
1.00234
0.998727
0.995003
0.991407
0.988106
0.985327
0.98336
0.981782
0.980835
1.01422
1.01358
1.01258
1.011
1.00878
1.00591
1.00251
0.998775
0.994927
0.991208
0.987793
0.984913
0.982863
0.981224
0.980238
1.01465
1.01402
1.013
1.0114
1.00914
1.00619
1.00269
0.998836
0.994861
0.991017
0.987484
0.9845
0.982366
0.980662
0.979638
1.0151
1.01446
1.01345
1.01182
1.00951
1.00648
1.00288
0.998904
0.994798
0.990824
0.987169
0.984078
0.981856
0.980087
0.979023
1.01555
1.01492
1.0139
1.01226
1.0099
1.0068
1.00308
0.998985
0.994745
0.990638
0.986859
0.983657
0.981346
0.979509
0.978403
1.01602
1.01539
1.01437
1.01271
1.0103
1.00712
1.0033
0.999072
0.994695
0.990451
0.986544
0.983228
0.980824
0.978918
0.977768
1.0165
1.01587
1.01486
1.01318
1.01073
1.00746
1.00353
0.999174
0.994656
0.990273
0.986234
0.982801
0.980301
0.978323
0.977129
1.01699
1.01637
1.01536
1.01366
1.01116
1.00782
1.00378
0.999282
0.99462
0.990092
0.985918
0.982364
0.979766
0.977714
0.976475
1.01749
1.01687
1.01587
1.01416
1.01162
1.00819
1.00404
0.999405
0.994596
0.98992
0.985606
0.981929
0.97923
0.977102
0.975815
1.018
1.0174
1.0164
1.01467
1.01209
1.00858
1.00431
0.999536
0.994574
0.989747
0.98529
0.981485
0.978681
0.976475
0.97514
1.01853
1.01793
1.01695
1.01521
1.01258
1.00899
1.0046
0.999681
0.994565
0.989582
0.984978
0.981043
0.978132
0.975845
0.97446
1.01906
1.01848
1.01751
1.01576
1.01309
1.00941
1.0049
0.999835
0.994559
0.989416
0.984661
0.980591
0.977569
0.9752
0.973764
1.01961
1.01904
1.01809
1.01633
1.01361
1.00985
1.00522
1
0.994566
0.989259
0.984349
0.98014
0.977006
0.974552
0.973062
1.02017
1.01961
1.01868
1.01692
1.01416
1.01031
1.00555
1.00018
0.994576
0.989101
0.984032
0.979681
0.976429
0.973888
0.972344
1.02074
1.0202
1.01929
1.01752
1.01472
1.01078
1.0059
1.00038
0.9946
0.988952
0.98372
0.979223
0.975851
0.97322
0.971619
1.02132
1.0208
1.01991
1.01815
1.0153
1.01128
1.00626
1.00058
0.994627
0.988803
0.983402
0.978755
0.97526
0.972536
0.970878
1.02192
1.02142
1.02055
1.01879
1.0159
1.01179
1.00664
1.0008
0.994668
0.988663
0.98309
0.978288
0.974667
0.971849
0.970131
1.02252
1.02204
1.02121
1.01945
1.01653
1.01232
1.00704
1.00103
0.994714
0.988522
0.982772
0.977812
0.974061
0.971145
0.969366
1.02314
1.02268
1.02188
1.02013
1.01717
1.01288
1.00745
1.00127
0.994773
0.988391
0.98246
0.977337
0.973452
0.970437
0.968594
1.02376
1.02334
1.02257
1.02083
1.01783
1.01344
1.00788
1.00153
0.994836
0.988258
0.982142
0.976852
0.97283
0.969711
0.967804
1.0244
1.02401
1.02328
1.02155
1.01851
1.01404
1.00834
1.0018
0.994914
0.988137
0.98183
0.976369
0.972206
0.968982
0.967007
1.02505
1.02468
1.024
1.02229
1.01921
1.01464
1.0088
1.00209
0.994996
0.988014
0.981511
0.975875
0.971567
0.968234
0.966191
1.02571
1.02538
1.02474
1.02304
1.01994
1.01528
1.00929
1.00239
0.995093
0.987902
0.981199
0.975382
0.970926
0.967482
0.965368
1.02638
1.02608
1.02549
1.02382
1.02068
1.01592
1.00978
1.0027
0.995194
0.987788
0.98088
0.974879
0.97027
0.966712
0.964525
1.02706
1.0268
1.02627
1.02461
1.02144
1.01659
1.01031
1.00303
0.99531
0.987686
0.980568
0.974377
0.969611
0.965936
0.963675
1.02775
1.02753
1.02705
1.02543
1.02223
1.01728
1.01084
1.00337
0.995431
0.987582
0.980249
0.973863
0.968937
0.965142
0.962804
1.02845
1.02827
1.02786
1.02626
1.02303
1.01799
1.0114
1.00373
0.995568
0.98749
0.979936
0.973351
0.968261
0.964341
0.961924
1.02916
1.02903
1.02867
1.02711
1.02386
1.01872
1.01197
1.0041
0.995708
0.987395
0.979616
0.972827
0.967568
0.963522
0.961024
1.02989
1.0298
1.02951
1.02799
1.0247
1.01948
1.01256
1.00449
0.995864
0.987313
0.979302
0.972304
0.966872
0.962696
0.960114
1.03062
1.03057
1.03036
1.02888
1.02557
1.02024
1.01317
1.00488
0.996025
0.987228
0.978981
0.971769
0.966159
0.961849
0.959182
1.03136
1.03137
1.03123
1.02979
1.02646
1.02104
1.0138
1.0053
0.996201
0.987155
0.978667
0.971235
0.965444
0.960996
0.958241
1.03211
1.03217
1.03211
1.03071
1.02736
1.02185
1.01444
1.00573
0.996381
0.98708
0.978345
0.970688
0.96471
0.960122
0.957276
1.03287
1.03298
1.033
1.03166
1.02829
1.02268
1.01511
1.00617
0.996577
0.987016
0.978029
0.970142
0.963973
0.95924
0.956301
1.03363
1.0338
1.03391
1.03262
1.02924
1.02352
1.01579
1.00663
0.996777
0.98695
0.977705
0.969583
0.963218
0.958336
0.955302
1.03441
1.03464
1.03484
1.0336
1.0302
1.0244
1.01649
1.0071
0.996992
0.986896
0.977387
0.969024
0.962459
0.957424
0.954292
1.0352
1.03548
1.03577
1.0346
1.03119
1.02528
1.0172
1.00758
0.997211
0.986839
0.97706
0.968451
0.96168
0.956489
0.953256
1.03599
1.03633
1.03673
1.03562
1.03219
1.02619
1.01793
1.00809
0.997446
0.986793
0.97674
0.967879
0.960897
0.955546
0.952209
1.03679
1.03719
1.03769
1.03664
1.03321
1.02711
1.01868
1.0086
0.997683
0.986744
0.976411
0.967292
0.960094
0.954578
0.951135
1.0376
1.03807
1.03866
1.03769
1.03425
1.02805
1.01944
1.00913
0.997936
0.986707
0.976088
0.966706
0.959287
0.9536
0.950047
1.03842
1.03895
1.03965
1.03875
1.0353
1.02901
1.02022
1.00966
0.998191
0.986665
0.975755
0.966104
0.958457
0.952597
0.948932
1.03925
1.03984
1.04065
1.03983
1.03637
1.02999
1.02102
1.01022
0.998462
0.986635
0.975428
0.965502
0.957624
0.951584
0.947803
1.04008
1.04073
1.04166
1.04091
1.03746
1.03098
1.02183
1.01078
0.998734
0.986601
0.975091
0.964883
0.956767
0.950544
0.946644
1.04093
1.04164
1.04268
1.04202
1.03856
1.03198
1.02265
1.01135
0.999021
0.986578
0.97476
0.964265
0.955905
0.949493
0.94547
1.04177
1.04255
1.04371
1.04313
1.03967
1.033
1.02349
1.01194
0.999309
0.98655
0.974417
0.963629
0.95502
0.948413
0.944265
1.04263
1.04347
1.04475
1.04425
1.0408
1.03404
1.02434
1.01254
0.999611
0.986533
0.974081
0.962993
0.954128
0.947322
0.943044
1.0435
1.0444
1.0458
1.04539
1.04193
1.03508
1.0252
1.01314
0.999913
0.98651
0.973732
0.962338
0.953212
0.9462
0.941789
1.04437
1.04533
1.04685
1.04653
1.04308
1.03614
1.02608
1.01377
1.00023
0.986498
0.97339
0.961684
0.952289
0.945066
0.940517
1.04525
1.04627
1.04791
1.04768
1.04424
1.03721
1.02696
1.01439
1.00055
0.986479
0.973034
0.961009
0.951339
0.9439
0.939209
1.04614
1.04722
1.04898
1.04884
1.04541
1.03829
1.02786
1.01503
1.00087
0.986471
0.972685
0.960335
0.950383
0.94272
0.937883
1.04703
1.04817
1.05005
1.05001
1.04658
1.03937
1.02876
1.01567
1.0012
0.986456
0.972321
0.959639
0.949399
0.941506
0.936519
1.04793
1.04912
1.05113
1.05118
1.04777
1.04047
1.02967
1.01632
1.00154
0.98645
0.971964
0.958943
0.948408
0.940278
0.935134
1.04885
1.05008
1.05221
1.05235
1.04895
1.04156
1.03059
1.01698
1.00188
0.986437
0.971591
0.958225
0.947387
0.939013
0.93371
1.04977
1.05105
1.05329
1.05353
1.05014
1.04267
1.03151
1.01764
1.00222
0.986433
0.971225
0.957506
0.946357
0.937733
0.932264
1.0507
1.05202
1.05438
1.05471
1.05133
1.04378
1.03244
1.01831
1.00257
0.98642
0.970842
0.956764
0.945297
0.936415
0.930775
1.05164
1.05299
1.05546
1.05588
1.05252
1.04489
1.03338
1.01898
1.00292
0.986417
0.970465
0.95602
0.944228
0.935079
0.929262
1.05258
1.05397
1.05655
1.05706
1.05371
1.046
1.03431
1.01966
1.00327
0.986404
0.970071
0.955252
0.943126
0.933704
0.927705
1.05354
1.05495
1.05763
1.05823
1.0549
1.04711
1.03525
1.02034
1.00363
0.986399
0.969683
0.954483
0.942015
0.932309
0.926121
1.05451
1.05593
1.05871
1.0594
1.05608
1.04821
1.03618
1.02101
1.00398
0.986384
0.969277
0.953688
0.940868
0.930873
0.92449
1.05549
1.05692
1.05979
1.06056
1.05725
1.04932
1.03712
1.0217
1.00435
0.986377
0.968876
0.952891
0.939712
0.929416
0.922831
1.05648
1.05791
1.06087
1.06171
1.05842
1.05041
1.03804
1.02237
1.0047
0.986358
0.968456
0.952066
0.938519
0.927914
0.921121
1.05749
1.0589
1.06194
1.06286
1.05958
1.0515
1.03897
1.02305
1.00506
0.986347
0.968041
0.951239
0.937314
0.926391
0.91938
1.05851
1.05989
1.063
1.06399
1.06072
1.05258
1.03989
1.02372
1.00541
0.986322
0.967606
0.950384
0.936071
0.92482
0.917586
1.05954
1.06089
1.06406
1.06511
1.06186
1.05365
1.04081
1.0244
1.00577
0.986306
0.967176
0.949526
0.934815
0.923225
0.915759
1.06059
1.06189
1.0651
1.06621
1.06297
1.0547
1.04171
1.02506
1.00612
0.986274
0.966724
0.948637
0.933519
0.92158
0.913875
1.06166
1.0629
1.06614
1.0673
1.06407
1.05575
1.04261
1.02573
1.00647
0.98625
0.966276
0.947745
0.932209
0.91991
0.911955
1.06274
1.0639
1.06717
1.06837
1.06514
1.05677
1.04349
1.02638
1.00681
0.98621
0.965806
0.946821
0.930855
0.918185
0.909974
1.06384
1.06491
1.06818
1.06942
1.0662
1.05777
1.04436
1.02703
1.00715
0.986176
0.96534
0.945893
0.929487
0.916434
0.907954
1.06496
1.06592
1.06918
1.07044
1.06723
1.05875
1.04521
1.02766
1.00748
0.986125
0.96485
0.94493
0.928073
0.914624
0.905868
1.0661
1.06693
1.07017
1.07144
1.06824
1.05972
1.04605
1.02829
1.00781
0.98608
0.964363
0.943963
0.926642
0.912785
0.903741
1.06726
1.06795
1.07114
1.07242
1.06921
1.06065
1.04687
1.0289
1.00813
0.986016
0.963851
0.94296
0.925163
0.910884
0.901544
1.06845
1.06896
1.07209
1.07337
1.07016
1.06156
1.04767
1.02951
1.00844
0.985958
0.963342
0.941951
0.923665
0.90895
0.899301
1.06966
1.06998
1.07303
1.07428
1.07107
1.06244
1.04844
1.03009
1.00874
0.985879
0.962806
0.940904
0.922114
0.90695
0.896984
1.0709
1.07101
1.07395
1.07517
1.07195
1.06329
1.0492
1.03066
1.00904
0.985806
0.962272
0.93985
0.920543
0.904914
0.894618
1.07217
1.07203
1.07484
1.07602
1.07278
1.0641
1.04992
1.03121
1.00931
0.985709
0.961709
0.938754
0.918915
0.902807
0.892175
1.07347
1.07306
1.07572
1.07683
1.07358
1.06488
1.05062
1.03175
1.00959
0.985617
0.961147
0.93765
0.917264
0.900661
0.889679
1.07479
1.07409
1.07657
1.07761
1.07434
1.06561
1.05129
1.03226
1.00984
0.985501
0.960555
0.936501
0.91555
0.898438
0.887102
1.07616
1.07513
1.07739
1.07835
1.07505
1.06631
1.05193
1.03275
1.01009
0.985389
0.959963
0.935342
0.91381
0.896173
0.88447
1.07755
1.07617
1.07819
1.07904
1.07572
1.06697
1.05253
1.03322
1.01032
0.985251
0.959337
0.934133
0.912003
0.893827
0.881753
1.07899
1.07721
1.07897
1.07969
1.07634
1.06758
1.0531
1.03367
1.01054
0.985115
0.958712
0.932912
0.910166
0.891435
0.87898
1.08046
1.07825
1.07971
1.08029
1.0769
1.06814
1.05363
1.03408
1.01073
0.984952
0.958049
0.931636
0.908254
0.888957
0.876119
1.08197
1.0793
1.08043
1.08085
1.07742
1.06866
1.05413
1.03448
1.01092
0.98479
0.957383
0.930343
0.906309
0.88643
0.8732
1.08352
1.08035
1.08112
1.08135
1.07787
1.06913
1.05457
1.03484
1.01108
0.984598
0.956677
0.928989
0.904282
0.883811
0.870192
1.08511
1.08141
1.08178
1.08181
1.07827
1.06954
1.05498
1.03518
1.01123
0.984407
0.955966
0.927615
0.902217
0.881141
0.867125
1.08676
1.08247
1.0824
1.08221
1.07861
1.06989
1.05534
1.03548
1.01135
0.984183
0.955208
0.926174
0.900064
0.878375
0.863967
1.08844
1.08353
1.08299
1.08256
1.07889
1.0702
1.05566
1.03575
1.01146
0.983959
0.954442
0.924706
0.897867
0.875553
0.860749
1.09018
1.0846
1.08355
1.08285
1.07911
1.07043
1.05592
1.03598
1.01154
0.983698
0.953624
0.923163
0.895576
0.872632
0.857439
1.09196
1.08567
1.08407
1.08308
1.07926
1.07061
1.05615
1.03619
1.01161
0.983434
0.952793
0.921588
0.893235
0.869652
0.854068
1.0938
1.08675
1.08455
1.08326
1.07934
1.07072
1.05631
1.03635
1.01164
0.983129
0.951903
0.919929
0.890793
0.866568
0.850605
1.09569
1.08783
1.085
1.08337
1.07936
1.07077
1.05642
1.03648
1.01167
0.982818
0.950995
0.918232
0.888295
0.863422
0.847081
1.09763
1.08891
1.0854
1.08342
1.07931
1.07075
1.05647
1.03657
1.01165
0.982462
0.950019
0.916442
0.885688
0.860169
0.843465
1.09962
1.09
1.08577
1.08341
1.07918
1.07067
1.05648
1.03662
1.01162
0.982096
0.94902
0.914608
0.883021
0.856851
0.839787
1.10168
1.09108
1.0861
1.08333
1.07898
1.07051
1.05641
1.03663
1.01155
0.981679
0.947944
0.91267
0.880238
0.853423
0.836018
1.10378
1.09217
1.08639
1.08319
1.07871
1.07028
1.0563
1.0366
1.01147
0.981247
0.946837
0.91068
0.877389
0.849927
0.832187
1.10595
1.09327
1.08663
1.08298
1.07836
1.06997
1.05611
1.03652
1.01133
0.980757
0.945643
0.908576
0.874416
0.846317
0.828264
1.10817
1.09436
1.08683
1.08271
1.07793
1.06959
1.05587
1.03641
1.01119
0.980249
0.944412
0.906413
0.871372
0.842637
0.82428
1.11046
1.09546
1.08699
1.08236
1.07742
1.06913
1.05556
1.03625
1.01099
0.979673
0.943083
0.904127
0.868197
0.83884
0.820206
1.1128
1.09656
1.08711
1.08195
1.07684
1.0686
1.05519
1.03605
1.01077
0.979073
0.941707
0.901772
0.864944
0.83497
0.816073
1.1152
1.09766
1.08718
1.08147
1.07617
1.06798
1.05475
1.03579
1.0105
0.978397
0.940223
0.899283
0.861553
0.830981
0.811853
1.11765
1.09876
1.08721
1.08093
1.07543
1.06728
1.05425
1.0355
1.0102
0.977691
0.938684
0.896718
0.858076
0.826916
0.807574
1.12017
1.09986
1.0872
1.0803
1.07459
1.0665
1.05367
1.03515
1.00985
0.9769
0.937025
0.894007
0.854455
0.822728
0.80321
1.12274
1.10096
1.08714
1.07962
1.07368
1.06564
1.05304
1.03476
1.00946
0.976071
0.935301
0.89121
0.850741
0.818461
0.79879
1.12537
1.10206
1.08704
1.07886
1.07268
1.06469
1.05233
1.03431
1.00902
0.975146
0.933444
0.888256
0.846875
0.81407
0.794289
1.12806
1.10315
1.08689
1.07803
1.0716
1.06367
1.05156
1.03383
1.00854
0.974177
0.931513
0.885205
0.842909
0.809596
0.789733
1.1308
1.10425
1.0867
1.07713
1.07043
1.06255
1.05071
1.03328
1.00799
0.973102
0.929435
0.881986
0.838782
0.804996
0.785101
1.1336
1.10534
1.08647
1.07617
1.06919
1.06136
1.0498
1.03269
1.00741
0.971974
0.927272
0.87866
0.834549
0.800309
0.780417
1.13645
1.10643
1.08619
1.07513
1.06785
1.06007
1.04881
1.03204
1.00675
0.97073
0.924949
0.875152
0.830147
0.795495
0.775662
1.13934
1.10752
1.08587
1.07403
1.06643
1.05871
1.04776
1.03135
1.00606
0.969424
0.922529
0.871526
0.825631
0.790592
0.770858
1.14229
1.10861
1.08551
1.07286
1.06492
1.05725
1.04663
1.0306
1.00528
0.967988
0.919934
0.867705
0.820939
0.785562
0.76599
1.14529
1.10969
1.08511
1.07162
1.06333
1.05572
1.04545
1.02981
1.00446
0.966482
0.917229
0.863753
0.816126
0.780442
0.761078
1.14833
1.11078
1.08466
1.07031
1.06165
1.05409
1.04418
1.02894
1.00355
0.964834
0.914333
0.859593
0.81113
0.775197
0.756109
1.15141
1.11186
1.08418
1.06894
1.05989
1.05239
1.04286
1.02805
1.0026
0.963104
0.911313
0.855289
0.806004
0.76986
0.751101
1.15453
1.11294
1.08366
1.0675
1.05803
1.05059
1.04146
1.02709
1.00154
0.961218
0.908086
0.850765
0.80069
0.764401
0.746047
1.15769
1.11401
1.08311
1.06601
1.05611
1.04872
1.04001
1.02609
1.00044
0.959239
0.904719
0.846083
0.795239
0.758851
0.740962
1.16088
1.11509
1.08251
1.06444
1.05409
1.04676
1.03849
1.02503
0.999234
0.957089
0.901127
0.841167
0.789595
0.753181
0.735842
1.16411
1.11617
1.08189
1.06282
1.05199
1.04473
1.03691
1.02394
0.997974
0.954832
0.897379
0.83608
0.783808
0.747422
0.7307
1.16736
1.11725
1.08123
1.06113
1.04981
1.04261
1.03526
1.02277
0.996598
0.952387
0.893388
0.830747
0.777825
0.741549
0.725537
1.17064
1.11834
1.08055
1.0594
1.04755
1.04043
1.03357
1.02158
0.995162
0.94982
0.889224
0.825229
0.771695
0.73559
0.720364
1.17395
1.11943
1.07983
1.0576
1.04521
1.03816
1.0318
1.02032
0.993601
0.947048
0.884798
0.819453
0.765366
0.729524
0.715184
1.17726
1.12054
1.07909
1.05575
1.04279
1.03583
1.03
1.01904
0.991974
0.944137
0.880181
0.813477
0.758887
0.723378
0.710007
1.18061
1.12165
1.07833
1.05385
1.04029
1.03341
1.02813
1.01769
0.990209
0.941001
0.875284
0.807233
0.752211
0.717133
0.704842
1.18396
1.12279
1.07755
1.05191
1.03773
1.03094
1.02623
1.01632
0.988368
0.937708
0.870177
0.800776
0.745384
0.710814
0.699695
1.18732
1.12394
1.07675
1.04991
1.03508
1.02839
1.02427
1.01488
0.986379
0.93417
0.864773
0.79404
0.738362
0.704407
0.694578
1.19069
1.12512
1.07593
1.04788
1.03236
1.0258
1.02228
1.01342
0.984303
0.930454
0.859139
0.787081
0.73119
0.697934
0.689495
1.19407
1.12633
1.0751
1.04581
1.02957
1.02313
1.02024
1.0119
0.982066
0.926473
0.853192
0.779836
0.723829
0.691388
0.68446
1.19744
1.12757
1.07427
1.0437
1.02672
1.02041
1.01819
1.01036
0.97973
0.922293
0.846996
0.772357
0.716321
0.684786
0.679475
1.20082
1.12885
1.07342
1.04156
1.0238
1.01763
1.01609
1.00875
0.977217
0.917825
0.84047
0.764587
0.70863
0.678127
0.674558
1.20419
1.13017
1.07258
1.03939
1.02083
1.01482
1.01399
1.00713
0.974593
0.913137
0.833679
0.756576
0.700798
0.671425
0.669708
1.20757
1.13154
1.07174
1.0372
1.01779
1.01195
1.01186
1.00544
0.971775
0.90814
0.826542
0.74827
0.692793
0.664683
0.664946
1.21094
1.13297
1.07091
1.03499
1.0147
1.00906
1.00973
1.00375
0.968829
0.9029
0.819123
0.739718
0.684655
0.657913
0.660272
1.2143
1.13444
1.07008
1.03276
1.01156
1.00611
1.00758
1.00198
0.965673
0.897328
0.811345
0.730872
0.676356
0.651123
0.655707
1.21765
1.13598
1.06927
1.03052
1.00837
1.00316
1.00546
1.0002
0.962373
0.891491
0.803271
0.721776
0.667934
0.644321
0.651249
1.22099
1.13758
1.06848
1.02828
1.00514
1.00017
1.00333
0.998355
0.958842
0.8853
0.794827
0.712389
0.659367
0.637521
0.64692
1.22432
1.13925
1.06772
1.02604
1.00189
0.997186
1.00124
0.996499
0.955148
0.878821
0.786074
0.702754
0.650688
0.630729
0.642717
1.22764
1.14098
1.06699
1.02381
0.998589
0.994179
0.99916
0.994564
0.951203
0.871967
0.776941
0.692833
0.64188
0.623962
0.638664
1.23094
1.1428
1.0663
1.0216
0.99528
0.991196
0.997145
0.992619
0.947071
0.864801
0.767488
0.682668
0.632977
0.617225
0.634755
1.23422
1.14468
1.06565
1.0194
0.991945
0.98821
0.995157
0.990591
0.942667
0.85724
0.757649
0.672228
0.623964
0.610539
0.631017
1.23749
1.14664
1.06506
1.01724
0.988612
0.985268
0.993255
0.988548
0.938051
0.849345
0.747482
0.661552
0.614874
0.603907
0.627443
1.24073
1.14868
1.06453
1.01511
0.98527
0.982347
0.9914
0.986412
0.933137
0.841036
0.736924
0.650614
0.605697
0.597352
0.624058
1.24395
1.1508
1.06407
1.01303
0.981946
0.979495
0.989653
0.98425
0.927984
0.83237
0.726033
0.639452
0.596463
0.590878
0.620852
1.24715
1.153
1.06369
1.011
0.978632
0.97669
0.987974
0.981984
0.922504
0.823271
0.714751
0.628046
0.587169
0.584513
0.617852
1.25032
1.15529
1.06341
1.00905
0.975354
0.973984
0.986425
0.979676
0.916753
0.813793
0.703133
0.616433
0.577843
0.578261
0.61505
1.25345
1.15765
1.06322
1.00716
0.972105
0.971356
0.984965
0.977245
0.910645
0.803866
0.691127
0.604596
0.568486
0.572151
0.612471
1.25655
1.16011
1.06315
1.00535
0.968915
0.968862
0.983655
0.974752
0.90423
0.793539
0.678784
0.592573
0.559127
0.566184
0.610109
1.25961
1.16265
1.06319
1.00364
0.965777
0.966482
0.982451
0.97211
0.897424
0.782746
0.666059
0.580353
0.54977
0.560393
0.607993
1.26262
1.16528
1.06337
1.00203
0.96272
0.964274
0.981414
0.969375
0.890273
0.771535
0.653003
0.567971
0.540444
0.55478
0.606115
1.26557
1.168
1.06369
1.00051
0.959741
0.962221
0.980496
0.966458
0.882691
0.759842
0.639573
0.555422
0.531159
0.549376
0.604501
1.26847
1.17081
1.06417
0.999127
0.956869
0.960384
0.979754
0.963407
0.874723
0.747713
0.62582
0.542743
0.521943
0.544187
0.60314
1.27128
1.1737
1.0648
0.997852
0.9541
0.958745
0.979137
0.96013
0.866283
0.73509
0.611709
0.529931
0.51281
0.539245
0.602059
1.27403
1.17669
1.06559
0.996711
0.951467
0.957368
0.978697
0.956668
0.857411
0.722016
0.597288
0.517026
0.50379
0.534555
0.601254
1.27667
1.17975
1.06656
0.995691
0.948966
0.95624
0.978376
0.952925
0.848023
0.708437
0.582528
0.504031
0.494902
0.53015
0.600754
1.27922
1.18291
1.0677
0.994811
0.946633
0.955425
0.978224
0.948935
0.838158
0.694395
0.567478
0.490984
0.486177
0.526035
0.600551
1.28163
1.18614
1.06901
0.994057
0.944467
0.95491
0.978172
0.944599
0.827734
0.679845
0.552118
0.477897
0.477637
0.522247
0.600675
1.28393
1.18945
1.07051
0.99344
0.942504
0.954763
0.978262
0.939942
0.816787
0.664827
0.536496
0.46481
0.469315
0.518789
0.601117
1.28605
1.19282
1.07216
0.992946
0.940747
0.954971
0.978417
0.934861
0.805238
0.6493
0.5206
0.451739
0.46124
0.515697
0.601906
1.28802
1.19626
1.07399
0.992584
0.939236
0.955602
0.978668
0.929375
0.793122
0.633306
0.50448
0.438728
0.453445
0.512978
0.603032
1.28978
1.19974
1.07597
0.992334
0.937977
0.956644
0.978927
0.923378
0.780365
0.616813
0.488135
0.425802
0.445964
0.510665
0.604523
1.29134
1.20327
1.0781
0.992202
0.937012
0.95816
0.979211
0.91688
0.767002
0.599864
0.471618
0.413007
0.438831
0.508768
0.606367
1.29262
1.20682
1.08035
0.992166
0.936352
0.960134
0.979416
0.909774
0.752965
0.582436
0.454938
0.400376
0.432088
0.507319
0.608591
1.29367
1.21039
1.08273
0.992228
0.936042
0.962625
0.979543
0.902064
0.73829
0.564576
0.438155
0.387963
0.425771
0.506328
0.61118
1.29438
1.21395
1.08518
0.992363
0.936097
0.965605
0.979473
0.893641
0.722917
0.546273
0.421292
0.375811
0.419925
0.505827
0.614162
1.29478
1.2175
1.08772
0.992572
0.936563
0.969122
0.979186
0.884503
0.706884
0.527578
0.404415
0.363979
0.414589
0.505824
0.617518
1.29478
1.221
1.09029
0.99283
0.937455
0.973133
0.978542
0.87454
0.690142
0.508494
0.387562
0.352522
0.409814
0.506354
0.621276
1.29441
1.22444
1.09289
0.993134
0.938819
0.977663
0.977499
0.86375
0.672731
0.489078
0.37081
0.341506
0.405641
0.507422
0.625415
1.29355
1.22779
1.09546
0.993461
0.940668
0.982643
0.975897
0.852026
0.654615
0.46935
0.354213
0.330999
0.402125
0.509063
0.629961
1.29223
1.23103
1.098
0.99381
0.943039
0.988065
0.973668
0.839366
0.635841
0.449377
0.33786
0.321075
0.399306
0.51128
0.63489
1.29032
1.23412
1.10045
0.994158
0.945929
0.993812
0.970629
0.825671
0.616387
0.429196
0.32182
0.311815
0.397245
0.514108
0.640226
1.28787
1.23706
1.10281
0.994508
0.949356
0.999821
0.96669
0.810945
0.596313
0.408887
0.306196
0.303296
0.39598
0.517547
0.645942
1.28474
1.23981
1.10502
0.994841
0.95329
1.0059
0.961647
0.795111
0.575616
0.388508
0.291072
0.295611
0.395571
0.521631
0.652057
1.28096
1.24235
1.10708
0.995168
0.957704
1.01189
0.955383
0.778193
0.554379
0.368155
0.276558
0.288836
0.396051
0.526354
0.658541
1.27639
1.24465
1.10894
0.995486
0.962517
1.01746
0.947681
0.760159
0.532638
0.34791
0.262745
0.283063
0.397471
0.531743
0.665408
1.2711
1.24673
1.11061
0.995839
0.967639
1.02221
0.938381
0.741092
0.510532
0.327903
0.249751
0.278356
0.399848
0.537778
0.672618
1.26492
1.24854
1.11206
0.996296
0.973006
1.02552
0.927206
0.721021
0.488174
0.308272
0.237682
0.2748
0.403213
0.544474
0.680171
1.25795
1.25014
1.11331
0.996939
0.978625
1.02665
0.913939
0.700073
0.465761
0.289201
0.226676
0.272451
0.407564
0.551795
0.688019
1.25003
1.25166
1.11439
0.997682
0.98431
1.02487
0.898377
0.678333
0.443436
0.270861
0.216856
0.271392
0.412914
0.559743
0.696156
1.24134
1.25335
1.11524
0.998228
0.989455
1.01979
0.880631
0.656034
0.421398
0.253424
0.208347
0.271664
0.419248
0.568274
0.704524
1.23191
1.25525
1.11555
0.998143
0.993103
1.0113
0.861049
0.63343
0.399797
0.23704
0.201242
0.273324
0.426563
0.577379
0.713106
1.22218
1.25686
1.11484
0.997138
0.994377
0.999598
0.840261
0.610918
0.378859
0.221875
0.19564
0.276385
0.434821
0.586998
0.721837
1.21226
1.25708
1.11242
0.994826
0.992579
0.984847
0.818903
0.588886
0.358805
0.208129
0.191647
0.280893
0.444004
0.597108
0.730695
1.20241
1.25507
1.10713
0.990261
0.987157
0.96731
0.797575
0.567761
0.339945
0.196059
0.189411
0.286868
0.454071
0.607641
0.739612
1.19236
1.25045
1.09739
0.981629
0.977807
0.947457
0.776695
0.547834
0.32254
0.185942
0.189083
0.294374
0.465008
0.618571
0.748568
1.18196
1.24303
1.08115
0.966716
0.96469
0.926367
0.756692
0.529339
0.306841
0.178027
0.190798
0.303418
0.476767
0.629824
0.757506
1.17021
1.23282
1.05595
0.944707
0.948532
0.905535
0.738048
0.512421
0.29302
0.17251
0.194626
0.314
0.489296
0.641352
0.766396
1.15679
1.22121
1.02176
0.918084
0.930992
0.886561
0.721365
0.497289
0.28129
0.169535
0.200573
0.326012