/*--------------------------------*- C++ -*----------------------------------*\
  =========                 |
  \\      /  F ield         | OpenFOAM: The Open Source CFD Toolbox
   \\    /   O peration     | Website:  https://openfoam.org
    \\  /    A nd           | Version:  6.0
     \\/     M anipulation  |
\*---------------------------------------------------------------------------*/
FoamFile
{
    version     2.0;
    format      ascii;
    class       surfaceScalarField;
    location    "13";
    object      phi;
}
// * * * * * * * * * * * * * * * * * * * * * * * * * * * * * * * * * * * * * //

dimensions      [0 3 -1 0 0 0 0];

internalField   nonuniform List<scalar> 
93586
(
2.34628e-05
0.00154659
2.20454e-08
4.72531e-05
0.00154193
7.11645e-05
0.00153312
9.50179e-05
0.00152023
0.000118669
0.00150328
0.00014203
0.00148229
0.000165028
0.00145729
0.000187609
0.00142832
0.000209719
0.00139541
0.000231296
0.00135865
0.000252275
0.00131811
0.000272588
0.00127394
0.000292168
0.00122626
0.000310949
0.00117522
0.000328875
0.00112097
0.000345891
0.00106364
0.000361951
0.00100338
0.00037701
0.000940331
0.000391028
0.000874664
0.000403965
0.000806553
0.000415787
0.000736182
0.000426459
0.00066375
0.000435951
0.000589458
0.000444233
0.000513515
0.000451284
0.000436121
0.000457081
0.00035748
0.000461579
0.00027779
0.000465046
0.000197023
0.000466706
0.000115609
3.59823e-05
0.000461414
2.31389e-05
0.0015235
-3.28353e-08
4.65335e-05
0.00151855
7.00357e-05
0.00150963
9.34752e-05
0.00149681
0.00011672
0.00148006
0.000139692
0.00145935
0.000162325
0.00143469
0.000184565
0.00140611
0.000206354
0.00137366
0.000227623
0.00133741
0.000248302
0.00129746
0.000268319
0.00125395
0.000287606
0.001207
0.0003061
0.00115676
0.000323748
0.00110335
0.000340499
0.00104691
0.00035631
0.000987592
0.000371138
0.00092553
0.000384944
0.000860887
0.000397689
0.000793837
0.00040934
0.000724564
0.00041986
0.000653263
0.00042922
0.000580135
0.000437391
0.000505382
0.000444348
0.000429206
0.000450073
0.000351799
0.000454531
0.000273381
0.000457704
0.000193904
0.000459467
0.000113907
3.5329e-05
0.0004602
2.27589e-05
0.0015008
-6.17944e-08
4.5738e-05
0.00149557
6.88291e-05
0.00148654
9.18724e-05
0.00147378
0.000114744
0.00145719
0.000137368
0.00143674
0.000159676
0.00141239
0.000181607
0.00138419
0.000203093
0.00135218
0.000224063
0.00131644
0.000244441
0.00127709
0.000264158
0.00123424
0.000283149
0.00118801
0.000301356
0.00113855
0.000318729
0.00108598
0.000335221
0.00103042
0.000350791
0.000972024
0.000365396
0.000910925
0.000378999
0.000847284
0.00039156
0.000781275
0.000403044
0.000713079
0.000413416
0.000642888
0.000422646
0.000570902
0.000430704
0.000497319
0.000437566
0.000422338
0.000443207
0.000346149
0.000447605
0.000268974
0.000450707
0.00019079
0.000452536
0.000112063
3.53925e-05
0.000452438
2.23646e-05
0.00147852
-6.55936e-08
4.49457e-05
0.00147301
6.76496e-05
0.00146385
9.03239e-05
0.00145113
0.000112848
0.00143469
0.000135145
0.00141447
0.000157138
0.00139042
0.00017876
0.0013626
0.000199939
0.00133103
0.0002206
0.00129581
0.000240669
0.00125705
0.000260079
0.00121485
0.000278771
0.00116935
0.00029669
0.00112066
0.000313791
0.0010689
0.000330028
0.00101421
0.000345361
0.000956719
0.000359748
0.000896565
0.000373151
0.000833911
0.000385528
0.000768926
0.000396847
0.000701792
0.000407069
0.000632698
0.000416165
0.00056184
0.000424105
0.000489415
0.000430864
0.000415618
0.000436414
0.00034064
0.000440729
0.000264704
0.000443771
0.000187797
0.000445553
0.000110337
3.53525e-05
0.000445668
2.19807e-05
0.0014566
-5.60889e-08
4.41892e-05
0.0014508
6.65302e-05
0.00144151
8.88553e-05
0.00142881
0.000111045
0.0014125
0.000133018
0.0013925
0.000154694
0.00136875
0.000176
0.0013413
0.000196862
0.00131017
0.000217205
0.00127547
0.000236958
0.0012373
0.000256059
0.00119575
0.000274454
0.00115095
0.000292089
0.00110302
0.000308923
0.00105207
0.00032491
0.000998222
0.000340012
0.000941614
0.000354184
0.000882388
0.00036739
0.000820701
0.000379587
0.000756723
0.000390741
0.000690632
0.000400815
0.000622615
0.000409779
0.000552867
0.000417601
0.000481581
0.000424259
0.000408949
0.000429722
0.000335162
0.000433968
0.000260442
0.000436946
0.000184799
0.000438743
0.000108517
3.47403e-05
0.000439313
2.16126e-05
0.00143504
-4.46742e-08
4.34687e-05
0.00142896
6.54641e-05
0.00141953
8.74519e-05
0.00140684
0.000109313
0.00139066
0.000130962
0.00137088
0.000152316
0.00134742
0.000173299
0.00132034
0.000193839
0.00128965
0.000213861
0.00125547
0.0002333
0.00121788
0.000252095
0.00117698
0.000270197
0.00113288
0.000287556
0.00108569
0.00030413
0.00103552
0.000319875
0.000982502
0.000334752
0.000926764
0.000348715
0.00086845
0.000361728
0.000807715
0.000373748
0.000744729
0.000384741
0.000679668
0.000394669
0.000612716
0.000403503
0.000544065
0.000411212
0.000473904
0.000417771
0.000402425
0.000423154
0.000329817
0.000427339
0.000256299
0.000430271
0.000181913
0.000432039
0.000106801
3.40425e-05
0.000432809
2.12592e-05
0.00141381
-3.167e-08
4.27775e-05
0.00140744
6.44384e-05
0.00139787
8.60957e-05
0.00138518
0.00010763
0.00136912
0.000128954
0.00134955
0.000149983
0.00132639
0.000170642
0.00129968
0.000190859
0.00126943
0.000210563
0.00123577
0.000229691
0.00119875
0.000248189
0.00115848
0.000266007
0.00111506
0.000283098
0.00106859
0.000299421
0.00101919
0.000314931
0.000966985
0.000329588
0.0009121
0.000343348
0.000854681
0.000356172
0.000794883
0.000368019
0.000732872
0.000378853
0.000668824
0.000388638
0.000602919
0.000397343
0.000535347
0.000404939
0.000466293
0.000411401
0.000395947
0.000416704
0.000324495
0.000420827
0.000252154
0.000423721
0.000178994
0.000425435
0.000105059
3.3235e-05
0.000426193
2.09182e-05
0.00139292
-1.18078e-08
4.21089e-05
0.00138626
6.34427e-05
0.00137655
8.47737e-05
0.00136387
0.000105983
0.00134793
0.000126981
0.00132858
0.000147686
0.0013057
0.000168021
0.00127937
0.000187918
0.00124956
0.000207308
0.0012164
0.000226135
0.00117995
0.000244343
0.00114029
0.000261886
0.00109754
0.000278718
0.00105178
0.000294797
0.00100314
0.000310078
0.000951726
0.000324522
0.000897681
0.000338082
0.000841144
0.000350721
0.000782269
0.000362396
0.000721222
0.000373073
0.000658175
0.000382714
0.000593305
0.000391292
0.0005268
0.000398774
0.000458842
0.000405138
0.000389617
0.000410358
0.000319311
0.000414417
0.000248136
0.000417273
0.000176182
0.000418936
0.000103447
3.26354e-05
0.000419605
2.0588e-05
0.00137232
7.81053e-09
4.14582e-05
0.00136539
6.24696e-05
0.00135554
8.34771e-05
0.00134286
0.000104363
0.00132704
0.000125036
0.0013079
0.000145418
0.00128532
0.000165432
0.00125935
0.000185014
0.00122997
0.000204099
0.00119731
0.000222631
0.00116141
0.000240558
0.00112236
0.000257835
0.00108025
0.000274415
0.00103519
0.000290257
0.000987286
0.000305316
0.000936658
0.00031955
0.000883438
0.000332914
0.000827769
0.000345369
0.000769803
0.000356874
0.000709704
0.000367394
0.000647642
0.000376892
0.000583791
0.000385341
0.000518336
0.000392709
0.000451455
0.000398974
0.000383333
0.00040411
0.000314152
0.000408103
0.000244119
0.000410918
0.000173338
0.000412539
0.000101794
3.20074e-05
0.000413114
2.02667e-05
0.00135204
2.10919e-08
4.08211e-05
0.00134485
6.15136e-05
0.00133486
8.21999e-05
0.00132219
0.000102763
0.00130649
0.000123115
0.00128757
0.000143177
0.00126528
0.000162876
0.00123968
0.000182149
0.00121072
0.000200936
0.00117855
0.000219182
0.00114319
0.000236836
0.00110473
0.000253855
0.00106326
0.00027019
0.00101888
0.000285801
0.000971698
0.000300641
0.00092184
0.000314668
0.000869434
0.000327838
0.000814621
0.000340111
0.000757554
0.000351446
0.000698393
0.000361809
0.000637305
0.000371165
0.000574462
0.000379484
0.000510046
0.000386738
0.000444231
0.000392903
0.0003772
0.000397956
0.000309134
0.000401881
0.000240233
0.000404651
0.000170609
0.000406238
0.000100255
3.15732e-05
0.000406741
1.99529e-05
0.00133206
2.69707e-08
4.01949e-05
0.0013246
6.05713e-05
0.00131448
8.09389e-05
0.00130182
0.000101184
0.00128625
0.000121217
0.00126753
0.000140964
0.00124553
0.000160353
0.00122028
0.000179326
0.00119174
0.000197822
0.00116005
0.00021579
0.00112521
0.00023318
0.00108733
0.000249947
0.00104648
0.000266043
0.00100277
0.000281426
0.000956305
0.00029605
0.000907205
0.000309873
0.0008556
0.00032285
0.000801631
0.000334942
0.000745449
0.000346108
0.000687212
0.000356315
0.000627084
0.000365527
0.000565233
0.000373717
0.000501838
0.000380856
0.000437072
0.000386922
0.000371113
0.000391891
0.000304141
0.000395748
0.000236349
0.000398471
0.000167855
0.000400029
9.86635e-05
3.10651e-05
0.00040048
1.96452e-05
0.0013124
2.99975e-08
3.95779e-05
0.00130468
5.9641e-05
0.00129443
7.96934e-05
0.00128178
9.96229e-05
0.00126633
0.000119343
0.00124783
0.000138781
0.00122611
0.000157868
0.00120122
0.000176548
0.00117308
0.000194762
0.00114185
0.000212459
0.00110754
0.00022959
0.00107022
0.00024611
0.00102998
0.000261971
0.00098693
0.000277131
0.000941167
0.000291542
0.000892815
0.000305162
0.000842002
0.000317947
0.000788868
0.000329859
0.000733561
0.000340856
0.000676238
0.000350907
0.000617059
0.000359976
0.000556189
0.000368037
0.000493805
0.000375061
0.000430076
0.000381027
0.000365178
0.000385912
0.000299289
0.000389702
0.000232598
0.000392376
0.000165222
0.000393906
9.7181e-05
3.07117e-05
0.000394326
1.93428e-05
0.00129302
2.9771e-08
3.89693e-05
0.00128505
5.87227e-05
0.00127467
7.84638e-05
0.00126204
9.80833e-05
0.00124671
0.000117496
0.00122842
0.000136632
0.00120697
0.000155424
0.00118242
0.000173818
0.00115468
0.000191756
0.00112391
0.00020919
0.0010901
0.000226068
0.00105333
0.000242346
0.0010137
0.000257975
0.000971289
0.000272913
0.000926218
0.000287112
0.000878603
0.000300532
0.00082857
0.000313125
0.000776259
0.000324857
0.000721816
0.000335686
0.000665392
0.000345581
0.000607148
0.000354507
0.000547244
0.000362439
0.000485854
0.000369349
0.000423145
0.000375216
0.000359288
0.000380018
0.000294461
0.000383741
0.000228847
0.000386365
0.000162564
0.000387868
9.56414e-05
3.02543e-05
0.000388266
1.90454e-05
0.00127396
2.49975e-08
3.83692e-05
0.00126574
5.7817e-05
0.00125523
7.72516e-05
0.00124262
9.65665e-05
0.00122741
0.000115678
0.00120932
0.000134518
0.00118814
0.000153023
0.00116393
0.000171138
0.00113659
0.000188808
0.00110625
0.000205982
0.00107294
0.000222612
0.00103672
0.000238651
0.000997676
0.000254052
0.000955907
0.00026877
0.000911521
0.000282759
0.000864633
0.000295978
0.000815373
0.000308381
0.000763876
0.000319933
0.000710286
0.000330595
0.000654753
0.000340334
0.000597433
0.000349118
0.000538484
0.000356922
0.000478077
0.000363718
0.000416376
0.000369487
0.000353551
0.000374206
0.000289774
0.000377862
0.000225228
0.000380437
0.000160028
0.000381913
9.4211e-05
2.99351e-05
0.000382298
1.87528e-05
0.00125519
1.77324e-08
3.77778e-05
0.00124671
5.69248e-05
0.00123608
7.60584e-05
0.00122348
9.50747e-05
0.00120838
0.000113892
0.0011905
0.000132444
0.00116958
0.000150667
0.0011457
0.00016851
0.00111874
0.000185916
0.00108884
0.000202837
0.00105601
0.000219221
0.00102032
0.000235025
0.000981862
0.000250198
0.000940721
0.000264699
0.000897009
0.000278478
0.00085084
0.000291497
0.000802342
0.000303711
0.000751647
0.000315084
0.000698898
0.000325578
0.000644241
0.000335163
0.000587831
0.000343806
0.000529821
0.000351482
0.000470381
0.000358166
0.00040967
0.000363837
0.000347855
0.000368474
0.000285108
0.000372065
0.000221608
0.000374592
0.000157467
0.000376042
9.27228e-05
2.95015e-05
0.000376414
1.84648e-05
0.00123672
1.13743e-08
3.71957e-05
0.00122799
5.6047e-05
0.00121724
7.48853e-05
0.00120465
9.36093e-05
0.00118967
0.000112138
0.00117198
0.000130408
0.00115133
0.000148357
0.00112777
0.000165933
0.00110118
0.00018308
0.00107171
0.000199751
0.00103936
0.000215894
0.0010042
0.000231464
0.000966311
0.000246411
0.000925791
0.000260695
0.000882745
0.000274266
0.000837287
0.000287086
0.000789542
0.00029911
0.000739641
0.000310306
0.000687724
0.000320634
0.000633935
0.000330065
0.000578423
0.000338567
0.000521342
0.000346118
0.000462857
0.00035269
0.000403125
0.000358265
0.00034231
0.000362822
0.000280583
0.000366348
0.000218117
0.000368829
0.000155025
0.000370252
9.13441e-05
2.92017e-05
0.000370616
1.81814e-05
0.00121853
7.30923e-09
3.66232e-05
0.00120954
5.51844e-05
0.00119867
7.37334e-05
0.0011861
9.21713e-05
0.00117123
0.000110418
0.00115373
0.000128412
0.00113333
0.000146091
0.00111008
0.000163405
0.00108385
0.000180298
0.00105481
0.000196722
0.00102293
0.000212625
0.000988284
0.000227963
0.000950962
0.000242687
0.000911054
0.000256755
0.000868665
0.000270118
0.000823909
0.00028274
0.000776906
0.000294577
0.000727788
0.000305596
0.000676689
0.000315759
0.000623753
0.000325038
0.000569126
0.000333402
0.000512957
0.000340827
0.00045541
0.000347289
0.000396639
0.000352769
0.000336805
0.000357248
0.000276075
0.000360712
0.000214623
0.000363146
0.000152554
0.000364544
8.99067e-05
2.87845e-05
0.000364898
1.79026e-05
0.00120063
4.67823e-09
3.60607e-05
0.00119139
5.43375e-05
0.00118041
7.26029e-05
0.00116784
9.07605e-05
0.00115308
0.000108731
0.00113577
0.000126455
0.00111562
0.000143869
0.00109268
0.000160925
0.00106682
0.000177567
0.00103818
0.000193746
0.00100676
0.000209412
0.000972635
0.000224521
0.000935872
0.000239022
0.00089657
0.000252875
0.000854832
0.000266032
0.000810769
0.000278458
0.000764501
0.000290108
0.000716156
0.000300952
0.000665867
0.000310951
0.000613774
0.00032008
0.000560021
0.000328306
0.000504753
0.000335609
0.000448133
0.000341963
0.000390311
0.00034735
0.000331447
0.000351751
0.000271705
0.000355154
0.000211254
0.000357545
0.000150201
0.000358917
8.85784e-05
2.85e-05
0.000359264
1.76285e-05
0.001183
3.93501e-09
3.55082e-05
0.0011735
5.35062e-05
0.0011624
7.14939e-05
0.00114985
8.93767e-05
0.00113519
0.000107077
0.00111806
0.000124535
0.00109815
0.000141688
0.00107552
0.00015849
0.00105
0.000174884
0.00102178
0.000190821
0.000990817
0.000206252
0.000957191
0.000221132
0.00092098
0.000235412
0.000882276
0.000249052
0.000841179
0.000262005
0.0007978
0.000274235
0.000752256
0.000285701
0.000704673
0.000296371
0.000655181
0.000306209
0.000603917
0.000315189
0.000551022
0.00032328
0.00049664
0.000330462
0.000440929
0.000336709
0.000384039
0.000342005
0.000326125
0.000346331
0.000267349
0.000349675
0.000207878
0.000352024
0.000147815
0.000353371
8.71899e-05
2.80969e-05
0.00035371
1.73588e-05
0.00116564
5.71249e-09
3.49656e-05
0.00115591
5.26904e-05
0.00114469
7.04057e-05
0.00113214
8.80189e-05
0.00111759
0.000105453
0.00110064
0.000122649
0.00108097
0.000139547
0.00105863
0.000156098
0.00103347
0.000172245
0.00100564
0.000187944
0.000975135
0.000203141
0.000942009
0.000217794
0.000906345
0.000231855
0.000868231
0.000245283
0.000827769
0.000258033
0.000785067
0.00027007
0.000740238
0.000281354
0.000693408
0.000291852
0.000644703
0.000301531
0.000594258
0.000310364
0.000542211
0.000318323
0.000488703
0.000325386
0.000433892
0.000331529
0.000377921
0.000336736
0.000320947
0.000340988
0.000263127
0.000344275
0.000204626
0.000346582
0.000145544
0.000347905
8.59091e-05
2.78252e-05
0.000348238
1.70938e-05
0.00114853
9.65113e-09
3.44329e-05
0.00113856
5.18895e-05
0.00112722
6.93375e-05
0.00111469
8.66859e-05
0.00110024
0.000103858
0.00108346
0.000120797
0.00106402
0.000137441
0.00104198
0.000153744
0.00101716
0.000169649
0.000989727
0.00018511
0.000959664
0.000200076
0.00092703
0.000214504
0.000891904
0.000228347
0.000854374
0.000241566
0.000814537
0.000254116
0.000772501
0.000265962
0.000728377
0.000277064
0.000682287
0.000287394
0.000634356
0.000296916
0.000584716
0.000305605
0.000533502
0.000313433
0.000480853
0.000320379
0.000426923
0.00032642
0.000371855
0.00033154
0.0003158
0.000335721
0.000258915
0.000338952
0.000201362
0.00034122
0.000143238
0.00034252
8.45661e-05
2.74336e-05
0.000342846
1.6833e-05
0.00113169
1.44175e-08
3.39096e-05
0.00112149
5.11029e-05
0.00111004
6.82882e-05
0.00109751
8.53761e-05
0.00108316
0.000102291
0.00106656
0.000118976
0.00104735
0.00013537
0.00102559
0.000151427
0.00100111
0.000167091
0.000974076
0.000182317
0.000944454
0.000197054
0.000912308
0.00021126
0.000877715
0.000224887
0.000840762
0.000237899
0.000801544
0.00025025
0.000760166
0.000261907
0.000716738
0.000272832
0.00067138
0.000282995
0.000624213
0.000292362
0.000575367
0.00030091
0.000524976
0.00030861
0.000473175
0.000315442
0.000420115
0.000321383
0.000365938
0.000326418
0.000310793
0.000330529
0.000254833
0.000333706
0.000198219
0.000335936
0.000141044
0.000337215
8.33293e-05
2.71717e-05
0.000337536
1.65766e-05
0.00111509
1.95201e-08
3.33953e-05
0.00110466
5.03299e-05
0.0010931
6.72568e-05
0.00108058
8.40882e-05
0.00106632
0.000100749
0.00104989
0.000117183
0.00103091
0.00013333
0.00100944
0.000149145
0.000985289
0.00016457
0.000958638
0.000179564
0.00092945
0.000194073
0.000897785
0.000208059
0.000863717
0.000221473
0.000827332
0.00023428
0.000788724
0.000246435
0.000747994
0.000257907
0.000705251
0.000268656
0.000660612
0.000278655
0.000614196
0.000287871
0.000566131
0.00029628
0.000516547
0.000303854
0.000465577
0.000310574
0.000413372
0.000316418
0.000360068
0.00032137
0.000305813
0.000325413
0.000250759
0.000328538
0.000195061
0.000330731
0.000138812
0.000331989
8.2028e-05
2.67886e-05
0.000332305
1.63242e-05
0.00109875
2.46964e-08
3.28895e-05
0.00108811
4.95697e-05
0.00107643
6.62421e-05
0.00106391
8.28206e-05
0.00104975
9.92302e-05
0.00103349
0.000115417
0.00101473
0.00013132
0.000993545
0.000146894
0.000969729
0.000162084
0.000943461
0.000176847
0.000914703
0.000191132
0.000883514
0.0002049
0.000849966
0.000218104
0.000814143
0.000230708
0.000776137
0.00024267
0.000736047
0.000253959
0.000693981
0.000264535
0.000650052
0.000274374
0.000604377
0.000283441
0.000557083
0.000291713
0.000508296
0.000299164
0.000458147
0.000305775
0.000406785
0.000311523
0.000354345
0.000316395
0.00030097
0.000320372
0.00024681
0.000323446
0.00019202
0.000325603
0.00013669
0.000326841
8.08309e-05
2.65335e-05
0.000327155
1.60758e-05
0.00108264
2.96667e-08
3.23919e-05
0.00107178
4.88214e-05
0.00105999
6.52431e-05
0.00104748
8.15722e-05
0.00103341
9.77343e-05
0.00101731
0.000113676
0.000998781
0.000129338
0.000977871
0.000144675
0.000954382
0.000159631
0.000928491
0.000174166
0.000900157
0.00018823
0.000869437
0.000201782
0.000836401
0.000214778
0.000801131
0.000227183
0.000763718
0.000238955
0.000724258
0.000250063
0.000682857
0.00026047
0.000639625
0.000270151
0.000594679
0.000279071
0.000548141
0.00028721
0.000500137
0.000294541
0.000450793
0.000301045
0.000400258
0.0003067
0.000348662
0.000311492
0.000296149
0.000315405
0.000242865
0.00031843
0.000188962
0.000320553
0.000134526
0.000321772
7.95676e-05
2.6156e-05
0.000322082
1.58311e-05
0.00106678
3.37959e-08
3.19019e-05
0.00105572
4.80843e-05
0.00104382
6.42587e-05
0.00103131
8.03416e-05
0.00101734
9.62592e-05
0.0010014
0.000111959
0.000983093
0.000127382
0.000962459
0.000142484
0.000939293
0.00015721
0.000913776
0.00017152
0.000885863
0.000185364
0.000855606
0.000198704
0.000823076
0.000211495
0.000788354
0.000223704
0.000751526
0.000235289
0.000712688
0.00024622
0.000671944
0.000256461
0.000629401
0.000265986
0.000585174
0.000274763
0.000539382
0.000282771
0.00049215
0.000289984
0.000443601
0.000296383
0.000393882
0.000301947
0.000343122
0.000306663
0.000291461
0.000310513
0.000239043
0.000313489
0.000186018
0.000315579
0.000132471
0.00031678
7.84068e-05
2.5905e-05
0.000317089
1.55902e-05
0.00105115
3.7162e-08
3.14192e-05
0.00103988
4.73579e-05
0.00102787
6.32883e-05
0.00101537
7.91281e-05
0.00100149
9.48041e-05
0.000985717
0.000110265
0.000967622
0.000125452
0.00094726
0.000140322
0.000924413
0.000154821
0.000899264
0.000168908
0.000871764
0.000182536
0.000841964
0.000195666
0.000809933
0.000208256
0.000775748
0.000220271
0.000739496
0.000231672
0.00070127
0.000242429
0.000661171
0.000252506
0.000619304
0.000261879
0.000575783
0.000270516
0.000530724
0.000278396
0.000484249
0.000285492
0.00043648
0.000291789
0.000387562
0.000297264
0.00033762
0.000301905
0.000286792
0.000305694
0.000235222
0.000308623
0.000183054
0.000310681
0.000130372
0.000311865
7.71783e-05
2.55312e-05
0.000312171
1.53526e-05
0.00103577
3.97556e-08
3.09432e-05
0.0010243
4.66416e-05
0.00101218
6.23309e-05
0.000999691
7.79307e-05
0.000985904
9.3368e-05
0.000970288
0.000108593
0.000952408
0.000123546
0.000932317
0.000138187
0.000909785
0.000152461
0.000885001
0.000166329
0.00085791
0.000179744
0.000828562
0.000192668
0.000797024
0.000205059
0.000763371
0.000216884
0.000727687
0.000228104
0.000690065
0.000238689
0.000650603
0.000248606
0.000609404
0.00025783
0.000566578
0.000266329
0.000522242
0.000274083
0.000476515
0.000281067
0.000429517
0.000287264
0.000381388
0.000292651
0.000332255
0.000297219
0.000282252
0.000300948
0.00023152
0.000303832
0.000180202
0.000305859
0.000128379
0.000307025
7.60509e-05
2.52827e-05
0.000307331
1.51185e-05
0.0010206
4.18184e-08
3.04739e-05
0.00100893
4.59349e-05
0.00099671
6.13863e-05
0.000984229
7.67489e-05
0.000970532
9.19505e-05
0.000955074
0.000106942
0.000937406
0.000121665
0.00091758
0.00013608
0.00089536
0.000150132
0.000870935
0.000163784
0.000844247
0.000176988
0.000815344
0.000189709
0.00078429
0.000201904
0.00075116
0.000213542
0.000716035
0.000224584
0.000679006
0.000235002
0.000640168
0.000244761
0.000599625
0.000253838
0.000557483
0.000262202
0.000513857
0.000269834
0.000468863
0.000276707
0.000422619
0.000282805
0.000375266
0.000288108
0.000326925
0.000292603
0.000277729
0.000296274
0.000227816
0.000299114
0.000177327
0.00030111
0.000126342
0.000302261
7.48546e-05
2.49111e-05
0.000302564
1.48874e-05
0.00100568
4.32079e-08
3.00108e-05
0.000993814
4.52375e-05
0.000981491
6.04539e-05
0.000969019
7.55822e-05
0.000955413
9.0551e-05
0.000940113
0.000105313
0.000922656
0.000119808
0.000903094
0.000133999
0.000881182
0.000147833
0.000857112
0.000161271
0.000830823
0.000174268
0.000802359
0.00018679
0.000771784
0.000198792
0.000739169
0.000210247
0.000704597
0.000221114
0.000668153
0.000231367
0.000629932
0.000240972
0.000590036
0.000249905
0.000548569
0.000258136
0.000505643
0.000265647
0.000461373
0.000272411
0.000415875
0.000278414
0.000369286
0.000283633
0.000321728
0.000288058
0.000273331
0.000291672
0.000224229
0.000294469
0.000174563
0.000296435
0.000124409
0.000297571
7.37583e-05
2.4664e-05
0.000297874
1.46597e-05
0.000990965
4.42531e-08
2.95539e-05
0.00097891
4.45491e-05
0.000966488
5.95335e-05
0.000954024
7.44304e-05
0.000940507
8.91693e-05
0.000925361
0.000103704
0.000908112
0.000117975
0.000888809
0.000131946
0.000867201
0.000145563
0.000843481
0.000158792
0.000817583
0.000171585
0.000789551
0.00018391
0.000759446
0.000195723
0.000727339
0.000206997
0.000693308
0.000217693
0.00065744
0.000227784
0.000619825
0.000237237
0.000580563
0.000246029
0.000539758
0.000254131
0.000497519
0.000261523
0.000453959
0.000268181
0.000409192
0.000274089
0.000363354
0.000279227
0.000316562
0.000283583
0.000268945
0.000287141
0.000220637
0.000289896
0.000171774
0.000291833
0.000122429
0.000292954
7.25923e-05
2.42941e-05
0.000293255
1.44349e-05
0.000976492
4.49323e-08
2.91029e-05
0.000964247
4.38696e-05
0.000951729
5.86247e-05
0.000939275
7.32933e-05
0.000925848
8.78053e-05
0.000910856
0.000102115
0.000893812
0.000116165
0.000874767
0.000129919
0.000853459
0.000143324
0.000830085
0.000156346
0.000804575
0.000168938
0.00077697
0.000181069
0.00074733
0.000192697
0.000715724
0.000203794
0.000682228
0.000214321
0.000646926
0.000224253
0.000609909
0.000233557
0.000571274
0.00024221
0.000531123
0.000250185
0.000489562
0.000257461
0.000446703
0.000264014
0.000402658
0.000269831
0.000357561
0.000274888
0.000311527
0.000279177
0.000264683
0.000282681
0.00021716
0.000285394
0.000169092
0.000287303
0.000120552
0.000288408
7.15253e-05
2.40479e-05
0.00028871
1.42132e-05
0.000962227
4.55191e-08
2.86579e-05
0.000949793
4.31989e-05
0.00093718
5.77277e-05
0.000924735
7.21708e-05
0.000911396
8.64588e-05
0.000896556
0.000100547
0.000879714
0.000114379
0.000860921
0.000127919
0.000839909
0.000141115
0.000816875
0.000153933
0.000791746
0.000166328
0.00076456
0.000178269
0.000735377
0.000189714
0.000704262
0.000200636
0.000671291
0.000210997
0.000636547
0.000220773
0.000600117
0.000229931
0.000562097
0.000238449
0.000522586
0.000246298
0.000481691
0.000253461
0.000439519
0.000259912
0.000396182
0.000265637
0.000351811
0.000270617
0.000306519
0.000274839
0.000260431
0.00027829
0.000213676
0.000280962
0.000166385
0.000282844
0.000118628
0.000283935
7.03881e-05
2.36795e-05
0.000284234
1.39944e-05
0.000948193
4.58682e-08
2.82185e-05
0.000935573
4.25368e-05
0.000922869
5.68422e-05
0.000910434
7.10628e-05
0.000897184
8.51298e-05
0.000882494
9.9e-05
0.000865854
0.000112617
0.000847312
0.000125946
0.000826592
0.000138936
0.000803895
0.000151553
0.000779141
0.000163754
0.00075237
0.000175508
0.000723637
0.000186773
0.000693008
0.000197524
0.000660556
0.000207723
0.000626361
0.000217345
0.000590511
0.000226359
0.000553097
0.000234744
0.00051422
0.00024247
0.000473981
0.000249521
0.000432489
0.000255872
0.00038985
0.000261509
0.000346197
0.000266411
0.000301639
0.000270569
0.000256299
0.000273967
0.000210304
0.000276599
0.000163784
0.000278454
0.000116806
0.000279531
6.93493e-05
2.34343e-05
0.00027983
1.37786e-05
0.000934362
4.62213e-08
2.7785e-05
0.000921557
4.18834e-05
0.000908762
5.59684e-05
0.000896338
6.99694e-05
0.000883174
8.38185e-05
0.000868633
9.74735e-05
0.00085219
0.000110878
0.000833893
0.000124
0.00081346
0.000136787
0.000791094
0.000149207
0.00076671
0.000161217
0.000740346
0.000172786
0.000712055
0.000183875
0.000681903
0.000194458
0.00064996
0.000204497
0.000616304
0.000213969
0.000581022
0.000222842
0.000544204
0.000231096
0.000505947
0.000238701
0.000466353
0.000245642
0.000425526
0.000251894
0.000383573
0.000257444
0.000340622
0.000262271
0.000296784
0.000266365
0.000252176
0.000269712
0.000206924
0.000272305
0.000161155
0.000274133
0.000114935
0.000275196
6.82399e-05
2.30676e-05
0.000275494
1.35658e-05
0.000920756
4.64226e-08
2.73573e-05
0.00090777
4.12387e-05
0.000894888
5.51061e-05
0.000882475
6.88905e-05
0.000869397
8.25249e-05
0.000855004
9.59677e-05
0.000838756
0.000109164
0.000820704
0.000122081
0.000800555
0.000134668
0.000778515
0.000146894
0.000754496
0.000158716
0.000728534
0.000170105
0.000700681
0.00018102
0.000670999
0.000191437
0.000639558
0.000201319
0.000606435
0.000210643
0.000571714
0.000219378
0.000535484
0.000227503
0.00049784
0.00023499
0.000458882
0.000241824
0.000418713
0.000247979
0.000377437
0.000253443
0.000335181
0.000258195
0.000292053
0.000262228
0.00024817
0.000265523
0.000203654
0.000268078
0.000158631
0.00026988
0.000113164
0.000270929
6.72283e-05
2.28235e-05
0.000271227
1.33559e-05
0.000907348
4.66673e-08
2.69353e-05
0.000894181
4.06026e-05
0.000881213
5.42555e-05
0.000868811
6.78264e-05
0.000855818
8.1249e-05
0.000841568
9.44829e-05
0.000825513
0.000107473
0.0008077
0.000120189
0.00078783
0.00013258
0.00076611
0.000144615
0.00074245
0.000156252
0.000716882
0.000167463
0.000689458
0.000178207
0.000660237
0.000188462
0.000629289
0.000198189
0.000596689
0.000207368
0.000562519
0.000215966
0.000526865
0.000223965
0.000489822
0.000231337
0.000451488
0.000238064
0.000411964
0.000244124
0.000371351
0.000249504
0.000329776
0.000254184
0.000287344
0.000258155
0.000244169
0.000261401
0.000200373
0.000263918
0.000156078
0.000265694
0.000111345
0.00026673
6.61459e-05
2.24589e-05
0.000267025
1.31489e-05
0.000894157
4.67561e-08
2.6519e-05
0.000880815
3.99752e-05
0.000867763
5.34165e-05
0.000855373
6.67769e-05
0.000842465
7.99908e-05
0.000828359
9.30189e-05
0.000812494
0.000105807
0.000794918
0.000118324
0.000775323
0.000130521
0.000753921
0.000142369
0.000730615
0.000153825
0.000705437
0.00016486
0.000678436
0.000175437
0.000649671
0.000185531
0.00061921
0.000195107
0.000587126
0.000204143
0.000553499
0.000212608
0.000518415
0.000220483
0.000481965
0.00022774
0.000444247
0.000234363
0.00040536
0.00024033
0.000365403
0.000245627
0.000324502
0.000250235
0.000282758
0.000254146
0.000240285
0.000257343
0.000197202
0.000259823
0.000153629
0.000261574
0.000109626
0.000262596
6.51607e-05
2.22163e-05
0.000262891
1.2945e-05
0.00088116
4.68747e-08
2.61086e-05
0.000867642
3.93565e-05
0.000854507
5.25892e-05
0.000842129
6.57422e-05
0.000829304
7.87505e-05
0.000815338
9.15758e-05
0.000799659
0.000104165
0.000782315
0.000116487
0.000762991
0.000128494
0.0007419
0.000140157
0.000718941
0.000151433
0.000694145
0.000162297
0.00066756
0.000172709
0.000639243
0.000182646
0.000609259
0.000192073
0.000577681
0.000200968
0.000544587
0.000209301
0.000510061
0.000217054
0.000474194
0.000224199
0.00043708
0.00023072
0.000398817
0.000236595
0.000359503
0.000241811
0.000319261
0.000246349
0.000278191
0.0002502
0.000236404
0.000253349
0.000194017
0.000255793
0.000151149
0.000257519
0.000107856
0.000258528
6.41048e-05
2.18543e-05
0.000258821
1.2744e-05
0.000868374
4.68264e-08
2.57039e-05
0.000854685
3.87465e-05
0.000841471
5.17736e-05
0.000829105
6.47222e-05
0.000816362
7.7528e-05
0.000802536
9.01537e-05
0.000787043
0.000102546
0.000769928
0.000114676
0.000750872
0.000126496
0.000730088
0.000137977
0.000707472
0.000149078
0.000683054
0.000159772
0.000656879
0.000170022
0.000629003
0.000179805
0.000599491
0.000189085
0.000568412
0.000197843
0.000535845
0.000206046
0.000501871
0.000213679
0.000466579
0.000220713
0.000430062
0.000227134
0.000392416
0.000232918
0.000353737
0.000238055
0.000314147
0.000242523
0.000273743
0.000246316
0.000232637
0.000249418
0.000190941
0.000251826
0.000148772
0.000253527
0.000106186
0.000254523
6.31456e-05
2.16139e-05
0.000254816
1.2546e-05
0.000855776
4.67895e-08
2.5305e-05
0.000841917
3.81452e-05
0.000828624
5.09698e-05
0.000816269
6.3717e-05
0.000803607
7.63233e-05
0.000789917
8.87524e-05
0.000774604
0.000100952
0.000757715
0.000112893
0.000738921
0.000124528
0.000718438
0.000135831
0.000696159
0.000146759
0.000672111
0.000157287
0.000646338
0.000167377
0.000618896
0.000177008
0.000589846
0.000186144
0.000559258
0.000194765
0.000527207
0.000202842
0.000493774
0.000210357
0.000459045
0.000217282
0.000423113
0.000223604
0.000386072
0.0002293
0.000348016
0.000234358
0.000309064
0.000238758
0.000269313