/*--------------------------------*- C++ -*----------------------------------*\
  =========                 |
  \\      /  F ield         | OpenFOAM: The Open Source CFD Toolbox
   \\    /   O peration     | Website:  https://openfoam.org
    \\  /    A nd           | Version:  6.0
     \\/     M anipulation  |
\*---------------------------------------------------------------------------*/
FoamFile
{
    version     2.0;
    format      ascii;
    class       surfaceScalarField;
    location    "13";
    object      phi;
}
// * * * * * * * * * * * * * * * * * * * * * * * * * * * * * * * * * * * * * //

dimensions      [0 3 -1 0 0 0 0];

internalField   nonuniform List<scalar> 
93586
(
2.34646e-05
0.00154659
9.77324e-09
4.7243e-05
0.00154193
7.11422e-05
0.00153315
9.49718e-05
0.00152029
0.000118604
0.00150338
0.000141944
0.00148243
0.000164936
0.00145744
0.000187521
0.00142845
0.000209648
0.00139549
0.00023125
0.00135864
0.000252252
0.00131803
0.000272587
0.00127378
0.000292177
0.00122606
0.000310966
0.001175
0.00032889
0.00112074
0.000345906
0.0010634
0.000361961
0.00100311
0.00037702
0.000940023
0.000391036
0.000874292
0.000403976
0.000806082
0.0004158
0.000735596
0.000426477
0.000663021
0.000435974
0.000588575
0.000444264
0.000512448
0.000451322
0.000434844
0.000457133
0.000355945
0.000461633
0.000275898
0.000465221
0.000194479
0.000466887
0.000112698
2.88103e-05
0.000457809
2.31279e-05
0.0015235
-4.54807e-08
4.64998e-05
0.00151855
6.99828e-05
0.00150965
9.33979e-05
0.00149687
0.000116629
0.00148014
0.000139593
0.00145946
0.000162235
0.00143479
0.000184495
0.00140618
0.000206312
0.00137367
0.000227612
0.00133734
0.000248314
0.00129733
0.000268347
0.00125376
0.000287638
0.00120677
0.000306133
0.00115652
0.000323772
0.0011031
0.000340519
0.00104666
0.000356323
0.000987317
0.000371151
0.000925206
0.000384955
0.00086049
0.000397706
0.000793338
0.000409359
0.000723942
0.000419887
0.000652495
0.000429252
0.000579203
0.000437431
0.000504264
0.000444393
0.00042787
0.000450131
0.000350195
0.000454559
0.000271447
0.000457761
0.000191253
0.000459408
0.000111016
3.10455e-05
0.000457107
2.27404e-05
0.00150083
-6.95137e-08
4.56969e-05
0.00149559
6.87723e-05
0.00148658
9.1799e-05
0.00147384
0.000114668
0.00145727
0.000137296
0.00143683
0.000159623
0.00141246
0.000181578
0.00138423
0.000203093
0.00135215
0.000224088
0.00131635
0.000244481
0.00127693
0.000264205
0.00123403
0.000283191
0.00118778
0.000301391
0.00113831
0.000318751
0.00108574
0.000335236
0.00103017
0.000350797
0.000971748
0.000365403
0.000910597
0.000379005
0.000846881
0.000391572
0.000780768
0.000403058
0.000712449
0.000413438
0.000642113
0.00042267
0.000569967
0.000430734
0.0004962
0.000437593
0.00042101
0.000443236
0.000344557
0.000447603
0.000267086
0.00045059
0.000188279
0.000452282
0.00010934
3.2083e-05
0.0004513
2.23444e-05
0.00147855
-7.36139e-08
4.49081e-05
0.00147302
6.76033e-05
0.00146387
9.02699e-05
0.00145116
0.000112801
0.00143473
0.000135108
0.00141451
0.000157124
0.00139044
0.00017877
0.00136257
0.000199973
0.00133093
0.00022065
0.00129566
0.000240724
0.00125684
0.000260132
0.00121461
0.000278812
0.00116909
0.000296721
0.0011204
0.000313806
0.00106864
0.000330036
0.00101394
0.000345361
0.000956414
0.00035975
0.000896205
0.000373152
0.00083347
0.000385537
0.00076838
0.000396858
0.000701119
0.000407087
0.000631879
0.000416184
0.000560859
0.000424128
0.00048825
0.00043088
0.000414245
0.000436421
0.000339006
0.000440705
0.000262784
0.000443613
0.000185356
0.000445235
0.000107697
3.24782e-05
0.000444803
2.19609e-05
0.00145665
-5.93429e-08
4.41586e-05
0.00145082
6.64979e-05
0.00144153
8.88227e-05
0.00142883
0.000111025
0.00141253
0.000133012
0.00139252
0.000154712
0.00136874
0.000176038
0.00134124
0.000196916
0.00131005
0.000217268
0.0012753
0.000237018
0.00123709
0.000256111
0.00119552
0.000274489
0.00115071
0.000292112
0.00110277
0.00030893
0.00105182
0.000324911
0.000997953
0.000340006
0.00094131
0.000354183
0.000882024
0.000367389
0.000820255
0.000379594
0.000756171
0.00039075
0.000689956
0.000400831
0.000621796
0.000409794
0.000551892
0.000417618
0.000480427
0.000424266
0.000407598
0.000429712
0.000333567
0.000433918
0.000258586
0.000436771
0.000182519
0.000438395
0.000106092
3.23603e-05
0.00043857
2.15934e-05
0.00143508
-3.29164e-08
4.34459e-05
0.00142896
6.54453e-05
0.00141953
8.74382e-05
0.00140683
0.000109315
0.00139064
0.000130979
0.00137084
0.000152355
0.00134735
0.000173354
0.00132023
0.000193903
0.00128949
0.000213927
0.00125526
0.000233357
0.00121764
0.000252141
0.00117672
0.000270224
0.00113261
0.00028757
0.00108541
0.000304129
0.00103524
0.00031987
0.000982203
0.000334741
0.000926425
0.000348711
0.000868047
0.000361725
0.000807228
0.000373754
0.000744134
0.000384749
0.000678948
0.000394684
0.000611854
0.000403516
0.000543047
0.000411223
0.000472711
0.000417769
0.000401038
0.00042313
0.000328196
0.000427267
0.000254432
0.000430084
0.000179689
0.000431698
0.00010446
3.18228e-05
0.000432208
2.12405e-05
0.00141384
-5.07751e-09
4.27613e-05
0.00140744
6.44307e-05
0.00139786
8.60966e-05
0.00138516
0.000107648
0.00136909
0.000128987
0.0013495
0.000150034
0.0013263
0.000170704
0.00129956
0.000190925
0.00126927
0.000210626
0.00123556
0.000229742
0.00119852
0.000248225
0.00115823
0.000266024
0.0011148
0.000283104
0.00106833
0.000299413
0.00101892
0.000314921
0.000966692
0.000329575
0.000911763
0.000343342
0.000854278
0.000356169
0.000794393
0.000368024
0.000732276
0.000378861
0.000668106
0.000388651
0.000602064
0.000397353
0.000534342
0.000404945
0.000465121
0.000411391
0.000394592
0.000416667
0.000322927
0.000420739
0.000250366
0.000423529
0.000176916
0.000425111
0.000102895
3.12758e-05
0.00042571
2.09003e-05
0.00139292
2.29746e-08
4.20983e-05
0.00138623
6.34434e-05
0.00137651
8.4785e-05
0.00136381
0.000106011
0.00134786
0.000127023
0.00132848
0.000147741
0.00130557
0.000168083
0.0012792
0.00018798
0.00124936
0.000207364
0.00121617
0.000226175
0.00117969
0.000244369
0.00114003
0.000261894
0.00109726
0.000278716
0.0010515
0.000294784
0.00100284
0.000310065
0.0009514
0.000324507
0.000897306
0.000338076
0.0008407
0.000350718
0.000781737
0.000362402
0.000720583
0.000373081
0.000657414
0.000382727
0.000592409
0.000391299
0.000525756
0.000398775
0.000457635
0.000405121
0.000388232
0.000410313
0.000317724
0.00041432
0.000246342
0.000417084
0.00017414
0.000418634
0.000101329
3.06853e-05
0.0004192
2.05709e-05
0.0013723
4.41231e-08
4.14512e-05
0.00136535
6.24757e-05
0.00135548
8.34942e-05
0.0013428
0.000104395
0.00132696
0.00012508
0.0013078
0.000145472
0.00128519
0.00016549
0.00125919
0.000185068
0.00122978
0.000204144
0.00119709
0.000222661
0.00116118
0.000240574
0.00112211
0.000257835
0.00108
0.000274407
0.00103493
0.000290241
0.000987002
0.000305301
0.000936339
0.000319536
0.000883067
0.000332909
0.000827326
0.000345368
0.000769272
0.000356881
0.000709069
0.000367402
0.000646889
0.000376904
0.000582908
0.000385346
0.000517312
0.000392707
0.000450277
0.000398952
0.000381989
0.00040406
0.000312624
0.000408
0.000242408
0.000410734
0.000171422
0.000412257
9.98202e-05
3.0224e-05
0.000412766
2.02503e-05
0.00135199
5.81719e-08
4.08164e-05
0.00134478
6.15223e-05
0.00133477
8.22194e-05
0.00132209
0.000102797
0.00130637
0.000123157
0.00128743
0.000143226
0.00126511
0.000162925
0.00123948
0.000182193
0.0012105
0.00020097
0.0011783
0.000219201
0.00114293
0.000236843
0.00110446
0.000253848
0.00106298
0.000270179
0.00101858
0.000285783
0.000971382
0.000300627
0.000921485
0.000314656
0.000869023
0.000327835
0.000814137
0.000340112
0.000756981
0.000351456
0.000697716
0.00036182
0.000636512
0.000371177
0.000573541
0.000379489
0.000508986
0.000386734
0.000443022
0.000392877
0.00037583
0.000397901
0.00030759
0.000401775
0.000238517
0.000404474
0.000168712
0.000405978
9.8301e-05
2.97475e-05
0.000406432
1.99369e-05
0.00133198
6.41299e-08
4.01909e-05
0.00132452
6.05803e-05
0.00131438
8.09578e-05
0.00130171
0.000101214
0.00128612
0.000121254
0.00126739
0.000141005
0.00124536
0.000160393
0.00122009
0.000179359
0.00119154
0.000197846
0.00115982
0.000215801
0.00112498
0.00023318
0.00108708
0.000249936
0.00104622
0.000266029
0.00100249
0.000281409
0.000955999
0.000296038
0.000906857
0.000309864
0.000855194
0.000322851
0.000801152
0.000334947
0.000744882
0.00034612
0.000686543
0.000356327
0.000626303
0.00036554
0.000564329
0.000373722
0.000500804
0.00038085
0.000435897
0.000386893
0.000369789
0.000391834
0.000302658
0.000395641
0.000234715
0.000398302
0.000166066
0.000399787
9.68289e-05
2.93721e-05
0.000400205
1.96296e-05
0.00131229
6.21953e-08
3.95735e-05
0.00130457
5.96487e-05
0.0012943
7.97097e-05
0.00128164
9.96489e-05
0.00126617
0.000119373
0.00124766
0.000138813
0.00122591
0.000157898
0.001201
0.000176571
0.00117285
0.000194776
0.0011416
0.000212462
0.00110728
0.000229585
0.00106995
0.000246096
0.0010297
0.000261957
0.000986622
0.000277115
0.000940827
0.000291532
0.000892429
0.000305156
0.000841556
0.000317951
0.000788348
0.000329866
0.000732953
0.000340871
0.000675529
0.00035092
0.00061624
0.00035999
0.00055525
0.000368041
0.000492739
0.000375054
0.000428873
0.000380997
0.000363831
0.000385854
0.00029779
0.000389596
0.000230955
0.000392215
0.000163436
0.000393682
9.53463e-05
2.89566e-05
0.000394075
1.93273e-05
0.0012929
5.55869e-08
3.89637e-05
0.00128493
5.87278e-05
0.00127454
7.84761e-05
0.0012619
9.81032e-05
0.00124655
0.000117519
0.00122824
0.000136655
0.00120678
0.000155444
0.00118221
0.000173831
0.00115447
0.000191763
0.00112368
0.000209186
0.00108986
0.000226059
0.00105308
0.000242331
0.00101343
0.000257962
0.000970994
0.0002729
0.000925888
0.000287106
0.000878225
0.000300529
0.000828132
0.000313133
0.000775746
0.000324868
0.000721216
0.000335703
0.000664696
0.000345596
0.000606346
0.000354521
0.000546328
0.000362442
0.000484817
0.000369341
0.000421979
0.000375184
0.00035799
0.000379958
0.000293024
0.000383636
0.000227282
0.000386212
0.000160875
0.00038766
9.39091e-05
2.86166e-05
0.000388039
1.90296e-05
0.00127382
4.61398e-08
3.83617e-05
0.00126559
5.78187e-05
0.00125507
7.72593e-05
0.00124245
9.65801e-05
0.00122722
0.000115693
0.00120912
0.000134534
0.00118793
0.000153035
0.0011637
0.000171144
0.00113635
0.000188808
0.001106
0.000205975
0.00107268
0.000222601
0.00103644
0.000238636
0.000997377
0.00025404
0.00095558
0.00026876
0.000911155
0.000282756
0.000864218
0.000295979
0.000814896
0.000308392
0.000763324
0.000319947
0.000709648
0.000330613
0.00065402
0.00034035
0.000596596
0.000349132
0.000537535
0.000356924
0.000477011
0.000363708
0.000415185
0.000369453
0.00035223
0.000374146
0.000288321
0.000377759
0.000223651
0.000380292
0.000158331
0.00038172
9.24648e-05
2.82259e-05
0.000382088
1.87361e-05
0.00125505
3.69815e-08
3.77679e-05
0.00124656
5.69226e-05
0.00123592
7.60609e-05
0.00122331
9.50818e-05
0.0012082
0.0001139
0.00119031
0.000132451
0.00116938
0.000150672
0.00114549
0.000168509
0.00111851
0.000185911
0.00108861
0.000202826
0.00105577
0.000219209
0.00102006
0.000235011
0.000981578
0.000250189
0.000940407
0.000264691
0.000896653
0.000278479
0.000850434
0.000291502
0.000801873
0.000303725
0.000751105
0.0003151
0.000698272
0.000325598
0.000643524
0.000335179
0.000587015
0.00034382
0.000528898
0.000351483
0.000469347
0.000358154
0.000408519
0.000363801
0.000346585
0.000368414
0.000283717
0.000371965
0.000220104
0.000374454
0.000155856
0.000375861
9.10667e-05
2.79012e-05
0.000376223
1.84469e-05
0.00123656
2.97079e-08
3.71832e-05
0.00122782
5.60409e-05
0.00121706
7.48829e-05
0.00120446
9.36104e-05
0.00118947
0.00011214
0.00117177
0.000130409
0.00115111
0.000148355
0.00112753
0.000165927
0.00110093
0.000183072
0.00107145
0.000199738
0.00103909
0.000215881
0.00100391
0.000231451
0.000965996
0.000246405
0.000925443
0.00026069
0.000882355
0.00027427
0.000836844
0.000287094
0.000789036
0.000299127
0.000739062
0.000310323
0.000687063
0.000320655
0.000633183
0.000330081
0.000577574
0.000338581
0.000520389
0.000346118
0.000461795
0.000352677
0.000401949
0.000358228
0.000341018
0.000362761
0.000279173
0.000366251
0.000216597
0.000368698
0.000153398
0.000370083
8.96643e-05
2.75245e-05
0.000370436
1.81618e-05
0.00121838
2.5714e-08
3.6608e-05
0.00120937
5.51744e-05
0.00119849
7.37263e-05
0.00118591
9.21667e-05
0.00117103
0.000110414
0.00115352
0.000128407
0.00113312
0.000146085
0.00110986
0.000163396
0.00108363
0.000180287
0.00105457
0.000196708
0.00102267
0.000212614
0.000988009
0.000227953
0.00095066
0.000242683
0.000910718
0.000256753
0.000868285
0.000270125
0.000823476
0.000282751
0.000776411
0.000294596
0.000727221
0.000305614
0.000676044
0.00031578
0.000623021
0.000325054
0.000568301
0.000333414
0.000512033
0.000340826
0.000454384
0.000347274
0.000395506
0.000352731
0.000335564
0.000357187
0.000274726
0.000360616
0.000213172
0.000363021
0.000151006
0.000364385
8.83085e-05
2.72113e-05
0.000364733
1.78811e-05
0.00120046
2.53285e-08
3.60428e-05
0.0011912
5.43238e-05
0.0011802
7.25916e-05
0.00116763
9.07511e-05
0.00115286
0.000108722
0.00113555
0.000126445
0.00111538
0.000143859
0.00109244
0.000160913
0.00106656
0.000177555
0.00103791
0.000193733
0.00100648
0.000209402
0.00097233
0.000224512
0.000935538
0.00023902
0.0008962
0.000252876
0.000854417
0.000266042
0.000810301
0.00027847
0.00076397
0.000290128
0.000715555
0.000300971
0.000665187
0.000310972
0.000613009
0.000320095
0.000559165
0.000328317
0.000503801
0.000335606
0.00044708
0.000341946
0.000389154
0.000347311
0.000330184
0.00035169
0.000270335
0.000355061
0.000209784
0.000357426
0.00014863
0.000358767
8.69495e-05
2.68466e-05
0.000359108
1.76048e-05
0.00118283
2.82706e-08
3.54876e-05
0.00117332
5.34891e-05
0.0011622
7.14786e-05
0.00114964
8.9363e-05
0.00113498
0.000107063
0.00111785
0.000124521
0.00109793
0.000141675
0.00107529
0.000158476
0.00104977
0.000174871
0.00102152
0.000190808
0.000990548
0.000206243
0.0009569
0.000221125
0.000920659
0.000235413
0.000881918
0.000249055
0.000840776
0.000262016
0.000797344
0.000274249
0.000751739
0.000285721
0.000704087
0.00029639
0.000654519
0.000306229
0.000603174
0.000315202
0.000550193
0.000323289
0.000495719
0.000330457
0.000439914
0.000336691
0.000382925
0.000341965
0.000324912
0.000346271
0.000266038
0.000349584
0.000206474
0.000351909
0.000146318
0.000353229
8.56364e-05
2.65441e-05
0.000353564
1.73331e-05
0.00116546
3.37293e-08
3.49427e-05
0.0011557
5.26702e-05
0.00114447
7.03871e-05
0.00113192
8.80016e-05
0.00111736
0.000105436
0.0011004
0.000122633
0.00108073
0.000139532
0.00105838
0.000156082
0.00103321
0.000172232
0.00100537
0.000187931
0.000974839
0.000203133
0.000941688
0.000217789
0.000905992
0.000231857
0.000867841
0.000245288
0.000827333
0.000258046
0.000784577
0.000270085
0.000739688
0.000281373
0.000692789
0.00029187
0.00064401
0.000301549
0.000593485
0.000310376
0.000541353
0.000318329
0.000487755
0.000325378
0.00043285
0.000331508
0.000376784
0.000336694
0.000319711
0.000340927
0.000261793
0.000344186
0.000203198
0.000346472
0.000144019
0.000347771
8.43199e-05
2.61901e-05
0.0003481
1.70659e-05
0.00114835
4.07337e-08
3.44076e-05
0.00113836
5.18667e-05
0.00112701
6.9316e-05
0.00111447
8.66656e-05
0.00110001
0.000103839
0.00108323
0.000120778
0.00106379
0.000137425
0.00104174
0.000153727
0.00101691
0.000169636
0.000989463
0.000185098
0.000959381
0.000200069
0.000926722
0.0002145
0.000891564
0.000228351
0.000853995
0.000241572
0.000814114
0.000254128
0.000772025
0.000265976
0.000727842
0.000277083
0.000681686
0.000287411
0.000633684
0.000296932
0.000583967
0.000305614
0.000532672
0.000313437
0.000479938
0.000320369
0.00042592
0.000326398
0.000370761
0.000331497
0.000314615
0.00033566
0.000257638
0.000338864
0.000199998
0.000341114
0.000141782
0.000342391
8.30479e-05
2.58967e-05
0.000342717
1.68033e-05
0.00113149
4.8338e-08
3.38824e-05
0.00112127
5.10778e-05
0.00110981
6.82644e-05
0.00109728
8.53534e-05
0.00108292
0.000102269
0.00106631
0.000118955
0.0010471
0.000135352
0.00102533
0.00015141
0.00100084
0.000167078
0.000973786
0.000182306
0.000944143
0.000197048
0.000911971
0.000211257
0.000877345
0.000224891
0.000840352
0.000237905
0.000801088
0.000250263
0.000759658
0.000261921
0.000716172
0.00027285
0.000670748
0.00028301
0.000623511
0.000292377
0.00057459
0.000300917
0.000524119
0.000308612
0.000472233
0.00031543
0.000419087
0.000321359
0.00036482
0.000326374
0.000309583
0.000330469
0.000253532
0.000333621
0.000196827
0.000335834
0.000139557
0.000337092
8.17715e-05
2.55511e-05
0.000337412
1.65452e-05
0.00111489
5.57274e-08
3.33663e-05
0.00110445
5.03028e-05
0.00109288
6.7231e-05
0.00108035
8.40634e-05
0.00106609
0.000100726
0.00104965
0.000117161
0.00103067
0.000133311
0.00100919
0.000149127
0.000985028
0.000164558
0.00095836
0.000179552
0.000929152
0.000194068
0.00089746
0.000208056
0.000863359
0.000221478
0.000826935
0.000234286
0.000788282
0.000246447
0.000747501
0.000257919
0.000704702
0.000268672
0.00066
0.000278668
0.000613517
0.000287883
0.000565379
0.000296284
0.00051572
0.000303853
0.00046467
0.000310559
0.000412382
0.000316391
0.000358994
0.000321324
0.000304653
0.000325352
0.000249512
0.000328454
0.00019373
0.000330632
0.00013739
0.00033187
8.05379e-05
2.52643e-05
0.000332188
1.62916e-05
0.00109853
6.2324e-08
3.28592e-05
0.00108788
4.95409e-05
0.00107619
6.62147e-05
0.00106367
8.27943e-05
0.0010495
9.92061e-05
0.00103323
0.000115394
0.00101447
0.000131301
0.000993272
0.000146876
0.000969443
0.000162072
0.000943157
0.000176836
0.000914378
0.000191127
0.00088316
0.000204898
0.000849579
0.000218108
0.000813716
0.000230714
0.000775665
0.000242682
0.000735524
0.00025397
0.000693402
0.00026455
0.00064941
0.000274385
0.000603669
0.00028345
0.000556304
0.000291715
0.000507442
0.00029916
0.000457214
0.000305758
0.00040577
0.000311495
0.000353245
0.000316348
0.000299785
0.000320311
0.000245538
0.000323363
0.00019066
0.000325507
0.000135233
0.000326728
7.92985e-05
2.49246e-05
0.000327041
1.60421e-05
0.00108242
6.7802e-08
3.23603e-05
0.00107156
4.87912e-05
0.00105976
6.52144e-05
0.00104724
8.15445e-05
0.00103317
9.77091e-05
0.00101707
0.000113652
0.00099853
0.000129318
0.00097761
0.000144656
0.000954108
0.000159619
0.000928199
0.000174156
0.000899844
0.000188224
0.000869096
0.00020178
0.000836027
0.000214782
0.000800718
0.000227188
0.000763261
0.000238965
0.000723752
0.000250073
0.000682296
0.000260483
0.000639005
0.000270159
0.000593995
0.000279078
0.000547389
0.000287209
0.000499313
0.000294534
0.000449895
0.000301025
0.000399282
0.00030667
0.000347607
0.000311445
0.000295013
0.000315344
0.000241646
0.000318348
0.00018766
0.00032046
0.000133133
0.000321662
7.81004e-05
2.46422e-05
0.000321975
1.57967e-05
0.00106655
7.20905e-08
3.18693e-05
0.00105548
4.8053e-05
0.00104357
6.4229e-05
0.00103106
8.03129e-05
0.00101708
9.62333e-05
0.00100114
0.000111935
0.00098282
0.000127362
0.000962176
0.000142466
0.000938996
0.000157198
0.00091346
0.000171509
0.000885523
0.000185359
0.000855238
0.000198701
0.000822674
0.000211499
0.000787913
0.000223708
0.000751041
0.000235297
0.000712154
0.000246228
0.000671355
0.000256471
0.000628753
0.000265991
0.000584462
0.000274767
0.000538603
0.000282767
0.0004913
0.000289974
0.000442677
0.000296361
0.000392881
0.000301915
0.000342042
0.000306614
0.000290298
0.000310452
0.000237796
0.000313409
0.000184685
0.000315488
0.00013104
0.000316675
7.68952e-05
2.43062e-05
0.000316984
1.55551e-05
0.00105092
7.52516e-08
3.13858e-05
0.00103965
4.73257e-05
0.00102763
6.32577e-05
0.00101513
7.90985e-05
0.00100125
9.47776e-05
0.000985463
0.00011024
0.000967361
0.000125431
0.000946988
0.000140303
0.000924127
0.000154807
0.00089896
0.000168897
0.000871437
0.00018253
0.000841609
0.000195663
0.000809545
0.000208258
0.000775322
0.000220274
0.000739027
0.000231678
0.000700754
0.000242434
0.000660602
0.000252513
0.000618679
0.000261882
0.000575096
0.000270517
0.000529973
0.000278389
0.00048343
0.00028548
0.000435591
0.000291765
0.000386599
0.00029723
0.000336582
0.000301855
0.000285677
0.000305632
0.000234027
0.000308544
0.000181778
0.000310593
0.000129002
0.000311762
7.57299e-05
2.40262e-05
0.000312071
1.53172e-05
0.00103552
7.74864e-08
3.09093e-05
0.00102405
4.66086e-05
0.00101192
6.22998e-05
0.000999431
7.79005e-05
0.000985638
9.33411e-05
0.000970015
0.000108568
0.000952126
0.000123526
0.000932023
0.000138168
0.000909477
0.000152448
0.000884673
0.000166318
0.000857558
0.000179737
0.000828181
0.000192663
0.000796609
0.000205059
0.000762918
0.000216885
0.000727191
0.000228108
0.000689521
0.000238693
0.000650006
0.000248611
0.000608751
0.00025783
0.000565866
0.000266327
0.000521466
0.000274074
0.000475671
0.000281052
0.000428602
0.000287237
0.000380401
0.000292616
0.000331192
0.000297167
0.00028111
0.000300886
0.000230296
0.000303753
0.000178892
0.000305772
0.00012697
0.000306927
7.45566e-05
2.36924e-05
0.000307233
1.50827e-05
0.00102036
7.89765e-08
3.04394e-05
0.00100869
4.59014e-05
0.000996463
6.13546e-05
0.000983978
7.67182e-05
0.000970276
9.19232e-05
0.000954811
0.000106916
0.000937136
0.000121644
0.000917298
0.00013606
0.000895063
0.000150118
0.000870619
0.000163771
0.000843908
0.00017698
0.000814976
0.000189703
0.00078389
0.000201903
0.000750722
0.000213542
0.000715556
0.000224587
0.000678481
0.000235003
0.000639593
0.000244764
0.000598995
0.000253836
0.000556796
0.000262198
0.000513109
0.000269821
0.000468051
0.000276689
0.00042174
0.000282776
0.000374317
0.00028807
0.000325904
0.000292551
0.000276633
0.000296213
0.000226642
0.000299036
0.000176073
0.000301026
0.000124992
0.000302164
7.34221e-05
2.34138e-05
0.000302471
1.48516e-05
0.00100542
7.99883e-08
2.9976e-05
0.000993557
4.52035e-05
0.000981229
6.04218e-05
0.000968752
7.55511e-05
0.00095514
9.05234e-05
0.000939832
0.000105286
0.000922365
0.000119787
0.00090279
0.000133979
0.000880863
0.000147818
0.000856773
0.000161258
0.000830459
0.00017426
0.000801967
0.000186782
0.000771358
0.00019879
0.000738706
0.000210244
0.000704092
0.000221114
0.000667602
0.000231365
0.000629331
0.000240971
0.000589381
0.000249899
0.000547856
0.000258129
0.000504869
0.000265632
0.000460535
0.000272392
0.00041497
0.000278383
0.000368312
0.000283594
0.000320681
0.000288005
0.000272207
0.000291611
0.000223025
0.000294392
0.000173273
0.000296352
0.000123018
0.000297477
7.22786e-05
2.30815e-05
0.000297782
1.46236e-05
0.000990715
8.06505e-08
2.95188e-05
0.000978661
4.45148e-05
0.000966235
5.95011e-05
0.000953767
7.43989e-05
0.000940245
8.91414e-05
0.000925091
0.000103677
0.000907833
0.000117953
0.000888517
0.000131925
0.000866894
0.000145548
0.000843154
0.000158778
0.000817233
0.000171575
0.000789173
0.000183901
0.000759036
0.000195719
0.000726892
0.000206993
0.000692821
0.000217691
0.000656908
0.00022778
0.000619245
0.000237234
0.000579932
0.000246021
0.000539072
0.00025412
0.000496775
0.000261505
0.000453154
0.000268159
0.000408322
0.000274056
0.000362418
0.000279186
0.000315557
0.000283529
0.000267868
0.00028708
0.000219482
0.00028982
0.000170538
0.000291752
0.000121097
0.000292861
7.11733e-05
2.28037e-05
0.000293167
1.43988e-05
0.00097623
8.11723e-08
2.90676e-05
0.000963985
4.3835e-05
0.000951462
5.85922e-05
0.000939002
7.32615e-05
0.000925568
8.77771e-05
0.000910568
0.000102088
0.000893514
0.000116143
0.000874455
0.000129898
0.000853131
0.000143308
0.000829737
0.000156331
0.000804202
0.000168927
0.000776568
0.000181059
0.000746896
0.000192691
0.000715253
0.000203787
0.000681716
0.000214316
0.00064637
0.000224246
0.000609305
0.000233551
0.000570618
0.0002422
0.000530412
0.000250172
0.000488793
0.000257441
0.000445872
0.00026399
0.000401763
0.000269795
0.000356598
0.000274846
0.000310494
0.000279123
0.000263576
0.000282619
0.000215974
0.000285318
0.000167821
0.000287223
0.000119178
0.000288319
7.00584e-05
2.24724e-05
0.000288622
1.41769e-05
0.000961972
8.15725e-08
2.86224e-05
0.000949539
4.3164e-05
0.000936922
5.76949e-05
0.000924472
7.21387e-05
0.000911127
8.64304e-05
0.000896279
0.00010052
0.000879428
0.000114357
0.000860621
0.000127897
0.000839593
0.000141098
0.000816539
0.000153917
0.000791386
0.000166316
0.000764173
0.000178257
0.000734958
0.000189706
0.000703808
0.000200627
0.000670798
0.00021099
0.000636011
0.000220764
0.000599535
0.000229922
0.000561465
0.000238435
0.000521902
0.000246283
0.000480951
0.000253438
0.000438721
0.000259885
0.000395322
0.0002656
0.000350887
0.000270573
0.000305528
0.000274784
0.000259369
0.000278228
0.000212538
0.000280887
0.000165166
0.000282765
0.000117311
0.000283846
6.8981e-05
2.21955e-05
0.00028415
1.39581e-05
0.000947927
8.19902e-08
2.81829e-05
0.000935307
4.25018e-05
0.000922597
5.68094e-05
0.000910157
7.10305e-05
0.000896899
8.51013e-05
0.0008822
9.89721e-05
0.000865549
0.000112594
0.000846993
0.000125923
0.000826256
0.000138918
0.000803538
0.000151536
0.00077876
0.000163741
0.000751961
0.000175494
0.000723196
0.000186763
0.000692531
0.000197513
0.000660039
0.000207713
0.000625802
0.000217334
0.000589905
0.000226348
0.000552442
0.000234728
0.000513511
0.000242453
0.000473216
0.000249496
0.000431665
0.000255843
0.000388965
0.00026147
0.000345246
0.000266366
0.00030062
0.000270513
0.000255208
0.000273905
0.000209134
0.000276525
0.000162528
0.000278376
0.000115446
0.000279445
6.78935e-05
2.18654e-05
0.000279747
1.37421e-05
0.000934103
8.23599e-08
2.77493e-05
0.0009213
4.18482e-05
0.0009085
5.59354e-05
0.00089607
6.99369e-05
0.0008829
8.37897e-05
0.00086835
9.74452e-05
0.000851896
0.000110855
0.000833586
0.000123976
0.000813137
0.000136768
0.00079075
0.000149188
0.000766343
0.000161202
0.000739951
0.000172771
0.00071163
0.000183864
0.000681443
0.000194444
0.000649462
0.000204485
0.000615765
0.000213955
0.000580439
0.000222828
0.000543573
0.000231077
0.000505266
0.000238681
0.000465617
0.000245615
0.000424735
0.000251864
0.000382722
0.000257404
0.00033971
0.000262225
0.000295805
0.000266309
0.000251128
0.00026965
0.000205801
0.000272232
0.00015995
0.000274057
0.000113631
0.000275111
6.68432e-05
2.15896e-05
0.000275413
1.35292e-05
0.000920487
8.27795e-08
2.73214e-05
0.0009075
4.12033e-05
0.000894612
5.5073e-05
0.000882193
6.88578e-05
0.000869108
8.24959e-05
0.000854704
9.59391e-05
0.000838446
0.00010914
0.000820378
0.000122057
0.000800212
0.000134648
0.000778151
0.000146875
0.000754109
0.0001587
0.000728118
0.000170088
0.000700234
0.000181007
0.000670517
0.000191422
0.000639037
0.000201305
0.000605873
0.000210627
0.000571107
0.000219362
0.00053483
0.000227482
0.000497134
0.000234968
0.000458122
0.000241794
0.000417897
0.000247946
0.000376561
0.000253401
0.000334242
0.000258149
0.000291047
0.000262171
0.000247092
0.000265462
0.000202498
0.000268005
0.000157389
0.000269805
0.000111817
0.000270847
6.57825e-05
2.12609e-05
0.000271147
1.33191e-05
0.000907085
8.31364e-08
2.68993e-05
0.00089392
4.0567e-05
0.000880947
5.42223e-05
0.000868539
6.77935e-05
0.000855539
8.12197e-05
0.00084128
9.44538e-05
0.000825214
0.000107449
0.000807386
0.000120164
0.0007875
0.000132559
0.00076576
0.000144594
0.000742076
0.000156234
0.000716481
0.000167444
0.000689027
0.000178192
0.000659773
0.000188444
0.000628788
0.000198174
0.000596148
0.00020735
0.000561935
0.000215949
0.000526235
0.000223942
0.000489144
0.000231312
0.000450758
0.000238033
0.00041118
0.00024409
0.00037051
0.000249461
0.000328875
0.000254136
0.000286378
0.000258097
0.000243135
0.000261339
0.000199264
0.000263846
0.000154887
0.00026562
0.000110053
0.000266648
6.47587e-05
2.09867e-05
0.000266948
1.31121e-05
0.000893885
8.35185e-08
2.64829e-05
0.000880542
3.99395e-05
0.000867484
5.33833e-05
0.000855088
6.67438e-05
0.000842172
7.99613e-05
0.000828055
9.29894e-05
0.000812179
0.000105782
0.000794587
0.000118299
0.000774975
0.0001305
0.000753552
0.000142347
0.000730222
0.000153805
0.000705016
0.00016484
0.000677984
0.00017542
0.000649186
0.000185512
0.000618687
0.00019509
0.000586563
0.000204123
0.000552892
0.000212588
0.000517762
0.000220458
0.000481264
0.000227713
0.000443493
0.00023433
0.000404551
0.000240294
0.000364536
0.000245583
0.000323573
0.000250186
0.000281763
0.000254088
0.00023922
0.000257281
0.000196059
0.000259751
0.000152399
0.000261501
0.00010829
0.000262516
6.37241e-05
2.066e-05
0.000262814
1.29079e-05
0.000880894
8.37961e-08
2.60723e-05
0.000867378
3.93206e-05
0.000854238
5.25559e-05
0.000841853
6.57089e-05
0.000829021
7.87208e-05
0.000815046
9.15459e-05
0.000799356
0.000104139
0.000781997
0.00011646
0.000762657
0.000128471
0.000741544
0.000140133
0.000718563
0.000151413
0.00069374
0.000162275
0.000667125
0.00017269
0.000638775
0.000182625
0.000608755
0.000192053
0.000577138
0.000200946
0.000544003
0.000209279
0.000509433
0.000217027
0.000473519
0.00022417
0.000436355
0.000230685
0.00039804
0.000236557
0.00035867
0.000241765
0.000318369
0.000246299
0.000277236
0.000250142
0.000235382
0.000253288
0.00019292
0.000255722
0.00014997
0.000257446
0.000106575
0.000258448
6.27263e-05
2.0388e-05
0.000258746
1.27068e-05
0.000868099
8.40643e-08
2.56676e-05
0.000854409
3.87105e-05
0.000841189
5.17403e-05
0.000828816
6.46887e-05
0.000816066
7.74981e-05
0.000802229
9.01234e-05
0.000786723
0.00010252
0.000769593
0.000114649
0.00075052
0.000126473
0.000729714
0.000137953
0.000707075
0.000149056
0.000682629
0.000159749
0.000656424
0.000170002
0.000628515
0.000179782
0.000598967
0.000189063
0.000567849
0.000197818
0.00053524
0.000206022
0.000501221
0.00021365
0.000465881
0.000220683
0.000429314
0.000227098
0.000391614
0.00023288
0.000352879
0.000238008
0.000313228
0.000242473
0.00027276
0.000246258
0.000231583
0.000249357
0.00018981
0.000251755
0.000147554
0.000253456
0.000104861
0.000254446
6.17175e-05
2.00638e-05
0.000254741
1.25085e-05
0.000855508
8.41906e-08
2.52686e-05
0.00084165
3.81091e-05
0.000828351
5.09363e-05
0.00081599
6.36833e-05
0.000803321
7.62931e-05
0.000789621
8.87217e-05
0.000774297
0.000100925
0.000757393
0.000112865
0.000738582
0.000124504
0.000718079
0.000135805
0.000695777
0.000146736
0.000671702
0.000157262
0.0006459
0.000167355
0.000618426
0.000176983
0.000589341
0.00018612
0.000558715
0.000194739
0.000526624
0.000202816
0.000493148
0.000210326
0.000458375
0.00021725
0.000422394
0.000223567
0.000385302
0.00022926
0.000347191
0.00023431
0.000308182
0.000238707
0.000268369
0.000242435
0.00022786
0.000245488
0.000186764