/*--------------------------------*- C++ -*----------------------------------*\
  =========                 |
  \\      /  F ield         | OpenFOAM: The Open Source CFD Toolbox
   \\    /   O peration     | Website:  https://openfoam.org
    \\  /    A nd           | Version:  6.0
     \\/     M anipulation  |
\*---------------------------------------------------------------------------*/
FoamFile
{
    version     2.0;
    format      ascii;
    class       volVectorField;
    location    "13";
    object      U;
}
// * * * * * * * * * * * * * * * * * * * * * * * * * * * * * * * * * * * * * //

dimensions      [0 1 -1 0 0 0 0];

internalField   nonuniform List<vector> 
47000
(
(0.99999 -7.43072e-05 3.08372e-18)
(0.99999 -0.000143568 5.81861e-18)
(0.999993 -0.000187043 -4.24121e-17)
(0.999997 -0.000190427 -7.72348e-17)
(1 -0.00015255 5.84995e-17)
(0.999995 -8.8237e-05 -3.68574e-17)
(0.999978 -2.14085e-05 1.61706e-16)
(0.999946 2.35794e-05 -1.94797e-18)
(0.999903 3.24186e-05 2.32582e-17)
(0.999854 3.20092e-06 -2.67855e-16)
(0.999807 -5.37064e-05 1.88993e-16)
(0.999763 -0.000125009 7.56038e-17)
(0.999724 -0.000198724 1.25595e-16)
(0.999685 -0.00027181 1.6516e-16)
(0.999644 -0.000346224 -1.59924e-16)
(0.999597 -0.000432176 -1.00116e-16)
(0.999544 -0.000537551 -8.51267e-18)
(0.999487 -0.000671757 -1.25288e-16)
(0.999433 -0.000836129 -7.88758e-17)
(0.999385 -0.00103306 -4.51358e-18)
(0.99935 -0.00125703 -3.82993e-16)
(0.999332 -0.00150635 -1.87755e-16)
(0.999335 -0.0017753 -1.66833e-16)
(0.999359 -0.00206593 -4.31564e-18)
(0.999407 -0.00238448 1.82117e-16)
(0.999467 -0.0027392 -8.8592e-17)
(0.999618 -0.0032005 2.14211e-16)
(0.99928 -0.00380973 -1.76342e-16)
(1.00146 -0.00463192 7.92746e-17)
(0.988887 -0.0097346 -3.62376e-17)
(0.999967 -0.000186572 -6.63573e-18)
(0.999986 -0.000187335 -2.01342e-17)
(1.00002 -0.00012914 -8.54663e-19)
(1.00005 -1.0586e-05 9.81478e-17)
(1.00006 0.000142576 -4.8549e-17)
(1.00005 0.000281702 1.30484e-16)
(1.00001 0.000360296 -1.03969e-16)
(0.999948 0.000351766 2.82366e-17)
(0.999874 0.000260491 -1.82845e-16)
(0.999804 0.000116192 -1.09448e-17)
(0.999749 -4.0427e-05 -3.71451e-17)
(0.999707 -0.000177254 6.59206e-17)
(0.999671 -0.000280427 -1.57566e-16)
(0.999629 -0.000358736 9.13922e-18)
(0.999571 -0.000433926 6.27629e-17)
(0.999492 -0.000535988 -2.17993e-17)
(0.999398 -0.000687916 1.37064e-16)
(0.999296 -0.000905713 -8.52331e-17)
(0.9992 -0.00119023 -2.36191e-16)
(0.999121 -0.0015369 3.224e-16)
(0.999073 -0.00193056 1.40818e-16)
(0.999062 -0.0023578 4.18583e-17)
(0.999094 -0.00280255 1.22581e-16)
(0.999168 -0.00325588 1.24252e-16)
(0.999289 -0.00371927 -7.49316e-17)
(0.999421 -0.00418781 -6.77069e-18)
(0.999704 -0.00470662 -7.3862e-17)
(0.999352 -0.00547816 -1.41945e-16)
(1.00049 -0.00614314 1.40875e-16)
(0.996525 -0.00716994 4.7076e-17)
(0.999972 -0.000195932 7.74502e-18)
(1.00001 -7.23732e-05 1.78254e-18)
(1.00007 0.0001064 -2.49709e-18)
(1.00012 0.000321325 -1.69732e-16)
(1.00016 0.000526203 1.54917e-17)
(1.00016 0.000661152 -1.12924e-16)
(1.00014 0.000684755 1.0198e-16)
(1.00009 0.000590053 -8.50844e-17)
(1.00004 0.000409679 1.75663e-16)
(1.00001 0.000200635 1.15329e-16)
(1.00001 2.1854e-05 -4.84067e-17)
(1.00002 -8.81908e-05 -4.0666e-17)
(1.00004 -0.000121204 2.43142e-16)
(1.00006 -9.7845e-05 -7.69207e-17)
(1.00005 -5.50259e-05 5.55516e-17)
(1.00002 -3.51503e-05 3.56595e-17)
(0.999961 -7.12074e-05 -1.39213e-16)
(0.999893 -0.000183409 2.10555e-16)
(0.999825 -0.000374354 1.34954e-16)
(0.999769 -0.000636863 -1.27377e-17)
(0.999738 -0.000952813 2.76229e-16)
(0.999739 -0.00130314 2.77903e-16)
(0.999779 -0.00166703 2.21889e-16)
(0.999852 -0.00202842 6.31616e-17)
(0.999967 -0.00238119 -1.02533e-16)
(1.00007 -0.00271915 2.4963e-17)
(1.00028 -0.00303825 -1.77851e-16)
(1.00002 -0.00360271 1.86215e-16)
(1.00019 -0.00388827 -4.88413e-17)
(0.99825 -0.00273803 -6.31112e-17)
(1.00001 -0.000156205 -1.08655e-17)
(1.00006 6.32252e-05 4.60377e-18)
(1.00012 0.000316541 4.26603e-17)
(1.00019 0.000570257 1.27276e-16)
(1.00023 0.000769925 1.14524e-17)
(1.00024 0.000858079 1.51486e-17)
(1.00022 0.000806987 -1.13675e-16)
(1.00017 0.000628408 -4.90901e-18)
(1.00013 0.000373846 -9.20335e-17)
(1.0001 0.000113802 -3.47147e-17)
(1.0001 -8.67128e-05 5.21296e-17)
(1.00012 -0.000189498 -3.36729e-17)
(1.00015 -0.000191264 -1.0233e-16)
(1.00019 -0.000119009 6.44456e-17)
(1.00021 -1.62975e-05 4.28109e-18)
(1.00021 6.95003e-05 1.72178e-16)
(1.0002 0.000101148 -5.03757e-17)
(1.00018 5.60697e-05 -9.59626e-17)
(1.00015 -7.04755e-05 -1.35299e-16)
(1.00014 -0.000272104 -3.9598e-16)
(1.00014 -0.000531915 -8.83673e-17)
(1.00016 -0.000831042 -2.54138e-16)
(1.00022 -0.0011495 -2.3796e-16)
(1.00029 -0.00147208 -1.97621e-16)
(1.0004 -0.00179157 2.78281e-16)
(1.00047 -0.00211083 -1.69909e-16)
(1.00059 -0.00241164 1.06093e-16)
(1.00037 -0.0029477 1.2427e-16)
(1.00022 -0.00321753 -1.23578e-16)
(0.998879 -0.00176108 3.48249e-17)
(1.00007 -0.000108178 2.03465e-18)
(1.00012 0.000158329 -5.58071e-18)
(1.00019 0.000436296 -4.11114e-18)
(1.00025 0.000686886 -2.4973e-18)
(1.00029 0.000855815 -6.86902e-17)
(1.00029 0.000892644 1.67276e-17)
(1.00026 0.000781696 -3.68132e-17)
(1.00019 0.000545198 -5.77664e-17)
(1.00011 0.000241446 1.17255e-16)
(1.00004 -5.77716e-05 -3.12249e-17)
(0.999995 -0.000290018 1.29134e-16)
(0.999969 -0.000420875 1.37729e-16)
(0.999964 -0.000450107 -1.22636e-16)
(0.999973 -0.000405485 -1.26607e-16)
(0.999986 -0.000329599 -1.97205e-16)
(1 -0.000267428 -1.71275e-16)
(1.00001 -0.000254004 3.63198e-17)
(1.00003 -0.000309873 -6.46676e-17)
(1.00006 -0.000438999 3.51223e-16)
(1.0001 -0.000634614 8.33025e-17)
(1.00016 -0.000880531 -2.87467e-16)
(1.00024 -0.00115828 -1.00274e-16)
(1.00034 -0.00144848 5.99518e-17)
(1.00046 -0.00173629 8.83481e-17)
(1.0006 -0.0020116 -1.84932e-16)
(1.00071 -0.00227586 1.49879e-16)
(1.0008 -0.00249945 4.72085e-17)
(1.00066 -0.00288161 -2.36094e-16)
(1.00039 -0.00301895 5.60862e-17)
(0.999793 -0.000989254 9.96862e-18)
(1.00013 -6.80456e-05 -2.25526e-18)
(1.00018 0.000206635 8.57686e-18)
(1.00026 0.000476172 -6.97441e-17)
(1.00034 0.000704881 -2.80095e-17)
(1.00039 0.000843882 4.34564e-17)
(1.0004 0.000851151 1.25534e-16)
(1.00037 0.000719417 1.29704e-16)
(1.0003 0.000473942 8.75164e-18)
(1.0002 0.000170384 1.62107e-17)
(1.0001 -0.00012675 1.15765e-16)
(1 -0.000363539 -1.01861e-16)
(0.999927 -0.000511846 -1.63611e-16)
(0.999875 -0.000573494 4.9187e-17)
(0.999847 -0.000573748 2.05779e-16)
(0.99984 -0.000549385 4.26994e-16)
(0.999853 -0.000538173 -1.12697e-18)
(0.999885 -0.00056832 7.15879e-17)
(0.999938 -0.00065485 2.69684e-16)
(1.00001 -0.000798192 -2.88069e-16)
(1.00011 -0.000989607 2.00396e-16)
(1.00023 -0.00121249 2.6629e-16)
(1.00038 -0.00144843 1.62037e-16)
(1.00055 -0.0016783 1.28197e-16)
(1.00072 -0.00188761 -1.20943e-17)
(1.0009 -0.00206451 -4.64616e-17)
(1.00105 -0.00220744 1.68671e-16)
(1.00115 -0.00228202 7.88362e-17)
(1.00107 -0.00244816 1.19121e-16)
(1.00075 -0.00242693 5.52719e-17)
(1.00042 -0.000160148 -4.44426e-17)
(1.00019 -4.1126e-05 3.23324e-18)
(1.00025 0.000215864 1.5174e-17)
(1.00035 0.000458679 3.64009e-17)
(1.00046 0.000660596 3.43071e-17)
(1.00055 0.000781417 1.08453e-16)
(1.0006 0.00078772 -7.42888e-17)
(1.0006 0.000677542 -9.84046e-17)
(1.00056 0.000473935 6.22862e-17)
(1.00048 0.000223963 -1.17367e-16)
(1.00038 -2.04704e-05 -4.35314e-17)
(1.00027 -0.000217557 -2.37159e-16)
(1.00017 -0.00034729 1.62685e-16)
(1.00009 -0.000413654 8.2442e-17)
(1.00004 -0.00043837 1.16219e-17)
(1.00002 -0.000450752 -2.4312e-16)
(1.00003 -0.000479528 4.1035e-17)
(1.00007 -0.000544487 -8.32052e-17)
(1.00015 -0.000653881 -3.24819e-16)
(1.00026 -0.000803913 -4.7001e-18)
(1.0004 -0.000983703 -3.08803e-16)
(1.00057 -0.00117671 -3.03229e-16)
(1.00076 -0.00136568 -1.34305e-16)
(1.00096 -0.0015337 -1.08269e-16)
(1.00116 -0.00166929 -1.20768e-16)
(1.00136 -0.00176388 -6.73693e-17)
(1.00151 -0.0018186 -3.94733e-16)
(1.0016 -0.00180483 1.44577e-17)
(1.00154 -0.00186186 1.43164e-16)
(1.0012 -0.0018256 1.60188e-17)
(1.00075 0.000285128 4.45501e-17)
(1.00023 -2.90315e-05 1.24595e-17)
(1.00032 0.000194156 -3.01094e-17)
(1.00044 0.000401045 -4.37413e-17)
(1.00059 0.000576208 -2.72173e-17)
(1.00073 0.000689628 -3.143e-17)
(1.00084 0.000715782 -3.99722e-17)
(1.00091 0.000655464 7.24794e-17)
(1.00093 0.000526365 -1.61363e-16)
(1.00089 0.000363811 -6.60947e-17)
(1.00083 0.00020481 1.31529e-16)
(1.00073 7.75876e-05 1.97486e-16)
(1.00064 -6.70154e-06 -8.81944e-17)
(1.00055 -5.45226e-05 -2.41011e-16)
(1.00049 -8.42242e-05 -1.01472e-16)
(1.00046 -0.000117806 5.33213e-18)
(1.00047 -0.000175226 9.70752e-18)
(1.00052 -0.000268167 3.85634e-17)
(1.0006 -0.000398578 -5.11943e-17)
(1.00073 -0.000558938 2.46432e-16)
(1.00088 -0.000736984 2.0788e-16)
(1.00107 -0.000917111 1.93877e-16)
(1.00127 -0.00108447 5.43414e-17)
(1.00147 -0.0012258 -1.20747e-16)
(1.00167 -0.00133416 -6.2754e-17)
(1.00185 -0.00140619 1.4807e-16)
(1.00198 -0.00144709 2.57113e-16)
(1.00202 -0.00143456 -2.51735e-16)
(1.00195 -0.00148778 -2.24418e-16)
(1.00163 -0.0015195 3.30764e-17)
(1.00095 0.000343189 -2.27008e-17)
(1.00026 -3.11227e-05 3.68449e-19)
(1.00037 0.000149908 1.16118e-17)
(1.00052 0.000317606 5.19453e-17)
(1.0007 0.000467109 -8.69036e-19)
(1.00089 0.000578515 -4.89841e-17)
(1.00106 0.00063275 -6.07513e-18)
(1.00119 0.000631408 -5.73577e-17)
(1.00127 0.00058524 8.6459e-17)
(1.0013 0.000517142 1.12292e-17)
(1.00128 0.00044927 -1.36632e-16)
(1.00122 0.000396882 -2.18839e-16)
(1.00114 0.000362805 -1.16146e-16)
(1.00107 0.000338247 2.04765e-16)
(1.00101 0.000307858 1.66795e-16)
(1.00098 0.000256105 -1.21275e-16)
(1.00099 0.00017074 -2.78356e-16)
(1.00103 4.70342e-05 4.07737e-17)
(1.00112 -0.000111657 2.4309e-16)
(1.00125 -0.000294919 -2.51488e-16)
(1.0014 -0.000489664 1.57419e-16)
(1.00158 -0.000681543 -1.48634e-16)
(1.00177 -0.000858131 -2.81342e-17)
(1.00196 -0.00100945 9.39707e-17)
(1.00214 -0.00113191 1.47408e-16)
(1.00229 -0.00122538 -2.72328e-17)
(1.00238 -0.00129543 -1.61547e-16)
(1.00237 -0.00132081 -3.33655e-17)
(1.00229 -0.0013974 7.14811e-18)
(1.002 -0.00148084 -7.99615e-18)
(1.00116 0.000206769 -1.17172e-17)
(1.00028 -4.49198e-05 -2.68489e-18)
(1.00041 9.19956e-05 7.01502e-18)
(1.00057 0.000221615 -1.76167e-17)
(1.00078 0.000346738 -7.97417e-18)
(1.001 0.000456434 -5.43374e-17)
(1.00121 0.00053637 -1.55319e-17)
(1.00139 0.000587534 7.94119e-18)
(1.00153 0.000613538 -6.35709e-17)
(1.0016 0.000625781 -3.44455e-17)
(1.00162 0.000633425 2.26915e-17)
(1.0016 0.000640734 5.16801e-17)
(1.00155 0.000643813 1.16046e-16)
(1.0015 0.000632247 7.93475e-18)
(1.00145 0.000593526 -3.28922e-16)
(1.00143 0.000517728 -6.58924e-17)
(1.00144 0.000399083 4.25163e-17)
(1.00149 0.000238588 1.68387e-16)
(1.00158 4.38477e-05 -6.43071e-17)
(1.0017 -0.000172441 1.36722e-16)
(1.00185 -0.000396596 1.75947e-16)
(1.00201 -0.00061518 1.06616e-16)
(1.00219 -0.000817364 -6.01953e-17)
(1.00236 -0.000994978 -1.33146e-16)
(1.00251 -0.00114553 1.15173e-16)
(1.00264 -0.00126905 -1.06946e-16)
(1.0027 -0.00136792 2.94755e-16)
(1.00266 -0.00141809 -3.65707e-17)
(1.00257 -0.00149514 2.66214e-17)
(1.00232 -0.00157925 -9.4507e-17)
(1.0014 3.05082e-05 1.2222e-17)
(1.00029 -6.65287e-05 -1.22954e-17)
(1.00042 2.86932e-05 -5.16569e-18)
(1.0006 0.000124356 -2.41635e-18)
(1.00081 0.000226613 3.67596e-17)
(1.00104 0.000331808 8.88257e-17)
(1.00127 0.000428719 1.06601e-16)
(1.00148 0.000516984 9.45084e-17)
(1.00165 0.000593726 4.14878e-20)
(1.00176 0.000660913 1.19808e-16)
(1.00182 0.000717437 -3.17634e-17)
(1.00183 0.00075939 -2.3603e-18)
(1.00181 0.000778253 1.75947e-16)
(1.00178 0.000763089 2.03635e-16)
(1.00175 0.000704267 4.91701e-17)
(1.00174 0.000596748 1.4099e-16)
(1.00177 0.000440122 2.66949e-17)
(1.00182 0.000239959 -9.24501e-17)
(1.00192 7.18937e-06 1.54991e-16)
(1.00204 -0.000243714 5.39686e-17)
(1.00219 -0.000498514 -3.77456e-16)
(1.00235 -0.000744214 6.34402e-17)
(1.00252 -0.000970643 9.21559e-17)
(1.00268 -0.0011701 1.32826e-17)
(1.00281 -0.00133946 -1.8006e-16)
(1.00292 -0.00147716 7.57611e-17)
(1.00296 -0.0015811 -2.48905e-16)
(1.00291 -0.00162415 1.39282e-16)
(1.00282 -0.00166845 -7.31224e-17)
(1.00262 -0.00171078 -2.90007e-17)
(1.00169 -0.000106142 1.6543e-18)
(1.00029 -9.20073e-05 8.83162e-18)
(1.00043 -3.37199e-05 -1.22956e-17)
(1.00059 3.37017e-05 2.88243e-17)
(1.0008 0.000114756 -2.39545e-17)
(1.00102 0.000211315 -8.59453e-17)
(1.00126 0.000314011 -4.1844e-17)
(1.00147 0.000420878 -1.90181e-16)
(1.00165 0.00052381 1.00475e-16)
(1.00178 0.000617771 -1.38253e-17)
(1.00187 0.000694481 1.17725e-17)
(1.0019 0.000744744 3.01189e-17)
(1.00191 0.000757638 -2.37082e-16)
(1.00191 0.000722829 -1.71297e-16)
(1.00191 0.000633701 2.0406e-16)
(1.00192 0.000489487 2.92588e-17)
(1.00197 0.000294122 8.41061e-17)
(1.00204 5.6726e-05 -1.73101e-16)
(1.00215 -0.000209307 -1.32189e-16)
(1.00228 -0.000488204 1.00279e-16)
(1.00244 -0.000765305 1.20728e-16)
(1.00261 -0.00102778 -1.61606e-16)
(1.00277 -0.00126562 -9.00998e-17)
(1.00293 -0.00147087 1.30215e-16)
(1.00306 -0.0016392 5.99039e-17)
(1.00316 -0.00176712 8.96967e-17)
(1.0032 -0.00184878 4.50214e-17)
(1.00315 -0.00185552 4.05989e-17)
(1.00306 -0.00184285 1.7385e-16)
(1.00289 -0.00181998 -5.21387e-17)
(1.00198 -0.000177626 -2.31658e-17)
(1.00028 -0.000118074 -2.64529e-18)
(1.00042 -9.10606e-05 3.95997e-17)
(1.00057 -4.61073e-05 2.67394e-17)
(1.00075 1.53223e-05 -2.57202e-18)
(1.00096 9.89085e-05 -6.55983e-18)
(1.00118 0.000196297 6.37422e-17)
(1.00139 0.000304098 7.75315e-17)
(1.00157 0.000410399 -7.11351e-17)
(1.0017 0.000505672 -8.10918e-17)
(1.0018 0.000577306 -3.03261e-17)
(1.00186 0.000613513 -1.38773e-17)
(1.0019 0.00060287 1.55262e-16)
(1.00193 0.00053664 -2.78796e-16)
(1.00196 0.000411267 -4.45338e-17)
(1.002 0.000229682 -4.52089e-17)
(1.00208 -7.62671e-07 6.99581e-17)
(1.00218 -0.000268353 1.69454e-16)
(1.00231 -0.000558047 2.77697e-16)
(1.00246 -0.000853311 -3.52026e-16)
(1.00263 -0.00113934 2.26047e-17)
(1.00281 -0.00140353 1.87989e-16)
(1.00299 -0.00163593 1.38021e-16)
(1.00315 -0.00182833 2.60806e-18)
(1.00328 -0.00197533 5.0063e-17)
(1.00338 -0.00207215 1.65943e-16)
(1.00343 -0.00211059 1.30886e-16)
(1.00338 -0.00206224 2.39822e-16)
(1.00329 -0.0019806 -1.64714e-17)
(1.00315 -0.00188465 8.6144e-17)
(1.00228 -0.000183189 1.99174e-17)
(1.00028 -0.000142553 -4.44807e-18)
(1.0004 -0.000141376 -2.24981e-17)
(1.00053 -0.000114157 -3.85142e-17)
(1.00069 -7.12469e-05 4.15025e-18)
(1.00088 -4.70106e-06 6.05265e-17)
(1.00107 7.77069e-05 2.65912e-17)
(1.00126 0.000171578 -6.23584e-18)
(1.00143 0.000262672 3.76117e-17)
(1.00157 0.000339121 6.77129e-17)
(1.00168 0.000386465 3.77231e-17)
(1.00176 0.000392428 4.09085e-17)
(1.00182 0.00034659 -1.33518e-19)
(1.00188 0.00024247 8.20337e-17)
(1.00195 7.95034e-05 4.44434e-17)
(1.00203 -0.00013628 9.52272e-17)
(1.00213 -0.000394973 -6.05944e-17)
(1.00227 -0.000683138 1.84321e-18)
(1.00243 -0.000984864 -1.26086e-16)
(1.00261 -0.00128341 -7.15014e-17)
(1.0028 -0.00156424 -4.11519e-18)
(1.00299 -0.0018152 5.57369e-17)
(1.00318 -0.00202665 -1.29427e-16)
(1.00336 -0.0021904 -4.77424e-17)
(1.0035 -0.00230055 -7.02713e-17)
(1.0036 -0.0023518 -1.52506e-16)
(1.00365 -0.00233499 -6.27773e-17)
(1.0036 -0.00222305 -3.69375e-16)
(1.00353 -0.0020701 -1.56028e-16)
(1.0034 -0.00190274 -2.01229e-17)
(1.00255 -0.000134933 2.56689e-17)
(1.00027 -0.000164066 -3.51682e-18)
(1.00038 -0.000184343 -1.95753e-17)
(1.00049 -0.000171906 -2.94519e-18)
(1.00063 -0.000147143 -4.78804e-17)
(1.00078 -0.000101284 4.9436e-18)
(1.00095 -4.16507e-05 -6.33774e-18)
(1.00112 2.6928e-05 1.70248e-17)
(1.00127 8.91538e-05 3.7663e-17)
(1.00141 0.000132634 -6.23994e-17)
(1.00153 0.000142906 3.20618e-17)
(1.00163 0.000108807 6.39648e-17)
(1.00172 2.1888e-05 -4.47747e-17)
(1.00181 -0.000121718 1.60149e-16)
(1.00191 -0.000319841 -1.47748e-17)
(1.00203 -0.00056395 -2.25494e-16)
(1.00218 -0.000842392 -1.38358e-16)
(1.00234 -0.00114079 -5.92671e-17)
(1.00253 -0.00144306 -6.55159e-17)
(1.00274 -0.0017328 1.85652e-16)
(1.00296 -0.00199615 -1.24597e-17)
(1.00317 -0.00222172 -2.17098e-16)
(1.00338 -0.00240051 1.85802e-16)
(1.00356 -0.00252475 1.85039e-16)
(1.00371 -0.00258854 7.4047e-17)
(1.00382 -0.00258674 -9.34401e-17)
(1.00387 -0.00251012 -7.5518e-18)
(1.00383 -0.00233343 2.94858e-16)
(1.00375 -0.00211248 2.06004e-16)
(1.00363 -0.00187998 -1.70889e-17)
(1.00281 -4.52234e-05 -2.56234e-17)
(1.00026 -0.000182114 4.53754e-18)
(1.00035 -0.000220972 3.45015e-17)
(1.00045 -0.000222321 -2.13149e-17)
(1.00056 -0.00021624 4.01779e-17)
(1.00069 -0.000194345 -1.41728e-17)
(1.00083 -0.000163418 -1.22782e-16)
(1.00098 -0.00012813 2.0323e-17)
(1.00112 -0.000103745 -1.16404e-16)
(1.00126 -0.000101887 -3.92292e-17)
(1.00139 -0.000135662 -6.75203e-17)
(1.00151 -0.000214152 -1.5467e-16)
(1.00162 -0.000343286 -3.62084e-17)
(1.00175 -0.000524281 3.27318e-17)
(1.00189 -0.000752596 -4.37335e-17)
(1.00204 -0.00101781 3.22462e-16)
(1.00222 -0.00130725 2.4923e-17)
(1.00243 -0.00160626 4.03458e-17)
(1.00265 -0.00189918 9.32869e-17)
(1.00288 -0.00217038 -2.88745e-17)
(1.00312 -0.00240702 1.62268e-16)
(1.00335 -0.00259879 7.37071e-17)
(1.00357 -0.0027376 7.93412e-17)
(1.00377 -0.00281636 -1.89479e-16)
(1.00393 -0.00282959 3.4762e-17)
(1.00404 -0.0027727 2.59453e-17)
(1.00409 -0.00263685 -1.50937e-16)
(1.00405 -0.0023986 -7.43415e-17)
(1.00397 -0.00211573 -4.33164e-17)
(1.00386 -0.00182585 3.88103e-17)
(1.00305 7.25069e-05 -1.97415e-18)
(1.00026 -0.00019692 -6.34904e-18)
(1.00032 -0.000252865 -1.18885e-17)
(1.0004 -0.000268905 5.38429e-17)
(1.0005 -0.000282888 -6.12627e-17)
(1.0006 -0.000287884 -2.2973e-17)
(1.00073 -0.000289955 6.35578e-17)
(1.00086 -0.000293039 -7.37306e-17)
(1.001 -0.000311576 1.03273e-16)
(1.00114 -0.000355489 1.34764e-16)
(1.00127 -0.000435739 1.12042e-17)
(1.00141 -0.000558761 1.08573e-16)
(1.00155 -0.000727825 -8.43889e-17)
(1.00171 -0.000941662 -1.22535e-16)
(1.00188 -0.00119383 -5.38427e-17)
(1.00208 -0.00147261 -4.54718e-17)
(1.00229 -0.0017649 1.68355e-16)
(1.00253 -0.00205633 -6.68909e-17)
(1.00278 -0.0023321 -1.73908e-16)
(1.00304 -0.00257769 3.94116e-17)
(1.00329 -0.00278155 -2.68868e-16)
(1.00354 -0.0029346 4.14393e-18)
(1.00377 -0.00302984 -2.59622e-16)
(1.00398 -0.00306105 2.18396e-16)
(1.00414 -0.00302332 -1.22932e-16)
(1.00425 -0.00291276 -4.16269e-17)
(1.0043 -0.00272109 6.9313e-17)
(1.00426 -0.0024264 -3.06971e-17)
(1.00418 -0.00208828 -1.24409e-16)
(1.00406 -0.00174844 1.3369e-17)
(1.00326 0.000209907 5.0202e-18)
(1.00025 -0.000209225 4.89598e-18)
(1.0003 -0.000281975 -1.5634e-17)
(1.00036 -0.000315097 2.09902e-19)
(1.00044 -0.000351231 1.00109e-16)
(1.00054 -0.000385723 6.47432e-17)
(1.00065 -0.000423717 -5.51103e-18)
(1.00077 -0.000467937 1.75239e-16)
(1.0009 -0.000531413 -5.93595e-17)
(1.00104 -0.000621865 -1.16721e-16)
(1.00119 -0.000747669 -4.18307e-17)
(1.00135 -0.000912476 -6.67608e-17)
(1.00152 -0.001117 -7.89478e-17)
(1.00171 -0.00135783 9.26152e-17)
(1.00191 -0.0016271 1.63966e-16)
(1.00214 -0.00191233 -3.25061e-17)
(1.00239 -0.00220049 2.30838e-17)
(1.00265 -0.00247791 -4.61387e-17)
(1.00292 -0.00273096 1.14118e-16)
(1.0032 -0.00294644 -1.01178e-16)
(1.00347 -0.00311419 1.33553e-16)
(1.00374 -0.00322646 -3.94247e-17)
(1.00397 -0.00327739 -1.59108e-17)
(1.00418 -0.00326163 -6.40306e-17)
(1.00434 -0.00317493 8.86082e-17)
(1.00445 -0.00301405 7.0301e-17)
(1.0045 -0.00277124 6.77262e-17)
(1.00445 -0.00242577 -3.43525e-17)
(1.00437 -0.0020388 7.29889e-17)
(1.00425 -0.00165548 2.47233e-17)
(1.00345 0.000358538 5.95793e-18)
(1.00024 -0.000219855 -4.48327e-18)
(1.00026 -0.000310119 -1.18695e-17)
(1.00032 -0.000363745 -1.66298e-17)
(1.00039 -0.000424533 -5.42933e-17)
(1.00048 -0.000490746 -2.59359e-18)
(1.00058 -0.000566457 6.53318e-17)
(1.0007 -0.000652784 -1.25415e-16)
(1.00084 -0.000761019 3.29109e-17)
(1.00098 -0.000896417 7.91036e-17)
(1.00115 -0.00106469 7.28653e-17)
(1.00133 -0.00126678 6.44963e-17)
(1.00152 -0.00150114 -3.29818e-18)
(1.00173 -0.00176265 2.02012e-17)
(1.00197 -0.00204249 -1.60906e-16)
(1.00222 -0.00232786 1.79103e-16)
(1.0025 -0.00260623 -7.32169e-17)
(1.00278 -0.00286489 -7.20469e-18)
(1.00308 -0.00309157 -6.2604e-17)
(1.00337 -0.00327446 8.60803e-17)
(1.00366 -0.00340485 -1.04233e-16)
(1.00393 -0.00347628 -9.68569e-17)
(1.00417 -0.00348397 7.23041e-17)
(1.00438 -0.00342342 -2.06891e-16)
(1.00454 -0.00329092 -1.39104e-16)
(1.00464 -0.00308381 6.05164e-17)
(1.00469 -0.00279471 -1.21362e-16)
(1.00463 -0.00240378 -4.47988e-17)
(1.00455 -0.0019734 1.32753e-17)
(1.00442 -0.00155181 -4.4357e-18)
(1.00363 0.000514937 -2.67717e-17)
(1.00022 -0.000229651 1.42313e-18)
(1.00023 -0.000338949 2.41651e-17)
(1.00029 -0.000416933 -4.62658e-17)
(1.00035 -0.000505041 4.98541e-17)
(1.00043 -0.00060478 -1.41887e-17)
(1.00053 -0.000719074 -1.25954e-16)
(1.00065 -0.000847169 4.17483e-17)
(1.00079 -0.000998435 -2.76659e-17)
(1.00095 -0.00117567 -3.47562e-17)
(1.00113 -0.00138202 -3.19023e-17)
(1.00133 -0.001616 3.42031e-17)
(1.00155 -0.00187421 1.44954e-16)
(1.00179 -0.00215022 -8.09558e-17)
(1.00205 -0.00243474 9.61846e-17)
(1.00233 -0.002715 -1.74573e-16)
(1.00262 -0.00297926 -7.22757e-17)
(1.00293 -0.00321594 1.06418e-16)
(1.00324 -0.0034142 9.26851e-17)
(1.00354 -0.00356363 -5.64569e-17)
(1.00384 -0.00365691 2.57766e-16)
(1.00411 -0.00368877 2.5973e-16)
(1.00435 -0.00365541 -1.25682e-16)
(1.00456 -0.00355303 1.71959e-16)
(1.00472 -0.00337839 7.00291e-17)
(1.00482 -0.00312922 -1.32465e-16)
(1.00486 -0.00279843 9.39457e-17)
(1.0048 -0.00236676 1.83998e-16)
(1.00471 -0.0018976 3.73454e-17)
(1.00457 -0.0014419 -2.39788e-17)
(1.00378 0.000674369 1.87744e-17)
(1.00019 -0.000239307 1.22193e-17)
(1.0002 -0.000369643 3.35704e-18)
(1.00025 -0.000475864 3.42076e-17)
(1.00031 -0.000593821 -4.59605e-17)
(1.00039 -0.000728382 2.90959e-17)
(1.0005 -0.000881348 -1.71626e-17)
(1.00062 -0.00104991 6.98729e-17)
(1.00077 -0.00124152 -2.47104e-17)
(1.00094 -0.00145662 -3.37485e-17)
(1.00114 -0.00169607 -4.12951e-17)
(1.00136 -0.0019563 -1.32129e-16)
(1.0016 -0.0022325 4.46436e-17)
(1.00186 -0.00251736 2.61497e-17)
(1.00214 -0.00280149 4.6511e-17)
(1.00244 -0.00307245 -2.01399e-17)
(1.00275 -0.00331945 6.89445e-17)
(1.00307 -0.00353215 -1.55543e-16)
(1.0034 -0.00370114 -1.71152e-16)
(1.00371 -0.00381735 2.6565e-18)
(1.00401 -0.00387469 -1.71516e-16)
(1.00428 -0.00386897 3.60221e-18)
(1.00453 -0.00379724 1.17948e-16)
(1.00473 -0.00365624 -8.40685e-17)
(1.00488 -0.00344307 8.89718e-18)
(1.00498 -0.00315573 5.94126e-17)
(1.00501 -0.00278725 -3.32887e-17)
(1.00495 -0.00231876 -1.91267e-16)
(1.00485 -0.00181443 -9.4488e-17)
(1.00472 -0.00132778 2.71609e-17)
(1.00392 0.000836247 2.05191e-17)
(1.00015 -0.000249359 -8.73714e-18)
(1.00015 -0.000403038 9.46593e-18)
(1.0002 -0.000540963 -1.31459e-17)
(1.00027 -0.000690975 3.03161e-17)
(1.00036 -0.000861126 -3.68137e-17)
(1.00047 -0.0010522 -2.34602e-17)
(1.0006 -0.00125929 -9.37411e-17)
(1.00076 -0.00148795 1.06561e-16)
(1.00095 -0.00173656 1.48556e-16)
(1.00116 -0.00200399 3.50849e-17)
(1.0014 -0.00228503 2.51582e-17)
(1.00166 -0.00257383 -1.67941e-17)
(1.00194 -0.00286261 2.21479e-17)
(1.00224 -0.0031422 -7.30076e-18)
(1.00256 -0.00340069 1.15872e-16)
(1.00288 -0.00362837 4.67951e-17)
(1.00322 -0.00381611 5.9341e-17)
(1.00355 -0.00395591 9.91951e-18)
(1.00387 -0.00403987 1.39701e-16)
(1.00417 -0.00406305 8.60478e-17)
(1.00444 -0.00402215 -1.29148e-16)
(1.00468 -0.0039149 -9.41865e-17)
(1.00488 -0.00373848 6.747e-17)
(1.00503 -0.00349017 1.59105e-17)
(1.00512 -0.00316813 1.28378e-17)
(1.00515 -0.00276544 -1.21454e-17)
(1.00508 -0.00226343 1.09271e-16)
(1.00498 -0.00172697 4.86576e-17)
(1.00485 -0.00121189 -1.26292e-16)
(1.00405 0.00099763 -2.85217e-18)
(1.0001 -0.000260049 4.00147e-18)
(1.00011 -0.000439467 3.57248e-18)
(1.00016 -0.00061197 2.93788e-17)
(1.00023 -0.000795741 -1.43579e-17)
(1.00032 -0.00100168 -5.69269e-17)
(1.00044 -0.00122977 5.79034e-18)
(1.00059 -0.00147297 -9.86299e-17)
(1.00076 -0.00173515 2.47776e-17)
(1.00096 -0.00201286 -1.11206e-16)
(1.00119 -0.00230338 -3.59305e-17)
(1.00145 -0.00260021 -2.59101e-17)
(1.00172 -0.0028969 3.84627e-17)
(1.00202 -0.00318549 -2.83382e-17)
(1.00234 -0.00345727 5.23189e-18)
(1.00267 -0.00370103 -2.98646e-17)
(1.00301 -0.00390815 -1.16334e-16)
(1.00335 -0.00407071 -1.02689e-17)
(1.00369 -0.00418199 8.3955e-17)
(1.00401 -0.00423514 -9.67974e-17)
(1.00431 -0.0042262 7.09748e-17)
(1.00459 -0.0041526 -1.74464e-16)
(1.00482 -0.00401264 1.00317e-16)
(1.00502 -0.00380375 -1.41927e-16)
(1.00516 -0.00352333 4.881e-17)
(1.00525 -0.00316958 -4.06067e-17)
(1.00527 -0.00273554 8.34578e-19)
(1.0052 -0.00220266 -6.38581e-17)
(1.0051 -0.00163638 -6.3321e-17)
(1.00496 -0.00109478 6.21953e-17)
(1.00417 0.00115925 6.32451e-18)
(1.00004 -0.000271431 -1.04879e-17)
(1.00005 -0.000478993 -3.80878e-17)
(1.0001 -0.000688138 -3.09107e-17)
(1.00018 -0.000906818 1.3784e-17)
(1.00028 -0.00114822 1.62687e-17)
(1.00041 -0.00141179 9.16374e-17)
(1.00057 -0.00168846 1.51979e-16)
(1.00076 -0.00198055 -1.7603e-16)
(1.00098 -0.00228312 2.68184e-17)
(1.00122 -0.00259221 -2.0613e-17)
(1.00149 -0.00290041 1.74732e-16)
(1.00179 -0.00320099 -6.52982e-17)
(1.0021 -0.00348611 -1.87344e-17)
(1.00243 -0.00374767 1.27099e-17)
(1.00277 -0.00397524 -1.49428e-16)
(1.00312 -0.0041613 4.48974e-17)
(1.00347 -0.00429905 3.27277e-17)
(1.00381 -0.00438294 2.20838e-17)
(1.00414 -0.00440703 3.60426e-17)
(1.00444 -0.00436815 -4.11758e-17)
(1.00471 -0.00426435 4.8548e-17)
(1.00495 -0.00409432 -8.49583e-17)
(1.00514 -0.00385568 1.22926e-16)
(1.00528 -0.00354583 1.10862e-16)
(1.00536 -0.00316297 1.49217e-16)
(1.00538 -0.00270004 -8.32694e-18)
(1.00531 -0.00213853 2.37365e-17)
(1.00521 -0.00154443 8.32911e-18)
(1.00507 -0.00097792 -2.27402e-17)
(1.00428 0.00131889 -1.61692e-17)
(0.999971 -0.000283386 8.93477e-18)
(0.999985 -0.000521298 2.36289e-17)
(1.00004 -0.000768382 -3.26451e-18)
(1.00013 -0.00102252 8.82819e-18)
(1.00024 -0.00129856 -3.17057e-18)
(1.00038 -0.00159574 -5.96477e-17)
(1.00055 -0.00190308 -2.88254e-18)
(1.00075 -0.00222159 6.76503e-17)
(1.00099 -0.00254509 9.17982e-17)
(1.00125 -0.00286876 1.66861e-16)
(1.00153 -0.00318457 5.57889e-17)
(1.00184 -0.0034858 5.73284e-17)
(1.00217 -0.00376491 -5.31792e-17)
(1.00251 -0.00401458 -8.74455e-17)
(1.00287 -0.00422515 2.24735e-16)
(1.00322 -0.00439018 1.10697e-16)
(1.00358 -0.0045039 -2.05453e-16)
(1.00392 -0.00456178 -1.13738e-16)
(1.00425 -0.00455865 -2.03411e-16)
(1.00455 -0.00449202 -8.8511e-17)
(1.00482 -0.00436036 9.98962e-17)
(1.00505 -0.0041627 1.65421e-16)
(1.00524 -0.00389672 -2.37268e-16)
(1.00538 -0.00355976 -4.57193e-17)
(1.00546 -0.00314996 -1.26324e-16)
(1.00548 -0.00266015 4.03216e-17)
(1.00541 -0.00207179 -8.13763e-17)
(1.00531 -0.0014514 -7.60024e-17)
(1.00517 -0.000861208 2.79726e-17)
(1.00439 0.00147783 -1.00213e-17)
(0.999889 -0.000295703 1.45033e-18)
(0.999911 -0.000565945 1.6868e-17)
(0.99997 -0.000851452 2.13232e-17)
(1.00006 -0.00114104 -3.65148e-17)
(1.00018 -0.0014505 2.21802e-17)
(1.00034 -0.00177918 3.31388e-17)
(1.00052 -0.00211439 -5.03374e-17)
(1.00074 -0.002456 5.02421e-17)
(1.00099 -0.00279691 8.08848e-18)
(1.00127 -0.0031317 -1.84127e-16)
(1.00157 -0.00345201 -7.35117e-17)
(1.00189 -0.00375135 -8.75526e-17)
(1.00223 -0.00402265 1.31724e-17)
(1.00258 -0.0042594 6.76203e-17)
(1.00294 -0.00445272 -1.2442e-16)
(1.00331 -0.0045972 -5.6482e-17)
(1.00366 -0.00468798 1.82265e-16)
(1.00401 -0.00472143 1.88279e-16)
(1.00434 -0.00469301 2.87444e-17)
(1.00464 -0.00460075 1.47595e-16)
(1.00491 -0.00444348 -8.062e-17)
(1.00515 -0.00422041 7.94723e-18)
(1.00533 -0.00392925 3.41379e-16)
(1.00547 -0.00356723 -1.22133e-16)
(1.00555 -0.0031324 -2.71717e-17)
(1.00557 -0.00261745 -5.11899e-17)
(1.0055 -0.00200381 -1.05801e-17)
(1.00541 -0.00135851 1.99951e-16)
(1.00527 -0.000745737 3.46653e-17)
(1.00449 0.00163408 1.81971e-17)
(0.999796 -0.000308109 -2.54276e-18)
(0.999828 -0.000612282 -2.50225e-17)
(0.99989 -0.000936054 9.00107e-20)
(0.999991 -0.00126057 -1.30966e-17)
(1.00012 -0.00160189 -1.47098e-17)
(1.00029 -0.00195983 -4.28306e-17)
(1.00049 -0.00232016 -7.14124e-18)
(1.00072 -0.00268184 -7.52953e-17)
(1.00098 -0.00303705 -1.33474e-16)
(1.00127 -0.00338006 1.01756e-16)
(1.00159 -0.00370239 -2.05358e-16)
(1.00192 -0.00399796 2.66248e-17)
(1.00227 -0.00426021 2.24756e-17)
(1.00264 -0.00448354 5.51323e-17)
(1.00301 -0.00465979 -4.38241e-17)
(1.00337 -0.0047845 -1.80805e-17)
(1.00374 -0.00485361 2.08248e-17)
(1.00409 -0.00486428 -1.92391e-16)
(1.00442 -0.00481245 1.28599e-16)
(1.00472 -0.00469657 -1.61861e-17)
(1.00499 -0.00451572 5.4096e-17)
(1.00522 -0.00426924 1.40077e-16)
(1.00541 -0.00395479 -2.21703e-16)
(1.00555 -0.00356945 1.0967e-17)
(1.00563 -0.00311118 4.05317e-17)
(1.00565 -0.00257253 -4.59007e-17)
(1.00558 -0.00193483 1.99266e-16)
(1.00549 -0.00126565 9.23627e-19)
(1.00536 -0.000631153 -3.23312e-17)
(1.00459 0.00178916 -9.67911e-18)
(0.999693 -0.000320324 -6.12666e-18)
(0.999735 -0.0006597 3.20809e-19)
(0.9998 -0.00102096 1.36233e-17)
(0.999908 -0.00137949 -7.77992e-18)
(1.00005 -0.00175089 -2.81836e-18)
(1.00023 -0.00213578 -2.79866e-17)
(1.00044 -0.00251863 3.71321e-17)
(1.00069 -0.00289762 4.14736e-17)
(1.00096 -0.00326447 -4.86943e-17)
(1.00127 -0.00361334 3.70315e-17)
(1.0016 -0.00393578 2.8075e-16)
(1.00194 -0.00422623 6.52584e-17)
(1.0023 -0.00447876 -1.49582e-16)
(1.00268 -0.00468859 -4.2999e-17)
(1.00305 -0.00484831 9.16088e-17)
(1.00343 -0.00495427 3.09157e-17)
(1.00379 -0.00500313 9.70967e-17)
(1.00415 -0.00499269 1.30556e-16)
(1.00448 -0.0049193 1.03027e-16)
(1.00478 -0.00478171 -1.08884e-16)
(1.00505 -0.00457918 -1.35872e-16)
(1.00529 -0.00431109 -1.96596e-16)
(1.00548 -0.00397503 1.63967e-17)
(1.00562 -0.00356793 9.70806e-17)
(1.0057 -0.00308763 1.10322e-16)
(1.00572 -0.00252653 4.77949e-18)
(1.00566 -0.00186589 1.04375e-17)
(1.00558 -0.00117384 1.57143e-17)
(1.00545 -0.000518419 -7.02833e-18)
(1.00469 0.00194113 4.99553e-18)
(0.99958 -0.000332115 9.27967e-18)
(0.999631 -0.000707507 -9.74213e-18)
(0.999699 -0.00110508 -2.51199e-19)
(0.999815 -0.00149637 3.67807e-17)
(0.999966 -0.0018959 2.70008e-17)
(1.00016 -0.00230546 6.94488e-17)
(1.00038 -0.00270839 -9.30384e-17)
(1.00064 -0.00310229 8.74849e-17)