1.275 	2.15223e-18 	-2.76991e-20 	-0.0324929 	-0.000493041 	-2.03381e-22
1.825 	2.15223e-18 	-1.39322e-20 	-0.00735204 	-0.00292678 	1.81575e-21
2.375 	2.15223e-18 	-2.66896e-23 	0.126995 	-0.00360948 	-7.53438e-22
