1.45 	0 	0 	-0.301365
2.35 	0 	0 	-0.134027
