/*--------------------------------*- C++ -*----------------------------------*\
  =========                 |
  \\      /  F ield         | OpenFOAM: The Open Source CFD Toolbox
   \\    /   O peration     | Website:  https://openfoam.org
    \\  /    A nd           | Version:  6.0
     \\/     M anipulation  |
\*---------------------------------------------------------------------------*/
FoamFile
{
    version     2.0;
    format      ascii;
    class       surfaceScalarField;
    location    "34";
    object      phi;
}
// * * * * * * * * * * * * * * * * * * * * * * * * * * * * * * * * * * * * * //

dimensions      [0 3 -1 0 0 0 0];

internalField   nonuniform List<scalar> 
3880
(
-1.79766e-05
1.79764e-05
2.20523e-10
-5.34953e-05
3.55185e-05
1.90952e-10
-9.53882e-05
4.18931e-05
-1.09292e-10
-0.00013659
4.12025e-05
-5.51953e-10
-0.000172741
3.61515e-05
-1.06691e-09
-0.000201428
2.86891e-05
-1.62172e-09
-0.00022172
2.02938e-05
-2.20556e-09
-0.000233853
1.21363e-05
-2.82046e-09
-0.000239035
5.18586e-06
-3.4801e-09
2.16954e-07
-4.18508e-09
-0.000239248
-1.7298e-05
3.52744e-05
-5.08464e-05
6.90669e-05
-8.9616e-05
8.06627e-05
-0.000126654
7.82408e-05
-0.000157642
6.71387e-05
-0.000180133
5.11806e-05
-0.000193109
3.32696e-05
-0.000196707
1.57345e-05
-0.000192079
5.58173e-07
-1.06215e-05
-0.000181241
-1.59054e-05
5.11798e-05
-4.54321e-05
9.85937e-05
-7.78683e-05
0.000113099
-0.00010653
0.000106903
-0.000127225
8.78332e-05
-0.000137476
6.14313e-05
-0.000136105
3.18993e-05
-0.000123045
2.67413e-06
-9.93094e-05
-2.31775e-05
-4.2965e-05
-6.69659e-05
-1.37116e-05
6.48914e-05
-3.69706e-05
0.000121853
-5.96364e-05
0.000135765
-7.55333e-05
0.0001228
-8.07679e-05
9.30678e-05
-7.29193e-05
5.35827e-05
-5.06367e-05
9.61669e-06
-1.35349e-05
-3.44276e-05
3.76399e-05
-7.43523e-05
-0.000106123
0.000100798
-1.05533e-05
7.54447e-05
-2.4944e-05
0.000136243
-3.39506e-05
0.000144771
-3.22448e-05
0.000121094
-1.65406e-05
7.73636e-05
1.52887e-05
2.17535e-05
6.4653e-05
-3.97476e-05
0.000132315
-0.00010209
0.000217995
-0.000160033
-0.000207826
0.000319698
-6.17937e-06
8.16241e-05
-8.5641e-06
0.000138628
7.25694e-07
0.000135481
2.57552e-05
9.60645e-05
6.87513e-05
3.43675e-05
0.000131078
-4.05729e-05
0.000213819
-0.000122489
0.000317983
-0.000206254
0.000443994
-0.000286043
-0.000353952
0.00059012
-2.77916e-07
8.1902e-05
1.31445e-05
0.000125206
4.63847e-05
0.000102241
0.000101857
4.05923e-05
0.000180209
-4.39842e-05
0.000281326
-0.00014169
0.000405124
-0.000246287
0.00055216
-0.00035329
0.000723515
-0.000457398
-0.000548729
0.000918292
7.43465e-06
7.44674e-05
4.10644e-05
9.15758e-05
0.000104951
3.83542e-05
0.00019969
-5.4146e-05
0.000323987
-0.000168281
0.000475468
-0.000293172
0.000651519
-0.000422338
0.000850434
-0.000552205
0.00107268
-0.000679646
-0.000797676
0.00132163
1.70663e-05
5.74011e-05
7.55091e-05
3.3133e-05
0.000177317
-6.34538e-05
0.000321576
-0.000198405
0.000505338
-0.000352042
0.000723836
-0.000511671
0.000970797
-0.000669299
0.00123941
-0.000820815
0.0015259
-0.000966143
-0.00111598
0.00184421
2.83512e-05
2.90498e-05
0.000115564
-5.40796e-05
0.000261842
-0.000209732
0.000465783
-0.000402347
0.000724598
-0.000610857
0.00103382
-0.000820892
0.00138665
-0.00102213
0.0017723
-0.00120646
0.00217507
-0.00136891
-0.00151345
0.00257253
4.04757e-05
-1.14258e-05
0.000158377
-0.000171981
0.000352094
-0.000403448
0.000620361
-0.000670614
0.000962561
-0.000953057
0.00137939
-0.00123772
0.0018741
-0.00151684
0.00245578
-0.00178815
0.00314738
-0.0020605
-0.00237227
0.0040062
5.236e-05
-6.37859e-05
0.000199957
-0.000319578
0.00043801
-0.000641502
0.000763009
-0.000995613
0.00117227
-0.00136232
0.00166394
-0.00172938
0.00223693
-0.00208983
0.0028904
-0.00244162
0.00361884
-0.00278894
-0.00314086
0.00438743
6.34856e-05
-0.000127271
0.000238253
-0.000494345
0.000514868
-0.000918117
0.00088532
-0.00136606
0.00134185
-0.00181885
0.00187632
-0.00226385
0.00247953
-0.00269305
0.0031397
-0.00310179
0.00383826
-0.0034875
-0.00384406
0.00454145
7.38722e-05
-0.000201144
0.000272991
-0.000693464
0.000582125
-0.00122725
0.000987494
-0.00177143
0.00147522
-0.00230658
0.00203071
-0.00281934
0.00263816
-0.0033005
0.00327987
-0.0037435
0.00393458
-0.00414221
-0.00448543
0.00457596
8.36634e-05
-0.000284807
0.000304315
-0.000914116
0.000640052
-0.00156299
0.0010707
-0.00220208
0.00157623
-0.00281211
0.00213646
-0.00337958
0.00273121
-0.00389525
0.00334036
-0.00435265
0.00394379
-0.00474564
-0.00506332
0.00452168
9.28488e-05
-0.000377656
0.000331968
-0.00115324
0.000688075
-0.00191909
0.00113438
-0.00264838
0.00164514
-0.00332287
0.00219583
-0.00393026
0.00276372
-0.00446314
0.00332854
-0.00491747
0.00387284
-0.00528995
-0.00557328
0.00438281
0.000101185
-0.000478841
0.000355068
-0.00140712
0.000724487
-0.00228851
0.00117614
-0.00310003
0.00167936
-0.00382609
0.00220662
-0.00445753
0.00273444
-0.00499096
0.00324397
-0.005427
0.0037214
-0.00576738
-0.00601047
0.00415858
0.000108242
-0.000587083
0.00037227
-0.00167115
0.000746864
-0.00266311
0.0011927
-0.00354587
0.00167529
-0.00430868
0.00216569
-0.00494792
0.00264124
-0.00546651
0.00308589
-0.00587165
0.00349004
-0.00617154
-0.00637128
0.00385085
0.000113496
-0.000700579
0.000382061
-0.00193971
0.000752695
-0.00303374
0.00118098
-0.00397416
0.00163007
-0.00475776
0.00207123
-0.00538908
0.00248413
-0.00587941
0.00285646
-0.00624398
0.00318314
-0.00649821
-0.00665408
0.00346594
0.000116416
-0.000816995
0.000383026
-0.00220632
0.000739893
-0.00339061
0.0011389
-0.00437316
0.00154252
-0.00516138
0.00192388
-0.00577044
0.00226618
-0.00622171
0.0025614
-0.0065392
0.00280885
-0.00674566
-0.00685931
0.00301408
0.000116537
-0.000933531
0.00037406
-0.00246384
0.000707143
-0.00372369
0.00106576
-0.00473178
0.00141354
-0.00550916
0.00172688
-0.00608378
0.00199333
-0.00648816
0.00220935
-0.00675522
0.00237809
-0.00691441
-0.00698918
0.00250796
0.000113457
-0.00104699
0.000354397
-0.00270478
0.000653933
-0.00402323
0.000962211
-0.00504006
0.00124577
-0.00579272
0.00148544
-0.00632345
0.0016735
-0.00667622
0.00181057
-0.0068923
0.001903
-0.00700684
-0.00704718
0.001961
0.000106917
-0.00115391
0.000323754
-0.00292162
0.000580681
-0.00428015
0.000830225
-0.00528961
0.00104341
-0.00600591
0.00120624
-0.00648628
0.00131568
-0.00678566
0.00137598
-0.00695259
0.00139576
-0.00702662
-0.00703762
0.0013862
9.67698e-05
-0.00125067
0.000282252
-0.0031071
0.000488538
-0.00448644
0.000672703
-0.00547377
0.000811524
-0.00614473
0.000896507
-0.00657126
0.000928963
-0.00681811
0.000915953
-0.00693958
0.000867534
-0.0069782
-0.00696518
0.000795096
8.29978e-05
-0.00133367
0.000230409
-0.00325451
0.000379268
-0.0046353
0.000493169
-0.00558767
0.000555532
-0.00620709
0.000563376
-0.0065791
0.000521755
-0.00677649
0.000439678
-0.0068575
0.000327793
-0.00686632
-0.00683461
0.000197217
6.5718e-05
-0.00139939
0.000169108
-0.0033579
0.000255128
-0.00472132
0.000295512
-0.00562806
0.000280828
-0.0061924
0.000213357
-0.00651163
0.00010122
-0.00666436
-4.54593e-05
-0.00671083
-0.000216189
-0.00669559
-0.00665046
-0.000400333
4.52011e-05
-0.00144459
9.96112e-05
-0.00341231
0.000118824
-0.00474053
8.38822e-05
-0.00559311
-7.37967e-06
-0.00610114
-0.00014785
-0.00637116
-0.000326952
-0.00648525
-0.000534114
-0.00650366
-0.000759611
-0.00647009
-0.00641655
-0.000993529
2.18968e-05
-0.00146649
2.35888e-05
-0.00341401
-2.64559e-05
-0.00469049
-0.000137255
-0.00548231
-0.000303977
-0.00593442
-0.000515227
-0.00615991
-0.000758435
-0.00624205
-0.00102297
-0.00623913
-0.00130038
-0.00619267
-0.00613332
-0.0015836
-3.52458e-06
-0.00146296
-5.68021e-05
-0.00336073
-0.000176923
-0.00457037
-0.000362968
-0.00529627
-0.000603859
-0.00569353
-0.000884706
-0.00587907
-0.00119128
-0.00593547
-0.00151274
-0.00591767
-0.00184206
-0.00586336
-0.00579383
-0.00218155
-3.01084e-05
-0.00143286
-0.00013874
-0.0032521
-0.000327731
-0.00438138
-0.000586884
-0.00503712
-0.000900379
-0.00538003
-0.00125161
-0.00552783
-0.00162604
-0.00556104
-0.00201328
-0.00553044
-0.00240935
-0.00546729
-0.00540648
-0.0027967
-5.6621e-05
-0.00137623
-0.000218707
-0.00309001
-0.00047247
-0.00412761
-0.000799086
-0.0047105
-0.00117943
-0.00499969
-0.00159759
-0.00510968
-0.00204226
-0.00511637
-0.00250618
-0.00506652
-0.00298844
-0.00498502
-0.00486994
-0.00352498
-8.19867e-05
-0.00129425
-0.000293658
-0.00287834
-0.000605388
-0.00381588
-0.000989454
-0.00432643
-0.00142232
-0.00456683
-0.00188593
-0.00464607
-0.00236728
-0.00463501
-0.00285741
-0.0045764
-0.00335012
-0.00449231
-0.00439084
-0.00382922
-0.000105568
-0.00118868
-0.000362212
-0.0026217
-0.000725125
-0.00345297
-0.0011583
-0.00389325
-0.00163423
-0.0040909
-0.0021332
-0.0041471
-0.00264175
-0.00412645
-0.00315091
-0.00406724
-0.00365347
-0.00398975
-0.00390446
-0.00413985
-0.00012702
-0.00106166
-0.000423781
-0.00232493
-0.000831574
-0.00304518
-0.00130722
-0.00341761
-0.00182016
-0.00357796
-0.00234995
-0.00361732
-0.00288352
-0.00359289
-0.0034127
-0.00353806
-0.00393192
-0.00347053
-0.00339977
-0.00443661
-0.000146082
-0.000915579
-0.000477932
-0.00199308
-0.000924553
-0.00259856
-0.00143676
-0.00290541
-0.00198181
-0.00303291
-0.00253908
-0.00306005
-0.00309627
-0.00303569
-0.0036464
-0.00298794
-0.00418548
-0.00293145
-0.00287403
-0.00471121
-0.000162505
-0.000753074
-0.000524207
-0.00163138
-0.00100363
-0.00211913
-0.00154671
-0.00236232
-0.00211914
-0.00246048
-0.00270043
-0.00247876
-0.00327913
-0.00245699
-0.00384931
-0.00241775
-0.00440817
-0.00237259
-0.00232762
-0.00495457
-0.000176039
-0.000577035
-0.000562095
-0.00124533
-0.00106815
-0.00161308
-0.00163633
-0.00179414
-0.00223123
-0.00186558
-0.00283258
-0.00187741
-0.00342968
-0.00185989
-0.00401748
-0.00182996
-0.00459392
-0.00179616
-0.00176296
-0.00515858
-0.000186443
-0.000390592
-0.000591078
-0.000840691
-0.00111738
-0.00108677
-0.00170467
-0.00120685
-0.00231679
-0.00125346
-0.00293371
-0.00126049
-0.00354531
-0.00124828
-0.00414715
-0.00122812
-0.00473768
-0.00120563
-0.00118375
-0.00531689
-0.000193509
-0.000197083
-0.000610692
-0.000423509
-0.00115064
-0.000546822
-0.00175082
-0.000606673
-0.00237461
-0.000629679
-0.00300216
-0.000632942
-0.00362375
-0.000626685
-0.00423532
-0.000616548
-0.00483564
-0.000605316
-0.000594448
-0.00542493
-0.000197082
-3.55962e-10
-0.00062059
-8.16016e-10
-0.00116741
-1.08187e-09
-0.00177408
-1.19103e-09
-0.00240376
-1.19666e-09
-0.0030367
-1.14073e-09
-0.00366339
-1.05495e-09
-0.00427993
-9.5973e-10
-0.00488525
-8.6285e-10
-7.64886e-10
-0.0054797
-0.000197082
0.000197082
-0.00062059
0.000423507
-0.00116741
0.00054682
-0.00177408
0.00060667
-0.00240376
0.000629677
-0.0030367
0.00063294
-0.00366339
0.000626682
-0.00427993
0.000616546
-0.00488525
0.000605315
0.000594447
-0.0054797
-0.000193509
0.000390591
-0.000610692
0.00084069
-0.00115064
0.00108677
-0.00175082
0.00120685
-0.00237461
0.00125346
-0.00300216
0.00126049
-0.00362375
0.00124828
-0.00423532
0.00122812
-0.00483564
0.00120563
0.00118374
-0.00542493
-0.000186443
0.000577034
-0.000591078
0.00124532
-0.00111738
0.00161308
-0.00170467
0.00179414
-0.00231679
0.00186558
-0.00293371
0.00187741
-0.00354531
0.00185989
-0.00414715
0.00182996
-0.00473768
0.00179615
0.00176296
-0.00531689
-0.000176039
0.000753073
-0.000562095
0.00163138
-0.00106815
0.00211913
-0.00163633
0.00236232
-0.00223123
0.00246047
-0.00283258
0.00247876
-0.00342968
0.00245699
-0.00401748
0.00241775
-0.00459392
0.00237259
0.00232762
-0.00515858
-0.000162505
0.000915578
-0.000524207
0.00199308
-0.00100363
0.00259855
-0.00154671
0.0029054
-0.00211914
0.00303291
-0.00270043
0.00306004
-0.00327913
0.00303569
-0.00384931
0.00298793
-0.00440817
0.00293145
0.00287403
-0.00495457
-0.000146082
0.00106166
-0.000477932
0.00232493
-0.000924553
0.00304517
-0.00143676
0.00341761
-0.00198181
0.00357795
-0.00253908
0.00361731
-0.00309627
0.00359288
-0.0036464
0.00353806
-0.00418548
0.00347053
0.00339976
-0.00471121
-0.00012702
0.00118868
-0.000423781
0.00262169
-0.000831574
0.00345297
-0.00130722
0.00389325
-0.00182016
0.0040909
-0.00234995
0.0041471
-0.00288352
0.00412645
-0.0034127
0.00406724
-0.00393192
0.00398975
0.00390445
-0.00443661
-0.000105568
0.00129425
-0.000362212
0.00287834
-0.000725125
0.00381588
-0.0011583
0.00432643
-0.00163423
0.00456683
-0.0021332
0.00464607
-0.00264175
0.00463501
-0.00315091
0.00457639
-0.00365347
0.00449231
0.00439084
-0.00413985
-8.19868e-05
0.00137623
-0.000293658
0.00309001
-0.000605388
0.00412761
-0.000989455
0.0047105
-0.00142232
0.00499969
-0.00188593
0.00510967
-0.00236728
0.00511636
-0.00285741
0.00506652
-0.00335012
0.00498502
0.00486994
-0.00382922
-5.66211e-05
0.00143286
-0.000218707
0.0032521
-0.00047247
0.00438137
-0.000799086
0.00503711
-0.00117943
0.00538003
-0.00159759
0.00552783
-0.00204226
0.00556103
-0.00250618
0.00553043
-0.00298844
0.00546729
0.00540648
-0.00352498
-3.01084e-05
0.00146296
-0.000138741
0.00336073
-0.000327731
0.00457036
-0.000586884
0.00529627
-0.000900379
0.00569353
-0.00125161
0.00587906
-0.00162605
0.00593547
-0.00201328
0.00591767
-0.00240935
0.00586336
0.00579383
-0.0027967
-3.52466e-06
0.00146649
-5.68023e-05
0.00341401
-0.000176924
0.00469049
-0.000362969
0.00548231
-0.00060386
0.00593442
-0.000884707
0.00615991
-0.00119128
0.00624204
-0.00151274
0.00623913
-0.00184206
0.00619267
0.00613332
-0.00218155
2.18967e-05
0.00144459
2.35885e-05
0.00341231
-2.64563e-05
0.00474053
-0.000137256
0.00559311
-0.000303978
0.00610114
-0.000515228
0.00637116
-0.000758436
0.00648525
-0.00102297
0.00650366
-0.00130038
0.00647009
0.00641654
-0.0015836
4.5201e-05
0.00139939
9.9611e-05
0.0033579
0.000118824
0.00472132
8.38815e-05
0.00562805
-7.38051e-06
0.0061924
-0.000147851
0.00651163
-0.000326953
0.00666435
-0.000534115
0.00671082
-0.000759612
0.00669558
0.00665046
-0.00099353
6.57179e-05
0.00133367
0.000169108
0.00325451
0.000255128
0.0046353
0.000295511
0.00558767
0.000280827
0.00620709
0.000213355
0.0065791
0.000101218
0.00677649
-4.54606e-05
0.0068575
-0.00021619
0.00686631
0.00683461
-0.000400335
8.29977e-05
0.00125068
0.000230408
0.0031071
0.000379267
0.00448644
0.000493168
0.00547377
0.000555531
0.00614472
0.000563375
0.00657126
0.000521754
0.00681811
0.000439676
0.00693958
0.000327791
0.0069782
0.00696518
0.000197215
9.67698e-05
0.00115391
0.000282252
0.00292162
0.000488537
0.00428015
0.000672702
0.0052896
0.000811522
0.0060059
0.000896505
0.00648628
0.000928961
0.00678566
0.000915951
0.00695259
0.000867532
0.00702662
0.00703762
0.000795094
0.000106917
0.00104699
0.000323753
0.00270478
0.00058068
0.00402323
0.000830224
0.00504006
0.00104341
0.00579272
0.00120624
0.00632345
0.00131568
0.00667621
0.00137597
0.00689229
0.00139576
0.00700683
0.00704718
0.0013862
0.000113457
0.000933532
0.000354397
0.00246384
0.000653932
0.00372369
0.00096221
0.00473178
0.00124577
0.00550916
0.00148544
0.00608378
0.00167349
0.00648816
0.00181057
0.00675522
0.001903
0.00691441
0.00698918
0.001961
0.000116537
0.000816995
0.000374059
0.00220632
0.000707142
0.00339061
0.00106576
0.00437316
0.00141353
0.00516138
0.00172688
0.00577044
0.00199333
0.00622171
0.00220934
0.0065392
0.00237809
0.00674566
0.00685931
0.00250796
0.000116416
0.000700579
0.000383025
0.00193971
0.000739893
0.00303374
0.0011389
0.00397416
0.00154252
0.00475776
0.00192388
0.00538908
0.00226617
0.00587941
0.0025614
0.00624397
0.00280884
0.00649821
0.00665408
0.00301408
0.000113496
0.000587083
0.00038206
0.00167115
0.000752695
0.00266311
0.00118098
0.00354587
0.00163007
0.00430868
0.00207122
0.00494792
0.00248413
0.00546651
0.00285646
0.00587164
0.00318313
0.00617154
0.00637128
0.00346593
0.000108242
0.000478841
0.00037227
0.00140712
0.000746864
0.00228851
0.0011927
0.00310003
0.00167529
0.00382609
0.00216568
0.00445753
0.00264124
0.00499096
0.00308588
0.005427
0.00349004
0.00576738
0.00601047
0.00385085
0.000101185
0.000377656
0.000355068
0.00115324
0.000724486
0.0019191
0.00117614
0.00264838
0.00167936
0.00332287
0.00220662
0.00393026
0.00273443
0.00446314
0.00324396
0.00491747
0.00372139
0.00528995
0.00557328
0.00415858
9.28488e-05
0.000284808
0.000331968
0.000914117
0.000688075
0.00156299
0.00113438
0.00220208
0.00164514
0.00281211
0.00219582
0.00337958
0.00276372
0.00389525
0.00332854
0.00435265
0.00387284
0.00474565
0.00506332
0.0043828
8.36634e-05
0.000201144
0.000304315
0.000693465
0.000640052
0.00122725
0.0010707
0.00177144
0.00157623
0.00230658
0.00213646
0.00281934
0.00273121
0.00330051
0.00334036
0.0037435
0.00394379
0.00414221
0.00448543
0.00452168
7.38722e-05
0.000127272
0.000272991
0.000494347
0.000582125
0.000918118
0.000987493
0.00136607
0.00147522
0.00181885
0.00203071
0.00226386
0.00263816
0.00269305
0.00327987
0.00310179
0.00393458
0.0034875
0.00384406
0.00457595
6.34856e-05
6.37863e-05
0.000238253
0.000319579
0.000514868
0.000641503
0.00088532
0.000995615
0.00134185
0.00136232
0.00187632
0.00172939
0.00247953
0.00208984
0.0031397
0.00244162
0.00383825
0.00278895
0.00314087
0.00454145
5.23601e-05
1.14262e-05
0.000199957
0.000171982
0.000438011
0.00040345
0.00076301
0.000670616
0.00117227
0.00095306
0.00166394
0.00123772
0.00223693
0.00151684
0.0028904
0.00178815
0.00361884
0.00206051
0.00237227
0.00438743
4.04758e-05
-2.90496e-05
0.000158378
5.40804e-05
0.000352094
0.000209733
0.000620361
0.000402349
0.000962561
0.00061086
0.00137939
0.000820895
0.0018741
0.00102214
0.00245578
0.00120647
0.00314738
0.00136891
0.00151345
0.0040062
2.83513e-05
-5.74009e-05
0.000115564
-3.31324e-05
0.000261842
6.34549e-05
0.000465784
0.000198407
0.000724599
0.000352045
0.00103382
0.000511674
0.00138666
0.000669303
0.0017723
0.000820819
0.00217507
0.000966148
0.00111599
0.00257253
1.70664e-05
-7.44673e-05
7.55094e-05
-9.15754e-05
0.000177318
-3.83533e-05
0.000321577
5.41475e-05
0.000505339
0.000168283
0.000723837
0.000293175
0.000970798
0.000422342
0.00123941
0.000552209
0.00152591
0.000679651
0.000797682
0.00184421
7.43477e-06
-8.19021e-05
4.10647e-05
-0.000125205
0.000104952
-0.000102241
0.00019969
-4.0591e-05
0.000323987
4.39861e-05
0.000475469
0.000141693
0.00065152
0.00024629
0.000850435
0.000353294
0.00107268
0.000457404
0.000548736
0.00132163
-2.77809e-07
-8.16243e-05
1.31448e-05
-0.000138628
4.63852e-05
-0.000135481
0.000101858
-9.60634e-05
0.000180209
-3.43656e-05
0.000281327
4.05756e-05
0.000405125
0.000122492
0.000552161
0.000206259
0.000723516
0.000286049
0.000353959
0.000918292
-6.17928e-06
-7.5445e-05
-8.56386e-06
-0.000136243
7.26064e-07
-0.000144771
2.57557e-05
-0.000121093
6.87518e-05
-7.73617e-05
0.000131078
-2.17508e-05
0.000213819
3.97513e-05
0.000317983
0.000102094
0.000443994
0.000160038
0.000207833
0.00059012
-1.05533e-05
-6.48917e-05
-2.49438e-05
-0.000121853
-3.39504e-05
-0.000135764
-3.22445e-05
-0.000122799
-1.65403e-05
-9.30659e-05
1.52888e-05
-5.35799e-05
6.46529e-05
-9.61282e-06
0.000132315
3.44326e-05
0.000217995
7.43585e-05
0.00010613
0.000319697
-1.37116e-05
-5.11801e-05
-3.69704e-05
-9.8594e-05
-5.96362e-05
-0.000113099
-7.55331e-05
-0.000106902
-8.07678e-05
-8.78312e-05
-7.29194e-05
-6.14283e-05
-5.06369e-05
-3.18952e-05
-1.35354e-05
-2.66889e-06
3.76392e-05
2.31839e-05
4.29728e-05
0.000100797
-1.59053e-05
-3.52748e-05
-4.54321e-05
-6.90673e-05
-7.78682e-05
-8.06625e-05
-0.00010653
-7.82397e-05
-0.000127225
-6.71367e-05
-0.000137476
-5.11775e-05
-0.000136106
-3.32653e-05
-0.000123046
-1.5729e-05
-9.93101e-05
-5.51443e-07
1.06296e-05
-6.69669e-05
-1.72979e-05
-1.79769e-05
-5.08464e-05
-3.55188e-05
-8.9616e-05
-4.18928e-05
-0.000126654
-4.12014e-05
-0.000157642
-3.61493e-05
-0.000180133
-2.86859e-05
-0.000193109
-2.02895e-05
-0.000196707
-1.21307e-05
-0.00019208
-5.17896e-06
-2.08661e-07
-0.000181242
-1.79766e-05
-5.34952e-05
-9.53882e-05
-0.00013659
-0.000172741
-0.000201428
-0.00022172
-0.000233853
-0.000239036
-0.000239249
0.000184106
-0.000423141
-2.13043e-07
0.00132177
-0.00113715
-5.06556e-07
0.00248595
-0.00116455
3.66168e-07
0.00323323
-0.000748852
1.56882e-06
0.00385315
-0.00062066
7.40721e-07
0.00428191
-0.000428424
-3.32042e-07
0.00462618
-0.000342782
-1.49453e-06
0.00485864
-0.000229554
-2.90176e-06
0.00506844
-0.000209198
-5.95384e-07
-0.000126269
1.21553e-06
0.000295784
-0.000900166
0.00140418
-0.00224555
0.00254206
-0.00230243
0.00327276
-0.00147955
0.00388114
-0.00122903
0.00430326
-0.000850544
0.00464339
-0.000682916
0.00487408
-0.000460246
0.0050831
-0.000418217
-0.000252361
0.000511974
-0.00147911
0.00156333
-0.00329691
0.00265009
-0.00338919
0.00334888
-0.00217835
0.00393506
-0.00181521
0.00434453
-0.00126001
0.00467682
-0.00101521
0.00490428
-0.00068771
0.00511199
-0.000625922
-0.000380675
0.00081882
-0.00219713
0.00178832
-0.00426641
0.00280196
-0.00440283
0.0034559
-0.00283229
0.00401097
-0.00237028
0.00440296
-0.001652
0.00472457
-0.00133682
0.00494795
-0.000911085
0.00515426
-0.000832236
-0.000512652
0.00119675
-0.00307418
0.00206386
-0.00513352
0.00298639
-0.00532535
0.00358584
-0.00343174
0.00410328
-0.00288773
0.00447465
-0.00202336
0.00478395
-0.00164613
0.00500322
-0.00113035
0.00520871
-0.00103772
-0.000650105
0.00162171
-0.00410577
0.00237138
-0.00588319
0.00318973
-0.0061437
0.00372901
-0.00397102
0.0042052
-0.00336392
0.00455478
-0.00237294
0.00485162
-0.00194296
0.00506778
-0.00134651
0.00527379
-0.00124374
-0.000795296
0.00206563
-0.00525311
0.00268969
-0.00650725
0.00339676
-0.00685078
0.00387467
-0.00444893
0.00430918
-0.00379843
0.004638
-0.00270176
0.00492379
-0.00222876
0.00513896
-0.00156168
0.00534771
-0.00145249
-0.000950987
0.00249821
-0.00642969
0.00299573
-0.00700477
0.00359152
-0.00744657
0.00401163
-0.00486903
0.00440734
-0.00419414
0.00471864
-0.00301307
0.00499644
-0.00250655
0.00521389
-0.00177913
0.00542849
-0.00166709
-0.00112046
0.00290184
-0.00748731
0.00327057
-0.0073735
0.00375994
-0.00793594
0.00412942
-0.00523851
0.00449219
-0.00455691
0.00479119
-0.00331206
0.00506554
-0.00278091
0.00528959
-0.00200318
0.00551401
-0.00189151
-0.00130749
0.00328129
-0.00819608
0.00351256
-0.00760477
0.00389119
-0.00831457
0.00422076
-0.00556808
0.00455702
-0.00489317
0.0048507
-0.00360575
0.00512708
-0.00305728
0.00536335
-0.00223946
0.00560181
-0.00212997
-0.00151682
0.0432807
-0.000917729
-0.0505591
0.0390664
-0.00339041
0.0369872
-0.00623537
0.0368028
-0.00538369
0.036656
-0.00474635
0.0368226
-0.00377237
0.0370142
-0.00324887
0.0372702
-0.00249542
0.0374827
-0.00234248
-0.0018077
0.0523387
0.00331118
-0.0565676
0.0501446
-0.00119623
0.0475499
-0.00364068
0.0460095
-0.00384337
0.0448025
-0.00353926
0.0439768
-0.00294671
0.0433303
-0.00260241
0.0429139
-0.00207899
0.0425138
-0.00194242
-0.00161612
0.0539032
0.00452296
-0.055115
0.0526223
8.4633e-05
0.0510053
-0.00202359
0.0496954
-0.0025335
0.0485969
-0.00244076
0.0477371
-0.00208693
0.0469849
-0.00185021
0.046423
-0.00151708
0.0458672
-0.00138661
-0.00123435
0.0520599
0.00437391
-0.0519108
0.0516515
0.000493028
0.0508177
-0.00118979
0.0499773
-0.00169312
0.0492338
-0.00169728
0.0486323
-0.00148544
0.0480809
-0.00129873
0.0476444
-0.00108061
0.0472058
-0.000947976
-0.000883779
0.0500069
0.00369103
-0.049324
0.0498795
0.000620446
0.0494562
-0.000766517
0.0489523
-0.00118924
0.0484803
-0.00122527
0.0480951
-0.00110023
0.0477445
-0.000948122
0.0474588
-0.00079495
0.0471804
-0.000669548
-0.000633361
0.0483079
0.00289062
-0.0475075
0.0483328
0.000595547
0.0480812
-0.000514912
0.047749
-0.000856974
0.0474236
-0.000899967
0.0471532
-0.000829821
0.0469185
-0.000713413
0.0467252
-0.000601618
0.0465515
-0.000495836
-0.000464307
0.0470994
0.00210105
-0.0463098
0.0471928
0.000502205
0.047018
-0.000340148
0.0467656
-0.000604582
0.0465092
-0.000643571
0.0462865
-0.000607169
0.0460995
-0.000526393
0.0459445
-0.000446587
0.0458158
-0.000367109
-0.000337749
0.046285
0.00136213
-0.0455461
0.0464286
0.000358607
0.046295
-0.00020658
0.0460785
-0.000388009
0.0458519
-0.000416957
0.0456454
-0.000400701
0.0454707
-0.000351699
0.0453244
-0.000300269
0.0452055
-0.000248184
-0.000225317
0.0457884
0.000668715
-0.045095
0.0459639
0.000183077
0.0458563
-9.88831e-05
0.0456563
-0.000188096
0.0454423
-0.000202886
0.0452406
-0.000199033
0.0450656
-0.000176698
0.0449174
-0.000152078
0.044795
-0.000125768
-0.000113899
0.0455539
-0.0448852
0.045737
0.0456381
0.04545
0.0452471
0.0450481
0.0448714
0.0447193
0.0445935
0.0567754
0.00230154
-0.0560629
0.0573298
0.00291149
0.0576777
0.00350304
0.0577691
0.00406712
0.0575574
0.00459452
0.0570027
0.00507642
0.0560735
0.00550511
0.0547405
0.00587447
0.0529483
0.00617961
0.00639543
0.0513979
0.00169285
-0.0507892
0.0520516
0.0022578
0.0527363
0.00281837
0.0534339
0.0033695
0.054123
0.00390545
0.0547794
0.00442001
0.0553778
0.00490673
0.055893
0.00535925
0.0563008
0.00577183
0.00612855
0.0480917
0.00121796
-0.0476168
0.0486476
0.00170193
0.0492812
0.00218473
0.0499873
0.00266348
0.0507577
0.00313503
0.0515818
0.00359591
0.0524462
0.00404229
0.0533355
0.00446999
0.0542328
0.0048745
0.00524637
0.0454945
0.000891358
-0.0451679
0.0459012
0.00129518
0.0463887
0.00169725
0.0469568
0.00209535
0.0476047
0.00248719
0.0483301
0.00287045
0.0491297
0.00324273
0.0499982
0.00360151
0.0509287
0.003944
0.00426421
0.0439058
0.000651531
-0.0436659
0.0442197
0.000981249
0.0446078
0.00130909
0.04507
0.00163318
0.0456055
0.00195167
0.0462133
0.00226267
0.0468917
0.00256433
0.0476384
0.00285477
0.0484506
0.00313187
0.00339078
0.04281
0.000469361
-0.0426278
0.0430622
0.000729098
0.0433842
0.000987066
0.0437756
0.00124175
0.0442357
0.00149164
0.0447631
0.00173524
0.0453563
0.00197109
0.0460134
0.0021977
0.0467318
0.00241348
0.00261504
0.0421162
0.000324592
-0.0419714
0.0423278
0.000517431
0.042606
0.000708854
0.0429501
0.000897712
0.0433588
0.00108286
0.0438309
0.00126316
0.0443645
0.00143751
0.0449574
0.00160479
0.0456071
0.00176382
0.00191229
0.0416642
0.000203986
-0.0415436
0.04185
0.000331694
0.0421004
0.000458445
0.0424146
0.000583467
0.0427915
0.000705991
0.0432294
0.000825257
0.0437264
0.000940518
0.0442801
0.00105104
0.0448879
0.00115602
0.00125412
0.0413996
9.81534e-05
-0.0412937
0.0415695
0.000161801
0.0418029
0.000224988
0.0420991
0.000287326
0.0424566
0.000348428
0.042874
0.000407912
0.0433491
0.000465401
0.0438796
0.000520521
0.0444627
0.000572882
0.000621844
0.0412741
-0.0411759
0.0414359
0.0416609
0.0419482
0.0422966
0.0427045
0.0431699
0.0436905
0.0442633
0.0481095
-0.00335376
-0.0475524
0.0488228
-0.00289492
0.0496455
-0.00240625
0.0505376
-0.00188568
0.0514715
-0.00133417
0.0524283
-0.000759632
0.05339
-0.000166565
0.0543349
0.000441336
0.0552365
0.00105933
0.00168163
0.0479852
-0.00340686
-0.0479321
0.0480815
-0.00299122
0.0482205
-0.00254528
0.0484082
-0.00207332
0.0486505
-0.00157648
0.0489517
-0.00106083
0.0493152
-0.000530125
0.0497433
1.33194e-05
0.0502356
0.000567012
0.00112799
0.046897
-0.00314751
-0.0471564
0.0466931
-0.00278732
0.0465499
-0.002402
0.0464725
-0.00199594
0.0464672
-0.00157121
0.0465376
-0.00113123
0.046686
-0.000678512
0.0469144
-0.000215066
0.0472243
0.000257023
0.000735497
0.0455818
-0.00277139
-0.0459579
0.0452636
-0.00246908
0.0450067
-0.00214511
0.0448147
-0.00180394
0.0446909
-0.00144744
0.0446377
-0.00107803
0.044657
-0.000697796
0.0447506
-0.000308693
0.0449204
8.72712e-05
0.000488005
0.0446599
-0.00234961
-0.0450817
0.0442919
-0.00210112
0.0439823
-0.0018355
0.0437342
-0.0015558
0.0435504
-0.00126364
0.0434332
-0.000960869
0.0433846
-0.000649219
0.0434063
-0.000330389
0.0434997
-6.11878e-06
0.000321798
0.0439896
-0.00190032
-0.0444389
0.0435923
-0.00170381
0.0432508
-0.00149399
0.0429681
-0.00127311
0.0427469
-0.00104241
0.0425893
-0.000803287
0.0424972
-0.00055714
0.0424722
-0.000305356
0.0425154
-4.93621e-05
0.000209376
0.043559
-0.00143594
-0.0440234
0.043145
-0.00128982
0.042785
-0.00113399
0.0424818
-0.000969939
0.042238
-0.000798583
0.0420556
-0.000620939
0.0419365
-0.000438041
0.0418821
-0.000250944
0.0418935
-6.07288e-05
0.000131495
0.0432801
-0.000961466
-0.0437546
0.0428551
-0.000864772
0.0424828
-0.00076169
0.042166
-0.000653151
0.0419072
-0.000539759
0.0417084
-0.000422176
0.0415715
-0.000301086
0.0414977
-0.000177192
0.0414882
-5.12173e-05
7.60949e-05
0.0431192
-0.000481539
-0.0435992
0.042688
-0.000433518
0.0423086
-0.000382326
0.0419839
-0.000328403
0.0417161
-0.000272048
0.0415076
-0.000213584
0.0413598
-0.000153348
0.0412743
-9.16916e-05
0.0412521
-2.89733e-05
3.44349e-05
0.0430454
-0.0435269
0.0426119
0.0422295
0.0419011
0.0416291
0.0414155
0.0412622
0.0411705
0.0411415
0.0429475
0.00017463
-0.000193168
0.0429914
0.000521273
-0.000565197
0.0430658
0.000872665
-0.000947114
0.0431884
0.00123699
-0.00135952
0.043389
0.0016196
-0.00182026
0.0437114
0.00202473
-0.00234709
0.0442143
0.00245451
-0.00295739
0.0449695
0.00291135
-0.00366663
0.0460713
0.00337129
-0.00447301
0.00392364
-0.00540478
0.0429657
0.00013788
0.0430729
0.000414032
0.043254
0.000691542
0.0435194
0.000971594
0.043884
0.001255
0.0443668
0.001542
0.0449896
0.00183165
0.0457769
0.00212404
0.0467446
0.00240362
0.00273615
0.0429665
0.000100272
0.0430779
0.000302713
0.0432627
0.000506699
0.0435251
0.000709218
0.0438707
0.000909373
0.0443068
0.00110587
0.0448419
0.00129662
0.045486
0.00147991
0.0462438
0.00164578
0.0018236
0.0429586
7.05586e-05
0.0430476
0.000213748
0.043196
0.000358301
0.0434046
0.000500629
0.0436744
0.000639525
0.0440066
0.000773694
0.0444017
0.000901566
0.0448596
0.00102194
0.0453756
0.0011298
0.00124131
0.0429506
4.88955e-05
0.0430161
0.000148276
0.0431258
0.000248588
0.0432795
0.000346938
0.0434767
0.000442265
0.0437169
0.000533521
0.0439989
0.000619563
0.0443214
0.000699461
0.0446808
0.000770426
0.000840404
0.0429445
3.33075e-05
0.0429918
0.000101017
0.043071
0.000169331
0.0431818
0.000236196
0.0433232
0.000300835
0.0434942
0.000362512
0.0436933
0.000420483
0.0439186
0.000474155
0.044167
0.000522054
0.000568449
0.0429403
2.19171e-05
0.0429749
6.64623e-05
0.0430328
0.000111385
0.0431137
0.000155327
0.0432168
0.000197765
0.0433411
0.000238211
0.0434854
0.000276186
0.0436482
0.000311302
0.0438275
0.000342729
0.000372633
0.0429376
1.32767e-05
0.0429638
4.02483e-05
0.0430077
6.74356e-05
0.043069
9.40298e-05
0.0431471
0.000119716
0.0432411
0.000144205
0.0433501
0.000167218
0.0434728
0.00018853
0.0436078
0.000207708
0.000225854
0.0429359
6.26122e-06
0.0429572
1.89816e-05