1.45 	0 	0 	-0.291669
2.35 	0 	0 	-0.126988
