1.45 	0 	0 	-0.000470857 	-0.00327033 	3.97296e-21
2.35 	0 	0 	0.0918206 	-0.00770322 	2.22425e-21
