/*--------------------------------*- C++ -*----------------------------------*\
  =========                 |
  \\      /  F ield         | OpenFOAM: The Open Source CFD Toolbox
   \\    /   O peration     | Website:  https://openfoam.org
    \\  /    A nd           | Version:  6.0
     \\/     M anipulation  |
\*---------------------------------------------------------------------------*/
FoamFile
{
    version     2.0;
    format      ascii;
    class       volScalarField;
    location    "0.1";
    object      p;
}
// * * * * * * * * * * * * * * * * * * * * * * * * * * * * * * * * * * * * * //

dimensions      [0 2 -2 0 0 0 0];

internalField   nonuniform List<scalar> 
1600
(
6.00967e-08
-0.00117258
-0.00386635
-0.00749693
-0.0113964
-0.0150711
-0.018167
-0.0204347
-0.0217088
-0.0218916
-0.0209388
-0.0188489
-0.0156547
-0.0114184
-0.00622684
-0.000186813
0.00657827
0.0139309
0.0217212
0.0297901
0.0379718
0.0460963
0.0539915
0.0614867
0.0684158
0.0746223
0.0799636
0.0843152
0.0875766
0.0896769
0.0905808
0.090296
0.0888813
0.0864558
0.0832096
0.0794172
0.0754528
0.0718181
0.0691739
0.0680755
0.00116786
-1.63429e-05
-0.00220954
-0.00503133
-0.00804097
-0.0108752
-0.0132528
-0.0149632
-0.0158581
-0.0158433
-0.0148701
-0.0129276
-0.0100361
-0.00624334
-0.0016202
0.00374358
0.0097421
0.0162557
0.0231532
0.0302948
0.0375342
0.0447217
0.0517062
0.0583378
0.064472
0.0699738
0.0747218
0.0786115
0.0815605
0.083514
0.0844498
0.084384
0.0833772
0.0815407
0.0790423
0.0761123
0.0730478
0.0702197
0.068072
0.0669792
0.00386158
0.00214341
-8.33125e-05
-0.00261774
-0.00521829
-0.00761679
-0.0095922
-0.0109754
-0.0116423
-0.0115104
-0.0105349
-0.00870302
-0.00603006
-0.00255548
0.0016601
0.00653846
0.0119864
0.0178973
0.0241539
0.0306308
0.0371964
0.0437158
0.0500528
0.0560729
0.0616467
0.066654
0.0709872
0.0745543
0.0772836
0.0791288
0.0800732
0.080134
0.0793665
0.0778681
0.0757807
0.0732919
0.0706381
0.0680975
0.0659259
0.0643332
0.00754774
0.00495879
0.0023426
-0.000259786
-0.00278683
-0.00503931
-0.00684505
-0.00807416
-0.00862969
-0.00844592
-0.00748687
-0.00574333
-0.00323019
1.62899e-05
0.00394149
0.00847481
0.0135316
0.0190149
0.0248177
0.0308252
0.0369167
0.042968
0.0488535
0.0544496
0.0596372
0.064306
0.0683564
0.0717031
0.0742797
0.0760427
0.0769755
0.0770911
0.0764351
0.0750878
0.0731644
0.0708143
0.068227
0.0656145
0.063063
0.060632
0.0116462
0.00804716
0.00487141
0.00202168
-0.000605488
-0.00286692
-0.00463094
-0.00580385
-0.00631585
-0.00611942
-0.00518983
-0.00352432
-0.00114012
0.00192769
0.00562791
0.00989499
0.0146507
0.0198056
0.0252611
0.030911
0.0366427
0.0423404
0.0478872
0.0531676
0.0580703
0.0624912
0.0663356
0.0695216
0.0719847
0.0736815
0.0745921
0.0747226
0.0741065
0.0728064
0.0709118
0.0685377
0.0658352
0.0629653
0.0598581
0.0564407
0.0157433
0.011092
0.0072655
0.00405174
0.00120328
-0.00117947
-0.00299792
-0.00419013
-0.00471083
-0.00453077
-0.00363803
-0.00203762
0.00024946
0.00318717
0.0067255
0.0108019
0.0153429
0.0202648
0.0254753
0.0308743
0.0363555
0.0418094
0.0471256
0.0521945
0.0569095
0.06117
0.0648831
0.0679678
0.070359
0.0720106
0.0728971
0.0730155
0.0723866
0.0710552
0.0690879
0.0665703
0.0636243
0.060373
0.0566112
0.0521572
0.0195371
0.0138372
0.00931314
0.00565947
0.00250512
-8.03531e-05
-0.00202388
-0.00329087
-0.00385831
-0.00371374
-0.00285786
-0.00130436
0.000920551
0.0037783
0.00721849
0.0111801
0.0155925
0.0203761
0.0254426
0.0306961
0.0360348
0.0413538
0.046547
0.0515082
0.0561329
0.0603209
0.0639792
0.0670254
0.0693915
0.0710262
0.0718965
0.0719889
0.071311
0.0698915
0.0677766
0.065028
0.0617467
0.0580302
0.053558
0.0480621
0.022799
0.0160727
0.0108322
0.00669413
0.003181
0.000340243
-0.00177481
-0.00315214
-0.00378825
-0.00368638
-0.00285927
-0.00132931
0.000871198
0.0036999
0.00710483
0.0110253
0.0153923
0.0201283
0.0251474
0.0303562
0.035656
0.0409449
0.0461189
0.0510729
0.055702
0.0599047
0.0635858
0.0666594
0.0690525
0.0707067
0.0715796
0.0716466
0.0709021
0.0693599
0.0670487
0.0640112
0.0603339
0.0560989
0.0508867
0.0443591
0.0253506
0.0176212
0.0116597
0.00701435
0.00311196
-1.51733e-05
-0.00232791
-0.00383377
-0.00454654
-0.00448342
-0.0036683
-0.00213251
8.49432e-05
0.0029373
0.00637048
0.0103231
0.0147263
0.0195029
0.024568
0.02983
0.035192
0.0405533
0.0458101
0.0508559
0.055584
0.0598899
0.0636745
0.0668467
0.0693261
0.0710453
0.0719513
0.0720077
0.0711961
0.0695163
0.0669817
0.0636198
0.0595085
0.0547209
0.0487512
0.041201
0.0270433
0.0183291
0.0116471
0.00648373
0.00217751
-0.00125047
-0.00377175
-0.00541042
-0.00619531
-0.00615628
-0.00532808
-0.00375099
-0.00147081
0.00146124
0.00498831
0.00904713
0.0135675
0.0184719
0.0236758
0.0290884
0.0346131
0.0401487
0.0455898
0.0508274
0.0557515
0.0602531
0.0642274
0.067576
0.0702094
0.0720494
0.0730313
0.0731062
0.0722427
0.0704272
0.0676597
0.0639553
0.0593867
0.0540242
0.0472824
0.038709
0.0277462
0.0180565
0.0106553
0.00497036
0.000256089
-0.00347518
-0.00620352
-0.00796709
-0.00880833
-0.0087692
-0.00789498
-0.00623462
-0.00384044
-0.000768483
0.00292069
0.00716104
0.0118805
0.0170006
0.0224366
0.0280974
0.0338855
0.039698
0.0454265
0.0509587
0.0561797
0.0609749
0.0652319
0.0688429
0.0717076
0.0737356
0.0748494
0.0749862
0.0741011
0.0721674
0.0691725
0.0651205
0.0600824
0.0541289
0.0465986
0.036988
0.027334
0.0166693
0.00854871
0.00234266
-0.00277692
-0.00680476
-0.00972806
-0.011598
-0.01247
-0.0123977
-0.0114365
-0.00964365
-0.00707831
-0.00380191
0.000120687
0.00462023
0.00962253
0.0150479
0.0208106
0.0268182
0.0329715
0.039165
0.0452869
0.0512204
0.0568449
0.0620382
0.0666787
0.0706478
0.0738324
0.0761285
0.0774438
0.0777008
0.0768397
0.07482
0.0716166
0.0672236
0.0617118
0.0551546
0.0468149
0.0361385
0.0256814
0.0140328
0.00518988
-0.00153459
-0.00705129
-0.0113614
-0.0144585
-0.0164069
-0.0172747
-0.0171271
-0.0160294
-0.0140476
-0.0112479
-0.00769773
-0.00346654
0.00137313
0.00674476
0.012567
0.0187524
0.0252071
0.0318294
0.038511
0.0451362
0.0515828
0.0577235
0.0634272
0.0685618
0.0729956
0.0766016
0.07926
0.0808619
0.081313
0.0805372
0.0784787
0.0750988
0.0703817
0.0643986
0.0572273
0.048052
0.0362662
0.0226568
0.0100065
0.000435228
-0.00680331
-0.0127043
-0.0172754
-0.0205171
-0.0225069
-0.0233261
-0.0230517
-0.0217594
-0.0195243
-0.0164205
-0.0125217
-0.00790207
-0.00263747
0.00319303
0.00950605
0.0162125
0.0232165
0.0304145
0.0376948
0.0449376
0.052015
0.0587918
0.0651273
0.0708768
0.0758949
0.0800381
0.0831687
0.0851591
0.0858956
0.0852832
0.0832488
0.0797381
0.0747243
0.0682793
0.0604849
0.0504422
0.0374887
0.018119
0.00444059
-0.00586841
-0.0136153
-0.0198834
-0.0246876
-0.0280361
-0.0300205
-0.0307365
-0.0302736
-0.0287191
-0.0261583
-0.0226734
-0.0183448
-0.0132514
-0.00747274
-0.00109043
0.0058101
0.0131382
0.0207965
0.0286796
0.0366731
0.0446529
0.052485
0.0600257
0.0671237
0.0736212
0.0793568
0.0841688
0.0878993
0.0903987
0.091531
0.0911789
0.0892486
0.0856679
0.0803968
0.0735066
0.0650824
0.0541349
0.0399416
0.0119127
-0.00282841
-0.0138875
-0.0221355
-0.0287486
-0.0337505
-0.0371583
-0.0390798
-0.0396264
-0.0389022
-0.0370075
-0.0340387
-0.0300873
-0.0252403
-0.019582
-0.0131953
-0.00616465
0.00142305
0.00947611
0.0178963
0.0265771
0.035402
0.0442429
0.0529595
0.0614001
0.0694018
0.0767929
0.0833944
0.0890244
0.0935017
0.0966517
0.0983116
0.0983379
0.096612
0.0930399
0.0875647
0.0802548
0.0711972
0.0593026
0.0437842
0.00386599
-0.011981
-0.0238054
-0.0325451
-0.0394753
-0.0446302
-0.0480382
-0.0498261
-0.0501238
-0.0490524
-0.0467271
-0.043257
-0.0387436
-0.0332814
-0.0269601
-0.0198665
-0.012087
-0.00370945
0.00517435
0.0144664
0.0240602
0.0338377
0.0436679
0.0534051
0.0628893
0.0719465
0.08039
0.0880222
0.0946384
0.100031
0.103997
0.106341
0.106889
0.105492
0.102028
0.0964185
0.088726
0.079036
0.0661485
0.0492064
-0.00621353
-0.0232186
-0.0358265
-0.0450452
-0.0522564
-0.0575081
-0.060843
-0.0624107
-0.0623638
-0.0608433
-0.0579822
-0.0539039
-0.0487213
-0.0425376
-0.0354479
-0.0275427
-0.0189097
-0.00963677
0.000185682
0.0104613
0.0210849
0.0319386
0.0428897
0.0537885
0.0644677
0.0747425
0.084411
0.0932558
0.101047
0.107549
0.112522
0.115736
0.116978
0.116061
0.112831
0.107179
0.0991559
0.0888418
0.0749133
0.0564358
-0.018542
-0.0367687
-0.050181
-0.0598611
-0.0673067
-0.0725835
-0.0757536
-0.0769947
-0.0764869
-0.0743957
-0.070875
-0.0660654
-0.0600929
-0.05307
-0.0450982
-0.0362706
-0.0266754
-0.0163989
-0.00552858
0.00584284
0.0176134
0.0296677
0.0418733
0.0540784
0.0661103
0.0777745
0.0888543
0.0991116
0.10829
0.116119
0.122321
0.126624
0.128767
0.128519
0.12568
0.120103
0.11182
0.100901
0.0858828
0.0657448
-0.0333651
-0.0528909
-0.0671316
-0.0772482
-0.0848669
-0.0900769
-0.0929663
-0.0937483
-0.092637
-0.0898282
-0.0855014
-0.0798176
-0.072918
-0.0649257
-0.0559481
-0.0460807
-0.0354106
-0.0240206
-0.0119931
0.000585202
0.0136184
0.0269963
0.0405898
0.0542479
0.067795
0.0810289
0.0937189
0.105606
0.116406
0.12581
0.133499
0.139148
0.142442
0.143091
0.14084
0.13549
0.127045
0.115556
0.0993987
0.0774604
-0.0509644
-0.0718855
-0.0869818
-0.0974996
-0.10521
-0.110233
-0.112694
-0.112849
-0.110958
-0.107253
-0.101945
-0.0952197
-0.0872363
-0.0781292
-0.0680116
-0.0569799
-0.0451185
-0.0325043
-0.019212
-0.00531883
0.00908876
0.0239094
0.0390214
0.0542783
0.0695051
0.0844948
0.0990051
0.112757
0.125436
0.136696
0.146167
0.153464
0.158207
0.160035
0.158617
0.153691
0.145215
0.133211
0.115871
0.0919752
-0.0716679
-0.094105
-0.110088
-0.120956
-0.128647
-0.133326
-0.135165
-0.134482
-0.131589
-0.126768
-0.120269
-0.112306
-0.103059
-0.092674
-0.0812699
-0.0689424
-0.0557706
-0.0418226
-0.0271613
-0.011851
0.00403572
0.0204111
0.0371657
0.0541625
0.0712319
0.0881662
0.104715
0.120582
0.135423
0.148852
0.160442
0.169742
0.176291
0.17964
0.179366
0.175116
0.166788
0.154356
0.135792
0.109762
-0.0958633
-0.119971
-0.136875
-0.148019
-0.155539
-0.159661
-0.160626
-0.158831
-0.154659
-0.148453
-0.140508
-0.131076
-0.120357
-0.108511
-0.0956617
-0.0819002
-0.0672974
-0.0519087
-0.0357809
-0.0189603
-0.00150034
0.0165304
0.0350406
0.0539089
0.0729771
0.092043
0.110853
0.129098
0.146408
0.162352
0.176447
0.188164
0.196947
0.202238
0.203496
0.200251
0.192311
0.179576
0.159759
0.131391
-0.124018
-0.149997
-0.167858
-0.179167
-0.186302
-0.189581
-0.189339
-0.186079
-0.180277
-0.17235
-0.162654
-0.151478
-0.139049
-0.125539
-0.111071
-0.0957322
-0.079579
-0.0626487
-0.0449669
-0.0265559
-0.0074438
0.0123265
0.0326888
0.0535448
0.0747556
0.0961322
0.117426
0.138321
0.158425
0.177268
0.194304
0.208919
0.220447
0.228197
0.231478
0.229666
0.222438
0.209584
0.1885
0.15756
-0.156708
-0.18482
-0.203671
-0.214977
-0.221426
-0.22347
-0.221579
-0.216395
-0.208518
-0.198458
-0.18664
-0.173398
-0.158987
-0.143586
-0.127317
-0.110254
-0.0924353
-0.0738729
-0.0545641
-0.0345008
-0.0136786
0.007893
0.030181
0.0531188
0.0765963
0.100448
0.12444
0.148258
0.171499
0.193658
0.214127
0.232199
0.247083
0.257928
0.263856
0.264034
0.257959
0.245255
0.222917
0.189125
-0.194663
-0.225251
-0.245112
-0.256158
-0.26149
-0.261758
-0.257625
-0.249923
-0.239407
-0.226706
-0.212322
-0.19664
-0.179938
-0.1624
-0.144139
-0.125209
-0.105618
-0.0853488
-0.064361
-0.0426078
-0.0200447
0.00336063
0.0276174
0.052701
0.078541
0.105007
0.131895
0.158907
0.185638
0.21156
0.236009
0.258184
0.277153
0.29188
0.301246
0.304152
0.299835
0.287671
0.264134
0.227155
-0.238831
-0.272347
-0.293204
-0.303591
-0.30718
-0.30492
-0.29775
-0.286756
-0.272892
-0.256926
-0.239451
-0.2209
-0.201567
-0.181633
-0.161188
-0.140255
-0.118805
-0.0967773
-0.0740863
-0.0506377
-0.0263377
-0.00110327
0.025127
0.0523813
0.0806418
0.109829
0.139782
0.170239
0.200814
0.230971
0.260005
0.287024
0.31095
0.330527
0.344348
0.350961
0.34924
0.338192
0.313583
0.273007
-0.290481
-0.32752
-0.349282
-0.35838
-0.359308
-0.353469
-0.342192
-0.326903
-0.308805
-0.288824
-0.267647
-0.245745
-0.223418
-0.200823
-0.178013
-0.154964
-0.131597
-0.107793
-0.0834118
-0.0583028
-0.0323132
-0.00529973
0.0228612
0.0522624
0.0829525
0.114919
0.148066
0.182191
0.21695
0.251828
0.286103
0.31881
0.348724
0.37435
0.393933
0.405564
0.407618
0.398543
0.373119
0.328435
-0.351376
-0.392705
-0.41512
-0.421919
-0.418825
-0.407929
-0.391112
-0.370239
-0.346811
-0.321927
-0.296355
-0.270586
-0.244893
-0.219388
-0.194062
-0.168823
-0.14352
-0.11797
-0.0919616
-0.0652777
-0.037698
-0.00901024
0.0209816
0.0524467
0.0855147
0.120258
0.156671
0.194635
0.233886
0.273968
0.314181
0.353522
0.390639
0.423792
0.45082
0.469243
0.476745
0.470949
0.445197
0.395776
-0.424038
-0.47062
-0.4931
-0.495962
-0.486815
-0.468786
-0.444515
-0.416422
-0.38634
-0.355533
-0.324814
-0.294648
-0.265243
-0.236622
-0.208682
-0.181237
-0.154046
-0.12684
-0.0993295
-0.0712182
-0.0422106
-0.0120171
0.0196393
0.053015
0.0883352
0.125777
0.165448
0.207351
0.251343
0.297081
0.343944
0.390955
0.436689
0.479178
0.515825
0.54345
0.558812
0.558314
0.533146
0.478244
-0.512236
-0.565181
-0.58646
-0.582699
-0.564451
-0.53638
-0.502131
-0.464779
-0.42649
-0.388636
-0.352001
-0.316949
-0.283553
-0.251695
-0.221133
-0.191556
-0.162609
-0.13392
-0.105107
-0.0757895
-0.0455884
-0.0141312
0.0189471
0.0539991
0.0913579
0.131324
0.174145
0.219983
0.268869
0.320639
0.37484
0.430618
0.486571
0.540586
0.589642
0.629754
0.656482
0.664464
0.641607
0.58044
-0.62184
-0.682155
-0.699599
-0.684778
-0.652859
-0.610703
-0.563209
-0.514139
-0.465906
-0.419851
-0.376594
-0.33628
-0.298751
-0.263674
-0.230617
-0.199103
-0.168643
-0.138743
-0.10892
-0.0787018
-0.0476232
-0.0152255
0.0189474
0.0553494
0.0944311
0.136632
0.182365
0.231993
0.285778
0.343822
0.405953
0.471582
0.539506
0.607632
0.672631
0.729695
0.772921
0.794471
0.777215
0.709285
-0.762464
-0.830219
-0.838452
-0.805226
-0.752824
-0.691067
-0.626226
-0.562613
-0.50263
-0.44733
-0.396942
-0.351215
-0.309635
-0.271563
-0.236319
-0.203226
-0.17163
-0.140909
-0.110471
-0.0797515
-0.0481991
-0.0152714
0.0195771
0.0569019
0.0972741
0.141283
0.189529
0.24261
0.301087
0.36542
0.435862
0.512295
0.59397
0.679132
0.76445
0.844464
0.911691
0.955012
0.949692
0.875772
-0.950792
-1.02264
-1.01075
-0.947011
-0.864151
-0.775495
-0.68842
-0.60728
-0.533933
-0.468689
-0.411051
-0.360136
-0.314919
-0.274362
-0.237475
-0.20335
-0.171155
-0.140134
-0.109588
-0.0788626
-0.0473304
-0.0143725
0.0206375
0.0583492
0.0994505
0.144681
0.194842
0.250797
0.313457
0.383743
0.4625
0.550333
0.64733
0.752582
0.863374
0.974191
1.07626
1.15461
1.17358
1.09853
-1.21732
-1.27972
-1.22561
-1.11168
-0.984252
-0.859611
-0.745048
-0.643765
-0.556102
-0.480937
-0.416593
-0.361282
-0.313304
-0.271132
-0.233431
-0.199041
-0.166957
-0.136293
-0.106256
-0.0761187
-0.045189
-0.0127889
0.0217725
0.059223
0.100352
0.14604
0.197282
0.255216
0.321143
0.39653
0.482973
0.582098
0.695312
0.823311
0.965079
1.11639
1.2685
1.40313
1.4707
1.41089
-1.618
-1.63111
-1.49172
-1.29692
-1.10615
-0.935328
-0.788691
-0.665967
-0.56443
-0.480593
-0.41108
-0.352923
-0.303626
-0.26113
-0.223748
-0.190088
-0.15899
-0.129467
-0.100657
-0.0717818
-0.0421124
-0.0109345
0.0224827
0.0589189
0.0992383
0.144431
0.195659
0.254315
0.322085
0.40102
0.493592
0.602717
0.731667
0.883725
1.06125
1.26388
1.48614
1.70972
1.87202
1.87249
-2.25479
-2.11613
-1.81377
-1.49464
-1.21775
-0.990912
-0.809871
-0.666953
-0.554151
-0.464545
-0.392586
-0.333957
-0.28534
-0.24418
-0.208493
-0.176713
-0.147578
-0.120045
-0.0932212
-0.0663143
-0.0385881
-0.00932369
0.0222172
0.0568308
0.0954149
0.139022
0.188925
0.246709
0.314383
0.394537
0.490537
0.60676
0.748825
0.923715
1.13949
1.40386
1.7205
2.07891
2.41748
2.58886
-3.35506
-2.78436
-2.17285
-1.67591
-1.29288
-1.00615
-0.794636
-0.637815
-0.519907
-0.429765
-0.359557
-0.303738
-0.258347
-0.220507
-0.188078
-0.159431
-0.133291
-0.108621
-0.0845513
-0.0603183
-0.0352167
-0.00855932
0.0203614
0.0523146
0.0881783
0.128999
0.176072
0.231056
0.296134
0.37425
0.469469
0.587491
0.736395
0.927682
1.17769
1.50795
1.94037
2.49054
3.15853
3.79285
-5.51279
-3.66714
-2.43173
-1.7139
-1.24188
-0.922106
-0.705269
-0.554467
-0.446063
-0.365821
-0.304811
-0.257179
-0.218973
-0.187433
-0.160569
-0.136894
-0.115256
-0.0947346
-0.0745576
-0.0540505
-0.0325926
-0.00957909
0.0156141
0.043667
0.0753596
0.111629
0.153648
0.202937
0.261543
0.332306
0.419311
0.528619
0.669516
0.856794
1.11502
1.48334
2.01507
2.80559
4.12932
6.08237
-9.19591
-4.52365
-2.30711
-1.42141
-0.959527
-0.683645
-0.513035
-0.4014
-0.323761
-0.267271
-0.224735
-0.191721
-0.165321
-0.14353
-0.124894
-0.108319
-0.0929488
-0.0780903
-0.0631567
-0.0476309
-0.031034
-0.0128983
0.00725852
0.0299606
0.0558056
0.085506
0.119946
0.160263
0.207981
0.265211
0.335018
0.422071
0.533921
0.683862
0.897526
1.22407
1.75356
2.73357
5.06486
9.85742
)
;

boundaryField
{
    movingWall
    {
        type            zeroGradient;
    }
    fixedWalls
    {
        type            zeroGradient;
    }
    frontAndBack
    {
        type            empty;
    }
}


// ************************************************************************* //
