/*--------------------------------*- C++ -*----------------------------------*\
  =========                 |
  \\      /  F ield         | OpenFOAM: The Open Source CFD Toolbox
   \\    /   O peration     | Website:  https://openfoam.org
    \\  /    A nd           | Version:  6.0
     \\/     M anipulation  |
\*---------------------------------------------------------------------------*/
FoamFile
{
    version     2.0;
    format      ascii;
    class       volScalarField;
    location    "2.5";
    object      p;
}
// * * * * * * * * * * * * * * * * * * * * * * * * * * * * * * * * * * * * * //

dimensions      [0 2 -2 0 0 0 0];

internalField   nonuniform List<scalar> 
24000
(
1.00702
1.00683
1.00622
1.0054
1.00439
1.00335
1.00238
1.00155
1.00087
1.00037
0.999965
0.999698
1.00703
1.00689
1.00639
1.00567
1.00476
1.00375
1.00277
1.00187
1.00108
1.00047
0.999913
0.99955
1.00703
1.00688
1.00635
1.00561
1.00468
1.00366
1.00268
1.00178
1.00101
1.00043
0.999865
0.999544
1.00703
1.00687
1.00632
1.00556
1.00461
1.00361
1.00263
1.00175
1.00099
1.00043
0.999858
0.999541
1.00704
1.00688
1.00633
1.00558
1.00465
1.00366
1.00269
1.00182
1.00105
1.00046
0.999852
0.999503
1.00705
1.00689
1.00636
1.00561
1.00469
1.0037
1.00273
1.00185
1.00107
1.00046
0.999818
0.999446
1.00706
1.00691
1.00637
1.00563
1.0047
1.0037
1.00273
1.00184
1.00105
1.00043
0.999771
0.999391
1.00706
1.00692
1.00639
1.00564
1.00471
1.00371
1.00273
1.00184
1.00104
1.00041
0.999742
0.999352
1.00707
1.00693
1.00642
1.00568
1.00475
1.00375
1.00277
1.00187
1.00106
1.00043
0.999734
0.999325
1.00708
1.00695
1.00645
1.00572
1.0048
1.00381
1.00282
1.00192
1.0011
1.00045
0.999735
0.999299
1.0071
1.00697
1.00648
1.00576
1.00484
1.00386
1.00287
1.00196
1.00113
1.00047
0.99973
0.99927
1.00711
1.00698
1.0065
1.0058
1.00489
1.0039
1.00291
1.00199
1.00115
1.00048
0.999719
0.999239
1.00712
1.007
1.00652
1.00583
1.00492
1.00393
1.00294
1.00202
1.00117
1.00048
0.999705
0.999208
1.00714
1.00701
1.00654
1.00586
1.00496
1.00397
1.00297
1.00204
1.00118
1.00048
0.999692
0.999179
1.00715
1.00703
1.00656
1.00589
1.00499
1.00401
1.00301
1.00206
1.00119
1.00048
0.99968
0.999152
1.00717
1.00704
1.00657
1.00591
1.00503
1.00404
1.00304
1.00209
1.00121
1.00048
0.999669
0.999127
1.00718
1.00706
1.00659
1.00593
1.00505
1.00407
1.00307
1.00211
1.00122
1.00048
0.999658
0.999102
1.0072
1.00708
1.00661
1.00595
1.00508
1.0041
1.00309
1.00213
1.00123
1.00048
0.999647
0.999079
1.00722
1.0071
1.00663
1.00597
1.0051
1.00412
1.00312
1.00215
1.00124
1.00048
0.999636
0.999056
1.00724
1.00712
1.00666
1.006
1.00513
1.00415
1.00314
1.00217
1.00125
1.00048
0.999628
0.999036
1.00726
1.00714
1.00669
1.00603
1.00516
1.00418
1.00317
1.00219
1.00127
1.00048
0.999619
0.999016
1.00728
1.00717
1.00672
1.00607
1.00519
1.00422
1.0032
1.00222
1.00128
1.00048
0.999612
0.998997
1.00731
1.0072
1.00675
1.0061
1.00523
1.00425
1.00323
1.00224
1.0013
1.00048
0.999604
0.998978
1.00733
1.00724
1.00679
1.00614
1.00527
1.00429
1.00327
1.00227
1.00131
1.00048
0.999597
0.998961
1.00736
1.00727
1.00683
1.00618
1.00531
1.00433
1.0033
1.00229
1.00133
1.00049
0.99959
0.998943
1.00739
1.0073
1.00687
1.00623
1.00536
1.00437
1.00334
1.00232
1.00134
1.00049
0.999583
0.998927
1.00742
1.00734
1.00691
1.00627
1.0054
1.00441
1.00337
1.00235
1.00136
1.00049
0.999577
0.998911
1.00745
1.00737
1.00695
1.00631
1.00544
1.00445
1.00341
1.00237
1.00137
1.00049
0.999571
0.998896
1.00748
1.00741
1.00699
1.00635
1.00549
1.00449
1.00344
1.0024
1.00139
1.0005
0.999566
0.998881
1.00751
1.00745
1.00703
1.0064
1.00553
1.00454
1.00348
1.00243
1.00141
1.0005
0.999561
0.998866
1.00754
1.00749
1.00707
1.00645
1.00558
1.00458
1.00352
1.00246
1.00143
1.00051
0.999555
0.99885
1.00757
1.00753
1.00712
1.00649
1.00563
1.00463
1.00356
1.00249
1.00144
1.00051
0.99955
0.998835
1.00761
1.00757
1.00716
1.00654
1.00568
1.00467
1.0036
1.00252
1.00146
1.00052
0.999544
0.998819
1.00764
1.00761
1.0072
1.00659
1.00573
1.00472
1.00364
1.00255
1.00148
1.00052
0.999537
0.998803
1.00768
1.00765
1.00725
1.00664
1.00577
1.00477
1.00368
1.00257
1.00149
1.00052
0.999529
0.998786
1.00772
1.00769
1.00729
1.00668
1.00582
1.00481
1.00371
1.0026
1.00151
1.00052
0.999521
0.998769
1.00776
1.00773
1.00733
1.00673
1.00586
1.00485
1.00375
1.00263
1.00152
1.00052
0.999511
0.998752
1.0078
1.00777
1.00737
1.00677
1.00591
1.00489
1.00378
1.00265
1.00154
1.00052
0.999502
0.998735
1.00784
1.00782
1.00742
1.00682
1.00595
1.00494
1.00382
1.00268
1.00155
1.00052
0.999493
0.998717
1.00788
1.00786
1.00747
1.00687
1.006
1.00498
1.00385
1.0027
1.00156
1.00052
0.999483
0.9987
1.00793
1.00791
1.00751
1.00691
1.00605
1.00502
1.00389
1.00272
1.00158
1.00052
0.999474
0.998683
1.00797
1.00796
1.00756
1.00697
1.00609
1.00506
1.00393
1.00275
1.00159
1.00052
0.999465
0.998665
1.00802
1.00801
1.00762
1.00702
1.00615
1.00511
1.00396
1.00278
1.0016
1.00052
0.999455
0.998647
1.00807
1.00806
1.00767
1.00707
1.0062
1.00516
1.004
1.00281
1.00162
1.00053
0.999445
0.99863
1.00812
1.00812
1.00773
1.00713
1.00625
1.00521
1.00404
1.00283
1.00163
1.00053
0.999435
0.998611
1.00817
1.00817
1.00779
1.00719
1.00631
1.00526
1.00408
1.00286
1.00165
1.00053
0.999426
0.998593
1.00822
1.00823
1.00785
1.00725
1.00637
1.00531
1.00413
1.00289
1.00167
1.00053
0.999415
0.998573
1.00828
1.00829
1.00791
1.00731
1.00643
1.00536
1.00417
1.00292
1.00168
1.00053
0.999405
0.998554
1.00833
1.00835
1.00797
1.00737
1.00648
1.00541
1.00421
1.00295
1.0017
1.00053
0.999394
0.998533
1.00839
1.00841
1.00803
1.00744
1.00654
1.00547
1.00426
1.00298
1.00171
1.00053
0.999383
0.998512
1.00844
1.00847
1.00809
1.0075
1.0066
1.00552
1.0043
1.00301
1.00173
1.00053
0.999371
0.998489
1.0085
1.00853
1.00816
1.00757
1.00667
1.00558
1.00434
1.00305
1.00175
1.00053
0.99936
0.998466
1.00856
1.00859
1.00822
1.00763
1.00673
1.00563
1.00439
1.00308
1.00176
1.00053
0.999346
0.998442
1.00862
1.00866
1.00829
1.0077
1.00679
1.00569
1.00443
1.00311
1.00178
1.00053
0.999333
0.998417
1.00868
1.00872
1.00835
1.00776
1.00685
1.00574
1.00448
1.00314
1.00179
1.00053
0.999318
0.99839
1.00874
1.00879
1.00842
1.00783
1.00691
1.0058
1.00452
1.00317
1.00181
1.00053
0.999302
0.998363
1.0088
1.00886
1.00849
1.0079
1.00698
1.00585
1.00456
1.0032
1.00182
1.00052
0.999285
0.998334
1.00887
1.00893
1.00855
1.00796
1.00704
1.00591
1.00461
1.00323
1.00183
1.00052
0.999268
0.998305
1.00893
1.00899
1.00862
1.00803
1.0071
1.00596
1.00465
1.00326
1.00185
1.00052
0.999249
0.998275
1.009
1.00907
1.00869
1.0081
1.00717
1.00602
1.0047
1.00329
1.00186
1.00051
0.99923
0.998245
1.00907
1.00914
1.00877
1.00817
1.00723
1.00608
1.00474
1.00331
1.00187
1.00051
0.99921
0.998213
1.00914
1.00921
1.00884
1.00824
1.0073
1.00614
1.00479
1.00334
1.00188
1.0005
0.99919
0.998181
1.00921
1.00929
1.00891
1.00832
1.00737
1.00619
1.00483
1.00337
1.0019
1.0005
0.999169
0.998148
1.00928
1.00937
1.00899
1.00839
1.00744
1.00626
1.00488
1.00341
1.00191
1.00049
0.999148
0.998114
1.00935
1.00945
1.00907
1.00847
1.00751
1.00632
1.00493
1.00344
1.00192
1.00049
0.999126
0.998079
1.00943
1.00953
1.00915
1.00855
1.00758
1.00638
1.00498
1.00347
1.00193
1.00048
0.999104
0.998044
1.0095
1.00961
1.00923
1.00863
1.00765
1.00644
1.00503
1.0035
1.00195
1.00047
0.999081
0.998006
1.00958
1.00969
1.00932
1.00872
1.00773
1.00651
1.00508
1.00353
1.00196
1.00047
0.999057
0.997968
1.00966
1.00978
1.0094
1.0088
1.00781
1.00657
1.00513
1.00357
1.00197
1.00046
0.999032
0.997928
1.00974
1.00987
1.00949
1.00888
1.00788
1.00664
1.00518
1.0036
1.00198
1.00045
0.999007
0.997888
1.00982
1.00995
1.00958
1.00897
1.00796
1.00671
1.00523
1.00363
1.00199
1.00044
0.998979
0.997845
1.0099
1.01004
1.00967
1.00906
1.00804
1.00678
1.00528
1.00366
1.00201
1.00043
0.998952
0.997801
1.00999
1.01013
1.00976
1.00914
1.00812
1.00684
1.00533
1.00369
1.00201
1.00042
0.998922
0.997755
1.01007
1.01023
1.00985
1.00923
1.0082
1.00691
1.00538
1.00373
1.00202
1.00041
0.998892
0.997709
1.01016
1.01032
1.00994
1.00932
1.00828
1.00698
1.00543
1.00376
1.00203
1.00039
0.99886
0.997661
1.01025
1.01041
1.01004
1.00941
1.00836
1.00705
1.00549
1.00379
1.00204
1.00038
0.998827
0.997612
1.01034
1.01051
1.01013
1.00951
1.00845
1.00712
1.00554
1.00382
1.00205
1.00036
0.998793
0.997562
1.01043
1.01061
1.01023
1.0096
1.00853
1.00719
1.00559
1.00385
1.00205
1.00035
0.998758
0.997511
1.01053
1.01071
1.01033
1.00969
1.00861
1.00726
1.00564
1.00387
1.00206
1.00033
0.998721
0.997458
1.01063
1.01081
1.01043
1.00979
1.0087
1.00733
1.00569
1.0039
1.00206
1.00031
0.998685
0.997405
1.01072
1.01091
1.01053
1.00989
1.00879
1.0074
1.00574
1.00393
1.00207
1.00029
0.998646
0.997351
1.01082
1.01102
1.01063
1.00999
1.00887
1.00748
1.00579
1.00396
1.00207
1.00027
0.998608
0.997296
1.01093
1.01113
1.01074
1.01009
1.00896
1.00755
1.00585
1.00399
1.00207
1.00025
0.998568
0.99724
1.01103
1.01123
1.01084
1.01019
1.00905
1.00762
1.0059
1.00402
1.00208
1.00023
0.998529
0.997183
1.01113
1.01135
1.01095
1.01029
1.00914
1.0077
1.00595
1.00404
1.00208
1.00021
0.998487
0.997125
1.01124
1.01146
1.01106
1.0104
1.00924
1.00778
1.00601
1.00407
1.00208
1.00019
0.998446
0.997066
1.01135
1.01157
1.01118
1.0105
1.00933
1.00785
1.00606
1.0041
1.00208
1.00017
0.998403
0.997006
1.01146
1.01169
1.01129
1.01061
1.00943
1.00793
1.00611
1.00413
1.00209
1.00015
0.998359
0.996945
1.01158
1.01181
1.01141
1.01073
1.00952
1.00801
1.00617
1.00416
1.00209
1.00012
0.998314
0.996882
1.01169
1.01193
1.01153
1.01084
1.00962
1.00809
1.00622
1.00419
1.00209
1.0001
0.998269
0.996819
1.01181
1.01205
1.01165
1.01095
1.00972
1.00817
1.00628
1.00421
1.00209
1.00007
0.998222
0.996754
1.01193
1.01218
1.01177
1.01107
1.00982
1.00825
1.00633
1.00424
1.00209
1.00005
0.998175
0.996688
1.01205
1.0123
1.01189
1.01118
1.00992
1.00833
1.00639
1.00427
1.00209
1.00002
0.998125
0.99662
1.01217
1.01243
1.01202
1.0113
1.01002
1.00841
1.00644
1.0043
1.00208
0.999993
0.998075
0.996552
1.01229
1.01256
1.01214
1.01142
1.01013
1.0085
1.0065
1.00433
1.00208
0.999964
0.998023
0.996481
1.01242
1.01269
1.01227
1.01155
1.01023
1.00858
1.00656
1.00436
1.00208
0.999935
0.997971
0.99641
1.01255
1.01283
1.0124
1.01167
1.01034
1.00867
1.00661
1.00438
1.00208
0.999904
0.997917
0.996337
1.01268
1.01297
1.01254
1.0118
1.01044
1.00875
1.00667
1.00441
1.00207
0.999873
0.997862
0.996263
1.01281
1.01311
1.01267
1.01192
1.01055
1.00884
1.00673
1.00444
1.00207
0.99984
0.997804
0.996186
1.01295
1.01325
1.01281
1.01205
1.01066
1.00893
1.00679
1.00447
1.00206
0.999807
0.997747
0.996108
1.01309
1.01339
1.01295
1.01219
1.01078
1.00902
1.00684
1.00449
1.00206
0.999772
0.997687
0.996028
1.01323
1.01354
1.01309
1.01232
1.01089
1.00911
1.0069
1.00452
1.00205
0.999737
0.997626
0.995947
1.01337
1.01369
1.01324
1.01246
1.01101
1.00921
1.00696
1.00455
1.00204
0.9997
0.997563
0.995863
1.01352
1.01384
1.01339
1.0126
1.01113
1.0093
1.00703
1.00458
1.00204
0.999663
0.997499
0.995779
1.01367
1.014
1.01354
1.01274
1.01125
1.0094
1.00709
1.00461
1.00203
0.999624
0.997433
0.995691
1.01382
1.01416
1.01369
1.01289
1.01137
1.0095
1.00715
1.00464
1.00202
0.999584
0.997366
0.995602
1.01397
1.01432
1.01385
1.01303
1.0115
1.0096
1.00722
1.00467
1.00201
0.999542
0.997296
0.99551
1.01413
1.01448
1.01401
1.01318
1.01163
1.0097
1.00728
1.00469
1.002
0.9995
0.997225
0.995417
1.01429
1.01465
1.01417
1.01334
1.01176
1.0098
1.00735
1.00472
1.00199
0.999455
0.997151
0.99532
1.01445
1.01482
1.01434
1.0135
1.01189
1.00991
1.00741
1.00475
1.00198
0.99941
0.997076
0.995222
1.01462
1.01499
1.01451
1.01365
1.01203
1.01002
1.00748
1.00478
1.00196
0.999362
0.996998
0.99512
1.01479
1.01517
1.01468
1.01382
1.01217
1.01012
1.00755
1.00481
1.00195
0.999314
0.996918
0.995016
1.01496
1.01535
1.01486
1.01398
1.01231
1.01023
1.00762
1.00484
1.00194
0.999262
0.996835
0.994909
1.01514
1.01554
1.01504
1.01415
1.01245
1.01035
1.00769
1.00487
1.00192
0.999211
0.996751
0.9948
1.01532
1.01572
1.01522
1.01432
1.0126
1.01046
1.00776
1.00489
1.00191
0.999155
0.996663
0.994687
1.0155
1.01592
1.01541
1.0145
1.01275
1.01058
1.00783
1.00492
1.00189
0.999099
0.996574
0.994572
1.01569
1.01611
1.0156
1.01468
1.0129
1.01069
1.00791
1.00495
1.00187
0.99904
0.996481
0.994452
1.01588
1.01631
1.0158
1.01486
1.01306
1.01081
1.00798
1.00498
1.00185
0.99898
0.996386
0.994331
1.01607
1.01651
1.01599
1.01504
1.01321
1.01093
1.00806
1.005
1.00183
0.998916
0.996287
0.994204
1.01627
1.01672
1.0162
1.01523
1.01337
1.01106
1.00813
1.00503
1.00181
0.998852
0.996187
0.994076
1.01647
1.01693
1.0164
1.01543
1.01354
1.01118
1.00821
1.00506
1.00178
0.998784
0.996081
0.993943
1.01668
1.01714
1.01661
1.01562
1.0137
1.01131
1.00829
1.00509
1.00176
0.998715
0.995975
0.993808
1.01688
1.01736
1.01683
1.01582
1.01387
1.01144
1.00837
1.00511
1.00173
0.998641
0.995863
0.993667
1.0171
1.01758
1.01704
1.01602
1.01405
1.01157
1.00845
1.00514
1.0017
0.998567
0.99575
0.993523
1.01731
1.01781
1.01727
1.01623
1.01422
1.01171
1.00853
1.00516
1.00167
0.998489
0.995631
0.993374
1.01754
1.01804
1.01749
1.01644
1.0144
1.01184
1.00861
1.00519
1.00164
0.998409
0.99551
0.993223
1.01776
1.01828
1.01772
1.01666
1.01458
1.01198
1.00869
1.00521
1.00161
0.998325
0.995384
0.993065
1.01799
1.01852
1.01796
1.01688
1.01477
1.01212
1.00877
1.00524
1.00157
0.998239
0.995256
0.992905
1.01823
1.01877
1.0182
1.01711
1.01496
1.01226
1.00886
1.00526
1.00154
0.998148
0.995122
0.992738
1.01847
1.01902
1.01845
1.01733
1.01516
1.01241
1.00895
1.00528
1.0015
0.998056
0.994985
0.992569
1.01871
1.01927
1.0187
1.01757
1.01535
1.01256
1.00903
1.0053
1.00146
0.997959
0.994843
0.992392
1.01896
1.01953
1.01896
1.01781
1.01556
1.01271
1.00912
1.00532
1.00141
0.99786
0.994697
0.992213
1.01921
1.0198
1.01922
1.01805
1.01576
1.01286
1.00921
1.00534
1.00137
0.997755
0.994546
0.992026
1.01947
1.02007
1.01948
1.0183
1.01597
1.01302
1.0093
1.00536
1.00132
0.997648
0.994391
0.991836
1.01974
1.02035
1.01976
1.01855
1.01618
1.01317
1.00939
1.00538
1.00127
0.997536
0.994229
0.991638
1.02001
1.02063
1.02003
1.01881
1.0164
1.01334
1.00948
1.0054
1.00121
0.997421
0.994065
0.991437
1.02028
1.02092
1.02032
1.01907
1.01662
1.0135
1.00957
1.00541
1.00115
0.9973
0.993893
0.991228
1.02056
1.02122
1.02061
1.01934
1.01685
1.01366
1.00966
1.00543
1.0011
0.997177
0.993717
0.991015
1.02085
1.02152
1.0209
1.01962
1.01708
1.01383
1.00975
1.00544
1.00103
0.997047
0.993534
0.990794
1.02114
1.02182
1.0212
1.0199
1.01731
1.014
1.00984
1.00545
1.00097
0.996914
0.993348
0.990568
1.02143
1.02214
1.02151
1.02018
1.01755
1.01418
1.00994
1.00546
1.00089
0.996775
0.993153
0.990334
1.02174
1.02246
1.02183
1.02047
1.0178
1.01435
1.01003
1.00547
1.00082
0.996632
0.992955
0.990095
1.02205
1.02278
1.02215
1.02077
1.01805
1.01453
1.01012
1.00547
1.00074
0.996482
0.992748
0.989847
1.02236
1.02312
1.02248
1.02108
1.0183
1.01471
1.01022
1.00548
1.00066
0.996329
0.992536
0.989595
1.02269
1.02346
1.02281
1.02139
1.01856
1.0149
1.01031
1.00548
1.00058
0.996168
0.992316
0.989332
1.02302
1.02381
1.02315
1.0217
1.01882
1.01508
1.01041
1.00548
1.00049
0.996003
0.992091
0.989065
1.02336
1.02416
1.0235
1.02203
1.01909
1.01527
1.0105
1.00548
1.00039
0.99583
0.991856
0.988787
1.0237
1.02453
1.02386
1.02236
1.01937
1.01547
1.0106
1.00547
1.00029
0.995653
0.991617
0.988504
1.02405
1.0249
1.02423
1.0227
1.01965
1.01566
1.0107
1.00547
1.00019
0.995467
0.991367
0.988211
1.02441
1.02528
1.0246
1.02304
1.01993
1.01586
1.01079
1.00546
1.00008
0.995276
0.991112
0.987911
1.02478
1.02567
1.02499
1.0234
1.02022
1.01606
1.01089
1.00544
0.999967
0.995076
0.990847
0.9876
1.02516
1.02607
1.02538
1.02376
1.02052
1.01627
1.01098
1.00543
0.999848
0.994871
0.990575
0.987283
1.02554
1.02647
1.02578
1.02413
1.02082
1.01648
1.01108
1.00541
0.999721
0.994657
0.990292
0.986954
1.02593
1.02689
1.02619
1.0245
1.02113
1.01669
1.01117
1.00538
0.99959
0.994436
0.990003
0.986618
1.02634
1.02731
1.02661
1.02489
1.02144
1.0169
1.01127
1.00535
0.999451
0.994206
0.989702
0.98627
1.02675
1.02775
1.02703
1.02528
1.02177
1.01712
1.01136
1.00532
0.999307
0.993968
0.989394
0.985914
1.02717
1.02819
1.02747
1.02568
1.02209
1.01734
1.01145
1.00528
0.999154
0.99372
0.989074
0.985545
1.0276
1.02865
1.02792
1.0261
1.02243
1.01756
1.01154
1.00524
0.998995
0.993465
0.988746
0.985169
1.02804
1.02911
1.02838
1.02652
1.02277
1.01778
1.01163
1.0052
0.998827
0.993199
0.988405
0.984779
1.02849
1.02959
1.02885
1.02695
1.02312
1.01801
1.01172
1.00515
0.998653
0.992924
0.988056
0.98438
1.02895
1.03008
1.02933
1.02739
1.02347
1.01824
1.01181
1.00509
0.998468
0.992638
0.987693
0.983968
1.02942
1.03058
1.02983
1.02784
1.02383
1.01848
1.01189
1.00503
0.998277
0.992343
0.987321
0.983546
1.0299
1.03109
1.03033
1.0283
1.0242
1.01871
1.01197
1.00496
0.998074
0.992035
0.986935
0.983109
1.0304
1.03161
1.03085
1.02877
1.02458
1.01895
1.01205
1.00488
0.997864
0.991717
0.986539
0.982663
1.0309
1.03215
1.03138
1.02926
1.02496
1.01919
1.01213
1.0048
0.997642
0.991386
0.986128
0.982201
1.03142
1.0327
1.03192
1.02975
1.02535
1.01943
1.0122
1.00471
0.997411
0.991045
0.985706
0.981728
1.03195
1.03326
1.03248
1.03026
1.02575
1.01968
1.01227
1.00461
0.997168
0.990689
0.985269
0.981239
1.03249
1.03384
1.03305
1.03078
1.02616
1.01992
1.01234
1.0045
0.996914
0.990321
0.984819
0.980739
1.03305
1.03443
1.03364
1.03131
1.02657
1.02017
1.0124
1.00438
0.996647
0.989938
0.984354
0.980222
1.03362
1.03504
1.03424
1.03185
1.02699
1.02042
1.01246
1.00426
0.996368
0.989543
0.983875
0.979692
1.03421
1.03566
1.03485
1.03241
1.02742
1.02067
1.01251
1.00412
0.996075
0.989131
0.983379
0.979146
1.0348
1.0363
1.03549
1.03298
1.02786
1.02092
1.01256
1.00398
0.99577
0.988705
0.98287
0.978585
1.03542
1.03696
1.03614
1.03357
1.02831
1.02118
1.0126
1.00382
0.995449
0.988262
0.982342
0.978006
1.03605
1.03763
1.0368
1.03417
1.02877
1.02143
1.01263
1.00365
0.995113
0.987804
0.981799
0.977413
1.0367
1.03832
1.03749
1.03478
1.02923
1.02169
1.01266
1.00346
0.994761
0.987327
0.981237
0.976801
1.03736
1.03903
1.03819
1.03541
1.0297
1.02194
1.01267
1.00327
0.994393
0.986834
0.980659
0.976174
1.03804
1.03976
1.03891
1.03606
1.03018
1.02219
1.01268
1.00305
0.994006
0.98632
0.980061
0.975526
1.03874
1.04051
1.03966
1.03672
1.03068
1.02244
1.01268
1.00283
0.993603
0.98579
0.979446
0.974862
1.03945
1.04128
1.04042
1.0374
1.03117
1.02269
1.01267
1.00258
0.993179
0.985237
0.978809
0.974178
1.04019
1.04207
1.04121
1.0381
1.03168
1.02294
1.01265
1.00232
0.992736
0.984666
0.978153
0.973475
1.04095
1.04288
1.04201
1.03881
1.0322
1.02319
1.01261
1.00204
0.992271
0.984072
0.977475
0.972751
1.04172
1.04372
1.04284
1.03954
1.03272
1.02343
1.01256
1.00175
0.991786
0.983457
0.976778
0.972009
1.04252
1.04458
1.0437
1.04029
1.03325
1.02367
1.0125
1.00143
0.991276
0.982817
0.976056
0.971243
1.04334
1.04547
1.04458
1.04106
1.03379
1.0239
1.01242
1.00109
0.990743
0.982155
0.975313
0.970458
1.04419
1.04638
1.04548
1.04185
1.03434
1.02412
1.01233
1.00072
0.990184
0.981466
0.974545
0.969648
1.04506
1.04732
1.04642
1.04266
1.03489
1.02434
1.01221
1.00033
0.989599
0.980753
0.973754
0.968818
1.04595
1.04829
1.04738
1.04349
1.03545
1.02455
1.01207
0.999918
0.988986
0.980012
0.972937
0.967963
1.04687
1.04929
1.04837
1.04435
1.03602
1.02475
1.01192
0.999476
0.988346
0.979245
0.972095
0.967085
1.04782
1.05032
1.04939
1.04522
1.03659
1.02493
1.01174
0.999003
0.987673
0.978447
0.971225
0.966181
1.0488
1.05138
1.05044
1.04612
1.03717
1.02511
1.01153
0.998501
0.986971
0.977621
0.97033
0.965254
1.0498
1.05247
1.05153
1.04704
1.03776
1.02527
1.0113
0.997964
0.986234
0.976763
0.969405
0.964299
1.05084
1.0536
1.05265
1.04798
1.03834
1.02541
1.01103
0.997394
0.985464
0.975874
0.968452
0.96332
1.05191
1.05477
1.0538
1.04895
1.03893
1.02553
1.01074
0.996786
0.984657
0.974951
0.967468
0.962311
1.05301
1.05598
1.055
1.04994
1.03952
1.02564
1.01041
0.99614
0.983813
0.973995
0.966455
0.961277
1.05415
1.05722
1.05623
1.05096
1.04011
1.02571
1.01004
0.995451
0.982929
0.973002
0.96541
0.960213
1.05533
1.05851
1.05751
1.052
1.04069
1.02576
1.00963
0.99472
0.982005
0.971974
0.964333
0.959121
1.05654
1.05984
1.05883
1.05306
1.04128
1.02578
1.00917
0.993941
0.981036
0.970907
0.963221
0.957998
1.05779
1.06123
1.06019
1.05415
1.04185
1.02577
1.00867
0.993115
0.980025
0.969802
0.962078
0.956846
1.05909
1.06266
1.0616
1.05527
1.04242
1.02572
1.00812
0.992236
0.978966
0.968655
0.960897
0.955661
1.06043
1.06414
1.06306
1.05641
1.04297
1.02563
1.00752
0.991305
0.977859
0.967469
0.959682
0.954446
1.06182
1.06568
1.06457
1.05757
1.04351
1.02549
1.00685
0.990314
0.976701
0.966237
0.95843
0.953197
1.06325
1.06727
1.06613
1.05875
1.04403
1.0253
1.00613
0.989265
0.975492
0.964963
0.957141
0.951916
1.06474
1.06893
1.06775
1.05996
1.04452
1.02505
1.00533
0.988151
0.974227
0.963643
0.955812
0.9506
1.06628
1.07065
1.06942
1.06119
1.04499
1.02474
1.00447
0.986971
0.972907
0.962276
0.954445
0.949251
1.06787
1.07244
1.07116
1.06243
1.04542
1.02436
1.00352
0.98572
0.971528
0.960861
0.953036
0.947866
1.06953
1.0743
1.07295
1.0637
1.04581
1.02391
1.00249
0.984397
0.970089
0.959397
0.951588
0.946445
1.07125
1.07624
1.07482
1.06497
1.04615
1.02337
1.00138
0.982995
0.968586
0.957882
0.950097
0.944987
1.07303
1.07826
1.07674
1.06626
1.04644
1.02274
1.00017
0.981514
0.96702
0.956316
0.948565
0.943493
1.07489
1.08036
1.07874
1.06755
1.04667
1.02201
0.998856
0.979948
0.965386
0.954696
0.946987
0.94196
1.07681
1.08256
1.08081
1.06883
1.04681
1.02117
0.997438
0.978295
0.963685
0.953023
0.945367
0.94039
1.07882
1.08486
1.08295
1.07012
1.04688
1.0202
0.995905
0.976549
0.961912
0.951294
0.943701
0.938779
1.08092
1.08726
1.08516
1.07138
1.04684
1.01911
0.994253
0.97471
0.960068
0.94951
0.941991
0.93713
1.0831
1.08978
1.08745
1.07263
1.04669
1.01787
0.992472
0.972771
0.958149
0.947668
0.940234
0.935439
1.08537
1.09241
1.08981
1.07384
1.04641
1.01648
0.990558
0.970732
0.956156
0.945769
0.938431
0.933708
1.08775
1.09517
1.09224
1.075
1.04599
1.01491
0.988501
0.968587
0.954085
0.943811
0.93658
0.931935
1.09024
1.09807
1.09475
1.0761
1.0454
1.01317
0.986296
0.966336
0.951937
0.941795
0.934684
0.930122
1.09284
1.10111
1.09732
1.07711
1.04462
1.01122
0.983936
0.963973
0.949708
0.939719
0.932738
0.928267
1.09558
1.10431
1.09996
1.07803
1.04364
1.00906
0.981414
0.961499
0.947402
0.937584
0.930746
0.926371
1.09844
1.10767
1.10266
1.07883
1.04242
1.00667
0.978723
0.95891
0.945013
0.935388
0.928704
0.924432
1.10146
1.11121
1.1054
1.07947
1.04094
1.00405
0.97586
0.956207
0.942546
0.933134
0.926616
0.922452
1.10463
1.11493
1.10818
1.07992
1.03917
1.00116
0.972818
0.953386
0.939997
0.930819
0.924479
0.920429
1.10798
1.11884
1.11097
1.08016
1.03708
0.997991
0.969595
0.95045
0.937369
0.928446
0.922295
0.918366
1.11151
1.12296
1.11376
1.08014
1.03462
0.994537
0.966187
0.947397
0.934661
0.926014
0.920063
0.916259
1.11526
1.1273
1.11652
1.07981
1.03178
0.99078
0.962593
0.94423
0.931877
0.923526
0.917784
0.914111
1.11923
1.13186
1.11922
1.07911
1.0285
0.986708
0.958813
0.940951
0.929015
0.920981
0.915459
0.91192
1.12345
1.13666
1.12182
1.078
1.02476
0.982311
0.95485
0.937563
0.926081
0.918381
0.913089
0.909688
1.12795
1.14168
1.12426
1.0764
1.02051
0.977581
0.950706
0.93407
0.923075
0.915729
0.910674
0.907414
1.13275
1.14694
1.12648
1.07424
1.01571
0.972516
0.946391
0.930477
0.920002
0.913026
0.908215
0.9051
1.1379
1.15242
1.12842
1.07144
1.01033
0.967114
0.941911
0.926789
0.916863
0.910274
0.905714
0.902745
1.14342
1.15811
1.12998
1.06792
1.00434
0.961383
0.93728
0.923015
0.913665
0.907477
0.903172
0.90035
1.14936
1.16399
1.13107
1.06357
0.997707
0.955333
0.932509
0.91916
0.91041
0.904637
0.90059
0.897916
1.15576
1.17002
1.13156
1.05831
0.990408
0.948985
0.927618
0.915235
0.907105
0.901757
0.897971
0.895444
1.16269
1.17615
1.13131
1.05203
0.982433
0.942362
0.922624
0.911247
0.903753
0.898841
0.895315
0.892934
1.17019
1.18229
1.13015
1.04464
0.973784
0.935502
0.917549
0.907208
0.900363
0.895893
0.892627
0.890389
1.17833
1.18836
1.12792
1.03603
0.964478
0.928446
0.912417
0.903125
0.896938
0.892917
0.889906
0.887809
1.18718
1.19421
1.12439
1.02612
0.954552
0.921247
0.907251
0.89901
0.893488
0.889918
0.887158
0.885198
1.1968
1.19968
1.11933
1.01483
0.944066
0.913965
0.902076
0.894872
0.890016
0.8869
0.884384
0.882556
1.20726
1.20453
1.1125
1.00212
0.933108
0.906665
0.896915
0.890722
0.886532
0.883871
0.88159
0.879888
1.21864
1.2085
1.10362
0.987967
0.921792
0.899419
0.89179
0.886567
0.883043
0.880836
0.878779
0.877195
1.23097
1.21122
1.09242
0.972411
0.910265
0.892298
0.886721
0.882417
0.879557
0.877803
0.87596
0.874482
1.24429
1.21226
1.0786
0.95555
0.8987
0.885371
0.88172
0.878279
0.876082
0.874781
0.873143
0.87175
1.25859
1.21108
1.0619
0.937564
0.887297
0.878701
0.8768
0.874161
0.872628
0.871776
0.870329
0.86899
1.27379
1.20703
1.0421
0.91873
0.876261
0.872328
0.87196
0.870074
0.869221
0.868832
0.86757
0.866238
1.28972
1.19929
1.01905
0.899451
0.865826
0.866304
0.867199
0.865989
0.865801
0.865846
0.864746
0.863387
1.30606
1.18692
0.992751
0.880189
0.856119
0.860613
0.862596
0.862114
0.862685
0.863206
0.862203
0.860666
1.3223
1.16877
0.963563
0.861735
0.847436
0.855091
0.857667
0.857746
0.859011
0.860094
0.859246
0.85761
1.33745
1.14345
0.931904
0.84425
0.840162
0.850975
0.854299
0.855059
0.856923
0.858267
0.857154
0.855035
1.35037
1.11016
0.900846
0.827906
0.831154
0.843694
0.847856
0.850004
0.85337
0.855601
0.854495
0.851936
1.35743
1.06457
0.87473
0.821646
0.830942
0.842753
0.84568
0.847747
0.851679
0.854296
0.853039
0.850125
1.3601
0.992704
0.824955
0.797653
0.820215
0.837347
0.842642
0.846198
0.851107
0.854165
0.853017
0.850143
0.995414
0.99589
0.996829
0.997383
0.99745
0.997283
0.997175
0.997261
0.997491
0.997729
0.997874
0.997909
0.996029
0.996258
0.996947
0.997383
0.997441
0.99731
0.997226
0.997305
0.99751
0.997727
0.997863
0.997901
0.996609
0.996557
0.996966
0.997297
0.997386
0.997332
0.99729
0.997357
0.997522
0.997705
0.997829
0.997873
0.996963
0.996734
0.996961
0.997245
0.997388
0.997404
0.997387
0.997424
0.997537
0.997682
0.997794
0.997843
0.997166
0.996868
0.997005
0.997267
0.997439
0.997483
0.997461
0.997462
0.99753
0.997646
0.99775
0.997806
0.997325
0.99702
0.997107
0.997334
0.997494
0.997531
0.997497
0.997475
0.997518
0.997615
0.997715
0.997775
0.997487
0.99719
0.997229
0.997401
0.997525
0.997548
0.997511
0.997485
0.997517
0.997601
0.997692
0.997751
0.997649
0.997351
0.997337
0.99745
0.99754
0.997556
0.997526
0.997502
0.997525
0.997594
0.997672
0.997727
0.997787
0.997482
0.997421
0.997488
0.997554
0.997568
0.997544
0.997521
0.997534
0.997587
0.997653
0.997703
0.997889
0.997583
0.997491
0.997525
0.997573
0.997583
0.99756
0.997536
0.99754
0.997581
0.997637
0.997684
0.997964
0.997664
0.997555
0.997564
0.997594
0.997598
0.997573
0.997547
0.997546
0.997578
0.997626
0.997667
0.998024
0.997734
0.997614
0.997602
0.997616
0.997611
0.997585
0.997558
0.997554
0.997577
0.997616
0.997652
0.998075
0.997796
0.997666
0.997637
0.997635
0.997623
0.997596
0.997569
0.997561
0.997577
0.997608
0.997637
0.99812
0.99785
0.997712
0.997668
0.997654
0.997636
0.997608
0.99758
0.997567
0.997577
0.9976
0.997625
0.998156
0.997894
0.997751
0.997696
0.997673
0.99765
0.997619
0.997589
0.997572
0.997576
0.997594
0.997615
0.998186
0.997932
0.997786
0.997722
0.997691
0.997663
0.997629
0.997596
0.997577
0.997576
0.997589
0.997608
0.99821
0.997964
0.997817
0.997746
0.997708
0.997674
0.997637
0.997602
0.997581
0.997577
0.997587
0.997602
0.99823
0.997992
0.997844
0.997767
0.997722
0.997684
0.997644
0.997608
0.997585
0.997579
0.997586
0.997598
0.998247
0.998016
0.997867
0.997785
0.997734
0.997692
0.997651
0.997614
0.99759
0.997581
0.997584
0.997594
0.998262
0.998036
0.997886
0.997799
0.997745
0.9977
0.997657
0.99762
0.997594
0.997583
0.997583
0.997589
0.998272
0.998051
0.9979
0.997811
0.997754
0.997707
0.997664
0.997625
0.997597
0.997584
0.99758
0.997583
0.99828
0.998063
0.997913
0.997822
0.997763
0.997714
0.997669
0.997629
0.997599
0.997583
0.997576
0.997575
0.998285
0.998073
0.997923
0.997831
0.99777
0.99772
0.997673
0.997631
0.997599
0.99758
0.99757
0.997566
0.998288
0.998081
0.997932
0.997839
0.997776
0.997724
0.997675
0.997632
0.997597
0.997576
0.997563
0.997557
0.99829
0.998087
0.99794
0.997845
0.99778
0.997726
0.997675
0.997629
0.997593
0.997569
0.997554
0.997546
0.998291
0.998092
0.997946
0.99785
0.997783
0.997726
0.997673
0.997625
0.997587
0.997561
0.997544
0.997535
0.998291
0.998096
0.99795
0.997852
0.997783
0.997724
0.997669
0.997619
0.997579
0.997552
0.997534
0.997524
0.998291
0.998098
0.997953
0.997853
0.997781
0.99772
0.997663
0.997612
0.99757
0.997542
0.997523
0.997513
0.998289
0.998099
0.997953
0.997851
0.997776
0.997713
0.997655
0.997602
0.99756
0.997531
0.997512
0.997502
0.998286
0.998098
0.997951
0.997847
0.99777
0.997705
0.997646
0.997593
0.99755
0.997521
0.997501
0.99749
0.998281
0.998095
0.997947
0.997841
0.997762
0.997696
0.997636
0.997582
0.997539
0.997509
0.997489
0.997478
0.998275
0.99809
0.997941
0.997833
0.997752
0.997686
0.997625
0.997572
0.997528
0.997498
0.997477
0.997466
0.998267
0.998083
0.997933
0.997823
0.997741
0.997675
0.997614
0.997561
0.997517
0.997486
0.997465
0.997454
0.998258
0.998075
0.997925
0.997813
0.99773
0.997663
0.997603
0.997549
0.997505
0.997474
0.997452
0.997441
0.998247
0.998065
0.997914
0.997801
0.997718
0.997651
0.997591
0.997537
0.997493
0.997461
0.997439
0.997427
0.998236
0.998055
0.997903
0.997789
0.997705
0.997639
0.997579
0.997525
0.997481
0.997448
0.997426
0.997414
0.998224
0.998043
0.99789
0.997775
0.997691
0.997625
0.997566
0.997512
0.997467
0.997435
0.997412
0.9974
0.998212
0.99803
0.997876
0.997761
0.997677
0.997611
0.997553
0.997499
0.997454
0.997421
0.997398
0.997385
0.998198
0.998016
0.997861
0.997745
0.997661
0.997596
0.997538
0.997485
0.997439
0.997406
0.997383
0.99737
0.998185
0.998002
0.997845
0.997728
0.997645
0.99758
0.997523
0.99747
0.997425
0.997391
0.997368
0.997354
0.99817
0.997985
0.997827
0.997709
0.997627
0.997563
0.997506
0.997454
0.997409
0.997375
0.997351
0.997338
0.998154
0.997968
0.997808
0.99769
0.997608
0.997545
0.997489
0.997437
0.997392
0.997359
0.997335
0.997321
0.998137
0.997949
0.997787
0.997669
0.997587
0.997525
0.99747
0.997419
0.997374
0.997341
0.997317
0.997302
0.998119
0.997929
0.997766
0.997647
0.997566
0.997505
0.997451
0.997399
0.997355
0.997322