/*--------------------------------*- C++ -*----------------------------------*\
  =========                 |
  \\      /  F ield         | OpenFOAM: The Open Source CFD Toolbox
   \\    /   O peration     | Website:  https://openfoam.org
    \\  /    A nd           | Version:  6.0
     \\/     M anipulation  |
\*---------------------------------------------------------------------------*/
FoamFile
{
    version     2.0;
    format      ascii;
    class       surfaceScalarField;
    location    "2.5";
    object      phi;
}
// * * * * * * * * * * * * * * * * * * * * * * * * * * * * * * * * * * * * * //

dimensions      [0 3 -1 0 0 0 0];

internalField   nonuniform List<scalar> 
58656
(
2.37899e-05
0.00311205
-5.27814e-10
4.78814e-05
0.00307728
7.16853e-05
0.00300901
9.48134e-05
0.0029078
0.000116962
0.00277474
0.000137856
0.00261133
0.00015725
0.00241942
0.000174919
0.00220114
0.000190661
0.0019589
0.000204296
0.00169542
0.000215673
0.0014136
0.000224657
0.00111677
0.000231137
0.000807987
0.000235073
0.000492123
0.000180425
0.000238415
2.36399e-05
0.00308841
-1.63726e-09
4.75786e-05
0.00305334
7.12317e-05
0.00298535
9.42133e-05
0.00288482
0.000116221
0.00275273
0.000136982
0.00259057
0.000156251
0.00240015
0.000173807
0.00218358
0.000189448
0.00194326
0.000202997
0.00168187
0.000214301
0.0014023
0.000223232
0.00110785
0.000229637
0.000801592
0.000233882
0.000487894
0.000176948
0.000237382
2.3491e-05
0.00306493
-2.79906e-09
4.7278e-05
0.00302955
7.07815e-05
0.00296185
9.36177e-05
0.00286198
0.000115486
0.00273087
0.000136114
0.00256994
0.00015526
0.002381
0.000172704
0.00216614
0.000188245
0.00192772
0.000201708
0.00166841
0.00021294
0.00139107
0.000221821
0.00109896
0.000228169
0.000795243
0.000232343
0.000483716
0.000173774
0.000235505
2.33432e-05
0.00304159
-4.00596e-09
4.69796e-05
0.00300591
7.03346e-05
0.0029385
9.30261e-05
0.00283929
0.000114755
0.00270914
0.000135252
0.00254945
0.000154276
0.00236198
0.000171607
0.00214881
0.000187049
0.00191228
0.000200426
0.00165504
0.000211587
0.00137991
0.000220417
0.00109014
0.000226728
0.000788942
0.000230782
0.000479677
0.000170987
0.000233593
2.31965e-05
0.0030184
-5.20327e-09
4.66834e-05
0.00298243
6.98906e-05
0.00291529
9.24383e-05
0.00281674
0.000114029
0.00268755
0.000134394
0.00252908
0.000153296
0.00234308
0.000170517
0.00213159
0.00018586
0.00189694
0.000199152
0.00164175
0.000210242
0.00136882
0.000219021
0.00108136
0.000225309
0.000782652
0.000229279
0.000475701
0.000168445
0.000231806
2.30509e-05
0.00299535
-6.41901e-09
4.63891e-05
0.00295909
6.94494e-05
0.00289223
9.1854e-05
0.00279434
0.000113307
0.0026661
0.000133542
0.00250885
0.000152323
0.0023243
0.000169434
0.00211448
0.000184679
0.0018817
0.000197887
0.00162854
0.000208906
0.00135781
0.000217633
0.00107264
0.000223902
0.000776392
0.00022782
0.000471797
0.000166161
0.00023013
2.29062e-05
0.00297246
-7.66248e-09
4.60966e-05
0.0029359
6.90108e-05
0.00286932
9.12731e-05
0.00277208
0.000112589
0.00264478
0.000132695
0.00248874
0.000151357
0.00230564
0.000168358
0.00209748
0.000183506
0.00186655
0.00019663
0.00161542
0.000207579
0.00134686
0.000216253
0.00106396
0.000222504
0.000770138
0.000226388
0.000467905
0.000164004
0.000228533
2.27624e-05
0.0029497
-8.92773e-09
4.58059e-05
0.00291286
6.85749e-05
0.00284655
9.06958e-05
0.00274996
0.000111876
0.0026236
0.000131854
0.00246877
0.000150396
0.0022871
0.000167289
0.00208059
0.000182341
0.0018515
0.000195381
0.00160238
0.000206261
0.00133599
0.000214881
0.00105535
0.000221111
0.000763916
0.00022497
0.000464058
0.000162013
0.000226988
2.26195e-05
0.00292709
-1.02188e-08
4.5517e-05
0.00288996
6.81416e-05
0.00282393
9.01219e-05
0.00272798
0.000111167
0.00260256
0.000131017
0.00244892
0.000149441
0.00226868
0.000166227
0.0020638
0.000181183
0.00183655
0.000194141
0.00158942
0.000204952
0.00132518
0.000213518
0.00104678
0.000219724
0.000757706
0.000223562
0.000460211
0.000160085
0.000225478
2.24775e-05
0.00290463
-1.15022e-08
4.52298e-05
0.00286721
6.77109e-05
0.00280145
8.95513e-05
0.00270614
0.000110463
0.00258165
0.000130186
0.00242919
0.000148493
0.00225037
0.000165171
0.00204713
0.000180032
0.00182169
0.000192908
0.00157655
0.000203651
0.00131444
0.000212163
0.00103828
0.000218341
0.000751535
0.00022216
0.000456403
0.000158278
0.000223993
2.23363e-05
0.00288231
-1.27453e-08
4.49444e-05
0.0028446
6.72827e-05
0.00277911
8.89841e-05
0.00268444
0.000109762
0.00256087
0.00012936
0.0024096
0.00014755
0.00223218
0.000164123
0.00203056
0.000178889
0.00180692
0.000191684
0.00156375
0.000202359
0.00130376
0.000210816
0.00102982
0.000216965
0.000745382
0.000220764
0.000452594
0.0001565
0.000222529
2.2196e-05
0.00286013
-1.39163e-08
4.46606e-05
0.00282214
6.6857e-05
0.00275692
8.84202e-05
0.00266288
0.000109066
0.00254023
0.000128539
0.00239012
0.000146613
0.00221411
0.000163081
0.00201409
0.000177753
0.00179225
0.000190467
0.00155104
0.000201076
0.00129316
0.000209479
0.00102142
0.000215595
0.000739273
0.000219375
0.000448825
0.000154817
0.000221081
2.20564e-05
0.00283808
-1.49893e-08
4.43785e-05
0.00279981
6.64338e-05
0.00273486
8.78598e-05
0.00264145
0.000108374
0.00251971
0.000127723
0.00237078
0.000145683
0.00219615
0.000162045
0.00199773
0.000176625
0.00177767
0.000189258
0.00153841
0.000199801
0.00128261
0.000208151
0.00101306
0.000214233
0.000733186
0.000217991
0.000445057
0.000153145
0.000219647
2.19176e-05
0.00281618
-1.59631e-08
4.4098e-05
0.00277763
6.60131e-05
0.00271295
8.73027e-05
0.00262016
0.000107686
0.00249933
0.000126913
0.00235155
0.000144758
0.00217831
0.000161017
0.00198147
0.000175504
0.00176319
0.000188058
0.00152586
0.000198535
0.00127214
0.000206831
0.00100477
0.000212878
0.000727146
0.000216615
0.000441331
0.000151555
0.000218225
2.17796e-05
0.00279442
-1.68375e-08
4.38192e-05
0.00275559
6.5595e-05
0.00269117
8.6749e-05
0.00259901
0.000107003
0.00247908
0.000126107
0.00233245
0.000143839
0.00216058
0.000159995
0.00196531
0.00017439
0.00174879
0.000186865
0.00151338
0.000197276
0.00126172
0.000205521
0.000996524
0.000211532
0.00072113
0.000215245
0.000437607
0.000149966
0.000216814
2.16424e-05
0.0027728
-1.76171e-08
4.35419e-05
0.0027337
6.51793e-05
0.00266954
8.61986e-05
0.00257799
0.000106324
0.00245895
0.000125307
0.00231346
0.000142926
0.00214296
0.00015898
0.00194926
0.000173284
0.00173449
0.00018568
0.00150099
0.000196026
0.00125138
0.000204219
0.000988337
0.000210193
0.000715162
0.000213884
0.000433926
0.000148451
0.000215414
2.15059e-05
0.00275131
-1.82992e-08
4.32663e-05
0.00271194
6.47661e-05
0.00264804
8.56517e-05
0.0025571
0.000105649
0.00243896
0.000124511
0.0022946
0.000142019
0.00212545
0.000157971
0.00193331
0.000172185
0.00172027
0.000184502
0.00148867
0.000194784
0.0012411
0.000202926
0.000980191
0.000208864
0.000709219
0.00021253
0.000430249
0.000146932
0.000214027
2.13702e-05
0.00272996
-1.88677e-08
4.29923e-05
0.00269031
6.43554e-05
0.00262668
8.51082e-05
0.00253635
0.000104978
0.00241909
0.000123721
0.00227586
0.000141118
0.00210806
0.000156969
0.00191746
0.000171092
0.00170615
0.000183332
0.00147643
0.00019355
0.00123088
0.000201641
0.000972106
0.000207542
0.000703324
0.000211185
0.000426616
0.000145478
0.000212651
2.12352e-05
0.00270874
-1.93045e-08
4.272e-05
0.00266883
6.39472e-05
0.00260545
8.45681e-05
0.00251573
0.000104312
0.00239935
0.000122936
0.00225724
0.000140223
0.00209077
0.000155973
0.00190171
0.000170007
0.00169212
0.00018217
0.00146427
0.000192324
0.00122073
0.000200364
0.000964062
0.000206229
0.000697454
0.000209848
0.000422986
0.000144015
0.000211285
2.1101e-05
0.00268766
-1.95876e-08
4.24492e-05
0.00264748
6.35415e-05
0.00258436
8.40314e-05
0.00249524
0.00010365
0.00237973
0.000122156
0.00223873
0.000139333
0.0020736
0.000154983
0.00188606
0.000168929
0.00167817
0.000181015
0.00145219
0.000191106
0.00121064
0.000199096
0.000956077
0.000204924
0.000691633
0.000208519
0.0004194
0.000142613
0.000209931
2.09675e-05
0.00266671
-1.9705e-08
4.21801e-05
0.00262627
6.31383e-05
0.0025634
8.3498e-05
0.00247488
0.000102992
0.00236023
0.000121381
0.00222034
0.000138449
0.00205653
0.000154
0.00187051
0.000167858
0.00166431
0.000179867
0.00144018
0.000189896
0.00120061
0.000197836
0.000948132
0.000203627
0.000685835
0.000207199
0.000415817
0.000141198
0.000208587
2.08349e-05
0.0026459
-1.96564e-08
4.19126e-05
0.00260519
6.27376e-05
0.00254258
8.29681e-05
0.00245465
0.000102339
0.00234087
0.000120611
0.00220207
0.000137571
0.00203957
0.000153024
0.00185506
0.000166794
0.00165055
0.000178727
0.00142825
0.000188693
0.00119064
0.000196584
0.000940246
0.000202339
0.000680087
0.000205887
0.000412278
0.00013984
0.000207253
2.07029e-05
0.00262522
-1.94577e-08
4.16467e-05
0.00258425
6.23394e-05
0.00252189
8.24415e-05
0.00243455
0.000101689
0.00232162
0.000119845
0.00218392
0.000136698
0.00202272
0.000152053
0.0018397
0.000165736
0.00163686
0.000177594
0.00141638
0.000187498
0.00118074
0.00019534
0.0009324
0.000201059
0.000674362
0.000204583
0.000408742
0.000138467
0.000205929
2.05718e-05
0.00260466
-1.91389e-08
4.13825e-05
0.00256344
6.19437e-05
0.00250133
8.19182e-05
0.00241458
0.000101044
0.00230249
0.000119085
0.00216588
0.000135831
0.00200597
0.000151089
0.00182445
0.000164685
0.00162327
0.000176469
0.0014046
0.00018631
0.0011709
0.000194103
0.000924611
0.000199786
0.000668686
0.000203288
0.00040525
0.00013715
0.000204616
2.04414e-05
0.00258424
-1.87409e-08
4.11199e-05
0.00254276
6.15505e-05
0.0024809
8.13982e-05
0.00239473
0.000100403
0.00228349
0.00011833
0.00214795
0.000134969
0.00198933
0.000150131
0.00180929
0.000163641
0.00160976
0.00017535
0.00139289
0.00018513
0.00116112
0.000192875
0.000916862
0.000198522
0.000663033
0.000202
0.00040176
0.000135817
0.000203311
2.03118e-05
0.00256395
-1.83089e-08
4.08589e-05
0.00252222
6.11598e-05
0.0024606
8.08816e-05
0.00237501
9.97655e-05
0.00226461
0.000117579
0.00213014
0.000134113
0.0019728
0.000149179
0.00179422
0.000162604
0.00159633
0.000174239
0.00138126
0.000183958
0.0011514
0.000191654
0.00090917
0.000197265
0.000657429
0.000200721
0.000398314
0.000134537
0.000202016
2.0183e-05
0.00254378
-1.78869e-08
4.05996e-05
0.0025018
6.07715e-05
0.00244043
8.03682e-05
0.00235541
9.91324e-05
0.00224584
0.000116833
0.00211244
0.000133263
0.00195637
0.000148233
0.00177925
0.000161573
0.00158299
0.000173135
0.0013697
0.000182793
0.00114174
0.000190442
0.000901518
0.000196017
0.000651847
0.00019945
0.00039487
0.000133237
0.000200729
2.0055e-05
0.00252375
-1.75107e-08
4.03419e-05
0.00248151
6.03858e-05
0.00242038
7.98581e-05
0.00233594
9.85034e-05
0.0022272
0.000116092
0.00209485
0.000132418
0.00194005
0.000147293
0.00176438
0.000160549
0.00156974
0.000172038
0.00135821
0.000181635
0.00113215
0.000189236
0.000893921
0.000194776
0.000646314
0.000198186
0.000391469
0.00013199
0.000199451
1.99277e-05
0.00250384
-1.72057e-08
4.00858e-05
0.00246136
6.00024e-05
0.00240047
7.93513e-05
0.0023166
9.78783e-05
0.00220867
0.000115355
0.00207737
0.000131578
0.00192382
0.000146359
0.0017496
0.000159531
0.00155656
0.000170948
0.00134679
0.000180485
0.00112261
0.000188039
0.000886364
0.000193543
0.000640803
0.000196931
0.00038807
0.000130723
0.000198181
1.98012e-05
0.00248405
-1.69845e-08
3.98313e-05
0.00244133
5.96215e-05
0.00238068
7.88476e-05
0.00229737
9.72572e-05
0.00219027
0.000114623
0.00206001
0.000130743
0.00190771
0.000145431
0.00173491
0.00015852
0.00154348
0.000169865
0.00133545
0.000179342
0.00111313
0.000186849
0.000878862
0.000192318
0.00063534
0.000195683
0.000384714
0.000129506
0.000196919
1.96755e-05
0.0024644
-1.68504e-08
3.95784e-05
0.00242143
5.9243e-05
0.00236101
7.83471e-05
0.00227827
9.664e-05
0.00217197
0.000113896
0.00204275
0.000129914
0.00189169
0.000144509
0.00172032
0.000157515
0.00153047
0.000168789
0.00132417
0.000178207
0.00110371
0.000185666
0.000871398
0.000191101
0.000629898
0.000194443
0.00038136
0.000128268
0.000195666
1.95506e-05
0.00244486
-1.67996e-08
3.93271e-05
0.00240165
5.88668e-05
0.00234148
7.78498e-05
0.00225929
9.60267e-05
0.0021538
0.000113174
0.00202561
0.00012909
0.00187577
0.000143592
0.00170582
0.000156517
0.00151755
0.000167719
0.00131297
0.000177078
0.00109436
0.000184491
0.00086399
0.000189891
0.000624504
0.000193211
0.000378048
0.000127078
0.000194421
1.94265e-05
0.00242545
-1.68265e-08
3.90774e-05
0.002382
5.84931e-05
0.00232206
7.73556e-05
0.00224042
9.54173e-05
0.00213574
0.000112456
0.00200857
0.000128271
0.00185996
0.000142682
0.0016914
0.000155525
0.0015047
0.000166657
0.00130184
0.000175957
0.00108505
0.000183323
0.000856619
0.000188689
0.000619132
0.000191987
0.000374739
0.000125863
0.000193185
1.93031e-05
0.00240617
-1.69259e-08
3.88293e-05
0.00236247
5.81216e-05
0.00230277
7.68645e-05
0.00222168
9.48117e-05
0.00211779
0.000111742
0.00199164
0.000127458
0.00184424
0.000141777
0.00167709
0.000154539
0.00149194
0.000165601
0.00129078
0.000174843
0.00107582
0.000182163
0.000849303
0.000187495
0.000613807
0.00019077
0.000371471
0.000124695
0.000191956
1.91805e-05
0.002387
-1.70953e-08
3.85827e-05
0.00234307
5.77526e-05
0.0022836
7.63765e-05
0.00220306
9.421e-05
0.00209996
0.000111033
0.00197482
0.000126649
0.00182863
0.000140878
0.00166286
0.00015356
0.00147926
0.000164552
0.00127979
0.000173736
0.00106663
0.00018101
0.000842024
0.000186308
0.000608503
0.000189562
0.000368204
0.000123502
0.000190736
1.90587e-05
0.00236796
-1.73331e-08
3.83377e-05
0.00232379
5.73858e-05
0.00226455
7.58916e-05
0.00218455
9.3612e-05
0.00208224
0.000110329
0.0019581
0.000125846
0.00181311
0.000139985
0.00164872
0.000152587
0.00146666
0.00016351
0.00126887
0.000172636
0.00105751
0.000179865
0.000834799
0.000185128
0.000603245
0.00018836
0.000364979
0.000122352
0.000189524
1.89377e-05
0.00234904
-1.76385e-08
3.80942e-05
0.00230464
5.70214e-05
0.00224563
7.54098e-05
0.00216617
9.30178e-05
0.00206463
0.000109629
0.00194149
0.000125048
0.00179769
0.000139098
0.00163467
0.00015162
0.00145414
0.000162474
0.00125801
0.000171543
0.00104843
0.000178726
0.000827611
0.000183956
0.000598008
0.000187167
0.000361756
0.000121176
0.00018832
1.88175e-05
0.00233025
-1.80081e-08
3.78523e-05
0.00228561
5.66593e-05
0.00222682
7.4931e-05
0.0021479
9.24274e-05
0.00204714
0.000108933
0.00192499
0.000124255
0.00178237
0.000138216
0.00162071
0.000150659
0.00144169
0.000161445
0.00124722
0.000170457
0.00103943
0.000177595
0.000820477
0.000182792
0.000592817
0.000185981
0.000358572
0.000120043
0.000187124
1.8698e-05
0.00231157
-1.84369e-08
3.76119e-05
0.00226669
5.62994e-05
0.00220813
7.44552e-05
0.00212974
9.18407e-05
0.00202975
0.000108242
0.00190859
0.000123466
0.00176715
0.00013734
0.00160683
0.000149704
0.00142933
0.000160422
0.0012365
0.000169377
0.00103047
0.000176471
0.000813379
0.000181635
0.000587647
0.000184803
0.000355391
0.000118884
0.000185936
1.85794e-05
0.00229301
-1.89166e-08
3.7373e-05
0.0022479
5.59419e-05
0.00218957
7.39825e-05
0.0021117
9.12578e-05
0.00201248
0.000107555
0.00189229
0.000122683
0.00175202
0.000136469
0.00159305
0.000148756
0.00141704
0.000159406
0.00122586
0.000168305
0.00102157
0.000175354
0.000806334
0.000180485
0.000582522
0.000183632
0.000352249
0.000117767
0.000184755
1.84614e-05
0.00227456
-1.94381e-08
3.71357e-05
0.00222923
5.55866e-05
0.00217112
7.35127e-05
0.00209378
9.06785e-05
0.00199531
0.000106873
0.0018761
0.000121905
0.00173699
0.000135604
0.00157935
0.000147813
0.00140483
0.000158397
0.00121527
0.00016724
0.00101272
0.000174245
0.000799324
0.000179342
0.000577418
0.000182469
0.000349109
0.000116624
0.000183582
1.83443e-05
0.00225624
-1.99921e-08
3.68999e-05
0.00221067
5.52336e-05
0.00215278
7.30459e-05
0.00207597
9.01029e-05
0.00197826
0.000106194
0.00186001
0.000121132
0.00172205
0.000134744
0.00156574
0.000146877
0.0013927
0.000157394
0.00120476
0.000166181
0.00100394
0.000173142
0.000792367
0.000178207
0.000572358
0.000181313
0.000346008
0.000115522
0.000182417
1.8228e-05
0.00223803
-2.05706e-08
3.66655e-05
0.00219223
5.48828e-05
0.00213457
7.25821e-05
0.00205827
8.9531e-05
0.00196131
0.000105521
0.00184402
0.000120364
0.00170721
0.00013389
0.00155221
0.000145946
0.00138064
0.000156397
0.0011943
0.000165129
0.000995205
0.000172046
0.000785445
0.000177079
0.000567318
0.000180164
0.000342909
0.000114396
0.000181259
1.81124e-05
0.00221994
-2.11663e-08
3.64327e-05
0.00217392
5.45343e-05
0.00211647
7.21213e-05
0.00204068
8.89627e-05
0.00194447
0.000104851
0.00182813
0.000119601
0.00169246
0.000133041
0.00153877
0.000145021
0.00136866
0.000155406
0.00118392
0.000164084
0.000986531
0.000170958
0.000778575
0.000175958
0.000562323
0.000179023
0.000339847
0.00011331
0.000180109
1.79975e-05
0.00220197
-2.17726e-08
3.62014e-05
0.00215571
5.4188e-05
0.00209848
7.16634e-05
0.00202321
8.83981e-05
0.00192773
0.000104186
0.00181235
0.000118842
0.0016778
0.000132198
0.00152542
0.000144103
0.00135676
0.000154422
0.0011736
0.000163045
0.000977904
0.000169876
0.000771739
0.000174845
0.000557347
0.00017789
0.000336789
0.000112203
0.000178967
1.78835e-05
0.00218411
-2.23813e-08
3.59716e-05
0.00213763
5.38439e-05
0.00208061
7.12084e-05
0.00200584
8.78371e-05
0.00191111
0.000103525
0.00179666
0.000118089
0.00166324
0.00013136
0.00151215
0.00014319
0.00134493
0.000153445
0.00116334
0.000162013
0.000969339
0.000168801
0.000764955
0.000173738
0.000552415
0.000176763
0.000333766
0.000111134
0.000177832
1.77702e-05
0.00216636
-2.29822e-08
3.57432e-05
0.00211965
5.3502e-05
0.00206285
7.07564e-05
0.00198859
8.72796e-05
0.00189458
0.000102868
0.00178107
0.00011734
0.00164877
0.000130527
0.00149896
0.000142282
0.00133317
0.000152473
0.00115315
0.000160988
0.00096082
0.000167733
0.000758205
0.000172638
0.000547502
0.000175644
0.000330746
0.000110042
0.000176704
1.76576e-05
0.00214873
-2.3562e-08
3.55164e-05
0.0021018
5.31623e-05
0.00204521
7.03072e-05
0.00197145
8.67257e-05
0.00187817
0.000102216
0.00176558
0.000116596
0.00163439
0.0001297
0.00148585
0.000141381
0.00132149
0.000151508
0.00114303
0.000159969
0.000952362
0.000166672
0.000751506
0.000171546
0.000542633
0.000174532
0.000327763
0.00010899
0.000175584
1.75458e-05
0.00213121
-2.41052e-08
3.5291e-05
0.00208405
5.28249e-05
0.00202768
6.98609e-05
0.00195441
8.61754e-05
0.00186185
0.000101567
0.00175019
0.000115856
0.0016201
0.000128878
0.00147283
0.000140486
0.00130989
0.000150548
0.00113296
0.000158956
0.00094395
0.000165617
0.00074484
0.000170461
0.000537782
0.000173427
0.000324783
0.000107917
0.000174472
1.74348e-05
0.0021138
-2.45957e-08
3.50671e-05
0.00206642
5.24895e-05
0.00201025
6.94175e-05
0.00193748
8.56285e-05
0.00184564
0.000100923
0.0017349
0.000115122
0.0016059
0.000128062
0.00145989
0.000139596
0.00129835
0.000149595
0.00112296
0.000157951
0.000935597
0.00016457
0.000738225
0.000169382
0.000532974
0.000172329
0.000321839
0.000106882
0.000173367
1.73245e-05
0.0020965
-2.50197e-08
3.48446e-05
0.0020489
5.21564e-05
0.00199294
6.89769e-05
0.00192066
8.50852e-05
0.00182954
0.000100283
0.0017197
0.000114392
0.00159179
0.00012725
0.00144703
0.000138712
0.00128689
0.000148648
0.00111302
0.000156951
0.000927291
0.000163529
0.000731643
0.00016831
0.000528185
0.000171239
0.000318898
0.000105825
0.000172269
1.72149e-05
0.00207931
-2.53686e-08
3.46236e-05
0.00203149
5.18254e-05
0.00197574
6.85391e-05
0.00190395
8.45453e-05
0.00181353
9.96468e-05
0.0017046
0.000113667
0.00157778
0.000126444
0.00143426
0.000137833
0.0012755
0.000147707
0.00110315
0.000155958
0.000919043
0.000162494
0.00072511
0.000167246
0.000523438
0.000170155
0.000315994
0.000104807
0.000171178
1.7106e-05
0.00206223
-2.56412e-08
3.4404e-05
0.0020142
5.14965e-05
0.00195865
6.81042e-05
0.00188735
8.40089e-05
0.00179763
9.90149e-05
0.00168959
0.000112946
0.00156384
0.000125643
0.00142156
0.00013696
0.00126418
0.000146772
0.00109334
0.000154971
0.00091084
0.000161466
0.000718611
0.000166188
0.00051871
0.000169079
0.000313093
0.000103767
0.000170095
1.69979e-05
0.00204526
-2.58457e-08
3.41858e-05
0.00199701
5.11697e-05
0.00194167
6.7672e-05
0.00187084
8.34759e-05
0.00178182
9.83869e-05
0.00167468
0.00011223
0.00155
0.000124846
0.00140894
0.000136093
0.00125294
0.000145843
0.00108359
0.000153991
0.000902695
0.000160445
0.00071216
0.000165137
0.000514023
0.000168009
0.000310228
0.000102766
0.000169018
1.68905e-05
0.0020284
-2.59989e-08
3.39691e-05
0.00197993
5.0845e-05
0.00192479
6.72426e-05
0.00185445
8.29464e-05
0.00176612
9.7763e-05
0.00165987
0.000111519
0.00153625
0.000124055
0.00139641
0.000135231
0.00124176
0.00014492
0.0010739
0.000153017
0.000894595
0.000159431
0.000705741
0.000164092
0.000509354
0.000166946
0.000307366
0.000101743
0.000167948
1.67838e-05
0.00201164
-2.61253e-08
3.37537e-05
0.00196296
5.05224e-05
0.00190803
6.68159e-05
0.00183816
8.24202e-05
0.00175052
9.7143e-05
0.00164514
0.000110812
0.00152258
0.00012327
0.00138395
0.000134375
0.00123066
0.000144003
0.00106427
0.000152049
0.000886552
0.000158422
0.000699371
0.000163055
0.000504726
0.00016589
0.000304539
0.000100756
0.000166886
1.66777e-05
0.00199499
-2.62523e-08
3.35398e-05
0.0019461
5.02019e-05
0.00189137
6.6392e-05
0.00182197
8.18973e-05
0.00173501
9.6527e-05
0.00163051
0.00011011
0.00150899
0.000122489
0.00137157
0.000133524
0.00121962
0.000143092
0.0010547
0.000151087
0.000878554
0.000157421
0.000693033
0.000162024
0.000500117
0.000164841
0.000301714
9.9744e-05
0.00016583
1.65724e-05
0.00197844
-2.64089e-08
3.33272e-05
0.00192935
4.98834e-05
0.00187481
6.59708e-05
0.00180588
8.13779e-05
0.00171961
9.5915e-05
0.00161598
0.000109412
0.0014955
0.000121713
0.00135927
0.000132679
0.00120865
0.000142187
0.0010452
0.000150132
0.000870611
0.000156426
0.000686742
0.000160999
0.000495547
0.000163799
0.000298922
9.87683e-05
0.000164781
1.64678e-05
0.001962
-2.66188e-08
3.3116e-05
0.0019127
4.9567e-05
0.00185836
6.55522e-05
0.00178989
8.08617e-05
0.0017043
9.53068e-05
0.00160153
0.000108718
0.00148209
0.000120942
0.00134705
0.000131839
0.00119776
0.000141287
0.00103574
0.000149182
0.000862712
0.000155437
0.000680483
0.000159982
0.000490995
0.000162764
0.000296132
9.77693e-05
0.000163738
1.63638e-05
0.00194567
-2.69003e-08
3.29062e-05
0.00189616
4.92526e-05
0.00184202
6.51364e-05
0.00177401
8.03488e-05
0.00168909
9.47026e-05
0.00158718
0.000108029
0.00146876
0.000120176
0.0013349
0.000131005
0.00118693
0.000140394
0.00102636
0.000148239
0.000854869
0.000154454
0.000674271
0.000158971
0.000486483
0.000161735
0.000293376
9.68045e-05
0.000162703
1.62605e-05
0.00192943
-2.72617e-08
3.26977e-05
0.00187973
4.89402e-05
0.00182577
6.47232e-05
0.00175823
7.98392e-05
0.00167397
9.41022e-05
0.00157292
0.000107345
0.00145552
0.000119415
0.00132283
0.000130175
0.00117617
0.000139505
0.00101702
0.000147302
0.000847069
0.000153478
0.00066809
0.000157966
0.000481988
0.000160713
0.000290621
9.5816e-05
0.000161674
1.61579e-05
0.00191331
-2.77047e-08
3.24905e-05
0.00186339
4.86299e-05
0.00180964
6.43127e-05
0.00174255
7.93329e-05
0.00165895
9.35057e-05
0.00155875
0.000106665
0.00144236
0.000118659
0.00131084
0.000129352
0.00116548
0.000138623
0.00100776
0.000146371
0.000839324
0.000152508
0.000661956
0.000156968
0.000477532
0.000159697
0.000287898
9.48618e-05
0.000160652
1.60559e-05
0.00189728
-2.82214e-08
3.22846e-05
0.00184717
4.83214e-05
0.0017936
6.39047e-05
0.00172696
7.88298e-05
0.00164403
9.2913e-05
0.00154466
0.000105989
0.00142928
0.000117907
0.00129892
0.000128533
0.00115485
0.000137747
0.000998539
0.000145446
0.000831621
0.000151545
0.000655852
0.000155976
0.000473094
0.000158688
0.000285177
9.3885e-05
0.000159637
1.59545e-05
0.00188135
-2.88017e-08
3.20801e-05
0.00183104
4.8015e-05
0.00177767
6.34994e-05
0.00171148
7.833e-05
0.0016292
9.2324e-05
0.00153067
0.000105318
0.00141629
0.000117161
0.00128708
0.00012772
0.00114429
0.000136876
0.000989386
0.000144526
0.000823972
0.000150588
0.000649794
0.000154991
0.000468694
0.000157686
0.000282488
9.29422e-05
0.000158628
1.58539e-05
0.00186553
-2.94304e-08
3.18769e-05
0.00181502
4.77105e-05
0.00176183
6.30967e-05
0.0016961
7.78333e-05
0.00161446
9.17389e-05
0.00151676
0.00010465
0.00140338
0.000116419
0.00127531
0.000126912
0.0011338
0.00013601
0.000980285
0.000143613
0.000816366
0.000149636
0.000643766
0.000154012
0.000464311
0.00015669
0.0002798
9.19781e-05
0.000157626
1.57538e-05
0.00184981
-3.00958e-08
3.16749e-05
0.0017991
4.7408e-05
0.0017461
6.26965e-05
0.00168081
7.73398e-05
0.00159982
9.11575e-05
0.00150295
0.000103988
0.00139055
0.000115682
0.00126361
0.000126109
0.00112337
0.00013515
0.000971245
0.000142706
0.000808812
0.000148691
0.000637784
0.00015304
0.000459966
0.0001557
0.000277144
9.10468e-05
0.00015663
1.56544e-05
0.00183419
-3.07841e-08
3.14743e-05
0.00178328
4.71074e-05
0.00173047
6.22989e-05
0.00166562
7.68495e-05
0.00158527
9.05798e-05
0.00148922
0.000103329
0.0013778
0.00011495
0.00125199
0.000125311
0.00111301
0.000134296
0.000962258
0.000141804
0.000801301
0.000147752
0.000631831
0.000152074
0.000455637
0.000154717
0.000274489
9.00959e-05
0.000155641
1.55556e-05
0.00181866
-3.14882e-08
3.12749e-05
0.00176756
4.68087e-05
0.00171494
6.19039e-05
0.00165052
7.63623e-05
0.00157081
9.00058e-05
0.00147557
0.000102675
0.00136513
0.000114223
0.00124044
0.000124519
0.00110271
0.000133447
0.000953332
0.000140909
0.000793842
0.000146819
0.000625923
0.000151114
0.000451346
0.000153741
0.000271865
8.91762e-05
0.000154658
1.54575e-05
0.00180324
-3.21991e-08
3.10768e-05
0.00175194
4.65119e-05
0.0016995
6.15113e-05
0.00163552
7.58782e-05
0.00155644
8.94356e-05
0.00146202
0.000102025
0.00135254
0.0001135
0.00122897
0.000123731
0.00109248
0.000132604
0.000944457
0.000140019
0.000786423
0.000145893
0.000620044
0.00015016
0.000447072
0.000152771
0.000269242
8.82365e-05
0.000153682
1.53599e-05
0.00178791
-3.29143e-08
3.088e-05
0.00173642
4.6217e-05
0.00168417
6.11213e-05
0.00162062
7.53972e-05
0.00154217
8.88689e-05
0.00144855
0.000101379
0.00134004
0.000112782
0.00121757
0.000122949
0.00108232
0.000131766
0.000935642
0.000139134
0.000779057
0.000144972
0.00061421
0.000149212
0.000442834
0.000151807
0.00026665
8.73288e-05
0.000152712
1.5263e-05
0.00177269
-3.36279e-08
3.06844e-05
0.001721
4.5924e-05
0.00166893
6.07338e-05
0.00160581
7.49193e-05
0.00152798
8.8306e-05
0.00143516
0.000100737
0.0013276
0.000112068
0.00120623
0.000122172
0.00107221
0.000130934
0.000926877
0.000138256
0.000771732
0.000144057
0.000608404
0.000148271
0.000438613
0.000150849
0.000264062
8.64026e-05
0.000151749
1.51667e-05
0.00175755
-3.43395e-08
3.049e-05
0.00170568
4.56329e-05
0.00165378
6.03488e-05
0.0015911
7.44445e-05
0.00151389
8.77466e-05
0.00142186
0.000100099
0.00131525
0.000111359
0.00119497
0.0001214
0.00106217
0.000130107
0.000918172
0.000137383
0.000764457
0.000143148
0.000602642
0.000147336
0.000434428
0.000149898
0.000261502
8.55077e-05
0.000150792
1.5071e-05
0.00174252
-3.50442e-08
3.02969e-05
0.00169045
4.53436e-05
0.00163874
5.99662e-05
0.00157647
7.39728e-05
0.00149988
8.71909e-05
0.00140864
9.94655e-05
0.00130298
0.000110655
0.00118378
0.000120632
0.00105219
0.000129285
0.000909517
0.000136516
0.000757223
0.000142245
0.000596909
0.000146406
0.000430259
0.000148952
0.000258945
8.45931e-05
0.000149841
1.49759e-05
0.00172758
-3.57426e-08
3.0105e-05
0.00167533
4.50562e-05
0.00162379
5.95861e-05
0.00156195
7.3504e-05
0.00148597
8.66387e-05
0.00139551
9.8836e-05
0.00129078
0.000109955
0.00117267
0.00011987
0.00104228
0.000128468
0.000900921
0.000135654
0.000750039
0.000141348
0.000591218
0.000145483
0.000426126
0.000148013
0.000256419
8.37112e-05
0.000148896
1.48814e-05
0.00171274
-3.64301e-08
2.99143e-05
0.00166029
4.47706e-05
0.00160893
5.92084e-05
0.00154751
7.30383e-05
0.00147214
8.60901e-05
0.00138245
9.82106e-05
0.00127866
0.00010926
0.00116162
0.000119113
0.00103242
0.000127657
0.000892374
0.000134799
0.000742895
0.000140456
0.000585556
0.000144566
0.000422009
0.00014708
0.000253896
8.2809e-05
0.000147958
1.47876e-05
0.00169799
-3.71078e-08
2.97249e-05
0.00164536
4.44869e-05
0.00159417
5.88332e-05
0.00153316
7.25756e-05
0.0014584
8.5545e-05
0.00136949
9.75893e-05
0.00126662
0.000108569
0.00115064
0.00011836
0.00102264
0.000126852
0.000883885
0.000133948
0.0007358
0.00013957
0.000579936
0.000143655
0.000417927
0.000146154
0.000251402
8.19396e-05
0.000147026
1.46943e-05
0.00168333
-3.77706e-08
2.95367e-05
0.00163051
4.42049e-05
0.0015795
5.84604e-05
0.00151891
7.21159e-05
0.00144474
8.50035e-05
0.0013566
9.69719e-05
0.00125465
0.000107883
0.00113973
0.000117613
0.0010129
0.000126051
0.000875444
0.000133103
0.000728745
0.000138691
0.000574345
0.00014275
0.000413862
0.000145233
0.000248911
8.105e-05
0.0001461
1.46016e-05
0.00166877
-3.84185e-08
2.93496e-05
0.00161577
4.39248e-05
0.00156493
5.80899e-05
0.00150474
7.16592e-05
0.00143117
8.44654e-05
0.00134379
9.63586e-05
0.00124276
0.000107201
0.00112888
0.00011687
0.00100324
0.000125255
0.00086706
0.000132264
0.000721738
0.000137816
0.000568794
0.00014185
0.00040983
0.000144318
0.000246449
8.01912e-05
0.00014518
1.45095e-05
0.0016543
-3.90439e-08
2.91638e-05
0.00160111
4.36465e-05
0.00155045
5.77219e-05
0.00149067
7.12053e-05
0.00141769
8.39309e-05
0.00133107
9.57492e-05
0.00123094
0.000106524
0.00111811
0.000116132
0.000993628
0.000124465
0.000858725
0.00013143
0.00071477
0.000136948
0.000563272
0.000140957
0.000405815
0.000143409
0.000243989
7.93103e-05
0.000144266
1.4418e-05
0.00163992
-3.96436e-08
2.89792e-05
0.00158655
4.337e-05
0.00153606
5.73562e-05
0.00147668
7.07545e-05
0.00140429
8.33998e-05
0.00131842
9.51438e-05
0.0012192
0.000105851
0.0011074
0.000115399
0.000984081
0.00012368
0.000850446
0.000130601
0.000707851
0.000136085
0.00055779
0.000140069
0.000401833
0.000142507
0.000241557
7.84601e-05
0.000143358
1.43271e-05
0.00162564
-4.02065e-08
2.87957e-05
0.00157208
4.30952e-05
0.00152176
5.69929e-05
0.00146279
7.03065e-05
0.00139098
8.28721e-05
0.00130586
9.45422e-05
0.00120753
0.000105182
0.00109676
0.000114671
0.000974591
0.0001229
0.000842214
0.000129778
0.00070097
0.000135228
0.000552336
0.000139187
0.000397868
0.00014161
0.000239126
7.7589e-05
0.000142456
1.42368e-05
0.00161144
-4.07268e-08
2.86134e-05
0.00155771
4.28223e-05
0.00150755
5.6632e-05
0.00144898
6.98615e-05
0.00137775
8.23479e-05
0.00129337
9.39446e-05
0.00119593
0.000104518
0.00108619
0.000113947
0.000965164
0.000122125