/*--------------------------------*- C++ -*----------------------------------*\
  =========                 |
  \\      /  F ield         | OpenFOAM: The Open Source CFD Toolbox
   \\    /   O peration     | Website:  https://openfoam.org
    \\  /    A nd           | Version:  6.0
     \\/     M anipulation  |
\*---------------------------------------------------------------------------*/
FoamFile
{
    version     2.0;
    format      ascii;
    class       volVectorField;
    location    "2.5";
    object      U;
}
// * * * * * * * * * * * * * * * * * * * * * * * * * * * * * * * * * * * * * //

dimensions      [0 1 -1 0 0 0 0];

internalField   nonuniform List<vector> 
24000
(
(0.999994 9.0356e-07 -7.96329e-17)
(0.999946 -2.21254e-05 1.08429e-16)
(0.999864 -6.9274e-05 -1.90638e-16)
(0.999771 -0.000146095 2.10349e-16)
(0.999696 -0.000245861 -1.03772e-15)
(0.999661 -0.000348174 -6.1513e-16)
(0.999674 -0.000430483 6.29744e-16)
(0.99973 -0.000471913 -1.39524e-15)
(0.999821 -0.000444343 4.37955e-16)
(0.999922 -0.000345364 -3.21991e-16)
(1.00001 -8.068e-06 -3.1142e-16)
(1.00128 0.00137852 -4.60851e-16)
(0.999987 -2.16491e-06 1.16738e-16)
(0.999901 -5.34603e-05 -1.60448e-16)
(0.999755 -0.000146019 3.56228e-16)
(0.999591 -0.000291756 -8.89488e-17)
(0.999465 -0.000476546 4.61861e-16)
(0.999413 -0.000658562 6.22098e-16)
(0.999447 -0.000798873 -3.50335e-16)
(0.999561 -0.000860772 1.48218e-15)
(0.999733 -0.000794837 -3.10979e-16)
(0.999929 -0.000603978 1.59595e-17)
(1.00003 -1.35382e-05 8.13417e-17)
(1.00234 0.00205807 1.53445e-16)
(0.999986 -7.25154e-06 -8.89165e-17)
(0.999909 -7.43993e-05 2.16191e-16)
(0.999781 -0.000175836 -1.23466e-16)
(0.999636 -0.000325124 4.51472e-16)
(0.999529 -0.000507326 2.51546e-16)
(0.999494 -0.000678304 2.31373e-16)
(0.999539 -0.000801243 5.18181e-16)
(0.999658 -0.000846344 -6.58888e-16)
(0.999829 -0.000766719 -3.67687e-16)
(1.00003 -0.000581437 -1.29786e-16)
(1.00005 -3.61614e-05 -2.90225e-17)
(1.00243 0.00158178 4.85489e-16)
(0.999984 -1.34503e-05 -3.7967e-17)
(0.99992 -9.51285e-05 -2.0455e-16)
(0.999816 -0.000203039 -3.15843e-16)
(0.999698 -0.000351362 -2.23821e-16)
(0.999611 -0.000526263 -1.31087e-16)
(0.999587 -0.000686061 -9.05628e-16)
(0.999634 -0.000797532 -1.43466e-15)
(0.999749 -0.000838681 1.63912e-16)
(0.999909 -0.000765474 4.69296e-17)
(1.00012 -0.000601825 6.45067e-16)
(1.00007 -0.000132409 -4.11602e-16)
(1.00224 0.00114862 -5.68086e-16)
(0.99998 -2.00215e-05 6.76385e-17)
(0.999919 -0.000117651 3.30212e-17)
(0.999825 -0.000238925 1.60062e-16)
(0.999717 -0.000397604 -7.56583e-17)
(0.999639 -0.000580026 2.07884e-16)
(0.999618 -0.000745833 1.87114e-16)
(0.999668 -0.000862442 1.45137e-15)
(0.999785 -0.000910115 -9.48234e-17)
(0.99995 -0.000843139 -2.79722e-16)
(1.00019 -0.000677395 7.60106e-17)
(1.00013 -0.000229788 2.84055e-16)
(1.00205 0.000965222 -1.50451e-16)
(0.999974 -2.66174e-05 3.91418e-18)
(0.999915 -0.000140155 -1.90012e-17)
(0.999826 -0.000276595 -2.13641e-17)
(0.999728 -0.000446925 -3.86794e-18)
(0.99966 -0.000636388 -8.62737e-16)
(0.999647 -0.000805412 1.05572e-15)
(0.999705 -0.000921625 2.92962e-17)
(0.999832 -0.000965928 1.46172e-16)
(1.00001 -0.000891259 6.91349e-16)
(1.00027 -0.000704531 -3.40238e-16)
(1.00023 -0.000251844 5.15454e-16)
(1.00194 0.000916299 3.44735e-16)
(0.999968 -3.32492e-05 -3.54212e-18)
(0.999911 -0.000162058 2.04902e-16)
(0.999831 -0.000312787 -2.07794e-16)
(0.999747 -0.000491536 -1.01312e-16)
(0.999695 -0.000682018 4.43363e-16)
(0.999696 -0.000845938 -2.18091e-16)
(0.999766 -0.000952246 -6.03986e-16)
(0.999905 -0.000983312 -3.13332e-16)
(1.00009 -0.000893092 1.22108e-16)
(1.00037 -0.00068556 6.01727e-16)
(1.00035 -0.0002351 -1.21675e-15)
(1.00188 0.000870867 3.16132e-16)
(0.999962 -4.00075e-05 -5.23195e-17)
(0.999907 -0.000183916 7.93264e-17)
(0.999836 -0.000349195 2.39439e-16)
(0.999766 -0.000536166 4.5326e-16)
(0.99973 -0.000727291 2.41283e-16)
(0.999745 -0.000886112 -2.67722e-16)
(0.999827 -0.000983512 -2.91083e-16)
(0.999976 -0.00100356 -1.39516e-16)
(1.00016 -0.000901914 4.81937e-17)
(1.00046 -0.000683886 -1.30338e-16)
(1.00047 -0.000249335 1.04177e-15)
(1.00185 0.000765357 -5.46671e-16)
(0.999954 -4.69363e-05 2.05997e-17)
(0.999901 -0.000206084 -1.94803e-16)
(0.999837 -0.000387001 1.46126e-17)
(0.999777 -0.000584214 -7.23293e-17)
(0.999753 -0.000779378 7.29882e-17)
(0.999779 -0.000938133 -6.11129e-17)
(0.999872 -0.00103346 5.1203e-17)
(1.00003 -0.0010504 5.58689e-16)
(1.00023 -0.000945564 -6.92266e-17)
(1.00054 -0.000725044 -7.89506e-16)
(1.00058 -0.000310308 -8.78841e-16)
(1.00185 0.000618705 9.72631e-16)
(0.999946 -5.40541e-05 7.32125e-17)
(0.999894 -0.000228448 4.86915e-18)
(0.999834 -0.000425473 1.84505e-16)
(0.999783 -0.000634127 -4.83691e-16)
(0.999768 -0.000835454 -1.15431e-16)
(0.999804 -0.000997191 5.22378e-16)
(0.999905 -0.00109466 -4.43692e-16)
(1.00007 -0.00111322 -6.6909e-16)
(1.00028 -0.00100977 2.04905e-16)
(1.00061 -0.000788031 2.05415e-16)
(1.00069 -0.000388306 6.53504e-16)
(1.00186 0.00047917 -1.37564e-16)
(0.999938 -6.13881e-05 -1.00417e-16)
(0.999886 -0.000250813 -2.31202e-17)
(0.999832 -0.000463513 -2.19894e-16)
(0.999787 -0.000683355 3.65812e-17)
(0.999783 -0.00089068 1.67245e-16)
(0.999829 -0.00105502 -3.605e-16)
(0.99994 -0.00115432 2.70815e-16)
(1.00012 -0.00117408 7.53915e-16)
(1.00033 -0.00107163 -5.62067e-16)
(1.00068 -0.000845819 2.24158e-16)
(1.0008 -0.000454538 -8.46571e-16)
(1.0019 0.000371096 -9.01425e-16)
(0.999928 -6.89608e-05 6.51915e-18)
(0.999878 -0.000273086 1.92044e-16)
(0.99983 -0.000500618 -1.92599e-16)
(0.999793 -0.000730895 1.48937e-16)
(0.999799 -0.000943413 -4.57671e-16)
(0.999857 -0.00110895 -2.03894e-16)
(0.999979 -0.00120795 6.63804e-17)
(1.00017 -0.00122625 -3.02781e-16)
(1.0004 -0.00112226 -3.94108e-16)
(1.00075 -0.000889424 3.62772e-16)
(1.00092 -0.000502598 2.85383e-16)
(1.00195 0.000287869 1.00384e-17)
(0.999918 -7.67723e-05 2.45292e-17)
(0.99987 -0.000295244 -1.91914e-17)
(0.999829 -0.000536744 5.30689e-16)
(0.9998 -0.000776899 1.53084e-16)
(0.999816 -0.000994447 2.6161e-16)
(0.999887 -0.00116078 -2.92402e-16)
(1.00002 -0.00125827 -1.47863e-16)
(1.00022 -0.00127321 1.20552e-16)
(1.00046 -0.00116572 4.65472e-16)
(1.00083 -0.0009249 -1.2188e-15)
(1.00103 -0.000541364 -4.86131e-16)
(1.00201 0.000213326 5.40522e-16)
(0.999908 -8.47884e-05 -7.57575e-17)
(0.999863 -0.000317239 -6.7427e-17)
(0.999829 -0.00057191 -4.19418e-16)
(0.999806 -0.000821563 -3.31406e-16)
(0.999833 -0.00104462 -2.32244e-16)
(0.999916 -0.0012126 3.65002e-16)
(1.00006 -0.00130897 2.50974e-16)
(1.00028 -0.0013204 -2.76462e-16)
(1.00053 -0.00120902 -3.70949e-16)
(1.00091 -0.000960828 -1.32855e-16)
(1.00114 -0.000580367 6.90382e-16)
(1.00208 0.000138578 -4.8033e-16)
(0.999897 -9.29485e-05 4.07783e-17)
(0.999855 -0.000339016 3.22339e-17)
(0.999828 -0.000606107 4.95431e-17)
(0.999813 -0.000864793 7.90437e-17)
(0.99985 -0.00109387 8.21769e-17)
(0.999945 -0.00126479 -1.4825e-16)
(1.0001 -0.00136129 7.76975e-18)
(1.00033 -0.00137013 -3.82931e-16)
(1.0006 -0.00125541 3.62512e-16)
(1.00099 -0.0010008 1.3816e-15)
(1.00125 -0.000622629 -2.05287e-16)
(1.00215 6.379e-05 6.68957e-16)
(0.999885 -0.000101165 -3.93746e-17)
(0.999846 -0.000360517 1.4869e-18)
(0.999828 -0.000639353 1.47855e-16)
(0.999821 -0.000906422 2.09076e-16)
(0.999867 -0.00114164 2.31259e-16)
(0.999973 -0.00131637 -1.50243e-16)
(1.00015 -0.0014141 -2.41919e-16)
(1.00039 -0.00142129 5.9154e-16)
(1.00066 -0.00130386 1.43228e-16)
(1.00107 -0.00104338 -1.48911e-15)
(1.00135 -0.00066607 2.3532e-16)
(1.00222 -7.51632e-06 2.21781e-17)
(0.999872 -0.000109334 9.00906e-17)
(0.999837 -0.000381721 3.3098e-17)
(0.999827 -0.000671787 -3.19583e-16)
(0.99983 -0.000946561 1.37919e-16)
(0.999886 -0.00118764 -5.61339e-17)
(1 -0.0013664 3.67386e-16)
(1.00019 -0.00146585 6.25447e-16)
(1.00044 -0.00147189 1.05303e-16)
(1.00073 -0.00135203 5.10545e-16)
(1.00115 -0.00108593 1.23798e-15)
(1.00146 -0.000708286 1.43164e-15)
(1.0023 -7.41143e-05 -5.33781e-16)
(0.999858 -0.000117332 3.4627e-17)
(0.999827 -0.000402609 -2.74509e-17)
(0.999826 -0.000703636 3.03971e-16)
(0.999838 -0.000985648 -2.77265e-16)
(0.999905 -0.00123225 3.92451e-16)
(1.00003 -0.00141484 4.03347e-18)
(1.00023 -0.00151604 -4.06609e-16)
(1.0005 -0.00152107 1.28198e-16)
(1.0008 -0.00139893 -4.42057e-16)
(1.00123 -0.00112762 -2.16333e-16)
(1.00156 -0.000749177 -5.74236e-16)
(1.00238 -0.000137781 -1.05971e-16)
(0.999844 -0.000125031 -4.15265e-17)
(0.999816 -0.000423171 -2.3115e-16)
(0.999823 -0.000735161 -1.26515e-16)
(0.999846 -0.00102433 1.55277e-16)
(0.999925 -0.00127636 -2.81999e-17)
(1.00007 -0.00146264 -2.62034e-16)
(1.00028 -0.00156557 -5.46456e-17)
(1.00056 -0.00156973 -3.37622e-17)
(1.00087 -0.00144555 -5.30639e-16)
(1.00131 -0.00116973 -3.89209e-16)
(1.00166 -0.000790496 -1.72167e-15)
(1.00247 -0.000201067 1.0198e-15)
(0.999829 -0.000132299 -3.95672e-17)
(0.999803 -0.000443372 2.40645e-16)
(0.999818 -0.000766538 -1.71773e-16)
(0.999852 -0.0010632 7.66672e-17)
(0.999943 -0.00132093 -1.8821e-16)
(1.0001 -0.00151104 -4.26365e-16)
(1.00032 -0.00161587 5.40874e-17)
(1.00061 -0.00161944 -6.90556e-17)
(1.00094 -0.00149356 2.87257e-16)
(1.00139 -0.00121395 4.46411e-16)
(1.00177 -0.000833779 1.54076e-15)
(1.00255 -0.000264688 -9.86265e-16)
(0.999812 -0.000139016 2.84599e-17)
(0.999789 -0.000463169 -1.12031e-17)
(0.99981 -0.000797843 2.72393e-17)
(0.999855 -0.00110258 -6.35852e-17)
(0.999959 -0.0013666 -2.36496e-16)
(1.00013 -0.00156094 -9.46259e-18)
(1.00036 -0.001668 -1.25447e-16)
(1.00067 -0.00167133 -6.70092e-16)
(1.00102 -0.00154403 4.03735e-16)
(1.00148 -0.001261 2.18625e-16)
(1.00187 -0.000879198 6.51899e-17)
(1.00264 -0.00032784 2.21739e-16)
(0.999795 -0.000145077 3.25536e-17)
(0.999773 -0.000482499 -2.64015e-16)
(0.999801 -0.000829036 5.16946e-16)
(0.999857 -0.00114254 4.91947e-17)
(0.999973 -0.00141351 1.43456e-16)
(1.00015 -0.00161258 8.69675e-16)
(1.0004 -0.0017222 7.15241e-16)
(1.00073 -0.00172553 3.61991e-16)
(1.00109 -0.00159681 -9.59174e-16)
(1.00156 -0.00131031 -2.79697e-16)
(1.00197 -0.000925747 9.24851e-17)
(1.00273 -0.000389127 -3.31098e-17)
(0.999776 -0.000150406 -6.10066e-17)
(0.999756 -0.000501314 1.05173e-16)
(0.999791 -0.000860033 -6.97016e-17)
(0.999856 -0.00118292 -8.85207e-17)
(0.999985 -0.00146144 -2.55219e-16)
(1.00018 -0.0016657 -5.04985e-16)
(1.00044 -0.00177809 -2.74481e-16)
(1.00078 -0.00178146 -2.1769e-17)
(1.00116 -0.00165109 2.77984e-16)
(1.00164 -0.00136082 -2.65073e-16)
(1.00207 -0.000972387 -1.56329e-15)
(1.00282 -0.000448142 7.90754e-16)
(0.999756 -0.000154949 4.45431e-17)
(0.999738 -0.000519572 6.3458e-18)
(0.999779 -0.000890746 -1.89685e-16)
(0.999855 -0.00122352 -1.4508e-16)
(0.999996 -0.00151005 -8.05136e-17)
(1.0002 -0.00171982 -1.19011e-16)
(1.00048 -0.00183512 -2.17104e-16)
(1.00084 -0.00183844 -2.31621e-16)
(1.00123 -0.00170612 -6.75199e-17)
(1.00172 -0.00141179 -2.45941e-16)
(1.00217 -0.00101875 9.28004e-17)
(1.00291 -0.000505152 -1.57359e-16)
(0.999735 -0.00015868 1.52684e-17)
(0.999718 -0.000537265 1.49444e-16)
(0.999766 -0.000921144 4.09078e-17)
(0.999852 -0.00126419 -1.57111e-17)
(1.00001 -0.00155906 9.88689e-17)
(1.00023 -0.0017746 2.77862e-16)
(1.00052 -0.00189291 1.0696e-16)
(1.00089 -0.00189616 2.67529e-16)
(1.0013 -0.00176166 3.13616e-16)
(1.00181 -0.00146323 -3.06031e-16)
(1.00227 -0.0010653 1.00404e-15)
(1.003 -0.000560826 -6.20899e-16)
(0.999713 -0.000161589 -2.07043e-17)
(0.999698 -0.000554393 -1.95519e-17)
(0.999752 -0.000951235 -1.47802e-16)
(0.999848 -0.00130489 -9.72829e-17)
(1.00002 -0.00160835 -3.48754e-17)
(1.00025 -0.0018299 -1.78965e-16)
(1.00056 -0.00195139 1.04166e-17)
(1.00095 -0.00195463 -3.11419e-16)
(1.00137 -0.00181794 -2.70564e-17)
(1.00189 -0.00151558 1.0517e-15)
(1.00237 -0.00111276 4.95877e-16)
(1.0031 -0.000616051 5.2974e-17)
(0.999689 -0.000163686 -9.85055e-18)
(0.999677 -0.000570983 -1.14713e-16)
(0.999738 -0.000981077 -5.0553e-17)
(0.999844 -0.00134565 -7.55338e-17)
(1.00002 -0.00165794 5.57661e-16)
(1.00028 -0.00188575 -1.29209e-16)
(1.0006 -0.00201064 1.53819e-16)
(1.001 -0.00201411 -1.59825e-16)
(1.00144 -0.00187537 -2.55349e-16)
(1.00198 -0.00156939 -2.65198e-16)
(1.00247 -0.00116173 -1.96248e-17)
(1.00319 -0.000671513 -2.00758e-16)
(0.999664 -0.000164988 3.41088e-17)
(0.999655 -0.000587054 -4.08725e-17)
(0.999722 -0.00101073 1.71695e-16)
(0.999839 -0.00138655 3.46646e-16)
(1.00003 -0.00170795 -5.27312e-16)
(1.0003 -0.00194227 4.99119e-16)
(1.00064 -0.00207084 -2.76021e-16)
(1.00106 -0.00207482 -1.44135e-16)
(1.00151 -0.00193427 -1.94175e-16)
(1.00206 -0.00162495 -3.55084e-16)
(1.00256 -0.00121239 -1.50649e-16)
(1.00329 -0.000727157 -1.20465e-16)
(0.999638 -0.000165524 -5.82602e-18)
(0.999632 -0.000602638 -1.56762e-17)
(0.999706 -0.00104025 -1.57889e-17)
(0.999833 -0.00142771 -3.35562e-16)
(1.00004 -0.00175854 -1.44076e-16)
(1.00032 -0.00199965 -1.30501e-17)
(1.00068 -0.00213218 -3.89837e-16)
(1.00111 -0.00213696 7.18517e-16)
(1.00159 -0.00199479 -5.86881e-18)
(1.00215 -0.00168231 2.50847e-16)
(1.00266 -0.00126467 1.77675e-16)
(1.00338 -0.000782532 -5.41981e-18)
(0.99961 -0.000165322 -1.89025e-17)
(0.999608 -0.000617751 1.07935e-16)
(0.999688 -0.00106967 3.21456e-17)
(0.999826 -0.00146919 4.61216e-16)
(1.00005 -0.00180983 2.51707e-16)
(1.00034 -0.00205803 -4.22302e-16)
(1.00072 -0.00219476 1.9176e-16)
(1.00117 -0.00220058 -3.78564e-16)
(1.00166 -0.00205691 1.31076e-15)
(1.00223 -0.00174129 -1.01893e-16)
(1.00276 -0.00131822 2.24099e-17)
(1.00348 -0.000837401 -1.40438e-16)
(0.999581 -0.000164425 -1.97241e-17)
(0.999582 -0.000632418 7.54056e-17)
(0.999669 -0.00109897 -9.05871e-17)
(0.999817 -0.001511 -4.47635e-16)
(1.00005 -0.00186192 4.63538e-16)
(1.00036 -0.00211753 2.71172e-16)
(1.00076 -0.00225868 3.42993e-16)
(1.00122 -0.00226567 1.53485e-16)
(1.00173 -0.0021205 -1.08876e-16)
(1.00232 -0.00180161 5.4671e-16)
(1.00286 -0.00137262 -9.9136e-16)
(1.00357 -0.000891489 1.11794e-15)
(0.999551 -0.000162871 2.74842e-17)
(0.999556 -0.000646649 -1.44321e-16)
(0.999649 -0.00112811 -8.42673e-17)
(0.999807 -0.00155308 -2.68502e-17)
(1.00005 -0.00191474 -1.77289e-16)
(1.00038 -0.00217812 -5.03373e-18)
(1.00079 -0.00232387 -2.81949e-16)
(1.00128 -0.00233209 -2.13413e-16)
(1.0018 -0.0021853 -1.204e-15)
(1.0024 -0.00186286 -3.97392e-16)
(1.00296 -0.00142739 -2.55436e-16)
(1.00367 -0.000944568 -2.9972e-17)
(0.99952 -0.000160718 1.05404e-17)
(0.99953 -0.000660474 -1.18657e-17)
(0.999628 -0.00115706 -4.26386e-17)
(0.999796 -0.00159534 3.25664e-16)
(1.00006 -0.00196818 -5.52952e-16)
(1.0004 -0.00223966 -4.10372e-16)
(1.00083 -0.00239017 3.52597e-16)
(1.00133 -0.00239962 -2.33396e-17)
(1.00187 -0.002251 7.2949e-17)
(1.00249 -0.00192465 4.21174e-16)
(1.00306 -0.00148216 -1.68302e-16)
(1.00377 -0.000996591 3.03084e-16)
(0.999488 -0.000158019 -1.51835e-17)
(0.999502 -0.00067392 1.70175e-16)
(0.999607 -0.00118575 2.88681e-16)
(0.999785 -0.00163762 -9.61859e-17)
(1.00006 -0.00202201 4.3568e-17)
(1.00042 -0.0023019 1.82329e-16)
(1.00086 -0.00245731 -4.20965e-16)
(1.00138 -0.00246793 4.4327e-16)
(1.00194 -0.00231724 3.44663e-16)
(1.00257 -0.00198662 -2.83977e-16)
(1.00315 -0.00153662 3.22535e-18)
(1.00387 -0.00104761 -1.8991e-17)
(0.999454 -0.000154846 -4.29731e-18)
(0.999473 -0.000687039 -2.47223e-16)
(0.999585 -0.00121419 -4.85254e-17)
(0.999773 -0.00167982 5.79686e-17)
(1.00006 -0.00207603 6.52353e-16)
(1.00044 -0.00236458 5.20881e-17)
(1.0009 -0.002525 3.9087e-16)
(1.00144 -0.00253672 -7.24017e-16)
(1.00201 -0.00238373 3.63621e-16)
(1.00266 -0.00204854 -4.36793e-16)
(1.00325 -0.0015907 9.36839e-16)
(1.00397 -0.0010977 -4.64903e-16)
(0.99942 -0.000151267 2.14806e-17)
(0.999444 -0.000699886 1.09607e-16)
(0.999562 -0.00124241 -1.16409e-16)
(0.99976 -0.00172189 4.79235e-17)
(1.00006 -0.00213006 -3.92426e-16)
(1.00045 -0.00242746 -1.38175e-16)
(1.00093 -0.00259297 2.26861e-17)
(1.00149 -0.00260576 5.18814e-16)
(1.00208 -0.0024503 3.13158e-16)
(1.00274 -0.00211035 -2.16198e-17)
(1.00335 -0.00164447 1.23439e-15)
(1.00407 -0.00114734 -6.08218e-16)
(0.999384 -0.000147364 1.44415e-18)
(0.999414 -0.000712543 1.19633e-16)
(0.999539 -0.00127049 1.19522e-16)
(0.999748 -0.00176385 -1.44078e-17)
(1.00006 -0.00218408 2.86996e-16)
(1.00047 -0.00249044 3.71138e-16)
(1.00097 -0.00266112 -1.13259e-16)
(1.00154 -0.00267499 5.2118e-16)
(1.00216 -0.00251699 -1.19598e-15)
(1.00283 -0.0021722 -1.32668e-16)
(1.00345 -0.00169823 -1.77693e-15)
(1.00417 -0.00119728 1.40333e-16)
(0.999347 -0.000143208 -6.2302e-17)
(0.999382 -0.000725087 7.4436e-17)
(0.999515 -0.00129854 -2.12715e-17)
(0.999735 -0.00180584 1.55176e-16)
(1.00006 -0.00223816 -2.13688e-16)
(1.00049 -0.00255357 -5.2083e-16)
(1.001 -0.00272951 -4.0066e-17)
(1.0016 -0.00274451 -3.71489e-16)
(1.00223 -0.00258396 1.27398e-15)
(1.00292 -0.00223436 -4.29185e-17)
(1.00355 -0.00175229 3.81342e-16)
(1.00428 -0.00124785 7.01414e-16)
(0.999309 -0.000138882 1.54932e-17)
(0.99935 -0.000737608 -3.19128e-16)
(0.999491 -0.00132672 1.09992e-16)
(0.999721 -0.00184803 -5.10166e-16)
(1.00006 -0.0022925 2.55265e-16)
(1.00051 -0.00261705 8.45223e-16)
(1.00104 -0.00279834 -2.19167e-16)
(1.00165 -0.00281454 -5.18987e-16)
(1.0023 -0.00265152 -4.05429e-16)
(1.00301 -0.00229718 -8.01614e-17)
(1.00365 -0.00180704 3.95259e-16)
(1.00438 -0.00129908 -6.41373e-16)
(0.99927 -0.000134454 3.55327e-17)
(0.999316 -0.000750179 9.27167e-17)
(0.999465 -0.00135516 -3.34031e-16)
(0.999706 -0.00189065 4.62662e-16)
(1.00006 -0.00234735 -6.95669e-16)
(1.00052 -0.00268114 -6.94961e-16)
(1.00108 -0.00286788 2.64951e-16)
(1.00171 -0.00288539 9.31805e-16)
(1.00237 -0.00271995 -5.24904e-16)
(1.00309 -0.00236093 2.11205e-16)
(1.00375 -0.0018627 -1.7057e-16)
(1.00448 -0.00135118 6.00812e-17)
(0.99923 -0.000130002 -6.05257e-18)
(0.999281 -0.000762879 2.00105e-16)
(0.999438 -0.00138401 2.66505e-16)
(0.999691 -0.0019339 -3.17241e-16)
(1.00006 -0.002403 1.54345e-16)
(1.00054 -0.00274615 4.28107e-16)
(1.00111 -0.00293844 1.43973e-16)
(1.00176 -0.00295734 -9.65783e-17)
(1.00244 -0.00278953 7.35789e-16)
(1.00318 -0.00242582 3.74386e-16)
(1.00385 -0.00191938 7.03823e-17)
(1.00458 -0.00140427 6.33921e-17)
(0.999188 -0.000125583 1.36068e-17)
(0.999245 -0.000775759 -2.23231e-16)
(0.999409 -0.00141335 -5.89755e-17)
(0.999673 -0.00197793 1.24243e-16)
(1.00006 -0.00245965 7.51143e-16)
(1.00055 -0.00281231 -3.85298e-16)
(1.00114 -0.00301026 -3.28277e-16)
(1.00181 -0.0030306 -7.46034e-17)
(1.00252 -0.00286041 -7.27758e-16)
(1.00327 -0.00249193 4.23112e-16)
(1.00395 -0.00197706 -5.8849e-17)
(1.00469 -0.00145825 3.77097e-16)
(0.999146 -0.000121267 -1.07968e-17)
(0.999207 -0.000788877 1.39776e-16)
(0.999378 -0.00144324 -9.6446e-17)
(0.999654 -0.00202286 3.61922e-16)
(1.00006 -0.00251746 -7.05654e-16)
(1.00057 -0.0028798 4.9583e-16)
(1.00118 -0.00308349 -4.82404e-17)
(1.00187 -0.00310528 -5.03955e-17)
(1.00259 -0.00293266 7.53041e-16)
(1.00335 -0.00255927 -2.9029e-16)
(1.00405 -0.00203577 -2.37477e-16)
(1.00479 -0.00151285 -9.52448e-17)
(0.999103 -0.000117107 1.51976e-18)
(0.999168 -0.000802264 -2.60524e-17)
(0.999347 -0.00147373 1.17522e-16)
(0.999634 -0.00206872 -4.01441e-16)
(1.00005 -0.00257648 3.48401e-16)
(1.00058 -0.00294867 1.16581e-16)
(1.00121 -0.00315816 1.6791e-16)
(1.00192 -0.0031814 -8.76681e-16)
(1.00266 -0.00300622 -3.67813e-16)
(1.00344 -0.00262776 -1.32275e-15)
(1.00415 -0.00209548 -6.91165e-16)
(1.0049 -0.00156795 -7.08687e-16)
(0.999059 -0.000113163 -1.97297e-17)
(0.999128 -0.000815963 1.80602e-17)
(0.999313 -0.00150481 -2.20226e-16)
(0.999612 -0.00211552 1.44782e-17)
(1.00005 -0.00263669 -8.85111e-17)
(1.00059 -0.00301889 5.26838e-18)
(1.00124 -0.00323424 3.10194e-16)
(1.00197 -0.00325889 1.18523e-15)
(1.00273 -0.00308104 1.03035e-16)
(1.00353 -0.00269731 8.25548e-16)
(1.00425 -0.00215602 -1.21081e-16)
(1.005 -0.00162339 1.28616e-15)
(0.999014 -0.000109485 1.89828e-17)
(0.999086 -0.000830002 1.09652e-17)
(0.999279 -0.0015365 2.97621e-16)
(0.999589 -0.00216321 -1.74076e-16)
(1.00004 -0.00269803 -2.03837e-16)
(1.0006 -0.00309039 -2.35431e-16)
(1.00127 -0.00331164 -1.42807e-16)
(1.00202 -0.00333765 -4.75223e-16)
(1.0028 -0.00315701 8.55278e-17)
(1.00361 -0.00276785 8.20237e-16)
(1.00435 -0.00221742 7.95823e-16)
(1.00511 -0.00167896 -1.14224e-15)
(0.998969 -0.00010613 -1.93805e-17)
(0.999044 -0.000844418 -2.39742e-16)
(0.999243 -0.00156879 -1.27629e-16)
(0.999565 -0.00221177 2.92347e-17)
(1.00003 -0.00276045 5.10997e-16)
(1.00061 -0.00316307 -4.05205e-16)
(1.0013 -0.00339026 -3.61632e-16)
(1.00207 -0.0034176 -4.47038e-16)
(1.00287 -0.00323407 -5.35908e-16)
(1.0037 -0.00283932 -1.77223e-15)
(1.00445 -0.00228 -5.9233e-16)
(1.00521 -0.00173487 5.79095e-16)
(0.998923 -0.000103141 9.69932e-18)
(0.999 -0.000859239 2.00227e-16)
(0.999206 -0.0016017 6.03885e-17)
(0.99954 -0.00226117 3.72586e-16)
(1.00002 -0.00282387 -5.89805e-16)
(1.00062 -0.00323686 5.74949e-16)
(1.00133 -0.00347 -6.85735e-18)
(1.00212 -0.00349865 1.05346e-15)
(1.00294 -0.00331218 3.80315e-16)
(1.00378 -0.00291171 2.31118e-15)
(1.00455 -0.00234384 3.29384e-16)
(1.00532 -0.00179099 5.39706e-16)
(0.998876 -0.000100569 -1.9803e-17)
(0.998955 -0.000874504 4.30127e-17)
(0.999169 -0.00163525 9.36767e-17)
(0.999513 -0.00231141 -1.45712e-16)
(1.00001 -0.00288826 5.03956e-16)
(1.00063 -0.00331171 -6.06603e-16)
(1.00136 -0.00355084 5.53834e-16)
(1.00217 -0.0035808 -1.42156e-16)
(1.00301 -0.00339133 2.32024e-16)
(1.00387 -0.00298503 -1.68544e-15)
(1.00464 -0.00240861 1.00088e-15)
(1.00542 -0.0018469 -1.2044e-15)
(0.998828 -9.84499e-05 2.13002e-17)
(0.998909 -0.000890241 -1.1907e-16)
(0.99913 -0.00166945 -1.73109e-16)
(0.999486 -0.00236248 -1.7115e-16)
(0.999998 -0.00295363 5.22053e-17)
(1.00064 -0.00338759 -1.59704e-16)
(1.00139 -0.00363275 -3.01671e-16)
(1.00222 -0.00366402 -6.6941e-16)
(1.00307 -0.00347153 -2.39739e-16)
(1.00395 -0.00305928 3.93916e-16)
(1.00474 -0.00247424 -9.83182e-16)
(1.00553 -0.0019024 6.96337e-16)
(0.99878 -9.68232e-05 5.13241e-17)
(0.998862 -0.000906485 1.44786e-17)
(0.99909 -0.00170433 -4.60658e-17)
(0.999458 -0.00241441 1.24375e-16)
(0.999986 -0.00301998 -6.88195e-16)
(1.00064 -0.00346454 1.16489e-16)
(1.00142 -0.00371576 5.0479e-16)
(1.00227 -0.00374834 -2.81795e-16)
(1.00314 -0.00355279 9.46557e-17)
(1.00404 -0.00313442 -1.24003e-16)
(1.00484 -0.00254086 2.24414e-16)
(1.00564 -0.00195781 -5.24726e-16)
(0.998731 -9.57102e-05 -3.35037e-17)
(0.998814 -0.000923258 7.35924e-17)
(0.999049 -0.0017399 -1.34663e-16)
(0.999429 -0.00246719 -8.0677e-17)
(0.999973 -0.0030873 5.11972e-16)
(1.00065 -0.00354253 2.11749e-16)
(1.00144 -0.00379985 -2.23498e-16)
(1.00231 -0.00383373 4.58418e-16)
(1.00321 -0.00363506 1.50889e-16)
(1.00413 -0.00321041 2.97636e-16)
(1.00494 -0.00260831 -3.06447e-16)
(1.00575 -0.00201296 -1.10209e-17)
(0.998682 -9.51365e-05 -5.13099e-17)
(0.998765 -0.000940592 -2.67097e-17)
(0.999008 -0.00177619 1.3882e-16)
(0.999399 -0.00252082 1.22714e-16)
(0.999959 -0.0031556 1.59612e-16)
(1.00066 -0.00362157 4.31735e-16)
(1.00147 -0.00388499 -1.93735e-16)
(1.00236 -0.00392016 -8.63956e-17)
(1.00328 -0.0037183 -1.83064e-16)
(1.00421 -0.00328715 -6.69225e-18)
(1.00504 -0.00267626 6.63055e-18)
(1.00585 -0.00206749 3.84105e-16)
(0.998632 -9.5106e-05 8.63221e-17)
(0.998715 -0.000958501 -1.3999e-17)
(0.998965 -0.00181318 1.60467e-16)
(0.999368 -0.00257529 -7.33124e-17)
(0.999944 -0.00322482 -1.40526e-16)
(1.00066 -0.00370159 -5.68408e-16)
(1.00149 -0.00397113 -3.44207e-16)
(1.00241 -0.00400755 2.241e-16)
(1.00335 -0.00380239 3.5288e-17)
(1.0043 -0.00336456 5.36316e-17)
(1.00514 -0.00274448 8.29327e-17)
(1.00596 -0.00212163 3.43319e-17)
(0.998581 -9.56266e-05 -8.60984e-17)
(0.998664 -0.000977013 1.31764e-16)
(0.998921 -0.00185089 -2.36249e-16)
(0.999336 -0.00263057 1.6258e-16)
(0.999928 -0.00329494 -3.77281e-18)
(1.00066 -0.00378253 3.85885e-16)
(1.00152 -0.0040582 3.35933e-16)
(1.00245 -0.00409582 -2.24319e-16)
(1.00341 -0.00388726 3.68949e-16)
(1.00438 -0.00344256 -2.39018e-16)
(1.00524 -0.00281277 7.13251e-16)
(1.00607 -0.00217539 7.19069e-16)
(0.998529 -9.66851e-05 6.59818e-17)
(0.998612 -0.00099614 -9.53812e-17)
(0.998876 -0.00188932 -4.00819e-17)
(0.999303 -0.00268663 1.21027e-16)
(0.999912 -0.00336588 -1.51915e-16)
(1.00067 -0.00386433 -2.36284e-16)
(1.00154 -0.00414609 3.60863e-16)
(1.0025 -0.00418487 -2.11325e-16)
(1.00348 -0.00397284 -4.49258e-16)
(1.00447 -0.00352111 2.41558e-16)
(1.00533 -0.00288114 -4.09396e-16)
(1.00618 -0.00222925 -5.63345e-16)
(0.998477 -9.82741e-05 2.74312e-17)
(0.998558 -0.00101591 -1.01439e-16)
(0.998831 -0.00192847 4.14563e-16)
(0.99927 -0.00274345 -2.02623e-16)
(0.999895 -0.0034376 8.28106e-17)
(1.00067 -0.00394691 -1.921e-16)
(1.00157 -0.00423477 -4.74242e-16)
(1.00255 -0.00427467 4.11858e-16)
(1.00355 -0.0040591 4.74487e-16)
(1.00455 -0.00360022 -5.98624e-16)
(1.00543 -0.00294968 -2.33391e-16)
(1.00629 -0.00228377 -1.76612e-16)
(0.998423 -0.000100366 -7.86256e-17)
(0.998504 -0.00103633 3.06371e-17)
(0.998784 -0.00196835 -1.87644e-16)
(0.999236 -0.00280103 2.56777e-17)
(0.999877 -0.0035101 1.14294e-16)
(1.00067 -0.00403026 4.66714e-16)
(1.00159 -0.0043242 5.04743e-18)
(1.00259 -0.0043652 -2.43659e-17)
(1.00361 -0.00414607 -6.52431e-16)
(1.00464 -0.00367998 9.57218e-17)
(1.00553 -0.00301857 -1.34666e-16)
(1.0064 -0.00233922 7.2001e-17)
(0.998369 -0.00010294 -1.26957e-17)
(0.998449 -0.00105741 -2.33729e-17)
(0.998737 -0.00200898 -2.7384e-16)
(0.9992 -0.0028594 -5.00434e-17)
(0.999859 -0.00358338 -1.79887e-16)
(1.00067 -0.0041144 -1.3017e-16)
(1.00161 -0.00441443 -1.32745e-16)
(1.00264 -0.00445655 1.63084e-16)
(1.00368 -0.00423386 1.83499e-16)
(1.00472 -0.00376054 3.13801e-16)
(1.00564 -0.00308796 4.41871e-16)
(1.00651 -0.00239555 -2.27715e-16)
(0.998313 -0.00010596 3.07017e-17)
(0.998392 -0.00107917 1.59579e-17)
(0.998688 -0.0020504 2.6145e-16)
(0.999164 -0.00291858 -5.25328e-17)
(0.999839 -0.0036575 -9.69279e-17)
(1.00067 -0.00419939 -1.49364e-16)
(1.00164 -0.00450554 4.42942e-16)
(1.00268 -0.00454881 -2.97008e-16)
(1.00375 -0.00432261 1.04903e-16)
(1.00481 -0.00384206 4.08719e-16)
(1.00574 -0.00315807 -2.59732e-16)
(1.00662 -0.00245305 -4.05166e-17)
(0.998256 -0.000109397 -4.19788e-17)
(0.998334 -0.0011016 4.34367e-17)
(0.998638 -0.00209261 8.91099e-17)
(0.999126 -0.00297863 1.89872e-16)
(0.999819 -0.00373252 3.42175e-16)
(1.00067 -0.00428533 -2.54708e-16)
(1.00166 -0.00459765 -1.68924e-16)
(1.00273 -0.00464214 1.78098e-17)
(1.00381 -0.00441247 -3.11363e-16)
(1.00489 -0.00392469 -4.47937e-16)
(1.00584 -0.00322912 5.96188e-16)
(1.00673 -0.00251202 2.48961e-16)
(0.998197 -0.000113206 6.75643e-17)
(0.998275 -0.00112469 8.25562e-17)
(0.998586 -0.00213564 -8.46454e-17)
(0.999088 -0.00303959 -1.72181e-16)
(0.999797 -0.00380854 4.47844e-17)
(1.00067 -0.00437233 4.17043e-16)
(1.00168 -0.0046909 -2.97698e-16)
(1.00277 -0.00473669 -1.07536e-17)
(1.00388 -0.00450358 3.97358e-16)
(1.00498 -0.00400858 -3.89304e-16)
(1.00594 -0.00330136 -5.06253e-16)
(1.00685 -0.00257243 -1.29228e-16)
(0.998138 -0.000117355 8.35915e-18)
(0.998215 -0.00114842 8.45304e-18)
(0.998534 -0.00217949 -2.78516e-16)
(0.999048 -0.0031015 -2.27201e-16)
(0.999775 -0.00388562 -3.82306e-16)
(1.00067 -0.0044605 5.20736e-17)
(1.0017 -0.00478542 8.5382e-17)
(1.00281 -0.00483259 -5.94054e-17)
(1.00394 -0.00459607 -3.26428e-16)
(1.00506 -0.00409381 7.31164e-16)
(1.00604 -0.00337473 3.78292e-16)
(1.00696 -0.00263422 -1.16267e-16)
(0.998076 -0.000121794 -3.96879e-17)
(0.998153 -0.00117277 -7.73658e-17)
(0.998479 -0.00222416 3.71287e-16)
(0.999006 -0.00316437 3.38212e-16)
(0.999751 -0.00396381 -7.43766e-18)
(1.00067 -0.00454991 7.23761e-17)
(1.00172 -0.00488129 -1.12364e-16)
(1.00285 -0.00492994 8.2555e-17)
(1.00401 -0.00469003 3.475e-16)
(1.00515 -0.00418045 -1.80535e-16)
(1.00614 -0.00344933 1.28481e-16)
(1.00707 -0.00269694 2.15959e-16)
(0.998013 -0.00012649 -2.48342e-18)
(0.99809 -0.0011977 5.35298e-17)
(0.998424 -0.00226961 -1.62555e-16)
(0.998963 -0.00322822 -3.19658e-16)
(0.999725 -0.00404313 1.93604e-16)
(1.00066 -0.00464062 -4.44038e-16)
(1.00174 -0.00497858 1.3121e-16)
(1.0029 -0.00502878 -1.94847e-16)
(1.00407 -0.00478547 3.08027e-17)
(1.00523 -0.00426847 1.85168e-16)
(1.00625 -0.00352552 -1.59376e-16)
(1.00719 -0.00276068 -4.81258e-16)
(0.997948 -0.00013139 2.29424e-17)
(0.998025 -0.00122317 -1.48629e-16)
(0.998366 -0.00231581 1.66795e-16)
(0.998918 -0.00329299 2.8019e-16)
(0.999698 -0.00412358 -3.60396e-16)
(1.00065 -0.00473262 -3.05019e-17)
(1.00175 -0.00507729 2.19391e-16)
(1.00294 -0.00512912 -2.64764e-16)
(1.00414 -0.0048824 -3.20722e-16)
(1.00532 -0.00435785 9.0681e-17)
(1.00635 -0.00360335 -2.77684e-16)
(1.0073 -0.00282517 4.23864e-16)
(0.997882 -0.000136461 1.50768e-17)
(0.997959 -0.00124914 7.83359e-17)
(0.998308 -0.00236272 -7.7391e-17)
(0.998872 -0.00335867 2.36117e-16)
(0.99967 -0.00420513 1.75143e-16)
(1.00065 -0.0048259 1.47503e-16)
(1.00177 -0.00517743 -2.48076e-16)
(1.00298 -0.00523095 3.78026e-16)
(1.0042 -0.00498079 -3.36191e-18)
(1.0054 -0.00444854 -7.18896e-16)
(1.00645 -0.00368248 1.37368e-16)
(1.00742 -0.00288989 -2.66735e-17)
(0.997813 -0.000141651 -2.40344e-17)
(0.997891 -0.00127556 8.09224e-17)
(0.998247 -0.0024103 -2.69615e-16)
(0.998825 -0.0034252 -1.97816e-16)
(0.99964 -0.00428774 4.02712e-17)
(1.00064 -0.00492042 1.55102e-16)
(1.00179 -0.00527894 2.59125e-16)
(1.00302 -0.00533423 3.53611e-17)
(1.00427 -0.00508062 2.801e-17)
(1.00549 -0.00454051 4.78701e-16)
(1.00656 -0.00376278 1.45523e-16)
(1.00754 -0.00295457 -2.31416e-16)
(0.997743 -0.000146929 -1.89979e-17)
(0.997822 -0.00130239 -2.24543e-17)
(0.998186 -0.00245849 2.85772e-16)
(0.998776 -0.00349255 4.56668e-18)
(0.999609 -0.00437136 2.46275e-16)
(1.00063 -0.00501615 -2.32188e-16)
(1.0018 -0.00538181 -1.51982e-16)
(1.00306 -0.00543893 -4.5146e-17)
(1.00433 -0.00518184 5.44091e-18)
(1.00557 -0.00463371 2.90793e-16)
(1.00666 -0.00384445 -4.52857e-16)
(1.00766 -0.00301971 -2.6609e-16)
(0.997671 -0.000152248 5.18053e-18)
(0.997751 -0.00132959 -7.88809e-17)
(0.998123 -0.00250726 -2.76437e-16)
(0.998726 -0.00356065 4.92904e-17)
(0.999577 -0.00445595 2.30285e-17)
(1.00062 -0.00511304 2.92709e-18)
(1.00182 -0.00548599 -8.03055e-17)
(1.0031 -0.00554502 3.4912e-16)
(1.00439 -0.00528445 3.82704e-16)
(1.00566 -0.00472811 -2.54436e-16)