/*--------------------------------*- C++ -*----------------------------------*\
  =========                 |
  \\      /  F ield         | OpenFOAM: The Open Source CFD Toolbox
   \\    /   O peration     | Website:  https://openfoam.org
    \\  /    A nd           | Version:  6.0
     \\/     M anipulation  |
\*---------------------------------------------------------------------------*/
FoamFile
{
    version     2.0;
    format      ascii;
    class       volVectorField;
    location    "2.5";
    object      U;
}
// * * * * * * * * * * * * * * * * * * * * * * * * * * * * * * * * * * * * * //

dimensions      [0 1 -1 0 0 0 0];

internalField   nonuniform List<vector> 
29500
(
(0.999997 -4.79461e-06 1.30675e-18)
(0.999972 -1.39268e-05 7.31726e-18)
(0.999926 -3.52256e-05 2.54225e-16)
(0.999869 -7.2902e-05 5.00359e-17)
(0.999813 -0.000126477 -3.17282e-16)
(0.999773 -0.000186299 4.90178e-17)
(0.999758 -0.000240973 -2.71541e-16)
(0.999773 -0.00027748 1.44641e-16)
(0.999814 -0.000285333 5.83392e-16)
(0.999882 -0.000245023 -5.00555e-17)
(0.999965 -0.000143581 -7.05701e-16)
(1.00006 7.74027e-05 -3.3619e-16)
(1.00015 0.000386156 2.33408e-16)
(1.00007 0.00118784 -1.03668e-15)
(1.00453 0.00477345 2.60985e-16)
(0.999995 -1.40449e-05 -4.53766e-17)
(0.999949 -3.60002e-05 1.1827e-16)
(0.999867 -8.19272e-05 -1.7408e-16)
(0.999766 -0.00015863 -4.14257e-16)
(0.99967 -0.000261055 4.09487e-16)
(0.999608 -0.000369875 6.33731e-17)
(0.999591 -0.000464384 3.07173e-16)
(0.999627 -0.000523739 -1.18218e-16)
(0.999711 -0.000530232 -5.04011e-16)
(0.999841 -0.00044912 -6.12076e-16)
(1 -0.000259182 3.51053e-16)
(1.00018 0.000142971 8.52331e-17)
(1.00037 0.000687753 -5.22548e-16)
(0.999971 0.00195046 2.77963e-16)
(1.00663 0.0066523 -1.80335e-16)
(0.999995 -2.41349e-05 -1.46257e-17)
(0.999957 -5.54648e-05 -1.09143e-16)
(0.99989 -0.000109858 -1.35027e-16)
(0.999805 -0.000192662 2.03285e-16)
(0.999727 -0.000295343 -3.12321e-16)
(0.999683 -0.000396925 -7.07717e-17)
(0.999683 -0.000476847 3.17126e-16)
(0.999732 -0.000518584 -7.37874e-16)
(0.999823 -0.000509247 -5.92273e-17)
(0.999953 -0.000418499 1.93187e-16)
(1.00011 -0.000231075 1.13452e-16)
(1.00027 0.00014927 1.95219e-16)
(1.00052 0.00065265 -2.38977e-17)
(0.999857 0.00172409 3.88765e-16)
(1.00565 0.00488813 1.63557e-16)
(0.999995 -3.53136e-05 7.91295e-17)
(0.999966 -7.7167e-05 6.81101e-17)
(0.999917 -0.000139571 -7.61987e-18)
(0.999851 -0.000226425 1.22279e-16)
(0.999792 -0.000327151 -1.34234e-16)
(0.999763 -0.000421291 8.36809e-17)
(0.999775 -0.000489496 -4.64572e-16)
(0.999831 -0.000519311 1.62158e-16)
(0.999923 -0.000501902 1.07633e-16)
(1.00005 -0.000411542 -4.31433e-16)
(1.0002 -0.000237679 1.91424e-17)
(1.00034 0.000108411 2.02077e-16)
(1.00065 0.000574 3.61013e-16)
(0.999915 0.00147403 -9.959e-17)
(1.00452 0.00397065 3.47599e-17)
(0.999994 -4.71085e-05 -5.97394e-17)
(0.999967 -0.000101127 -9.60565e-17)
(0.999925 -0.000175216 1.28685e-16)
(0.999866 -0.000272502 -1.81919e-16)
(0.999812 -0.000381014 3.04441e-16)
(0.999787 -0.000480993 -1.0467e-16)
(0.999803 -0.000553141 2.16286e-16)
(0.999863 -0.000585739 9.2848e-17)
(0.999962 -0.000569801 -3.27448e-16)
(1.00009 -0.000479686 4.57293e-16)
(1.00025 -0.000305504 -2.95435e-16)
(1.0004 4.19843e-05 -2.72782e-16)
(1.00077 0.00052728 7.93551e-17)
(1.00012 0.00137002 -2.47942e-16)
(1.0038 0.00371219 2.47338e-16)
(0.999991 -5.9206e-05 2.97891e-17)
(0.999966 -0.000125778 1.00013e-16)
(0.999929 -0.0002122 4.16354e-18)
(0.999874 -0.000320487 2.16259e-16)
(0.999825 -0.000437373 1.94308e-16)
(0.999803 -0.000544267 1.5511e-16)
(0.999822 -0.000622206 -5.32174e-16)
(0.999888 -0.000659121 2.07973e-16)
(0.999995 -0.000644593 8.63171e-17)
(1.00014 -0.000551988 1.54388e-16)
(1.00031 -0.000371262 4.94937e-16)
(1.00047 -1.37726e-05 2.97216e-16)
(1.00089 0.000500839 2.17748e-18)
(1.00039 0.0013081 4.28349e-16)
(1.0034 0.0034207 -1.7237e-16)
(0.999988 -7.15309e-05 -1.5125e-17)
(0.999965 -0.000150533 -5.03426e-17)
(0.999935 -0.000248325 1.90589e-17)
(0.999889 -0.000365081 -1.99916e-17)
(0.999849 -0.000486175 -4.29873e-16)
(0.999835 -0.000594871 2.40326e-16)
(0.999862 -0.000673618 6.18643e-16)
(0.999934 -0.000710444 3.12315e-16)
(1.00005 -0.000693978 6.84077e-16)
(1.0002 -0.000597401 -3.567e-16)
(1.00039 -0.000411041 -4.19668e-16)
(1.00055 -5.06879e-05 -7.57572e-16)
(1.00101 0.00048064 -2.08292e-16)
(1.00066 0.0012401 -3.01505e-16)
(1.00319 0.00309589 -1.73163e-16)
(0.999984 -8.40391e-05 3.81123e-17)
(0.999964 -0.000175504 5.98559e-17)
(0.999942 -0.000284321 -3.59068e-17)
(0.999906 -0.000408416 1.16538e-16)
(0.999878 -0.0005318 1.33843e-16)
(0.999875 -0.000639962 -7.32946e-16)
(0.999909 -0.000717413 6.65857e-17)
(0.99999 -0.000752655 -4.0519e-16)
(1.00011 -0.000733662 -8.13766e-16)
(1.00027 -0.0006337 -2.82303e-16)
(1.00047 -0.000443572 5.4151e-16)
(1.00063 -8.50674e-05 7.28402e-16)
(1.00111 0.000455362 2.58079e-16)
(1.00091 0.00116674 2.77919e-16)
(1.0031 0.00282327 -2.47176e-16)
(0.999979 -9.66356e-05 -2.37989e-17)
(0.999961 -0.000200703 -1.41241e-16)
(0.999945 -0.000320908 1.9757e-17)
(0.999918 -0.000452851 -5.93163e-17)
(0.999902 -0.000579298 3.63739e-16)
(0.999908 -0.000687882 3.0878e-16)
(0.999951 -0.000765253 -7.93489e-16)
(1.00004 -0.000800439 4.47085e-16)
(1.00017 -0.000780645 -1.86349e-16)
(1.00033 -0.000678876 7.34764e-16)
(1.00054 -0.000486007 -8.7607e-16)
(1.00071 -0.000129882 -3.20775e-16)
(1.0012 0.000418301 9.39986e-18)
(1.00114 0.00109213 7.2028e-16)
(1.00307 0.00259174 -4.58769e-16)
(0.999972 -0.000109203 -3.21213e-17)
(0.999957 -0.000225911 1.29691e-16)
(0.999945 -0.000357848 -4.31557e-17)
(0.999924 -0.000498354 -2.80357e-16)
(0.999918 -0.000629173 -2.1195e-16)
(0.999934 -0.000739708 1.6021e-16)
(0.999986 -0.000818513 2.56348e-16)
(1.00008 -0.00085516 -8.184e-16)
(1.00022 -0.000836019 2.50454e-16)
(1.00039 -0.000733507 -9.54307e-16)
(1.00061 -0.000538025 -3.16991e-16)
(1.00079 -0.000183422 -3.17482e-16)
(1.00128 0.000372965 -5.5246e-16)
(1.00134 0.00102066 -3.83217e-16)
(1.00308 0.00238881 4.03231e-16)
(0.999965 -0.000121643 2.27219e-17)
(0.999951 -0.000250874 -1.12999e-16)
(0.999943 -0.00039456 2.33453e-16)
(0.999928 -0.00054389 1.97852e-16)
(0.999931 -0.00067992 3.21639e-16)
(0.999956 -0.000793253 2.60636e-16)
(1.00002 -0.000873982 2.81621e-16)
(1.00012 -0.000912242 6.17236e-16)
(1.00027 -0.000893717 4.85315e-16)
(1.00045 -0.000790212 1.04757e-15)
(1.00069 -0.000591195 9.53695e-16)
(1.00088 -0.000236626 3.26424e-16)
(1.00136 0.000328572 5.96917e-16)
(1.00151 0.000958823 6.93925e-16)
(1.00311 0.00221732 -2.1071e-16)
(0.999957 -0.000133882 1.13934e-17)
(0.999945 -0.000275416 3.85124e-17)
(0.999939 -0.000430609 -1.99758e-16)
(0.99993 -0.000588666 -1.07086e-16)
(0.999941 -0.000730367 -4.18404e-16)
(0.999977 -0.000846899 -2.6717e-16)
(1.00005 -0.000929389 -3.8238e-16)
(1.00016 -0.000968451 -5.06329e-16)
(1.00032 -0.000949364 -4.03788e-16)
(1.00052 -0.000843558 1.70975e-16)
(1.00076 -0.000639374 -3.81285e-16)
(1.00096 -0.000283054 -9.73043e-17)
(1.00145 0.00029087 -2.61952e-16)
(1.00168 0.000908915 -8.72246e-16)
(1.00315 0.00207289 6.82531e-16)
(0.999948 -0.000145868 -4.52464e-17)
(0.999937 -0.000299443 3.14471e-17)
(0.999936 -0.000465771 -7.79748e-17)
(0.999932 -0.000632314 4.4649e-17)
(0.999952 -0.00078005 1.66728e-16)
(0.999997 -0.000900196 -4.8594e-16)
(1.00008 -0.000984337 -6.46078e-17)
(1.00021 -0.00102332 3.11219e-16)
(1.00038 -0.0010023 6.36513e-17)
(1.00058 -0.000892744 -6.77809e-16)
(1.00084 -0.000681991 8.77491e-16)
(1.00106 -0.000322753 -7.38237e-17)
(1.00154 0.000258258 -4.27166e-17)
(1.00183 0.000865899 -3.447e-16)
(1.00319 0.00194334 -6.0655e-16)
(0.999938 -0.00015756 4.72966e-17)
(0.99993 -0.000322914 -7.80839e-17)
(0.999932 -0.000499952 1.04094e-16)
(0.999935 -0.000674694 1.39556e-16)
(0.999962 -0.0008288 5.89907e-17)
(1.00002 -0.000953173 2.41835e-16)
(1.00011 -0.00103929 6.34564e-16)
(1.00025 -0.00107786 3.37078e-16)
(1.00044 -0.00105414 -9.55082e-17)
(1.00065 -0.000940082 4.70403e-16)
(1.00092 -0.000722327 -5.55226e-16)
(1.00115 -0.000360192 6.90099e-16)
(1.00163 0.000224966 -1.81304e-16)
(1.00196 0.000822049 9.88592e-16)
(1.00323 0.00181894 2.37565e-16)
(0.999927 -0.000168933 -7.23885e-18)
(0.999921 -0.000345833 5.43115e-17)
(0.999929 -0.000533166 4.09358e-17)
(0.999938 -0.000715819 3.39437e-17)
(0.999973 -0.000876584 -2.44122e-16)
(1.00004 -0.00100593 -2.75243e-16)
(1.00015 -0.00109478 1.22775e-16)
(1.0003 -0.00113335 -2.69038e-16)
(1.00049 -0.00110702 3.1106e-16)
(1.00072 -0.000988641 -3.49042e-16)
(1.00101 -0.000764429 2.99707e-16)
(1.00125 -0.000400247 -6.98806e-16)
(1.00172 0.000186003 9.10414e-16)
(1.0021 0.000772466 -1.44898e-15)
(1.00327 0.00169631 2.50636e-16)
(0.999916 -0.000179965 -2.13566e-17)
(0.999913 -0.000368231 4.96346e-17)
(0.999926 -0.000565514 -8.96438e-17)
(0.999942 -0.000755822 2.24743e-17)
(0.999984 -0.000923423 7.34772e-17)
(1.00006 -0.00105844 4.27618e-16)
(1.00018 -0.00115097 -1.78136e-16)
(1.00034 -0.00119043 -2.15848e-17)
(1.00055 -0.00116224 -2.42057e-16)
(1.00079 -0.00104032 1.01763e-16)
(1.00109 -0.000810647 -1.34911e-16)
(1.00135 -0.000445314 5.90398e-16)
(1.00182 0.00013994 -1.03439e-15)
(1.00222 0.000716937 6.12557e-16)
(1.00332 0.00157698 -2.03003e-16)
(0.999903 -0.000190647 2.39264e-17)
(0.999903 -0.000390166 -2.53297e-17)
(0.999923 -0.00059717 -1.43453e-16)
(0.999946 -0.000794944 -8.83975e-17)
(0.999996 -0.000969431 -1.79837e-16)
(1.00008 -0.00111059 -8.24643e-17)
(1.00021 -0.0012076 1.49343e-16)
(1.00039 -0.00124888 9.42307e-17)
(1.00061 -0.00121973 -1.60376e-16)
(1.00086 -0.0010952 -4.28029e-16)
(1.00117 -0.000860998 -4.25094e-16)
(1.00144 -0.000494973 -3.52765e-16)
(1.00191 8.83377e-05 6.82865e-16)
(1.00234 0.000657884 -5.06999e-16)
(1.00337 0.00146354 6.66832e-16)
(0.99989 -0.000200966 -1.07479e-18)
(0.999893 -0.000411701 -1.01269e-18)
(0.999919 -0.000628337 5.49701e-17)
(0.99995 -0.000833498 5.2031e-17)
(1.00001 -0.00101481 1.01806e-16)
(1.0001 -0.00116225 1.50036e-16)
(1.00024 -0.00126418 -4.4332e-16)
(1.00043 -0.00130794 2.4541e-16)
(1.00066 -0.00127856 8.64301e-16)
(1.00092 -0.00115212 5.19063e-17)
(1.00124 -0.000914029 -3.30855e-17)
(1.00153 -0.000547334 3.28996e-16)
(1.00201 3.37931e-05 -1.45644e-15)
(1.00246 0.000597939 1.38841e-15)
(1.00343 0.00135698 -2.85748e-16)
(0.999875 -0.000210919 -3.66916e-17)
(0.999882 -0.000432903 6.28456e-17)
(0.999914 -0.000659235 1.0332e-16)
(0.999954 -0.000871858 -2.81755e-16)
(1.00002 -0.00105993 -4.10605e-17)
(1.00012 -0.00121355 -5.14064e-16)
(1.00028 -0.00132046 3.62129e-16)
(1.00047 -0.00136698 -3.93688e-16)
(1.00072 -0.00133777 -4.13496e-16)
(1.00099 -0.00120988 4.57473e-16)
(1.00132 -0.000968295 3.18939e-16)
(1.00163 -0.000600775 -2.84532e-16)
(1.0021 -2.19124e-05 1.78117e-15)
(1.00257 0.000538327 -3.17885e-16)
(1.00349 0.0012567 -4.00544e-16)
(0.99986 -0.0002205 2.77019e-17)
(0.999869 -0.000453825 2.5881e-17)
(0.999908 -0.000690061 6.39241e-18)
(0.999956 -0.000910403 1.21314e-16)
(1.00003 -0.00110527 2.50446e-16)
(1.00015 -0.0012649 5.00797e-16)
(1.00031 -0.00137662 -4.12042e-16)
(1.00052 -0.0014259 3.37762e-16)
(1.00077 -0.00139705 3.30662e-16)
(1.00106 -0.00126797 1.13007e-16)
(1.0014 -0.00102319 -1.56147e-17)
(1.00172 -0.000654695 -1.89978e-16)
(1.0022 -7.81984e-05 -1.42201e-15)
(1.00269 0.000479159 -7.39144e-17)
(1.00356 0.00116191 -1.06298e-16)
(0.999844 -0.00022971 -2.54473e-17)
(0.999856 -0.000474516 -8.67362e-17)
(0.9999 -0.00072097 -1.27385e-16)
(0.999957 -0.000949479 8.94663e-17)
(1.00004 -0.00115137 -2.07499e-16)
(1.00017 -0.00131692 -9.04763e-17)
(1.00034 -0.00143326 -2.56251e-16)
(1.00056 -0.0014852 -7.17433e-16)
(1.00083 -0.00145676 -3.8344e-16)
(1.00113 -0.00132668 -1.0744e-16)
(1.00148 -0.00107895 -6.82412e-18)
(1.00182 -0.000709334 2.51003e-16)
(1.0023 -0.000135241 4.17413e-16)
(1.0028 0.000420149 -4.99669e-16)
(1.00363 0.00107219 -2.77449e-17)
(0.999826 -0.000238551 7.10643e-17)
(0.999841 -0.000495004 5.69341e-17)
(0.999891 -0.000752053 1.48364e-16)
(0.999956 -0.000989303 -1.81267e-16)
(1.00005 -0.00119864 -6.83896e-17)
(1.00019 -0.00137021 4.47957e-16)
(1.00037 -0.00149104 -3.24214e-17)
(1.00061 -0.00154555 -1.57779e-16)
(1.00089 -0.00151754 3.60273e-16)
(1.00119 -0.00138653 7.98607e-17)
(1.00156 -0.00113598 -5.28411e-16)
(1.00191 -0.000764976 -1.58721e-16)
(1.0024 -0.000193042 -6.85357e-16)
(1.00291 0.000361506 -2.18515e-16)
(1.00371 0.000987854 -2.89807e-16)
(0.999808 -0.000247036 -6.24069e-17)
(0.999825 -0.000515307 -1.62362e-17)
(0.99988 -0.000783335 -5.22001e-17)
(0.999952 -0.00102995 2.58092e-16)
(1.00006 -0.00124728 1.40913e-16)
(1.00021 -0.00142511 -3.97412e-16)
(1.00041 -0.00155043 5.57582e-16)
(1.00065 -0.00160741 2.93718e-16)
(1.00094 -0.00157978 -8.93242e-16)
(1.00126 -0.00144779 -7.73087e-16)
(1.00164 -0.00119437 4.84014e-16)
(1.00201 -0.000821498 1.25649e-17)
(1.0025 -0.000251177 1.80874e-15)
(1.00302 0.000303812 5.15209e-16)
(1.00379 0.000909017 7.71667e-16)
(0.999788 -0.000255178 4.24747e-17)
(0.999808 -0.000535436 -7.0355e-17)
(0.999867 -0.000814779 1.63894e-16)
(0.999947 -0.00107134 -2.61572e-16)
(1.00007 -0.00129724 -2.19194e-16)
(1.00022 -0.00148166 3.48431e-16)
(1.00043 -0.00161151 9.17465e-17)
(1.00069 -0.00167088 4.41686e-16)
(1.00099 -0.00164347 7.9675e-16)
(1.00133 -0.00151027 1.50079e-16)
(1.00172 -0.00125371 -2.05906e-16)
(1.0021 -0.000878311 2.92331e-16)
(1.0026 -0.000308886 -1.55496e-15)
(1.00313 0.000247718 3.71684e-16)
(1.00388 0.000835797 -3.54553e-16)
(0.999767 -0.000263008 1.48814e-17)
(0.99979 -0.000555402 7.83952e-17)
(0.999853 -0.00084632 -3.25639e-17)
(0.99994 -0.00111329 -3.00256e-19)
(1.00007 -0.00134825 -1.32986e-17)
(1.00024 -0.00153959 -4.58582e-16)
(1.00046 -0.00167403 -4.70601e-16)
(1.00073 -0.00173565 -5.99739e-18)
(1.00105 -0.00170824 -5.3879e-16)
(1.00139 -0.0015735 4.23111e-16)
(1.0018 -0.00131344 4.01374e-16)
(1.00219 -0.000934836 -6.3632e-16)
(1.0027 -0.000365698 1.11961e-15)
(1.00324 0.000193249 -1.08298e-15)
(1.00397 0.000767634 -1.4076e-16)
(0.999745 -0.000270555 -4.54968e-17)
(0.999771 -0.000575222 -4.98921e-17)
(0.999838 -0.000877884 1.34773e-16)
(0.999933 -0.00115556 -5.44431e-17)
(1.00007 -0.00139996 3.54139e-16)
(1.00025 -0.00159848 -7.59386e-17)
(1.00049 -0.00173757 1.05598e-16)
(1.00077 -0.00180132 -6.98768e-18)
(1.0011 -0.00177363 1.88131e-16)
(1.00146 -0.00163699 -1.80346e-16)
(1.00188 -0.00137311 -4.45593e-16)
(1.00229 -0.000990816 4.56898e-16)
(1.0028 -0.000421625 -3.31603e-16)
(1.00335 0.000139915 8.30594e-16)
(1.00406 0.000703289 3.51128e-16)
(0.999722 -0.000277862 -1.31629e-17)
(0.999751 -0.000594925 -7.24132e-18)
(0.999823 -0.000909421 -1.88709e-16)
(0.999924 -0.00119795 2.07998e-16)
(1.00007 -0.001452 -8.78864e-17)
(1.00027 -0.00165787 2.6108e-16)
(1.00051 -0.00180168 6.94297e-17)
(1.00081 -0.00186749 3.11064e-16)
(1.00115 -0.00183935 -4.5792e-16)
(1.00153 -0.00170058 3.30208e-16)
(1.00196 -0.00143274 -2.14163e-16)
(1.00238 -0.00104653 -4.73323e-16)
(1.0029 -0.000477268 4.15594e-16)
(1.00346 8.67547e-05 5.70237e-16)
(1.00415 0.000641014 -1.35031e-16)
(0.999698 -0.000284969 7.87673e-19)
(0.999731 -0.000614549 1.06335e-16)
(0.999808 -0.000940913 -9.8627e-17)
(0.999916 -0.00124031 -6.71185e-17)
(1.00007 -0.00150408 -1.99746e-16)
(1.00028 -0.00171742 -4.93269e-17)
(1.00054 -0.00186603 -2.35826e-16)
(1.00085 -0.00193391 -6.45548e-16)
(1.00121 -0.0019053 4.31035e-16)
(1.0016 -0.00176434 -2.64607e-16)
(1.00204 -0.00149263 5.933e-16)
(1.00248 -0.00110258 2.10067e-16)
(1.00301 -0.000533397 -5.02522e-16)
(1.00357 3.28919e-05 -1.07592e-15)
(1.00424 0.000580126 -2.32604e-16)
(0.999672 -0.000291924 2.55544e-18)
(0.99971 -0.000634143 -1.4252e-16)
(0.999792 -0.000972383 4.71615e-17)
(0.999908 -0.0012826 2.37136e-16)
(1.00007 -0.00155604 6.81221e-17)
(1.00029 -0.00177688 -2.08578e-16)
(1.00057 -0.0019304 2.59593e-16)
(1.00089 -0.00200052 -4.89763e-17)
(1.00126 -0.00197158 -9.52126e-17)
(1.00166 -0.0018286 -1.29724e-16)
(1.00212 -0.00155331 -2.36323e-16)
(1.00257 -0.00115965 2.28226e-16)
(1.00311 -0.000590763 1.65503e-16)
(1.00368 -2.23355e-05 2.10818e-16)
(1.00433 0.000520372 4.06251e-16)
(0.999646 -0.000298767 1.22799e-18)
(0.999688 -0.000653755 1.01192e-16)
(0.999775 -0.00100388 2.52525e-17)
(0.9999 -0.00132481 -3.94622e-16)
(1.00008 -0.00160782 1.16598e-16)
(1.00031 -0.00183616 2.51279e-16)
(1.00059 -0.00199474 1.02233e-16)
(1.00093 -0.00206733 -1.75174e-19)
(1.00132 -0.00203835 1.67747e-16)
(1.00173 -0.00189366 -3.95786e-17)
(1.0022 -0.0016152 -2.36622e-16)
(1.00266 -0.00121823 1.724e-16)
(1.00321 -0.000649721 8.77783e-17)
(1.00378 -7.90316e-05 2.2371e-16)
(1.00442 0.000461753 -3.48853e-16)
(0.999619 -0.000305543 2.97986e-17)
(0.999665 -0.000673435 -1.0782e-16)
(0.999758 -0.00103549 -1.70504e-16)
(0.999891 -0.00136706 2.74578e-16)
(1.00008 -0.00165951 -7.03144e-17)
(1.00032 -0.00189532 2.24355e-17)
(1.00062 -0.0020591 2.19105e-17)
(1.00097 -0.00213443 2.57849e-17)
(1.00137 -0.0021058 1.50837e-16)
(1.0018 -0.00195978 2.27014e-17)
(1.00227 -0.00167858 1.66775e-16)
(1.00276 -0.00127853 -4.69654e-16)
(1.00331 -0.000710303 -4.9139e-16)
(1.00389 -0.000136966 -3.65203e-16)
(1.00451 0.000404325 2.93146e-16)
(0.999591 -0.000312286 -4.18137e-17)
(0.999641 -0.000693224 8.65925e-17)
(0.999741 -0.00106727 1.47719e-16)
(0.999882 -0.00140946 4.89251e-17)
(1.00008 -0.00171125 4.11118e-17)
(1.00033 -0.00195451 -2.605e-16)
(1.00064 -0.0021236 -1.36146e-16)
(1.00101 -0.00220196 3.12496e-16)
(1.00142 -0.00217404 -1.39936e-16)
(1.00186 -0.00202705 3.67776e-17)
(1.00235 -0.00174344 3.00359e-16)
(1.00285 -0.00134042 7.36531e-18)
(1.00341 -0.000772161 4.95554e-16)
(1.00399 -0.000195602 9.87641e-17)
(1.0046 0.000348467 -3.14364e-16)
(0.999561 -0.000319032 4.29546e-17)
(0.999617 -0.000713154 -6.54239e-17)
(0.999722 -0.00109932 2.42215e-17)
(0.999872 -0.00145217 -2.62437e-16)
(1.00008 -0.00176327 -6.07361e-17)
(1.00034 -0.00201395 3.53884e-16)
(1.00067 -0.00218846 -1.50552e-16)
(1.00105 -0.00227007 -2.71361e-16)
(1.00147 -0.00224318 -6.76256e-17)
(1.00193 -0.00209549 6.43123e-17)
(1.00243 -0.00180969 -9.00124e-17)
(1.00294 -0.00140362 -8.66947e-17)
(1.00351 -0.000834868 -1.35943e-17)
(1.0041 -0.000254421 3.94202e-16)
(1.00469 0.000294171 3.68033e-16)
(0.999531 -0.000325809 -1.76174e-17)
(0.999591 -0.000733241 7.20062e-17)
(0.999702 -0.00113168 1.20461e-16)
(0.999861 -0.00149532 -1.29544e-16)
(1.00008 -0.00181576 1.45037e-17)
(1.00035 -0.0020739 -1.96664e-16)
(1.00069 -0.00225391 4.1313e-16)
(1.00108 -0.00233894 1.21208e-16)
(1.00153 -0.00231326 -5.35363e-17)
(1.002 -0.002165 8.86611e-17)
(1.00251 -0.00187706 -3.14672e-16)
(1.00303 -0.00146775 2.61722e-16)
(1.0036 -0.000897929 4.01326e-17)
(1.0042 -0.000312921 -2.99812e-16)
(1.00478 0.000241501 -1.46334e-16)
(0.9995 -0.000332648 3.16167e-17)
(0.999564 -0.000753497 -7.3407e-17)
(0.999681 -0.00116439 -7.28392e-18)
(0.999848 -0.00153899 2.74901e-16)
(1.00008 -0.00186892 -2.68818e-16)
(1.00036 -0.00213459 -4.44323e-17)
(1.00072 -0.00232018 -4.25756e-16)
(1.00112 -0.00240871 -7.50194e-17)
(1.00158 -0.00238433 -1.83494e-16)
(1.00206 -0.00223549 1.60867e-16)
(1.00259 -0.00194533 5.06436e-16)
(1.00312 -0.00153248 -4.79965e-17)
(1.0037 -0.000961007 -5.07188e-16)
(1.00431 -0.000370878 -1.29181e-17)
(1.00488 0.000190381 -8.60185e-17)
(0.999468 -0.000339573 -1.8544e-17)
(0.999536 -0.000773918 7.19405e-17)
(0.999658 -0.00119743 -2.15845e-16)
(0.999833 -0.00158323 -2.02316e-16)
(1.00007 -0.00192282 2.32684e-16)
(1.00037 -0.00219618 1.71546e-17)
(1.00074 -0.00238742 2.02535e-16)
(1.00116 -0.00247948 3.34792e-16)
(1.00163 -0.00245637 6.96493e-16)
(1.00213 -0.00230685 -5.03372e-16)
(1.00267 -0.00201428 -6.28774e-16)
(1.00321 -0.00159755 2.4251e-16)
(1.0038 -0.00102387 2.79577e-16)
(1.00441 -0.000428213 -3.99082e-16)
(1.00497 0.000140288 -1.22965e-16)
(0.999435 -0.000346612 1.97528e-18)
(0.999506 -0.000794504 -5.14537e-17)
(0.999634 -0.00123078 5.43401e-17)
(0.999817 -0.001628 2.77159e-16)
(1.00007 -0.0019775 2.10403e-16)
(1.00038 -0.00225873 1.08159e-16)
(1.00076 -0.00245572 5.36502e-17)
(1.00119 -0.00255132 -3.44171e-16)
(1.00168 -0.0025294 -5.4645e-16)
(1.00219 -0.002379 3.28018e-16)
(1.00274 -0.0020838 5.12929e-16)
(1.0033 -0.00166289 -4.50464e-16)
(1.0039 -0.00108657 -3.17448e-16)
(1.00452 -0.000485103 4.5598e-17)
(1.00507 9.02991e-05 -1.16005e-16)
(0.999401 -0.000353788 -4.45348e-17)
(0.999476 -0.000815248 -4.24697e-17)
(0.999609 -0.00126441 1.05098e-16)
(0.9998 -0.00167325 -7.14088e-17)
(1.00006 -0.00203288 -2.19796e-16)
(1.00039 -0.00232219 -4.36072e-18)
(1.00078 -0.00252505 2.21952e-16)
(1.00122 -0.00262418 -1.34089e-16)
(1.00172 -0.00260334 2.9629e-16)
(1.00225 -0.00245188 -1.79242e-16)
(1.00282 -0.00215386 -2.51625e-16)
(1.0034 -0.00172853 3.87269e-16)
(1.004 -0.00114926 5.25609e-16)
(1.00462 -0.000541842 2.11119e-17)
(1.00517 3.99513e-05 1.7322e-16)
(0.999367 -0.000361133 4.27123e-17)
(0.999444 -0.000836154 8.39514e-17)
(0.999583 -0.00129827 2.43058e-17)
(0.999781 -0.00171887 1.63617e-16)
(1.00005 -0.00208885 -4.08209e-18)
(1.00039 -0.00238643 7.14161e-17)
(1.0008 -0.00259531 2.53454e-18)
(1.00126 -0.00269799 1.06918e-16)
(1.00177 -0.00267817 -1.64828e-16)
(1.00232 -0.00252551 -1.63583e-17)
(1.0029 -0.00222453 2.41903e-16)
(1.00349 -0.00179466 4.25681e-17)
(1.0041 -0.00121222 -2.30654e-16)
(1.00473 -0.000598841 4.49652e-16)
(1.00527 -1.08565e-05 9.62969e-17)
(0.999331 -0.00036867 -7.17791e-18)
(0.999412 -0.000857232 -1.2505e-17)
(0.999556 -0.00133234 -1.78657e-16)
(0.999762 -0.00176479 -2.28685e-16)
(1.00004 -0.00214526 3.45046e-17)
(1.00039 -0.00245131 -2.17458e-16)
(1.00081 -0.00266634 -4.79278e-16)
(1.00129 -0.00277264 2.45032e-16)
(1.00182 -0.00275381 1.72596e-16)
(1.00238 -0.00259988 -2.47312e-16)
(1.00298 -0.00229591 -4.45082e-16)
(1.00358 -0.00186146 -6.31028e-17)
(1.0042 -0.0012757 3.23184e-16)
(1.00483 -0.000656364 2.47671e-16)
(1.00536 -6.24521e-05 -1.11012e-16)
(0.999295 -0.000376432 -9.73987e-18)
(0.999379 -0.000878505 4.3148e-17)
(0.999528 -0.0013666 -1.95542e-17)
(0.999742 -0.00181093 -8.52649e-17)
(1.00003 -0.00220199 -4.39125e-17)
(1.0004 -0.00251666 2.9515e-16)
(1.00083 -0.00273799 1.38425e-16)
(1.00132 -0.00284801 -2.35472e-16)
(1.00187 -0.00283023 -4.98816e-16)
(1.00244 -0.00267506 3.31448e-16)
(1.00305 -0.00236814 -8.05664e-17)
(1.00367 -0.00192913 -3.68306e-16)
(1.0043 -0.00133993 -2.86241e-16)
(1.00494 -0.000714596 1.22214e-16)
(1.00546 -0.000115074 6.62714e-17)
(0.999258 -0.000384444 4.327e-19)
(0.999344 -0.000900001 -5.60211e-17)
(0.999499 -0.00140107 7.52493e-17)
(0.999722 -0.00185728 2.15994e-16)
(1.00002 -0.00225898 1.34313e-16)
(1.0004 -0.00258236 -9.18251e-17)
(1.00085 -0.00281013 -2.19159e-16)
(1.00135 -0.002924 -1.0734e-17)
(1.00192 -0.00290738 3.15244e-16)
(1.00251 -0.00275107 1.81942e-16)
(1.00313 -0.00244129 7.8296e-17)
(1.00376 -0.0019978 5.3555e-16)
(1.0044 -0.001405 -3.3443e-16)
(1.00504 -0.000773571 -7.64691e-16)
(1.00556 -0.000168509 -1.24459e-16)
(0.99922 -0.000392734 1.85512e-17)
(0.999309 -0.000921759 -8.51435e-17)
(0.99947 -0.00143579 -4.42818e-19)
(0.999701 -0.00190388 1.56473e-16)
(1.00001 -0.00231622 -2.60063e-16)
(1.0004 -0.00264839 -2.99907e-16)
(1.00086 -0.00288272 3.11625e-16)
(1.00139 -0.00300057 3.987e-17)
(1.00196 -0.00298528 1.37188e-16)
(1.00257 -0.00282795 -2.86007e-16)
(1.00321 -0.00251546 2.61893e-16)
(1.00385 -0.00206753 5.69387e-17)
(1.0045 -0.00147093 6.66925e-16)
(1.00515 -0.000833225 4.15519e-16)
(1.00566 -0.000222324 2.62183e-16)
(0.999181 -0.00040132 -9.16584e-18)
(0.999273 -0.000943817 1.13258e-16)
(0.99944 -0.00147083 8.89525e-17)
(0.999679 -0.00195079 -1.30799e-16)
(1 -0.00237378 9.20083e-17)
(1.0004 -0.00271479 -2.07053e-17)
(1.00088 -0.00295575 2.6912e-17)
(1.00142 -0.00307773 -7.74936e-18)
(1.00201 -0.00306391 9.78478e-17)
(1.00263 -0.00290573 4.15819e-16)
(1.00329 -0.00259062 5.94593e-17)
(1.00394 -0.00213828 -3.69683e-16)
(1.0046 -0.00153761 -1.84584e-16)
(1.00525 -0.000893512 2.72384e-16)
(1.00577 -0.000276346 -3.07397e-16)
(0.999141 -0.000410222 -2.80888e-17)
(0.999236 -0.000966213 -4.53322e-17)
(0.999409 -0.00150626 -2.56075e-17)
(0.999657 -0.00199812 -2.9668e-16)
(0.999991 -0.00243178 2.32524e-16)
(1.0004 -0.00278166 1.19506e-16)
(1.00089 -0.00302934 -4.52332e-17)
(1.00145 -0.00315555 4.45757e-17)
(1.00206 -0.00314336 -2.95696e-16)
(1.0027 -0.00298445 -8.77458e-17)
(1.00336 -0.0026668 -5.67298e-16)
(1.00403 -0.00221002 1.99391e-16)
(1.0047 -0.00160498 -8.52087e-17)
(1.00536 -0.000954276 -8.03948e-16)
(1.00587 -0.000330024 4.74769e-16)
(0.9991 -0.000419447 3.10038e-17)
(0.999198 -0.000988979 -1.06202e-16)
(0.999377 -0.00154215 9.05879e-17)
(0.999633 -0.00204599 7.14681e-17)
(0.999978 -0.00249037 -1.80473e-16)
(1.0004 -0.00284917 2.64673e-16)
(1.00091 -0.00310363 1.62546e-16)
(1.00148 -0.00323416 -1.04154e-16)
(1.0021 -0.0032237 -2.5624e-16)
(1.00276 -0.00306414 1.01692e-17)
(1.00344 -0.00274398 6.03987e-16)
(1.00412 -0.00228268 5.73239e-18)
(1.0048 -0.00167291 1.12287e-16)
(1.00546 -0.00101544 8.29363e-16)
(1.00597 -0.000383346 -5.88514e-16)
(0.999059 -0.000429003 6.64457e-18)
(0.999159 -0.00101214 7.58647e-17)
(0.999343 -0.00157854 -1.16549e-16)
(0.999609 -0.0020945 1.40881e-16)
(0.999965 -0.00254971 1.68673e-16)
(1.0004 -0.00291749 -4.53549e-16)
(1.00092 -0.00317878 -2.91098e-16)
(1.00151 -0.00331371 4.34552e-16)
(1.00215 -0.00330505 7.54137e-17)
(1.00282 -0.00314488 -6.04063e-16)
(1.00352 -0.00282219 1.50016e-16)
(1.00421 -0.00235623 -1.36401e-16)
(1.0049 -0.00174135 -1.04222e-16)
(1.00557 -0.00107718 -9.74757e-16)
(1.00608 -0.000436698 2.16775e-16)
(0.999017 -0.000438885 -2.32506e-17)
(0.999119 -0.00103571 1.51209e-16)
(0.999309 -0.00161548 -3.5275e-17)
(0.999583 -0.00214371 -1.86015e-16)
(0.99995 -0.0026099 -1.0462e-16)
(1.0004 -0.00298677 4.23968e-16)
(1.00094 -0.00325496 8.70964e-17)
(1.00154 -0.00339432 -3.53152e-16)
(1.00219 -0.0033875 1.75506e-16)
(1.00288 -0.00322671 5.42257e-16)
(1.00359 -0.00290139 -1.2722e-16)
(1.0043 -0.00243063 2.20869e-17)
(1.005 -0.00181023 1.43052e-16)
(1.00568 -0.00113932 5.42438e-16)
(1.00619 -0.000489825 9.02188e-17)
(0.998973 -0.000449089 1.95295e-17)
(0.999077 -0.00105971 -1.93861e-16)
(0.999273 -0.00165298 -2.59647e-17)
(0.999556 -0.00219369 2.71064e-16)
(0.999934 -0.00267103 1.77742e-16)
(1.0004 -0.00305712 3.9988e-17)
(1.00095 -0.00333227 -1.90747e-16)
(1.00156 -0.00347612 -1.34508e-16)
(1.00224 -0.00347114 -2.29697e-16)
(1.00294 -0.00330968 5.62581e-17)
(1.00367 -0.00298164 -3.22208e-16)
(1.00439 -0.00250588 -6.01227e-17)
(1.0051 -0.00187959 -1.91767e-16)
(1.00578 -0.00120136 3.56464e-16)
(1.00629 -0.000542082 -1.93347e-16)
(0.998929 -0.000459601 -1.29267e-17)
(0.999035 -0.00108412 2.76951e-17)
(0.999236 -0.00169105 1.11177e-16)
(0.999528 -0.00224441 -4.22194e-16)
(0.999917 -0.0027331 -3.29943e-16)
(1.0004 -0.00312856 -3.36198e-16)
(1.00096 -0.00341077 4.03823e-16)
(1.00159 -0.00355913 2.42149e-16)
(1.00228 -0.00355599 2.37058e-16)
(1.003 -0.0033938 2.58595e-16)
(1.00374 -0.0030629 -1.72551e-17)
(1.00448 -0.00258195 2.11112e-16)
(1.0052 -0.00194944 2.09188e-16)
(1.00589 -0.0012632 -1.27251e-16)
(1.0064 -0.000593234 4.35195e-17)
(0.998883 -0.000470412 3.40534e-17)
(0.998991 -0.00110894 1.27895e-16)
(0.999198 -0.00172965 -2.59584e-17)
(0.999498 -0.00229585 2.60572e-16)
(0.999898 -0.00279608 -3.37217e-17)
(1.00039 -0.00320107 -1.2907e-16)
(1.00097 -0.00349044 1.16301e-18)
(1.00162 -0.00364337 1.89588e-16)
(1.00232 -0.00364206 -9.76978e-17)
(1.00306 -0.00347907 -8.59752e-16)
(1.00382 -0.00314518 4.33871e-16)
(1.00457 -0.00265888 7.54151e-17)
(1.0053 -0.00201983 1.37165e-18)
(1.006 -0.00132509 1.88749e-17)
(1.00651 -0.000643822 9.55968e-17)
(0.998837 -0.000481504 -4.64308e-17)
(0.998947 -0.00113418 -1.23066e-17)
(0.999159 -0.00176876 1.40294e-18)
(0.999467 -0.00234795 4.47065e-17)
(0.999878 -0.00285988 9.25754e-17)
(1.00038 -0.00327456 5.30829e-16)
(1.00098 -0.00357119 -4.40872e-16)
(1.00164 -0.00372874 -1.66905e-16)
(1.00237 -0.00372926 2.82447e-16)
(1.00312 -0.00356542 3.50187e-16)
(1.0039 -0.00322846 -4.36018e-16)
(1.00466 -0.00273665 -4.1072e-16)
(1.0054 -0.00209076 -5.06116e-16)
(1.00611 -0.00138698 7.82663e-17)
(1.00663 -0.00069363 2.70676e-16)
(0.998789 -0.000492865 -5.23125e-18)
(0.998901 -0.00115981 -5.94009e-17)
(0.999119 -0.00180837 6.42562e-17)
(0.999435 -0.00240067 2.79511e-17)
(0.999857 -0.00292443 1.5304e-16)
(1.00038 -0.00334892 -2.86212e-16)
(1.00099 -0.00365292 5.42606e-16)
(1.00167 -0.00381516 -3.6565e-16)
(1.00241 -0.00381755 -9.21401e-17)
(1.00318 -0.00365285 1.28099e-16)
(1.00397 -0.00331273 5.57556e-17)
(1.00475 -0.00281532 6.02113e-17)
(1.0055 -0.00216237 6.88827e-17)
(1.00622 -0.00144861 -3.69108e-16)
(1.00674 -0.000742638 1.41514e-16)
(0.99874 -0.000504481 2.83835e-17)
(0.998854 -0.00118585 -1.41337e-17)
(0.999077 -0.00184844 -1.86103e-16)
(0.999402 -0.00245394 -6.66495e-17)
(0.999835 -0.00298964 4.61687e-17)
(1.00037 -0.00342405 -8.4843e-17)
(1.00099 -0.00373552 -3.02143e-16)
(1.00169 -0.00390254 2.94155e-16)
(1.00245 -0.00390685 1.60484e-16)
(1.00324 -0.00374129 -1.15334e-16)
(1.00405 -0.003398 9.31146e-17)
(1.00484 -0.0028949 -3.22126e-18)
(1.0056 -0.0022347 -2.21168e-16)
(1.00633 -0.00151005 2.10607e-16)
(1.00686 -0.000790811 -3.8044e-16)
(0.99869 -0.000516341 2.73313e-17)
(0.998806 -0.00121227 7.59553e-17)
(0.999035 -0.00188898 7.41865e-17)
(0.999368 -0.00250774 -5.1339e-17)
(0.999813 -0.00305545 -2.71728e-16)
(1.00036 -0.00349988 5.07382e-17)
(1.001 -0.00381893 1.16886e-16)
(1.00172 -0.00399083 1.64889e-16)
(1.00249 -0.00399713 -9.5815e-17)
(1.0033 -0.00383078 2.72292e-16)
(1.00412 -0.00348432 1.64141e-16)
(1.00493 -0.00297547 -2.91476e-17)
(1.00571 -0.00230788 1.07074e-17)
(1.00644 -0.00157151 1.36325e-16)
(1.00697 -0.000838262 4.30206e-17)
(0.998638 -0.000528431 -7.06868e-17)
(0.998757 -0.00123909 7.39829e-18)
(0.998991 -0.00192997 -8.89144e-17)
(0.999333 -0.00256207 1.48057e-16)
(0.999789 -0.00312185 6.17149e-17)
(1.00035 -0.00357638 5.41793e-17)
(1.00101 -0.0039031 -3.79438e-16)
(1.00174 -0.00407999 -1.35101e-17)
(1.00253 -0.00408839 2.73201e-16)
(1.00336 -0.00392133 7.49715e-17)
(1.0042 -0.00357173 -5.70959e-16)
(1.00502 -0.0030571 2.52875e-16)
(1.00581 -0.00238194 -1.76022e-16)
(1.00655 -0.00163319 -4.32233e-17)
(1.00709 -0.000885511 -1.72462e-16)
(0.998585 -0.00054074 5.03876e-17)