/*--------------------------------*- C++ -*----------------------------------*\
  =========                 |
  \\      /  F ield         | OpenFOAM: The Open Source CFD Toolbox
   \\    /   O peration     | Website:  https://openfoam.org
    \\  /    A nd           | Version:  6.0
     \\/     M anipulation  |
\*---------------------------------------------------------------------------*/
FoamFile
{
    version     2.0;
    format      ascii;
    class       volScalarField;
    location    "36";
    object      p;
}
// * * * * * * * * * * * * * * * * * * * * * * * * * * * * * * * * * * * * * //

dimensions      [0 2 -2 0 0 0 0];

internalField   nonuniform List<scalar> 
2000
(
-0.348104
-0.35401
-0.355699
-0.35503
-0.35317
-0.350493
-0.347277
-0.343815
-0.340394
-0.336698
-0.350822
-0.356309
-0.357657
-0.356686
-0.354538
-0.351587
-0.348108
-0.344385
-0.34071
-0.336894
-0.356278
-0.360906
-0.361563
-0.359983
-0.357254
-0.353746
-0.349733
-0.345473
-0.341269
-0.337209
-0.364512
-0.367801
-0.367396
-0.364889
-0.361279
-0.356926
-0.352088
-0.346985
-0.341934
-0.337483
-0.375585
-0.376991
-0.375125
-0.371366
-0.366571
-0.361076
-0.355106
-0.348805
-0.342505
-0.337461
-0.389561
-0.388462
-0.38471
-0.379374
-0.373099
-0.366173
-0.358755
-0.350849
-0.342773
-0.336813
-0.406472
-0.402172
-0.396093
-0.388869
-0.380857
-0.372258
-0.363128
-0.353236
-0.342737
-0.33528
-0.426264
-0.418022
-0.409181
-0.399794
-0.389831
-0.379375
-0.36834
-0.356097
-0.342154
-0.331711
-0.448724
-0.435839
-0.423858
-0.412105
-0.400059
-0.387615
-0.374375
-0.358814
-0.338728
-0.321417
-0.473418
-0.455358
-0.440026
-0.425951
-0.412165
-0.398468
-0.384105
-0.366439
-0.341399
-0.317422
-0.499659
-0.476154
-0.457414
-0.441244
-0.426516
-0.413603
-0.402848
-0.394891
-0.395028
-0.414561
-0.526622
-0.497648
-0.475407
-0.456876
-0.440539
-0.426856
-0.416303
-0.409938
-0.412894
-0.430164
-0.553586
-0.519384
-0.49373
-0.472728
-0.454364
-0.439001
-0.427008
-0.419102
-0.418393
-0.42621
-0.579901
-0.540889
-0.512072
-0.488627
-0.467991
-0.450347
-0.435855
-0.424769
-0.418566
-0.417228
-0.604818
-0.561495
-0.529807
-0.50393
-0.480717
-0.460151
-0.442193
-0.426717
-0.414146
-0.404518
-0.627349
-0.58027
-0.545993
-0.51763
-0.491486
-0.467413
-0.445286
-0.424795
-0.405773
-0.388985
-0.646209
-0.596003
-0.559397
-0.528443
-0.499011
-0.470959
-0.444251
-0.418579
-0.393526
-0.370872
-0.659838
-0.607239
-0.568559
-0.534886
-0.501862
-0.469534
-0.43812
-0.407465
-0.377119
-0.349943
-0.666475
-0.612339
-0.571856
-0.535366
-0.498563
-0.461883
-0.425931
-0.390789
-0.356088
-0.3257
-0.664252
-0.609564
-0.567594
-0.528272
-0.487684
-0.446832
-0.406798
-0.367913
-0.329919
-0.297553
-0.651315
-0.597173
-0.554103
-0.512076
-0.467932
-0.423379
-0.379991
-0.33831
-0.298165
-0.264968
-0.625928
-0.573523
-0.529846
-0.485438
-0.438249
-0.390763
-0.345005
-0.301645
-0.260537
-0.227575
-0.586619
-0.537209
-0.493546
-0.447321
-0.397899
-0.348536
-0.301613
-0.257822
-0.216971
-0.185239
-0.53229
-0.487169
-0.444291
-0.397074
-0.346524
-0.296599
-0.249894
-0.207024
-0.167673
-0.1381
-0.462337
-0.422807
-0.381634
-0.3345
-0.284182
-0.235202
-0.190226
-0.149699
-0.113116
-0.0865846
-0.37676
-0.344087
-0.305666
-0.25989
-0.211334
-0.164907
-0.123209
-0.0864652
-0.0539384
-0.0313179
-0.276246
-0.251615
-0.217071
-0.174042
-0.128836
-0.0865568
-0.0496152
-0.018023
0.00914069
0.0268738
-0.162234
-0.146678
-0.117132
-0.0782465
-0.0379249
-0.00129127
0.0294992
0.0545099
0.0745794
0.0859605
-0.0369353
-0.0312496
-0.00770062
0.0258241
0.060015
0.0898367
0.113275
0.12992
0.139854
0.142225
0.0966953
0.0920293
0.108811
0.13614
0.163661
0.186651
0.203138
0.211506
0.210471
0.203742
0.235082
0.219893
0.229298
0.249806
0.270556
0.28767
0.299874
0.305356
0.30431
0.318228
0.37433
0.348695
0.350151
0.36297
0.37599
0.385964
0.392017
0.393259
0.392181
0.405105
0.510495
0.474765
0.467958
0.47251
0.477163
0.479242
0.478179
0.473557
0.467865
0.472968
0.639731
0.594494
0.579429
0.575527
0.571628
0.56564
0.557304
0.54647
0.535212
0.53237
0.758375
0.704442
0.681469
0.66936
0.657195
0.643446
0.628135
0.611298
0.594628
0.584681
0.863044
0.801443
0.77126
0.751616
0.731908
0.711131
0.689544
0.667332
0.645817
0.629661
0.950719
0.882688
0.846315
0.82018
0.794017
0.767267
0.740388
0.713677
0.688102
0.666744
1.01885
0.94581
0.90454
0.873265
0.842019
0.810592
0.779596
0.749409
0.720688
0.695273
1.06542
0.988957
0.944298
0.909466
0.874717
0.840082
0.806273
0.773723
0.742857
0.714657
1.08906
1.01086
0.964464
0.927815
0.89128
0.855013
0.819779
0.786033
0.754081
0.724462
1.08906
1.01086
0.964464
0.927815
0.89128
0.855013
0.819779
0.786033
0.754081
0.724462
1.06542
0.988957
0.944298
0.909466
0.874717
0.840082
0.806273
0.773723
0.742857
0.714657
1.01885
0.94581
0.90454
0.873265
0.842019
0.810592
0.779596
0.749409
0.720688
0.695273
0.950719
0.882688
0.846315
0.82018
0.794017
0.767267
0.740388
0.713677
0.688102
0.666744
0.863043
0.801442
0.77126
0.751616
0.731908
0.711131
0.689544
0.667332
0.645817
0.629661
0.758375
0.704442
0.681469
0.66936
0.657195
0.643446
0.628135
0.611298
0.594628
0.584681
0.63973
0.594494
0.579428
0.575527
0.571628
0.56564
0.557304
0.54647
0.535212
0.53237
0.510495
0.474765
0.467957
0.47251
0.477163
0.479242
0.478179
0.473558
0.467865
0.472968
0.37433
0.348695
0.35015
0.36297
0.37599
0.385964
0.392017
0.393259
0.392182
0.405105
0.235082
0.219892
0.229298
0.249806
0.270556
0.28767
0.299874
0.305356
0.30431
0.318228
0.0966949
0.0920289
0.10881
0.136139
0.163661
0.186651
0.203138
0.211506
0.210471
0.203743
-0.0369358
-0.03125
-0.00770102
0.0258238
0.0600147
0.0898365
0.113275
0.12992
0.139854
0.142225
-0.162235
-0.146679
-0.117133
-0.0782469
-0.0379253
-0.00129153
0.029499
0.0545098
0.0745793
0.0859605
-0.276246
-0.251616
-0.217071
-0.174042
-0.128836
-0.0865572
-0.0496154
-0.0180232
0.00914055
0.0268737
-0.37676
-0.344088
-0.305667
-0.25989
-0.211334
-0.164908
-0.12321
-0.0864655
-0.0539387
-0.0313181
-0.462338
-0.422807
-0.381634
-0.334501
-0.284183
-0.235203
-0.190227
-0.149699
-0.113117
-0.0865849
-0.53229
-0.487169
-0.444292
-0.397075
-0.346525
-0.296599
-0.249895
-0.207024
-0.167673
-0.1381
-0.586619
-0.537209
-0.493547
-0.447322
-0.397899
-0.348537
-0.301613
-0.257823
-0.216972
-0.185239
-0.625929
-0.573524
-0.529847
-0.485439
-0.43825
-0.390764
-0.345006
-0.301645
-0.260537
-0.227576
-0.651316
-0.597173
-0.554103
-0.512076
-0.467933
-0.42338
-0.379992
-0.338311
-0.298166
-0.264969
-0.664253
-0.609565
-0.567595
-0.528272
-0.487684
-0.446833
-0.406799
-0.367913
-0.32992
-0.297553
-0.666475
-0.612339
-0.571857
-0.535367
-0.498564
-0.461883
-0.425932
-0.39079
-0.356089
-0.3257
-0.659839
-0.607239
-0.568559
-0.534886
-0.501862
-0.469535
-0.438121
-0.407466
-0.37712
-0.349944
-0.646209
-0.596003
-0.559398
-0.528443
-0.499011
-0.47096
-0.444251
-0.41858
-0.393527
-0.370873
-0.62735
-0.580271
-0.545993
-0.51763
-0.491487
-0.467413
-0.445287
-0.424796
-0.405774
-0.388985
-0.604819
-0.561496
-0.529808
-0.503931
-0.480718
-0.460152
-0.442193
-0.426718
-0.414146
-0.404519
-0.579902
-0.540889
-0.512072
-0.488628
-0.467992
-0.450348
-0.435856
-0.42477
-0.418567
-0.417228
-0.553587
-0.519384
-0.493731
-0.472729
-0.454364
-0.439002
-0.427008
-0.419103
-0.418394
-0.426211
-0.526623
-0.497649
-0.475407
-0.456876
-0.440539
-0.426857
-0.416304
-0.409939
-0.412894
-0.430165
-0.49966
-0.476154
-0.457415
-0.441245
-0.426516
-0.413604
-0.402849
-0.394892
-0.395029
-0.414561
-0.473419
-0.455359
-0.440026
-0.425951
-0.412166
-0.398469
-0.384105
-0.36644
-0.3414
-0.317423
-0.448725
-0.43584
-0.423859
-0.412105
-0.40006
-0.387616
-0.374375
-0.358814
-0.338729
-0.321418
-0.426265
-0.418023
-0.409181
-0.399794
-0.389831
-0.379375
-0.36834
-0.356098
-0.342155
-0.331712
-0.406473
-0.402173
-0.396094
-0.38887
-0.380858
-0.372259
-0.363128
-0.353237
-0.342738
-0.335281
-0.389562
-0.388463
-0.384711
-0.379374
-0.3731
-0.366173
-0.358755
-0.35085
-0.342774
-0.336814
-0.375586
-0.376991
-0.375125
-0.371367
-0.366572
-0.361076
-0.355107
-0.348805
-0.342505
-0.337462
-0.364513
-0.367801
-0.367396
-0.36489
-0.361279
-0.356926
-0.352088
-0.346985
-0.341934
-0.337484
-0.356278
-0.360906
-0.361563
-0.359983
-0.357254
-0.353747
-0.349733
-0.345474
-0.34127
-0.337209
-0.350822
-0.356309
-0.357657
-0.356687
-0.354539
-0.351587
-0.348108
-0.344386
-0.34071
-0.336894
-0.348104
-0.354011
-0.355699
-0.35503
-0.35317
-0.350493
-0.347277
-0.343815
-0.340394
-0.336698
-0.290485
-0.126326
-0.0812915
-0.0303634
-0.0192609
-0.00782232
-0.00437382
-0.000899606
-0.000471913
0.00216725
-0.291716
-0.126873
-0.0815624
-0.0305627
-0.019329
-0.00788187
-0.00440295
-0.000919727
-0.000481083
0.00215099
-0.294107
-0.127954
-0.0820983
-0.0309619
-0.0194648
-0.00800098
-0.00446169
-0.000960605
-0.00049935
0.00211899
-0.297518
-0.129545
-0.0828878
-0.0315631
-0.019668
-0.00817919
-0.0045499
-0.00102216
-0.00052657
0.00207158
-0.301704
-0.1316
-0.0839048
-0.0323643
-0.0199367
-0.00841512
-0.00466706
-0.0011042
-0.000562456
0.0020092
-0.306308
-0.134046
-0.0850997
-0.033352
-0.0202648
-0.00870517
-0.00481195
-0.00120617
-0.000606642
0.0019325
-0.311201
-0.13695
-0.086478
-0.0345214
-0.0206533
-0.00904659
-0.00498402
-0.00132711
-0.000659326
0.00184307
-0.316905
-0.140965
-0.0883024
-0.0359731
-0.0211452
-0.00945285
-0.00518931
-0.00146736
-0.000722056
0.00174364
-0.321684
-0.14647
-0.0907509
-0.0378726
-0.0217912
-0.00995101
-0.00543701
-0.00163229
-0.000793227
0.0016317
-0.31388
-0.148846
-0.0918605
-0.0395755
-0.0222938
-0.0104432
-0.00568192
-0.00182317
-0.000853145
0.00148465
-0.247348
-0.140753
-0.0882326
-0.042835
-0.0227925
-0.0117746
-0.00639898
-0.0025626
-0.00101911
0.000831292
-0.189252
-0.131748
-0.0822224
-0.0442932
-0.0245247
-0.0141655
-0.0082479
-0.00404606
-0.00178033
-1.00524e-05
-0.147833
-0.113893
-0.0727886
-0.0428591
-0.0259491
-0.01637
-0.0101823
-0.00563699
-0.00271362
-0.000688896
-0.108237
-0.092993
-0.0633663
-0.0408868
-0.0269974
-0.018164
-0.011856
-0.00707101
-0.00360288
-0.00115878
-0.0789963
-0.0757211
-0.0565652
-0.0396294
-0.0278203
-0.0195082
-0.0131672
-0.00822394
-0.00434889
-0.00145651
-0.0589023
-0.0628741
-0.0516049
-0.0386284
-0.0282303
-0.0203544
-0.0140931
-0.00907746
-0.00492625
-0.00164967
-0.0458752
-0.0536129
-0.0477432
-0.0376573
-0.0283173
-0.0208352
-0.0147163
-0.00968512
-0.00535429
-0.00178614
-0.0376298
-0.0471534
-0.0447812
-0.0368038
-0.0282718
-0.0211044
-0.0151241
-0.0101018
-0.00565672
-0.00188489
-0.0328073
-0.0430523
-0.0427737
-0.0362005
-0.0282151
-0.0212506
-0.0153688
-0.0103609
-0.00584955
-0.00194947
-0.0305766
-0.0410507
-0.0417626
-0.0359034
-0.0281912
-0.0213153
-0.0154818
-0.0104828
-0.00594387
-0.00197972
-0.218645
-0.246542
-0.272322
-0.296265
-0.31876
-0.34031
-0.361534
-0.383078
-0.405445
-0.429287
-0.0679984
-0.0781409
-0.0873053
-0.0957351
-0.103737
-0.111692
-0.120058
-0.129375
-0.14022
-0.154387
-0.0452265
-0.0544083
-0.0632043
-0.071588
-0.0795219
-0.0869611
-0.0938621
-0.100198
-0.105966
-0.111287
-0.0188029
-0.0245228
-0.0300364
-0.0353626
-0.0405233
-0.0455418
-0.0504413
-0.0552437
-0.0599492
-0.064437
-0.0130934
-0.0174493
-0.0216805
-0.0257837
-0.029755
-0.0335905
-0.0372866
-0.0408403
-0.0442321
-0.0474305
-0.00803871
-0.011256
-0.0144138
-0.0175114
-0.020548
-0.0235231
-0.0264363
-0.0292861
-0.032061
-0.0347642
-0.00691483
-0.00945165
-0.0119522
-0.0144124
-0.0168287
-0.019198
-0.0215177
-0.0237855
-0.0259952
-0.02816
-0.00611356
-0.0081714
-0.0102127
-0.0122334
-0.0142298
-0.0161984
-0.0181361
-0.02004
-0.0219068
-0.0237435
-0.00602578
-0.00780034
-0.00956698
-0.0113212
-0.0130588
-0.0147758
-0.0164688
-0.0181345
-0.0197709
-0.021379
-0.00596969
-0.00759553
-0.00921878
-0.0108357
-0.0124427
-0.0140364
-0.0156139
-0.017172
-0.0187096
-0.0202246
0.167954
0.126967
0.0816186
0.0385495
-0.00318887
-0.0440679
-0.0834711
-0.120816
-0.155835
-0.188441
0.117485
0.0915705
0.0647788
0.0419401
0.0218201
0.0031464
-0.0141639
-0.0298998
-0.0440347
-0.0566841
0.073366
0.0576681
0.0427152
0.0298032
0.017952
0.00648547
-0.00466735
-0.0154185
-0.0257449
-0.0356731
0.0531108
0.044038
0.0354091
0.0276987
0.0204325
0.01334
0.00642353
-0.000258293
-0.00668416
-0.0128612
0.0375746
0.0316234
0.0258833
0.0205928
0.0155025
0.0104816
0.00553663
0.000699067
-0.0040186
-0.00861595
0.0273135
0.0234247
0.0195795
0.0159418
0.0123994
0.00888412
0.00539746
0.00195615
-0.00143148
-0.00476342
0.0196113
0.0168829
0.0141278
0.0114513
0.00880532
0.00615704
0.00350822
0.000870037
-0.00174966
-0.00434602
0.0144312
0.0124362
0.010391
0.00835797
0.00632058
0.00426518
0.00219415
0.00011502
-0.00196586
-0.00404355
0.0111008
0.00950592
0.00786205
0.00619841
0.00451019
0.0027943
0.00105459
-0.000702769
-0.00247204
-0.00424805
0.00950479
0.00808423
0.00662035
0.00512738
0.0036047
0.00205337
0.000477712
-0.0011171
-0.00272624
-0.0043452
0.33537
0.334669
0.33312
0.330246
0.325262
0.31693
0.303481
0.28252
0.251412
0.206795
0.245472
0.244356
0.24172
0.237136
0.230265
0.22068
0.207808
0.190993
0.169485
0.142731
0.174642
0.173513
0.170846
0.166321
0.159831
0.151268
0.140441
0.127138
0.11095
0.0919629
0.123033
0.122147
0.120045
0.116482
0.111443
0.104951
0.0970018
0.0876035
0.0766788
0.0645626
0.0866995
0.086055
0.084516
0.081903
0.0782231
0.0735287
0.067854
0.0612372
0.0536585
0.0453268
0.0615208
0.0610574
0.0599489
0.0580667
0.0554242
0.0520726
0.0480535
0.0434109
0.0381624
0.0324543
0.0443698
0.0440313
0.0432212
0.0418459
0.0399172
0.0374752
0.0345538
0.0311857
0.0273902
0.0232514
0.0330846
0.0328278
0.0322133
0.0311702
0.029708
0.027858
0.025647
0.0231002
0.0202379
0.017112
0.026249
0.0260405
0.0255418
0.0246954
0.0235087
0.0220069
0.020211
0.01814
0.0158117
0.0132574
0.0230287
0.0228422
0.022397
0.0216419
0.0205832
0.0192428
0.0176394
0.0157894
0.0137094
0.0114224
0.485344
0.487097
0.49343
0.504576
0.520427
0.541287
0.567621
0.599954
0.638821
0.684469
0.483102
0.48483
0.491083
0.502073
0.517676
0.538158
0.563928
0.595422
0.633042
0.676876
0.478672
0.480354
0.486454
0.497141
0.512258
0.532
0.556659
0.5865
0.62165
0.6619
0.472152
0.473779
0.479669
0.489924
0.504341
0.523007
0.546044
0.573462
0.604969
0.639946
0.463682
0.465258
0.470899
0.480619
0.49415
0.511446
0.532406
0.556695
0.583462
0.611601
0.453429
0.454978
0.460352
0.469453
0.481944
0.497617
0.516104
0.53665
0.557701
0.577602
0.44159
0.443179
0.448306
0.456744
0.468084
0.48193
0.497608
0.513865
0.528363
0.538814
0.428371
0.430186
0.435201
0.443051
0.453266
0.465234
0.477904
0.489384
0.496448
0.496033
0.413842
0.416133
0.421227
0.428613
0.437808
0.447981
0.457632
0.464043
0.462832
0.448752
0.397639
0.400075
0.404742
0.410999
0.418378
0.425929
0.431877
0.433
0.424535
0.396832
0.39764
0.400076
0.404743
0.411
0.418379
0.42593
0.431878
0.433001
0.424535
0.396832
0.413842
0.416134
0.421228
0.428614
0.437809
0.447982
0.457632
0.464043
0.462832
0.448753
0.428372
0.430187
0.435202
0.443052
0.453267
0.465235
0.477905
0.489385
0.496449
0.496033
0.441591
0.443179
0.448306
0.456745
0.468085
0.481931
0.497609
0.513865
0.528364
0.538814
0.453429
0.454978
0.460352
0.469453
0.481944
0.497617
0.516105
0.53665
0.557702
0.577602
0.463682
0.465259
0.4709
0.480619
0.49415
0.511447
0.532406
0.556696
0.583463
0.611602
0.472153
0.47378
0.479669
0.489925
0.504341
0.523007
0.546044
0.573462
0.604969
0.639946
0.478672
0.480354
0.486454
0.497141
0.512258
0.532
0.556659
0.5865
0.62165
0.6619
0.483103
0.48483
0.491083
0.502073
0.517676
0.538158
0.563928
0.595422
0.633042
0.676877
0.485344
0.487097
0.49343
0.504576
0.520427
0.541287
0.567622
0.599954
0.638821
0.684469
0.0230297
0.0228432
0.022398
0.0216429
0.0205841
0.0192437
0.0176404
0.0157903
0.0137103
0.0114233
0.02625
0.0260415
0.0255428
0.0246964
0.0235097
0.0220078
0.0202119
0.0181409
0.0158126
0.0132583
0.0330855
0.0328287
0.0322142
0.0311711
0.0297089
0.0278588
0.0256479
0.023101
0.0202387
0.0171129
0.0443707
0.0440322
0.043222
0.0418468
0.039918
0.0374761
0.0345546
0.0311865
0.027391
0.0232522
0.0615216
0.0610582
0.0599497
0.0580675
0.055425
0.0520734
0.0480543
0.0434116
0.0381631
0.0324549
0.0867002
0.0860557
0.0845168
0.0819037
0.0782238
0.0735294
0.0678547
0.0612379
0.0536592
0.0453274
0.123033
0.122148
0.120045
0.116483
0.111443
0.104952
0.0970024
0.0876042
0.0766794
0.0645631
0.174643
0.173513
0.170847
0.166322
0.159832
0.151268
0.140442
0.127138
0.11095
0.0919633
0.245473
0.244357
0.241721
0.237136
0.230266
0.22068
0.207809
0.190994
0.169486
0.142731
0.33537
0.33467
0.333121
0.330246
0.325262
0.316931
0.303482
0.28252
0.251413
0.206796
0.00950565
0.00808506
0.00662115
0.00512813
0.00360542
0.00205405
0.000478358
-0.00111649
-0.00272566
-0.00434465
0.0111016
0.00950673
0.00786283
0.00619914
0.00451089
0.00279496
0.00105521
-0.000702185
-0.00247149
-0.00424753
0.014432
0.0124369
0.0103917
0.00835863
0.0063212
0.00426576
0.00219469
0.000115527
-0.00196538
-0.00404312
0.019612
0.0168836
0.0141285
0.0114519
0.00880589
0.00615757
0.00350872
0.000870491
-0.00174924
-0.00434564
0.0273142
0.0234253
0.0195801
0.0159424
0.0123999
0.00888457
0.00539787
0.00195652
-0.00143115
-0.00476312
0.0375752
0.0316239
0.0258838
0.0205932
0.0155029
0.0104819
0.00553695
0.000699349
-0.00401836
-0.00861574
0.0531113
0.0440384
0.0354095
0.0276991
0.0204329
0.0133403
0.00642381
-0.000258058
-0.00668396
-0.012861
0.0733664
0.0576685
0.0427155
0.0298035
0.0179522
0.00648565
-0.00466722
-0.0154184
-0.0257448
-0.0356731
0.117486
0.0915708
0.064779
0.0419403
0.0218202
0.00314651
-0.0141638
-0.0298998
-0.0440348
-0.0566842
0.167954
0.126967
0.0816187
0.0385495
-0.00318895
-0.0440681
-0.0834713
-0.120816
-0.155835
-0.188442
-0.00596918
-0.00759508
-0.00921838
-0.0108353
-0.0124424
-0.0140362
-0.0156136
-0.0171719
-0.0187095
-0.0202245
-0.00602531
-0.00779992
-0.00956661
-0.0113209
-0.0130585
-0.0147756
-0.0164686
-0.0181343
-0.0197707
-0.0213789
-0.00611315
-0.00817101
-0.0102123
-0.0122331
-0.0142295
-0.0161981
-0.0181359
-0.0200399
-0.0219066
-0.0237433
-0.00691448
-0.00945134
-0.0119519
-0.0144121
-0.0168284
-0.0191978
-0.0215176
-0.0237853
-0.0259951
-0.0281599
-0.00803844
-0.0112557
-0.0144136
-0.0175112
-0.0205478
-0.023523
-0.0264362
-0.0292861
-0.0320609
-0.0347641
-0.0130932
-0.0174491
-0.0216804
-0.0257836
-0.029755
-0.0335905
-0.0372866
-0.0408404
-0.0442322
-0.0474305
-0.0188028
-0.0245227
-0.0300364
-0.0353626
-0.0405233
-0.0455419
-0.0504414
-0.0552438
-0.0599494
-0.0644372
-0.0452266
-0.0544083
-0.0632044
-0.0715882
-0.0795221
-0.0869613
-0.0938624
-0.100199
-0.105966
-0.111287
-0.0679986
-0.078141
-0.0873056
-0.0957354
-0.103738
-0.111693
-0.120059
-0.129375
-0.140221
-0.154388
-0.218646
-0.246543
-0.272322
-0.296266
-0.31876
-0.34031
-0.361535
-0.383079
-0.405445
-0.429288
-0.0305767
-0.0410508
-0.0417627
-0.0359034
-0.0281916
-0.0213166
-0.0154837
-0.0104846
-0.00594523
-0.00198019
-0.0328074
-0.0430524
-0.0427737
-0.0362004
-0.0282156
-0.021252
-0.0153708
-0.0103628
-0.00585098
-0.00194993
-0.0376299
-0.0471534
-0.0447811
-0.0368035
-0.0282722
-0.0211059
-0.0151263
-0.0101039
-0.00565829
-0.00188532
-0.0458753
-0.0536129
-0.0477429
-0.0376567
-0.0283176
-0.0208369
-0.0147188
-0.00968766
-0.00535604
-0.00178648
-0.0589025
-0.0628742
-0.0516044
-0.0386273
-0.0282305
-0.0203564
-0.0140962
-0.00908064
-0.00492819
-0.00164978
-0.0789965
-0.0757212
-0.0565644
-0.0396275
-0.0278203
-0.0195106
-0.013171
-0.00822812
-0.00435096
-0.00145615
-0.108237
-0.0929932
-0.0633651
-0.0408838
-0.0269972
-0.0181669
-0.0118609
-0.00707669
-0.00360496
-0.00115758
-0.147833
-0.113893
-0.0727864
-0.0428542
-0.0259485
-0.0163739
-0.0101889
-0.00564485
-0.00271558
-0.000686446
-0.189253
-0.131749
-0.0822191
-0.0442856
-0.0245232
-0.0141699
-0.0082564
-0.00405657
-0.00178213
-6.0906e-06
-0.24735
-0.140755
-0.0882288
-0.0428253
-0.0227896
-0.0117785
-0.00640861
-0.00257523
-0.00102074
0.00083655
-0.313882
-0.148849
-0.091857
-0.0395664
-0.0222912
-0.0104462
-0.00569053
-0.00183524
-0.000854072
0.00148996
-0.321685
-0.146473
-0.0907475
-0.0378639
-0.0217889
-0.00995386
-0.00544513
-0.00164363
-0.000793948
0.00163673
-0.316907
-0.140968
-0.088299
-0.0359652
-0.0211432
-0.00945555
-0.0051967
-0.00147745
-0.000722613
0.00174812
-0.311203
-0.136952
-0.0864749
-0.0345142
-0.0206516
-0.00904908
-0.0049906
-0.00133592
-0.000659761
0.00184697
-0.30631
-0.134048
-0.0850969
-0.0333457
-0.0202635
-0.00870738
-0.00481767
-0.00121371
-0.000606973
0.00193584
-0.301705
-0.131602
-0.0839023
-0.032359
-0.0199356
-0.008417
-0.00467186
-0.00111044
-0.000562698
0.00201196
-0.297519
-0.129546
-0.0828858
-0.0315588
-0.0196672
-0.00818071
-0.00455371
-0.00102706
-0.000526739
0.00207375
-0.294108
-0.127955
-0.0820968
-0.0309588
-0.0194642
-0.00800209
-0.00446446
-0.000964123
-0.000499458
0.00212056
-0.291716
-0.126874
-0.0815615
-0.0305608
-0.0193286
-0.00788254
-0.00440463
-0.000921836
-0.000481136
0.00215194
-0.290485
-0.126326
-0.0812912
-0.0303628
-0.0192608
-0.00782255
-0.00437439
-0.000900308
-0.000471928
0.00216757
)
;

boundaryField
{
    inlet
    {
        type            zeroGradient;
    }
    outlet
    {
        type            fixedValue;
        value           uniform 0;
    }
    cylinder
    {
        type            zeroGradient;
    }
    top
    {
        type            symmetryPlane;
    }
    bottom
    {
        type            symmetryPlane;
    }
    defaultFaces
    {
        type            empty;
    }
}


// ************************************************************************* //
