/*--------------------------------*- C++ -*----------------------------------*\
  =========                 |
  \\      /  F ield         | OpenFOAM: The Open Source CFD Toolbox
   \\    /   O peration     | Website:  https://openfoam.org
    \\  /    A nd           | Version:  6.0
     \\/     M anipulation  |
\*---------------------------------------------------------------------------*/
FoamFile
{
    version     2.0;
    format      ascii;
    class       volVectorField;
    location    "13";
    object      U;
}
// * * * * * * * * * * * * * * * * * * * * * * * * * * * * * * * * * * * * * //

dimensions      [0 1 -1 0 0 0 0];

internalField   nonuniform List<vector> 
2000
(
(-0.00199181 0.0017372 3.45207e-20)
(-0.0076111 0.00329621 3.6655e-20)
(-0.0152954 0.0036474 -3.36252e-20)
(-0.0222627 0.00331362 -6.63376e-20)
(-0.0275588 0.00260616 -4.49928e-20)
(-0.0310338 0.00172871 5.84081e-20)
(-0.0327893 0.000827286 3.32607e-20)
(-0.0330961 9.36205e-06 -1.31829e-20)
(-0.0323776 -0.000645187 -3.23376e-20)
(-0.0309357 -0.00107318 1.90161e-20)
(-0.00248933 0.00511783 -8.55472e-20)
(-0.00835731 0.00966636 1.05596e-19)
(-0.0156846 0.0106541 1.01358e-20)
(-0.021945 0.00962562 -5.69131e-20)
(-0.0263222 0.00749695 2.64368e-19)
(-0.0287427 0.00486658 -1.13378e-19)
(-0.0293561 0.00216469 -1.19912e-19)
(-0.0284601 -0.000288133 1.41753e-19)
(-0.0264961 -0.00224807 -1.37363e-19)
(-0.0238408 -0.00352433 5.5909e-20)
(-0.00343347 0.00821905 1.42104e-20)
(-0.00970888 0.0153775 4.5017e-21)
(-0.0162491 0.0168134 3.04422e-19)
(-0.0210429 0.0150204 1.03242e-19)
(-0.0235497 0.0114642 1.98688e-20)
(-0.023847 0.00709931 1.6025e-19)
(-0.0221775 0.00261453 -2.97534e-19)
(-0.0188884 -0.00146363 6.32231e-21)
(-0.0144543 -0.00471537 -1.69424e-19)
(-0.00940757 -0.00681845 1.50983e-19)
(-0.0047188 0.0108599 -2.67138e-20)
(-0.0113752 0.020015 1.3736e-19)
(-0.0165475 0.0216166 -3.8524e-19)
(-0.0190045 0.0189812 -4.81802e-20)
(-0.0186185 0.0140308 -2.66236e-19)
(-0.0156906 0.00800639 2.68686e-19)
(-0.0105968 0.00180714 -2.78596e-19)
(-0.00374886 -0.00385311 1.9177e-19)
(0.0043387 -0.0083615 7.91975e-20)
(0.0128848 -0.0112576 -7.26022e-20)
(-0.00617774 0.0128645 -2.96981e-19)
(-0.0128994 0.0231989 2.36389e-21)
(-0.0158877 0.0246344 4.74275e-19)
(-0.0149612 0.0211276 1.37556e-19)
(-0.0105409 0.0149224 -4.24588e-19)
(-0.00322279 0.00744441 2.57246e-19)
(0.0064461 -0.000278021 2.85194e-19)
(0.0179845 -0.00738599 -2.49218e-19)
(0.0308478 -0.0130603 1.74616e-19)
(0.0438995 -0.0166959 3.48505e-20)
(-0.00756907 0.0140621 4.06156e-20)
(-0.0136389 0.0245934 6.72665e-21)
(-0.0133031 0.0255397 -6.05962e-19)
(-0.00769514 0.0212518 -3.27923e-19)
(0.00208385 0.0141277 3.79897e-19)
(0.0150693 0.00564438 -4.33574e-19)
(0.0304992 -0.00316314 4.85846e-19)
(0.0478239 -0.0113804 -4.10468e-20)
(0.0665081 -0.0179994 -1.31638e-19)
(0.0849496 -0.0222794 -3.12614e-19)
(-0.00856622 0.0142901 -8.81294e-20)
(-0.012754 0.0239215 -1.44005e-19)
(-0.0075475 0.0241207 -1.70333e-19)
(0.00436931 0.0193273 3.51599e-19)
(0.0210973 0.0119087 6.33576e-19)
(0.0412226 0.00324441 -1.27559e-19)
(0.0637035 -0.00579136 -3.03903e-19)
(0.0879058 -0.0144035 9.08247e-20)
(0.113387 -0.0215007 -5.62585e-19)
(0.138009 -0.0262535 5.06981e-19)
(-0.00875334 0.0134087 5.38881e-19)
(-0.00922358 0.0209897 -2.62968e-19)
(0.0028614 0.0202894 4.94773e-19)
(0.0231032 0.0154848 -7.81842e-19)
(0.0487158 0.00874569 -3.62957e-19)
(0.0777492 0.00123431 -4.9007e-19)
(0.108773 -0.00651578 1.39113e-19)
(0.140991 -0.0140996 -3.80457e-19)
(0.174184 -0.020579 8.13967e-19)
(0.205793 -0.0252051 1.88147e-19)
(-0.00764063 0.0113305 3.93127e-20)
(-0.00190635 0.015731 4.28391e-19)
(0.0195315 0.0140882 8.19558e-19)
(0.0505243 0.00994315 2.42507e-19)
(0.0873652 0.00517324 6.96872e-19)
(0.127475 0.000740639 3.72655e-20)
(0.168843 -0.00315789 -5.80553e-22)
(0.210247 -0.00658556 2.62558e-19)
(0.251704 -0.00893372 2.09149e-19)
(0.290802 -0.0104834 -5.64278e-19)
(-0.00471459 0.00806706 -3.18572e-19)
(0.0103277 0.00826539 -4.77699e-19)
(0.0439934 0.00568603 -6.68915e-19)
(0.0885633 0.00283762 1.5076e-20)
(0.13955 0.00126203 -3.20553e-19)
(0.193846 0.00192252 4.92444e-19)
(0.248872 0.00514391 -1.32612e-18)
(0.302671 0.0111193 5.83839e-19)
(0.354551 0.0204046 2.16137e-19)
(0.401925 0.0290927 5.69101e-19)
(0.000462644 0.00378775 1.59449e-19)
(0.0283512 -0.00100387 -5.45734e-19)
(0.0772471 -0.00453804 4.69213e-19)
(0.138253 -0.00583791 -1.76187e-19)
(0.206506 -0.00393038 1.86097e-19)
(0.279033 0.00210807 3.95199e-19)
(0.353985 0.01301 -5.18652e-19)
(0.430942 0.0296972 6.62006e-20)
(0.510899 0.051483 -2.39581e-19)
(0.596315 0.0686254 4.22473e-19)
(0.0081565 -0.00113072 2.27942e-19)
(0.0525561 -0.011231 -4.94339e-19)
(0.119295 -0.0156029 6.48761e-19)
(0.198575 -0.015391 -3.91042e-19)
(0.285164 -0.0107475 -1.39274e-19)
(0.375995 -0.00153461 8.03672e-20)
(0.469247 0.0121565 4.06329e-20)
(0.564338 0.0300141 5.40818e-19)
(0.660955 0.0494067 1.52992e-19)
(0.756841 0.0617062 5.72157e-19)
(0.0184748 -0.00612591 -2.03254e-19)
(0.0829809 -0.0210614 6.38722e-19)
(0.169657 -0.0255384 -5.13465e-19)
(0.268024 -0.023189 -5.82966e-19)
(0.372367 -0.0155378 7.92035e-19)
(0.479178 -0.0033815 -5.87342e-19)
(0.586048 0.0123472 1.51618e-19)
(0.691411 0.0305404 -8.81455e-19)
(0.793518 0.048583 6.48577e-19)
(0.888419 0.0611388 2.85784e-20)
(0.0314233 -0.0105692 -2.64628e-19)
(0.119425 -0.0289355 -2.29083e-19)
(0.227638 -0.0320505 -4.69784e-19)
(0.345176 -0.0262228 5.50648e-19)
(0.465879 -0.0144323 -2.70736e-20)
(0.585772 0.00162002 3.37451e-19)
(0.701908 0.0203321 6.02187e-19)
(0.812036 0.0402089 -1.81361e-19)
(0.91381 0.0592012 -6.30347e-19)
(1.00326 0.074294 1.10113e-18)
(0.0469317 -0.0138518 -1.36651e-19)
(0.161444 -0.0333495 -1.45954e-19)
(0.292229 -0.033026 2.53254e-19)
(0.428365 -0.0219562 -4.55554e-19)
(0.563453 -0.00459729 7.54842e-20)
(0.693271 0.0164953 6.56086e-20)
(0.81469 0.0391739 2.81524e-20)
(0.925352 0.0617339 -4.35322e-21)
(1.02307 0.0826943 -6.63928e-20)
(1.10452 0.100439 -9.31727e-19)
(0.0648405 -0.015411 5.54846e-19)
(0.208303 -0.032977 -3.46532e-19)
(0.361989 -0.0267495 4.26233e-21)
(0.515428 -0.00857677 -4.92251e-19)
(0.662335 0.0156396 -1.7134e-19)
(0.798616 0.0425694 1.5599e-19)
(0.921431 0.0696419 1.18688e-19)
(1.02888 0.0950661 -4.14498e-19)
(1.1195 0.117876 3.33161e-19)
(1.19097 0.137269 -3.84253e-19)
(0.0848694 -0.0147346 2.39289e-19)
(0.258934 -0.0267271 -1.90473e-19)
(0.435015 -0.0120007 7.62301e-19)
(0.603704 0.0149277 7.53578e-20)
(0.759314 0.0468286 1.67925e-19)
(0.898373 0.0797451 7.30537e-19)
(1.01885 0.110863 -1.09012e-19)
(1.11982 0.138476 9.79406e-20)
(1.20093 0.162156 3.99499e-20)
(1.26116 0.181596 -4.27928e-20)
(0.106587 -0.011372 1.67076e-19)
(0.311925 -0.0137855 3.59997e-19)
(0.508989 0.0119064 -3.71631e-19)
(0.690168 0.0487908 -1.21928e-19)
(0.850972 0.0885562 -1.46339e-19)
(0.989113 0.126874 2.20873e-19)
(1.10389 0.160958 -1.12531e-19)
(1.19576 0.189426 2.96885e-19)
(1.26578 0.212484 9.84321e-20)
(1.31431 0.230182 -1.40168e-19)
(0.129397 -0.0049594 -1.80104e-19)
(0.365554 0.00633746 1.43389e-19)
(0.581297 0.0451014 -2.94713e-19)
(0.77165 0.0925244 1.23057e-19)
(0.933989 0.139626 -1.24078e-19)
(1.06778 0.182089 -1.51115e-19)
(1.17411 0.217507 -1.189e-19)
(1.25511 0.245112 1.30367e-19)
(1.31331 0.265876 -2.42126e-19)
(1.35053 0.280166 1.27383e-19)
(0.152546 0.00474277 -6.41721e-20)
(0.417852 0.0337516 -1.125e-19)
(0.649185 0.0871431 5.15607e-20)
(0.845065 0.144987 3.04362e-21)
(1.00541 0.198233 4.02501e-20)
(1.13196 0.243066 5.39611e-20)
(1.22789 0.277873 4.90289e-20)
(1.29716 0.302792 -6.36979e-20)
(1.3437 0.319673 5.35128e-20)
(1.37066 0.329218 -7.26015e-20)
(0.175151 0.0178089 -3.7175e-20)
(0.466715 0.0681369 -1.24978e-20)
(0.709934 0.137021 4.79367e-20)
(0.907632 0.204468 -2.13044e-20)
(1.06287 0.262123 5.53875e-20)
(1.18002 0.307246 -6.9736e-20)
(1.26452 0.339431 1.57692e-20)
(1.32207 0.359969 1.65929e-20)
(1.35785 0.371657 -6.91146e-21)
(1.37609 0.375544 2.24515e-20)
(0.196246 0.0341127 -4.01155e-20)
(0.510028 0.108714 -1.62691e-19)
(0.761043 0.193186 -1.09155e-20)
(0.957056 0.268788 3.16054e-21)
(1.10469 0.328753 -1.92133e-19)
(1.21115 0.372005 2.46546e-20)
(1.28407 0.399707 -2.05858e-20)
(1.33068 0.41447 -4.9054e-20)
(1.35715 0.420042 1.01122e-19)
(1.36851 0.41781 -1.57978e-19)
(0.214839 0.0533029 -1.94308e-20)
(0.545804 0.15424 3.29904e-19)
(0.800388 0.253608 5.11415e-20)
(0.991661 0.335422 -2.70714e-19)
(1.12998 0.395437 -2.13787e-20)
(1.22533 0.434782 -2.47105e-19)
(1.2873 0.456461 1.77598e-19)
(1.32436 0.464466 -6.37029e-20)
(1.34331 0.463418 1.11253e-19)
(1.34971 0.455027 -6.99994e-20)
(0.229977 0.0747941 -1.22453e-19)
(0.572321 0.203049 1.0534e-19)
(0.826364 0.315877 -7.32041e-20)
(1.01046 0.401629 5.32499e-19)
(1.13859 0.459474 2.56035e-19)
(1.22322 0.493177 -5.81579e-20)
(1.27553 0.50772 1.92481e-19)
(1.30482 0.508432 -1.245e-19)
(1.31821 0.500673 -3.4675e-20)
(1.32151 0.486441 1.91822e-19)
(0.240812 0.0977759 -2.12379e-19)
(0.588239 0.253113 2.42908e-19)
(0.837971 0.377316 -4.60257e-19)
(1.01319 0.464588 6.29079e-20)
(1.13106 0.518259 1.37434e-19)
(1.20606 0.545002 -2.03865e-19)
(1.25046 0.551778 -2.36577e-19)
(1.27398 0.545105 1.02981e-19)
(1.28377 0.530903 -1.2308e-19)
(1.2857 0.511437 1.27344e-19)
(0.246666 0.12124 -5.3603e-20)
(0.592695 0.302145 -2.47303e-19)
(0.834862 0.435127 1.31287e-19)
(1.00027 0.521531 2.15921e-19)
(1.10853 0.569372 -1.25559e-19)
(1.17553 0.588314 -9.23504e-20)
(1.21407 0.587169 -5.43273e-20)
(1.2339 0.573412 -2.638e-20)
(1.24196 0.553322 3.81571e-21)
(1.24402 0.529443 5.09757e-20)
(0.247083 0.144023 4.04444e-20)
(0.585366 0.347721 -2.1092e-19)
(0.817346 0.486535 3.39602e-19)
(0.972702 0.569868 -1.94027e-19)
(1.0726 0.610653 5.59319e-20)
(1.13361 0.621438 -7.64492e-20)
(1.1685 0.612642 8.07844e-20)
(1.18666 0.592414 2.03501e-20)
(1.19467 0.56716 -1.96498e-20)
(1.19815 0.539783 3.28034e-20)
(0.241882 0.164877 -1.07117e-19)
(0.566498 0.387423 1.88488e-19)
(0.786344 0.528946 -7.41525e-21)
(0.932027 0.60731 -3.9569e-20)
(1.02523 0.640281 -9.72868e-20)
(1.08247 0.64301 1.32223e-20)
(1.116 0.627203 1.55856e-20)
(1.13449 0.601359 -5.73864e-20)
(1.14406 0.571716 6.47053e-20)
(1.15015 0.541667 4.86827e-20)
(0.231186 0.182545 3.26657e-20)
(0.536902 0.418999 -4.53987e-20)
(0.743312 0.56009 6.45667e-21)
(0.880121 0.631955 2.14912e-20)
(0.968472 0.656771 2.18323e-20)
(1.02426 0.651881 -5.79789e-20)
(1.05878 0.629952 -1.26722e-19)
(1.07982 0.599525 -5.17551e-20)
(1.09306 0.566338 -6.57402e-20)
(1.10336 0.534452 4.37433e-20)
(0.215442 0.195872 5.49579e-20)
(0.497917 0.440542 -8.1011e-20)
(0.690132 0.578197 7.57157e-20)
(0.819025 0.642408 -1.43577e-19)
(0.904224 0.658998 3.32742e-20)
(0.960507 0.646891 2.2772e-19)
(0.998088 0.619306 -6.85045e-20)
(1.02396 0.584536 7.83128e-20)
(1.04346 0.547669 1.1407e-19)
(1.05966 0.514537 3.35108e-19)
(0.195422 0.203922 3.85807e-19)
(0.451367 0.45067 -2.33115e-19)
(0.629065 0.582218 5.49635e-19)
(0.750912 0.638164 -9.07721e-20)
(0.834074 0.646902 4.44874e-19)
(0.891759 0.628074 2.71913e-19)
(0.933015 0.594646 -6.23632e-19)
(0.964217 0.553718 9.30089e-19)
(0.989998 0.507644 -1.93869e-19)
(1.00717 0.460235 3.42855e-19)
(0.17219 0.206042 -2.13489e-19)
(0.399523 0.448584 -1.37534e-19)
(0.562834 0.571842 1.29664e-19)
(0.678457 0.619702 -3.05528e-19)
(0.760229 0.622122 -9.26972e-19)
(0.819283 0.598992 -3.641e-19)
(0.863272 0.563086 -3.19542e-19)
(0.897632 0.521574 1.5266e-19)
(0.925596 0.477925 1.24325e-18)
(0.94346 0.436794 -2.32389e-19)
(0.147006 0.201859 1.13804e-19)
(0.344976 0.43393 -4.13441e-19)
(0.494586 0.547044 8.72115e-20)
(0.605091 0.58732 -6.14285e-19)
(0.686516 0.585109 1.30417e-18)
(0.74776 0.559926 -1.47818e-19)
(0.795038 0.52399 6.77637e-19)
(0.832815 0.484111 -9.50161e-19)
(0.863708 0.443758 2.93288e-19)
(0.885326 0.406999 4.10621e-20)
(0.121209 0.191265 8.40382e-20)
(0.290353 0.406783 4.55409e-19)
(0.427379 0.508123 -1.28922e-18)
(0.533921 0.541386 6.05834e-19)
(0.615996 0.536061 -1.44247e-21)
(0.680257 0.510617 -1.93434e-19)
(0.731557 0.476361 2.38602e-19)
(0.773534 0.439512 -2.31689e-19)
(0.808443 0.403197 -7.80937e-19)
(0.834775 0.370514 -1.93006e-19)
(0.0961255 0.174417 2.76151e-19)
(0.238178 0.367662 2.77128e-19)
(0.364044 0.455805 1.10026e-18)
(0.467677 0.482644 -5.91925e-19)
(0.551117 0.475568 1.1842e-18)
(0.618855 0.451359 -2.48363e-19)
(0.674488 0.420091 -2.56262e-19)
(0.720929 0.387218 2.96972e-19)
(0.760143 0.355405 1.89919e-19)
(0.791266 0.326884 6.20176e-19)
(0.0730133 0.15173 -2.80867e-19)
(0.190774 0.317523 8.22017e-20)
(0.307122 0.391263 2.15233e-20)
(0.408733 0.412257 6.04136e-19)
(0.493927 0.404646 -1.46363e-18)
(0.565218 0.382965 2.42438e-19)
(0.625081 0.355791 5.22296e-19)
(0.6758 0.327696 -6.18617e-19)
(0.719098 0.300839 2.13849e-19)
(0.754679 0.276747 -8.94853e-19)
(0.0530111 0.123867 5.99067e-20)
(0.1502 0.257734 2.88892e-19)
(0.258813 0.31609 1.08049e-19)
(0.359098 0.331774 1.41668e-19)
(0.446119 0.324682 2.63251e-19)
(0.520686 0.306622 7.63027e-19)
(0.584329 0.284471 -9.12702e-19)
(0.638808 0.261846 -5.03412e-19)
(0.685655 0.240397 8.19312e-20)
(0.725093 0.221111 5.80928e-19)
(0.0370945 0.091717 -3.62396e-19)
(0.118181 0.190027 -3.84484e-20)
(0.220935 0.232242 -3.104e-19)
(0.320408 0.24308 4.27801e-20)
(0.409054 0.237367 -2.49205e-19)
(0.486333 0.223812 -2.77164e-19)
(0.553037 0.207434 -4.03531e-19)
(0.610518 0.190846 1.06496e-18)
(0.660179 0.175208 1.80278e-19)
(0.702676 0.161108 -2.47891e-19)
(0.0260354 0.0563567 1.95378e-19)
(0.0960629 0.116436 2.30907e-19)
(0.194888 0.141976 8.73686e-20)
(0.293911 0.148327 -4.56304e-19)
(0.383764 0.144635 -2.0613e-19)
(0.462973 0.136235 -4.3257e-20)
(0.531822 0.126182 8.2522e-20)
(0.591389 0.116054 6.49381e-20)
(0.642994 0.106539 -4.92643e-19)
(0.68761 0.0979416 2.5507e-19)
(0.0203689 0.0190097 -1.01759e-19)
(0.0847694 0.0392198 -1.03514e-19)
(0.181624 0.0477681 7.93264e-20)
(0.28045 0.0498593 6.80672e-20)
(0.370944 0.0485839 6.77085e-20)
(0.451155 0.045739 1.00824e-19)
(0.521108 0.0423498 -5.20752e-21)
(0.581741 0.0389446 -1.26563e-19)
(0.634338 0.0357505 1.18004e-19)
(0.680038 0.0328609 -1.60163e-19)
(0.0203689 -0.0190098 -1.02424e-19)
(0.0847694 -0.0392199 -9.86337e-20)
(0.181624 -0.0477682 8.74217e-20)
(0.28045 -0.0498594 1.65401e-19)
(0.370944 -0.048584 1.06929e-19)
(0.451155 -0.0457391 -1.37237e-19)
(0.521108 -0.0423499 -7.28132e-20)
(0.581741 -0.0389447 3.11434e-20)
(0.634338 -0.0357506 6.86882e-20)
(0.680038 -0.0328609 -3.68963e-20)
(0.0260354 -0.0563568 2.4438e-19)
(0.0960629 -0.116436 -2.77664e-19)
(0.194888 -0.141976 -2.21602e-20)
(0.293911 -0.148327 1.43026e-19)
(0.383764 -0.144635 -6.27396e-19)
(0.462973 -0.136235 2.61075e-19)
(0.531822 -0.126182 2.63215e-19)
(0.591389 -0.116054 -3.04412e-19)
(0.642994 -0.106539 2.85478e-19)
(0.68761 -0.0979417 -1.13114e-19)
(0.0370945 -0.091717 -4.22565e-20)
(0.118181 -0.190027 -4.77506e-21)
(0.220935 -0.232242 -7.21004e-19)
(0.320408 -0.243081 -2.21518e-19)
(0.409054 -0.237367 -2.24726e-20)
(0.486333 -0.223812 -3.44553e-19)
(0.553037 -0.207434 6.27221e-19)
(0.610518 -0.190846 -2.1686e-20)
(0.660179 -0.175208 3.44536e-19)
(0.702676 -0.161108 -2.72987e-19)
(0.0530111 -0.123867 7.1325e-20)
(0.1502 -0.257734 -2.94904e-19)
(0.258813 -0.31609 8.73429e-19)
(0.359098 -0.331774 1.19549e-19)
(0.446119 -0.324682 5.69795e-19)
(0.520686 -0.306622 -5.42315e-19)
(0.584329 -0.284471 5.56269e-19)
(0.638808 -0.261846 -3.93093e-19)
(0.685655 -0.240397 -1.69666e-19)
(0.725093 -0.221111 1.29662e-19)
(0.0730133 -0.15173 6.35947e-19)
(0.190774 -0.317523 1.49704e-21)
(0.307122 -0.391263 -9.19247e-19)
(0.408733 -0.412257 -2.57653e-19)
(0.493927 -0.404646 8.3092e-19)
(0.565218 -0.382965 -4.74087e-19)
(0.625081 -0.355791 -5.36307e-19)
(0.675801 -0.327696 4.72869e-19)
(0.719098 -0.300839 -3.1599e-19)
(0.754679 -0.276748 -6.1375e-20)
(0.0961255 -0.174417 -9.49912e-20)
(0.238178 -0.367662 -3.91558e-21)
(0.364044 -0.455805 9.95984e-19)
(0.467677 -0.482644 5.52122e-19)
(0.551117 -0.475568 -6.31831e-19)
(0.618855 -0.451359 7.45513e-19)
(0.674488 -0.420091 -7.89798e-19)
(0.720929 -0.387218 7.72477e-20)
(0.760143 -0.355405 2.26729e-19)
(0.791266 -0.326884 4.71097e-19)
(0.121209 -0.191265 1.08196e-19)
(0.290353 -0.406783 1.5551e-19)
(0.427379 -0.508123 1.62271e-19)
(0.533921 -0.541386 -5.07692e-19)
(0.615996 -0.536061 -8.77045e-19)
(0.680257 -0.510617 1.80016e-19)
(0.731557 -0.476361 5.09907e-19)
(0.773534 -0.439512 -1.42913e-19)
(0.808443 -0.403197 8.43243e-19)
(0.834775 -0.370514 -7.40396e-19)
(0.147006 -0.201859 -6.11796e-19)
(0.344976 -0.43393 2.08876e-19)
(0.494586 -0.547044 -5.45613e-19)
(0.605091 -0.58732 8.52355e-19)
(0.686516 -0.585109 4.13869e-19)
(0.74776 -0.559926 5.69276e-19)
(0.795038 -0.52399 -1.28182e-19)
(0.832815 -0.484111 4.97525e-19)
(0.863708 -0.443758 -1.034e-18)
(0.885326 -0.406999 -2.4241e-19)
(0.17219 -0.206042 3.7096e-20)
(0.399523 -0.448584 -3.65799e-19)
(0.562834 -0.571842 -5.60066e-19)
(0.678458 -0.619702 -2.30952e-19)
(0.760229 -0.622122 -6.32888e-19)
(0.819283 -0.598992 -6.3336e-20)
(0.863272 -0.563086 5.34444e-20)
(0.897632 -0.521574 -2.30312e-19)
(0.925596 -0.477925 -2.52841e-19)
(0.94346 -0.436794 6.00127e-19)
(0.195422 -0.203922 1.91055e-19)
(0.451367 -0.45067 2.368e-19)
(0.629065 -0.582218 4.10389e-19)
(0.750912 -0.638164 1.82938e-20)
(0.834074 -0.646902 2.58598e-19)
(0.891759 -0.628074 -3.4345e-19)
(0.933015 -0.594646 1.0271e-18)
(0.964217 -0.553719 -4.43892e-19)
(0.989998 -0.507644 -2.14556e-19)
(1.00717 -0.460235 -5.82035e-19)
(0.215442 -0.195872 -7.45576e-20)
(0.497917 -0.440542 1.12552e-19)
(0.690132 -0.578197 -1.11974e-19)
(0.819025 -0.642408 5.94938e-20)
(0.904224 -0.658998 -6.85447e-20)
(0.960507 -0.646892 -1.72231e-19)
(0.998088 -0.619306 2.21182e-19)
(1.02396 -0.584536 -7.28356e-20)
(1.04346 -0.547669 1.0797e-19)
(1.05966 -0.514537 -1.90408e-19)
(0.231186 -0.182545 -5.55162e-22)
(0.536902 -0.418999 -6.45532e-20)
(0.743312 -0.56009 2.2621e-20)
(0.880121 -0.631955 6.30932e-20)
(0.968472 -0.656771 -3.36564e-20)
(1.02426 -0.651881 9.66219e-21)
(1.05878 -0.629952 -7.00842e-21)
(1.07982 -0.599526 -1.58174e-19)
(1.09306 -0.566338 -7.39625e-20)
(1.10336 -0.534452 -1.85726e-19)
(0.241882 -0.164877 -5.96189e-20)
(0.566498 -0.387423 1.88918e-19)
(0.786344 -0.528946 -1.15726e-19)
(0.932027 -0.60731 -4.8198e-20)
(1.02523 -0.640281 3.12436e-20)
(1.08247 -0.64301 2.12953e-20)
(1.116 -0.627203 -1.6316e-22)
(1.13449 -0.601359 1.10866e-19)
(1.14406 -0.571716 -9.6169e-20)
(1.15015 -0.541667 -6.31877e-22)
(0.247083 -0.144023 -1.4288e-19)
(0.585366 -0.347721 -8.16963e-20)
(0.817346 -0.486535 -1.94241e-19)
(0.972703 -0.569868 2.1426e-19)
(1.0726 -0.610653 -1.51069e-20)
(1.13361 -0.621438 6.94136e-20)
(1.1685 -0.612642 8.15077e-20)
(1.18666 -0.592414 -2.83757e-20)
(1.19467 -0.56716 8.95072e-21)
(1.19815 -0.539784 -3.37544e-20)
(0.246666 -0.12124 -9.64438e-20)
(0.592695 -0.302145 -1.10829e-19)
(0.834862 -0.435127 1.61781e-19)
(1.00027 -0.521531 -2.36811e-19)
(1.10853 -0.569372 4.02642e-20)
(1.17553 -0.588314 2.04352e-20)
(1.21407 -0.587169 4.21586e-20)
(1.2339 -0.573413 -2.66349e-20)
(1.24196 -0.553322 -3.29145e-20)
(1.24402 -0.529443 -1.05562e-19)
(0.240812 -0.0977759 4.02045e-19)
(0.588239 -0.253113 -2.81064e-19)
(0.837971 -0.377316 1.24714e-20)
(1.01319 -0.464589 -3.37325e-19)
(1.13106 -0.518259 -9.59421e-20)
(1.20606 -0.545002 7.50672e-20)
(1.25046 -0.551778 5.42042e-20)
(1.27398 -0.545105 -1.7766e-19)
(1.28377 -0.530903 8.01268e-20)
(1.2857 -0.511437 -1.18903e-19)
(0.229977 -0.0747941 1.98869e-19)
(0.572321 -0.203049 -1.76053e-19)
(0.826364 -0.315877 6.10284e-19)
(1.01046 -0.401629 4.75044e-20)
(1.13859 -0.459474 1.30231e-19)
(1.22322 -0.493177 4.5629e-19)
(1.27553 -0.50772 -9.17817e-20)
(1.30482 -0.508432 2.37619e-20)
(1.31821 -0.500673 -1.13564e-20)
(1.32151 -0.486441 -1.9073e-20)
(0.214839 -0.0533029 1.52998e-19)
(0.545804 -0.15424 3.11892e-19)
(0.800388 -0.253608 -3.06675e-19)
(0.991661 -0.335422 -9.05345e-20)
(1.12998 -0.395437 -9.35178e-20)
(1.22533 -0.434782 1.78257e-19)
(1.2873 -0.456461 -8.26559e-20)
(1.32436 -0.464466 1.91913e-19)
(1.34331 -0.463418 4.62928e-20)
(1.34971 -0.455027 -6.88268e-20)
(0.196246 -0.0341127 -1.65326e-19)
(0.510028 -0.108714 1.37366e-19)
(0.761043 -0.193186 -2.71799e-19)
(0.957056 -0.268788 1.10215e-19)
(1.10469 -0.328753 -1.07416e-19)
(1.21115 -0.372005 -1.24798e-19)
(1.28407 -0.399707 -9.50141e-20)
(1.33068 -0.414471 1.02921e-19)
(1.35715 -0.420042 -1.76845e-19)
(1.36851 -0.41781 9.57007e-20)
(0.175151 -0.0178089 -6.18781e-20)
(0.466715 -0.0681369 -1.08829e-19)
(0.709934 -0.137021 4.92809e-20)
(0.907632 -0.204468 3.48018e-21)
(1.06287 -0.262123 3.69289e-20)
(1.18002 -0.307246 5.1677e-20)
(1.26452 -0.339431 4.3232e-20)
(1.32207 -0.359969 -5.72784e-20)
(1.35785 -0.371657 4.61664e-20)
(1.37609 -0.375544 -6.28497e-20)
(0.152546 -0.00474277 -3.89897e-20)
(0.417852 -0.0337516 -1.40709e-20)
(0.649185 -0.0871431 5.05684e-20)
(0.845065 -0.144987 -2.20315e-20)
(1.00541 -0.198233 6.00811e-20)
(1.13196 -0.243066 -7.4076e-20)
(1.22789 -0.277873 1.85401e-20)
(1.29716 -0.302792 1.56635e-20)
(1.3437 -0.319674 -5.59872e-21)
(1.37066 -0.329218 2.20231e-20)
(0.129397 0.0049594 -4.67391e-20)
(0.365554 -0.00633747 -1.77656e-19)
(0.581297 -0.0451014 -1.38158e-20)
(0.77165 -0.0925244 5.33443e-21)
(0.933989 -0.139627 -2.23416e-19)
(1.06778 -0.182089 2.29904e-20)
(1.17411 -0.217507 -2.38036e-20)
(1.25511 -0.245112 -6.37028e-20)
(1.31331 -0.265876 1.38948e-19)
(1.35053 -0.280167 -2.20204e-19)
(0.106587 0.011372 -2.65153e-20)
(0.311925 0.0137855 3.81179e-19)
(0.508989 -0.0119065 4.90466e-20)
(0.690168 -0.0487908 -3.20774e-19)
(0.850972 -0.0885562 -3.71913e-20)
(0.989113 -0.126874 -3.43143e-19)
(1.10389 -0.160958 2.61079e-19)
(1.19576 -0.189426 -1.04148e-19)
(1.26578 -0.212485 1.93854e-19)
(1.31431 -0.230182 -1.49877e-19)
(0.0848694 0.0147346 -1.50052e-19)
(0.258934 0.0267271 1.56658e-19)
(0.435015 0.0120007 -1.05396e-19)
(0.603704 -0.0149277 7.04392e-19)
(0.759314 -0.0468287 3.62512e-19)
(0.898372 -0.0797452 -9.26286e-20)
(1.01885 -0.110864 3.52148e-19)
(1.11982 -0.138476 -2.25987e-19)
(1.20093 -0.162156 -7.18213e-20)
(1.26116 -0.181596 4.53265e-19)
(0.0648405 0.015411 -2.776e-19)
(0.208303 0.032977 3.7117e-19)
(0.361989 0.0267495 -6.78086e-19)
(0.515428 0.00857673 1.13575e-19)
(0.662334 -0.0156397 2.75426e-19)
(0.798616 -0.0425695 -3.37129e-19)
(0.921431 -0.069642 -5.84578e-19)
(1.02888 -0.0950662 3.07217e-19)
(1.1195 -0.117876 -3.93087e-19)
(1.19097 -0.137269 5.52964e-19)
(0.0469317 0.0138518 -6.85905e-20)
(0.161444 0.0333495 -3.7377e-19)
(0.292229 0.033026 1.77517e-19)
(0.428365 0.0219562 4.30319e-19)
(0.563453 0.00459722 -2.24393e-19)
(0.693271 -0.0164954 -2.16084e-19)
(0.81469 -0.039174 -3.58595e-19)
(0.925352 -0.0617341 -1.61193e-19)
(1.02307 -0.0826945 -3.81313e-20)
(1.10452 -0.100439 5.53019e-19)
(0.0314233 0.0105692 1.15405e-19)
(0.119425 0.0289355 -5.08174e-19)
(0.227638 0.0320505 8.37218e-19)
(0.345176 0.0262228 -4.50768e-19)
(0.465879 0.0144322 2.84107e-19)
(0.585772 -0.00162012 -3.4453e-19)
(0.701907 -0.0203322 3.75213e-19)
(0.812035 -0.0402091 3.21365e-19)
(0.91381 -0.0592014 6.89794e-19)
(1.00326 -0.0742942 -1.00341e-18)
(0.0184748 0.00612591 -3.58536e-19)
(0.0829809 0.0210613 6.44985e-19)
(0.169657 0.0255383 8.422e-21)
(0.268024 0.023189 -2.1629e-19)
(0.372367 0.0155377 -1.11362e-19)
(0.479178 0.00338139 8.70939e-20)
(0.586048 -0.0123473 -6.04424e-19)
(0.691411 -0.0305406 4.5772e-19)
(0.793518 -0.0485833 -5.79581e-19)
(0.888419 -0.061139 -2.32368e-19)
(0.0081565 0.00113072 6.17571e-19)
(0.0525561 0.011231 -1.72402e-19)
(0.119295 0.0156029 -3.11795e-19)
(0.198575 0.015391 8.19001e-19)
(0.285164 0.0107475 -7.81615e-19)
(0.375995 0.00153448 4.25867e-19)
(0.469247 -0.0121566 4.43679e-19)
(0.564338 -0.0300144 1.19037e-19)
(0.660955 -0.049407 1.21513e-19)
(0.756841 -0.0617065 -1.5113e-19)
(0.000462642 -0.00378775 -5.91041e-19)
(0.0283512 0.00100386 5.0309e-19)
(0.077247 0.00453802 -4.28683e-19)
(0.138253 0.00583787 5.20528e-19)
(0.206506 0.00393029 -1.50981e-19)
(0.279032 -0.0021082 -5.11709e-19)
(0.353985 -0.0130102 1.43398e-19)
(0.430942 -0.0296975 -2.31851e-19)
(0.510899 -0.0514833 -2.69518e-19)
(0.596315 -0.0686258 -7.32733e-19)
(-0.00471458 -0.00806705 -7.3932e-19)
(0.0103277 -0.00826539 5.26083e-19)
(0.0439934 -0.00568604 -9.92698e-19)
(0.0885632 -0.00283767 1.71739e-19)
(0.13955 -0.00126212 -6.46412e-19)
(0.193846 -0.00192266 -3.78127e-19)
(0.248872 -0.0051441 8.84951e-19)
(0.302671 -0.0111196 -1.18652e-18)
(0.354551 -0.0204049 2.24592e-19)
(0.401925 -0.0290931 -3.11107e-19)
(-0.00764063 -0.0113305 3.64318e-19)
(-0.00190636 -0.015731 1.38257e-19)
(0.0195314 -0.0140882 -3.98034e-20)
(0.0505242 -0.0099432 3.65037e-19)
(0.0873651 -0.00517334 1.04159e-18)
(0.127475 -0.000740789 3.50608e-19)
(0.168843 0.00315768 3.5435e-19)
(0.210247 0.00658529 -1.20008e-19)
(0.251703 0.00893337 -1.10275e-18)
(0.290802 0.010483 2.32552e-19)
(-0.00875333 -0.0134087 -1.03059e-19)
(-0.00922358 -0.0209897 2.93527e-19)
(0.00286138 -0.0202895 -7.40419e-20)
(0.0231031 -0.0154848 5.05456e-19)
(0.0487158 -0.00874579 -1.13479e-18)
(0.0777491 -0.00123448 9.40435e-20)
(0.108773 0.00651554 -5.14959e-19)
(0.140991 0.0140993 7.43458e-19)
(0.174184 0.0205787 -2.13292e-19)
(0.205793 0.0252046 -2.52026e-20)
(-0.00856621 -0.0142901 -7.01147e-20)
(-0.012754 -0.0239215 -3.52984e-19)
(-0.00754751 -0.0241207 8.55013e-19)
(0.00436927 -0.0193273 -4.35801e-19)
(0.0210972 -0.0119089 2.96354e-20)
(0.0412225 -0.0032446 1.32361e-19)
(0.0637033 0.00579109 -1.18533e-19)
(0.0879057 0.0144032 1.50787e-19)
(0.113387 0.0215003 5.13874e-19)
(0.138009 0.0262529 1.10431e-19)
(-0.00756906 -0.014062 -1.57519e-19)
(-0.0136389 -0.0245934 -1.56799e-19)
(-0.0133031 -0.0255398 -6.6972e-19)
(-0.00769516 -0.0212519 3.44939e-19)
(0.0020838 -0.0141278 -6.90942e-19)
(0.0150692 -0.00564459 1.52911e-19)
(0.0304991 0.00316284 1.68122e-19)
(0.0478238 0.01138 -1.74392e-19)
(0.066508 0.0179989 -1.10898e-19)
(0.0849494 0.0222788 -4.06871e-19)
(-0.00617773 -0.0128645 1.23224e-19)
(-0.0128994 -0.0231989 -2.59582e-20)
(-0.0158877 -0.0246345 4.51784e-22)
(-0.0149612 -0.0211277 -3.1149e-19)
(-0.010541 -0.0149225 7.65539e-19)
(-0.00322284 -0.00744465 -1.16366e-19)
(0.00644603 0.000277696 -2.83979e-19)
(0.0179844 0.00738557 3.40678e-19)
(0.0308476 0.0130598 -1.17666e-19)
(0.0438994 0.0166953 5.29064e-19)
(-0.0047188 -0.0108599 -2.31435e-20)
(-0.0113752 -0.020015 -1.21345e-19)
(-0.0165475 -0.0216166 -4.60928e-20)
(-0.0190045 -0.0189813 -5.69429e-20)
(-0.0186185 -0.0140309 -1.18822e-19)
(-0.0156907 -0.00800665 -3.6368e-19)
(-0.0105968 -0.00180749 4.44701e-19)
(-0.00374892 0.00385266 2.54698e-19)
(0.00433862 0.00836094 -4.47903e-20)
(0.0128847 0.0112569 -3.23426e-19)
(-0.00343347 -0.00821904 1.3147e-19)
(-0.00970887 -0.0153775 2.05178e-20)
(-0.0162491 -0.0168134 1.3377e-19)
(-0.0210429 -0.0150205 -1.48389e-20)
(-0.0235497 -0.0114644 1.14337e-19)
(-0.0238471 -0.00709959 1.2573e-19)
(-0.0221775 -0.0026149 1.84319e-19)
(-0.0188884 0.00146315 -5.11741e-19)
(-0.0144543 0.00471479 -9.2813e-20)
(-0.00940762 0.00681776 1.34488e-19)
(-0.00248933 -0.00511782 -6.64109e-20)
(-0.00835731 -0.00966637 -8.44045e-20)
(-0.0156846 -0.0106541 -3.905e-20)
(-0.021945 -0.00962574 1.8472e-19)
(-0.0263222 -0.00749715 8.70473e-20)
(-0.0287427 -0.00486687 1.7398e-20)
(-0.0293561 -0.00216508 -3.68627e-20)
(-0.0284601 0.000287645 -2.80354e-20)
(-0.0264961 0.00224747 2.36426e-19)
(-0.0238408 0.00352362 -1.29964e-19)
(-0.00199181 -0.00173719 3.38607e-20)
(-0.0076111 -0.00329622 3.76681e-20)
(-0.0152954 -0.00364746 -3.09024e-20)
(-0.0222627 -0.00331375 -2.73264e-20)
(-0.0275588 -0.00260636 -2.75082e-20)
(-0.0310338 -0.001729 -4.27778e-20)
(-0.0327893 -0.000827678 1.33727e-21)
(-0.0330961 -9.85682e-06 5.68629e-20)
(-0.0323776 0.000644583 -5.60967e-20)
(-0.0309357 0.00107246 8.23214e-20)
(-0.0067379 -0.00266069 3.89787e-21)
(0.065347 -0.00675386 2.4262e-21)
(0.284429 -0.00688568 3.48858e-22)
(0.388474 -0.00461855 -2.36369e-22)
(0.497505 -0.00403889 -1.74474e-23)
(0.582159 -0.00308552 4.53103e-23)
(0.645419 -0.00286617 5.21718e-23)
(0.722243 -0.00217675 -8.28874e-24)
(0.752099 -0.0022349 -1.74288e-24)
(0.834578 -0.00164961 1.12274e-22)
(0.0101799 -0.00828639 6.14096e-21)
(0.0807506 -0.0200969 2.24785e-22)
(0.296046 -0.0205034 -4.44058e-21)
(0.397367 -0.0137567 3.80884e-21)
(0.504314 -0.0120379 2.55676e-22)
(0.587436 -0.00919753 -2.02368e-22)
(0.649689 -0.0085476 2.20845e-22)
(0.725408 -0.00649158 1.177e-23)
(0.754817 -0.00667241 -4.69553e-25)
(0.836274 -0.00493107 -1.02538e-22)
(0.0437074 -0.0147993 6.4298e-21)
(0.111066 -0.0329553 -8.76871e-21)
(0.318833 -0.0336568 4.52748e-21)
(0.41482 -0.0225868 -3.21528e-21)
(0.517682 -0.0197968 2.46881e-22)
(0.597804 -0.0151441 -1.95149e-22)
(0.65809 -0.0140923 -8.14974e-23)
(0.731642 -0.0107088 -5.29947e-24)
(0.76018 -0.0110199 -9.86838e-26)
(0.839627 -0.00815103 -1.49053e-22)
(0.0932168 -0.0226791 -9.91333e-21)
(0.155335 -0.0450268 -1.21514e-20)
(0.351927 -0.046057 -5.84727e-21)
(0.44019 -0.0309206 3.27731e-21)
(0.537118 -0.0271678 -4.29547e-21)
(0.612909 -0.020823 1.25622e-21)
(0.670347 -0.0194154 -6.72696e-23)
(0.740763 -0.0147677 2.01624e-23)
(0.768044 -0.0152206 -9.18041e-24)
(0.844559 -0.0112704 5.59023e-23)
(0.157741 -0.0321991 2.79901e-20)
(0.212188 -0.0560215 1.8139e-20)
(0.394093 -0.0574372 6.68193e-21)
(0.472559 -0.0385913 -6.5615e-21)
(0.56193 -0.0340196 3.56459e-21)
(0.632245 -0.0261434 1.03883e-21)
(0.686072 -0.0244404 7.32044e-22)
(0.752508 -0.0186137 5.11361e-23)
(0.778204 -0.0192224 7.44545e-24)
(0.850962 -0.0142532 -2.93018e-22)
(0.235956 -0.0432948 -1.2652e-20)
(0.279898 -0.0656269 9.51877e-21)
(0.443802 -0.0675426 1.20464e-21)
(0.510793 -0.0454521 7.53987e-21)
(0.591264 -0.0402391 -1.76259e-21)
(0.655184 -0.0310279 -1.27679e-21)
(0.704784 -0.0291017 -7.60191e-22)
(0.766548 -0.0221999 -3.2085e-24)
(0.790399 -0.0229792 -1.79499e-23)
(0.858692 -0.0170669 3.20873e-22)
(0.326186 -0.0556921 -9.75604e-21)
(0.356444 -0.0735782 -2.59411e-20)
(0.499309 -0.0761682 -4.56234e-21)
(0.553604 -0.0513835 -4.14634e-21)
(0.624153 -0.0457374 2.16296e-21)
(0.681017 -0.035414 -6.01604e-22)
(0.72593 -0.0333462 8.54422e-22)
(0.782504 -0.025488 1.24145e-22)
(0.804331 -0.0264525 -4.54374e-24)