/*--------------------------------*- C++ -*----------------------------------*\
  =========                 |
  \\      /  F ield         | OpenFOAM: The Open Source CFD Toolbox
   \\    /   O peration     | Website:  https://openfoam.org
    \\  /    A nd           | Version:  6.0
     \\/     M anipulation  |
\*---------------------------------------------------------------------------*/
FoamFile
{
    version     2.0;
    format      ascii;
    class       volScalarField;
    location    "0.6";
    object      p;
}
// * * * * * * * * * * * * * * * * * * * * * * * * * * * * * * * * * * * * * //

dimensions      [0 2 -2 0 0 0 0];

internalField   nonuniform List<scalar> 
200
(
-1.02856e-08
-0.000171121
-0.000505648
-0.00098838
-0.00164455
-0.00251589
-0.00364958
-0.00509105
-0.00684392
-0.0087437
-0.0103048
-0.0108094
-0.00948589
-0.00523269
0.00339785
0.0167361
0.0319757
0.043251
0.0459631
0.0422049
0.000172481
-2.53709e-05
-0.000331772
-0.000760994
-0.00134114
-0.002087
-0.00300495
-0.00410553
-0.00544649
-0.00716214
-0.00930086
-0.011471
-0.012597
-0.0109087
-0.00442642
0.00759097
0.0229184
0.0360486
0.0414757
0.0393014
0.000532613
0.000257174
-3.55234e-05
-0.000408697
-0.00090652
-0.00153154
-0.00230517
-0.00335157
-0.005006
-0.00779325
-0.0120637
-0.0173959
-0.0222669
-0.0243253
-0.0211402
-0.0113052
0.00425383
0.0212342
0.0330407
0.0361695
0.000919972
0.000545006
0.000255697
-7.6966e-05
-0.000515957
-0.00106799
-0.00182672
-0.00313731
-0.00572672
-0.0104937
-0.0178111
-0.0268576
-0.0356126
-0.0414901
-0.0420125
-0.0353
-0.020768
-0.00047673
0.0196206
0.032041
0.00107499
0.00060321
0.000321296
2.76096e-05
-0.000344511
-0.0008062
-0.00155362
-0.0031826
-0.00675713
-0.0133681
-0.0232257
-0.0350867
-0.0465891
-0.0551244
-0.0584341
-0.0547057
-0.0425906
-0.0220026
0.0036486
0.0254853
0.000652897
0.000117722
-8.86233e-05
-0.000257454
-0.000445254
-0.000664849
-0.00121807
-0.00289766
-0.00695094
-0.014495
-0.0255809
-0.0387405
-0.0514698
-0.0611762
-0.0658028
-0.0638515
-0.0540489
-0.035218
-0.00801822
0.0205762
-0.000845339
-0.0013254
-0.00119396
-0.00097805
-0.000717266
-0.000415869
-0.000475642
-0.00181288
-0.00571741
-0.0132387
-0.0243523
-0.0375772
-0.0504281
-0.0602734
-0.065019
-0.06317
-0.0535471
-0.0344877
-0.0048842
0.0306217
-0.00425794
-0.00421496
-0.00308913
-0.00215583
-0.00112056
2.41178e-06
0.000701331
-2.01777e-05
-0.0034233
-0.0104386
-0.0210033
-0.033712
-0.0461779
-0.0556287
-0.0595941
-0.0558174
-0.0422248
-0.0159263
0.0252653
0.0762178
-0.010806
-0.00971603
-0.00628359
-0.00347235
-0.00131811
0.00063486
0.00199434
0.00177381
-0.00120987
-0.00773617
-0.0177096
-0.0297813
-0.0416809
-0.0504303
-0.0529597
-0.045452
-0.0234073
0.0194882
0.0868179
0.170342
-0.0385349
-0.0128576
-0.00307781
-0.000159569
0.001677
0.00350827
0.0047425
0.00436961
0.00129863
-0.00513267
-0.0148282
-0.0264963
-0.0379744
-0.0461567
-0.0475173
-0.0368035
-0.00670928
0.0544539
0.155111
0.284485
)
;

boundaryField
{
    movingWall
    {
        type            zeroGradient;
    }
    fixedWalls
    {
        type            zeroGradient;
    }
    frontAndBack
    {
        type            empty;
    }
}


// ************************************************************************* //
