/*--------------------------------*- C++ -*----------------------------------*\
  =========                 |
  \\      /  F ield         | OpenFOAM: The Open Source CFD Toolbox
   \\    /   O peration     | Website:  https://openfoam.org
    \\  /    A nd           | Version:  6.0
     \\/     M anipulation  |
\*---------------------------------------------------------------------------*/
FoamFile
{
    version     2.0;
    format      ascii;
    class       surfaceScalarField;
    location    "0.3";
    object      phi;
}
// * * * * * * * * * * * * * * * * * * * * * * * * * * * * * * * * * * * * * //

dimensions      [0 3 -1 0 0 0 0];

internalField   nonuniform List<scalar> 
1540
(
6.88395e-09
-6.88412e-09
8.798e-09
-1.91404e-09
8.84651e-10
7.91324e-09
-1.58236e-08
1.67083e-08
-3.88883e-08
2.30648e-08
-6.60308e-08
2.71427e-08
-9.56561e-08
2.96255e-08
-1.26928e-07
3.12721e-08
-1.59642e-07
3.27136e-08
-1.94051e-07
3.44086e-08
-2.30724e-07
3.66731e-08
-2.70451e-07
3.97271e-08
-3.14185e-07
4.3734e-08
-3.63009e-07
4.88245e-08
-4.18114e-07
5.51048e-08
-4.80763e-07
6.26495e-08
-5.52245e-07
7.14818e-08
-6.33784e-07
8.15393e-08
-7.2641e-07
9.26259e-08
-8.30759e-07
1.04349e-07
-9.46801e-07
1.16042e-07
-1.07349e-06
1.26687e-07
-1.20833e-06
1.3484e-07
-1.34694e-06
1.38611e-07
-1.48265e-06
1.3571e-07
-1.60628e-06
1.2363e-07
-1.70627e-06
9.99898e-08
-1.76934e-06
6.30697e-08
-1.78185e-06
1.25071e-08
-1.7319e-06
-4.99421e-08
-1.61214e-06
-1.19767e-07
-1.42268e-06
-1.89452e-07
-1.17374e-06
-2.48946e-07
-8.86591e-07
-2.87147e-07
-5.92165e-07
-2.94427e-07
-3.26348e-07
-2.65817e-07
-1.22584e-07
-2.03764e-07
-3.5606e-09
-1.19024e-07
2.68196e-08
-3.03802e-08
2.68194e-08
2.0993e-09
-8.98357e-09
-1.20387e-08
1.22238e-08
-4.7469e-08
4.33434e-08
-1.02091e-07
7.13306e-08
-1.71524e-07
9.24972e-08
-2.51394e-07
1.07013e-07
-3.38412e-07
1.16644e-07
-4.30687e-07
1.23547e-07
-5.27625e-07
1.29652e-07
-6.29678e-07
1.36461e-07
-7.38081e-07
1.45076e-07
-8.54647e-07
1.56293e-07
-9.81614e-07
1.70702e-07
-1.12153e-06
1.88737e-07
-1.27711e-06
2.10687e-07
-1.45112e-06
2.36657e-07
-1.64612e-06
2.66482e-07
-1.86419e-06
2.99611e-07
-2.10651e-06
3.34944e-07
-2.3728e-06
3.70645e-07
-2.66071e-06
4.03951e-07
-2.96503e-06
4.31009e-07
-3.27701e-06
4.4682e-07
-3.58376e-06
4.4536e-07
-3.86804e-06
4.19984e-07
-4.10857e-06
3.64162e-07
-4.28118e-06
2.72599e-07
-4.36076e-06
1.42656e-07
-4.32421e-06
-2.40474e-08
-4.15403e-06
-2.20118e-07
-3.8425e-06
-4.31303e-07
-3.39563e-06
-6.3632e-07
-2.83639e-06
-8.08188e-07
-2.20585e-06
-9.17683e-07
-1.56101e-06
-9.3927e-07
-9.67792e-07
-8.59032e-07
-4.89021e-07
-6.82534e-07
-1.69053e-07
-4.38992e-07
-1.85479e-08
-1.80886e-07
8.27185e-09
-9.92216e-09
9.38613e-10
-5.06212e-08
5.29228e-08
-1.22566e-07
1.15288e-07
-2.21e-07
1.69765e-07
-3.39664e-07
2.11162e-07
-4.72804e-07
2.40152e-07
-6.16164e-07
2.60004e-07
-7.67289e-07
2.74673e-07
-9.25396e-07
2.8776e-07
-1.09108e-06
3.02147e-07
-1.26601e-06
3.20003e-07
-1.45264e-06
3.42926e-07
-1.65402e-06
3.72079e-07
-1.87354e-06
4.08261e-07
-2.11475e-06
4.51893e-07
-2.38101e-06
5.02916e-07
-2.67514e-06
5.60617e-07
-2.99892e-06
6.23387e-07
-3.35242e-06
6.88444e-07
-3.7333e-06
7.51525e-07
-4.13599e-06
8.06644e-07
-4.55095e-06
8.45964e-07
-4.96406e-06
8.59932e-07
-5.35647e-06
8.37772e-07
-5.70492e-06
7.68435e-07
-5.98278e-06
6.42018e-07
-6.16177e-06
4.51586e-07
-6.21436e-06
1.9525e-07
-6.11669e-06
-1.21712e-07
-5.85185e-06
-4.8496e-07
-5.41342e-06
-8.69739e-07
-4.80915e-06
-1.24059e-06
-4.06444e-06
-1.5529e-06
-3.22467e-06
-1.75745e-06
-2.35487e-06
-1.80907e-06
-1.5343e-06
-1.67961e-06
-8.43944e-07
-1.37289e-06
-3.47788e-07
-9.35148e-07
-7.31763e-08
-4.55497e-07
-6.49043e-08
-2.46472e-08
2.55856e-08
-9.75333e-08
1.25809e-07
-2.1188e-07
2.29634e-07
-3.58585e-07
3.1647e-07
-5.28823e-07
3.814e-07
-7.15401e-07
4.26731e-07
-9.13319e-07
4.57922e-07
-1.11979e-06
4.81141e-07
-1.33396e-06
5.01928e-07
-1.55654e-06
5.24729e-07
-1.78945e-06
5.52917e-07
-2.03551e-06
5.8898e-07
-2.29812e-06
6.34689e-07
-2.58102e-06
6.91166e-07
-2.88795e-06
7.58818e-07
-3.22219e-06
8.37159e-07
-3.58611e-06
9.24531e-07
-3.98048e-06
1.01776e-06
-4.40381e-06
1.11178e-06
-4.85159e-06
1.1993e-06
-5.31557e-06
1.27063e-06
-5.78331e-06
1.3137e-06
-6.23796e-06
1.31458e-06
-6.65856e-06
1.25837e-06
-7.02083e-06
1.1307e-06
-7.29839e-06
9.19584e-07
-7.46442e-06
6.17612e-07
-7.49338e-06
2.24212e-07
-7.36299e-06
-2.52103e-07
-7.05633e-06
-7.91622e-07
-6.56446e-06
-1.36161e-06
-5.88985e-06
-1.9152e-06
-5.0508e-06
-2.39194e-06
-4.08635e-06
-2.7219e-06
-3.05983e-06
-2.83559e-06
-2.05771e-06
-2.68173e-06
-1.17922e-06
-2.25138e-06
-5.14901e-07
-1.59946e-06
-1.20259e-07
-8.50139e-07
-1.85164e-07
-4.05782e-08
6.61637e-08
-1.48685e-07
2.33915e-07
-3.0873e-07
3.8968e-07
-5.06003e-07
5.13742e-07
-7.28404e-07
6.03801e-07
-9.67032e-07
6.6536e-07
-1.21611e-06
7.07e-07
-1.47256e-06
7.37591e-07
-1.73547e-06
7.64842e-07
-2.00561e-06
7.94863e-07
-2.28495e-06
8.3226e-07
-2.57637e-06
8.80405e-07
-2.88331e-06
9.41626e-07
-3.2094e-06
1.01726e-06
-3.55811e-06
1.10752e-06
-3.93221e-06
1.21126e-06
-4.33327e-06
1.32559e-06
-4.76097e-06
1.44546e-06
-5.21251e-06
1.56332e-06
-5.68199e-06
1.66879e-06
-6.16005e-06
1.74868e-06
-6.63364e-06
1.7873e-06
-7.08632e-06
1.76726e-06
-7.49874e-06
1.67079e-06
-7.84949e-06
1.48145e-06
-8.11608e-06
1.18617e-06
-8.27577e-06
7.77304e-07
-8.30632e-06
2.5476e-07
-8.18659e-06
-3.71835e-07
-7.89743e-06
-1.08079e-06
-7.42337e-06
-1.83567e-06
-6.75592e-06
-2.58265e-06
-5.89907e-06
-3.24879e-06
-4.87719e-06
-3.74378e-06
-3.74389e-06
-3.9689e-06
-2.58761e-06
-3.838e-06
-1.52686e-06
-3.31213e-06
-6.87703e-07
-2.43862e-06
-1.66636e-07
-1.37121e-06
-3.518e-07
-5.71313e-08
1.23295e-07
-2.01946e-07
3.7873e-07
-4.09036e-07
5.96769e-07
-6.57163e-07
7.6187e-07
-9.30379e-07
8.77017e-07
-1.21779e-06
9.52771e-07
-1.51273e-06
1.00194e-06
-1.8118e-06
1.03666e-06
-2.11396e-06
1.06701e-06
-2.41992e-06
1.10082e-06
-2.73156e-06
1.1439e-06
-3.05157e-06
1.20042e-06
-3.38313e-06
1.27318e-06
-3.72949e-06
1.36362e-06
-4.0936e-06
1.47163e-06
-4.47758e-06
1.59525e-06
-4.88227e-06
1.73027e-06
-5.30662e-06
1.86982e-06
-5.74732e-06
2.00401e-06
-6.19839e-06
2.11986e-06
-6.65111e-06
2.2014e-06
-7.09417e-06
2.23035e-06
-7.51402e-06
2.18711e-06
-7.89549e-06
2.05226e-06
-8.2223e-06
1.80827e-06
-8.47744e-06
1.44131e-06
-8.64318e-06
9.43039e-07
-8.70071e-06
3.12296e-07
-8.62967e-06
-4.42877e-07
-8.40782e-06
-1.30263e-06
-8.0118e-06
-2.2317e-06
-7.41972e-06
-3.17473e-06
-6.61702e-06
-4.05148e-06
-5.60655e-06
-4.75425e-06
-4.42275e-06
-5.15269e-06
-3.14658e-06
-5.11417e-06
-1.91141e-06
-4.5473e-06
-8.85104e-07
-3.46493e-06
-2.20715e-07
-2.03559e-06
-5.72515e-07
-7.40825e-08
1.97377e-07
-2.56244e-07
5.60891e-07
-5.10382e-07
8.50908e-07
-8.08008e-07
1.0595e-06
-1.12889e-06
1.1979e-06
-1.45996e-06
1.28383e-06
-1.79357e-06
1.33555e-06
-2.12596e-06
1.36905e-06
-2.45595e-06
1.397e-06
-2.78407e-06
1.42894e-06
-3.11197e-06
1.4718e-06
-3.44204e-06
1.53049e-06
-3.77701e-06
1.60816e-06
-4.11964e-06
1.70625e-06
-4.47231e-06
1.8243e-06
-4.83664e-06
1.95957e-06
-5.21304e-06
2.10667e-06
-5.60041e-06
2.25718e-06
-5.99581e-06
2.39942e-06
-6.39446e-06
2.51851e-06
-6.78977e-06
2.59672e-06
-7.17368e-06
2.61426e-06
-7.53702e-06
2.55046e-06
-7.86993e-06
2.38517e-06
-8.16201e-06
2.10035e-06
-8.40214e-06
1.68144e-06
-8.57781e-06
1.11871e-06
-8.6741e-06
4.0859e-07
-8.67231e-06
-4.44677e-07
-8.54865e-06
-1.42629e-06
-8.27375e-06
-2.5066e-06
-7.81371e-06
-3.63476e-06
-7.13474e-06
-4.73046e-06
-6.21337e-06
-5.67562e-06
-5.05463e-06
-6.31143e-06
-3.71702e-06
-6.45179e-06
-2.3351e-06
-5.92922e-06
-1.11679e-06
-4.68324e-06
-2.88109e-07
-2.86427e-06
-8.60625e-07
-9.14586e-08
2.88836e-07
-3.11314e-07
7.80747e-07
-6.11721e-07
1.15131e-06
-9.5624e-07
1.40402e-06
-1.32007e-06
1.56174e-06
-1.68791e-06
1.65167e-06
-2.05121e-06
1.69885e-06
-2.40589e-06
1.72373e-06
-2.75066e-06
1.74177e-06
-3.08589e-06
1.76417e-06
-3.41299e-06
1.79889e-06
-3.73395e-06
1.85145e-06
-4.05108e-06
1.92528e-06
-4.36663e-06
2.02181e-06
-4.68258e-06
2.14025e-06
-5.00025e-06
2.27725e-06
-5.32012e-06
2.42654e-06
-5.6416e-06
2.57865e-06
-5.96294e-06
2.72077e-06
-6.28139e-06
2.83695e-06
-6.59332e-06
2.90865e-06
-6.89458e-06
2.91552e-06
-7.18079e-06
2.83666e-06
-7.44745e-06
2.65184e-06
-7.68989e-06
2.34279e-06
-7.90269e-06
1.89423e-06
-8.07874e-06
1.29477e-06
-8.20788e-06
5.37729e-07
-8.27505e-06
-3.77505e-07
-8.25823e-06
-1.44311e-06
-8.12638e-06
-2.63846e-06
-7.83826e-06
-3.92288e-06
-7.34411e-06
-5.22461e-06
-6.59344e-06
-6.42629e-06
-5.55367e-06
-7.3512e-06
-4.24331e-06
-7.76215e-06
-2.77476e-06
-7.39776e-06
-1.38075e-06
-6.07726e-06
-3.7131e-07
-3.87372e-06
-1.23193e-06
-1.09578e-07
3.98414e-07
-3.67749e-07
1.03892e-06
-7.13369e-07
1.49693e-06
-1.10124e-06
1.79188e-06
-1.50185e-06
1.96235e-06
-1.89785e-06
2.04766e-06
-2.28008e-06
2.08108e-06
-2.64441e-06
2.08807e-06
-2.98961e-06
2.08697e-06
-3.31605e-06
2.0906e-06
-3.62497e-06
2.10782e-06
-3.91812e-06
2.1446e-06
-4.19741e-06
2.20458e-06
-4.46478e-06
2.28917e-06
-4.72193e-06
2.3974e-06
-4.97022e-06
2.52554e-06
-5.21052e-06
2.66684e-06
-5.44318e-06
2.81131e-06
-5.66811e-06
2.94569e-06
-5.88491e-06
3.05376e-06
-6.09314e-06
3.11688e-06
-6.29253e-06
3.11491e-06
-6.48315e-06
3.02728e-06
-6.66539e-06
2.83408e-06
-6.83968e-06
2.51708e-06
-7.00589e-06
2.06044e-06
-7.16236e-06
1.45124e-06
-7.30456e-06
6.79931e-07
-7.42316e-06
-2.5891e-07
-7.50142e-06
-1.36485e-06
-7.51188e-06
-2.62799e-06
-7.41271e-06
-4.02206e-06
-7.14526e-06
-5.49205e-06
-6.6368e-06
-6.93475e-06
-5.81507e-06
-8.17293e-06
-4.64398e-06
-8.93324e-06
-3.18487e-06
-8.85687e-06
-1.66366e-06
-7.59847e-06
-4.7032e-07
-5.06705e-06
-1.70225e-06
-1.29218e-07
5.27632e-07
-4.2728e-07
1.33698e-06
-8.17233e-07
1.88689e-06
-1.24408e-06
2.21873e-06
-1.67371e-06
2.39198e-06
-2.08729e-06
2.46125e-06
-2.47568e-06
2.46947e-06
-2.83525e-06
2.44763e-06
-3.16526e-06
2.41698e-06
-3.4664e-06
2.39175e-06
-3.74006e-06
2.38147e-06
-3.98787e-06
2.39242e-06
-4.21162e-06
2.42832e-06
-4.41305e-06
2.4906e-06
-4.5938e-06
2.57816e-06
-4.75545e-06
2.68719e-06
-4.89945e-06
2.81084e-06
-5.02727e-06
2.93913e-06
-5.14052e-06
3.05895e-06
-5.24116e-06
3.15439e-06
-5.33166e-06
3.20738e-06
-5.4152e-06
3.19846e-06
-5.49571e-06
3.10779e-06
-5.57771e-06
2.91607e-06
-5.66601e-06
2.60538e-06
-5.76518e-06
2.15961e-06
-5.87878e-06
1.56484e-06
-6.00817e-06
8.09325e-07
-6.15088e-06
-1.16203e-07
-6.29792e-06
-1.2178e-06
-6.42984e-06
-2.49607e-06
-6.51115e-06
-3.94075e-06
-6.48389e-06
-5.51932e-06
-6.26345e-06
-7.15518e-06
-5.74439e-06
-8.69199e-06
-4.83031e-06
-9.84732e-06
-3.5049e-06
-1.01823e-05
-1.94231e-06
-9.16105e-06
-5.83499e-07
-6.42587e-06
-2.28575e-06
-1.51938e-07
6.7957e-07
-4.93333e-07
1.67837e-06
-9.27224e-07
2.32078e-06
-1.38755e-06
2.67906e-06
-1.83616e-06
2.84059e-06
-2.25396e-06
2.87904e-06
-2.63296e-06
2.84847e-06
-2.97096e-06
2.78564e-06
-3.26847e-06
2.71448e-06
-3.52704e-06
2.65032e-06
-3.74858e-06
2.60302e-06
-3.93502e-06
2.57885e-06
-4.08818e-06
2.58149e-06
-4.20982e-06
2.61224e-06
-4.30166e-06
2.66999e-06
-4.3655e-06
2.75103e-06
-4.4034e-06
2.84874e-06
-4.41783e-06
2.95356e-06
-4.41189e-06
3.05301e-06
-4.38953e-06
3.13202e-06
-4.35567e-06
3.17352e-06
-4.31633e-06
3.15912e-06
-4.27855e-06
3.07001e-06
-4.25026e-06
2.88778e-06
-4.23991e-06
2.59502e-06
-4.25608e-06
2.17578e-06
-4.30689e-06
1.61565e-06
-4.39918e-06
9.01611e-07
-4.53718e-06
2.17979e-08
-4.72036e-06
-1.03462e-06
-4.93963e-06
-2.27679e-06
-5.17119e-06
-3.7092e-06
-5.3673e-06
-5.3232e-06
-5.44539e-06
-7.0771e-06
-5.28167e-06
-8.85571e-06
-4.72642e-06
-1.04026e-05
-3.66998e-06
-1.12387e-05
-2.18599e-06
-1.0645e-05
-7.08355e-07
-7.9035e-06
-2.99411e-06
-1.807e-07
8.6027e-07
-5.71942e-07
2.06962e-06
-1.04979e-06
2.79863e-06
-1.53582e-06
3.16509e-06
-1.98948e-06
3.29425e-06
-2.39358e-06
3.28315e-06
-2.74323e-06
3.19811e-06
-3.03909e-06
3.0815e-06
-3.28393e-06
2.95932e-06
-3.48095e-06
2.84734e-06
-3.63314e-06
2.75521e-06
-3.74308e-06
2.68879e-06
-3.81294e-06
2.65134e-06
-3.84459e-06
2.64389e-06
-3.83986e-06
2.66526e-06
-3.80071e-06
2.71188e-06
-3.72956e-06
2.77759e-06
-3.62955e-06
2.85355e-06
-3.50482e-06
2.92828e-06
-3.36074e-06
2.98794e-06
-3.20402e-06
3.0168e-06
-3.04278e-06
2.99788e-06
-2.88647e-06
2.91371e-06
-2.74565e-06
2.74696e-06
-2.6317e-06
2.48107e-06
-2.55647e-06
2.10055e-06
-2.53183e-06
1.59101e-06
-2.56912e-06
9.38905e-07
-2.67831e-06
1.30988e-07
-2.86648e-06
-8.46455e-07
-3.13502e-06
-2.00826e-06
-3.47424e-06
-3.36998e-06
-3.85367e-06
-4.94377e-06
-4.20649e-06
-6.72427e-06
-4.41084e-06
-8.65136e-06
-4.2831e-06
-1.05303e-05
-3.62169e-06
-1.19001e-05
-2.3594e-06
-1.19073e-05
-8.41992e-07
-9.42091e-06
-3.8361e-06
-2.2105e-07
1.08132e-06
-6.73218e-07
2.52178e-06
-1.19434e-06
3.31975e-06
-1.69323e-06
3.66397e-06
-2.13068e-06
3.73171e-06
-2.49537e-06
3.64783e-06
-2.78834e-06
3.49108e-06
-3.01514e-06
3.3083e-06
-3.18217e-06
3.12634e-06
-3.29517e-06
2.96034e-06
-3.35883e-06
2.81888e-06
-3.37677e-06
2.70673e-06
-3.35169e-06
2.62626e-06
-3.28566e-06
2.57787e-06
-3.1805e-06
2.5601e-06
-3.03811e-06
2.56949e-06
-2.86088e-06
2.60037e-06
-2.65211e-06
2.64478e-06
-2.41632e-06
2.69249e-06
-2.15953e-06
2.73115e-06
-1.88943e-06
2.7467e-06
-1.61541e-06
2.72386e-06
-1.34848e-06
2.64678e-06
-1.10106e-06
2.49954e-06
-8.8671e-07
2.26672e-06
-7.19776e-07
1.93362e-06
-6.15075e-07
1.48631e-06
-5.87493e-07
9.11324e-07
-6.51501e-07
1.94996e-07
-8.20349e-07
-6.77607e-07
-1.10446e-06
-1.72415e-06
-1.50788e-06
-2.96656e-06
-2.02027e-06
-4.43138e-06
-2.60063e-06
-6.14391e-06
-3.14959e-06
-8.1024e-06
-3.47823e-06
-1.02017e-05
-3.31305e-06
-1.20653e-05
-2.42462e-06
-1.27958e-05
-9.80179e-07
-1.08653e-05
-4.81628e-06
-2.83417e-07
1.36474e-06
-8.13436e-07
3.0518e-06
-1.37253e-06
3.87885e-06
-1.86e-06
4.15144e-06
-2.24617e-06
4.11788e-06
-2.53199e-06
3.93366e-06
-2.7287e-06
3.68779e-06
-2.84926e-06
3.42886e-06
-2.9052e-06
3.18228e-06
-2.9057e-06
2.96085e-06
-2.85762e-06
2.7708e-06
-2.76583e-06
2.61493e-06
-2.63358e-06
2.49401e-06
-2.46303e-06
2.40732e-06
-2.25574e-06
2.35281e-06
-2.01315e-06
2.32689e-06
-1.73713e-06
2.32435e-06
-1.43046e-06
2.33811e-06
-1.09726e-06
2.35929e-06
-7.43323e-07
2.37721e-06
-3.76356e-07
2.37973e-06
-6.04549e-09
2.35355e-06
3.55992e-07
2.28474e-06
6.96378e-07
2.15915e-06
1.00023e-06
1.96287e-06
1.25145e-06
1.68239e-06
1.43304e-06
1.30473e-06
1.52732e-06
8.17045e-07
1.51623e-06
2.06082e-07
1.38161e-06
-5.42986e-07
1.10575e-06
-1.44829e-06
6.7304e-07
-2.53385e-06
7.47285e-08
-3.83307e-06
-6.7801e-07
-5.39117e-06
-1.52421e-06
-7.25619e-06
-2.30178e-06
-9.42411e-06
-2.70225e-06
-1.16648e-05
-2.33781e-06
-1.31602e-05
-1.11335e-06
-1.20898e-05
-5.92962e-06
-3.87285e-07
1.75202e-06
-1.01673e-06
3.68125e-06
-1.59261e-06
4.45473e-06
-2.01913e-06
4.57796e-06
-2.29272e-06
4.39147e-06
-2.43679e-06
4.07773e-06
-2.47818e-06
3.72918e-06
-2.44004e-06
3.39072e-06
-2.34023e-06
3.08247e-06
-2.19171e-06
2.81233e-06
-2.00341e-06
2.5825e-06
-1.78109e-06
2.39261e-06
-1.52815e-06
2.24106e-06
-1.24634e-06
2.12551e-06
-9.36428e-07
2.0429e-06
-5.98859e-07
1.98933e-06
-2.34331e-07
1.95982e-06
1.5561e-07
1.94817e-06
5.68069e-07
1.94683e-06
9.98383e-07
1.9469e-06
1.43983e-06
1.93828e-06
1.88346e-06
1.90992e-06
2.31808e-06
1.85012e-06
2.73036e-06
1.74688e-06
3.10501e-06
1.58821e-06
3.42503e-06
1.36237e-06
3.67193e-06
1.05783e-06
3.82589e-06
6.63087e-07
3.86585e-06
1.6612e-07
3.7695e-06
-4.46633e-07
3.51317e-06
-1.19196e-06
3.07204e-06
-2.09272e-06
2.42179e-06
-3.18282e-06
1.54585e-06
-4.51523e-06
4.594e-07
-6.16975e-06
-7.31235e-07
-8.23347e-06
-1.73331e-06
-1.06628e-05
-2.03492e-06
-1.28586e-05
-1.21665e-06
-1.29081e-05
-7.14627e-06
-5.66832e-07
2.31885e-06
-1.30968e-06
4.42409e-06
-1.83458e-06
4.97963e-06
-2.09611e-06
4.83949e-06
-2.1481e-06
4.44346e-06
-2.0503e-06
3.97993e-06
-1.85052e-06
3.52939e-06
-1.58333e-06
3.12353e-06
-1.27234e-06
2.77148e-06
-9.32839e-07
2.47283e-06
-5.74151e-07
2.22381e-06
-2.01387e-07
2.01985e-06
1.83292e-07
1.85639e-06
5.79692e-07
1.72911e-06
9.88771e-07
1.63382e-06
1.41193e-06
1.56616e-06
1.85037e-06
1.52138e-06
2.30449e-06
1.49406e-06
2.77332e-06
1.47799e-06
3.25412e-06
1.4661e-06
3.74198e-06
1.45043e-06
4.22956e-06
1.42234e-06
4.70705e-06
1.37263e-06
5.16209e-06
1.29183e-06
5.57994e-06
1.17037e-06
5.94355e-06
9.9876e-07
6.23374e-06
7.67635e-07
6.42925e-06
4.67581e-07
6.50664e-06
8.87251e-08
6.44011e-06
-3.80099e-07
6.20099e-06
-9.52836e-07
5.75715e-06
-1.64889e-06
5.07255e-06
-2.49823e-06
4.1089e-06
-3.55157e-06
2.83813e-06
-4.89898e-06
1.29218e-06
-6.68752e-06
-3.09937e-07
-9.06063e-06
-1.40347e-06
-1.17651e-05
-1.22781e-06
-1.30837e-05
-8.37408e-06
-8.70705e-07
3.18956e-06
-1.67457e-06
5.22796e-06
-1.95556e-06
5.26062e-06
-1.8389e-06
4.72283e-06
-1.48491e-06
4.08947e-06
-1.00056e-06
3.49558e-06
-4.52385e-07
2.98122e-06
1.19319e-07
2.55183e-06
6.91522e-07
2.19928e-06
1.25223e-06
1.91212e-06
1.79633e-06
1.67972e-06
2.32295e-06
1.49323e-06
2.83389e-06
1.34544e-06
3.33251e-06
1.23049e-06
3.82294e-06
1.14339e-06
4.30944e-06
1.07966e-06
4.79584e-06
1.03498e-06
5.28498e-06
1.00491e-06
5.77831e-06
9.84667e-07
6.27536e-06
9.69043e-07
6.77345e-06
9.52342e-07
7.26736e-06
9.28426e-07
7.74919e-06
8.90807e-07
8.20824e-06
8.32785e-07
8.63102e-06
7.47588e-07
9.00129e-06
6.28483e-07
9.30011e-06
4.68824e-07
9.50572e-06
2.61963e-07
9.59347e-06
9.78749e-10
9.5353e-06
-3.21926e-07
9.29905e-06
-7.16589e-07
8.8473e-06
-1.19714e-06
8.13564e-06
-1.78656e-06
7.11041e-06
-2.52635e-06
5.70949e-06
-3.49806e-06
3.88689e-06
-4.86492e-06
1.73264e-06
-6.90638e-06
-2.48432e-07
-9.78401e-06
-1.00904e-06
-1.23231e-05
-9.38312e-06
-1.31566e-06
4.50522e-06
-1.81036e-06
5.72266e-06
-1.35685e-06
4.80711e-06
-4.85635e-07
3.85161e-06
5.15438e-07
3.0884e-06
1.52501e-06
2.48601e-06
2.48947e-06
2.01676e-06
3.38617e-06
1.65513e-06
4.20919e-06
1.37625e-06
4.96128e-06
1.16003e-06
5.64922e-06
9.9178e-07
6.2815e-06
8.60945e-07
6.86718e-06
7.59767e-07
7.41524e-06
6.82432e-07
7.9342e-06
6.24432e-07
8.43179e-06
5.82073e-07
8.91466e-06
5.52113e-07
9.38808e-06
5.31485e-07
9.85564e-06
5.17114e-07
1.03189e-05
5.05793e-07
1.07771e-05
4.94125e-07
1.1227e-05
4.78518e-07
1.16626e-05
4.5522e-07
1.2075e-05
4.20387e-07
1.24524e-05
3.7016e-07
1.27802e-05
3.00744e-07
1.30405e-05
2.08443e-07
1.32129e-05
8.96419e-08
1.32732e-05
-5.9332e-08
1.31938e-05
-2.42545e-07
1.29424e-05
-4.65174e-07
1.24802e-05
-7.34996e-07
1.17593e-05
-1.06561e-06
1.07167e-05
-1.48376e-06
9.26592e-06
-2.04728e-06
7.29073e-06
-2.88973e-06
4.7073e-06
-4.32295e-06
1.78722e-06
-6.86393e-06
-2.99008e-07
-1.02369e-05
-9.68213e-06
-1.32966e-06
5.83488e-06
-4.39269e-08
4.43692e-06
2.00517e-06
2.75802e-06
3.93036e-06
1.92642e-06
5.60272e-06
1.41604e-06
7.03568e-06
1.05305e-06
8.25665e-06
7.95783e-07
9.29666e-06
6.15123e-07
1.01865e-05
4.86436e-07
1.09535e-05
3.92994e-07
1.1621e-05
3.24262e-07
1.22086e-05
2.73406e-07
1.27325e-05
2.35792e-07
1.32068e-05
2.0819e-07
1.36429e-05
1.88271e-07
1.40507e-05
1.7427e-07
1.44381e-05
1.64744e-07
1.48112e-05
1.58419e-07
1.51742e-05
1.54083e-07
1.55295e-05
1.50523e-07
1.58771e-05
1.46495e-07
1.62149e-05
1.40708e-07
1.65383e-05
1.31839e-07
1.68401e-05
1.18559e-07
1.71107e-05
9.95616e-08
1.73379e-05
7.36002e-08
1.75068e-05
3.95117e-08
1.76002e-05
-3.77908e-09
1.75982e-05
-5.72992e-08
1.74778e-05
-1.22141e-07
1.72123e-05
-1.99727e-07
1.67697e-05
-2.92355e-07
1.61085e-05
-4.04453e-07
1.51703e-05
-5.45493e-07
1.38614e-05
-7.38389e-07
1.20172e-05
-1.04554e-06
9.36102e-06
-1.66677e-06
5.65627e-06
-3.15919e-06
1.56739e-06
-6.14802e-06
-8.11474e-06
5.83488e-06
1.02718e-05
1.30298e-05
1.49562e-05
1.63723e-05
1.74253e-05
1.82211e-05
1.88362e-05
1.93227e-05
1.97157e-05
2.00399e-05
2.03133e-05
2.05491e-05
2.07573e-05
2.09456e-05
2.11199e-05
2.12846e-05
2.1443e-05
2.15971e-05
2.17476e-05
2.18941e-05
2.20348e-05
2.21667e-05
2.22852e-05
2.23848e-05
2.24584e-05
2.24979e-05
2.24941e-05
2.24368e-05
2.23147e-05
2.2115e-05
2.18226e-05
2.14181e-05
2.08727e-05
2.01343e-05
1.90887e-05
1.7422e-05
1.42628e-05
8.11474e-06
)
;

boundaryField
{
    movingWall
    {
        type            calculated;
        value           uniform 0;
    }
    fixedWalls
    {
        type            calculated;
        value           uniform 0;
    }
    frontAndBack
    {
        type            empty;
        value           nonuniform 0();
    }
}


// ************************************************************************* //
