1.45 	0 	0 	-0.00817656 	-0.00256779 	3.78016e-21
2.35 	0 	0 	0.0613225 	-0.00662709 	2.28035e-21
