1.45 	0 	0 	-0.00727429 	-0.00262039 	3.86773e-21
2.35 	0 	0 	0.0635806 	-0.00670613 	2.3977e-21
