1.45 	0 	0 	-0.00274553 	-0.00299902 	3.96875e-21
2.35 	0 	0 	0.0800685 	-0.00726242 	2.36615e-21
