1.45 	0 	0 	-0.00696453 	-0.00264392 	3.88699e-21
2.35 	0 	0 	0.0646125 	-0.00673515 	2.41673e-21
