/*--------------------------------*- C++ -*----------------------------------*\
  =========                 |
  \\      /  F ield         | OpenFOAM: The Open Source CFD Toolbox
   \\    /   O peration     | Website:  https://openfoam.org
    \\  /    A nd           | Version:  6.0
     \\/     M anipulation  |
\*---------------------------------------------------------------------------*/
FoamFile
{
    version     2.0;
    format      ascii;
    class       volVectorField;
    location    "6";
    object      U;
}
// * * * * * * * * * * * * * * * * * * * * * * * * * * * * * * * * * * * * * //

dimensions      [0 1 -1 0 0 0 0];

internalField   nonuniform List<vector> 
2000
(
(-0.00207104 0.00180646 6.18493e-20)
(-0.00781483 0.00338064 7.33566e-20)
(-0.0155359 0.00368599 -6.98862e-20)
(-0.0223727 0.00327403 -1.4246e-19)
(-0.0273588 0.00246857 -9.94031e-20)
(-0.0303471 0.00148084 1.32351e-19)
(-0.0314479 0.000462621 7.69431e-20)
(-0.0309554 -0.00047381 -3.11749e-20)
(-0.0293349 -0.00124264 -7.76225e-20)
(-0.0268982 -0.00177559 5.65139e-20)
(-0.00257342 0.00528085 -1.53282e-19)
(-0.0085245 0.00982087 2.11346e-19)
(-0.0158055 0.0106374 2.09298e-20)
(-0.0218334 0.00935001 -1.22218e-19)
(-0.0257872 0.00690978 5.84423e-19)
(-0.0275997 0.00393683 -2.57021e-19)
(-0.0274312 0.000877697 -2.77708e-19)
(-0.0256031 -0.00193304 3.34764e-19)
(-0.0225986 -0.00423632 -3.29547e-19)
(-0.0188132 -0.00582367 1.66445e-19)
(-0.00352034 0.00844052 2.54793e-20)
(-0.00979208 0.0155376 9.06904e-21)
(-0.0161234 0.0166702 6.32802e-19)
(-0.0204874 0.0144402 2.21707e-19)
(-0.0223526 0.0103661 4.38647e-20)
(-0.0218096 0.0054356 3.63225e-19)
(-0.0191162 0.000362747 -6.89533e-19)
(-0.0146447 -0.00430381 1.49021e-20)
(-0.00891044 -0.00811921 -4.07283e-19)
(-0.00248369 -0.0107332 4.47161e-19)
(-0.00479606 0.011088 -4.79022e-20)
(-0.0113124 0.0200859 2.74943e-19)
(-0.0160406 0.0212419 -8.01026e-19)
(-0.0177866 0.0179957 -1.03436e-19)
(-0.0164505 0.0123327 -5.88743e-19)
(-0.0123562 0.00553542 6.09466e-19)
(-0.00590246 -0.00146585 -6.46209e-19)
(0.00247115 -0.00792841 4.53604e-19)
(0.0122101 -0.0132046 1.90523e-19)
(0.022465 -0.0167998 -2.14433e-19)
(-0.00622059 0.0130393 -5.32503e-19)
(-0.0126113 0.0230705 4.91557e-21)
(-0.0148568 0.0239063 9.86282e-19)
(-0.0128699 0.0196198 2.95396e-19)
(-0.00711969 0.0125228 -9.39598e-19)
(0.0017621 0.00408661 5.84219e-19)
(0.0131941 -0.00462638 6.61582e-19)
(0.0266618 -0.0127241 -5.89658e-19)
(0.0415801 -0.0193438 4.2041e-19)
(0.0567022 -0.0238475 1.03253e-19)
(-0.00754112 0.0141252 7.28365e-20)
(-0.0130309 0.0241585 1.34131e-20)
(-0.0116015 0.0243383 -1.2604e-18)
(-0.0045332 0.0191072 -7.05084e-19)
(0.00700484 0.0109293 8.4106e-19)
(0.0219963 0.00132896 -9.8482e-19)
(0.0396293 -0.0086239 1.12859e-18)
(0.0593104 -0.0179798 -9.74274e-20)
(0.0804618 -0.0256801 -3.17382e-19)
(0.101317 -0.0309642 -9.21179e-19)
(-0.00842312 0.014194 -1.57908e-19)
(-0.0117232 0.023093 -2.88232e-19)
(-0.00503339 0.0223484 -3.54201e-19)
(0.00877418 0.0164524 7.56274e-19)
(0.0277146 0.00783362 1.40328e-18)
(0.050305 -0.00207986 -2.90003e-19)
(0.0754328 -0.0123776 -7.05873e-19)
(0.102405 -0.0222273 2.15316e-19)
(0.13073 -0.0304787 -1.35737e-18)
(0.158041 -0.0363113 1.48658e-18)
(-0.00844856 0.0131241 9.65351e-19)
(-0.00766941 0.0197158 -5.26284e-19)
(0.00631246 0.0178891 1.02893e-18)
(0.0288827 0.0118254 -1.68165e-18)
(0.0571558 0.0037496 -8.04119e-19)
(0.0890944 -0.00512502 -1.11444e-18)
(0.123175 -0.0142226 3.23943e-19)
(0.158521 -0.0230889 -9.02901e-19)
(0.194857 -0.0307064 1.96703e-18)
(0.229318 -0.0363947 5.49567e-19)
(-0.00713189 0.0108507 7.00332e-20)
(0.000257739 0.0140059 8.57165e-19)
(0.0240123 0.0110587 1.70376e-18)
(0.057752 0.00550288 5.21705e-19)
(0.0976601 -0.000739359 1.54413e-18)
(0.141054 -0.00665454 8.46407e-20)
(0.185809 -0.0119924 -1.35402e-21)
(0.230601 -0.0167361 6.23893e-19)
(0.275382 -0.0201558 5.07794e-19)
(0.317346 -0.0227098 -1.64008e-18)
(-0.00396898 0.00740812 -5.69848e-19)
(0.0131644 0.00613386 -9.55129e-19)
(0.0495528 0.00209556 -1.3907e-18)
(0.097236 -0.00229909 3.21307e-20)
(0.151606 -0.00548256 -7.10352e-19)
(0.209437 -0.00645476 1.1203e-18)
(0.268024 -0.00483959 -3.08754e-18)
(0.325291 -0.000345505 1.38801e-18)
(0.380441 0.00772491 5.24112e-19)
(0.430463 0.0152577 1.64293e-18)
(0.00146746 0.00298491 2.85226e-19)
(0.0318972 -0.00344877 -1.09025e-18)
(0.0838883 -0.00854401 9.74504e-19)
(0.148287 -0.0114758 -3.78753e-19)
(0.220083 -0.0112701 4.12114e-19)
(0.296149 -0.00699479 8.98003e-19)
(0.374462 0.0021103 -1.20573e-18)
(0.454392 0.017044 1.56676e-19)
(0.536635 0.0372449 -5.77575e-19)
(0.62297 0.0530426 1.15127e-18)
(0.00943662 -0.00203146 4.06709e-19)
(0.0568317 -0.0138618 -9.86428e-19)
(0.127 -0.0198151 1.34692e-18)
(0.209869 -0.0212277 -8.403e-19)
(0.300032 -0.0182639 -3.08377e-19)
(0.394232 -0.0107901 1.82669e-19)
(0.490444 0.00112165 9.52937e-20)
(0.58786 0.0172235 1.28032e-18)
(0.685881 0.0350027 3.68343e-19)
(0.781869 0.0461119 1.55654e-18)
(0.0200443 -0.00707684 -3.62106e-19)
(0.0879947 -0.023741 1.27334e-18)
(0.178395 -0.0297335 -1.06573e-18)
(0.280477 -0.0289102 -1.25291e-18)
(0.388333 -0.0228122 1.75312e-18)
(0.498257 -0.0122461 -1.33387e-18)
(0.607642 0.00187125 3.52278e-19)
(0.714735 0.018487 -2.08172e-18)
(0.817587 0.0350952 1.55799e-18)
(0.912037 0.0466297 7.69854e-20)
(0.0332937 -0.0115252 -4.70709e-19)
(0.125168 -0.0315355 -4.56553e-19)
(0.237345 -0.0360299 -9.7454e-19)
(0.358649 -0.0315706 1.18146e-18)
(0.482724 -0.0211579 -5.98418e-20)
(0.605406 -0.00650904 7.66081e-19)
(0.723587 0.0107818 1.39678e-18)
(0.834895 0.0292629 -4.292e-19)
(0.936883 0.0469794 -1.50886e-18)
(1.02548 0.0611242 2.99342e-18)
(0.0491076 -0.0147699 -2.42636e-19)
(0.167881 -0.0357558 -2.89892e-19)
(0.302798 -0.0366287 5.24842e-19)
(0.442662 -0.0267456 -9.77254e-19)
(0.58089 -0.0105869 1.66777e-19)
(0.713102 0.00926983 1.48947e-19)
(0.836061 0.0306783 6.45706e-20)
(0.947362 0.0519706 -1.14734e-20)
(1.04481 0.0717545 -1.61191e-19)
(1.12507 0.0885609 -2.53333e-18)
(0.0673142 -0.0162488 9.85361e-19)
(0.215364 -0.03509 -6.8814e-19)
(0.373263 -0.029853 8.65806e-21)
(0.530294 -0.0126903 -1.05462e-18)
(0.680021 0.0104738 -3.78496e-19)
(0.818242 0.036286 3.53943e-19)
(0.942075 0.0621773 2.74646e-19)
(1.04965 0.086396 -9.79389e-19)
(1.13959 0.108071 7.98778e-19)
(1.20963 0.126499 -1.04815e-18)
(0.0876168 -0.0154508 4.24227e-19)
(0.266512 -0.028462 -3.77967e-19)
(0.446788 -0.0145173 1.57622e-18)
(0.618843 0.011552 1.61791e-19)
(0.776886 0.0425028 3.70394e-19)
(0.917401 0.0743624 1.65492e-18)
(1.0384 0.104329 -2.5284e-19)
(1.13905 0.130746 2.3072e-19)
(1.21916 0.153299 9.49564e-20)
(1.27782 0.171738 -1.17565e-19)
(0.109567 -0.0119281 2.95668e-19)
(0.319882 -0.0150751 7.14298e-19)
(0.521027 0.010031 -7.68523e-19)
(0.70527 0.0461704 -2.61419e-19)
(0.86808 0.0850388 -3.23208e-19)
(1.0072 0.122311 4.99711e-19)
(1.12206 0.15523 -2.6039e-19)
(1.21327 0.182484 7.01077e-19)
(1.28207 0.204412 2.36174e-19)
(1.329 0.221089 -3.85155e-19)
(0.132552 -0.00532332 -3.18852e-19)
(0.373725 0.00553866 2.8418e-19)
(0.593351 0.0438886 -6.08157e-19)
(0.786413 0.0906406 2.63026e-19)
(0.950326 0.136856 -2.73391e-19)
(1.08467 0.178248 -3.41872e-19)
(1.19072 0.212467 -2.75251e-19)
(1.27082 0.238836 3.0791e-19)
(1.32771 0.258478 -5.81984e-19)
(1.36338 0.271753 3.52308e-19)
(0.155807 0.00459335 -1.13443e-19)
(0.426061 0.0334635 -2.22921e-19)
(0.661008 0.0865819 1.06242e-19)
(0.85922 0.143792 6.41591e-21)
(1.02074 0.196131 8.86103e-20)
(1.14749 0.239853 1.22019e-19)
(1.24288 0.273427 1.1355e-19)
(1.31112 0.297102 -1.50493e-19)
(1.35634 0.312892 1.28791e-19)
(1.38186 0.32145 -2.02037e-19)
(0.178444 0.0178841 -6.56701e-20)
(0.474784 0.0683518 -2.46718e-20)
(0.7213 0.13707 9.89572e-20)
(0.920958 0.203891 -4.54025e-20)
(1.07701 0.260603 1.22023e-19)
(1.19409 0.304576 -1.57741e-19)
(1.2779 0.335509 3.64919e-20)
(1.33437 0.354817 3.9146e-20)
(1.3689 0.365471 -1.66715e-20)
(1.38584 0.36842 6.28595e-20)
(0.199494 0.0344096 -7.0743e-20)
(0.517794 0.109397 -3.22089e-19)
(0.77176 0.193779 -2.2745e-20)
(0.969388 0.268745 6.82064e-21)
(1.11755 0.32773 -4.23449e-19)
(1.22375 0.369806 5.55891e-20)
(1.2959 0.39626 -4.76657e-20)
(1.34147 0.409837 -1.16357e-19)
(1.36678 0.414449 2.4516e-19)
(1.377 0.41134 -4.48735e-19)
(0.217971 0.0538059 -3.43197e-20)
(0.553124 0.155336 6.53613e-19)
(0.810309 0.254661 1.05577e-19)
(1.00289 0.33582 -5.7813e-19)
(1.14152 0.394829 -4.72062e-20)
(1.2365 0.432995 -5.61104e-19)
(1.2977 0.453457 4.13667e-19)
(1.3338 0.460341 -1.52164e-19)
(1.3517 0.458425 2.71005e-19)
(1.35712 0.449217 -2.0385e-19)
(0.232929 0.0754768 -2.16594e-19)
(0.579082 0.204485 2.09954e-19)
(0.835386 0.317294 -1.51619e-19)
(1.02054 0.402377 1.14032e-18)
(1.14882 0.459209 5.66506e-19)
(1.23304 0.491754 -1.32569e-19)
(1.28462 0.505135 4.51454e-19)
(1.31304 0.50481 -2.98136e-19)
(1.32551 0.496279 -8.5682e-20)
(1.32799 0.481286 5.6465e-19)
(0.243534 0.098604 -3.76495e-19)
(0.594362 0.254805 4.84097e-19)
(0.846039 0.379001 -9.54992e-19)
(1.02211 0.4656 1.35939e-19)
(1.14003 0.518272 3.0802e-19)
(1.21463 0.543902 -4.65219e-19)
(1.25837 0.549592 -5.63071e-19)
(1.28114 0.541976 2.52913e-19)
(1.29012 0.527095 -3.09723e-19)
(1.29137 0.50692 3.94964e-19)
(0.249121 0.122174 -9.48809e-20)
(0.598134 0.304009 -4.93332e-19)
(0.841961 0.436985 2.7137e-19)
(1.00805 0.522727 4.6936e-19)
(1.11632 0.569606 -2.7983e-19)
(1.18295 0.587503 -2.14111e-19)
(1.22093 0.585359 -1.41848e-19)
(1.24011 0.570759 -6.92408e-20)
(1.24747 0.550075 6.53793e-21)
(1.24898 0.525533 1.82881e-19)
(0.24925 0.145023 7.41055e-20)
(0.590108 0.349674 -4.29326e-19)
(0.823495 0.488483 7.21371e-19)
(0.979412 0.571182 -4.24879e-19)
(1.0793 0.611062 1.34793e-19)
(1.13999 0.620884 -1.86508e-19)
(1.17441 0.611185 2.02429e-19)
(1.19203 0.590211 6.50275e-20)
(1.19944 0.564439 -6.2553e-21)
(1.20248 0.536443 2.01192e-20)
(0.243754 0.165904 -1.98188e-19)
(0.570558 0.389394 3.9298e-19)
(0.791593 0.530912 -1.42528e-20)
(0.937744 0.608687 -9.33685e-20)
(1.03093 0.640827 -2.12901e-19)
(1.08792 0.642685 3.36325e-20)
(1.12106 0.626077 -3.44269e-22)
(1.13909 0.599578 -1.05244e-19)
(1.14817 0.569479 1.16914e-19)
(1.15394 0.538859 1.21537e-19)
(0.232768 0.183564 8.12265e-20)
(0.540317 0.420927 -9.53402e-20)
(0.747731 0.562017 -3.36453e-21)
(0.884936 0.633348 8.89708e-20)
(0.973291 0.657421 2.32794e-21)
(1.02887 0.651762 -1.01867e-19)
(1.06308 0.629137 -2.56901e-19)
(1.08374 0.598144 -1.11024e-19)
(1.0966 0.56456 -1.45183e-19)
(1.10669 0.532185 1.14783e-19)
(0.216749 0.196855 6.96768e-20)
(0.500738 0.442378 -1.30727e-19)
(0.693802 0.580039 1.28586e-19)
(0.823039 0.643782 -2.67295e-19)
(0.90826 0.659722 6.21239e-20)
(0.964383 0.646954 4.6625e-19)
(1.00171 0.618777 -1.44059e-19)
(1.0273 0.583518 1.65045e-19)
(1.04654 0.546334 2.48848e-19)
(1.0626 0.512952 9.12772e-19)
(0.196477 0.204845 6.29623e-19)
(0.453658 0.452377 -4.207e-19)
(0.632074 0.58394 1.04213e-18)
(0.754227 0.639487 -1.77507e-19)
(0.837432 0.647669 9.06618e-19)
(0.895004 0.628284 5.69433e-19)
(0.936067 0.594364 -1.33445e-18)
(0.96709 0.552998 2.03779e-18)
(0.992722 0.506591 -4.32962e-19)
(1.0093 0.459372 8.5908e-19)
(0.173019 0.206889 -3.50099e-19)
(0.401351 0.450136 -2.56033e-19)
(0.565274 0.573417 2.55726e-19)
(0.681173 0.620946 -6.08958e-19)
(0.763011 0.622898 -1.9059e-18)
(0.822003 0.599302 -7.71361e-19)
(0.865868 0.562989 -6.89345e-19)
(0.900123 0.521117 3.39253e-19)
(0.927948 0.477189 2.80155e-18)
(0.945223 0.436161 -5.81174e-19)
(0.147639 0.202618 1.90219e-19)
(0.346405 0.435311 -7.76591e-19)
(0.496542 0.548453 1.69545e-19)
(0.607297 0.588459 -1.23609e-18)
(0.688809 0.585859 2.69956e-18)
(0.750036 0.560287 -3.15726e-19)
(0.797246 0.52401 1.4765e-18)
(0.834968 0.483829 -2.10961e-18)
(0.865754 0.443242 6.64279e-19)
(0.886898 0.406536 1.03478e-19)
(0.121674 0.191927 1.40854e-19)
(0.291449 0.407982 8.53817e-19)
(0.42893 0.509353 -2.51866e-18)
(0.535701 0.5424 1.22252e-18)
(0.617877 0.536757 -1.55742e-21)
(0.682155 0.510991 -4.13028e-19)
(0.733427 0.476451 5.23246e-19)
(0.775378 0.43935 -5.16579e-19)
(0.810208 0.402836 -1.7724e-18)
(0.836165 0.370164 -4.8813e-19)
(0.0964514 0.174978 4.65597e-19)
(0.238998 0.368674 5.222e-19)
(0.365262 0.456849 2.15248e-18)
(0.469104 0.48352 -1.19841e-18)
(0.552655 0.476189 2.46931e-18)
(0.620434 0.451719 -5.31185e-19)
(0.676066 0.42022 -5.60038e-19)
(0.7225 0.38714 6.62928e-19)
(0.761659 0.35516 4.3195e-19)
(0.792499 0.326617 1.56407e-18)
(0.0732263 0.15219 -4.74899e-19)
(0.191374 0.318349 1.55865e-19)
(0.308074 0.39212 4.26971e-20)
(0.409875 0.412986 1.22504e-18)
(0.495185 0.405177 -3.05674e-18)
(0.566534 0.38329 5.20279e-19)
(0.626414 0.355932 1.14445e-18)
(0.677137 0.327674 -1.38288e-18)
(0.7204 0.300678 4.86833e-19)
(0.755784 0.276543 -2.25879e-18)
(0.0531365 0.124226 1.01414e-19)
(0.150629 0.258377 5.4626e-19)
(0.259559 0.31676 2.12361e-19)
(0.360017 0.332353 2.88116e-19)
(0.447156 0.325112 5.50798e-19)
(0.521793 0.306898 1.63722e-18)
(0.585464 0.284608 -2.00309e-18)
(0.639951 0.261859 -1.12652e-18)
(0.68678 0.240301 1.86482e-19)
(0.726101 0.220961 1.46712e-18)
(0.0371557 0.0919751 -6.13843e-19)
(0.118486 0.19049 -7.25058e-20)
(0.22153 0.232727 -6.09907e-19)
(0.321163 0.243506 8.70469e-20)
(0.409927 0.237691 -5.21356e-19)
(0.487283 0.224027 -5.95136e-19)
(0.554022 0.207552 -8.86271e-19)
(0.611513 0.190878 2.38512e-18)
(0.661169 0.17516 4.10574e-19)
(0.703617 0.16101 -6.26152e-19)
(0.0260544 0.0565162 3.31129e-19)
(0.0962866 0.116723 4.37182e-19)
(0.195384 0.142279 1.71604e-19)
(0.294558 0.148597 -9.27915e-19)
(0.384528 0.144846 -4.31584e-19)
(0.463818 0.136383 -9.30049e-20)
(0.532706 0.126272 1.81328e-19)
(0.592283 0.116094 1.45633e-19)
(0.643891 0.10653 -1.12308e-18)
(0.688507 0.0978972 6.44612e-19)
(0.0203666 0.0190716 -1.72483e-19)
(0.0849521 0.0393334 -1.95976e-19)
(0.18207 0.0478918 1.56014e-19)
(0.281042 0.0499747 1.38431e-19)
(0.371653 0.048681 1.41827e-19)
(0.451946 0.0458154 2.16627e-19)
(0.52194 0.042407 -1.15221e-20)
(0.582583 0.0389843 -2.83711e-19)
(0.635188 0.0357733 2.69035e-19)
(0.680913 0.0328706 -4.04636e-19)
(0.0203657 -0.0190452 -1.73585e-19)
(0.0849502 -0.0392791 -1.86698e-19)
(0.182068 -0.047824 1.71952e-19)
(0.28104 -0.0498995 3.36363e-19)
(0.371651 -0.0486022 2.23859e-19)
(0.451944 -0.0457357 -2.94851e-19)
(0.521938 -0.0423279 -1.59902e-19)
(0.582581 -0.0389069 6.98734e-20)
(0.635185 -0.0356978 1.56633e-19)
(0.680911 -0.0327965 -9.32135e-20)
(0.0260515 -0.0564902 4.1404e-19)
(0.0962811 -0.116669 -5.2552e-19)
(0.195378 -0.142212 -4.35151e-20)
(0.294551 -0.148523 2.90873e-19)
(0.384522 -0.144768 -1.31356e-18)
(0.463811 -0.136303 5.60811e-19)
(0.5327 -0.126193 5.78116e-19)
(0.592276 -0.116016 -6.82046e-19)
(0.643884 -0.106455 6.50764e-19)
(0.688501 -0.0978233 -2.86021e-19)
(0.037151 -0.0919499 -7.16284e-20)
(0.118477 -0.190438 -8.92581e-21)
(0.221519 -0.232662 -1.41688e-18)
(0.321152 -0.243432 -4.49727e-19)
(0.409916 -0.237614 -4.64532e-20)
(0.487272 -0.223949 -7.39482e-19)
(0.554011 -0.207474 1.37695e-18)
(0.611502 -0.190801 -4.88439e-20)
(0.661158 -0.175085 7.85265e-19)
(0.703607 -0.160937 -6.89253e-19)
(0.0531302 -0.124202 1.2079e-19)
(0.150617 -0.258327 -5.57024e-19)
(0.259544 -0.316696 1.71562e-18)
(0.360001 -0.332282 2.43086e-19)
(0.44714 -0.325037 1.19154e-18)
(0.521777 -0.306821 -1.16306e-18)
(0.585449 -0.284531 1.22039e-18)
(0.639936 -0.261784 -8.80293e-19)
(0.686766 -0.240227 -3.86952e-19)
(0.726087 -0.220888 3.27468e-19)
(0.0732187 -0.152167 1.07464e-18)
(0.191359 -0.318302 2.90472e-21)
(0.308056 -0.392059 -1.80235e-18)
(0.409856 -0.412918 -5.22107e-19)
(0.495165 -0.405104 1.73582e-18)
(0.566514 -0.383215 -1.01566e-18)
(0.626395 -0.355857 -1.17548e-18)
(0.677118 -0.3276 1.05776e-18)
(0.720381 -0.300606 -7.18896e-19)
(0.755767 -0.276471 -1.55187e-19)
(0.0964427 -0.174958 -1.60666e-19)
(0.23898 -0.36863 -7.17633e-21)
(0.365242 -0.456791 1.94843e-18)
(0.469082 -0.483454 1.11745e-18)
(0.552632 -0.476118 -1.31683e-18)
(0.620411 -0.451646 1.59548e-18)
(0.676044 -0.420146 -1.72728e-18)
(0.722478 -0.387068 1.72919e-19)
(0.761637 -0.355088 5.15201e-19)
(0.792478 -0.326546 1.18831e-18)
(0.121665 -0.191909 1.81356e-19)
(0.291429 -0.407942 2.90407e-19)
(0.428907 -0.509299 3.13832e-19)
(0.535676 -0.542338 -1.02512e-18)
(0.617851 -0.53669 -1.82213e-18)
(0.682129 -0.510921 3.84118e-19)
(0.733402 -0.47638 1.11571e-18)
(0.775353 -0.439279 -3.18781e-19)
(0.810183 -0.402766 1.91314e-18)
(0.83614 -0.370094 -1.86702e-18)
(0.147629 -0.202601 -1.02382e-18)
(0.346385 -0.435274 3.8704e-19)
(0.496517 -0.548404 -1.05921e-18)
(0.607271 -0.588401 1.71075e-18)
(0.688781 -0.585795 8.56242e-19)
(0.750007 -0.56022 1.20912e-18)
(0.797218 -0.523941 -2.7694e-19)
(0.83494 -0.48376 1.10503e-18)
(0.865725 -0.443174 -2.33641e-18)
(0.88687 -0.406468 -6.10026e-19)
(0.173009 -0.206875 6.47645e-20)
(0.40133 -0.450104 -6.79226e-19)
(0.565249 -0.573372 -1.07141e-18)
(0.681145 -0.620892 -4.6176e-19)
(0.762981 -0.622838 -1.30168e-18)
(0.821972 -0.599239 -1.3555e-19)
(0.865837 -0.562924 1.18342e-19)
(0.900093 -0.52105 -5.06565e-19)
(0.927916 -0.477123 -5.71809e-19)
(0.945191 -0.436095 1.50475e-18)
(0.196467 -0.204833 3.13912e-19)
(0.453637 -0.452349 4.29953e-19)
(0.632049 -0.5839 7.81267e-19)
(0.754198 -0.639438 3.82801e-20)
(0.837401 -0.647614 5.2986e-19)
(0.894972 -0.628224 -7.18287e-19)
(0.936033 -0.594302 2.20515e-18)
(0.967057 -0.552934 -9.71218e-19)
(0.992687 -0.506527 -4.81839e-19)
(1.00927 -0.459309 -1.45782e-18)
(0.216739 -0.196845 -1.20841e-19)
(0.500719 -0.442354 1.88874e-19)
(0.693777 -0.580004 -1.98495e-19)
(0.823011 -0.643739 1.12884e-19)
(0.908228 -0.659671 -1.34841e-19)
(0.964349 -0.646898 -3.52071e-19)
(1.00167 -0.618718 4.61966e-19)
(1.02726 -0.583456 -1.6126e-19)
(1.0465 -0.54627 2.35465e-19)
(1.06257 -0.512891 -5.19159e-19)
(0.232759 -0.183556 8.48917e-21)
(0.540299 -0.420907 -1.48072e-19)
(0.747707 -0.561987 7.92066e-20)
(0.884908 -0.63331 1.08632e-19)
(0.97326 -0.657375 -7.93807e-20)
(1.02883 -0.651711 2.57394e-20)
(1.06304 -0.629082 -1.2854e-20)
(1.0837 -0.598087 -3.27788e-19)
(1.09656 -0.5645 -1.621e-19)
(1.10665 -0.532123 -4.89711e-19)
(0.243746 -0.165897 -1.10619e-19)
(0.570542 -0.389378 3.93486e-19)
(0.791572 -0.530887 -2.57939e-19)
(0.937717 -0.608653 -1.31597e-19)
(1.0309 -0.640786 1.11293e-19)
(1.08788 -0.642639 1.25531e-20)
(1.12102 -0.626027 8.52531e-21)
(1.13905 -0.599526 2.02131e-19)
(1.14813 -0.569424 -1.85635e-19)
(1.1539 -0.538802 1.62363e-22)
(0.249244 -0.145018 -2.55999e-19)
(0.590095 -0.349662 -1.67913e-19)
(0.823476 -0.488462 -4.12341e-19)
(0.979387 -0.571153 4.72289e-19)
(1.07927 -0.611026 -3.36295e-20)
(1.13995 -0.620843 1.70909e-19)
(1.17437 -0.611141 2.17009e-19)
(1.19199 -0.590163 -7.53701e-20)
(1.1994 -0.564389 -1.55989e-20)
(1.20244 -0.536391 -1.48515e-20)
(0.249116 -0.12217 -1.71169e-19)
(0.598123 -0.303999 -2.19921e-19)
(0.841944 -0.436969 3.36785e-19)
(1.00803 -0.522703 -5.14159e-19)
(1.11629 -0.569575 8.9888e-20)
(1.18291 -0.587467 4.83627e-20)
(1.22089 -0.585319 9.59487e-20)
(1.24007 -0.570716 -6.14254e-20)
(1.24743 -0.55003 -8.02957e-20)
(1.24893 -0.525487 -3.6491e-19)
(0.243531 -0.0986016 7.13582e-19)
(0.594353 -0.254798 -5.57011e-19)
(0.846025 -0.378987 2.51347e-20)
(1.02209 -0.465579 -7.24582e-19)
(1.14001 -0.518245 -2.14105e-19)
(1.21459 -0.543871 1.7292e-19)
(1.25833 -0.549557 1.28193e-19)
(1.28109 -0.541939 -4.30434e-19)
(1.29008 -0.527056 2.0618e-19)
(1.29132 -0.506879 -3.597e-19)
(0.232927 -0.0754753 3.51723e-19)
(0.579076 -0.204479 -3.48521e-19)
(0.835376 -0.317283 1.26103e-18)
(1.02052 -0.40236 1.02652e-19)
(1.1488 -0.459186 2.87419e-19)
(1.23301 -0.491727 1.04109e-18)
(1.28458 -0.505105 -2.12288e-19)
(1.313 -0.504777 5.99909e-20)
(1.32546 -0.496245 -2.40247e-20)
(1.32794 -0.481252 -5.53185e-20)
(0.21797 -0.0538049 2.70182e-19)
(0.553121 -0.155332 6.17784e-19)
(0.810302 -0.254652 -6.33591e-19)
(1.00288 -0.335806 -1.94471e-19)
(1.1415 -0.39481 -2.07633e-19)
(1.23647 -0.432972 4.03877e-19)
(1.29766 -0.453431 -1.92266e-19)
(1.33375 -0.460313 4.57452e-19)
(1.35165 -0.458397 1.14017e-19)
(1.35707 -0.449189 -1.99834e-19)
(0.199496 -0.0344089 -2.9212e-19)
(0.517795 -0.109394 2.72e-19)
(0.771757 -0.193771 -5.60278e-19)
(0.969377 -0.268733 2.35417e-19)
(1.11753 -0.327714 -2.36654e-19)
(1.22372 -0.369786 -2.82712e-19)
(1.29586 -0.396238 -2.20765e-19)
(1.34143 -0.409814 2.44206e-19)
(1.36673 -0.414427 -4.28743e-19)
(1.37695 -0.411317 2.71584e-19)
(0.178446 -0.0178833 -1.0929e-19)
(0.474788 -0.0683488 -2.15527e-19)
(0.721301 -0.137064 1.0147e-19)
(0.92095 -0.20388 7.34699e-21)
(1.07699 -0.26059 8.128e-20)
(1.19406 -0.30456 1.16913e-19)
(1.27786 -0.335491 1.00341e-19)
(1.33433 -0.354798 -1.35597e-19)
(1.36884 -0.365453 1.1156e-19)
(1.38578 -0.368403 -1.76767e-19)
(0.155811 -0.00459234 -6.89869e-20)
(0.426067 -0.0334602 -2.78669e-20)
(0.661012 -0.0865753 1.04504e-19)
(0.859216 -0.143782 -4.69975e-20)
(1.02072 -0.196119 1.32417e-19)
(1.14746 -0.239839 -1.67568e-19)
(1.24285 -0.273412 4.28841e-20)
(1.31107 -0.297087 3.70181e-20)
(1.35629 -0.312879 -1.35578e-20)
(1.3818 -0.321438 6.13676e-20)
(0.132558 0.00532477 -8.27457e-20)
(0.373734 -0.00553463 -3.52438e-19)
(0.593358 -0.0438817 -2.87728e-20)
(0.786413 -0.0906312 1.1484e-20)
(0.950315 -0.136845 -4.92515e-19)
(1.08465 -0.178236 5.19265e-20)
(1.19068 -0.212455 -5.5135e-20)
(1.27078 -0.238825 -1.50481e-19)
(1.32766 -0.258469 3.34094e-19)
(1.36331 -0.271745 -6.08649e-19)
(0.109573 0.0119302 -4.70617e-20)
(0.319893 0.0150802 7.56818e-19)
(0.521037 -0.0100232 1.01405e-19)
(0.705273 -0.0461608 -6.86069e-19)
(0.868072 -0.0850282 -8.21787e-20)
(1.00718 -0.1223 -7.77079e-19)
(1.12202 -0.15522 6.04844e-19)
(1.21322 -0.182476 -2.45886e-19)
(1.28201 -0.204407 4.65883e-19)
(1.32894 -0.221086 -4.11459e-19)
(0.0876243 0.0154537 -2.66168e-19)
(0.266526 0.0284685 3.12036e-19)
(0.446801 0.0145264 -2.18261e-19)
(0.61885 -0.0115416 1.50846e-18)
(0.776881 -0.0424921 8.00228e-19)
(0.917383 -0.0743526 -2.09711e-19)
(1.03836 -0.104321 8.16174e-19)
(1.139 -0.130741 -5.33699e-19)
(1.2191 -0.153297 -1.71716e-19)
(1.27775 -0.171739 1.24077e-18)
(0.0673226 0.0162526 -4.93075e-19)
(0.215379 0.0350981 7.38438e-19)
(0.373278 0.0298637 -1.40417e-18)
(0.530304 0.0127021 2.43537e-19)
(0.68002 -0.0104625 6.08913e-19)
(0.818227 -0.0362763 -7.64371e-19)
(0.942046 -0.0621706 -1.35534e-18)
(1.04961 -0.086393 7.26343e-19)
(1.13953 -0.108072 -9.42988e-19)
(1.20956 -0.126503 1.50776e-18)
(0.0491167 0.0147746 -1.21752e-19)
(0.167898 0.0357658 -7.43978e-19)
(0.302815 0.0366415 3.67119e-19)
(0.442674 0.0267593 9.23473e-19)
(0.580892 0.0105997 -4.95938e-19)
(0.713091 -0.00925959 -4.90362e-19)
(0.836034 -0.030672 -8.32021e-19)
(0.94732 -0.051969 -3.79749e-19)
(1.04476 -0.0717574 -8.96667e-20)
(1.12501 -0.0885669 1.5037e-18)
(0.0333032 0.0115309 2.0563e-19)
(0.125186 0.0315476 -1.0129e-18)
(0.237364 0.0360451 1.73694e-18)
(0.358663 0.0315868 -9.67194e-19)
(0.48273 0.021173 6.28909e-19)
(0.605399 0.00652102 -7.82351e-19)
(0.723564 -0.0107746 8.7164e-19)
(0.834856 -0.0292613 7.60397e-19)
(0.93683 -0.0469829 1.65191e-18)
(1.02542 -0.061131 -2.7287e-18)
(0.0200539 0.00708365 -6.38781e-19)
(0.0880133 0.0237554 1.28639e-18)
(0.178414 0.0297518 1.78781e-20)
(0.280493 0.0289299 -4.64177e-19)
(0.388341 0.022831 -2.4606e-19)
(0.498253 0.0122616 1.97503e-19)
(0.607623 -0.00186117 -1.40393e-18)
(0.7147 -0.0184832 1.08019e-18)
(0.817538 -0.0350971 -1.3929e-18)
(0.911976 -0.0466349 -6.30538e-19)
(0.00944635 0.00203947 1.10186e-18)
(0.0568507 0.0138792 -3.4374e-19)
(0.12702 0.0198376 -6.47634e-19)
(0.209887 0.0212525 1.76005e-18)
(0.300042 0.0182884 -1.73084e-18)
(0.39423 0.0108115 9.67725e-19)
(0.490428 -0.00110568 1.02993e-18)
(0.587827 -0.0172141 2.80699e-19)
(0.685833 -0.034999 2.91109e-19)
(0.78181 -0.0461119 -4.10153e-19)
(0.00147717 -0.00297549 -1.0554e-18)
(0.0319164 0.00346972 1.00517e-18)
(0.0839092 0.00857177 -8.9043e-19)
(0.148305 0.0115075 1.11921e-18)
(0.220094 0.0113028 -3.34368e-19)
(0.296148 0.00702551 -1.1632e-18)
(0.374446 -0.0020842 3.33799e-19)
(0.45436 -0.017024 -5.47496e-19)
(0.536586 -0.03723 -6.45657e-19)
(0.622908 -0.0530325 -2.00253e-18)
(-0.00395934 -0.007397 -1.32247e-18)
(0.0131836 -0.00610854 1.05196e-18)
(0.0495738 -0.00206111 -2.06363e-18)
(0.0972541 0.00233967 3.69429e-19)
(0.151617 0.00552623 -1.43251e-18)
(0.209436 0.00649851 -8.60542e-19)
(0.268009 0.00488082 2.06095e-18)
(0.325258 0.000383165 -2.81978e-18)
(0.38039 -0.00769077 5.42474e-19)
(0.430393 -0.0152249 -9.00146e-19)
(-0.00712236 -0.0108375 6.51801e-19)
(0.000276837 -0.0139753 2.76674e-19)
(0.0240332 -0.0110162 -8.30451e-20)
(0.0577701 -0.00545159 7.85146e-19)
(0.0976711 0.000796292 2.30838e-18)
(0.141054 0.00671408 7.97626e-19)
(0.185794 0.0120519 8.25314e-19)
(0.230569 0.0167943 -2.8484e-19)
(0.275334 0.0202128 -2.67018e-18)
(0.31728 0.0227658 6.75078e-19)
(-0.00843921 -0.0131085 -1.84587e-19)
(-0.00765058 -0.0196791 5.88037e-19)
(0.00633299 -0.0178373 -1.54037e-19)
(0.0289005 -0.011762 1.08741e-18)
(0.0571668 -0.00367785 -2.5146e-18)
(0.0890948 0.00520192 2.13763e-19)
(0.123161 0.0143017 -1.19791e-18)
(0.158491 0.0231684 1.76495e-18)
(0.194811 0.0307861 -5.15039e-19)
(0.229255 0.0364731 -7.30504e-20)
(-0.00841407 -0.0141757 -1.25691e-19)
(-0.011705 -0.0230494 -7.0683e-19)
(-0.0050136 -0.0222865 1.77859e-18)
(0.00879131 -0.016376 -9.37575e-19)
(0.0277253 -0.00774628 6.58127e-20)
(0.0503057 0.00217468 3.00941e-19)
(0.0754207 0.0124766 -2.74897e-19)
(0.102377 0.022328 3.57582e-19)
(0.130687 0.0305804 1.23983e-18)
(0.157982 0.0364115 3.21952e-19)
(-0.00753257 -0.0141039 -2.82516e-19)
(-0.0130138 -0.0241078 -3.14e-19)
(-0.011583 -0.0242661 -1.39305e-18)
(-0.0045173 -0.0190176 7.4178e-19)
(0.00701477 -0.0108264 -1.52984e-18)
(0.0219972 -0.00121662 3.47602e-19)
(0.0396185 0.00874209 3.90958e-19)
(0.0592857 0.0181007 -4.12697e-19)
(0.0804232 0.0258027 -2.66778e-19)
(0.101262 0.031085 -1.19694e-18)
(-0.00621285 -0.0130149 2.20916e-19)
(-0.0125959 -0.0230127 -5.21453e-20)
(-0.0148403 -0.0238239 9.91722e-22)
(-0.0128558 -0.0195177 -6.69367e-19)
(-0.00711094 -0.0124053 1.69445e-18)
(0.00176287 -0.00395797 -2.64221e-19)
(0.0131847 0.00476216 -6.58983e-19)
(0.0266402 0.0128635 8.06522e-19)
(0.0415462 0.0194853 -2.8296e-19)
(0.0566541 0.0239872 1.5608e-18)
(-0.00478952 -0.0110608 -4.14816e-20)
(-0.0112994 -0.0200217 -2.42854e-19)
(-0.0160267 -0.0211505 -9.5723e-20)
(-0.0177749 -0.0178824 -1.22363e-19)
(-0.0164432 -0.0122023 -2.62911e-19)
(-0.0123555 -0.00539257 -8.24843e-19)
(-0.00591015 0.0016168 1.03126e-18)
(0.00245337 0.00808355 6.01655e-19)
(0.012182 0.0133623 -1.08267e-19)
(0.0224251 0.0169554 -9.56506e-19)
(-0.00351539 -0.00841099 2.35647e-19)
(-0.00978213 -0.015468 4.1067e-20)
(-0.0161128 -0.0165714 2.7815e-19)
(-0.0204783 -0.0143179 -3.16728e-20)
(-0.0223469 -0.0102254 2.53103e-19)
(-0.0218088 -0.00528144 2.85291e-19)
(-0.0191217 -0.000199743 4.26946e-19)
(-0.0146578 0.00447144 -1.20909e-18)
(-0.0089313 0.00828966 -2.22828e-19)
(-0.00251359 0.0109015 3.98975e-19)
(-0.00257027 -0.00524953 -1.19038e-19)
(-0.00851803 -0.00974743 -1.68909e-19)
(-0.0157986 -0.0105335 -8.10541e-20)
(-0.0218274 -0.00922151 3.9687e-19)
(-0.0257833 -0.00676193 1.92518e-19)
(-0.0275987 -0.00377481 3.94559e-20)
(-0.027434 -0.000706379 -8.55163e-20)
(-0.0256106 0.00210936 -6.6167e-20)
(-0.022611 0.00441561 5.67412e-19)
(-0.0188312 0.00600082 -3.86135e-19)
(-0.00206994 -0.00177435 6.06751e-20)
(-0.00781266 -0.00330527 7.54025e-20)
(-0.0155334 -0.00357948 -6.42169e-20)
(-0.0223705 -0.00314244 -5.87079e-20)
(-0.0273572 -0.0023172 -6.08474e-20)
(-0.0303464 -0.00131492 -9.69301e-20)
(-0.0314484 -0.000287026 3.19391e-21)
(-0.0309574 0.000654543 1.34293e-19)
(-0.0293386 0.00142648 -1.34575e-19)
(-0.0269042 0.00195739 2.44452e-19)
(0.00874362 -0.00419953 1.71293e-20)
(0.131997 -0.00897729 7.55009e-21)
(0.396803 -0.00942134 2.99877e-22)
(0.566035 -0.00702619 -3.35903e-22)
(0.716862 -0.00539948 -1.31206e-23)
(0.819834 -0.00364539 -9.7709e-23)
(0.890624 -0.00240176 -3.10405e-22)
(0.937542 -0.00145605 1.17593e-22)
(0.963171 -0.000906478 -1.16938e-23)
(0.984335 -0.000394532 1.87591e-22)
(0.0278481 -0.0130509 2.90272e-20)
(0.14866 -0.026594 4.03173e-21)
(0.408158 -0.0277318 -9.36154e-21)
(0.573331 -0.0206291 1.78158e-21)
(0.721148 -0.0158682 -2.70571e-22)
(0.82226 -0.010789 9.40888e-22)
(0.891913 -0.0071729 -1.18371e-21)
(0.938189 -0.00437621 -3.77992e-22)
(0.963495 -0.00276215 -8.17159e-22)
(0.984458 -0.00123807 -1.66602e-22)
(0.0654323 -0.02279 2.70363e-20)
(0.18121 -0.0435169 -3.39906e-20)
(0.43027 -0.0453572 1.09881e-20)
(0.587539 -0.033762 -3.09535e-22)
(0.729496 -0.026019 -3.66275e-22)
(0.826987 -0.0177434 3.7323e-22)
(0.894424 -0.0118341 4.75822e-22)
(0.939449 -0.00723769 -1.52474e-22)
(0.964126 -0.00458609 5.6766e-22)
(0.984699 -0.00206953 -2.34126e-22)
(0.12033 -0.0338761 -4.63519e-20)
(0.228296 -0.0593296 -5.24703e-20)
(0.462124 -0.0618852 -1.75376e-20)
(0.608041 -0.0461438 3.50214e-21)
(0.741569 -0.0356607 5.00553e-21)
(0.833848 -0.0243935 -3.84208e-21)
(0.898084 -0.0163176 3.72644e-22)
(0.941294 -0.0100042 -6.12646e-22)
(0.965057 -0.00635879 6.50373e-22)
(0.985055 -0.00288132 9.35097e-23)
(0.190844 -0.0465301 1.20973e-19)
(0.288017 -0.0736568 6.24207e-20)
(0.502275 -0.0769528 1.87067e-20)
(0.633932 -0.0575346 -4.39273e-21)
(0.756853 -0.044629 -4.09373e-21)
(0.842568 -0.0306401 -2.68826e-21)
(0.902753 -0.0205647 -3.46936e-21)
(0.943656 -0.0126432 -9.82186e-22)
(0.966253 -0.00806214 -1.56301e-21)
(0.985516 -0.00366626 -4.48833e-22)
(0.274835 -0.0605824 -5.00286e-20)
(0.358091 -0.0861181 4.72729e-20)
(0.548994 -0.090235 5.55154e-21)
(0.66413 -0.0677347 2.05027e-21)
(0.77474 -0.0527913 8.79129e-22)
(0.852825 -0.0364026 4.31135e-21)
(0.908272 -0.0245262 3.60626e-21)
(0.946462 -0.0151277 1.25238e-21)
(0.967685 -0.00968086 6.50031e-22)
(0.98607 -0.00441833 5.6651e-22)
(0.369829 -0.075629 -4.22706e-20)
(0.435984 -0.0964122 -9.56291e-20)
(0.600379 -0.101494 -1.06599e-20)
(0.697443 -0.076597 -4.84825e-21)
(0.794554 -0.0600517 -1.66952e-21)
(0.864255 -0.0416211 8.95101e-22)
(0.914459 -0.0281648 -2.85477e-21)
(0.949625 -0.0174363 -1.27972e-21)
(0.96931 -0.0112024 2.37381e-22)
(0.986702 -0.00513217 2.05191e-22)
(0.473176 -0.0919158 1.20019e-19)
(0.51905 -0.104926 2.27958e-20)