1.45 	0 	0 	0.0395716 	-0.00701263 	3.65954e-21
2.35 	0 	0 	0.240473 	-0.0116471 	6.59137e-22
