1.45 	0 	0 	-0.299411
2.35 	0 	0 	-0.133029
