1.45 	0 	0 	0.601563 	-0.0220555 	1.08957e-21
2.35 	0 	0 	0.812813 	-0.00738177 	-9.65598e-22
