1.45 	0 	0 	-0.297064
2.35 	0 	0 	-0.131527
