1.45 	0 	0 	0.00218907 	-0.00360448 	3.96344e-21
2.35 	0 	0 	0.10583 	-0.00820273 	2.04961e-21
