1.275 	2.15223e-18 	-2.76991e-20 	-0.0344509 	-0.000434379 	-1.91373e-22
1.825 	2.15223e-18 	-1.39322e-20 	-0.00944174 	-0.00275673 	1.69219e-21
2.375 	2.15223e-18 	-2.66896e-23 	0.115373 	-0.00324564 	-7.05901e-22
