/*--------------------------------*- C++ -*----------------------------------*\
  =========                 |
  \\      /  F ield         | OpenFOAM: The Open Source CFD Toolbox
   \\    /   O peration     | Website:  https://openfoam.org
    \\  /    A nd           | Version:  6.0
     \\/     M anipulation  |
\*---------------------------------------------------------------------------*/
FoamFile
{
    version     2.0;
    format      ascii;
    class       volScalarField;
    location    "3.6";
    object      p;
}
// * * * * * * * * * * * * * * * * * * * * * * * * * * * * * * * * * * * * * //

dimensions      [0 2 -2 0 0 0 0];

internalField   nonuniform List<scalar> 
34500
(
1.00605
1.00607
1.00591
1.00559
1.00514
1.00459
1.00397
1.00332
1.00269
1.00209
1.00156
1.0011
1.00071
1.00043
1.00025
1.00606
1.0061
1.00601
1.00576
1.0054
1.00493
1.00437
1.00376
1.00314
1.00252
1.00194
1.00141
1.00092
1.00058
1.00032
1.00606
1.00609
1.00597
1.0057
1.00531
1.0048
1.00422
1.00359
1.00296
1.00234
1.00177
1.00126
1.00081
1.00051
1.00025
1.00606
1.00609
1.00595
1.00565
1.00522
1.00469
1.00409
1.00345
1.00282
1.00221
1.00165
1.00116
1.00073
1.00046
1.00023
1.00607
1.00609
1.00595
1.00566
1.00523
1.0047
1.00411
1.00347
1.00284
1.00223
1.00166
1.00117
1.00073
1.00046
1.00023
1.00607
1.0061
1.00597
1.00568
1.00526
1.00473
1.00414
1.00351
1.00287
1.00226
1.00168
1.00118
1.00073
1.00045
1.00021
1.00608
1.00611
1.00598
1.00569
1.00526
1.00474
1.00415
1.00351
1.00287
1.00225
1.00167
1.00116
1.00072
1.00043
1.0002
1.00609
1.00612
1.00599
1.00569
1.00527
1.00474
1.00414
1.0035
1.00286
1.00224
1.00166
1.00115
1.00071
1.00042
1.00018
1.0061
1.00613
1.006
1.00571
1.00528
1.00475
1.00415
1.00351
1.00287
1.00224
1.00166
1.00115
1.0007
1.00041
1.00017
1.00612
1.00614
1.00602
1.00573
1.00531
1.00478
1.00418
1.00353
1.00289
1.00226
1.00167
1.00116
1.00071
1.0004
1.00015
1.00613
1.00616
1.00603
1.00575
1.00533
1.0048
1.00421
1.00356
1.00291
1.00228
1.00169
1.00116
1.0007
1.00039
1.00013
1.00615
1.00618
1.00605
1.00577
1.00535
1.00483
1.00423
1.00358
1.00293
1.00229
1.00169
1.00116
1.00069
1.00037
1.00011
1.00616
1.00619
1.00607
1.00579
1.00537
1.00485
1.00425
1.0036
1.00294
1.0023
1.00169
1.00115
1.00068
1.00034
1.00008
1.00618
1.00621
1.00608
1.0058
1.00539
1.00486
1.00426
1.00361
1.00295
1.0023
1.00169
1.00114
1.00066
1.00032
1.00005
1.0062
1.00623
1.0061
1.00582
1.0054
1.00488
1.00427
1.00362
1.00295
1.0023
1.00168
1.00113
1.00064
1.00029
1.00002
1.00622
1.00625
1.00612
1.00584
1.00542
1.00489
1.00428
1.00362
1.00295
1.00229
1.00167
1.00111
1.00063
1.00027
0.999985
1.00624
1.00627
1.00614
1.00585
1.00543
1.0049
1.00429
1.00363
1.00295
1.00229
1.00166
1.0011
1.00061
1.00024
0.999955
1.00626
1.00629
1.00616
1.00588
1.00545
1.00492
1.0043
1.00364
1.00296
1.00229
1.00166
1.00109
1.00059
1.00022
0.999924
1.00629
1.00631
1.00619
1.0059
1.00547
1.00494
1.00432
1.00365
1.00297
1.0023
1.00166
1.00108
1.00058
1.00019
0.999891
1.00631
1.00634
1.00621
1.00592
1.0055
1.00496
1.00434
1.00367
1.00298
1.0023
1.00166
1.00108
1.00056
1.00017
0.999856
1.00634
1.00637
1.00624
1.00595
1.00553
1.00499
1.00437
1.00369
1.00299
1.00231
1.00166
1.00106
1.00055
1.00014
0.999819
1.00637
1.00639
1.00627
1.00598
1.00555
1.00501
1.00439
1.00371
1.00301
1.00231
1.00165
1.00105
1.00052
1.00011
0.999781
1.00639
1.00642
1.0063
1.00601
1.00558
1.00504
1.00441
1.00372
1.00302
1.00231
1.00165
1.00104
1.0005
1.00008
0.999742
1.00643
1.00646
1.00633
1.00604
1.00561
1.00506
1.00443
1.00374
1.00302
1.00231
1.00164
1.00102
1.00048
1.00004
0.999702
1.00646
1.00649
1.00636
1.00607
1.00563
1.00509
1.00445
1.00375
1.00303
1.00231
1.00163
1.001
1.00045
1.00001
0.999662
1.00649
1.00652
1.00639
1.0061
1.00566
1.00511
1.00447
1.00376
1.00303
1.00231
1.00162
1.00098
1.00043
0.999975
0.999621
1.00653
1.00656
1.00643
1.00613
1.00569
1.00514
1.00449
1.00378
1.00304
1.00231
1.00161
1.00097
1.0004
0.999941
0.999579
1.00656
1.00659
1.00646
1.00617
1.00572
1.00516
1.00451
1.00379
1.00305
1.00231
1.0016
1.00095
1.00038
0.999906
0.999536
1.0066
1.00663
1.0065
1.0062
1.00576
1.00519
1.00453
1.00381
1.00306
1.00231
1.00159
1.00093
1.00035
0.99987
0.999492
1.00664
1.00667
1.00654
1.00624
1.00579
1.00522
1.00456
1.00383
1.00307
1.00231
1.00158
1.00091
1.00032
0.999832
0.999446
1.00668
1.00671
1.00658
1.00628
1.00583
1.00525
1.00458
1.00385
1.00308
1.00231
1.00157
1.00089
1.00029
0.999793
0.999399
1.00672
1.00675
1.00662
1.00632
1.00586
1.00529
1.00461
1.00387
1.00309
1.00231
1.00156
1.00087
1.00026
0.999752
0.999351
1.00677
1.0068
1.00666
1.00636
1.0059
1.00532
1.00463
1.00388
1.0031
1.00231
1.00155
1.00085
1.00023
0.999711
0.999302
1.00681
1.00684
1.00671
1.0064
1.00594
1.00535
1.00466
1.0039
1.0031
1.00231
1.00153
1.00082
1.00019
0.999668
0.999252
1.00686
1.00689
1.00675
1.00644
1.00597
1.00538
1.00468
1.00391
1.00311
1.0023
1.00152
1.0008
1.00016
0.999625
0.999201
1.00691
1.00694
1.0068
1.00649
1.00601
1.00541
1.00471
1.00393
1.00312
1.0023
1.00151
1.00078
1.00013
0.999581
0.999149
1.00695
1.00699
1.00685
1.00653
1.00605
1.00545
1.00474
1.00395
1.00312
1.0023
1.00149
1.00075
1.00009
0.999536
0.999096
1.00701
1.00704
1.0069
1.00658
1.0061
1.00549
1.00476
1.00397
1.00313
1.00229
1.00148
1.00073
1.00005
0.99949
0.999041
1.00706
1.00709
1.00695
1.00663
1.00614
1.00552
1.00479
1.00399
1.00314
1.00229
1.00147
1.0007
1.00002
0.999442
0.998985
1.00711
1.00715
1.007
1.00668
1.00619
1.00556
1.00482
1.00401
1.00315
1.00229
1.00145
1.00067
0.999978
0.999393
0.998928
1.00717
1.0072
1.00706
1.00673
1.00623
1.0056
1.00486
1.00403
1.00316
1.00229
1.00144
1.00064
0.999938
0.999342
0.998868
1.00722
1.00726
1.00711
1.00678
1.00628
1.00564
1.00489
1.00405
1.00317
1.00228
1.00142
1.00061
0.999896
0.999291
0.998808
1.00728
1.00732
1.00717
1.00684
1.00633
1.00568
1.00492
1.00407
1.00318
1.00228
1.0014
1.00058
0.999853
0.999237
0.998746
1.00734
1.00738
1.00723
1.00689
1.00638
1.00573
1.00495
1.0041
1.00319
1.00227
1.00138
1.00055
0.99981
0.999183
0.998684
1.0074
1.00744
1.00729
1.00695
1.00643
1.00577
1.00498
1.00412
1.0032
1.00227
1.00136
1.00052
0.999765
0.999127
0.998619
1.00747
1.0075
1.00735
1.007
1.00648
1.00581
1.00502
1.00414
1.00321
1.00226
1.00134
1.00049
0.999719
0.99907
0.998553
1.00753
1.00757
1.00741
1.00706
1.00653
1.00586
1.00505
1.00416
1.00321
1.00226
1.00132
1.00045
0.999672
0.999012
0.998486
1.0076
1.00764
1.00748
1.00713
1.00659
1.0059
1.00509
1.00418
1.00322
1.00225
1.0013
1.00042
0.999624
0.998952
0.998417
1.00767
1.0077
1.00754
1.00719
1.00664
1.00595
1.00512
1.00421
1.00323
1.00225
1.00128
1.00038
0.999574
0.998891
0.998346
1.00774
1.00777
1.00761
1.00725
1.0067
1.006
1.00516
1.00423
1.00324
1.00224
1.00126
1.00034
0.999524
0.998829
0.998274
1.00781
1.00785
1.00768
1.00732
1.00676
1.00605
1.0052
1.00426
1.00325
1.00223
1.00124
1.00031
0.999471
0.998764
0.9982
1.00788
1.00792
1.00775
1.00738
1.00682
1.0061
1.00524
1.00428
1.00326
1.00223
1.00121
1.00027
0.999418
0.998699
0.998125
1.00796
1.008
1.00783
1.00745
1.00688
1.00615
1.00528
1.00431
1.00327
1.00222
1.00119
1.00023
0.999363
0.998631
0.998048
1.00804
1.00807
1.0079
1.00752
1.00694
1.0062
1.00532
1.00433
1.00328
1.00221
1.00117
1.00019
0.999307
0.998562
0.997969
1.00811
1.00815
1.00798
1.0076
1.00701
1.00626
1.00536
1.00436
1.00329
1.0022
1.00114
1.00014
0.999249
0.998492
0.997888
1.0082
1.00823
1.00806
1.00767
1.00707
1.00631
1.0054
1.00438
1.0033
1.0022
1.00111
1.0001
0.999191
0.99842
0.997805
1.00828
1.00832
1.00814
1.00774
1.00714
1.00637
1.00544
1.00441
1.00331
1.00219
1.00109
1.00006
0.99913
0.998346
0.997721
1.00836
1.0084
1.00822
1.00782
1.00721
1.00643
1.00549
1.00444
1.00332
1.00218
1.00106
1.00001
0.999069
0.99827
0.997634
1.00845
1.00849
1.0083
1.0079
1.00728
1.00649
1.00553
1.00447
1.00333
1.00217
1.00103
0.999964
0.999005
0.998193
0.997546
1.00854
1.00858
1.00839
1.00798
1.00735
1.00655
1.00558
1.0045
1.00334
1.00216
1.001
0.999916
0.998941
0.998114
0.997455
1.00863
1.00867
1.00848
1.00806
1.00743
1.00661
1.00563
1.00453
1.00335
1.00215
1.00097
0.999867
0.998874
0.998033
0.997363
1.00872
1.00876
1.00857
1.00815
1.0075
1.00667
1.00567
1.00456
1.00336
1.00214
1.00094
0.999817
0.998806
0.99795
0.997268
1.00881
1.00885
1.00866
1.00823
1.00758
1.00674
1.00572
1.00459
1.00337
1.00213
1.00091
0.999766
0.998737
0.997865
0.997171
1.00891
1.00895
1.00875
1.00832
1.00766
1.0068
1.00577
1.00462
1.00338
1.00212
1.00088
0.999713
0.998666
0.997779
0.997072
1.00901
1.00905
1.00885
1.00841
1.00774
1.00687
1.00582
1.00465
1.00339
1.00211
1.00085
0.999659
0.998593
0.99769
0.996971
1.00911
1.00915
1.00895
1.0085
1.00782
1.00694
1.00588
1.00468
1.0034
1.0021
1.00081
0.999604
0.998518
0.997599
0.996868
1.00921
1.00925
1.00905
1.0086
1.0079
1.00701
1.00593
1.00472
1.00342
1.00209
1.00078
0.999548
0.998442
0.997506
0.996762
1.00932
1.00936
1.00915
1.00869
1.00799
1.00708
1.00598
1.00475
1.00343
1.00207
1.00074
0.99949
0.998364
0.997411
0.996654
1.00942
1.00947
1.00926
1.00879
1.00808
1.00715
1.00604
1.00478
1.00344
1.00206
1.00071
0.999431
0.998284
0.997314
0.996543
1.00953
1.00958
1.00936
1.00889
1.00817
1.00723
1.00609
1.00482
1.00345
1.00205
1.00067
0.99937
0.998202
0.997215
0.99643
1.00964
1.00969
1.00947
1.00899
1.00826
1.0073
1.00615
1.00486
1.00346
1.00204
1.00063
0.999308
0.998118
0.997114
0.996315
1.00976
1.0098
1.00958
1.0091
1.00835
1.00738
1.00621
1.00489
1.00347
1.00202
1.00059
0.999244
0.998033
0.99701
0.996196
1.00987
1.00992
1.0097
1.00921
1.00844
1.00746
1.00627
1.00493
1.00349
1.00201
1.00055
0.999179
0.997946
0.996904
0.996076
1.00999
1.01004
1.00981
1.00931
1.00854
1.00754
1.00633
1.00497
1.0035
1.00199
1.00051
0.999112
0.997856
0.996795
0.995952
1.01011
1.01016
1.00993
1.00943
1.00864
1.00763
1.00639
1.00501
1.00351
1.00198
1.00047
0.999044
0.997765
0.996684
0.995826
1.01024
1.01029
1.01005
1.00954
1.00874
1.00771
1.00646
1.00505
1.00352
1.00196
1.00042
0.998975
0.997671
0.996571
0.995697
1.01036
1.01041
1.01018
1.00966
1.00885
1.0078
1.00652
1.00509
1.00354
1.00195
1.00038
0.998904
0.997576
0.996455
0.995565
1.01049
1.01054
1.0103
1.00977
1.00895
1.00789
1.00659
1.00513
1.00355
1.00193
1.00033
0.998831
0.997478
0.996337
0.995431
1.01062
1.01068
1.01043
1.00989
1.00906
1.00798
1.00666
1.00517
1.00356
1.00192
1.00029
0.998756
0.997378
0.996215
0.995293
1.01076
1.01081
1.01056
1.01002
1.00917
1.00807
1.00673
1.00521
1.00358
1.0019
1.00024
0.998679
0.997275
0.996091
0.995152
1.01089
1.01095
1.0107
1.01014
1.00928
1.00816
1.0068
1.00526
1.00359
1.00188
1.00019
0.998601
0.997171
0.995965
0.995008
1.01103
1.01109
1.01083
1.01027
1.0094
1.00826
1.00687
1.0053
1.00361
1.00186
1.00014
0.998521
0.997064
0.995835
0.994861
1.01117
1.01123
1.01097
1.0104
1.00951
1.00836
1.00695
1.00535
1.00362
1.00184
1.00009
0.998439
0.996954
0.995703
0.994711
1.01132
1.01138
1.01111
1.01054
1.00963
1.00846
1.00702
1.00539
1.00363
1.00182
1.00004
0.998355
0.996842
0.995568
0.994557
1.01147
1.01153
1.01126
1.01067
1.00976
1.00856
1.0071
1.00544
1.00365
1.0018
0.999983
0.998269
0.996728
0.995429
0.994401
1.01162
1.01168
1.01141
1.01081
1.00988
1.00866
1.00718
1.00549
1.00366
1.00178
0.999928
0.998181
0.996611
0.995288
0.99424
1.01177
1.01183
1.01156
1.01095
1.01001
1.00877
1.00726
1.00553
1.00368
1.00176
0.999871
0.998091
0.996491
0.995144
0.994077
1.01193
1.01199
1.01171
1.0111
1.01014
1.00888
1.00734
1.00558
1.00369
1.00174
0.999813
0.997999
0.996368
0.994996
0.993909
1.01208
1.01215
1.01187
1.01125
1.01027
1.00899
1.00742
1.00563
1.0037
1.00172
0.999754
0.997905
0.996243
0.994845
0.993738
1.01225
1.01232
1.01203
1.0114
1.0104
1.0091
1.0075
1.00569
1.00372
1.00169
0.999693
0.997809
0.996115
0.994691
0.993564
1.01241
1.01248
1.01219
1.01155
1.01054
1.00922
1.00759
1.00574
1.00373
1.00167
0.99963
0.99771
0.995985
0.994533
0.993385
1.01258
1.01265
1.01236
1.01171
1.01068
1.00933
1.00768
1.00579
1.00375
1.00164
0.999566
0.997609
0.995851
0.994372
0.993203
1.01275
1.01283
1.01253
1.01187
1.01083
1.00945
1.00777
1.00585
1.00377
1.00162
0.999501
0.997506
0.995714
0.994208
0.993017
1.01293
1.01301
1.0127
1.01203
1.01097
1.00958
1.00786
1.0059
1.00378
1.00159
0.999433
0.9974
0.995574
0.99404
0.992827
1.01311
1.01319
1.01288
1.0122
1.01112
1.0097
1.00795
1.00596
1.0038
1.00157
0.999365
0.997292
0.995431
0.993868
0.992633
1.01329
1.01337
1.01306
1.01237
1.01128
1.00983
1.00805
1.00601
1.00381
1.00154
0.999294
0.997181
0.995285
0.993692
0.992434
1.01348
1.01356
1.01325
1.01254
1.01143
1.00996
1.00815
1.00607
1.00383
1.00151
0.999221
0.997068
0.995136
0.993513
0.992232
1.01367
1.01375
1.01343
1.01272
1.01159
1.01009
1.00825
1.00613
1.00384
1.00148
0.999147
0.996952
0.994983
0.993329
0.992024
1.01386
1.01395
1.01363
1.0129
1.01175
1.01023
1.00835
1.00619
1.00386
1.00145
0.999071
0.996834
0.994827
0.993142
0.991813
1.01406
1.01415
1.01382
1.01309
1.01192
1.01036
1.00845
1.00625
1.00387
1.00142
0.998993
0.996712
0.994667
0.992951
0.991597
1.01426
1.01435
1.01402
1.01328
1.01209
1.01051
1.00855
1.00632
1.00389
1.00138
0.998913
0.996588
0.994504
0.992755
0.991377
1.01446
1.01456
1.01422
1.01347
1.01226
1.01065
1.00866
1.00638
1.00391
1.00135
0.99883
0.996461
0.994336
0.992555
0.991151
1.01467
1.01477
1.01443
1.01366
1.01243
1.0108
1.00877
1.00645
1.00392
1.00132
0.998746
0.99633
0.994166
0.992351
0.990921
1.01488
1.01499
1.01464
1.01387
1.01261
1.01095
1.00888
1.00651
1.00394
1.00128
0.998659
0.996197
0.993991
0.992142
0.990686
1.0151
1.01521
1.01486
1.01407
1.0128
1.0111
1.009
1.00658
1.00395
1.00124
0.998571
0.99606
0.993812
0.991929
0.990447
1.01532
1.01543
1.01508
1.01428
1.01298
1.01125
1.00911
1.00665
1.00397
1.0012
0.99848
0.99592
0.99363
0.991711
0.990202
1.01554
1.01566
1.01531
1.01449
1.01318
1.01141
1.00923
1.00671
1.00398
1.00116
0.998386
0.995777
0.993443
0.991489
0.989952
1.01577
1.01589
1.01553
1.01471
1.01337
1.01157
1.00935
1.00678
1.004
1.00112
0.99829
0.995631
0.993252
0.991261
0.989696
1.01601
1.01613
1.01577
1.01493
1.01357
1.01174
1.00947
1.00686
1.00402
1.00108
0.998192
0.995481
0.993057
0.991029
0.989436
1.01624
1.01637
1.01601
1.01516
1.01377
1.01191
1.0096
1.00693
1.00403
1.00104
0.998091
0.995327
0.992857
0.990792
0.989169
1.01649
1.01662
1.01625
1.01539
1.01398
1.01208
1.00972
1.007
1.00405
1.00099
0.997987
0.995169
0.992653
0.990549
0.988898
1.01674
1.01688
1.0165
1.01562
1.01419
1.01226
1.00985
1.00708
1.00406
1.00095
0.99788
0.995008
0.992444
0.990301
0.98862
1.01699
1.01713
1.01675
1.01586
1.0144
1.01244
1.00998
1.00715
1.00407
1.0009
0.997771
0.994843
0.99223
0.990048
0.988337
1.01725
1.0174
1.01701
1.01611
1.01462
1.01262
1.01012
1.00723
1.00409
1.00085
0.997658
0.994673
0.992011
0.98979
0.988048
1.01751
1.01766
1.01727
1.01636
1.01485
1.01281
1.01026
1.00731
1.0041
1.00079
0.997543
0.9945
0.991788
0.989526
0.987753
1.01778
1.01794
1.01754
1.01661
1.01508
1.013
1.01039
1.00739
1.00412
1.00074
0.997424
0.994322
0.991559
0.989255
0.987451
1.01805
1.01822
1.01782
1.01687
1.01531
1.01319
1.01054
1.00747
1.00413
1.00069
0.997302
0.994141
0.991326
0.98898
0.987144
1.01833
1.0185
1.0181
1.01714
1.01555
1.01339
1.01068
1.00755
1.00414
1.00063
0.997177
0.993954
0.991086
0.988698
0.98683
1.01861
1.01879
1.01839
1.01741
1.01579
1.01359
1.01083
1.00763
1.00415
1.00057
0.997048
0.993763
0.990842
0.98841
0.98651
1.0189
1.01909
1.01868
1.01769
1.01604
1.0138
1.01098
1.00772
1.00416
1.00051
0.996915
0.993567
0.990592
0.988116
0.986182
1.01919
1.01939
1.01898
1.01797
1.0163
1.01401
1.01113
1.0078
1.00418
1.00044
0.996779
0.993366
0.990336
0.987816
0.985849
1.01949
1.0197
1.01928
1.01826
1.01656
1.01422
1.01129
1.00789
1.00419
1.00037
0.996639
0.99316
0.990074
0.987509
0.985508
1.0198
1.02001
1.01959
1.01856
1.01682
1.01444
1.01145
1.00797
1.00419
1.0003
0.996495
0.992949
0.989806
0.987196
0.985161
1.02011
1.02033
1.01991
1.01886
1.01709
1.01466
1.01161
1.00806
1.0042
1.00023
0.996347
0.992733
0.989532
0.986875
0.984806
1.02043
1.02066
1.02023
1.01917
1.01737
1.01489
1.01177
1.00815
1.00421
1.00016
0.996194
0.992511
0.989251
0.986548
0.984444
1.02076
1.02099
1.02056
1.01948
1.01765
1.01512
1.01194
1.00824
1.00422
1.00008
0.996038
0.992284
0.988964
0.986214
0.984074
1.02109
1.02133
1.0209
1.0198
1.01794
1.01536
1.01211
1.00833
1.00422
1
0.995876
0.992051
0.988671
0.985873
0.983698
1.02142
1.02168
1.02124
1.02013
1.01823
1.0156
1.01228
1.00842
1.00423
0.999916
0.99571
0.991812
0.988371
0.985524
0.983313
1.02177
1.02204
1.02159
1.02047
1.01853
1.01585
1.01246
1.00851
1.00423
0.999829
0.995539
0.991566
0.988063
0.985168
0.982921
1.02212
1.0224
1.02195
1.02081
1.01883
1.0161
1.01264
1.00861
1.00423
0.999738
0.995362
0.991315
0.987749
0.984803
0.98252
1.02248
1.02277
1.02232
1.02116
1.01915
1.01635
1.01282
1.0087
1.00423
0.999644
0.995181
0.991056
0.987427
0.984432
0.982112
1.02284
1.02315
1.02269
1.02151
1.01947
1.01662
1.013
1.0088
1.00423
0.999546
0.994994
0.990791
0.987097
0.984052
0.981695
1.02322
1.02353
1.02307
1.02188
1.01979
1.01688
1.01319
1.00889
1.00422
0.999445
0.994801
0.99052
0.98676
0.983664
0.98127
1.0236
1.02392
1.02346
1.02225
1.02012
1.01715
1.01338
1.00899
1.00422
0.999339
0.994603
0.990241
0.986415
0.983267
0.980836
1.02399
1.02432
1.02386
1.02263
1.02046
1.01743
1.01358
1.00909
1.00421
0.999228
0.994398
0.989954
0.986062
0.982862
0.980394
1.02438
1.02473
1.02427
1.02302
1.02081
1.01771
1.01377
1.00918
1.0042
0.999113
0.994187
0.989661
0.9857
0.982448
0.979942
1.02479
1.02515
1.02468
1.02341
1.02116
1.018
1.01397
1.00928
1.00419
0.998994
0.993969
0.989359
0.98533
0.982026
0.979482
1.0252
1.02558
1.02511
1.02382
1.02153
1.0183
1.01418
1.00938
1.00417
0.998869
0.993745
0.989049
0.984951
0.981594
0.979012
1.02562
1.02602
1.02554
1.02423
1.0219
1.0186
1.01438
1.00947
1.00416
0.99874
0.993514
0.988731
0.984564
0.981153
0.978534
1.02605
1.02646
1.02599
1.02466
1.02227
1.0189
1.01459
1.00957
1.00414
0.998604
0.993275
0.988404
0.984166
0.980702
0.978045
1.02649
1.02692
1.02644
1.02509
1.02266
1.01921
1.0148
1.00967
1.00411
0.998463
0.993029
0.988069
0.98376
0.980242
0.977547
1.02694
1.02738
1.0269
1.02553
1.02305
1.01953
1.01502
1.00977
1.00408
0.998316
0.992774
0.987725
0.983343
0.979772
0.977039
1.0274
1.02786
1.02737
1.02598
1.02345
1.01985
1.01524
1.00986
1.00405
0.998163
0.992512
0.987371
0.982917
0.979291
0.976521
1.02786
1.02834
1.02786
1.02645
1.02386
1.02018
1.01546
1.00996
1.00402
0.998003
0.992241
0.987007
0.982481
0.9788
0.975992
1.02834
1.02884
1.02835
1.02692
1.02428
1.02052
1.01568
1.01005
1.00398
0.997836
0.991961
0.986634
0.982034
0.978299
0.975453
1.02882
1.02934
1.02886
1.0274
1.02471
1.02086
1.01591
1.01015
1.00394
0.997662
0.991672
0.98625
0.981576
0.977787
0.974904
1.02932
1.02986
1.02937
1.02789
1.02515
1.02121
1.01614
1.01024
1.00389
0.997481
0.991373
0.985855
0.981107
0.977264
0.974344
1.02983
1.03039
1.0299
1.0284
1.0256
1.02156
1.01637
1.01033
1.00383
0.997291
0.991065
0.98545
0.980627
0.976729
0.973772
1.03035
1.03093
1.03044
1.02891
1.02605
1.02192
1.01661
1.01042
1.00378
0.997093
0.990746
0.985033
0.980136
0.976183
0.97319
1.03088
1.03148
1.03099
1.02944
1.02652
1.02229
1.01684
1.01051
1.00371
0.996886
0.990417
0.984605
0.979632
0.975625
0.972596
1.03142
1.03205
1.03156
1.02998
1.02699
1.02267
1.01708
1.0106
1.00364
0.99667
0.990076
0.984165
0.979116
0.975056
0.971991
1.03197
1.03262
1.03214
1.03053
1.02748
1.02305
1.01733
1.01068
1.00356
0.996444
0.989724
0.983712
0.978587
0.974473
0.971373
1.03253
1.03321
1.03273
1.0311
1.02798
1.02343
1.01757
1.01076
1.00348
0.996208
0.98936
0.983246
0.978046
0.973879
0.970744
1.03311
1.03382
1.03333
1.03168
1.02849
1.02383
1.01782
1.01084
1.00339
0.995962
0.988983
0.982767
0.977492
0.973271
0.970102
1.0337
1.03443
1.03395
1.03227
1.029
1.02423
1.01806
1.01091
1.00329
0.995704
0.988594
0.982275
0.976924
0.972651
0.969449
1.0343
1.03506
1.03458
1.03287
1.02953
1.02464
1.01831
1.01098
1.00318
0.995435
0.988191
0.981768
0.976342
0.972017
0.968782
1.03492
1.03571
1.03523
1.03349
1.03008
1.02505
1.01856
1.01104
1.00306
0.995153
0.987774
0.981248
0.975746
0.97137
0.968103
1.03555
1.03637
1.03589
1.03412
1.03063
1.02548
1.01881
1.0111
1.00293
0.994858
0.987343
0.980712
0.975135
0.970709
0.96741
1.03619
1.03705
1.03657
1.03477
1.03119
1.02591
1.01906
1.01116
1.00279
0.994551
0.986897
0.980161
0.97451
0.970034
0.966705
1.03685
1.03774
1.03727
1.03543
1.03177
1.02634
1.01932
1.01121
1.00264
0.994229
0.986435
0.979594
0.973869
0.969344
0.965986
1.03752
1.03844
1.03798
1.03611
1.03236
1.02678
1.01957
1.01125
1.00248
0.993892
0.985957
0.97901
0.973212
0.96864
0.965253
1.03821
1.03917
1.03871
1.0368
1.03296
1.02723
1.01982
1.01128
1.00231
0.993539
0.985462
0.97841
0.97254
0.96792
0.964507
1.03891
1.03991
1.03946
1.03751
1.03357
1.02769
1.02007
1.01131
1.00213
0.993171
0.984949
0.977792
0.971851
0.967186
0.963747
1.03963
1.04067
1.04022
1.03824
1.0342
1.02815
1.02032
1.01133
1.00193
0.992785
0.984419
0.977157
0.971145
0.966436
0.962971
1.04037
1.04145
1.041
1.03899
1.03484
1.02862
1.02056
1.01134
1.00171
0.992382
0.983869
0.976503
0.970422
0.96567
0.962182
1.04112
1.04224
1.04181
1.03975
1.03549
1.02909
1.02081
1.01134
1.00148
0.99196
0.9833
0.97583
0.96968
0.964887
0.961378
1.04189
1.04306
1.04263
1.04053
1.03616
1.02957
1.02105
1.01132
1.00123
0.991519
0.982711
0.975138
0.968922
0.964089
0.96056
1.04268
1.04389
1.04347
1.04133
1.03684
1.03006
1.02129
1.0113
1.00097
0.991057
0.982101
0.974425
0.968144
0.963273
0.959725
1.04349
1.04475
1.04434
1.04215
1.03754
1.03055
1.02152
1.01126
1.00069
0.990573
0.98147
0.973692
0.967347
0.96244
0.958876
1.04432
1.04562
1.04522
1.04299
1.03824
1.03104
1.02175
1.01121
1.00038
0.990068
0.980815
0.972938
0.966531
0.96159
0.958011
1.04516
1.04652
1.04613
1.04385
1.03897
1.03154
1.02197
1.01114
1.00006
0.989539
0.980138
0.972162
0.965695
0.960722
0.95713
1.04603
1.04744
1.04707
1.04473
1.0397
1.03204
1.02218
1.01106
0.999713
0.988986
0.979436
0.971363
0.964839
0.959836
0.956233
1.04692
1.04839
1.04802
1.04564
1.04046
1.03255
1.02239
1.01096
0.999343
0.988407
0.97871
0.970541
0.963962
0.958932
0.955321
1.04783
1.04936
1.049
1.04656
1.04122
1.03306
1.02258
1.01084
0.998949
0.987802
0.977957
0.969695
0.963064
0.958009
0.954391
1.04876
1.05035
1.05001
1.04751
1.042
1.03357
1.02276
1.0107
0.998528
0.987169
0.977178
0.968825
0.962144
0.957067
0.953446
1.04972
1.05137
1.05104
1.04848
1.0428
1.03409
1.02294
1.01053
0.99808
0.986507
0.976371
0.96793
0.961202
0.956105
0.952483
1.0507
1.05242
1.05211
1.04948
1.04361
1.0346
1.0231
1.01034
0.997603
0.985815
0.975536
0.967009
0.960237
0.955125
0.951504
1.05171
1.05349
1.0532
1.0505
1.04443
1.03511
1.02324
1.01013
0.997095
0.985091
0.974671
0.966061
0.959249
0.954124
0.950508
1.05274
1.05459
1.05432
1.05155
1.04527
1.03562
1.02336
1.00989
0.996554
0.984335
0.973775
0.965087
0.958238
0.953103
0.949494
1.05379
1.05572
1.05547
1.05262
1.04612
1.03613
1.02347
1.00962
0.99598
0.983544
0.972848
0.964084
0.957203
0.952061
0.948463
1.05488
1.05688
1.05665
1.05372
1.04699
1.03663
1.02356
1.00932
0.995369
0.982718
0.971888
0.963053
0.956143
0.951
0.947415
1.05599
1.05808
1.05786
1.05484
1.04787
1.03713
1.02362
1.00898
0.994721
0.981855
0.970895
0.961993
0.955059
0.949917
0.946349
1.05713
1.05931
1.05911
1.056
1.04876
1.03762
1.02366
1.00861
0.994033
0.980954
0.969868
0.960903
0.953949
0.948813
0.945266
1.05831
1.06057
1.06039
1.05718
1.04966
1.0381
1.02367
1.0082
0.993303
0.980013
0.968805
0.959783
0.952814
0.947687
0.944164
1.05951
1.06186
1.06172
1.05839
1.05058
1.03857
1.02365
1.00774
0.992529
0.97903
0.967705
0.958632
0.951653
0.946541
0.943045
1.06075
1.0632
1.06307
1.05963
1.05151
1.03903
1.02359
1.00725
0.991709
0.978005
0.966568
0.957449
0.950465
0.945372
0.941907
1.06202
1.06457
1.06447
1.06091
1.05244
1.03947
1.0235
1.0067
0.990841
0.976935
0.965392
0.956233
0.949251
0.944181
0.940752
1.06332
1.06598
1.06591
1.06221
1.05338
1.03989
1.02337
1.00611
0.989922
0.975819
0.964177
0.954985
0.94801
0.942969
0.939578
1.06466
1.06743
1.06739
1.06354
1.05433
1.04028
1.0232
1.00547
0.98895
0.974655
0.962921
0.953703
0.946741
0.941734
0.938386
1.06604
1.06893
1.06892
1.06491
1.05529
1.04066
1.02297
1.00476
0.987923
0.973442
0.961624
0.952387
0.945445
0.940476
0.937176
1.06746
1.07047
1.07049
1.06631
1.05624
1.041
1.0227
1.004
0.986838
0.972178
0.960284
0.951037
0.944121
0.939197
0.935947
1.06892
1.07205
1.07211
1.06774
1.0572
1.04131
1.02237
1.00317
0.985693
0.970862
0.958901
0.949652
0.942769
0.937894
0.9347
1.07042
1.07369
1.07378
1.0692
1.05816
1.04158
1.02198
1.00228
0.984486
0.969492
0.957474
0.948231
0.941389
0.936569
0.933435
1.07196
1.07538
1.0755
1.07069
1.05911
1.04181
1.02152
1.00132
0.983213
0.968067
0.956002
0.946774
0.93998
0.935221
0.932151
1.07355
1.07712
1.07727
1.07222
1.06005
1.04199
1.021
1.00028
0.981872
0.966585
0.954484
0.945282
0.938542
0.933851
0.930849
1.07519
1.07891
1.0791
1.07377
1.06098
1.04212
1.0204
0.999163
0.980461
0.965044
0.952919
0.943752
0.937076
0.932457
0.929528
1.07688
1.08077
1.08098
1.07536
1.06189
1.04218
1.01971
0.997963
0.978977
0.963444
0.951308
0.942187
0.935582
0.931042
0.928189
1.07862
1.08268
1.08293
1.07697
1.06278
1.04218
1.01894
0.996676
0.977418
0.961784
0.949649
0.940584
0.934058
0.929603
0.926832
1.08041
1.08466
1.08493
1.07861
1.06364
1.04211
1.01807
0.995298
0.975781
0.960061
0.947942
0.938944
0.932506
0.928141
0.925456
1.08226
1.08671
1.087
1.08028
1.06446
1.04195
1.01711
0.993824
0.974065
0.958275
0.946186
0.937267
0.930925
0.926657
0.924063
1.08417
1.08883
1.08914
1.08197
1.06525
1.04171
1.01603
0.992251
0.972266
0.956425
0.944381
0.935553
0.929315
0.925151
0.922651
1.08613
1.09103
1.09134
1.08367
1.06599
1.04136
1.01484
0.990574
0.970384
0.95451
0.942527
0.933802
0.927677
0.923622
0.921221
1.08817
1.0933
1.09362
1.08539
1.06666
1.0409
1.01353
0.988789
0.968415
0.952529
0.940625
0.932014
0.926011
0.922072
0.919774
1.09027
1.09566
1.09596
1.08713
1.06727
1.04033
1.01209
0.986892
0.966358
0.950482
0.938672
0.930189
0.924317
0.920499
0.918309
1.09244
1.0981
1.09838
1.08886
1.0678
1.03962
1.01051
0.984879
0.964212
0.948368
0.936671
0.928327
0.922595
0.918905
0.916826
1.09468
1.10064
1.10087
1.0906
1.06824
1.03877
1.00879
0.982747
0.961974
0.946188
0.93462
0.92643
0.920845
0.917289
0.915326
1.097
1.10327
1.10343
1.09232
1.06857
1.03776
1.00692
0.980492
0.959645
0.94394
0.932522
0.924497
0.919069
0.915652
0.913809
1.09941
1.10601
1.10607
1.09403
1.06878
1.03659
1.00489
0.97811
0.957223
0.941625
0.930375
0.922528
0.917266
0.913995
0.912276
1.1019
1.10886
1.10879
1.0957
1.06886
1.03523
1.00269
0.9756
0.954708
0.939244
0.92818
0.920525
0.915437
0.912317
0.910726
1.10448
1.11183
1.11157
1.09733
1.06878
1.03368
1.00031
0.972959
0.952099
0.936796
0.925939
0.918489
0.913582
0.910619
0.90916
1.10716
1.11491
1.11443
1.09891
1.06853
1.03192
0.997758
0.970185
0.949396
0.934284
0.923652
0.916419
0.911703
0.908902
0.907579
1.10994
1.11813
1.11735
1.10041
1.06809
1.02994
0.995017
0.967276
0.9466
0.931707
0.92132
0.914317
0.909799
0.907166
0.905983
1.11283
1.12148
1.12034
1.10181
1.06743
1.02772
0.992083
0.964232
0.943712
0.929067
0.918945
0.912185
0.907872
0.905411
0.904371
1.11583
1.12498
1.12338
1.10311
1.06654
1.02525
0.988951
0.961053
0.940733
0.926366
0.916528
0.910022
0.905922
0.903638
0.902746
1.11896
1.12863
1.12647
1.10426
1.06538
1.0225
0.985618
0.957739
0.937665
0.923605
0.914071
0.907831
0.903951
0.901848
0.901106
1.12222
1.13243
1.1296
1.10525
1.06393
1.01948
0.982081
0.954291
0.934509
0.920786
0.911575
0.905612
0.901958
0.900041
0.899453
1.12562
1.13641
1.13275
1.10604
1.06217
1.01616
0.978336
0.950712
0.93127
0.917913
0.909042
0.903367
0.899945
0.898219
0.897787
1.12917
1.14055
1.1359
1.10661
1.06006
1.01254
0.974385
0.947005
0.927948
0.914986
0.906474
0.901097
0.897914
0.89638
0.896109
1.13289
1.14487
1.13904
1.10691
1.05757
1.0086
0.970227
0.943173
0.924548
0.912011
0.903873
0.898804
0.895864
0.894527
0.894418
1.13678
1.14938
1.14213
1.1069
1.05469
1.00433
0.965866
0.939221
0.921074
0.908988
0.901243
0.896489
0.893797
0.89266
0.892716
1.14086
1.15407
1.14516
1.10654
1.05136
0.999729
0.961306
0.935155
0.91753
0.905922
0.898584
0.894155
0.891715
0.89078
0.891003
1.14515
1.15896
1.14808
1.10578
1.04757
0.994788
0.956553
0.930981
0.913921
0.902817
0.895901
0.891802
0.889617
0.888888
0.88928
1.14967
1.16403
1.15085
1.10457
1.04329
0.989507
0.951615
0.926705
0.910252
0.899676
0.893195
0.889433
0.887506
0.886984
0.887547
1.15443
1.16928
1.15343
1.10286
1.0385
0.983888
0.946503
0.922337
0.906529
0.896503
0.89047
0.88705
0.885383
0.885069
0.885805
1.15946
1.17471
1.15576
1.10058
1.03315
0.977935
0.941228
0.917884
0.902757
0.893303
0.887729
0.884654
0.883249
0.883144
0.884054
1.16478
1.18031
1.15778
1.09767
1.02725
0.971659
0.935805
0.913356
0.898942
0.890081
0.884973
0.882247
0.881105
0.88121
0.882296
1.17041
1.18605
1.15941
1.09408
1.02076
0.965074
0.93025
0.908763
0.895091
0.88684
0.882208
0.879831
0.878952
0.879269
0.880531
1.1764
1.1919
1.16058
1.08974
1.01368
0.958199
0.92458
0.904114
0.891212
0.883587
0.879435
0.877408
0.876792
0.87732
0.878759
1.18276
1.19784
1.16119
1.08459
1.006
0.951059
0.918815
0.89942
0.88731
0.880325
0.876658
0.874979
0.874626
0.875365
0.876982
1.18954
1.20381
1.16115
1.07855
0.997739
0.943682
0.912974
0.894691
0.883392
0.87706
0.873879
0.872548
0.872456
0.873405
0.8752
1.19677
1.20975
1.16035
1.07159
0.988896
0.936105
0.907079
0.889938
0.879468
0.873798
0.871103
0.870116
0.870282
0.871442
0.873414
1.20448
1.2156
1.15867
1.06363
0.9795
0.928365
0.901149
0.885171
0.875543
0.870542
0.868332
0.867684
0.868107
0.869476
0.871625
1.21272
1.22125
1.15598
1.05464
0.969588
0.920507
0.895207
0.880401
0.871625
0.867299
0.865568
0.865255
0.865932
0.867508
0.869834
1.22153
1.22661
1.15214
1.04458
0.959211
0.912577
0.889272
0.875638
0.867723
0.864073
0.862816
0.862831
0.863759
0.86554
0.868043
1.23094
1.23153
1.14702
1.03344
0.948432
0.904625
0.883363
0.870892
0.863845
0.86087
0.860077
0.860413
0.861589
0.863574
0.866251
1.24098
1.23585
1.14047
1.0212
0.937331
0.8967
0.877497
0.866172
0.859997
0.857693
0.857355
0.858004
0.859424
0.861611
0.864462
1.25169
1.2394
1.13234
1.0079
0.926001
0.888852
0.871689
0.861489
0.856189
0.854549
0.854652
0.855606
0.857266
0.859653
0.862674
1.26307
1.24194