/*--------------------------------*- C++ -*----------------------------------*\
  =========                 |
  \\      /  F ield         | OpenFOAM: The Open Source CFD Toolbox
   \\    /   O peration     | Website:  https://openfoam.org
    \\  /    A nd           | Version:  6.0
     \\/     M anipulation  |
\*---------------------------------------------------------------------------*/
FoamFile
{
    version     2.0;
    format      ascii;
    class       volScalarField;
    location    "3.6";
    object      p;
}
// * * * * * * * * * * * * * * * * * * * * * * * * * * * * * * * * * * * * * //

dimensions      [0 2 -2 0 0 0 0];

internalField   nonuniform List<scalar> 
24000
(
1.00685
1.00688
1.00647
1.00581
1.00484
1.00379
1.00275
1.00184
1.00108
1.00053
1.00007
0.999768
1.00686
1.00694
1.00664
1.0061
1.00525
1.00426
1.00322
1.00226
1.00138
1.00071
1.00009
0.99968
1.00686
1.00692
1.00659
1.00603
1.00516
1.00418
1.00315
1.0022
1.00134
1.0007
1.00009
0.999719
1.00686
1.0069
1.00654
1.00595
1.00506
1.00408
1.00307
1.00215
1.00132
1.00071
1.00009
0.999738
1.00686
1.0069
1.00654
1.00595
1.00507
1.0041
1.0031
1.00218
1.00136
1.00073
1.00009
0.999715
1.00686
1.00691
1.00655
1.00597
1.00509
1.00413
1.00313
1.00221
1.00137
1.00073
1.00007
0.999679
1.00687
1.00691
1.00656
1.00598
1.00511
1.00414
1.00313
1.00221
1.00137
1.00072
1.00005
0.999653
1.00688
1.00692
1.00657
1.006
1.00513
1.00416
1.00315
1.00223
1.00138
1.00074
1.00005
0.999642
1.00688
1.00692
1.00659
1.00602
1.00516
1.0042
1.0032
1.00227
1.00142
1.00077
1.00007
0.999633
1.00689
1.00692
1.0066
1.00605
1.0052
1.00425
1.00325
1.00232
1.00147
1.0008
1.00008
0.99962
1.0069
1.00693
1.00661
1.00606
1.00523
1.00428
1.00329
1.00236
1.0015
1.00082
1.00008
0.999601
1.00691
1.00693
1.00661
1.00607
1.00524
1.0043
1.00331
1.00238
1.00151
1.00082
1.00007
0.99958
1.00692
1.00694
1.00661
1.00608
1.00526
1.00432
1.00333
1.00239
1.00152
1.00082
1.00006
0.999562
1.00693
1.00694
1.00662
1.00608
1.00527
1.00433
1.00334
1.00241
1.00153
1.00082
1.00006
0.999547
1.00694
1.00695
1.00663
1.00609
1.00528
1.00435
1.00336
1.00243
1.00154
1.00083
1.00006
0.999533
1.00695
1.00696
1.00664
1.0061
1.00529
1.00437
1.00339
1.00245
1.00156
1.00084
1.00006
0.999521
1.00697
1.00698
1.00665
1.00611
1.00531
1.00439
1.00341
1.00247
1.00158
1.00085
1.00006
0.99951
1.00698
1.00699
1.00667
1.00613
1.00533
1.00441
1.00343
1.00249
1.00159
1.00086
1.00006
0.9995
1.007
1.00701
1.00669
1.00615
1.00535
1.00444
1.00346
1.00252
1.00161
1.00087
1.00007
0.999491
1.00701
1.00703
1.00672
1.00618
1.00538
1.00446
1.00349
1.00254
1.00163
1.00088
1.00007
0.999483
1.00703
1.00705
1.00674
1.00621
1.00541
1.0045
1.00352
1.00257
1.00166
1.00089
1.00008
0.999475
1.00705
1.00707
1.00677
1.00624
1.00544
1.00453
1.00355
1.0026
1.00168
1.00091
1.00008
0.999468
1.00706
1.0071
1.0068
1.00627
1.00548
1.00457
1.00358
1.00263
1.0017
1.00092
1.00008
0.99946
1.00708
1.00712
1.00682
1.0063
1.00551
1.0046
1.00362
1.00266
1.00172
1.00093
1.00009
0.999453
1.0071
1.00714
1.00684
1.00633
1.00554
1.00463
1.00365
1.00268
1.00174
1.00094
1.00009
0.999445
1.00712
1.00716
1.00687
1.00635
1.00557
1.00467
1.00368
1.00271
1.00176
1.00095
1.0001
0.999439
1.00714
1.00718
1.00689
1.00638
1.0056
1.0047
1.00371
1.00273
1.00178
1.00096
1.0001
0.999432
1.00716
1.0072
1.00691
1.00641
1.00563
1.00473
1.00374
1.00276
1.0018
1.00097
1.0001
0.999425
1.00718
1.00722
1.00694
1.00643
1.00566
1.00476
1.00377
1.00279
1.00182
1.00098
1.00011
0.999418
1.00721
1.00725
1.00696
1.00646
1.00569
1.00479
1.0038
1.00281
1.00184
1.00099
1.00011
0.999411
1.00723
1.00727
1.00699
1.00649
1.00572
1.00482
1.00383
1.00284
1.00186
1.001
1.00011
0.999404
1.00725
1.0073
1.00701
1.00652
1.00575
1.00485
1.00386
1.00286
1.00188
1.00101
1.00011
0.999396
1.00728
1.00732
1.00704
1.00655
1.00578
1.00488
1.00389
1.00289
1.00189
1.00102
1.00011
0.999388
1.00731
1.00735
1.00707
1.00657
1.00581
1.00491
1.00391
1.00291
1.00191
1.00102
1.00011
0.99938
1.00733
1.00738
1.00709
1.0066
1.00584
1.00494
1.00394
1.00293
1.00192
1.00103
1.00011
0.999371
1.00736
1.00741
1.00712
1.00663
1.00587
1.00497
1.00397
1.00295
1.00194
1.00103
1.00011
0.999363
1.00739
1.00744
1.00715
1.00666
1.0059
1.005
1.004
1.00297
1.00195
1.00104
1.00011
0.999354
1.00742
1.00747
1.00719
1.00669
1.00593
1.00503
1.00402
1.003
1.00197
1.00105
1.00011
0.999346
1.00746
1.0075
1.00722
1.00673
1.00596
1.00507
1.00405
1.00302
1.00199
1.00105
1.00011
0.999337
1.00749
1.00754
1.00726
1.00677
1.006
1.0051
1.00408
1.00305
1.002
1.00106
1.00011
0.999328
1.00752
1.00758
1.0073
1.00681
1.00604
1.00514
1.00411
1.00307
1.00202
1.00107
1.00011
0.999319
1.00756
1.00761
1.00734
1.00685
1.00608
1.00517
1.00415
1.0031
1.00204
1.00108
1.00011
0.999309
1.0076
1.00765
1.00738
1.00689
1.00612
1.00521
1.00418
1.00312
1.00206
1.00108
1.00011
0.999298
1.00763
1.00769
1.00742
1.00693
1.00616
1.00525
1.00422
1.00315
1.00208
1.00109
1.00011
0.999287
1.00767
1.00773
1.00746
1.00698
1.00621
1.00529
1.00425
1.00318
1.00209
1.00109
1.00011
0.999275
1.00771
1.00777
1.0075
1.00702
1.00625
1.00533
1.00429
1.00321
1.00211
1.0011
1.0001
0.999262
1.00775
1.00781
1.00755
1.00707
1.00629
1.00537
1.00432
1.00323
1.00213
1.0011
1.0001
0.999248
1.00779
1.00786
1.00759
1.00711
1.00633
1.00541
1.00436
1.00326
1.00214
1.00111
1.00009
0.999233
1.00783
1.0079
1.00763
1.00715
1.00638
1.00545
1.00439
1.00328
1.00216
1.00111
1.00009
0.999217
1.00787
1.00794
1.00768
1.0072
1.00642
1.00549
1.00442
1.00331
1.00217
1.00111
1.00008
0.999201
1.00792
1.00799
1.00772
1.00724
1.00646
1.00553
1.00446
1.00333
1.00219
1.00112
1.00008
0.999184
1.00796
1.00803
1.00777
1.00729
1.00651
1.00557
1.00449
1.00336
1.0022
1.00112
1.00007
0.999165
1.00801
1.00808
1.00782
1.00734
1.00655
1.00561
1.00452
1.00338
1.00221
1.00112
1.00006
0.999146
1.00806
1.00813
1.00786
1.00738
1.0066
1.00565
1.00456
1.0034
1.00222
1.00112
1.00005
0.999127
1.0081
1.00818
1.00791
1.00743
1.00664
1.00569
1.00459
1.00343
1.00224
1.00112
1.00004
0.999106
1.00815
1.00823
1.00796
1.00748
1.00669
1.00574
1.00462
1.00345
1.00225
1.00112
1.00003
0.999086
1.0082
1.00828
1.00802
1.00754
1.00674
1.00578
1.00466
1.00348
1.00226
1.00112
1.00001
0.999064
1.00825
1.00833
1.00807
1.00759
1.00678
1.00582
1.00469
1.0035
1.00227
1.00112
1
0.999042
1.00831
1.00839
1.00813
1.00764
1.00684
1.00586
1.00473
1.00352
1.00228
1.00112
0.999989
0.99902
1.00836
1.00845
1.00818
1.0077
1.00689
1.00591
1.00476
1.00355
1.0023
1.00111
0.999975
0.998996
1.00842
1.00851
1.00824
1.00776
1.00694
1.00596
1.0048
1.00357
1.00231
1.00111
0.999961
0.998972
1.00847
1.00857
1.0083
1.00782
1.00699
1.006
1.00484
1.0036
1.00232
1.00111
0.999946
0.998947
1.00853
1.00863
1.00836
1.00788
1.00705
1.00605
1.00488
1.00362
1.00233
1.00111
0.99993
0.998921
1.00859
1.00869
1.00843
1.00794
1.00711
1.0061
1.00492
1.00365
1.00234
1.0011
0.999914
0.998894
1.00865
1.00876
1.00849
1.008
1.00717
1.00615
1.00495
1.00368
1.00235
1.0011
0.999897
0.998865
1.00871
1.00882
1.00856
1.00807
1.00723
1.0062
1.00499
1.0037
1.00236
1.00109
0.999879
0.998835
1.00877
1.00889
1.00862
1.00813
1.00729
1.00626
1.00503
1.00373
1.00237
1.00108
0.99986
0.998804
1.00884
1.00895
1.00869
1.0082
1.00735
1.00631
1.00507
1.00375
1.00238
1.00108
0.99984
0.998772
1.0089
1.00902
1.00876
1.00827
1.00741
1.00636
1.00511
1.00378
1.00239
1.00107
0.999818
0.998738
1.00897
1.00909
1.00883
1.00833
1.00747
1.00641
1.00515
1.0038
1.0024
1.00106
0.999796
0.998704
1.00904
1.00917
1.0089
1.0084
1.00753
1.00646
1.00519
1.00383
1.0024
1.00105
0.999773
0.998669
1.00911
1.00924
1.00897
1.00847
1.00759
1.00652
1.00523
1.00385
1.00241
1.00104
0.999748
0.998632
1.00918
1.00931
1.00904
1.00854
1.00766
1.00657
1.00527
1.00387
1.00242
1.00103
0.999723
0.998595
1.00925
1.00939
1.00912
1.00861
1.00772
1.00662
1.00531
1.0039
1.00242
1.00102
0.999696
0.998558
1.00933
1.00947
1.00919
1.00869
1.00779
1.00668
1.00535
1.00392
1.00243
1.00101
0.999669
0.998519
1.0094
1.00955
1.00927
1.00876
1.00785
1.00674
1.00539
1.00394
1.00243
1.00099
0.999641
0.99848
1.00948
1.00963
1.00935
1.00884
1.00792
1.00679
1.00543
1.00397
1.00244
1.00098
0.999613
0.99844
1.00956
1.00971
1.00944
1.00892
1.00799
1.00685
1.00547
1.00399
1.00244
1.00097
0.999583
0.998399
1.00964
1.0098
1.00952
1.009
1.00806
1.00691
1.00552
1.00401
1.00245
1.00095
0.999553
0.998358
1.00973
1.00989
1.0096
1.00908
1.00814
1.00697
1.00556
1.00404
1.00245
1.00094
0.999523
0.998315
1.00981
1.00998
1.00969
1.00917
1.00821
1.00703
1.0056
1.00406
1.00246
1.00092
0.999492
0.998271
1.0099
1.01007
1.00978
1.00925
1.00829
1.0071
1.00565
1.00409
1.00246
1.00091
0.999459
0.998226
1.00999
1.01016
1.00987
1.00934
1.00837
1.00716
1.0057
1.00412
1.00246
1.00089
0.999426
0.99818
1.01008
1.01025
1.00997
1.00943
1.00845
1.00723
1.00574
1.00414
1.00247
1.00088
0.999392
0.998132
1.01017
1.01035
1.01006
1.00953
1.00853
1.00729
1.00579
1.00417
1.00247
1.00086
0.999357
0.998083
1.01027
1.01045
1.01016
1.00962
1.00861
1.00736
1.00584
1.0042
1.00248
1.00084
0.999321
0.998033
1.01036
1.01055
1.01026
1.00971
1.0087
1.00743
1.00589
1.00422
1.00248
1.00082
0.999284
0.997981
1.01046
1.01065
1.01036
1.00981
1.00878
1.0075
1.00594
1.00425
1.00248
1.00081
0.999246
0.997927
1.01056
1.01076
1.01046
1.00991
1.00887
1.00758
1.00599
1.00428
1.00249
1.00079
0.999206
0.997872
1.01067
1.01086
1.01057
1.01001
1.00896
1.00765
1.00604
1.00431
1.00249
1.00077
0.999165
0.997815
1.01077
1.01097
1.01068
1.01012
1.00905
1.00772
1.00609
1.00434
1.00249
1.00074
0.999123
0.997757
1.01088
1.01108
1.01079
1.01022
1.00914
1.0078
1.00614
1.00436
1.00249
1.00072
0.999079
0.997697
1.01099
1.0112
1.0109
1.01033
1.00924
1.00788
1.0062
1.00439
1.00249
1.0007
0.999035
0.997635
1.0111
1.01131
1.01101
1.01044
1.00933
1.00796
1.00625
1.00442
1.0025
1.00067
0.998988
0.997571
1.01121
1.01143
1.01113
1.01055
1.00943
1.00804
1.00631
1.00445
1.0025
1.00065
0.998941
0.997506
1.01133
1.01155
1.01125
1.01066
1.00953
1.00812
1.00636
1.00448
1.0025
1.00062
0.998891
0.997438
1.01145
1.01167
1.01137
1.01078
1.00964
1.0082
1.00642
1.00451
1.0025
1.0006
0.998841
0.997369
1.01157
1.0118
1.0115
1.0109
1.00974
1.00829
1.00648
1.00454
1.0025
1.00057
0.998788
0.997297
1.01169
1.01193
1.01163
1.01103
1.00985
1.00838
1.00654
1.00457
1.0025
1.00054
0.998734
0.997224
1.01182
1.01206
1.01176
1.01115
1.00996
1.00847
1.0066
1.00461
1.0025
1.00051
0.998679
0.997148
1.01195
1.01219
1.01189
1.01128
1.01008
1.00856
1.00666
1.00464
1.00249
1.00048
0.998621
0.99707
1.01208
1.01233
1.01203
1.01141
1.01019
1.00865
1.00673
1.00467
1.00249
1.00045
0.998562
0.996989
1.01221
1.01247
1.01217
1.01155
1.01031
1.00875
1.00679
1.0047
1.00249
1.00041
0.998501
0.996907
1.01235
1.01261
1.01231
1.01169
1.01043
1.00885
1.00686
1.00474
1.00249
1.00038
0.998438
0.996822
1.01249
1.01276
1.01246
1.01183
1.01056
1.00895
1.00692
1.00477
1.00248
1.00034
0.998373
0.996734
1.01263
1.01291
1.01261
1.01197
1.01068
1.00905
1.00699
1.0048
1.00248
1.0003
0.998305
0.996644
1.01277
1.01306
1.01277
1.01212
1.01081
1.00915
1.00706
1.00484
1.00248
1.00026
0.998236
0.996551
1.01292
1.01322
1.01292
1.01227
1.01094
1.00926
1.00713
1.00487
1.00247
1.00022
0.998164
0.996455
1.01307
1.01338
1.01308
1.01242
1.01108
1.00936
1.0072
1.0049
1.00246
1.00018
0.99809
0.996357
1.01323
1.01354
1.01325
1.01257
1.01122
1.00947
1.00727
1.00494
1.00246
1.00013
0.998013
0.996255
1.01338
1.01371
1.01341
1.01273
1.01136
1.00958
1.00735
1.00497
1.00245
1.00009
0.997934
0.996151
1.01354
1.01388
1.01358
1.0129
1.0115
1.0097
1.00742
1.005
1.00244
1.00004
0.997851
0.996043
1.01371
1.01405
1.01376
1.01306
1.01164
1.00981
1.00749
1.00503
1.00243
0.999989
0.997767
0.995932
1.01387
1.01422
1.01393
1.01323
1.01179
1.00993
1.00757
1.00507
1.00242
0.999936
0.99768
0.995817
1.01405
1.01441
1.01411
1.0134
1.01194
1.01004
1.00765
1.0051
1.0024
0.999881
0.99759
0.9957
1.01422
1.01459
1.0143
1.01358
1.01209
1.01016
1.00772
1.00513
1.00239
0.999824
0.997497
0.995579
1.0144
1.01478
1.01449
1.01375
1.01225
1.01028
1.0078
1.00516
1.00238
0.999765
0.997401
0.995455
1.01458
1.01497
1.01468
1.01394
1.01241
1.01041
1.00788
1.0052
1.00236
0.999703
0.997302
0.995326
1.01476
1.01517
1.01488
1.01412
1.01257
1.01053
1.00796
1.00523
1.00234
0.999639
0.9972
0.995195
1.01495
1.01537
1.01508
1.01431
1.01274
1.01066
1.00804
1.00526
1.00232
0.999573
0.997094
0.995059
1.01515
1.01557
1.01528
1.01451
1.0129
1.01079
1.00813
1.00529
1.0023
0.999504
0.996986
0.994919
1.01534
1.01578
1.01549
1.0147
1.01308
1.01093
1.00821
1.00532
1.00228
0.999432
0.996873
0.994775
1.01554
1.01599
1.0157
1.01491
1.01325
1.01106
1.0083
1.00535
1.00226
0.999358
0.996758
0.994628
1.01575
1.01621
1.01592
1.01511
1.01343
1.0112
1.00838
1.00538
1.00223
0.99928
0.996638
0.994475
1.01596
1.01643
1.01614
1.01532
1.01361
1.01134
1.00847
1.00541
1.00221
0.9992
0.996515
0.994319
1.01617
1.01666
1.01636
1.01553
1.0138
1.01148
1.00856
1.00544
1.00218
0.999116
0.996387
0.994157
1.01639
1.01689
1.0166
1.01575
1.01398
1.01162
1.00865
1.00547
1.00215
0.99903
0.996256
0.993991
1.01661
1.01712
1.01683
1.01597
1.01418
1.01177
1.00874
1.0055
1.00211
0.99894
0.996119
0.99382
1.01684
1.01736
1.01707
1.0162
1.01437
1.01192
1.00883
1.00553
1.00208
0.998847
0.99598
0.993645
1.01707
1.01761
1.01732
1.01643
1.01457
1.01207
1.00892
1.00555
1.00204
0.99875
0.995835
0.993464
1.01731
1.01786
1.01757
1.01667
1.01477
1.01222
1.00901
1.00558
1.002
0.99865
0.995686
0.993279
1.01755
1.01812
1.01782
1.01691
1.01498
1.01238
1.0091
1.0056
1.00196
0.998545
0.995532
0.993087
1.0178
1.01838
1.01808
1.01715
1.01519
1.01253
1.00919
1.00562
1.00191
0.998437
0.995374
0.992891
1.01805
1.01864
1.01835
1.0174
1.0154
1.01269
1.00929
1.00565
1.00187
0.998325
0.99521
0.992689
1.01831
1.01892
1.01862
1.01766
1.01562
1.01286
1.00938
1.00567
1.00182
0.998209
0.995042
0.992482
1.01857
1.0192
1.0189
1.01792
1.01585
1.01302
1.00948
1.00569
1.00176
0.998088
0.994868
0.992268
1.01884
1.01948
1.01918
1.01819
1.01607
1.01319
1.00957
1.00571
1.00171
0.997964
0.994689
0.992049
1.01911
1.01977
1.01947
1.01846
1.0163
1.01336
1.00967
1.00572
1.00165
0.997835
0.994504
0.991822
1.01939
1.02007
1.01976
1.01873
1.01654
1.01353
1.00977
1.00574
1.00159
0.997701
0.994314
0.991591
1.01968
1.02037
1.02006
1.01902
1.01678
1.01371
1.00987
1.00575
1.00152
0.997562
0.994118
0.991351
1.01997
1.02068
1.02037
1.0193
1.01702
1.01389
1.00997
1.00577
1.00145
0.997419
0.993916
0.991107
1.02027
1.02099
1.02069
1.0196
1.01727
1.01407
1.01007
1.00578
1.00138
0.99727
0.993707
0.990854
1.02057
1.02132
1.02101
1.0199
1.01753
1.01425
1.01017
1.00579
1.00131
0.997116
0.993492
0.990595
1.02088
1.02165
1.02133
1.0202
1.01778
1.01444
1.01027
1.00579
1.00122
0.996956
0.99327
0.990328
1.0212
1.02199
1.02167
1.02052
1.01805
1.01463
1.01037
1.0058
1.00114
0.996791
0.993042
0.990054
1.02152
1.02233
1.02201
1.02084
1.01832
1.01482
1.01047
1.0058
1.00105
0.99662
0.992806
0.989772
1.02185
1.02268
1.02236
1.02117
1.01859
1.01502
1.01057
1.0058
1.00096
0.996443
0.992564
0.989483
1.02219
1.02304
1.02272
1.0215
1.01887
1.01521
1.01067
1.0058
1.00086
0.996259
0.992314
0.989185
1.02254
1.02341
1.02309
1.02184
1.01916
1.01542
1.01077
1.0058
1.00076
0.996069
0.992056
0.988879
1.02289
1.02379
1.02346
1.02219
1.01945
1.01562
1.01087
1.00579
1.00065
0.995872
0.99179
0.988564
1.02325
1.02417
1.02384
1.02254
1.01974
1.01583
1.01098
1.00578
1.00054
0.995668
0.991517
0.988242
1.02362
1.02457
1.02424
1.02291
1.02005
1.01604
1.01108
1.00577
1.00042
0.995457
0.991234
0.987909
1.024
1.02497
1.02464
1.02328
1.02035
1.01625
1.01118
1.00575
1.00029
0.995238
0.990943
0.987568
1.02439
1.02538
1.02505
1.02366
1.02067
1.01647
1.01128
1.00573
1.00016
0.995011
0.990643
0.987216
1.02479
1.0258
1.02547
1.02405
1.02099
1.01669
1.01138
1.00571
1.00003
0.994777
0.990335
0.986856
1.02519
1.02624
1.02589
1.02444
1.02132
1.01691
1.01148
1.00568
0.999882
0.994534
0.990016
0.986485
1.0256
1.02668
1.02633
1.02485
1.02165
1.01714
1.01158
1.00565
0.999732
0.994283
0.989688
0.986105
1.02603
1.02713
1.02678
1.02527
1.02199
1.01736
1.01168
1.00561
0.999574
0.994022
0.98935
0.985713
1.02646
1.02759
1.02724
1.02569
1.02234
1.0176
1.01177
1.00557
0.99941
0.993753
0.989002
0.985311
1.02691
1.02807
1.02771
1.02613
1.02269
1.01783
1.01187
1.00552
0.999237
0.993473
0.988642
0.984897
1.02736
1.02855
1.0282
1.02657
1.02305
1.01807
1.01196
1.00547
0.999056
0.993185
0.988273
0.984472
1.02783
1.02905
1.02869
1.02702
1.02342
1.01831
1.01205
1.00541
0.998866
0.992885
0.987891
0.984035
1.0283
1.02956
1.0292
1.02749
1.02379
1.01855
1.01214
1.00535
0.998668
0.992575
0.987498
0.983587
1.02879
1.03008
1.02971
1.02797
1.02418
1.0188
1.01223
1.00528
0.99846
0.992254
0.987092
0.983125
1.02929
1.03061
1.03025
1.02845
1.02457
1.01904
1.01232
1.00521
0.998243
0.991921
0.986676
0.982652
1.02981
1.03116
1.03079
1.02895
1.02496
1.01929
1.0124
1.00512
0.998015
0.991576
0.986245
0.982164
1.03033
1.03172
1.03135
1.02946
1.02537
1.01955
1.01248
1.00503
0.997777
0.99122
0.985802
0.981664
1.03087
1.0323
1.03192
1.02999
1.02579
1.0198
1.01256
1.00493
0.997527
0.99085
0.985344
0.98115
1.03142
1.03289
1.03251
1.03052
1.02621
1.02006
1.01263
1.00482
0.997266
0.990467
0.984874
0.980622
1.03198
1.03349
1.03311
1.03107
1.02664
1.02032
1.0127
1.00471
0.996992
0.99007
0.984388
0.980078
1.03256
1.03411
1.03373
1.03164
1.02708
1.02058
1.01276
1.00458
0.996707
0.98966
0.983888
0.979521
1.03316
1.03475
1.03437
1.03221
1.02752
1.02085
1.01282
1.00444
0.996407
0.989233
0.983372
0.978947
1.03377
1.0354
1.03502
1.0328
1.02798
1.02111
1.01287
1.00429
0.996093
0.988793
0.982841
0.978358
1.03439
1.03607
1.03569
1.03341
1.02845
1.02137
1.01291
1.00413
0.995765
0.988335
0.982292
0.977752
1.03503
1.03676
1.03637
1.03403
1.02892
1.02164
1.01295
1.00396
0.995422
0.987862
0.981728
0.977131
1.03569
1.03747
1.03708
1.03467
1.0294
1.02191
1.01298
1.00378
0.995062
0.98737
0.981145
0.976492
1.03637
1.0382
1.0378
1.03532
1.02989
1.02217
1.01301
1.00358
0.994686
0.986862
0.980546
0.975836
1.03706
1.03895
1.03855
1.03599
1.0304
1.02244
1.01302
1.00336
0.994291
0.986334
0.979927
0.975161
1.03777
1.03972
1.03932
1.03667
1.0309
1.0227
1.01303
1.00313
0.993879
0.985789
0.97929
0.974469
1.0385
1.04051
1.0401
1.03738
1.03142
1.02297
1.01302
1.00289
0.993447
0.985222
0.978633
0.973756
1.03926
1.04132
1.04091
1.0381
1.03195
1.02323
1.013
1.00263
0.992996
0.984636
0.977956
0.973025
1.04003
1.04215
1.04175
1.03884
1.03249
1.02348
1.01297
1.00234
0.992522
0.984027
0.977258
0.972274
1.04082
1.04301
1.04261
1.0396
1.03303
1.02374
1.01293
1.00204
0.992028
0.983397
0.976539
0.971503
1.04164
1.0439
1.04349
1.04038
1.03358
1.02399
1.01287
1.00172
0.991509
0.982743
0.975797
0.970709
1.04248
1.04481
1.0444
1.04118
1.03415
1.02423
1.01279
1.00138
0.990967
0.982066
0.975034
0.969896
1.04334
1.04575
1.04534
1.042
1.03472
1.02447
1.0127
1.00101
0.990398
0.981363
0.974246
0.969059
1.04423
1.04672
1.0463
1.04284
1.03529
1.0247
1.01258
1.00061
0.989804
0.980636
0.973435
0.968202
1.04515
1.04772
1.0473
1.0437
1.03588
1.02492
1.01245
1.00019
0.989182
0.97988
0.972598
0.967319
1.04609
1.04875
1.04832
1.04459
1.03647
1.02512
1.01229
0.999745
0.988531
0.979099
0.971736
0.966414
1.04706
1.04981
1.04938
1.0455
1.03706
1.02532
1.01211
0.999266
0.987849
0.978288
0.970848
0.965484
1.04806
1.0509
1.05048
1.04643
1.03767
1.02551
1.0119
0.998757
0.987136
0.977448
0.969933
0.96453
1.0491
1.05203
1.0516
1.04739
1.03827
1.02567
1.01167
0.998213
0.986388
0.976576
0.96899
0.96355
1.05016
1.0532
1.05277
1.04837
1.03888
1.02582
1.0114
0.997634
0.985607
0.975674
0.968019
0.962544
1.05126
1.05441
1.05397
1.04938
1.03949
1.02595
1.0111
0.997017
0.984789
0.974738
0.967018
0.961511
1.05239
1.05566
1.05521
1.05041
1.0401
1.02606
1.01076
0.996361
0.983934
0.973769
0.965987
0.960452
1.05356
1.05695
1.0565
1.05147
1.04071
1.02614
1.01039
0.995662
0.983038
0.972764
0.964925
0.959364
1.05477
1.05828
1.05782
1.05255
1.04132
1.02619
1.00997
0.99492
0.982102
0.971723
0.963832
0.958249
1.05602
1.05967
1.0592
1.05366
1.04192
1.02621
1.00951
0.994129
0.981122
0.970644
0.962706
0.957103
1.05731
1.0611
1.06062
1.0548
1.04252
1.0262
1.00899
0.993289
0.980098
0.969527
0.961547
0.955929
1.05864
1.06258
1.06209
1.05596
1.0431
1.02614
1.00843
0.992397
0.979026
0.96837
0.960353
0.954723
1.06003
1.06412
1.06361
1.05714
1.04367
1.02604
1.00781
0.991449
0.977907
0.967172
0.959124
0.953488
1.06146
1.06572
1.06518
1.05835
1.04422
1.02589
1.00712
0.990443
0.976736
0.965931
0.957859
0.95222
1.06294
1.06738
1.06682
1.05959
1.04475
1.02569
1.00638
0.989375
0.975514
0.964647
0.956559
0.950922
1.06447
1.06911
1.06851
1.06084
1.04525
1.02542
1.00556
0.988243
0.974236
0.963317
0.95522
0.949589
1.06606
1.0709
1.07026
1.06211
1.04572
1.02509
1.00466
0.987043
0.972903
0.961942
0.953844
0.948225
1.06771
1.07277
1.07207
1.06341
1.04616
1.02469
1.00369
0.985771
0.971511
0.960519
0.952427
0.946825
1.06943
1.07472
1.07395
1.06471
1.04654
1.0242
1.00263
0.984425
0.970058
0.959048
0.950972
0.945392
1.07121
1.07674
1.0759
1.06603
1.04687
1.02362
1.00148
0.983
0.968543
0.957527
0.949476
0.943923
1.07306
1.07886
1.07792
1.06736
1.04714
1.02295
1.00023
0.981494
0.966964
0.955956
0.94794
0.94242
1.07499
1.08107
1.08001
1.06869
1.04734
1.02217
0.998871
0.979903
0.965318
0.954333
0.946361
0.940879
1.07699
1.08337
1.08217
1.07001
1.04746
1.02127
0.997405
0.978223
0.963604
0.952657
0.94474
0.939303
1.07908
1.08579
1.08442
1.07132
1.04748
1.02024
0.995822
0.976451
0.96182
0.950926
0.943076
0.937688
1.08126
1.08831
1.08673
1.07261
1.04739
1.01907
0.994114
0.974583
0.959965
0.949142
0.941369
0.936037
1.08353
1.09096
1.08912
1.07387
1.04717
1.01775
0.992276
0.972617
0.958037
0.947302
0.939618
0.934347
1.0859
1.09374
1.09159
1.07508
1.04681
1.01626
0.990299
0.970549
0.956034
0.945406
0.937823
0.932621
1.08839
1.09665
1.09414
1.07624
1.04629
1.01459
0.988177
0.968377
0.953956
0.943453
0.935982
0.930856
1.09099
1.09971
1.09675
1.07732
1.04559
1.01273
0.985904
0.966098
0.951801
0.941443
0.934098
0.929055
1.09372
1.10292
1.09943
1.0783
1.04468
1.01066
0.983473
0.963709
0.949569
0.939376
0.932168
0.927215
1.09658
1.10631
1.10218
1.07916
1.04355
1.00837
0.980878
0.96121
0.947259
0.937252
0.930193
0.925338
1.0996
1.10987
1.10497
1.07987
1.04215
1.00583
0.978114
0.958598
0.944871
0.93507
0.928173
0.923422
1.10277
1.11361
1.1078
1.0804
1.04047
1.00305
0.975177
0.955873
0.942404
0.932831
0.926108
0.921469
1.10611
1.11756
1.11065
1.08072
1.03848
0.999992
0.972062
0.953035
0.93986
0.930534
0.923998
0.919479
1.10965
1.12172
1.11351
1.08079
1.03612
0.996652
0.968767
0.950084
0.937239
0.928183
0.921845
0.917452
1.11339
1.12609
1.11634
1.08055
1.03339
0.993015
0.965291
0.947022
0.934542
0.925775
0.919648
0.915387
1.11736
1.1307
1.11911
1.07995
1.03023
0.989069
0.961634
0.943851
0.931771
0.923314
0.917408
0.913287
1.12159
1.13554
1.12179
1.07895
1.0266
0.984805
0.957799
0.940574
0.928928
0.9208
0.915126
0.91115
1.12609
1.14061
1.12432
1.07746
1.02248
0.980215
0.953789
0.937193
0.926014
0.918236
0.912803
0.908978
1.1309
1.14593
1.12664
1.07542
1.01782
0.975297
0.949612
0.933716
0.923034
0.915622
0.910441
0.906771
1.13605
1.15148
1.12868
1.07275
1.01259
0.97005
0.945275
0.930145
0.919989
0.912962
0.90804
0.904531
1.14158
1.15724
1.13036
1.06936
1.00675
0.964482
0.940791
0.926489
0.916885
0.910259
0.905602
0.902258
1.14753
1.1632
1.13157
1.06516
1.00028
0.958603
0.936172
0.922753
0.913725
0.907515
0.90313
0.899954
1.15395
1.16933
1.13219
1.06005
0.993153
0.952435
0.931437
0.918947
0.910513
0.904734
0.900625
0.897618
1.16089
1.17555
1.13208
1.05394
0.985362
0.946001
0.926601
0.915077
0.907256
0.90192
0.89809
0.895254
1.16842
1.18182
1.13108
1.04672
0.97691
0.939338
0.921688
0.911153
0.903958
0.899077
0.895527
0.892862
1.17659
1.18801
1.12901
1.0383
0.967813
0.932488
0.916717
0.907184
0.900626
0.896211
0.89294
0.890445
1.18548
1.19401
1.12565
1.02859
0.95811
0.925504
0.911712
0.903179
0.897267
0.893328
0.890332
0.888002
1.19515
1.19963
1.12079
1.01752
0.947861
0.918441
0.906695
0.899146
0.893889
0.890434
0.887708
0.885538
1.20569
1.20466
1.11417
1.00504
0.937154
0.911366
0.901688
0.895095
0.8905
0.887536
0.88507
0.883053
1.21715
1.20882
1.10551
0.99114
0.926104
0.904346
0.896708
0.891034
0.88711
0.884644
0.882428
0.880548
1.22959
1.21177
1.09455
0.975857
0.914856
0.89745
0.891772
0.886972
0.883731
0.881769
0.879788
0.878024
1.24304
1.21305
1.081
0.959289
0.90358
0.890738
0.886891
0.882916
0.880375
0.878923
0.877164
0.875481
1.2575
1.21214
1.06459
0.941622
0.892473
0.884269
0.882072
0.878879
0.877056
0.876116
0.874554
0.872905
1.2729
1.20839
1.04511
0.923133
0.881731
0.878072
0.87731
0.874873
0.873806
0.873396
0.872005
0.870324
1.28908
1.201
1.02242
0.904224
0.871579
0.872188
0.872602
0.870875
0.870575
0.870664
0.869395
0.867631
1.30572
1.18901
0.996534
0.885358
0.86213
0.866588
0.868022
0.867096
0.867684
0.868307
0.867047
0.865029
1.32231
1.17131
0.967813
0.867325
0.853676
0.8611
0.863073
0.862811
0.864232
0.865445
0.864188
0.861993
1.33789
1.14651
0.936679
0.850292
0.846652
0.85705
0.85974
0.86027
0.862388
0.863807
0.862036
0.859281
1.35133
1.11382
0.906117
0.83429
0.837822
0.849873
0.853481
0.8556
0.859351
0.861521
0.859408
0.856099
1.35903
1.06903
0.880585
0.82831
0.83764
0.848895
0.85142
0.853736
0.858243
0.86067
0.858084
0.854314
1.36227
0.998355
0.831802
0.804886
0.827184
0.84361
0.84852
0.852435
0.857967
0.860721
0.858097
0.85433
0.99643
0.997147
0.998141
0.998572
0.998515
0.998352
0.998335
0.998471
0.998623
0.998661
0.998553
0.998359
0.997019
0.997447
0.998191
0.998545
0.998513
0.998385
0.99837
0.998482
0.998607
0.998635
0.998533
0.998354
0.997516
0.997629
0.998118
0.998434
0.998475
0.998411
0.998398
0.99847
0.998557
0.998574
0.998487
0.998334
0.997774
0.997713
0.998062
0.998382
0.998496
0.998474
0.998442
0.998461
0.998506
0.998516
0.998448
0.998323
0.997922
0.997803
0.998082
0.998394
0.998531
0.998512
0.998449
0.998425
0.998443
0.998454
0.99841
0.998311
0.998065
0.997933
0.99815
0.998419
0.998537
0.998506
0.998428
0.998386
0.998396
0.998414
0.998388
0.99831
0.99822
0.998072
0.998219
0.998424
0.998514
0.998481
0.998408
0.998368
0.998375
0.998394
0.998375
0.998309
0.998359
0.998186
0.998265
0.998414
0.998486
0.998462
0.998402
0.998365
0.998366
0.998378
0.99836
0.998302
0.998461
0.998267
0.998295
0.998406
0.998468
0.998454
0.998404
0.998367
0.998359
0.998363
0.998345
0.998293
0.998529
0.998326
0.998323
0.998408
0.998462
0.998452
0.998408
0.998369
0.998353
0.99835
0.998331
0.998285
0.998579
0.998377
0.998356
0.998419
0.998462
0.998452
0.99841
0.99837
0.99835
0.998341
0.99832
0.998276
0.998623
0.998427
0.998391
0.998434
0.998466
0.998453
0.998413
0.998372
0.998348
0.998334
0.99831
0.998266
0.998665
0.998474
0.998425
0.99845
0.998471
0.998456
0.998416
0.998375
0.998346
0.998326
0.998299
0.998256
0.998704
0.998516
0.998456
0.998467
0.998478
0.99846
0.99842
0.998377
0.998344
0.998319
0.998289
0.998247
0.998738
0.998554
0.998486
0.998485
0.998487
0.998465
0.998424
0.998379
0.998342
0.998313
0.99828
0.998239
0.998768
0.998587
0.998513
0.998502
0.998497
0.99847
0.998426
0.998379
0.998339
0.998307
0.998273
0.998231
0.998793
0.998617
0.998539
0.998519
0.998506
0.998474
0.998428
0.998379
0.998337
0.998303
0.998266
0.998223
0.998816
0.998644
0.998561
0.998534
0.998514
0.998479
0.99843
0.99838
0.998336
0.998298
0.998259
0.998214
0.998836
0.998668
0.998581
0.998547
0.998521
0.998483
0.998433
0.998381
0.998334
0.998294
0.998251
0.998204
0.998853
0.998687
0.998597
0.998558
0.998528
0.998487
0.998435
0.998381
0.998332
0.998288
0.998242
0.998193
0.998866
0.998703
0.998611
0.998568
0.998535
0.998491
0.998437
0.998381
0.998329
0.998281
0.998232
0.998182
0.998876
0.998716
0.998624
0.998578
0.998541
0.998495
0.998438
0.998379
0.998324
0.998274
0.998222
0.99817
0.998884
0.998727
0.998634
0.998586
0.998546
0.998497
0.998438
0.998376
0.998318
0.998265
0.998212
0.998159
0.998891
0.998737
0.998644
0.998593
0.99855
0.998497
0.998436
0.998372
0.998312
0.998257
0.998202
0.998148
0.998896
0.998745
0.998651
0.998597
0.998551
0.998496
0.998432
0.998366
0.998304
0.998248
0.998193
0.998139
0.998901
0.998752
0.998657
0.9986
0.998551
0.998493
0.998427
0.99836
0.998297
0.99824
0.998184
0.99813
0.998905
0.998756
0.99866
0.998601
0.998548
0.998489
0.998421
0.998353
0.998289
0.998232
0.998175
0.998122
0.998907
0.998759
0.998662
0.998599
0.998545
0.998483
0.998415
0.998346
0.998282
0.998224
0.998167
0.998113
0.998907
0.998761
0.998661
0.998596
0.998539
0.998477
0.998408
0.998339
0.998275
0.998216
0.998159
0.998105
0.998907
0.99876
0.998659
0.998592
0.998534
0.998471
0.998402
0.998332
0.998267
0.998208
0.99815
0.998096
0.998905
0.998759
0.998656
0.998587
0.998528
0.998464
0.998395
0.998325
0.998259
0.9982
0.998141
0.998086
0.998902
0.998756
0.998652
0.998581
0.998521
0.998458
0.998388
0.998318
0.998251
0.99819
0.998131
0.998075
0.998899
0.998753
0.998648
0.998576
0.998515
0.998451
0.998381
0.99831
0.998242
0.99818
0.998119
0.998063
0.998895
0.99875
0.998644
0.99857
0.998508
0.998444
0.998374
0.998301
0.998232
0.998169
0.998107
0.998051
0.998892
0.998746
0.998639
0.998564
0.998502
0.998437
0.998366
0.998292
0.998222
0.998157
0.998094
0.998037
0.998888
0.998742
0.998634
0.998557
0.998495
0.998429
0.998357
0.998282
0.99821
0.998144
0.998081
0.998023
0.998883
0.998738
0.998628
0.99855
0.998487
0.998421
0.998348
0.998272
0.998198
0.998131
0.998066
0.998007
0.998878
0.998732
0.998621
0.998543
0.998479
0.998412
0.998338
0.99826
0.998185
0.998117
0.998051
0.997992
0.998872
0.998726
0.998614
0.998535
0.99847
0.998403
0.998328
0.998249
0.998172
0.998102
0.998035
0.997975
0.998865
0.998718
0.998605
0.998525
0.998461
0.998393
0.998317
0.998236
0.998158
0.998087
0.998019
0.997958
0.998857
0.998709
0.998595
0.998515
0.998451
0.998383
0.998306
0.998224
0.998144
0.998071
0.998002
0.997941
0.998848
0.998699
0.998584
0.998505
0.99844
0.998372
0.998294
0.99821
0.998129
0.998055
0.997985
0.997923
0.998837
0.998687
0.998572
0.998493
0.998428
0.99836
0.998281
0.998196
0.998114
0.998039
0.997968
0.997905
0.998824
0.998674
0.998559
0.99848
0.998416
0.998347
0.998268
0.998182
0.998098
0.998022
0.997951
0.997887
0.998811
0.99866
0.998545
0.998466
0.998402
0.998334
0.998254
0.998167
0.998083
0.998006
0.997933
0.99787