/*--------------------------------*- C++ -*----------------------------------*\
  =========                 |
  \\      /  F ield         | OpenFOAM: The Open Source CFD Toolbox
   \\    /   O peration     | Website:  https://openfoam.org
    \\  /    A nd           | Version:  6.0
     \\/     M anipulation  |
\*---------------------------------------------------------------------------*/
FoamFile
{
    version     2.0;
    format      ascii;
    class       surfaceScalarField;
    location    "3.6";
    object      phi;
}
// * * * * * * * * * * * * * * * * * * * * * * * * * * * * * * * * * * * * * //

dimensions      [0 3 -1 0 0 0 0];

internalField   nonuniform List<scalar> 
68636
(
3.02283e-05
0.00310561
1.76844e-09
6.08421e-05
0.00307074
9.10907e-05
0.00300251
0.00012048
0.00290144
0.000148622
0.00276856
0.000175172
0.00260532
0.000199816
0.00241354
0.000222267
0.00219535
0.000242271
0.00195315
0.000259598
0.00168961
0.000274053
0.00140762
0.000285472
0.00111026
0.000293735
0.000800823
0.000298722
0.000482479
0.000157374
0.000299726
2.99493e-05
0.00307565
7.2765e-09
6.02854e-05
0.0030404
9.02593e-05
0.00297254
0.000119381
0.00287232
0.000147268
0.00274068
0.000173575
0.00257902
0.000197994
0.00238913
0.00022024
0.00217311
0.000240061
0.00193333
0.00025723
0.00167245
0.000271553
0.00139331
0.000282868
0.00109895
0.000291072
0.000792626
0.000295933
0.000477628
0.00015632
0.000297005
2.96723e-05
0.00304597
1.29101e-08
5.97333e-05
0.00301034
8.94351e-05
0.00294284
0.000118293
0.00284347
0.000145926
0.00271305
0.000171994
0.00255295
0.000196191
0.00236493
0.000218235
0.00215106
0.000237875
0.00191369
0.000254887
0.00165543
0.00026908
0.00137911
0.000280289
0.00108774
0.00028842
0.000784493
0.00029328
0.000472762
0.00015506
0.000294527
2.93978e-05
0.00301655
1.85218e-08
5.91862e-05
0.00298055
8.86186e-05
0.00291341
0.000117214
0.00281487
0.000144597
0.00268566
0.000170429
0.00252712
0.000194405
0.00234096
0.000216248
0.00212922
0.000235708
0.00189423
0.000252565
0.00163858
0.000266628
0.00136505
0.000277734
0.00107663
0.000285783
0.000776447
0.00029063
0.00046792
0.000153718
0.000291981
2.91258e-05
0.0029874
2.41262e-08
5.8644e-05
0.00295104
8.78094e-05
0.00288424
0.000116146
0.00278653
0.00014328
0.00265853
0.000168876
0.00250152
0.000192634
0.0023172
0.000214278
0.00210757
0.00023356
0.00187495
0.000250263
0.00162187
0.000264197
0.00135112
0.000275201
0.00106563
0.000283169
0.000768476
0.000287981
0.000463103
0.000152287
0.000289398
2.88562e-05
0.00295852
2.95293e-08
5.81066e-05
0.00292179
8.70074e-05
0.00285534
0.000115087
0.00275846
0.000141974
0.00263164
0.000167338
0.00247616
0.000190879
0.00229366
0.000212325
0.00208613
0.000231432
0.00185584
0.000247981
0.00160533
0.000261789
0.00133731
0.000272692
0.00105473
0.00028058
0.000760589
0.00028535
0.000458336
0.000150832
0.00028681
2.8589e-05
0.00292989
3.47148e-08
5.7574e-05
0.0028928
8.62126e-05
0.0028267
0.000114037
0.00273063
0.00014068
0.002605
0.000165813
0.00245103
0.00018914
0.00227033
0.000210391
0.00206488
0.000229323
0.00183691
0.000245721
0.00158892
0.000259403
0.00132363
0.000270207
0.00104392
0.000278018
0.000752775
0.000282744
0.000453606
0.00014934
0.000284223
2.83243e-05
0.00290153
3.96383e-08
5.70462e-05
0.00286408
8.54248e-05
0.00279833
0.000112996
0.00270306
0.000139398
0.0025786
0.000164302
0.00242612
0.000187417
0.00224722
0.000208473
0.00204382
0.000227233
0.00181815
0.000243482
0.00157268
0.000257038
0.00131007
0.000267745
0.00103321
0.000275482
0.000745039
0.000280162
0.000448927
0.000147858
0.000281647
2.8062e-05
0.00287342
4.425e-08
5.65232e-05
0.00283562
8.46442e-05
0.0027702
0.000111965
0.00267574
0.000138127
0.00255244
0.000162805
0.00240144
0.000185709
0.00222431
0.000206573
0.00202295
0.000225162
0.00179956
0.000241262
0.00155657
0.000254695
0.00129664
0.000265305
0.0010226
0.00027297
0.000737371
0.000277605
0.000444288
0.000146362
0.000279091
2.78023e-05
0.00284557
4.85672e-08
5.6005e-05
0.00280741
8.38706e-05
0.00274234
0.000110944
0.00264866
0.000136867
0.00252651
0.00016132
0.00237699
0.000184016
0.00220162
0.00020469
0.00200228
0.000223109
0.00178114
0.000239063
0.00154062
0.000252373
0.00128333
0.000262887
0.00101209
0.000270481
0.000729778
0.000275075
0.000439696
0.00014488
0.000276559
2.75449e-05
0.00281797
5.25759e-08
5.54915e-05
0.00277947
8.31039e-05
0.00271473
0.000109931
0.00262184
0.000135619
0.00250082
0.000159849
0.00235276
0.000182338
0.00217913
0.000202824
0.00198179
0.000221076
0.00176289
0.000236884
0.00152481
0.000250073
0.00127014
0.000260491
0.00100167
0.000268016
0.00072225
0.000272569
0.00043514
0.000143386
0.000274053
2.729e-05
0.00279063
5.62884e-08
5.49826e-05
0.00275177
8.23441e-05
0.00268736
0.000108927
0.00259525
0.000134381
0.00247537
0.000158391
0.00232875
0.000180675
0.00215685
0.000200975
0.00196149
0.00021906
0.00174481
0.000234725
0.00150915
0.000247793
0.00125707
0.000258117
0.000991345
0.000265574
0.000714793
0.000270086
0.000430629
0.000141904
0.00027157
2.70375e-05
0.00276353
5.9743e-08
5.44783e-05
0.00272433
8.15912e-05
0.00266025
0.000107932
0.00256891
0.000133155
0.00245015
0.000156947
0.00230496
0.000179028
0.00213476
0.000199143
0.00194138
0.000217063
0.00172689
0.000232585
0.00149362
0.000245534
0.00124412
0.000255764
0.000981114
0.000263154
0.000707402
0.000267627
0.000426153
0.000140415
0.000269109
2.67873e-05
0.00273668
6.29783e-08
5.39787e-05
0.00269714
8.0845e-05
0.00263339
0.000106947
0.00254281
0.00013194
0.00242515
0.000155515
0.00228138
0.000177395
0.00211288
0.000197327
0.00192144
0.000215084
0.00170913
0.000230465
0.00147824
0.000243296
0.00123129
0.000253434
0.000970977
0.000260757
0.000700079
0.00026519
0.000421721
0.00013894
0.000266667
2.65395e-05
0.00271007
6.60555e-08
5.34835e-05
0.0026702
8.01055e-05
0.00260676
0.00010597
0.00251695
0.000130735
0.00240039
0.000154096
0.00225802
0.000175777
0.0020912
0.000195528
0.00190169
0.000213123
0.00169153
0.000228364
0.001463
0.000241079
0.00121857
0.000251124
0.000960931
0.000258381
0.000692821
0.000262776
0.000417324
0.000137463
0.000264245
2.6294e-05
0.00268371
6.90455e-08
5.29928e-05
0.0026435
7.93727e-05
0.00258038
0.000105002
0.00249132
0.000129542
0.00237585
0.00015269
0.00223487
0.000174174
0.00206972
0.000193745
0.00188212
0.00021118
0.0016741
0.000226283
0.0014479
0.000238882
0.00120597
0.000248836
0.000950977
0.000256028
0.00068563
0.000260383
0.000412969
0.000136005
0.000261843
2.60508e-05
0.00265759
7.2014e-08
5.25066e-05
0.00261704
7.86464e-05
0.00255424
0.000104042
0.00246592
0.000128359
0.00235153
0.000151297
0.00221194
0.000172585
0.00204843
0.000191978
0.00186273
0.000209255
0.00165682
0.00022422
0.00143293
0.000236705
0.00119349
0.000246568
0.000941112
0.000253696
0.000678502
0.000258012
0.000408651
0.000134549
0.000259462
2.58098e-05
0.0026317
7.50228e-08
5.20248e-05
0.00259083
7.79267e-05
0.00252834
0.000103091
0.00244076
0.000127187
0.00232744
0.000149916
0.00218921
0.00017101
0.00202734
0.000190227
0.00184351
0.000207347
0.0016397
0.000222176
0.00141811
0.000234548
0.00118112
0.000244322
0.000931338
0.000251385
0.000671439
0.000255663
0.000404374
0.000133112
0.000257102
2.5571e-05
0.00260606
7.8124e-08
5.15473e-05
0.00256485
7.72134e-05
0.00250268
0.000102149
0.00241582
0.000126025
0.00230356
0.000148547
0.00216669
0.00016945
0.00200643
0.000188492
0.00182447
0.000205457
0.00162274
0.000220151
0.00140341
0.00023241
0.00116886
0.000242096
0.000921652
0.000249096
0.000664439
0.000253335
0.000400132
0.000131678
0.000254763
2.53343e-05
0.00258064
8.13479e-08
5.10741e-05
0.00253911
7.65066e-05
0.00247724
0.000101215
0.00239111
0.000124874
0.0022799
0.000147191
0.00214437
0.000167904
0.00198572
0.000186773
0.0018056
0.000203584
0.00160593
0.000218145
0.00138885
0.000230292
0.00115671
0.00023989
0.000912054
0.000246827
0.000657503
0.000251029
0.000395931
0.000130263
0.000252447
2.50998e-05
0.00255545
8.47113e-08
5.06052e-05
0.00251361
7.58062e-05
0.00245204
0.00010029
0.00236663
0.000123734
0.00225646
0.000145848
0.00212225
0.000166372
0.0019652
0.00018507
0.0017869
0.000201728
0.00158927
0.000216157
0.00137442
0.000228194
0.00114467
0.000237705
0.000902543
0.000244579
0.000650628
0.000248744
0.000391764
0.00012885
0.000250152
2.48674e-05
0.0025305
8.82085e-08
5.01406e-05
0.00248833
7.5112e-05
0.00242707
9.93729e-05
0.00234237
0.000122603
0.00223323
0.000144516
0.00210034
0.000164854
0.00194486
0.000183382
0.00176837
0.000199889
0.00157276
0.000214187
0.00136012
0.000226115
0.00113275
0.000235539
0.000893119
0.000242352
0.000643816
0.00024648
0.000387636
0.000127454
0.000247878
2.46371e-05
0.00250577
9.18177e-08
4.96801e-05
0.00246329
7.44242e-05
0.00240233
9.84642e-05
0.00231833
0.000121483
0.00221021
0.000143197
0.00207863
0.00016335
0.00192471
0.00018171
0.00175001
0.000198066
0.00155641
0.000212234
0.00134595
0.000224054
0.00112093
0.000233394
0.000883779
0.000240145
0.000637064
0.000244237
0.000383543
0.000126062
0.000245624
2.44089e-05
0.00248127
9.55015e-08
4.92238e-05
0.00243848
7.37425e-05
0.00237781
9.75636e-05
0.00229451
0.000120373
0.0021874
0.00014189
0.00205711
0.00016186
0.00190474
0.000180052
0.00173182
0.000196261
0.0015402
0.0002103
0.00133191
0.000222013
0.00110921
0.000231268
0.000874524
0.000237958
0.000630374
0.000242014
0.000379488
0.000124688
0.00024339
2.41826e-05
0.00245698
9.92155e-08
4.87715e-05
0.00241389
7.3067e-05
0.00235351
9.66713e-05
0.0022709
0.000119273
0.00216479
0.000140594
0.00203579
0.000160383
0.00188495
0.00017841
0.00171379
0.000194471
0.00152414
0.000208384
0.001318
0.00021999
0.00109761
0.000229161
0.000865353
0.000235792
0.000623743
0.000239811
0.000375468
0.00012332
0.000241176
2.39584e-05
0.00243292
1.02908e-07
4.83234e-05
0.00238952
7.23976e-05
0.00232944
9.5787e-05
0.00224751
0.000118184
0.0021424
0.00013931
0.00201466
0.000158919
0.00186534
0.000176783
0.00169593
0.000192698
0.00150822
0.000206484
0.00130422
0.000217986
0.0010861
0.000227074
0.000856265
0.000233645
0.000617173
0.000237628
0.000371485
0.000121968
0.000238981
2.37362e-05
0.00240908
1.06533e-07
4.78793e-05
0.00236538
7.17342e-05
0.00230558
9.49107e-05
0.00222434
0.000117104
0.00212021
0.000138038
0.00199373
0.000157469
0.00184591
0.000175171
0.00167823
0.000190941
0.00149245
0.000204603
0.00129056
0.000216
0.00107471
0.000225006
0.000847259
0.000231518
0.000610661
0.000235466
0.000367536
0.000120623
0.000236807
2.3516e-05
0.00238545
1.10044e-07
4.74392e-05
0.00234146
7.10768e-05
0.00228195
9.40424e-05
0.00220137
0.000116033
0.00209821
0.000136778
0.00197298
0.000156032
0.00182665
0.000173573
0.00166069
0.000189201
0.00147682
0.000202738
0.00127702
0.000214032
0.00106341
0.000222956
0.000838335
0.00022941
0.000604208
0.000233323
0.000363624
0.000119295
0.000234653
2.32978e-05
0.00236204
1.13409e-07
4.7003e-05
0.00231775
7.04254e-05
0.00225852
9.3182e-05
0.00217861
0.000114973
0.00207642
0.000135529
0.00195243
0.000154608
0.00180757
0.00017199
0.00164331
0.000187476
0.00146134
0.00020089
0.0012636
0.000212082
0.00105222
0.000220926
0.000829491
0.000227321
0.000597812
0.000231199
0.000359745
0.000117973
0.000232518
2.30815e-05
0.00233885
1.166e-07
4.65708e-05
0.00229426
6.97799e-05
0.00223531
9.23293e-05
0.00215606
0.000113922
0.00205483
0.000134291
0.00193206
0.000153197
0.00178867
0.000170421
0.00162608
0.000185766
0.00144599
0.000199059
0.00125031
0.00021015
0.00104113
0.000218914
0.000820728
0.000225252
0.000591475
0.000229095
0.000355902
0.000116667
0.000230403
2.28672e-05
0.00231586
1.19608e-07
4.61425e-05
0.00227099
6.91403e-05
0.00221232
9.14844e-05
0.00213372
0.000112881
0.00203343
0.000133065
0.00191188
0.000151799
0.00176993
0.000168866
0.00160901
0.000184073
0.00143079
0.000197245
0.00123714
0.000208235
0.00103014
0.00021692
0.000812043
0.000223201
0.000585194
0.00022701
0.000352092
0.000115367
0.000228307
2.26548e-05
0.00229308
1.22432e-07
4.57181e-05
0.00224792
6.85064e-05
0.00218953
9.06472e-05
0.00211158
0.000111849
0.00201223
0.000131849
0.00189188
0.000150413
0.00175137
0.000167326
0.0015921
0.000182394
0.00141572
0.000195447
0.00122409
0.000206338
0.00101925
0.000214944
0.000803437
0.000221169
0.00057897
0.000224944
0.000348317
0.000114083
0.000226231
2.24443e-05
0.00227051
1.2509e-07
4.52976e-05
0.00222507
6.78783e-05
0.00216695
8.98176e-05
0.00208964
0.000110826
0.00199122
0.000130645
0.00187206
0.00014904
0.00173298
0.0001658
0.00157534
0.000180731
0.00140079
0.000193666
0.00121115
0.000204458
0.00100846
0.000212987
0.000794909
0.000219155
0.000572801
0.000222897
0.000344574
0.000112805
0.000224172
2.22358e-05
0.00224815
1.27607e-07
4.48808e-05
0.00220243
6.72559e-05
0.00214457
8.89955e-05
0.0020679
0.000109813
0.00197041
0.000129452
0.00185242
0.00014768
0.00171475
0.000164287
0.00155873
0.000179083
0.00138599
0.000191901
0.00119833
0.000202595
0.000997764
0.000211047
0.000786457
0.00021716
0.000566688
0.000220869
0.000340866
0.000111543
0.000222133
2.20291e-05
0.00222599
1.30025e-07
4.44678e-05
0.00217999
6.66391e-05
0.0021224
8.81808e-05
0.00204636
0.000108809
0.00194978
0.000128269
0.00183296
0.000146332
0.00169668
0.000162788
0.00154228
0.00017745
0.00137133
0.000190152
0.00118563
0.00020075
0.000987166
0.000209125
0.000778082
0.000215183
0.00056063
0.000218859
0.000337191
0.000110288
0.000220112
2.18244e-05
0.00220403
1.32386e-07
4.40586e-05
0.00215775
6.6028e-05
0.00210043
8.73736e-05
0.00202501
0.000107814
0.00192934
0.000127098
0.00181368
0.000144996
0.00167879
0.000161303
0.00152597
0.000175832
0.0013568
0.000188419
0.00117305
0.000198921
0.000976665
0.00020722
0.000769783
0.000213224
0.000554626
0.000216867
0.000333548
0.000109047
0.000218109
2.16215e-05
0.00218228
1.34736e-07
4.36531e-05
0.00213572
6.54224e-05
0.00207866
8.65737e-05
0.00200386
0.000106829
0.00190908
0.000125937
0.00179457
0.000143673
0.00166105
0.000159832
0.00150981
0.000174229
0.0013424
0.000186702
0.00116057
0.000197109
0.000966258
0.000205333
0.000761558
0.000211284
0.000548676
0.000214894
0.000329938
0.000107815
0.000216125
2.14204e-05
0.00216072
1.37115e-07
4.32513e-05
0.00211389
6.48223e-05
0.00205709
8.57811e-05
0.0019829
0.000105852
0.00188901
0.000124786
0.00177563
0.000142361
0.00164347
0.000158374
0.0014938
0.00017264
0.00132813
0.000185
0.00114821
0.000195313
0.000955945
0.000203464
0.000753408
0.00020936
0.00054278
0.000212938
0.00032636
0.000106595
0.000214159
2.12213e-05
0.00213936
1.39557e-07
4.28532e-05
0.00209226
6.42277e-05
0.00203572
8.49957e-05
0.00196214
0.000104884
0.00186912
0.000123646
0.00175687
0.000141061
0.00162606
0.000156929
0.00147793
0.000171066
0.001314
0.000183314
0.00113597
0.000193534
0.000945726
0.000201611
0.000745331
0.000207455
0.000536936
0.000211001
0.000322814
0.000105384
0.000212211
2.10239e-05
0.00211819
1.42081e-07
4.24587e-05
0.00207082
6.36385e-05
0.00201454
8.42175e-05
0.00194156
0.000103925
0.00184942
0.000122516
0.00173828
0.000139774
0.0016088
0.000155497
0.00146221
0.000169506
0.00129999
0.000181643
0.00112383
0.000191771
0.000935598
0.000199775
0.000737326
0.000205566
0.000531145
0.000209081
0.000319299
0.000104186
0.000210281
2.08284e-05
0.00209722
1.44696e-07
4.20678e-05
0.00204959
6.30547e-05
0.00199355
8.34463e-05
0.00192117
0.000102974
0.00182989
0.000121397
0.00171986
0.000138498
0.0015917
0.000154078
0.00144663
0.000167961
0.00128611
0.000179988
0.0011118
0.000190024
0.000925563
0.000197956
0.000729394
0.000203695
0.000525406
0.000207179
0.000315816
0.000102996
0.000208368
2.06347e-05
0.00207644
1.47398e-07
4.16805e-05
0.00202854
6.24762e-05
0.00197276
8.26822e-05
0.00190096
0.000102032
0.00181054
0.000120288
0.0017016
0.000137233
0.00157476
0.000152672
0.00143119
0.000166429
0.00127235
0.000178347
0.00109989
0.000188293
0.000915617
0.000196153
0.000721534
0.000201841
0.000519718
0.000205294
0.000312364
0.000101817
0.000206473
2.04427e-05
0.00205584
1.50173e-07
4.12967e-05
0.00200769
6.1903e-05
0.00195215
8.1925e-05
0.00188094
0.000101099
0.00179137
0.000119189
0.00168351
0.00013598
0.00155796
0.000151279
0.00141589
0.000164912
0.00125872
0.000176722
0.00108808
0.000186577
0.000905762
0.000194368
0.000713744
0.000200005
0.000514081
0.000203426
0.000308942
0.000100648
0.000204595
2.02525e-05
0.00203544
1.52996e-07
4.09165e-05
0.00198702
6.1335e-05
0.00193173
8.11748e-05
0.0018611
0.000100175
0.00177237
0.0001181
0.00166559
0.000134739
0.00154133
0.000149899
0.00140073
0.000163408
0.00124521
0.000175112
0.00107637
0.000184878
0.000895996
0.000192598
0.000706024
0.000198184
0.000508495
0.000201576
0.000305551
9.94899e-05
0.000202735
2.00641e-05
0.00201522
1.55842e-07
4.05397e-05
0.00196655
6.07722e-05
0.0019115
8.04313e-05
0.00184144
9.92583e-05
0.00175354
0.00011702
0.00164783
0.000133508
0.00152484
0.000148532
0.00138571
0.000161918
0.00123182
0.000173516
0.00106477
0.000183194
0.000886318
0.000190845
0.000698375
0.000196381
0.000502959
0.000199742
0.00030219
9.83411e-05
0.000200891
1.98774e-05
0.00199518
1.58678e-07
4.01664e-05
0.00194626
6.02145e-05
0.00189145
7.96947e-05
0.00182196
9.83504e-05
0.00173488
0.000115951
0.00163022
0.000132289
0.0015085
0.000147176
0.00137082
0.000160442
0.00121856
0.000171935
0.00105328
0.000181526
0.000876727
0.000189107
0.000690793
0.000194594
0.000497472
0.000197925
0.000298859
9.72029e-05
0.000199064
1.96924e-05
0.00197533
1.61473e-07
3.97965e-05
0.00192615
5.96619e-05
0.00187158
7.89648e-05
0.00180266
9.74507e-05
0.0017164
0.000114892
0.00161278
0.000131082
0.00149231
0.000145834
0.00135607
0.000158979
0.00120541
0.000170368
0.00104189
0.000179872
0.000867223
0.000187386
0.00068328
0.000192824
0.000492035
0.000196125
0.000295558
9.60743e-05
0.000197254
1.95091e-05
0.00195566
1.64199e-07
3.94299e-05
0.00190623
5.91144e-05
0.0018519
7.82415e-05
0.00178353
9.65593e-05
0.00169808
0.000113842
0.0015955
0.000129885
0.00147627
0.000144503
0.00134145
0.000157529
0.00119239
0.000168816
0.00103061
0.000178234
0.000857804
0.00018568
0.000675835
0.000191069
0.000486646
0.000194341
0.000292286
9.49556e-05
0.00019546
1.93275e-05
0.00193616
1.66831e-07
3.90668e-05
0.00188649
5.85718e-05
0.0018324
7.75248e-05
0.00176458
9.5676e-05
0.00167993
0.000112801
0.00157838
0.000128699
0.00146037
0.000143185
0.00132696
0.000156093
0.00117948
0.000167277
0.00101942
0.000176611
0.00084847
0.00018399
0.000668456
0.000189331
0.000481306
0.000192574
0.000289043
9.38468e-05
0.000193683
1.91475e-05
0.00191684
1.6935e-07
3.87069e-05
0.00186693
5.80343e-05
0.00181307
7.68147e-05
0.0017458
9.48008e-05
0.00166194
0.000111771
0.00156141
0.000127524
0.00144462
0.000141879
0.00131261
0.00015467
0.00116669
0.000165753
0.00100834
0.000175003
0.00083922
0.000182316
0.000661144
0.000187609
0.000476013
0.000190823
0.000285829
9.27472e-05
0.000191923
1.89693e-05
0.0018977
1.71743e-07
3.83504e-05
0.00184755
5.75016e-05
0.00179392
7.61111e-05
0.00172719
9.39336e-05
0.00164412
0.000110749
0.00154459
0.00012636
0.00142901
0.000140584
0.00129839
0.00015326
0.00115401
0.000164243
0.000997357
0.00017341
0.000830054
0.000180657
0.000653898
0.000185902
0.000470769
0.000189088
0.000282644
9.16576e-05
0.000190178
1.87926e-05
0.00187874
1.74004e-07
3.79971e-05
0.00182835
5.69738e-05
0.00177494
7.54138e-05
0.00170875
9.30743e-05
0.00162646
0.000109737
0.00152793
0.000125206
0.00141354
0.000139302
0.00128429
0.000151863
0.00114145
0.000162747
0.000986473
0.000171831
0.00082097
0.000179013
0.000646716
0.000184211
0.00046557
0.000187368
0.000279487
9.05767e-05
0.000188449
1.86176e-05
0.00185994
1.76137e-07
3.7647e-05
0.00180932
5.64508e-05
0.00175614
7.4723e-05
0.00169047
9.22229e-05
0.00160896
0.000108735
0.00151142
0.000124063
0.00139821
0.000138031
0.00127032
0.000150479
0.001129
0.000161265
0.000975688
0.000170267
0.000811969
0.000177384
0.0006396
0.000182536
0.000460419
0.000185665
0.000276358
8.95063e-05
0.000186737
1.84442e-05
0.00184132
1.78153e-07
3.73001e-05
0.00179046
5.59326e-05
0.0017375
7.40385e-05
0.00167237
9.13793e-05
0.00159162
0.000107741
0.00149506
0.00012293
0.00138302
0.000136772
0.00125648
0.000149107
0.00111667
0.000159796
0.000964999
0.000168717
0.000803048
0.00017577
0.000632546
0.000180876
0.000455313
0.000183977
0.000273256
8.84439e-05
0.00018504
1.82723e-05
0.00182287
1.80071e-07
3.69564e-05
0.00177178
5.54192e-05
0.00171904
7.33602e-05
0.00165443
9.05434e-05
0.00157444
0.000106756
0.00147884
0.000121808
0.00136797
0.000135525
0.00124276
0.000147748
0.00110444
0.00015834
0.000954408
0.000167181
0.000794208
0.000174171
0.000625557
0.000179231
0.000450253
0.000182305
0.000270183
8.73921e-05
0.000183358
1.81021e-05
0.00180458
1.81916e-07
3.66158e-05
0.00175327
5.49104e-05
0.00170075
7.26882e-05
0.00163665
8.97151e-05
0.00155741
0.000105781
0.00146278
0.000120696
0.00135305
0.000134289
0.00122917
0.000146402
0.00109233
0.000156898
0.000943911
0.000165659
0.000785446
0.000172586
0.00061863
0.000177602
0.000445238
0.000180648
0.000267136
8.6348e-05
0.000181692
1.79334e-05
0.00178647
1.83719e-07
3.62784e-05
0.00173492
5.44063e-05
0.00168262
7.20223e-05
0.00161903
8.88944e-05
0.00154054
0.000104814
0.00144686
0.000119595
0.00133827
0.000133064
0.0012157
0.000145067
0.00108033
0.000155469
0.00093351
0.000164152
0.000776765
0.000171017
0.000611766
0.000175987
0.000440269
0.000179006
0.000264117
8.53145e-05
0.000180042
1.77662e-05
0.00176852
1.8551e-07
3.5944e-05
0.00171674
5.39068e-05
0.00166466
7.13625e-05
0.00160158
8.80813e-05
0.00152382
0.000103857
0.00143108
0.000118503
0.00132362
0.00013185
0.00120236
0.000143746
0.00106843
0.000154054
0.000923202
0.000162658
0.00076816
0.000169461
0.000604963
0.000174387
0.000435343
0.00017738
0.000261124
8.42882e-05
0.000178406
1.76006e-05
0.00175073
1.8732e-07
3.56127e-05
0.00169873
5.34119e-05
0.00164686
7.07087e-05
0.00158428
8.72756e-05
0.00150725
0.000102908
0.00141545
0.000117421
0.00130911
0.000130648
0.00118913
0.000142436
0.00105665
0.000152651
0.000912988
0.000161178
0.000759634
0.00016792
0.000598221
0.000172802
0.000430462
0.000175768
0.000258159
8.32726e-05
0.000176786
1.74365e-05
0.0017331
1.89177e-07
3.52844e-05
0.00168088
5.29215e-05
0.00162922
7.0061e-05
0.00156714
8.64772e-05
0.00149083
0.000101968
0.00139996
0.00011635
0.00129473
0.000129457
0.00117602
0.000141138
0.00104496
0.000151261
0.000902865
0.000159711
0.000751184
0.000166393
0.000591539
0.000171231
0.000425623
0.000174171
0.000255218
8.22636e-05
0.00017518
1.72739e-05
0.00171564
1.911e-07
3.49592e-05
0.0016632
5.24356e-05
0.00161174
6.94191e-05
0.00155016
8.56862e-05
0.00147457
0.000101036
0.00138461
0.000115288
0.00128048
0.000128276
0.00116304
0.000139852
0.00103339
0.000149884
0.000892833
0.000158258
0.000742811
0.00016488
0.000584918
0.000169675
0.000420829
0.000172589
0.000252305
8.12657e-05
0.000173589
1.71128e-05
0.00169833
1.93102e-07
3.46369e-05
0.00164567
5.19541e-05
0.00159443
6.87832e-05
0.00153333
8.49025e-05
0.00145845
0.000100113
0.0013694
0.000114236
0.00126636
0.000127107
0.00115016
0.000138578
0.00102192
0.00014852
0.000882892
0.000156819
0.000734512
0.000163381
0.000578355
0.000168134
0.000416077
0.000171022
0.000249417
8.02738e-05
0.000172013
1.69531e-05
0.00168118
1.95184e-07
3.43175e-05
0.00162831
5.14771e-05
0.00157727
6.81531e-05
0.00151665
8.4126e-05
0.00144248
9.91987e-05
0.00135433
0.000113193
0.00125236
0.000125948
0.00113741
0.000137316
0.00101055
0.000147168
0.000873041
0.000155392
0.000726288
0.000161896
0.000571852
0.000166606
0.000411368
0.000169469
0.000246555
7.92931e-05
0.000170452
1.67949e-05
0.00166419
1.97341e-07
3.40011e-05
0.0016111
5.10045e-05
0.00156026
6.75287e-05
0.00150013
8.33565e-05
0.00142665
9.82926e-05
0.00133939
0.000112161
0.00123849
0.0001248
0.00112477
0.000136065
0.000999284
0.000145829
0.000863277
0.000153979
0.000718137
0.000160425
0.000565407
0.000165093
0.0004067
0.00016793
0.000243717
7.8318e-05
0.000168904
1.66382e-05
0.00164735
1.99556e-07
3.36876e-05
0.00159405
5.05361e-05
0.00154341
6.69101e-05
0.00148376
8.25942e-05
0.00141096
9.73948e-05
0.00132459
0.000111137
0.00122475
0.000123662
0.00111225
0.000134826
0.000988121
0.000144502
0.000853603
0.000152579
0.000710061
0.000158967
0.000559019
0.000163593
0.000402075
0.000166405
0.000240906
7.73542e-05
0.000167372
1.64829e-05
0.00163067
2.01806e-07
3.3377e-05
0.00157716
5.00721e-05
0.00152672
6.62972e-05
0.00146753
8.18389e-05
0.00139542
9.65053e-05
0.00130992
0.000110123
0.00121113
0.000122535
0.00109983
0.000133598
0.000977058
0.000143187
0.000844014
0.000151191
0.000702056
0.000157522
0.000552689
0.000162107
0.00039749
0.000164895
0.000238118
7.63954e-05
0.000165853
1.6329e-05
0.00161414
2.04064e-07
3.30693e-05
0.00156042
4.96124e-05
0.00151018
6.56899e-05
0.00145145
8.10905e-05
0.00138002
9.56239e-05
0.00129539
0.000109119
0.00119764
0.000121419
0.00108754
0.000132382
0.000966095
0.000141884
0.000834513
0.000149817
0.000694124
0.000156091
0.000546416
0.000160635
0.000392946
0.000163398
0.000235357
7.5448e-05
0.000164348
1.61765e-05
0.00159775
2.063e-07
3.27643e-05
0.00154383
4.91568e-05
0.00149378
6.50882e-05
0.00143552
8.03489e-05
0.00136476
9.47507e-05
0.00128099
0.000108123
0.00118426
0.000120312
0.00107535
0.000131177
0.00095523
0.000140593
0.000825096
0.000148455
0.000686262
0.000154673
0.000540198
0.000159177
0.000388442
0.000161915
0.000232618
7.45052e-05
0.000162857
1.60255e-05
0.00158152
2.08486e-07
3.24622e-05
0.0015274
4.87055e-05
0.00147754
6.44921e-05
0.00141974
7.96142e-05
0.00134964
9.38855e-05
0.00126672
0.000107137
0.00117101
0.000119216
0.00106327
0.000129983
0.000944464
0.000139315
0.000815765
0.000147106
0.000678471
0.000153268
0.000534036
0.000157732
0.00038398
0.000160446
0.000229905
7.35741e-05
0.00016138
1.58758e-05
0.00156543
2.10595e-07
3.21628e-05
0.00151111
4.82583e-05
0.00146144
6.39014e-05
0.00140409
7.88863e-05
0.00133465
9.30282e-05
0.00125258
0.00010616
0.00115788
0.00011813
0.0010513
0.000128799
0.000933794
0.000138048
0.000806517
0.000145769
0.00067075
0.000151876
0.000527929
0.0001563
0.000379556
0.000158991
0.000227214
7.2647e-05
0.000159917
1.57276e-05
0.00154949
2.1261e-07
3.18662e-05
0.00149497
4.78152e-05
0.0014455
6.33161e-05
0.00138859
7.81651e-05
0.00131981
9.21789e-05
0.00123856
0.000105192
0.00114487
0.000117054
0.00103944
0.000127627
0.000923221
0.000136792
0.000797353
0.000144444
0.000663099
0.000150497
0.000521877
0.000154882
0.000375172
0.000157549
0.000224549
7.17316e-05
0.000158467
1.55806e-05
0.0015337
2.14517e-07
3.15724e-05
0.00147898
4.73763e-05
0.00142969
6.27363e-05
0.00137323
7.74505e-05
0.00130509
9.13374e-05
0.00122468
0.000104233
0.00113197
0.000115988
0.00102768
0.000126466
0.000912743
0.000135549
0.00078827
0.000143132
0.000655515
0.000149131
0.000515878
0.000153477
0.000370826
0.00015612
0.000221905
7.08199e-05
0.000157031
1.54351e-05
0.00151805
2.16314e-07
3.12812e-05
0.00146313
4.69413e-05
0.00141403
6.21617e-05
0.00135801
7.67425e-05
0.00129051
9.05036e-05
0.00121091
0.000103283
0.00111919
0.000114931
0.00101603
0.000125315
0.000902359
0.000134316
0.00077927
0.000141832
0.000648
0.000147777
0.000509934
0.000152084
0.00036652
0.000154704
0.000219286
6.99201e-05
0.000155607
1.52909e-05
0.00150254
2.18007e-07
3.09927e-05
0.00144743
4.65104e-05
0.00139851
6.15925e-05
0.00134293
7.6041e-05
0.00127606
8.96775e-05
0.00119728
0.000102341
0.00110653
0.000113885
0.00100449
0.000124175
0.000892068
0.000133096
0.000770349
0.000140544
0.000640551
0.000146436
0.000504042
0.000150705
0.000362251
0.000153302
0.000216689
6.90235e-05
0.000154197
1.5148e-05
0.00148717
2.19608e-07
3.07069e-05
0.00143187
4.60834e-05
0.00138314
6.10285e-05
0.00132798
7.53459e-05
0.00126175
8.88591e-05
0.00118377
0.000101408
0.00109398
0.000112848
0.000993052
0.000123046
0.000881871
0.000131886
0.00076151
0.000139268
0.00063317
0.000145107
0.000498203
0.000149338
0.000358021
0.000151913
0.000214116
6.81388e-05
0.000152801
1.50065e-05
0.00147194
2.21136e-07
3.04237e-05
0.00141645
4.56603e-05
0.0013679
6.04697e-05
0.00131318
7.46573e-05
0.00124756
8.80482e-05
0.00117037
0.000100484
0.00108155
0.00011182
0.000981716
0.000121927
0.000871764
0.000130688
0.000752749
0.000138003
0.000625855
0.000143791
0.000492416
0.000147984
0.000353828
0.000150536
0.000211563
6.72569e-05
0.000151417
1.48663e-05
0.00145685
2.22616e-07
3.01432e-05
0.00140118
4.52412e-05
0.0013528
5.99161e-05
0.0012985
7.39751e-05
0.0012335
8.72448e-05
0.00115711
9.95683e-05
0.00106922
0.000110803
0.000970482
0.000120818
0.000861749
0.0001295
0.000744067
0.000136751
0.000618605
0.000142487
0.000486681
0.000146643
0.000349673
0.000149172
0.000209036
6.63871e-05
0.000150046
1.47273e-05
0.0014419
2.24071e-07
2.98652e-05
0.00138604
4.48259e-05
0.00133784
5.93675e-05
0.00128396
7.32991e-05
0.00121957
8.64488e-05
0.00114396
9.86611e-05
0.00105701
0.000109794
0.000959349
0.00011972
0.000851824
0.000128324
0.000735463
0.00013551
0.00061142
0.000141195
0.000480996
0.000145314
0.000345553
0.000147821
0.000206528
6.55197e-05
0.000148687
1.45897e-05
0.00142709
2.25527e-07
2.95898e-05
0.00137104
4.44145e-05
0.00132302
5.88241e-05
0.00126955
7.26294e-05
0.00120576
8.56601e-05
0.00113093
9.77622e-05
0.00104491
0.000108795
0.000948316
0.000118631
0.000841988
0.000127159
0.000726936
0.00013428
0.000604299
0.000139914
0.000475363
0.000143997
0.000341471
0.000146483
0.000204044
6.46643e-05
0.000147342
1.44533e-05
0.00141241
2.27003e-07
2.93169e-05
0.00135618
4.40068e-05
0.00130833
5.82856e-05
0.00125527
7.19659e-05
0.00119208
8.48788e-05
0.00111801
9.68717e-05
0.00103292
0.000107805
0.000937383
0.000117553
0.00083224
0.000126004
0.000718485
0.000133062
0.000597241
0.000138646
0.000469779
0.000142693
0.000337424
0.000145157
0.00020158
6.3811e-05
0.000146009
1.43182e-05
0.00139786
2.28519e-07
2.90465e-05
0.00134145
4.36029e-05
0.00129377
5.77521e-05
0.00124112
7.13084e-05
0.00117853
8.41046e-05
0.00110522
9.59894e-05
0.00102103
0.000106825
0.000926548
0.000116485
0.00082258
0.00012486
0.00071011
0.000131855
0.000590248
0.00013739
0.000464245
0.000141401
0.000333414
0.000143843
0.00019914
6.29698e-05
0.000144688
1.41843e-05
0.00138344
2.30083e-07
2.87786e-05
0.00132685
4.32027e-05
0.00127935
5.72236e-05
0.0012271
7.06571e-05
0.00116509
8.33377e-05
0.00109254
9.51153e-05
0.00100925
0.000105853
0.00091581
0.000115427
0.000813006
0.000123727
0.00070181