/*--------------------------------*- C++ -*----------------------------------*\
  =========                 |
  \\      /  F ield         | OpenFOAM: The Open Source CFD Toolbox
   \\    /   O peration     | Website:  https://openfoam.org
    \\  /    A nd           | Version:  6.0
     \\/     M anipulation  |
\*---------------------------------------------------------------------------*/
FoamFile
{
    version     2.0;
    format      ascii;
    class       surfaceScalarField;
    location    "3.6";
    object      phi;
}
// * * * * * * * * * * * * * * * * * * * * * * * * * * * * * * * * * * * * * //

dimensions      [0 3 -1 0 0 0 0];

internalField   nonuniform List<scalar> 
47678
(
2.9808e-05
0.00388594
2.46221e-09
5.9845e-05
0.00381844
8.91112e-05
0.00368578
0.000116962
0.00348996
0.000142854
0.0032344
0.000166314
0.00292357
0.000186917
0.00256293
0.000204298
0.00215869
0.000218148
0.00171789
0.000228223
0.00124787
0.000234335
0.000757433
0.000257847
0.000236912
2.9617e-05
0.00385632
5.74915e-09
5.94651e-05
0.00378859
8.85463e-05
0.00365669
0.00011622
0.00346228
0.000141947
0.00320866
0.000165257
0.00290025
0.000185728
0.00254245
0.000202998
0.00214141
0.000216759
0.00170412
0.000226764
0.00123786
0.000232946
0.000751245
0.000255151
0.000235636
2.94276e-05
0.00382688
8.51451e-09
5.90876e-05
0.00375893
8.79853e-05
0.00362778
0.000115484
0.00343478
0.000141048
0.0031831
0.000164209
0.00287709
0.000184548
0.00252211
0.000201707
0.00212426
0.000215382
0.00169045
0.000225316
0.00122793
0.000231477
0.000745084
0.000252505
0.00023413
2.92397e-05
0.00379763
1.09123e-08
5.87126e-05
0.00372946
8.74278e-05
0.00359906
0.000114753
0.00340745
0.000140154
0.00315769
0.000163167
0.00285407
0.000183377
0.00250189
0.000200425
0.0021072
0.000214014
0.00167685
0.00022388
0.00121806
0.000229986
0.000738974
0.000249925
0.000232563
2.90532e-05
0.00376856
1.29362e-08
5.83402e-05
0.00370017
8.68737e-05
0.00357052
0.000114025
0.0033803
0.000139265
0.00313244
0.000162132
0.0028312
0.000182212
0.00248181
0.000199151
0.00209026
0.000212653
0.00166335
0.000222455
0.00120826
0.000228503
0.000732928
0.000247429
0.000231006
2.88682e-05
0.00373968
1.45305e-08
5.79701e-05
0.00367107
8.63231e-05
0.00354216
0.000113303
0.00335331
0.000138382
0.00310736
0.000161102
0.00280847
0.000181054
0.00246186
0.000197884
0.00207343
0.000211302
0.00164993
0.000221043
0.00119851
0.000227037
0.00072693
0.000244994
0.000229472
2.86845e-05
0.00371098
1.57132e-08
5.76022e-05
0.00364215
8.57757e-05
0.00351399
0.000112584
0.00332651
0.000137504
0.00308244
0.00016008
0.0027859
0.000179903
0.00244203
0.000196626
0.00205671
0.000209959
0.00163659
0.000219642
0.00118883
0.000225589
0.000720986
0.000242631
0.000227958
2.85019e-05
0.00368246
1.65382e-08
5.72367e-05
0.00361342
8.52317e-05
0.00348599
0.00011187
0.00329986
0.000136632
0.00305767
0.000159063
0.00276346
0.00017876
0.00242233
0.000195375
0.00204009
0.000208624
0.00162334
0.000218251
0.0011792
0.000224153
0.00071508
0.000240318
0.000226465
2.83206e-05
0.00365412
1.70455e-08
5.68735e-05
0.00358487
8.46911e-05
0.00345817
0.00011116
0.00327339
0.000135765
0.00303306
0.000158052
0.00274118
0.000177624
0.00240276
0.000194133
0.00202358
0.000207298
0.00161018
0.000216868
0.00116963
0.00022273
0.00070922
0.000238059
0.000224993
2.81405e-05
0.00362596
1.72889e-08
5.65125e-05
0.00355649
8.41539e-05
0.00343052
0.000110455
0.00324709
0.000134903
0.00300861
0.000157048
0.00271903
0.000176494
0.00238331
0.000192898
0.00200717
0.00020598
0.00159709
0.000215494
0.00116012
0.000221317
0.000703394
0.000235833
0.000223541
2.79616e-05
0.00359798
1.73418e-08
5.61538e-05
0.0035283
8.36199e-05
0.00340306
0.000109754
0.00322096
0.000134046
0.00298432
0.00015605
0.00269703
0.000175372
0.00236399
0.000191671
0.00199088
0.00020467
0.0015841
0.000214128
0.00115066
0.000219914
0.000697609
0.000233646
0.000222105
2.77838e-05
0.00357018
1.72594e-08
5.57973e-05
0.00350029
8.30893e-05
0.00337576
0.000109057
0.00319499
0.000133195
0.00296018
0.000155058
0.00267516
0.000174257
0.00234479
0.000190452
0.00197468
0.000203368
0.00157118
0.00021277
0.00114125
0.000218521
0.000691855
0.000231484
0.000220681
2.76072e-05
0.00354256
1.70807e-08
5.54431e-05
0.00347245
8.25619e-05
0.00334864
0.000108365
0.00316919
0.000132348
0.0029362
0.000154073
0.00265344
0.000173149
0.00232571
0.000189241
0.00195859
0.000202075
0.00155834
0.000211421
0.00113191
0.000217137
0.00068614
0.000229355
0.000219269
2.74317e-05
0.00351511
1.68373e-08
5.5091e-05
0.00344479
8.20378e-05
0.00332169
0.000107677
0.00314354
0.000131507
0.00291236
0.000153093
0.00263185
0.000172048
0.00230675
0.000188038
0.00194259
0.000200791
0.00154559
0.00021008
0.00112262
0.000215762
0.000680456
0.000227247
0.000217867
2.72574e-05
0.00348783
1.65418e-08
5.47411e-05
0.00341731
8.15169e-05
0.00329492
0.000106993
0.00311807
0.000130671
0.00288869
0.000152119
0.0026104
0.000170954
0.00228792
0.000186842
0.00192671
0.000199514
0.00153292
0.000208747
0.00111339
0.000214395
0.00067481
0.000225169
0.000216475
2.70842e-05
0.00346073
1.6187e-08
5.43934e-05
0.00339
8.09991e-05
0.00326831
0.000106313
0.00309275
0.00012984
0.00286515
0.000151152
0.00258909
0.000169866
0.0022692
0.000185654
0.00191092
0.000198246
0.00152032
0.000207423
0.00110421
0.000213036
0.000669194
0.000223108
0.000215093
2.69121e-05
0.0034338
1.57728e-08
5.40478e-05
0.00336286
8.04845e-05
0.00324187
0.000105637
0.0030676
0.000129015
0.00284178
0.000150191
0.00256791
0.000168786
0.00225061
0.000184474
0.00189523
0.000196986
0.00150781
0.000206107
0.00109509
0.000211686
0.000663616
0.000221076
0.000213721
2.67411e-05
0.00340705
1.52971e-08
5.37043e-05
0.0033359
7.9973e-05
0.0032156
0.000104965
0.00304261
0.000128194
0.00281855
0.000149235
0.00254687
0.000167712
0.00223213
0.000183301
0.00187964
0.000195734
0.00149538
0.000204799
0.00108602
0.000210345
0.000658067
0.000219057
0.000212359
2.65711e-05
0.00338046
1.47772e-08
5.3363e-05
0.00330911
7.94646e-05
0.0031895
0.000104298
0.00301778
0.000127379
0.00279547
0.000148286
0.00252596
0.000166646
0.00221377
0.000182136
0.00186415
0.000194491
0.00148302
0.0002035
0.00107701
0.000209012
0.000652557
0.000217067
0.000211006
2.64022e-05
0.00335404
1.42511e-08
5.30237e-05
0.00328248
7.89592e-05
0.00316356
0.000103634
0.0029931
0.000126568
0.00277253
0.000147343
0.00250519
0.000165586
0.00219553
0.000180978
0.00184876
0.000193255
0.00147074
0.000202209
0.00106806
0.000207687
0.000647076
0.000215087
0.000209662
2.62344e-05
0.0033278
1.37812e-08
5.26864e-05
0.00325603
7.84569e-05
0.00313779
0.000102975
0.00296858
0.000125763
0.00274974
0.000146405
0.00248455
0.000164533
0.0021774
0.000179828
0.00183346
0.000192027
0.00145855
0.000200926
0.00105916
0.00020637
0.000641633
0.000213134
0.000208328
2.60675e-05
0.00330171
1.34451e-08
5.23512e-05
0.00322975
7.79576e-05
0.00311218
0.000102319
0.00294422
0.000124962
0.0027271
0.000145474
0.00246403
0.000163486
0.00215939
0.000178685
0.00181826
0.000190808
0.00144642
0.000199651
0.00105032
0.000205062
0.000636219
0.000211188
0.000207003
2.59016e-05
0.0032758
1.33318e-08
5.2018e-05
0.00320363
7.74614e-05
0.00308674
0.000101668
0.00292002
0.000124167
0.0027046
0.000144548
0.00244365
0.000162447
0.00214149
0.000177549
0.00180316
0.000189596
0.00143438
0.000198384
0.00104153
0.000203762
0.000630842
0.00020927
0.000205686
2.57367e-05
0.00325005
1.3519e-08
5.16868e-05
0.00317768
7.69682e-05
0.00306146
0.000101021
0.00289596
0.000123377
0.00268224
0.000143628
0.0024234
0.000161414
0.0021237
0.000176421
0.00178815
0.000188392
0.0014224
0.000197126
0.00103279
0.000202471
0.000625494
0.000207356
0.000204379
2.55727e-05
0.00322446
1.40685e-08
5.13576e-05
0.00315189
7.6478e-05
0.00303634
0.000100377
0.00287206
0.000122591
0.00266003
0.000142715
0.00240328
0.000160387
0.00210603
0.0001753
0.00177324
0.000187196
0.00141051
0.000195875
0.00102411
0.000201188
0.000620183
0.000205468
0.00020308
2.54097e-05
0.00319903
1.50068e-08
5.10303e-05
0.00312627
7.59908e-05
0.00301138
9.97379e-05
0.00284831
0.000121811
0.00263795
0.000141806
0.00238328
0.000159368
0.00208847
0.000174186
0.00175842
0.000186007
0.00139868
0.000194633
0.00101549
0.000199912
0.0006149
0.000203584
0.00020179
2.52475e-05
0.00317377
1.63283e-08
5.0705e-05
0.00310082
7.55066e-05
0.00298658
9.91026e-05
0.00282472
0.000121035
0.00261602
0.000140904
0.00236341
0.000158354
0.00207102
0.00017308
0.00174369
0.000184827
0.00138694
0.000193398
0.00100692
0.000198645
0.000609655
0.000201726
0.000200508
2.50863e-05
0.00314867
1.79907e-08
5.03816e-05
0.00307552
7.50253e-05
0.00296193
9.84713e-05
0.00280127
0.000120265
0.00259423
0.000140008
0.00234367
0.000157348
0.00205368
0.00017198
0.00172906
0.000183653
0.00137526
0.000192172
0.000998394
0.000197386
0.000604437
0.000199871
0.000199235
2.49259e-05
0.00312372
1.99314e-08
5.00602e-05
0.00305039
7.4547e-05
0.00293745
9.78439e-05
0.00277798
0.000119499
0.00257257
0.000139117
0.00232405
0.000156347
0.00203645
0.000170888
0.00171452
0.000182488
0.00136367
0.000190953
0.00098993
0.000196135
0.000599257
0.000198039
0.00019797
2.47665e-05
0.00309893
2.20726e-08
4.97407e-05
0.00302541
7.40717e-05
0.00291311
9.72205e-05
0.00275483
0.000118738
0.00255105
0.000138232
0.00230456
0.000155353
0.00201932
0.000169803
0.00170007
0.00018133
0.00135214
0.000189742
0.000981515
0.000194892
0.000594104
0.000196212
0.000196713
2.46079e-05
0.0030743
2.43426e-08
4.94232e-05
0.0030006
7.35993e-05
0.00288894
9.66009e-05
0.00273183
0.000117982
0.00252968
0.000137353
0.00228519
0.000154366
0.00200231
0.000168724
0.00168571
0.000180179
0.00134068
0.000188539
0.000973157
0.000193657
0.000588988
0.000194407
0.000195464
2.44502e-05
0.00304982
2.66781e-08
4.91075e-05
0.00297594
7.31298e-05
0.00286491
9.59853e-05
0.00270897
0.000117231
0.00250843
0.000136479
0.00226594
0.000153385
0.0019854
0.000167653
0.00167144
0.000179036
0.0013293
0.000187344
0.000964846
0.00019243
0.000583898
0.000192605
0.000194224
2.42933e-05
0.0030255
2.90381e-08
4.87938e-05
0.00295144
7.26633e-05
0.00284105
9.53735e-05
0.00268626
0.000116484
0.00248732
0.000135611
0.00224681
0.00015241
0.00196861
0.000166588
0.00165726
0.0001779
0.00131799
0.000186156
0.000956592
0.00019121
0.000578846
0.000190826
0.000192992
2.41373e-05
0.00300133
3.13973e-08
4.84819e-05
0.00292709
7.21996e-05
0.00281733
9.47657e-05
0.0026637
0.000115743
0.00246634
0.000134748
0.00222781
0.000151441
0.00195191
0.000165531
0.00164317
0.000176771
0.00130675
0.000184976
0.000948385
0.000189999
0.000573819
0.000189051
0.000191767
2.39822e-05
0.00297732
3.3749e-08
4.81719e-05
0.0029029
7.17388e-05
0.00279376
9.41616e-05
0.00264128
0.000115006
0.0024455
0.000133891
0.00220892
0.000150479
0.00193533
0.00016448
0.00162917
0.00017565
0.00129558
0.000183803
0.000940234
0.000188795
0.00056883
0.000187296
0.000190551
2.3828e-05
0.00295345
3.60915e-08
4.78638e-05
0.00287887
7.12809e-05
0.00277034
9.35613e-05
0.00261899
0.000114273
0.00242478
0.000133039
0.00219016
0.000149523
0.00191884
0.000163435
0.00161526
0.000174536
0.00128447
0.000182638
0.000932129
0.000187599
0.000563866
0.000185547
0.000189342
2.36746e-05
0.00292974
3.8428e-08
4.75576e-05
0.00285498
7.08259e-05
0.00274708
9.29648e-05
0.00259686
0.000113546
0.00240421
0.000132193
0.00217151
0.000148573
0.00190246
0.000162398
0.00160144
0.000173429
0.00127345
0.00018148
0.000924079
0.00018641
0.000558939
0.000183819
0.000188141
2.35222e-05
0.00290617
4.07537e-08
4.72533e-05
0.00283125
7.03736e-05
0.00272395
9.23721e-05
0.00257486
0.000112823
0.00238375
0.000131352
0.00215298
0.000147629
0.00188618
0.000161367
0.00158769
0.000172329
0.00126248
0.00018033
0.000916075
0.000185229
0.000554036
0.000182094
0.000186948
2.33706e-05
0.00288276
4.30587e-08
4.69508e-05
0.00280767
6.99242e-05
0.00270098
9.17831e-05
0.002553
0.000112104
0.00236344
0.000130517
0.00213457
0.000146691
0.00187001
0.000160343
0.00157404
0.000171236
0.00125159
0.000179187
0.000908127
0.000184056
0.000549171
0.000180392
0.000185762
2.32198e-05
0.00285949
4.5321e-08
4.66502e-05
0.00278424
6.94776e-05
0.00267815
9.11979e-05
0.00253128
0.00011139
0.00234324
0.000129687
0.00211627
0.000145759
0.00185394
0.000159325
0.00156047
0.000170151
0.00124076
0.000178051
0.000900222
0.00018289
0.000544329
0.000178692
0.000184584
2.307e-05
0.00283638
4.75153e-08
4.63514e-05
0.00276096
6.90338e-05
0.00265547
9.06163e-05
0.0025097
0.000110681
0.00232318
0.000128862
0.0020981
0.000144833
0.00183797
0.000158314
0.00154699
0.000169072
0.00123001
0.000176923
0.000892373
0.000181731
0.000539525
0.000177015
0.000183414
2.29211e-05
0.00281341
4.96101e-08
4.60545e-05
0.00273783
6.85928e-05
0.00263293
9.00385e-05
0.00248825
0.000109976
0.00230324
0.000128042
0.00208003
0.000143913
0.0018221
0.000157309
0.0015336
0.000168
0.00121932
0.000175802
0.000884567
0.00018058
0.000534743
0.000175338
0.000182251
2.27731e-05
0.00279058
5.15789e-08
4.57594e-05
0.00271484
6.81546e-05
0.00261054
8.94643e-05
0.00246695
0.000109276
0.00228343
0.000127228
0.00206208
0.000142999
0.00180633
0.000156311
0.00152028
0.000166934
0.00120869
0.000174688
0.000876816
0.000179436
0.000529999
0.000173686
0.000181096
2.2626e-05
0.0027679
5.33982e-08
4.54662e-05
0.002692
6.77191e-05
0.00258829
8.88937e-05
0.00244577
0.00010858
0.00226374
0.000126419
0.00204424
0.00014209
0.00179066
0.000155319
0.00150705
0.000165876
0.00119814
0.000173581
0.000869108
0.0001783
0.000525277
0.000172032
0.000179949
2.24797e-05
0.00274537
5.50568e-08
4.51748e-05
0.00266931
6.72864e-05
0.00256618
8.83268e-05
0.00242473
0.000107889
0.00224418
0.000125615
0.00202652
0.000141188
0.00177509
0.000154334
0.00149391
0.000164825
0.00118765
0.000172481
0.000861454
0.00017717
0.000520592
0.000170403
0.000178808
2.23345e-05
0.00272298
5.65508e-08
4.48852e-05
0.00264676
6.68565e-05
0.0025442
8.77635e-05
0.00240382
0.000107202
0.00222474
0.000124816
0.0020089
0.000140291
0.00175961
0.000153355
0.00148084
0.00016378
0.00117722
0.000171388
0.000853842
0.000176048
0.000515929
0.000168769
0.000177675
2.21901e-05
0.00270073
5.78878e-08
4.45975e-05
0.00262435
6.64292e-05
0.00252237
8.72038e-05
0.00238305
0.000106519
0.00220543
0.000124023
0.0019914
0.0001394
0.00174423
0.000152382
0.00146786
0.000162741
0.00116686
0.000170302
0.000846284
0.000174933
0.000511304
0.000167162
0.00017655
2.20466e-05
0.00267863
5.90797e-08
4.43116e-05
0.00260208
6.60048e-05
0.00250068
8.66478e-05
0.00236241
0.000105841
0.00218624
0.000123234
0.00197401
0.000138515
0.00172895
0.000151415
0.00145496
0.00016171
0.00115657
0.000169223
0.000838766
0.000173826
0.0005067
0.000165548
0.000175431
2.19041e-05
0.00265666
6.01434e-08
4.40275e-05
0.00257996
6.5583e-05
0.00247913
8.60952e-05
0.0023419
0.000105167
0.00216717
0.000122451
0.00195673
0.000137635
0.00171377
0.000150454
0.00144214
0.000160685
0.00114634
0.000168151
0.000831303
0.000172725
0.000502133
0.00016396
0.00017432
2.17625e-05
0.00263484
6.10927e-08
4.37453e-05
0.00255798
6.51639e-05
0.00245771
8.55462e-05
0.00232152
0.000104498
0.00214822
0.000121672
0.00193955
0.000136761
0.00169868
0.0001495
0.0014294
0.000159666
0.00113617
0.000167086
0.00082388
0.000171631
0.000497587
0.000162365
0.000173216
2.16219e-05
0.00261316
6.19401e-08
4.34649e-05
0.00253614
6.47476e-05
0.00243643
8.50008e-05
0.00230127
0.000103833
0.00212939
0.000120899
0.00192249
0.000135893
0.00168369
0.000148552
0.00141675
0.000158654
0.00112607
0.000166027
0.00081651
0.000170544
0.000493079
0.000160796
0.000172119
2.14822e-05
0.00259161
6.26915e-08
4.31863e-05
0.00251443
6.43339e-05
0.00241528
8.44589e-05
0.00228114
0.000103172
0.00211067
0.00012013
0.00190553
0.00013503
0.00166879
0.000147609
0.00140416
0.000157649
0.00111603
0.000164976
0.00080918
0.000169464
0.00048859
0.000159219
0.000171029
2.13434e-05
0.00257021
6.33513e-08
4.29095e-05
0.00249287
6.39229e-05
0.00239426
8.39204e-05
0.00226115
0.000102515
0.00209208
0.000119367
0.00188868
0.000134173
0.00165398
0.000146673
0.00139167
0.00015665
0.00110606
0.000163931
0.000801903
0.000168391
0.000484138
0.000157668
0.000169946
2.12055e-05
0.00254894
6.39213e-08
4.26345e-05
0.00247144
6.35146e-05
0.00237338
8.33855e-05
0.00224127
0.000101863
0.0020736
0.000118608
0.00187193
0.000133321
0.00163927
0.000145743
0.00137924
0.000155657
0.00109614
0.000162892
0.000794664
0.000167325
0.000479705
0.00015611
0.000168869
2.10686e-05
0.00252781
6.44078e-08
4.23613e-05
0.00245015
6.31089e-05
0.00235264
8.2854e-05
0.00222153
0.000101214
0.00205525
0.000117854
0.0018553
0.000132475
0.00162465
0.000144819
0.0013669
0.000154671
0.00108629
0.000161861
0.000787478
0.000166265
0.000475308
0.000154577
0.0001678
2.09327e-05
0.00250681
6.48222e-08
4.20899e-05
0.00242899
6.27059e-05
0.00233202
8.23259e-05
0.00220191
0.00010057
0.002037
0.000117105
0.00183876
0.000131634
0.00161012
0.0001439
0.00135463
0.00015369
0.0010765
0.000160835
0.000780331
0.000165213
0.00047093
0.00015304
0.000166737
2.07976e-05
0.00248595
6.51863e-08
4.18203e-05
0.00240797
6.23055e-05
0.00231154
8.18013e-05
0.00218242
9.99304e-05
0.00201887
0.000116361
0.00182233
0.000130798
0.00159569
0.000142988
0.00134245
0.000152716
0.00106678
0.000159817
0.000773235
0.000164166
0.000466588
0.000151529
0.000165681
2.06635e-05
0.00246522
6.55302e-08
4.15525e-05
0.00238708
6.19077e-05
0.00229118
8.128e-05
0.00216305
9.92946e-05
0.00200086
0.000115622
0.001806
0.000129968
0.00158134
0.000142081
0.00133033
0.000151749
0.00105711
0.000158805
0.000766176
0.000163127
0.000462264
0.000150013
0.000164632
2.05304e-05
0.00244462
6.58928e-08
4.12864e-05
0.00236632
6.15125e-05
0.00227096
8.07622e-05
0.0021438
9.86629e-05
0.00198296
0.000114887
0.00178978
0.000129143
0.00156709
0.00014118
0.0013183
0.000150787
0.0010475
0.000157799
0.00075917
0.000162094
0.000457976
0.000148524
0.00016359
2.03981e-05
0.00242416
6.63153e-08
4.10221e-05
0.0023457
6.11198e-05
0.00225086
8.02476e-05
0.00212467
9.80352e-05
0.00196517
0.000114157
0.00177366
0.000128323
0.00155292
0.000140285
0.00130633
0.000149832
0.00103796
0.0001568
0.0007522
0.000161068
0.000453705
0.00014703
0.000162554
2.02668e-05
0.00240383
6.68384e-08
4.07596e-05
0.00232521
6.07297e-05
0.00223089
7.97364e-05
0.00210567
9.74116e-05
0.0019475
0.000113432
0.00175764
0.000127509
0.00153884
0.000139395
0.00129445
0.000148883
0.00102847
0.000155807
0.000745281
0.000160049
0.000449471
0.000145563
0.000161525
2.01363e-05
0.00238362
6.74946e-08
4.04988e-05
0.00230485
6.03422e-05
0.00221105
7.92285e-05
0.00208678
9.6792e-05
0.00192994
0.000112711
0.00174172
0.0001267
0.00152485
0.000138511
0.00128264
0.000147939
0.00101904
0.00015482
0.000738398
0.000159035
0.000445253
0.000144089
0.000160502
2.00068e-05
0.00236355
6.83058e-08
4.02397e-05
0.00228461
5.99572e-05
0.00219133
7.87239e-05
0.00206802
9.61764e-05
0.00191249
0.000111995
0.00172591
0.000125896
0.00151096
0.000137633
0.00127091
0.000147002
0.00100968
0.00015384
0.000731567
0.000158029
0.000441072
0.000142644
0.000159486
1.98781e-05
0.0023436
6.92786e-08
3.99823e-05
0.00226451
5.95747e-05
0.00217174
7.82225e-05
0.00204937
9.55647e-05
0.00189514
0.000111284
0.00171019
0.000125097
0.00149714
0.000136761
0.00125924
0.000146071
0.00100037
0.000152866
0.00072477
0.000157029
0.000436907
0.000141188
0.000158477
1.97503e-05
0.00232379
7.04067e-08
3.97266e-05
0.00224454
5.91946e-05
0.00215227
7.77244e-05
0.00203084
9.4957e-05
0.00187792
0.000110577
0.00169457
0.000124303
0.00148342
0.000135894
0.00124765
0.000145146
0.000991124
0.000151898
0.000718024
0.000156035
0.00043278
0.000139763
0.000157474
1.96234e-05
0.00230409
7.16708e-08
3.94726e-05
0.00222469
5.88171e-05
0.00213293
7.72294e-05
0.00201243
9.43531e-05
0.00186079
0.000109875
0.00167905
0.000123514
0.00146978
0.000135032
0.00123613
0.000144226
0.000981929
0.000150937
0.000711312
0.000155048
0.000428667
0.000138322
0.000156478
1.94973e-05
0.00228452
7.30446e-08
3.92203e-05
0.00220496
5.8442e-05
0.00211371
7.67377e-05
0.00199414
9.37531e-05
0.00184378
0.000109177
0.00166363
0.000122731
0.00145623
0.000134176
0.00122469
0.000143313
0.000972799
0.000149981
0.00070465
0.000154067
0.000424591
0.000136912
0.000155488
1.93721e-05
0.00226507
7.44972e-08
3.89697e-05
0.00218537
5.80693e-05
0.00209461
7.62491e-05
0.00197596
9.3157e-05
0.00182687
0.000108483
0.0016483
0.000121952
0.00144276
0.000133326
0.00121332
0.000142405
0.000963719
0.000149032
0.000698022
0.000153092
0.00042053
0.000135484
0.000154504
1.92477e-05
0.00224575
7.60001e-08
3.87206e-05
0.0021659
5.7699e-05
0.00207563
7.57637e-05
0.00195789
9.25646e-05
0.00181007
0.000107794
0.00163308
0.000121178
0.00142938
0.000132481
0.00120202
0.000141503
0.000954704
0.000148089
0.000691444
0.000152124
0.000416506
0.000134088
0.000153527
1.91241e-05
0.00222655
7.7528e-08
3.84732e-05
0.00214655
5.73311e-05
0.00205677
7.52813e-05
0.00193994
9.19761e-05
0.00179338
0.00010711
0.00161794
0.00012041
0.00141608
0.000131641
0.00119079
0.000140607
0.000945738
0.000147152
0.000684898
0.000151161
0.000412495
0.000132673
0.000152556
1.90014e-05
0.00220747
7.90631e-08
3.82274e-05
0.00212732
5.69656e-05
0.00203804
7.48021e-05
0.00192211
9.13913e-05
0.00177679
0.00010643
0.00160291
0.000119646
0.00140287
0.000130807
0.00117964
0.000139717
0.000936835
0.00014622
0.000678402
0.000150205
0.000408521
0.00013129
0.000151591
1.88794e-05
0.00218851
8.05925e-08
3.79833e-05
0.00210822
5.66024e-05
0.00201942
7.43259e-05
0.00190439
9.08103e-05
0.00176031
0.000105754
0.00158797
0.000118887
0.00138974
0.000129978
0.00116855
0.000138832
0.000927981
0.000145295
0.000671937
0.000149255
0.000404558
0.000129888
0.000150632
1.87582e-05
0.00216968
8.21101e-08
3.77406e-05
0.00208924
5.62416e-05
0.00200092
7.38528e-05
0.00188678
9.0233e-05
0.00174393
0.000105082
0.00157312
0.000118133
0.00137669
0.000129154
0.00115753
0.000137953
0.00091919
0.000144376
0.000665522
0.000148311
0.000400632
0.00012852
0.00014968
1.86378e-05
0.00215095
8.36111e-08
3.74996e-05
0.00207037
5.58831e-05
0.00198253
7.33827e-05
0.00186928
8.96594e-05
0.00172766
0.000104415
0.00155837
0.000117383
0.00136373
0.000128336
0.00114658
0.00013708
0.000910446
0.000143463
0.000659137
0.000147373
0.000396717
0.000127134
0.000148733
1.85182e-05
0.00213235
8.50934e-08
3.72601e-05
0.00205163
5.55269e-05
0.00196427
7.29156e-05
0.00185189
8.90894e-05
0.00171149
0.000103752
0.00154371
0.000116639
0.00135085
0.000127523
0.0011357
0.000136213
0.000901764
0.000142556
0.000652801
0.000146442
0.000392839
0.000125782
0.000147792
1.83994e-05
0.00211387
8.65517e-08
3.70222e-05
0.00203301
5.51729e-05
0.00194612
7.24515e-05
0.00183462
8.85231e-05
0.00169541
0.000103093
0.00152914
0.000115899
0.00133804
0.000126715
0.00112489
0.000135351
0.000893129
0.000141654
0.000646495
0.000145516
0.00038897
0.000124413
0.000146858
1.82812e-05
0.0020955
8.79803e-08
3.67857e-05
0.00201451
5.48213e-05
0.00192809
7.19904e-05
0.00181745
8.79604e-05
0.00167945
0.000102439
0.00151467
0.000115164
0.00132532
0.000125913
0.00111415
0.000134494
0.000884556
0.000140758
0.000640238
0.000144596
0.00038514
0.00012308
0.000145929
1.81639e-05
0.00207725
8.93695e-08
3.65508e-05
0.00199612
5.44718e-05
0.00191016
7.15322e-05
0.00180039
8.74014e-05
0.00166358
0.000101789
0.00150028
0.000114434
0.00131268
0.000125115
0.00110347
0.000133643
0.000876028
0.000139869
0.000634009
0.000143682
0.000381318
0.000121727
0.000145007
1.80472e-05
0.00205911
9.07094e-08
3.63174e-05
0.00197785
5.41246e-05
0.00189236
7.1077e-05
0.00178344
8.68459e-05
0.00164782
0.000101142
0.00148599
0.000113709
0.00130012
0.000124323
0.00109286
0.000132798
0.000867561
0.000138984
0.000627829
0.000142774
0.000377534
0.000120412
0.000144091
1.79313e-05
0.00204109
9.19882e-08
3.60854e-05
0.0019597
5.37797e-05
0.00187467
7.06246e-05
0.0017666
8.62939e-05
0.00163215
0.000100501
0.00147179
0.000112988
0.00128763
0.000123536
0.00108231
0.000131958
0.000859139
0.000138106
0.000621677
0.000141872
0.000373759
0.000119076
0.00014318
1.78162e-05
0.00202318
9.31968e-08
3.58549e-05
0.00194166
5.34369e-05
0.00185709
7.01752e-05
0.00174986
8.57455e-05
0.00161658
9.98627e-05
0.00145767
0.000112272
0.00127523
0.000122754
0.00107184
0.000131123
0.000850777
0.000137233
0.000615574
0.000140976
0.000370022
0.000117779
0.000142276
1.77017e-05
0.00200538
9.43271e-08
3.56259e-05
0.00192374
5.30963e-05
0.00183961
6.97286e-05
0.00173323
8.52006e-05
0.00160111
9.9229e-05
0.00144365
0.00011156
0.0012629
0.000121977
0.00106142
0.000130294
0.000842459
0.000136366
0.000609497
0.000140086
0.000366292
0.000116459
0.000141377
1.75879e-05
0.0019877
9.5376e-08
3.53983e-05
0.00190593
5.27578e-05
0.00182226
6.92849e-05
0.00171671
8.46592e-05
0.00158574
9.85994e-05
0.00142971
0.000110853
0.00125065
0.000121205
0.00105108
0.00012947
0.000834201
0.000135505
0.000603469
0.000139201
0.000362601
0.000115179
0.000140484
1.74749e-05
0.00197013
9.63421e-08
3.51722e-05
0.00188823
5.24215e-05
0.00180501
6.8844e-05
0.00170028
8.41213e-05
0.00157046
9.79738e-05
0.00141586
0.000110151
0.00123848
0.000120438
0.00104079
0.000128652
0.000825986
0.000134649
0.000597466
0.000138322
0.000358916
0.000113874
0.000139597
1.73625e-05
0.00195267
9.72289e-08
3.49474e-05
0.00187065
5.20874e-05
0.00178787
6.84059e-05
0.00168397
8.35869e-05
0.00155529
9.73522e-05
0.0014021
0.000109453
0.00122638
0.000119676
0.00103058
0.000127838
0.000817831
0.000133799
0.000591513
0.000137449
0.00035527
0.000112611
0.000138716
1.72508e-05
0.00193532
9.80398e-08
3.47241e-05
0.00185317
5.17554e-05
0.00177084
6.79706e-05
0.00166775
8.30558e-05
0.0015402
9.67347e-05
0.00138843
0.00010876
0.00121436
0.000118918
0.00102042
0.000127031
0.000809717
0.000132954
0.000585584
0.000136582
0.000351629
0.000111321
0.000137841
1.71398e-05
0.00191809
9.87813e-08
3.45022e-05
0.00183581
5.14254e-05
0.00175392
6.75382e-05
0.00165165
8.25282e-05
0.00152522
9.61212e-05
0.00137484
0.000108071
0.00120242
0.000118166
0.00101033
0.000126228
0.000801663
0.000132115
0.000579703
0.00013572
0.000348029
0.000110074
0.000136972
1.70295e-05
0.00190096
9.94571e-08
3.42816e-05
0.00181856
5.10976e-05
0.0017371
6.71084e-05
0.00163564
8.2004e-05
0.00151033
9.55116e-05
0.00136133
0.000107387
0.00119054
0.000117419
0.0010003
0.000125431
0.000793649
0.000131281
0.000573847
0.000134864
0.000344432
0.000108798
0.000136108
1.69199e-05
0.00188394
1.00073e-07
3.40625e-05
0.00180142
5.07719e-05
0.0017204
6.66815e-05
0.00161973
8.14832e-05
0.00149553
9.49059e-05
0.00134792
0.000106707
0.00117875
0.000116677
0.000990338
0.000124638
0.000785694
0.000130453
0.000568039
0.000134014
0.000340876
0.000107567
0.00013525
1.68109e-05
0.00186703
1.00632e-07
3.38447e-05
0.00178438
5.04482e-05
0.00170379
6.62573e-05
0.00160392
8.09657e-05
0.00148082
9.43042e-05
0.00133458
0.000106031
0.00116703
0.000115939
0.000980431
0.000123851
0.00077778
0.00012963
0.000562254
0.000133169
0.000337322
0.000106305
0.000134398
1.67026e-05
0.00185023
1.01138e-07
3.36283e-05
0.00176746
5.01266e-05
0.0016873
6.58358e-05
0.00158822
8.04516e-05
0.00146621
9.37064e-05
0.00132133
0.00010536
0.00115538
0.000115206
0.000970591
0.000123069
0.000769923
0.000128812
0.000556517
0.00013233
0.000333809
0.00010509
0.000133551
1.6595e-05
0.00183353
1.01597e-07
3.34132e-05
0.00175064
4.9807e-05
0.0016709
6.5417e-05
0.00157261
7.99408e-05
0.00145169
9.31125e-05
0.00130816
0.000104693
0.0011438
0.000114478
0.000960806
0.000122293
0.000762106
0.000128
0.000550803
0.000131496
0.000330299
0.000103841
0.00013271
1.6488e-05
0.00181694
1.02017e-07
3.31995e-05
0.00173393
4.94895e-05
0.00165462
6.50009e-05
0.0015571
7.94332e-05
0.00143726
9.25224e-05
0.00129508
0.000104031
0.0011323
0.000113755
0.000951089
0.000121521
0.000754346
0.000127193
0.000545137
0.000130668
0.000326829
0.000102642
0.000131875
1.63817e-05
0.00180046
1.02409e-07
3.29871e-05
0.00171733
4.9174e-05
0.00163843
6.45875e-05
0.00154169
7.8929e-05
0.00142292
9.19362e-05
0.00128207
0.000103373
0.00112086
0.000113036
0.000941425
0.000120754
0.000746625
0.000126391
0.000539492
0.000129845
0.000323361
0.000101407
0.000131045
1.62761e-05
0.00178408
1.02791e-07
3.27761e-05
0.00170083
4.88605e-05
0.00162235
6.41767e-05
0.00152638
7.84281e-05
0.00140868
9.13537e-05
0.00126915
0.000102719
0.0011095
0.000112322
0.000931828
0.000119993
0.000738961
0.000125595
0.000533895
0.000129027
0.000319934
0.000100222
0.00013022
1.61711e-05
0.00176781
1.0318e-07
3.25664e-05
0.00168443
4.85491e-05
0.00160637
6.37686e-05
0.00151116
7.79304e-05
0.00139451
9.07751e-05
0.00125631
0.000102069
0.00109821
0.000111613
0.000922283
0.000119236
0.000731335
0.000124804
0.00052832
0.000128215
0.000316506
9.90013e-05
0.000129401
1.60668e-05
0.00175164
1.03599e-07
3.2358e-05
0.00166814
4.82396e-05
0.00159049
6.33631e-05
0.00149604
7.7436e-05
0.00138045
9.02003e-05
0.00124355
0.000101424
0.00108699
0.000110909
0.000912805
0.000118484
0.000723764
0.000124018
0.000522792
0.000127409
0.000313122
9.78318e-05
0.000128587
1.59632e-05
0.00173557
1.04071e-07
3.2151e-05
0.00165196
4.79321e-05
0.00157471
6.29603e-05
0.00148101
7.69448e-05
0.00136646
8.96292e-05
0.00123087
0.000100783
0.00107584
0.000110209
0.000903378
0.000117738
0.000716232
0.000123238
0.000517284
0.000126607
0.000309736
9.66245e-05
0.000127779
1.58602e-05
0.00171961
1.04618e-07
3.19453e-05
0.00163587
4.76266e-05
0.00155903
6.25601e-05
0.00146608
7.64568e-05
0.00135257
8.90619e-05
0.00121827
0.000100146
0.00106476
0.000109514
0.000894017
0.000116996
0.000708755
0.000122462
0.000511824
0.000125811
0.000306392
9.54696e-05
0.000126976
1.57579e-05
0.00170375
1.05256e-07
3.17409e-05
0.00161989
4.73231e-05
0.00154345
6.21625e-05
0.00145124
7.59719e-05
0.00133876
8.84983e-05
0.00120574
9.95136e-05
0.00105374
0.000108823
0.000884706
0.000116259
0.000701315
0.000121692
0.000506383
0.00012502
0.000303047
9.42757e-05
0.000126179
1.56562e-05
0.00168799
1.05999e-07
3.15378e-05
0.00160401
4.70216e-05
0.00152797
6.17675e-05
0.0014365
7.54903e-05
0.00132504
8.79384e-05
0.0011933
9.88852e-05
0.0010428
0.000108137
0.00087546
0.000115527
0.000693929
0.000120926
0.000500991
0.000124235
0.000299744
9.31358e-05
0.000125387
1.55551e-05
0.00167233
1.06853e-07
3.13361e-05
0.00158823
4.6722e-05
0.00151258
6.1375e-05
0.00142185
7.50118e-05
0.00131141
8.73821e-05
0.00118093