/*--------------------------------*- C++ -*----------------------------------*\
  =========                 |
  \\      /  F ield         | OpenFOAM: The Open Source CFD Toolbox
   \\    /   O peration     | Website:  https://openfoam.org
    \\  /    A nd           | Version:  6.0
     \\/     M anipulation  |
\*---------------------------------------------------------------------------*/
FoamFile
{
    version     2.0;
    format      ascii;
    class       volVectorField;
    location    "3.6";
    object      U;
}
// * * * * * * * * * * * * * * * * * * * * * * * * * * * * * * * * * * * * * //

dimensions      [0 1 -1 0 0 0 0];

internalField   nonuniform List<vector> 
24000
(
(0.999994 5.24549e-06 -7.96192e-17)
(0.999946 -1.49088e-05 1.08435e-16)
(0.999858 -6.37334e-05 -1.90686e-16)
(0.999753 -0.000150073 2.10436e-16)
(0.999664 -0.000266071 -1.03825e-15)
(0.999612 -0.000392457 -6.15497e-16)
(0.999616 -0.000500648 6.30121e-16)
(0.999669 -0.000569701 -1.39608e-15)
(0.999765 -0.000567066 4.3825e-16)
(0.999872 -0.00050507 -3.22269e-16)
(0.999981 -0.000226866 -3.11871e-16)
(1.00096 0.000947058 -4.63117e-16)
(0.999987 1.28045e-05 1.16718e-16)
(0.999898 -3.70191e-05 -1.60455e-16)
(0.999739 -0.000137834 3.56319e-16)
(0.99955 -0.000303816 -8.89898e-17)
(0.999394 -0.000522046 4.62109e-16)
(0.999311 -0.000753576 6.22487e-16)
(0.99933 -0.000945666 -3.50548e-16)
(0.999439 -0.00106134 1.48319e-15)
(0.999622 -0.00104172 -3.11197e-16)
(0.999832 -0.00091793 1.59664e-17)
(0.99997 -0.000422875 8.14732e-17)
(1.00188 0.0013365 1.5416e-16)
(0.999985 1.77018e-05 -8.8901e-17)
(0.999906 -5.11906e-05 2.16201e-16)
(0.999763 -0.00016505 -1.23499e-16)
(0.999594 -0.00033623 4.51675e-16)
(0.999456 -0.000555404 2.51686e-16)
(0.999385 -0.000782893 2.3152e-16)
(0.999412 -0.000966826 5.18532e-16)
(0.999524 -0.00107587 -6.59366e-16)
(0.999704 -0.00105324 -3.67979e-16)
(0.999923 -0.000943918 -1.2992e-16)
(0.999973 -0.000505146 -2.90679e-17)
(1.00197 0.000772711 4.8784e-16)
(0.999983 1.99516e-05 -3.79602e-17)
(0.999918 -6.72004e-05 -2.04557e-16)
(0.9998 -0.000189963 -3.15917e-16)
(0.999662 -0.000358411 -2.23922e-16)
(0.99955 -0.000567912 -1.31158e-16)
(0.999493 -0.000781728 -9.06194e-16)
(0.999522 -0.000953067 -1.43562e-15)
(0.999628 -0.00105732 1.64028e-16)
(0.999793 -0.00104222 4.69714e-17)
(1.00002 -0.00095314 6.45723e-16)
(0.999995 -0.000588963 -4.1229e-16)
(1.00181 0.000371363 -5.70817e-16)
(0.999979 2.02825e-05 6.76264e-17)
(0.999918 -8.66228e-05 3.30233e-17)
(0.999809 -0.000224675 1.601e-16)
(0.999686 -0.000402266 -7.569e-17)
(0.999588 -0.000616807 2.07989e-16)
(0.999541 -0.000831405 1.87238e-16)
(0.999575 -0.00100214 1.45231e-15)
(0.999684 -0.0011061 -9.48934e-17)
(0.999851 -0.00109177 -2.79936e-16)
(1.0001 -0.00099636 7.60866e-17)
(1.00005 -0.000649686 2.84535e-16)
(1.00167 0.000258076 -1.5119e-16)
(0.999973 1.93173e-05 3.91342e-18)
(0.999913 -0.000107058 -1.90005e-17)
(0.999809 -0.000262205 -2.13682e-17)
(0.999695 -0.000452502 -3.86943e-18)
(0.99961 -0.000674875 -8.63169e-16)
(0.999576 -0.000890153 1.05635e-15)
(0.999622 -0.00105688 2.9313e-17)
(0.999742 -0.00115256 1.46274e-16)
(0.999917 -0.00112652 6.91891e-16)
(1.00019 -0.00101047 -3.40585e-16)
(1.00015 -0.000660683 5.16341e-16)
(1.00158 0.000228591 3.46383e-16)
(0.999967 1.73448e-05 -3.54155e-18)
(0.999909 -0.000127331 2.04904e-16)
(0.99981 -0.000298528 -2.07836e-16)
(0.999708 -0.000500367 -1.01353e-16)
(0.999639 -0.000728124 4.43585e-16)
(0.999621 -0.000940094 -2.18215e-16)
(0.99968 -0.00109816 -6.0437e-16)
(0.999812 -0.00118135 -3.13554e-16)
(0.999993 -0.00114136 1.2221e-16)
(1.00028 -0.00101018 6.02376e-16)
(1.00026 -0.000669778 -1.21889e-15)
(1.00153 0.000149133 3.17668e-16)
(0.99996 1.45213e-05 -5.23098e-17)
(0.999905 -0.00014757 7.93252e-17)
(0.999812 -0.000334477 2.3949e-16)
(0.99972 -0.000548419 4.53441e-16)
(0.999663 -0.000782793 2.41407e-16)
(0.99966 -0.000993756 -2.67881e-16)
(0.99973 -0.00114685 -2.91276e-16)
(0.999872 -0.00122308 -1.39622e-16)
(1.00006 -0.00117664 4.82402e-17)
(1.00037 -0.00104094 -1.30463e-16)
(1.00038 -0.000721729 1.04362e-15)
(1.00151 7.46572e-06 -5.49323e-16)
(0.999952 1.10101e-05 2.05959e-17)
(0.9999 -0.000167896 -1.94801e-16)
(0.999811 -0.000370749 1.46161e-17)
(0.999726 -0.000598329 -7.23619e-17)
(0.999679 -0.000842132 7.30255e-17)
(0.999687 -0.00105658 -6.11508e-17)
(0.999766 -0.0012106 5.1237e-17)
(0.999918 -0.00128675 5.59111e-16)
(1.00011 -0.0012408 -6.92831e-17)
(1.00044 -0.00110427 -7.90384e-16)
(1.00049 -0.000804176 -8.80443e-16)
(1.00151 -0.000142799 9.77374e-16)
(0.999943 6.93364e-06 7.31985e-17)
(0.999893 -0.000188198 4.86944e-18)
(0.999809 -0.00040672 1.84536e-16)
(0.999731 -0.000648103 -4.83875e-16)
(0.999693 -0.000901842 -1.15489e-16)
(0.999711 -0.00112096 5.22691e-16)
(0.999799 -0.00127739 -4.43988e-16)
(0.999959 -0.00135486 -6.69597e-16)
(1.00016 -0.00131025 2.05083e-16)
(1.0005 -0.00116939 2.05646e-16)
(1.0006 -0.000879234 6.54695e-16)
(1.00155 -0.000257208 -1.38225e-16)
(0.999934 2.3667e-06 -1.00398e-16)
(0.999887 -0.000208404 -2.3119e-17)
(0.999809 -0.000441779 -2.1993e-16)
(0.999738 -0.000695763 3.65996e-17)
(0.999709 -0.000957778 1.67326e-16)
(0.999738 -0.00117976 -3.60725e-16)
(0.999837 -0.00133617 2.71003e-16)
(1.00001 -0.00141195 7.54484e-16)
(1.00022 -0.00136544 -5.62558e-16)
(1.00058 -0.00121536 2.24412e-16)
(1.00071 -0.000928183 -8.48135e-16)
(1.00162 -0.000333344 -9.05816e-16)
(0.999924 -2.6673e-06 6.518e-18)
(0.99988 -0.000228624 1.92036e-16)
(0.99981 -0.000476029 -1.92623e-16)
(0.999748 -0.000741198 1.4899e-16)
(0.99973 -0.0010097 -4.5788e-16)
(0.999771 -0.00123268 -2.04017e-16)
(0.999881 -0.00138654 6.64283e-17)
(1.00006 -0.00145747 -3.0301e-16)
(1.00028 -0.00140593 -3.94447e-16)
(1.00065 -0.00124449 3.63181e-16)
(1.00083 -0.000958443 2.85905e-16)
(1.00169 -0.00039303 1.00802e-17)
(0.999913 -8.1474e-06 2.45244e-17)
(0.999873 -0.000249004 -1.91917e-17)
(0.999811 -0.0005099 5.30755e-16)
(0.999759 -0.00078527 1.53131e-16)
(0.999752 -0.0010594 2.61731e-16)
(0.999806 -0.00128307 -2.92565e-16)
(0.999927 -0.00143384 -1.47953e-16)
(1.00012 -0.00149905 1.20639e-16)
(1.00035 -0.00144168 4.65878e-16)
(1.00073 -0.00126984 -1.22019e-15)
(1.00094 -0.000985924 -4.87044e-16)
(1.00177 -0.000454667 5.43156e-16)
(0.999901 -1.40569e-05 -7.57423e-17)
(0.999865 -0.000269656 -6.74239e-17)
(0.999812 -0.000543743 -4.19466e-16)
(0.99977 -0.000828634 -3.31501e-16)
(0.999774 -0.00110815 -2.32337e-16)
(0.999839 -0.00133328 3.65199e-16)
(0.999972 -0.00148213 2.51135e-16)
(1.00018 -0.00154276 -2.76665e-16)
(1.00042 -0.00148065 -3.71271e-16)
(1.00081 -0.00130069 -1.3301e-16)
(1.00105 -0.0010198 6.91666e-16)
(1.00185 -0.000522672 -4.82668e-16)
(0.999889 -2.03596e-05 4.07703e-17)
(0.999855 -0.00029061 3.22316e-17)
(0.999812 -0.000577707 4.95494e-17)
(0.99978 -0.00087152 7.90684e-17)
(0.999795 -0.00115621 8.22154e-17)
(0.999871 -0.00138359 -1.4833e-16)
(1.00002 -0.00153201 7.77609e-18)
(1.00023 -0.00158975 -3.83209e-16)
(1.00049 -0.00152453 3.62829e-16)
(1.00089 -0.00133838 1.3832e-15)
(1.00116 -0.00106017 -2.05682e-16)
(1.00193 -0.000592953 6.72238e-16)
(0.999876 -2.70134e-05 -3.93664e-17)
(0.999845 -0.000311856 1.48657e-18)
(0.99981 -0.00061186 1.47871e-16)
(0.999789 -0.000914045 2.09131e-16)
(0.999816 -0.00120349 2.3135e-16)
(0.999903 -0.00143333 -1.5032e-16)
(1.00006 -0.00158221 -2.42064e-16)
(1.00029 -0.00163824 5.9197e-16)
(1.00055 -0.00157109 1.43354e-16)
(1.00096 -0.00137986 -1.49085e-15)
(1.00126 -0.00110329 2.35763e-16)
(1.00201 -0.000661432 2.22886e-17)
(0.999862 -3.39505e-05 9.00724e-17)
(0.999832 -0.000333336 3.30957e-17)
(0.999805 -0.000646234 -3.19615e-16)
(0.999796 -0.000956463 1.37953e-16)
(0.999835 -0.00125024 -5.61548e-17)
(0.999934 -0.00148233 3.67572e-16)
(1.0001 -0.00163189 6.25828e-16)
(1.00034 -0.0016867 1.05379e-16)
(1.00062 -0.0016182 5.11001e-16)
(1.00104 -0.00142261 1.23946e-15)
(1.00136 -0.00114688 1.43442e-15)
(1.0021 -0.000727382 -5.36418e-16)
(0.999847 -4.1092e-05 3.46198e-17)
(0.999819 -0.000354965 -2.74494e-17)
(0.999799 -0.000680833 3.04002e-16)
(0.999802 -0.000999124 -2.77335e-16)
(0.999853 -0.00129714 3.92597e-16)
(0.999964 -0.00153128 4.03449e-18)
(1.00014 -0.0016815 -4.06855e-16)
(1.0004 -0.00173525 1.28293e-16)
(1.00068 -0.00166571 -4.42451e-16)
(1.00112 -0.00146645 -2.16591e-16)
(1.00146 -0.00119127 -5.75344e-16)
(1.00218 -0.000792555 -1.06498e-16)
(0.999831 -4.83348e-05 -4.15179e-17)
(0.999803 -0.000376612 -2.31136e-16)
(0.999791 -0.000715569 -1.26528e-16)
(0.999804 -0.00104228 1.55316e-16)
(0.999868 -0.0013449 -2.82105e-17)
(0.999992 -0.00158128 -2.62165e-16)
(1.00018 -0.00173232 -5.46794e-17)
(1.00045 -0.00178521 -3.37849e-17)
(1.00075 -0.00171488 -5.31125e-16)
(1.00119 -0.00151262 -3.89687e-16)
(1.00156 -0.0012377 -1.72509e-15)
(1.00227 -0.000857996 1.02487e-15)
(0.999815 -5.55726e-05 -3.95587e-17)
(0.999787 -0.000398132 2.40629e-16)
(0.99978 -0.000750264 -1.71791e-16)
(0.999804 -0.00108594 7.66868e-17)
(0.999881 -0.00139385 -1.8828e-16)
(1.00002 -0.00163306 -4.2658e-16)
(1.00022 -0.00178531 5.41197e-17)
(1.0005 -0.00183764 -6.91048e-17)
(1.00081 -0.00176671 2.8752e-16)
(1.00127 -0.00156184 4.46966e-16)
(1.00166 -0.00128651 1.54383e-15)
(1.00236 -0.000923265 -9.91137e-16)
(0.999798 -6.26881e-05 2.84539e-17)
(0.999769 -0.000419372 -1.1203e-17)
(0.999769 -0.000784664 2.72434e-17)
(0.999802 -0.00112981 -6.36019e-17)
(0.99989 -0.00144382 -2.36585e-16)
(1.00004 -0.0016866 -9.46803e-18)
(1.00026 -0.00184056 -1.25526e-16)
(1.00055 -0.00189262 -6.706e-16)
(1.00088 -0.00182106 4.04116e-16)
(1.00134 -0.00161356 2.18906e-16)
(1.00176 -0.0013367 6.53271e-17)
(1.00245 -0.000986832 2.22843e-16)
(0.99978 -6.95734e-05 3.25463e-17)
(0.99975 -0.000440207 -2.63995e-16)
(0.999756 -0.000818534 5.16997e-16)
(0.999798 -0.0011735 4.92065e-17)
(0.999898 -0.00149425 1.4351e-16)
(1.00006 -0.00174125 8.70119e-16)
(1.00029 -0.00189736 7.15687e-16)
(1.0006 -0.00194929 3.62266e-16)
(1.00094 -0.00187689 -9.60086e-16)
(1.00142 -0.00166648 -2.80052e-16)
(1.00185 -0.00138701 9.26797e-17)
(1.00254 -0.00104795 -3.32768e-17)
(0.999762 -7.61211e-05 -6.09925e-17)
(0.999731 -0.000460544 1.05165e-16)
(0.999743 -0.000851701 -6.97104e-17)
(0.999793 -0.00121664 -8.85438e-17)
(0.999905 -0.00154455 -2.55314e-16)
(1.00008 -0.00179626 -5.05244e-16)
(1.00033 -0.0019548 -2.74653e-16)
(1.00065 -0.00200664 -2.17858e-17)
(1.00101 -0.00193311 2.78248e-16)
(1.0015 -0.00171958 -2.65417e-16)
(1.00195 -0.0014368 -1.56654e-15)
(1.00264 -0.00110684 7.94729e-16)
(0.999743 -8.22409e-05 4.45327e-17)
(0.999712 -0.000480338 6.34595e-18)
(0.999729 -0.000884113 -1.89702e-16)
(0.999789 -0.00125904 -1.45115e-16)
(0.999912 -0.00159434 -8.05407e-17)
(1.0001 -0.00185107 -1.1907e-16)
(1.00036 -0.00201227 -2.1724e-16)
(1.0007 -0.00206407 -2.31801e-16)
(1.00108 -0.00198927 -6.75877e-17)
(1.00158 -0.00177266 -2.46266e-16)
(1.00204 -0.00148641 9.29833e-17)
(1.00273 -0.0011646 -1.58141e-16)
(0.999723 -8.78482e-05 1.52646e-17)
(0.999691 -0.000499568 1.49429e-16)
(0.999716 -0.000915803 4.09103e-17)
(0.999784 -0.0013007 -1.57136e-17)
(0.999919 -0.00164355 9.89076e-17)
(1.00012 -0.00190555 2.78002e-16)
(1.0004 -0.00206963 1.07027e-16)
(1.00075 -0.00212159 2.67737e-16)
(1.00114 -0.00204559 3.13923e-16)
(1.00165 -0.0018262 -3.06443e-16)
(1.00214 -0.00153667 1.00617e-15)
(1.00283 -0.00122212 -6.24044e-16)
(0.999702 -9.28774e-05 -2.06991e-17)
(0.999671 -0.000518244 -1.95508e-17)
(0.999701 -0.00094688 -1.47809e-16)
(0.999779 -0.0013418 -9.73018e-17)
(0.999926 -0.00169236 -3.48846e-17)
(1.00014 -0.00195988 -1.79054e-16)
(1.00044 -0.00212714 1.04229e-17)
(1.0008 -0.00217957 -3.11662e-16)
(1.00121 -0.00210261 -2.70838e-17)
(1.00173 -0.00188088 1.05311e-15)
(1.00224 -0.00158822 4.9694e-16)
(1.00292 -0.00127984 5.32394e-17)
(0.999679 -9.72696e-05 -9.84791e-18)
(0.999649 -0.000536373 -1.14699e-16)
(0.999687 -0.000977456 -5.05529e-17)
(0.999773 -0.00138254 -7.55454e-17)
(0.999933 -0.00174107 5.5785e-16)
(1.00016 -0.00201439 -1.2927e-16)
(1.00047 -0.00218516 1.53914e-16)
(1.00086 -0.00223844 -1.5995e-16)
(1.00128 -0.00216081 -2.55605e-16)
(1.00181 -0.00193708 -2.65558e-16)
(1.00233 -0.00164124 -1.96622e-17)
(1.00302 -0.00133773 -2.0179e-16)
(0.999656 -0.000100985 3.40995e-17)
(0.999627 -0.000553969 -4.0866e-17)
(0.999671 -0.00100763 1.71701e-16)
(0.999767 -0.00142312 3.46713e-16)
(0.999939 -0.00178997 -5.27484e-16)
(1.00018 -0.00206939 4.99357e-16)
(1.00051 -0.00224398 -2.76191e-16)
(1.00091 -0.00229845 -1.44247e-16)
(1.00134 -0.00222036 -1.94371e-16)
(1.00189 -0.00199475 -3.55572e-16)
(1.00243 -0.00169542 -1.50974e-16)
(1.00312 -0.00139527 -1.21085e-16)
(0.999631 -0.000103991 -5.82454e-18)
(0.999604 -0.000571033 -1.56725e-17)
(0.999654 -0.00103746 -1.57892e-17)
(0.99976 -0.00146368 -3.35619e-16)
(0.999944 -0.00183923 -1.44116e-16)
(1.0002 -0.00212509 -1.30595e-17)
(1.00054 -0.00230376 -3.90073e-16)
(1.00096 -0.00235964 7.19082e-16)
(1.00141 -0.00228114 -5.87615e-18)
(1.00197 -0.0020536 2.51196e-16)
(1.00252 -0.00175026 1.78074e-16)
(1.00321 -0.00145195 -5.45219e-18)
(0.999605 -0.000106272 -1.8897e-17)
(0.99958 -0.000587571 1.07918e-16)
(0.999637 -0.00106697 3.21451e-17)
(0.999751 -0.00150426 4.61288e-16)
(0.999948 -0.00188895 2.51786e-16)
(1.00022 -0.00218157 -4.22496e-16)
(1.00057 -0.00236451 1.91879e-16)
(1.00101 -0.00242192 -3.7886e-16)
(1.00148 -0.00234291 1.31209e-15)
(1.00206 -0.0021132 -1.02036e-16)
(1.00262 -0.00180529 2.24643e-17)
(1.00331 -0.00150742 -1.41173e-16)
(0.999578 -0.00010782 -1.97181e-17)
(0.999555 -0.000603583 7.53916e-17)
(0.999618 -0.00109614 -9.0585e-17)
(0.999742 -0.00154483 -4.47698e-16)
(0.999951 -0.00193905 4.63669e-16)
(1.00024 -0.00223874 2.71294e-16)
(1.00061 -0.00242613 3.43199e-16)
(1.00106 -0.00248509 1.53606e-16)
(1.00155 -0.00240539 -1.08988e-16)
(1.00214 -0.0021732 5.47487e-16)
(1.00272 -0.00186016 -9.93613e-16)
(1.00341 -0.00156178 1.12386e-15)
(0.999549 -0.000108639 2.74759e-17)
(0.999529 -0.000619086 -1.44293e-16)
(0.999599 -0.00112496 -8.42623e-17)
(0.999732 -0.00158531 -2.68485e-17)
(0.999953 -0.0019894 -1.77341e-16)
(1.00026 -0.00229646 -5.0378e-18)
(1.00064 -0.00248843 -2.82114e-16)
(1.00111 -0.00254893 -2.13578e-16)
(1.00161 -0.00246831 -1.20524e-15)
(1.00222 -0.00223335 -3.97958e-16)
(1.00281 -0.00191473 -2.56024e-16)
(1.00351 -0.00161508 -3.01276e-17)
(0.999519 -0.000108738 1.0537e-17)
(0.999503 -0.000634097 -1.18623e-17)
(0.999579 -0.00115345 -4.26336e-17)
(0.999721 -0.00162564 3.257e-16)
(0.999955 -0.00203986 -5.5309e-16)
(1.00027 -0.00235451 -4.10544e-16)
(1.00068 -0.00255119 3.52803e-16)
(1.00116 -0.00261324 -2.3356e-17)
(1.00168 -0.00253152 7.30248e-17)
(1.0023 -0.00229357 4.21784e-16)
(1.00291 -0.00196907 -1.68698e-16)
(1.00361 -0.00166772 3.04725e-16)
(0.999488 -0.000108137 -1.51785e-17)
(0.999475 -0.000648655 1.70139e-16)
(0.999558 -0.00118162 2.88661e-16)
(0.99971 -0.00166579 -9.61944e-17)
(0.999957 -0.0020903 4.35849e-17)
(1.00029 -0.00241273 1.82406e-16)
(1.00071 -0.00261427 -4.21204e-16)
(1.00121 -0.00267789 4.43613e-16)
(1.00175 -0.00259496 3.45019e-16)
(1.00238 -0.00235394 -2.84388e-16)
(1.00301 -0.00202341 3.22657e-18)
(1.00371 -0.0017201 -1.90878e-17)
(0.999455 -0.000106858 -4.29585e-18)
(0.999446 -0.000662802 -2.47167e-16)
(0.999536 -0.00120956 -4.85225e-17)
(0.999698 -0.00170581 5.7973e-17)
(0.999958 -0.00214071 6.52496e-16)
(1.00031 -0.00247107 5.21097e-17)
(1.00074 -0.00267761 3.91091e-16)
(1.00126 -0.00274291 -7.24574e-16)
(1.00182 -0.00265877 3.63999e-16)
(1.00247 -0.0024147 -4.37435e-16)
(1.0031 -0.00207814 9.39057e-16)
(1.00381 -0.00177267 -4.6746e-16)
(0.99942 -0.000104931 2.14732e-17)
(0.999416 -0.00067659 1.09583e-16)
(0.999513 -0.00123735 -1.16398e-16)
(0.999686 -0.00174581 4.79254e-17)
(0.999959 -0.00219121 -3.92507e-16)
(1.00032 -0.00252964 -1.38226e-16)
(1.00078 -0.00274133 2.26975e-17)
(1.00131 -0.00280847 5.19213e-16)
(1.00189 -0.00272321 3.13484e-16)
(1.00255 -0.00247622 -2.16528e-17)
(1.0032 -0.0021337 1.23734e-15)
(1.00392 -0.00182587 -6.11576e-16)
(0.999385 -0.000102384 1.44348e-18)
(0.999385 -0.000690064 1.19603e-16)
(0.99949 -0.00126512 1.1951e-16)
(0.999673 -0.00178598 -1.44091e-17)
(0.999959 -0.00224201 2.8705e-16)
(1.00034 -0.00258866 3.71275e-16)
(1.00081 -0.0028057 -1.13321e-16)
(1.00136 -0.00287487 5.21579e-16)
(1.00196 -0.00278863 -1.19723e-15)
(1.00264 -0.00253887 -1.32869e-16)
(1.0033 -0.00219045 -1.78124e-15)
(1.00402 -0.00187997 1.41118e-16)
(0.999347 -9.92564e-05 -6.22793e-17)
(0.999353 -0.000703269 7.44156e-17)
(0.999464 -0.00129295 -2.12694e-17)
(0.999658 -0.00182651 1.55179e-16)
(0.999959 -0.00229338 -2.13726e-16)
(1.00035 -0.00264845 -5.21014e-16)
(1.00084 -0.00287104 -4.00874e-17)
(1.00142 -0.00294245 -3.71773e-16)
(1.00203 -0.00285539 1.27532e-15)
(1.00272 -0.00260296 -4.29855e-17)
(1.0034 -0.00224863 3.8227e-16)
(1.00412 -0.00193508 7.05354e-16)
(0.999309 -9.55868e-05 1.54879e-17)
(0.999319 -0.000716234 -3.19043e-16)
(0.999437 -0.00132093 1.09977e-16)
(0.999642 -0.00186754 -5.10176e-16)
(0.999957 -0.00234556 2.55306e-16)
(1.00037 -0.00270932 8.45518e-16)
(1.00088 -0.00293769 -2.19284e-16)
(1.00147 -0.00301154 -5.19386e-16)
(1.00209 -0.00292374 -4.0586e-16)
(1.0028 -0.00266867 -8.02871e-17)
(1.0035 -0.00230831 3.96241e-16)
(1.00422 -0.00199088 -6.45028e-16)
(0.999269 -9.14227e-05 3.55192e-17)
(0.999283 -0.000728983 9.26922e-17)
(0.999409 -0.00134909 -3.33985e-16)
(0.999624 -0.0019092 4.62667e-16)
(0.999953 -0.00239876 -6.95777e-16)
(1.00038 -0.00277151 -6.95199e-16)
(1.00091 -0.00300588 2.65092e-16)
(1.00152 -0.00308231 9.32522e-16)
(1.00216 -0.0029938 -5.25466e-16)
(1.00289 -0.002736 2.11528e-16)
(1.00359 -0.00236939 -1.70994e-16)
(1.00432 -0.0020473 6.04224e-17)
(0.999228 -8.68151e-05 -6.05025e-18)
(0.999247 -0.000741528 2.00048e-16)
(0.999378 -0.00137743 2.66467e-16)
(0.999604 -0.0019515 -3.17242e-16)
(0.999948 -0.00245305 1.54372e-16)
(1.00039 -0.00283512 4.28251e-16)
(1.00094 -0.0030757 1.44049e-16)
(1.00156 -0.00315482 -9.66529e-17)
(1.00223 -0.00306554 7.36586e-16)
(1.00297 -0.0028048 3.74972e-16)
(1.00369 -0.00243164 7.05628e-17)
(1.00443 -0.00210399 6.37578e-17)
(0.999186 -8.18238e-05 1.36013e-17)
(0.999209 -0.000753885 -2.23165e-16)
(0.999347 -0.00140594 -5.89669e-17)
(0.999583 -0.00199442 1.24243e-16)
(0.999941 -0.0025084 7.51248e-16)
(1.0004 -0.00290013 -3.85426e-16)
(1.00097 -0.00314712 -3.28451e-16)
(1.00161 -0.00322897 -7.46611e-17)
(1.0023 -0.0031388 -7.28551e-16)
(1.00305 -0.00287486 4.23781e-16)
(1.00379 -0.00249483 -5.89975e-17)
(1.00453 -0.00216091 3.7927e-16)
(0.999143 -7.65114e-05 -1.07925e-17)
(0.99917 -0.000766068 1.39733e-16)
(0.999314 -0.00143457 -9.64298e-17)
(0.99956 -0.00203788 3.61915e-16)
(0.999933 -0.00256471 -7.0575e-16)
(1.00041 -0.00296643 4.95992e-16)
(1.00099 -0.00321999 -4.82651e-17)
(1.00166 -0.00330457 -5.04348e-17)
(1.00236 -0.00321335 7.5387e-16)
(1.00314 -0.00294594 -2.90751e-16)
(1.00389 -0.00255876 -2.38094e-16)
(1.00464 -0.00221767 -9.57984e-17)
(0.999099 -7.0948e-05 1.51906e-18)
(0.99913 -0.000778109 -2.60445e-17)
(0.99928 -0.00146331 1.17501e-16)
(0.999537 -0.00208178 -4.01431e-16)
(0.999923 -0.00262183 3.48444e-16)
(1.00042 -0.00303383 1.16615e-16)
(1.00102 -0.00329411 1.67999e-16)
(1.00171 -0.00338142 -8.77366e-16)
(1.00243 -0.00328901 -3.68219e-16)
(1.00322 -0.00301785 -1.32488e-15)
(1.00398 -0.00262335 -6.92973e-16)
(1.00474 -0.00227443 -7.12806e-16)
(0.999053 -6.52049e-05 -1.97211e-17)
(0.999088 -0.000790041 1.80537e-17)
(0.999245 -0.00149215 -2.20183e-16)
(0.999512 -0.00212607 1.44787e-17)
(0.999913 -0.00267964 -8.85216e-17)
(1.00043 -0.00310215 5.26561e-18)
(1.00105 -0.00336926 3.10355e-16)
(1.00175 -0.00345931 1.18616e-15)
(1.0025 -0.00336557 1.0315e-16)
(1.0033 -0.00309044 8.2689e-16)
(1.00408 -0.00268847 -1.21408e-16)
(1.00485 -0.00233095 1.29373e-15)
(0.999007 -5.93571e-05 1.89745e-17)
(0.999046 -0.000801922 1.09607e-17)
(0.999209 -0.0015211 2.9756e-16)
(0.999486 -0.0021707 -1.74064e-16)
(0.999902 -0.00273804 -2.03856e-16)
(1.00043 -0.00317126 -2.35506e-16)
(1.00107 -0.00344532 -1.42882e-16)
(1.0018 -0.00353811 -4.75596e-16)
(1.00256 -0.00344296 8.56239e-17)
(1.00339 -0.00316369 8.2158e-16)
(1.00418 -0.00275412 7.97943e-16)
(1.00496 -0.0023875 -1.14893e-15)
(0.99896 -5.34775e-05 -1.93717e-17)
(0.999003 -0.000813809 -2.39653e-16)
(0.999173 -0.00155022 -1.27602e-16)
(0.99946 -0.00221569 2.92364e-17)
(0.999891 -0.002797 5.11041e-16)
(1.00044 -0.0032411 -4.05325e-16)
(1.0011 -0.0035222 -3.61817e-16)
(1.00185 -0.00361775 -4.47389e-16)
(1.00263 -0.00352113 -5.36514e-16)
(1.00347 -0.00323756 -1.77517e-15)
(1.00428 -0.00282028 -5.93937e-16)
(1.00506 -0.00244401 5.82534e-16)
(0.998913 -4.76391e-05 9.69496e-18)
(0.998959 -0.000825776 2.00152e-16)
(0.999135 -0.00157958 6.03739e-17)
(0.999433 -0.00226111 3.72554e-16)
(0.999879 -0.00285656 -5.89847e-16)
(1.00045 -0.00331167 5.75107e-16)
(1.00113 -0.0035999 -6.85868e-18)
(1.00189 -0.00369826 1.05428e-15)
(1.0027 -0.00360013 3.80746e-16)
(1.00356 -0.00331213 2.31503e-15)
(1.00437 -0.002887 3.30276e-16)
(1.00517 -0.00250068 5.42901e-16)
(0.998864 -4.1911e-05 -1.97935e-17)
(0.998914 -0.00083789 4.29951e-17)
(0.999097 -0.00160925 9.36511e-17)
(0.999406 -0.00230702 -1.45699e-16)
(0.999866 -0.00291677 5.03986e-16)
(1.00045 -0.00338303 -6.06768e-16)
(1.00115 -0.00367848 5.5411e-16)
(1.00194 -0.00377965 -1.4227e-16)
(1.00276 -0.00367998 2.32289e-16)
(1.00364 -0.0033874 -1.68828e-15)
(1.00447 -0.0029541 1.00364e-15)
(1.00528 -0.00255739 -1.21163e-15)
(0.998815 -3.636e-05 2.12901e-17)
(0.998868 -0.000850225 -1.19021e-16)
(0.999058 -0.00163932 -1.73063e-16)
(0.999377 -0.00235351 -1.71128e-16)
(0.999853 -0.00297774 5.22032e-17)
(1.00046 -0.00345527 -1.59741e-16)
(1.00118 -0.00375799 -3.0182e-16)
(1.00199 -0.003862 -6.69933e-16)
(1.00283 -0.00376072 -2.40013e-16)
(1.00372 -0.00346342 3.94582e-16)
(1.00457 -0.0030216 -9.85899e-16)
(1.00539 -0.00261423 7.00509e-16)
(0.998765 -3.1047e-05 5.12985e-17)
(0.99882 -0.000862843 1.44734e-17)
(0.999018 -0.00166987 -4.60515e-17)
(0.999348 -0.00240068 1.2436e-16)
(0.999838 -0.00303953 -6.88211e-16)
(1.00046 -0.00352844 1.16522e-16)
(1.0012 -0.00383849 5.05031e-16)
(1.00203 -0.00394533 -2.82013e-16)
(1.0029 -0.00384236 9.47646e-17)
(1.00381 -0.00354015 -1.24216e-16)
(1.00467 -0.0030894 2.25042e-16)
(1.00549 -0.00267129 -5.27925e-16)
(0.998714 -2.60291e-05 -3.34871e-17)
(0.998772 -0.000875809 7.35599e-17)
(0.998976 -0.00170096 -1.34619e-16)
(0.999318 -0.00244858 -8.06629e-17)
(0.999823 -0.00310222 5.11978e-16)
(1.00046 -0.0036026 2.11799e-16)
(1.00123 -0.00392001 -2.23607e-16)
(1.00208 -0.00402965 4.58774e-16)
(1.00296 -0.00392491 1.51063e-16)
(1.00389 -0.0036176 2.98147e-16)
(1.00477 -0.00315757 -3.07307e-16)
(1.0056 -0.00272862 -1.10892e-17)
(0.998663 -2.13572e-05 -5.12833e-17)
(0.998723 -0.000889174 -2.66976e-17)
(0.998934 -0.00173265 1.38778e-16)
(0.999286 -0.00249726 1.22693e-16)
(0.999808 -0.00316583 1.59608e-16)
(1.00047 -0.00367778 4.31825e-16)
(1.00125 -0.00400257 -1.93827e-16)
(1.00212 -0.00411496 -8.64627e-17)
(1.00303 -0.00400833 -1.83276e-16)
(1.00398 -0.00369571 -6.70377e-18)
(1.00487 -0.00322603 6.64776e-18)
(1.00571 -0.00278637 3.86491e-16)
(0.998611 -1.7076e-05 8.62765e-17)
(0.998672 -0.00090299 -1.39922e-17)
(0.99889 -0.00176499 1.60412e-16)
(0.999254 -0.00254678 -7.32978e-17)
(0.999791 -0.0032304 -1.40525e-16)
(1.00047 -0.00375396 -5.68524e-16)
(1.00127 -0.00408613 -3.44362e-16)
(1.00217 -0.00420123 2.24272e-16)
(1.00309 -0.00409263 3.53287e-17)
(1.00406 -0.00377453 5.37251e-17)
(1.00497 -0.0032949 8.31672e-17)
(1.00582 -0.00284465 3.45468e-17)
(0.998558 -1.32207e-05 -8.60522e-17)
(0.99862 -0.000917299 1.31699e-16)
(0.998845 -0.00179803 -2.36164e-16)
(0.999221 -0.00259715 1.62546e-16)
(0.999773 -0.00329593 -3.77434e-18)
(1.00047 -0.00383117 3.85958e-16)
(1.00129 -0.00417071 3.36084e-16)
(1.00221 -0.00428848 -2.24492e-16)
(1.00316 -0.00417781 3.6938e-16)
(1.00414 -0.00385409 -2.3944e-16)
(1.00507 -0.00336428 7.15309e-16)
(1.00593 -0.00290376 7.23644e-16)
(0.998504 -9.81869e-06 6.59456e-17)
(0.998567 -0.000932147 -9.53342e-17)
(0.9988 -0.00183181 -4.00645e-17)
(0.999186 -0.00264843 1.20997e-16)
(0.999755 -0.00336246 -1.51907e-16)
(1.00047 -0.0039094 -2.36328e-16)
(1.00132 -0.00425633 3.61018e-16)
(1.00225 -0.00437674 -2.11486e-16)
(1.00322 -0.00426396 -4.49783e-16)
(1.00423 -0.0039345 2.41986e-16)
(1.00517 -0.00343444 -4.10579e-16)
(1.00604 -0.00296376 -5.66937e-16)
(0.99845 -6.88728e-06 2.74153e-17)
(0.998513 -0.000947568 -1.01386e-16)
(0.998752 -0.00186637 4.14403e-16)
(0.999151 -0.00270065 -2.02577e-16)
(0.999735 -0.00343003 8.2805e-17)
(1.00047 -0.00398872 -1.9213e-16)
(1.00134 -0.00434304 -4.7445e-16)
(1.0023 -0.00446608 4.12173e-16)
(1.00329 -0.00435113 4.75046e-16)
(1.00431 -0.00401585 -5.99697e-16)
(1.00527 -0.00350559 -2.34075e-16)
(1.00614 -0.00302471 -1.7776e-16)
(0.998395 -4.43405e-06 -7.85809e-17)
(0.998457 -0.000963596 3.06218e-17)
(0.998704 -0.00190176 -1.87571e-16)
(0.999114 -0.00275387 2.56707e-17)
(0.999715 -0.0034987 1.14283e-16)
(1.00047 -0.00406919 4.66785e-16)
(1.00136 -0.00443092 5.04958e-18)
(1.00234 -0.00455661 -2.43855e-17)
(1.00335 -0.00443947 -6.53201e-16)
(1.0044 -0.00409828 9.58926e-17)
(1.00537 -0.00357793 -1.35064e-16)
(1.00625 -0.00308662 7.24726e-17)
(0.998339 -2.45692e-06 -1.2688e-17)
(0.9984 -0.000980257 -2.33594e-17)
(0.998654 -0.00193801 -2.73726e-16)
(0.999076 -0.00280813 -5.00304e-17)
(0.999694 -0.00356853 -1.79871e-16)
(1.00047 -0.00415089 -1.30191e-16)
(1.00138 -0.00452008 -1.328e-16)
(1.00238 -0.00464844 1.63208e-16)
(1.00342 -0.00452906 1.83718e-16)
(1.00448 -0.00418188 3.14371e-16)
(1.00546 -0.00365153 4.43189e-16)
(1.00636 -0.00314927 -2.29227e-16)
(0.998282 -9.45387e-07 3.06837e-17)
(0.998342 -0.000997572 1.59499e-17)
(0.998603 -0.00197515 2.6134e-16)
(0.999037 -0.00286348 -5.25177e-17)
(0.999671 -0.00363958 -9.69168e-17)
(1.00047 -0.0042339 -1.49384e-16)
(1.0014 -0.0046106 4.43124e-16)
(1.00242 -0.00474166 -2.97234e-16)
(1.00348 -0.00462001 1.05028e-16)
(1.00456 -0.00426673 4.09464e-16)
(1.00556 -0.00372648 -2.60511e-16)
(1.00647 -0.00321273 -4.07861e-17)
(0.998224 1.16627e-07 -4.1953e-17)
(0.998282 -0.00101555 4.34126e-17)
(0.99855 -0.00201318 8.90701e-17)
(0.998996 -0.00291992 1.89816e-16)
(0.999647 -0.00371189 3.42135e-16)
(1.00046 -0.00431828 -2.54739e-16)
(1.00142 -0.00470255 -1.68995e-16)
(1.00247 -0.00483632 1.78231e-17)
(1.00355 -0.00471234 -3.11738e-16)
(1.00465 -0.00435279 -4.48764e-16)
(1.00567 -0.00380272 5.98002e-16)
(1.00658 -0.00327672 2.50644e-16)
(0.998165 7.50743e-07 6.75226e-17)
(0.998222 -0.00103419 8.25076e-17)
(0.998496 -0.00205211 -8.46082e-17)
(0.998954 -0.00297745 -1.72129e-16)
(0.999622 -0.00378547 4.47758e-17)
(1.00046 -0.00440405 4.17093e-16)
(1.00143 -0.00479596 -2.97818e-16)
(1.00251 -0.00493244 -1.0762e-17)
(1.00361 -0.00480605 3.97836e-16)
(1.00473 -0.00444005 -3.90025e-16)
(1.00577 -0.00388021 -5.07798e-16)
(1.00669 -0.00334133 -1.30098e-16)
(0.998105 9.80512e-07 8.35352e-18)
(0.99816 -0.0010535 8.44702e-18)
(0.998441 -0.0020919 -2.78385e-16)
(0.998911 -0.00303605 -2.27127e-16)
(0.999595 -0.00386028 -3.82254e-16)
(1.00045 -0.00449118 5.20775e-17)
(1.00145 -0.00489081 8.54173e-17)
(1.00255 -0.00502997 -5.9451e-17)
(1.00367 -0.00490109 -3.26824e-16)
(1.00481 -0.00452841 7.32532e-16)
(1.00587 -0.00395879 3.79465e-16)
(1.00681 -0.003406 -1.17062e-16)
(0.998044 8.32134e-07 -3.96624e-17)
(0.998096 -0.00107345 -7.73189e-17)
(0.998384 -0.00213253 3.71111e-16)
(0.998866 -0.00309568 3.38103e-16)
(0.999568 -0.00393629 -7.4352e-18)
(1.00044 -0.00457963 7.23808e-17)
(1.00147 -0.00498704 -1.12406e-16)
(1.00259 -0.00512885 8.2618e-17)
(1.00374 -0.00499739 3.47922e-16)
(1.0049 -0.00461783 -1.80874e-16)
(1.00597 -0.00403836 1.28883e-16)
(1.00692 -0.00347105 2.17431e-16)
(0.997982 3.30145e-07 -2.48166e-18)
(0.998032 -0.00109404 5.3496e-17)
(0.998327 -0.00217397 -1.62476e-16)
(0.998821 -0.00315626 -3.19548e-16)
(0.999539 -0.00401342 1.93573e-16)
(1.00043 -0.00466932 -4.4408e-16)
(1.00148 -0.00508455 1.31262e-16)
(1.00262 -0.00522898 -1.94996e-16)
(1.0038 -0.00509482 3.08396e-17)
(1.00498 -0.00470819 1.85518e-16)
(1.00607 -0.00411864 -1.59878e-16)
(1.00703 -0.00353618 -4.84586e-16)
(0.997918 -4.98773e-07 2.2927e-17)
(0.997966 -0.00111524 -1.48533e-16)
(0.998267 -0.00221619 1.6671e-16)
(0.998773 -0.00321776 2.80092e-16)
(0.999509 -0.00409159 -3.60332e-16)
(1.00042 -0.00476017 -3.05022e-17)
(1.00149 -0.00518326 2.19475e-16)
(1.00266 -0.00533028 -2.64963e-16)
(1.00386 -0.00519335 -3.21114e-16)
(1.00506 -0.00479947 9.08529e-17)
(1.00617 -0.00419963 -2.78563e-16)
(1.00714 -0.00360186 4.26779e-16)
(0.997852 -1.63e-06 1.50661e-17)
(0.997899 -0.00113704 7.82854e-17)
(0.998207 -0.00225915 -7.7352e-17)
(0.998725 -0.00328012 2.36028e-16)
(0.999478 -0.00417074 1.75113e-16)
(1.00041 -0.00485211 1.47516e-16)
(1.00151 -0.00528309 -2.4817e-16)
(1.0027 -0.00543269 3.78315e-16)
(1.00392 -0.0052929 -3.36596e-18)
(1.00515 -0.00489164 -7.20275e-16)
(1.00627 -0.00428118 1.37808e-16)
(1.00726 -0.00366811 -2.68592e-17)
(0.997785 -3.03555e-06 -2.40177e-17)
(0.99783 -0.00115942 8.08677e-17)
(0.998146 -0.00230283 -2.69469e-16)
(0.998676 -0.00334331 -1.97742e-16)
(0.999446 -0.00425084 4.02645e-17)
(1.0004 -0.00494509 1.55111e-16)
(1.00152 -0.00538402 2.5922e-16)
(1.00274 -0.00553618 3.5388e-17)
(1.00399 -0.0053935 2.80448e-17)
(1.00523 -0.00498478 4.7962e-16)
(1.00637 -0.00436339 1.4599e-16)
(1.00737 -0.00373533 -2.33029e-16)
(0.997716 -4.68963e-06 -1.89842e-17)
(0.997761 -0.00118236 -2.24396e-17)
(0.998083 -0.00234723 2.85615e-16)
(0.998625 -0.0034073 4.5636e-18)
(0.999413 -0.00433186 2.46222e-16)
(1.00039 -0.00503909 -2.322e-16)
(1.00153 -0.00548602 -1.52038e-16)
(1.00278 -0.00564074 -4.51797e-17)
(1.00405 -0.00549514 5.44775e-18)
(1.00532 -0.00507888 2.91356e-16)
(1.00648 -0.00444618 -4.54329e-16)
(1.00749 -0.00380352 -2.67983e-16)
(0.997645 -6.56128e-06 5.17691e-18)
(0.99769 -0.00120584 -7.88252e-17)
(0.998019 -0.00239232 -2.76278e-16)
(0.998574 -0.00347211 4.9268e-17)
(0.999379 -0.0044138 2.302e-17)
(1.00038 -0.00513413 2.9289e-18)
(1.00154 -0.00558911 -8.03331e-17)
(1.00281 -0.00574642 3.49379e-16)
(1.00411 -0.00559789 3.83175e-16)
(1.0054 -0.00517406 -2.54929e-16)
(1.00658 -0.00452977 6.88214e-16)