/*--------------------------------*- C++ -*----------------------------------*\
  =========                 |
  \\      /  F ield         | OpenFOAM: The Open Source CFD Toolbox
   \\    /   O peration     | Website:  https://openfoam.org
    \\  /    A nd           | Version:  6.0
     \\/     M anipulation  |
\*---------------------------------------------------------------------------*/
FoamFile
{
    version     2.0;
    format      ascii;
    class       volScalarField;
    location    "0.1";
    object      p;
}
// * * * * * * * * * * * * * * * * * * * * * * * * * * * * * * * * * * * * * //

dimensions      [0 2 -2 0 0 0 0];

internalField   nonuniform List<scalar> 
800
(
1.8784e-08
-0.00221548
-0.00536856
-0.00839047
-0.0106144
-0.0117257
-0.0116283
-0.0103461
-0.00795553
-0.00454782
-0.000209346
0.00498736
0.0109868
0.0177505
0.0252554
0.0334914
0.0424601
0.0521738
0.0626541
0.0739284
0.0860255
0.0989687
0.112768
0.127408
0.14284
0.158961
0.175601
0.192503
0.209314
0.225578
0.240745
0.254204
0.265329
0.273561
0.278504
0.280034
0.278425
0.274458
0.269532
0.265712
0.00217588
-0.000109914
-0.00260059
-0.00476901
-0.00628487
-0.00691925
-0.00657426
-0.00523667
-0.00293483
0.000286589
0.00437987
0.00930169
0.0150174
0.0215019
0.0287382
0.0367171
0.045437
0.0549031
0.0651263
0.0761201
0.0878962
0.100459
0.113797
0.127879
0.142638
0.157962
0.17368
0.189551
0.205252
0.220377
0.234452
0.246958
0.257378
0.265264
0.270316
0.272469
0.271983
0.269472
0.265749
0.261924
0.00540006
0.00223424
-0.000346961
-0.0022267
-0.00341215
-0.00378081
-0.00327234
-0.00188065
0.000380003
0.00348681
0.00741445
0.0121398
0.0176438
0.0239113
0.0309304
0.0386929
0.047195
0.0564373
0.0664237
0.0771587
0.0886441
0.100875
0.113831
0.127476
0.141741
0.156519
0.171649
0.18691
0.202006
0.216567
0.23016
0.242307
0.252529
0.260404
0.265636
0.268133
0.268091
0.265971
0.26208
0.256899
0.00862872
0.00424084
0.00117396
-0.000757327
-0.00186304
-0.00212237
-0.00152646
-9.74392e-05
0.00214392
0.00518122
0.00900077
0.0135918
0.0189451
0.0250518
0.0319029
0.0394902
0.0478079
0.0568524
0.0666221
0.077116
0.088331
0.100259
0.112881
0.126164
0.140049
0.154444
0.169209
0.184149
0.198996
0.213411
0.226978
0.239229
0.249675
0.257858
0.263424
0.266196
0.266272
0.26398
0.259258
0.25224
0.0110401
0.0053881
0.0017236
-0.000383984
-0.00151245
-0.00173354
-0.00108928
0.000367025
0.00260196
0.00559958
0.0093529
0.0138584
0.0191123
0.0251083
0.0318379
0.0392912
0.0474583
0.0563305
0.0659004
0.0761621
0.0871102
0.098737
0.11103
0.123964
0.1375
0.151567
0.166056
0.180806
0.195585
0.210085
0.223909
0.236584
0.247586
0.256392
0.262546
0.265745
0.265965
0.263405
0.257718
0.248861
0.0120086
0.00514068
0.000859565
-0.00146824
-0.00266028
-0.00286955
-0.00218472
-0.000689227
0.00157032
0.00457575
0.00832252
0.0128097
0.0180345
0.0239898
0.0306645
0.0380439
0.0461118
0.0548523
0.0642516
0.0742997
0.0849898
0.0963175
0.108279
0.120865
0.134057
0.147818
0.162077
0.176717
0.191552
0.206313
0.220626
0.234012
0.245903
0.255687
0.262773
0.266691
0.267255
0.264524
0.257909
0.247283
0.0110248
0.00300985
-0.00185951
-0.00439526
-0.00563593
-0.00581005
-0.00504908
-0.00346439
-0.00111503
0.00197679
0.00580504
0.0103672
0.0156578
0.0216653
0.0283723
0.0357564
0.0437922
0.0524552
0.061725
0.0715873
0.0820349
0.0930684
0.104694
0.116924
0.129766
0.14322
0.157262
0.171831
0.186798
0.201945
0.216935
0.231292
0.244406
0.255563
0.264008
0.269061
0.270318
0.267661
0.260245
0.247891
0.00764053
-0.00146229
-0.00685865
-0.00953252
-0.0107413
-0.0107923
-0.00985967
-0.0080813
-0.00552901
-0.00223126
0.00180131
0.00656154
0.012038
0.0182116
0.0250554
0.0325362
0.040618
0.0492675
0.0584573
0.0681691
0.0783961
0.0891442
0.100433
0.112295
0.124769
0.137897
0.151709
0.166208
0.181337
0.196944
0.212747
0.228294
0.242951
0.255904
0.266214
0.27294
0.275399
0.273214
0.265205
0.251115
0.00142347
-0.00873988
-0.0145718
-0.0172444
-0.018259
-0.0180144
-0.0167345
-0.0145867
-0.011658
-0.00798527
-0.00358559
0.00152706
0.00733303
0.0138032
0.020899
0.0285758
0.0367876
0.0454923
0.0546567
0.064259
0.0742935
0.0847725
0.0957291
0.107217
0.119307
0.132086
0.145643
0.160051
0.175334
0.191429
0.208132
0.225047
0.241542
0.256727
0.269474
0.278539
0.282879
0.281737
0.273444
0.257574
-0.0080938
-0.0193377
-0.0254681
-0.0278975
-0.0284374
-0.0276093
-0.0257015
-0.0229201
-0.0193708
-0.0150995
-0.0101301
-0.00448395
0.00181071
0.00871463
0.0161789
0.0241492
0.0325716
0.0413982
0.0505911
0.0601274
0.0700031
0.0802382
0.0908789
0.102
0.113705
0.126124
0.139405
0.153695
0.16911
0.18569
0.203338
0.221752
0.240349
0.258202
0.274014
0.286218
0.293316
0.294014
0.285905
0.268213
-0.0214934
-0.033891
-0.040088
-0.0418625
-0.0414677
-0.0396059
-0.0366556
-0.0328718
-0.0283806
-0.0232354
-0.0174632
-0.0110889
-0.00414597
0.00332063
0.0112564
0.0196026
0.0283021
0.0373049
0.0465725
0.056083
0.0658369
0.075862
0.0862182
0.0970007
0.108342
0.120415
0.133423
0.147588
0.16312
0.180174
0.198788
0.218794
0.239718
0.260663
0.280219
0.296503
0.307483
0.311131
0.303936
0.284445
-0.0396114
-0.0532675
-0.0590954
-0.0595103
-0.0574473
-0.0538788
-0.0493043
-0.0440336
-0.0382078
-0.0318764
-0.0250584
-0.0177713
-0.0100431
-0.00191466
0.00656348
0.0153364
0.0243511
0.0335613
0.0429325
0.0524476
0.062114
0.0719693
0.0820868
0.0925808
0.103611
0.115387
0.128164
0.142233
0.157897
0.175435
0.195036
0.216711
0.240159
0.264608
0.288635
0.310099
0.326399
0.33456
0.329462
0.308395
-0.0638091
-0.0787514
-0.0833416
-0.0811902
-0.0763149
-0.0700709
-0.0630967
-0.0557442
-0.0481427
-0.0403096
-0.0322298
-0.0238905
-0.0152945
-0.00646166
0.00257499
0.0117758
0.0211004
0.0305134
0.0399896
0.0495212
0.0591251
0.0688505
0.0787847
0.0890597
0.0998593
0.111425
0.124056
0.138106
0.153967
0.17204
0.192681
0.216114
0.24228
0.270648
0.299931
0.327873
0.351354
0.366262
0.365228
0.343313
-0.0965372
-0.112348
-0.113915
-0.107146
-0.0977235
-0.0874697
-0.0771274
-0.067027
-0.0572177
-0.0476249
-0.0381505
-0.0287132
-0.0192605
-0.00976848
-0.000235488
0.00932644
0.0188989
0.0284636
0.03801
0.047543
0.0570921
0.0667191
0.0765252
0.0866588
0.0973243
0.10879
0.121394
0.135544
0.151713
0.170424
0.192206
0.217519
0.24662
0.279342
0.314748
0.350724
0.383831
0.408754
0.41518
0.394394
-0.142528
-0.157253
-0.152081
-0.137268
-0.120778
-0.1048
-0.0900002
-0.0765213
-0.0641915
-0.0527367
-0.0418982
-0.0314713
-0.0213104
-0.0113225
-0.00145403
0.00832123
0.0180136
0.0276267
0.0371671
0.0466547
0.0561322
0.0656739
0.0753938
0.085454
0.0960763
0.107552
0.12025
0.134629
0.151237
0.170711
0.193756
0.221092
0.253352
0.290882
0.333352
0.379213
0.425178
0.464993
0.484936
0.470305
-0.211063
-0.218408
-0.198964
-0.170627
-0.14365
-0.119971
-0.09971
-0.0824698
-0.0676059
-0.0544789
-0.0425652
-0.0314729
-0.0209264
-0.0107424
-0.00080557
0.00895359
0.0185754
0.0280853
0.0375061
0.0468707
0.0562328
0.0656764
0.0753245
0.0853496
0.0959863
0.107544
0.12042
0.135115
0.152244
0.172555
0.196928
0.226366
0.261942
0.30466
0.355129
0.412982
0.475985
0.537835
0.581941
0.585291
-0.320294
-0.302817
-0.254961
-0.20513
-0.163445
-0.130123
-0.103839
-0.0830034
-0.0660999
-0.0519084
-0.0395301
-0.028334
-0.0178938
-0.00793208
0.0017254
0.0111847
0.0205092
0.0297391
0.0389069
0.0480524
0.057234
0.0665394
0.0760949
0.0860777
0.0967298
0.108372
0.121422
0.136413
0.154018
0.175086
0.200669
0.232067
0.27086
0.318882
0.378095
0.450176
0.535325
0.629041
0.715228
0.762503
-0.512488
-0.419165
-0.316106
-0.23496
-0.174785
-0.130996
-0.0994091
-0.076242
-0.0586013
-0.0445022
-0.0326255
-0.0221064
-0.0123918
-0.00313804
0.00586237
0.0147303
0.0235344
0.0323145
0.0411006
0.0499283
0.0588515
0.0679526
0.0773531
0.0872266
0.0978131
0.109435
0.122515
0.137603
0.155408
0.176847
0.203115
0.235782
0.276947
0.329425
0.397005
0.484556
0.596766
0.735152
0.89696
1.05126
-0.903153
-0.571331
-0.354533
-0.235147
-0.160138
-0.111083
-0.0791984
-0.0578121
-0.0425381
-0.0307968
-0.021059
-0.0123995
-0.00426631
0.00365883
0.0115505
0.0194973
0.0275377
0.0356849
0.0439453
0.052333
0.0608823
0.0696569
0.0787601
0.0883475
0.0986412
0.109945
0.122661
0.137319
0.154613
0.175453
0.201052
0.233075
0.273893
0.327033
0.398052
0.4958
0.632701
0.828148
1.13532
1.5725
-1.61159
-0.716833
-0.31373
-0.168752
-0.0988585
-0.0595555
-0.0377181
-0.0250379
-0.0167098
-0.0103559
-0.00477805
0.000658494
0.0062806
0.0122372
0.0185765
0.025291
0.0323454
0.0396938
0.047294
0.0551191
0.0631665
0.0714655
0.0800852
0.0891459
0.0988324
0.109406
0.121218
0.134734
0.150565
0.16951
0.192626
0.221356
0.25778
0.305141
0.369109
0.460605
0.601201
0.843949
1.36346
2.37679
)
;

boundaryField
{
    movingWall
    {
        type            zeroGradient;
    }
    fixedWalls
    {
        type            zeroGradient;
    }
    frontAndBack
    {
        type            empty;
    }
}


// ************************************************************************* //
