/*--------------------------------*- C++ -*----------------------------------*\
  =========                 |
  \\      /  F ield         | OpenFOAM: The Open Source CFD Toolbox
   \\    /   O peration     | Website:  https://openfoam.org
    \\  /    A nd           | Version:  6.0
     \\/     M anipulation  |
\*---------------------------------------------------------------------------*/
FoamFile
{
    version     2.0;
    format      ascii;
    class       volScalarField;
    location    "0.5";
    object      p;
}
// * * * * * * * * * * * * * * * * * * * * * * * * * * * * * * * * * * * * * //

dimensions      [0 2 -2 0 0 0 0];

internalField   nonuniform List<scalar> 
14100
(
0.0044305
0.0042029
0.0037118
0.0029879
0.0020604
0.00095366
-0.00031932
-0.0017876
-0.0034997
-0.0065093
-0.01071
-0.037114
0.004429
0.0042
0.0037062
0.0029794
0.00205
0.00094276
-0.00032931
-0.0017922
-0.003545
-0.006161
-0.010866
-0.017627
0.004427
0.0041952
0.0036966
0.0029647
0.0020315
0.00092251
-0.00034913
-0.0018067
-0.003561
-0.0059926
-0.0096214
-0.011696
0.0044276
0.0041925
0.0036883
0.0029499
0.0020113
0.00089964
-0.00036972
-0.0018196
-0.0035331
-0.0059427
-0.0081272
-0.009329
0.0044322
0.004194
0.0036843
0.0029406
0.0019991
0.00088926
-0.00037252
-0.0018104
-0.0034918
-0.0057717
-0.0074493
-0.010151
0.0044437
0.0042035
0.0036915
0.0029473
0.0020082
0.00090332
-0.00035303
-0.001784
-0.0034465
-0.005561
-0.007379
-0.0099762
0.0044642
0.0042237
0.0037127
0.0029706
0.0020336
0.00092874
-0.00032971
-0.0017586
-0.0033983
-0.0054045
-0.0072334
-0.0086882
0.0044899
0.0042492
0.0037384
0.0029957
0.0020558
0.00094631
-0.00031499
-0.0017377
-0.0033494
-0.0052677
-0.0069507
-0.0076661
0.0045147
0.0042724
0.0037588
0.0030121
0.0020679
0.00095588
-0.00030343
-0.0017153
-0.0032986
-0.0051248
-0.0066659
-0.0069845
0.0045383
0.0042934
0.0037759
0.0030254
0.002079
0.00096748
-0.00028785
-0.0016887
-0.0032447
-0.0049823
-0.0064047
-0.0064287
0.0045649
0.0043175
0.0037966
0.0030435
0.0020958
0.0009845
-0.00026836
-0.0016597
-0.0031888
-0.0048451
-0.0061563
-0.0059518
0.0045963
0.0043467
0.0038229
0.003067
0.0021169
0.0010041
-0.00024738
-0.0016294
-0.0031316
-0.0047129
-0.0059198
-0.0055514
0.0046315
0.0043795
0.0038522
0.0030927
0.0021392
0.0010245
-0.00022549
-0.0015979
-0.0030737
-0.0045854
-0.0056969
-0.0052164
0.0046692
0.0044144
0.0038831
0.0031194
0.0021625
0.001046
-0.00020228
-0.0015651
-0.0030152
-0.004463
-0.0054885
-0.0049357
0.0047094
0.0044516
0.003916
0.0031479
0.0021875
0.0010692
-0.00017761
-0.0015312
-0.0029565
-0.0043458
-0.0052947
-0.0047003
0.0047527
0.0044916
0.0039515
0.0031789
0.0022146
0.0010941
-0.00015163
-0.0014964
-0.0028981
-0.004234
-0.0051152
-0.0045032
0.0047992
0.0045347
0.0039897
0.0032121
0.0022436
0.0011205
-0.00012446
-0.0014609
-0.0028401
-0.0041276
-0.0049499
-0.0043385
0.0048489
0.0045807
0.0040305
0.0032476
0.0022744
0.0011483
-9.6161e-05
-0.0014249
-0.0027829
-0.0040267
-0.0047982
-0.0042015
0.0049018
0.0046296
0.0040738
0.0032852
0.002307
0.0011776
-6.6793e-05
-0.0013884
-0.0027267
-0.0039314
-0.0046597
-0.0040881
0.0049579
0.0046815
0.0041198
0.0033251
0.0023414
0.0012083
-3.6417e-05
-0.0013515
-0.0026717
-0.0038417
-0.0045338
-0.0039953
0.0050173
0.0047365
0.0041685
0.0033672
0.0023777
0.0012404
-5.0947e-06
-0.0013146
-0.0026181
-0.0037574
-0.0044199
-0.0039201
0.0050802
0.0047946
0.0042199
0.0034116
0.0024159
0.001274
2.7114e-05
-0.0012775
-0.0025661
-0.0036787
-0.0043175
-0.0038604
0.0051464
0.0048559
0.004274
0.0034584
0.0024559
0.0013089
6.0154e-05
-0.0012405
-0.0025158
-0.0036054
-0.004226
-0.0038143
0.0052161
0.0049203
0.004331
0.0035074
0.0024978
0.0013452
9.3973e-05
-0.0012036
-0.0024673
-0.0035375
-0.0041447
-0.0037803
0.0052894
0.004988
0.0043907
0.0035589
0.0025415
0.0013829
0.00012852
-0.0011669
-0.0024208
-0.0034748
-0.0040732
-0.0037569
0.0053664
0.0050591
0.0044534
0.0036127
0.0025871
0.0014218
0.00016375
-0.0011305
-0.0023763
-0.0034173
-0.004011
-0.0037431
0.005447
0.0051335
0.004519
0.0036689
0.0026346
0.0014622
0.00019962
-0.0010945
-0.0023339
-0.0033649
-0.0039575
-0.003738
0.0055314
0.0052114
0.0045875
0.0037276
0.0026841
0.0015038
0.00023609
-0.001059
-0.0022937
-0.0033175
-0.0039123
-0.0037409
0.0056197
0.0052928
0.004659
0.0037888
0.0027354
0.0015467
0.00027312
-0.0010239
-0.0022557
-0.003275
-0.003875
-0.003751
0.0057119
0.0053778
0.0047337
0.0038525
0.0027887
0.001591
0.00031069
-0.00098942
-0.0022199
-0.0032373
-0.0038453
-0.0037678
0.0058081
0.0054664
0.0048114
0.0039187
0.0028439
0.0016365
0.00034875
-0.00095554
-0.0021865
-0.0032042
-0.0038226
-0.0037909
0.0059084
0.0055587
0.0048923
0.0039875
0.0029012
0.0016834
0.00038729
-0.00092231
-0.0021553
-0.0031758
-0.0038068
-0.0038199
0.006013
0.0056549
0.0049765
0.004059
0.0029604
0.0017315
0.00042628
-0.00088977
-0.0021265
-0.0031518
-0.0037975
-0.0038545
0.0061218
0.005755
0.005064
0.0041331
0.0030216
0.0017809
0.00046571
-0.00085795
-0.0021
-0.0031322
-0.0037944
-0.0038945
0.0062351
0.005859
0.0051548
0.00421
0.0030849
0.0018317
0.00050555
-0.00082688
-0.0020759
-0.0031169
-0.0037973
-0.0039395
0.0063528
0.0059671
0.0052491
0.0042896
0.0031502
0.0018837
0.00054579
-0.00079658
-0.0020541
-0.0031059
-0.0038061
-0.0039895
0.0064752
0.0060793
0.0053469
0.0043721
0.0032177
0.0019371
0.00058643
-0.00076707
-0.0020347
-0.0030989
-0.0038204
-0.0040443
0.0066024
0.0061958
0.0054483
0.0044574
0.0032873
0.0019918
0.00062746
-0.00073836
-0.0020175
-0.0030961
-0.0038401
-0.0041038
0.0067344
0.0063167
0.0055533
0.0045457
0.0033591
0.0020479
0.00066888
-0.00071048
-0.0020028
-0.0030972
-0.0038651
-0.004168
0.0068714
0.006442
0.0056621
0.0046369
0.0034331
0.0021053
0.00071069
-0.00068342
-0.0019903
-0.0031023
-0.0038953
-0.0042367
0.0070135
0.0065719
0.0057748
0.0047312
0.0035094
0.0021641
0.00075288
-0.00065719
-0.0019801
-0.0031112
-0.0039304
-0.00431
0.0071609
0.0067065
0.0058913
0.0048287
0.0035879
0.0022244
0.00079547
-0.00063179
-0.0019723
-0.003124
-0.0039705
-0.0043879
0.0073138
0.0068459
0.0060119
0.0049293
0.0036688
0.0022861
0.00083846
-0.00060723
-0.0019667
-0.0031405
-0.0040155
-0.0044704
0.0074721
0.0069903
0.0061366
0.0050332
0.0037521
0.0023492
0.00088187
-0.0005835
-0.0019634
-0.0031608
-0.0040652
-0.0045574
0.0076363
0.0071398
0.0062655
0.0051404
0.0038379
0.0024139
0.00092571
-0.0005606
-0.0019624
-0.0031847
-0.0041197
-0.004649
0.0078063
0.0072945
0.0063987
0.0052511
0.0039262
0.0024801
0.00097
-0.00053852
-0.0019636
-0.0032124
-0.0041789
-0.0047453
0.0079823
0.0074545
0.0065364
0.0053652
0.0040171
0.0025479
0.0010148
-0.00051725
-0.0019671
-0.0032437
-0.0042428
-0.0048463
0.0081647
0.0076201
0.0066787
0.005483
0.0041106
0.0026174
0.00106
-0.00049679
-0.0019728
-0.0032786
-0.0043114
-0.0049522
0.0083534
0.0077913
0.0068256
0.0056045
0.0042068
0.0026885
0.0011058
-0.00047711
-0.0019808
-0.0033172
-0.0043847
-0.0050629
0.0085488
0.0079684
0.0069774
0.0057297
0.0043058
0.0027613
0.0011521
-0.00045822
-0.001991
-0.0033594
-0.0044627
-0.0051787
0.0087511
0.0081516
0.0071341
0.0058589
0.0044077
0.0028359
0.001199
-0.00044008
-0.0020034
-0.0034053
-0.0045454
-0.0052995
0.0089604
0.0083409
0.0072959
0.0059921
0.0045125
0.0029124
0.0012465
-0.0004227
-0.002018
-0.0034547
-0.0046329
-0.0054255
0.0091771
0.0085367
0.007463
0.0061294
0.0046204
0.0029908
0.0012947
-0.00040604
-0.0020348
-0.0035079
-0.0047251
-0.005557
0.0094012
0.008739
0.0076355
0.006271
0.0047314
0.0030711
0.0013436
-0.00039009
-0.0020539
-0.0035647
-0.0048223
-0.0056939
0.0096332
0.0089482
0.0078136
0.006417
0.0048456
0.0031534
0.0013932
-0.00037484
-0.0020752
-0.0036252
-0.0049244
-0.0058364
0.0098732
0.0091644
0.0079974
0.0065675
0.0049632
0.0032379
0.0014436
-0.00036026
-0.0020987
-0.0036895
-0.0050316
-0.0059848
0.010122
0.0093878
0.0081872
0.0067226
0.0050842
0.0033246
0.0014948
-0.00034633
-0.0021244
-0.0037575
-0.0051438
-0.0061392
0.010378
0.0096188
0.0083831
0.0068826
0.0052088
0.0034136
0.001547
-0.00033303
-0.0021524
-0.0038294
-0.0052613
-0.0062997
0.010644
0.0098575
0.0085853
0.0070475
0.005337
0.0035049
0.0016
-0.00032033
-0.0021826
-0.0039052
-0.005384
-0.0064665
0.010919
0.010104
0.008794
0.0072176
0.0054691
0.0035987
0.0016541
-0.00030822
-0.0022151
-0.0039848
-0.0055123
-0.00664
0.011204
0.010359
0.0090095
0.0073929
0.0056051
0.003695
0.0017093
-0.00029666
-0.0022499
-0.0040685
-0.005646
-0.0068202
0.011499
0.010623
0.0092319
0.0075738
0.0057452
0.003794
0.0017656
-0.00028563
-0.002287
-0.0041563
-0.0057855
-0.0070074
0.011803
0.010895
0.0094616
0.0077603
0.0058896
0.0038958
0.0018231
-0.0002751
-0.0023264
-0.0042482
-0.0059309
-0.0072018
0.012119
0.011177
0.0096988
0.0079527
0.0060383
0.0040005
0.0018819
-0.00026506
-0.0023682
-0.0043443
-0.0060822
-0.0074038
0.012445
0.011468
0.0099436
0.0081512
0.0061916
0.0041082
0.001942
-0.00025546
-0.0024123
-0.0044448
-0.0062398
-0.0076135
0.012783
0.011769
0.010197
0.008356
0.0063497
0.0042191
0.0020036
-0.00024629
-0.0024588
-0.0045497
-0.0064037
-0.0078312
0.013133
0.012081
0.010458
0.0085674
0.0065127
0.0043333
0.0020667
-0.00023751
-0.0025078
-0.0046591
-0.0065741
-0.0080573
0.013495
0.012402
0.010728
0.0087855
0.0066808
0.0044508
0.0021314
-0.00022909
-0.0025593
-0.0047732
-0.0067514
-0.0082921
0.013869
0.012735
0.011006
0.0090107
0.0068542
0.004572
0.0021979
-0.00022101
-0.0026133
-0.0048921
-0.0069356
-0.0085358
0.014258
0.01308
0.011294
0.0092433
0.0070332
0.0046969
0.0022661
-0.00021323
-0.0026699
-0.0050159
-0.0071271
-0.0087888
0.014659
0.013436
0.011592
0.0094834
0.0072179
0.0048257
0.0023363
-0.00020573
-0.002729
-0.0051447
-0.007326
-0.0090515
0.015076
0.013805
0.0119
0.0097314
0.0074087
0.0049586
0.0024084
-0.00019848
-0.0027909
-0.0052788
-0.0075327
-0.0093243
0.015507
0.014186
0.012218
0.0099877
0.0076057
0.0050958
0.0024827
-0.00019144
-0.0028555
-0.0054182
-0.0077473
-0.0096076
0.015953
0.014581
0.012546
0.010252
0.0078092
0.0052374
0.0025592
-0.00018459
-0.002923
-0.0055631
-0.0079703
-0.0099017
0.016416
0.014989
0.012886
0.010526
0.0080195
0.0053837
0.0026381
-0.00017789
-0.0029933
-0.0057138
-0.0082019
-0.010207
0.016896
0.015412
0.013238
0.010809
0.0082369
0.0055349
0.0027195
-0.00017133
-0.0030665
-0.0058705
-0.0084425
-0.010524
0.017393
0.01585
0.013602
0.011102
0.0084617
0.0056912
0.0028035
-0.00016486
-0.0031429
-0.0060333
-0.0086923
-0.010854
0.017908
0.016303
0.013978
0.011404
0.0086942
0.0058528
0.0028903
-0.00015848
-0.0032223
-0.0062025
-0.0089519
-0.011196
0.018442
0.016773
0.014368
0.011717
0.0089347
0.0060199
0.0029799
-0.00015215
-0.0033051
-0.0063783
-0.0092215
-0.011552
0.018995
0.01726
0.014771
0.012042
0.0091837
0.0061929
0.0030726
-0.00014586
-0.0033912
-0.006561
-0.0095017
-0.011922
0.019569
0.017764
0.015188
0.012377
0.0094413
0.006372
0.0031684
-0.00013958
-0.0034808
-0.0067509
-0.0097927
-0.012306
0.020164
0.018286
0.015621
0.012724
0.0097081
0.0065574
0.0032676
-0.0001333
-0.003574
-0.0069483
-0.010095
-0.012706
0.020782
0.018827
0.016069
0.013084
0.0099845
0.0067495
0.0033703
-0.00012702
-0.003671
-0.0071535
-0.01041
-0.013121
0.021422
0.019388
0.016532
0.013456
0.010271
0.0069485
0.0034766
-0.00012073
-0.003772
-0.0073668
-0.010737
-0.013553
0.022087
0.01997
0.017013
0.013842
0.010568
0.0071548
0.0035867
-0.00011442
-0.0038771
-0.0075887
-0.011077
-0.014003
0.022776
0.020573
0.017512
0.014243
0.010875
0.0073686
0.0037008
-0.00010813
-0.0039865
-0.0078195
-0.01143
-0.01447
0.023491
0.021199
0.018028
0.014657
0.011194
0.0075904
0.003819
-0.00010185
-0.0041005
-0.0080598
-0.011798
-0.014957
0.024233
0.021848
0.018564
0.015087
0.011525
0.0078203
0.0039415
-9.5626e-05
-0.0042193
-0.0083098
-0.012181
-0.015464
0.025003
0.022521
0.019119
0.015533
0.011868
0.0080589
0.0040685
-8.9498e-05
-0.0043432
-0.0085703
-0.01258
-0.015992
0.025803
0.023219
0.019696
0.015996
0.012224
0.0083064
0.0042001
-8.3525e-05
-0.0044724
-0.0088416
-0.012996
-0.016542
0.026631
0.023943
0.020293
0.016476
0.012593
0.0085632
0.0043364
-7.7781e-05
-0.0046073
-0.0091245
-0.013429
-0.017116
0.027493
0.024695
0.020914
0.016974
0.012977
0.0088296
0.0044777
-7.2362e-05
-0.0047483
-0.0094196
-0.01388
-0.017714
0.028384
0.025475
0.021557
0.017492
0.013375
0.0091062
0.004624
-6.7387e-05
-0.0048958
-0.0097275
-0.014351
-0.018337
0.029314
0.026285
0.022226
0.018028
0.013788
0.0093931
0.0047756
-6.3e-05
-0.0050501
-0.010049
-0.014842
-0.018988
0.030271
0.027124
0.022919
0.018585
0.014217
0.0096909
0.0049324
-5.9378e-05
-0.0052119
-0.010385
-0.015355
-0.019667
0.031275
0.027997
0.023639
0.019164
0.014662
0.0099998
0.0050946
-5.6734e-05
-0.0053816
-0.010737
-0.015891
-0.020376
0.0323
0.028899
0.024385
0.019764
0.015125
0.01032
0.0052623
-5.5321e-05
-0.0055599
-0.011104
-0.016452
-0.021118
0.033386
0.029841
0.025162
0.020388
0.015605
0.010653
0.0054355
-5.5438e-05
-0.0057474
-0.01149
-0.017038
-0.021893
0.034483
0.030808
0.025964
0.021035
0.016103
0.010997
0.0056143
-5.7442e-05
-0.005945
-0.011893
-0.017651
-0.022704
0.035656
0.031825
0.026802
0.021708
0.01662
0.011355
0.0057985
-6.1745e-05
-0.0061534
-0.012317
-0.018294
-0.023552
0.036829
0.032863
0.027665
0.022404
0.017156
0.011725
0.0059882
-6.8844e-05
-0.0063735
-0.012763
-0.018967
-0.024441
0.03809
0.033957
0.028568
0.02313
0.017714
0.012108
0.0061832
-7.9288e-05
-0.0066066
-0.013231
-0.019674
-0.025372
0.039353
0.035071
0.029494
0.023878
0.01829
0.012504
0.0063831
-9.3773e-05
-0.0068537
-0.013723
-0.020416
-0.026349
0.040692
0.036245
0.030467
0.02466
0.01889
0.012915
0.0065881
-0.00011301
-0.0071161
-0.014243
-0.021196
-0.027374
0.042067
0.037443
0.03146
0.025464
0.019508
0.013338
0.0067973
-0.00013797
-0.0073954
-0.014791
-0.022017
-0.028451
0.043467
0.038693
0.032504
0.026305
0.020152
0.013775
0.0070108
-0.00016954
-0.0076931
-0.01537
-0.02288
-0.029582
0.04498
0.039987
0.033571
0.027166
0.020814
0.014225
0.0072271
-0.00020913
-0.0080112
-0.015982
-0.023791
-0.030772
0.046431
0.041307
0.034683
0.028067
0.021504
0.014691
0.0074469
-0.00025773
-0.0083517
-0.01663
-0.024751
-0.032025
0.048085
0.042707
0.035833
0.02899
0.02221
0.015166
0.0076674
-0.00031744
-0.008717
-0.017318
-0.025766
-0.033346
0.049611
0.044098
0.03701
0.029951
0.022946
0.015658
0.00789
-0.00038928
-0.0091096
-0.018049
-0.026839
-0.034738
0.05137
0.045603
0.038248
0.030941
0.023698
0.016157
0.0081102
-0.00047636
-0.0095327
-0.018826
-0.027975
-0.036208
0.053035
0.04708
0.03949
0.031958
0.024478
0.016672
0.0083306
-0.00057959
-0.0099891
-0.019654
-0.02918
-0.037762
0.054839
0.04867
0.040814
0.033018
0.025277
0.017194
0.0085446
-0.00070353
-0.010483
-0.020538
-0.030459
-0.039405
0.056708
0.050262
0.042131
0.034091
0.026098
0.017728
0.0087557
-0.00084885
-0.011018
-0.021482
-0.031818
-0.041146
0.058533
0.051918
0.04353
0.03522
0.026944
0.018267
0.0089556
-0.001022
-0.0116
-0.022493
-0.033265
-0.042991
0.060605
0.053648
0.044938
0.036353
0.027802
0.018813
0.0091475
-0.0012235
-0.012233
-0.023577
-0.034808
-0.04495
0.062524
0.05537
0.046401
0.037544
0.028693
0.019364
0.0093228
-0.001462
-0.012924
-0.024742
-0.036455
-0.047032
0.064716
0.057233
0.047912
0.038745
0.029587
0.019914
0.0094823
-0.0017384
-0.013678
-0.025994
-0.038217
-0.049246
0.066859
0.059063
0.04944
0.039992
0.030515
0.020469
0.0096193
-0.002063
-0.014505
-0.027346
-0.040105
-0.051605
0.069099
0.061029
0.051053
0.041266
0.031443
0.021011
0.0097289
-0.0024389
-0.015411
-0.028805
-0.042131
-0.05412
0.07153
0.063026
0.05267
0.042568
0.032399
0.021557
0.0098087
-0.0028772
-0.016408
-0.030385
-0.04431
-0.056806
0.073879
0.065085
0.054376
0.043919
0.033359
0.022081
0.0098459
-0.0033851
-0.017504
-0.032099
-0.046657
-0.059676
0.076533
0.067277
0.056115
0.045285
0.034334
0.022599
0.0098423
-0.0039732
-0.018715
-0.033964
-0.049191
-0.062747
0.07916
0.069477
0.057914
0.046708
0.03532
0.023089
0.0097769
-0.0046557
-0.020052
-0.035997
-0.05193
-0.066034
0.081958
0.071849
0.059797
0.048156
0.036306
0.023559
0.0096526
-0.0054422
-0.021533
-0.03822
-0.054899
-0.069558
0.084974
0.074276
0.061719
0.04965
0.037303
0.023993
0.0094424
-0.0063549
-0.023178
-0.040658
-0.05812
-0.073335
0.087983
0.07682
0.063753
0.051189
0.038292
0.024387
0.0091443
-0.0074043
-0.025008
-0.043341
-0.061622
-0.077387
0.091353
0.079531
0.065843
0.052761
0.039282
0.02473
0.0087278
-0.0086212
-0.027053
-0.046303
-0.065435
-0.081732
0.09476
0.082298
0.068038
0.054387
0.04026
0.025006
0.0081798
-0.01002
-0.029343
-0.049585
-0.069591
-0.086391
0.098441
0.0853
0.070336
0.056036
0.04122
0.0252
0.0074668
-0.011642
-0.031926
-0.053233
-0.074123
-0.091383
0.10238
0.088383
0.07272
0.057729
0.042163
0.025282
0.0065612
-0.013512
-0.034847
-0.057299
-0.079067
-0.096727
0.10646
0.091695
0.075238
0.059437
0.043065
0.025221
0.0054243
-0.015687
-0.038181
-0.061848
-0.084458
-0.10244
0.11097
0.095175
0.077835
0.061161
0.043927
0.024974
0.0040136
-0.018219
-0.042001
-0.066939
-0.090327
-0.10852
0.11564
0.098877
0.080559
0.062893
0.044708
0.024478
0.0022766
-0.021199
-0.046419
-0.072648
-0.096705
-0.115
0.12079
0.10284
0.083345
0.064616
0.045378
0.023679
0.00014723
-0.024736
-0.051546
-0.079035
-0.10361
-0.12186
0.12624
0.10706
0.08621
0.066344
0.045853
0.022492
-0.0024732
-0.028991
-0.057532
-0.086172
-0.11106
-0.1291
0.13226
0.11161
0.089109
0.068043
0.046037
0.020853
-0.0057225
-0.034167
-0.064515
-0.094096
-0.11904
-0.1367
0.13878
0.11641
0.092036
0.069687
0.045794
0.018647
-0.0098362
-0.040529
-0.072652
-0.10284
-0.12754
-0.14464
0.14607
0.12156
0.09504
0.07115
0.044996
0.015736
-0.015146
-0.048371
-0.082053
-0.1124
-0.13651
-0.15287
0.15417
0.12691
0.098085
0.0722
0.043528
0.011801
-0.022147
-0.058022
-0.09281
-0.12272
-0.1459
-0.16134
0.1633
0.13265
0.10124
0.072585
0.041265
0.006311
-0.031395
-0.069716
-0.10489
-0.1337
-0.15561
-0.16996
0.17358
0.13882
0.10411
0.07196
0.037763
-0.0016651
-0.043532
-0.083646
-0.11823
-0.14518
-0.16554
-0.17868
0.18526
0.14578
0.10635
0.070361
0.032151
-0.013203
-0.058897
-0.099663
-0.13257
-0.15696
-0.1755
-0.18735
0.19881
0.15343
0.10701
0.066954
0.022225
-0.029556
-0.077633
-0.11742
-0.14749
-0.16874
-0.18537
-0.19584
0.21535
0.16135
0.10627
0.060375
0.0060381
-0.051348
-0.099552
-0.13654
-0.16266
-0.1803
-0.19494
-0.20408
0.23641
0.16813
0.10199
0.045825
-0.017094
-0.076884
-0.12279
-0.15562
-0.17732
-0.1914
-0.20407
-0.2117
0.26435
0.17443
0.089201
0.016228
-0.049177
-0.10539
-0.14649
-0.1739
-0.19059
-0.20145
-0.21274
-0.21894
0.30086
0.17444
0.066627
-0.02134
-0.085493
-0.13387
-0.16861
-0.19034
-0.20197
-0.20984
-0.22009
-0.22532
0.35243
0.1492
0.022226
-0.052613
-0.1127
-0.15522
-0.18433
-0.20176
-0.21025
-0.21619
-0.22496
-0.22881
0.39672
0.076079
-0.051075
-0.085712
-0.13232
-0.16933
-0.19361
-0.20788
-0.21484
-0.2199
-0.22716
-0.22951
0.11847
0.046181
0.025986
0.027767
0.026848
0.022498
0.018978
0.017121
0.015913
0.014754
0.013729
0.012877
0.012033
0.011083
0.010445
0.025956
0.031881
0.024399
0.020771
0.017614
0.013481
0.010066
0.0079218
0.0064287
0.0052271
0.0042595
0.0034632
0.0029012
0.0027729
0.0029753
0.01246
0.029822
0.018564
0.0069157
0.0039085
0.0043272
0.0043981
0.0039462
0.0036419
0.0036045
0.0035728
0.0034816
0.0034407
0.0034083
0.003055
0.011764
0.014322
0.0074884
0.0027963
0.0041572
0.0068273
0.0073783
0.0064031
0.005426
0.0048416
0.004405
0.0040122
0.0036543
0.0032992
0.0028172
0.0025728
0.006976
0.0091089
0.0083463
0.0075151
0.0071743
0.0064811
0.0053925
0.0044932
0.0039947
0.0037065
0.0034389
0.0031404
0.0028019
0.0023652
0.00048262
0.0061102
0.009291
0.0078968
0.0055345
0.0046955
0.0047496
0.0045671
0.0041053
0.0037182
0.0034511
0.0031855
0.0028719
0.0025193
0.0021845
0.00084438
0.0038886
0.0058008
0.0053252
0.0042149
0.0039648
0.0042228
0.0041758
0.0037782
0.0033777
0.0030921
0.00284
0.0025649
0.0022961
0.002083
0.00034745
0.0019797
0.0034634
0.0039937
0.0037412
0.0035148
0.0035465
0.0035089
0.0032627
0.0029659
0.0027279
0.0025199
0.0023088
0.0021071
0.0019201
-0.00026691
0.0010773
0.002272
0.0029659
0.0030111
0.0028654
0.0028699
0.0028994
0.0027871
0.0025848
0.002392
0.002222
0.0020546
0.0018839
0.0017106
-0.00067893
0.00048867
0.0013891
0.0020099
0.0022479
0.002275
0.0023198
0.0023725
0.0023309
0.0022038
0.0020606
0.0019264
0.0017913
0.0016496
0.0015054
-0.0010114
-2.328e-05
0.00069243
0.0012494
0.001592
0.001742
0.0018266
0.0018922
0.0018972
0.0018327
0.0017375
0.0016367
0.0015312
0.0014197
0.0013038
-0.0013013
-0.00045137
0.00015318
0.00065199
0.0010268
0.0012485
0.0013745
0.0014587
0.0014965
0.0014788
0.001425
0.0013558
0.0012781
0.0011936
0.0011019
-0.0015472
-0.00080526
-0.00028031
0.00016636
0.000541
0.00080183
0.00096265
0.0010664
0.0011279
0.0011445
0.0011254
0.001085
0.0010325
0.00097155
0.00090165
-0.0017547
-0.0011026
-0.00063988
-0.00023672
0.00012481
0.00040277
0.00058771
0.00070905
0.00078903
0.00083111
0.00084007
0.00082509
0.00079497
0.000755
0.00070469
-0.0019312
-0.0013555
-0.0009436
-0.00057714
-0.00023394
4.751e-05
0.00024684
0.00038234
0.00047712
0.0005385
0.00056976
0.00057643
0.00056609
0.00054476
0.00051194
-0.0020832
-0.0015727
-0.001204
-0.00086936
-0.00054615
-0.00026901
-6.2772e-05
8.2968e-05
0.00018939
0.00026555
0.00031441
0.00033924
0.00034614
0.00034126
0.00032402
-0.0022156
-0.0017614
-0.0014302
-0.0011239
-0.00082067
-0.00055208
-0.00034429
-0.000192
-7.6732e-05
1.0786e-05
7.352e-05
0.00011339
0.00013515
0.00014472
0.00014132
-0.0023325
-0.0019274
-0.0016293
-0.0013484
-0.0010646
-0.00080669
-0.00060094
-0.00044522
-0.00032358
-0.00022739
-0.00015373
-0.00010146
-6.7028e-05
-4.4817e-05
-3.5957e-05
-0.0024374
-0.0020753
-0.0018067
-0.001549
-0.0012835
-0.0010373
-0.00083588
-0.00067916
-0.00055328
-0.00045057
-0.00036832
-0.00030588
-0.00026069
-0.00022746
-0.00020774
-0.002533
-0.0022087
-0.0019666
-0.0017301
-0.0014819
-0.0012476
-0.001052
-0.00089612
-0.00076773
-0.00066026
-0.00057128
-0.00050052
-0.00044623
-0.00040343
-0.0003741
-0.0026214
-0.0023305
-0.0021125
-0.0018954
-0.0016635
-0.001441
-0.001252
-0.0010982
-0.00096871
-0.0008579
-0.00076369
-0.00068611
-0.00062414
-0.00057302
-0.00053518
-0.0027044
-0.0024433
-0.0022471
-0.002048
-0.0018312
-0.0016202
-0.0014381
-0.0012874
-0.0011578
-0.0010448
-0.00094657
-0.0008634
-0.00079494
-0.00073659
-0.0006912
-0.0027834
-0.0025489
-0.0023727
-0.0021901
-0.0019875
-0.0017874
-0.0016125
-0.0014654
-0.0013366
-0.0012222
-0.0011209
-0.0010331
-0.00095918
-0.00089451
-0.00084241
-0.0028595
-0.002649
-0.0024912
-0.0023239
-0.0021344
-0.0019448
-0.0017769
-0.0016337
-0.0015062
-0.0013912
-0.0012876
-0.0011961
-0.0011174
-0.0010472
-0.00098911
-0.0029337
-0.0027449
-0.0026041
-0.002451
-0.0022737
-0.0020938
-0.0019328
-0.0017938
-0.001668
-0.0015529
-0.0014476
-0.0013529
-0.0012702
-0.0011951
-0.0011316
-0.0030068
-0.0028376
-0.0027125
-0.0025727
-0.0024068
-0.0022361
-0.0020817
-0.0019469
-0.0018231
-0.0017082
-0.0016016
-0.0015042
-0.0014181
-0.0013387
-0.0012703
-0.0030793
-0.0029282
-0.0028177
-0.0026903
-0.0025349
-0.0023728
-0.0022247
-0.0020941
-0.0019723
-0.0018579
-0.0017505
-0.0016508
-0.0015616
-0.0014782
-0.0014053
-0.0031519
-0.0030173
-0.0029206
-0.0028046
-0.0026591
-0.002505
-0.0023628
-0.0022363
-0.0021167
-0.002003
-0.0018948
-0.0017931
-0.0017012
-0.0016142
-0.0015372
-0.0032249
-0.0031057
-0.0030218
-0.0029167
-0.0027803
-0.0026336
-0.002497
-0.0023744
-0.0022569
-0.002144
-0.0020353
-0.0019318
-0.0018374
-0.0017471
-0.0016661
-0.0032989
-0.0031938
-0.003122
-0.0030271
-0.0028993
-0.0027595
-0.0026281
-0.0025092
-0.0023938
-0.0022816
-0.0021724
-0.0020673
-0.0019706
-0.0018771
-0.0017924
-0.003374
-0.0032822
-0.0032219
-0.0031366
-0.0030168
-0.0028834
-0.0027568
-0.0026414
-0.002528
-0.0024165
-0.0023069
-0.0022001
-0.0021012
-0.0020047
-0.0019164
-0.0034507
-0.0033713
-0.0033219
-0.0032458
-0.0031333
-0.0030058
-0.0028838
-0.0027716
-0.00266
-0.0025491
-0.0024391
-0.0023306
-0.0022297
-0.0021302
-0.0020384
-0.0035291
-0.0034614
-0.0034225
-0.003355
-0.0032496
-0.0031275
-0.0030096
-0.0029004
-0.0027904
-0.00268
-0.0025694
-0.0024593
-0.0023563
-0.0022538
-0.0021586
-0.0036095
-0.0035529
-0.0035241
-0.0034649
-0.0033659
-0.0032488
-0.0031347
-0.0030282
-0.0029196
-0.0028096
-0.0026985
-0.0025866
-0.0024814
-0.002376
-0.0022773
-0.0036921
-0.0036462
-0.0036271
-0.0035758
-0.0034828
-0.0033703
-0.0032596
-0.0031556
-0.0030482
-0.0029384
-0.0028265
-0.0027128
-0.0026053
-0.0024969
-0.0023947
-0.0037772
-0.0037414
-0.0037318
-0.003688
-0.0036007
-0.0034924
-0.0033847
-0.003283
-0.0031765
-0.0030668
-0.0029539
-0.0028381
-0.0027284
-0.0026169
-0.0025111
-0.0038649
-0.0038389
-0.0038384
-0.0038019
-0.0037199
-0.0036154
-0.0035104
-0.0034107
-0.003305
-0.003195
-0.003081
-0.0029631
-0.0028509
-0.0027361
-0.0026266
-0.0039553
-0.0039388
-0.0039473
-0.0039178
-0.0038408
-0.0037398
-0.0036372
-0.0035391
-0.0034339
-0.0033234
-0.0032081
-0.0030878
-0.002973
-0.0028549
-0.0027415
-0.0040488
-0.0040415
-0.0040587
-0.004036
-0.0039636
-0.0038658
-0.0037653
-0.0036686
-0.0035635
-0.0034525
-0.0033356
-0.0032126
-0.003095
-0.0029733
-0.0028559
-0.0041455
-0.0041471
-0.0041729
-0.0041567
-0.0040888
-0.0039938
-0.003895
-0.0037994
-0.0036943
-0.0035823
-0.0034636
-0.0033378
-0.0032172
-0.0030917
-0.0029701
-0.0042455
-0.0042559
-0.0042902
-0.0042803
-0.0042165
-0.004124
-0.0040267
-0.0039319
-0.0038265
-0.0037133
-0.0035925
-0.0034636
-0.0033397
-0.0032102
-0.0030841
-0.004349
-0.004368
-0.0044106
-0.004407
-0.0043471
-0.0042568
-0.0041606
-0.0040664
-0.0039603
-0.0038456
-0.0037225
-0.0035901
-0.0034627
-0.0033289
-0.0031982
-0.0044561
-0.0044838
-0.0045346
-0.004537
-0.0044808
-0.0043924
-0.0042971
-0.0042031
-0.0040961
-0.0039796
-0.0038538
-0.0037177
-0.0035865
-0.0034481
-0.0033124
-0.0045671
-0.0046032
-0.0046623
-0.0046707
-0.0046178
-0.0045311
-0.0044363
-0.0043423
-0.004234
-0.0041154
-0.0039867
-0.0038465
-0.0037112
-0.003568
-0.0034269
-0.0046821
-0.0047267
-0.0047939
-0.0048081
-0.0047585
-0.0046732
-0.0045786
-0.0044843
-0.0043744
-0.0042534
-0.0041213
-0.0039766
-0.003837
-0.0036885
-0.0035419
-0.0048013
-0.0048543
-0.0049297
-0.0049496
-0.004903
-0.0048188
-0.0047242
-0.0046292
-0.0045174
-0.0043936
-0.0042579
-0.0041084
-0.003964
-0.00381
-0.0036573
-0.0049248
-0.0049862
-0.0050699
-0.0050955
-0.0050517
-0.0049683
-0.0048733
-0.0047774
-0.0046633
-0.0045363
-0.0043966
-0.0042419
-0.0040923
-0.0039324
-0.0037735
-0.0050527
-0.0051228
-0.0052147
-0.0052459
-0.0052047
-0.0051219
-0.0050262
-0.004929
-0.0048123
-0.0046818
-0.0045376
-0.0043773
-0.0042223
-0.004056
-0.0038903
-0.0051854
-0.0052641
-0.0053644
-0.0054011
-0.0053624
-0.0052799
-0.0051832
-0.0050843
-0.0049646
-0.0048302
-0.0046812
-0.0045148
-0.0043538
-0.0041808
-0.004008
-0.005323
-0.0054105
-0.0055192
-0.0055614
-0.0055249
-0.0054424
-0.0053444
-0.0052436
-0.0051205
-0.0049818
-0.0048275
-0.0046545
-0.0044872
-0.0043069
-0.0041265
-0.0054657
-0.0055621
-0.0056793
-0.0057269
-0.0056925
-0.0056098
-0.0055101
-0.005407
-0.0052801
-0.0051366
-0.0049766
-0.0047966
-0.0046225
-0.0044345
-0.004246
-0.0056136
-0.0057191
-0.005845
-0.005898
-0.0058655
-0.0057822
-0.0056806
-0.0055747
-0.0054437
-0.005295
-0.0051288
-0.0049412
-0.0047598
-0.0045637
-0.0043666
-0.005767
-0.0058818
-0.0060165
-0.0060749
-0.0060442
-0.0059601
-0.005856
-0.0057471
-0.0056114
-0.005457
-0.0052841
-0.0050885
-0.0048993
-0.0046944
-0.0044882
-0.0059262
-0.0060505
-0.006194
-0.0062578
-0.0062287
-0.0061435
-0.0060367
-0.0059244
-0.0057836
-0.005623
-0.0054428
-0.0052385
-0.005041
-0.0048268
-0.0046109
-0.0060913
-0.0062254
-0.006378
-0.0064471
-0.0064194
-0.0063328
-0.006223
-0.0061067
-0.0059603
-0.005793
-0.005605
-0.0053915
-0.005185
-0.0049609
-0.0047347
-0.0062626
-0.0064067
-0.0065685
-0.0066431
-0.0066166
-0.0065283
-0.0064149
-0.0062944
-0.0061418
-0.0059673
-0.0057709
-0.0055474
-0.0053314
-0.0050968
-0.0048598
-0.0064403
-0.0065947
-0.006766
-0.0068459
-0.0068205
-0.0067302
-0.0066129
-0.0064876
-0.0063284
-0.006146
-0.0059406
-0.0057065
-0.0054804
-0.0052346
-0.004986
-0.0066246
-0.0067897
-0.0069706
-0.007056
-0.0070315
-0.0069388
-0.0068172
-0.0066867
-0.0065202
-0.0063293
-0.0061143
-0.0058689
-0.005632
-0.0053743
-0.0051134
-0.0068159
-0.006992
-0.0071828
-0.0072736
-0.0072498
-0.0071545
-0.0070281
-0.0068917
-0.0067174
-0.0065174
-0.006292
-0.0060347
-0.0057862
-0.0055159
-0.0052421
-0.0070144
-0.007202
-0.0074029
-0.0074991
-0.0074758
-0.0073775
-0.0072458
-0.0071031
-0.0069203
-0.0067105
-0.0064741
-0.0062039
-0.0059431
-0.0056595
-0.005372
-0.0072203
-0.0074198
-0.0076311
-0.0077328
-0.0077098
-0.0076081
-0.0074706
-0.0073211
-0.0071291
-0.0069088
-0.0066605
-0.0063767
-0.0061029
-0.0058051
-0.0055031
-0.0074341
-0.0076459
-0.0078679
-0.0079751
-0.0079522
-0.0078466
-0.0077029
-0.0075459
-0.007344
-0.0071125
-0.0068515
-0.0065532
-0.0062655
-0.0059527
-0.0056353
-0.0076559
-0.0078806
-0.0081136
-0.0082263
-0.0082033
-0.0080935
-0.0079429
-0.0077777
-0.0075653
-0.0073216
-0.0070472
-0.0067334
-0.006431
-0.0061023
-0.0057686
-0.0078862
-0.0081242
-0.0083686
-0.0084869
-0.0084634
-0.008349
-0.0081909
-0.008017
-0.0077932
-0.0075365
-0.0072476
-0.0069175
-0.0065995
-0.0062539
-0.0059031
-0.0081252
-0.0083772
-0.0086332
-0.0087571
-0.008733
-0.0086135
-0.0084474
-0.0082639
-0.0080278
-0.0077574
-0.0074531
-0.0071056
-0.0067709
-0.0064075
-0.0060385
-0.0083734
-0.00864
-0.008908
-0.0090375
-0.0090125
-0.0088873
-0.0087125
-0.0085187
-0.0082695
-0.0079843
-0.0076636
-0.0072977
-0.0069453
-0.0065631
-0.0061749
-0.0086311
-0.0089129
-0.0091933
-0.0093284
-0.0093023
-0.0091709
-0.0089867
-0.0087818
-0.0085186
-0.0082175
-0.0078794
-0.0074938
-0.0071228
-0.0067206
-0.0063122
-0.0088987
-0.0091964
-0.0094896
-0.0096303
-0.0096027
-0.0094647
-0.0092703
-0.0090535
-0.0087751
-0.0084571
-0.0081004
-0.0076941
-0.0073033
-0.00688
-0.0064503
-0.0091766
-0.0094909
-0.0097973
-0.0099438
-0.0099143
-0.009769
-0.0095636
-0.0093339
-0.0090395
-0.0087034
-0.008327
-0.0078986
-0.0074868
-0.0070412
-0.006589
-0.0094653
-0.0097971
-0.010117
-0.010269
-0.010238
-0.010084
-0.0098671
-0.0096236
-0.0093118
-0.0089566
-0.0085591
-0.0081074
-0.0076733
-0.0072042
-0.0067283
-0.0097652
-0.010115
-0.010449
-0.010607
-0.010573
-0.010411
-0.010181
-0.0099228
-0.0095925
-0.0092168
-0.008797
-0.0083205