/*--------------------------------*- C++ -*----------------------------------*\
  =========                 |
  \\      /  F ield         | OpenFOAM: The Open Source CFD Toolbox
   \\    /   O peration     | Website:  https://openfoam.org
    \\  /    A nd           | Version:  6.0
     \\/     M anipulation  |
\*---------------------------------------------------------------------------*/
FoamFile
{
    version     2.0;
    format      ascii;
    class       volScalarField;
    location    "0.5";
    object      p;
}
// * * * * * * * * * * * * * * * * * * * * * * * * * * * * * * * * * * * * * //

dimensions      [0 2 -2 0 0 0 0];

internalField   nonuniform List<scalar> 
29500
(
1.00636
1.00613
1.00578
1.00531
1.00476
1.00408
1.00333
1.00258
1.00186
1.0012
1.00064
1.00015
0.999843
0.99951
0.99917
1.00636
1.00617
1.00586
1.00546
1.00498
1.00437
1.00366
1.0029
1.00215
1.00142
1.00077
1.00016
0.999759
0.999247
0.998831
1.00636
1.00615
1.00581
1.00538
1.00486
1.00421
1.00348
1.00272
1.00198
1.00127
1.00065
1.00008
0.999704
0.999168
0.998848
1.00636
1.00614
1.00577
1.0053
1.00474
1.00407
1.00333
1.00256
1.00182
1.00113
1.00054
1
0.999641
0.999087
0.998752
1.00637
1.00614
1.00576
1.00529
1.00473
1.00406
1.00331
1.00255
1.0018
1.00111
1.00051
0.999955
0.999581
0.998987
0.998602
1.00637
1.00615
1.00578
1.0053
1.00475
1.00408
1.00334
1.00257
1.00183
1.00112
1.0005
0.999936
0.999541
0.998906
0.998486
1.00638
1.00615
1.00578
1.00531
1.00475
1.00408
1.00335
1.00259
1.00184
1.00113
1.00051
0.999926
0.999512
0.998844
0.99839
1.00638
1.00616
1.00579
1.00532
1.00475
1.00408
1.00335
1.00259
1.00184
1.00113
1.0005
0.999913
0.99948
0.998783
0.998291
1.00639
1.00617
1.00581
1.00533
1.00476
1.00408
1.00335
1.00259
1.00184
1.00113
1.00049
0.999889
0.999435
0.998716
0.998191
1.0064
1.00618
1.00582
1.00534
1.00477
1.00409
1.00335
1.00259
1.00184
1.00111
1.00047
0.999854
0.999381
0.998646
0.998095
1.0064
1.00619
1.00583
1.00536
1.00478
1.0041
1.00335
1.00258
1.00182
1.00109
1.00044
0.999812
0.999324
0.998579
0.998007
1.00641
1.0062
1.00585
1.00537
1.00479
1.0041
1.00335
1.00257
1.00181
1.00107
1.00041
0.999771
0.999269
0.998516
0.997926
1.00642
1.00621
1.00586
1.00538
1.0048
1.00411
1.00336
1.00257
1.0018
1.00105
1.00038
0.999733
0.999217
0.998459
0.997852
1.00643
1.00622
1.00587
1.00539
1.00481
1.00412
1.00336
1.00257
1.00179
1.00104
1.00036
0.999698
0.999168
0.998405
0.997783
1.00644
1.00623
1.00588
1.0054
1.00482
1.00413
1.00337
1.00257
1.00179
1.00102
1.00033
0.999665
0.999122
0.998355
0.997719
1.00646
1.00624
1.00589
1.00541
1.00482
1.00413
1.00337
1.00257
1.00178
1.00101
1.00031
0.999633
0.999076
0.998307
0.997658
1.00647
1.00625
1.00589
1.00541
1.00483
1.00413
1.00337
1.00257
1.00177
1.00099
1.00029
0.999602
0.999033
0.998261
0.997601
1.00648
1.00626
1.0059
1.00541
1.00483
1.00413
1.00337
1.00256
1.00176
1.00098
1.00027
0.999573
0.99899
0.998216
0.997547
1.0065
1.00628
1.00591
1.00542
1.00483
1.00413
1.00336
1.00256
1.00175
1.00097
1.00025
0.999543
0.998947
0.998172
0.997494
1.00651
1.00629
1.00593
1.00543
1.00484
1.00413
1.00336
1.00256
1.00175
1.00096
1.00023
0.999514
0.998904
0.998127
0.997442
1.00653
1.00631
1.00594
1.00545
1.00484
1.00414
1.00336
1.00255
1.00174
1.00094
1.0002
0.999482
0.998859
0.998082
0.99739
1.00655
1.00633
1.00596
1.00546
1.00486
1.00415
1.00337
1.00255
1.00173
1.00093
1.00018
0.999448
0.998813
0.998035
0.99734
1.00656
1.00634
1.00598
1.00548
1.00487
1.00416
1.00337
1.00255
1.00172
1.00091
1.00015
0.999412
0.998765
0.997988
0.997291
1.00658
1.00636
1.006
1.0055
1.00489
1.00417
1.00338
1.00255
1.00171
1.00089
1.00013
0.999376
0.998717
0.997942
0.997243
1.0066
1.00638
1.00602
1.00552
1.0049
1.00418
1.00338
1.00254
1.0017
1.00087
1.0001
0.999339
0.99867
0.997895
0.997196
1.00662
1.0064
1.00604
1.00553
1.00492
1.00419
1.00339
1.00254
1.00169
1.00085
1.00007
0.999303
0.998623
0.99785
0.997151
1.00664
1.00642
1.00605
1.00555
1.00493
1.0042
1.00339
1.00254
1.00168
1.00084
1.00004
0.999267
0.998577
0.997805
0.997106
1.00667
1.00644
1.00607
1.00556
1.00494
1.0042
1.00339
1.00254
1.00167
1.00082
1.00002
0.999231
0.998532
0.997761
0.997061
1.00669
1.00646
1.00609
1.00557
1.00495
1.00421
1.00339
1.00253
1.00166
1.0008
0.99999
0.999196
0.998487
0.997717
0.997017
1.00671
1.00649
1.00611
1.00559
1.00496
1.00422
1.0034
1.00253
1.00165
1.00078
0.999963
0.999162
0.998443
0.997672
0.996972
1.00674
1.00651
1.00613
1.0056
1.00497
1.00422
1.0034
1.00253
1.00164
1.00076
0.999937
0.999127
0.998398
0.997628
0.996927
1.00676
1.00653
1.00615
1.00562
1.00498
1.00423
1.0034
1.00252
1.00163
1.00075
0.999911
0.999092
0.998354
0.997583
0.996882
1.00679
1.00656
1.00617
1.00564
1.00499
1.00424
1.0034
1.00252
1.00162
1.00073
0.999884
0.999057
0.998309
0.997537
0.996836
1.00682
1.00659
1.0062
1.00567
1.00501
1.00425
1.00341
1.00252
1.00162
1.00071
0.999858
0.999022
0.998263
0.997491
0.996789
1.00684
1.00662
1.00623
1.00569
1.00503
1.00426
1.00342
1.00252
1.00161
1.0007
0.99983
0.998985
0.998217
0.997443
0.996742
1.00687
1.00665
1.00626
1.00572
1.00505
1.00428
1.00343
1.00252
1.0016
1.00068
0.999802
0.998948
0.99817
0.997395
0.996693
1.0069
1.00668
1.00629
1.00575
1.00508
1.0043
1.00344
1.00252
1.00159
1.00066
0.999774
0.99891
0.998122
0.997346
0.996644
1.00694
1.00671
1.00632
1.00577
1.0051
1.00432
1.00345
1.00252
1.00158
1.00064
0.999744
0.998871
0.998074
0.997297
0.996595
1.00697
1.00674
1.00634
1.0058
1.00512
1.00433
1.00346
1.00253
1.00158
1.00062
0.999714
0.998831
0.998025
0.997247
0.996544
1.007
1.00677
1.00637
1.00583
1.00515
1.00435
1.00347
1.00253
1.00157
1.0006
0.999683
0.998791
0.997976
0.997196
0.996493
1.00703
1.00681
1.0064
1.00585
1.00517
1.00437
1.00347
1.00253
1.00156
1.00058
0.999652
0.998751
0.997927
0.997145
0.996441
1.00707
1.00684
1.00643
1.00588
1.00519
1.00438
1.00348
1.00252
1.00154
1.00056
0.99962
0.99871
0.997878
0.997094
0.996389
1.00711
1.00687
1.00646
1.0059
1.00521
1.00439
1.00349
1.00252
1.00153
1.00054
0.999589
0.99867
0.997828
0.997042
0.996336
1.00714
1.00691
1.0065
1.00593
1.00523
1.00441
1.00349
1.00252
1.00152
1.00052
0.999557
0.998629
0.997779
0.996989
0.996282
1.00718
1.00695
1.00653
1.00596
1.00525
1.00442
1.0035
1.00252
1.00151
1.0005
0.999525
0.998588
0.997728
0.996936
0.996226
1.00722
1.00698
1.00656
1.00599
1.00527
1.00444
1.00351
1.00252
1.0015
1.00048
0.999493
0.998546
0.997678
0.996881
0.99617
1.00726
1.00702
1.0066
1.00602
1.0053
1.00446
1.00352
1.00252
1.00149
1.00046
0.999461
0.998505
0.997626
0.996826
0.996113
1.0073
1.00706
1.00664
1.00605
1.00533
1.00448
1.00353
1.00252
1.00148
1.00043
0.999429
0.998462
0.997574
0.99677
0.996054
1.00735
1.00711
1.00668
1.00609
1.00536
1.0045
1.00354
1.00252
1.00147
1.00041
0.999397
0.998419
0.997522
0.996713
0.995995
1.00739
1.00715
1.00672
1.00613
1.00539
1.00452
1.00356
1.00253
1.00146
1.00039
0.999364
0.998376
0.997468
0.996655
0.995934
1.00743
1.00719
1.00676
1.00616
1.00542
1.00455
1.00357
1.00253
1.00146
1.00037
0.999331
0.998331
0.997413
0.996596
0.995872
1.00748
1.00724
1.0068
1.0062
1.00545
1.00457
1.00359
1.00253
1.00145
1.00035
0.999296
0.998285
0.997358
0.996535
0.995809
1.00753
1.00728
1.00684
1.00624
1.00548
1.00459
1.0036
1.00254
1.00144
1.00033
0.999261
0.998239
0.997301
0.996474
0.995744
1.00758
1.00733
1.00689
1.00628
1.00552
1.00462
1.00362
1.00254
1.00143
1.00031
0.999226
0.998192
0.997244
0.996411
0.995679
1.00763
1.00738
1.00693
1.00632
1.00555
1.00464
1.00363
1.00254
1.00142
1.00028
0.999189
0.998144
0.997186
0.996348
0.995612
1.00768
1.00743
1.00698
1.00636
1.00558
1.00467
1.00364
1.00254
1.00141
1.00026
0.999153
0.998096
0.997128
0.996283
0.995544
1.00773
1.00748
1.00702
1.0064
1.00561
1.00469
1.00366
1.00255
1.0014
1.00024
0.999115
0.998047
0.997068
0.996218
0.995474
1.00779
1.00753
1.00707
1.00644
1.00565
1.00471
1.00367
1.00255
1.00138
1.00021
0.999078
0.997998
0.997008
0.996151
0.995403
1.00784
1.00758
1.00712
1.00648
1.00568
1.00474
1.00368
1.00255
1.00137
1.00019
0.99904
0.997948
0.996947
0.996083
0.995331
1.0079
1.00764
1.00717
1.00653
1.00572
1.00477
1.0037
1.00255
1.00136
1.00016
0.999003
0.997897
0.996885
0.996014
0.995257
1.00796
1.00769
1.00722
1.00657
1.00576
1.00479
1.00372
1.00256
1.00135
1.00014
0.998964
0.997846
0.996822
0.995943
0.995182
1.00802
1.00775
1.00727
1.00662
1.0058
1.00482
1.00374
1.00256
1.00135
1.00012
0.998926
0.997794
0.996758
0.995871
0.995105
1.00808
1.00781
1.00733
1.00667
1.00584
1.00486
1.00376
1.00257
1.00134
1.00009
0.998887
0.997741
0.996693
0.995798
0.995027
1.00814
1.00787
1.00738
1.00672
1.00588
1.00489
1.00378
1.00258
1.00133
1.00007
0.998847
0.997687
0.996626
0.995723
0.994947
1.0082
1.00793
1.00744
1.00677
1.00592
1.00492
1.0038
1.00258
1.00132
1.00004
0.998806
0.997633
0.996559
0.995647
0.994865
1.00827
1.00799
1.0075
1.00683
1.00597
1.00496
1.00382
1.00259
1.00131
1.00002
0.998765
0.997577
0.99649
0.99557
0.994782
1.00833
1.00805
1.00756
1.00688
1.00601
1.00499
1.00384
1.0026
1.0013
0.999993
0.998723
0.99752
0.996421
0.995491
0.994697
1.0084
1.00812
1.00762
1.00694
1.00606
1.00503
1.00386
1.0026
1.00129
0.999967
0.998681
0.997463
0.99635
0.99541
0.99461
1.00847
1.00819
1.00768
1.00699
1.00611
1.00506
1.00388
1.00261
1.00128
0.99994
0.998638
0.997404
0.996278
0.995329
0.994521
1.00854
1.00825
1.00775
1.00705
1.00615
1.0051
1.00391
1.00262
1.00127
0.999913
0.998594
0.997344
0.996205
0.995245
0.994431
1.00861
1.00832
1.00781
1.00711
1.0062
1.00514
1.00393
1.00263
1.00126
0.999886
0.998549
0.997284
0.99613
0.99516
0.994339
1.00868
1.00839
1.00788
1.00717
1.00625
1.00517
1.00395
1.00263
1.00125
0.999859
0.998504
0.997223
0.996055
0.995074
0.994244
1.00876
1.00847
1.00795
1.00723
1.00631
1.00521
1.00398
1.00264
1.00124
0.999832
0.998459
0.997161
0.995978
0.994986
0.994148
1.00883
1.00854
1.00802
1.00729
1.00636
1.00525
1.00401
1.00265
1.00124
0.999804
0.998413
0.997098
0.9959
0.994896
0.994051
1.00891
1.00862
1.00809
1.00735
1.00641
1.00529
1.00403
1.00266
1.00123
0.999776
0.998366
0.997034
0.995821
0.994805
0.993951
1.00899
1.0087
1.00816
1.00742
1.00647
1.00534
1.00406
1.00267
1.00122
0.999748
0.998319
0.996969
0.995741
0.994712
0.993849
1.00907
1.00877
1.00824
1.00749
1.00653
1.00538
1.00409
1.00268
1.00121
0.99972
0.99827
0.996903
0.995659
0.994617
0.993745
1.00916
1.00886
1.00831
1.00756
1.00659
1.00543
1.00412
1.00269
1.0012
0.999691
0.998222
0.996836
0.995575
0.994521
0.993638
1.00924
1.00894
1.00839
1.00763
1.00665
1.00547
1.00415
1.0027
1.00119
0.999661
0.998172
0.996768
0.99549
0.994422
0.99353
1.00933
1.00902
1.00847
1.0077
1.00671
1.00552
1.00418
1.00272
1.00118
0.999632
0.998122
0.996698
0.995404
0.994322
0.993419
1.00942
1.00911
1.00855
1.00777
1.00677
1.00557
1.00421
1.00273
1.00117
0.999601
0.998071
0.996628
0.995315
0.994219
0.993306
1.00951
1.0092
1.00863
1.00785
1.00683
1.00562
1.00424
1.00274
1.00117
0.999571
0.998019
0.996556
0.995226
0.994115
0.993191
1.0096
1.00929
1.00872
1.00792
1.0069
1.00567
1.00427
1.00275
1.00116
0.99954
0.997966
0.996483
0.995134
0.994008
0.993073
1.00969
1.00938
1.0088
1.008
1.00696
1.00572
1.00431
1.00277
1.00115
0.999509
0.997913
0.996409
0.995041
0.9939
0.992952
1.00979
1.00947
1.00889
1.00808
1.00703
1.00577
1.00434
1.00278
1.00114
0.999478
0.997859
0.996334
0.994947
0.993789
0.992829
1.00989
1.00957
1.00898
1.00816
1.0071
1.00583
1.00438
1.00279
1.00113
0.999446
0.997804
0.996257
0.99485
0.993676
0.992704
1.00998
1.00967
1.00907
1.00825
1.00717
1.00588
1.00442
1.00281
1.00112
0.999414
0.997749
0.996179
0.994752
0.993561
0.992576
1.01009
1.00977
1.00917
1.00833
1.00725
1.00594
1.00445
1.00283
1.00112
0.999382
0.997692
0.9961
0.994651
0.993443
0.992445
1.01019
1.00987
1.00926
1.00842
1.00732
1.006
1.00449
1.00284
1.00111
0.999349
0.997635
0.996019
0.994549
0.993323
0.992312
1.0103
1.00997
1.00936
1.00851
1.0074
1.00606
1.00453
1.00286
1.0011
0.999316
0.997576
0.995936
0.994445
0.9932
0.992175
1.0104
1.01008
1.00946
1.0086
1.00748
1.00612
1.00457
1.00288
1.00109
0.999283
0.997517
0.995852
0.994338
0.993075
0.992036
1.01051
1.01019
1.00957
1.00869
1.00756
1.00618
1.00461
1.00289
1.00109
0.999249
0.997456
0.995766
0.99423
0.992947
0.991895
1.01062
1.0103
1.00967
1.00879
1.00764
1.00625
1.00466
1.00291
1.00108
0.999214
0.997394
0.995678
0.994119
0.992817
0.99175
1.01074
1.01041
1.00978
1.00889
1.00772
1.00631
1.0047
1.00293
1.00107
0.999178
0.997331
0.995589
0.994006
0.992684
0.991603
1.01085
1.01052
1.00988
1.00899
1.0078
1.00638
1.00475
1.00295
1.00106
0.999142
0.997267
0.995498
0.993891
0.992549
0.991453
1.01097
1.01064
1.01
1.00909
1.00789
1.00645
1.00479
1.00297
1.00105
0.999106
0.997201
0.995406
0.993774
0.992411
0.9913
1.01109
1.01076
1.01011
1.00919
1.00798
1.00652
1.00484
1.00299
1.00105
0.999069
0.997135
0.995311
0.993654
0.992271
0.991144
1.01122
1.01088
1.01022
1.0093
1.00807
1.00659
1.00489
1.00301
1.00104
0.999032
0.997067
0.995215
0.993533
0.992128
0.990985
1.01134
1.01101
1.01034
1.0094
1.00816
1.00666
1.00494
1.00304
1.00103
0.998994
0.996998
0.995117
0.993409
0.991982
0.990823
1.01147
1.01113
1.01046
1.00951
1.00826
1.00674
1.00499
1.00306
1.00103
0.998955
0.996928
0.995017
0.993283
0.991833
0.990658
1.0116
1.01126
1.01058
1.00963
1.00836
1.00682
1.00504
1.00308
1.00102
0.998916
0.996857
0.994916
0.993154
0.991682
0.99049
1.01173
1.0114
1.01071
1.00974
1.00846
1.0069
1.00509
1.00311
1.00101
0.998876
0.996784
0.994812
0.993022
0.991528
0.990318
1.01187
1.01153
1.01084
1.00986
1.00856
1.00698
1.00515
1.00313
1.001
0.998835
0.99671
0.994706
0.992889
0.99137
0.990143
1.01201
1.01167
1.01097
1.00998
1.00866
1.00706
1.00521
1.00316
1.001
0.998794
0.996634
0.994599
0.992752
0.99121
0.989965
1.01215
1.01181
1.0111
1.0101
1.00877
1.00714
1.00526
1.00319
1.00099
0.998751
0.996557
0.994489
0.992613
0.991047
0.989783
1.01229
1.01195
1.01124
1.01023
1.00888
1.00723
1.00532
1.00322
1.00098
0.998708
0.996478
0.994377
0.992471
0.99088
0.989597
1.01244
1.0121
1.01138
1.01036
1.00899
1.00732
1.00538
1.00324
1.00098
0.998664
0.996398
0.994263
0.992327
0.99071
0.989408
1.01259
1.01225
1.01152
1.01049
1.0091
1.00741
1.00545
1.00327
1.00097
0.99862
0.996316
0.994146
0.99218
0.990537
0.989215
1.01274
1.0124
1.01167
1.01062
1.00922
1.0075
1.00551
1.0033
1.00096
0.998574
0.996233
0.994028
0.99203
0.990361
0.989018
1.0129
1.01255
1.01181
1.01076
1.00933
1.0076
1.00557
1.00333
1.00095
0.998527
0.996148
0.993907
0.991877
0.990181
0.988818
1.01306
1.01271
1.01197
1.0109
1.00946
1.00769
1.00564
1.00336
1.00095
0.99848
0.996062
0.993784
0.991722
0.989997
0.988614
1.01322
1.01287
1.01212
1.01104
1.00958
1.00779
1.00571
1.00339
1.00094
0.998432
0.995974
0.993659
0.991563
0.98981
0.988405
1.01338
1.01304
1.01228
1.01118
1.00971
1.00789
1.00578
1.00343
1.00093
0.998383
0.995884
0.993531
0.991402
0.98962
0.988193
1.01355
1.01321
1.01244
1.01133
1.00984
1.008
1.00585
1.00346
1.00092
0.998334
0.995793
0.993401
0.991237
0.989426
0.987977
1.01373
1.01338
1.0126
1.01149
1.00997
1.0081
1.00592
1.00349
1.00092
0.998283
0.995699
0.993268
0.99107
0.989228
0.987756
1.0139
1.01355
1.01277
1.01164
1.0101
1.00821
1.00599
1.00353
1.00091
0.998232
0.995605
0.993133
0.990899
0.989026
0.987531
1.01408
1.01373
1.01294
1.0118
1.01024
1.00832
1.00607
1.00356
1.0009
0.998179
0.995508
0.992995
0.990724
0.988821
0.987302
1.01426
1.01392
1.01312
1.01196
1.01038
1.00844
1.00615
1.0036
1.00089
0.998125
0.995409
0.992854
0.990546
0.988611
0.987068
1.01445
1.0141
1.0133
1.01213
1.01053
1.00855
1.00623
1.00364
1.00089
0.998071
0.995308
0.992711
0.990365
0.988398
0.98683
1.01464
1.01429
1.01348
1.0123
1.01068
1.00867
1.00631
1.00368
1.00088
0.998015
0.995205
0.992565
0.99018
0.98818
0.986586
1.01483
1.01449
1.01366
1.01247
1.01083
1.00879
1.00639
1.00372
1.00087
0.997958
0.995101
0.992415
0.989991
0.987958
0.986338
1.01503
1.01468
1.01386
1.01265
1.01098
1.00892
1.00648
1.00376
1.00086
0.9979
0.994993
0.992263
0.989798
0.987731
0.986084
1.01523
1.01489
1.01405
1.01283
1.01114
1.00904
1.00656
1.0038
1.00085
0.99784
0.994884
0.992107
0.989601
0.9875
0.985826
1.01544
1.01509
1.01425
1.01301
1.0113
1.00917
1.00665
1.00384
1.00085
0.99778
0.994772
0.991948
0.9894
0.987264
0.985561
1.01565
1.0153
1.01445
1.0132
1.01147
1.0093
1.00674
1.00388
1.00084
0.997718
0.994658
0.991786
0.989195
0.987023
0.985291
1.01587
1.01552
1.01466
1.0134
1.01164
1.00944
1.00684
1.00393
1.00083
0.997655
0.994542
0.99162
0.988985
0.986776
0.985016
1.01608
1.01574
1.01487
1.01359
1.01181
1.00958
1.00693
1.00397
1.00082
0.99759
0.994423
0.99145
0.988771
0.986525
0.984734
1.01631
1.01596
1.01509
1.01379
1.01199
1.00972
1.00703
1.00402
1.00081
0.997524
0.994301
0.991277
0.988552
0.986268
0.984447
1.01654
1.01619
1.01531
1.014
1.01217
1.00986
1.00713
1.00407
1.0008
0.997456
0.994177
0.9911
0.988329
0.986005
0.984154
1.01677
1.01642
1.01553
1.01421
1.01235
1.01001
1.00723
1.00412
1.00079
0.997387
0.994049
0.990919
0.9881
0.985737
0.983854
1.017
1.01666
1.01576
1.01443
1.01254
1.01016
1.00733
1.00417
1.00078
0.997316
0.993919
0.990733
0.987867
0.985463
0.983549
1.01725
1.01691
1.016
1.01465
1.01273
1.01032
1.00744
1.00422
1.00077
0.997243
0.993785
0.990544
0.987628
0.985184
0.983237
1.01749
1.01715
1.01624
1.01487
1.01293
1.01048
1.00755
1.00427
1.00076
0.997168
0.993649
0.99035
0.987384
0.984898
0.982918
1.01775
1.01741
1.01649
1.0151
1.01313
1.01064
1.00766
1.00432
1.00075
0.997092
0.993509
0.990151
0.987135
0.984606
0.982594
1.018
1.01767
1.01674
1.01534
1.01334
1.0108
1.00777
1.00437
1.00074
0.997013
0.993365
0.989948
0.98688
0.984308
0.982262
1.01827
1.01793
1.017
1.01558
1.01355
1.01097
1.00789
1.00443
1.00072
0.996932
0.993218
0.98974
0.986619
0.984003
0.981924
1.01854
1.0182
1.01726
1.01582
1.01376
1.01114
1.00801
1.00448
1.00071
0.996849
0.993067
0.989527
0.986352
0.983693
0.981579
1.01881
1.01848
1.01753
1.01607
1.01398
1.01132
1.00813
1.00454
1.0007
0.996763
0.992912
0.989309
0.98608
0.983375
0.981227
1.01909
1.01876
1.0178
1.01633
1.01421
1.0115
1.00825
1.0046
1.00068
0.996675
0.992753
0.989086
0.985801
0.983051
0.980868
1.01938
1.01905
1.01808
1.01659
1.01444
1.01169
1.00838
1.00466
1.00067
0.996584
0.99259
0.988858
0.985516
0.982719
0.980501
1.01967
1.01935
1.01837
1.01686
1.01468
1.01188
1.00851
1.00472
1.00065
0.996491
0.992423
0.988624
0.985225
0.982381
0.980127
1.01997
1.01965
1.01867
1.01714
1.01492
1.01207
1.00864
1.00478
1.00063
0.996395
0.992251
0.988384
0.984927
0.982035
0.979745
1.02027
1.01996
1.01897
1.01742
1.01516
1.01227
1.00877
1.00484
1.00062
0.996296
0.992075
0.988139
0.984622
0.981682
0.979355
1.02058
1.02027
1.01927
1.01771
1.01542
1.01247
1.00891
1.0049
1.0006
0.996194
0.991894
0.987887
0.98431
0.981321
0.978957
1.0209
1.0206
1.01959
1.018
1.01568
1.01268
1.00905
1.00496
1.00058
0.996088
0.991709
0.98763
0.983991
0.980952
0.978551
1.02122
1.02093
1.01991
1.0183
1.01594
1.01289
1.0092
1.00503
1.00055
0.99598
0.991518
0.987366
0.983665
0.980575
0.978135
1.02156
1.02126
1.02024
1.01861
1.01621
1.01311
1.00934
1.00509
1.00053
0.995867
0.991322
0.987095
0.983331
0.98019
0.977712
1.0219
1.02161
1.02057
1.01893
1.01649
1.01333
1.00949
1.00516
1.00051
0.995752
0.991121
0.986818
0.98299
0.979796
0.977279
1.02224
1.02196
1.02092
1.01925
1.01677
1.01355
1.00965
1.00523
1.00048
0.995632
0.990915
0.986534
0.98264
0.979394
0.976837
1.0226
1.02232
1.02127
1.01958
1.01706
1.01379
1.0098
1.00529
1.00045
0.995509
0.990702
0.986243
0.982282
0.978982
0.976386
1.02296
1.02269
1.02163
1.01992
1.01736
1.01402
1.00996
1.00536
1.00042
0.995382
0.990484
0.985944
0.981916
0.978562
0.975925
1.02333
1.02306
1.022
1.02026
1.01766
1.01427
1.01012
1.00543
1.00039
0.99525
0.99026
0.985638
0.98154
0.978131
0.975453
1.02371
1.02345
1.02238
1.02062
1.01798
1.01451
1.01029
1.0055
1.00035
0.995114
0.990029
0.985323
0.981156
0.977691
0.974972
1.0241
1.02384
1.02276
1.02098
1.01829
1.01477
1.01046
1.00557
1.00032
0.994973
0.989791
0.985001
0.980762
0.97724
0.974479
1.02449
1.02425
1.02316
1.02135
1.01862
1.01503
1.01063
1.00564
1.00028
0.994828
0.989547
0.98467
0.980359
0.976779
0.973976
1.0249
1.02466
1.02356
1.02174
1.01895
1.01529
1.01081
1.00571
1.00024
0.994677
0.989295
0.98433
0.979946
0.976307
0.973461
1.02532
1.02508
1.02398
1.02213
1.0193
1.01556
1.01098
1.00578
1.00019
0.994521
0.989036
0.983981
0.979522
0.975824
0.972934
1.02574
1.02552
1.0244
1.02253
1.01965
1.01584
1.01117
1.00585
1.00015
0.994359
0.988769
0.983623
0.979088
0.97533
0.972395
1.02618
1.02596
1.02484
1.02294
1.02001
1.01613
1.01135
1.00592
1.0001
0.994192
0.988494
0.983255
0.978643
0.974824
0.971845
1.02662
1.02641
1.02528
1.02336
1.02037
1.01642
1.01154
1.00599
1.00004
0.994018
0.988211
0.982876
0.978186
0.974305
0.971281
1.02708
1.02688
1.02574
1.02379
1.02075
1.01671
1.01173
1.00606
0.999987
0.993838
0.987918
0.982488
0.977718
0.973775
0.970704
1.02754
1.02735
1.02621
1.02423
1.02114
1.01702
1.01192
1.00613
0.999926
0.993651
0.987617
0.982088
0.977237
0.973231
0.970114
1.02802
1.02784
1.02669
1.02468
1.02153
1.01732
1.01212
1.0062
0.999861
0.993457
0.987305
0.981677
0.976744
0.972674
0.96951
1.02851
1.02834
1.02718
1.02514
1.02194
1.01764
1.01232
1.00627
0.999791
0.993255
0.986984
0.981254
0.976238
0.972103
0.968892
1.02901
1.02885
1.02769
1.02562
1.02235
1.01797
1.01253
1.00634
0.999717
0.993045
0.986652
0.980819
0.975719
0.971519
0.96826
1.02952
1.02938
1.02821
1.0261
1.02278
1.0183
1.01274
1.0064
0.999637
0.992826
0.986309
0.980371
0.975185
0.97092
0.967613
1.03004
1.02992
1.02874
1.0266
1.02322
1.01863
1.01295
1.00647
0.999552
0.992599
0.985954
0.97991
0.974638
0.970307
0.966951
1.03058
1.03047
1.02928
1.02712
1.02366
1.01898
1.01316
1.00653
0.999461
0.992362
0.985587
0.979435
0.974076
0.969678
0.966273
1.03113
1.03104
1.02984
1.02764
1.02412
1.01933
1.01338
1.00659
0.999363
0.992115
0.985208
0.978946
0.973499
0.969034
0.96558
1.0317
1.03162
1.03041
1.02818
1.02459
1.01969
1.0136
1.00665
0.999258
0.991857
0.984815
0.978442
0.972905
0.968373
0.96487
1.03228
1.03221
1.031
1.02874
1.02507
1.02006
1.01382
1.00671
0.999146
0.991589
0.984409
0.977923
0.972296
0.967696
0.964145
1.03287
1.03283
1.03161
1.02931
1.02556
1.02044
1.01404
1.00676
0.999026
0.991308
0.983988
0.977388
0.97167
0.967002
0.963401
1.03348
1.03345
1.03223
1.02989
1.02607
1.02082
1.01427
1.00681
0.998897
0.991015
0.983552
0.976836
0.971027
0.966292
0.962642
1.03411
1.0341
1.03287
1.03049
1.02659
1.02122
1.0145
1.00686
0.998759
0.990709
0.9831
0.976267
0.970366
0.965562
0.961863
1.03475
1.03476
1.03352
1.03111
1.02712
1.02162
1.01473
1.0069
0.998611
0.990388
0.982631
0.97568
0.969687
0.964815
0.961068
1.03541
1.03544
1.03419
1.03174
1.02767
1.02202
1.01496
1.00694
0.998453
0.990053
0.982145
0.975074
0.968988
0.964048
0.960252
1.03608
1.03614
1.03489
1.03239
1.02823
1.02244
1.01519
1.00697
0.998282
0.989702
0.981641
0.974449
0.96827
0.963263
0.959419
1.03678
1.03685
1.0356
1.03306
1.0288
1.02287
1.01543
1.00699
0.998099
0.989334
0.981118
0.973804
0.967531
0.962457
0.958566
1.03749
1.03759
1.03633
1.03375
1.02939
1.0233
1.01566
1.00701
0.997903
0.988949
0.980575
0.973138
0.966772
0.961631
0.957694
1.03822
1.03835
1.03708
1.03446
1.02999
1.02374
1.0159
1.00702
0.997693
0.988545
0.980011
0.97245
0.965991
0.960783
0.9568
1.03897
1.03913
1.03786
1.03518
1.03061
1.02419
1.01613
1.00702
0.997467
0.988121
0.979425
0.97174
0.965188
0.959914
0.955886
1.03975
1.03993
1.03865
1.03593
1.03124
1.02465
1.01637
1.00701
0.997225
0.987677
0.978816
0.971006
0.964361
0.959022
0.95495
1.04054
1.04075
1.03947
1.0367
1.03189
1.02511
1.0166
1.00699
0.996965
0.98721
0.978183
0.970248
0.963512
0.958109
0.953993
1.04136
1.0416
1.04032
1.03749
1.03256
1.02559
1.01683
1.00696
0.996686
0.986721
0.977525
0.969464
0.962636
0.95717
0.953013
1.0422
1.04248
1.04119
1.0383
1.03325
1.02607
1.01705
1.00691
0.996386
0.986206
0.976841
0.968654
0.961736
0.956209
0.952011
1.04307
1.04338
1.04208
1.03914
1.03395
1.02656
1.01727
1.00685
0.996065
0.985666
0.976129
0.967816
0.960809
0.955221
0.950984
1.04396
1.0443
1.04301
1.04
1.03467
1.02705
1.01749
1.00677
0.99572
0.985098
0.975389
0.966951
0.959856
0.954209
0.949934
1.04487
1.04526
1.04396
1.04089
1.0354
1.02755
1.0177
1.00668
0.99535
0.984501
0.974618
0.966055
0.958874
0.953169
0.948858
1.04582
1.04624
1.04494
1.0418
1.03616
1.02806
1.0179
1.00657
0.994953
0.983873
0.973816
0.965129
0.957864
0.952104
0.947759
1.04679
1.04726
1.04595
1.04275
1.03693
1.02857
1.01809
1.00643
0.994528
0.983213
0.97298
0.964171
0.956823
0.95101
0.946632
1.04779
1.0483
1.047
1.04372
1.03773
1.02909
1.01827
1.00628
0.994071
0.982518
0.97211
0.96318
0.955752
0.949888
0.94548
1.04882
1.04939
1.04808
1.04472
1.03854
1.02961
1.01844
1.00609
0.993581
0.981787
0.971204
0.962154
0.954649
0.948736
0.9443
1.04989
1.0505
1.04919
1.04575
1.03937
1.03013
1.0186
1.00588
0.993055
0.981018
0.97026
0.961093
0.953513
0.947555
0.943093
1.05099
1.05165
1.05034
1.04681
1.04022
1.03066
1.01874
1.00564
0.992491
0.980207
0.969276
0.959994
0.952343
0.946342
0.941857
1.05212
1.05284
1.05153
1.04791
1.04109
1.03119
1.01886
1.00537
0.991887
0.979355
0.968251
0.958858
0.951139
0.945098
0.940593
1.05329
1.05407
1.05276
1.04904
1.04198
1.03171
1.01896
1.00506
0.991239
0.978456
0.967182
0.957681
0.949898
0.943821
0.939297
1.0545
1.05534
1.05404
1.0502
1.04289
1.03223
1.01903
1.00471
0.990544
0.977511
0.966068
0.956464
0.948622
0.942512
0.937973
1.05575
1.05666
1.05535
1.05141
1.04382
1.03275
1.01908
1.00431
0.9898
0.976514
0.964907
0.955204
0.947306
0.941167
0.936616
1.05704
1.05802
1.05672
1.05265
1.04477
1.03326
1.01909
1.00387
0.989002
0.975465
0.963698
0.9539
0.945952
0.939789
0.935229
1.05838
1.05943
1.05813
1.05393
1.04573
1.03376
1.01907
1.00338
0.988147
0.97436
0.962436
0.952549
0.944556
0.938374
0.933808
1.05976
1.06089
1.05959
1.05525
1.04672
1.03424
1.01901
1.00284
0.987232
0.973196
0.961121
0.951152
0.943121
0.936923
0.932355
1.06119
1.0624
1.06111
1.05661
1.04771
1.03471
1.0189
1.00223
0.986251
0.97197
0.95975
0.949706
0.941641
0.935434
0.930867
1.06267
1.06397
1.06268
1.05801
1.04873
1.03516
1.01875
1.00155
0.985202
0.97068
0.958322
0.94821
0.94012
0.933908
0.929347
1.06421
1.0656
1.06431
1.05946
1.04975
1.03558
1.01853
1.00081
0.98408
0.969321
0.956833
0.946661
0.938552
0.932341
0.927789
1.0658
1.06729
1.066
1.06096
1.05078
1.03597
1.01826
0.999989
0.982879
0.96789
0.955283
0.94506
0.93694
0.930736
0.926197
1.06745
1.06905
1.06776
1.0625
1.05183
1.03632
1.01792
0.999084
0.981595
0.966384
0.953666
0.943403
0.93528
0.929089
0.924567
1.06917
1.07087
1.06959
1.06408
1.05287
1.03663
1.01749
0.998088
0.980224
0.964801
0.951984
0.94169
0.933573
0.927403
0.922901
1.07095
1.07277
1.07149
1.06572
1.05392
1.03689
1.01699
0.996995
0.978758
0.963134
0.950231
0.939918
0.931817
0.925672
0.921196
1.0728
1.07475
1.07347
1.0674
1.05495
1.03708
1.01638
0.995796
0.977195
0.961382
0.948407
0.938088
0.930011
0.923901
0.919453
1.07473
1.07682
1.07553
1.06913
1.05598
1.03721
1.01567
0.994484
0.975526
0.959541
0.946508
0.936196
0.928154
0.922084
0.91767
1.07673
1.07897
1.07767
1.07091
1.05699
1.03725
1.01485
0.993049
0.973748
0.957607
0.944534
0.934243
0.926247
0.920225
0.915849
1.07882
1.08122
1.0799
1.07273
1.05797
1.0372
1.01389
0.991484
0.971853
0.955576
0.942481
0.932225
0.924285
0.918319
0.913985
1.081
1.08356
1.08223
1.07459
1.05891
1.03704
1.01279
0.989778
0.969838
0.953446
0.940348
0.930143
0.922272
0.91637
0.912083
1.08327
1.08602
1.08465
1.07649
1.0598
1.03676
1.01154
0.987922
0.967694
0.951211
0.938132
0.927995
0.920204
0.914373
0.910138
1.08564
1.08859
1.08717
1.07843
1.06063
1.03633
1.01012
0.985907
0.965417
0.948871
0.935832
0.925781
0.918083
0.912331
0.908153
1.08812
1.09128
1.08981
1.0804
1.06138
1.03575
1.0085
0.983722
0.963001
0.946421
0.933447
0.923499
0.915906
0.910241
0.906125
1.09072
1.0941
1.09255
1.08239
1.06203
1.03497
1.00669
0.981357
0.960442
0.943858
0.930975
0.92115
0.913675
0.908106
0.904056
1.09344
1.09707
1.09541
1.08439
1.06256
1.034
1.00465
0.978801
0.957732
0.94118
0.928414
0.918731
0.911387
0.905922
0.901943
1.09629
1.10019
1.09838
1.08638
1.06294
1.03278
1.00238
0.976046
0.954868
0.938386
0.925765
0.916245
0.909046
0.903692
0.89979
1.09928
1.10348
1.10148
1.08836
1.06314
1.03131
0.999844
0.973082
0.951845
0.935471
0.923025
0.91369
0.906649
0.901413
0.897591
1.10242
1.10694
1.1047
1.0903
1.06314
1.02954
0.997033
0.969899
0.94866
0.932437
0.920198
0.911068
0.904198
0.899089
0.895351
1.10573
1.1106
1.10804
1.09217
1.06288
1.02744
0.993926
0.96649
0.94531
0.929281
0.917279
0.908377
0.901692
0.896715
0.893066
1.10922
1.11446
1.1115
1.09394
1.06233
1.02498
0.990503
0.962848
0.941793
0.926005
0.914274
0.905621
0.899133
0.894297
0.89074
1.11291
1.11855
1.11506
1.09558
1.06143
1.02212
0.986748
0.958967
0.938107
0.922607
0.91118
0.902799
0.896522
0.89183
0.888368
1.1168
1.12287
1.11873
1.09704
1.06013
1.01883
0.982643
0.954844
0.934254
0.91909
0.908002
0.899915
0.89386
0.889319
0.885955
1.12093
1.12746
1.12247
1.09826
1.05838
1.01505
0.978175
0.950476
0.930233
0.915455
0.90474
0.896969
0.891148
0.886762
0.883496
1.12532
1.13232
1.12628
1.09918
1.05609
1.01076
0.973333
0.945864
0.926048
0.911707
0.901399
0.893967
0.888389
0.884161
0.880995
1.12999
1.13748
1.1301
1.09972
1.05319
1.00591
0.968108
0.941011
0.921701
0.907846
0.897982
0.890908
0.885583
0.881514
0.878449
1.13497
1.14295
1.1339
1.09978
1.04961
1.00047
0.962499
0.935922
0.917199
0.90388
0.894495
0.8878
0.882735
0.878826
0.875861
1.1403
1.14875
1.13761
1.09926
1.04526
0.994404
0.956506
0.930606
0.912549
0.899814
0.890941
0.884644
0.879845
0.876094
0.873227
1.14602
1.15488
1.14115
1.09804
1.04005
0.987695
0.950141
0.925076
0.907758
0.895656
0.887329
0.881447
0.876918
0.873323
0.87055
1.15217
1.16135
1.14443
1.09597
1.03389
0.980326
0.943418
0.919345
0.902836
0.891413
0.883665
0.878213
0.873955
0.870509
0.867827
1.15882
1.16815
1.14731
1.0929
1.02671
0.972295
0.936364
0.913433
0.897795
0.887096
0.879959
0.87495
0.870962
0.867657
0.865059
1.16602
1.17525
1.14964
1.08864
1.01841
0.963614
0.929009
0.907357
0.892646
0.882714
0.876218
0.871662
0.867939
0.864764
0.862243
1.17385
1.18261
1.15121
1.08302
1.00895
0.954314
0.921394
0.901142
0.887406
0.878284
0.872456
0.868359
0.864893
0.861833
0.85938
1.18239
1.19016
1.15178
1.07583
0.998271
0.944447
0.913568
0.894811