/*--------------------------------*- C++ -*----------------------------------*\
  =========                 |
  \\      /  F ield         | OpenFOAM: The Open Source CFD Toolbox
   \\    /   O peration     | Website:  https://openfoam.org
    \\  /    A nd           | Version:  6.0
     \\/     M anipulation  |
\*---------------------------------------------------------------------------*/
FoamFile
{
    version     2.0;
    format      ascii;
    class       volScalarField;
    location    "0.5";
    object      p;
}
// * * * * * * * * * * * * * * * * * * * * * * * * * * * * * * * * * * * * * //

dimensions      [0 2 -2 0 0 0 0];

internalField   nonuniform List<scalar> 
24000
(
1.00635
1.00608
1.00552
1.00472
1.00381
1.00292
1.00212
1.00142
1.00082
1.00036
0.999992
0.999763
1.00636
1.00613
1.00565
1.00494
1.00409
1.00322
1.0024
1.00164
1.00096
1.0004
0.999916
0.999609
1.00635
1.00611
1.0056
1.00486
1.00397
1.00306
1.00221
1.00144
1.00078
1.00026
0.999803
0.999542
1.00636
1.0061
1.00557
1.00481
1.0039
1.00298
1.00213
1.00137
1.00072
1.00022
0.999769
0.999513
1.00636
1.0061
1.00558
1.00484
1.00397
1.00306
1.00222
1.00146
1.0008
1.00028
0.999781
0.999485
1.00636
1.00611
1.0056
1.00488
1.00403
1.00313
1.0023
1.00153
1.00085
1.00031
0.999765
0.999432
1.00637
1.00611
1.00559
1.00488
1.00403
1.00313
1.0023
1.00152
1.00083
1.00027
0.99971
0.99936
1.00637
1.00611
1.00559
1.00487
1.00401
1.00311
1.00226
1.00148
1.00078
1.00021
0.999645
0.999288
1.00638
1.00611
1.00558
1.00486
1.004
1.0031
1.00224
1.00145
1.00074
1.00017
0.999592
0.999226
1.00639
1.00612
1.00559
1.00486
1.00401
1.00311
1.00225
1.00145
1.00073
1.00014
0.999552
0.999172
1.0064
1.00613
1.0056
1.00487
1.00401
1.00312
1.00226
1.00145
1.00072
1.00012
0.999517
0.999121
1.00641
1.00614
1.00561
1.00488
1.00402
1.00312
1.00226
1.00145
1.00071
1.0001
0.999481
0.999069
1.00642
1.00616
1.00562
1.00489
1.00403
1.00313
1.00226
1.00144
1.0007
1.00007
0.999443
0.999016
1.00643
1.00618
1.00564
1.0049
1.00404
1.00313
1.00226
1.00144
1.00068
1.00005
0.999405
0.998966
1.00644
1.0062
1.00567
1.00492
1.00406
1.00315
1.00227
1.00143
1.00067
1.00002
0.999369
0.998918
1.00645
1.00622
1.00569
1.00495
1.00408
1.00317
1.00228
1.00144
1.00066
0.999998
0.999335
0.998871
1.00647
1.00624
1.00571
1.00498
1.00411
1.00319
1.0023
1.00144
1.00065
0.999976
0.999301
0.998824
1.00648
1.00626
1.00573
1.005
1.00413
1.00321
1.00231
1.00144
1.00065
0.999954
0.999266
0.998778
1.00649
1.00627
1.00575
1.00502
1.00416
1.00323
1.00232
1.00145
1.00063
0.999929
0.999231
0.998732
1.00651
1.00629
1.00577
1.00504
1.00418
1.00324
1.00233
1.00144
1.00062
0.999903
0.999196
0.998687
1.00653
1.00631
1.00579
1.00506
1.00419
1.00326
1.00234
1.00144
1.00061
0.999877
0.99916
0.998642
1.00654
1.00633
1.00581
1.00508
1.00421
1.00327
1.00234
1.00144
1.00059
0.999851
0.999126
0.998598
1.00656
1.00635
1.00582
1.0051
1.00423
1.00329
1.00235
1.00144
1.00058
0.999825
0.999091
0.998554
1.00658
1.00636
1.00584
1.00512
1.00425
1.0033
1.00236
1.00144
1.00057
0.999799
0.999056
0.99851
1.0066
1.00638
1.00586
1.00514
1.00426
1.00331
1.00236
1.00143
1.00055
0.999772
0.99902
0.998465
1.00662
1.0064
1.00588
1.00516
1.00428
1.00333
1.00237
1.00143
1.00054
0.999743
0.998982
0.99842
1.00664
1.00642
1.0059
1.00518
1.0043
1.00334
1.00237
1.00142
1.00052
0.999713
0.998944
0.998374
1.00666
1.00644
1.00591
1.00519
1.00432
1.00335
1.00238
1.00142
1.0005
0.999682
0.998904
0.998328
1.00669
1.00647
1.00593
1.00521
1.00433
1.00336
1.00238
1.00141
1.00048
0.999649
0.998864
0.998282
1.00671
1.00649
1.00595
1.00523
1.00434
1.00337
1.00238
1.0014
1.00046
0.999616
0.998823
0.998236
1.00674
1.00652
1.00598
1.00525
1.00436
1.00338
1.00238
1.00139
1.00044
0.999582
0.998783
0.998189
1.00677
1.00654
1.006
1.00527
1.00437
1.00339
1.00238
1.00138
1.00042
0.999549
0.998742
0.998143
1.0068
1.00657
1.00603
1.00529
1.00439
1.0034
1.00238
1.00137
1.0004
0.999517
0.998702
0.998097
1.00683
1.0066
1.00605
1.00531
1.00441
1.00341
1.00238
1.00136
1.00038
0.999485
0.998662
0.998051
1.00686
1.00663
1.00609
1.00534
1.00443
1.00342
1.00239
1.00135
1.00036
0.999453
0.998621
0.998004
1.00689
1.00667
1.00612
1.00537
1.00445
1.00344
1.00239
1.00135
1.00034
0.999421
0.998581
0.997958
1.00692
1.0067
1.00615
1.0054
1.00448
1.00345
1.0024
1.00134
1.00032
0.999389
0.99854
0.99791
1.00696
1.00674
1.00619
1.00544
1.00451
1.00347
1.00241
1.00134
1.0003
0.999358
0.998498
0.997862
1.00699
1.00677
1.00622
1.00547
1.00453
1.00349
1.00242
1.00133
1.00028
0.999325
0.998456
0.997814
1.00703
1.00681
1.00626
1.0055
1.00456
1.00351
1.00243
1.00133
1.00027
0.999291
0.998413
0.997765
1.00706
1.00684
1.0063
1.00554
1.00459
1.00353
1.00243
1.00132
1.00024
0.999257
0.998369
0.997715
1.0071
1.00688
1.00633
1.00557
1.00462
1.00355
1.00244
1.00131
1.00022
0.999222
0.998324
0.997664
1.00714
1.00692
1.00637
1.0056
1.00464
1.00357
1.00244
1.0013
1.0002
0.999186
0.998279
0.997613
1.00718
1.00696
1.0064
1.00563
1.00467
1.00358
1.00245
1.0013
1.00018
0.99915
0.998233
0.997562
1.00722
1.007
1.00644
1.00567
1.00469
1.0036
1.00245
1.00129
1.00016
0.999113
0.998185
0.997509
1.00726
1.00704
1.00647
1.0057
1.00472
1.00361
1.00246
1.00128
1.00013
0.999076
0.998138
0.997456
1.0073
1.00708
1.00651
1.00573
1.00475
1.00363
1.00246
1.00127
1.00011
0.999037
0.998089
0.997402
1.00734
1.00712
1.00655
1.00577
1.00477
1.00365
1.00247
1.00126
1.00008
0.998998
0.99804
0.997348
1.00739
1.00716
1.00659
1.0058
1.0048
1.00366
1.00247
1.00125
1.00006
0.998958
0.997989
0.997293
1.00743
1.00721
1.00663
1.00584
1.00483
1.00368
1.00247
1.00123
1.00003
0.998919
0.997939
0.997237
1.00748
1.00726
1.00668
1.00587
1.00485
1.0037
1.00248
1.00122
1.00001
0.998878
0.997888
0.99718
1.00753
1.0073
1.00672
1.00591
1.00488
1.00372
1.00248
1.00121
0.999979
0.998837
0.997837
0.997123
1.00758
1.00735
1.00677
1.00595
1.00491
1.00373
1.00249
1.0012
0.999953
0.998796
0.997785
0.997064
1.00763
1.00741
1.00681
1.00599
1.00495
1.00375
1.00249
1.00119
0.999927
0.998756
0.997733
0.997005
1.00768
1.00746
1.00686
1.00604
1.00498
1.00377
1.0025
1.00118
0.9999
0.998715
0.997681
0.996945
1.00773
1.00751
1.00691
1.00608
1.00501
1.0038
1.0025
1.00117
0.999875
0.998674
0.997629
0.996884
1.00778
1.00757
1.00697
1.00613
1.00505
1.00382
1.00251
1.00116
0.999849
0.998632
0.997576
0.996822
1.00784
1.00763
1.00702
1.00618
1.00509
1.00384
1.00252
1.00115
0.999823
0.998591
0.997523
0.996759
1.0079
1.00769
1.00707
1.00623
1.00513
1.00387
1.00253
1.00114
0.999797
0.998549
0.997468
0.996695
1.00795
1.00775
1.00713
1.00628
1.00517
1.00389
1.00254
1.00113
0.999771
0.998506
0.997413
0.99663
1.00801
1.00781
1.00719
1.00633
1.00521
1.00392
1.00255
1.00112
0.999744
0.998463
0.997357
0.996564
1.00807
1.00787
1.00724
1.00638
1.00525
1.00395
1.00256
1.00112
0.999717
0.998419
0.997301
0.996497
1.00814
1.00793
1.0073
1.00643
1.00529
1.00397
1.00256
1.00111
0.999689
0.998374
0.997243
0.996428
1.0082
1.008
1.00736
1.00649
1.00533
1.004
1.00257
1.0011
0.999661
0.998329
0.997184
0.99636
1.00827
1.00806
1.00742
1.00654
1.00537
1.00403
1.00258
1.00109
0.999632
0.998283
0.997124
0.99629
1.00833
1.00813
1.00748
1.00659
1.00541
1.00405
1.00259
1.00108
0.999603
0.998237
0.997064
0.996219
1.0084
1.0082
1.00755
1.00665
1.00546
1.00408
1.0026
1.00106
0.999574
0.99819
0.997003
0.996147
1.00847
1.00827
1.00761
1.00671
1.0055
1.00411
1.00261
1.00105
0.999544
0.998143
0.996941
0.996075
1.00854
1.00834
1.00768
1.00676
1.00554
1.00414
1.00262
1.00104
0.999514
0.998095
0.996878
0.996
1.00862
1.00841
1.00774
1.00682
1.00559
1.00417
1.00263
1.00103
0.999485
0.998048
0.996815
0.995925
1.00869
1.00849
1.00781
1.00688
1.00564
1.0042
1.00264
1.00102
0.999455
0.997999
0.996751
0.995848
1.00877
1.00857
1.00788
1.00695
1.00569
1.00423
1.00265
1.00101
0.999425
0.997951
0.996686
0.99577
1.00885
1.00864
1.00795
1.00701
1.00574
1.00426
1.00266
1.00101
0.999395
0.997901
0.99662
0.99569
1.00893
1.00873
1.00803
1.00708
1.00579
1.0043
1.00268
1.001
0.999366
0.997852
0.996554
0.995609
1.00901
1.00881
1.0081
1.00714
1.00584
1.00433
1.00269
1.00099
0.999336
0.997801
0.996487
0.995525
1.0091
1.00889
1.00818
1.00721
1.0059
1.00437
1.0027
1.00098
0.999307
0.997751
0.996419
0.99544
1.00918
1.00898
1.00826
1.00729
1.00595
1.00441
1.00272
1.00097
0.999277
0.9977
0.996349
0.995353
1.00927
1.00907
1.00834
1.00736
1.00601
1.00445
1.00274
1.00097
0.999248
0.997648
0.996279
0.995264
1.00936
1.00915
1.00843
1.00744
1.00607
1.00449
1.00276
1.00096
0.999217
0.997596
0.996206
0.995173
1.00945
1.00925
1.00851
1.00751
1.00613
1.00453
1.00277
1.00096
0.999188
0.997542
0.996133
0.99508
1.00954
1.00934
1.0086
1.00759
1.00619
1.00457
1.00279
1.00095
0.999157
0.997488
0.996058
0.994985
1.00964
1.00943
1.00869
1.00767
1.00626
1.00462
1.00281
1.00095
0.999127
0.997433
0.995981
0.994888
1.00973
1.00953
1.00878
1.00775
1.00632
1.00466
1.00283
1.00094
0.999095
0.997376
0.995902
0.994789
1.00983
1.00963
1.00887
1.00784
1.00639
1.00471
1.00286
1.00094
0.999064
0.997318
0.995822
0.994687
1.00993
1.00973
1.00896
1.00792
1.00646
1.00476
1.00288
1.00093
0.999031
0.997259
0.995739
0.994584
1.01003
1.00983
1.00906
1.00801
1.00653
1.00481
1.0029
1.00093
0.998998
0.997199
0.995655
0.994478
1.01014
1.00994
1.00915
1.0081
1.0066
1.00486
1.00292
1.00093
0.998964
0.997136
0.995568
0.994369
1.01024
1.01005
1.00925
1.00819
1.00667
1.00491
1.00295
1.00092
0.998929
0.997074
0.99548
0.994259
1.01035
1.01016
1.00936
1.00828
1.00675
1.00496
1.00297
1.00092
0.998894
0.997009
0.99539
0.994146
1.01046
1.01027
1.00946
1.00838
1.00682
1.00501
1.003
1.00091
0.998858
0.996943
0.995298
0.994031
1.01057
1.01038
1.00957
1.00847
1.0069
1.00507
1.00303
1.00091
0.998821
0.996876
0.995203
0.993913
1.01068
1.0105
1.00968
1.00857
1.00698
1.00513
1.00305
1.0009
0.998784
0.996808
0.995107
0.993793
1.0108
1.01062
1.00979
1.00867
1.00706
1.00518
1.00308
1.0009
0.998746
0.996737
0.995009
0.99367
1.01092
1.01074
1.0099
1.00878
1.00715
1.00525
1.00311
1.00089
0.998707
0.996666
0.994908
0.993545
1.01104
1.01086
1.01002
1.00889
1.00723
1.00531
1.00314
1.00089
0.998667
0.996592
0.994805
0.993417
1.01116
1.01099
1.01014
1.00899
1.00732
1.00537
1.00317
1.00089
0.998627
0.996518
0.994701
0.993286
1.01129
1.01112
1.01026
1.00911
1.00741
1.00543
1.0032
1.00088
0.998586
0.996441
0.994593
0.993153
1.01142
1.01125
1.01038
1.00922
1.00751
1.0055
1.00323
1.00088
0.998544
0.996364
0.994484
0.993017
1.01155
1.01138
1.01051
1.00934
1.0076
1.00557
1.00327
1.00087
0.998501
0.996284
0.994371
0.992878
1.01168
1.01152
1.01064
1.00945
1.0077
1.00564
1.0033
1.00087
0.998457
0.996202
0.994257
0.992736
1.01182
1.01166
1.01077
1.00958
1.0078
1.00571
1.00333
1.00086
0.998411
0.996119
0.99414
0.992591
1.01195
1.0118
1.01091
1.0097
1.0079
1.00578
1.00337
1.00086
0.998366
0.996034
0.994021
0.992443
1.01209
1.01194
1.01104
1.00982
1.008
1.00585
1.0034
1.00085
0.998318
0.995946
0.993899
0.992292
1.01224
1.01209
1.01118
1.00995
1.00811
1.00592
1.00344
1.00084
0.998269
0.995857
0.993774
0.992139
1.01239
1.01224
1.01133
1.01008
1.00821
1.006
1.00347
1.00084
0.998219
0.995765
0.993646
0.991981
1.01254
1.0124
1.01147
1.01022
1.00832
1.00607
1.00351
1.00083
0.998168
0.995672
0.993517
0.991822
1.01269
1.01255
1.01162
1.01035
1.00843
1.00615
1.00354
1.00082
0.998115
0.995576
0.993383
0.991658
1.01284
1.01271
1.01177
1.01049
1.00854
1.00623
1.00358
1.00081
0.998061
0.995479
0.993248
0.991492
1.013
1.01287
1.01193
1.01063
1.00866
1.00631
1.00362
1.0008
0.998005
0.995379
0.993109
0.991322
1.01316
1.01304
1.01208
1.01077
1.00877
1.00639
1.00366
1.0008
0.997949
0.995277
0.992968
0.991149
1.01333
1.01321
1.01224
1.01092
1.00889
1.00647
1.00369
1.00079
0.99789
0.995173
0.992823
0.990973
1.0135
1.01338
1.01241
1.01106
1.00901
1.00656
1.00373
1.00078
0.997831
0.995066
0.992677
0.990793
1.01367
1.01355
1.01257
1.01121
1.00913
1.00664
1.00377
1.00077
0.99777
0.994957
0.992526
0.99061
1.01384
1.01373
1.01274
1.01137
1.00926
1.00673
1.00381
1.00076
0.997707
0.994847
0.992373
0.990424
1.01402
1.01391
1.01291
1.01153
1.00939
1.00682
1.00385
1.00074
0.997643
0.994733
0.992217
0.990233
1.0142
1.0141
1.01309
1.01169
1.00952
1.00691
1.0039
1.00073
0.997578
0.994617
0.992057
0.99004
1.01439
1.01429
1.01327
1.01185
1.00965
1.007
1.00394
1.00072
0.99751
0.994498
0.991894
0.989842
1.01458
1.01448
1.01345
1.01202
1.00979
1.0071
1.00398
1.00071
0.997441
0.994378
0.991729
0.989641
1.01477
1.01468
1.01364
1.01219
1.00992
1.00719
1.00402
1.00069
0.99737
0.994253
0.991559
0.989436
1.01497
1.01488
1.01383
1.01236
1.01006
1.00729
1.00407
1.00068
0.997298
0.994127
0.991386
0.989227
1.01517
1.01508
1.01403
1.01254
1.01021
1.00739
1.00411
1.00066
0.997222
0.993997
0.991209
0.989014
1.01537
1.01529
1.01423
1.01272
1.01035
1.00749
1.00415
1.00065
0.997146
0.993865
0.991029
0.988797
1.01558
1.0155
1.01443
1.0129
1.0105
1.00759
1.0042
1.00063
0.997067
0.99373
0.990845
0.988575
1.01579
1.01572
1.01464
1.01309
1.01065
1.00769
1.00424
1.00061
0.996987
0.993591
0.990658
0.98835
1.01601
1.01594
1.01485
1.01328
1.01081
1.0078
1.00429
1.0006
0.996903
0.993449
0.990466
0.98812
1.01623
1.01616
1.01506
1.01348
1.01097
1.00791
1.00433
1.00058
0.996819
0.993305
0.99027
0.987886
1.01645
1.01639
1.01528
1.01367
1.01113
1.00802
1.00438
1.00056
0.996731
0.993156
0.99007
0.987646
1.01668
1.01663
1.01551
1.01388
1.01129
1.00813
1.00443
1.00053
0.996641
0.993005
0.989867
0.987403
1.01691
1.01687
1.01573
1.01408
1.01145
1.00824
1.00447
1.00051
0.996548
0.992849
0.989658
0.987155
1.01715
1.01711
1.01597
1.0143
1.01163
1.00836
1.00452
1.00049
0.996454
0.992691
0.989446
0.986902
1.01739
1.01736
1.01621
1.01451
1.0118
1.00847
1.00457
1.00046
0.996356
0.992528
0.989229
0.986643
1.01764
1.01761
1.01645
1.01473
1.01197
1.00859
1.00462
1.00044
0.996256
0.992362
0.989007
0.98638
1.01789
1.01787
1.0167
1.01496
1.01215
1.00872
1.00467
1.00041
0.996153
0.992191
0.98878
0.986111
1.01815
1.01814
1.01695
1.01519
1.01234
1.00884
1.00472
1.00038
0.996048
0.992018
0.98855
0.985838
1.01841
1.01841
1.01721
1.01542
1.01253
1.00896
1.00476
1.00035
0.995939
0.991839
0.988313
0.985558
1.01868
1.01868
1.01747
1.01566
1.01272
1.00909
1.00482
1.00032
0.995828
0.991656
0.988072
0.985273
1.01895
1.01896
1.01774
1.0159
1.01291
1.00922
1.00487
1.00029
0.995712
0.991469
0.987824
0.984982
1.01923
1.01925
1.01802
1.01615
1.01311
1.00936
1.00492
1.00025
0.995594
0.991277
0.987573
0.984685
1.01952
1.01954
1.0183
1.01641
1.01332
1.00949
1.00497
1.00022
0.995472
0.99108
0.987314
0.984382
1.01981
1.01984
1.01859
1.01667
1.01352
1.00963
1.00502
1.00018
0.995347
0.990879
0.987051
0.984073
1.0201
1.02015
1.01888
1.01693
1.01373
1.00977
1.00507
1.00014
0.995217
0.990672
0.986781
0.983756
1.02041
1.02046
1.01918
1.0172
1.01395
1.00991
1.00512
1.00009
0.995085
0.99046
0.986505
0.983434
1.02072
1.02078
1.01949
1.01748
1.01417
1.01005
1.00517
1.00005
0.994947
0.990242
0.986223
0.983105
1.02103
1.02111
1.0198
1.01776
1.0144
1.0102
1.00522
1
0.994806
0.990019
0.985935
0.982769
1.02135
1.02144
1.02012
1.01805
1.01463
1.01035
1.00527
0.999952
0.99466
0.98979
0.985639
0.982425
1.02168
1.02178
1.02045
1.01835
1.01486
1.0105
1.00533
0.9999
0.99451
0.989555
0.985337
0.982075
1.02202
1.02213
1.02079
1.01865
1.0151
1.01065
1.00538
0.999845
0.994354
0.989313
0.985027
0.981716
1.02237
1.02248
1.02113
1.01896
1.01534
1.01081
1.00543
0.999787
0.994194
0.989066
0.98471
0.98135
1.02272
1.02285
1.02148
1.01928
1.01559
1.01097
1.00548
0.999726
0.994028
0.988811
0.984385
0.980976
1.02308
1.02322
1.02184
1.0196
1.01585
1.01113
1.00553
0.999662
0.993858
0.98855
0.984054
0.980594
1.02344
1.0236
1.0222
1.01993
1.01611
1.01129
1.00558
0.999594
0.993681
0.988281
0.983713
0.980203
1.02382
1.02399
1.02258
1.02027
1.01637
1.01146
1.00563
0.999523
0.993499
0.988006
0.983365
0.979804
1.0242
1.02439
1.02296
1.02061
1.01664
1.01163
1.00567
0.999447
0.99331
0.987722
0.983008
0.979395
1.0246
1.02479
1.02336
1.02097
1.01692
1.0118
1.00572
0.999369
0.993116
0.987431
0.982642
0.978978
1.025
1.02521
1.02376
1.02133
1.0172
1.01197
1.00577
0.999285
0.992914
0.98713
0.982267
0.978551
1.02541
1.02563
1.02417
1.0217
1.01749
1.01215
1.00581
0.999198
0.992706
0.986823
0.981883
0.978115
1.02583
1.02607
1.02459
1.02207
1.01779
1.01233
1.00585
0.999104
0.99249
0.986505
0.981488
0.977668
1.02626
1.02651
1.02502
1.02246
1.01809
1.01251
1.0059
0.999007
0.992267
0.986179
0.981085
0.977212
1.0267
1.02697
1.02546
1.02286
1.01839
1.01269
1.00594
0.998904
0.992035
0.985843
0.98067
0.976744
1.02714
1.02744
1.02592
1.02326
1.01871
1.01288
1.00597
0.998796
0.991796
0.985497
0.980246
0.976267
1.0276
1.02792
1.02638
1.02368
1.01903
1.01306
1.00601
0.998681
0.991547
0.985141
0.979809
0.975777
1.02807
1.02841
1.02686
1.0241
1.01935
1.01325
1.00604
0.99856
0.991291
0.984775
0.979363
0.975277
1.02856
1.02891
1.02734
1.02454
1.01969
1.01345
1.00607
0.998432
0.991023
0.984397
0.978903
0.974765
1.02905
1.02942
1.02784
1.02498
1.02003
1.01364
1.0061
0.998298
0.990747
0.984008
0.978433
0.974241
1.02955
1.02995
1.02835
1.02544
1.02037
1.01384
1.00613
0.998155
0.99046
0.983606
0.977949
0.973704
1.03007
1.03049
1.02888
1.02591
1.02073
1.01403
1.00615
0.998005
0.990163
0.983193
0.977453
0.973155
1.0306
1.03104
1.02942
1.02639
1.02109
1.01423
1.00616
0.997846
0.989853
0.982767
0.976943
0.972592
1.03114
1.03161
1.02997
1.02688
1.02146
1.01444
1.00618
0.997679
0.989533
0.982328
0.97642
0.972016
1.03169
1.03219
1.03054
1.02738
1.02184
1.01464
1.00619
0.997501
0.989199
0.981874
0.975882
0.971425
1.03226
1.03279
1.03112
1.0279
1.02222
1.01484
1.00619
0.997314
0.988853
0.981407
0.97533
0.970821
1.03284
1.0334
1.03171
1.02842
1.02261
1.01505
1.00619
0.997116
0.988493
0.980924
0.974762
0.970202
1.03344
1.03403
1.03232
1.02896
1.02301
1.01525
1.00618
0.996908
0.988119
0.980427
0.97418
0.969568
1.03405
1.03467
1.03295
1.02952
1.02342
1.01546
1.00616
0.996687
0.98773
0.979912
0.973581
0.968918
1.03468
1.03533
1.0336
1.03009
1.02384
1.01566
1.00614
0.996454
0.987326
0.979382
0.972966
0.968252
1.03532
1.03601
1.03426
1.03067
1.02426
1.01587
1.00611
0.996206
0.986905
0.978834
0.972332
0.96757
1.03599
1.03671
1.03494
1.03127
1.02469
1.01607
1.00607
0.995946
0.986468
0.978269
0.971682
0.966871
1.03666
1.03743
1.03564
1.03188
1.02513
1.01627
1.00602
0.995669
0.986012
0.977684
0.971013
0.966154
1.03736
1.03816
1.03636
1.03251
1.02558
1.01648
1.00596
0.995378
0.985539
0.977081
0.970326
0.96542
1.03807
1.03892
1.0371
1.03316
1.02604
1.01667
1.00589
0.995069
0.985045
0.976457
0.969618
0.964666
1.03881
1.0397
1.03787
1.03382
1.0265
1.01687
1.00581
0.994743
0.984531
0.975813
0.968892
0.963895
1.03956
1.0405
1.03865
1.0345
1.02697
1.01706
1.00571
0.994397
0.983995
0.975146
0.968143
0.963103
1.04034
1.04133
1.03946
1.0352
1.02745
1.01725
1.0056
0.994032
0.983438
0.974458
0.967374
0.962292
1.04114
1.04217
1.04029
1.03592
1.02794
1.01743
1.00548
0.993644
0.982856
0.973745
0.966582
0.961459
1.04195
1.04305
1.04114
1.03665
1.02843
1.01761
1.00534
0.993235
0.982251
0.973009
0.965768
0.960607
1.0428
1.04395
1.04202
1.03741
1.02893
1.01778
1.00518
0.992802
0.981619
0.972248
0.96493
0.959731
1.04366
1.04487
1.04293
1.03818
1.02944
1.01794
1.005
0.992344
0.98096
0.971461
0.964068
0.958835
1.04456
1.04583
1.04386
1.03898
1.02996
1.0181
1.0048
0.991858
0.980273
0.970646
0.96318
0.957914
1.04547
1.04681
1.04483
1.03979
1.03048
1.01824
1.00458
0.991344
0.979558
0.969803
0.962268
0.956971
1.04642
1.04782
1.04582
1.04063
1.031
1.01837
1.00433
0.9908
0.97881
0.968931
0.961327
0.956002
1.04739
1.04887
1.04685
1.04149
1.03153
1.01848
1.00406
0.990224
0.978031
0.96803
0.960361
0.95501
1.0484
1.04995
1.0479
1.04237
1.03206
1.01858
1.00375
0.989614
0.977218
0.967096
0.959365
0.953991
1.04943
1.05106
1.049
1.04327
1.0326
1.01867
1.00342
0.988969
0.97637
0.966131
0.958341
0.952947
1.0505
1.05221
1.05012
1.0442
1.03313
1.01873
1.00305
0.988286
0.975484
0.965131
0.957286
0.951875
1.0516
1.0534
1.05129
1.04515
1.03367
1.01877
1.00265
0.987563
0.974561
0.964098
0.956201
0.950777
1.05273
1.05463
1.05249
1.04612
1.03421
1.01878
1.00221
0.986797
0.973597
0.963027
0.955084
0.949649
1.05391
1.05591
1.05374
1.04712
1.03474
1.01877
1.00173
0.985987
0.972591
0.961921
0.953934
0.948493
1.05512
1.05722
1.05502
1.04814
1.03526
1.01872
1.0012
0.985128
0.971541
0.960775
0.952751
0.947307
1.05637
1.05858
1.05635
1.04918
1.03578
1.01865
1.00063
0.984221
0.970446
0.959589
0.951533
0.946091
1.05766
1.05999
1.05773
1.05025
1.03629
1.01853
1
0.98326
0.969302
0.958362
0.95028
0.944844
1.059
1.06146
1.05915
1.05134
1.03679
1.01837
0.999317
0.982244
0.96811
0.957094
0.948991
0.943565
1.06038
1.06297
1.06063
1.05246
1.03727
1.01816
0.998574
0.981168
0.966865
0.955781
0.947664
0.942252
1.06181
1.06455
1.06215
1.05359
1.03772
1.0179
0.997767
0.980032
0.965567
0.954423
0.9463
0.940907
1.06329
1.06618
1.06373
1.05475
1.03816
1.01758
0.996889
0.978829
0.964213
0.953019
0.944896
0.939528
1.06482
1.06788
1.06537
1.05592
1.03856
1.01719
0.995939
0.977559
0.962802
0.951567
0.943453
0.938114
1.06641
1.06965
1.06706
1.05712
1.03893
1.01674
0.994908
0.976216
0.96133
0.950065
0.941968
0.936664
1.06806
1.07149
1.06882
1.05832
1.03925
1.01621
0.993794
0.974798
0.959796
0.948514
0.940442
0.935178
1.06978
1.0734
1.07064
1.05954
1.03953
1.01559
0.992588
0.973301
0.958198
0.946911
0.938872
0.933655
1.07155
1.07539
1.07252
1.06077
1.03975
1.01488
0.991286
0.971721
0.956533
0.945255
0.93726
0.932094
1.0734
1.07747
1.07448
1.062
1.0399
1.01407
0.98988
0.970054
0.9548
0.943545
0.935604
0.930495
1.07533
1.07965
1.0765
1.06323
1.03998
1.01314
0.988365
0.968297
0.952997
0.941779
0.933902
0.928857
1.07733
1.08192
1.07859
1.06445
1.03996
1.01209
0.986733
0.966446
0.95112
0.939957
0.932155
0.927178
1.07941
1.08429
1.08075
1.06565
1.03985
1.01091
0.984978
0.964498
0.94917
0.938078
0.930361
0.92546
1.08158
1.08677
1.08299
1.06683
1.03962
1.00957
0.983092
0.962448
0.947143
0.936141
0.928521
0.9237
1.08385
1.08937
1.0853
1.06797
1.03927
1.00809
0.981068
0.960294
0.945039
0.934144
0.926633
0.921899
1.08622
1.0921
1.08767
1.06907
1.03876
1.00642
0.978899
0.958031
0.942856
0.932088
0.924697
0.920056
1.0887
1.09496
1.09012
1.07009
1.03809
1.00458
0.976578
0.955657
0.940592
0.929971
0.922713
0.918169
1.09129
1.09796
1.09264
1.07104
1.03722
1.00253
0.974098
0.953169
0.938246
0.927794
0.92068
0.916239
1.09401
1.10112
1.09521
1.07188
1.03615
1.00026
0.971451
0.950565
0.935818
0.925556
0.918599
0.914266
1.09687
1.10444
1.09784
1.07259
1.03484
0.997761
0.968631
0.947843
0.933307
0.923257
0.916468
0.912249
1.09987
1.10793
1.10052
1.07315
1.03326
0.995014
0.965633
0.945001
0.930714
0.920897
0.914289
0.910189
1.10303
1.1116
1.10322
1.07352
1.03139
0.992003
0.96245
0.942037
0.928037
0.918476
0.912061
0.908085
1.10636
1.11547
1.10594
1.07367
1.02919
0.988712
0.95908
0.938953
0.925278
0.915996
0.909785
0.905936
1.10988
1.11954
1.10866
1.07356
1.02663
0.985126
0.955519
0.935748
0.922438
0.913457
0.90746
0.903743
1.11361
1.12382
1.11134
1.07313
1.02367
0.98123
0.951764
0.932423
0.919518
0.91086
0.905088
0.901505
1.11756
1.12832
1.11395
1.07234
1.02028
0.977011
0.947816
0.928981
0.91652
0.908207
0.902669
0.899223
1.12176
1.13305
1.11646
1.07113
1.01641
0.97246
0.943677
0.925424
0.913447
0.9055
0.900203
0.896896
1.12624
1.13801
1.11881
1.06942
1.01203
0.967567
0.939349
0.921757
0.910301
0.902739
0.897692
0.894524
1.13102
1.14319
1.12094
1.06715
1.0071
0.962328
0.934839
0.917985
0.907087
0.89993
0.895136
0.892108
1.13614
1.1486
1.12277
1.06423
1.00158
0.956742
0.930155
0.914115
0.903809
0.897072
0.892537
0.889646
1.14163
1.15421
1.12423
1.06059
0.995435
0.950814
0.925308
0.910152
0.900471
0.89417
0.889896
0.88714
1.14753
1.16
1.1252
1.05612
0.988636
0.944555
0.920313
0.906107
0.897079
0.891228
0.887213
0.88459
1.1539
1.16594
1.12558
1.05072
0.981162
0.93798
0.915185
0.901988
0.893639
0.888248
0.884491
0.881994
1.16079
1.17196
1.1252
1.04431
0.972998
0.931117
0.909944
0.897806
0.890158
0.885234
0.881729
0.879355
1.16825
1.178
1.12392
1.03676
0.964144
0.923996
0.904612
0.893573
0.886643
0.88219
0.87893
0.876671
1.17634
1.18396
1.12155
1.02799
0.954614
0.916661
0.899214
0.8893
0.883103
0.87912
0.876094
0.873944
1.18513
1.18969
1.11788
1.01791
0.944442
0.909163
0.893774
0.885001
0.879543
0.876029
0.873223
0.871173
1.19469
1.19502
1.11267
1.00643
0.933685
0.901559
0.888321
0.88069
0.875975
0.87292
0.870317
0.86836
1.20509
1.19974
1.10569
0.99351
0.922425
0.893917
0.882882
0.876379
0.872406
0.869797
0.867378
0.865507
1.21639
1.20355
1.09664
0.979125
0.910774
0.886308
0.877484
0.872085
0.868845
0.866664
0.864407
0.862615
1.22863
1.20612
1.08525
0.963305
0.898874
0.878807
0.872154
0.86782
0.8653
0.863525
0.861406
0.859687
1.24184
1.20699
1.07124
0.94614
0.886893
0.871488
0.866916
0.863599
0.861781
0.860384
0.858382
0.856729
1.25601
1.20563
1.05433
0.9278
0.875028
0.864422
0.861791
0.859436
0.858292
0.857239
0.855331
0.853736
1.27107
1.20139
1.03428
0.90855
0.863484
0.85766
0.856794
0.855346
0.854859
0.854131
0.852308
0.850759
1.28684
1.19345
1.01094
0.88878
0.852497
0.851265
0.851925
0.851292
0.8514
0.850935
0.849179
0.847678
1.30299
1.18084
0.984306
0.868951
0.842213
0.845252
0.847286
0.847482
0.848223
0.848029
0.846294
0.844721
1.31902
1.16243
0.954707
0.849848
0.832928
0.839442
0.842364
0.843183
0.844449
0.844595
0.842985
0.841428
1.33395
1.13679
0.922585
0.831734
0.825116
0.835072
0.83895
0.840404
0.84202
0.8422
0.840397
0.838536
1.34661
1.10306
0.891015
0.814959
0.815914
0.827846
0.832593
0.83517
0.837857
0.838676
0.837062
0.83506
1.35338
1.05683
0.864166
0.80828
0.815783
0.827384
0.830944
0.833103
0.835825
0.836732
0.835106
0.833014
1.35578
0.984103
0.813319
0.78348
0.804625
0.821901
0.828004
0.831565
0.835056
0.836346
0.83495
0.832981
0.996291
0.996316
0.996893
0.997535
0.997908
0.997893
0.997615
0.99731
0.997138
0.997112
0.997159
0.997206
0.996673
0.996624
0.997065
0.997574
0.997866
0.997841
0.997595
0.997319
0.997156
0.997125
0.997165
0.997211
0.997115
0.996963
0.997212
0.997544
0.997747
0.997736
0.997554
0.997331
0.997182
0.997142
0.997172
0.997217
0.997459
0.997205
0.997277
0.997467
0.99762
0.997648
0.997539
0.997364
0.997224
0.997169
0.997185
0.997227
0.997662
0.997334
0.997291
0.997406
0.997546
0.997609
0.997549
0.997403
0.997263
0.997193
0.997196
0.997234
0.997758
0.997407
0.997318
0.997399
0.997527
0.997597
0.997554
0.997422
0.997285
0.997208
0.997202
0.997237
0.997815
0.997479
0.997373
0.997426
0.997525
0.997579
0.997539
0.997422
0.997296
0.997221
0.997211
0.99724
0.997874
0.997559
0.997439
0.997456
0.99752
0.997555
0.997519
0.997421
0.99731
0.997239
0.997222
0.997244
0.997937
0.997634
0.997496
0.997479
0.997512
0.997535
0.997505
0.997422
0.997322
0.997251
0.997228
0.997244
0.997988
0.997692
0.997538
0.997497
0.997509
0.997521
0.997494
0.99742
0.997328
0.997258
0.997232
0.997244
0.998021
0.997734
0.997572
0.997515
0.99751
0.997512
0.997482
0.997413
0.997328
0.997262
0.997235
0.997245
0.998042
0.997767
0.997603
0.997533
0.997513
0.997502
0.997468
0.997403
0.997325
0.997264
0.997237
0.997244
0.998056
0.997794
0.997629
0.997547
0.997513
0.997491
0.997453
0.997392
0.997321
0.997264
0.997236
0.997238
0.998067
0.997816
0.997649
0.997557
0.99751
0.997479
0.997439
0.997382
0.997315
0.99726
0.99723
0.997228
0.998074
0.997832
0.997663
0.997562
0.997506
0.997468
0.997426
0.99737
0.997306
0.997252
0.99722
0.997213
0.998075
0.99784
0.997671
0.997564
0.9975
0.997457
0.997412
0.997355
0.997293
0.997239
0.997205
0.997196
0.998071
0.997843
0.997675
0.997564
0.997494
0.997444
0.997395
0.997337
0.997275
0.997221
0.997187
0.997175
0.998063
0.997843
0.997676
0.997562
0.997486
0.99743
0.997376
0.997317
0.997254
0.997201
0.997166
0.997153
0.998052
0.99784
0.997674
0.997556
0.997474
0.997412
0.997355
0.997293
0.99723
0.997177
0.997143
0.997131
0.99804
0.997833
0.997668
0.997546
0.997459
0.997392
0.99733
0.997267
0.997205
0.997153
0.997119
0.997107
0.998025
0.997823
0.997658
0.997533
0.997441
0.997369
0.997304
0.997239
0.997178
0.997127
0.997095
0.997083
0.998007
0.997809
0.997644
0.997515
0.997419
0.997343
0.997277
0.997211
0.99715
0.997101
0.99707
0.997058
0.997986
0.997791
0.997625
0.997494
0.997395
0.997317
0.997248
0.997182
0.997122
0.997074
0.997044
0.997032
0.99796
0.997769
0.997603
0.99747
0.997369
0.997289
0.997219
0.997153
0.997094
0.997047
0.997017
0.997005
0.997932
0.997744
0.997578
0.997444
0.997341
0.99726
0.99719
0.997124
0.997065
0.997018
0.996988
0.996976
0.9979
0.997716
0.997551
0.997416
0.997313
0.99723
0.99716
0.997094
0.997035
0.996988
0.996958
0.996946
0.997867
0.997686
0.997522
0.997388
0.997283
0.9972
0.997129
0.997063
0.997004
0.996957
0.996926
0.996914
0.997832
0.997654
0.997492
0.997358
0.997252
0.997169
0.997097
0.997031
0.996971
0.996924
0.996893
0.99688
0.997795
0.997621
0.997461
0.997327
0.997221
0.997137
0.997064
0.996997
0.996937
0.996889
0.996858
0.996844
0.997758
0.997588
0.997429
0.997295
0.997188
0.997103
0.997029
0.996961
0.996901
0.996853
0.996821
0.996807
0.997721
0.997554
0.997396
0.997261
0.997153
0.997066
0.996992
0.996924
0.996863
0.996815
0.996782
0.996768
0.997683
0.997519
0.997362
0.997227
0.997116
0.997028
0.996953
0.996884
0.996823
0.996775
0.996742
0.996728
0.997645
0.997484
0.997327
0.99719
0.997077
0.996988
0.996911
0.996842
0.996781
0.996733
0.9967
0.996686
0.997607
0.997447
0.99729
0.997151
0.997036
0.996946
0.996868
0.996799
0.996737
0.996689
0.996656
0.996642
0.997568
0.997409
0.997251
0.99711
0.996993
0.996901
0.996823
0.996753
0.996691
0.996643
0.99661
0.996597
0.997528
0.99737
0.997211
0.997068
0.996949
0.996855
0.996776
0.996706
0.996644
0.996595
0.996562
0.99655
0.997487
0.99733
0.997169
0.997023
0.996902
0.996807
0.996727
0.996656
0.996594
0.996546
0.996513
0.996502
0.997446
0.997288
0.997126
0.996977
0.996854
0.996757
0.996676
0.996605
0.996543
0.996494
0.996463
0.996452
0.997403
0.997245
0.997081
0.99693
0.996804
0.996705
0.996623
0.996552
0.996489
0.996441
0.996411
0.996401
0.99736
0.997201
0.997035
0.996881
0.996752
0.996652
0.996569
0.996497
0.996435
0.996387
0.996357
0.996349
0.997315
0.997155
0.996987
0.99683
0.996699
0.996597
0.996513
0.996441
0.996379
0.996331
0.996303
0.996295
0.99727
0.997108
0.996938
0.996777
0.996645
0.99654
0.996456
0.996383
0.996321
0.996275
0.996247
0.99624
0.997223