/*--------------------------------*- C++ -*----------------------------------*\
  =========                 |
  \\      /  F ield         | OpenFOAM: The Open Source CFD Toolbox
   \\    /   O peration     | Website:  https://openfoam.org
    \\  /    A nd           | Version:  6.0
     \\/     M anipulation  |
\*---------------------------------------------------------------------------*/
FoamFile
{
    version     2.0;
    format      ascii;
    class       surfaceScalarField;
    location    "0.5";
    object      phi;
}
// * * * * * * * * * * * * * * * * * * * * * * * * * * * * * * * * * * * * * //

dimensions      [0 3 -1 0 0 0 0];

internalField   nonuniform List<scalar> 
27976
(
4.966e-05
0.0038661
1.0403e-09
9.9696e-05
0.0037987
0.00014845
0.0036672
0.00019485
0.0034731
0.00023798
0.0032197
0.00027705
0.0029113
0.00031137
0.0025531
0.00034036
0.0021512
0.00036347
0.0017125
0.00038016
0.0012447
0.00039474
0.00075099
8.1763e-05
0.00056963
4.9143e-05
0.003817
3.3982e-09
9.8654e-05
0.0037492
0.00014689
0.0036189
0.00019278
0.0034272
0.00023545
0.003177
0.00027413
0.0028726
0.00030814
0.0025191
0.00033686
0.0021225
0.00035948
0.0016899
0.00037665
0.0012275
0.00038836
0.00073928
0.00015693
0.0003132
4.8619e-05
0.0037684
5.0739e-09
9.76e-05
0.0037003
0.00014532
0.0035712
0.00019073
0.0033818
0.00023297
0.0031348
0.00027129
0.0028343
0.00030492
0.0024854
0.0003332
0.0020942
0.0003557
0.0016674
0.00037273
0.0012105
0.00038248
0.00072953
0.00022398
0.00031543
4.8096e-05
0.0037203
6.6147e-09
9.6556e-05
0.0036518
0.00014378
0.003524
0.00018874
0.0033368
0.00023056
0.003093
0.00026844
0.0027964
0.00030161
0.0024523
0.00032956
0.0020662
0.0003521
0.0016449
0.00036871
0.0011939
0.00037817
0.00072007
0.00024501
0.00035714
4.7588e-05
0.0036727
8.3975e-09
9.5546e-05
0.0036038
0.00014229
0.0034773
0.00018678
0.0032924
0.00022813
0.0030516
0.00026552
0.002759
0.00029832
0.0024195
0.0003261
0.0020384
0.00034859
0.0016224
0.00036496
0.0011775
0.00037459
0.00071045
0.00024159
0.00037801
4.7095e-05
0.0036255
1.0439e-08
9.4556e-05
0.0035564
0.0001408
0.003431
0.00018479
0.0032484
0.00022564
0.0030108
0.00026261
0.0027221
0.00029515
0.0023869
0.00032282
0.0020108
0.00034514
0.0016
0.0003613
0.0011614
0.00037073
0.00070101
0.00023704
0.00037527
4.66e-05
0.0035789
1.2463e-08
9.3556e-05
0.0035094
0.00013929
0.0033853
0.00018277
0.0032049
0.00022317
0.0029704
0.00025981
0.0026854
0.00029214
0.0023546
0.00031963
0.0019833
0.00034166
0.001578
0.00035756
0.0011455
0.00036675
0.00069182
0.00023374
0.00037005
4.6097e-05
0.0035328
1.4333e-08
9.2537e-05
0.003463
0.00013776
0.0033401
0.00018077
0.0031619
0.00022078
0.0029304
0.00025714
0.0026491
0.00028924
0.0023225
0.00031644
0.0019561
0.00033814
0.0015563
0.00035378
0.0011298
0.00036286
0.00068274
0.00023051
0.00036609
4.5589e-05
0.0034872
1.6208e-08
9.152e-05
0.0034171
0.00013626
0.0032953
0.00017884
0.0031193
0.0002185
0.0028907
0.00025456
0.002613
0.00028635
0.0022907
0.00031321
0.0019292
0.00033459
0.0015349
0.00035001
0.0011144
0.00035903
0.00067373
0.00022727
0.00036227
4.5091e-05
0.0034421
1.8314e-08
9.0532e-05
0.0033716
0.00013482
0.003251
0.000177
0.0030771
0.00021631
0.0028514
0.00025202
0.0025773
0.00028345
0.0022593
0.00030996
0.0019027
0.00033104
0.0015138
0.00034628
0.0010992
0.00035523
0.00066478
0.00022408
0.00035842
4.4612e-05
0.0033975
2.0697e-08
8.9584e-05
0.0033266
0.00013343
0.0032072
0.00017522
0.0030353
0.00021414
0.0028125
0.00024948
0.0025419
0.00028053
0.0022282
0.00030669
0.0018766
0.00032751
0.001493
0.00034258
0.0010841
0.00035147
0.00065588
0.00022093
0.00035462
4.4152e-05
0.0033533
2.3178e-08
8.8672e-05
0.0032821
0.00013209
0.0031638
0.00017346
0.0029939
0.00021198
0.002774
0.00024691
0.002507
0.00027758
0.0021975
0.00030343
0.0018507
0.000324
0.0014724
0.00033892
0.0010692
0.00034775
0.00064704
0.00021781
0.00035087
4.3705e-05
0.0033096
2.549e-08
8.778e-05
0.003238
0.00013076
0.0031208
0.0001717
0.002953
0.0002098
0.0027359
0.00024433
0.0024725
0.00027464
0.0021672
0.00030019
0.0018252
0.00032054
0.0014521
0.00033529
0.0010544
0.00034407
0.00063827
0.00021472
0.00034716
4.3265e-05
0.0032663
2.742e-08
8.6895e-05
0.0031944
0.00012943
0.0030782
0.00016994
0.0029125
0.00020762
0.0026982
0.00024175
0.0024384
0.00027172
0.0021373
0.00029699
0.0017999
0.00031711
0.001432
0.00033171
0.0010398
0.00034042
0.00062956
0.00021165
0.00034348
4.2825e-05
0.0032234
2.8879e-08
8.6008e-05
0.0031512
0.0001281
0.0030361
0.00016817
0.0028724
0.00020543
0.0026609
0.00023918
0.0024046
0.00026882
0.0021076
0.00029381
0.0017749
0.00031372
0.0014121
0.00032817
0.0010254
0.00033681
0.00062092
0.00020861
0.00033985
4.2384e-05
0.003181
2.9897e-08
8.5118e-05
0.0031085
0.00012677
0.0029945
0.0001664
0.0028328
0.00020325
0.0026241
0.00023663
0.0023712
0.00026595
0.0020783
0.00029067
0.0017502
0.00031036
0.0013924
0.00032466
0.0010111
0.00033323
0.00061235
0.0002056
0.00033624
4.1942e-05
0.003139
3.0563e-08
8.4227e-05
0.0030662
0.00012543
0.0029533
0.00016464
0.0027936
0.00020109
0.0025876
0.00023411
0.0023382
0.00026311
0.0020493
0.00028756
0.0017257
0.00030704
0.0013729
0.00032119
0.00099692
0.00032969
0.00060386
0.00020262
0.00033267
4.1501e-05
0.0030975
3.0984e-08
8.3337e-05
0.0030244
0.0001241
0.0029125
0.00016288
0.0027548
0.00019894
0.0025516
0.00023161
0.0023055
0.00026029
0.0020206
0.00028449
0.0017015
0.00030376
0.0013536
0.00031777
0.00098292
0.00032619
0.00059543
0.00019967
0.00032914
4.1061e-05
0.0030564
3.125e-08
8.2452e-05
0.002983
0.00012278
0.0028722
0.00016114
0.0027164
0.00019681
0.0025159
0.00022913
0.0022732
0.00025751
0.0019923
0.00028145
0.0016776
0.00030052
0.0013346
0.00031437
0.00096906
0.00032273
0.00058708
0.00019675
0.00032564
4.0624e-05
0.0030158
3.1428e-08
8.1574e-05
0.002942
0.00012147
0.0028323
0.00015942
0.0026785
0.00019471
0.0024806
0.00022668
0.0022412
0.00025476
0.0019642
0.00027844
0.0016539
0.00029731
0.0013157
0.00031102
0.00095535
0.0003193
0.0005788
0.00019387
0.00032218
4.0191e-05
0.0029755
3.1561e-08
8.0703e-05
0.0029015
0.00012017
0.0027929
0.00015772
0.0026409
0.00019263
0.0024457
0.00022426
0.0022096
0.00025203
0.0019364
0.00027547
0.0016305
0.00029413
0.001297
0.0003077
0.00094178
0.0003159
0.0005706
0.00019101
0.00031876
3.9762e-05
0.0029357
3.1672e-08
7.9841e-05
0.0028614
0.00011889
0.0027538
0.00015603
0.0026038
0.00019057
0.0024112
0.00022186
0.0021783
0.00024934
0.0019089
0.00027252
0.0016073
0.00029099
0.0012786
0.00030442
0.00092835
0.00031254
0.00056248
0.00018818
0.00031537
3.9337e-05
0.0028964
3.1776e-08
7.8988e-05
0.0028218
0.00011762
0.0027152
0.00015437
0.002567
0.00018853
0.002377
0.00021949
0.0021474
0.00024668
0.0018817
0.00026961
0.0015844
0.00028788
0.0012603
0.00030117
0.00091506
0.00030922
0.00055443
0.00018539
0.00031201
3.8917e-05
0.0028574
3.1878e-08
7.8144e-05
0.0027826
0.00011636
0.002677
0.00015272
0.0025307
0.00018652
0.0023432
0.00021715
0.0021167
0.00024404
0.0018548
0.00026673
0.0015617
0.00028481
0.0012422
0.00029796
0.00090191
0.00030593
0.00054646
0.00018263
0.00030869
3.8501e-05
0.0028189
3.1982e-08
7.731e-05
0.0027438
0.00011512
0.0026392
0.00015109
0.0024947
0.00018453
0.0023098
0.00021483
0.0020864
0.00024144
0.0018282
0.00026389
0.0015392
0.00028177
0.0012243
0.00029478
0.0008889
0.00030268
0.00053857
0.00017989
0.00030541
3.809e-05
0.0027808
3.209e-08
7.6484e-05
0.0027054
0.00011389
0.0026018
0.00014947
0.0024591
0.00018256
0.0022767
0.00021253
0.0020565
0.00023886
0.0018019
0.00026107
0.001517
0.00027877
0.0012066
0.00029164
0.00087602
0.00029946
0.00053075
0.00017719
0.00030216
3.7683e-05
0.0027431
3.2202e-08
7.5667e-05
0.0026674
0.00011267
0.0025648
0.00014788
0.0024239
0.00018061
0.0022439
0.00021026
0.0020268
0.00023631
0.0017758
0.00025828
0.001495
0.00027579
0.0011891
0.00028853
0.00086328
0.00029627
0.00052301
0.00017451
0.00029895
3.728e-05
0.0027057
3.2319e-08
7.4859e-05
0.0026298
0.00011147
0.0025281
0.0001463
0.0023891
0.00017868
0.0022116
0.00020802
0.0019975
0.00023379
0.0017501
0.00025553
0.0014733
0.00027285
0.0011718
0.00028546
0.00085068
0.00029312
0.00051535
0.00017187
0.00029577
3.6882e-05
0.0026688
3.244e-08
7.406e-05
0.0025926
0.00011028
0.0024919
0.00014473
0.0023546
0.00017677
0.0021795
0.0002058
0.0019684
0.00023129
0.0017246
0.0002528
0.0014518
0.00026994
0.0011547
0.00028242
0.0008382
0.00029
0.00050776
0.00016925
0.00029262
3.6489e-05
0.0026323
3.2566e-08
7.327e-05
0.0025558
0.0001091
0.0024561
0.00014319
0.0023205
0.00017488
0.0021478
0.0002036
0.0019397
0.00022882
0.0016994
0.0002501
0.0014305
0.00026707
0.0011377
0.00027941
0.00082585
0.00028692
0.00050025
0.00016666
0.00028951
3.61e-05
0.0025962
3.2696e-08
7.2488e-05
0.0025194
0.00010794
0.0024207
0.00014166
0.0022868
0.00017302
0.0021165
0.00020143
0.0019113
0.00022638
0.0016744
0.00024744
0.0014095
0.00026422
0.0011209
0.00027644
0.00081364
0.00028387
0.00049282
0.0001641
0.00028643
3.5714e-05
0.0025604
3.2831e-08
7.1714e-05
0.0024834
0.00010678
0.0023856
0.00014015
0.0022534
0.00017117
0.0020855
0.00019928
0.0018832
0.00022397
0.0016497
0.0002448
0.0013886
0.0002614
0.0011043
0.00027349
0.00080155
0.00028085
0.00048546
0.00016157
0.00028339
3.5334e-05
0.0025251
3.297e-08
7.095e-05
0.0024478
0.00010564
0.0023509
0.00013865
0.0022204
0.00016934
0.0020548
0.00019715
0.0018554
0.00022158
0.0016253
0.00024219
0.001368
0.00025862
0.0010879
0.00027058
0.00078959
0.00027787
0.00047817
0.00015906
0.00028037
3.4957e-05
0.0024901
3.3115e-08
7.0193e-05
0.0024126
0.00010452
0.0023166
0.00013718
0.0021878
0.00016754
0.0020244
0.00019505
0.0018279
0.00021922
0.0016011
0.00023961
0.0013476
0.00025587
0.0010716
0.0002677
0.00077775
0.00027491
0.00047096
0.00015658
0.0002774
3.4584e-05
0.0024555
3.3264e-08
6.9445e-05
0.0023777
0.0001034
0.0022826
0.00013571
0.0021555
0.00016575
0.0019944
0.00019297
0.0018007
0.00021688
0.0015772
0.00023706
0.0013274
0.00025314
0.0010555
0.00026486
0.00076603
0.00027199
0.00046383
0.00015413
0.00027445
3.4216e-05
0.0024212
3.3417e-08
6.8705e-05
0.0023432
0.0001023
0.002249
0.00013427
0.0021235
0.00016399
0.0019646
0.00019091
0.0017737
0.00021457
0.0015536
0.00023453
0.0013075
0.00025045
0.0010396
0.00026204
0.00075444
0.0002691
0.00045676
0.0001517
0.00027153
3.3851e-05
0.0023873
3.3576e-08
6.7972e-05
0.0023091
0.00010121
0.0022158
0.00013283
0.0020919
0.00016224
0.0019352
0.00018888
0.0017471
0.00021228
0.0015302
0.00023204
0.0012877
0.00024778
0.0010239
0.00025925
0.00074297
0.00026625
0.00044977
0.00014929
0.00026865
3.3491e-05
0.0023538
3.3739e-08
6.7248e-05
0.0022754
0.00010013
0.0021829
0.00013142
0.0020606
0.00016051
0.0019061
0.00018687
0.0017207
0.00021002
0.001507
0.00022957
0.0012682
0.00024515
0.0010083
0.0002565
0.00073162
0.00026342
0.00044285
0.00014691
0.0002658
3.3134e-05
0.0023206
3.3907e-08
6.6532e-05
0.002242
9.9065e-05
0.0021504
0.00013002
0.0020296
0.0001588
0.0018774
0.00018488
0.0016947
0.00020779
0.0014841
0.00022712
0.0012489
0.00024254
0.00099287
0.00025377
0.00072039
0.00026062
0.000436
0.00014456
0.00026298
3.2781e-05
0.0022878
3.408e-08
6.5824e-05
0.0022089
9.801e-05
0.0021182
0.00012863
0.001999
0.00015711
0.0018489
0.00018291
0.0016689
0.00020558
0.0014614
0.00022471
0.0012297
0.00023996
0.00097761
0.00025108
0.00070928
0.00025786
0.00042922
0.00014223
0.00026019
3.2433e-05
0.0022553
3.4258e-08
6.5123e-05
0.0021762
9.6967e-05
0.0020863
0.00012726
0.0019687
0.00015543
0.0018207
0.00018096
0.0016433
0.00020339
0.001439
0.00022232
0.0012108
0.00023741
0.00096252
0.00024841
0.00069828
0.00025512
0.00042251
0.00013992
0.00025743
3.2088e-05
0.0022232
3.444e-08
6.443e-05
0.0021439
9.5934e-05
0.0020548
0.00012591
0.0019387
0.00015378
0.0017929
0.00017904
0.0016181
0.00020122
0.0014168
0.00021995
0.0011921
0.00023489
0.00094758
0.00024577
0.00068739
0.00025241
0.00041587
0.00013764
0.0002547
3.1746e-05
0.0021914
3.4627e-08
6.3745e-05
0.0021119
9.4913e-05
0.0020237
0.00012457
0.0019091
0.00015214
0.0017653
0.00017713
0.0015931
0.00019908
0.0013949
0.00021761
0.0011735
0.00023239
0.0009328
0.00024316
0.00067662
0.00024974
0.0004093
0.00013538
0.000252
3.1409e-05
0.00216
3.482e-08
6.3067e-05
0.0020802
9.3904e-05
0.0019928
0.00012324
0.0018797
0.00015052
0.001738
0.00017525
0.0015684
0.00019697
0.0013731
0.0002153
0.0011552
0.00022993
0.00091818
0.00024059
0.00066596
0.00024709
0.00040279
0.00013314
0.00024933
3.1075e-05
0.0021289
3.5017e-08
6.2396e-05
0.0020489
9.2905e-05
0.0019623
0.00012193
0.0018507
0.00014892
0.001711
0.00017338
0.0015439
0.00019487
0.0013516
0.00021301
0.0011371
0.00022749
0.00090371
0.00023803
0.00065541
0.00024447
0.00039635
0.00013092
0.00024669
3.0745e-05
0.0020981
3.5219e-08
6.1733e-05
0.0020179
9.1917e-05
0.0019321
0.00012064
0.001822
0.00014734
0.0016843
0.00017154
0.0015197
0.0001928
0.0013304
0.00021075
0.0011191
0.00022507
0.00088939
0.00023551
0.00064498
0.00024188
0.00038998
0.00012872
0.00024408
3.0419e-05
0.0020677
3.5426e-08
6.1077e-05
0.0019873
9.094e-05
0.0019023
0.00011935
0.0017936
0.00014577
0.0016579
0.00016972
0.0014958
0.00019075
0.0013093
0.00020851
0.0011014
0.00022268
0.00087522
0.00023301
0.00063465
0.00023932
0.00038367
0.00012655
0.0002415
3.0096e-05
0.0020375
3.5638e-08
6.0429e-05
0.0019569
8.9973e-05
0.0018727
0.00011808
0.0017655
0.00014422
0.0016318
0.00016791
0.0014721
0.00018873
0.0012885
0.0002063
0.0010838
0.00022032
0.00086119
0.00023055
0.00062442
0.00023679
0.00037742
0.0001244
0.00023894
2.9777e-05
0.0020077
3.5854e-08
5.9787e-05
0.0019269
8.9018e-05
0.0018435
0.00011683
0.0017377
0.00014269
0.0016059
0.00016613
0.0014486
0.00018672
0.0012679
0.00020411
0.0010664
0.00021799
0.00084732
0.0002281
0.00061431
0.00023428
0.00037124
0.00012226
0.00023642
2.9461e-05
0.0019782
3.6076e-08
5.9153e-05
0.0018972
8.8072e-05
0.0018146
0.00011559
0.0017101
0.00014117
0.0015803
0.00016436
0.0014254
0.00018474
0.0012476
0.00020195
0.0010492
0.00021568
0.00083359
0.00022569
0.00060429
0.00023181
0.00036512
0.00012015
0.00023392
2.9149e-05
0.001949
3.6303e-08
5.8525e-05
0.0018679
8.7137e-05
0.001786
0.00011436
0.0016829
0.00013968
0.001555
0.00016262
0.0014025
0.00018278
0.0012274
0.00019981
0.0010322
0.00021339
0.00082
0.0002233
0.00059439
0.00022936
0.00035907
0.00011806
0.00023145
2.884e-05
0.0019202
3.6535e-08
5.7904e-05
0.0018388
8.6212e-05
0.0017576
0.00011315
0.001656
0.00013819
0.0015299
0.00016089
0.0013798
0.00018084
0.0012074
0.00019769
0.0010153
0.00021113
0.00080656
0.00022094
0.00058458
0.00022693
0.00035307
0.00011599
0.00022901
2.8534e-05
0.0018916
3.6772e-08
5.729e-05
0.00181
8.5298e-05
0.0017296
0.00011195
0.0016293
0.00013673
0.0015052
0.00015919
0.0013573
0.00017893
0.0011877
0.00019559
0.00099865
0.0002089
0.00079325
0.0002186
0.00057487
0.00022454
0.00034714
0.00011394
0.00022659
2.8232e-05
0.0018633
3.7014e-08
5.6683e-05
0.0017816
8.4393e-05
0.0017019
0.00011076
0.001603
0.00013528
0.0014806
0.0001575
0.0013351
0.00017703
0.0011682
0.00019352
0.00098215
0.00020669
0.00078009
0.00021629
0.00056527
0.00022217
0.00034126
0.0001119
0.0002242
2.7934e-05
0.0018353
3.7261e-08
5.6083e-05
0.0017534
8.3499e-05
0.0016745
0.00010958
0.0015769
0.00013384
0.0014564
0.00015583
0.0013131
0.00017515
0.0011488
0.00019147
0.00096583
0.0002045
0.00076706
0.00021401
0.00055576
0.00021983
0.00033545
0.00010989
0.00022184
2.7639e-05
0.0018077
3.7513e-08
5.5489e-05
0.0017256
8.2614e-05
0.0016474
0.00010842
0.0015511
0.00013242
0.0014324
0.00015418
0.0012914
0.0001733
0.0011297
0.00018945
0.00094968
0.00020234
0.00075417
0.00021175
0.00054635
0.00021751
0.00032969
0.00010789
0.00021951
2.7346e-05
0.0017803
3.777e-08
5.4902e-05
0.001698
8.1739e-05
0.0016206
0.00010727
0.0015255
0.00013102
0.0014086
0.00015254
0.0012699
0.00017146
0.0011108
0.00018745
0.0009337
0.0002002
0.00074141
0.00020952
0.00053704
0.00021522
0.00032399
0.00010591
0.0002172
2.7058e-05
0.0017532
3.8033e-08
5.4321e-05
0.0016708
8.0873e-05
0.001594
0.00010614
0.0015003
0.00012963
0.0013852
0.00015093
0.0012486
0.00016965
0.0010921
0.00018546
0.00091789
0.00019809
0.00072878
0.00020731
0.00052783
0.00021295
0.00031835
0.00010395
0.00021491
2.6772e-05
0.0017264
3.83e-08
5.3747e-05
0.0016438
8.0017e-05
0.0015677
0.00010501
0.0014753
0.00012826
0.0013619
0.00014933
0.0012275
0.00016786
0.0010736
0.0001835
0.00090224
0.000196
0.00071629
0.00020512
0.0005187
0.00021071
0.00031276
0.000102
0.00021265
2.649e-05
0.0016998
3.8573e-08
5.3179e-05
0.0016171
7.917e-05
0.0015417
0.0001039
0.0014505
0.0001269
0.0013389
0.00014775
0.0012066
0.00016608
0.0010552
0.00018157
0.00088676
0.00019393
0.00070392
0.00020296
0.00050967
0.00020849
0.00030723
0.00010008
0.00021042
2.6211e-05
0.0016736
3.8851e-08
5.2617e-05
0.0015907
7.8333e-05
0.001516
0.0001028
0.0014261
0.00012556
0.0013161
0.00014619
0.001186
0.00016433
0.0010371
0.00017965
0.00087143
0.00019189
0.00069168
0.00020083
0.00050074
0.0002063
0.00030175
9.8165e-05
0.00020821
2.5934e-05
0.0016476
3.9134e-08
5.2062e-05
0.0015646
7.7505e-05
0.0014906
0.00010172
0.0014019
0.00012423
0.0012936
0.00014465
0.0011656
0.00016259
0.0010191
0.00017776
0.00085627
0.00018987
0.00067957
0.00019871
0.00049189
0.00020414
0.00029633
9.6271e-05
0.00020603
2.5661e-05
0.0016219
3.9422e-08
5.1512e-05
0.0015387
7.6686e-05
0.0014654
0.00010064
0.0013779
0.00012292
0.0012714
0.00014312
0.0011454
0.00016088
0.0010014
0.00017588
0.00084126
0.00018787
0.00066758
0.00019662
0.00048313
0.00020199
0.00029096
9.4393e-05
0.00020387
2.5391e-05
0.0015965
3.9716e-08
5.0969e-05
0.0015131
7.5876e-05
0.0014405
9.9577e-05
0.0013542
0.00012162
0.0012493
0.00014161
0.0011254
0.00015918
0.00098382
0.00017403
0.00082641
0.00018589
0.00065572
0.00019456
0.00047447
0.00019988
0.00028564
9.2531e-05
0.00020174
2.5125e-05
0.0015713
4.0014e-08
5.0432e-05
0.0014878
7.5075e-05
0.0014159
9.8525e-05
0.0013308
0.00012034
0.0012275
0.00014011
0.0011056
0.0001575
0.00096643
0.0001722
0.00081172
0.00018394
0.00064398
0.00019252
0.00046589
0.00019778
0.00028038
9.0684e-05
0.00019963
2.4861e-05
0.0015464
4.0318e-08
4.99e-05
0.0014628
7.4283e-05
0.0013915
9.7485e-05
0.0013076
0.00011907
0.0012059
0.00013863
0.0010861
0.00015584
0.00094922
0.00017038
0.00079718
0.000182
0.00063236
0.0001905
0.00045739
0.00019571
0.00027516
8.8852e-05
0.00019754
2.46e-05
0.0015218
4.0627e-08
4.9375e-05
0.001438
7.35e-05
0.0013673
9.6457e-05
0.0012846
0.00011781
0.0011846
0.00013717
0.0010667
0.0001542
0.00093219
0.00016859
0.00078279
0.00018009
0.00062085
0.0001885
0.00044898
0.00019367
0.00027
8.7035e-05
0.00019548
2.4342e-05
0.0014974
4.0941e-08
4.8855e-05
0.0014135
7.2725e-05
0.0013435
9.5439e-05
0.0012619
0.00011657
0.0011634
0.00013573
0.0010475
0.00015258
0.00091534
0.00016682
0.00076854
0.0001782
0.00060947
0.00018653
0.00044066
0.00019164
0.00026488
8.5233e-05
0.00019344
2.4087e-05
0.0014733
4.126e-08
4.8341e-05
0.0013893
7.1959e-05
0.0013199
9.4433e-05
0.0012394
0.00011534
0.0011425
0.0001343
0.0010286
0.00015097
0.00089867
0.00016507
0.00075445
0.00017634
0.0005982
0.00018458
0.00043242
0.00018964
0.00025982
8.3444e-05
0.00019143
2.3835e-05
0.0014494
4.1584e-08
4.7833e-05
0.0013653
7.1201e-05
0.0012965
9.3439e-05
0.0012172
0.00011412
0.0011218
0.00013288
0.0010098
0.00014938
0.00088217
0.00016333
0.0007405
0.00017449
0.00058705
0.00018265
0.00042426
0.00018766
0.0002548
8.167e-05
0.00018944
2.3585e-05
0.0014258
4.1914e-08
4.7331e-05
0.0013415
7.0452e-05
0.0012734
9.2455e-05
0.0011952
0.00011292
0.0011014
0.00013149
0.00099125
0.00014782
0.00086584
0.00016162
0.00072669
0.00017266
0.00057601
0.00018074
0.00041618
0.00018571
0.00024983
7.9909e-05
0.00018747
2.3339e-05
0.0014024
4.2248e-08
4.6834e-05
0.001318
6.9711e-05
0.0012505
9.1482e-05
0.0011734
0.00011174
0.0010811
0.0001301
0.00097288
0.00014626
0.00084968
0.00015993
0.00071303
0.00017086
0.00056508
0.00017885
0.00040819
0.00018378
0.00024491
7.8161e-05
0.00018552
2.3095e-05
0.0013793
4.2587e-08
4.6343e-05
0.0012948
6.8978e-05
0.0012279
9.052e-05
0.0011519
0.00011056
0.0010611
0.00012874
0.0009547
0.00014473
0.00083369
0.00015825
0.0006995
0.00016907
0.00055427
0.00017699
0.00040027
0.00018186
0.00024003
7.6427e-05
0.0001836
2.2854e-05
0.0013564
4.2931e-08
4.5857e-05
0.0012718
6.8253e-05
0.0012055
8.9568e-05
0.0011305
0.0001094
0.0010413
0.00012739
0.00093671
0.00014321
0.00081787
0.0001566
0.00068612
0.00016731
0.00054356
0.00017515
0.00039243
0.00017998
0.0002352
7.4705e-05
0.0001817
2.2616e-05
0.0013337
4.328e-08
4.5376e-05
0.001249
6.7537e-05
0.0011833
8.8627e-05
0.0011095
0.00010825
0.0010216
0.00012605
0.00091891
0.00014171
0.0008022
0.00015496
0.00067287
0.00016556
0.00053296
0.00017332
0.00038467
0.00017811
0.00023042
7.2995e-05
0.00017982
2.2381e-05
0.0013113
4.3633e-08
4.4901e-05
0.0012265
6.6828e-05
0.0011614
8.7697e-05
0.0010886
0.00010711
0.0010022
0.00012473
0.0009013
0.00014023
0.0007867
0.00015334
0.00065976
0.00016384
0.00052246
0.00017152
0.00037698
0.00017626
0.00022567
7.1297e-05
0.00017796
2.2148e-05
0.0012891
4.3991e-08
4.4431e-05
0.0012042
6.6127e-05
0.0011397
8.6777e-05
0.0010679
0.00010599
0.000983
0.00012342
0.00088386
0.00013876
0.00077136
0.00015174
0.00064678
0.00016213
0.00051208
0.00016974
0.00036937
0.00017444
0.00022098
6.9611e-05
0.00017613
2.1918e-05
0.0012671
4.4352e-08
4.3967e-05
0.0011822
6.5434e-05
0.0011182
8.5867e-05
0.0010475
0.00010488
0.00096399
0.00012213
0.00086661
0.00013732
0.00075618
0.00015016
0.00063394
0.00016045
0.00050179
0.00016798
0.00036183
0.00017264
0.00021632
6.7936e-05
0.00017431
2.169e-05
0.0012454
4.4719e-08
4.3507e-05
0.0011603
6.4749e-05
0.001097
8.4967e-05
0.0010273
0.00010378
0.00094517
0.00012086
0.00084954
0.00013588
0.00074115
0.0001486
0.00062122
0.00015878
0.00049161
0.00016624
0.00035437
0.00017086
0.00021171
6.6272e-05
0.00017252
2.1465e-05
0.0012239
4.5089e-08
4.3053e-05
0.0011387
6.4071e-05
0.001076
8.4078e-05
0.0010073
0.0001027
0.00092655
0.00011959
0.00083264
0.00013447
0.00072628
0.00014705
0.00060863
0.00015713
0.00048153
0.00016453
0.00034697
0.0001691
0.00020713
6.4619e-05
0.00017075
2.1243e-05
0.0012026
4.5463e-08
4.2604e-05
0.0011174
6.34e-05
0.0010552
8.3198e-05
0.00098748
0.00010162
0.00090812
0.00011835
0.00081592
0.00013307
0.00071156
0.00014553
0.00059617
0.00015551
0.00047155
0.00016283
0.00033965
0.00016736
0.0002026
6.2976e-05
0.000169
2.1023e-05
0.0011815
4.5841e-08
4.2159e-05
0.0010963
6.2738e-05
0.0010346
8.2328e-05
0.00096789
0.00010056
0.00088989
0.00011711
0.00079937
0.00013168
0.00069699
0.00014402
0.00058384
0.0001539
0.00046167
0.00016115
0.0003324
0.00016564
0.00019811
6.1343e-05
0.00016727
2.0806e-05
0.0011607
4.6224e-08
4.172e-05
0.0010753
6.2082e-05
0.0010142
8.1468e-05
0.0009485
9.9513e-05
0.00087185
0.00011589
0.00078299
0.00013031
0.00068257
0.00014252
0.00057163
0.00015231
0.00045189
0.00015949
0.00032522
0.00016394
0.00019366
5.972e-05
0.00016556
2.0591e-05
0.00114
4.661e-08
4.1285e-05
0.0010546
6.1434e-05
0.00099407
8.0618e-05
0.00092932
9.8476e-05
0.00085399
0.00011469
0.00076678
0.00012896
0.0006683
0.00014105
0.00055954
0.00015074
0.0004422
0.00015785
0.0003181
0.00016226
0.00018925
5.8107e-05
0.00016388
2.0379e-05
0.0011196
4.7e-08
4.0855e-05
0.0010342
6.0793e-05
0.00097413
7.9777e-05
0.00091033
9.745e-05
0.00083631
0.00011349
0.00075074
0.00012762
0.00065417
0.00013959
0.00054757
0.00014918
0.0004326
0.00015623
0.00031105
0.00016061
0.00018487
5.6502e-05
0.00016221
2.0169e-05
0.0010994
4.7394e-08
4.043e-05
0.0010139
6.0159e-05
0.0009544
7.8945e-05
0.00089155
9.6436e-05
0.00081882
0.00011232
0.00073486
0.0001263
0.00064018
0.00013815
0.00053573
0.00014765
0.0004231
0.00015463
0.00030407
0.00015897
0.00018054
5.4907e-05
0.00016057
1.9961e-05
0.0010794
4.7793e-08
4.001e-05
0.00099385
5.9532e-05
0.00093488
7.8123e-05
0.00087296
9.5434e-05
0.00080151
0.00011115
0.00071914
0.000125
0.00062633
0.00013673
0.000524
0.00014613
0.0004137
0.00015305
0.00029715
0.00015735
0.00017624
5.332e-05
0.00015894
1.9756e-05
0.0010596
4.8196e-08
3.9594e-05
0.00097402
5.8912e-05
0.00091556
7.731e-05
0.00085456
9.4443e-05
0.00078438
0.00011
0.00070359
0.00012371
0.00061263
0.00013532
0.00051238
0.00014464
0.00040438
0.00015149
0.0002903
0.00015576
0.00017197
5.174e-05
0.00015733
1.9552e-05
0.00104
4.8604e-08
3.9183e-05
0.00095439
5.8298e-05
0.00089645
7.6506e-05
0.00083635
9.3464e-05
0.00076742
0.00010886
0.00068819
0.00012243
0.00059906
0.00013393
0.00050088
0.00014316
0.00039515
0.00014995
0.00028351
0.00015418
0.00016774
5.0169e-05
0.00015575
1.9352e-05
0.0010206
4.9016e-08
3.8776e-05
0.00093496
5.7692e-05
0.00087753
7.5712e-05
0.00081833
9.2495e-05
0.00075064
0.00010774
0.00067294
0.00012117
0.00058563
0.00013256
0.0004895
0.0001417
0.00038601
0.00014843
0.00027678
0.00015262
0.00016355
4.8605e-05
0.00015418
1.9153e-05
0.0010014
4.9435e-08
3.8373e-05
0.00091574
5.7092e-05
0.00085881
7.4926e-05
0.0008005
9.1539e-05
0.00073403
0.00010663
0.00065785
0.00011993
0.00057233
0.0001312
0.00047822
0.00014026
0.00037696
0.00014692
0.00027011
0.00015108
0.00015939
4.7049e-05
0.00015264
1.8956e-05
0.00098236
4.9857e-08
3.7975e-05
0.00089672
5.6499e-05
0.00084029
7.415e-05
0.00078285
9.0593e-05
0.00071758
0.00010553
0.00064291
0.0001187
0.00055916
0.00012986
0.00046706
0.00013883
0.00036799
0.00014544
0.0002635
0.00014956
0.00015526
4.5499e-05
0.00015111
1.8762e-05
0.00096355
5.0289e-08
3.7581e-05
0.0008779
5.5912e-05
0.00082196
7.3382e-05
0.00076538
8.9658e-05
0.00070131
0.00010445
0.00062813
0.00011748
0.00054612
0.00012854
0.000456
0.00013742
0.00035911
0.00014397
0.00025696
0.00014807
0.00015117
4.3956e-05
0.00014961
1.8569e-05
0.00094493
5.0719e-08
3.7191e-05
0.00085928
5.5332e-05
0.00080381
7.2623e-05
0.00074809
8.8735e-05
0.00068519
0.00010337
0.00061349
0.00011628
0.00053321
0.00012723
0.00044505
0.00013603
0.00035031
0.00014252
0.00025046
0.00014659
0.0001471
4.2419e-05
0.00014812
1.8379e-05
0.0009265
5.1169e-08
3.6805e-05
0.00084086
5.4758e-05
0.00078586
7.1872e-05
0.00073097
8.7822e-05
0.00066924
0.00010232
0.00059899
0.0001151
0.00052043
0.00012594
0.0004342
0.00013466
0.00034159
0.0001411
0.00024403
0.00014513
0.00014307
4.0888e-05
0.00014666
1.8189e-05
0.00090826
5.1607e-08
3.6423e-05
0.00082262
5.4191e-05
0.00076809
7.1131e-05
0.00071403
8.692e-05
0.00065345
0.00010127
0.00058464
0.00011393
0.00050777
0.00012467
0.00042346
0.00013331
0.00033296
0.00013969
0.00023765
0.00014369
0.00013907
3.9362e-05
0.00014521
1.8003e-05
0.0008902
5.2078e-08
3.6045e-05
0.00080458
5.3629e-05
0.00075051
7.0398e-05
0.00069726
8.6029e-05
0.00063782
0.00010024
0.00057043
0.00011277
0.00049524
0.00012341
0.00041282
0.00013197
0.0003244
0.00013829
0.00023133
0.00014226
0.00013511
3.7842e-05
0.00014378
1.7816e-05
0.00087234
5.2524e-08
3.5672e-05
0.00078673
5.3075e-05
0.0007331
6.9673e-05
0.00068066
8.5149e-05
0.00062235
9.9219e-05
0.00055636
0.00011163
0.00048282
0.00012217
0.00040228
0.00013065
0.00031592
0.00013692
0.00022506
0.00014086
0.00013116
3.6327e-05
0.00014238
1.7637e-05
0.00085465
5.3014e-08
3.53e-05
0.00076906
5.2525e-05
0.00071588
6.8957e-05
0.00066423
8.428e-05
0.00060702
9.8213e-05
0.00054243
0.00011051
0.00047053
0.00012095
0.00039184
0.00012935
0.00030751
0.00013557
0.00021884
0.00013948
0.00012725
3.4817e-05
0.00014099
1.7448e-05
0.00083714
5.3487e-08
3.4935e-05
0.00075158
5.1984e-05
0.00069883
6.825e-05
0.00064797
8.3421e-05
0.00059185
9.7219e-05
0.00052863
0.0001094
0.00045835
0.00011974
0.0003815
0.00012807
0.00029919
0.00013423
0.00021268
0.00013812
0.00012337
3.3311e-05
0.00013962
1.7279e-05
0.00081981
5.3964e-08
3.457e-05
0.00073429
5.1445e-05
0.00068196
6.755e-05
0.00063186
8.2573e-05
0.00057683
9.6238e-05
0.00051497
0.0001083
0.00044629
0.00011855
0.00037125
0.0001268
0.00029093
0.00013292
0.00020657
0.00013677
0.00011952
3.181e-05
0.00013827
1.7081e-05
0.00080268
5.4531e-08
3.4212e-05
0.00071715
5.0917e-05
0.00066525
6.6861e-05
0.00061592
8.1737e-05
0.00056195
9.527e-05
0.00050143
0.00010722
0.00043434
0.00011737
0.0003611
0.00012555
0.00028275
0.00013162
0.0002005
0.00013545
0.00011569
3.0312e-05
0.00013694
1.6934e-05
0.00078569
5.4899e-08
3.3855e-05
0.00070023
5.0388e-05
0.00064872
6.6177e-05
0.00060013
8.091e-05
0.00054722
9.4315e-05
0.00048803
0.00010615
0.0004225
0.00011622
0.00035103
0.00012432
0.00027464
0.00013034
0.00019449
0.00013414
0.00011189
2.8819e-05
0.00013563
1.6713e-05
0.00076892
5.5702e-08
3.3502e-05
0.00068344
4.9874e-05
0.00063235
6.5506e-05
0.0005845
8.0096e-05
0.00053263
9.3373e-05
0.00047475
0.0001051
0.00041077
0.00011507
0.00034106
0.00012311
0.0002666
0.00012908
0.00018852
0.00013285
0.00010811
2.7329e-05
0.00013434
1.6598e-05
0.00075226
5.5806e-08
3.3156e-05
0.00066689
4.9355e-05
0.00061615
6.4837e-05
0.00056901
7.929e-05
0.00051818
9.2444e-05
0.0004616
0.00010407
0.00039915
0.00011395
0.00033118
0.00012192
0.00025863
0.00012784
0.00018261
0.00013159
0.00010436
2.5842e-05
0.00013308
1.6348e-05
0.00073586
5.7005e-08
3.2803e-05
0.00065043
4.8855e-05
0.0006001
6.4185e-05
0.00055368
7.8498e-05
0.00050387
9.1529e-05
0.00044856
0.00010304
0.00038764
0.00011284
0.00032138
0.00012074
0.00025073
0.00012662
0.00017673
0.00013034
0.00010063
2.4359e-05
0.00013183
1.6263e-05
0.00071954
5.6765e-08
3.2474e-05
0.00063422
4.8347e-05
0.00058422
6.353e-05
0.0005385
7.7713e-05
0.00048968
9.0626e-05
0.00043565
0.00010204
0.00037622
0.00011175
0.00031167
0.00011959
0.00024289
0.00012541
0.00017091
0.00012912
9.693e-05
2.288e-05
0.0001306
1.6001e-05
0.00070348
5.8319e-08
3.2117e-05
0.0006181
4.7859e-05
0.00056848
6.2899e-05
0.00052346
7.6946e-05
0.00047564
8.974e-05
0.00042286
0.00010105
0.00036491
0.00011068
0.00030205
0.00011845
0.00023512
0.00012423
0.00016512
0.00012791
9.3251e-05
2.1404e-05
0.00012939
1.5909e-05
0.00068751
5.8008e-08
3.1804e-05
0.00060221
4.7364e-05
0.00055292
6.2259e-05
0.00050857
7.6181e-05
0.00046171
8.8863e-05
0.00041018
0.00010008
0.0003537
0.00010962
0.0002925
0.00011733
0.00022742
0.00012307
0.00015938
0.00012672
8.9596e-05
1.9931e-05
0.0001282
1.5692e-05
0.00067176
5.9407e-08
3.145e-05
0.00058645
4.6888e-05
0.00053748
6.1649e-05
0.0004938
7.544e-05
0.00044792
8.8006e-05
0.00039761
9.9119e-05
0.00034259
0.00010858
0.00028303
0.00011623
0.00021977
0.00012193
0.00015368
0.00012556
8.5965e-05
1.8462e-05
0.00012703
1.5522e-05