/*--------------------------------*- C++ -*----------------------------------*\
  =========                 |
  \\      /  F ield         | OpenFOAM: The Open Source CFD Toolbox
   \\    /   O peration     | Website:  https://openfoam.org
    \\  /    A nd           | Version:  6.0
     \\/     M anipulation  |
\*---------------------------------------------------------------------------*/
FoamFile
{
    version     2.0;
    format      ascii;
    class       surfaceScalarField;
    location    "0.5";
    object      phi;
}
// * * * * * * * * * * * * * * * * * * * * * * * * * * * * * * * * * * * * * //

dimensions      [0 3 -1 0 0 0 0];

internalField   nonuniform List<scalar> 
47678
(
2.98131e-05
0.00388594
-2.96978e-10
5.9848e-05
0.00381847
8.91144e-05
0.00368591
0.000116963
0.00349031
0.000142855
0.00323507
0.000166312
0.00292463
0.000186915
0.0025643
0.000204295
0.00216033
0.000218145
0.00171968
0.000228219
0.00124995
0.000234336
0.000759919
0.000261088
0.000236933
2.96242e-05
0.00385632
-8.14398e-10
5.94691e-05
0.00378862
8.85501e-05
0.00365684
0.000116221
0.00346264
0.000141946
0.00320935
0.000165253
0.00290133
0.000185723
0.00254384
0.000202993
0.00214306
0.000216755
0.00170593
0.00022676
0.00123995
0.000232931
0.000753754
0.000258424
0.000235596
2.94364e-05
0.00382688
-1.35692e-09
5.90926e-05
0.00375897
8.79893e-05
0.00362794
0.000115484
0.00343515
0.000141045
0.00318379
0.000164203
0.00287817
0.000184542
0.0025235
0.000201701
0.0021259
0.000215377
0.00169225
0.000225315
0.00123001
0.000231465
0.000747604
0.000255809
0.000234074
2.92501e-05
0.00379764
-1.99102e-09
5.87187e-05
0.0037295
8.7432e-05
0.00359923
0.000114751
0.00340784
0.000140149
0.0031584
0.000163158
0.00285517
0.000183368
0.0025033
0.000200418
0.00210886
0.000214007
0.00167867
0.000223881
0.00122014
0.000229982
0.000741508
0.000253285
0.000232506
2.90652e-05
0.00376857
-2.6837e-09
5.83474e-05
0.00370022
8.68783e-05
0.0035707
0.000114023
0.00338069
0.000139258
0.00313317
0.00016212
0.0028323
0.000182201
0.00248322
0.000199141
0.00209192
0.000212645
0.00166516
0.000222458
0.00121033
0.000228505
0.00073546
0.000250829
0.000230953
2.88816e-05
0.0037397
-3.41163e-09
5.79783e-05
0.00367113
8.63278e-05
0.00354236
0.000113299
0.00335372
0.000138372
0.0031081
0.000161089
0.00280959
0.000181041
0.00246327
0.000197874
0.00207509
0.000211293
0.00165175
0.000221045
0.00120058
0.000227042
0.000729468
0.000248439
0.000229431
2.86991e-05
0.003711
-4.19391e-09
5.76114e-05
0.00364221
8.57804e-05
0.00351419
0.000112579
0.00332692
0.000137493
0.00308319
0.000160064
0.00278702
0.000179889
0.00244345
0.000196615
0.00205836
0.000209949
0.00163841
0.000219643
0.00119089
0.000225594
0.000723515
0.000246091
0.000227935
2.85178e-05
0.00368249
-5.00913e-09
5.72465e-05
0.00361349
8.52362e-05
0.0034862
0.000111864
0.0033003
0.000136618
0.00305844
0.000159046
0.00276459
0.000178745
0.00242375
0.000195364
0.00204175
0.000208614
0.00162517
0.00021825
0.00118125
0.00022416
0.000717609
0.000243795
0.000226456
2.83374e-05
0.00365416
-5.86437e-09
5.68836e-05
0.00358494
8.46951e-05
0.00345839
0.000111153
0.00327384
0.00013575
0.00303384
0.000158034
0.00274231
0.000177608
0.00240418
0.000194122
0.00202523
0.000207288
0.001612
0.000216866
0.00117167
0.000222736
0.000711737
0.000241536
0.000224991
2.81581e-05
0.00362601
-6.71226e-09
5.65228e-05
0.00355658
8.41572e-05
0.00343076
0.000110447
0.00324755
0.000134886
0.0030094
0.000157029
0.00272017
0.000176478
0.00238473
0.000192887
0.00200883
0.000205971
0.00159892
0.000215491
0.00116216
0.000221323
0.000705909
0.000239321
0.000223539
2.79798e-05
0.00359804
-7.49116e-09
5.61641e-05
0.00352839
8.36224e-05
0.0034033
0.000109744
0.00322143
0.000134029
0.00298512
0.000156031
0.00269817
0.000175356
0.00236541
0.000191661
0.00199252
0.000204662
0.00158592
0.000214125
0.00115269
0.000219919
0.000700113
0.000237136
0.0002221
2.78024e-05
0.00357024
-8.11912e-09
5.58073e-05
0.00350039
8.30908e-05
0.00337602
0.000109047
0.00319548
0.000133176
0.00296099
0.000155039
0.00267631
0.000174241
0.00234621
0.000190443
0.00197632
0.000203361
0.00157301
0.000212767
0.00114329
0.000218524
0.000694359
0.000234989
0.000220674
2.76259e-05
0.00354263
-8.48201e-09
5.54526e-05
0.00347256
8.25624e-05
0.00334891
0.000108353
0.00316968
0.00013233
0.00293702
0.000154053
0.00265458
0.000173133
0.00232712
0.000189233
0.00196022
0.00020207
0.00156017
0.000211418
0.00113394
0.000217138
0.000688637
0.000232865
0.000219259
2.74503e-05
0.00351519
-8.47994e-09
5.51e-05
0.00344491
8.20372e-05
0.00332197
0.000107664
0.00314406
0.000131488
0.00291319
0.000153074
0.002633
0.000172033
0.00230817
0.00018803
0.00194423
0.000200786
0.00154741
0.000210077
0.00112465
0.000215761
0.000682956
0.000230773
0.000217855
2.72757e-05
0.00348792
-8.02635e-09
5.47494e-05
0.00341744
8.15152e-05
0.00329521
0.000106979
0.00311859
0.000130652
0.00288952
0.0001521
0.00261155
0.00017094
0.00228933
0.000186836
0.00192833
0.000199511
0.00153474
0.000208745
0.00111542
0.000214393
0.000677305
0.000228701
0.000216462
2.71019e-05
0.00346082
-7.06922e-09
5.44009e-05
0.00339014
8.09964e-05
0.00326861
0.000106298
0.00309329
0.000129821
0.002866
0.000151134
0.00259024
0.000169853
0.00227061
0.000185649
0.00191254
0.000198244
0.00152214
0.000207421
0.00110624
0.000213034
0.000671696
0.000226659
0.000215078
2.69291e-05
0.0034339
-5.62392e-09
5.40545e-05
0.00336302
8.04809e-05
0.00324219
0.000105622
0.00306815
0.000128996
0.00284263
0.000150173
0.00256906
0.000168774
0.00225201
0.00018447
0.00189684
0.000196986
0.00150963
0.000206106
0.00109712
0.000211683
0.000666117
0.000224632
0.000213705
2.67572e-05
0.00340715
-3.74392e-09
5.37102e-05
0.00333606
7.99686e-05
0.00321593
0.00010495
0.00304317
0.000128175
0.0028194
0.000149218
0.00254802
0.000167702
0.00223353
0.000183298
0.00188124
0.000195735
0.00149719
0.000204799
0.00108806
0.000210341
0.000660578
0.000222634
0.000212341
2.65863e-05
0.00338056
-1.53415e-09
5.3368e-05
0.00330928
7.94596e-05
0.00318984
0.000104283
0.00301835
0.000127361
0.00279632
0.00014827
0.00252711
0.000166636
0.00221516
0.000182134
0.00186574
0.000194493
0.00148483
0.0002035
0.00107905
0.000209007
0.000655069
0.000220647
0.000210987
2.64163e-05
0.00335415
8.8466e-10
5.30278e-05
0.00328267
7.89537e-05
0.00316391
0.000103619
0.00299368
0.000126551
0.00277339
0.000147328
0.00250633
0.000165578
0.00219691
0.000180977
0.00185035
0.000193258
0.00147255
0.00020221
0.0010701
0.000207682
0.0006496
0.000218689
0.000209642
2.62472e-05
0.0033279
3.39876e-09
5.26897e-05
0.00325623
7.8451e-05
0.00313815
0.00010296
0.00296917
0.000125746
0.00275061
0.000146391
0.00248569
0.000164526
0.00217878
0.000179828
0.00183504
0.000192032
0.00146035
0.000200927
0.0010612
0.000206365
0.00064416
0.000216738
0.000208306
2.60791e-05
0.00330181
5.91778e-09
5.23537e-05
0.00322995
7.79514e-05
0.00311255
0.000102305
0.00294482
0.000124947
0.00272797
0.000145461
0.00246517
0.000163481
0.00216076
0.000178687
0.00181984
0.000190813
0.00144822
0.000199653
0.00105237
0.000205056
0.00063876
0.000214817
0.000206979
2.59119e-05
0.00327589
8.38647e-09
5.20197e-05
0.00320385
7.74549e-05
0.00308712
0.000101654
0.00292062
0.000124152
0.00270547
0.000144537
0.00244479
0.000162442
0.00214285
0.000177552
0.00180473
0.000189603
0.00143617
0.000198387
0.00104358
0.000203756
0.000633389
0.0002129
0.000205662
2.57457e-05
0.00325014
1.07897e-08
5.16877e-05
0.00317791
7.69616e-05
0.00306185
0.000101007
0.00289657
0.000123363
0.00268312
0.000143618
0.00242453
0.000161411
0.00212506
0.000176425
0.00178971
0.0001884
0.0014242
0.000197129
0.00103485
0.000202464
0.000628058
0.000211013
0.000204353
2.55804e-05
0.00322454
1.31325e-08
5.13578e-05
0.00315213
7.64713e-05
0.00303673
0.000100365
0.00287268
0.000122578
0.0026609
0.000142706
0.00240441
0.000160386
0.00210738
0.000175306
0.00177479
0.000187204
0.0014123
0.000195879
0.00102618
0.00020118
0.000622753
0.00020913
0.000203053
2.54161e-05
0.00319911
1.5439e-08
5.10299e-05
0.00312651
7.5984e-05
0.00301178
9.9726e-05
0.00284894
0.000121799
0.00263883
0.000141799
0.00238441
0.000159367
0.00208981
0.000174193
0.00175997
0.000186017
0.00140048
0.000194637
0.00101756
0.000199904
0.00061749
0.000207275
0.000201762
2.52527e-05
0.00317384
1.77277e-08
5.0704e-05
0.00310106
7.54998e-05
0.00298698
9.90913e-05
0.00282535
0.000121025
0.00261689
0.000140898
0.00236453
0.000158355
0.00207236
0.000173087
0.00174523
0.000184837
0.00138873
0.000193403
0.00100899
0.000198636
0.000612253
0.000205423
0.000200479
2.50904e-05
0.00314873
2.00093e-08
5.03801e-05
0.00307577
7.50186e-05
0.00296235
9.84607e-05
0.00280191
0.000120255
0.0025951
0.000140003
0.00234479
0.00015735
0.00205501
0.000171989
0.0017306
0.000183664
0.00137706
0.000192176
0.00100048
0.000197377
0.000607056
0.000203598
0.000199206
2.4929e-05
0.00312378
2.22755e-08
5.00582e-05
0.00305064
7.45404e-05
0.00293786
9.78339e-05
0.00277861
0.00011949
0.00257344
0.000139113
0.00232516
0.000156351
0.00203777
0.000170898
0.00171605
0.000182499
0.00136545
0.000190958
0.000992021
0.000196125
0.000601884
0.000201775
0.00019794
2.47685e-05
0.00309899
2.45041e-08
4.97383e-05
0.00302567
7.40652e-05
0.00291354
9.72112e-05
0.00275547
0.000118731
0.00255193
0.000138229
0.00230566
0.000155358
0.00202065
0.000169813
0.0017016
0.000181341
0.00135393
0.000189747
0.00098362
0.000194882
0.000596753
0.00019998
0.000196683
2.46091e-05
0.00307435
2.66572e-08
4.94204e-05
0.00300086
7.3593e-05
0.00288936
9.65924e-05
0.00273247
0.000117976
0.00253054
0.000137351
0.00228629
0.000154372
0.00200362
0.000168736
0.00168723
0.000180191
0.00134247
0.000188544
0.000975265
0.000193646
0.000591647
0.000198186
0.000195434
2.44506e-05
0.00304987
2.86944e-08
4.91045e-05
0.00297621
7.31238e-05
0.00286535
9.59775e-05
0.00270961
0.000117226
0.0025093
0.000136479
0.00226704
0.000153392
0.00198671
0.000167665
0.00167296
0.000179048
0.00133109
0.000187348
0.000966969
0.000192418
0.000586581
0.000196419
0.000194193
2.42932e-05
0.00302555
3.05717e-08
4.87905e-05
0.00295171
7.26575e-05
0.00284148
9.53665e-05
0.0026869
0.00011648
0.00248818
0.000135612
0.0022479
0.000152418
0.0019699
0.000166601
0.00165877
0.000177913
0.00131977
0.00018616
0.000958719
0.000191198
0.000581538
0.000194651
0.000192959
2.41367e-05
0.00300138
3.22561e-08
4.84786e-05
0.00292737
7.21942e-05
0.00281776
9.47595e-05
0.00266434
0.00011574
0.0024672
0.00013475
0.00222889
0.00015145
0.00195321
0.000165544
0.00164468
0.000176785
0.00130854
0.00018498
0.000950527
0.000189986
0.000576536
0.000192911
0.000191734
2.39813e-05
0.00297737
3.37225e-08
4.81686e-05
0.00290318
7.17339e-05
0.0027942
9.41563e-05
0.00264191
0.000115004
0.00244635
0.000133894
0.00221
0.000150489
0.00193661
0.000164494
0.00163067
0.000175663
0.00129736
0.000183807
0.00094238
0.000188781
0.000571557
0.000191169
0.000190516
2.38269e-05
0.00295351
3.49637e-08
4.78607e-05
0.00287915
7.12765e-05
0.00277078
9.3557e-05
0.00261964
0.000114273
0.00242564
0.000133044
0.00219123
0.000149534
0.00192012
0.00016345
0.00161676
0.000174549
0.00128627
0.000182642
0.000934292
0.000187584
0.000566619
0.000189454
0.000189307
2.36735e-05
0.00292979
3.59828e-08
4.75547e-05
0.00285527
7.08221e-05
0.00274751
9.29614e-05
0.00259749
0.000113546
0.00240505
0.000132199
0.00217258
0.000148584
0.00190373
0.000162413
0.00160293
0.000173442
0.00127524
0.000181484
0.000926248
0.000186395
0.000561702
0.000187735
0.000188105
2.35212e-05
0.00290624
3.6798e-08
4.72508e-05
0.00283154
7.03706e-05
0.0027244
9.23698e-05
0.0025755
0.000112824
0.0023846
0.000131359
0.00215404
0.000147641
0.00188745
0.000161383
0.00158919
0.000172342
0.00126428
0.000180333
0.000918261
0.000185213
0.000556827
0.000186043
0.00018691
2.33699e-05
0.00288283
3.74309e-08
4.69488e-05
0.00280796
6.9922e-05
0.00270142
9.17819e-05
0.00255363
0.000112107
0.00236427
0.000130525
0.00213562
0.000146704
0.00187127
0.000160359
0.00157553
0.00017125
0.00125339
0.00017919
0.000910317
0.000184038
0.000551972
0.000184347
0.000185724
2.32196e-05
0.00285957
3.79087e-08
4.66488e-05
0.00278453
6.94763e-05
0.0026786
9.11979e-05
0.00253191
0.000111395
0.00234408
0.000129696
0.00211732
0.000145773
0.0018552
0.000159342
0.00156197
0.000170163
0.00124257
0.000178053
0.000902431
0.000182871
0.000547158
0.000182677
0.000184544
2.30704e-05
0.00283646
3.8252e-08
4.63507e-05
0.00276125
6.90335e-05
0.00265591
9.06175e-05
0.00251033
0.000110687
0.002324
0.000128872
0.00209913
0.000144848
0.00183922
0.000158331
0.00154848
0.000169084
0.00123181
0.000176924
0.000894587
0.000181712
0.000542365
0.000181001
0.000183373
2.29222e-05
0.0028135
3.84794e-08
4.60547e-05
0.00273812
6.85936e-05
0.00263337
9.0041e-05
0.00248888
0.000109983
0.00230406
0.000128054
0.00208107
0.000143928
0.00182335
0.000157326
0.00153508
0.000168012
0.00122113
0.000175803
0.000886801
0.000180559
0.000537612
0.000179353
0.000182209
2.2775e-05
0.00279069
3.85991e-08
4.57605e-05
0.00271513
6.81566e-05
0.00261098
8.94681e-05
0.00246757
0.000109284
0.00228425
0.000127241
0.00206311
0.000143015
0.00180757
0.000156328
0.00152177
0.000166946
0.00121051
0.000174688
0.000879055
0.000179414
0.000532879
0.000177697
0.000181053
2.26289e-05
0.00276802
3.86182e-08
4.54684e-05
0.00269229
6.77224e-05
0.00258872
8.88989e-05
0.00244639
0.000108589
0.00226456
0.000126432
0.00204527
0.000142107
0.0017919
0.000155336
0.00150854
0.000165888
0.00119996
0.00017358
0.000871366
0.000178276
0.000528186
0.00017607
0.000179904
2.24838e-05
0.0027455
3.85392e-08
4.51781e-05
0.0026696
6.7291e-05
0.00256661
8.83334e-05
0.00242535
0.000107899
0.00224499
0.00012563
0.00202753
0.000141205
0.00177632
0.000154351
0.00149539
0.000164836
0.00118947
0.00017248
0.000863718
0.000177146
0.000523513
0.000174434
0.000178762
2.23397e-05
0.00272312
3.83721e-08
4.48898e-05
0.00264705
6.68624e-05
0.00254464
8.77716e-05
0.00240444
0.000107214
0.00222555
0.000124832
0.00200992
0.000140309
0.00176085
0.000153372
0.00148233
0.00016379
0.00117905
0.000171386
0.000856125
0.000176023
0.000518878
0.000172828
0.000177628
2.21966e-05
0.00270089
3.81318e-08
4.46034e-05
0.00262464
6.64366e-05
0.0025228
8.72133e-05
0.00238366
0.000106532
0.00220623
0.000124039
0.00199241
0.000139418
0.00174546
0.000152399
0.00146935
0.000162751
0.0011687
0.0001703
0.000848573
0.000174906
0.00051426
0.000171213
0.000176502
2.20545e-05
0.0026788
3.78478e-08
4.43189e-05
0.00260237
6.60136e-05
0.00250111
8.66586e-05
0.00236302
0.000105855
0.00218703
0.000123251
0.00197501
0.000138533
0.00173018
0.000151432
0.00145645
0.000161719
0.00115841
0.00016922
0.000841076
0.000173797
0.000509682
0.000169631
0.000175382
2.19133e-05
0.00265684
3.75572e-08
4.40362e-05
0.00258025
6.55933e-05
0.00247955
8.61075e-05
0.0023425
0.000105183
0.00216795
0.000122469
0.00195772
0.000137654
0.001715
0.000150471
0.00144363
0.000160694
0.00114819
0.000168147
0.000833617
0.000172695
0.000505121
0.000168038
0.00017427
2.17732e-05
0.00263503
3.73085e-08
4.37554e-05
0.00255827
6.51757e-05
0.00245813
8.55599e-05
0.00232212
0.000104514
0.002149
0.000121691
0.00194055
0.00013678
0.00169991
0.000149516
0.0014309
0.000159675
0.00113803
0.000167081
0.000826215
0.000171601
0.000500598
0.00016648
0.000173166
2.1634e-05
0.00261336
3.71491e-08
4.34765e-05
0.00253643
6.47608e-05
0.00243685
8.50158e-05
0.00230186
0.00010385
0.00213017
0.000120918
0.00192348
0.000135912
0.00168491
0.000148568
0.00141824
0.000158662
0.00112793
0.000166022
0.000818849
0.000170513
0.000496091
0.000164911
0.000172068
2.14958e-05
0.00259183
3.71259e-08
4.31994e-05
0.00251472
6.43486e-05
0.0024157
8.44752e-05
0.00228174
0.00010319
0.00211145
0.00012015
0.00190652
0.000135049
0.00167001
0.000147625
0.00140567
0.000157656
0.0011179
0.000164969
0.000811539
0.000169432
0.000491624
0.000163377
0.000170978
2.13585e-05
0.00257043
3.72714e-08
4.29241e-05
0.00249316
6.39391e-05
0.00239468
8.3938e-05
0.00226174
0.000102535
0.00209285
0.000119387
0.00188967
0.000134192
0.00165521
0.000146689
0.00139317
0.000156656
0.00110793
0.000163924
0.000804266
0.000168358
0.000487172
0.000161831
0.000169894
2.12222e-05
0.00254917
3.7606e-08
4.26506e-05
0.00247173
6.35321e-05
0.0023738
8.34043e-05
0.00224186
0.000101883
0.00207438
0.000118629
0.00187292
0.00013334
0.0016405
0.000145758
0.00138075
0.000155663
0.00109803
0.000162885
0.000797047
0.000167291
0.000482762
0.000160318
0.000168818
2.10867e-05
0.00252804
3.81291e-08
4.23788e-05
0.00245043
6.31278e-05
0.00235305
8.28739e-05
0.00222212
0.000101236
0.00205601
0.000117875
0.00185628
0.000132494
0.00162587
0.000144833
0.00136841
0.000154676
0.00108818
0.000161852
0.000789864
0.000166231
0.000478366
0.000158794
0.000167748
2.09522e-05
0.00250705
3.88276e-08
4.21089e-05
0.00242928
6.27261e-05
0.00233243
8.2347e-05
0.0022025
0.000100592
0.00203777
0.000117127
0.00183975
0.000131653
0.00161135
0.000143914
0.00135615
0.000153695
0.0010784
0.000160826
0.000782736
0.000165178
0.000474011
0.0001573
0.000166686
2.08185e-05
0.00248619
3.96724e-08
4.18407e-05
0.00240826
6.23269e-05
0.00231195
8.18233e-05
0.002183
9.9953e-05
0.00201964
0.000116383
0.00182331
0.000130817
0.00159691
0.000143001
0.00134396
0.000152721
0.00106868
0.000159807
0.000775642
0.000164131
0.000469671
0.000155792
0.00016563
2.06857e-05
0.00246547
4.06308e-08
4.15742e-05
0.00238737
6.19303e-05
0.00229159
8.1303e-05
0.00216363
9.93178e-05
0.00200162
0.000115644
0.00180699
0.000129987
0.00158257
0.000142094
0.00133186
0.000151752
0.00105902
0.000158794
0.000768603
0.000163092
0.000465372
0.000154313
0.00016458
2.05538e-05
0.00244487
4.16659e-08
4.13094e-05
0.00236661
6.15362e-05
0.00227136
8.0786e-05
0.00214437
9.86866e-05
0.00198372
0.000114909
0.00179076
0.000129162
0.00156832
0.000141193
0.00131982
0.00015079
0.00104942
0.000157788
0.000761597
0.000162058
0.000461087
0.00015282
0.000163538
2.04227e-05
0.00242441
4.27485e-08
4.10463e-05
0.00234599
6.11446e-05
0.00225127
8.02723e-05
0.00212525
9.80595e-05
0.00196593
0.000114179
0.00177464
0.000128342
0.00155415
0.000140297
0.00130787
0.000149834
0.00103989
0.000156788
0.000754645
0.000161032
0.000456843
0.000151354
0.000162502
2.02924e-05
0.00240407
4.38529e-08
4.07849e-05
0.00232549
6.07555e-05
0.00223129
7.97618e-05
0.00210624
9.74363e-05
0.00194826
0.000113454
0.00175862
0.000127528
0.00154008
0.000139408
0.00129599
0.000148885
0.0010304
0.000155795
0.000747727
0.000160012
0.000452611
0.000149874
0.000161473
2.0163e-05
0.00238386
4.49657e-08
4.05252e-05
0.00230513
6.03689e-05
0.00221145
7.92546e-05
0.00208735
9.6817e-05
0.00193069
0.000112734
0.00174271
0.000126718
0.0015261
0.000138523
0.00128418
0.000147941
0.00102099
0.000154808
0.000740861
0.000158999
0.000448419
0.000148422
0.00016045
2.00344e-05
0.00236378
4.60772e-08
4.02671e-05
0.0022849
5.99847e-05
0.00219173
7.87505e-05
0.00206859
9.62017e-05
0.00191324
0.000112018
0.00172689
0.000125914
0.00151219
0.000137645
0.00127245
0.000147004
0.00101162
0.000153828
0.000734028
0.000157993
0.000444241
0.000146955
0.000159435
1.99065e-05
0.00234382
4.71863e-08
4.00107e-05
0.00226479
5.96029e-05
0.00217214
7.82497e-05
0.00204994
9.55903e-05
0.0018959
0.000111306
0.00171117
0.000125115
0.00149839
0.000136772
0.00126079
0.000146072
0.00100232
0.000152854
0.000727247
0.000156992
0.0004401
0.000145518
0.000158426
1.97795e-05
0.00232399
4.82903e-08
3.97558e-05
0.00224482
5.92235e-05
0.00215267
7.7752e-05
0.00203141
9.49828e-05
0.00187867
0.0001106
0.00169555
0.000124321
0.00148466
0.000135905
0.0012492
0.000145146
0.000993074
0.000151886
0.000720499
0.000155999
0.000435971
0.000144066
0.000157423
1.96532e-05
0.00230429
4.93889e-08
3.95026e-05
0.00222497
5.88466e-05
0.00213333
7.72575e-05
0.002013
9.43792e-05
0.00186155
0.000109897
0.00168004
0.000123532
0.00147103
0.000135043
0.00123769
0.000144227
0.000983891
0.000150924
0.000713802
0.000155012
0.000431878
0.000142648
0.000156428
1.95277e-05
0.00228471
5.04751e-08
3.92509e-05
0.00220524
5.8472e-05
0.00211411
7.67661e-05
0.0019947
9.37794e-05
0.00184453
0.000109199
0.00166461
0.000122749
0.00145748
0.000134187
0.00122625
0.000143313
0.000974758
0.000149969
0.000707136
0.000154031
0.000427799
0.000141218
0.000155439
1.9403e-05
0.00226526
5.15418e-08
3.90008e-05
0.00218565
5.80998e-05
0.00209501
7.62778e-05
0.00197653
9.31834e-05
0.00182763
0.000108506
0.00164929
0.00012197
0.00144401
0.000133337
0.00121488
0.000142406
0.000965689
0.00014902
0.000700522
0.000153057
0.000423755
0.000139821
0.000154456
1.9279e-05
0.00224592
5.25743e-08
3.87523e-05
0.00216617
5.77299e-05
0.00207603
7.57926e-05
0.00195846
9.25912e-05
0.00181082
0.000107817
0.00163406
0.000121196
0.00143063
0.000132491
0.00120358
0.000141504
0.000956668
0.000148077
0.000693939
0.000152089
0.000419723
0.000138411
0.00015348
1.91558e-05
0.00222671
5.35596e-08
3.85053e-05
0.00214682
5.73623e-05
0.00205717
7.53105e-05
0.00194051
9.20027e-05
0.00179413
0.000107133
0.00161893
0.000120427
0.00141734
0.000131652
0.00119236
0.000140608
0.000947712
0.00014714
0.000687407
0.000151127
0.000415728
0.000137036
0.000152511
1.90333e-05
0.00220762
5.4481e-08
3.82599e-05
0.0021276
5.69971e-05
0.00203843
7.48315e-05
0.00192268
9.14181e-05
0.00177754
0.000106452
0.00160389
0.000119663
0.00140412
0.000130818
0.0011812
0.000139718
0.000938804
0.000146209
0.000680905
0.000150172
0.000411745
0.000135649
0.000151548
1.89116e-05
0.00218866
5.53274e-08
3.80159e-05
0.00210849
5.66341e-05
0.00201982
7.43555e-05
0.00190496
9.08371e-05
0.00176106
0.000105777
0.00158895
0.000118905
0.00139099
0.000129989
0.00117011
0.000138833
0.000929959
0.000145284
0.000674453
0.000149223
0.000407799
0.000134294
0.000150591
1.87906e-05
0.00216981
5.60876e-08
3.77735e-05
0.00208951
5.62735e-05
0.00200131
7.38825e-05
0.00188734
9.02599e-05
0.00174468
0.000105105
0.0015741
0.000118151
0.00137794
0.000129165
0.00115909
0.000137955
0.000921161
0.000144365
0.000668032
0.00014828
0.000403866
0.000132927
0.000149641
1.86703e-05
0.00215108
5.67586e-08
3.75327e-05
0.00207065
5.59151e-05
0.00198293
7.34125e-05
0.00186985
8.96863e-05
0.00172841
0.000104438
0.00155935
0.000117401
0.00136498
0.000128347
0.00114815
0.000137082
0.000912425
0.000143453
0.00066166
0.000147343
0.00039997
0.00013159
0.000148697
1.85508e-05
0.00213247
5.73385e-08
3.72933e-05
0.0020519
5.5559e-05
0.00196467
7.29455e-05
0.00185246
8.91165e-05
0.00171224
0.000103775
0.00154469
0.000116657
0.00135209
0.000127534
0.00113726
0.000136214
0.000903736
0.000142546
0.000655318
0.000146413
0.000396086
0.00013024
0.000147759
1.84319e-05
0.00211398
5.78325e-08
3.70554e-05
0.00203328
5.52051e-05
0.00194652
7.24815e-05
0.00183518
8.85503e-05
0.00169617
0.000103117
0.00153012
0.000115918
0.00133929
0.000126727
0.00112645
0.000135353
0.000895109
0.000141645
0.000649025
0.000145489
0.000392239
0.000128918
0.000146827
1.83138e-05
0.00209561
5.82448e-08
3.68189e-05
0.00201477
5.48535e-05
0.00192848
7.20205e-05
0.00181801
8.79877e-05
0.0016802
0.000102462
0.00151564
0.000115183
0.00132656
0.000125924
0.0011157
0.000134497
0.000886528
0.00014075
0.000642761
0.00014457
0.000388404
0.000127582
0.000145902
1.81964e-05
0.00207735
5.85839e-08
3.6584e-05
0.00199639
5.45041e-05
0.00191056
7.15624e-05
0.00180096
8.74287e-05
0.00166433
0.000101812
0.00150126
0.000114453
0.00131392
0.000125127
0.00110503
0.000133646
0.000878008
0.000139861
0.000636546
0.000143658
0.000384605
0.000126275
0.000144982
1.80798e-05
0.00205921
5.8855e-08
3.63505e-05
0.00197811
5.41569e-05
0.00189275
7.11072e-05
0.001784
8.68733e-05
0.00164856
0.000101166
0.00148696
0.000113728
0.00130135
0.000124335
0.00109441
0.000132801
0.000869533
0.000138977
0.000630359
0.000142752
0.000380818
0.000124954
0.000144069
1.79638e-05
0.00204119
5.90655e-08
3.61185e-05
0.00195996
5.38119e-05
0.00187506
7.06549e-05
0.00176716
8.63215e-05
0.00163289
0.000100525
0.00147276
0.000113007
0.00128887
0.000123549
0.00108387
0.000131962
0.000861119
0.0001381
0.000624221
0.000141852
0.000377066
0.000123661
0.000143161
1.78485e-05
0.00202328
5.92197e-08
3.58879e-05
0.00194192
5.34691e-05
0.00185748
7.02056e-05
0.00175042
8.57733e-05
0.00161732
9.9887e-05
0.00145864
0.000112292
0.00127646
0.000122767
0.00107339
0.000131128
0.000852749
0.000137228
0.000618111
0.000140957
0.000373325
0.000122354
0.00014226
1.7734e-05
0.00200549
5.93249e-08
3.56588e-05
0.00192399
5.31285e-05
0.00184001
6.97591e-05
0.00173379
8.52286e-05
0.00160185
9.92536e-05
0.00144462
0.00011158
0.00126413
0.000121991
0.00106298
0.000130299
0.000844438
0.000136362
0.000612048
0.000140069
0.00036962
0.000121075
0.000141364
1.76202e-05
0.0019878
5.93874e-08
3.54311e-05
0.00190618
5.279e-05
0.00182265
6.93155e-05
0.00171726
8.46874e-05
0.00158648
9.86242e-05
0.00143067
0.000110874
0.00125188
0.000121219
0.00105262
0.000129476
0.000836172
0.000135501
0.000606013
0.000139186
0.000365925
0.000119782
0.000140474
1.75071e-05
0.00197024
5.94194e-08
3.52048e-05
0.00188849
5.24538e-05
0.0018054
6.88747e-05
0.00170084
8.41497e-05
0.0015712
9.7999e-05
0.00141682
0.000110172
0.0012397
0.000120453
0.00104234
0.000128659
0.000827965
0.000134646
0.000600025
0.000138309
0.000362265
0.000118518
0.000139591
1.73947e-05
0.00195278
5.94339e-08
3.498e-05
0.0018709
5.21196e-05
0.00178826
6.84368e-05
0.00168452
8.36155e-05
0.00155602
9.73778e-05
0.00140306
0.000109475
0.0012276
0.000119691
0.00103212
0.000127846
0.000819801
0.000133797
0.000594064
0.000137438
0.000358614
0.000117239
0.000138712
1.7283e-05
0.00193544
5.94513e-08
3.47566e-05
0.00185343
5.17876e-05
0.00177123
6.80017e-05
0.00166831
8.30848e-05
0.00154094
9.67607e-05
0.00138938
0.000108782
0.00121558
0.000118935
0.00102196
0.000127039
0.000811694
0.000132954
0.00058815
0.000136573
0.000354998
0.00011599
0.00013784
1.7172e-05
0.0019182
5.94918e-08
3.45347e-05
0.00183606
5.14578e-05
0.0017543
6.75694e-05
0.00165219
8.25575e-05
0.00152594
9.61476e-05
0.00137578
0.000108093
0.00120362
0.000118183
0.00101186
0.000126238
0.000803631
0.000132116
0.000582263
0.000135713
0.000351392
0.000114724
0.000136974
1.70618e-05
0.00190108
5.95806e-08
3.43141e-05
0.00181881
5.113e-05
0.00173749
6.71399e-05
0.00163618
8.20337e-05
0.00151105
9.55385e-05
0.00136228
0.00010741
0.00119175
0.000117437
0.00100184
0.000125441
0.000795625
0.000131283
0.000576421
0.000134859
0.00034782
0.000113489
0.000136113
1.69522e-05
0.00188407
5.97395e-08
3.4095e-05
0.00180167
5.08044e-05
0.00172078
6.67132e-05
0.00162027
8.15132e-05
0.00149625
9.49334e-05
0.00134885
0.00010673
0.00117995
0.000116695
0.000991864
0.00012465
0.000787662
0.000130456
0.000570606
0.000134011
0.000344257
0.000112237
0.000135258
1.68433e-05
0.00186717
5.99903e-08
3.38773e-05
0.00178463
5.04809e-05
0.00170417
6.62893e-05
0.00160446
8.09962e-05
0.00148154
9.43322e-05
0.00133552
0.000106056
0.00116822
0.000115958
0.00098196
0.000123864
0.000779755
0.000129635
0.000564836
0.000133168
0.000340727
0.000111016
0.000134409
1.67352e-05
0.00185037
6.03469e-08
3.3661e-05
0.00176771
5.01595e-05
0.00168767
6.58681e-05
0.00158875
8.04825e-05
0.00146692
9.3735e-05
0.00132226
0.000105385
0.00115657
0.000115226
0.000972112
0.000123084
0.000771889
0.000128818
0.000559093
0.000132331
0.000337207
0.000109778
0.000133565
1.66277e-05
0.00183368
6.08199e-08
3.34461e-05
0.00175089
4.98402e-05
0.00167128
6.54497e-05
0.00157314
7.99722e-05
0.0014524
9.31416e-05
0.00130909
0.000104719
0.00114499
0.000114499
0.000962331
0.000122308
0.00076408
0.000128008
0.000553393
0.000131499
0.00033372
0.00010857
0.000132727
1.6521e-05
0.0018171
6.14098e-08
3.32326e-05
0.00173417
4.9523e-05
0.00165499
6.5034e-05
0.00155763
7.94653e-05
0.00143796
9.25522e-05
0.001296
0.000104058
0.00113348
0.000113777
0.000952605
0.000121537
0.000756311
0.000127202
0.00054772
0.000130673
0.000330242
0.000107345
0.000131894
1.6415e-05
0.00180062
6.21132e-08
3.30205e-05
0.00171757
4.92078e-05
0.0016388
6.4621e-05
0.00154222
7.89616e-05
0.00142362
9.19667e-05
0.00128299
0.0001034
0.00112204
0.000113059
0.000942944
0.000120772
0.000748598
0.000126402
0.00054209
0.000129852
0.000326797
0.00010615
0.000131067
1.63096e-05
0.00178424
6.29186e-08
3.28098e-05
0.00170107
4.88947e-05
0.00162271
6.42108e-05
0.0015269
7.84613e-05
0.00140937
9.1385e-05
0.00127006
0.000102747
0.00111067
0.000112346
0.000933339
0.000120012
0.000740925
0.000125607
0.000536486
0.000129037
0.000323361
0.000104938
0.000130245
1.6205e-05
0.00176798
6.38129e-08
3.26005e-05
0.00168467
4.85836e-05
0.00160673
6.38032e-05
0.00151168
7.79642e-05
0.0013952
9.08071e-05
0.00125722
0.000102099
0.00109938
0.000111638
0.000923798
0.000119256
0.000733307
0.000124818
0.000530925
0.000128227
0.000319956
0.000103757
0.000129429
1.6101e-05
0.00175181
6.47786e-08
3.23925e-05
0.00166838
4.82746e-05
0.00159085
6.33983e-05
0.00149655
7.74705e-05
0.00138113
9.0233e-05
0.00124445
0.000101455
0.00108815
0.000110935
0.000914312
0.000118506
0.000725729
0.000124034
0.00052539
0.000127423
0.000316561
0.000102557
0.000128618
1.59978e-05
0.00173574
6.58001e-08
3.2186e-05
0.00165219
4.79677e-05
0.00157507
6.29961e-05
0.00148152
7.69799e-05
0.00136714
8.96627e-05
0.00123177
0.000100814
0.001077
0.000110236
0.000904889
0.000117761
0.000718204
0.000123255
0.000519896
0.000126624
0.000313197
0.000101388
0.000127813
1.58952e-05
0.00171978
6.68608e-08
3.19808e-05
0.00163611
4.76627e-05
0.00155938
6.25965e-05
0.00146659
7.64927e-05
0.00135324
8.90962e-05
0.00121916
0.000100179
0.00106591
0.000109542
0.00089552
0.00011702
0.000710719
0.000122481
0.000514428
0.00012583
0.000309843
0.000100201
0.000127013
1.57933e-05
0.00170392
6.79476e-08
3.1777e-05
0.00162012
4.73598e-05
0.0015438
6.21995e-05
0.00145175
7.60086e-05
0.00133943
8.85334e-05
0.00120663
9.9547e-05
0.0010549
0.000108852
0.000886214
0.000116285
0.000703287
0.000121712
0.000509001
0.000125042
0.000306519
9.90432e-05
0.000126218
1.56921e-05
0.00168815
6.90475e-08
3.15745e-05
0.00160424
4.70589e-05
0.00152831
6.18052e-05
0.001437
7.55277e-05
0.00132571
8.79744e-05
0.00119418
9.89195e-05
0.00104395
0.000108167
0.00087696
0.000115554
0.000695894
0.000120948
0.0005036
0.000124258
0.000303204
9.78679e-05
0.000125429
1.55916e-05
0.00167249
7.01512e-08
3.13734e-05
0.00158846
4.676e-05
0.00151293
6.14135e-05
0.00142234
7.505e-05
0.00131207
8.7419e-05
0.00118181
9.82962e-05