/*--------------------------------*- C++ -*----------------------------------*\
  =========                 |
  \\      /  F ield         | OpenFOAM: The Open Source CFD Toolbox
   \\    /   O peration     | Website:  https://openfoam.org
    \\  /    A nd           | Version:  6.0
     \\/     M anipulation  |
\*---------------------------------------------------------------------------*/
FoamFile
{
    version     2.0;
    format      ascii;
    class       volVectorField;
    location    "0.5";
    object      U;
}
// * * * * * * * * * * * * * * * * * * * * * * * * * * * * * * * * * * * * * //

dimensions      [0 1 -1 0 0 0 0];

internalField   nonuniform List<vector> 
29500
(
(0.999997 -5.90978e-06 1.30712e-18)
(0.999971 -1.60163e-05 7.31909e-18)
(0.999924 -3.66045e-05 2.54288e-16)
(0.999863 -7.31451e-05 5.0052e-17)
(0.999798 -0.000129807 -3.17411e-16)
(0.999744 -0.000201119 4.90419e-17)
(0.999713 -0.000275576 -2.71714e-16)
(0.999712 -0.000339061 1.44783e-16)
(0.999743 -0.000376971 5.83835e-16)
(0.999805 -0.000369291 -5.00185e-17)
(0.99989 -0.000301841 -7.06298e-16)
(0.999994 -0.000120608 -3.36541e-16)
(1.00009 0.00014776 2.3374e-16)
(1.00005 0.000856418 -1.03913e-15)
(1.00394 0.00408182 2.62993e-16)
(0.999994 -1.403e-05 -4.53892e-17)
(0.999947 -3.60184e-05 1.18301e-16)
(0.999863 -7.82764e-05 -1.74123e-16)
(0.999753 -0.000151681 -4.1438e-16)
(0.999637 -0.000262841 4.09655e-16)
(0.999545 -0.000399304 6.34077e-17)
(0.999495 -0.000537721 3.07375e-16)
(0.999501 -0.000653581 -1.18301e-16)
(0.999565 -0.000722028 -5.04411e-16)
(0.999686 -0.000706667 -6.126e-16)
(0.999848 -0.000584539 3.51383e-16)
(1.00004 -0.00025949 8.53239e-17)
(1.00025 0.000209365 -5.2329e-16)
(0.999965 0.00132048 2.78613e-16)
(1.0057 0.00552613 -1.8165e-16)
(0.999993 -2.10443e-05 -1.46299e-17)
(0.999956 -5.03904e-05 -1.09171e-16)
(0.999888 -9.76739e-05 -1.35059e-16)
(0.999799 -0.000173262 2.03346e-16)
(0.999704 -0.000283088 -3.12444e-16)
(0.999632 -0.000413469 -7.08095e-17)
(0.9996 -0.000540054 3.17308e-16)
(0.999617 -0.000640989 -7.38405e-16)
(0.999687 -0.000696298 -5.92685e-17)
(0.999807 -0.00067293 1.93352e-16)
(0.999965 -0.000552722 1.13553e-16)
(1.00014 -0.000246421 1.95438e-16)
(1.0004 0.000192502 -2.39207e-17)
(0.999894 0.00114347 3.89694e-16)
(1.00488 0.00398699 1.64653e-16)
(0.999993 -2.79801e-05 7.91519e-17)
(0.999966 -6.58427e-05 6.81278e-17)
(0.999919 -0.000118465 -7.62098e-18)
(0.999855 -0.000194915 1.22311e-16)
(0.999787 -0.000299235 -1.34275e-16)
(0.999739 -0.000418082 8.37184e-17)
(0.999724 -0.000527751 -4.64847e-16)
(0.999753 -0.000609322 1.62287e-16)
(0.999826 -0.000648183 1.07715e-16)
(0.99994 -0.000615528 -4.31764e-16)
(1.00009 -0.000497827 1.91463e-17)
(1.00025 -0.000213162 2.02282e-16)
(1.00056 0.000201989 3.61522e-16)
(0.999976 0.00101244 -9.98076e-17)
(1.00397 0.00330134 3.49691e-17)
(0.99999 -3.47268e-05 -5.97564e-17)
(0.999968 -8.33153e-05 -9.60816e-17)
(0.999929 -0.000146416 1.28714e-16)
(0.999875 -0.000232671 -1.81965e-16)
(0.999817 -0.000343526 3.04541e-16)
(0.99978 -0.000465967 -1.04715e-16)
(0.999775 -0.00057561 2.16396e-16)
(0.999814 -0.000653387 9.29114e-17)
(0.999896 -0.000686069 -3.27657e-16)
(1.00002 -0.000645131 4.57633e-16)
(1.00018 -0.000519233 -2.95684e-16)
(1.00033 -0.000226001 -2.73067e-16)
(1.0007 0.000208981 7.94611e-17)
(1.00018 0.000970706 -2.4849e-16)
(1.00339 0.00313202 2.48768e-16)
(0.999987 -4.11456e-05 2.97977e-17)
(0.999966 -0.000101562 1.00039e-16)
(0.999929 -0.000177227 4.16436e-18)
(0.99988 -0.000276502 2.16314e-16)
(0.999829 -0.000397812 1.94371e-16)
(0.999797 -0.000528947 1.55175e-16)
(0.999799 -0.000644979 -5.32441e-16)
(0.999846 -0.000726006 2.08094e-16)
(0.999939 -0.000758427 8.63742e-17)
(1.00007 -0.000712946 1.54497e-16)
(1.00024 -0.000580044 4.95341e-16)
(1.00041 -0.000277551 2.97517e-16)
(1.00082 0.000177486 2.18046e-18)
(1.00043 0.000901846 4.29296e-16)
(1.00305 0.002839 -1.7331e-16)
(0.999983 -4.73011e-05 -1.51294e-17)
(0.999963 -0.00012005 -5.0356e-17)
(0.999931 -0.000208277 1.90636e-17)
(0.999887 -0.000319664 -1.99961e-17)
(0.999845 -0.000449494 -4.30014e-16)
(0.99982 -0.000586972 2.4043e-16)
(0.99983 -0.000707902 6.18956e-16)
(0.999884 -0.000792409 3.12501e-16)
(0.999985 -0.000826446 6.84521e-16)
(1.00013 -0.000780341 -3.56956e-16)
(1.00031 -0.000646214 -4.20013e-16)
(1.00048 -0.000345126 -7.5835e-16)
(1.00092 0.000118278 -2.08584e-16)
(1.00067 0.000797569 -3.02174e-16)
(1.00288 0.00250083 -1.74071e-16)
(0.999977 -5.32957e-05 3.81235e-17)
(0.99996 -0.000138898 5.98722e-17)
(0.999932 -0.00023975 -3.59161e-17)
(0.999896 -0.0003625 1.16572e-16)
(0.999864 -0.000499359 1.33888e-16)
(0.999848 -0.000641016 -7.33265e-16)
(0.999866 -0.000765043 6.6622e-17)
(0.999927 -0.00085225 -4.05431e-16)
(1.00003 -0.000888204 -8.14302e-16)
(1.00018 -0.000842762 -2.8251e-16)
(1.00038 -0.000708785 5.41965e-16)
(1.00055 -0.00041162 7.29156e-16)
(1.00101 5.9797e-05 2.58444e-16)
(1.0009 0.000703039 2.78535e-16)
(1.00283 0.00224834 -2.48408e-16)
(0.999971 -5.91884e-05 -2.38059e-17)
(0.999956 -0.000158173 -1.4128e-16)
(0.999932 -0.000272023 1.97621e-17)
(0.999903 -0.000406201 -5.93328e-17)
(0.999881 -0.00055002 3.63867e-16)
(0.999875 -0.000695149 3.08917e-16)
(0.999902 -0.000821321 -7.93902e-16)
(0.999971 -0.000910166 4.4735e-16)
(1.00009 -0.000946903 -1.86466e-16)
(1.00024 -0.000900575 7.35302e-16)
(1.00045 -0.000763899 -8.76806e-16)
(1.00063 -0.000466702 -3.21109e-16)
(1.0011 1.75042e-05 9.40884e-18)
(1.00111 0.000638678 7.21861e-16)
(1.00285 0.00206671 -4.60974e-16)
(0.999964 -6.50127e-05 -3.21309e-17)
(0.99995 -0.000177751 1.29727e-16)
(0.999929 -0.000304831 -4.31673e-17)
(0.999907 -0.000450525 -2.80438e-16)
(0.999895 -0.000601551 -2.12025e-16)
(0.9999 -0.000749853 1.6028e-16)
(0.999938 -0.000877246 2.56485e-16)
(1.00002 -0.000966118 -8.18879e-16)
(1.00014 -0.00100159 2.50626e-16)
(1.00031 -0.0009519 -9.54987e-16)
(1.00052 -0.000809333 -3.17237e-16)
(1.00071 -0.000508727 -3.17801e-16)
(1.00118 -1.07012e-05 -5.53236e-16)
(1.0013 0.000594982 -3.84058e-16)
(1.00289 0.0019135 4.051e-16)
(0.999955 -7.08058e-05 2.27287e-17)
(0.999944 -0.000197485 -1.13031e-16)
(0.999926 -0.000337742 2.33516e-16)
(0.99991 -0.000494808 1.9791e-16)
(0.999907 -0.000653277 3.21749e-16)
(0.999924 -0.000804764 2.60745e-16)
(0.999973 -0.000932804 2.81762e-16)
(1.00006 -0.00102041 6.17587e-16)
(1.0002 -0.00105299 4.85619e-16)
(1.00037 -0.000998342 1.0483e-15)
(1.0006 -0.000848448 9.54465e-16)
(1.0008 -0.000543851 3.26755e-16)
(1.00127 -3.51167e-05 5.97752e-16)
(1.00147 0.000555768 6.95421e-16)
(1.00293 0.00177028 -2.11661e-16)
(0.999945 -7.66067e-05 1.13968e-17)
(0.999937 -0.000217275 3.85231e-17)
(0.999923 -0.000370487 -1.99812e-16)
(0.999913 -0.000538681 -1.07117e-16)
(0.999918 -0.000704965 -4.18549e-16)
(0.999945 -0.000860238 -2.67285e-16)
(1.00001 -0.000989226 -3.82565e-16)
(1.00011 -0.00107536 -5.06607e-16)
(1.00026 -0.00110454 -4.0403e-16)
(1.00044 -0.00104465 1.71079e-16)
(1.00068 -0.000887534 -3.81585e-16)
(1.00089 -0.000579839 -9.73988e-17)
(1.00136 -6.44023e-05 -2.62317e-16)
(1.00163 0.000511846 -8.74126e-16)
(1.00298 0.0016327 6.85529e-16)
(0.999935 -8.24537e-05 -4.52602e-17)
(0.999929 -0.000237055 3.14559e-17)
(0.999919 -0.000402899 -7.79959e-17)
(0.999915 -0.00058191 4.4662e-17)
(0.999928 -0.000756408 1.66784e-16)
(0.999965 -0.000916423 -4.86141e-16)
(1.00004 -0.00104732 -6.46358e-17)
(1.00015 -0.00113261 3.11388e-16)
(1.00031 -0.00115876 6.36912e-17)
(1.00051 -0.00109408 -6.78261e-16)
(1.00076 -0.000930386 8.78167e-16)
(1.00098 -0.000620519 -7.38946e-17)
(1.00144 -0.000101326 -4.27759e-17)
(1.00176 0.000461866 -3.45442e-16)
(1.00302 0.00150117 -6.09182e-16)
(0.999923 -8.83808e-05 4.73112e-17)
(0.999921 -0.000256779 -7.81058e-17)
(0.999915 -0.000434856 1.04122e-16)
(0.999917 -0.000624235 1.39596e-16)
(0.999937 -0.000807101 5.90096e-17)
(0.999983 -0.000972665 2.41936e-16)
(1.00007 -0.00110648 6.34864e-16)
(1.00019 -0.00119176 3.37257e-16)
(1.00037 -0.00121546 -9.55625e-17)
(1.00057 -0.00114654 4.7071e-16)
(1.00084 -0.000976858 -5.55656e-16)
(1.00107 -0.000665328 6.90771e-16)
(1.00153 -0.000144249 -1.81554e-16)
(1.00189 0.000407966 9.9071e-16)
(1.00306 0.00137666 2.38571e-16)
(0.999911 -9.44224e-05 -7.24108e-18)
(0.999912 -0.000276431 5.43268e-17)
(0.999911 -0.000466307 4.0947e-17)
(0.999919 -0.000665488 3.39531e-17)
(0.999947 -0.000856531 -2.44204e-16)
(1 -0.00102803 -2.75353e-16)
(1.0001 -0.00116546 1.2283e-16)
(1.00024 -0.00125141 -2.69182e-16)
(1.00042 -0.00127313 3.11242e-16)
(1.00064 -0.00120047 -3.49271e-16)
(1.00092 -0.00102529 2.99934e-16)
(1.00116 -0.000712423 -6.99489e-16)
(1.00161 -0.000190917 9.11674e-16)
(1.00201 0.000351847 -1.45209e-15)
(1.00311 0.00125876 2.51684e-16)
(0.999898 -0.00010061 -2.13632e-17)
(0.999902 -0.000296027 4.96487e-17)
(0.999907 -0.000497318 -8.96686e-17)
(0.999922 -0.000705747 2.24804e-17)
(0.999958 -0.000904565 7.35013e-17)
(1.00002 -0.00108202 4.27792e-16)
(1.00013 -0.00122344 -1.78222e-16)
(1.00028 -0.00131058 -2.15972e-17)
(1.00047 -0.0013308 -2.42195e-16)
(1.0007 -0.00125494 1.01827e-16)
(1.00099 -0.00107485 -1.35018e-16)
(1.00125 -0.000761086 5.90969e-16)
(1.0017 -0.000240571 -1.03582e-15)
(1.00212 0.000293635 6.13872e-16)
(1.00316 0.00114625 -2.03833e-16)
(0.999884 -0.000106972 2.39339e-17)
(0.999892 -0.000315609 -2.53369e-17)
(0.999902 -0.000528055 -1.43494e-16)
(0.999925 -0.000745345 -8.8423e-17)
(0.999969 -0.000951537 -1.79897e-16)
(1.00004 -0.00113483 -8.24965e-17)
(1.00016 -0.00128042 1.49407e-16)
(1.00032 -0.00136923 9.42774e-17)
(1.00053 -0.00138852 -1.60463e-16)
(1.00077 -0.00131016 -4.28302e-16)
(1.00107 -0.00112597 -4.25417e-16)
(1.00134 -0.00081181 -3.53108e-16)
(1.00179 -0.000293461 6.83806e-16)
(1.00224 0.00023313 -5.08078e-16)
(1.00321 0.00103887 6.69526e-16)
(0.999869 -0.000113529 -1.07512e-18)
(0.99988 -0.00033522 -1.01298e-18)
(0.999896 -0.000558718 5.49852e-17)
(0.999928 -0.00078473 5.20462e-17)
(0.99998 -0.000998059 1.0184e-16)
(1.00006 -0.00118705 1.50095e-16)
(1.00019 -0.00133693 -4.43518e-16)
(1.00036 -0.00142781 2.4553e-16)
(1.00058 -0.0014468 8.64781e-16)
(1.00083 -0.00136671 5.19414e-17)
(1.00114 -0.00117919 -3.31097e-17)
(1.00142 -0.000864987 3.29308e-16)
(1.00188 -0.000349374 -1.45843e-15)
(1.00234 0.00017113 1.39136e-15)
(1.00327 0.000937695 -2.86884e-16)
(0.999854 -0.000120297 -3.67034e-17)
(0.999868 -0.000354893 6.2864e-17)
(0.99989 -0.000589483 1.0335e-16)
(0.999928 -0.000824328 -2.81838e-16)
(0.999991 -0.00104478 -4.10741e-17)
(1.00008 -0.00123939 -5.14262e-16)
(1.00022 -0.00139357 3.62287e-16)
(1.0004 -0.00148677 -3.93885e-16)
(1.00063 -0.00150594 -4.13725e-16)
(1.00089 -0.00142469 4.57756e-16)
(1.00121 -0.00123436 3.19174e-16)
(1.00151 -0.000920007 -2.84806e-16)
(1.00197 -0.000406951 1.7836e-15)
(1.00245 0.00010953 -3.18569e-16)
(1.00333 0.00084417 -4.02117e-16)
(0.999837 -0.000127286 2.77109e-17)
(0.999854 -0.000374647 2.58888e-17)
(0.999881 -0.000620461 6.39417e-18)
(0.999927 -0.000864433 1.2135e-16)
(0.999999 -0.00109219 2.5053e-16)
(1.0001 -0.00129242 5.0099e-16)
(1.00025 -0.00145079 -4.12221e-16)
(1.00044 -0.0015463 3.37924e-16)
(1.00068 -0.00156577 3.30837e-16)
(1.00095 -0.00148357 1.13073e-16)
(1.00128 -0.0012905 -1.56291e-17)
(1.0016 -0.000975462 -1.90157e-16)
(1.00206 -0.000464302 -1.42393e-15)
(1.00256 5.01987e-05 -7.40756e-17)
(1.0034 0.000758836 -1.06702e-16)
(0.99982 -0.000134504 -2.54556e-17)
(0.999839 -0.000394483 -8.67619e-17)
(0.99987 -0.000651687 -1.27423e-16)
(0.999924 -0.000905175 8.94935e-17)
(1.00001 -0.00114057 -2.07568e-16)
(1.00012 -0.00134649 -9.0511e-17)
(1.00028 -0.00150885 -2.56359e-16)
(1.00048 -0.0016064 -7.17778e-16)
(1.00073 -0.00162595 -3.83646e-16)
(1.00101 -0.00154259 -1.07509e-16)
(1.00136 -0.0013465 -6.83251e-18)
(1.00169 -0.00103 2.51238e-16)
(1.00215 -0.000520022 4.17985e-16)
(1.00266 -6.01726e-06 -5.00725e-16)
(1.00348 0.000680778 -2.78476e-17)
(0.999802 -0.000141958 7.10875e-17)
(0.999822 -0.000414397 5.69511e-17)
(0.999858 -0.000683135 1.48408e-16)
(0.999919 -0.000946532 -1.81323e-16)
(1.00001 -0.00118998 -6.84128e-17)
(1.00014 -0.00140173 4.48128e-16)
(1.00031 -0.00156787 -3.24323e-17)
(1.00052 -0.00166705 -1.57849e-16)
(1.00079 -0.00168622 3.60459e-16)
(1.00108 -0.00160126 7.99033e-17)
(1.00143 -0.00140175 -5.28786e-16)
(1.00178 -0.00108305 -1.58868e-16)
(1.00225 -0.000573823 -6.86261e-16)
(1.00277 -5.95994e-05 -2.18966e-16)
(1.00356 0.000608151 -2.90876e-16)
(0.999783 -0.000149657 -6.24274e-17)
(0.999805 -0.000434387 -1.62411e-17)
(0.999845 -0.000714743 -5.22159e-17)
(0.999912 -0.000988373 2.58172e-16)
(1.00001 -0.00124029 1.40961e-16)
(1.00015 -0.0014581 -3.97564e-16)
(1.00033 -0.00162789 5.57818e-16)
(1.00056 -0.00172832 2.93859e-16)
(1.00084 -0.00174666 -8.93697e-16)
(1.00114 -0.00165963 -7.73534e-16)
(1.0015 -0.00145633 4.84353e-16)
(1.00186 -0.00113495 1.25764e-17)
(1.00234 -0.000626392 1.81115e-15)
(1.00288 -0.000111807 5.1629e-16)
(1.00364 0.000538965 7.74522e-16)
(0.999763 -0.000157609 4.24886e-17)
(0.999787 -0.000454464 -7.03762e-17)
(0.999831 -0.000746447 1.63944e-16)
(0.999904 -0.00103051 -2.61653e-16)
(1.00001 -0.00129124 -2.19268e-16)
(1.00016 -0.00151539 3.48561e-16)
(1.00036 -0.00168884 9.17825e-17)
(1.0006 -0.00179032 4.41887e-16)
(1.00089 -0.00180748 7.97149e-16)
(1.0012 -0.00171807 1.5017e-16)
(1.00158 -0.00151083 -2.06049e-16)
(1.00195 -0.00118656 2.92591e-16)
(1.00244 -0.000678821 -1.557e-15)
(1.00298 -0.000163985 3.7245e-16)
(1.00372 0.000471768 -3.5584e-16)
(0.999743 -0.000165821 1.48863e-17)
(0.999768 -0.000474647 7.84189e-17)
(0.999817 -0.000778201 -3.2574e-17)
(0.999896 -0.00107277 -2.99674e-19)
(1.00001 -0.00134253 -1.3302e-17)
(1.00018 -0.00157327 -4.58754e-16)
(1.00038 -0.00175053 -4.70791e-16)
(1.00064 -0.00185304 -6.00317e-18)
(1.00094 -0.00186893 -5.39052e-16)
(1.00126 -0.00177705 4.23345e-16)
(1.00165 -0.00156592 4.01641e-16)
(1.00204 -0.00123876 -6.36885e-16)
(1.00253 -0.000732051 1.12108e-15)
(1.00308 -0.000217042 -1.08523e-15)
(1.00381 0.000405838 -1.41269e-16)
(0.999722 -0.000174299 -4.55118e-17)
(0.999749 -0.000494972 -4.99073e-17)
(0.999802 -0.000809998 1.34813e-16)
(0.999888 -0.00111501 -5.44585e-17)
(1.00002 -0.00139387 3.54255e-16)
(1.00019 -0.00163138 -7.59646e-17)
(1.00041 -0.00181264 1.05642e-16)
(1.00067 -0.00191636 -6.99385e-18)
(1.00099 -0.0019311 1.88222e-16)
(1.00133 -0.00183685 -1.80444e-16)
(1.00173 -0.00162207 -4.45889e-16)
(1.00213 -0.00129213 4.573e-16)
(1.00263 -0.000786624 -3.32036e-16)
(1.00319 -0.000271405 8.32311e-16)
(1.00389 0.000340842 3.52383e-16)
(0.9997 -0.000183044 -1.31673e-17)
(0.999729 -0.000515481 -7.24352e-18)
(0.999787 -0.000841871 -1.88766e-16)
(0.99988 -0.00115718 2.0806e-16)
(1.00002 -0.00144506 -8.79164e-17)
(1.0002 -0.0016894 2.61173e-16)
(1.00043 -0.00187484 6.94578e-17)
(1.00071 -0.00198004 3.1119e-16)
(1.00104 -0.00199389 -4.58126e-16)
(1.00139 -0.00189755 3.3038e-16)
(1.0018 -0.00167946 -2.143e-16)
(1.00222 -0.00134694 -4.73734e-16)
(1.00272 -0.000842719 4.16129e-16)
(1.00329 -0.000327135 5.7141e-16)
(1.00398 0.000276743 -1.35519e-16)
(0.999677 -0.000192049 7.87912e-19)
(0.999708 -0.000536219 1.06367e-16)
(0.999772 -0.000873895 -9.86562e-17)
(0.999873 -0.00119932 -6.7138e-17)
(1.00002 -0.00149602 -1.99809e-16)
(1.00021 -0.00174712 -4.93446e-17)
(1.00045 -0.00193688 -2.35911e-16)
(1.00075 -0.00204384 -6.45814e-16)
(1.00109 -0.00205717 4.31232e-16)
(1.00145 -0.0019591 -2.64746e-16)
(1.00187 -0.00173813 5.93678e-16)
(1.0023 -0.00140324 2.10251e-16)
(1.00282 -0.000900318 -5.03169e-16)
(1.00339 -0.000384138 -1.07813e-15)
(1.00407 0.00021357 -2.3343e-16)
(0.999654 -0.000201301 2.55625e-18)
(0.999686 -0.000557223 -1.42563e-16)
(0.999756 -0.000906163 4.71756e-17)
(0.999865 -0.00124155 2.37204e-16)
(1.00002 -0.00154685 6.81431e-17)
(1.00022 -0.00180456 -2.08647e-16)
(1.00048 -0.00199868 2.59689e-16)
(1.00078 -0.00210768 -4.8994e-17)
(1.00113 -0.00212088 -9.52524e-17)
(1.00151 -0.00202149 -1.29789e-16)
(1.00195 -0.00179806 -2.36475e-16)
(1.00239 -0.001461 2.28421e-16)
(1.00291 -0.000959309 1.65715e-16)
(1.0035 -0.000442192 2.11256e-16)
(1.00415 0.000151619 4.07709e-16)
(0.999629 -0.000210779 1.22837e-18)
(0.999664 -0.000578514 1.01223e-16)
(0.99974 -0.000938773 2.526e-17)
(0.999857 -0.00128405 -3.94733e-16)
(1.00002 -0.00159773 1.16632e-16)
(1.00023 -0.00186188 2.51361e-16)
(1.0005 -0.00206037 1.02269e-16)
(1.00082 -0.00217164 -1.73155e-19)
(1.00118 -0.00218508 1.6782e-16)
(1.00158 -0.00208476 -3.9597e-17)
(1.00202 -0.00185926 -2.36768e-16)
(1.00248 -0.00152017 1.72543e-16)
(1.00301 -0.00101953 8.78878e-17)
(1.0036 -0.000501026 2.24168e-16)
(1.00424 9.10464e-05 -3.50094e-16)
(0.999604 -0.000220454 2.98084e-17)
(0.99964 -0.000600097 -1.07854e-16)
(0.999722 -0.000971799 -1.70555e-16)
(0.999847 -0.00132699 2.74655e-16)
(1.00002 -0.00164893 -7.03355e-17)
(1.00025 -0.00191937 2.24419e-17)
(1.00053 -0.00212223 2.19174e-17)
(1.00085 -0.00223596 2.57963e-17)
(1.00123 -0.00224995 1.50899e-16)
(1.00164 -0.00214902 2.27138e-17)
(1.00209 -0.00192175 1.66878e-16)
(1.00256 -0.00158066 -4.70048e-16)
(1.0031 -0.00108073 -4.92012e-16)
(1.0037 -0.000560259 -3.65954e-16)
(1.00433 3.21758e-05 2.94201e-16)
(0.999578 -0.000230289 -4.18274e-17)
(0.999616 -0.000621953 8.66194e-17)
(0.999703 -0.00100528 1.47763e-16)
(0.999837 -0.00137051 4.89389e-17)
(1.00002 -0.00170072 4.11236e-17)
(1.00026 -0.00197738 -2.60581e-16)
(1.00055 -0.00218458 -1.36192e-16)
(1.00089 -0.0023009 3.1261e-16)
(1.00128 -0.00231568 -1.39993e-16)
(1.0017 -0.00221435 3.67961e-17)
(1.00217 -0.00198546 3.00537e-16)
(1.00265 -0.00164228 7.37461e-18)
(1.00319 -0.00114261 4.96177e-16)
(1.0038 -0.000619512 9.89687e-17)
(1.00443 -2.48966e-05 -3.15487e-16)
(0.999551 -0.000240245 4.29686e-17)
(0.99959 -0.000644046 -6.54444e-17)
(0.999683 -0.00103921 2.42288e-17)
(0.999824 -0.00141469 -2.62512e-16)
(1.00002 -0.00175326 -6.07538e-17)
(1.00027 -0.00203617 3.53993e-16)
(1.00057 -0.00224775 -1.506e-16)
(1.00092 -0.00236675 -2.71459e-16)
(1.00133 -0.00238244 -6.76517e-17)
(1.00176 -0.00228078 6.43425e-17)
(1.00224 -0.00205029 -9.00694e-17)
(1.00274 -0.00170477 -8.67616e-17)
(1.00329 -0.00120482 -1.36142e-17)
(1.0039 -0.000678435 3.95009e-16)
(1.00452 -8.01257e-05 3.69368e-16)
(0.999523 -0.00025028 -1.76231e-17)
(0.999563 -0.000666328 7.2029e-17)
(0.999661 -0.00107354 1.20498e-16)
(0.99981 -0.00145951 -1.29582e-16)
(1.00001 -0.00180665 1.45079e-17)
(1.00027 -0.00209592 -1.96725e-16)
(1.00059 -0.00231194 4.13263e-16)
(1.00096 -0.00243367 1.2125e-16)
(1.00137 -0.00245031 -5.35556e-17)
(1.00182 -0.00234828 8.87004e-17)
(1.00231 -0.00211606 -3.14854e-16)
(1.00282 -0.0017679 2.61935e-16)
(1.00338 -0.00126711 4.01789e-17)
(1.004 -0.00073687 -3.00424e-16)
(1.00462 -0.000133755 -1.46864e-16)
(0.999494 -0.000260351 3.16269e-17)
(0.999535 -0.000688742 -7.34305e-17)
(0.999638 -0.00110818 -7.28595e-18)
(0.999794 -0.00150488 2.7498e-16)
(1.00001 -0.00186084 -2.68897e-16)
(1.00028 -0.00215667 -4.44457e-17)
(1.00061 -0.00237723 -4.2589e-16)
(1.00099 -0.00250173 -7.50447e-17)
(1.00142 -0.00251929 -1.8356e-16)
(1.00188 -0.00241676 1.60936e-16)
(1.00239 -0.00218264 5.0672e-16)
(1.00291 -0.0018315 -4.80339e-17)
(1.00348 -0.00132936 -5.07813e-16)
(1.0041 -0.00079481 -1.2944e-17)
(1.00471 -0.000186078 -8.63333e-17)
(0.999463 -0.000270419 -1.85501e-17)
(0.999506 -0.000711235 7.19637e-17)
(0.999613 -0.00114304 -2.15913e-16)
(0.999777 -0.00155068 -2.02375e-16)
(0.999999 -0.00191571 2.32753e-16)
(1.00028 -0.00221834 1.716e-17)
(1.00063 -0.00244358 2.02599e-16)
(1.00102 -0.0025709 3.34901e-16)
(1.00146 -0.00258933 6.96746e-16)
(1.00194 -0.00248615 -5.03586e-16)
(1.00246 -0.00224992 -6.29122e-16)
(1.00299 -0.0018955 2.42699e-16)
(1.00357 -0.00139159 2.79921e-16)
(1.0042 -0.000852422 -3.99886e-16)
(1.00481 -0.000237553 -1.23409e-16)
(0.999432 -0.000280447 1.97594e-18)
(0.999476 -0.000733761 -5.14704e-17)
(0.999587 -0.001178 5.43572e-17)
(0.999758 -0.00159672 2.7724e-16)
(0.999991 -0.00197106 2.10464e-16)
(1.00029 -0.00228074 1.08191e-16)
(1.00064 -0.00251086 5.36667e-17)
(1.00105 -0.00264108 -3.44283e-16)
(1.00151 -0.00266033 -5.46645e-16)
(1.002 -0.00255636 3.28155e-16)
(1.00253 -0.00231786 5.13206e-16)
(1.00308 -0.00195995 -4.50812e-16)
(1.00367 -0.00145393 -3.17831e-16)
(1.00431 -0.000909924 4.56985e-17)
(1.00491 -0.000288645 -1.16428e-16)
(0.9994 -0.000290405 -4.45493e-17)
(0.999445 -0.000756288 -4.24836e-17)
(0.999561 -0.00121299 1.05132e-16)
(0.999739 -0.00164286 -7.14299e-17)
(0.999981 -0.00202667 -2.1986e-16)
(1.00029 -0.00234366 -4.36248e-18)
(1.00066 -0.00257887 2.22017e-16)
(1.00108 -0.00271211 -1.3413e-16)
(1.00155 -0.0027322 2.96391e-16)
(1.00206 -0.00262735 -1.79314e-16)
(1.0026 -0.00238649 -2.51761e-16)
(1.00317 -0.00202494 3.87565e-16)
(1.00376 -0.00151657 5.26242e-16)
(1.00441 -0.000967583 2.11617e-17)
(1.00501 -0.000339697 1.73854e-16)
(0.999366 -0.000300266 4.27262e-17)
(0.999414 -0.000778795 8.39788e-17)
(0.999534 -0.00124795 2.43134e-17)
(0.999719 -0.00168896 1.63665e-16)
(0.99997 -0.00208236 -4.08321e-18)
(1.00029 -0.00240686 7.14358e-17)
(1.00067 -0.00264739 2.53269e-18)
(1.00111 -0.0027838 1.06953e-16)
(1.0016 -0.00280481 -1.64883e-16)
(1.00212 -0.00269908 -1.6363e-17)
(1.00268 -0.00245583 2.42025e-16)
(1.00325 -0.00209061 4.25981e-17)
(1.00386 -0.0015797 -2.30931e-16)
(1.00451 -0.00102561 4.50567e-16)
(1.00511 -0.00039097 9.66525e-17)
(0.999332 -0.000310009 -7.18025e-18)
(0.999381 -0.00080128 -1.25091e-17)
(0.999506 -0.00128286 -1.78714e-16)
(0.999698 -0.00173496 -2.28752e-16)
(0.99996 -0.00213798 3.45143e-17)
(1.00029 -0.00247017 -2.1752e-16)
(1.00069 -0.00271621 -4.79413e-16)
(1.00114 -0.00285598 2.45103e-16)
(1.00164 -0.00287805 1.7265e-16)
(1.00217 -0.00277152 -2.47401e-16)
(1.00275 -0.00252596 -4.45307e-16)
(1.00334 -0.00215708 -6.31513e-17)
(1.00396 -0.00164348 3.23565e-16)
(1.00461 -0.00108419 2.48166e-16)
(1.00521 -0.000442581 -1.11416e-16)
(0.999296 -0.000319616 -9.74307e-18)
(0.999348 -0.000823748 4.31622e-17)
(0.999478 -0.00131772 -1.95601e-17)
(0.999678 -0.00178085 -8.52889e-17)
(0.999949 -0.0021935 -4.39247e-17)
(1.00029 -0.00253347 2.9523e-16)
(1.0007 -0.00278522 1.38464e-16)
(1.00116 -0.00292857 -2.35538e-16)
(1.00168 -0.00295188 -4.98967e-16)
(1.00223 -0.0028447 3.31572e-16)
(1.00283 -0.00259695 -8.06028e-17)
(1.00343 -0.00222447 -3.68573e-16)
(1.00405 -0.00170806 -2.86582e-16)
(1.00471 -0.00114344 1.22453e-16)
(1.00531 -0.000494711 6.65171e-17)
(0.999259 -0.000329077 4.32838e-19)
(0.999313 -0.000846214 -5.60396e-17)
(0.999449 -0.00135257 7.52731e-17)
(0.999657 -0.00182667 2.16055e-16)
(0.999938 -0.00224894 1.34349e-16)
(1.00029 -0.00259678 -9.18512e-17)
(1.00071 -0.0028544 -2.19214e-16)
(1.00119 -0.00300153 -1.07356e-17)
(1.00173 -0.00302631 3.15338e-16)
(1.00229 -0.00291866 1.82005e-16)
(1.0029 -0.00266889 7.83366e-17)
(1.00352 -0.0022929 5.35934e-16)
(1.00415 -0.00177352 -3.34818e-16)
(1.00482 -0.00120346 -7.66224e-16)
(1.00541 -0.000547261 -1.24909e-16)
(0.999221 -0.000338382 1.85574e-17)
(0.999278 -0.000868695 -8.51718e-17)
(0.999419 -0.00138748 -4.42854e-19)
(0.999635 -0.00187255 1.56516e-16)
(0.999926 -0.00230444 -2.60132e-16)
(1.00029 -0.00266022 -2.99984e-16)
(1.00073 -0.00292384 3.11705e-16)
(1.00122 -0.00307495 3.98813e-17)
(1.00177 -0.00310142 1.37225e-16)
(1.00235 -0.00299352 -2.86103e-16)
(1.00297 -0.0027419 2.62016e-16)
(1.0036 -0.00236246 5.6974e-17)
(1.00425 -0.00183993 6.67702e-16)
(1.00492 -0.00126419 4.16357e-16)
(1.00551 -0.000600166 2.63146e-16)
(0.999181 -0.000347525 -9.16892e-18)
(0.999242 -0.000891206 1.13296e-16)
(0.999388 -0.0014225 8.89804e-17)
(0.999613 -0.00191861 -1.30836e-16)
(0.999914 -0.00236017 9.20328e-17)
(1.00029 -0.00272398 -2.07087e-17)
(1.00074 -0.00299374 2.69183e-17)
(1.00125 -0.003149 -7.75034e-18)
(1.00182 -0.00317739 9.78716e-17)
(1.00241 -0.00306943 4.15952e-16)
(1.00305 -0.00281609 5.94836e-17)
(1.00369 -0.00243323 -3.69942e-16)
(1.00434 -0.0019073 -1.848e-16)
(1.00502 -0.00132559 2.72922e-16)
(1.00561 -0.000653213 -3.0851e-16)
(0.99914 -0.000356502 -2.80984e-17)
(0.999204 -0.000913759 -4.53474e-17)
(0.999356 -0.00145771 -2.56156e-17)
(0.999589 -0.001965 -2.96761e-16)
(0.999901 -0.00241634 2.32583e-16)
(1.00029 -0.00278831 1.19536e-16)
(1.00075 -0.00306434 -4.52436e-17)
(1.00128 -0.00322393 4.45866e-17)
(1.00186 -0.00325441 -2.95771e-16)
(1.00247 -0.00314653 -8.77769e-17)
(1.00312 -0.00289156 -5.67547e-16)
(1.00378 -0.00250523 1.99526e-16)
(1.00444 -0.00197557 -8.53084e-17)
(1.00513 -0.00138755 -8.05557e-16)
(1.00571 -0.000706192 4.76504e-16)
(0.999097 -0.000365314 3.10145e-17)
(0.999165 -0.000936357 -1.06238e-16)
(0.999323 -0.00149315 9.06164e-17)
(0.999564 -0.00201182 7.14879e-17)
(0.999887 -0.00247316 -1.80518e-16)
(1.00029 -0.00285345 2.64735e-16)
(1.00077 -0.00313591 1.62581e-16)
(1.00131 -0.00329996 -1.04176e-16)
(1.0019 -0.00333268 -2.56298e-16)
(1.00253 -0.00322497 1.01692e-17)
(1.00319 -0.00296835 6.04246e-16)
(1.00386 -0.00257842 5.73354e-18)
(1.00454 -0.00204465 1.12412e-16)
(1.00523 -0.00144995 8.31007e-16)
(1.00582 -0.000759034 -5.9064e-16)
(0.999053 -0.00037396 6.64693e-18)
(0.999125 -0.000959 7.58903e-17)
(0.999288 -0.00152884 -1.16586e-16)
(0.999537 -0.00205917 1.40919e-16)
(0.999871 -0.00253076 1.68714e-16)
(1.00029 -0.0029196 -4.53652e-16)
(1.00078 -0.00320865 -2.91159e-16)
(1.00133 -0.0033773 4.34642e-16)
(1.00194 -0.00341234 7.54354e-17)
(1.00259 -0.00330481 -6.04234e-16)
(1.00327 -0.00304647 1.50074e-16)
(1.00395 -0.00265274 -1.36493e-16)
(1.00464 -0.00211442 -1.04343e-16)
(1.00534 -0.00151264 -9.76695e-16)
(1.00592 -0.00081175 2.17571e-16)
(0.999008 -0.000382448 -2.32589e-17)
(0.999084 -0.000981679 1.51261e-16)
(0.999252 -0.00156478 -3.52862e-17)
(0.999509 -0.00210706 -1.86065e-16)
(0.999853 -0.00258921 -1.04646e-16)
(1.00028 -0.00298687 4.24063e-16)
(1.00079 -0.0032827 8.7115e-17)
(1.00136 -0.00345605 -3.53224e-16)
(1.00198 -0.00349346 1.75547e-16)
(1.00265 -0.00338607 5.42407e-16)
(1.00334 -0.00312585 -1.27276e-16)
(1.00404 -0.00272807 2.21009e-17)
(1.00474 -0.00218478 1.43209e-16)
(1.00544 -0.00157549 5.43512e-16)
(1.00603 -0.000864325 9.05449e-17)
(0.998962 -0.000390785 1.95366e-17)
(0.999041 -0.00100439 -1.93928e-16)
(0.999215 -0.00160097 -2.59729e-17)
(0.999479 -0.00215549 2.71138e-16)
(0.999834 -0.00264851 1.77784e-16)
(1.00027 -0.00305527 3.99955e-17)
(1.00079 -0.00335807 -1.90782e-16)
(1.00138 -0.00353624 -1.34532e-16)
(1.00203 -0.00357601 -2.29741e-16)
(1.0027 -0.00346867 5.62703e-17)
(1.00341 -0.0032064 -3.22336e-16)
(1.00413 -0.00280431 -6.01612e-17)
(1.00483 -0.00225563 -1.91983e-16)
(1.00555 -0.00163841 3.57164e-16)
(1.00613 -0.000916659 -1.94049e-16)
(0.998914 -0.000398985 -1.29314e-17)
(0.998997 -0.00102712 2.77047e-17)
(0.999176 -0.00163736 1.11213e-16)
(0.999448 -0.0022044 -4.22308e-16)
(0.999813 -0.0027086 -3.30023e-16)
(1.00027 -0.00312473 -3.3627e-16)
(1.0008 -0.0034347 4.039e-16)
(1.0014 -0.00361777 2.42193e-16)
(1.00207 -0.00365992 2.37107e-16)
(1.00276 -0.00355253 2.58654e-16)
(1.00349 -0.00328802 -1.72599e-17)
(1.00421 -0.00288137 2.11243e-16)
(1.00493 -0.00232696 2.09415e-16)
(1.00565 -0.00170138 -1.27505e-16)
(1.00624 -0.000968831 4.36804e-17)
(0.998864 -0.000407065 3.40662e-17)
(0.998952 -0.00104987 1.2794e-16)
(0.999136 -0.00167394 -2.59667e-17)
(0.999416 -0.00225372 2.60643e-16)
(0.999791 -0.00276936 -3.37292e-17)
(1.00026 -0.00319512 -1.29095e-16)
(1.00081 -0.00351244 1.16176e-18)
(1.00143 -0.00370051 1.89618e-16)
(1.0021 -0.00374504 -9.77133e-17)
(1.00282 -0.00363751 -8.59956e-16)
(1.00356 -0.00337061 4.34028e-16)
(1.0043 -0.0029592 7.54575e-17)
(1.00503 -0.00239878 1.3685e-18)
(1.00576 -0.00176445 1.89074e-17)
(1.00635 -0.00102081 9.59486e-17)
(0.998814 -0.000415046 -4.64486e-17)
(0.998906 -0.00107265 -1.23108e-17)
(0.999094 -0.00171067 1.40339e-18)
(0.999383 -0.00230339 4.47185e-17)
(0.999769 -0.00283068 9.25973e-17)
(1.00025 -0.00326627 5.30935e-16)
(1.00081 -0.00359113 -4.40947e-16)
(1.00145 -0.00378429 -1.66934e-16)
(1.00214 -0.00383123 2.82497e-16)
(1.00287 -0.00372351 3.50269e-16)
(1.00363 -0.00345411 -4.36173e-16)
(1.00439 -0.00303781 -4.10969e-16)
(1.00513 -0.00247116 -5.06662e-16)
(1.00587 -0.00182773 7.84126e-17)
(1.00646 -0.00107277 2.71654e-16)
(0.998762 -0.000422952 -5.23333e-18)
(0.998859 -0.00109548 -5.9422e-17)
(0.999052 -0.00174756 6.42766e-17)
(0.999348 -0.00235334 2.79584e-17)
(0.999745 -0.00289244 1.53074e-16)
(1.00024 -0.00333805 -2.86268e-16)
(1.00082 -0.0036706 5.42694e-16)
(1.00147 -0.00386896 -3.65703e-16)
(1.00218 -0.00391836 -9.21547e-17)
(1.00293 -0.00381045 1.28126e-16)
(1.0037 -0.00353851 5.57761e-17)
(1.00448 -0.00311722 6.02495e-17)
(1.00523 -0.00254418 6.8962e-17)
(1.00597 -0.00189125 -3.69831e-16)
(1.00657 -0.00112474 1.42028e-16)
(0.998709 -0.000430811 2.83947e-17)
(0.99881 -0.00111837 -1.41388e-17)
(0.999009 -0.00178462 -1.86162e-16)
(0.999313 -0.00240358 -6.6667e-17)
(0.999721 -0.00295459 4.61779e-17)
(1.00023 -0.00341036 -8.4858e-17)
(1.00082 -0.00375074 -3.02189e-16)
(1.00149 -0.00395443 2.94197e-16)
(1.00222 -0.00400637 1.60507e-16)
(1.00299 -0.0038983 -1.15357e-16)
(1.00378 -0.00362383 9.31452e-17)
(1.00456 -0.00319751 -3.22133e-18)
(1.00533 -0.00261793 -2.21397e-16)
(1.00608 -0.00195516 2.11014e-16)
(1.00668 -0.00117675 -3.81834e-16)
(0.998655 -0.000438649 2.73424e-17)
(0.99876 -0.00114135 7.59827e-17)
(0.998965 -0.00182187 7.42103e-17)
(0.999277 -0.0024541 -5.1352e-17)
(0.999696 -0.00301713 -2.71787e-16)
(1.00022 -0.00348318 5.07478e-17)
(1.00083 -0.00383151 1.16902e-16)
(1.00151 -0.00404065 1.64909e-16)
(1.00226 -0.00409525 -9.5829e-17)
(1.00304 -0.00398712 2.7234e-16)
(1.00385 -0.00371014 1.6419e-16)
(1.00465 -0.00327876 -2.91619e-17)
(1.00543 -0.00269251 1.07279e-17)
(1.00619 -0.00201955 1.36586e-16)
(1.00679 -0.00122867 4.31808e-17)
(0.9986 -0.000446497 -7.07156e-17)
(0.99871 -0.00116447 7.40104e-18)
(0.99892 -0.00185936 -8.89424e-17)
(0.999241 -0.00250498 1.48094e-16)
(0.99967 -0.00308011 6.17283e-17)
(1.0002 -0.00355653 5.41885e-17)
(1.00083 -0.00391295 -3.79486e-16)
(1.00153 -0.00412768 -1.35141e-17)
(1.0023 -0.00418507 2.73231e-16)
(1.0031 -0.00407697 7.49795e-17)
(1.00392 -0.00379753 -5.71129e-16)
(1.00474 -0.00336107 2.53016e-16)
(1.00553 -0.002768 -1.76195e-16)
(1.0063 -0.00208453 -4.33128e-17)
(1.00691 -0.00128066 -1.73099e-16)