1.275 	2.15223e-18 	-2.76991e-20 	-0.0335793 	-0.000458126 	-2.00605e-22
1.825 	2.15223e-18 	-1.39322e-20 	-0.00792538 	-0.00283452 	1.80417e-21
2.375 	2.15223e-18 	-2.66896e-23 	0.119628 	-0.00337528 	-7.52643e-22
