1.45 	0 	0 	0.0547473 	-0.00803465 	3.54597e-21
2.35 	0 	0 	0.280206 	-0.0122852 	3.40701e-22
