1.45 	0 	0 	-0.283019
2.35 	0 	0 	-0.0516229
