/*--------------------------------*- C++ -*----------------------------------*\
  =========                 |
  \\      /  F ield         | OpenFOAM: The Open Source CFD Toolbox
   \\    /   O peration     | Website:  https://openfoam.org
    \\  /    A nd           | Version:  6.0
     \\/     M anipulation  |
\*---------------------------------------------------------------------------*/
FoamFile
{
    version     2.0;
    format      ascii;
    class       surfaceScalarField;
    location    "23";
    object      phi;
}
// * * * * * * * * * * * * * * * * * * * * * * * * * * * * * * * * * * * * * //

dimensions      [0 3 -1 0 0 0 0];

internalField   nonuniform List<scalar> 
15760
(
-2.24955e-06
2.24909e-06
4.61881e-10
-7.77858e-06
5.52785e-06
1.17481e-09
-1.56362e-05
7.85587e-06
1.72829e-09
-2.50534e-05
9.41509e-06
2.1496e-09
-3.54089e-05
1.03531e-05
2.46048e-09
-4.6204e-05
1.07924e-05
2.67888e-09
-5.70419e-05
1.08351e-05
2.82001e-09
-6.76118e-05
1.0567e-05
2.897e-09
-7.76758e-05
1.00611e-05
2.9204e-09
-8.70589e-05
9.38027e-06
2.8985e-09
-9.56414e-05
8.57963e-06
2.83831e-09
-0.000103352
7.70772e-06
2.74617e-09
-0.000110162
6.80765e-06
2.62833e-09
-0.000116082
5.91768e-06
2.48992e-09
-0.000121156
5.07156e-06
2.33427e-09
-0.000125457
4.29862e-06
2.16417e-09
-0.000129083
3.6237e-06
1.98288e-09
-0.000132152
3.06711e-06
1.79418e-09
-0.000134799
2.6458e-06
1.59943e-09
2.37415e-06
1.40233e-09
-0.000137175
-2.23128e-06
4.48037e-06
-7.70473e-06
1.10013e-05
-1.547e-05
1.56212e-05
-2.47595e-05
1.87046e-05
-3.49532e-05
2.05468e-05
-4.55534e-05
2.13926e-05
-5.6164e-05
2.14456e-05
-6.64738e-05
2.08768e-05
-7.62439e-05
1.98312e-05
-8.5298e-05
1.84343e-05
-9.35139e-05
1.67956e-05
-0.000100818
1.50119e-05
-0.00010718
1.31693e-05
-0.000112607
1.13447e-05
-0.000117141
9.60578e-06
-0.000120854
8.01195e-06
-0.000123844
6.61358e-06
-0.000126229
5.45217e-06
-0.000128146
4.56251e-06
3.97408e-06
-0.000129746
-2.19446e-06
6.67483e-06
-7.55599e-06
1.63628e-05
-1.51356e-05
2.32008e-05
-2.41684e-05
2.77374e-05
-3.40375e-05
3.04158e-05
-4.42475e-05
3.16026e-05
-5.44035e-05
3.16016e-05
-6.41941e-05
3.06674e-05
-7.33788e-05
2.9016e-05
-8.1778e-05
2.68336e-05
-8.92657e-05
2.42832e-05
-9.57631e-05
2.15093e-05
-0.000101235
1.86409e-05
-0.000105683
1.57934e-05
-0.000109147
1.30696e-05
-0.000111695
1.056e-05
-0.000113424
8.34196e-06
-0.000114451
6.48002e-06
-0.000114918
5.0287e-06
4.03408e-06
-0.000114978
-2.13854e-06
8.81336e-06
-7.33012e-06
2.15544e-05
-1.46282e-05
3.04988e-05
-2.32728e-05
3.6382e-05
-3.26522e-05
3.97952e-05
-4.22752e-05
4.12256e-05
-5.17494e-05
4.10758e-05
-6.07637e-05
3.96817e-05
-6.90753e-05
3.73276e-05
-7.65005e-05
3.42587e-05
-8.2907e-05
3.06897e-05
-8.82089e-05
2.68113e-05
-9.23629e-05
2.27949e-05
-9.53644e-05
1.87949e-05
-9.72449e-05
1.49501e-05
-9.8069e-05
1.1384e-05
-9.79304e-05
8.20338e-06
-9.69487e-05
5.49838e-06
-9.52664e-05
3.34632e-06
1.81244e-06
-9.30447e-05
-2.0625e-06
1.08759e-05
-7.02328e-06
2.65152e-05
-1.394e-05
3.74156e-05
-2.20605e-05
4.45025e-05
-3.0781e-05
4.85157e-05
-3.96174e-05
5.0062e-05
-4.81815e-05
4.964e-05
-5.61637e-05
4.76639e-05
-6.33195e-05
4.44833e-05
-6.94598e-05
4.0399e-05
-7.44447e-05
3.56746e-05
-7.81788e-05
3.05454e-05
-8.06078e-05
2.52239e-05
-8.17166e-05
1.99037e-05
-8.15273e-05
1.47608e-05
-8.00972e-05
9.95396e-06
-7.75165e-05
5.62261e-06
-7.39045e-05
1.88643e-06
-6.94081e-05
-1.15008e-06
-3.39863e-06
-6.4197e-05
-1.96475e-06
1.28406e-05
-6.62958e-06
3.118e-05
-1.30591e-05
4.38451e-05
-2.05125e-05
5.19559e-05
-2.83982e-05
5.64014e-05
-3.62426e-05
5.79064e-05
-4.36651e-05
5.70625e-05
-5.03596e-05
5.43583e-05
-5.60807e-05
5.02044e-05
-6.06344e-05
4.49527e-05
-6.38718e-05
3.89121e-05
-6.56855e-05
3.23591e-05
-6.60074e-05
2.55458e-05
-6.48082e-05
1.87045e-05
-6.20969e-05
1.20495e-05
-5.79203e-05
5.77742e-06
-5.23622e-05
6.45458e-08
-4.55411e-05
-4.93471e-06
-3.76087e-05
-9.08254e-06
-1.22618e-05
-2.87455e-05
-1.84292e-06
1.46835e-05
-6.14053e-06
3.54776e-05
-1.19681e-05
4.96727e-05
-1.86013e-05
5.85891e-05
-2.54659e-05
6.3266e-05
-3.21037e-05
6.45441e-05
-3.81459e-05
6.31047e-05
-4.32935e-05
5.95059e-05
-4.73026e-05
5.42136e-05
-4.99754e-05
4.76255e-05
-5.11536e-05
4.00903e-05
-5.07159e-05
3.19214e-05
-4.85775e-05
2.34074e-05
-4.46906e-05
1.48175e-05
-3.90465e-05
6.40535e-06
-3.16772e-05
-1.59189e-06
-2.26564e-05
-8.95622e-06
-1.20994e-05
-1.54917e-05
-1.63082e-07
-2.10189e-05
-2.53835e-05
1.29586e-05
-1.69373e-06
1.63772e-05
-5.54454e-06
3.93285e-05
-1.06437e-05
5.47719e-05
-1.62896e-05
6.42349e-05
-2.19317e-05
6.89081e-05
-2.71336e-05
6.9746e-05
-3.15441e-05
6.75153e-05
-3.48765e-05
6.28383e-05
-3.68925e-05
5.62296e-05
-3.73929e-05
4.81259e-05
-3.62113e-05
3.89086e-05
-3.32117e-05
2.89218e-05
-2.82896e-05
1.84852e-05
-2.13743e-05
7.90227e-06
-1.24339e-05
-2.53506e-06
-1.47953e-06
-1.25462e-05
1.14303e-05
-2.18661e-05
2.61873e-05
-3.02486e-05
4.26304e-05
-3.74619e-05
-4.33026e-05
6.05494e-05
-1.51287e-06
1.78901e-05
-4.82676e-06
4.26423e-05
-9.05586e-06
5.9001e-05
-1.35288e-05
6.87079e-05
-1.77265e-05
7.31058e-05
-2.12419e-05
7.32614e-05
-2.37492e-05
7.00226e-05
-2.49805e-05
6.40696e-05
-2.47098e-05
5.59588e-05
-2.27412e-05
4.61573e-05
-1.89032e-05
3.50707e-05
-1.30463e-05
2.30649e-05
-5.04435e-06
1.04832e-05
5.20035e-06
-2.34243e-06
1.77496e-05
-1.50843e-05
3.26209e-05
-2.74175e-05
4.97786e-05
-3.90238e-05
6.91273e-05
-4.95972e-05
9.05041e-05
-5.88388e-05
-6.6479e-05
0.000113681
-1.29502e-06
1.91851e-05
-3.9691e-06
4.53164e-05
-7.16799e-06
6.21999e-05
-1.02594e-05
7.17992e-05
-1.27643e-05
7.56107e-05
-1.43139e-05
7.4811e-05
-1.46164e-05
7.03251e-05
-1.34322e-05
6.28855e-05
-1.0556e-05
5.30826e-05
-5.80358e-06
4.14049e-05
9.95419e-07
2.82717e-05
1.00006e-05
1.40597e-05
2.13591e-05
-8.75209e-07
3.51989e-05
-1.61822e-05
5.16187e-05
-3.15041e-05
7.06741e-05
-4.6473e-05
9.23634e-05
-6.07131e-05
0.000116613
-7.3847e-05
0.000143265
-8.54902e-05
-9.52829e-05
0.000172069
-1.03407e-06
2.02192e-05
-2.95095e-06
4.72333e-05
-4.93841e-06
6.41873e-05
-6.41262e-06
7.32734e-05
-6.94393e-06
7.6142e-05
-6.21109e-06
7.40782e-05
-3.96658e-06
6.80806e-05
-1.00795e-08
5.8929e-05
5.83163e-06
4.72409e-05
1.37194e-05
3.35171e-05
2.38119e-05
1.81792e-05
3.62704e-05
1.60121e-06
5.12585e-05
-1.58633e-05
6.89351e-05
-3.38589e-05
8.9442e-05
-5.2011e-05
0.000112884
-6.99153e-05
0.000139309
-8.71375e-05
0.000168678
-0.000103217
0.000200848
-0.00011766
-0.000129984
0.000235549
-7.23416e-07
2.09426e-05
-1.75048e-06
4.82604e-05
-2.32276e-06
6.47596e-05
-1.9146e-06
7.28653e-05
-1.54428e-07
7.43819e-05
3.22218e-06
7.07015e-05
8.40806e-06
6.28947e-05
1.55521e-05
5.17849e-05
2.47812e-05
3.80118e-05
3.62174e-05
2.20809e-05
4.99914e-05
4.40516e-06
6.62514e-05
-1.46589e-05
8.51663e-05
-3.47781e-05
0.000106921
-5.56132e-05
0.000131702
-7.67922e-05
0.000159677
-9.789e-05
0.000190959
-0.000118419
0.00022557
-0.000137828
0.000263397
-0.000155487
-0.000170739
0.000304153
-3.5668e-07
2.12993e-05
-3.46722e-07
4.82504e-05
7.21729e-07
6.36912e-05
3.3073e-06
7.02797e-05
7.71602e-06
6.99731e-05
1.41478e-05
6.42697e-05
2.27315e-05
5.4311e-05
3.35526e-05
4.09638e-05
4.66759e-05
2.48885e-05
6.21655e-05
6.59128e-06
8.01024e-05
-1.35317e-05
0.000100598
-3.51547e-05
0.000123806
-5.79854e-05
0.000149919
-8.17268e-05
0.000179167
-0.00010604
0.000211784
-0.000130507
0.000247974
-0.00015461
0.000287851
-0.000177705
0.000331362
-0.000198998
-0.000217591
0.000378213
7.15029e-08
2.12278e-05
1.27755e-06
4.70444e-05
4.23054e-06
6.07382e-05
9.31486e-06
6.51954e-05
1.67662e-05
6.25218e-05
2.67154e-05
5.43205e-05
3.92211e-05
4.18052e-05
5.42957e-05
2.58893e-05
7.19276e-05
7.25663e-06
9.21025e-05
-1.35836e-05
0.000114824
-3.62533e-05
0.000140135
-6.0466e-05
0.000168137
-8.59872e-05
0.000199002
-0.000112591
0.000232975
-0.000140013
0.000270358
-0.00016789
0.000311464
-0.000195716
0.000356542
-0.000222783
0.000405652
-0.000248108
-0.00027046
0.000458521
5.64441e-07
2.06634e-05
3.13248e-06
4.44763e-05
8.22492e-06
5.56457e-05
1.61473e-05
5.72731e-05
2.70638e-05
5.16052e-05
4.10366e-05
4.03477e-05
5.80535e-05
2.47884e-05
7.80499e-05
5.89283e-06
0.000100929
-1.56221e-05
0.000126579
-3.92343e-05
0.000154901
-6.45751e-05
0.000185828
-9.13931e-05
0.00021936
-0.000119519
0.00025559
-0.000148821
0.00029473
-0.000179153
0.000337115
-0.000210275
0.000383174
-0.000241775
0.000433342
-0.000272951
0.000487877
-0.000302643
-0.000329168
0.000546585
1.12234e-06
1.9541e-05
5.21762e-06
4.0381e-05
1.27045e-05
4.81589e-05
2.38079e-05
4.61696e-05
3.86245e-05
3.67887e-05
5.71537e-05
2.18186e-05
7.93196e-05
2.62249e-06
0.000104987
-1.97745e-05
0.000133974
-4.46095e-05
0.000166069
-7.13292e-05
0.000201046
-9.95523e-05
0.000238694
-0.000129041
0.000278852
-0.000159676
0.000321453
-0.000191422
0.000366581
-0.000224282
0.000414519
-0.000258213
0.000465765
-0.00029302
0.00052098
-0.000328167
0.000580755
-0.000362418
-0.00039346
0.000645047
1.7414e-06
1.77996e-05
7.51894e-06
3.46035e-05
1.76406e-05
3.80373e-05
3.22525e-05
3.15577e-05
5.13908e-05
1.76504e-05
7.5005e-05
-1.7957e-06
0.000102972
-2.53446e-05
0.000135104
-5.19069e-05
0.000171156
-8.06607e-05
0.000210825
-0.000110999
0.000253769
-0.000142496
0.000299615
-0.000174887
0.000347994
-0.000208055
0.000398593
-0.000242022
0.000451234
-0.000276922
0.000505971
-0.000312951
0.00056321
-0.000350259
0.000623774
-0.00038873
0.000688728
-0.000427372
-0.000463114
0.000758382
2.41336e-06
1.53863e-05
1.00072e-05
2.70097e-05
2.29726e-05
2.50719e-05
4.138e-05
1.31503e-05
6.52156e-05
-6.18521e-06
9.43958e-05
-3.0976e-05
0.000128774
-5.97231e-05
0.000168143
-9.12755e-05
0.000212229
-0.000124747
0.00026069
-0.00015946
0.000313108
-0.000194914
0.000368987
-0.000230767
0.000427765
-0.000266833
0.000488838
-0.000303094
0.000551631
-0.000339716
0.000615727
-0.000377047
0.000681069
-0.000415601
0.000748264
-0.000455925
0.000818767
-0.000497875
-0.000539035
0.000894687
3.12566e-06
1.22606e-05
1.26384e-05
1.74969e-05
2.86079e-05
9.10231e-06
5.10322e-05
-9.27393e-06
7.98568e-05
-3.50099e-05
0.000114982
-6.61015e-05
0.000156265
-0.000101006
0.000203516
-0.000138526
0.00025649
-0.000177721
0.000314879
-0.000217849
0.00037829
-0.000258325
0.000446228
-0.000298704
0.000518066
-0.000338671
0.000593026
-0.000378054
0.000670172
-0.000416862
0.000748471
-0.000455345
0.000826967
-0.000494097
0.000905232
-0.00053419
0.000984411
-0.000577054
-0.000626283
0.00107166
3.8624e-06
8.39819e-06
1.5357e-05
6.00236e-06
3.44283e-05
-9.96902e-06
6.10021e-05
-3.58477e-05
9.49883e-05
-6.89961e-05
0.000136282
-0.000107395
0.000184762
-0.000149486
0.000240289
-0.000194053
0.000302703
-0.000240135
0.000371814
-0.00028696
0.000447395
-0.000333906
0.000529163
-0.000380472
0.000616755
-0.000426263
0.000709685
-0.000470985
0.000807296
-0.000514472
0.000908705
-0.000556755
0.00101277
-0.000598166
0.00111796
-0.000639377
0.00122305
-0.000682143
-0.000728876
0.00132564
4.60619e-06
3.792e-06
1.81017e-05
-7.49319e-06
4.03018e-05
-3.21691e-05
7.10553e-05
-6.66011e-05
0.000110232
-0.000108173
0.000157719
-0.000154882
0.000213417
-0.000205184
0.000277244
-0.000257881
0.000349141
-0.000312031
0.000429078
-0.000366897
0.000517075
-0.000421903
0.00061323
-0.000476627
0.000717766
-0.000530799
0.000831125
-0.000584343
0.000954124
-0.000637471
0.00108824
-0.000690868
0.0012361
-0.000746027
0.00140266
-0.000805936
0.00159778
-0.000877265
-0.00097682
0.00184572
5.34034e-06
-1.54834e-06
2.08128e-05
-2.29657e-05
4.60979e-05
-5.74542e-05
8.09567e-05
-0.00010146
0.000125205
-0.000152421
0.0001787
-0.000208377
0.000241342
-0.000267826
0.000313071
-0.00032961
0.000393879
-0.00039284
0.000483827
-0.000456844
0.000583064
-0.00052114
0.000691869
-0.000585433
0.000810703
-0.000649632
0.000940272
-0.000713913
0.00108162
-0.000778816
0.00123617
-0.000845419
0.00140573
-0.000915587
0.0015922
-0.000992408
0.00179598
-0.00108105
-0.00118922
0.00200838
6.05098e-06
-7.59932e-06
2.34396e-05
-4.03543e-05
5.17049e-05
-8.57195e-05
9.05048e-05
-0.00014026
0.000139577
-0.000201493
0.000198721
-0.000267521
0.00026779
-0.000336895
0.000346689
-0.000408508
0.000435379
-0.00048153
0.000533889
-0.000555354
0.000642323
-0.000629575
0.000760879
-0.000703988
0.000889854
-0.000778608
0.00102964
-0.000853701
0.00118069
-0.00092986
0.00134335
-0.00100808
0.00151763
-0.00108986
0.00170255
-0.00117734
0.00189489
-0.00127338
-0.00138092
0.00208659
6.72869e-06
-1.4328e-05
2.59458e-05
-5.95714e-05
5.7041e-05
-0.000116815
9.95511e-05
-0.00018277
0.00015311
-0.000255052
0.000217423
-0.000331834
0.000292251
-0.000411723
0.000377404
-0.000493661
0.000472734
-0.000576861
0.000578136
-0.000660755
0.000693537
-0.000744976
0.000818893
-0.000829345
0.000954157
-0.000913871
0.00109923
-0.000998772
0.00125385
-0.00108449
0.00141746
-0.00117169
0.00158891
-0.00126131
0.00176608
-0.00135451
0.00194532
-0.00145262
-0.00155671
0.00212112
7.36888e-06
-2.16969e-05
2.83109e-05
-8.05134e-05
6.20578e-05
-0.000150562
0.000108007
-0.00022872
0.000165665
-0.000312709
0.000234608
-0.000400778
0.000314468
-0.000491583
0.000404912
-0.000584105
0.000505628
-0.000677576
0.000616315
-0.000771442
0.000736666
-0.000865327
0.000866341
-0.00095902
0.00100493
-0.00105246
0.00115188
-0.00114573
0.00130643
-0.00123904
0.00146747
-0.00133273
0.00163337
-0.00142721
0.00180184
-0.00152297
0.00196972
-0.00162051
-0.00172006
0.00213306
7.97113e-06
-2.9668e-05
3.05285e-05
-0.000103071
6.6737e-05
-0.00018677
0.000115839
-0.000277822
0.000177189
-0.000374059
0.000250214
-0.000473803
0.000334386
-0.000575755
0.000429199
-0.000678918
0.000534151
-0.000782528
0.000648726
-0.000886017
0.000772371
-0.000988972
0.00090447
-0.00109112
0.00104431
-0.00119229
0.00119101
-0.00129243
0.00134351
-0.00139154
0.00150044
-0.00148966
0.00166009
-0.00158686
0.00182032
-0.00168321
0.00197856
-0.00177874
-0.00187333
0.00213183
8.53789e-06
-3.82059e-05
3.26022e-05
-0.000127135
7.10814e-05
-0.000225249
0.000123048
-0.000329789
0.000187691
-0.000438702
0.000264267
-0.00055038
0.000352074
-0.000663562
0.000450419
-0.000777263
0.000558604
-0.000890713
0.0006759
-0.00100331
0.000801535
-0.00111461
0.000934661
-0.00122425
0.00107434
-0.00133197
0.00121949
-0.00143758
0.00136889
-0.00154093
0.0015211
-0.00164187
0.00167447
-0.00174024
0.00182714
-0.00183587
0.00197696
-0.00192857
-0.00201799
0.00212162
9.07293e-06
-4.72789e-05
3.45407e-05
-0.000152603
7.5105e-05
-0.000265813
0.000129658
-0.000384341
0.000197208
-0.000506252
0.000276835
-0.000630006
0.000367651
-0.000754379
0.00046878
-0.000878391
0.000579329
-0.00100126
0.000698381
-0.00112237
0.000824971
-0.0012412
0.000958075
-0.00135735
0.00109659
-0.00147049
0.00123934
-0.00158033
0.00138502
-0.00168661
0.00153223
-0.00178907
0.00167943
-0.00188744
0.001825
-0.00198143
0.00196717
-0.00207074
-0.0021549
0.00210408
9.57984e-06
-5.68587e-05
3.63529e-05
-0.000179376
7.88228e-05
-0.000308283
0.000135691
-0.000441209
0.00020578
-0.000576341
0.000287984
-0.00071221
0.000381233
-0.000847627
0.000484466
-0.000981625
0.000596616
-0.00111341
0.000716595
-0.00124234
0.000843283
-0.00136788
0.000975524
-0.00148959
0.00111212
-0.00160708
0.00125181
-0.00172003
0.00139332
-0.00182812
0.00153529
-0.00193105
0.00167634
-0.0020285
0.00181505
-0.00212014
0.00194995
-0.00220564
-0.00228447
0.00207953
1.00609e-05
-6.69196e-05
3.80442e-05
-0.000207359
8.2244e-05
-0.000352483
0.000141163
-0.000500128
0.000213431
-0.000648609
0.000297757
-0.000796536
0.00039289
-0.00094276
0.000497597
-0.00108633
0.000610648
-0.00122646
0.000730811
-0.00136251
0.00085684
-0.00149391
0.000987485
-0.00162023
0.00112148
-0.00174108
0.00125756
-0.00185611
0.00139447
-0.00196502
0.00153093
-0.00206751
0.00166571
-0.00216327
0.00179758
-0.00225201
0.00192531
-0.00233338
-0.00240686
0.0020477
1.05166e-05
-7.74362e-05
3.96144e-05
-0.000236457
8.53668e-05
-0.000398236
0.00014607
-0.000560832
0.000220161
-0.0007227
0.00030616
-0.000882536
0.000402642
-0.00103924
0.000508213
-0.0011919
0.000621499
-0.00133975
0.000741143
-0.00148215
0.000865805
-0.00161858
0.000994164
-0.00174859
0.00112493
-0.00187184
0.00125684
-0.00198802
0.00138868
-0.00209686
0.00151929
-0.00219812
0.00164756
-0.00229154
0.00177244
-0.00237689
0.00189293
-0.00245387
-0.00252199
0.00200807
1.09451e-05
-8.83814e-05
4.1057e-05
-0.000266569
8.81776e-05
-0.000445356
0.000150392
-0.000623046
0.000225938
-0.000798246
0.000313155
-0.000969753
0.000410451
-0.00113654
0.000516282
-0.00129773
0.000629146
-0.00145261
0.000747583
-0.00160059
0.000870181
-0.00174117
0.000995578
-0.00187399
0.00112248
-0.00199874
0.00124964
-0.00211519
0.00137594
-0.00222315
0.00150029
-0.00232247
0.00162172
-0.00241298
0.00173937
-0.00249453
0.00185241
-0.00256691
-0.0026297
0.00196012
1.13428e-05
-9.97242e-05
4.23594e-05
-0.000297585
9.06509e-05
-0.000493648
0.000154086
-0.000686481
0.000230707
-0.000874867
0.000318674
-0.00105772
0.000416236
-0.0012341
0.000521714
-0.00140321
0.000633494
-0.00156439
0.000750037
-0.00171713
0.000869877
-0.00186101
0.000991635
-0.00199575
0.00111403
-0.00212113
0.00123587
-0.00223703
0.00135609
-0.00234338
0.00147374
-0.00244012
0.00158797
-0.00252722
0.00169807
-0.00260463
0.00180341
-0.00267225
-0.00272976
0.00190346
1.17043e-05
-0.000111429
4.35039e-05
-0.000329385
9.2752e-05
-0.000542896
0.000157099
-0.000750828
0.000234393
-0.00095216
0.000322621
-0.00114595
0.000419885
-0.00133136
0.000524383
-0.00150771
0.000634412
-0.00167442
0.000748366
-0.00183109
0.000864753
-0.0019774
0.000982195
-0.00211319
0.00109944
-0.00223838
0.00121537
-0.00235296
0.001329
-0.00245701
0.00143949
-0.00255061
0.00154614
-0.00263386
0.00164837
-0.00270686
0.00174572
-0.0027696
-0.0028219
0.00183786
1.20231e-05
-0.000123452
4.44693e-05
-0.000361831
9.44398e-05
-0.000592866
0.000159367
-0.000815756
0.000236908
-0.0010297
0.000324888
-0.00123393
0.000421271
-0.00142775
0.000524151
-0.00161059
0.000631749
-0.00178202
0.000742422
-0.00194176
0.000854664
-0.00208964
0.000967121
-0.00222565
0.00107859
-0.00234985
0.00118803
-0.00246241
0.00129457
-0.00256354
0.00139746
-0.0026535
0.00149615
-0.00273255
0.00159019
-0.0028009
0.0016793
-0.00285871
-0.0029059
0.0017633
1.2292e-05
-0.000135744
4.52323e-05
-0.000394771
9.56697e-05
-0.000643304
0.000160822
-0.000880908
0.000238162
-0.00110704
0.000325362
-0.00132113
0.000420266
-0.00152265
0.000520879
-0.0017112
0.000625369
-0.00188651
0.000732071
-0.00204846
0.000839491
-0.00219706
0.000946315
-0.00233247
0.00105141
-0.00245494
0.00115382
-0.00256482
0.00125278
-0.0026625
0.00134767
-0.0027484
0.00143806
-0.00282294
0.00152365
-0.00288649
0.00160428
-0.00293934
-0.00298156
0.00167994
1.25036e-05
-0.000148247
4.57691e-05
-0.000428037
9.63967e-05
-0.000693931
0.000161396
-0.000945907
0.000238065
-0.00118371
0.000323938
-0.001407
0.000416755
-0.00161547
0.000514451
-0.0018089
0.00061516
-0.00198722
0.000717218
-0.00215052
0.000819162
-0.00229901
0.000919737
-0.00243305
0.00101789
-0.0025531
0.00111278
-0.0026597
0.00120373
-0.00275345
0.00129026
-0.00283493
0.00137206
-0.00290474
0.00144897
-0.0029634
0.00152095
-0.00301133
-0.00304873
0.00158812
1.26504e-05
-0.000160898
4.60567e-05
-0.000461443
9.65783e-05
-0.000744453
0.000161026
-0.00101036
0.000236539
-0.00125922
0.000320527
-0.00149099
0.000410643
-0.00170558
0.000504777
-0.00190303
0.00060105
-0.00208349
0.000697817
-0.00224728
0.000793667
-0.00239486
0.000887422
-0.0025268
0.000978125
-0.0026438
0.00106503
-0.00274661
0.00114761
-0.00283602
0.00122548
-0.00291281
0.00129847
-0.00297772
0.00136653
-0.00303145
0.00142974
-0.00307454
-0.00310733
0.00148834
1.27257e-05
-0.000173623
4.60739e-05
-0.000494791
9.61762e-05
-0.000794555
0.000159659
-0.00107384
0.000233517
-0.00133308
0.000315056
-0.00157253
0.000401865
-0.00179239
0.000491807
-0.00199297
0.000583013
-0.0021747
0.000673879
-0.00233815
0.000763064
-0.00248404
0.00084948
-0.00261322
0.000932277
-0.0027266
0.00101083
-0.00282517
0.00108472
-0.00290991
0.00115371
-0.00298179
0.00121772
-0.00304174
0.00127682
-0.00309056
0.00133121
-0.00312893
-0.00315731
0.00138119
1.27232e-05
-0.000186347
4.58021e-05
-0.00052787
9.51578e-05
-0.000843911
0.000157251
-0.00113593
0.00022895
-0.00140478
0.00030748
-0.00165106
0.000390388
-0.0018753
0.000475532
-0.00207812
0.000561076
-0.00226024
0.000645476
-0.00242255
0.000727479
-0.00256605
0.000806098
-0.00269184
0.000880602
-0.0028011
0.000950486
-0.00289505
0.00101545
-0.00297487
0.00107539
-0.00304173
0.00113032
-0.00309667
0.00118042
-0.00314066
0.00122598
-0.00317448
-0.00319871
0.00126737
1.26403e-05
-0.000198987
4.52311e-05
-0.000560461
9.3505e-05
-0.000892185
0.000153778
-0.0011962
0.000222818
-0.00147382
0.000297791
-0.00172603
0.000376225
-0.00195373
0.000455999
-0.00215789
0.000535329
-0.00233957
0.000612752
-0.00249997
0.000687115
-0.00264041
0.000757547
-0.00276227
0.000823438
-0.00286699
0.000884411
-0.00295602
0.000940287
-0.00303075
0.000991064
-0.0030925
0.00103688
-0.00314248
0.00107799
-0.00318177
0.00111476
-0.00321125
-0.00323159
0.00114764
1.2468e-05
-0.000211455
4.43401e-05
-0.000592333
9.11874e-05
-0.000939032
0.000149207
-0.00125422
0.000215092
-0.00153971
0.000285975
-0.00179691
0.00035939
-0.00202715
0.000433261
-0.00223176
0.000505875
-0.00241219
0.000575868
-0.00256997
0.000642199
-0.00270674
0.000704122
-0.00282419
0.000761153
-0.00292403
0.000813039
-0.00300791
0.000859721
-0.00307743
0.000901303
-0.00313408
0.000938018
-0.0031792
0.000970204
-0.00321396
0.000998284
-0.00323933
-0.00325606
0.00102276
1.22055e-05
-0.00022366
4.31259e-05
-0.000623254
8.82023e-05
-0.000984108
0.000143542
-0.00130956
0.000205792
-0.00160196
0.000272077
-0.0018632
0.000339966
-0.00209504
0.000407448
-0.00229924
0.000472901
-0.00247764
0.000535075
-0.00263214
0.00059305
-0.00276471
0.00064621
-0.00287735
0.000694201
-0.00297202
0.000736892
-0.0030506
0.000774338
-0.00311488
0.00080674
-0.00316649
0.00083442
-0.00320688
0.000857782
-0.00323732
0.000877302
-0.00325885
-0.00327227
0.00089351
1.18506e-05
-0.000235511
4.1585e-05
-0.000652988
8.45491e-05
-0.00102707
0.000136793
-0.00136181
0.000194948
-0.00166011
0.00025616
-0.00192441
0.000318057
-0.00215694
0.000378715
-0.0023599
0.000436623
-0.00253555
0.000490652
-0.00268617
0.000540016
-0.00281408
0.000584231
-0.00292157
0.000623068
-0.00301085
0.000656517
-0.00308405
0.000684739
-0.0031431
0.000708027
-0.00318977
0.000726777
-0.00322563
0.000741453
-0.003252
0.000752571
-0.00326997
-0.00328038
0.000760683
1.14024e-05
-0.000246913
3.97176e-05
-0.000681303
8.0235e-05
-0.00106759
0.000128983
-0.00141056
0.000182608
-0.00171374
0.000238308
-0.00198011
0.000293795
-0.00221242
0.000347251
-0.00241336
0.00039729
-0.00258559
0.000442918
-0.0027318
0.000483483
-0.00285464
0.000518634
-0.00295672
0.000548268
-0.00304049
0.000572485
-0.00310827
0.000591544
-0.00316216
0.000605823
-0.00320405
0.000615782
-0.00323559
0.000621936
-0.00325815
0.000624832
-0.00327287
-0.00328058
0.000625034
1.0861e-05
-0.000257774
3.75279e-05
-0.00070797
7.52754e-05
-0.00110534
0.000120148
-0.00145543
0.000168839
-0.00176243
0.000218629
-0.0020299
0.000267338
-0.00226113
0.000313271
-0.00245929
0.000355183
-0.0026275
0.000392217
-0.00276883
0.000423862
-0.00288629
0.000449895
-0.00298275
0.000470332
-0.00306092
0.000485377
-0.00312331
0.000495379
-0.00317216
0.000500789
-0.00320946
0.000502124
-0.00323692
0.000499938
-0.00325596
0.000494804
-0.00326773
-0.00327307
0.000487292
1.02274e-05
-0.000268002
3.50235e-05
-0.000732766
6.96925e-05
-0.00114001
0.000110333
-0.00149607
0.000153722
-0.00180582
0.000197249
-0.00207343
0.000238863
-0.00230275
0.000277014
-0.00249744
0.000310602
-0.00266109
0.000338916
-0.00279715
0.000361582
-0.00290895
0.000378503
-0.00299967
0.000389803
-0.00307222
0.000395782
-0.00312929
0.000396869
-0.00317325
0.000393577
-0.00320617
0.000386472
-0.00322982
0.000376142
-0.00324564
0.000363178
-0.00325477
-0.00325805
0.000348154
9.50403e-06
-0.000277506
3.22157e-05
-0.000755478
6.35152e-05
-0.00117131
9.95952e-05
-0.00153215
0.00013735
-0.00184357
0.000174307
-0.00211038
0.000208565
-0.002337
0.000238732
-0.00252761
0.000263862
-0.00268622
0.000283392
-0.00281668
0.000297082
-0.00292264
0.00030495
-0.00300754
0.000307222
-0.0030745
0.000304284
-0.00312635
0.000296628
-0.00316559
0.000284825
-0.00319437
0.000269479
-0.00321447
0.000251208
-0.00322736
0.000230617
-0.00323418
-0.00323571
0.000208279
8.69383e-06
-0.0002862
2.91185e-05
-0.000775903
5.67777e-05
-0.00119897
8.7999e-05
-0.00156337
0.000119828
-0.0018754
0.000149955
-0.00214051
0.000176649
-0.0023637
0.000198689
-0.00254965
0.000215287
-0.00270281
0.000226028
-0.00282742
0.000230798
-0.00292741
0.000229726
-0.00300647
0.000223126
-0.0030679
0.000211453
-0.00311468
0.000195257
-0.0031494
0.000175151
-0.00317426
0.000151775
-0.00319109
0.000125768
-0.00320136
9.77505e-05
-0.00320616
-0.00320626
6.82971e-05
7.80074e-06
-0.000294
2.57486e-05
-0.00079385
4.95193e-05
-0.00122274
7.56155e-05
-0.00158947
0.000101266
-0.00190105
0.000124351
-0.0021636
0.000143327
-0.00238267
0.00015715
-0.00256347
0.000165199
-0.00271086
0.0001672
-0.00282942
0.000163162
-0.00292338
0.00015331
-0.00299661
0.000138033
-0.00305262
0.000117844
-0.00309449
9.33366e-05
-0.00312489
6.51544e-05
-0.00314608
3.39642e-05
-0.0031599
4.27898e-07
-0.00316782
-3.48198e-05
-0.00317091
-0.00316988
-7.1198e-05
6.8294e-06
-0.00030083
2.21251e-05
-0.000809146
4.17828e-05
-0.00124239
6.25206e-05
-0.0016102
8.17821e-05
-0.00192031
9.76592e-05
-0.00217947
0.000108811
-0.00239383
0.000114382
-0.00256904
0.000113914
-0.0027104
0.000107276
-0.00282278
9.4587e-05
-0.00291069
7.61584e-05
-0.00297818
5.24417e-05
-0.0030289
2.39891e-05
-0.00306604
-8.57731e-06
-0.00309232
-4.45924e-05
-0.00311006
-8.33711e-05
-0.00312113
-0.000124232
-0.00312696
-0.00016652
-0.00312862
-0.00312676
-0.000209639
5.7851e-06
-0.000306615
1.82687e-05
-0.00082163
3.36146e-05
-0.00125774
4.87943e-05
-0.00162538
6.14956e-05
-0.00193301
7.00434e-05
-0.00218802
7.33126e-05
-0.0023971
7.06397e-05
-0.00256637
6.17347e-05
-0.00270149
4.66006e-05
-0.00280765
2.5461e-05
-0.00288955
-1.29984e-06
-0.00295142
-3.31841e-05
-0.00299702
-6.96144e-05
-0.00302961
-0.000109958
-0.00305198
-0.000153543
-0.00306648
-0.000199675
-0.00307499
-0.000247656
-0.00307898
-0.000296802
-0.00307948
-0.00307707
-0.000346489
4.67372e-06
-0.000311289
1.42022e-05
-0.000831158
2.50636e-05
-0.0012686
3.45193e-05
-0.00163484
4.05284e-05
-0.00193902
4.16669e-05
-0.00218916
3.70362e-05
-0.00239247
2.61704e-05
-0.0025555
8.94523e-06
-0.00268427
-1.45054e-05
-0.0027842
-4.38617e-05
-0.00286019
-7.86772e-05
-0.00291661
-0.000118422
-0.00295728
-0.00016251
-0.00298552
-0.000210318
-0.00300417
-0.000261184
-0.00301561
-0.00031442
-0.00302176
-0.000369313
-0.00302409
-0.000425144
-0.00302364
-0.00302098
-0.000481235
3.50177e-06
-0.00031479
9.94987e-06
-0.000837606
1.61813e-05
-0.00127483
1.9781e-05
-0.00163844
1.90036e-05
-0.00193824
1.26912e-05
-0.00218285
1.80367e-07
-0.00237995
-1.87944e-05
-0.00253653
-4.41932e-05
-0.00265887
-7.57549e-05
-0.00275263
-0.00011307
-0.00282288
-0.000155637
-0.00287404
-0.000202907
-0.00291001
-0.000254301
-0.00293412
-0.000309223
-0.00294925
-0.000367049
-0.00295779
-0.000427115
-0.00296169
-0.000488704
-0.0029625
-0.000551054
-0.00296129
-0.00295864
-0.0006134
2.27634e-06
-0.000317067
5.5378e-06
-0.000840868
7.02172e-06
-0.00127632
4.66727e-06
-0.00163608
-2.9548e-06
-0.00193062
-1.67237e-05
-0.00216908
-3.7063e-05
-0.00235962
-6.40367e-05
-0.00250955
-9.74427e-05
-0.00262546
-0.000136896
-0.00271318
-0.000181901
-0.00277787
-0.000231906
-0.00282403
-0.000286349
-0.00285556
-0.00034467
-0.0028758
-0.000406321
-0.0028876
-0.000470739
-0.00289337
-0.00053732
-0.00289511
-0.000605371
-0.00289445
-0.000674083
-0.00289258
-0.00289016
-0.000742555
1.00522e-06
-0.000318072
9.93902e-07
-0.000840856
-2.3582e-06
-0.00127296
-1.07307e-05
-0.00162771
-2.52198e-05
-0.00191613
-4.64179e-05
-0.00214788
-7.45058e-05
-0.00233153
-0.000109349
-0.00247471
-0.000150585
-0.00258422
-0.00019771
-0.00266606
-0.000250143
-0.00272544
-0.000307282
-0.0027669
-0.00036855
-0.0027943
-0.000433411
-0.00281094
-0.000501374
-0.00281964
-0.000571968
-0.00282277
-0.000644692
-0.00282239
-0.000718933
-0.00282021
-0.000793859
-0.00281766
-0.00281566
-0.000868361
-3.0306e-07
-0.000317769
-3.65188e-06
-0.000837508
-1.18982e-05
-0.00126472
-2.63176e-05
-0.00161329
-4.76605e-05
-0.00189479
-7.62276e-05
-0.00211931
-0.000111959
-0.0022958
-0.000154525
-0.00243215
-0.000203413
-0.00253534
-0.000258001
-0.00261147
-0.000317626
-0.00266581
-0.000381632
-0.00270289
-0.000449419
-0.00272651
-0.00052046
-0.0027399
-0.000594322
-0.00274578
-0.000670639
-0.00274646
-0.000749064
-0.00274396
-0.000829158
-0.00274011
-0.000910155
-0.00273666
-0.00273516
-0.000990657
-1.63921e-06
-0.00031613
-8.36743e-06
-0.000830779
-2.15345e-05
-0.00125155
-4.19935e-05
-0.00159283
-7.014e-05
-0.00186664
-0.000105982
-0.00208347
-0.000149224
-0.00225255
-0.000199352
-0.00238202
-0.00025571
-0.00247898
-0.000317571
-0.00254961
-0.000384193
-0.00259919
-0.000454865
-0.00263222
-0.000528948
-0.00265243
-0.000605903
-0.00266294
-0.000685321
-0.00266636
-0.000766922
-0.00266486
-0.000850543
-0.00266034
-0.000936038
-0.00265462
-0.00102292
-0.00264978
-0.00264834
-0.00110974
-2.99323e-06
-0.000313137
-1.31186e-05
-0.000820654
-3.11999e-05
-0.00123347
-5.76531e-05
-0.00156638
-9.25143e-05
-0.00183178
-0.000135501
-0.00204048
-0.000186091
-0.00220196
-0.000243596
-0.00232451
-0.000307234
-0.00241534
-0.000376189
-0.00248065
-0.000449655
-0.00252573
-0.000526872
-0.002555
-0.000607162
-0.00257214
-0.000689948
-0.00258016
-0.000774791
-0.00258152
-0.000861423
-0.00257822
-0.000949804
-0.00257196
-0.00104016
-0.00256426
-0.00113268
-0.00255725
-0.00255368
-0.00122735
-4.35455e-06
-0.000308782
-1.78699e-05
-0.000807139
-4.08245e-05
-0.00121051
-7.31877e-05
-0.00153402
-0.000114633
-0.00179034
-0.000164594
-0.00199052
-0.000222328
-0.00214423
-0.000286991
-0.00225985
-0.000357692
-0.00234464
-0.000433547
-0.0024048
-0.000513715
-0.00244556
-0.00059742
-0.00247129
-0.000683977
-0.00248558
-0.000772799
-0.00249134
-0.000863421
-0.00249089
-0.000955539
-0.00248611
-0.00104911
-0.00247839
-0.00114463
-0.00246874
-0.0012437
-0.00245818