1.45 	0 	0 	0.388679 	-0.0196844 	1.76066e-21
2.35 	0 	0 	0.695364 	-0.0109654 	-1.02189e-21
