1.45 	0 	0 	-0.00598234 	-0.00271452 	3.92361e-21
2.35 	0 	0 	0.067672 	-0.00681399 	2.44377e-21
