/*--------------------------------*- C++ -*----------------------------------*\
  =========                 |
  \\      /  F ield         | OpenFOAM: The Open Source CFD Toolbox
   \\    /   O peration     | Website:  https://openfoam.org
    \\  /    A nd           | Version:  6.0
     \\/     M anipulation  |
\*---------------------------------------------------------------------------*/
FoamFile
{
    version     2.0;
    format      ascii;
    class       volScalarField;
    location    "57";
    object      p;
}
// * * * * * * * * * * * * * * * * * * * * * * * * * * * * * * * * * * * * * //

dimensions      [0 2 -2 0 0 0 0];

internalField   nonuniform List<scalar> 
34500
(
1.00638
1.00684
1.0071
1.00719
1.00704
1.00665
1.00611
1.00545
1.00478
1.00409
1.0034
1.00278
1.00208
1.00171
1.00149
1.00639
1.00687
1.00721
1.0074
1.00739
1.00715
1.00674
1.00619
1.00559
1.00494
1.00424
1.00359
1.00278
1.00244
1.00205
1.00639
1.00686
1.00716
1.00731
1.00725
1.00697
1.00651
1.00592
1.00529
1.00462
1.00392
1.00329
1.00254
1.00235
1.00197
1.00639
1.00685
1.00711
1.00722
1.00712
1.00681
1.00631
1.0057
1.00504
1.00436
1.00368
1.00307
1.00239
1.00233
1.00211
1.0064
1.00685
1.00711
1.00721
1.00711
1.00681
1.00634
1.00573
1.00508
1.0044
1.00373
1.00314
1.00249
1.00248
1.00234
1.0064
1.00686
1.00712
1.00722
1.00713
1.00685
1.00639
1.00581
1.00517
1.0045
1.00383
1.00324
1.0026
1.00261
1.00251
1.00641
1.00687
1.00713
1.00722
1.00712
1.00684
1.0064
1.00583
1.00519
1.00453
1.00386
1.00328
1.00266
1.00269
1.00264
1.00642
1.00688
1.00714
1.00721
1.0071
1.00682
1.00638
1.00582
1.00519
1.00454
1.00388
1.00331
1.00271
1.00276
1.00275
1.00643
1.00689
1.00716
1.00723
1.0071
1.00681
1.00638
1.00582
1.0052
1.00456
1.0039
1.00335
1.00277
1.00284
1.00286
1.00644
1.00691
1.00719
1.00725
1.00713
1.00683
1.00639
1.00584
1.00523
1.0046
1.00395
1.00341
1.00285
1.00291
1.00295
1.00646
1.00693
1.00722
1.00729
1.00717
1.00687
1.00643
1.00588
1.00527
1.00464
1.00401
1.00347
1.00292
1.00297
1.00302
1.00647
1.00695
1.00725
1.00734
1.00722
1.00692
1.00648
1.00593
1.00533
1.0047
1.00407
1.00353
1.003
1.00303
1.00308
1.00648
1.00697
1.00729
1.00739
1.00728
1.00698
1.00654
1.00599
1.00539
1.00476
1.00413
1.00359
1.00306
1.00308
1.00312
1.0065
1.00699
1.00732
1.00743
1.00734
1.00704
1.0066
1.00605
1.00545
1.00482
1.00418
1.00365
1.00313
1.00312
1.00316
1.00652
1.00701
1.00734
1.00747
1.00739
1.0071
1.00666
1.00611
1.0055
1.00487
1.00423
1.0037
1.00318
1.00315
1.00318
1.00654
1.00703
1.00736
1.0075
1.00743
1.00715
1.00671
1.00616
1.00555
1.00492
1.00428
1.00374
1.00322
1.00318
1.00319
1.00656
1.00704
1.00737
1.00752
1.00746
1.00718
1.00675
1.0062
1.00559
1.00495
1.00431
1.00377
1.00325
1.00319
1.0032
1.00658
1.00706
1.00738
1.00752
1.00747
1.0072
1.00678
1.00623
1.00561
1.00497
1.00433
1.00379
1.00328
1.0032
1.0032
1.0066
1.00708
1.00739
1.00753
1.00747
1.00721
1.00679
1.00624
1.00562
1.00499
1.00434
1.0038
1.0033
1.00321
1.0032
1.00663
1.0071
1.0074
1.00753
1.00747
1.00721
1.0068
1.00625
1.00563
1.005
1.00435
1.00381
1.00332
1.00321
1.0032
1.00666
1.00712
1.00741
1.00753
1.00747
1.00721
1.0068
1.00626
1.00564
1.00501
1.00437
1.00383
1.00334
1.00322
1.00319
1.00669
1.00715
1.00743
1.00754
1.00747
1.00722
1.00681
1.00627
1.00566
1.00502
1.00439
1.00385
1.00337
1.00323
1.00319
1.00672
1.00718
1.00746
1.00755
1.00748
1.00722
1.00682
1.00629
1.00568
1.00505
1.00441
1.00387
1.00339
1.00324
1.00318
1.00676
1.00722
1.00749
1.00758
1.00749
1.00723
1.00683
1.00631
1.0057
1.00507
1.00444
1.0039
1.00342
1.00325
1.00318
1.0068
1.00726
1.00754
1.00761
1.00751
1.00725
1.00685
1.00633
1.00573
1.0051
1.00447
1.00393
1.00345
1.00327
1.00317
1.00683
1.00731
1.00759
1.00765
1.00755
1.00727
1.00687
1.00635
1.00576
1.00514
1.00451
1.00397
1.00349
1.00328
1.00316
1.00687
1.00736
1.00764
1.00771
1.0076
1.00732
1.00691
1.00639
1.0058
1.00518
1.00455
1.00401
1.00352
1.00329
1.00316
1.00691
1.00741
1.00771
1.00778
1.00767
1.00738
1.00697
1.00645
1.00585
1.00523
1.0046
1.00405
1.00356
1.00331
1.00315
1.00696
1.00747
1.00778
1.00786
1.00775
1.00747
1.00705
1.00652
1.00592
1.00529
1.00466
1.0041
1.0036
1.00332
1.00313
1.007
1.00752
1.00785
1.00795
1.00785
1.00757
1.00715
1.00661
1.006
1.00537
1.00472
1.00415
1.00363
1.00333
1.00312
1.00704
1.00757
1.00792
1.00803
1.00794
1.00767
1.00725
1.00671
1.00609
1.00544
1.00478
1.00419
1.00366
1.00333
1.0031
1.00708
1.00762
1.00798
1.0081
1.00803
1.00776
1.00734
1.0068
1.00617
1.00551
1.00483
1.00422
1.00368
1.00333
1.00307
1.00712
1.00767
1.00803
1.00816
1.0081
1.00783
1.00742
1.00687
1.00623
1.00556
1.00487
1.00425
1.00368
1.00332
1.00304
1.00716
1.00771
1.00808
1.00821
1.00815
1.00789
1.00747
1.00692
1.00627
1.00559
1.00489
1.00426
1.00369
1.0033
1.00301
1.0072
1.00775
1.00812
1.00826
1.00819
1.00792
1.0075
1.00695
1.0063
1.0056
1.0049
1.00426
1.00368
1.00328
1.00297
1.00724
1.00779
1.00816
1.00829
1.00823
1.00796
1.00753
1.00697
1.00631
1.00562
1.00491
1.00426
1.00368
1.00327
1.00294
1.00728
1.00783
1.0082
1.00833
1.00827
1.00799
1.00756
1.00699
1.00633
1.00563
1.00492
1.00426
1.00367
1.00325
1.0029
1.00732
1.00786
1.00824
1.00838
1.00831
1.00804
1.0076
1.00703
1.00636
1.00565
1.00493
1.00427
1.00367
1.00323
1.00287
1.00737
1.0079
1.00828
1.00843
1.00837
1.0081
1.00765
1.00707
1.0064
1.00568
1.00495
1.00428
1.00366
1.00321
1.00283
1.00742
1.00794
1.00832
1.00848
1.00843
1.00816
1.00771
1.00713
1.00644
1.00571
1.00496
1.00428
1.00365
1.00318
1.00278
1.00746
1.00799
1.00836
1.00852
1.00848
1.00822
1.00777
1.00717
1.00647
1.00573
1.00497
1.00427
1.00364
1.00315
1.00274
1.00752
1.00803
1.0084
1.00855
1.00851
1.00826
1.00781
1.00721
1.0065
1.00574
1.00497
1.00426
1.00361
1.00311
1.00269
1.00757
1.00808
1.00843
1.00857
1.00853
1.00827
1.00782
1.00722
1.0065
1.00574
1.00496
1.00424
1.00359
1.00308
1.00265
1.00763
1.00813
1.00847
1.00859
1.00853
1.00827
1.00782
1.00721
1.00649
1.00573
1.00494
1.00422
1.00356
1.00304
1.00261
1.0077
1.00819
1.0085
1.0086
1.00853
1.00825
1.0078
1.00719
1.00647
1.00571
1.00492
1.0042
1.00354
1.00301
1.00257
1.00777
1.00825
1.00855
1.00862
1.00853
1.00824
1.00778
1.00717
1.00645
1.00569
1.00491
1.00419
1.00353
1.00299
1.00254
1.00784
1.00833
1.00861
1.00866
1.00854
1.00823
1.00777
1.00716
1.00645
1.00569
1.00492
1.00419
1.00353
1.00298
1.00252
1.00792
1.00842
1.0087
1.00873
1.00858
1.00826
1.00778
1.00718
1.00647
1.00571
1.00494
1.00421
1.00354
1.00297
1.00249
1.00801
1.00851
1.0088
1.00882
1.00866
1.00832
1.00784
1.00723
1.00652
1.00576
1.00498
1.00424
1.00356
1.00297
1.00247
1.00809
1.00862
1.00892
1.00894
1.00878
1.00843
1.00794
1.00732
1.00661
1.00584
1.00505
1.00429
1.00358
1.00297
1.00244
1.00818
1.00873
1.00905
1.00909
1.00893
1.00858
1.00808
1.00745
1.00672
1.00594
1.00513
1.00435
1.00361
1.00297
1.00241
1.00826
1.00884
1.00919
1.00925
1.00911
1.00875
1.00824
1.0076
1.00685
1.00605
1.00521
1.0044
1.00364
1.00296
1.00237
1.00835
1.00895
1.00933
1.00943
1.00929
1.00895
1.00843
1.00777
1.00699
1.00616
1.0053
1.00445
1.00365
1.00295
1.00233
1.00843
1.00906
1.00947
1.00959
1.00948
1.00914
1.00861
1.00793
1.00713
1.00627
1.00537
1.00449
1.00366
1.00292
1.00228
1.00851
1.00916
1.0096
1.00975
1.00966
1.00932
1.00878
1.00808
1.00725
1.00636
1.00542
1.00451
1.00365
1.00289
1.00222
1.00859
1.00925
1.00971
1.00989
1.00981
1.00947
1.00893
1.00821
1.00735
1.00642
1.00546
1.00452
1.00362
1.00284
1.00216
1.00867
1.00933
1.00981
1.01
1.00993
1.0096
1.00904
1.0083
1.00742
1.00647
1.00547
1.0045
1.00359
1.00279
1.00209
1.00875
1.00941
1.0099
1.01009
1.01002
1.00969
1.00912
1.00837
1.00747
1.00649
1.00547
1.00448
1.00355
1.00273
1.00202
1.00883
1.00949
1.00997
1.01016
1.01009
1.00975
1.00917
1.0084
1.00749
1.00649
1.00545
1.00445
1.0035
1.00267
1.00195
1.00891
1.00956
1.01003
1.01021
1.01014
1.00979
1.0092
1.00842
1.00749
1.00647
1.00542
1.00441
1.00345
1.00261
1.00188
1.00899
1.00963
1.01009
1.01025
1.01017
1.00981
1.00921
1.00842
1.00748
1.00645
1.00539
1.00437
1.0034
1.00255
1.00181
1.00908
1.00971
1.01015
1.01029
1.01019
1.00982
1.00922
1.00842
1.00747
1.00643
1.00536
1.00433
1.00335
1.0025
1.00174
1.00917
1.00979
1.01021
1.01034
1.01022
1.00984
1.00922
1.00842
1.00746
1.00642
1.00534
1.00429
1.00331
1.00244
1.00168
1.00927
1.00988
1.01029
1.01039
1.01026
1.00987
1.00924
1.00842
1.00746
1.00641
1.00533
1.00427
1.00327
1.00239
1.00161
1.00936
1.00998
1.01037
1.01046
1.01031
1.00991
1.00927
1.00845
1.00747
1.00641
1.00532
1.00425
1.00324
1.00234
1.00155
1.00947
1.01008
1.01047
1.01055
1.01039
1.00996
1.00932
1.00848
1.0075
1.00643
1.00532
1.00424
1.00321
1.00229
1.00148
1.00957
1.01019
1.01057
1.01064
1.01047
1.01004
1.00938
1.00854
1.00754
1.00646
1.00534
1.00423
1.00319
1.00225
1.00141
1.00968
1.0103
1.01069
1.01076
1.01058
1.01014
1.00947
1.00861
1.0076
1.0065
1.00536
1.00423
1.00316
1.0022
1.00135
1.0098
1.01042
1.01082
1.01088
1.0107
1.01025
1.00957
1.00869
1.00766
1.00655
1.00538
1.00423
1.00314
1.00215
1.00128
1.00991
1.01055
1.01095
1.01102
1.01083
1.01037
1.00968
1.00879
1.00774
1.0066
1.00541
1.00424
1.00311
1.0021
1.00121
1.01003
1.01068
1.01109
1.01116
1.01097
1.0105
1.00979
1.00889
1.00782
1.00665
1.00544
1.00424
1.00309
1.00205
1.00113
1.01015
1.01081
1.01123
1.01131
1.01112
1.01064
1.00992
1.00899
1.0079
1.00671
1.00547
1.00424
1.00306
1.002
1.00105
1.01027
1.01095
1.01137
1.01146
1.01126
1.01078
1.01004
1.0091
1.00798
1.00676
1.00549
1.00423
1.00303
1.00194
1.00097
1.0104
1.01108
1.01152
1.01161
1.01141
1.01092
1.01017
1.0092
1.00806
1.00682
1.00551
1.00422
1.00299
1.00188
1.00089
1.01052
1.01122
1.01166
1.01176
1.01156
1.01106
1.01029
1.00931
1.00814
1.00686
1.00553
1.00421
1.00295
1.00181
1.0008
1.01065
1.01136
1.01181
1.0119
1.01171
1.01119
1.01041
1.0094
1.00821
1.00691
1.00555
1.0042
1.00291
1.00175
1.00071
1.01078
1.0115
1.01195
1.01205
1.01185
1.01133
1.01053
1.0095
1.00828
1.00695
1.00556
1.00418
1.00286
1.00168
1.00062
1.01091
1.01164
1.0121
1.0122
1.01199
1.01146
1.01064
1.00959
1.00835
1.00699
1.00557
1.00416
1.00282
1.0016
1.00053
1.01105
1.01178
1.01225
1.01234
1.01213
1.01159
1.01076
1.00968
1.00841
1.00702
1.00557
1.00414
1.00277
1.00153
1.00043
1.01119
1.01192
1.01239
1.01249
1.01227
1.01171
1.01086
1.00977
1.00847
1.00706
1.00558
1.00412
1.00272
1.00145
1.00033
1.01133
1.01207
1.01254
1.01263
1.01241
1.01184
1.01097
1.00986
1.00853
1.00709
1.00558
1.00409
1.00266
1.00137
1.00023
1.01147
1.01222
1.01269
1.01278
1.01255
1.01197
1.01108
1.00994
1.0086
1.00712
1.00559
1.00406
1.00261
1.00129
1.00012
1.01161
1.01237
1.01284
1.01293
1.01269
1.01209
1.01119
1.01003
1.00866
1.00715
1.00559
1.00404
1.00255
1.00121
1.00002
1.01176
1.01252
1.013
1.01308
1.01283
1.01222
1.0113
1.01012
1.00872
1.00719
1.00559
1.00401
1.00249
1.00112
0.999908
1.01191
1.01268
1.01316
1.01324
1.01298
1.01236
1.01142
1.01021
1.00878
1.00722
1.00559
1.00398
1.00243
1.00104
0.999797
1.01207
1.01284
1.01332
1.0134
1.01313
1.01249
1.01154
1.0103
1.00884
1.00725
1.00559
1.00395
1.00237
1.00095
0.999683
1.01223
1.01301
1.01349
1.01356
1.01328
1.01263
1.01166
1.0104
1.00891
1.00729
1.0056
1.00392
1.00231
1.00086
0.999567
1.01239
1.01317
1.01366
1.01373
1.01344
1.01278
1.01178
1.01049
1.00898
1.00732
1.0056
1.00389
1.00225
1.00077
0.999448
1.01255
1.01335
1.01383
1.0139
1.01361
1.01293
1.0119
1.01059
1.00905
1.00736
1.0056
1.00385
1.00219
1.00067
0.999327
1.01272
1.01352
1.01401
1.01408
1.01377
1.01308
1.01203
1.0107
1.00912
1.0074
1.0056
1.00382
1.00212
1.00058
0.999203
1.01289
1.0137
1.0142
1.01426
1.01394
1.01323
1.01217
1.0108
1.00919
1.00743
1.0056
1.00379
1.00205
1.00048
0.999077
1.01306
1.01388
1.01438
1.01444
1.01412
1.01339
1.0123
1.01091
1.00927
1.00747
1.0056
1.00375
1.00198
1.00038
0.998947
1.01324
1.01407
1.01457
1.01463
1.0143
1.01355
1.01244
1.01102
1.00934
1.00751
1.00561
1.00372
1.00191
1.00027
0.998815
1.01342
1.01426
1.01477
1.01482
1.01448
1.01372
1.01258
1.01113
1.00942
1.00755
1.00561
1.00368
1.00184
1.00017
0.99868
1.01361
1.01446
1.01497
1.01502
1.01467
1.01389
1.01273
1.01124
1.0095
1.00759
1.0056
1.00364
1.00176
1.00006
0.998542
1.01379
1.01466
1.01517
1.01522
1.01486
1.01406
1.01287
1.01136
1.00957
1.00763
1.0056
1.0036
1.00168
0.999946
0.998401
1.01399
1.01486
1.01537
1.01542
1.01505
1.01423
1.01302
1.01147
1.00965
1.00767
1.0056
1.00356
1.0016
0.999832
0.998257
1.01418
1.01506
1.01558
1.01563
1.01525
1.01441
1.01317
1.01159
1.00973
1.00771
1.0056
1.00351
1.00152
0.999715
0.998109
1.01438
1.01527
1.0158
1.01584
1.01545
1.01459
1.01333
1.01171
1.00982
1.00775
1.0056
1.00347
1.00144
0.999595
0.997959
1.01458
1.01549
1.01602
1.01605
1.01565
1.01478
1.01349
1.01183
1.0099
1.00778
1.00559
1.00342
1.00135
0.999473
0.997806
1.01479
1.01571
1.01624
1.01627
1.01586
1.01496
1.01364
1.01196
1.00998
1.00782
1.00558
1.00337
1.00126
0.999347
0.997649
1.015
1.01593
1.01646
1.0165
1.01607
1.01516
1.01381
1.01208
1.01006
1.00786
1.00558
1.00332
1.00117
0.999219
0.997489
1.01522
1.01616
1.01669
1.01672
1.01629
1.01535
1.01397
1.01221
1.01015
1.0079
1.00557
1.00327
1.00108
0.999087
0.997326
1.01544
1.01639
1.01693
1.01696
1.01651
1.01555
1.01414
1.01234
1.01023
1.00794
1.00556
1.00321
1.00098
0.998953
0.99716
1.01566
1.01662
1.01717
1.01719
1.01673
1.01575
1.01431
1.01247
1.01032
1.00798
1.00555
1.00316
1.00088
0.998815
0.99699
1.01589
1.01687
1.01741
1.01743
1.01696
1.01596
1.01448
1.0126
1.01041
1.00802
1.00554
1.0031
1.00078
0.998674
0.996816
1.01612
1.01711
1.01766
1.01768
1.01719
1.01617
1.01466
1.01274
1.0105
1.00805
1.00553
1.00304
1.00067
0.99853
0.996639
1.01636
1.01736
1.01792
1.01793
1.01743
1.01638
1.01484
1.01288
1.01058
1.00809
1.00551
1.00297
1.00056
0.998382
0.996459
1.0166
1.01762
1.01818
1.01819
1.01767
1.0166
1.01502
1.01301
1.01067
1.00813
1.0055
1.00291
1.00045
0.99823
0.996274
1.01684
1.01788
1.01844
1.01845
1.01792
1.01682
1.01521
1.01316
1.01076
1.00816
1.00548
1.00284
1.00034
0.998076
0.996086
1.0171
1.01814
1.01871
1.01871
1.01817
1.01704
1.0154
1.0133
1.01086
1.0082
1.00546
1.00277
1.00022
0.997917
0.995894
1.01735
1.01841
1.01899
1.01899
1.01842
1.01727
1.01559
1.01344
1.01095
1.00824
1.00544
1.0027
1.0001
0.997755
0.995697
1.01761
1.01869
1.01927
1.01926
1.01869
1.01751
1.01578
1.01359
1.01104
1.00827
1.00542
1.00262
0.999978
0.997589
0.995497
1.01788
1.01897
1.01955
1.01954
1.01895
1.01774
1.01598
1.01374
1.01113
1.00831
1.0054
1.00254
0.99985
0.997419
0.995293
1.01815
1.01925
1.01984
1.01983
1.01922
1.01799
1.01618
1.01389
1.01123
1.00834
1.00537
1.00246
0.99972
0.997245
0.995084
1.01843
1.01955
1.02014
1.02012
1.0195
1.01823
1.01639
1.01404
1.01132
1.00837
1.00535
1.00238
0.999585
0.997067
0.994871
1.01871
1.01984
1.02045
1.02042
1.01978
1.01849
1.0166
1.0142
1.01142
1.00841
1.00532
1.00229
0.999447
0.996885
0.994654
1.019
1.02015
1.02076
1.02073
1.02007
1.01874
1.01681
1.01436
1.01151
1.00844
1.00528
1.0022
0.999305
0.996698
0.994432
1.01929
1.02046
1.02107
1.02104
1.02036
1.019
1.01702
1.01452
1.01161
1.00847
1.00525
1.00211
0.999159
0.996507
0.994205
1.01959
1.02077
1.02139
1.02136
1.02066
1.01927
1.01724
1.01468
1.01171
1.0085
1.00522
1.00201
0.99901
0.996312
0.993974
1.0199
1.02109
1.02172
1.02168
1.02096
1.01954
1.01747
1.01484
1.0118
1.00853
1.00518
1.00191
0.998855
0.996112
0.993738
1.02021
1.02142
1.02206
1.02201
1.02128
1.01982
1.01769
1.01501
1.0119
1.00856
1.00514
1.00181
0.998697
0.995907
0.993497
1.02052
1.02176
1.0224
1.02235
1.02159
1.0201
1.01792
1.01518
1.012
1.00858
1.00509
1.0017
0.998535
0.995698
0.993251
1.02085
1.0221
1.02275
1.02269
1.02191
1.02038
1.01816
1.01535
1.0121
1.00861
1.00505
1.00159
0.998368
0.995484
0.993
1.02118
1.02245
1.0231
1.02304
1.02224
1.02067
1.01839
1.01552
1.0122
1.00863
1.005
1.00147
0.998196
0.995264
0.992743
1.02151
1.0228
1.02346
1.0234
1.02258
1.02097
1.01864
1.01569
1.0123
1.00865
1.00495
1.00136
0.99802
0.99504
0.992482
1.02186
1.02317
1.02383
1.02376
1.02292
1.02127
1.01888
1.01587
1.0124
1.00867
1.00489
1.00123
0.997839
0.99481
0.992214
1.02221
1.02354
1.02421
1.02413
1.02327
1.02158
1.01913
1.01605
1.0125
1.00869
1.00483
1.00111
0.997653
0.994576
0.991942
1.02256
1.02391
1.0246
1.02451
1.02363
1.02189
1.01938
1.01623
1.01259
1.00871
1.00477
1.00097
0.997462
0.994335
0.991663
1.02293
1.0243
1.02499
1.0249
1.02399
1.02221
1.01964
1.01641
1.01269
1.00872
1.00471
1.00084
0.997265
0.994089
0.991379
1.0233
1.02469
1.02539
1.0253
1.02436
1.02254
1.0199
1.01659
1.01279
1.00874
1.00464
1.0007
0.997064
0.993838
0.991089
1.02368
1.02509
1.0258
1.0257
1.02474
1.02287
1.02017
1.01678
1.01289
1.00875
1.00457
1.00055
0.996857
0.99358
0.990794
1.02406
1.0255
1.02622
1.02611
1.02512
1.0232
1.02044
1.01697
1.01299
1.00876
1.00449
1.0004
0.996644
0.993317
0.990492
1.02446
1.02592
1.02665
1.02653
1.02551
1.02355
1.02071
1.01716
1.01309
1.00876
1.00441
1.00025
0.996425
0.993048
0.990184
1.02486
1.02635
1.02708
1.02696
1.02591
1.0239
1.02099
1.01735
1.01318
1.00876
1.00433
1.00009
0.996201
0.992772
0.989869
1.02527
1.02678
1.02753
1.0274
1.02632
1.02425
1.02127
1.01754
1.01328
1.00876
1.00424
0.999919
0.99597
0.99249
0.989548
1.02569
1.02723
1.02798
1.02784
1.02674
1.02462
1.02156
1.01774
1.01338
1.00876
1.00415
0.999747
0.995733
0.992201
0.989221
1.02612
1.02768
1.02844
1.0283
1.02716
1.02499
1.02185
1.01793
1.01347
1.00876
1.00405
0.999569
0.99549
0.991906
0.988887
1.02655
1.02814
1.02892
1.02877
1.0276
1.02536
1.02215
1.01813
1.01357
1.00875
1.00394
0.999385
0.995239
0.991604
0.988546
1.027
1.02861
1.0294
1.02924
1.02804
1.02575
1.02245
1.01833
1.01366
1.00873
1.00384
0.999194
0.994983
0.991295
0.988199
1.02745
1.0291
1.02989
1.02973
1.02849
1.02614
1.02275
1.01853
1.01375
1.00872
1.00372
0.998997
0.994719
0.990979
0.987844
1.02791
1.02959
1.0304
1.03022
1.02895
1.02653
1.02306
1.01873
1.01384
1.0087
1.0036
0.998793
0.994447
0.990656
0.987483
1.02839
1.03009
1.03091
1.03073
1.02942
1.02694
1.02337
1.01894
1.01392
1.00867
1.00347
0.998582
0.994169
0.990326
0.987114
1.02887
1.0306
1.03144
1.03125
1.0299
1.02735
1.02369
1.01914
1.01401
1.00864
1.00334
0.998363
0.993882
0.989987
0.986738
1.02936
1.03113
1.03198
1.03177
1.03039
1.02777
1.02401
1.01935
1.01409
1.00861
1.0032
0.998137
0.993588
0.989641
0.986354
1.02987
1.03167
1.03252
1.03231
1.03089
1.0282
1.02434
1.01955
1.01417
1.00857
1.00306
0.997903
0.993286
0.989287
0.985963
1.03038
1.03221
1.03308
1.03287
1.0314
1.02863
1.02467
1.01976
1.01425
1.00852
1.0029
0.997661
0.992975
0.988925
0.985564
1.03091
1.03277
1.03366
1.03343
1.03192
1.02907
1.025
1.01997
1.01432
1.00847
1.00274
0.997411
0.992656
0.988555
0.985157
1.03144
1.03334
1.03424
1.034
1.03245
1.02952
1.02534
1.02017
1.01439
1.00841
1.00257
0.997151
0.992327
0.988176
0.984742
1.03199
1.03393
1.03484
1.03459
1.03299
1.02998
1.02568
1.02038
1.01446
1.00835
1.0024
0.996883
0.99199
0.987788
0.984319
1.03255
1.03452
1.03545
1.03519
1.03355
1.03045
1.02603
1.02058
1.01452
1.00827
1.00221
0.996605
0.991643
0.987391
0.983888
1.03312
1.03513
1.03608
1.03581
1.03411
1.03092
1.02638
1.02079
1.01458
1.0082
1.00201
0.996318
0.991287
0.986986
0.983448
1.0337
1.03576
1.03672
1.03644
1.03469
1.03141
1.02673
1.02099
1.01463
1.00811
1.00181
0.99602
0.99092
0.98657
0.983
1.0343
1.03639
1.03737
1.03708
1.03528
1.0319
1.02709
1.0212
1.01468
1.00801
1.0016
0.995713
0.990544
0.986146
0.982543
1.03491
1.03704
1.03804
1.03773
1.03588
1.0324
1.02745
1.0214
1.01472
1.00791
1.00137
0.995393
0.990157
0.985711
0.982078
1.03553
1.03771
1.03873
1.0384
1.03649
1.0329
1.02782
1.0216
1.01476
1.0078
1.00113
0.995064
0.989759
0.985267
0.981603
1.03617
1.03839
1.03943
1.03909
1.03711
1.03342
1.02818
1.0218
1.01478
1.00767
1.00089
0.994721
0.98935
0.984812
0.981119
1.03682
1.03909
1.04014
1.03979
1.03775
1.03395
1.02855
1.02199
1.01481
1.00754
1.00063
0.994368
0.988929
0.984347
0.980625
1.03748
1.0398
1.04087
1.04051
1.0384
1.03448
1.02892
1.02218
1.01482
1.0074
1.00036
0.994001
0.988497
0.983872
0.980123
1.03816
1.04053
1.04162
1.04124
1.03907
1.03502
1.0293
1.02237
1.01482
1.00724
1.00007
0.993622
0.988053
0.983385
0.97961
1.03886
1.04127
1.04239
1.04199
1.03975
1.03557
1.02968
1.02255
1.01482
1.00707
0.999774
0.993229
0.987595
0.982887
0.979088
1.03957
1.04204
1.04318
1.04276
1.04044
1.03613
1.03005
1.02273
1.0148
1.00689
0.999463
0.992823
0.987126
0.982378
0.978556
1.04029
1.04282
1.04398
1.04355
1.04115
1.03669
1.03043
1.0229
1.01478
1.00669
0.999136
0.992402
0.986643
0.981857
0.978013
1.04104
1.04362
1.0448
1.04435
1.04187
1.03727
1.03081
1.02307
1.01474
1.00649
0.998794
0.991967
0.986147
0.981324
0.97746
1.0418
1.04444
1.04565
1.04517
1.04261
1.03785
1.03119
1.02323
1.01469
1.00626
0.998436
0.991515
0.985636
0.980779
0.976897
1.04257
1.04527
1.04651
1.04602
1.04336
1.03844
1.03157
1.02338
1.01463
1.00602
0.998062
0.991049
0.985112
0.980222
0.976323
1.04337
1.04613
1.04739
1.04688
1.04412
1.03904
1.03195
1.02352
1.01455
1.00576
0.99767
0.990565
0.984572
0.979651
0.975738
1.04419
1.04701
1.0483
1.04776
1.04491
1.03965
1.03233
1.02365
1.01446
1.00549
0.99726
0.990066
0.984018
0.979068
0.975142
1.04502
1.04791
1.04923
1.04866
1.0457
1.04026
1.0327
1.02377
1.01435
1.00519
0.996831
0.989548
0.983447
0.978471
0.974535
1.04587
1.04883
1.05018
1.04959
1.04652
1.04088
1.03307
1.02388
1.01423
1.00488
0.996384
0.989013
0.982862
0.97786
0.973916
1.04675
1.04977
1.05115
1.05053
1.04735
1.04151
1.03344
1.02398
1.01408
1.00455
0.995915
0.988458
0.982259
0.977235
0.973286
1.04764
1.05074
1.05215
1.0515
1.04819
1.04214
1.0338
1.02406
1.01392
1.00419
0.995426
0.987885
0.98164
0.976597
0.972644
1.04856
1.05173
1.05318
1.05249
1.04906
1.04278
1.03416
1.02413
1.01374
1.00382
0.994914
0.987291
0.981003
0.975943
0.97199
1.0495
1.05275
1.05423
1.05351
1.04994
1.04342
1.03451
1.02418
1.01353
1.00342
0.994381
0.986678
0.980349
0.975275
0.971324
1.05046
1.05379
1.0553
1.05455
1.05083
1.04407
1.03485
1.02422
1.0133
1.00299
0.993822
0.986042
0.979676
0.974591
0.970645
1.05144
1.05486
1.05641
1.05562
1.05174
1.04472
1.03518
1.02423
1.01305
1.00254
0.993241
0.985386
0.978985
0.973892
0.969954
1.05245
1.05596
1.05755
1.05671
1.05267
1.04538
1.0355
1.02422
1.01277
1.00206
0.992632
0.984706
0.978274
0.973177
0.96925
1.05349
1.05709
1.05871
1.05783
1.05362
1.04604
1.03581
1.02419
1.01246
1.00155
0.991998
0.984003
0.977544
0.972446
0.968534
1.05455
1.05824
1.05991
1.05897
1.05458
1.04669
1.0361
1.02414
1.01212
1.00101
0.991336
0.983276
0.976794
0.971698
0.967804
1.05564
1.05943
1.06113
1.06015
1.05556
1.04735
1.03638
1.02406
1.01176
1.00045
0.990647
0.982526
0.976023
0.970935
0.967062
1.05676
1.06064
1.06239
1.06135
1.05655
1.04801
1.03664
1.02395
1.01136
0.999844
0.989927
0.981749
0.975231
0.970154
0.966306
1.0579
1.06189
1.06369
1.06258
1.05756
1.04866
1.03688
1.02381
1.01092
0.99921
0.989177
0.980947
0.974418
0.969356
0.965537
1.05908
1.06318
1.06502
1.06384
1.05859
1.04931
1.0371
1.02364
1.01045
0.998539
0.988395
0.980117
0.973583
0.968541
0.964755
1.06028
1.0645
1.06639
1.06514
1.05963
1.04995
1.03729
1.02343
1.00994
0.997833
0.987582
0.979262
0.972726
0.967708
0.963959
1.06152
1.06585
1.0678
1.06646
1.06069
1.05058
1.03746
1.02318
1.00938
0.997087
0.986734
0.978377
0.971845
0.966858
0.963149
1.06279
1.06724
1.06924
1.06782
1.06175
1.05121
1.03759
1.02289
1.00879
0.996302
0.985852
0.977464
0.970943
0.96599
0.962326
1.0641
1.06868
1.07073
1.06921
1.06283
1.05182
1.03769
1.02256
1.00815
0.995475
0.984934
0.976521
0.970016
0.965103
0.961488
1.06544
1.07015
1.07226
1.07063
1.06393
1.05241
1.03776
1.02218
1.00746
0.994606
0.983981
0.97555
0.969066
0.964199
0.960638
1.06681
1.07167
1.07384
1.07209
1.06503
1.05299
1.03778
1.02176
1.00673
0.993691
0.982988
0.974546
0.968092
0.963276
0.959773
1.06823
1.07323
1.07546
1.07358
1.06614
1.05354
1.03777
1.02128
1.00594
0.992731
0.981958
0.973513
0.967094
0.962335
0.958896
1.06969
1.07484
1.07713
1.07511
1.06725
1.05407
1.0377
1.02074
1.00509
0.991722
0.980888
0.972448
0.966071
0.961375
0.958004
1.07118
1.07649
1.07885
1.07667
1.06837
1.05457
1.03758
1.02014
1.00419
0.990665
0.979778
0.971351
0.965024
0.960397
0.9571
1.07272
1.0782
1.08062
1.07827
1.06949
1.05503
1.03741
1.01948
1.00323
0.989556
0.978625
0.970221
0.963952
0.959399
0.956181
1.07431
1.07996
1.08245
1.0799
1.07061
1.05546
1.03717
1.01876
1.00221
0.988395
0.977432
0.969059
0.962855
0.958384
0.95525
1.07594
1.08177
1.08433
1.08157
1.07173
1.05584
1.03687
1.01796
1.00113
0.98718
0.976195
0.967863
0.961732
0.957349
0.954305
1.07762
1.08364
1.08627
1.08327
1.07284
1.05617
1.03649
1.01709
0.999973
0.98591
0.974915
0.966635
0.960585
0.956297
0.953347
1.07935
1.08558
1.08827
1.08501
1.07393
1.05645
1.03604
1.01614
0.998749
0.984583
0.97359
0.965372
0.959412
0.955225
0.952375
1.08113
1.08757
1.09033
1.08678
1.075
1.05667
1.03551
1.0151
0.997455
0.983198
0.972221
0.964076
0.958214
0.954136
0.951392
1.08296
1.08963
1.09246
1.08858
1.07606
1.05681
1.03488
1.01398
0.996086
0.981754
0.970805
0.962745
0.956991
0.953027
0.950395
1.08485
1.09177
1.09465
1.09041
1.07708
1.05688
1.03416
1.01277
0.994641
0.98025
0.969345
0.961381
0.955743
0.951901
0.949386
1.08681
1.09397
1.09692
1.09226
1.07807
1.05686
1.03334
1.01146
0.993116
0.978684
0.967838
0.959982
0.954469
0.950755
0.948364
1.08882
1.09625
1.09925
1.09414
1.07901
1.05675
1.03241
1.01005
0.991511
0.977056
0.966286
0.95855
0.953171
0.949593
0.947331
1.0909
1.09862
1.10166
1.09604
1.0799
1.05654
1.03136
1.00854
0.989822
0.975365
0.964686
0.957083
0.951847
0.948412
0.946284
1.09304
1.10107
1.10415
1.09795
1.08073
1.05621
1.03019
1.00692
0.98805
0.973611
0.963041
0.955583
0.9505
0.947215
0.945228
1.09526
1.10361
1.10671
1.09988
1.08148
1.05575
1.02888
1.00519
0.98619
0.971793
0.961349
0.954049
0.949128
0.945999
0.944158
1.09756
1.10625
1.10935
1.10181
1.08215
1.05517
1.02744
1.00335
0.984243
0.969911
0.959611
0.952483
0.947733
0.944768
0.943079
1.09993
1.10898
1.11207
1.10373
1.08272
1.05443
1.02585
1.00138
0.982206
0.967963
0.957827
0.950883
0.946313
0.943519
0.941987
1.10238
1.11183
1.11487
1.10564
1.08317
1.05353
1.02411
0.999294
0.980081
0.965953
0.955999
0.949252
0.944872
0.942255
0.940886
1.10492
1.11479
1.11775
1.10753
1.0835
1.05245
1.0222
0.997082
0.977864
0.963877
0.954125
0.947589
0.943407
0.940973
0.939774
1.10755
1.11786
1.12071
1.10938
1.08368
1.05119
1.02013
0.994743
0.975557
0.96174
0.952208
0.945895
0.941921
0.939678
0.938654
1.11028
1.12107
1.12374
1.11118
1.0837
1.04973
1.01789
0.992275
0.973158
0.959538
0.950247
0.944171
0.940412
0.938367
0.937522
1.11312
1.12441
1.12685
1.11292
1.08353
1.04805
1.01546
0.989677
0.97067
0.957276
0.948245
0.942419
0.938885
0.937044
0.936383
1.11606
1.12789
1.13003
1.11457
1.08316
1.04614
1.01285
0.986946
0.968091
0.954953
0.946201
0.940637
0.937335
0.935705
0.935235
1.11912
1.13152
1.13327
1.11611
1.08256
1.04399
1.01004
0.984085
0.965425
0.952572
0.94412
0.938829
0.935768
0.934355
0.934079
1.1223
1.1353
1.13657
1.11753
1.08171
1.04158
1.00704
0.981091
0.962671
0.950133
0.941999
0.936993
0.934182
0.932991
0.932915
1.12562
1.13925
1.13991
1.11879
1.08057
1.0389
1.00384
0.977967
0.959832
0.94764
0.939843
0.935134
0.932579
0.931617
0.931745
1.12908
1.14337
1.14328
1.11986
1.07913
1.03593
1.00044
0.974714
0.956911
0.945093
0.937652
0.93325
0.930959
0.930232
0.930567
1.1327
1.14768
1.14667
1.12072
1.07736
1.03267
0.996844
0.971336
0.953911
0.942497
0.935429
0.931345
0.929325
0.928838
0.929384
1.13647
1.15216
1.15005
1.12132
1.07522
1.02909
0.993042
0.967835
0.950834
0.939853
0.933175
0.929417
0.927676
0.927435
0.928194
1.14043
1.15685
1.15341
1.12163
1.0727
1.0252
0.989042
0.964216
0.947685
0.937166
0.930894
0.927472
0.926016
0.926025
0.927
1.14458
1.16172
1.1567
1.1216
1.06975
1.02099
0.984847
0.960484
0.944468
0.934438
0.928586
0.925508
0.924343
0.924608
0.925799
1.14894
1.1668
1.1599
1.12119
1.06635
1.01645
0.980464
0.956646
0.941189
0.931673
0.926255
0.923529
0.922662
0.923186
0.924594
1.15353
1.17208
1.16297
1.12034
1.06247
1.01158
0.975898
0.952707
0.937851
0.928874
0.923903
0.921534
0.920972
0.921758
0.923382
1.15836
1.17755
1.16586
1.11899
1.05809
1.00638
0.971161
0.948676
0.934461
0.926046
0.921532
0.919529
0.919277
0.920329
0.922167
1.16347
1.18321
1.16851
1.11711
1.05318
1.00085
0.966263
0.94456
0.931024
0.923192
0.919145
0.917513
0.917576
0.918896
0.920944
1.16887
1.18905
1.17087
1.11461
1.04773
0.99501
0.961219
0.94037
0.927547
0.920318
0.916746
0.91549
0.915875
0.917462
0.919716
1.17459
1.19504
1.17286
1.11145
1.04171
0.988868
0.956042
0.936114
0.924036
0.917426
0.914335
0.913461
0.914173
0.916027
0.91848
1.18067
1.20117
1.1744
1.10755
1.03511
0.982444
0.95075
0.931803
0.920499
0.914522
0.911918
0.911431
0.912474
0.914593
0.917236
1.18714
1.2074
1.17541
1.10286
1.02794
0.97576
0.945359
0.927446
0.91694
0.911609
0.909495
0.909401
0.910779
0.913157
0.915981
1.19403
1.21368
1.17579
1.09732
1.02019
0.968844
0.939891
0.923055
0.913369
0.908693
0.907073
0.907377
0.909092
0.911722
0.914717
1.20137
1.21996
1.17543
1.09087
1.01189
0.961728
0.934364
0.918639
0.909791
0.905776
0.904652
0.90536
0.907413
0.910284
0.913439
1.20922
1.22616
1.17421
1.08345
1.00304
0.954452
0.9288
0.914211
0.906214
0.902864
0.902238
0.903356
0.905746
0.908845
0.912148
1.21761
1.23219
1.17201
1.07503
0.993696
0.947054
0.923217
0.90978
0.902644
0.89996
0.899835
0.901367
0.904088
0.907399
0.910843
1.22659
1.23795
1.1687
1.06557
0.983898
0.939581
0.917636
0.905356
0.899087
0.89707
0.89745
0.899399
0.902443
0.905947
0.909525
1.23618
1.2433
1.16413
1.05504
0.97371
0.932078
0.912076
0.90095
0.89555
0.894197
0.895085
0.897455
0.900808
0.904483
0.908194
1.24644
1.24809
1.15816
1.04346
0.963208
0.924594
0.906554
0.89657
0.89204
0.89135
0.892749
0.895537
0.899181
0.903007
0.906857
1.2574
1.25214
1.15065
1.03084
0.95248
0.917175
0.901086
0.892227
0.888562
0.888533
0.890446
0.893647
0.897558
0.901516
0.905517
1.26906
1.25523
1.14145
1.01723
0.941627
0.909865
0.895685
0.887928
0.885125
0.885755
0.888184
0.891784
0.895935
0.900009
0.904186
1.28145
1.2571
1.13042
1.00271
0.93076
0.902702
0.890363
0.883683
0.881737
0.883023
0.885965
0.889945
0.894303
0.898486
0.902872
1.29454
1.25747
1.11744
0.987408
0.919995
0.89572
0.88513
0.879503
0.878408
0.880348
0.883796
0.888126
0.892662
0.896956
0.901588
1.30829
1.256
1.10241
0.971474
0.909446
0.888942
0.879991
0.875395
0.875149
0.877738