/*--------------------------------*- C++ -*----------------------------------*\
  =========                 |
  \\      /  F ield         | OpenFOAM: The Open Source CFD Toolbox
   \\    /   O peration     | Website:  https://openfoam.org
    \\  /    A nd           | Version:  6.0
     \\/     M anipulation  |
\*---------------------------------------------------------------------------*/
FoamFile
{
    version     2.0;
    format      ascii;
    class       volScalarField;
    location    "8";
    object      p;
}
// * * * * * * * * * * * * * * * * * * * * * * * * * * * * * * * * * * * * * //

dimensions      [0 2 -2 0 0 0 0];

internalField   nonuniform List<scalar> 
62000
(
-0.0816603
-0.083217
-0.0848417
-0.0863899
-0.0879209
-0.0893754
-0.090782
-0.0920778
-0.0932931
-0.0943602
-0.0953138
-0.0960827
-0.0967011
-0.0971012
-0.0973119
-0.097274
-0.0970081
-0.0964641
-0.0956553
-0.0945358
-0.0931135
-0.0913396
-0.0892184
-0.0866914
-0.0837559
-0.0803402
-0.0764259
-0.0719225
-0.0667963
-0.0609433
-0.0543441
-0.04693
-0.0386468
-0.0294628
-0.01938
-0.00847933
0.00307392
0.0149733
0.0267624
0.0377834
0.047212
0.0540613
0.0573373
0.0560423
0.049679
0.0387304
0.0254228
0.0134615
0.00794058
0.0129811
0.0296323
0.055073
0.0822441
0.103644
0.115418
0.111006
0.0960166
0.077423
0.0598826
0.0890547
-0.0904369
-0.0922695
-0.0941542
-0.0959007
-0.0975695
-0.0991106
-0.100549
-0.101832
-0.102991
-0.103967
-0.1048
-0.105427
-0.105887
-0.106116
-0.106147
-0.105919
-0.105454
-0.104698
-0.10366
-0.102292
-0.100592
-0.0985147
-0.0960481
-0.0931482
-0.0897906
-0.0859279
-0.081519
-0.0765012
-0.0708165
-0.0643989
-0.0572155
-0.0492214
-0.0403832
-0.0306712
-0.0201075
-0.0087796
0.00312893
0.0153108
0.0273017
0.0384574
0.047963
0.0548617
0.0581725
0.0568861
0.0504292
0.0391593
0.025131
0.0119136
0.00469814
0.00805802
0.023871
0.0502668
0.0807457
0.107553
0.125903
0.126318
0.113415
0.0958788
0.0867635
0.0482576
-0.0875917
-0.0893761
-0.0912139
-0.0929705
-0.0946922
-0.0963396
-0.097935
-0.0994235
-0.100837
-0.102106
-0.103273
-0.104257
-0.105102
-0.105724
-0.106161
-0.106333
-0.106265
-0.105885
-0.105204
-0.104158
-0.102743
-0.100903
-0.098621
-0.0958465
-0.0925484
-0.088681
-0.0841953
-0.0790365
-0.0731377
-0.0664496
-0.0589354
-0.0505824
-0.0413575
-0.0312497
-0.0202935
-0.00859331
0.00365493
0.016132
0.0283679
0.0397173
0.0493691
0.0563734
0.0597401
0.0584099
0.0516942
0.0397398
0.0242731
0.00848652
-0.00268544
-0.00458231
0.00528255
0.0261743
0.0528492
0.0783993
0.0983342
0.102019
0.0937573
0.0842935
0.0888961
0.0770932
-0.0784028
-0.0798492
-0.0813496
-0.0828041
-0.0842532
-0.0856675
-0.0870698
-0.0884178
-0.0897415
-0.0909874
-0.0921889
-0.0932825
-0.0943002
-0.0951703
-0.0959176
-0.0964666
-0.0968307
-0.096934
-0.0967766
-0.0962844
-0.0954434
-0.0941836
-0.0924777
-0.0902618
-0.0874953
-0.0841211
-0.0800843
-0.0753216
-0.0697644
-0.0633532
-0.0560726
-0.0478944
-0.0388069
-0.0288032
-0.017928
-0.00629395
0.00589519
0.0183195
0.0305118
0.04184
0.0515079
0.0585913
0.0621003
0.0609544
0.054386
0.0423496
0.0262174
0.0087188
-0.00563416
-0.0123407
-0.00854728
0.00597095
0.0274192
0.0502361
0.0706014
0.0774444
0.074815
0.075211
0.0936894
0.0980701
-0.0693791
-0.0705029
-0.0716483
-0.0727397
-0.0738107
-0.0748381
-0.0758464
-0.0767994
-0.0777325
-0.0785992
-0.0794427
-0.0802062
-0.0809343
-0.0815621
-0.0821272
-0.0825591
-0.0828812
-0.0830198
-0.0829796
-0.0826849
-0.0821205
-0.081211
-0.0799224
-0.0781821
-0.0759397
-0.0731289
-0.0696824
-0.06553
-0.0605875
-0.0548024
-0.0481296
-0.0405649
-0.032078
-0.0226657
-0.0123716
-0.00130555
0.0103367
0.0222502
0.0339934
0.0449699
0.0544312
0.0615122
0.0652656
0.064641
0.0588689
0.0477775
0.0324353
0.015118
-0.00016589
-0.00925022
-0.00919826
0.00088815
0.0184096
0.0390324
0.0597432
0.0694447
0.0719136
0.0801137
0.107795
0.123835
-0.0612267
-0.0620668
-0.0629226
-0.0637273
-0.064507
-0.0652374
-0.0659364
-0.0665693
-0.0671636
-0.0676786
-0.0681495
-0.0685311
-0.0688621
-0.0690942
-0.0692635
-0.0693194
-0.0692883
-0.0691166
-0.0688153
-0.0683251
-0.0676377
-0.0666877
-0.0654457
-0.0638422
-0.0618282
-0.0593334
-0.0562903
-0.0526185
-0.0482344
-0.0430627
-0.0370791
-0.0302433
-0.0225328
-0.0139322
-0.0044754
0.00574134
0.0165422
0.0276532
0.038676
0.0490728
0.0581696
0.0651943
0.0692771
0.0694467
0.064986
0.0556651
0.0423023
0.0267685
0.0125396
0.00333358
0.00193508
0.00956711
0.0245866
0.0438097
0.0648233
0.0765934
0.0823725
0.0955134
0.128739
0.150823
-0.0534519
-0.0541044
-0.0547574
-0.0553572
-0.0559257
-0.0564395
-0.0569159
-0.0573182
-0.0576737
-0.0579373
-0.0581447
-0.0582449
-0.0582785
-0.0581927
-0.0580281
-0.0577336
-0.0573434
-0.0568092
-0.0561533
-0.0553274
-0.0543363
-0.0531288
-0.0516882
-0.0499587
-0.0479007
-0.0454548
-0.0425567
-0.0391337
-0.0350956
-0.0303831
-0.0249401
-0.0187498
-0.0117653
-0.00396486
0.00463087
0.0139447
0.0238279
0.0340454
0.0442532
0.0539831
0.0626531
0.0695993
0.0740552
0.0751494
0.0722558
0.0651217
0.0543768
0.0415302
0.0295586
0.0216927
0.0204304
0.0271257
0.0407994
0.0591327
0.0802979
0.0933662
0.101138
0.116906
0.152867
0.177895
-0.0460379
-0.0464774
-0.0469207
-0.047321
-0.047698
-0.0480285
-0.0483264
-0.0485565
-0.0487398
-0.0488339
-0.048865
-0.0487863
-0.0486269
-0.0483388
-0.0479516
-0.0474199
-0.0467704
-0.0459621
-0.0450158
-0.0438929
-0.0426039
-0.0411101
-0.0394063
-0.0374508
-0.0352189
-0.0326635
-0.0297362
-0.0263711
-0.0224943
-0.0180354
-0.0129702
-0.00725217
-0.000845022
0.00628466
0.0141294
0.0226315
0.0316702
0.0410516
0.0504871
0.0595822
0.0678488
0.0747381
0.0795894
0.0816459
0.0803765
0.0755429
0.067616
0.0578208
0.0486604
0.0428913
0.0426633
0.0492813
0.0622793
0.0801185
0.101299
0.114995
0.123473
0.140465
0.17848
0.20491
-0.0386159
-0.0389234
-0.039222
-0.0394759
-0.0397024
-0.0398811
-0.040027
-0.0401068
-0.0401433
-0.0400936
-0.039986
-0.0397705
-0.0394772
-0.039053
-0.038527
-0.0378483
-0.0370421
-0.0360632
-0.0349316
-0.0336085
-0.0321066
-0.0303926
-0.0284678
-0.0263015
-0.0238799
-0.0211711
-0.0181383
-0.0147332
-0.0108873
-0.00655813
-0.00170078
0.00369887
0.00969212
0.0163128
0.023563
0.0314021
0.0397349
0.0484058
0.0571787
0.0657278
0.0736559
0.0805198
0.0857651
0.08874
0.0890176
0.0863741
0.0811742
0.0743898
0.0681338
0.0647271
0.0659615
0.0730426
0.0858391
0.103367
0.124478
0.138445
0.147216
0.164748
0.204184
0.231223
-0.0315398
-0.0316662
-0.0317865
-0.0318706
-0.0319351
-0.0319598
-0.0319582
-0.0318989
-0.0318012
-0.0316263
-0.0313969
-0.0310687
-0.0306648
-0.030138
-0.0295095
-0.0287327
-0.0278247
-0.0267426
-0.0254998
-0.0240582
-0.0224267
-0.0205739
-0.0185021
-0.0161857
-0.0136181
-0.0107753
-0.0076347
-0.00415645
-0.000292492
0.00400409
0.00873971
0.0139494
0.0196653
0.0259253
0.0327377
0.0400749
0.0478627
0.0559789
0.0642322
0.0723594
0.0800412
0.0869325
0.092568
0.0964017
0.0980898
0.09745
0.0947452
0.0907698
0.0872849
0.0862122
0.0890222
0.096757
0.109565
0.126986
0.148017
0.162036
0.17066
0.188563
0.229834
0.257174
-0.0242659
-0.0243023
-0.0243204
-0.0242983
-0.0242504
-0.0241586
-0.0240378
-0.0238581
-0.0236418
-0.0233503
-0.0230101
-0.0225758
-0.0220744
-0.021456
-0.0207449
-0.0198912
-0.018913
-0.0177638
-0.0164557
-0.0149478
-0.0132463
-0.0113185
-0.00916492
-0.00676143
-0.00410286
-0.001172
0.00204961
0.00558874
0.00948974
0.0137726
0.0184617
0.0235553
0.0290952
0.0351123
0.0416185
0.0485943
0.0559833
0.0636894
0.0715602
0.0793831
0.0869083
0.0938689
0.0998818
0.104487
0.107424
0.108539
0.108035
0.106541
0.105554
0.106643
0.110996
0.119505
0.132501
0.149891
0.170889
0.184963
0.193628
0.211987
0.254944
0.282438
-0.0173703
-0.0172511
-0.0171164
-0.0169491
-0.0167632
-0.0165405
-0.0162943
-0.0159958
-0.0156643
-0.0152641
-0.0148179
-0.0142848
-0.0136879
-0.012983
-0.0121903
-0.0112653
-0.010222
-0.0090176
-0.00766013
-0.00610957
-0.00436833
-0.00240246
-0.000209799
0.00223532
0.00493806
0.00791589
0.0111814
0.0147599
0.0186817
0.0229749
0.0276275
0.0326589
0.038089
0.0439486
0.0502519
0.0569838
0.0641024
0.0715303
0.0791478
0.0867825
0.0942419
0.101324
0.10771
0.11302
0.117058
0.119715
0.121126
0.121822
0.123046
0.126073
0.131843
0.141093
0.154332
0.171844
0.192894
0.207047
0.215679
0.234712
0.27983
0.307659
-0.0101787
-0.00999733
-0.00978846
-0.00954249
-0.00927048
-0.00895655
-0.00861465
-0.00821789
-0.00778756
-0.00728855
-0.00674658
-0.00612021
-0.00543587
-0.00464806
-0.00378041
-0.00278704
-0.00168459
-0.000428996
0.00097049
0.00255497
0.00432303
0.00630978
0.00852002
0.0109805
0.0136994
0.0166929
0.0199759
0.023568
0.0275023
0.0317855
0.0364284
0.0414165
0.0467787
0.0525415
0.0587151
0.0652918
0.0722362
0.0794896
0.0869545
0.0944929
0.101957
0.109195
0.115944
0.121887
0.126891
0.130873
0.133938
0.136508
0.139653
0.144391
0.151453
0.161453
0.175018
0.192701
0.213904
0.228277
0.237235
0.257168
0.304189
0.332652
-0.00335788
-0.00303818
-0.00269412
-0.00232041
-0.00192825
-0.00150125
-0.00105193
-0.000553911
-2.53003e-05
0.00056678
0.00120066
0.00191383
0.00268396
0.0035513
0.00449568
0.00555767
0.00672321
0.00803217
0.00947705
0.0110966
0.0128912
0.0148957
0.0171168
0.0195829
0.0223036
0.0252983
0.0285802
0.0321727
0.0361001
0.0403833
0.045001
0.0499656
0.0552856
0.0609896
0.0670889
0.0735782
0.080429
0.0875945
0.0949962
0.102522
0.110059
0.117495
0.124609
0.131144
0.137009
0.142165
0.146671
0.150891
0.15573
0.161976
0.170191
0.180875
0.194787
0.212771
0.234234
0.24891
0.258181
0.279226
0.328564
0.357948
0.00388536
0.00424233
0.00463499
0.00506214
0.00551573
0.00601005
0.00653214
0.00710682
0.0077138
0.00838602
0.00909858
0.0098904
0.0107355
0.0116764
0.0126893
0.0138166
0.015041
0.0164034
0.017894
0.0195514
0.0213755
0.0234006
0.0256347
0.0281062
0.0308272
0.0338169
0.0370933
0.0406764
0.0445974
0.0488595
0.053473
0.0584121
0.0637078
0.0693794
0.0754428
0.0818915
0.088705
0.0958434
0.103245
0.110816
0.118474
0.126131
0.133607
0.140686
0.147326
0.153509
0.159279
0.164927
0.171252
0.178836
0.188106
0.199476
0.213793
0.232113
0.253937
0.269064
0.278988
0.301313
0.352826
0.383188
0.0107282
0.0112093
0.0117225
0.0122629
0.0128217
0.013414
0.0140282
0.0146889
0.015379
0.0161299
0.0169206
0.0177868
0.0187068
0.0197185
0.0208017
0.021994
0.0232811
0.0246993
0.0262407
0.0279408
0.0298004
0.0318522
0.0341049
0.0365872
0.0393118
0.0423012
0.0455715
0.0491478
0.0530548
0.0573156
0.061904
0.0668339
0.0721136
0.0777736
0.083829
0.0902773
0.0971001
0.104266
0.111724
0.119397
0.127221
0.135134
0.14298
0.150588
0.157945
0.165068
0.171972
0.178908
0.186571
0.195368
0.2056
0.217606
0.232347
0.251114
0.27339
0.289035
0.299555
0.32329
0.377472
0.4088
0.018024
0.0185284
0.0190763
0.0196561
0.0202629
0.020909
0.021583
0.0223072
0.0230634
0.0238818
0.0247397
0.0256732
0.0266584
0.0277347
0.0288798
0.0301326
0.0314769
0.0329494
0.0345409
0.0362858
0.0381848
0.0402687
0.0425469
0.0450471
0.0477837
0.0507782
0.05405
0.0576218
0.0615266
0.0657696
0.0703586
0.0752757
0.0805516
0.086217
0.0922868
0.098762
0.105626
0.112855
0.120406
0.128215
0.136235
0.144419
0.152636
0.160747
0.168772
0.176748
0.184677
0.192763
0.201632
0.211536
0.222676
0.235336
0.250551
0.269785
0.29259
0.308874
0.320274
0.345514
0.402186
0.434342
0.0249328
0.0255523
0.0262113
0.0268944
0.0275962
0.0283295
0.0290844
0.0298832
0.0307111
0.0315966
0.0325218
0.0335191
0.0345699
0.0357085
0.0369174
0.0382299
0.0396342
0.0411619
0.0428067
0.0445991
0.0465417
0.0486626
0.0509724
0.0534979
0.0562535
0.0592621
0.0625411
0.0661178
0.0700193
0.0742686
0.0788454
0.0837664
0.0890514
0.0947371
0.100843
0.10737
0.114307
0.121633
0.129315
0.137298
0.145548
0.15403
0.162632
0.171246
0.179915
0.1887
0.197586
0.206743
0.216734
0.227681
0.239677
0.252963
0.268674
0.288469
0.311873
0.32883
0.34101
0.367814
0.427343
0.460218
0.032379
0.0330031
0.0336779
0.0343817
0.0351139
0.0358838
0.0366833
0.0375311
0.0384122
0.0393533
0.040335
0.0413898
0.0424969
0.0436922
0.044956
0.0463232
0.0477804
0.0493599
0.0510545
0.0528942
0.0548812
0.0570422
0.0593883
0.0619447
0.0647268
0.0677554
0.0710513
0.0746383
0.0785519
0.0827995
0.0873942
0.0923244
0.0976331
0.103355
0.109514
0.116112
0.123141
0.130587
0.138422
0.146599
0.155097
0.163888
0.172877
0.181984
0.191272
0.200816
0.210595
0.220743
0.231776
0.243703
0.256535
0.270474
0.286727
0.307091
0.331147
0.348867
0.362064
0.390472
0.452578
0.48597
0.0392666
0.0400032
0.0407891
0.0415983
0.0424283
0.0432892
0.0441729
0.0450981
0.0460527
0.0470615
0.0481098
0.0492264
0.0503962
0.0516498
0.0529733
0.054396
0.0559096
0.0575415
0.0592881
0.0611759
0.0632094
0.065413
0.0677987
0.070391
0.0732044
0.0762616
0.0795808
0.0831906
0.0871201
0.0913961
0.0960015
0.100963
0.106308
0.112082
0.11831
0.124999
0.132144
0.139734
0.14775
0.156151
0.164922
0.174045
0.18344
0.193047
0.202949
0.213236
0.223878
0.234978
0.24701
0.25989
0.273531
0.288109
0.304925
0.325938
0.350696
0.36919
0.383273
0.413293
0.478258
0.511999
0.0466738
0.0474435
0.0482702
0.0491221
0.0499984
0.0509074
0.0518406
0.052816
0.05382
0.0548783
0.0559743
0.0571386
0.0583543
0.0596543
0.0610229
0.0624918
0.0640509
0.0657292
0.0675218
0.0694555
0.0715343
0.0737818
0.0762099
0.0788422
0.081694
0.0847864
0.08814
0.0917805
0.0957447
0.100043
0.104691
0.109689
0.115086
0.120926
0.127238
0.134033
0.141308
0.149057
0.157268
0.165905
0.174963
0.184426
0.19423
0.204334
0.214838
0.22584
0.23731
0.249313
0.262296
0.276092
0.290537
0.305787
0.323204
0.344865
0.370362
0.3897
0.404876
0.436505
0.504008
0.537836
0.0542271
0.0550252
0.055881
0.0567592
0.0576622
0.058598
0.0595608
0.0605672
0.0616062
0.0627009
0.0638374
0.0650428
0.0663036
0.0676483
0.0690646
0.07058
0.0721877
0.0739133
0.0757544
0.0777354
0.0798618
0.0821559
0.0846302
0.087308
0.0902039
0.0933404
0.0967356
0.100419
0.104421
0.108769
0.113453
0.118508
0.123969
0.12989
0.136301
0.143218
0.150642
0.158573
0.167001
0.175898
0.185263
0.195089
0.20532
0.215934
0.227048
0.238764
0.251051
0.263941
0.277858
0.292561
0.307796
0.323714
0.341754
0.364132
0.390402
0.410582
0.426708
0.459911
0.530197
0.563874
0.0617637
0.0626021
0.0635001
0.0644179
0.0653604
0.0663337
0.0673342
0.0683763
0.0694514
0.0705812
0.071754
0.0729955
0.0742937
0.0756768
0.0771331
0.07869
0.0803409
0.0821112
0.0839985
0.0860269
0.088202
0.0905452
0.0930697
0.0957974
0.0987439
0.10193
0.105375
0.109107
0.113163
0.117554
0.122306
0.127422
0.132962
0.138976
0.1455
0.152551
0.160136
0.168258
0.176914
0.186082
0.195764
0.205958
0.216621
0.227747
0.239463
0.251878
0.264961
0.278711
0.293531
0.309118
0.32515
0.341765
0.360459
0.383547
0.410618
0.431697
0.448963
0.483703
0.556435
0.58963
0.069149
0.0700391
0.0709909
0.0719603
0.0729533
0.0739755
0.0750244
0.0761136
0.0772361
0.0784121
0.0796318
0.0809193
0.082265
0.0836945
0.0851989
0.0868027
0.0885025
0.090321
0.0922582
0.0943365
0.0965632
0.0989584
0.101536
0.104318
0.107319
0.11056
0.114062
0.117852
0.121964
0.126428
0.131237
0.136435
0.142064
0.148184
0.154834
0.162035
0.169798
0.17813
0.187034
0.196492
0.206512
0.217095
0.22821
0.239862
0.252194
0.265315
0.279198
0.293804
0.309523
0.325996
0.342818
0.36013
0.3795
0.403356
0.431254
0.453221
0.471482
0.507691
0.583095
0.615482
0.0765409
0.0774784
0.0784823
0.0795043
0.0805515
0.0816277
0.0827306
0.0838724
0.0850464
0.086272
0.0875402
0.0888749
0.0902668
0.0917422
0.0932926
0.094943
0.0966901
0.0985573
0.100545
0.102674
0.104954
0.107403
0.110037
0.112876
0.115935
0.119237
0.122802
0.126657
0.13084
0.135367
0.140264
0.145545
0.151276
0.157513
0.1643
0.171661
0.179612
0.188164
0.197325
0.207083
0.217446
0.228426
0.239996
0.252178
0.265123
0.278943
0.293611
0.309056
0.325657
0.342999
0.36062
0.378656
0.398725
0.423341
0.452086
0.474992
0.494431
0.532039
0.609782
0.640924
0.0839309
0.084916
0.0859705
0.0870426
0.0881399
0.0892663
0.09042
0.0916126
0.0928384
0.0941156
0.0954366
0.0968232
0.0982684
0.0997959
0.1014
0.103102
0.104902
0.106822
0.108863
0.111046
0.113381
0.115886
0.118578
0.121477
0.124599
0.127967
0.131599
0.135526
0.139781
0.144395
0.14937
0.154752
0.160593
0.166959
0.173896
0.181432
0.189587
0.198376
0.207813
0.217889
0.228617
0.240013
0.252059
0.264788
0.278362
0.292891
0.308355
0.324643
0.342129
0.360348
0.378768
0.397531
0.418321
0.443745
0.473358
0.497187
0.517673
0.556576
0.636876
0.666302
0.0914797
0.0925015
0.0935974
0.0947113
0.0958523
0.097023
0.0982219
0.0994593
0.10073
0.102052
0.103417
0.104848
0.106338
0.10791
0.10956
0.111309
0.113158
0.115128
0.117221
0.119457
0.121848
0.124411
0.127163
0.130124
0.133312
0.136748
0.140453
0.144456
0.148795
0.153487
0.158567
0.164052
0.170017
0.176522
0.183618
0.191339
0.199706
0.208741
0.218461
0.228864
0.239963
0.251781
0.264309
0.277588
0.29179
0.307026
0.323277
0.340397
0.358757
0.377843
0.397072
0.416585
0.438113
0.464336
0.494831
0.519628
0.541346
0.581449
0.663987
0.691152
0.0990608
0.100121
0.101258
0.102413
0.103594
0.104805
0.106045
0.107324
0.108638
0.110004
0.111415
0.112892
0.11443
0.116051
0.117751
0.11955
0.121451
0.123472
0.125619
0.12791
0.130357
0.132978
0.135791
0.138817
0.142072
0.14558
0.149362
0.153447
0.15787
0.162666
0.167839
0.173445
0.179541
0.186195
0.193463
0.201382
0.209976
0.219274
0.229296
0.240044
0.251535
0.263796
0.276824
0.290673
0.30552
0.321477
0.338529
0.356492
0.375734
0.395699
0.415739
0.436008
0.458295
0.48536
0.516752
0.542499
0.56533
0.606502
0.691517
0.715923
0.106784
0.107877
0.10905
0.110242
0.111462
0.112712
0.113992
0.11531
0.116663
0.118067
0.119517
0.121032
0.122609
0.12427
0.126011
0.127854
0.129799
0.131868
0.134064
0.136408
0.138911
0.14159
0.144465
0.147556
0.150881
0.154464
0.158327
0.162499
0.167019
0.171907
0.177201
0.182928
0.189163
0.195977
0.203426
0.211551
0.220381
0.229949
0.240281
0.251381
0.263271
0.275981
0.289516
0.303938
0.319433
0.33611
0.353957
0.372756
0.392874
0.413711
0.434572
0.455616
0.478674
0.506568
0.538871
0.56561
0.589743
0.631871
0.719063
0.740249
0.114557
0.115683
0.116893
0.118119
0.119374
0.120659
0.121974
0.123328
0.124718
0.12616
0.127649
0.129205
0.130824
0.132527
0.134313
0.1362
0.138193
0.140309
0.142556
0.144951
0.14751
0.150247
0.153185
0.156343
0.15974
0.163402
0.167349
0.171614
0.176229
0.181231
0.186633
0.192495
0.198879
0.205861
0.213502
0.221847
0.230928
0.240783
0.251442
0.262914
0.275222
0.288402
0.302465
0.31748
0.333641
0.351056
0.369715
0.389362
0.410369
0.432091
0.453779
0.475606
0.499455
0.528218
0.561441
0.589151
0.614488
0.657412
0.747077
0.76478
0.122501
0.123652
0.124891
0.126146
0.127431
0.128747
0.130093
0.131478
0.132899
0.134371
0.135891
0.137478
0.139129
0.140866
0.142687
0.144612
0.146645
0.148805
0.151098
0.153544
0.156156
0.158952
0.161953
0.165179
0.168651
0.172393
0.176428
0.180786
0.185506
0.190611
0.196147
0.202143
0.208685
0.215844
0.223686
0.232258
0.241599
0.251748
0.262743
0.274594
0.287327
0.300984
0.315581
0.331195
0.348025
0.366179
0.385648
0.40614
0.42803
0.450635
0.473161
0.495786
0.520434
0.550052
0.584206
0.612923
0.639656
0.683224
0.775094
0.789243
0.130454
0.131635
0.132905
0.13419
0.135505
0.13685
0.138226
0.139641
0.141095
0.142599
0.144154
0.145776
0.147465
0.149239
0.1511
0.153066
0.155142
0.157347
0.159688
0.162184
0.164851
0.167705
0.170769
0.174065
0.177611
0.181435
0.185558
0.190014
0.194838
0.200069
0.205724
0.21187
0.218575
0.22592
0.233973
0.242786
0.2524
0.26286
0.274208
0.286458
0.299637
0.313793
0.328946
0.34518
0.362699
0.38161
0.401908
0.423261
0.446052
0.469556
0.492925
0.516358
0.541825
0.572332
0.607424
0.637126
0.665159
0.709245
0.803196
0.814168
0.138518
0.139723
0.141021
0.142335
0.143681
0.145055
0.146463
0.147908
0.149391
0.150925
0.152509
0.15416
0.155878
0.157684
0.159578
0.161579
0.163693
0.16594
0.168326
0.170871
0.173591
0.176504
0.179631
0.182995
0.186618
0.190524
0.19474
0.199296
0.204233
0.209576
0.215376
0.22167
0.228547
0.236086
0.244358
0.25342
0.263315
0.274093
0.285802
0.298459
0.312092
0.326754
0.34247
0.35933
0.377544
0.397217
0.418343
0.440555
0.464244
0.488644
0.512868
0.537121
0.563409
0.594791
0.630831
0.661554
0.691053
0.735681
0.830841
0.839249
0.146592
0.147824
0.149152
0.150494
0.151867
0.15327
0.154705
0.156179
0.157692
0.159257
0.160873
0.162557
0.164311
0.166153
0.168086
0.170125
0.172282
0.174571
0.177005
0.179599
0.182374
0.185344
0.188535
0.191969
0.195669
0.199661
0.203969
0.20863
0.213677
0.219154
0.225083
0.231538
0.238593
0.246334
0.254836
0.264158
0.274349
0.285463
0.297552
0.310634
0.324743
0.339933
0.356235
0.373743
0.392674
0.413128
0.435105
0.458194
0.482799
0.508112
0.533199
0.558283
0.585414
0.6177
0.654691
0.686414
0.717269
0.762508
0.858838
0.865147
0.154807
0.156057
0.157408
0.158772
0.16017
0.161597
0.163058
0.164556
0.166094
0.167683
0.169324
0.171034
0.172814
0.174684
0.176647
0.17872
0.180914
0.183244
0.185721
0.188364
0.191192
0.194221
0.197477
0.200981
0.204759
0.208837
0.213241
0.218006
0.223173
0.22877
0.234854
0.241469
0.24871
0.256661
0.2654
0.274991
0.285485
0.296942
0.309418
0.322936
0.337528
0.353256
0.370153
0.388316
0.40797
0.429212
0.45204
0.476009
0.501528
0.527754
0.553714
0.579638
0.607611
0.640786
0.678738
0.711496
0.743847
0.789843
0.887105
0.891527
0.162988
0.164262
0.165639
0.167028
0.16845
0.1699
0.171386
0.172909
0.174474
0.17609
0.177762
0.179502
0.181316
0.18322
0.185221
0.187332
0.189567
0.19194
0.194464
0.197157
0.200039
0.203127
0.206448
0.210024
0.21388
0.218046
0.222548
0.227422
0.232706
0.238446
0.24467
0.251458
0.258891
0.26706
0.276046
0.285917
0.29673
0.308547
0.321429
0.335402
0.350501
0.366788
0.384303
0.403147
0.423547
0.445599
0.469303
0.494169
0.520624
0.547782
0.574625
0.6014
0.630235
0.664325
0.703237
0.737016
0.770746
0.817637
0.916218
0.918907
0.171255
0.172548
0.173947
0.175359
0.176806
0.178282
0.179793
0.181342
0.182932
0.184573
0.186269
0.188034
0.189874
0.191806
0.193836
0.19598
0.198251
0.200665
0.203233
0.205975
0.208911
0.212058
0.215444
0.219092
0.223029
0.227284
0.231887
0.236872
0.242283
0.248152
0.254541
0.2615
0.269132
0.277525
0.286766
0.296926
0.308064
0.32025
0.333547
0.347985
0.363599
0.380457
0.3986
0.418132
0.439288
0.462157
0.48674
0.512508
0.539898
0.567987
0.595722
0.623354
0.653047
0.688038
0.72792
0.762754
0.797992
0.845964
0.945811
0.946872
0.179506
0.18082
0.182243
0.183678
0.185148
0.186646
0.188181
0.189753
0.191369
0.193037
0.194762
0.196556
0.198429
0.200394
0.202461
0.204642
0.206953
0.209408
0.212023
0.214814
0.217804
0.221011
0.224462
0.228184
0.232203
0.23655
0.241254
0.246354
0.251889
0.257907
0.264444
0.271588
0.279423
0.288049
0.297555
0.308016
0.319495
0.332066
0.345799
0.360722
0.376874
0.394327
0.413123
0.433369
0.455305
0.479016
0.504504
0.531194
0.559541
0.588581
0.617218
0.645723
0.676293
0.712206
0.753053
0.788935
0.825575
0.874791
0.976345
0.975913
0.18788
0.189208
0.190649
0.192101
0.193591
0.195109
0.196666
0.198258
0.199895
0.201584
0.20333
0.205147
0.207043
0.209033
0.211128
0.213339
0.215685
0.218179
0.220837
0.223675
0.226719
0.229984
0.233502
0.237298
0.241399
0.245838
0.250646
0.25586
0.261526
0.267679
0.27439
0.281714
0.289762
0.298627
0.308405
0.319175
0.331003
0.343969
0.358146
0.373565
0.390267
0.408325
0.427786
0.448758
0.471484
0.496045
0.522444
0.550062
0.579366
0.609359
0.638906
0.668286
0.699724
0.736545
0.778367
0.815331
0.853497
0.90415
1.00743
1.00562
0.196225
0.197573
0.199035
0.200509
0.202019
0.203557
0.205135
0.206749
0.208409
0.210122
0.211894
0.213738
0.215663
0.217684
0.219811
0.222056
0.224439
0.226972
0.229673
0.232558
0.235655
0.238978
0.242561
0.246429
0.250611
0.255143
0.260053
0.265384
0.271178
0.277488
0.284355
0.291874
0.300139
0.309252
0.319312
0.330403
0.342596
0.355974
0.370615
0.386553
0.403828
0.422517
0.442669
0.464392
0.487936
0.513374
0.540712
0.569281
0.599565
0.630531
0.661
0.69127
0.723598
0.761341
0.804131
0.842173
0.881766
0.934019
1.03953
1.03648
0.204662
0.206027
0.20751
0.209004
0.210537
0.212098
0.213698
0.215333
0.217014
0.218746
0.220538
0.222401
0.224347
0.226389
0.228541
0.230813
0.233226
0.235794
0.238533
0.241463
0.244609
0.247987
0.251633
0.255573
0.259835
0.264458
0.269473
0.274922
0.280851
0.287303
0.294351
0.302061
0.310548
0.319916
0.330266
0.341687
0.354254
0.368054
0.383169
0.399637
0.417497
0.43683
0.457686
0.480174
0.504547
0.530874
0.559158
0.588684
0.61995
0.651891
0.683288
0.714447
0.747651
0.786304
0.830071
0.869223
0.910362
0.964391
1.07227
1.06809
0.213197
0.214579
0.21608
0.217588
0.219133
0.220704
0.222314
0.223959
0.225651
0.227396
0.229204
0.231083
0.23305
0.235114
0.237291
0.23959
0.242035
0.244635
0.247412
0.250383
0.253576
0.257008
0.260715
0.264724
0.269066
0.27378
0.278899
0.284466
0.290528
0.29714
0.304352
0.312265
0.320981
0.330611
0.341263
0.353027
0.365983
0.380224
0.395835
0.412856
0.431327
0.451329
0.472917
0.496198
0.521431
0.548673
0.577933
0.608439
0.640713
0.673647
0.705987
0.738051
0.772153
0.811725
0.856458
0.896718
0.93932
0.99526
1.10609
1.10095
0.221939
0.223308
0.2248
0.226299
0.227837
0.229404
0.231012
0.232659
0.234355
0.236106
0.237923
0.239814
0.241794
0.243875
0.246071
0.248392
0.250862
0.253492
0.256303
0.259312
0.26255
0.266033
0.269799
0.273876
0.278297
0.283101
0.288323
0.294009
0.300208
0.306966
0.314367
0.32248
0.331432
0.341332
0.352293
0.364409
0.377764
0.392456
0.408575
0.426162
0.445256
0.465942
0.488276
0.512366
0.538473
0.566644
0.596887
0.628383
0.661667
0.695599
0.728885
0.761849
0.796833
0.83731
0.883017
0.924415
0.968591
1.02658
1.14065
1.13471
0.230224
0.231634
0.233171
0.234715
0.236297
0.237904
0.23955
0.24123
0.242959
0.24474
0.246586
0.248505
0.250514
0.252621
0.254845
0.257193
0.259692
0.262352
0.265197
0.268244
0.271524
0.275056
0.278878
0.283021
0.287518
0.292411
0.297737
0.303542
0.309876
0.316801
0.324372
0.3327
0.341893
0.352071
0.363351
0.375833
0.389604
0.404768
0.421416
0.439593
0.459337
0.480734
0.503843
0.528771
0.555788
0.584914
0.616174
0.648685
0.683003
0.717952
0.752199
0.786083
0.821967
0.863354
0.910019
0.952553
0.998227
1.05835
1.1764
1.16991
0.239253
0.240624
0.242125
0.243631
0.24518
0.246757
0.248379
0.250041
0.251757
0.25353
0.255373
0.257292
0.259305
0.261421
0.263656
0.266019
0.268537
0.27122
0.274092
0.277171
0.280491
0.284069
0.287946
0.292152
0.296725
0.301706
0.307135
0.313061
0.319536
0.326613
0.33438
0.342916
0.352356
0.36282
0.374428
0.387286
0.401483
0.417129
0.43432
0.453101
0.47351
0.495635
0.519532
0.545319
0.573259
0.603359
0.635638
0.669177
0.704537
0.740504
0.775715
0.810509
0.847276
0.889557
0.937186
0.980882
1.02816
1.09048
1.21303
1.20626
0.247808
0.249214
0.250749
0.252287
0.253861
0.255459
0.257097
0.258771
0.260496
0.262277
0.264129
0.266057
0.268081
0.270209
0.272459
0.274838
0.277375
0.28008
0.282979
0.286088
0.289445
0.293066
0.296995
0.301265
0.305911
0.310981
0.316513
0.32256
0.329173
0.336419
0.344362
0.35312
0.362813
0.37357
0.385519
0.398767
0.413407
0.429557
0.447313
0.466725
0.487826
0.510709
0.535425
0.562105
0.591001
0.622109
0.65543
0.690037
0.726458
0.763462
0.799651
0.835376
0.873042
0.916218
0.964788
1.00964
1.05846
1.12299
1.251
1.24438
0.256873
0.258249
0.259757
0.261265
0.262814
0.264387
0.266005
0.267659
0.269369
0.271136
0.272977
0.274896
0.276913
0.279038
0.281288
0.283672
0.286218
0.288937
0.291856
0.294992
0.298381
0.302044
0.306024
0.310354
0.315073
0.320229
0.325864
0.332029
0.338784
0.346184
0.354329
0.363304
0.373257
0.384316
0.396613
0.41026
0.425356
0.442021
0.460358
0.480415
0.502227
0.525884
0.551438
0.579033
0.608901
0.641034
0.675399
0.711093
0.748584
0.786626
0.823794
0.860439
0.898982
0.943035
0.992548
1.03858
1.08903
1.15573
1.29005
1.2841
0.26538
0.266797
0.268346
0.269893
0.271477
0.273079
0.27472
0.276393
0.278118
0.279896
0.281746
0.283672
0.285698
0.287829
0.290088
0.292481
0.295039
0.297774
0.300712
0.303872
0.307293
0.310994
0.315022
0.31941
0.3242
0.32944
0.335175
0.34146
0.348352
0.355927
0.364253
0.373459
0.383678
0.395047
0.407705
0.421767
0.437337
0.454539
0.473481
0.494211
0.516763
0.541227
0.567653
0.596196
0.627072
0.66026
0.695695
0.732514
0.771103
0.810201
0.848366
0.88595
0.925385
0.97031
1.02074
1.06794
1.11999
1.18874
1.33085
1.32603
0.274427
0.275812
0.277333
0.278849
0.280405
0.281982
0.283602
0.285255
0.286965
0.288729
0.290567
0.292483
0.294501
0.296627
0.298883
0.301278
0.303841
0.306586
0.309539
0.312721
0.31617
0.319907
0.32398
0.328424
0.333282
0.338605
0.344439
0.350843
0.357879
0.36561
0.374143
0.383576
0.394067
0.405755
0.418783
0.433272
0.449327
0.467081
0.486642
0.508063
0.531373
0.556664
0.583984
0.613499
0.645395
0.67966
0.716168
0.754132
0.79383
0.833987
0.873146
0.911655
0.951956
0.997733
1.04907
1.09746
1.15119
1.22182
1.37342
1.36933
0.282852
0.284277
0.285839
0.287394
0.288985
0.290592
0.292237
0.29391
0.295636
0.297412
0.299262
0.301187
0.303214
0.305347
0.307613
0.310016
0.312591
0.315349
0.318319
0.321522
0.324998
0.32877
0.332886
0.337384
0.342308
0.347713
0.353646
0.360168
0.367343
0.37525
0.383972
0.393645
0.404416
0.416432
0.429844
0.444775
0.461334
0.479662
0.499869
0.522007
0.546107
0.57226
0.600513
0.631033
0.663985
0.699359
0.736965
0.776119
0.816954
0.858187
0.89836
0.937814
0.978996
1.02561
1.07783
1.12739
1.18278
1.2553
1.41771
1.41343
0.291781
0.293173
0.294706
0.29623
0.297795
0.299377
0.301002
0.302658
0.304371
0.306135
0.307976
0.309893
0.311913
0.314043
0.316307
0.318712
0.321292
0.324059
0.327042
0.330264
0.333766
0.33757
0.341727
0.346278
0.351267
0.356752
0.362783
0.369422
0.376741
0.384811
0.393746
0.403658
0.414718
0.427072
0.440876
0.456259
0.473336
0.492251
0.51312
0.535994
0.560905
0.587941
0.617149
0.648697
0.682724
0.719227
0.757945
0.798308
0.840292
0.882604
0.923788
0.96417
1.0062
1.05363
1.10672
1.15745
1.21459
1.28918
1.46206
1.45706
0.300117
0.301547
0.30312
0.304681
0.306279
0.30789
0.309539
0.311213
0.31294
0.314715
0.316565
0.318488
0.320516
0.322651
0.324922
0.327333
0.329921
0.332698
0.335695
0.338935
0.34246
0.346294
0.350491
0.355093
0.360145
0.365708
0.371835
0.378594
0.386055
0.394307
0.403441
0.413608
0.424964
0.437666
0.451876
0.467727
0.48534
0.504866
0.526422
0.550063
0.575817
0.603772
0.633971
0.666586
0.701721
0.739397
0.779251
0.820869
0.864029
0.907442
0.949657
0.990988
1.03388
1.08211
1.13602
1.1879
1.24676
1.32376
1.5061
1.50049
0.309016
0.310409
0.311947