/*--------------------------------*- C++ -*----------------------------------*\
  =========                 |
  \\      /  F ield         | OpenFOAM: The Open Source CFD Toolbox
   \\    /   O peration     | Website:  https://openfoam.org
    \\  /    A nd           | Version:  6.0
     \\/     M anipulation  |
\*---------------------------------------------------------------------------*/
FoamFile
{
    version     2.0;
    format      ascii;
    class       volVectorField;
    location    "0.4";
    object      U;
}
// * * * * * * * * * * * * * * * * * * * * * * * * * * * * * * * * * * * * * //

dimensions      [0 1 -1 0 0 0 0];

internalField   nonuniform List<vector> 
800
(
(0.000159211 -0.000159516 0)
(0.000388744 -0.00013524 0)
(0.000354919 -8.62695e-06 0)
(-1.88365e-05 0.000112111 0)
(-0.000681997 0.000199389 0)
(-0.00154976 0.000254107 0)
(-0.0025535 0.000286477 0)
(-0.00365275 0.000308146 0)
(-0.0048341 0.000328753 0)
(-0.00610579 0.000355196 0)
(-0.00749181 0.000392146 0)
(-0.00902718 0.000442835 0)
(-0.0107548 0.000509777 0)
(-0.0127237 0.000595278 0)
(-0.0149878 0.000701693 0)
(-0.0176044 0.000831404 0)
(-0.0206327 0.0009865 0)
(-0.02413 0.00116816 0)
(-0.028146 0.00137572 0)
(-0.0327143 0.00160534 0)
(-0.037841 0.0018484 0)
(-0.0434899 0.00208962 0)
(-0.0495645 0.00230524 0)
(-0.0558895 0.00246174 0)
(-0.0621945 0.00251593 0)
(-0.0681032 0.00241746 0)
(-0.0731359 0.00211473 0)
(-0.0767316 0.00156526 0)
(-0.0782957 0.000750069 0)
(-0.0772784 -0.000309467 0)
(-0.0732814 -0.00153636 0)
(-0.0661813 -0.00279098 0)
(-0.0562466 -0.00387956 0)
(-0.0442102 -0.00458488 0)
(-0.0312556 -0.00471963 0)
(-0.018879 -0.00419163 0)
(-0.008622 -0.00305607 0)
(-0.00172147 -0.00152647 0)
(0.00127052 2.33254e-05 0)
(0.000887167 0.000834216 0)
(0.000143335 -0.000402565 0)
(0.000113238 -0.000120095 0)
(-0.000631036 0.000494882 0)
(-0.00213557 0.00108765 0)
(-0.00429068 0.00155137 0)
(-0.00694655 0.00188121 0)
(-0.00997509 0.00211415 0)
(-0.0132969 0.00229865 0)
(-0.0168858 0.00247904 0)
(-0.0207624 0.0026902 0)
(-0.0249838 0.00295773 0)
(-0.029634 0.00330007 0)
(-0.0348166 0.00373088 0)
(-0.0406481 0.00426058 0)
(-0.0472529 0.00489685 0)
(-0.0547558 0.00564365 0)
(-0.0632736 0.00649905 0)
(-0.0729012 0.00745162 0)
(-0.0836944 0.00847578 0)
(-0.0956462 0.00952618 0)
(-0.108659 0.0105319 0)
(-0.122514 0.0113915 0)
(-0.13684 0.0119709 0)
(-0.151093 0.0121056 0)
(-0.164545 0.0116111 0)
(-0.1763 0.0103023 0)
(-0.185335 0.00802426 0)
(-0.190576 0.00469274 0)
(-0.191008 0.000341174 0)
(-0.185812 -0.00483358 0)
(-0.174525 -0.0104379 0)
(-0.157197 -0.0158761 0)
(-0.13454 -0.0203924 0)
(-0.108005 -0.0231772 0)
(-0.0797664 -0.0235455 0)
(-0.0525303 -0.0211638 0)
(-0.0291312 -0.0162568 0)
(-0.0119305 -0.00969279 0)
(-0.00221445 -0.00297558 0)
(0.000346099 0.00134864 0)
(-6.84637e-06 -0.000364284 0)
(-0.000654237 0.000660096 0)
(-0.00253761 0.00219862 0)
(-0.00552223 0.00364869 0)
(-0.00940166 0.00481405 0)
(-0.01398 0.0056863 0)
(-0.0190981 0.0063443 0)
(-0.02466 0.00689551 0)
(-0.0306394 0.0074425 0)
(-0.0370704 0.0080694 0)
(-0.0440357 0.00884003 0)
(-0.0516532 0.00980081 0)
(-0.0600655 0.0109845 0)
(-0.0694291 0.0124125 0)
(-0.0799033 0.0140941 0)
(-0.0916372 0.0160235 0)
(-0.104752 0.0181733 0)
(-0.119319 0.0204855 0)
(-0.135333 0.0228613 0)
(-0.152679 0.0251505 0)
(-0.1711 0.0271436 0)
(-0.190167 0.0285689 0)
(-0.209257 0.0290999 0)
(-0.227555 0.0283741 0)
(-0.244069 0.0260278 0)
(-0.257675 0.021745 0)
(-0.267194 0.015319 0)
(-0.271477 0.00672015 0)
(-0.269515 -0.00383505 0)
(-0.260552 -0.015824 0)
(-0.244212 -0.0283777 0)
(-0.220628 -0.0402802 0)
(-0.190585 -0.0500366 0)
(-0.155632 -0.0560459 0)
(-0.118143 -0.0569118 0)
(-0.081225 -0.0518797 0)
(-0.048355 -0.0412996 0)
(-0.0227067 -0.0269003 0)
(-0.00651168 -0.011763 0)
(-0.000494705 -0.000471292 0)
(-0.000206993 0.000153972 0)
(-0.00165667 0.00252456 0)
(-0.00496217 0.00538311 0)
(-0.00969351 0.00796129 0)
(-0.0154937 0.0100225 0)
(-0.0221085 0.0115874 0)
(-0.0293504 0.0127996 0)
(-0.0371139 0.0138426 0)
(-0.0453769 0.0148898 0)
(-0.0541862 0.0160848 0)
(-0.0636415 0.0175365 0)
(-0.0738804 0.0193231 0)
(-0.0850634 0.0214963 0)
(-0.0973594 0.0240831 0)
(-0.11093 0.0270834 0)
(-0.125911 0.0304627 0)
(-0.142386 0.0341413 0)
(-0.160364 0.0379799 0)
(-0.179745 0.0417664 0)
(-0.20029 0.0452036 0)
(-0.221598 0.0479068 0)
(-0.243087 0.0494117 0)
(-0.264003 0.0491995 0)
(-0.283433 0.0467387 0)
(-0.300353 0.0415434 0)
(-0.313685 0.0332423 0)
(-0.322358 0.0216535 0)
(-0.325372 0.0068585 0)
(-0.321857 -0.0107259 0)
(-0.311132 -0.0302816 0)
(-0.292781 -0.0505357 0)
(-0.266755 -0.0697362 0)
(-0.233524 -0.0857 0)
(-0.194276 -0.095995 0)
(-0.151121 -0.0983355 0)
(-0.107192 -0.0912345 0)
(-0.0664432 -0.0748149 0)
(-0.0330039 -0.0514416 0)
(-0.0104848 -0.0257757 0)
(-0.00118521 -0.00446677 0)
(-0.000431125 0.00125058 0)
(-0.00279294 0.00567467 0)
(-0.00770505 0.0102604 0)
(-0.0143593 0.0141864 0)
(-0.0221999 0.017256 0)
(-0.0308943 0.019573 0)
(-0.0402188 0.021379 0)
(-0.0500563 0.0229515 0)
(-0.0603862 0.0245445 0)
(-0.071262 0.0263642 0)
(-0.0827904 0.0285651 0)
(-0.0951124 0.0312543 0)
(-0.108386 0.0344963 0)
(-0.12277 0.0383133 0)
(-0.138401 0.0426803 0)
(-0.155375 0.0475145 0)
(-0.173718 0.0526603 0)
(-0.193365 0.0578739 0)
(-0.214129 0.0628098 0)
(-0.235682 0.0670154 0)
(-0.257549 0.0699395 0)
(-0.279109 0.0709566 0)
(-0.299621 0.0694105 0)
(-0.318256 0.0646737 0)
(-0.334144 0.0562148 0)
(-0.346416 0.0436694 0)
(-0.354237 0.0269069 0)
(-0.356816 0.00609364 0)
(-0.353414 -0.0182403 0)
(-0.343342 -0.0451258 0)
(-0.325993 -0.0730668 0)
(-0.300926 -0.0999584 0)
(-0.268028 -0.123057 0)
(-0.227801 -0.139095 0)
(-0.181735 -0.144685 0)
(-0.132671 -0.13715 0)
(-0.084901 -0.115761 0)
(-0.0436863 -0.0829788 0)
(-0.0145295 -0.0448807 0)
(-0.00183363 -0.0104251 0)
(-0.000671434 0.00297725 0)
(-0.0040173 0.0102348 0)
(-0.0106513 0.0169719 0)
(-0.0193241 0.0224352 0)
(-0.0292414 0.0265641 0)
(-0.0399723 0.0296137 0)
(-0.0512463 0.0319651 0)
(-0.0629275 0.0340114 0)
(-0.0749906 0.0360952 0)
(-0.0874872 0.0384864 0)
(-0.100519 0.0413814 0)
(-0.114217 0.04491 0)
(-0.12872 0.0491406 0)
(-0.144159 0.054079 0)
(-0.160633 0.0596622 0)
(-0.178189 0.0657449 0)
(-0.196801 0.0720843 0)
(-0.216344 0.0783266 0)
(-0.236585 0.0839996 0)
(-0.257175 0.0885179 0)
(-0.277655 0.0912048 0)
(-0.297477 0.0913324 0)
(-0.316034 0.0881768 0)
(-0.332699 0.0810819 0)
(-0.346852 0.0695224 0)
(-0.357896 0.0531591 0)
(-0.365255 0.0318863 0)
(-0.368343 0.00587782 0)
(-0.366521 -0.0243524 0)
(-0.359057 -0.0578587 0)
(-0.345117 -0.0931308 0)
(-0.323803 -0.127928 0)
(-0.294315 -0.159125 0)
(-0.256262 -0.182684 0)
(-0.210183 -0.193948 0)
(-0.158201 -0.188529 0)
(-0.10456 -0.163987 0)
(-0.0555976 -0.121967 0)
(-0.0191905 -0.0695612 0)
(-0.00260698 -0.0184798 0)
(-0.00092635 0.00537164 0)
(-0.00530964 0.0162844 0)
(-0.0137353 0.0255916 0)
(-0.024458 0.0327358 0)
(-0.036411 0.0379032 0)
(-0.0490488 0.0415787 0)
(-0.0620449 0.0443304 0)
(-0.0752381 0.04669 0)
(-0.0885912 0.0490964 0)
(-0.102146 0.0518824 0)
(-0.11599 0.0552811 0)
(-0.130233 0.059438 0)
(-0.144988 0.0644168 0)
(-0.160352 0.0701992 0)
(-0.176385 0.0766769 0)
(-0.193098 0.0836388 0)
(-0.210429 0.0907586 0)
(-0.228234 0.0975865 0)
(-0.246289 0.103551 0)
(-0.264288 0.107975 0)
(-0.281866 0.11011 0)
(-0.298622 0.109188 0)
(-0.314153 0.104474 0)
(-0.328074 0.0953273 0)
(-0.340032 0.0812495 0)
(-0.3497 0.0619165 0)
(-0.356741 0.0372031 0)
(-0.360763 0.00721178 0)
(-0.361242 -0.0276741 0)
(-0.357457 -0.0666868 0)
(-0.348431 -0.108501 0)
(-0.332913 -0.150983 0)
(-0.309468 -0.190894 0)
(-0.27675 -0.223638 0)
(-0.23407 -0.243298 0)
(-0.182308 -0.243368 0)
(-0.124972 -0.218699 0)
(-0.0689776 -0.168716 0)
(-0.0248166 -0.100564 0)
(-0.00363248 -0.0290538 0)
(-0.00119818 0.00846823 0)
(-0.00666858 0.0238802 0)
(-0.0169319 0.036147 0)
(-0.0296888 0.0450498 0)
(-0.0435697 0.0511475 0)
(-0.0579044 0.0552442 0)
(-0.0723071 0.0581464 0)
(-0.0865886 0.0605485 0)
(-0.100697 0.0629928 0)
(-0.114661 0.0658731 0)
(-0.128548 0.0694545 0)
(-0.142447 0.0738922 0)
(-0.156443 0.0792408 0)
(-0.170605 0.0854552 0)
(-0.184968 0.0923833 0)
(-0.199524 0.0997561 0)
(-0.214208 0.10718 0)
(-0.228902 0.114136 0)
(-0.243431 0.119989 0)
(-0.257588 0.124017 0)
(-0.271143 0.125451 0)
(-0.283877 0.123525 0)
(-0.295598 0.117532 0)
(-0.306156 0.106868 0)
(-0.315436 0.0910628 0)
(-0.323344 0.0697919 0)
(-0.329761 0.0428799 0)
(-0.334486 0.0103111 0)
(-0.337164 -0.0277285 0)
(-0.337188 -0.0707521 0)
(-0.333605 -0.117782 0)
(-0.325022 -0.167043 0)
(-0.309573 -0.215525 0)
(-0.285066 -0.258468 0)
(-0.249475 -0.288997 0)
(-0.201964 -0.298391 0)
(-0.144423 -0.277886 0)
(-0.0833371 -0.222852 0)
(-0.0315062 -0.138573 0)
(-0.00499519 -0.0427153 0)
(-0.00149424 0.0123073 0)
(-0.00811432 0.0330753 0)
(-0.0202595 0.0486403 0)
(-0.0350039 0.059289 0)
(-0.0506474 0.0661031 0)
(-0.0663945 0.0703069 0)
(-0.0818063 0.0730011 0)
(-0.0966728 0.0750667 0)
(-0.110932 0.0771553 0)
(-0.124603 0.0797202 0)
(-0.137739 0.0830545 0)
(-0.15041 0.0873201 0)
(-0.162684 0.092562 0)
(-0.174615 0.0987118 0)
(-0.186231 0.105582 0)
(-0.197531 0.112863 0)
(-0.208478 0.120116 0)
(-0.219007 0.126782 0)
(-0.229032 0.132202 0)
(-0.238463 0.135646 0)
(-0.247224 0.136358 0)
(-0.255271 0.133605 0)
(-0.262604 0.126723 0)
(-0.269271 0.115152 0)
(-0.275352 0.0984457 0)
(-0.280944 0.076272 0)
(-0.286117 0.0483985 0)
(-0.290866 0.0146871 0)
(-0.295043 -0.0248854 0)
(-0.298259 -0.0701506 0)
(-0.299758 -0.120577 0)
(-0.29825 -0.174954 0)
(-0.291752 -0.230861 0)
(-0.277525 -0.283914 0)
(-0.252357 -0.326889 0)
(-0.213463 -0.34923 0)
(-0.160295 -0.338105 0)
(-0.0975202 -0.282866 0)
(-0.0391294 -0.183861 0)
(-0.00675386 -0.0600545 0)
(-0.00183087 0.0169488 0)
(-0.00969912 0.0439433 0)
(-0.0237924 0.0630672 0)
(-0.0404587 0.0753266 0)
(-0.0576425 0.0825124 0)
(-0.0744384 0.0863873 0)
(-0.0903779 0.0884056 0)
(-0.105251 0.0896574 0)
(-0.119002 0.0909079 0)
(-0.131654 0.0926671 0)
(-0.143258 0.0952526 0)
(-0.153881 0.0988318 0)
(-0.163586 0.103443 0)
(-0.172427 0.109003 0)
(-0.180445 0.115301 0)
(-0.187667 0.122005 0)
(-0.194106 0.128657 0)
(-0.199769 0.134688 0)
(-0.204671 0.13944 0)
(-0.208846 0.142204 0)
(-0.212361 0.142259 0)
(-0.215329 0.138917 0)
(-0.217908 0.131563 0)
(-0.220302 0.119675 0)
(-0.222745 0.102829 0)
(-0.225482 0.080688 0)
(-0.228742 0.0529745 0)
(-0.2327 0.0194522 0)
(-0.237422 -0.0200779 0)
(-0.242787 -0.0657395 0)
(-0.248349 -0.11746 0)
(-0.253139 -0.1747 0)
(-0.255392 -0.235919 0)
(-0.252272 -0.297662 0)
(-0.239805 -0.353201 0)
(-0.213421 -0.391063 0)
(-0.169641 -0.394661 0)
(-0.109879 -0.345835 0)
(-0.0473651 -0.235983 0)
(-0.00895881 -0.0816014 0)
(-0.00224128 0.0224956 0)
(-0.011527 0.0566084 0)
(-0.0276817 0.0794334 0)
(-0.0461856 0.0929965 0)
(-0.0646109 0.100044 0)
(-0.0819873 0.103018 0)
(-0.0978655 0.103788 0)
(-0.112076 0.10367 0)
(-0.124603 0.103543 0)
(-0.135496 0.103967 0)
(-0.144829 0.105279 0)
(-0.152678 0.107651 0)
(-0.15912 0.111117 0)
(-0.164225 0.115586 0)
(-0.168059 0.120841 0)
(-0.170687 0.126544 0)
(-0.172182 0.132238 0)
(-0.17263 0.137367 0)
(-0.172141 0.141298 0)
(-0.170863 0.143358 0)
(-0.168988 0.14287 0)
(-0.166755 0.139196 0)
(-0.16445 0.131765 0)
(-0.162398 0.12009 0)
(-0.160948 0.103767 0)
(-0.160461 0.0824565 0)
(-0.161288 0.0558551 0)
(-0.16375 0.0236637 0)
(-0.168103 -0.0144384 0)
(-0.174476 -0.0587957 0)
(-0.182768 -0.109724 0)
(-0.192448 -0.16733 0)
(-0.20225 -0.23108 0)
(-0.209715 -0.298872 0)
(-0.21075 -0.365367 0)
(-0.19957 -0.419518 0)
(-0.169806 -0.442234 0)
(-0.118529 -0.407465 0)
(-0.0557422 -0.293516 0)
(-0.0116695 -0.107791 0)
(-0.00279098 0.0291345 0)
(-0.0137883 0.0712865 0)
(-0.0321862 0.0977618 0)
(-0.0523956 0.112071 0)
(-0.0716289 0.118257 0)
(-0.0889455 0.119606 0)
(-0.104004 0.11846 0)
(-0.116743 0.116369 0)
(-0.127234 0.114312 0)
(-0.135595 0.112886 0)
(-0.141942 0.112437 0)
(-0.146387 0.113134 0)
(-0.149032 0.115009 0)
(-0.14997 0.117967 0)
(-0.149298 0.121794 0)
(-0.147121 0.126161 0)
(-0.143563 0.130631 0)
(-0.138778 0.134676 0)
(-0.132957 0.137702 0)
(-0.126339 0.139082 0)
(-0.119214 0.138189 0)
(-0.111921 0.134432 0)
(-0.104841 0.12728 0)
(-0.0983896 0.116276 0)
(-0.0930048 0.101032 0)
(-0.0891331 0.0812104 0)
(-0.087219 0.0564961 0)
(-0.0876928 0.0265569 0)
(-0.0909526 -0.00899539 0)
(-0.0973312 -0.0506397 0)
(-0.107029 -0.0989562 0)
(-0.119971 -0.154561 0)
(-0.135528 -0.217842 0)
(-0.152003 -0.288222 0)
(-0.165875 -0.36246 0)
(-0.17103 -0.431447 0)
(-0.158842 -0.475686 0)
(-0.12162 -0.462461 0)
(-0.0636701 -0.35391 0)
(-0.01497 -0.138969 0)
(-0.00360883 0.0372113 0)
(-0.0168203 0.0883385 0)
(-0.0377108 0.118074 0)
(-0.0593555 0.13219 0)
(-0.0786931 0.136505 0)
(-0.094999 0.135337 0)
(-0.108185 0.131536 0)
(-0.118395 0.126864 0)
(-0.125859 0.122372 0)
(-0.130804 0.118664 0)
(-0.133424 0.116074 0)
(-0.133882 0.114753 0)
(-0.132312 0.114722 0)
(-0.128833 0.115881 0)
(-0.123565 0.118025 0)
(-0.116636 0.120842 0)
(-0.108206 0.123925 0)
(-0.0984686 0.126787 0)
(-0.0876687 0.128883 0)
(-0.0761051 0.129637 0)
(-0.0641317 0.128476 0)
(-0.0521544 0.124855 0)
(-0.0406221 0.118282 0)
(-0.0300161 0.108324 0)
(-0.0208384 0.0946079 0)
(-0.0136012 0.0768009 0)
(-0.00881944 0.0545838 0)
(-0.0070053 0.0276122 0)
(-0.00866265 -0.00452827 0)
(-0.0142764 -0.0423746 0)
(-0.0242846 -0.0866397 0)
(-0.0390038 -0.138246 0)
(-0.0584378 -0.198261 0)
(-0.081836 -0.267486 0)
(-0.106814 -0.345104 0)
(-0.127946 -0.425275 0)
(-0.135503 -0.490732 0)
(-0.11743 -0.505026 0)
(-0.0703989 -0.413387 0)
(-0.0189615 -0.175385 0)
(-0.00494984 0.0473721 0)
(-0.0212127 0.108327 0)
(-0.0448384 0.140298 0)
(-0.067277 0.152689 0)
(-0.0854643 0.153752 0)
(-0.099234 0.149002 0)
(-0.108972 0.141776 0)
(-0.115164 0.133984 0)
(-0.118276 0.12668 0)
(-0.118696 0.120428 0)
(-0.116719 0.115506 0)
(-0.112566 0.112025 0)
(-0.106404 0.109973 0)
(-0.0983653 0.109239 0)
(-0.0885697 0.109619 0)
(-0.0771472 0.110822 0)
(-0.0642552 0.112478 0)
(-0.0500949 0.114147 0)
(-0.0349226 0.11534 0)
(-0.019056 0.115541 0)
(-0.00287431 0.114231 0)
(0.013186 0.110918 0)
(0.028641 0.105145 0)
(0.0429701 0.0965083 0)
(0.0556277 0.0846507 0)
(0.0660522 0.0692476 0)
(0.0736715 0.049984 0)
(0.0779045 0.0265185 0)
(0.0781583 -0.00156041 0)
(0.0738245 -0.0347912 0)
(0.0642785 -0.0739121 0)
(0.0488974 -0.119956 0)
(0.0271456 -0.17435 0)
(-0.00114611 -0.238882 0)
(-0.0350204 -0.314989 0)
(-0.0706571 -0.400903 0)
(-0.0987349 -0.484264 0)
(-0.104115 -0.52932 0)
(-0.07478 -0.466855 0)
(-0.0236646 -0.217054 0)
(-0.00731327 0.0608323 0)
(-0.0279647 0.132041 0)
(-0.0542619 0.164013 0)
(-0.0759207 0.172236 0)
(-0.0905875 0.168209 0)
(-0.0992555 0.158684 0)
(-0.103094 0.147333 0)
(-0.103082 0.136069 0)
(-0.0999998 0.125832 0)
(-0.0944229 0.117058 0)
(-0.08675 0.109913 0)
(-0.0772474 0.104422 0)
(-0.0660885 0.100513 0)
(-0.0533882 0.0980437 0)
(-0.0392349 0.0968043 0)
(-0.0237183 0.0965209 0)
(-0.00695394 0.0968592 0)
(0.0108969 0.0974318 0)
(0.0296128 0.0978114 0)
(0.0489044 0.0975478 0)
(0.0684121 0.0961872 0)
(0.0877103 0.0932912 0)
(0.106316 0.0884518 0)
(0.123697 0.0812987 0)
(0.139289 0.0714991 0)
(0.152494 0.058747 0)
(0.162694 0.0427436 0)
(0.169242 0.0231673 0)
(0.171458 -0.000365244 0)
(0.168618 -0.0283526 0)
(0.159933 -0.0614839 0)
(0.144537 -0.100756 0)
(0.121488 -0.147666 0)
(0.0898722 -0.204482 0)
(0.049256 -0.274284 0)
(0.00126387 -0.359376 0)
(-0.0468336 -0.454443 0)
(-0.0789901 -0.529828 0)
(-0.0746349 -0.507975 0)
(-0.0286441 -0.263476 0)
(-0.0116142 0.0799262 0)
(-0.0385778 0.160345 0)
(-0.0662026 0.187806 0)
(-0.0832527 0.188114 0)
(-0.089841 0.176723 0)
(-0.0890825 0.161288 0)
(-0.0832622 0.145429 0)
(-0.0739541 0.130767 0)
(-0.0622534 0.117939 0)
(-0.0488748 0.107124 0)
(-0.0342537 0.0982978 0)
(-0.0186333 0.0913437 0)
(-0.00212997 0.0860999 0)
(0.0152171 0.082371 0)
(0.0334049 0.0799296 0)
(0.0524334 0.0785135 0)
(0.0722764 0.0778243 0)
(0.0928597 0.0775297 0)
(0.114043 0.0772702 0)
(0.135612 0.0766693 0)
(0.15727 0.0753472 0)
(0.178642 0.0729337 0)
(0.199284 0.0690801 0)
(0.218686 0.0634654 0)
(0.236283 0.0557973 0)
(0.251466 0.0458048 0)
(0.26358 0.0332243 0)
(0.271921 0.0177759 0)
(0.275729 -0.00086844 0)
(0.274166 -0.0231312 0)
(0.266294 -0.0495988 0)
(0.251039 -0.0811378 0)
(0.227153 -0.119114 0)
(0.193192 -0.165812 0)
(0.147621 -0.225092 0)
(0.0897793 -0.302449 0)
(0.0234519 -0.400576 0)
(-0.0374762 -0.501558 0)
(-0.0656133 -0.529392 0)
(-0.031984 -0.313658 0)
(-0.0192103 0.109392 0)
(-0.0543276 0.193145 0)
(-0.0775549 0.207205 0)
(-0.0809848 0.194355 0)
(-0.0711185 0.173453 0)
(-0.0542308 0.151744 0)
(-0.0337054 0.131951 0)
(-0.011491 0.114912 0)
(0.0112625 0.10068 0)
(0.0339454 0.0890285 0)
(0.0562928 0.0796646 0)
(0.0782474 0.0722978 0)
(0.0998741 0.0666583 0)
(0.121303 0.0624927 0)
(0.142686 0.0595552 0)
(0.164168 0.0575976 0)
(0.185854 0.0563618 0)
(0.207794 0.055576 0)
(0.229964 0.054956 0)
(0.252251 0.0542089 0)
(0.274455 0.0530406 0)
(0.296284 0.0511642 0)
(0.317357 0.0483072 0)
(0.337214 0.044217 0)
(0.355321 0.0386621 0)
(0.371077 0.0314283 0)
(0.383815 0.0223093 0)
(0.392802 0.0110916 0)
(0.39722 -0.00247042 0)
(0.396154 -0.0186897 0)
(0.388555 -0.0380052 0)
(0.373192 -0.0610849 0)
(0.348594 -0.0890287 0)
(0.312949 -0.123802 0)
(0.263981 -0.169164 0)
(0.199124 -0.232168 0)
(0.11785 -0.322691 0)
(0.0281005 -0.439337 0)
(-0.0397148 -0.521405 0)
(-0.0282247 -0.365006 0)
(-0.0303131 0.158253 0)
(-0.0707907 0.224386 0)
(-0.0697782 0.207893 0)
(-0.0407152 0.177226 0)
(-0.0020233 0.147801 0)
(0.0383477 0.122485 0)
(0.0775377 0.10176 0)
(0.114319 0.0852122 0)
(0.148263 0.0721307 0)
(0.179412 0.0618426 0)
(0.208041 0.0538067 0)
(0.234523 0.0475996 0)
(0.259257 0.0428853 0)
(0.282641 0.0393889 0)
(0.305037 0.0368759 0)
(0.326764 0.0351345 0)
(0.348073 0.0339642 0)
(0.36914 0.0331676 0)
(0.390054 0.0325472 0)
(0.410807 0.0319049 0)
(0.431294 0.031045 0)
(0.45131 0.0297773 0)
(0.470551 0.0279221 0)
(0.488622 0.0253126 0)
(0.505044 0.0217969 0)
(0.519258 0.0172362 0)
(0.530626 0.0114999 0)
(0.538433 0.00445697 0)
(0.541877 -0.00403874 0)
(0.540047 -0.0141724 0)
(0.531888 -0.0262086 0)
(0.516147 -0.040568 0)
(0.491272 -0.0579833 0)
(0.455254 -0.079846 0)
(0.405342 -0.109049 0)
(0.337583 -0.152044 0)
(0.247068 -0.222515 0)
(0.131588 -0.336977 0)
(0.0179497 -0.465779 0)
(-0.00396501 -0.401737 0)
(-0.0249258 0.225905 0)
(-0.0392619 0.226848 0)
(0.0347029 0.165042 0)
(0.118991 0.122751 0)
(0.191863 0.0936727 0)
(0.253398 0.0721671 0)
(0.305668 0.0562332 0)
(0.350098 0.0445338 0)
(0.387959 0.0359177 0)
(0.420472 0.0295254 0)
(0.448716 0.0247667 0)
(0.473596 0.0212346 0)
(0.495863 0.0186385 0)
(0.516147 0.0167629 0)
(0.534966 0.0154415 0)
(0.552743 0.0145381 0)
(0.569803 0.0139347 0)
(0.58638 0.0135234 0)
(0.602613 0.0132017 0)
(0.618549 0.0128709 0)
(0.634138 0.0124357 0)
(0.649237 0.0118054 0)
(0.663613 0.0108955 0)
(0.676949 0.00962894 0)
(0.688849 0.00793694 0)
(0.698845 0.00575868 0)
(0.706403 0.00303941 0)
(0.710921 -0.000273335 0)
(0.711729 -0.00423622 0)
(0.708073 -0.00892143 0)
(0.699087 -0.0144371 0)
(0.683739 -0.0209672 0)
(0.660717 -0.0288562 0)
(0.628205 -0.038799 0)
(0.58344 -0.0523338 0)
(0.521691 -0.0732222 0)
(0.434548 -0.112266 0)
(0.306257 -0.195324 0)
(0.146047 -0.332107 0)
(0.0783848 -0.364619 0)
(0.267743 0.134959 0)
(0.332884 0.119286 0)
(0.459198 0.0785582 0)
(0.561724 0.0521337 0)
(0.630391 0.0357339 0)
(0.678361 0.0248483 0)
(0.714089 0.0174964 0)
(0.741499 0.0125577 0)
(0.762917 0.00923379 0)
(0.780024 0.00697712 0)
(0.794034 0.00543367 0)
(0.80581 0.00437644 0)
(0.815978 0.00365671 0)
(0.825002 0.00317443 0)
(0.833229 0.00285999 0)
(0.840922 0.00266261 0)
(0.848265 0.00254293 0)
(0.855382 0.00246836 0)
(0.862336 0.00241036 0)
(0.869136 0.00234306 0)
(0.875736 0.00224257 0)
(0.882039 0.00208701 0)
(0.887901 0.00185662 0)
(0.893135 0.00153407 0)
(0.897515 0.00110465 0)
(0.900783 0.000556173 0)
(0.902653 -0.000121354 0)
(0.902813 -0.000936618 0)
(0.900927 -0.00189855 0)
(0.89663 -0.00301911 0)
(0.889515 -0.00431859 0)
(0.8791 -0.00583577 0)
(0.864762 -0.00764986 0)
(0.845573 -0.00992778 0)
(0.819951 -0.0130546 0)
(0.784541 -0.0179933 0)
(0.731987 -0.0276125 0)
(0.64222 -0.0513313 0)
(0.478436 -0.109482 0)
(0.348494 -0.15258 0)
)
;

boundaryField
{
    movingWall
    {
        type            fixedValue;
        value           uniform (1 0 0);
    }
    fixedWalls
    {
        type            noSlip;
    }
    frontAndBack
    {
        type            empty;
    }
}


// ************************************************************************* //
