/*--------------------------------*- C++ -*----------------------------------*\
  =========                 |
  \\      /  F ield         | OpenFOAM: The Open Source CFD Toolbox
   \\    /   O peration     | Website:  https://openfoam.org
    \\  /    A nd           | Version:  6.0
     \\/     M anipulation  |
\*---------------------------------------------------------------------------*/
FoamFile
{
    version     2.0;
    format      ascii;
    class       volVectorField;
    location    "43";
    object      U;
}
// * * * * * * * * * * * * * * * * * * * * * * * * * * * * * * * * * * * * * //

dimensions      [0 1 -1 0 0 0 0];

internalField   nonuniform List<vector> 
34500
(
(0.999995 2.1378e-05 -4.63721e-17)
(0.999961 6.53246e-06 -8.14548e-18)
(0.999895 -3.27095e-05 1.42408e-16)
(0.999808 -9.7597e-05 -1.07791e-16)
(0.999717 -0.000182101 3.36047e-17)
(0.999628 -0.000285049 -1.01591e-16)
(0.999545 -0.000416669 -1.01094e-16)
(0.999479 -0.000577148 8.67247e-17)
(0.999439 -0.000760957 1.07371e-16)
(0.999433 -0.000959496 -6.83974e-16)
(0.99946 -0.00116819 -1.04203e-15)
(0.999517 -0.00141134 1.27141e-16)
(0.999601 -0.00165976 4.35396e-16)
(0.999964 -0.00219777 -2.08406e-16)
(0.994863 -0.00505573 7.83894e-17)
(0.999989 6.11015e-05 3.24755e-17)
(0.999922 1.12426e-05 9.77501e-17)
(0.999804 -8.31477e-05 7.18541e-17)
(0.999657 -0.000203254 -3.02597e-16)
(0.999502 -0.000341635 -5.06475e-16)
(0.999347 -0.000519614 -5.51155e-17)
(0.999199 -0.000758125 2.55824e-16)
(0.999085 -0.00105337 -6.78126e-16)
(0.999021 -0.00138648 -1.78898e-16)
(0.999018 -0.00174197 6.82528e-16)
(0.999077 -0.00210591 1.26436e-15)
(0.999194 -0.00252221 -6.30519e-16)
(0.999315 -0.00292577 -9.87201e-16)
(1.00015 -0.00367091 -3.97127e-16)
(0.994615 -0.00676586 5.33876e-16)
(0.999983 9.63044e-05 1.0477e-17)
(0.999915 1.43042e-05 -1.23061e-16)
(0.999806 -0.000110218 -1.25334e-16)
(0.999676 -0.000236576 4.56258e-16)
(0.999546 -0.00035704 -2.86706e-17)
(0.999417 -0.000515175 -1.64214e-16)
(0.999295 -0.000735602 9.7943e-17)
(0.999202 -0.0010144 3.8507e-16)
(0.999154 -0.00132651 2.37016e-19)
(0.999161 -0.00165912 -3.93533e-16)
(0.999222 -0.00199517 -7.29256e-16)
(0.999345 -0.00237941 4.14556e-16)
(0.999401 -0.00275397 2.25466e-16)
(1.00032 -0.00334448 1.65356e-16)
(0.996511 -0.00524103 -2.49956e-16)
(0.999975 0.000128089 -1.73703e-17)
(0.999908 1.60009e-05 -9.03477e-18)
(0.999808 -0.000132072 4.83883e-17)
(0.999695 -0.000261893 -3.05801e-16)
(0.999591 -0.000366761 3.72668e-16)
(0.999494 -0.000506744 3.30284e-16)
(0.999403 -0.000706684 -3.99919e-16)
(0.999335 -0.000962651 -4.20426e-16)
(0.999305 -0.00124695 4.35552e-16)
(0.99932 -0.00155111 -4.71197e-16)
(0.999378 -0.00185884 -2.44837e-16)
(0.9995 -0.00221594 -3.86149e-16)
(0.999492 -0.00258991 5.43956e-16)
(1.0003 -0.00309226 -4.83174e-17)
(0.997595 -0.0046992 2.19762e-17)
(0.999965 0.000157608 -1.70587e-17)
(0.999892 1.85355e-05 1.53499e-16)
(0.999788 -0.000151427 6.96539e-17)
(0.999671 -0.000294118 1.6999e-16)
(0.999569 -0.00040527 4.68079e-17)
(0.999481 -0.000554929 -1.58445e-16)
(0.999404 -0.000765416 1.02646e-16)
(0.999349 -0.00103099 2.66632e-16)
(0.999331 -0.0013219 -4.18263e-16)
(0.999357 -0.00163183 -2.31365e-16)
(0.999421 -0.00194488 1.00831e-15)
(0.999555 -0.00230767 6.35624e-16)
(0.999523 -0.00270706 -2.90604e-16)
(1.00019 -0.00317517 5.95853e-16)
(0.998134 -0.00467275 -6.00005e-16)
(0.999952 0.000185752 1.83686e-17)
(0.999874 2.44923e-05 -9.49241e-17)
(0.999762 -0.000162893 -1.86605e-16)
(0.999633 -0.000321267 -5.30161e-17)
(0.999527 -0.00044878 1.09591e-16)
(0.999441 -0.000619157 -1.09006e-16)
(0.999372 -0.000850286 1.48379e-16)
(0.999328 -0.00113433 1.31374e-16)
(0.999321 -0.0014406 2.91454e-16)
(0.99936 -0.00176306 -1.00465e-16)
(0.999435 -0.00208561 2.92848e-18)
(0.999589 -0.00245232 -3.90184e-16)
(0.99956 -0.00286275 1.83776e-17)
(1.00009 -0.0032865 -4.71853e-16)
(0.998514 -0.00454484 7.5669e-17)
(0.999938 0.000213106 3.25842e-18)
(0.999857 3.4745e-05 -3.56297e-17)
(0.999741 -0.000164578 -2.90607e-17)
(0.999605 -0.000337139 1.7601e-16)
(0.999497 -0.000482545 -2.20782e-16)
(0.999416 -0.000673012 2.75835e-16)
(0.999359 -0.000920693 -6.20145e-16)
(0.999328 -0.00121713 -3.70419e-16)
(0.999334 -0.00153216 -1.51847e-16)
(0.999385 -0.0018599 6.72562e-16)
(0.99947 -0.00218392 -7.69902e-16)
(0.99964 -0.00254369 2.98855e-16)
(0.999627 -0.00294964 4.57954e-16)
(1.00005 -0.0033212 -9.65198e-17)
(0.998822 -0.00435553 -1.2315e-16)
(0.999923 0.00024014 1.513e-17)
(0.999842 4.88735e-05 3.23253e-17)
(0.999725 -0.000158505 2.50656e-17)
(0.999586 -0.000344464 -1.511e-16)
(0.999479 -0.000508977 3.29379e-16)
(0.999406 -0.000718968 -1.39807e-16)
(0.999362 -0.000979667 2.01836e-16)
(0.999345 -0.00128375 -1.46524e-16)
(0.999363 -0.00160272 3.98284e-16)
(0.999427 -0.00193137 1.78111e-16)
(0.999522 -0.00225265 2.45322e-16)
(0.999704 -0.00260087 -5.66691e-17)
(0.999711 -0.00299619 -5.06679e-16)
(1.00004 -0.00332149 1.14634e-15)
(0.999087 -0.00419149 1.90109e-16)
(0.999907 0.000267241 -1.1226e-17)
(0.999827 6.60928e-05 9.90684e-17)
(0.999712 -0.000147354 1.51008e-16)
(0.999571 -0.000347157 1.1209e-16)
(0.999467 -0.000532809 -4.89438e-16)
(0.999401 -0.000763424 1.41183e-16)
(0.99937 -0.00103634 3.21226e-16)
(0.999366 -0.00134636 7.7381e-16)
(0.999397 -0.0016674 -3.86128e-16)
(0.999473 -0.00199562 9.02406e-17)
(0.999577 -0.00231301 4.50182e-16)
(0.999769 -0.0026482 -3.24729e-16)
(0.9998 -0.00302933 -1.54713e-16)
(1.00007 -0.00331488 -3.83585e-16)
(0.999329 -0.00405069 8.55989e-17)
(0.99989 0.000294691 4.07219e-17)
(0.999813 8.55357e-05 -8.98382e-17)
(0.999701 -0.000133216 8.86185e-18)
(0.999561 -0.00034734 -1.10348e-16)
(0.999459 -0.000555319 4.11289e-16)
(0.999399 -0.000807124 7.97379e-17)
(0.999381 -0.00109175 2.70694e-16)
(0.999392 -0.001406 -5.74102e-16)
(0.999436 -0.00172685 4.16701e-17)
(0.999524 -0.00205265 -7.88575e-17)
(0.999637 -0.00236476 -1.40027e-16)
(0.999837 -0.00268583 4.42727e-17)
(0.999892 -0.00305016 5.94992e-16)
(1.00012 -0.00330096 -8.10338e-16)
(0.999552 -0.00392384 -2.74311e-16)
(0.999872 0.000322589 -2.62453e-17)
(0.999799 0.000106224 3.52888e-17)
(0.999691 -0.000117918 -1.47725e-16)
(0.999555 -0.000346363 2.50325e-16)
(0.999457 -0.000576431 -3.6215e-16)
(0.999404 -0.000848756 -3.03578e-16)
(0.999398 -0.00114427 -3.39442e-16)
(0.999423 -0.00146069 3.9188e-17)
(0.999481 -0.00177838 -8.15779e-17)
(0.999582 -0.0020986 -4.25479e-16)
(0.999705 -0.00240336 -7.23067e-16)
(0.99991 -0.00270978 2.86785e-16)
(0.999987 -0.00305688 -3.29937e-16)
(1.00018 -0.00327915 9.13965e-16)
(0.999754 -0.00381321 5.46783e-17)
(0.999852 0.000350889 -2.45755e-17)
(0.999784 0.000127124 -1.04346e-16)
(0.999683 -0.000103172 1.50934e-16)
(0.999553 -0.000345648 -2.34514e-16)
(0.999461 -0.000596601 7.69999e-17)
(0.999413 -0.00088826 4.54957e-16)
(0.999418 -0.00119453 5.5493e-17)
(0.999457 -0.00151239 -6.74769e-17)
(0.999531 -0.00182509 1.81931e-16)
(0.999645 -0.00213703 -1.57283e-16)
(0.999777 -0.00243253 -9.53401e-17)
(0.999986 -0.00272454 -6.70148e-17)
(1.00008 -0.00305562 -2.88555e-16)
(1.00025 -0.0032566 -6.26217e-16)
(0.999934 -0.00372467 1.26273e-17)
(0.999832 0.000379413 -2.17852e-18)
(0.999768 0.000147291 1.40649e-16)
(0.999675 -9.04378e-05 -2.21805e-16)
(0.999554 -0.000346516 8.35292e-17)
(0.999468 -0.000616522 -9.37069e-17)
(0.999426 -0.000926138 -1.55026e-16)
(0.999439 -0.00124402 -3.89665e-17)
(0.999491 -0.00156491 3.65775e-16)
(0.999579 -0.00187353 -6.31633e-16)
(0.999707 -0.0021767 4.21315e-16)
(0.999849 -0.0024622 2.21154e-16)
(1.00006 -0.0027404 1.84744e-16)
(1.00017 -0.0030567 7.53307e-16)
(1.00032 -0.00324198 7.3582e-16)
(1.00009 -0.0036611 5.5818e-16)
(0.99981 0.000407928 8.31043e-18)
(0.99975 0.000165974 5.29333e-17)
(0.999666 -8.06771e-05 1.76289e-16)
(0.999556 -0.000349726 5.58463e-17)
(0.999479 -0.000636259 1.70917e-16)
(0.999443 -0.000961811 1.68339e-16)
(0.999461 -0.00129214 -1.18699e-17)
(0.999522 -0.00161916 4.93947e-17)
(0.999622 -0.00192721 9.39822e-16)
(0.999763 -0.00222379 -1.14201e-16)
(0.999916 -0.00250021 5.43799e-16)
(1.00013 -0.00276551 -7.41807e-16)
(1.00026 -0.00306727 1.37706e-16)
(1.0004 -0.00323912 -1.35554e-15)
(1.00024 -0.00361982 -6.27136e-16)
(0.999786 0.000436143 9.94858e-18)
(0.999729 0.000182656 -1.17808e-16)
(0.999655 -7.4422e-05 1.54986e-16)
(0.999559 -0.00035556 -2.2442e-16)
(0.999494 -0.000655349 1.57078e-16)
(0.999464 -0.000993461 2.07448e-17)
(0.999487 -0.00133542 1.95372e-16)
(0.999555 -0.00167087 -2.60534e-16)
(0.999664 -0.00198239 -8.4094e-16)
(0.999816 -0.00227614 2.49912e-16)
(0.999979 -0.00254585 -5.61905e-16)
(1.0002 -0.00279952 1.13246e-16)
(1.00034 -0.00308639 -4.92842e-16)
(1.00047 -0.00324463 2.67822e-16)
(1.00037 -0.00359421 -1.10383e-16)
(0.99976 0.000463788 3.32683e-17)
(0.999707 0.000197027 7.19647e-17)
(0.999642 -7.19069e-05 -3.59408e-16)
(0.999562 -0.000364235 2.88779e-16)
(0.999511 -0.000673728 -2.80377e-16)
(0.999492 -0.00101977 -3.73582e-16)
(0.999521 -0.00137 -3.83626e-16)
(0.999594 -0.00171343 3.38276e-16)
(0.99971 -0.00203062 7.205e-16)
(0.99987 -0.00232489 1.63446e-16)
(1.00004 -0.00259079 9.49979e-17)
(1.00027 -0.00283496 7.03518e-17)
(1.00042 -0.00310756 -7.36898e-16)
(1.00055 -0.00325274 6.49081e-17)
(1.00049 -0.0035805 6.43477e-16)
(0.999732 0.00049062 -8.97404e-17)
(0.999681 0.000208946 -9.24977e-17)
(0.999626 -7.33305e-05 3.4327e-17)
(0.999563 -0.000376503 -2.64699e-16)
(0.99953 -0.000693026 -1.79882e-17)
(0.999525 -0.00104251 4.82412e-16)
(0.999563 -0.0013962 5.5174e-17)
(0.999642 -0.00174435 3.04672e-16)
(0.999763 -0.00206654 -6.04218e-16)
(0.99993 -0.00236294 -3.1047e-16)
(1.00011 -0.00262778 4.45978e-16)
(1.00034 -0.00286574 -1.49658e-16)
(1.0005 -0.00312711 4.86315e-16)
(1.00063 -0.00326301 7.55685e-16)
(1.0006 -0.00358167 -6.08435e-17)
(0.999701 0.0005165 2.81136e-17)
(0.999651 0.000218454 1.14877e-17)
(0.999603 -7.88086e-05 1.15766e-16)
(0.999557 -0.0003936 2.26094e-18)
(0.999541 -0.00071661 9.90052e-17)
(0.999554 -0.00106731 -2.90085e-16)
(0.999605 -0.00142074 5.99264e-16)
(0.999694 -0.00176967 -1.53789e-16)
(0.999821 -0.00209438 6.53933e-16)
(0.999993 -0.00239291 -3.42218e-16)
(1.00018 -0.00265889 -5.4516e-16)
(1.0004 -0.00289473 5.26573e-16)
(1.00058 -0.00314984 -8.89157e-16)
(1.00071 -0.00328263 -1.31317e-15)
(1.00069 -0.00360397 -3.35118e-16)
(0.999669 0.000541393 3.13005e-18)
(0.999616 0.000225795 1.95205e-17)
(0.999573 -8.82157e-05 -3.12571e-17)
(0.999539 -0.000416587 1.58886e-16)
(0.999539 -0.000748171 1.08981e-16)
(0.999568 -0.00110155 -4.27377e-17)
(0.999636 -0.00145451 -3.61213e-16)
(0.999737 -0.00180236 -3.48278e-16)
(0.999873 -0.00212755 -2.35472e-16)
(1.00005 -0.00242751 4.34078e-16)
(1.00024 -0.00269594 3.36511e-16)
(1.00047 -0.00293307 -4.95163e-16)
(1.00065 -0.00318624 1.10149e-15)
(1.00078 -0.00332044 1.38374e-15)
(1.00077 -0.00364901 4.71362e-17)
(0.999634 0.000565392 3.57949e-17)
(0.999577 0.00023143 -4.76547e-17)
(0.999535 -0.000100886 2.29752e-16)
(0.999508 -0.000445355 -4.57563e-17)
(0.999518 -0.000789398 -1.74666e-16)
(0.999561 -0.00115018 7.40561e-17)
(0.999644 -0.00150658 -1.29932e-16)
(0.999759 -0.00185511 2.94086e-16)
(0.999908 -0.00218069 7.73345e-17)
(1.0001 -0.00248159 5.40848e-17)
(1.00029 -0.00275254 -2.58097e-16)
(1.00053 -0.00299198 3.4286e-16)
(1.00072 -0.00324403 1.75033e-16)
(1.00085 -0.00337902 1.56809e-16)
(1.00085 -0.00371015 4.00462e-16)
(0.999598 0.000588661 -1.84017e-17)
(0.999534 0.000235962 2.72791e-17)
(0.99949 -0.000115611 -3.72442e-16)
(0.999466 -0.000478144 -2.38307e-16)
(0.999481 -0.000838443 3.29842e-16)
(0.999532 -0.00121242 -8.92995e-17)
(0.999627 -0.00157852 5.21757e-16)
(0.999757 -0.00193233 -1.41651e-16)
(0.999921 -0.00226034 -7.50791e-18)
(1.00012 -0.00256213 -1.50365e-16)
(1.00033 -0.00283425 3.86323e-16)
(1.00057 -0.00307396 -2.43699e-16)
(1.00078 -0.00332152 -8.02184e-16)
(1.00093 -0.00345145 -1.91371e-16)
(1.00094 -0.00377507 -4.57437e-16)
(0.999561 0.000611404 2.47725e-17)
(0.999489 0.00023999 1.12714e-16)
(0.999441 -0.000130923 3.35707e-16)
(0.999418 -0.000512031 2.60563e-16)
(0.999435 -0.000890414 -3.21072e-17)
(0.99949 -0.00128166 -1.30511e-16)
(0.999593 -0.0016631 -5.77618e-16)
(0.999737 -0.00202737 -6.71552e-17)
(0.999917 -0.00236078 -3.43257e-16)
(1.00013 -0.00266372 1.11222e-16)
(1.00036 -0.00293482 -7.08175e-16)
(1.00061 -0.00317082 3.41858e-16)
(1.00083 -0.00340834 1.15576e-15)
(1.001 -0.00352566 -8.93208e-16)
(1.00104 -0.00383344 5.33298e-16)
(0.999523 0.000633796 -1.99751e-17)
(0.999443 0.000243959 -1.58597e-16)
(0.999392 -0.000145622 -1.92142e-16)
(0.999372 -0.000544168 -9.58424e-17)
(0.999391 -0.00093961 -6.13793e-17)
(0.999449 -0.00134858 8.42787e-17)
(0.999558 -0.00174779 -3.22893e-17)
(0.999713 -0.00212583 -4.43503e-16)
(0.999908 -0.00246708 -1.30591e-16)
(1.00014 -0.00277159 -3.28705e-17)
(1.00038 -0.00303979 6.44639e-16)
(1.00065 -0.00326849 1.07908e-16)
(1.00089 -0.00349165 -9.60979e-16)
(1.00108 -0.00359161 5.11147e-16)
(1.00115 -0.0038815 -1.03213e-16)
(0.999485 0.00065597 1.80447e-17)
(0.999397 0.00024807 9.32529e-17)
(0.999345 -0.000159194 9.24845e-17)
(0.999331 -0.000573112 1.79885e-16)
(0.999357 -0.000982369 -9.80159e-17)
(0.99942 -0.00140591 -2.7578e-17)
(0.999534 -0.00182129 1.99258e-16)
(0.999698 -0.00221334 2.97794e-16)
(0.999906 -0.00256344 -2.14924e-17)
(1.00016 -0.00287015 -3.59747e-16)
(1.00041 -0.00313505 -2.76644e-16)
(1.0007 -0.00335543 -4.86652e-16)
(1.00096 -0.00356369 2.04235e-17)
(1.00116 -0.00364674 2.64701e-16)
(1.00125 -0.00392307 -1.61378e-16)
(0.999446 0.00067801 -9.64824e-18)
(0.999352 0.000252326 -5.51864e-17)
(0.999301 -0.00017194 1.40464e-16)
(0.999296 -0.000599477 1.47394e-17)
(0.999333 -0.00101887 -1.24784e-16)
(0.999406 -0.00145195 1.00635e-16)
(0.999527 -0.00187897 -4.80781e-17)
(0.9997 -0.0022825 2.74612e-16)
(0.999919 -0.00264102 5.07507e-16)
(1.00018 -0.00295085 7.88274e-17)
(1.00045 -0.00321398 2.38764e-16)
(1.00075 -0.00342821 2.43174e-16)
(1.00103 -0.003625 6.00881e-17)
(1.00124 -0.00369603 -5.4474e-16)
(1.00135 -0.00396486 1.33061e-16)
(0.999407 0.000699968 1.29243e-17)
(0.999307 0.000256646 1.16231e-17)
(0.999257 -0.000184671 -2.86965e-16)
(0.999262 -0.000625571 -1.25379e-16)
(0.999314 -0.00105302 1.76297e-16)
(0.999402 -0.00149128 -2.7523e-17)
(0.999534 -0.00192477 1.84113e-16)
(0.999716 -0.002336 -2.44581e-16)
(0.999943 -0.00270164 1.39471e-16)
(1.00021 -0.0030157 1.16021e-16)
(1.0005 -0.00327993 1.22537e-16)
(1.00081 -0.00349227 1.56011e-16)
(1.00109 -0.00368295 2.17116e-16)
(1.00132 -0.003748 3.06155e-17)
(1.00145 -0.00401237 7.82832e-17)
(0.999368 0.000721874 -3.97648e-17)
(0.999262 0.000261027 1.05258e-16)
(0.99921 -0.00019821 1.64776e-16)
(0.999223 -0.00065424 -1.05492e-16)
(0.999291 -0.00109062 -6.85883e-17)
(0.999396 -0.0015325 3.90436e-17)
(0.999543 -0.00196895 -2.00574e-16)
(0.999736 -0.00238452 -1.31275e-16)
(0.999972 -0.00275578 -1.72461e-16)
(1.00025 -0.00307496 2.74209e-16)
(1.00055 -0.00334307 -3.80554e-16)
(1.00086 -0.00355756 2.97449e-16)
(1.00116 -0.00374634 1.45844e-16)
(1.00141 -0.00380899 5.46976e-16)
(1.00154 -0.00406522 -5.04206e-16)
(0.999328 0.000743738 1.67792e-17)
(0.999216 0.000265634 -7.92258e-17)
(0.999158 -0.000212846 5.8028e-17)
(0.999173 -0.000687455 1.28358e-16)
(0.999252 -0.00113669 -8.90057e-17)
(0.999375 -0.00158426 -1.50433e-16)
(0.99954 -0.00202315 -7.12319e-17)
(0.999747 -0.00244131 9.81807e-17)
(0.999994 -0.00281691 -4.49241e-16)
(1.00028 -0.00314125 6.63203e-17)
(1.00059 -0.00341443 2.52881e-16)
(1.00091 -0.00363272 -7.07207e-16)
(1.00123 -0.00382031 1.42965e-16)
(1.00149 -0.00387956 2.1959e-17)
(1.00165 -0.00411738 3.71823e-16)
(0.999288 0.000765539 -6.37896e-18)
(0.99917 0.000270799 9.70991e-17)
(0.999101 -0.000228084 -9.38409e-17)
(0.999111 -0.000725302 -5.8256e-17)
(0.999196 -0.00119323 -9.29447e-17)
(0.999333 -0.00165155 -4.91648e-17)
(0.999516 -0.00209534 -1.05995e-16)
(0.99974 -0.00251621 7.56856e-17)
(1 -0.00289511 2.90924e-17)
(1.0003 -0.00322339 -3.11189e-16)
(1.00062 -0.00350023 -3.71394e-16)
(1.00096 -0.00372039 4.12244e-16)
(1.00129 -0.00390329 -3.60232e-16)
(1.00158 -0.00395367 -1.14921e-16)
(1.00177 -0.00415956 -1.13835e-17)
(0.999248 0.000787203 -1.93019e-17)
(0.999124 0.000276909 -4.4856e-17)
(0.999041 -0.000242703 3.16931e-17)
(0.99904 -0.000765766 2.25896e-16)
(0.999122 -0.0012583 3.77301e-16)
(0.99927 -0.0017337 3.08056e-16)
(0.99947 -0.00218671 3.36622e-16)
(0.999714 -0.00261175 -2.14794e-16)
(0.999994 -0.002993 4.3568e-20)
(1.00031 -0.00332264 2.33085e-16)
(1.00064 -0.00359924 4.59034e-17)
(1.001 -0.00381617 2.53344e-16)
(1.00135 -0.00398775 2.03789e-16)
(1.00167 -0.00402146 -5.35003e-16)
(1.0019 -0.00418315 -3.53635e-16)
(0.999208 0.000808593 9.93113e-18)
(0.99908 0.000284247 -8.10705e-17)
(0.998983 -0.00025515 -1.62227e-16)
(0.998967 -0.000805274 -1.59282e-16)
(0.999041 -0.00132648 1.46578e-17)
(0.999193 -0.00182452 -1.73935e-16)
(0.999409 -0.00229123 -3.78765e-16)
(0.999673 -0.00272233 2.89143e-16)
(0.999976 -0.00310489 2.35199e-16)
(1.00031 -0.00343239 -5.18788e-16)
(1.00067 -0.00370329 4.25723e-16)
(1.00104 -0.0039102 -3.10523e-16)
(1.00142 -0.00406304 -1.43287e-16)
(1.00176 -0.00407284 -1.25543e-16)
(1.00206 -0.0041836 1.50657e-16)
(0.999167 0.000829507 3.78029e-17)
(0.999039 0.00029283 1.73952e-17)
(0.998931 -0.000264058 8.77421e-17)
(0.998901 -0.000839852 4.07707e-17)
(0.998963 -0.00139071 4.79891e-17)
(0.999117 -0.00191443 3.00866e-16)
(0.999346 -0.00239803 -1.35976e-16)
(0.99963 -0.00283662 1.486e-16)
(0.999956 -0.00321931 8.53282e-17)
(1.00032 -0.00354107 5.94678e-17)
(1.0007 -0.00380076 1.98242e-16)
(1.0011 -0.00399134 -4.22875e-17)
(1.00149 -0.00411964 9.4082e-18)
(1.00185 -0.00410135 8.7565e-16)
(1.00222 -0.00416234 2.80256e-18)
(0.999127 0.0008497 -3.6693e-17)
(0.999001 0.000302324 -1.26761e-17)
(0.99889 -0.000268735 5.73611e-17)
(0.998849 -0.00086629 -1.74956e-16)
(0.998902 -0.00144428 -2.80318e-16)
(0.999055 -0.0019934 -2.68637e-16)
(0.999294 -0.00249481 2.27643e-16)
(0.999597 -0.00294134 -8.3265e-17)
(0.999946 -0.00332304 9.71301e-18)
(1.00033 -0.00363621 -5.0353e-18)
(1.00073 -0.00388069 -2.7382e-16)
(1.00116 -0.00405088 -2.47611e-16)
(1.00157 -0.00415234 -1.59838e-16)
(1.00195 -0.00410624 2.43036e-17)
(1.00239 -0.0041265 -5.51861e-17)
(0.999086 0.000868926 -1.8318e-17)
(0.998968 0.00031206 4.8494e-17)
(0.99886 -0.000269417 4.77239e-17)
(0.998818 -0.000883088 7.77024e-17)
(0.998866 -0.00148279 1.06311e-16)
(0.999018 -0.00205386 1.68056e-18)
(0.999265 -0.0025716 2.27546e-16)
(0.999584 -0.00302548 -5.07461e-16)
(0.999954 -0.00340539 2.58814e-16)
(1.00036 -0.0037086 2.64028e-16)
(1.00079 -0.00393636 -3.77847e-16)
(1.00123 -0.00408549 7.06062e-16)
(1.00166 -0.00416189 3.72065e-16)
(1.00205 -0.00409263 -6.9466e-16)
(1.00254 -0.00408699 -2.08096e-16)
(0.999045 0.000886967 3.78804e-17)
(0.998937 0.000321133 2.94185e-17)
(0.998842 -0.000267313 4.58575e-18)
(0.998807 -0.000890868 -3.48282e-17)
(0.998857 -0.00150517 2.02004e-17)
(0.999011 -0.00209252 2.85205e-16)
(0.999265 -0.00262329 -4.59955e-17)
(0.999597 -0.00308317 3.25652e-16)
(0.999984 -0.00346107 -4.8216e-17)
(1.00041 -0.00375483 -2.92021e-16)
(1.00085 -0.0039672 6.04461e-16)
(1.00131 -0.00409805 -3.62981e-16)
(1.00176 -0.00415472 -4.9191e-16)
(1.00215 -0.0040701 2.08348e-16)
(1.00268 -0.00405607 3.5073e-16)
(0.999001 0.000903689 -3.15006e-17)
(0.998907 0.000328583 -1.32846e-17)
(0.998831 -0.000264326 -1.73254e-16)
(0.998813 -0.000892177 -8.4687e-17)
(0.998872 -0.00151382 5.21586e-17)
(0.999033 -0.00211092 -2.87924e-16)
(0.999293 -0.00265052 -8.46586e-17)
(0.999635 -0.00311484 2.83765e-16)
(1.00003 -0.00349128 -2.40066e-16)
(1.00048 -0.00377779 7.04349e-17)
(1.00093 -0.00397854 -3.36595e-16)
(1.0014 -0.0040965 1.05918e-17)
(1.00185 -0.00414094 2.66257e-16)
(1.00225 -0.00404992 1.4038e-16)
(1.00279 -0.00404409 -5.50843e-17)
(0.998956 0.000919042 3.00507e-17)
(0.998875 0.000333554 -9.75172e-17)
(0.998823 -0.000262727 8.18799e-17)
(0.998828 -0.000890952 5.36137e-17)
(0.998904 -0.00151394 -4.04474e-17)
(0.999075 -0.00211485 -1.72892e-16)
(0.999342 -0.00265926 5.24303e-17)
(0.999691 -0.00312672 -1.30121e-16)
(1.0001 -0.00350302 -2.1938e-16)
(1.00055 -0.00378578 -2.74066e-17)
(1.00102 -0.00398019 -4.86378e-16)
(1.00149 -0.00409195 4.98075e-16)
(1.00195 -0.0041321 3.87571e-17)
(1.00234 -0.00404295 -8.01443e-17)
(1.00289 -0.00405826 -7.85302e-18)
(0.998906 0.000933098 -3.68587e-17)
(0.998839 0.000335487 1.00385e-16)
(0.998811 -0.000264627 -2.30645e-17)
(0.998843 -0.000891545 -2.10128e-16)
(0.998941 -0.00151212 -1.00161e-16)
(0.999126 -0.00211255 1.16397e-16)
(0.999401 -0.00265876 -1.70802e-16)
(0.999756 -0.00312873 -1.91379e-16)
(1.00017 -0.00350677 3.25763e-16)
(1.00063 -0.00378982 1.13401e-16)
(1.0011 -0.00398356 5.10345e-16)
(1.00158 -0.0040957 -3.84109e-16)
(1.00204 -0.00413835 1.38189e-16)
(1.00243 -0.00405706 -1.55918e-16)
(1.00296 -0.00410102 5.23535e-18)
(0.998854 0.000946006 2.28135e-17)
(0.998796 0.000334169 -5.80909e-17)
(0.99879 -0.000271689 7.21684e-17)
(0.99885 -0.000898001 3.13095e-16)
(0.998972 -0.00151509 1.32886e-16)
(0.999173 -0.00211308 8.24687e-17)
(0.999458 -0.00265964 3.39201e-16)
(0.999818 -0.00313229 1.61238e-16)
(1.00024 -0.00351423 -2.65655e-16)
(1.0007 -0.00380145 4.52799e-16)
(1.00117 -0.00399952 2.51923e-16)
(1.00166 -0.00411726 -2.13366e-16)
(1.00213 -0.00416694 -4.08618e-16)
(1.00252 -0.00409647 -1.59139e-16)
(1.00302 -0.00417081 6.18886e-17)
(0.998796 0.000958014 4.68438e-18)
(0.998745 0.000329804 -1.23767e-16)
(0.998757 -0.000284774 -9.18595e-17)
(0.998841 -0.000913224 -2.15567e-16)
(0.998986 -0.00152831 3.46263e-17)
(0.999205 -0.00212423 -3.34858e-16)
(0.999501 -0.00267131 -3.60096e-16)
(0.999869 -0.00314757 -1.44889e-16)
(1.00029 -0.00353549 3.0876e-16)
(1.00076 -0.00382997 -3.28093e-16)
(1.00124 -0.00403592 1.16085e-16)
(1.00173 -0.00416241 2.1594e-16)
(1.0022 -0.00422092 3.28214e-16)
(1.0026 -0.00416103 2.00734e-16)
(1.00308 -0.00426221 1.71764e-17)
(0.998735 0.000969385 3.29284e-17)
(0.998685 0.000322899 2.0229e-16)
(0.998709 -0.000303973 9.41611e-17)
(0.998812 -0.000938761 1.80967e-16)
(0.998978 -0.00155539 1.08452e-16)
(0.999215 -0.00215166 4.57285e-17)
(0.999523 -0.00270085 5.27625e-17)
(0.999899 -0.00318218 -1.2126e-16)
(1.00033 -0.0035778 -1.23002e-16)
(1.0008 -0.00388147 1.44198e-17)
(1.00129 -0.00409699 -7.93165e-16)
(1.00179 -0.004233 -3.10012e-16)
(1.00227 -0.0042995 3.26416e-16)
(1.00269 -0.00424728 -7.29624e-17)
(1.00313 -0.0043678 -2.03603e-16)
(0.998671 0.000980424 -4.42576e-17)
(0.998618 0.000314215 -1.29638e-16)
(0.998645 -0.000328577 -1.86208e-16)
(0.998762 -0.000974587 6.11807e-17)
(0.998945 -0.00159753 -2.05746e-16)
(0.999198 -0.00219792 3.83199e-17)
(0.99952 -0.00275179 -4.74684e-17)
(0.999907 -0.00323988 -8.67514e-18)
(1.00035 -0.00364435 -1.46994e-16)
(1.00083 -0.00395782 -7.71102e-17)
(1.00132 -0.0041828 2.72972e-17)
(1.00183 -0.00432703 2.69263e-16)
(1.00234 -0.0043986 -1.35855e-16)
(1.00277 -0.00434939 2.68877e-16)
(1.00319 -0.00447961 9.576e-17)
(0.998604 0.000991392 2.36552e-17)
(0.998544 0.000304581 1.24201e-16)
(0.998569 -0.00035736 2.36589e-16)
(0.998692 -0.00101943 -6.83636e-17)
(0.998887 -0.00165388 -1.65831e-17)
(0.999155 -0.00226278 2.51225e-16)
(0.999492 -0.00282435 2.13682e-16)
(0.999893 -0.00332084 -1.46482e-16)
(1.00035 -0.00373462 3.92525e-16)
(1.00084 -0.00405732 3.56258e-16)
(1.00135 -0.0042901 3.79012e-16)
(1.00188 -0.00443968 -1.74997e-17)
(1.00239 -0.00451214 -3.0127e-16)
(1.00285 -0.00446048 -3.17157e-16)
(1.00326 -0.0045902 -3.0807e-17)
(0.998535 0.00100254 -2.02701e-17)
(0.998465 0.000294824 -6.55885e-17)
(0.998482 -0.000388742 -1.96114e-16)
(0.998606 -0.00107104 1.26239e-16)
(0.998809 -0.00172181 1.21159e-16)
(0.99909 -0.00234351 -1.68254e-16)
(0.999442 -0.00291573 -8.49488e-17)
(0.999859 -0.00342196 8.35971e-18)
(1.00033 -0.00384491 -1.74433e-16)
(1.00084 -0.00417536 -3.05263e-16)
(1.00137 -0.00441329 -5.63588e-16)
(1.00191 -0.0045645 6.09311e-17)
(1.00245 -0.00463326 3.67901e-16)
(1.00293 -0.00457383 3.33881e-16)
(1.00335 -0.0046938 -7.0796e-17)
(0.998466 0.00101402 -1.61312e-17)
(0.998383 0.000285616 -1.31944e-17)
(0.998389 -0.000421113 1.7164e-16)
(0.998508 -0.00112672 -1.61966e-16)
(0.998716 -0.00179771 -3.20137e-16)
(0.999009 -0.00243586 1.55384e-16)
(0.999377 -0.00302119 8.82111e-17)
(0.999812 -0.00353808 4.08531e-16)
(1.0003 -0.00396952 5.84596e-17)
(1.00083 -0.00430569 2.84305e-16)
(1.00138 -0.00454563 8.44626e-16)
(1.00195 -0.00469455 -2.31885e-16)
(1.00251 -0.00475535 -9.85206e-17)
(1.00301 -0.00468366 -1.16457e-17)
(1.00344 -0.00478627 -2.82072e-17)
(0.998397 0.00102597 4.51141e-17)
(0.9983 0.000277439 4.92998e-17)
(0.998294 -0.00045302 -1.47632e-16)
(0.998406 -0.00118376 1.3718e-16)
(0.998615 -0.00187763 -9.23826e-17)
(0.998918 -0.00253487 -2.97406e-16)
(0.999302 -0.00313509 1.30905e-17)
(0.999757 -0.00366306 -3.5129e-17)
(1.00027 -0.00410202 -2.16735e-16)
(1.00082 -0.00444169 1.82828e-16)
(1.00139 -0.00468058 -7.88504e-16)
(1.00198 -0.00482371 -1.43655e-17)
(1.00257 -0.00487315 -1.76035e-16)
(1.00309 -0.004786 3.29705e-17)
(1.00354 -0.00486613 -8.35576e-17)
(0.998328 0.00103842 -1.15121e-17)
(0.998218 0.000270542 -1.17452e-17)
(0.998199 -0.000483341 2.04268e-17)
(0.998303 -0.0012398 -1.52559e-16)
(0.998512 -0.00195788 -2.74381e-17)
(0.998824 -0.00263572 3.6316e-16)
(0.999224 -0.00325181 -2.64748e-16)
(0.9997 -0.00379084 -3.28016e-16)
(1.00024 -0.00423617 3.5135e-16)
(1.00081 -0.00457728 -3.1796e-16)
(1.00141 -0.00481251 4.02641e-16)
(1.00202 -0.00494712 3.81234e-16)
(1.00263 -0.00498292 2.74922e-16)
(1.00318 -0.00487854 -1.83333e-16)
(1.00365 -0.00493337 -6.29945e-17)
(0.99826 0.00105134 -1.24158e-17)
(0.998137 0.000264964 -7.20827e-17)
(0.998107 -0.000511363 -9.71036e-17)
(0.998204 -0.00129306 7.12846e-17)
(0.998413 -0.00203548 1.80693e-16)
(0.998734 -0.00273436 6.34164e-17)
(0.99915 -0.00336658 2.46079e-16)
(0.999647 -0.0039163 5.37731e-17)
(1.00021 -0.00436691 -4.61971e-16)
(1.00081 -0.00470778 1.61745e-16)
(1.00143 -0.00493741 -2.28722e-16)
(1.00207 -0.00506177 -1.90089e-16)
(1.0027 -0.00508287 -2.56363e-16)
(1.00327 -0.00496082 4.06103e-17)
(1.00377 -0.00498981 1.52122e-16)
(0.998192 0.00106467 -1.90575e-17)
(0.998059 0.000260567 3.43336e-17)
(0.99802 -0.000536784 4.1463e-17)
(0.998112 -0.00134244 -1.42894e-16)
(0.998322 -0.00210834 6.97479e-17)
(0.998651 -0.00282781 -2.11694e-16)
(0.999083 -0.00347578 -2.59299e-17)
(0.9996 -0.00403559 3.18556e-16)
(1.00018 -0.00449053 -2.03276e-16)
(1.00081 -0.00482998 -2.6877e-16)
(1.00146 -0.0050529 2.3097e-16)
(1.00212 -0.00516623 -6.86066e-17)
(1.00277 -0.00517267 -7.26546e-16)
(1.00336 -0.0050336 7.43085e-17)
(1.00389 -0.00503775 1.09448e-16)
(0.998124 0.00107829 -9.80948e-18)
(0.997983 0.000257089 3.34907e-17)
(0.997938 -0.000559686 1.26202e-17)
(0.998027 -0.00138755 1.90445e-17)
(0.99824 -0.00217545 1.20385e-16)
(0.998578 -0.00291442 6.6909e-17)
(0.999025 -0.00357736 -2.20441e-16)
(0.999563 -0.00414658 -2.01252e-17)
(1.00017 -0.00460516 6.08841e-16)
(1.00082 -0.00494255 -1.9536e-16)
(1.00149 -0.00515838 -5.74474e-18)
(1.00217 -0.00526079 2.89335e-17)
(1.00284 -0.00525345 2.79432e-17)
(1.00345 -0.0050988 -5.14474e-17)
(1.00401 -0.00508043 1.72768e-17)
(0.998057 0.00109203 2.58495e-17)
(0.997909 0.000254205 -6.83151e-17)
(0.997862 -0.000580435 -7.80667e-17)
(0.997951 -0.00142858 1.48044e-19)
(0.998168 -0.00223665 -1.81785e-16)
(0.998516 -0.00299367 -2.90396e-17)
(0.998978 -0.00367058 4.27994e-17)
(0.999535 -0.00424853 -4.84809e-17)
(1.00016 -0.00471032 -4.12231e-16)
(1.00084 -0.00504552 5.49104e-16)
(1.00153 -0.00525453 -3.13523e-17)
(1.00223 -0.00534678 -5.74536e-17)
(1.00291 -0.00532712 3.39098e-16)
(1.00354 -0.00515876 -3.81239e-16)
(1.00413 -0.00512077 8.11342e-18)
(0.997988 0.00110574 2.74272e-18)
(0.997837 0.000251571 8.19547e-17)
(0.99779 -0.000599596 2.20347e-16)
(0.997882 -0.0014662 -5.55887e-17)
(0.998104 -0.00229257 1.18143e-16)
(0.998463 -0.00306611 -1.83642e-16)
(0.99894 -0.00375594 -2.19991e-16)
(0.999515 -0.00434204 5.28665e-18)
(1.00016 -0.00480691 2.40031e-16)
(1.00086 -0.00514019 -4.79276e-16)
(1.00157 -0.00534311 1.1945e-16)
(1.00229 -0.00542637 -2.07763e-17)
(1.00299 -0.00539611 2.61991e-16)
(1.00364 -0.00521603 8.11517e-17)
(1.00424 -0.0051616 -1.27437e-16)
(0.997917 0.00111924 1.05395e-18)
(0.997765 0.000248872 -8.89478e-17)
(0.997722 -0.000617813 -1.25758e-16)
(0.997818 -0.00150131 2.08234e-17)
(0.998049 -0.0023443 -2.19491e-17)
(0.998418 -0.00313293 1.66696e-16)
(0.99891 -0.00383472 3.61192e-16)
(0.999502 -0.00442855 -3.20489e-16)
(1.00017 -0.00489657 3.64692e-16)
(1.00088 -0.00522849 3.22499e-17)
(1.00161 -0.00542633 7.16179e-17)
(1.00235 -0.00550198 -1.38427e-16)
(1.00307 -0.00546289 2.67627e-16)
(1.00373 -0.00527295 1.52046e-16)
(1.00436 -0.00520496 2.0022e-16)
(0.997844 0.00113238 -8.6201e-18)
(0.997693 0.000245845 8.48466e-17)
(0.997655 -0.000635733 1.54896e-16)
(0.997758 -0.00153497 5.35393e-17)
(0.997998 -0.00239323 1.56648e-16)
(0.998379 -0.00319576 1.20349e-16)
(0.998885 -0.00390875 -3.24358e-16)
(0.999494 -0.00451007 6.5007e-16)
(1.00018 -0.0049815 -2.04562e-16)
(1.00091 -0.00531278 -6.80839e-17)
(1.00166 -0.00550666 -2.46564e-16)
(1.00242 -0.00557608 -1.0838e-16)
(1.00315 -0.00552975 -2.97854e-16)
(1.00382 -0.00533154 -1.10027e-16)
(1.00447 -0.00525258 4.81661e-17)
(0.997769 0.001145 -3.06124e-17)
(0.997621 0.000242288 -9.07356e-17)
(0.997588 -0.000653935 -1.08643e-17)
(0.9977 -0.0015682 1.06502e-16)
(0.99795 -0.00244078 -1.42562e-16)
(0.998343 -0.00325636 -1.04719e-16)
(0.998864 -0.00398003 4.05893e-16)
(0.999489 -0.00458875 -1.21275e-16)
(1.00019 -0.00506397 -5.18314e-16)
(1.00094 -0.00539541 7.13672e-17)
(1.00171 -0.00558642 -1.25198e-16)
(1.00248 -0.00565086 2.3183e-16)
(1.00323 -0.00559861 3.71881e-16)
(1.00392 -0.00539332 3.32126e-16)
(1.00458 -0.00530539 -2.80738e-16)
(0.997692 0.00115701 1.83578e-18)
(0.997546 0.00023807 -1.75016e-17)
(0.99752 -0.000672886 -7.24791e-17)
(0.997641 -0.00160188 4.51934e-17)
(0.997902 -0.00248828 -7.90442e-17)
(0.998308 -0.0033164 1.34862e-16)
(0.998843 -0.00405048 -1.16632e-16)
(0.999484 -0.00466668 4.00372e-17)
(1.0002 -0.00514612 -1.08641e-16)
(1.00097 -0.00547847 2.76537e-16)
(1.00175 -0.0056676 3.38563e-16)
(1.00254 -0.00572808 1.95905e-18)
(1.00331 -0.00567087 -5.91899e-16)