1.45 	0 	0 	0.6577 	-0.0218131 	9.94853e-22
2.35 	0 	0 	0.837007 	-0.00644096 	-9.77993e-22
