1.45 	0 	0 	-0.00795374 	-0.00257792 	3.79997e-21
2.35 	0 	0 	0.0616785 	-0.00664315 	2.31019e-21
