1.45 	0 	0 	-0.00560858 	-0.00274122 	3.93277e-21
2.35 	0 	0 	0.0688148 	-0.00684752 	2.4468e-21
