1.275 	2.15223e-18 	-2.76991e-20 	-0.034437 	-0.00043542 	-1.91829e-22
1.825 	2.15223e-18 	-1.39322e-20 	-0.00941666 	-0.00276161 	1.69817e-21
2.375 	2.15223e-18 	-2.66896e-23 	0.115443 	-0.00325266 	-7.08457e-22
