1.45 	0 	0 	-0.298998
2.35 	0 	0 	-0.13279
