/*--------------------------------*- C++ -*----------------------------------*\
  =========                 |
  \\      /  F ield         | OpenFOAM: The Open Source CFD Toolbox
   \\    /   O peration     | Website:  https://openfoam.org
    \\  /    A nd           | Version:  6.0
     \\/     M anipulation  |
\*---------------------------------------------------------------------------*/
FoamFile
{
    version     2.0;
    format      ascii;
    class       volVectorField;
    location    "0.5";
    object      U;
}
// * * * * * * * * * * * * * * * * * * * * * * * * * * * * * * * * * * * * * //

dimensions      [0 1 -1 0 0 0 0];

internalField   nonuniform List<vector> 
800
(
(0.000234149 -0.000235254 0)
(0.000405101 -8.83147e-05 0)
(-8.3184e-05 0.000182173 0)
(-0.00123214 0.000406307 0)
(-0.00288567 0.000557066 0)
(-0.0048709 0.000645039 0)
(-0.00705112 0.000689594 0)
(-0.00933552 0.000709364 0)
(-0.0116738 0.000718582 0)
(-0.0140459 0.000726715 0)
(-0.0164519 0.000739432 0)
(-0.0189042 0.000759785 0)
(-0.0214218 0.000789176 0)
(-0.0240261 0.000827997 0)
(-0.0267385 0.000875958 0)
(-0.0295777 0.000932146 0)
(-0.0325576 0.000994901 0)
(-0.0356839 0.00106156 0)
(-0.0389512 0.00112811 0)
(-0.0423386 0.00118883 0)
(-0.0458045 0.0012359 0)
(-0.0492819 0.00125911 0)
(-0.0526727 0.00124576 0)
(-0.0558433 0.0011809 0)
(-0.0586221 0.0010481 0)
(-0.0608003 0.000831109 0)
(-0.062139 0.000516433 0)
(-0.0623827 9.70934e-05 0)
(-0.0612836 -0.000422697 0)
(-0.0586358 -0.00102255 0)
(-0.0543191 -0.0016618 0)
(-0.0483476 -0.00227807 0)
(-0.0409154 -0.0027904 0)
(-0.0324262 -0.00310863 0)
(-0.0234946 -0.00314875 0)
(-0.0149052 -0.00285239 0)
(-0.00752484 -0.00220639 0)
(-0.00217252 -0.00125758 0)
(0.000551555 -0.000155618 0)
(0.000600519 0.000579252 0)
(9.43717e-05 -0.000421537 0)
(-0.000492516 0.000474639 0)
(-0.00263391 0.00173128 0)
(-0.00619156 0.00281077 0)
(-0.0108584 0.00359378 0)
(-0.0163131 0.00410064 0)
(-0.022277 0.00439912 0)
(-0.0285456 0.00456458 0)
(-0.034992 0.00466087 0)
(-0.0415525 0.00473477 0)
(-0.0482102 0.00481717 0)
(-0.0549783 0.00492644 0)
(-0.0618876 0.00507181 0)
(-0.0689762 0.00525586 0)
(-0.0762814 0.00547595 0)
(-0.0838326 0.00572453 0)
(-0.0916436 0.00598876 0)
(-0.0997052 0.00624956 0)
(-0.107977 0.00648046 0)
(-0.116375 0.00664643 0)
(-0.124768 0.00670308 0)
(-0.132962 0.00659645 0)
(-0.140692 0.00626414 0)
(-0.147625 0.00563822 0)
(-0.153352 0.00465062 0)
(-0.157405 0.00324182 0)
(-0.159277 0.00137305 0)
(-0.158455 -0.000958157 0)
(-0.154478 -0.0037003 0)
(-0.146997 -0.00673084 0)
(-0.135862 -0.00984427 0)
(-0.121201 -0.0127512 0)
(-0.103493 -0.0150956 0)
(-0.0836182 -0.0164945 0)
(-0.0628471 -0.0166023 0)
(-0.0427638 -0.0151926 0)
(-0.0250844 -0.0122456 0)
(-0.0113864 -0.00802097 0)
(-0.00287468 -0.00318369 0)
(-1.92769e-05 0.000592944 0)
(-0.000213686 8.79079e-05 0)
(-0.00196578 0.00267124 0)
(-0.00615478 0.00568565 0)
(-0.0123027 0.00826951 0)
(-0.0199265 0.0101953 0)
(-0.0286085 0.0114922 0)
(-0.0379847 0.0122955 0)
(-0.0477809 0.0127663 0)
(-0.057819 0.0130491 0)
(-0.0680025 0.0132552 0)
(-0.0782959 0.0134613 0)
(-0.0887047 0.0137153 0)
(-0.0992586 0.0140417 0)
(-0.109997 0.0144468 0)
(-0.120957 0.0149219 0)
(-0.132163 0.0154439 0)
(-0.143613 0.0159749 0)
(-0.155273 0.0164606 0)
(-0.167058 0.0168283 0)
(-0.178828 0.0169854 0)
(-0.190372 0.0168195 0)
(-0.201399 0.0161997 0)
(-0.211535 0.0149818 0)
(-0.220321 0.0130171 0)
(-0.22722 0.0101666 0)
(-0.231638 0.00632149 0)
(-0.232949 0.00142954 0)
(-0.230547 -0.00447376 0)
(-0.223902 -0.0112316 0)
(-0.212636 -0.0185354 0)
(-0.196608 -0.0259051 0)
(-0.176002 -0.032692 0)
(-0.15142 -0.0381146 0)
(-0.123931 -0.041341 0)
(-0.0950883 -0.0416217 0)
(-0.0668563 -0.0384667 0)
(-0.0414033 -0.0318411 0)
(-0.0207834 -0.0223341 0)
(-0.00680609 -0.0113407 0)
(-0.000846802 -0.00165553 0)
(-0.000543467 0.00144915 0)
(-0.00357625 0.00670945 0)
(-0.00998842 0.0120927 0)
(-0.0188276 0.0165804 0)
(-0.0293714 0.019912 0)
(-0.0410974 0.0221663 0)
(-0.0535708 0.0235716 0)
(-0.0664671 0.0243943 0)
(-0.0795753 0.0248747 0)
(-0.0927771 0.0252013 0)
(-0.106023 0.0255068 0)
(-0.119311 0.0258744 0)
(-0.132664 0.0263471 0)
(-0.146118 0.0269347 0)
(-0.159701 0.0276189 0)
(-0.173427 0.0283544 0)
(-0.187277 0.0290689 0)
(-0.201191 0.0296612 0)
(-0.215055 0.0299995 0)
(-0.228687 0.0299209 0)
(-0.24183 0.0292326 0)
(-0.254147 0.0277178 0)
(-0.265215 0.025145 0)
(-0.274532 0.0212847 0)
(-0.281527 0.015933 0)
(-0.285581 0.00894292 0)
(-0.286055 0.00026336 0)
(-0.282334 -0.0100162 0)
(-0.273877 -0.0216184 0)
(-0.260282 -0.0340351 0)
(-0.24137 -0.046498 0)
(-0.217267 -0.0579778 0)
(-0.188512 -0.067231 0)
(-0.156138 -0.0729136 0)
(-0.121736 -0.0737793 0)
(-0.0874322 -0.0689599 0)
(-0.0557142 -0.0582918 0)
(-0.0291117 -0.0426026 0)
(-0.0101976 -0.0239249 0)
(-0.00150035 -0.00590687 0)
(-0.000863769 0.00368274 0)
(-0.00518905 0.0126535 0)
(-0.0138618 0.0209759 0)
(-0.0253847 0.0276552 0)
(-0.0387445 0.0325118 0)
(-0.0532909 0.0357445 0)
(-0.0685146 0.0377161 0)
(-0.0840486 0.038821 0)
(-0.0996587 0.0394083 0)
(-0.115215 0.0397511 0)
(-0.13066 0.0400419 0)
(-0.145986 0.0404021 0)
(-0.161214 0.0408934 0)
(-0.176374 0.0415282 0)
(-0.191488 0.0422758 0)
(-0.206564 0.0430653 0)
(-0.221572 0.0437856 0)
(-0.236441 0.0442849 0)
(-0.251045 0.0443693 0)
(-0.265194 0.043805 0)
(-0.278626 0.0423218 0)
(-0.29101 0.0396228 0)
(-0.301937 0.0353994 0)
(-0.310935 0.0293536 0)
(-0.317473 0.0212286 0)
(-0.320981 0.0108477 0)
(-0.320865 -0.00183896 0)
(-0.316542 -0.0166997 0)
(-0.307467 -0.0333637 0)
(-0.293187 -0.0511637 0)
(-0.273404 -0.06909 0)
(-0.248066 -0.085773 0)
(-0.217483 -0.099519 0)
(-0.182462 -0.108433 0)
(-0.144443 -0.110662 0)
(-0.105575 -0.104781 0)
(-0.0686137 -0.0902704 0)
(-0.0366426 -0.06797 0)
(-0.0131731 -0.0403582 0)
(-0.00202518 -0.0117836 0)
(-0.00116961 0.00676351 0)
(-0.00675773 0.0204908 0)
(-0.0176454 0.032311 0)
(-0.0317549 0.0414116 0)
(-0.0477452 0.0478191 0)
(-0.0648162 0.0519403 0)
(-0.0823776 0.0543275 0)
(-0.100022 0.0555344 0)
(-0.1175 0.0560351 0)
(-0.134679 0.0561946 0)
(-0.151503 0.0562684 0)
(-0.167966 0.0564166 0)
(-0.184092 0.0567198 0)
(-0.199912 0.057192 0)
(-0.215453 0.0577898 0)
(-0.230723 0.0584161 0)
(-0.245698 0.0589222 0)
(-0.260315 0.0591077 0)
(-0.274464 0.0587224 0)
(-0.287978 0.0574693 0)
(-0.300633 0.0550125 0)
(-0.312147 0.0509892 0)
(-0.322183 0.0450287 0)
(-0.330348 0.0367781 0)
(-0.336207 0.0259357 0)
(-0.339281 0.0122928 0)
(-0.339059 -0.00421592 0)
(-0.335005 -0.0234533 0)
(-0.32657 -0.0450118 0)
(-0.313219 -0.0681403 0)
(-0.294476 -0.0916722 0)
(-0.270014 -0.113973 0)
(-0.239778 -0.132938 0)
(-0.204183 -0.146089 0)
(-0.164339 -0.150835 0)
(-0.122262 -0.144944 0)
(-0.080905 -0.127207 0)
(-0.0439653 -0.0981367 0)
(-0.0160738 -0.0604273 0)
(-0.00252675 -0.0191149 0)
(-0.00146339 0.0106579 0)
(-0.00827268 0.0301612 0)
(-0.0212877 0.0459967 0)
(-0.0378229 0.0576754 0)
(-0.056183 0.0655614 0)
(-0.0754031 0.0703696 0)
(-0.0948088 0.0729081 0)
(-0.113959 0.0739282 0)
(-0.132599 0.0740488 0)
(-0.150604 0.0737353 0)
(-0.167933 0.073309 0)
(-0.184593 0.0729693 0)
(-0.200621 0.0728153 0)
(-0.216062 0.0728634 0)
(-0.230957 0.0730583 0)
(-0.245331 0.0732797 0)
(-0.259181 0.0733459 0)
(-0.272475 0.073016 0)
(-0.285141 0.0719937 0)
(-0.297064 0.0699328 0)
(-0.30809 0.0664474 0)
(-0.318024 0.0611262 0)
(-0.326629 0.0535521 0)
(-0.333632 0.0433288 0)
(-0.338719 0.0301129 0)
(-0.341533 0.0136538 0)
(-0.341667 -0.006157 0)
(-0.33865 -0.0292261 0)
(-0.331938 -0.0551829 0)
(-0.320913 -0.0832886 0)
(-0.304906 -0.112331 0)
(-0.283261 -0.140523 0)
(-0.255474 -0.165426 0)
(-0.22142 -0.183986 0)
(-0.18168 -0.192748 0)
(-0.13792 -0.188383 0)
(-0.0931238 -0.168553 0)
(-0.0515777 -0.132958 0)
(-0.0192096 -0.0841763 0)
(-0.00309748 -0.0279437 0)
(-0.00175242 0.0153378 0)
(-0.00975095 0.0415914 0)
(-0.0247962 0.0618897 0)
(-0.0435577 0.0762048 0)
(-0.0639615 0.085381 0)
(-0.084873 0.0905546 0)
(-0.105542 0.092865 0)
(-0.125507 0.0933057 0)
(-0.144527 0.0926622 0)
(-0.162504 0.0915094 0)
(-0.179424 0.0902371 0)
(-0.195327 0.0890839 0)
(-0.210275 0.0881673 0)
(-0.224341 0.087506 0)
(-0.237593 0.0870355 0)
(-0.250086 0.0866167 0)
(-0.261856 0.0860421 0)
(-0.272913 0.0850405 0)
(-0.283243 0.0832827 0)
(-0.292804 0.0803889 0)
(-0.301528 0.0759404 0)
(-0.309323 0.0694939 0)
(-0.316073 0.060601 0)
(-0.321635 0.0488314 0)
(-0.325836 0.0338012 0)
(-0.328454 0.0152069 0)
(-0.329204 -0.00713106 0)
(-0.327706 -0.0332115 0)
(-0.323453 -0.062775 0)
(-0.315786 -0.0951982 0)
(-0.303874 -0.129354 0)
(-0.286754 -0.163448 0)
(-0.263439 -0.194849 0)
(-0.233153 -0.219999 0)
(-0.195744 -0.234521 0)
(-0.152235 -0.233709 0)
(-0.10533 -0.213566 0)
(-0.0597319 -0.172303 0)
(-0.0227929 -0.111825 0)
(-0.00380654 -0.0384714 0)
(-0.00205076 0.0207934 0)
(-0.0112395 0.0547253 0)
(-0.0282391 0.0798372 0)
(-0.0490072 0.0967141 0)
(-0.0710668 0.106849 0)
(-0.0931222 0.111931 0)
(-0.114372 0.113517 0)
(-0.134365 0.112889 0)
(-0.152903 0.111023 0)
(-0.169938 0.108611 0)
(-0.185511 0.106111 0)
(-0.199707 0.103799 0)
(-0.212633 0.101809 0)
(-0.224401 0.100162 0)
(-0.235118 0.0987848 0)
(-0.24488 0.0975243 0)
(-0.253767 0.0961548 0)
(-0.261846 0.094385 0)
(-0.269165 0.0918655 0)
(-0.275759 0.0881979 0)
(-0.281653 0.082946 0)
(-0.28686 0.0756502 0)
(-0.291384 0.0658436 0)
(-0.295213 0.0530715 0)
(-0.298314 0.0369125 0)
(-0.300609 0.0170051 0)
(-0.301951 -0.00691904 0)
(-0.302084 -0.0349865 0)
(-0.300593 -0.0671092 0)
(-0.296847 -0.102872 0)
(-0.289946 -0.141369 0)
(-0.278704 -0.180974 0)
(-0.261697 -0.219067 0)
(-0.237461 -0.251772 0)
(-0.20493 -0.273851 0)
(-0.164136 -0.279034 0)
(-0.117048 -0.2611 0)
(-0.0683934 -0.215863 0)
(-0.0269367 -0.143645 0)
(-0.00470607 -0.0509979 0)
(-0.00238497 0.0270516 0)
(-0.0128296 0.0695554 0)
(-0.0317585 0.0996987 0)
(-0.0543021 0.11888 0)
(-0.077554 0.129457 0)
(-0.10009 0.133833 0)
(-0.121109 0.134075 0)
(-0.140222 0.131807 0)
(-0.157317 0.128209 0)
(-0.172434 0.124094 0)
(-0.185693 0.119984 0)
(-0.197248 0.116186 0)
(-0.207264 0.112844 0)
(-0.215903 0.109976 0)
(-0.223318 0.107501 0)
(-0.229648 0.105255 0)
(-0.235023 0.102998 0)
(-0.239558 0.100429 0)
(-0.243365 0.0971868 0)
(-0.246551 0.0928683 0)
(-0.249222 0.087033 0)
(-0.251487 0.0792176 0)
(-0.253458 0.0689495 0)
(-0.255244 0.0557598 0)
(-0.256939 0.0391984 0)
(-0.258608 0.0188498 0)
(-0.260254 -0.00564447 0)
(-0.261777 -0.0345518 0)
(-0.262912 -0.067988 0)
(-0.26315 -0.105814 0)
(-0.26165 -0.147462 0)
(-0.257151 -0.191666 0)
(-0.247928 -0.236078 0)
(-0.231898 -0.276805 0)
(-0.206985 -0.308001 0)
(-0.1719 -0.321833 0)
(-0.127295 -0.309371 0)
(-0.0772593 -0.26293 0)
(-0.0316857 -0.179817 0)
(-0.00584722 -0.0658771 0)
(-0.00280492 0.0342089 0)
(-0.0146826 0.0861628 0)
(-0.0355949 0.121362 0)
(-0.0596571 0.142326 0)
(-0.083516 0.152584 0)
(-0.105695 0.155449 0)
(-0.125485 0.153607 0)
(-0.142639 0.14906 0)
(-0.157196 0.143204 0)
(-0.169331 0.136961 0)
(-0.179276 0.130904 0)
(-0.187271 0.125354 0)
(-0.193551 0.120452 0)
(-0.198332 0.116207 0)
(-0.201812 0.112524 0)
(-0.20417 0.109225 0)
(-0.205575 0.106062 0)
(-0.206185 0.102727 0)
(-0.20616 0.0988587 0)
(-0.205662 0.0940563 0)
(-0.204864 0.0878861 0)
(-0.20395 0.0798929 0)
(-0.203119 0.0696097 0)
(-0.202577 0.0565666 0)
(-0.202533 0.040298 0)
(-0.203182 0.0203501 0)
(-0.204678 -0.00371056 0)
(-0.207095 -0.032279 0)
(-0.210367 -0.0656739 0)
(-0.214199 -0.104057 0)
(-0.217946 -0.147279 0)
(-0.220461 -0.194598 0)
(-0.219949 -0.244226 0)
(-0.2139 -0.292668 0)
(-0.199292 -0.33393 0)
(-0.173297 -0.358926 0)
(-0.134624 -0.355788 0)
(-0.0857798 -0.312165 0)
(-0.0370584 -0.2203 0)
(-0.00730304 -0.0835065 0)
(-0.00340431 0.0424864 0)
(-0.0170736 0.104768 0)
(-0.0401163 0.144739 0)
(-0.065352 0.166575 0)
(-0.0890044 0.175421 0)
(-0.109699 0.175748 0)
(-0.126972 0.170965 0)
(-0.14084 0.163473 0)
(-0.151578 0.154866 0)
(-0.159548 0.146146 0)
(-0.165124 0.137904 0)
(-0.16865 0.130448 0)
(-0.170431 0.123897 0)
(-0.170732 0.118233 0)
(-0.169786 0.113339 0)
(-0.167798 0.10902 0)
(-0.16496 0.105018 0)
(-0.161454 0.10102 0)
(-0.157467 0.0966714 0)
(-0.153195 0.0915817 0)
(-0.148853 0.0853328 0)
(-0.144676 0.0774874 0)
(-0.140922 0.0675959 0)
(-0.137874 0.055201 0)
(-0.135827 0.0398396 0)
(-0.135089 0.0210424 0)
(-0.135951 -0.00166943 0)
(-0.138664 -0.0287835 0)
(-0.143383 -0.060785 0)
(-0.150089 -0.0981133 0)
(-0.158452 -0.141052 0)
(-0.167641 -0.189487 0)
(-0.176068 -0.242444 0)
(-0.181131 -0.297288 0)
(-0.179136 -0.348552 0)
(-0.16572 -0.386591 0)
(-0.137132 -0.39685 0)
(-0.0931357 -0.361364 0)
(-0.0430799 -0.26469 0)
(-0.00919904 -0.104357 0)
(-0.00436004 0.05233 0)
(-0.0204611 0.125787 0)
(-0.0458378 0.169714 0)
(-0.0716491 0.190919 0)
(-0.0938391 0.196819 0)
(-0.111432 0.193338 0)
(-0.124454 0.184676 0)
(-0.133352 0.17361 0)
(-0.138734 0.161872 0)
(-0.141204 0.15048 0)
(-0.141297 0.139987 0)
(-0.139459 0.13065 0)
(-0.136053 0.12253 0)
(-0.131377 0.115563 0)
(-0.125674 0.109595 0)
(-0.11915 0.104406 0)
(-0.111995 0.0997262 0)
(-0.104389 0.0952433 0)
(-0.0965204 0.0906108 0)
(-0.0885939 0.0854551 0)
(-0.0808378 0.0793817 0)
(-0.0735111 0.0719808 0)
(-0.0669063 0.0628316 0)
(-0.0613507 0.051504 0)
(-0.057205 0.0375566 0)
(-0.0548579 0.0205308 0)
(-0.0547165 -6.08946e-05 0)
(-0.0571876 -0.0247496 0)
(-0.0626431 -0.054124 0)
(-0.0713556 -0.0888304 0)
(-0.0833833 -0.129528 0)
(-0.0983691 -0.176732 0)
(-0.115221 -0.230431 0)
(-0.131676 -0.289269 0)
(-0.143867 -0.349092 0)
(-0.146241 -0.400804 0)
(-0.13238 -0.428122 0)
(-0.0981143 -0.4072 0)
(-0.0497722 -0.31202 0)
(-0.0117513 -0.129049 0)
(-0.00600495 0.0645881 0)
(-0.0255869 0.149872 0)
(-0.0533741 0.195974 0)
(-0.0785284 0.214148 0)
(-0.0971591 0.215022 0)
(-0.109228 0.206243 0)
(-0.115608 0.192785 0)
(-0.117375 0.17768 0)
(-0.115567 0.16267 0)
(-0.111057 0.14868 0)
(-0.104528 0.136142 0)
(-0.0965009 0.125198 0)
(-0.0873594 0.115816 0)
(-0.07739 0.107858 0)
(-0.0668091 0.10112 0)
(-0.0557898 0.0953505 0)
(-0.0444838 0.0902658 0)
(-0.0330394 0.0855553 0)
(-0.0216164 0.0808866 0)
(-0.0103984 0.0759101 0)
(0.000398712 0.0702629 0)
(0.010519 0.0635724 0)
(0.0196627 0.0554578 0)
(0.0274827 0.0455303 0)
(0.0335837 0.033389 0)
(0.0375222 0.0186114 0)
(0.0388091 0.000737723 0)
(0.0369153 -0.0207539 0)
(0.0312884 -0.0464808 0)
(0.0213877 -0.0771942 0)
(0.00676354 -0.113804 0)
(-0.0127799 -0.157342 0)
(-0.0368702 -0.208736 0)
(-0.0640283 -0.268151 0)
(-0.0909071 -0.33349 0)
(-0.111525 -0.397615 0)
(-0.117139 -0.444328 0)
(-0.0987796 -0.444892 0)
(-0.057009 -0.360365 0)
(-0.0152885 -0.158419 0)
(-0.00894129 0.0808118 0)
(-0.033555 0.177828 0)
(-0.0631273 0.222571 0)
(-0.084933 0.234037 0)
(-0.0963803 0.227227 0)
(-0.0992643 0.211608 0)
(-0.0957524 0.192689 0)
(-0.0877252 0.173483 0)
(-0.0766767 0.155504 0)
(-0.0637014 0.139416 0)
(-0.0495584 0.125424 0)
(-0.0347558 0.113484 0)
(-0.0196233 0.103429 0)
(-0.0043697 0.0950248 0)
(0.0108726 0.0880073 0)
(0.0260129 0.0820928 0)
(0.0409759 0.0769865 0)
(0.055681 0.0723851 0)
(0.070026 0.0679777 0)
(0.0838754 0.0634477 0)
(0.0970504 0.0584733 0)
(0.109322 0.0527288 0)
(0.120408 0.0458851 0)
(0.129964 0.037608 0)
(0.137587 0.0275532 0)
(0.142809 0.0153567 0)
(0.145091 0.000617224 0)
(0.143828 -0.0171314 0)
(0.138336 -0.0384639 0)
(0.127871 -0.0641264 0)
(0.111649 -0.0951174 0)
(0.0889456 -0.132767 0)
(0.0593212 -0.178724 0)
(0.0231246 -0.234617 0)
(-0.0175729 -0.300858 0)
(-0.0575337 -0.373696 0)
(-0.0868391 -0.439635 0)
(-0.0917236 -0.46788 0)
(-0.0639685 -0.406148 0)
(-0.0201384 -0.193481 0)
(-0.0141105 0.103777 0)
(-0.04557 0.21015 0)
(-0.0740394 0.246902 0)
(-0.0867213 0.246401 0)
(-0.0848513 0.228973 0)
(-0.0732961 0.205415 0)
(-0.0558538 0.181119 0)
(-0.0351777 0.158549 0)
(-0.0130484 0.138638 0)
(0.00942379 0.12158 0)
(0.0315958 0.107229 0)
(0.0531288 0.0953019 0)
(0.073874 0.0854692 0)
(0.0937954 0.0773985 0)
(0.112916 0.0707684 0)
(0.131281 0.0652727 0)
(0.148932 0.0606179 0)
(0.165885 0.0565207 0)
(0.182122 0.052704 0)
(0.197575 0.0488954 0)
(0.21212 0.0448254 0)
(0.225575 0.0402262 0)
(0.23769 0.0348314 0)
(0.248148 0.0283726 0)
(0.256557 0.0205756 0)
(0.262453 0.0111514 0)
(0.265286 -0.000219861 0)
(0.264413 -0.0139145 0)
(0.259089 -0.0304086 0)
(0.248441 -0.050348 0)
(0.231462 -0.0746571 0)
(0.207013 -0.104697 0)
(0.173917 -0.142451 0)
(0.13127 -0.190586 0)
(0.0792586 -0.251915 0)
(0.0209747 -0.32705 0)
(-0.0346065 -0.408212 0)
(-0.0705869 -0.467617 0)
(-0.0676538 -0.443183 0)
(-0.025989 -0.2354 0)
(-0.0223374 0.138622 0)
(-0.0610792 0.245242 0)
(-0.0793724 0.26198 0)
(-0.0714304 0.243115 0)
(-0.0469368 0.213187 0)
(-0.0146211 0.182314 0)
(0.0205159 0.154426 0)
(0.0556652 0.130653 0)
(0.0893316 0.110945 0)
(0.120844 0.0948426 0)
(0.15001 0.081796 0)
(0.176889 0.0712786 0)
(0.201671 0.0628248 0)
(0.224593 0.0560335 0)
(0.245899 0.0505602 0)
(0.26581 0.0461047 0)
(0.284505 0.0424006 0)
(0.302114 0.0392054 0)
(0.31871 0.0362938 0)
(0.334297 0.033452 0)
(0.348816 0.0304748 0)
(0.362134 0.0271631 0)
(0.374047 0.0233216 0)
(0.384276 0.018757 0)
(0.392465 0.0132737 0)
(0.398174 0.00666711 0)
(0.400879 -0.00128802 0)
(0.39995 -0.0108584 0)
(0.394642 -0.0223874 0)
(0.384051 -0.0363552 0)
(0.367076 -0.0534834 0)
(0.34235 -0.0749133 0)
(0.308182 -0.102495 0)
(0.262587 -0.139188 0)
(0.203676 -0.189338 0)
(0.131183 -0.257782 0)
(0.0501726 -0.344938 0)
(-0.0236244 -0.433222 0)
(-0.059891 -0.4609 0)
(-0.0298262 -0.285362 0)
(-0.0309008 0.193117 0)
(-0.0697741 0.273329 0)
(-0.0540967 0.250572 0)
(-0.00631553 0.209466 0)
(0.0508574 0.170077 0)
(0.107657 0.136763 0)
(0.160432 0.110123 0)
(0.20785 0.0893353 0)
(0.249748 0.0732304 0)
(0.286546 0.060757 0)
(0.318874 0.0510793 0)
(0.347397 0.0435531 0)
(0.372737 0.037684 0)
(0.395443 0.0330898 0)
(0.415983 0.0294702 0)
(0.434738 0.0265831 0)
(0.452006 0.0242272 0)
(0.468004 0.0222297 0)
(0.48287 0.0204367 0)
(0.496667 0.0187083 0)
(0.509382 0.0169137 0)
(0.520928 0.0149293 0)
(0.531147 0.0126359 0)
(0.539806 0.0099178 0)
(0.546597 0.00665957 0)
(0.551139 0.00274206 0)
(0.552967 -0.00196498 0)
(0.551522 -0.00761581 0)
(0.54613 -0.0144114 0)
(0.535964 -0.0226399 0)
(0.519984 -0.0327504 0)
(0.496822 -0.0454917 0)
(0.464621 -0.0621757 0)
(0.420786 -0.0851764 0)
(0.36178 -0.118771 0)
(0.283612 -0.170041 0)
(0.184316 -0.247645 0)
(0.0705437 -0.351467 0)
(-0.0215677 -0.438388 0)
(-0.0200339 -0.336783 0)
(-0.00851776 0.251449 0)
(-0.0140023 0.259256 0)
(0.0783509 0.18843 0)
(0.182128 0.135426 0)
(0.269806 0.0988259 0)
(0.341664 0.0728984 0)
(0.400643 0.0546049 0)
(0.448988 0.0417244 0)
(0.488725 0.0325626 0)
(0.521653 0.0259503 0)
(0.549244 0.0211133 0)
(0.572656 0.0175341 0)
(0.592793 0.0148588 0)
(0.61036 0.0128397 0)
(0.625903 0.011298 0)
(0.63984 0.0101002 0)
(0.652483 0.00914242 0)
(0.664051 0.00834008 0)
(0.674686 0.00762144 0)
(0.684458 0.00692338 0)
(0.693369 0.0061887 0)
(0.70136 0.00536447 0)
(0.708312 0.00440093 0)
(0.714048 0.00325049 0)
(0.718333 0.00186665 0)
(0.720876 0.000202178 0)
(0.721324 -0.00179413 0)
(0.719254 -0.00418306 0)
(0.714158 -0.0070451 0)
(0.70541 -0.0104988 0)
(0.692211 -0.0147354 0)
(0.673477 -0.0200868 0)
(0.647646 -0.0271683 0)
(0.612292 -0.0371964 0)
(0.563463 -0.0527246 0)
(0.494774 -0.0793001 0)
(0.396253 -0.128324 0)
(0.255118 -0.216248 0)
(0.0967953 -0.33612 0)
(0.0453879 -0.337436 0)
(0.284085 0.140157 0)
(0.362974 0.123605 0)
(0.505769 0.0780503 0)
(0.616946 0.0486894 0)
(0.687788 0.031165 0)
(0.735183 0.020306 0)
(0.769113 0.0135252 0)
(0.794192 0.00929025 0)
(0.813163 0.00660989 0)
(0.827895 0.00487557 0)
(0.839641 0.0037272 0)
(0.84924 0.00295055 0)
(0.857268 0.00241513 0)
(0.864132 0.00203923 0)
(0.870123 0.00176992 0)
(0.875447 0.00157135 0)
(0.880249 0.00141791 0)
(0.884623 0.00129021 0)
(0.888625 0.00117267 0)
(0.892274 0.00105217 0)
(0.895559 0.000917193 0)
(0.89844 0.000757345 0)
(0.900852 0.000563097 0)
(0.902703 0.000325565 0)
(0.903878 3.62797e-05 0)
(0.904238 -0.000313195 0)
(0.90362 -0.000731937 0)
(0.901833 -0.00123089 0)
(0.898651 -0.00182507 0)
(0.893798 -0.00253763 0)
(0.886923 -0.00340752 0)
(0.87754 -0.00450498 0)
(0.864925 -0.00596537 0)
(0.847877 -0.00807148 0)
(0.824164 -0.0114718 0)
(0.789245 -0.0178052 0)
(0.732853 -0.0314456 0)
(0.627697 -0.062562 0)
(0.45401 -0.122894 0)
(0.328804 -0.154273 0)
)
;

boundaryField
{
    movingWall
    {
        type            fixedValue;
        value           uniform (1 0 0);
    }
    fixedWalls
    {
        type            noSlip;
    }
    frontAndBack
    {
        type            empty;
    }
}


// ************************************************************************* //
