1.275 	2.15223e-18 	-2.76991e-20 	-0.0344868 	-0.000440521 	-1.89977e-22
1.825 	2.15223e-18 	-1.39322e-20 	-0.0095087 	-0.00275867 	1.6739e-21
2.375 	2.15223e-18 	-2.66896e-23 	0.11517 	-0.0032335 	-6.98104e-22
