1.45 	0 	0 	-0.292454
2.35 	0 	0 	-0.127729
