1.45 	0 	0 	0.0837066 	-0.00972777 	3.34877e-21
2.35 	0 	0 	0.345056 	-0.013033 	-1.01673e-22
