1.45 	0 	0 	-0.00813512 	-0.00258498 	1.65343e-20
2.35 	0 	0 	0.0621228 	-0.00662687 	9.88735e-21
