1.45 	0 	0 	-0.2943
2.35 	0 	0 	-0.12931
