/*--------------------------------*- C++ -*----------------------------------*\
  =========                 |
  \\      /  F ield         | OpenFOAM: The Open Source CFD Toolbox
   \\    /   O peration     | Website:  https://openfoam.org
    \\  /    A nd           | Version:  6.0
     \\/     M anipulation  |
\*---------------------------------------------------------------------------*/
FoamFile
{
    version     2.0;
    format      ascii;
    class       volScalarField;
    location    "198";
    object      p;
}
// * * * * * * * * * * * * * * * * * * * * * * * * * * * * * * * * * * * * * //

dimensions      [0 2 -2 0 0 0 0];

internalField   nonuniform List<scalar> 
34500
(
1.0057
1.0058
1.00572
1.00547
1.00508
1.00458
1.00402
1.00344
1.00285
1.0023
1.00179
1.00135
1.00093
1.00069
1.00059
1.0057
1.00584
1.00581
1.00564
1.00533
1.00492
1.00442
1.00388
1.00332
1.00275
1.0022
1.00171
1.00122
1.00096
1.00077
1.0057
1.00583
1.00577
1.00557
1.00523
1.00478
1.00425
1.00369
1.0031
1.00254
1.002
1.00153
1.00107
1.00088
1.00069
1.00571
1.00582
1.00575
1.00552
1.00515
1.00468
1.00413
1.00355
1.00296
1.0024
1.00187
1.00142
1.001
1.00086
1.00073
1.00571
1.00583
1.00576
1.00554
1.00517
1.00471
1.00417
1.00359
1.00301
1.00245
1.00192
1.00148
1.00106
1.00092
1.0008
1.00572
1.00584
1.00578
1.00556
1.00521
1.00476
1.00423
1.00366
1.00308
1.00252
1.00199
1.00154
1.00111
1.00096
1.00084
1.00573
1.00585
1.00579
1.00558
1.00523
1.00478
1.00425
1.00369
1.00311
1.00255
1.00201
1.00155
1.00112
1.00098
1.00086
1.00574
1.00586
1.0058
1.00559
1.00525
1.00479
1.00427
1.0037
1.00312
1.00255
1.00202
1.00156
1.00113
1.00098
1.00088
1.00575
1.00587
1.00581
1.00561
1.00526
1.00481
1.00428
1.00372
1.00313
1.00257
1.00203
1.00157
1.00114
1.00099
1.00089
1.00576
1.00588
1.00583
1.00563
1.00528
1.00483
1.00431
1.00374
1.00315
1.00258
1.00204
1.00158
1.00115
1.001
1.0009
1.00577
1.0059
1.00584
1.00564
1.0053
1.00485
1.00433
1.00376
1.00317
1.0026
1.00205
1.00159
1.00116
1.001
1.0009
1.00579
1.00591
1.00586
1.00566
1.00532
1.00487
1.00435
1.00378
1.00319
1.00261
1.00206
1.0016
1.00117
1.001
1.0009
1.0058
1.00593
1.00588
1.00568
1.00534
1.00489
1.00437
1.0038
1.0032
1.00263
1.00208
1.0016
1.00118
1.001
1.00089
1.00582
1.00594
1.00589
1.0057
1.00536
1.00492
1.00439
1.00382
1.00322
1.00264
1.00209
1.00162
1.00119
1.001
1.00089
1.00584
1.00596
1.00591
1.00572
1.00538
1.00494
1.00441
1.00384
1.00324
1.00266
1.0021
1.00163
1.0012
1.00099
1.00087
1.00585
1.00598
1.00593
1.00574
1.00541
1.00496
1.00444
1.00386
1.00327
1.00268
1.00212
1.00164
1.0012
1.00099
1.00086
1.00588
1.006
1.00596
1.00576
1.00543
1.00499
1.00446
1.00389
1.00329
1.0027
1.00213
1.00164
1.00121
1.00098
1.00084
1.0059
1.00603
1.00598
1.00579
1.00546
1.00501
1.00449
1.00391
1.00331
1.00271
1.00214
1.00165
1.00121
1.00097
1.00082
1.00592
1.00605
1.00601
1.00582
1.00548
1.00504
1.00451
1.00393
1.00332
1.00273
1.00215
1.00165
1.00121
1.00096
1.0008
1.00594
1.00608
1.00603
1.00584
1.00551
1.00507
1.00454
1.00395
1.00334
1.00274
1.00216
1.00166
1.00121
1.00095
1.00078
1.00597
1.0061
1.00606
1.00587
1.00554
1.00509
1.00456
1.00398
1.00336
1.00275
1.00217
1.00166
1.00121
1.00093
1.00076
1.006
1.00613
1.00609
1.0059
1.00557
1.00512
1.00459
1.004
1.00338
1.00277
1.00218
1.00166
1.00121
1.00092
1.00074
1.00603
1.00616
1.00612
1.00593
1.0056
1.00515
1.00462
1.00403
1.0034
1.00278
1.00219
1.00167
1.00121
1.00091
1.00071
1.00605
1.00619
1.00615
1.00597
1.00564
1.00519
1.00465
1.00405
1.00342
1.0028
1.0022
1.00167
1.0012
1.00089
1.00069
1.00609
1.00623
1.00619
1.006
1.00567
1.00522
1.00468
1.00408
1.00345
1.00282
1.00221
1.00167
1.0012
1.00087
1.00066
1.00612
1.00626
1.00622
1.00604
1.0057
1.00525
1.00471
1.00411
1.00347
1.00283
1.00222
1.00167
1.00119
1.00086
1.00063
1.00615
1.0063
1.00626
1.00607
1.00574
1.00529
1.00474
1.00413
1.00349
1.00284
1.00222
1.00167
1.00118
1.00084
1.0006
1.00619
1.00633
1.00629
1.00611
1.00578
1.00532
1.00477
1.00416
1.00351
1.00286
1.00223
1.00167
1.00117
1.00082
1.00057
1.00622
1.00637
1.00633
1.00615
1.00581
1.00535
1.0048
1.00418
1.00352
1.00287
1.00223
1.00166
1.00116
1.0008
1.00054
1.00626
1.00641
1.00637
1.00619
1.00585
1.00539
1.00483
1.00421
1.00354
1.00288
1.00224
1.00166
1.00115
1.00077
1.00051
1.0063
1.00645
1.00641
1.00623
1.00589
1.00542
1.00486
1.00423
1.00356
1.00289
1.00224
1.00166
1.00114
1.00075
1.00048
1.00634
1.00649
1.00646
1.00627
1.00593
1.00546
1.0049
1.00426
1.00358
1.00291
1.00225
1.00165
1.00113
1.00073
1.00044
1.00638
1.00653
1.0065
1.00631
1.00597
1.0055
1.00493
1.00429
1.00361
1.00292
1.00225
1.00165
1.00112
1.00071
1.00041
1.00642
1.00658
1.00654
1.00636
1.00602
1.00554
1.00497
1.00432
1.00363
1.00294
1.00226
1.00165
1.0011
1.00068
1.00037
1.00647
1.00662
1.00659
1.00641
1.00606
1.00558
1.005
1.00435
1.00365
1.00295
1.00226
1.00164
1.00109
1.00065
1.00034
1.00651
1.00667
1.00664
1.00645
1.00611
1.00563
1.00504
1.00438
1.00368
1.00296
1.00227
1.00163
1.00107
1.00063
1.0003
1.00656
1.00672
1.00669
1.0065
1.00615
1.00567
1.00508
1.00441
1.0037
1.00298
1.00227
1.00163
1.00105
1.0006
1.00026
1.00661
1.00677
1.00674
1.00655
1.0062
1.00571
1.00512
1.00444
1.00372
1.00299
1.00227
1.00162
1.00104
1.00057
1.00022
1.00666
1.00682
1.00679
1.0066
1.00625
1.00576
1.00516
1.00447
1.00374
1.003
1.00227
1.00161
1.00102
1.00054
1.00018
1.00671
1.00688
1.00685
1.00666
1.0063
1.0058
1.00519
1.0045
1.00376
1.00301
1.00227
1.0016
1.00099
1.00051
1.00014
1.00676
1.00693
1.0069
1.00671
1.00635
1.00585
1.00523
1.00453
1.00378
1.00302
1.00227
1.00158
1.00097
1.00047
1.0001
1.00682
1.00699
1.00696
1.00677
1.0064
1.0059
1.00527
1.00457
1.0038
1.00303
1.00227
1.00157
1.00095
1.00044
1.00006
1.00687
1.00705
1.00702
1.00682
1.00646
1.00594
1.00531
1.0046
1.00383
1.00304
1.00227
1.00156
1.00093
1.00041
1.00001
1.00693
1.00711
1.00708
1.00688
1.00651
1.00599
1.00535
1.00463
1.00385
1.00305
1.00227
1.00155
1.0009
1.00037
0.999966
1.00699
1.00717
1.00714
1.00694
1.00657
1.00604
1.0054
1.00466
1.00387
1.00306
1.00227
1.00153
1.00088
1.00033
0.99992
1.00705
1.00723
1.0072
1.007
1.00662
1.00609
1.00544
1.0047
1.00389
1.00307
1.00227
1.00152
1.00085
1.0003
0.999872
1.00711
1.0073
1.00726
1.00706
1.00668
1.00615
1.00549
1.00473
1.00392
1.00308
1.00227
1.0015
1.00082
1.00026
0.999824
1.00718
1.00736
1.00733
1.00713
1.00674
1.0062
1.00553
1.00477
1.00394
1.0031
1.00226
1.00149
1.0008
1.00022
0.999774
1.00724
1.00743
1.0074
1.0072
1.00681
1.00626
1.00558
1.0048
1.00397
1.00311
1.00226
1.00147
1.00077
1.00018
0.999723
1.00731
1.0075
1.00747
1.00726
1.00687
1.00631
1.00563
1.00484
1.00399
1.00312
1.00226
1.00146
1.00074
1.00014
0.999671
1.00738
1.00757
1.00754
1.00733
1.00693
1.00637
1.00568
1.00488
1.00401
1.00313
1.00225
1.00144
1.0007
1.00009
0.999617
1.00745
1.00764
1.00761
1.0074
1.007
1.00643
1.00573
1.00492
1.00404
1.00314
1.00225
1.00142
1.00067
1.00005
0.999562
1.00752
1.00772
1.00769
1.00748
1.00707
1.00649
1.00578
1.00496
1.00407
1.00315
1.00225
1.0014
1.00064
1
0.999505
1.0076
1.0078
1.00776
1.00755
1.00714
1.00655
1.00583
1.005
1.00409
1.00316
1.00224
1.00138
1.0006
0.999953
0.999448
1.00767
1.00787
1.00784
1.00763
1.00721
1.00662
1.00588
1.00503
1.00412
1.00317
1.00223
1.00136
1.00057
0.999904
0.999388
1.00775
1.00795
1.00792
1.0077
1.00728
1.00668
1.00593
1.00507
1.00414
1.00318
1.00223
1.00133
1.00053
0.999854
0.999327
1.00783
1.00804
1.008
1.00778
1.00735
1.00675
1.00599
1.00512
1.00417
1.00319
1.00222
1.00131
1.00049
0.999802
0.999265
1.00791
1.00812
1.00809
1.00786
1.00743
1.00681
1.00604
1.00516
1.00419
1.0032
1.00221
1.00129
1.00045
0.999749
0.999201
1.00799
1.00821
1.00817
1.00795
1.0075
1.00688
1.0061
1.0052
1.00422
1.00321
1.0022
1.00126
1.00041
0.999695
0.999136
1.00808
1.00829
1.00826
1.00803
1.00758
1.00695
1.00615
1.00524
1.00424
1.00321
1.00219
1.00123
1.00037
0.999639
0.999069
1.00817
1.00838
1.00835
1.00812
1.00766
1.00702
1.00621
1.00528
1.00427
1.00322
1.00218
1.00121
1.00033
0.999582
0.999
1.00825
1.00847
1.00844
1.0082
1.00774
1.00709
1.00627
1.00533
1.0043
1.00323
1.00217
1.00118
1.00028
0.999524
0.998931
1.00835
1.00857
1.00853
1.00829
1.00783
1.00716
1.00633
1.00537
1.00432
1.00324
1.00216
1.00115
1.00024
0.999464
0.998859
1.00844
1.00866
1.00863
1.00839
1.00791
1.00724
1.00639
1.00542
1.00435
1.00325
1.00215
1.00112
1.00019
0.999402
0.998785
1.00853
1.00876
1.00872
1.00848
1.008
1.00731
1.00646
1.00546
1.00438
1.00326
1.00214
1.00109
1.00014
0.999339
0.99871
1.00863
1.00886
1.00882
1.00858
1.00809
1.00739
1.00652
1.00551
1.00441
1.00327
1.00213
1.00106
1.00009
0.999274
0.998633
1.00873
1.00896
1.00892
1.00867
1.00818
1.00747
1.00659
1.00556
1.00444
1.00327
1.00212
1.00103
1.00004
0.999207
0.998553
1.00883
1.00907
1.00903
1.00878
1.00827
1.00756
1.00665
1.00561
1.00447
1.00328
1.00211
1.00099
0.999988
0.999139
0.998472
1.00893
1.00918
1.00913
1.00888
1.00837
1.00764
1.00672
1.00566
1.0045
1.00329
1.00209
1.00096
0.999934
0.999069
0.998389
1.00904
1.00928
1.00924
1.00898
1.00846
1.00772
1.00679
1.00571
1.00453
1.0033
1.00208
1.00092
0.999878
0.998997
0.998304
1.00915
1.0094
1.00935
1.00909
1.00856
1.00781
1.00686
1.00576
1.00456
1.00331
1.00206
1.00089
0.999821
0.998922
0.998216
1.00925
1.00951
1.00946
1.0092
1.00866
1.0079
1.00693
1.00582
1.00459
1.00331
1.00205
1.00085
0.999762
0.998847
0.998127
1.00937
1.00962
1.00958
1.00931
1.00876
1.00799
1.00701
1.00587
1.00462
1.00332
1.00203
1.00081
0.999702
0.998769
0.998035
1.00948
1.00974
1.0097
1.00942
1.00887
1.00808
1.00708
1.00592
1.00465
1.00333
1.00201
1.00077
0.99964
0.998689
0.997942
1.0096
1.00986
1.00981
1.00954
1.00897
1.00817
1.00716
1.00598
1.00468
1.00333
1.00199
1.00073
0.999576
0.998607
0.997845
1.00972
1.00999
1.00994
1.00966
1.00908
1.00827
1.00723
1.00603
1.00471
1.00334
1.00197
1.00068
0.999511
0.998524
0.997747
1.00984
1.01011
1.01006
1.00978
1.00919
1.00836
1.00731
1.00609
1.00475
1.00335
1.00196
1.00064
0.999444
0.998438
0.997647
1.00996
1.01024
1.01019
1.0099
1.00931
1.00846
1.00739
1.00615
1.00478
1.00335
1.00194
1.00059
0.999376
0.998351
0.997544
1.01009
1.01037
1.01032
1.01002
1.00942
1.00856
1.00748
1.00621
1.00481
1.00336
1.00191
1.00055
0.999305
0.99826
0.997438
1.01022
1.01051
1.01045
1.01015
1.00954
1.00867
1.00756
1.00627
1.00485
1.00337
1.00189
1.0005
0.999233
0.998168
0.99733
1.01035
1.01064
1.01058
1.01028
1.00966
1.00877
1.00764
1.00633
1.00488
1.00337
1.00187
1.00045
0.999159
0.998073
0.997219
1.01048
1.01078
1.01072
1.01042
1.00978
1.00888
1.00773
1.00639
1.00492
1.00338
1.00185
1.0004
0.999083
0.997977
0.997106
1.01062
1.01092
1.01086
1.01055
1.00991
1.00899
1.00782
1.00645
1.00495
1.00338
1.00182
1.00034
0.999004
0.997877
0.99699
1.01076
1.01107
1.01101
1.01069
1.01004
1.0091
1.00791
1.00652
1.00499
1.00339
1.0018
1.00029
0.998924
0.997775
0.996871
1.0109
1.01122
1.01115
1.01083
1.01017
1.00921
1.008
1.00658
1.00502
1.00339
1.00177
1.00023
0.998841
0.99767
0.996749
1.01105
1.01137
1.0113
1.01098
1.0103
1.00933
1.00809
1.00665
1.00506
1.0034
1.00174
1.00018
0.998757
0.997564
0.996625
1.0112
1.01152
1.01145
1.01112
1.01043
1.00945
1.00819
1.00672
1.00509
1.0034
1.00171
1.00012
0.99867
0.997454
0.996497
1.01135
1.01168
1.01161
1.01127
1.01057
1.00957
1.00829
1.00678
1.00513
1.0034
1.00168
1.00006
0.998581
0.997342
0.996367
1.0115
1.01184
1.01177
1.01143
1.01071
1.00969
1.00838
1.00685
1.00517
1.00341
1.00165
0.999992
0.998489
0.997226
0.996233
1.01166
1.012
1.01193
1.01158
1.01086
1.00982
1.00848
1.00692
1.0052
1.00341
1.00162
0.999928
0.998396
0.997109
0.996097
1.01182
1.01217
1.01209
1.01174
1.011
1.00994
1.00859
1.007
1.00524
1.00341
1.00159
0.999861
0.9983
0.996988
0.995957
1.01198
1.01234
1.01226
1.0119
1.01115
1.01007
1.00869
1.00707
1.00528
1.00341
1.00155
0.999794
0.998201
0.996865
0.995814
1.01215
1.01251
1.01243
1.01207
1.0113
1.01021
1.0088
1.00714
1.00532
1.00342
1.00152
0.999724
0.9981
0.996738
0.995667
1.01232
1.01269
1.01261
1.01224
1.01146
1.01034
1.0089
1.00722
1.00536
1.00342
1.00148
0.999652
0.997997
0.996609
0.995517
1.01249
1.01287
1.01279
1.01241
1.01162
1.01048
1.00901
1.0073
1.0054
1.00342
1.00144
0.999578
0.997891
0.996476
0.995364
1.01267
1.01305
1.01297
1.01259
1.01178
1.01062
1.00913
1.00738
1.00544
1.00342
1.0014
0.999502
0.997782
0.99634
0.995207
1.01285
1.01324
1.01315
1.01277
1.01195
1.01076
1.00924
1.00745
1.00548
1.00342
1.00136
0.999423
0.99767
0.996201
0.995046
1.01303
1.01343
1.01334
1.01295
1.01211
1.01091
1.00936
1.00754
1.00552
1.00342
1.00132
0.999343
0.997555
0.996058
0.994882
1.01322
1.01362
1.01354
1.01314
1.01229
1.01106
1.00948
1.00762
1.00556
1.00342
1.00128
0.99926
0.997438
0.995912
0.994713
1.01341
1.01382
1.01373
1.01333
1.01246
1.01121
1.0096
1.0077
1.0056
1.00341
1.00123
0.999175
0.997317
0.995762
0.994541
1.01361
1.01402
1.01393
1.01352
1.01264
1.01136
1.00972
1.00779
1.00565
1.00341
1.00119
0.999087
0.997193
0.995608
0.994365
1.0138
1.01423
1.01414
1.01372
1.01282
1.01152
1.00984
1.00787
1.00569
1.00341
1.00114
0.998997
0.997066
0.995452
0.994184
1.01401
1.01444
1.01435
1.01392
1.01301
1.01168
1.00997
1.00796
1.00573
1.0034
1.00109
0.998904
0.996936
0.995291
0.994
1.01421
1.01466
1.01456
1.01413
1.0132
1.01185
1.0101
1.00805
1.00577
1.0034
1.00104
0.998809
0.996802
0.995126
0.993811
1.01442
1.01488
1.01478
1.01434
1.01339
1.01201
1.01023
1.00814
1.00582
1.00339
1.00098
0.99871
0.996665
0.994957
0.993618
1.01464
1.0151
1.015
1.01456
1.01359
1.01218
1.01037
1.00823
1.00586
1.00338
1.00093
0.99861
0.996525
0.994785
0.993421
1.01486
1.01533
1.01523
1.01478
1.01379
1.01236
1.01051
1.00832
1.0059
1.00338
1.00087
0.998506
0.996381
0.994608
0.993219
1.01508
1.01556
1.01546
1.015
1.01399
1.01254
1.01064
1.00842
1.00595
1.00337
1.00081
0.9984
0.996234
0.994427
0.993013
1.01531
1.0158
1.01569
1.01523
1.0142
1.01272
1.01079
1.00851
1.00599
1.00336
1.00075
0.99829
0.996082
0.994242
0.992801
1.01554
1.01604
1.01593
1.01546
1.01442
1.0129
1.01093
1.00861
1.00603
1.00335
1.00068
0.998178
0.995927
0.994053
0.992585
1.01578
1.01629
1.01618
1.0157
1.01463
1.01309
1.01108
1.00871
1.00608
1.00334
1.00062
0.998062
0.995768
0.993858
0.992364
1.01602
1.01654
1.01643
1.01594
1.01486
1.01328
1.01123
1.00881
1.00612
1.00332
1.00055
0.997943
0.995605
0.993659
0.992138
1.01626
1.01679
1.01669
1.01619
1.01508
1.01348
1.01138
1.00891
1.00617
1.00331
1.00048
0.99782
0.995437
0.993456
0.991907
1.01651
1.01706
1.01695
1.01644
1.01532
1.01368
1.01154
1.00901
1.00621
1.0033
1.00041
0.997694
0.995265
0.993247
0.99167
1.01677
1.01732
1.01721
1.0167
1.01555
1.01388
1.0117
1.00912
1.00626
1.00328
1.00033
0.997564
0.995089
0.993033
0.991428
1.01703
1.0176
1.01748
1.01696
1.01579
1.01409
1.01186
1.00922
1.0063
1.00326
1.00025
0.997431
0.994908
0.992815
0.991181
1.0173
1.01787
1.01776
1.01723
1.01604
1.0143
1.01202
1.00933
1.00635
1.00324
1.00017
0.997293
0.994722
0.992591
0.990928
1.01757
1.01816
1.01804
1.0175
1.01629
1.01451
1.01219
1.00944
1.00639
1.00322
1.00008
0.997152
0.994532
0.992362
0.99067
1.01784
1.01845
1.01833
1.01778
1.01655
1.01473
1.01236
1.00955
1.00644
1.0032
0.999997
0.997006
0.994337
0.992127
0.990405
1.01813
1.01874
1.01863
1.01807
1.01681
1.01495
1.01253
1.00966
1.00648
1.00317
0.999907
0.996856
0.994137
0.991887
0.990135
1.01841
1.01904
1.01893
1.01836
1.01707
1.01518
1.01271
1.00977
1.00652
1.00315
0.999813
0.996702
0.993931
0.991641
0.989858
1.01871
1.01935
1.01923
1.01866
1.01735
1.01542
1.01289
1.00989
1.00657
1.00312
0.999716
0.996543
0.993721
0.991389
0.989576
1.01901
1.01966
1.01955
1.01896
1.01762
1.01565
1.01307
1.01
1.00661
1.00309
0.999615
0.99638
0.993505
0.991131
0.989287
1.01931
1.01998
1.01987
1.01927
1.01791
1.01589
1.01325
1.01012
1.00665
1.00305
0.999511
0.996212
0.993284
0.990868
0.988992
1.01963
1.02031
1.02019
1.01959
1.0182
1.01614
1.01344
1.01024
1.0067
1.00302
0.999403
0.996039
0.993056
0.990597
0.98869
1.01994
1.02064
1.02052
1.01991
1.01849
1.01639
1.01363
1.01036
1.00674
1.00298
0.999291
0.995862
0.992823
0.990321
0.988382
1.02027
1.02098
1.02086
1.02024
1.01879
1.01665
1.01383
1.01048
1.00678
1.00294
0.999175
0.995678
0.992583
0.990037
0.988066
1.0206
1.02133
1.02121
1.02058
1.0191
1.01691
1.01403
1.0106
1.00682
1.0029
0.999055
0.99549
0.992338
0.989748
0.987744
1.02094
1.02169
1.02157
1.02092
1.01941
1.01718
1.01423
1.01073
1.00686
1.00285
0.99893
0.995295
0.992085
0.989451
0.987414
1.02128
1.02205
1.02193
1.02127
1.01974
1.01745
1.01443
1.01085
1.0069
1.00281
0.998801
0.995095
0.991827
0.989147
0.987077
1.02163
1.02242
1.0223
1.02163
1.02006
1.01773
1.01464
1.01098
1.00694
1.00275
0.998667
0.994889
0.991561
0.988836
0.986733
1.02199
1.02279
1.02267
1.022
1.0204
1.01801
1.01485
1.01111
1.00697
1.0027
0.998528
0.994677
0.991289
0.988517
0.986381
1.02236
1.02318
1.02306
1.02237
1.02074
1.0183
1.01507
1.01123
1.00701
1.00264
0.998384
0.994458
0.991009
0.988191
0.986021
1.02273
1.02357
1.02345
1.02275
1.02109
1.01859
1.01529
1.01136
1.00704
1.00258
0.998234
0.994233
0.990723
0.987857
0.985654
1.02312
1.02397
1.02386
1.02314
1.02144
1.01889
1.01551
1.0115
1.00707
1.00251
0.998079
0.994
0.990428
0.987515
0.985278
1.02351
1.02438
1.02427
1.02354
1.0218
1.01919
1.01574
1.01163
1.0071
1.00244
0.997919
0.993762
0.990126
0.987166
0.984895
1.0239
1.0248
1.02469
1.02395
1.02218
1.0195
1.01597
1.01176
1.00713
1.00237
0.997752
0.993515
0.989816
0.986808
0.984503
1.02431
1.02522
1.02512
1.02436
1.02255
1.01982
1.0162
1.01189
1.00716
1.00229
0.997579
0.993262
0.989498
0.986441
0.984103
1.02472
1.02566
1.02555
1.02479
1.02294
1.02014
1.01643
1.01203
1.00718
1.00221
0.997399
0.993
0.989171
0.986066
0.983693
1.02515
1.02611
1.026
1.02522
1.02334
1.02047
1.01667
1.01216
1.0072
1.00212
0.997213
0.992731
0.988836
0.985682
0.983276
1.02558
1.02656
1.02646
1.02567
1.02374
1.02081
1.01692
1.01229
1.00722
1.00203
0.997019
0.992453
0.988491
0.985288
0.982848
1.02602
1.02703
1.02693
1.02612
1.02415
1.02115
1.01717
1.01243
1.00724
1.00193
0.996819
0.992167
0.988138
0.984886
0.982412
1.02647
1.0275
1.0274
1.02658
1.02457
1.0215
1.01742
1.01256
1.00725
1.00183
0.99661
0.991871
0.987775
0.984474
0.981966
1.02693
1.02798
1.02789
1.02706
1.025
1.02185
1.01767
1.0127
1.00726
1.00172
0.996393
0.991567
0.987403
0.984052
0.981512
1.0274
1.02848
1.02839
1.02754
1.02544
1.02222
1.01793
1.01283
1.00727
1.0016
0.996168
0.991253
0.98702
0.98362
0.981046
1.02788
1.02899
1.0289
1.02804
1.02589
1.02258
1.01819
1.01297
1.00727
1.00148
0.995935
0.99093
0.986628
0.983178
0.980572
1.02837
1.0295
1.02942
1.02854
1.02634
1.02296
1.01845
1.0131
1.00727
1.00135
0.995692
0.990596
0.986224
0.982725
0.980087
1.02887
1.03003
1.02996
1.02906
1.02681
1.02334
1.01872
1.01323
1.00726
1.00121
0.995441
0.990252
0.985811
0.982262
0.979592
1.02938
1.03057
1.0305
1.02959
1.02729
1.02373
1.01899
1.01336
1.00725
1.00106
0.995179
0.989897
0.985385
0.981788
0.979086
1.0299
1.03113
1.03106
1.03013
1.02778
1.02413
1.01926
1.01349
1.00723
1.00091
0.994908
0.989531
0.98495
0.981303
0.97857
1.03044
1.03169
1.03163
1.03068
1.02827
1.02453
1.01954
1.01362
1.00721
1.00075
0.994625
0.989154
0.984501
0.980806
0.978043
1.03098
1.03227
1.03222
1.03125
1.02878
1.02494
1.01982
1.01375
1.00718
1.00057
0.994333
0.988765
0.984042
0.980299
0.977505
1.03154
1.03286
1.03282
1.03183
1.0293
1.02536
1.0201
1.01388
1.00715
1.00039
0.994028
0.988363
0.983569
0.979778
0.976955
1.03211
1.03346
1.03343
1.03242
1.02983
1.02579
1.02038
1.014
1.0071
1.0002
0.993712
0.987949
0.983085
0.979246
0.976395
1.03269
1.03408
1.03405
1.03303
1.03037
1.02622
1.02067
1.01412
1.00706
1
0.993383
0.987522
0.982586
0.978701
0.975822
1.03329
1.03471
1.03469
1.03365
1.03093
1.02666
1.02096
1.01423
1.007
0.999789
0.993042
0.987082
0.982075
0.978144
0.975238
1.03389
1.03536
1.03535
1.03428
1.03149
1.02711
1.02125
1.01435
1.00693
0.999564
0.992686
0.986627
0.98155
0.977573
0.974641
1.03452
1.03602
1.03602
1.03493
1.03207
1.02757
1.02154
1.01445
1.00686
0.999328
0.992318
0.986158
0.981011
0.976989
0.974032
1.03515
1.0367
1.03671
1.0356
1.03266
1.02803
1.02184
1.01456
1.00678
0.999079
0.991934
0.985674
0.980457
0.976391
0.973411
1.0358
1.03739
1.03741
1.03628
1.03327
1.0285
1.02213
1.01466
1.00668
0.998817
0.991536
0.985175
0.979889
0.97578
0.972777
1.03647
1.0381
1.03813
1.03697
1.03388
1.02898
1.02243
1.01475
1.00658
0.99854
0.991122
0.984659
0.979305
0.975154
0.97213
1.03715
1.03883
1.03887
1.03769
1.03451
1.02947
1.02273
1.01484
1.00646
0.998248
0.990692
0.984128
0.978707
0.974515
0.97147
1.03785
1.03957
1.03963
1.03842
1.03515
1.02996
1.02302
1.01492
1.00633
0.997941
0.990244
0.98358
0.978091
0.97386
0.970796
1.03856
1.04033
1.0404
1.03916
1.03581
1.03046
1.02332
1.01499
1.00619
0.997618
0.98978
0.983014
0.97746
0.973191
0.97011
1.03929
1.04111
1.04119
1.03993
1.03648
1.03097
1.02361
1.01505
1.00604
0.997277
0.989297
0.98243
0.976811
0.972506
0.969409
1.04003
1.04191
1.04201
1.04071
1.03717
1.03149
1.02391
1.01511
1.00587
0.996919
0.988795
0.981828
0.976146
0.971805
0.968695
1.0408
1.04273
1.04284
1.04152
1.03787
1.03201
1.0242
1.01515
1.00568
0.996542
0.988273
0.981207
0.975463
0.971089
0.967966
1.04158
1.04356
1.0437
1.04234
1.03858
1.03254
1.02449
1.01518
1.00548
0.996145
0.987731
0.980566
0.974762
0.970357
0.967223
1.04238
1.04442
1.04457
1.04318
1.03931
1.03307
1.02477
1.0152
1.00526
0.995728
0.987168
0.979905
0.974042
0.969607
0.966465
1.0432
1.0453
1.04547
1.04405
1.04005
1.03361
1.02506
1.01521
1.00502
0.995289
0.986583
0.979224
0.973304
0.968842
0.965693
1.04404
1.04621
1.04639
1.04493
1.04081
1.03416
1.02533
1.01521
1.00476
0.994827
0.985975
0.97852
0.972546
0.968059
0.964906
1.0449
1.04713
1.04734
1.04584
1.04159
1.03471
1.0256
1.01518
1.00448
0.994342
0.985344
0.977795
0.971769
0.967259
0.964104
1.04578
1.04808
1.04831
1.04677
1.04238
1.03527
1.02586
1.01515
1.00418
0.993832
0.984688
0.977047
0.970971
0.966442
0.963286
1.04669
1.04905
1.0493
1.04772
1.04319
1.03583
1.02612
1.01509
1.00385
0.993296
0.984007
0.976277
0.970153
0.965607
0.962454
1.04761
1.05005
1.05033
1.0487
1.04401
1.03639
1.02637
1.01502
1.0035
0.992733
0.983299
0.975482
0.969314
0.964753
0.961605
1.04856
1.05108
1.05138
1.0497
1.04485
1.03696
1.0266
1.01492
1.00312
0.992142
0.982565
0.974663
0.968454
0.963881
0.960741
1.04953
1.05213
1.05245
1.05072
1.0457
1.03753
1.02682
1.0148
1.00271
0.991521
0.981802
0.973818
0.967571
0.96299
0.95986
1.05053
1.05321
1.05356
1.05178
1.04657
1.0381
1.02703
1.01466
1.00228
0.99087
0.981011
0.972948
0.966667
0.962081
0.958963
1.05156
1.05431
1.0547
1.05286
1.04746
1.03867
1.02723
1.01449
1.00181
0.990186
0.98019
0.972051
0.96574
0.961151
0.95805
1.05261
1.05545
1.05587
1.05396
1.04836
1.03924
1.0274
1.01429
1.00131
0.98947
0.979338
0.971128
0.96479
0.960203
0.95712
1.05368
1.05662
1.05707
1.0551
1.04928
1.03981
1.02756
1.01406
1.00077
0.988718
0.978454
0.970177
0.963816
0.959234
0.956173
1.05479
1.05782
1.05831
1.05626
1.05021
1.04037
1.0277
1.0138
1.0002
0.987931
0.977538
0.969198
0.962819
0.958246
0.95521
1.05592
1.05906
1.05958
1.05746
1.05116
1.04093
1.02781
1.01351
0.999589
0.987106
0.976588
0.968189
0.961797
0.957237
0.954229
1.05709
1.06032
1.06088
1.05868
1.05212
1.04148
1.0279
1.01318
0.998937
0.986242
0.975604
0.967152
0.960751
0.956208
0.953231
1.05829
1.06163
1.06223
1.05993
1.05309
1.04203
1.02796
1.0128
0.998242
0.985337
0.974583
0.966084
0.959679
0.955158
0.952215
1.05952
1.06297
1.06361
1.06122
1.05408
1.04256
1.02798
1.01239
0.997503
0.98439
0.973526
0.964985
0.958582
0.954087
0.951183
1.06078
1.06435
1.06504
1.06254
1.05508
1.04307
1.02798
1.01193
0.996716
0.9834
0.972432
0.963855
0.957459
0.952995
0.950132
1.06208
1.06577
1.0665
1.06389
1.05609
1.04357
1.02793
1.01142
0.99588
0.982366
0.971299
0.962694
0.956311
0.951881
0.949064
1.06341
1.06724
1.06801
1.06528
1.05711
1.04405
1.02784
1.01086
0.994992
0.981284
0.970127
0.961499
0.955135
0.950745
0.947978
1.06479
1.06874
1.06957
1.06669
1.05814
1.04451
1.02771
1.01025
0.994051
0.980155
0.968915
0.960273
0.953934
0.949589
0.946874
1.0662
1.07029
1.07117
1.06815
1.05917
1.04495
1.02753
1.00958
0.993053
0.978976
0.96766
0.959012
0.952705
0.948409
0.945752
1.06765
1.07189
1.07283
1.06964
1.06021
1.04535
1.0273
1.00884
0.991996
0.977746
0.966365
0.957717
0.951449
0.947209
0.944612
1.06914
1.07354
1.07453
1.07116
1.06125
1.04571
1.027
1.00805
0.990878
0.976463
0.965025
0.956388
0.950165
0.945985
0.943453
1.07068
1.07525
1.07629
1.07272
1.06228
1.04604
1.02665
1.00718
0.989697
0.975127
0.963643
0.955025
0.948854
0.94474
0.942277
1.07226
1.077
1.0781
1.07431
1.06332
1.04632
1.02623
1.00624
0.988449
0.973735
0.962215
0.953625
0.947515
0.943472
0.941082
1.0739
1.07881
1.07997
1.07594
1.06434
1.04656
1.02573
1.00522
0.987133
0.972286
0.960743
0.952191
0.946148
0.942183
0.93987
1.07558
1.08069
1.0819
1.0776
1.06535
1.04673
1.02516
1.00413
0.985745
0.970778
0.959224
0.95072
0.944753
0.940871
0.938639
1.07731
1.08262
1.0839
1.07929
1.06634
1.04685
1.0245
1.00294
0.984284
0.969212
0.957659
0.949214
0.94333
0.939537
0.93739
1.07909
1.08462
1.08595
1.08101
1.06731
1.04689
1.02375
1.00167
0.982747
0.967584
0.956046
0.947671
0.941879
0.93818
0.936123
1.08093
1.08669
1.08808
1.08277
1.06825
1.04686
1.0229
1.00031
0.981132
0.965895
0.954386
0.946093
0.9404
0.936802
0.934839
1.08283
1.08883
1.09027
1.08455
1.06915
1.04674
1.02195
0.998848
0.979436
0.964143
0.952678
0.944477
0.938893
0.935401
0.933536
1.08479
1.09105
1.09254
1.08635
1.07001
1.04652
1.02088
0.997285
0.977658
0.962327
0.950922
0.942826
0.937358
0.933979
0.932215
1.08682
1.09335
1.09488
1.08818
1.07081
1.0462
1.0197
0.995616
0.975795
0.960446
0.949118
0.941138
0.935796
0.932535
0.930877
1.08891
1.09574
1.09729
1.09002
1.07156
1.04576
1.01839
0.993838
0.973846
0.9585
0.947265
0.939414
0.934206
0.93107
0.929522
1.09107
1.09822
1.09978
1.09187
1.07223
1.0452
1.01695
0.991946
0.971808
0.956488
0.945364
0.937654
0.932589
0.929583
0.928149
1.09331
1.10079
1.10235
1.09372
1.07281
1.0445
1.01537
0.989937
0.969681
0.954411
0.943414
0.935859
0.930946
0.928076
0.92676
1.09562
1.10346
1.105
1.09558
1.0733
1.04365
1.01364
0.987806
0.967463
0.952266
0.941417
0.934029
0.929276
0.926548
0.925353
1.09802
1.10624
1.10773
1.09742
1.07367
1.04264
1.01175
0.985552
0.965153
0.950056
0.939372
0.932165
0.927581
0.925
0.923931
1.1005
1.10913
1.11054
1.09924
1.07392
1.04146
1.0097
0.98317
0.962751
0.94778
0.93728
0.930267
0.92586
0.923432
0.922492
1.10307
1.11214
1.11343
1.10102
1.07402
1.04008
1.00748
0.980658
0.960256
0.945438
0.935143
0.928336
0.924114
0.921845
0.921038
1.10573
1.11527
1.11639
1.10275
1.07396
1.0385
1.00508
0.978015
0.957668
0.943031
0.93296
0.926372
0.922345
0.920239
0.919568
1.1085
1.11854
1.11944
1.10443
1.07371
1.0367
1.0025
0.975238
0.954987
0.940561
0.930733
0.924377
0.920552
0.918615
0.918082
1.11138
1.12196
1.12255
1.10601
1.07326
1.03467
0.999725
0.972327
0.952215
0.938027
0.928463
0.922352
0.918736
0.916972
0.916582
1.11437
1.12552
1.12573
1.1075
1.07258
1.03239
0.996757
0.969281
0.949352
0.935433
0.926152
0.920298
0.916899
0.915313
0.915068
1.11749
1.12924
1.12897
1.10886
1.07164
1.02985
0.993588
0.966101
0.946399
0.932779
0.9238
0.918215
0.915041
0.913636
0.913539
1.12074
1.13312
1.13225
1.11006
1.07043
1.02704
0.990216
0.962787
0.943359
0.930067
0.921411
0.916106
0.913163
0.911944
0.911997
1.12412
1.13718
1.13557
1.11109
1.0689
1.02393
0.986639
0.959341
0.940234
0.9273
0.918984
0.913972
0.911266
0.910236
0.910442
1.12766
1.14141
1.13891
1.11189
1.06704
1.02052
0.982855
0.955767
0.937028
0.92448
0.916524
0.911814
0.909351
0.908514
0.908874
1.13137
1.14584
1.14224
1.11245
1.06482
1.0168
0.978864
0.952067
0.933742
0.92161
0.914032
0.909634
0.907419
0.906778
0.907293
1.13525
1.15046
1.14555
1.11271
1.0622
1.01275
0.97467
0.948245
0.930381
0.918694
0.91151
0.907434
0.905472
0.905029
0.905701
1.13932
1.15528
1.14881
1.11264
1.05916
1.00837
0.970275
0.944308
0.92695
0.915733
0.908962
0.905216
0.903511
0.903267
0.904097
1.1436
1.1603
1.15197
1.11218
1.05565
1.00365
0.965685
0.940261
0.923452
0.912733
0.906389
0.90298
0.901536
0.901494
0.902483
1.1481
1.16553
1.15501
1.11129
1.05167
0.99859
0.960908
0.93611
0.919893
0.909697
0.903794
0.90073
0.89955
0.89971
0.900858
1.15286
1.17095
1.15788
1.10991
1.04717
0.993192
0.955953
0.931865
0.916278
0.906629
0.901181
0.898468
0.897553
0.897917
0.899224
1.15788
1.17657
1.16051
1.10798
1.04214
0.987458
0.950831
0.927532
0.912613
0.903534
0.898553
0.896194
0.895547
0.896115
0.89758
1.1632
1.18237
1.16286
1.10544
1.03654
0.981398
0.945558
0.923122
0.908905
0.900416
0.895913
0.893913
0.893534
0.894305
0.895927
1.16884
1.18834
1.16485
1.10223
1.03037
0.975023
0.940147
0.918643
0.905159
0.89728
0.893263
0.891625
0.891515
0.892487
0.894265
1.17484
1.19444
1.16639
1.09829
1.0236
0.968352
0.934616
0.914106
0.901382
0.894132
0.890609
0.889333
0.88949
0.890664
0.892596
1.18123
1.20065
1.16741
1.09354
1.01624
0.961409
0.928984
0.909521
0.897582
0.890975
0.887953
0.88704
0.887463
0.888835
0.890919
1.18804
1.20693
1.1678
1.08793
1.00829
0.95422
0.923271
0.904898
0.893765
0.887817
0.885299
0.884747
0.885434
0.887002
0.889235
1.19531
1.21321
1.16745
1.0814
0.999753
0.94682
0.917496
0.900249
0.88994
0.884662
0.88265
0.882457
0.883404
0.885165
0.887544
1.20309
1.21942
1.16626
1.07389
0.990654
0.939246
0.911682
0.895584
0.886114
0.881517
0.88001
0.880172
0.881375
0.883326
0.885847
1.21142
1.22547
1.16408
1.06536
0.981028
0.931541
0.905849
0.890912
0.882295
0.878386
0.877383
0.877894
0.879349
0.881484
0.884144
1.22034
1.23126
1.16079
1.05576
0.970922
0.923752
0.900018
0.886246
0.878492
0.875276
0.874772
0.875626
0.877327
0.879642
0.882435
1.2299
1.23666
1.15624
1.04507
0.960396
0.915927
0.894207
0.881596
0.874713
0.872193
0.87218
0.87337
0.87531
0.877798
0.88072
1.24012
1.24151
1.15029
1.03329
0.949525
0.908115
0.888435
0.876971
0.870968
0.869143
0.869612
0.871128
0.873299
0.875955
0.878999
1.25106
1.24562
1.14279
1.02043
0.9384
0.900366
0.882718
0.872383
0.867264
0.86613
0.86707
0.868902
0.871296
0.874112
0.877274
1.26273
1.24878
1.13358
1.00655
0.927123
0.892727
0.877069
0.867842
0.863612
0.863162
0.864558
0.866694
0.869301
0.87227
0.875543
1.27514
1.25074
1.12253
0.991702
0.915808
0.88524
0.871501
0.86336
0.860021
0.860244
0.86208
0.864505
0.867316
0.87043
0.873808
1.28829
1.25121