1.275 	2.15223e-18 	-2.76991e-20 	-0.0325002 	-0.000472505 	-2.04944e-22
1.825 	2.15223e-18 	-1.39322e-20 	-0.0071414 	-0.00307562 	1.80598e-21
2.375 	2.15223e-18 	-2.66896e-23 	0.13754 	-0.004032 	-7.41215e-22
