1.45 	0 	0 	0.75009 	-0.0195115 	9.8843e-22
2.35 	0 	0 	0.876064 	-0.00498516 	-1.01171e-21
