1.45 	0 	0 	-0.280193
2.35 	0 	0 	-0.0473761
