1.45 	0 	0 	0.000551283 	-0.00339897 	3.97061e-21
2.35 	0 	0 	0.0972676 	-0.00790085 	2.15613e-21
