1.45 	0 	0 	-0.114736
2.35 	0 	0 	0.0288043
