/*--------------------------------*- C++ -*----------------------------------*\
  =========                 |
  \\      /  F ield         | OpenFOAM: The Open Source CFD Toolbox
   \\    /   O peration     | Website:  https://openfoam.org
    \\  /    A nd           | Version:  6.0
     \\/     M anipulation  |
\*---------------------------------------------------------------------------*/
FoamFile
{
    version     2.0;
    format      ascii;
    class       volScalarField;
    location    "5.2";
    object      p;
}
// * * * * * * * * * * * * * * * * * * * * * * * * * * * * * * * * * * * * * //

dimensions      [0 2 -2 0 0 0 0];

internalField   nonuniform List<scalar> 
34500
(
1.00594
1.00597
1.00582
1.0055
1.00504
1.00448
1.00386
1.00323
1.00261
1.00204
1.00152
1.00107
1.00069
1.00042
1.00026
1.00594
1.006
1.00591
1.00567
1.0053
1.00481
1.00426
1.00366
1.00305
1.00245
1.00189
1.00138
1.00091
1.00058
1.00033
1.00594
1.00599
1.00588
1.00562
1.00521
1.0047
1.00412
1.0035
1.00288
1.00229
1.00174
1.00125
1.00081
1.00052
1.00028
1.00595
1.00599
1.00586
1.00557
1.00515
1.00461
1.00402
1.00339
1.00277
1.00218
1.00165
1.00118
1.00077
1.0005
1.00028
1.00595
1.006
1.00587
1.00559
1.00518
1.00465
1.00406
1.00344
1.00282
1.00223
1.00169
1.00121
1.00079
1.00052
1.0003
1.00596
1.00601
1.00589
1.00562
1.00522
1.0047
1.00412
1.0035
1.00289
1.00229
1.00174
1.00125
1.00081
1.00053
1.00029
1.00597
1.00602
1.00591
1.00564
1.00523
1.00472
1.00414
1.00352
1.0029
1.0023
1.00174
1.00124
1.00081
1.00052
1.00028
1.00598
1.00603
1.00592
1.00564
1.00524
1.00472
1.00414
1.00352
1.0029
1.00229
1.00173
1.00123
1.0008
1.00051
1.00028
1.006
1.00605
1.00593
1.00566
1.00525
1.00473
1.00415
1.00353
1.0029
1.0023
1.00173
1.00123
1.0008
1.0005
1.00027
1.00601
1.00606
1.00595
1.00568
1.00527
1.00475
1.00417
1.00354
1.00292
1.00231
1.00174
1.00124
1.0008
1.0005
1.00027
1.00602
1.00608
1.00597
1.0057
1.00529
1.00478
1.00419
1.00357
1.00294
1.00233
1.00176
1.00125
1.00081
1.0005
1.00026
1.00604
1.0061
1.00599
1.00572
1.00532
1.00481
1.00423
1.0036
1.00297
1.00236
1.00178
1.00127
1.00082
1.0005
1.00025
1.00606
1.00612
1.00601
1.00575
1.00535
1.00484
1.00426
1.00364
1.003
1.00238
1.0018
1.00128
1.00083
1.0005
1.00024
1.00608
1.00614
1.00603
1.00577
1.00538
1.00487
1.00429
1.00367
1.00303
1.00241
1.00182
1.00129
1.00083
1.00049
1.00022
1.0061
1.00616
1.00605
1.0058
1.0054
1.0049
1.00432
1.00369
1.00305
1.00242
1.00183
1.00129
1.00082
1.00047
1.0002
1.00612
1.00618
1.00608
1.00582
1.00543
1.00492
1.00434
1.00371
1.00307
1.00243
1.00183
1.00129
1.00082
1.00046
1.00018
1.00614
1.00621
1.0061
1.00585
1.00545
1.00495
1.00436
1.00373
1.00308
1.00244
1.00183
1.00129
1.00081
1.00044
1.00016
1.00617
1.00623
1.00613
1.00587
1.00548
1.00497
1.00438
1.00375
1.00309
1.00245
1.00184
1.00129
1.0008
1.00043
1.00014
1.00619
1.00626
1.00616
1.0059
1.0055
1.00499
1.0044
1.00377
1.00311
1.00246
1.00184
1.00129
1.0008
1.00042
1.00012
1.00622
1.00629
1.00619
1.00593
1.00553
1.00502
1.00443
1.00379
1.00313
1.00247
1.00185
1.00129
1.00079
1.0004
1.0001
1.00625
1.00632
1.00622
1.00596
1.00556
1.00505
1.00446
1.00381
1.00315
1.00249
1.00186
1.00129
1.00079
1.00039
1.00008
1.00628
1.00635
1.00625
1.006
1.0056
1.00509
1.00449
1.00384
1.00317
1.00251
1.00187
1.00129
1.00078
1.00038
1.00006
1.00631
1.00638
1.00628
1.00603
1.00563
1.00512
1.00453
1.00387
1.00319
1.00252
1.00188
1.00129
1.00078
1.00036
1.00003
1.00634
1.00641
1.00632
1.00607
1.00567
1.00516
1.00456
1.0039
1.00322
1.00254
1.00189
1.00129
1.00077
1.00034
1.00001
1.00638
1.00645
1.00635
1.0061
1.0057
1.00519
1.00459
1.00393
1.00324
1.00255
1.00189
1.00129
1.00075
1.00032
0.999979
1.00641
1.00649
1.00639
1.00614
1.00574
1.00522
1.00462
1.00395
1.00325
1.00256
1.00189
1.00128
1.00074
1.0003
0.999952
1.00645
1.00652
1.00643
1.00618
1.00578
1.00526
1.00465
1.00397
1.00327
1.00257
1.0019
1.00128
1.00073
1.00028
0.999924
1.00649
1.00656
1.00647
1.00622
1.00581
1.00529
1.00467
1.004
1.00329
1.00258
1.0019
1.00127
1.00072
1.00026
0.999895
1.00653
1.0066
1.00651
1.00626
1.00585
1.00532
1.00471
1.00402
1.00331
1.00259
1.0019
1.00127
1.0007
1.00023
0.999865
1.00657
1.00665
1.00655
1.0063
1.00589
1.00536
1.00474
1.00405
1.00333
1.00261
1.00191
1.00126
1.00069
1.00021
0.999835
1.00661
1.00669
1.00659
1.00634
1.00593
1.0054
1.00477
1.00408
1.00335
1.00262
1.00191
1.00126
1.00068
1.00019
0.999803
1.00666
1.00673
1.00664
1.00639
1.00597
1.00544
1.00481
1.00411
1.00337
1.00263
1.00191
1.00125
1.00066
1.00016
0.99977
1.0067
1.00678
1.00669
1.00643
1.00602
1.00548
1.00484
1.00414
1.00339
1.00264
1.00192
1.00124
1.00064
1.00014
0.999736
1.00675
1.00683
1.00673
1.00648
1.00606
1.00552
1.00488
1.00417
1.00341
1.00266
1.00192
1.00124
1.00063
1.00011
0.999701
1.0068
1.00688
1.00678
1.00653
1.00611
1.00557
1.00492
1.0042
1.00343
1.00267
1.00192
1.00123
1.00061
1.00008
0.999665
1.00685
1.00693
1.00683
1.00658
1.00616
1.00561
1.00495
1.00422
1.00345
1.00268
1.00192
1.00122
1.00059
1.00005
0.999628
1.0069
1.00698
1.00689
1.00663
1.00621
1.00565
1.00499
1.00425
1.00347
1.00269
1.00192
1.00121
1.00057
1.00002
0.99959
1.00695
1.00703
1.00694
1.00668
1.00625
1.0057
1.00503
1.00428
1.00349
1.0027
1.00192
1.00119
1.00054
0.99999
0.999551
1.007
1.00709
1.00699
1.00673
1.0063
1.00574
1.00507
1.00431
1.00351
1.00271
1.00192
1.00118
1.00052
0.999958
0.999511
1.00706
1.00715
1.00705
1.00679
1.00636
1.00579
1.00511
1.00435
1.00354
1.00272
1.00192
1.00117
1.0005
0.999925
0.999469
1.00712
1.0072
1.00711
1.00685
1.00641
1.00584
1.00515
1.00438
1.00356
1.00273
1.00191
1.00116
1.00047
0.99989
0.999427
1.00717
1.00726
1.00717
1.0069
1.00646
1.00588
1.00519
1.00441
1.00358
1.00274
1.00191
1.00114
1.00045
0.999855
0.999383
1.00723
1.00733
1.00723
1.00696
1.00652
1.00593
1.00523
1.00444
1.0036
1.00275
1.00191
1.00113
1.00042
0.999818
0.999338
1.0073
1.00739
1.00729
1.00702
1.00657
1.00598
1.00527
1.00447
1.00362
1.00276
1.00191
1.00111
1.00039
0.99978
0.999292
1.00736
1.00745
1.00736
1.00708
1.00663
1.00604
1.00532
1.00451
1.00364
1.00276
1.0019
1.00109
1.00037
0.999741
0.999244
1.00742
1.00752
1.00742
1.00715
1.00669
1.00609
1.00536
1.00454
1.00366
1.00277
1.0019
1.00108
1.00034
0.999702
0.999196
1.00749
1.00759
1.00749
1.00721
1.00675
1.00614
1.0054
1.00457
1.00369
1.00278
1.00189
1.00106
1.00031
0.999661
0.999146
1.00756
1.00766
1.00756
1.00728
1.00681
1.0062
1.00545
1.00461
1.00371
1.00279
1.00189
1.00104
1.00028
0.999619
0.999095
1.00763
1.00773
1.00763
1.00735
1.00688
1.00625
1.0055
1.00464
1.00373
1.0028
1.00188
1.00102
1.00024
0.999575
0.999042
1.0077
1.0078
1.0077
1.00742
1.00694
1.00631
1.00554
1.00468
1.00375
1.00281
1.00188
1.001
1.00021
0.999531
0.998988
1.00778
1.00788
1.00778
1.00749
1.00701
1.00637
1.00559
1.00472
1.00378
1.00282
1.00187
1.00098
1.00018
0.999485
0.998933
1.00785
1.00795
1.00785
1.00756
1.00708
1.00643
1.00564
1.00475
1.0038
1.00283
1.00186
1.00096
1.00014
0.999437
0.998875
1.00793
1.00803
1.00793
1.00764
1.00714
1.00649
1.00569
1.00479
1.00382
1.00284
1.00186
1.00094
1.0001
0.999388
0.998817
1.00801
1.00811
1.00801
1.00771
1.00722
1.00655
1.00575
1.00483
1.00385
1.00284
1.00185
1.00091
1.00007
0.999338
0.998757
1.00809
1.0082
1.00809
1.00779
1.00729
1.00662
1.0058
1.00487
1.00387
1.00285
1.00184
1.00089
1.00003
0.999286
0.998695
1.00817
1.00828
1.00817
1.00787
1.00736
1.00668
1.00585
1.00491
1.0039
1.00286
1.00183
1.00086
0.999986
0.999233
0.998631
1.00826
1.00837
1.00826
1.00795
1.00744
1.00675
1.00591
1.00495
1.00392
1.00287
1.00182
1.00084
0.999944
0.999178
0.998566
1.00834
1.00845
1.00835
1.00804
1.00751
1.00682
1.00596
1.00499
1.00395
1.00287
1.00181
1.00081
0.999901
0.999122
0.998499
1.00843
1.00854
1.00843
1.00812
1.00759
1.00688
1.00602
1.00503
1.00397
1.00288
1.0018
1.00078
0.999857
0.999064
0.998431
1.00852
1.00863
1.00853
1.00821
1.00767
1.00695
1.00607
1.00507
1.004
1.00289
1.00179
1.00075
0.999811
0.999005
0.99836
1.00861
1.00873
1.00862
1.0083
1.00775
1.00703
1.00613
1.00512
1.00402
1.00289
1.00178
1.00072
0.999764
0.998943
0.998288
1.00871
1.00882
1.00871
1.00839
1.00784
1.0071
1.00619
1.00516
1.00405
1.0029
1.00176
1.00069
0.999716
0.998881
0.998214
1.0088
1.00892
1.00881
1.00848
1.00792
1.00717
1.00625
1.00521
1.00407
1.00291
1.00175
1.00066
0.999666
0.998816
0.998138
1.0089
1.00902
1.00891
1.00858
1.00801
1.00725
1.00631
1.00525
1.0041
1.00291
1.00174
1.00062
0.999615
0.99875
0.99806
1.009
1.00912
1.00901
1.00867
1.0081
1.00733
1.00638
1.0053
1.00412
1.00292
1.00172
1.00059
0.999562
0.998683
0.99798
1.0091
1.00923
1.00911
1.00877
1.00819
1.0074
1.00644
1.00534
1.00415
1.00292
1.0017
1.00055
0.999508
0.998613
0.997898
1.00921
1.00933
1.00922
1.00887
1.00828
1.00748
1.00651
1.00539
1.00418
1.00293
1.00169
1.00052
0.999452
0.998541
0.997814
1.00931
1.00944
1.00932
1.00897
1.00837
1.00757
1.00657
1.00544
1.0042
1.00293
1.00167
1.00048
0.999395
0.998468
0.997728
1.00942
1.00955
1.00943
1.00908
1.00847
1.00765
1.00664
1.00548
1.00423
1.00294
1.00165
1.00044
0.999336
0.998393
0.99764
1.00953
1.00967
1.00954
1.00919
1.00857
1.00774
1.00671
1.00553
1.00426
1.00294
1.00164
1.0004
0.999276
0.998315
0.997549
1.00965
1.00978
1.00966
1.0093
1.00867
1.00782
1.00678
1.00558
1.00429
1.00295
1.00162
1.00036
0.999213
0.998236
0.997456
1.00976
1.0099
1.00977
1.00941
1.00877
1.00791
1.00685
1.00564
1.00431
1.00295
1.0016
1.00031
0.99915
0.998155
0.997361
1.00988
1.01002
1.00989
1.00952
1.00887
1.008
1.00692
1.00569
1.00434
1.00296
1.00158
1.00027
0.999084
0.998071
0.997263
1.01
1.01014
1.01001
1.00964
1.00898
1.00809
1.007
1.00574
1.00437
1.00296
1.00155
1.00022
0.999017
0.997986
0.997163
1.01012
1.01027
1.01014
1.00975
1.00909
1.00819
1.00707
1.00579
1.0044
1.00296
1.00153
1.00018
0.998947
0.997898
0.997061
1.01025
1.01039
1.01026
1.00987
1.0092
1.00828
1.00715
1.00585
1.00443
1.00297
1.00151
1.00013
0.998876
0.997808
0.996956
1.01038
1.01052
1.01039
1.01
1.00931
1.00838
1.00723
1.0059
1.00446
1.00297
1.00148
1.00008
0.998803
0.997715
0.996848
1.01051
1.01066
1.01052
1.01012
1.00942
1.00848
1.00731
1.00596
1.00449
1.00297
1.00146
1.00003
0.998728
0.997621
0.996738
1.01064
1.01079
1.01066
1.01025
1.00954
1.00858
1.00739
1.00602
1.00452
1.00297
1.00143
0.999975
0.998651
0.997524
0.996625
1.01077
1.01093
1.01079
1.01038
1.00966
1.00868
1.00747
1.00607
1.00455
1.00297
1.00141
0.999921
0.998572
0.997424
0.996509
1.01091
1.01107
1.01093
1.01051
1.00978
1.00879
1.00755
1.00613
1.00458
1.00298
1.00138
0.999865
0.998491
0.997322
0.99639
1.01105
1.01122
1.01107
1.01065
1.00991
1.0089
1.00764
1.00619
1.00461
1.00298
1.00135
0.999807
0.998407
0.997217
0.996269
1.0112
1.01136
1.01122
1.01079
1.01003
1.00901
1.00773
1.00625
1.00464
1.00298
1.00132
0.999748
0.998322
0.99711
0.996144
1.01134
1.01151
1.01137
1.01093
1.01016
1.00912
1.00782
1.00631
1.00468
1.00298
1.00129
0.999687
0.998234
0.997
0.996017
1.01149
1.01166
1.01152
1.01107
1.01029
1.00923
1.00791
1.00638
1.00471
1.00298
1.00125
0.999624
0.998144
0.996887
0.995886
1.01164
1.01182
1.01167
1.01122
1.01043
1.00935
1.008
1.00644
1.00474
1.00298
1.00122
0.999559
0.998052
0.996772
0.995752
1.0118
1.01198
1.01183
1.01137
1.01056
1.00946
1.00809
1.00651
1.00477
1.00297
1.00119
0.999493
0.997957
0.996653
0.995615
1.01196
1.01214
1.01199
1.01152
1.0107
1.00958
1.00819
1.00657
1.0048
1.00297
1.00115
0.999425
0.99786
0.996532
0.995475
1.01212
1.0123
1.01215
1.01168
1.01084
1.00971
1.00828
1.00664
1.00484
1.00297
1.00111
0.999354
0.99776
0.996408
0.995331
1.01228
1.01247
1.01231
1.01184
1.01099
1.00983
1.00838
1.00671
1.00487
1.00297
1.00107
0.999282
0.997657
0.99628
0.995184
1.01245
1.01264
1.01248
1.012
1.01114
1.00996
1.00848
1.00677
1.0049
1.00296
1.00103
0.999208
0.997552
0.99615
0.995034
1.01262
1.01282
1.01266
1.01216
1.01129
1.01009
1.00859
1.00684
1.00494
1.00296
1.00099
0.999131
0.997444
0.996016
0.994879
1.0128
1.013
1.01283
1.01233
1.01144
1.01022
1.00869
1.00692
1.00497
1.00296
1.00095
0.999053
0.997334
0.995879
0.994721
1.01297
1.01318
1.01301
1.0125
1.0116
1.01035
1.0088
1.00699
1.00501
1.00295
1.00091
0.998972
0.99722
0.995738
0.99456
1.01315
1.01336
1.01319
1.01268
1.01176
1.01049
1.0089
1.00706
1.00504
1.00294
1.00086
0.998888
0.997104
0.995594
0.994394
1.01334
1.01355
1.01338
1.01286
1.01192
1.01063
1.00901
1.00713
1.00508
1.00294
1.00081
0.998803
0.996984
0.995447
0.994225
1.01353
1.01374
1.01357
1.01304
1.01208
1.01077
1.00913
1.00721
1.00511
1.00293
1.00076
0.998715
0.996862
0.995296
0.994052
1.01372
1.01394
1.01376
1.01322
1.01225
1.01092
1.00924
1.00729
1.00515
1.00292
1.00071
0.998624
0.996736
0.995141
0.993874
1.01391
1.01414
1.01396
1.01341
1.01243
1.01107
1.00935
1.00736
1.00518
1.00291
1.00066
0.998531
0.996607
0.994982
0.993693
1.01411
1.01434
1.01416
1.01361
1.0126
1.01122
1.00947
1.00744
1.00522
1.0029
1.00061
0.998436
0.996475
0.99482
0.993507
1.01431
1.01455
1.01437
1.0138
1.01278
1.01137
1.00959
1.00752
1.00525
1.00289
1.00055
0.998338
0.996339
0.994654
0.993317
1.01452
1.01476
1.01458
1.014
1.01296
1.01153
1.00971
1.0076
1.00529
1.00288
1.00049
0.998237
0.9962
0.994484
0.993122
1.01473
1.01498
1.01479
1.01421
1.01315
1.01169
1.00984
1.00768
1.00532
1.00287
1.00043
0.998133
0.996058
0.994309
0.992923
1.01494
1.0152
1.01501
1.01442
1.01334
1.01185
1.00996
1.00777
1.00536
1.00285
1.00037
0.998026
0.995911
0.994131
0.992719
1.01516
1.01542
1.01523
1.01463
1.01353
1.01201
1.01009
1.00785
1.00539
1.00284
1.00031
0.997916
0.995761
0.993948
0.992511
1.01538
1.01565
1.01546
1.01485
1.01373
1.01218
1.01022
1.00794
1.00543
1.00282
1.00024
0.997803
0.995607
0.99376
0.992297
1.01561
1.01588
1.01569
1.01507
1.01393
1.01235
1.01036
1.00802
1.00547
1.00281
1.00017
0.997687
0.99545
0.993568
0.992079
1.01584
1.01612
1.01592
1.01529
1.01414
1.01253
1.01049
1.00811
1.0055
1.00279
1.0001
0.997568
0.995288
0.993372
0.991856
1.01608
1.01636
1.01616
1.01552
1.01435
1.01271
1.01063
1.0082
1.00554
1.00277
1.00003
0.997445
0.995122
0.993171
0.991627
1.01632
1.01661
1.01641
1.01576
1.01456
1.01289
1.01077
1.00829
1.00557
1.00275
0.999951
0.997319
0.994952
0.992965
0.991394
1.01656
1.01686
1.01666
1.016
1.01478
1.01307
1.01091
1.00838
1.00561
1.00273
0.999872
0.997189
0.994777
0.992754
0.991155
1.01681
1.01712
1.01691
1.01624
1.015
1.01326
1.01106
1.00848
1.00564
1.0027
0.999791
0.997056
0.994598
0.992537
0.99091
1.01707
1.01738
1.01717
1.01649
1.01523
1.01346
1.01121
1.00857
1.00568
1.00268
0.999707
0.996918
0.994414
0.992316
0.99066
1.01733
1.01764
1.01743
1.01674
1.01546
1.01365
1.01136
1.00867
1.00571
1.00265
0.999621
0.996777
0.994226
0.99209
0.990405
1.01759
1.01792
1.0177
1.017
1.01569
1.01385
1.01151
1.00876
1.00575
1.00262
0.999531
0.996632
0.994033
0.991858
0.990143
1.01786
1.01819
1.01798
1.01727
1.01593
1.01405
1.01166
1.00886
1.00578
1.00259
0.999438
0.996483
0.993835
0.99162
0.989876
1.01814
1.01848
1.01826
1.01754
1.01618
1.01426
1.01182
1.00896
1.00582
1.00256
0.999343
0.996329
0.993632
0.991377
0.989602
1.01842
1.01877
1.01855
1.01781
1.01643
1.01447
1.01198
1.00906
1.00585
1.00252
0.999243
0.996172
0.993423
0.991128
0.989323
1.0187
1.01906
1.01884
1.01809
1.01668
1.01469
1.01215
1.00916
1.00588
1.00249
0.999141
0.996009
0.99321
0.990874
0.989037
1.01899
1.01936
1.01914
1.01838
1.01694
1.01491
1.01231
1.00926
1.00592
1.00245
0.999035
0.995842
0.99299
0.990613
0.988744
1.01929
1.01967
1.01944
1.01867
1.0172
1.01513
1.01248
1.00937
1.00595
1.00241
0.998925
0.99567
0.992766
0.990346
0.988446
1.01959
1.01998
1.01975
1.01897
1.01747
1.01536
1.01265
1.00947
1.00598
1.00237
0.998812
0.995494
0.992535
0.990073
0.98814
1.0199
1.0203
1.02007
1.01927
1.01775
1.01559
1.01283
1.00958
1.00601
1.00232
0.998694
0.995312
0.992299
0.989793
0.987828
1.02021
1.02062
1.02039
1.01958
1.01803
1.01583
1.013
1.00968
1.00604
1.00227
0.998573
0.995125
0.992056
0.989506
0.987509
1.02053
1.02095
1.02072
1.0199
1.01832
1.01607
1.01318
1.00979
1.00607
1.00222
0.998447
0.994933
0.991808
0.989213
0.987182
1.02086
1.02129
1.02106
1.02022
1.01861
1.01631
1.01336
1.0099
1.00609
1.00217
0.998317
0.994735
0.991553
0.988913
0.986849
1.02119
1.02163
1.0214
1.02055
1.01891
1.01656
1.01355
1.01001
1.00612
1.00211
0.998182
0.994531
0.991291
0.988606
0.986508
1.02153
1.02198
1.02175
1.02088
1.01921
1.01682
1.01374
1.01012
1.00615
1.00205
0.998043
0.994321
0.991023
0.988292
0.986159
1.02188
1.02234
1.02211
1.02123
1.01952
1.01708
1.01393
1.01023
1.00617
1.00199
0.997899
0.994106
0.990747
0.98797
0.985803
1.02223
1.02271
1.02247
1.02158
1.01984
1.01734
1.01413
1.01034
1.00619
1.00192
0.99775
0.993884
0.990465
0.987641
0.985439
1.02259
1.02308
1.02284
1.02193
1.02016
1.01761
1.01432
1.01045
1.00621
1.00185
0.997595
0.993655
0.990176
0.987303
0.985068
1.02296
1.02346
1.02322
1.0223
1.02049
1.01789
1.01452
1.01057
1.00623
1.00178
0.997435
0.99342
0.989879
0.986959
0.984688
1.02334
1.02385
1.02361
1.02267
1.02083
1.01817
1.01473
1.01068
1.00625
1.0017
0.997269
0.993178
0.989574
0.986605
0.984299
1.02372
1.02425
1.02401
1.02305
1.02117
1.01845
1.01493
1.01079
1.00627
1.00162
0.997098
0.992929
0.989262
0.986244
0.983903
1.02411
1.02465
1.02441
1.02344
1.02152
1.01874
1.01514
1.01091
1.00628
1.00153
0.99692
0.992673
0.988941
0.985874
0.983498
1.02451
1.02507
1.02482
1.02384
1.02188
1.01904
1.01536
1.01102
1.00629
1.00144
0.996736
0.992409
0.988612
0.985496
0.983084
1.02491
1.02549
1.02524
1.02424
1.02224
1.01934
1.01557
1.01114
1.0063
1.00135
0.996546
0.992137
0.988275
0.985109
0.982661
1.02533
1.02592
1.02567
1.02465
1.02261
1.01964
1.01579
1.01125
1.00631
1.00125
0.996348
0.991858
0.987929
0.984713
0.982229
1.02575
1.02636
1.02611
1.02508
1.02299
1.01995
1.01601
1.01137
1.00631
1.00114
0.996144
0.99157
0.987574
0.984307
0.981788
1.02618
1.02681
1.02656
1.02551
1.02338
1.02027
1.01624
1.01149
1.00631
1.00103
0.995932
0.991273
0.98721
0.983892
0.981337
1.02662
1.02727
1.02702
1.02595
1.02377
1.0206
1.01646
1.0116
1.00631
1.00091
0.995713
0.990968
0.986836
0.983468
0.980877
1.02707
1.02773
1.02749
1.0264
1.02418
1.02093
1.01669
1.01172
1.0063
1.00079
0.995485
0.990653
0.986453
0.983034
0.980407
1.02753
1.02821
1.02797
1.02686
1.02459
1.02126
1.01693
1.01183
1.00629
1.00066
0.99525
0.99033
0.98606
0.982589
0.979927
1.02799
1.0287
1.02845
1.02733
1.02501
1.0216
1.01716
1.01194
1.00627
1.00052
0.995005
0.989996
0.985657
0.982134
0.979437
1.02847
1.0292
1.02895
1.0278
1.02544
1.02195
1.0174
1.01206
1.00626
1.00038
0.994752
0.989653
0.985243
0.981669
0.978937
1.02896
1.02971
1.02946
1.02829
1.02588
1.0223
1.01764
1.01217
1.00623
1.00023
0.99449
0.989299
0.984819
0.981193
0.978426
1.02946
1.03023
1.02999
1.0288
1.02632
1.02266
1.01789
1.01228
1.0062
1.00007
0.994218
0.988934
0.984383
0.980707
0.977905
1.02997
1.03076
1.03052
1.02931
1.02678
1.02303
1.01814
1.01239
1.00617
0.999903
0.993936
0.988559
0.983936
0.980209
0.977372
1.03049
1.0313
1.03106
1.02983
1.02725
1.0234
1.01839
1.01249
1.00613
0.999728
0.993644
0.988172
0.983478
0.979699
0.976829
1.03102
1.03186
1.03162
1.03036
1.02772
1.02378
1.01864
1.0126
1.00609
0.999545
0.993341
0.987774
0.983008
0.979178
0.976274
1.03156
1.03243
1.03219
1.03091
1.02821
1.02417
1.01889
1.0127
1.00604
0.999351
0.993027
0.987364
0.982526
0.978645
0.975708
1.03211
1.03301
1.03277
1.03147
1.0287
1.02456
1.01915
1.0128
1.00598
0.999149
0.992701
0.986941
0.982031
0.9781
0.975131
1.03268
1.0336
1.03337
1.03204
1.02921
1.02496
1.0194
1.0129
1.00591
0.998936
0.992364
0.986505
0.981523
0.977542
0.974542
1.03325
1.0342
1.03398
1.03262
1.02972
1.02537
1.01966
1.01299
1.00584
0.998712
0.992013
0.986057
0.981002
0.976972
0.97394
1.03384
1.03482
1.0346
1.03322
1.03025
1.02578
1.01992
1.01308
1.00576
0.998477
0.99165
0.985594
0.980468
0.976389
0.973327
1.03445
1.03546
1.03524
1.03383
1.03079
1.0262
1.02019
1.01317
1.00567
0.99823
0.991273
0.985118
0.97992
0.975793
0.972701
1.03506
1.03611
1.03589
1.03446
1.03134
1.02663
1.02045
1.01325
1.00557
0.99797
0.990883
0.984626
0.979357
0.975183
0.972063
1.03569
1.03677
1.03656
1.03509
1.0319
1.02706
1.02071
1.01332
1.00546
0.997698
0.990477
0.984121
0.97878
0.974559
0.971412
1.03633
1.03745
1.03724
1.03575
1.03247
1.0275
1.02098
1.01339
1.00534
0.997412
0.990057
0.983599
0.978189
0.973922
0.970748
1.03699
1.03814
1.03794
1.03642
1.03306
1.02794
1.02124
1.01346
1.00521
0.997112
0.989621
0.983062
0.977582
0.97327
0.970071
1.03767
1.03885
1.03865
1.0371
1.03365
1.0284
1.02151
1.01351
1.00507
0.996797
0.989168
0.982508
0.976959
0.972604
0.96938
1.03835
1.03957
1.03939
1.0378
1.03426
1.02885
1.02177
1.01356
1.00492
0.996467
0.988699
0.981938
0.97632
0.971923
0.968677
1.03906
1.04032
1.04014
1.03852
1.03488
1.02932
1.02203
1.01361
1.00475
0.99612
0.988212
0.98135
0.975665
0.971227
0.967959
1.03978
1.04108
1.0409
1.03925
1.03552
1.02979
1.02229
1.01364
1.00457
0.995756
0.987707
0.980744
0.974993
0.970516
0.967228
1.04051
1.04186
1.04169
1.04
1.03617
1.03027
1.02255
1.01366
1.00437
0.995374
0.987183
0.98012
0.974304
0.969789
0.966482
1.04127
1.04265
1.0425
1.04077
1.03683
1.03075
1.02281
1.01368
1.00416
0.994973
0.986639
0.979477
0.973598
0.969046
0.965722
1.04204
1.04347
1.04332
1.04156
1.0375
1.03124
1.02306
1.01368
1.00393
0.994553
0.986075
0.978814
0.972873
0.968287
0.964947
1.04283
1.04431
1.04417
1.04236
1.03819
1.03174
1.02331
1.01367
1.00368
0.994112
0.98549
0.978131
0.97213
0.967511
0.964158
1.04363
1.04516
1.04504
1.04319
1.03889
1.03224
1.02356
1.01364
1.00342
0.99365
0.984884
0.977428
0.971368
0.966718
0.963353
1.04446
1.04604
1.04593
1.04403
1.03961
1.03274
1.02379
1.01361
1.00313
0.993165
0.984254
0.976703
0.970587
0.965908
0.962534
1.04531
1.04694
1.04684
1.0449
1.04034
1.03325
1.02403
1.01355
1.00282
0.992657
0.983602
0.975956
0.969786
0.965081
0.961698
1.04617
1.04787
1.04777
1.04578
1.04108
1.03376
1.02425
1.01348
1.00249
0.992124
0.982925
0.975188
0.968965
0.964236
0.960847
1.04706
1.04881
1.04873
1.04669
1.04184
1.03428
1.02447
1.0134
1.00214
0.991566
0.982223
0.974396
0.968124
0.963373
0.95998
1.04797
1.04978
1.04972
1.04762
1.04261
1.03479
1.02467
1.01329
1.00176
0.990981
0.981496
0.97358
0.967261
0.962491
0.959097
1.0489
1.05077
1.05073
1.04857
1.0434
1.03531
1.02487
1.01316
1.00136
0.990368
0.980741
0.97274
0.966377
0.96159
0.958198
1.04986
1.05179
1.05176
1.04955
1.0442
1.03584
1.02505
1.01301
1.00093
0.989726
0.97996
0.971876
0.965472
0.960671
0.957281
1.05084
1.05284
1.05283
1.05055
1.04502
1.03636
1.02522
1.01283
1.00047
0.989054
0.979149
0.970985
0.964544
0.959732
0.956349
1.05184
1.05391
1.05392
1.05157
1.04585
1.03688
1.02537
1.01263
0.999974
0.988351
0.978309
0.970069
0.963593
0.958774
0.955399
1.05287
1.05502
1.05504
1.05262
1.04669
1.0374
1.02551
1.01241
0.999449
0.987614
0.977439
0.969126
0.962619
0.957795
0.954432
1.05393
1.05615
1.05619
1.0537
1.04755
1.03791
1.02563
1.01215
0.998891
0.986844
0.976538
0.968155
0.961622
0.956797
0.953447
1.05501
1.05731
1.05737
1.0548
1.04842
1.03842
1.02572
1.01186
0.998296
0.986039
0.975604
0.967157
0.9606
0.955777
0.952445
1.05612
1.0585
1.05859
1.05593
1.04931
1.03893
1.02579
1.01153
0.997663
0.985196
0.974638
0.966129
0.959554
0.954738
0.951426
1.05726
1.05973
1.05984
1.05709
1.05021
1.03943
1.02584
1.01117
0.996991
0.984315
0.973637
0.965072
0.958483
0.953677
0.950389
1.05843
1.06099
1.06113
1.05828
1.05112
1.03992
1.02586
1.01078
0.996277
0.983395
0.972601
0.963985
0.957386
0.952595
0.949333
1.05963
1.06229
1.06245
1.05949
1.05204
1.04039
1.02585
1.01033
0.995519
0.982434
0.971529
0.962868
0.956264
0.951491
0.94826
1.06087
1.06362
1.06381
1.06074
1.05297
1.04086
1.0258
1.00985
0.994715
0.98143
0.970419
0.961719
0.955117
0.950366
0.947168
1.06213
1.06499
1.06521
1.06202
1.05391
1.0413
1.02572
1.00932
0.993863
0.980381
0.969272
0.960538
0.953942
0.949219
0.946059
1.06343
1.0664
1.06665
1.06332
1.05486
1.04173
1.0256
1.00874
0.992961
0.979288
0.968086
0.959325
0.952741
0.94805
0.944931
1.06477
1.06785
1.06813
1.06466
1.05581
1.04214
1.02543
1.0081
0.992005
0.978147
0.966859
0.958079
0.951513
0.946858
0.943784
1.06615
1.06935
1.06966
1.06603
1.05677
1.04251
1.02522
1.00741
0.990996
0.976957
0.965592
0.956799
0.950258
0.945645
0.942619
1.06756
1.07089
1.07124
1.06743
1.05774
1.04286
1.02496
1.00666
0.989928
0.975717
0.964283
0.955485
0.948975
0.944408
0.941435
1.06902
1.07247
1.07286
1.06887
1.0587
1.04318
1.02464
1.00585
0.988801
0.974426
0.962931
0.954137
0.947664
0.94315
0.940233
1.07051
1.07411
1.07453
1.07033
1.05966
1.04346
1.02425
1.00497
0.987611
0.97308
0.961535
0.952754
0.946325
0.941868
0.939012
1.07205
1.07579
1.07625
1.07183
1.06062
1.0437
1.02381
1.00402
0.986358
0.971681
0.960096
0.951335
0.944958
0.940564
0.937773
1.07364
1.07753
1.07802
1.07336
1.06156
1.04388
1.02329
1.00299
0.985036
0.970225
0.958611
0.949881
0.943563
0.939238
0.936514
1.07527
1.07933
1.07985
1.07492
1.0625
1.04402
1.0227
1.00189
0.983645
0.968712
0.95708
0.948391
0.94214
0.937888
0.935237
1.07696
1.08118
1.08174
1.07651
1.06342
1.04409
1.02202
1.00071
0.982182
0.967139
0.955503
0.946864
0.940688
0.936516
0.933942
1.07869
1.0831
1.08369
1.07813
1.06431
1.0441
1.02126
0.999434
0.980645
0.965507
0.953879
0.945302
0.939207
0.935121
0.932627
1.08048
1.08508
1.0857
1.07978
1.06518
1.04403
1.02041
0.998071
0.97903
0.963814
0.952207
0.943702
0.937698
0.933703
0.931295
1.08232
1.08712
1.08777
1.08145
1.06601
1.04389
1.01945
0.996614
0.977337
0.962058
0.950488
0.942066
0.936161
0.932263
0.929943
1.08422
1.08924
1.08991
1.08314
1.06681
1.04365
1.01839
0.995058
0.975561
0.960238
0.94872
0.940393
0.934595
0.9308
0.928573
1.08618
1.09144
1.09212
1.08486
1.06755
1.04331
1.01721
0.993398
0.973703
0.958355
0.946904
0.938684
0.933001
0.929315
0.927185
1.08821
1.09371
1.0944
1.08658
1.06823
1.04286
1.01591
0.991632
0.971759
0.956406
0.945039
0.936939
0.931379
0.927808
0.925779
1.0903
1.09607
1.09675
1.08832
1.06885
1.04229
1.01449
0.989754
0.969729
0.954392
0.943126
0.935157
0.92973
0.926279
0.924354
1.09247
1.09851
1.09917
1.09007
1.06939
1.0416
1.01292
0.98776
0.967609
0.952312
0.941164
0.933339
0.928053
0.924728
0.922911
1.09471
1.10105
1.10166
1.09181
1.06983
1.04076
1.01122
0.985649
0.965399
0.950166
0.939154
0.931486
0.926349
0.923156
0.921451
1.09702
1.10368
1.10423
1.09354
1.07018
1.03976
1.00936
0.983415
0.963098
0.947953
0.937097
0.929597
0.924618
0.921563
0.919973
1.09942
1.10642
1.10688
1.09525
1.0704
1.0386
1.00734
0.981056
0.960705
0.945675
0.934992
0.927675
0.922861
0.919948
0.918478
1.1019
1.10927
1.1096
1.09694
1.07049
1.03726
1.00516
0.978568
0.95822
0.94333
0.93284
0.925718
0.921078
0.918314
0.916966
1.10448
1.11224
1.1124
1.09858
1.07042
1.03572
1.0028
0.975951
0.955642
0.940921
0.930643
0.923728
0.919271
0.916659
0.915437
1.10715
1.11533
1.11526
1.10016
1.07018
1.03398
1.00027
0.9732
0.95297
0.938447
0.928401
0.921706
0.917438
0.914984
0.913892
1.10993
1.11855
1.1182
1.10168
1.06976
1.03201
0.997544
0.970317
0.950207
0.93591
0.926115
0.919653
0.915582
0.91329
0.912331
1.11281
1.12191
1.12119
1.10309
1.06911
1.02981
0.99463
0.967299
0.947353
0.933311
0.923786
0.917569
0.913702
0.911578
0.910754
1.11581
1.12541
1.12425
1.1044
1.06823
1.02735
0.991519
0.964146
0.944408
0.930652
0.921417
0.915457
0.911801
0.909847
0.909162
1.11893
1.12906
1.12735
1.10557
1.06709
1.02462
0.988207
0.96086
0.941375
0.927934
0.919008
0.913316
0.909877
0.908098
0.907554
1.12218
1.13287
1.13049
1.10657
1.06566
1.02162
0.984692
0.957441
0.938256
0.92516
0.916562
0.911149
0.907933
0.906333
0.905932
1.12558
1.13685
1.13365
1.10738
1.06391
1.01832
0.98097
0.953891
0.935054
0.922331
0.91408
0.908956
0.905969
0.90455
0.904295
1.12913
1.141
1.13682
1.10797
1.06182
1.01471
0.977042
0.950214
0.931771
0.919452
0.911565
0.90674
0.903987
0.902752
0.902644
1.13284
1.14534
1.13997
1.10828
1.05935
1.01079
0.972909
0.946413
0.928411
0.916524
0.909019
0.904502
0.901987
0.900939
0.90098
1.13673
1.14985
1.14309
1.10829
1.05648
1.00654
0.968573
0.942493
0.924979
0.913552
0.906444
0.902243
0.89997
0.899111
0.899303
1.14081
1.15456
1.14613
1.10795
1.05318
1.00196
0.964038
0.938459
0.921478
0.910538
0.903843
0.899965
0.897937
0.897269
0.897613
1.1451
1.15946
1.14907
1.10721
1.04941
0.997044
0.959311
0.934319
0.917913
0.907486
0.901219
0.897671
0.89589
0.895414
0.895911
1.14962
1.16454
1.15187
1.10602
1.04515
0.991784
0.954401
0.930079
0.914291
0.9044
0.898574
0.895361
0.89383
0.893546
0.894197
1.15438
1.16982
1.15447
1.10433
1.04037
0.986187
0.949316
0.925748
0.910615
0.901285
0.895912
0.893038
0.891757
0.891667
0.892472
1.15941
1.17527
1.15683
1.10207
1.03505
0.980256
0.944071
0.921333
0.906893
0.898146
0.893235
0.890703
0.889674
0.889776
0.890736
1.16473
1.18088
1.15887
1.09919
1.02916
0.974003
0.938678
0.916846
0.903131
0.894986
0.890548
0.888359
0.88758
0.887876
0.88899
1.17037
1.18664
1.16053
1.09562
1.0227
0.967442
0.933154
0.912294
0.899336
0.891811
0.887852
0.886008
0.885478
0.885965
0.887234
1.17637
1.19252
1.16172
1.0913
1.01564
0.960591
0.927517
0.907689
0.895514
0.888626
0.885151
0.88365
0.883369
0.884047
0.885469
1.18274
1.19849
1.16236
1.08617
1.00799
0.953476
0.921786
0.903042
0.891673
0.885437
0.882448
0.881289
0.881253
0.88212
0.883695
1.18953
1.20448
1.16235
1.08016
0.999742
0.946125
0.915981
0.898363
0.887821
0.882248
0.879748
0.878926
0.879132
0.880186
0.881913
1.19676
1.21046
1.16158
1.07321
0.990921
0.938574
0.910123
0.893662
0.883965
0.879064
0.877052
0.876563
0.877007
0.878245
0.880125
1.20449
1.21633
1.15993
1.06528
0.981547
0.930862
0.904235
0.888952
0.880113
0.875892
0.874363
0.874201
0.874879
0.876299
0.878329
1.21275
1.22202
1.15726
1.05631
0.971658
0.923034
0.898336
0.884243
0.876274
0.872737
0.871686
0.871842
0.87275
0.874349
0.876528
1.22157
1.22741
1.15346
1.04628
0.961303
0.915135
0.892447
0.879545
0.872455
0.869604
0.869022
0.869488
0.87062
0.872395
0.874722
1.231
1.23236
1.14837
1.03515
0.950548
0.907217
0.886588
0.87487
0.868665
0.866497
0.866374
0.867141
0.86849
0.870438
0.872913
1.24107
1.23672
1.14184
1.02294
0.939472
0.899328
0.880777
0.870227
0.864913
0.863423
0.863745
0.864801
0.866363
0.86848
0.8711
1.25179
1.24031
1.13374
1.00966
0.928167
0.891519
0.875029
0.865629
0.861207
0.860385
0.861136
0.86247
0.864238
0.866522
0.869287
1.26321
1.24289
1.1239
0.995357
0.91674
0.883836
0.869359
0.861084
0.857555
0.857388
0.85855
0.860151
0.862119