1.45 	0 	0 	-0.00738958 	-0.00261169 	3.85872e-21
2.35 	0 	0 	0.0632015 	-0.00669406 	2.38771e-21
