1.45 	0 	0 	-0.291578
2.35 	0 	0 	-0.126883
