1.45 	0 	0 	-0.00697182 	-0.00264337 	3.8866e-21
2.35 	0 	0 	0.0645885 	-0.00673452 	2.41638e-21
