/*--------------------------------*- C++ -*----------------------------------*\
  =========                 |
  \\      /  F ield         | OpenFOAM: The Open Source CFD Toolbox
   \\    /   O peration     | Website:  https://openfoam.org
    \\  /    A nd           | Version:  6.0
     \\/     M anipulation  |
\*---------------------------------------------------------------------------*/
FoamFile
{
    version     2.0;
    format      ascii;
    class       surfaceScalarField;
    location    "0.3";
    object      phi;
}
// * * * * * * * * * * * * * * * * * * * * * * * * * * * * * * * * * * * * * //

dimensions      [0 3 -1 0 0 0 0];

internalField   nonuniform List<scalar> 
370
(
-9.22514e-09
9.22551e-09
-2.51214e-07
2.41989e-07
-6.34659e-07
3.83445e-07
-1.07031e-06
4.35648e-07
-1.52278e-06
4.52468e-07
-1.98821e-06
4.65436e-07
-2.47589e-06
4.87674e-07
-2.99777e-06
5.21883e-07
-3.56098e-06
5.63215e-07
-4.15956e-06
5.98574e-07
-4.76384e-06
6.04283e-07
-5.30872e-06
5.44879e-07
-5.68559e-06
3.76865e-07
-5.74771e-06
6.21218e-08
-5.34204e-06
-4.05671e-07
-4.37775e-06
-9.64284e-07
-2.92846e-06
-1.44929e-06
-1.33313e-06
-1.59533e-06
-1.91816e-07
-1.14131e-06
-1.91816e-07
-2.98695e-07
3.0792e-07
-1.05691e-06
1.0002e-06
-2.06719e-06
1.39372e-06
-3.17739e-06
1.54586e-06
-4.31568e-06
1.59075e-06
-5.46274e-06
1.61249e-06
-6.62327e-06
1.6482e-06
-7.80493e-06
1.70355e-06
-9.00144e-06
1.75972e-06
-1.01768e-05
1.77393e-06
-1.1251e-05
1.67845e-06
-1.20906e-05
1.38455e-06
-1.25117e-05
7.97956e-07
-1.23009e-05
-1.48717e-07
-1.12631e-05
-1.44346e-06
-9.30251e-06
-2.92487e-06
-6.54224e-06
-4.20955e-06
-3.46589e-06
-4.67169e-06
-9.63806e-07
-3.64339e-06
-1.15562e-06
-6.13219e-07
9.21139e-07
-1.88027e-06
2.26726e-06
-3.41936e-06
2.93281e-06
-5.0222e-06
3.14869e-06
-6.59874e-06
3.1673e-06
-8.1227e-06
3.13645e-06
-9.59458e-06
3.12008e-06
-1.10174e-05
3.12638e-06
-1.23788e-05
3.12114e-06
-1.36369e-05
3.03198e-06
-1.47103e-05
2.75183e-06
-1.54751e-05
2.14943e-06
-1.57701e-05
1.09296e-06
-1.541e-05
-5.08893e-07
-1.42094e-05
-2.64404e-06
-1.20291e-05
-5.10514e-06
-8.87483e-06
-7.36384e-06
-5.09031e-06
-8.45621e-06
-1.61532e-06
-7.11839e-06
-2.77094e-06
-9.0597e-07
1.82711e-06
-2.6096e-06
3.97089e-06
-4.52607e-06
4.84928e-06
-6.3915e-06
5.01413e-06
-8.11296e-06
4.88876e-06
-9.67241e-06
4.6959e-06
-1.108e-05
4.52764e-06
-1.23501e-05
4.39655e-06
-1.34876e-05
4.25856e-06
-1.4478e-05
4.02238e-06
-1.52832e-05
3.55706e-06
-1.58392e-05
2.70549e-06
-1.60544e-05
1.30811e-06
-1.58031e-05
-7.60158e-07
-1.49149e-05
-3.5323e-06
-1.31708e-05
-6.84922e-06
-1.03582e-05
-1.01765e-05
-6.48972e-06
-1.23246e-05
-2.32083e-06
-1.12873e-05
-5.09177e-06
-1.19003e-06
3.01714e-06
-3.21938e-06
6.00024e-06
-5.2936e-06
6.92349e-06
-7.12776e-06
6.8483e-06
-8.66094e-06
6.42194e-06
-9.90851e-06
5.94347e-06
-1.09087e-05
5.52786e-06
-1.17029e-05
5.19074e-06
-1.23275e-05
4.88317e-06
-1.28116e-05
4.50645e-06
-1.31765e-05
3.92196e-06
-1.34345e-05
2.96346e-06
-1.35807e-05
1.45435e-06
-1.3572e-05
-7.68827e-07
-1.3286e-05
-3.81829e-06
-1.24649e-05
-7.6704e-06
-1.06854e-05
-1.1956e-05
-7.50606e-06
-1.5504e-05
-3.13896e-06
-1.56544e-05
-8.23072e-06
-1.51809e-06
4.53523e-06
-3.72971e-06
8.21186e-06
-5.64522e-06
8.839e-06
-7.0661e-06
8.26918e-06
-8.03428e-06
7.39011e-06
-8.63225e-06
6.54144e-06
-8.93997e-06
5.83558e-06
-9.02758e-06
5.27835e-06
-8.95799e-06
4.81358e-06
-8.79326e-06
4.34172e-06
-8.60104e-06
3.72974e-06
-8.45719e-06
2.8196e-06
-8.43965e-06
1.43681e-06
-8.60582e-06
-6.02654e-07
-8.94072e-06
-3.48339e-06
-9.2591e-06
-7.35202e-06
-9.06094e-06
-1.21541e-05
-7.47294e-06
-1.7092e-05
-3.824e-06
-1.93033e-05
-1.20547e-05
-1.98999e-06
6.52522e-06
-4.1232e-06
1.03451e-05
-5.34358e-06
1.00594e-05
-5.80325e-06
8.72885e-06
-5.75658e-06
7.34344e-06
-5.37727e-06
6.16214e-06
-4.77855e-06
5.23685e-06
-4.03855e-06
4.53836e-06
-3.22007e-06
3.9951e-06
-2.38794e-06
3.50959e-06
-1.62323e-06
2.96502e-06
-1.03224e-06
2.22861e-06
-7.48236e-07
1.15281e-06
-9.21349e-07
-4.29541e-07
-1.68209e-06
-2.72265e-06
-3.04144e-06
-5.99268e-06
-4.65565e-06
-1.05399e-05
-5.46443e-06
-1.62832e-05
-3.81596e-06
-2.09518e-05
-1.58707e-05
-2.68141e-06
9.20663e-06
-3.90354e-06
1.15672e-05
-3.36751e-06
9.52334e-06
-2.06642e-06
7.42776e-06
-5.16253e-07
5.79327e-06
1.08552e-06
4.56037e-06
2.6619e-06
3.66047e-06
4.18164e-06
3.01863e-06
5.62633e-06
2.55041e-06
6.96679e-06
2.16913e-06
8.14525e-06
1.78657e-06
9.06309e-06
1.31076e-06
9.5727e-06
6.43205e-07
9.4725e-06
-3.2934e-07
8.51058e-06
-1.76073e-06
6.42928e-06
-3.91138e-06
3.17335e-06
-7.28397e-06
-5.06878e-07
-1.2603e-05
-2.3023e-06
-1.91564e-05
-1.8173e-05
-2.55914e-06
1.17658e-05
3.54893e-08
8.97257e-06
4.02296e-06
5.53587e-06
7.65831e-06
3.79241e-06
1.07318e-05
2.71982e-06
1.33172e-05
1.97496e-06
1.55075e-05
1.4701e-06
1.73891e-05
1.13711e-06
1.90273e-05
9.12137e-07
2.04536e-05
7.42907e-07
2.16546e-05
5.85502e-07
2.25658e-05
3.99627e-07
2.30632e-05
1.45724e-07
2.29529e-05
-2.18963e-07
2.19462e-05
-7.54032e-07
1.96193e-05
-1.58453e-06
1.54197e-05
-3.08433e-06
9.06434e-06
-6.24764e-06
2.0969e-06
-1.21889e-05
-1.60761e-05
1.17658e-05
2.07383e-05
2.62742e-05
3.00666e-05
3.27864e-05
3.47614e-05
3.62315e-05
3.73686e-05
3.82807e-05
3.90237e-05
3.96092e-05
4.00088e-05
4.01545e-05
3.99355e-05
3.91815e-05
3.7597e-05
3.45126e-05
2.8265e-05
1.60761e-05
)
;

boundaryField
{
    movingWall
    {
        type            calculated;
        value           uniform 0;
    }
    fixedWalls
    {
        type            calculated;
        value           uniform 0;
    }
    frontAndBack
    {
        type            empty;
        value           nonuniform 0();
    }
}


// ************************************************************************* //
