1.45 	0 	0 	-0.291542
2.35 	0 	0 	-0.126841
