/*--------------------------------*- C++ -*----------------------------------*\
  =========                 |
  \\      /  F ield         | OpenFOAM: The Open Source CFD Toolbox
   \\    /   O peration     | Website:  https://openfoam.org
    \\  /    A nd           | Version:  6.0
     \\/     M anipulation  |
\*---------------------------------------------------------------------------*/
FoamFile
{
    version     2.0;
    format      ascii;
    class       volScalarField;
    location    "6";
    object      p;
}
// * * * * * * * * * * * * * * * * * * * * * * * * * * * * * * * * * * * * * //

dimensions      [0 2 -2 0 0 0 0];

internalField   nonuniform List<scalar> 
8000
(
-0.345503
-0.349931
-0.352491
-0.35396
-0.354803
-0.355099
-0.354933
-0.354389
-0.353539
-0.35244
-0.351138
-0.349677
-0.348092
-0.346412
-0.344667
-0.342881
-0.341072
-0.339223
-0.337332
-0.335781
-0.346217
-0.35059
-0.353104
-0.354531
-0.355332
-0.355588
-0.355382
-0.354801
-0.353914
-0.352779
-0.351443
-0.349947
-0.348329
-0.346618
-0.344841
-0.343026
-0.34119
-0.339314
-0.337396
-0.335835
-0.347648
-0.35191
-0.354331
-0.355673
-0.35639
-0.356565
-0.356281
-0.355624
-0.354664
-0.353456
-0.35205
-0.350487
-0.348802
-0.347026
-0.345188
-0.343314
-0.341423
-0.339492
-0.337519
-0.335939
-0.349797
-0.353891
-0.356172
-0.357386
-0.357977
-0.358029
-0.357627
-0.356856
-0.355784
-0.354469
-0.352957
-0.35129
-0.349504
-0.347631
-0.345698
-0.343735
-0.34176
-0.339747
-0.33769
-0.336084
-0.352667
-0.356533
-0.358627
-0.359667
-0.360089
-0.359978
-0.359417
-0.358493
-0.357273
-0.355812
-0.354158
-0.352352
-0.35043
-0.348424
-0.346363
-0.344277
-0.342187
-0.340061
-0.337891
-0.336252
-0.356262
-0.35984
-0.361695
-0.362516
-0.362724
-0.362407
-0.361648
-0.360532
-0.359124
-0.357481
-0.355648
-0.353666
-0.351571
-0.349395
-0.347169
-0.344926
-0.342687
-0.340414
-0.338099
-0.336423
-0.360589
-0.363813
-0.365376
-0.365931
-0.36588
-0.365313
-0.364314
-0.362966
-0.361334
-0.35947
-0.35742
-0.355224
-0.352917
-0.350533
-0.348104
-0.345664
-0.343239
-0.34078
-0.338285
-0.336568
-0.365655
-0.368454
-0.369668
-0.369907
-0.369551
-0.368691
-0.367412
-0.365794
-0.363898
-0.361776
-0.359471
-0.357022
-0.354463
-0.351829
-0.349152
-0.346473
-0.343818
-0.34113
-0.338413
-0.336653
-0.371469
-0.373764
-0.37457
-0.374442
-0.373732
-0.372535
-0.370936
-0.369008
-0.366813
-0.364396
-0.361798
-0.359056
-0.356204
-0.353274
-0.350303
-0.347335
-0.3444
-0.341428
-0.338439
-0.33663
-0.37804
-0.379746
-0.380079
-0.379529
-0.378417
-0.37684
-0.37488
-0.372607
-0.370076
-0.367328
-0.364401
-0.361327
-0.358138
-0.354866
-0.351548
-0.348234
-0.344957
-0.341636
-0.338311
-0.33644
-0.385374
-0.386396
-0.386187
-0.385161
-0.383597
-0.381597
-0.379238
-0.376585
-0.373686
-0.370576
-0.367285
-0.363842
-0.360272
-0.356607
-0.352883
-0.349157
-0.345465
-0.341711
-0.337963
-0.336006
-0.393474
-0.393709
-0.392884
-0.391324
-0.389261
-0.386795
-0.384003
-0.380939
-0.377643
-0.374143
-0.37046
-0.366613
-0.362621
-0.35851
-0.354317
-0.3501
-0.345901
-0.341606
-0.337318
-0.335225
-0.402336
-0.401672
-0.400156
-0.398005
-0.395393
-0.392423
-0.389164
-0.385664
-0.38195
-0.378038
-0.37394
-0.369661
-0.365211
-0.360604
-0.355871
-0.351072
-0.346252
-0.341273
-0.336277
-0.333959
-0.411946
-0.410266
-0.40798
-0.405181
-0.401974
-0.398463
-0.394712
-0.390754
-0.386607
-0.382273
-0.377747
-0.37302
-0.368084
-0.362936
-0.357593
-0.35211
-0.346528
-0.340673
-0.334728
-0.33202
-0.422276
-0.419461
-0.416328
-0.412825
-0.40898
-0.404896
-0.400629
-0.396202
-0.391616
-0.38686
-0.38191
-0.376736
-0.371305
-0.365586
-0.35957
-0.353294
-0.346778
-0.339789
-0.332529
-0.329144
-0.433281
-0.429215
-0.425162
-0.420903
-0.416381
-0.411697
-0.406899
-0.401997
-0.396979
-0.391817
-0.386467
-0.380873
-0.374968
-0.368681
-0.361957
-0.354787
-0.347144
-0.338677
-0.329559
-0.32502
-0.4449
-0.439476
-0.434436
-0.429376
-0.424142
-0.418836
-0.413498
-0.408126
-0.402696
-0.397163
-0.391465
-0.385515
-0.379211
-0.372425
-0.36503
-0.356941
-0.348035
-0.33775
-0.326051
-0.319541
-0.457052
-0.45018
-0.444095
-0.438197
-0.432224
-0.426279
-0.420399
-0.41457
-0.40876
-0.402913
-0.39695
-0.390761
-0.384202
-0.377084
-0.369182
-0.360291
-0.350146
-0.337753
-0.322224
-0.311615
-0.46964
-0.461252
-0.454081
-0.447314
-0.440583
-0.43399
-0.42757
-0.421306
-0.415159
-0.409074
-0.402966
-0.396711
-0.390135
-0.382978
-0.374879
-0.36543
-0.353998
-0.338442
-0.315406
-0.294991
-0.482557
-0.472611
-0.464326
-0.456673
-0.449171
-0.441926
-0.434974
-0.428297
-0.421866
-0.415637
-0.409547
-0.403499
-0.397345
-0.39084
-0.383594
-0.375052
-0.364043
-0.346719
-0.316581
-0.285962
-0.495689
-0.484171
-0.474763
-0.466218
-0.45794
-0.450042
-0.442563
-0.435491
-0.428812
-0.422515
-0.416587
-0.411026
-0.405841
-0.401067
-0.396825
-0.393399
-0.391092
-0.390058
-0.394107
-0.418714
-0.508919
-0.495845
-0.485323
-0.47589
-0.466839
-0.458289
-0.450283
-0.442813
-0.43588
-0.429498
-0.423698
-0.418538
-0.414116
-0.4106
-0.408279
-0.407591
-0.408981
-0.413292
-0.425189
-0.452352
-0.522139
-0.507549
-0.495938
-0.485633
-0.475821
-0.466623
-0.458087
-0.450205
-0.442986
-0.436459
-0.430677
-0.425723
-0.421727
-0.41888
-0.417471
-0.417862
-0.420353
-0.425573
-0.436782
-0.456902
-0.535247
-0.519201
-0.50654
-0.495393
-0.484839
-0.475005
-0.465937
-0.457625
-0.45008
-0.443334
-0.437446
-0.432501
-0.428626
-0.42599
-0.424825
-0.425381
-0.427804
-0.432495
-0.441713
-0.455999
-0.548151
-0.530722
-0.517063
-0.50511
-0.493844
-0.48339
-0.473792
-0.465033
-0.457119
-0.450077
-0.443957
-0.438831
-0.434798
-0.431984
-0.430543
-0.430609
-0.432193
-0.435534
-0.442339
-0.45195
-0.560764
-0.542033
-0.527436
-0.514724
-0.50278
-0.491728
-0.481604
-0.472382
-0.464055
-0.45664
-0.450168
-0.444688
-0.440263
-0.436967
-0.434881
-0.434045
-0.434378
-0.43603
-0.44038
-0.44607
-0.573002
-0.553054
-0.537583
-0.524164
-0.511581
-0.499955
-0.489311
-0.479607
-0.470825
-0.462961
-0.456027
-0.450043
-0.445034
-0.441029
-0.438049
-0.436068
-0.434953
-0.43482
-0.436818
-0.439163
-0.584778
-0.563695
-0.547418
-0.533346
-0.520166
-0.50799
-0.49683
-0.486627
-0.477345
-0.468962
-0.461466
-0.454849
-0.449105
-0.444223
-0.440183
-0.436917
-0.434275
-0.432359
-0.432138
-0.431593
-0.595993
-0.573859
-0.556846
-0.542176
-0.52844
-0.515737
-0.504062
-0.49334
-0.483515
-0.474545
-0.466397
-0.459041
-0.452442
-0.446565
-0.441361
-0.436741
-0.432557
-0.42891
-0.426614
-0.42356
-0.606539
-0.583437
-0.565756
-0.550543
-0.536291
-0.523081
-0.510893
-0.499629
-0.489217
-0.479598
-0.470722
-0.462538
-0.454996
-0.448042
-0.441615
-0.43562
-0.429921
-0.424625
-0.420402
-0.415173
-0.616291
-0.592304
-0.574026
-0.558324
-0.543594
-0.529895
-0.517189
-0.505361
-0.494321
-0.483997
-0.474325
-0.465245
-0.456696
-0.448616
-0.440943
-0.433584
-0.426426
-0.419577
-0.413583
-0.406479
-0.625106
-0.600323
-0.581518
-0.565381
-0.550208
-0.536036
-0.522807
-0.510391
-0.498684
-0.487606
-0.477086
-0.467058
-0.45746
-0.448232
-0.439314
-0.430629
-0.422086
-0.413793
-0.406183
-0.397479
-0.632828
-0.607342
-0.588083
-0.571565
-0.555982
-0.541349
-0.527592
-0.514564
-0.502156
-0.490284
-0.478873
-0.467863
-0.457194
-0.446816
-0.436678
-0.426721
-0.41688
-0.407259
-0.398192
-0.388139
-0.639286
-0.613199
-0.593562
-0.576713
-0.560753
-0.545672
-0.531379
-0.517721
-0.504583
-0.491883
-0.479554
-0.467541
-0.455798
-0.444286
-0.432971
-0.421811
-0.410767
-0.399938
-0.389569
-0.378397
-0.644295
-0.617719
-0.597783
-0.580658
-0.564352
-0.548834
-0.534001
-0.519694
-0.505803
-0.492254
-0.47899
-0.465971
-0.453166
-0.440553
-0.428115
-0.415832
-0.403689
-0.391773
-0.380254
-0.368171
-0.647666
-0.620721
-0.60057
-0.583223
-0.566603
-0.550661
-0.535285
-0.520318
-0.505659
-0.491248
-0.477046
-0.463031
-0.449191
-0.435523
-0.42203
-0.408713
-0.395577
-0.382695
-0.370174
-0.357369
-0.649201
-0.622022
-0.601744
-0.584228
-0.567329
-0.550976
-0.535058
-0.519425
-0.503993
-0.488719
-0.473588
-0.4586
-0.443765
-0.429102
-0.414632
-0.400375
-0.386356
-0.37263
-0.359249
-0.345892
-0.648703
-0.621433
-0.60112
-0.583495
-0.566351
-0.549605
-0.53315
-0.516853
-0.50065
-0.484525
-0.468487
-0.452563
-0.436788
-0.421199
-0.405838
-0.390743
-0.375953
-0.361502
-0.347396
-0.333642
-0.645979
-0.618772
-0.59852
-0.580845
-0.563492
-0.546374
-0.529396
-0.512444
-0.495484
-0.47853
-0.461622
-0.444813
-0.428162
-0.411729
-0.395571
-0.379742
-0.364294
-0.349237
-0.334537
-0.320524
-0.640842
-0.613859
-0.593768
-0.576104
-0.558584
-0.541121
-0.523637
-0.50605
-0.488359
-0.470613
-0.452883
-0.435251
-0.417802
-0.400614
-0.38376
-0.367308
-0.351317
-0.335769
-0.320598
-0.306455
-0.633118
-0.606525
-0.586699
-0.569109
-0.551467
-0.53369
-0.515728
-0.497536
-0.479152
-0.460662
-0.442172
-0.423793
-0.405634
-0.38779
-0.370348
-0.353385
-0.336964
-0.321041
-0.305517
-0.291358
-0.622635
-0.596608
-0.577152
-0.559704
-0.541987
-0.523936
-0.505533
-0.486778
-0.467751
-0.448579
-0.429405
-0.410368
-0.391596
-0.373204
-0.355285
-0.337926
-0.321192
-0.305007
-0.289243
-0.275174
-0.609251
-0.583967
-0.564987
-0.547749
-0.530013
-0.511733
-0.492937
-0.473671
-0.454065
-0.434289
-0.414518
-0.394921
-0.375645
-0.356817
-0.338539
-0.320902
-0.30397
-0.287633
-0.271738
-0.257853
-0.592839
-0.568476
-0.550081
-0.533125
-0.515427
-0.496974
-0.477842
-0.458132
-0.438024
-0.417732
-0.397465
-0.377417
-0.357753
-0.33861
-0.320093
-0.302297
-0.285281
-0.268903
-0.252979
-0.239365
-0.573298
-0.550033
-0.53233
-0.51573
-0.498135
-0.479572
-0.460173
-0.440097
-0.419577
-0.39887
-0.378219
-0.357839
-0.337911
-0.318577
-0.299946
-0.282111
-0.265125
-0.248813
-0.232959
-0.219693
-0.55055
-0.528557
-0.511652
-0.495484
-0.478064
-0.459464
-0.439877
-0.419526
-0.398698
-0.37769
-0.356776
-0.336193
-0.31613
-0.296735
-0.278115
-0.260361
-0.243519
-0.227376
-0.211685
-0.198836
-0.524546
-0.503996
-0.487995
-0.472338
-0.455167
-0.436612
-0.416929
-0.396407
-0.375385
-0.354201
-0.333156
-0.312503
-0.292442
-0.273118
-0.254636
-0.237082
-0.220493
-0.204623
-0.189183
-0.17681
-0.495267
-0.476324
-0.461329
-0.446264
-0.429427
-0.411007
-0.39133
-0.37075
-0.349661
-0.328435
-0.307399
-0.286819
-0.266897
-0.247779
-0.229562
-0.212327
-0.196101
-0.180602
-0.165497
-0.153649
-0.462725
-0.445546
-0.431659
-0.417269
-0.400853
-0.382668
-0.363109
-0.342597
-0.321575
-0.300451
-0.27957
-0.259208
-0.239569
-0.220792
-0.202968
-0.186168
-0.170412
-0.15538
-0.140687
-0.129403
-0.426967
-0.4117
-0.399017
-0.385386
-0.369486
-0.351642
-0.332323
-0.312014
-0.291204
-0.270331
-0.249757
-0.229763
-0.21055
-0.192251
-0.174946
-0.158697
-0.143515
-0.129044
-0.114837
-0.104145
-0.38807
-0.374854
-0.363469
-0.350683
-0.335397
-0.318009
-0.299058
-0.279093
-0.258646
-0.23818
-0.218068
-0.198594
-0.179953
-0.16227
-0.14561
-0.130027
-0.115521
-0.101703
-0.0880519
-0.0779669
-0.346148
-0.335111
-0.325112
-0.313258
-0.298688
-0.281874
-0.263427
-0.243954
-0.224025
-0.204124
-0.184633
-0.165832
-0.14791
-0.130978
-0.115091
-0.100289
-0.086563
-0.0734912
-0.0604641
-0.0509922
-0.301348
-0.292606
-0.284077
-0.273241
-0.259491
-0.243375
-0.225571
-0.20674
-0.187487
-0.168311
-0.149598
-0.131623
-0.114566
-0.0985247
-0.0835382
-0.0696345
-0.0567962
-0.0445683
-0.0322381
-0.0233762
-0.253851
-0.247507
-0.240527
-0.230793
-0.217968
-0.202675
-0.185653
-0.167616
-0.149195
-0.130902
-0.113122
-0.0961258
-0.0800798
-0.0650683
-0.0511146
-0.0382333
-0.0263985
-0.0151245
-0.00357727
0.0046826
-0.203872
-0.200016
-0.194655
-0.186104
-0.174309
-0.159962
-0.143861
-0.126765
-0.109329
-0.0920722
-0.075378
-0.0595069
-0.0446154
-0.0307739
-0.0179909
-0.0062671
0.00443044
0.0146138
0.0252611
0.0329217
-0.151658
-0.150365
-0.146685
-0.139397
-0.128731
-0.11545
-0.100404
-0.0843908
-0.0680838
-0.0520069
-0.036539
-0.021932
-0.0083326
0.00419982
0.0156685
0.0260841
0.0354821
0.0443922
0.0539605
0.060993
-0.0974868
-0.0988148
-0.096871
-0.0909165
-0.0814768
-0.0693747
-0.055509
-0.0407099
-0.0256638
-0.0108957
0.00322051
0.0164403
0.0286242
0.0397183
0.0497309
0.0586781
0.0665908
0.0739925
0.0821967
0.0884684
-0.0416644
-0.0456555
-0.0454921
-0.0409368
-0.0328109
-0.0219935
-0.00942257
0.00404558
0.0177164
0.0310668
0.0437286
0.0554628
0.0661319
0.0756786
0.084104
0.09142
0.097642
0.103212
0.109476
0.114513
0.0154763
0.00879867
0.00714809
0.0102472
0.0169796
0.0264178
0.0375926
0.0496294
0.0618312
0.0736808
0.0848169
0.0950039
0.104099
0.112027
0.118756
0.124265
0.1285
0.131555
0.134329
0.136627
0.0735785
0.0642103
0.060724
0.0623189
0.0675883
0.0755642
0.0852558
0.0957785
0.10644
0.116736
0.126317
0.134955
0.142508
0.148876
0.153988
0.15778
0.160028
0.159966
0.157242
0.154948
0.132263
0.120221
0.11489
0.114943
0.118691
0.125133
0.133268
0.142209
0.151277
0.159988
0.168017
0.175159
0.181299
0.186369
0.19035
0.193315
0.195162
0.194574
0.1906
0.196173
0.19116
0.176474
0.169298
0.16778
0.169956
0.174804
0.181317
0.188617
0.196043
0.203137
0.209602
0.215263
0.220036
0.223897
0.226888
0.229169
0.230768
0.230778
0.229219
0.237125
0.249868
0.232588
0.223579
0.220472
0.221037
0.224241
0.22908
0.234687
0.240427
0.245868
0.250739
0.254892
0.258267
0.260864
0.262749
0.264088
0.264913
0.264504
0.263114
0.270074
0.307988
0.288181
0.277364
0.272659
0.271589
0.273111
0.276234
0.280109
0.284125
0.287878
0.291123
0.293733
0.295667
0.296937
0.29762
0.297868
0.297705
0.296492
0.294501
0.299834
0.365122
0.34287
0.330281
0.323984
0.321265
0.321082
0.322462
0.324576
0.326842
0.328883
0.330476
0.331513
0.331965
0.331853
0.331252
0.330301
0.329008
0.326804
0.323979
0.327661
0.42088
0.396278
0.381965
0.374092
0.369724
0.367829
0.367455
0.367797
0.368302
0.36862
0.36855
0.367998
0.366945
0.365417
0.363484
0.361271
0.358775
0.355489
0.351731
0.353783
0.474879
0.448034
0.432055
0.422636
0.416636
0.413038
0.410915
0.409492
0.408244
0.406846
0.405119
0.402984
0.400426
0.397476
0.394199
0.390707
0.386989
0.382603
0.377884
0.378334
0.526749
0.497779
0.480202
0.469278
0.461679
0.456405
0.45256
0.449398
0.446423
0.443338
0.439981
0.436286
0.432247
0.427894
0.423291
0.418535
0.413614
0.408149
0.402478
0.401372
0.576133
0.545166
0.526069
0.513697
0.504546
0.497642
0.49212
0.487264
0.48261
0.477885
0.472946
0.467738
0.462262
0.456549
0.450659
0.44468
0.438599
0.432097
0.425502
0.422902
0.622695
0.589864
0.569337
0.555583
0.544946
0.536474
0.529339
0.522855
0.516589
0.510291
0.503837
0.497182
0.490331
0.483319
0.476202
0.469058
0.461878
0.454395
0.44692
0.442897
0.666114
0.631564
0.609702
0.594648
0.582603
0.572645
0.56398
0.555953
0.54816
0.540375
0.53249
0.524469
0.516324
0.50809
0.49982
0.491584
0.483376
0.47498
0.466677
0.461318
0.706092
0.669973
0.646882
0.630621
0.617263
0.605917
0.595821
0.586353
0.577137
0.567967
0.55875
0.549462
0.540116
0.530749
0.521413
0.512168
0.503014
0.493781
0.48471
0.478111
0.742355
0.704823
0.680618
0.663252
0.64869
0.636068
0.624659
0.613869
0.603347
0.59291
0.582476
0.572029
0.561589
0.551191
0.540884
0.530724
0.520713
0.510722
0.500953
0.493222
0.774654
0.735871
0.710674
0.692317
0.676672
0.662902
0.65031
0.638332
0.626637
0.615062
0.603537
0.592054
0.580634
0.569315
0.558143
0.547167
0.536394
0.525731
0.515338
0.506593
0.802765
0.7629
0.736839
0.717615
0.701019
0.686241
0.672611
0.659589
0.646867
0.634295
0.621817
0.609427
0.597153
0.585031
0.573105
0.561419
0.549985
0.53874
0.527802
0.518169
0.826495
0.78572
0.758929
0.73897
0.721566
0.70593
0.691418
0.677509
0.663915
0.650498
0.637212
0.624056
0.611059
0.598258
0.585696
0.573411
0.56142
0.549684
0.538286
0.5279
0.845679
0.804172
0.77679
0.756234
0.738174
0.72184
0.70661
0.691982
0.677679
0.663577
0.649635
0.635858
0.622276
0.608926
0.595849
0.583081
0.57064
0.558508
0.546738
0.535742
0.860185
0.818125
0.790297
0.769288
0.750729
0.733866
0.718091
0.702916
0.688076
0.673454
0.659016
0.644769
0.630743
0.616979
0.603512
0.590378
0.577598
0.565168
0.553116
0.541656
0.869912
0.827482
0.799355
0.778041
0.759147
0.741927
0.725787
0.710244
0.695042
0.680072
0.6653
0.650737
0.636415
0.622372
0.608644
0.595265
0.582257
0.569628
0.557387
0.545616
0.874793
0.832177
0.8039
0.782433
0.76337
0.745972
0.729647
0.713919
0.698536
0.683391
0.668451
0.65373
0.639258
0.625075
0.611217
0.597715
0.584593
0.571864
0.559528
0.5476
0.874793
0.832177
0.8039
0.782433
0.76337
0.745972
0.729647
0.713919
0.698536
0.683391
0.668451
0.65373
0.639259
0.625076
0.611217
0.597715
0.584593
0.571864
0.559528
0.5476
0.869912
0.827482
0.799355
0.778041
0.759147
0.741927
0.725787
0.710244
0.695043
0.680072
0.6653
0.650737
0.636415
0.622372
0.608644
0.595265
0.582257
0.569628
0.557387
0.545616
0.860186
0.818125
0.790297
0.769288
0.750729
0.733866
0.718091
0.702916
0.688076
0.673455
0.659016
0.644769
0.630744
0.616979
0.603512
0.590378
0.577598
0.565168
0.553116
0.541656
0.845679
0.804172
0.776791
0.756234
0.738174
0.72184
0.706611
0.691982
0.677679
0.663577
0.649635
0.635858
0.622276
0.608927
0.595849
0.583081
0.57064
0.558509
0.546738
0.535742
0.826495
0.78572
0.758929
0.73897
0.721566
0.70593
0.691418
0.677509
0.663915
0.650499
0.637212
0.624056
0.611059
0.598258
0.585696
0.573411
0.56142
0.549684
0.538286
0.527901
0.802765
0.7629
0.736839
0.717615
0.701019
0.686241
0.672611
0.659589
0.646867
0.634295
0.621817
0.609428
0.597153
0.585031
0.573105
0.561419
0.549985
0.53874
0.527802
0.518169
0.774654
0.735871
0.710674
0.692318
0.676673
0.662902
0.650311
0.638332
0.626637
0.615062
0.603537
0.592054
0.580634
0.569315
0.558143
0.547167
0.536394
0.525731
0.515339
0.506593
0.742355
0.704823
0.680619
0.663253
0.648691
0.636069
0.624659
0.61387
0.603348
0.59291
0.582476
0.57203
0.561589
0.551191
0.540884
0.530724
0.520713
0.510722
0.500953
0.493222
0.706092
0.669973
0.646883
0.630621
0.617263
0.605917
0.595821
0.586354
0.577137
0.567967
0.558751
0.549462
0.540116
0.530749
0.521413
0.512168
0.503014
0.493781
0.48471
0.478111
0.666114
0.631564
0.609702
0.594648
0.582603
0.572646
0.56398
0.555953
0.54816
0.540376
0.53249
0.524469
0.516325
0.50809
0.49982
0.491584
0.483376
0.47498
0.466677
0.461318
0.622695
0.589865
0.569337
0.555583
0.544946
0.536475
0.529339
0.522855
0.516589
0.510292
0.503837
0.497182
0.490332
0.483319
0.476203
0.469058
0.461878
0.454395
0.44692
0.442897
0.576134
0.545166
0.526069
0.513697
0.504547
0.497642
0.49212
0.487264
0.48261
0.477885
0.472946
0.467738
0.462262
0.456549
0.450659
0.44468
0.438599
0.432097
0.425502
0.422902
0.526749
0.497779
0.480202
0.469278
0.461679
0.456406
0.452561
0.449398
0.446423
0.443338
0.439981
0.436287
0.432248
0.427895
0.423291
0.418535
0.413614
0.408149
0.402478
0.401372
0.47488
0.448034
0.432055
0.422636
0.416636
0.413038
0.410916
0.409492
0.408244
0.406847
0.40512
0.402984
0.400426
0.397476
0.394199
0.390707
0.386989
0.382603
0.377884
0.378334
0.420881
0.396278
0.381965
0.374092
0.369724
0.367829
0.367454
0.367797
0.368302
0.36862
0.36855
0.367998
0.366946
0.365417
0.363485
0.361271
0.358775
0.355489
0.351731
0.353783
0.365123
0.34287
0.330281
0.323984
0.321264
0.321081
0.322461
0.324576
0.326842
0.328883
0.330476
0.331514
0.331965
0.331853
0.331252
0.330301
0.329008
0.326804
0.323979
0.327661
0.307988
0.28818
0.277364
0.272659
0.271588
0.27311
0.276233
0.280108
0.284125
0.287878
0.291123
0.293733
0.295667
0.296937
0.29762
0.297869
0.297705
0.296492
0.294502
0.299834
0.249868
0.232588
0.223579
0.220471
0.221036
0.22424
0.229079
0.234687
0.240427
0.245868
0.250739
0.254892
0.258267
0.260864
0.26275
0.264089
0.264914
0.264504
0.263115
0.270075
0.19116
0.176473
0.169297
0.167779
0.169954
0.174802
0.181316
0.188616
0.196043
0.203137
0.209601
0.215263
0.220036
0.223897
0.226888
0.229169
0.230768
0.230779
0.22922
0.237126
0.132263
0.12022
0.114888
0.114942
0.118689
0.125132
0.133267
0.142208
0.151276
0.159988
0.168016
0.175159
0.181299
0.186369
0.19035
0.193315
0.195163
0.194574
0.1906
0.196173
0.0735771
0.0642085
0.0607219
0.0623168
0.0675863
0.0755623
0.0852542
0.0957771
0.106439
0.116735
0.126316
0.134955
0.142508
0.148876
0.153988
0.15778
0.160028
0.159967
0.157243
0.154949
0.0154744
0.00879632
0.00714554
0.0102446
0.0169772
0.0264155
0.0375906
0.0496277
0.0618298
0.0736797
0.0848161
0.0950033
0.104099
0.112027
0.118756
0.124266
0.128501
0.131555
0.13433
0.136628
-0.0416669
-0.0456584
-0.0454952
-0.0409399
-0.0328139
-0.0219962
-0.00942503
0.00404345
0.0177146
0.0310653
0.0437275
0.055462
0.0661314
0.0756783
0.0841039
0.0914201
0.0976423
0.103213
0.109477
0.114514
-0.0974899
-0.0988183
-0.0968747
-0.0909202
-0.0814803
-0.069378
-0.0555119
-0.0407125
-0.025666
-0.0108975
0.00321904
0.0164392
0.0286234
0.0397177
0.0497306
0.058678
0.0665909
0.0739928
0.0821973
0.0884691
-0.151662
-0.150369
-0.146689
-0.139401
-0.128735
-0.115453
-0.100407
-0.0843938
-0.0680865
-0.0520091
-0.0365408
-0.0219335
-0.00833375
0.00419896
0.0156679
0.0260837
0.035482
0.0443922
0.0539608
0.0609934
-0.203877
-0.200021
-0.19466
-0.186109
-0.174314
-0.159966
-0.143865
-0.126769
-0.109332
-0.0920749
-0.0753803
-0.0595087
-0.0446169
-0.0307751
-0.0179918
-0.00626778
0.00442996
0.0146136
0.025261
0.0329218
-0.253857
-0.247513
-0.240533
-0.230798
-0.217973
-0.20268
-0.185657
-0.16762
-0.149198
-0.130905
-0.113125
-0.096128
-0.0800817
-0.0650698
-0.0511159
-0.0382343
-0.0263993
-0.0151252
-0.00357768
0.00468232
-0.301354
-0.292612
-0.284084
-0.273247
-0.259497
-0.243381
-0.225576
-0.206745
-0.187491
-0.168314
-0.149601
-0.131625
-0.114568
-0.0985267
-0.0835398
-0.0696359
-0.0567974
-0.0445692
-0.0322389
-0.0233768
-0.346155
-0.335118
-0.32512
-0.313265
-0.298694
-0.28188
-0.263433
-0.24396
-0.22403
-0.204129
-0.184637
-0.165835
-0.147912
-0.130981
-0.115093
-0.10029
-0.0865645
-0.0734925
-0.0604653
-0.0509932
-0.388078
-0.374862
-0.363477
-0.350691
-0.335404
-0.318015
-0.299064
-0.279099
-0.258651
-0.238185
-0.218073
-0.198597
-0.179956
-0.162272
-0.145612
-0.130029
-0.115523
-0.101705
-0.0880533
-0.0779682
-0.426975
-0.411709
-0.399026
-0.385395
-0.369494
-0.35165
-0.33233
-0.31202
-0.29121
-0.270336
-0.249762
-0.229767
-0.210553
-0.192254
-0.174949
-0.1587
-0.143517
-0.129046
-0.114839
-0.104146
-0.462735
-0.445556
-0.431669
-0.417278
-0.400862
-0.382676
-0.363116
-0.342604
-0.321582
-0.300457
-0.279576
-0.259213
-0.239573
-0.220796
-0.202971
-0.186171
-0.170415
-0.155382
-0.140689
-0.129405
-0.495277
-0.476334
-0.46134
-0.446274
-0.429437
-0.411016
-0.391338
-0.370758
-0.349668
-0.328441
-0.307405
-0.286824
-0.266901
-0.247783
-0.229566
-0.21233
-0.196104
-0.180605
-0.165499
-0.153652
-0.524557
-0.504007
-0.488006
-0.472349
-0.455178
-0.436622
-0.416938
-0.396415
-0.375392
-0.354208
-0.333162
-0.312509
-0.292447
-0.273122
-0.25464
-0.237086
-0.220497
-0.204626
-0.189186
-0.176813
-0.550562
-0.528569
-0.511665
-0.495496
-0.478075
-0.459475
-0.439887
-0.419535
-0.398706
-0.377698
-0.356783
-0.336199
-0.316136
-0.29674
-0.27812
-0.260365
-0.243523
-0.22738
-0.211688
-0.198839
-0.573311
-0.550046
-0.532343
-0.515742
-0.498147
-0.479584
-0.460183
-0.440106
-0.419586
-0.398878
-0.378226
-0.357846
-0.337917
-0.318583
-0.299951
-0.282116
-0.26513
-0.248817
-0.232963
-0.219697
-0.592853
-0.56849
-0.550095
-0.533139
-0.51544
-0.496987
-0.477853
-0.458142
-0.438034
-0.41774
-0.397473
-0.377424
-0.35776
-0.338616
-0.320099
-0.302303
-0.285286
-0.268908
-0.252984
-0.239369
-0.609265
-0.583981
-0.565002
-0.547764
-0.530026
-0.511746
-0.492949
-0.473682
-0.454076
-0.434298
-0.414527
-0.394929
-0.375653
-0.356824
-0.338545
-0.320908
-0.303975
-0.287639
-0.271743
-0.257858
-0.62265
-0.596624
-0.577167
-0.559719
-0.542002
-0.523949
-0.505546
-0.486789
-0.467762
-0.448589
-0.429414
-0.410376
-0.391604
-0.373211
-0.355292
-0.337932
-0.321198
-0.305012
-0.289248
-0.275178
-0.633133
-0.606541
-0.586715
-0.569125
-0.551482
-0.533704
-0.515741
-0.497549
-0.479163
-0.460672
-0.442182
-0.423803
-0.405642
-0.387798
-0.370355
-0.353391
-0.33697
-0.321047
-0.305523
-0.291364
-0.640859
-0.613875
-0.593785
-0.57612
-0.5586
-0.541136
-0.523651
-0.506063
-0.488371
-0.470624
-0.452893
-0.435261
-0.417811
-0.400623
-0.383768
-0.367316
-0.351324
-0.335776
-0.320604
-0.306461
-0.645997
-0.618789
-0.598538
-0.580862
-0.563509
-0.54639
-0.52941
-0.512458
-0.495497
-0.478542
-0.461633
-0.444823
-0.428171
-0.411738
-0.395579
-0.37975
-0.364302
-0.349244
-0.334543
-0.320531
-0.648721
-0.621451
-0.601138
-0.583513
-0.566368
-0.549621
-0.533165
-0.516867
-0.500663
-0.484537
-0.468499
-0.452574
-0.436798
-0.421209
-0.405847
-0.390751
-0.375961
-0.361509
-0.347403
-0.333648
-0.649219
-0.62204
-0.601762
-0.584247
-0.567347
-0.550993
-0.535074
-0.51944
-0.504007
-0.488732
-0.4736
-0.458611
-0.443776
-0.429112
-0.414641
-0.400384
-0.386365
-0.372638
-0.359257
-0.345899
-0.647685
-0.62074
-0.600589
-0.583241
-0.566622
-0.550678
-0.535301
-0.520333
-0.505674
-0.491262
-0.477059
-0.463043
-0.449202
-0.435534
-0.42204
-0.408722
-0.395586
-0.382704
-0.370183
-0.357377
-0.644315
-0.617738
-0.597802
-0.580677
-0.564371
-0.548852
-0.534018
-0.51971
-0.505818
-0.492268
-0.479003
-0.465984
-0.453178
-0.440565
-0.428126
-0.415842
-0.403699
-0.391783
-0.380263
-0.36818
-0.639306
-0.613219
-0.593582
-0.576733
-0.560772
-0.54569
-0.531397
-0.517737
-0.504598
-0.491897
-0.479568
-0.467554
-0.455811
-0.444298
-0.432982
-0.421822
-0.410778
-0.399948
-0.389579
-0.378406
-0.632849
-0.607363
-0.588104
-0.571585
-0.556001
-0.541368
-0.52761
-0.514581
-0.502172
-0.490299
-0.478888
-0.467876
-0.457207
-0.446829
-0.436691
-0.426733
-0.416891
-0.40727
-0.398202
-0.388149
-0.625127
-0.600344
-0.581539
-0.565402
-0.550228
-0.536055
-0.522826
-0.510408
-0.4987
-0.487622
-0.477101
-0.467072
-0.457473
-0.448245
-0.439327
-0.430641
-0.422098
-0.413804
-0.406194
-0.39749
-0.616312
-0.592326
-0.574047
-0.558345
-0.543614
-0.529915
-0.517208
-0.505379
-0.494338
-0.484013
-0.474341
-0.46526
-0.45671
-0.448631
-0.440956
-0.433598
-0.426439
-0.41959
-0.413595
-0.406491
-0.606561
-0.583459
-0.565777
-0.550564
-0.536311
-0.523101
-0.510912
-0.499647
-0.489234
-0.479615
-0.470738
-0.462553
-0.455011
-0.448057
-0.441629
-0.435634
-0.429935
-0.424638
-0.420415
-0.415185
-0.596015
-0.573881
-0.556867
-0.542197
-0.52846
-0.515756
-0.504081
-0.493359
-0.483532
-0.474562
-0.466414
-0.459057
-0.452458
-0.44658
-0.441376
-0.436756
-0.432571
-0.428924
-0.426628
-0.423574
-0.5848
-0.563717
-0.54744
-0.533367
-0.520187
-0.50801
-0.496849
-0.486646
-0.477363
-0.468979
-0.461483
-0.454866
-0.449121
-0.444239
-0.440199
-0.436933
-0.43429
-0.432374
-0.432153
-0.431608
-0.573025
-0.553076
-0.537605
-0.524185
-0.511602
-0.499975
-0.48933
-0.479626
-0.470843
-0.462979
-0.456045
-0.45006
-0.445051
-0.441046
-0.438066
-0.436084
-0.434969
-0.434836
-0.436833
-0.439177
-0.560787
-0.542056
-0.527458
-0.514746
-0.502801
-0.491748
-0.481624
-0.472401
-0.464074
-0.456658
-0.450186
-0.444706
-0.44028
-0.436984
-0.434898
-0.434062
-0.434395
-0.436047
-0.440396
-0.446086
-0.548174
-0.530745
-0.517085
-0.505132
-0.493864
-0.48341
-0.473812
-0.465052
-0.457138
-0.450096
-0.443976
-0.438849
-0.434816
-0.432002
-0.430561
-0.430627
-0.432211
-0.435551
-0.442356
-0.451967
-0.53527
-0.519224
-0.506562
-0.495414
-0.484859
-0.475025
-0.465956
-0.457644
-0.450099
-0.443353
-0.437465
-0.43252
-0.428644
-0.426008
-0.424843
-0.425399
-0.427823
-0.432513
-0.441731
-0.456016
-0.522162
-0.507572
-0.49596
-0.485654
-0.475841
-0.466643
-0.458106
-0.450224
-0.443005
-0.436479
-0.430696
-0.425742
-0.421746
-0.418899
-0.41749
-0.417881
-0.420372
-0.425592
-0.436801
-0.45692
-0.508942
-0.495868
-0.485345
-0.475911
-0.466859
-0.458309
-0.450302
-0.442832
-0.4359
-0.429518
-0.423718
-0.418557
-0.414136
-0.41062
-0.408298
-0.407611
-0.409001
-0.413312
-0.425209
-0.452371
-0.495712
-0.484193
-0.474785
-0.466239
-0.45796
-0.450062
-0.442583
-0.43551
-0.428832
-0.422534
-0.416607
-0.411046
-0.40586
-0.401087
-0.396845
-0.39342
-0.391113
-0.39008
-0.394128
-0.418735
-0.48258
-0.472633
-0.464347
-0.456694
-0.449191
-0.441946
-0.434994
-0.428317
-0.421886
-0.415657
-0.409566
-0.403519
-0.397365
-0.39086
-0.383615
-0.375074
-0.364064
-0.346741
-0.316605
-0.285986
-0.469663
-0.461274
-0.454102
-0.447334
-0.440603
-0.43401
-0.42759
-0.421325
-0.415179
-0.409094
-0.402985
-0.396731
-0.390155
-0.382998
-0.3749
-0.365452
-0.35402
-0.338465
-0.315429
-0.295015
-0.457074
-0.450202
-0.444116
-0.438217
-0.432244
-0.426299
-0.420418
-0.41459
-0.408779
-0.402933
-0.396969
-0.390781
-0.384222
-0.377105
-0.369203
-0.360313
-0.350168
-0.337776
-0.322247
-0.311638
-0.444922
-0.439497
-0.434456
-0.429395
-0.424161
-0.418855
-0.413517
-0.408145
-0.402715
-0.397183
-0.391484
-0.385535
-0.379231
-0.372446
-0.365051
-0.356962
-0.348057
-0.337773
-0.326074
-0.319564
-0.433303
-0.429236
-0.425182
-0.420922
-0.4164
-0.411715
-0.406917
-0.402015
-0.396998
-0.391836
-0.386487
-0.380892
-0.374988
-0.368702
-0.361977
-0.354808
-0.347166
-0.3387
-0.329582
-0.325043
-0.422297
-0.419481
-0.416347
-0.412843
-0.408998
-0.404914
-0.400647
-0.39622
-0.391634
-0.386878
-0.381929
-0.376755
-0.371324
-0.365606
-0.35959
-0.353315
-0.3468
-0.339811
-0.332552
-0.329167
-0.411966
-0.410285
-0.407999
-0.405198
-0.401991
-0.398481
-0.394729
-0.390771
-0.386624
-0.382291
-0.377765
-0.373039
-0.368103
-0.362956
-0.357613
-0.352131
-0.346549
-0.340695
-0.33475
-0.332043
-0.402355
-0.40169
-0.400174
-0.398022
-0.395409
-0.392439
-0.389181
-0.38568
-0.381966
-0.378056
-0.373957
-0.369679
-0.365229
-0.360623
-0.35589
-0.351092
-0.346272
-0.341293
-0.336299
-0.33398
-0.393492
-0.393726
-0.392901
-0.39134
-0.389277
-0.386811
-0.384018
-0.380955
-0.377659
-0.374159
-0.370477
-0.366629
-0.362638
-0.358528
-0.354335
-0.350119
-0.34592
-0.341626
-0.337338
-0.335245
-0.385391
-0.386412
-0.386202
-0.385176
-0.383612
-0.381611
-0.379253
-0.3766
-0.373701
-0.370591
-0.367301
-0.363858
-0.360288
-0.356623
-0.3529
-0.349175
-0.345483
-0.34173
-0.337982
-0.336026
-0.378056
-0.379761
-0.380093
-0.379543
-0.378431
-0.376854
-0.374893
-0.372621
-0.37009
-0.367342
-0.364416
-0.361342
-0.358153
-0.354881
-0.351564
-0.34825
-0.344974
-0.341654
-0.338328
-0.336458
-0.371484
-0.373778
-0.374583
-0.374455
-0.373744
-0.372548
-0.370948
-0.369021
-0.366825
-0.364409
-0.361811
-0.359069
-0.356217
-0.353288
-0.350318
-0.34735
-0.344415
-0.341444