1.45 	0 	0 	-0.29577
2.35 	0 	0 	-0.130538
