1.45 	0 	0 	-0.29916
2.35 	0 	0 	-0.132884
