1.45 	0 	0 	-0.303886
2.35 	0 	0 	-0.134582
