1.45 	0 	0 	-0.302437
2.35 	0 	0 	-0.0910698
