/*--------------------------------*- C++ -*----------------------------------*\
  =========                 |
  \\      /  F ield         | OpenFOAM: The Open Source CFD Toolbox
   \\    /   O peration     | Website:  https://openfoam.org
    \\  /    A nd           | Version:  6.0
     \\/     M anipulation  |
\*---------------------------------------------------------------------------*/
FoamFile
{
    version     2.0;
    format      ascii;
    class       volVectorField;
    location    "0.5";
    object      U;
}
// * * * * * * * * * * * * * * * * * * * * * * * * * * * * * * * * * * * * * //

dimensions      [0 1 -1 0 0 0 0];

internalField   nonuniform List<vector> 
200
(
(9.88246e-05 -0.00020851 0)
(-0.00388277 0.00252871 0)
(-0.0141296 0.00420894 0)
(-0.0267964 0.0046634 0)
(-0.0394556 0.00452612 0)
(-0.0512365 0.00420501 0)
(-0.0619542 0.00388646 0)
(-0.0716878 0.00363218 0)
(-0.0805602 0.00342935 0)
(-0.0885804 0.00320876 0)
(-0.095512 0.00284524 0)
(-0.100753 0.00215805 0)
(-0.103252 0.000932801 0)
(-0.101533 -0.00100943 0)
(-0.0939528 -0.00367416 0)
(-0.0793122 -0.00669713 0)
(-0.0578429 -0.00916346 0)
(-0.0324834 -0.00959156 0)
(-0.0102229 -0.00646094 0)
(-0.000515577 -0.000495641 0)
(-0.00320502 0.00404388 0)
(-0.0177272 0.0159459 0)
(-0.0439787 0.0226538 0)
(-0.0741627 0.0244389 0)
(-0.103747 0.0236 0)
(-0.131017 0.0217513 0)
(-0.155438 0.0197268 0)
(-0.177012 0.0178336 0)
(-0.195864 0.0160237 0)
(-0.211914 0.013983 0)
(-0.224624 0.0111728 0)
(-0.23282 0.00688367 0)
(-0.234628 0.000369632 0)
(-0.227603 -0.0088665 0)
(-0.209211 -0.0205901 0)
(-0.177769 -0.0331992 0)
(-0.133818 -0.0431641 0)
(-0.0819483 -0.0450557 0)
(-0.0335606 -0.033408 0)
(-0.0060826 -0.00927582 0)
(-0.00658985 0.0169716 0)
(-0.0308764 0.044344 0)
(-0.0700438 0.0579525 0)
(-0.112281 0.0608083 0)
(-0.1519 0.0578547 0)
(-0.187183 0.0525465 0)
(-0.217731 0.046747 0)
(-0.24373 0.0411661 0)
(-0.2655 0.0357084 0)
(-0.283127 0.0296918 0)
(-0.296202 0.0219894 0)
(-0.30366 0.0111933 0)
(-0.303715 -0.00409015 0)
(-0.293949 -0.0247059 0)
(-0.271666 -0.0500998 0)
(-0.234617 -0.0771778 0)
(-0.182167 -0.0991597 0)
(-0.11746 -0.105288 0)
(-0.0524987 -0.0836801 0)
(-0.0110551 -0.0315054 0)
(-0.00965271 0.0371082 0)
(-0.0420323 0.0840578 0)
(-0.0903155 0.103826 0)
(-0.138802 0.10551 0)
(-0.181405 0.0980317 0)
(-0.2172 0.0871219 0)
(-0.246503 0.0757763 0)
(-0.270072 0.0651014 0)
(-0.288716 0.0549293 0)
(-0.302979 0.044205 0)
(-0.312958 0.0312384 0)
(-0.318182 0.0139518 0)
(-0.31752 -0.00973609 0)
(-0.309105 -0.0412507 0)
(-0.290334 -0.0802745 0)
(-0.25806 -0.123119 0)
(-0.209221 -0.160635 0)
(-0.143164 -0.176519 0)
(-0.0694405 -0.149205 0)
(-0.0162303 -0.0642206 0)
(-0.0129377 0.0634287 0)
(-0.0518826 0.131557 0)
(-0.104324 0.154293 0)
(-0.151772 0.15095 0)
(-0.189257 0.135909 0)
(-0.217673 0.117389 0)
(-0.23861 0.0993587 0)
(-0.253668 0.0831332 0)
(-0.264257 0.0683763 0)
(-0.271453 0.053681 0)
(-0.275968 0.0369025 0)
(-0.278121 0.0154149 0)
(-0.277743 -0.013549 0)
(-0.273941 -0.0523053 0)
(-0.26469 -0.101627 0)
(-0.246286 -0.158779 0)
(-0.212961 -0.214242 0)
(-0.158598 -0.247363 0)
(-0.0862065 -0.224139 0)
(-0.0229742 -0.107422 0)
(-0.0174275 0.0962826 0)
(-0.0617287 0.183318 0)
(-0.111249 0.202482 0)
(-0.147735 0.188863 0)
(-0.170313 0.163301 0)
(-0.182984 0.136047 0)
(-0.18893 0.111418 0)
(-0.190509 0.090477 0)
(-0.189485 0.0725015 0)
(-0.187185 0.0557368 0)
(-0.184688 0.0377481 0)
(-0.182958 0.0156018 0)
(-0.182821 -0.0139658 0)
(-0.184709 -0.0542286 0)
(-0.187991 -0.107704 0)
(-0.189698 -0.174282 0)
(-0.182671 -0.247057 0)
(-0.1553 -0.304642 0)
(-0.0996153 -0.301026 0)
(-0.031246 -0.162984 0)
(-0.0241485 0.138567 0)
(-0.0717658 0.234113 0)
(-0.105948 0.237714 0)
(-0.116903 0.20788 0)
(-0.112829 0.170496 0)
(-0.101571 0.135691 0)
(-0.0873651 0.106727 0)
(-0.072564 0.0836655 0)
(-0.0585474 0.0651139 0)
(-0.0462438 0.0490035 0)
(-0.0365496 0.0328597 0)
(-0.0306121 0.0138425 0)
(-0.0299546 -0.0113086 0)
(-0.0363694 -0.0463485 0)
(-0.0513579 -0.0954198 0)
(-0.0745716 -0.162049 0)
(-0.100676 -0.245347 0)
(-0.115833 -0.329988 0)
(-0.098587 -0.365393 0)
(-0.037449 -0.232255 0)
(-0.0308914 0.196585 0)
(-0.0734655 0.271875 0)
(-0.0668662 0.240573 0)
(-0.0316564 0.191572 0)
(0.0102232 0.146477 0)
(0.0500128 0.109932 0)
(0.0850715 0.0821802 0)
(0.11478 0.0616828 0)
(0.139309 0.0463364 0)
(0.158936 0.0339835 0)
(0.17357 0.0224792 0)
(0.182437 0.00958197 0)
(0.18388 -0.0072525 0)
(0.17523 -0.031228 0)
(0.152891 -0.0667848 0)
(0.11325 -0.120154 0)
(0.0554127 -0.198224 0)
(-0.0128226 -0.30022 0)
(-0.0596814 -0.388341 0)
(-0.0285826 -0.306423 0)
(-0.00723626 0.25475 0)
(-0.0120995 0.261412 0)
(0.0772629 0.186528 0)
(0.174445 0.129375 0)
(0.252152 0.0896519 0)
(0.311733 0.0619159 0)
(0.357301 0.0429872 0)
(0.391988 0.0302692 0)
(0.418307 0.0215766 0)
(0.438056 0.0151838 0)
(0.452122 0.00968857 0)
(0.460378 0.00382439 0)
(0.461566 -0.00374203 0)
(0.453064 -0.0147275 0)
(0.430474 -0.0319029 0)
(0.38713 -0.0605976 0)
(0.313541 -0.111332 0)
(0.199142 -0.199375 0)
(0.0696445 -0.319029 0)
(0.0389014 -0.326597 0)
(0.285272 0.141376 0)
(0.366013 0.124922 0)
(0.509064 0.0784553 0)
(0.618196 0.0479928 0)
(0.6847 0.0295881 0)
(0.726256 0.0182098 0)
(0.753716 0.0112494 0)
(0.772321 0.00706986 0)
(0.785135 0.00454255 0)
(0.794025 0.00291216 0)
(0.799904 0.00166545 0)
(0.802894 0.000416994 0)
(0.802391 -0.00118119 0)
(0.796971 -0.00354531 0)
(0.783973 -0.00737754 0)
(0.758421 -0.01427 0)
(0.709874 -0.0283925 0)
(0.611889 -0.0595737 0)
(0.446363 -0.119838 0)
(0.327159 -0.152579 0)
)
;

boundaryField
{
    movingWall
    {
        type            fixedValue;
        value           uniform (1 0 0);
    }
    fixedWalls
    {
        type            noSlip;
    }
    frontAndBack
    {
        type            empty;
    }
}


// ************************************************************************* //
