/*--------------------------------*- C++ -*----------------------------------*\
  =========                 |
  \\      /  F ield         | OpenFOAM: The Open Source CFD Toolbox
   \\    /   O peration     | Website:  https://openfoam.org
    \\  /    A nd           | Version:  6.0
     \\/     M anipulation  |
\*---------------------------------------------------------------------------*/
FoamFile
{
    version     2.0;
    format      ascii;
    class       volScalarField;
    location    "19";
    object      p;
}
// * * * * * * * * * * * * * * * * * * * * * * * * * * * * * * * * * * * * * //

dimensions      [0 2 -2 0 0 0 0];

internalField   nonuniform List<scalar> 
62000
(
0.0381465
0.0388945
0.0396169
0.0403265
0.0410089
0.0416821
0.0423385
0.0429905
0.0436352
0.0442819
0.0449322
0.0455924
0.0462679
0.0469645
0.0476887
0.0484484
0.0492487
0.0501009
0.0510081
0.0519853
0.0530329
0.0541691
0.055392
0.0567209
0.0581525
0.059705
0.0613738
0.0631736
0.0650945
0.067145
0.0693046
0.0715741
0.0739534
0.0764424
0.0790411
0.0817513
0.0845896
0.0875877
0.0908057
0.0943268
0.0982663
0.102745
0.10789
0.113777
0.12035
0.127208
0.133494
0.137874
0.138846
0.135613
0.128717
0.120136
0.111774
0.104331
0.0966233
0.0873693
0.0769777
0.0617583
0.0480703
0.0704293
0.0425212
0.0433704
0.0441908
0.0450097
0.0457859
0.0465445
0.0472608
0.0479525
0.0486045
0.0492333
0.0498326
0.0504182
0.0509914
0.051568
0.0521538
0.0527647
0.053408
0.0541
0.0548467
0.0556647
0.0565579
0.057542
0.0586194
0.0598037
0.0610971
0.0625097
0.0640433
0.0657015
0.0674816
0.0693767
0.071379
0.0734783
0.0756737
0.0779663
0.080354
0.0828447
0.0854564
0.0882305
0.0912338
0.0945655
0.0983573
0.102757
0.107926
0.113987
0.120948
0.128484
0.135816
0.14164
0.144385
0.143077
0.138065
0.131254
0.124684
0.119172
0.11329
0.105445
0.0957242
0.0781568
0.0640554
0.00797815
0.0477175
0.0486617
0.0495874
0.050513
0.0513934
0.0522513
0.0530525
0.0538134
0.0545104
0.0551592
0.0557463
0.0562888
0.0567833
0.057249
0.0576899
0.0581276
0.05857
0.0590396
0.0595454
0.0601093
0.0607392
0.0614545
0.062261
0.0631739
0.0641991
0.0653474
0.0666242
0.0680329
0.069571
0.0712334
0.0730062
0.074886
0.076871
0.0789629
0.0811633
0.0834806
0.0859359
0.0885718
0.0914574
0.0946927
0.0984109
0.10276
0.107909
0.113998
0.121066
0.12884
0.136592
0.143042
0.146531
0.145853
0.141072
0.133945
0.126636
0.120287
0.113582
0.105138
0.0947539
0.0760485
0.0597519
0.022716
0.0503332
0.0512221
0.0521499
0.0531312
0.0541227
0.055141
0.056144
0.0571384
0.0580876
0.0589972
0.0598378
0.0606192
0.0613228
0.061964
0.0625353
0.0630581
0.0635341
0.0639894
0.0644315
0.0648884
0.0653705
0.0659031
0.0664968
0.0671717
0.0679385
0.0688133
0.0698072
0.0709272
0.0721762
0.073547
0.075034
0.0766305
0.0783424
0.0801744
0.0821321
0.0842275
0.086485
0.08895
0.0916931
0.0948148
0.0984465
0.102733
0.107847
0.11395
0.121116
0.129135
0.137363
0.144575
0.149068
0.149409
0.145331
0.138356
0.130737
0.123943
0.116996
0.108578
0.098041
0.0788672
0.0607012
0.0263914
0.0488322
0.0495478
0.0503235
0.0512081
0.0521609
0.0532142
0.0543285
0.0555157
0.0567344
0.057985
0.0592253
0.0604522
0.0616286
0.0627541
0.0638013
0.0647772
0.0656667
0.0664856
0.0672309
0.0679265
0.0685792
0.0692157
0.0698486
0.0705025
0.0711939
0.0719456
0.0727765
0.0737019
0.0747302
0.0758642
0.0770971
0.0784343
0.0798843
0.0814594
0.083171
0.0850364
0.0870847
0.0893653
0.0919513
0.0949439
0.098474
0.102682
0.107752
0.113868
0.121144
0.129451
0.138255
0.146428
0.152275
0.154156
0.151438
0.145322
0.137983
0.131138
0.124238
0.115967
0.10525
0.0852841
0.0649429
0.0308955
0.0453342
0.0456832
0.0460756
0.046583
0.0471905
0.0479422
0.0488275
0.0498713
0.0510519
0.052377
0.0538102
0.0553454
0.0569363
0.0585689
0.0601947
0.0618005
0.0633447
0.0648213
0.0662026
0.0674945
0.068686
0.0697923
0.0708175
0.0717822
0.0727022
0.0736034
0.0745107
0.0754467
0.0764307
0.0774709
0.078577
0.079757
0.0810325
0.0824239
0.0839517
0.0856406
0.0875262
0.0896628
0.0921258
0.0950161
0.0984602
0.102591
0.107597
0.113681
0.12099
0.129476
0.138728
0.147746
0.15489
0.158347
0.15711
0.151931
0.144752
0.137356
0.129663
0.120637
0.109246
0.0885423
0.0664128
0.0332878
0.0406991
0.0408454
0.0409748
0.0411789
0.0414326
0.0417977
0.0422738
0.0429125
0.0437151
0.0447203
0.0459173
0.0473255
0.0489157
0.0506852
0.0525866
0.0546006
0.0566703
0.0587692
0.0608427
0.0628696
0.0648094
0.066651
0.0683739
0.0699792
0.0714671
0.0728539
0.0741593
0.0754067
0.0766176
0.0778113
0.0790002
0.0802097
0.0814697
0.0828136
0.0842735
0.0858849
0.0876922
0.0897564
0.0921557
0.0949905
0.0983801
0.102445
0.107371
0.11337
0.120616
0.129136
0.138652
0.148322
0.15662
0.16163
0.161994
0.157959
0.151019
0.14285
0.133725
0.123153
0.11062
0.0894045
0.0661223
0.034665
0.0370496
0.0370964
0.037088
0.0370961
0.0370965
0.037134
0.0372136
0.0373849
0.0376645
0.0381079
0.0387322
0.039588
0.0406804
0.0420418
0.0436538
0.0455222
0.0476032
0.0498764
0.0522798
0.0547785
0.0573079
0.0598297
0.0622914
0.0646627
0.0669135
0.0690336
0.0710214
0.0728831
0.0746318
0.076278
0.0778413
0.0793447
0.08083
0.0823394
0.0839163
0.0856072
0.0874665
0.0895637
0.0919818
0.0948216
0.0981963
0.102212
0.107049
0.112919
0.120013
0.128427
0.138022
0.148148
0.157471
0.164067
0.166323
0.163964
0.157916
0.149482
0.139052
0.126687
0.112632
0.0905277
0.0659158
0.0349765
0.0334462
0.0335785
0.0336494
0.0337235
0.0337508
0.0337648
0.033745
0.03373
0.0337202
0.0337694
0.0338959
0.0341661
0.0346072
0.0352851
0.0362195
0.0374583
0.0389982
0.0408549
0.0429942
0.0453986
0.0480097
0.0507837
0.0536523
0.0565615
0.0594515
0.0622802
0.0650128
0.0676264
0.0701058
0.0724438
0.0746382
0.0767092
0.0786912
0.0806275
0.0825655
0.0845566
0.0866611
0.0889538
0.0915211
0.0944642
0.0978896
0.101891
0.106637
0.112332
0.119168
0.127294
0.136707
0.146972
0.157015
0.165024
0.169264
0.16903
0.164604
0.156751
0.145675
0.131741
0.115907
0.0923068
0.0656101
0.033953
0.0306159
0.0308209
0.0309865
0.0311595
0.0312964
0.031412
0.0314773
0.031507
0.0314824
0.0314334
0.0313588
0.0313109
0.0313104
0.0314289
0.0317015
0.0322052
0.0329726
0.0340644
0.0354908
0.0372789
0.0394072
0.0418604
0.0445859
0.0475348
0.0506394
0.0538402
0.0570781
0.0602996
0.0634594
0.0665154
0.0694438
0.0722336
0.0749048
0.0774859
0.0800142
0.0825344
0.0851016
0.0877875
0.0906728
0.0938542
0.0974247
0.101465
0.106118
0.11157
0.117987
0.12555
0.13436
0.144208
0.154314
0.163093
0.168843
0.170583
0.168032
0.161317
0.150234
0.135186
0.117689
0.092442
0.0635842
0.0313242
0.0275047
0.0278184
0.0281158
0.0284479
0.0287638
0.0290824
0.0293619
0.0296122
0.0297945
0.0299223
0.0299678
0.0299602
0.0298938
0.0298219
0.0297661
0.0298024
0.0299734
0.0303632
0.0310163
0.0320026
0.033348
0.0350849
0.0372034
0.03969
0.0425006
0.0455879
0.0488925
0.0523507
0.055896
0.0594643
0.0629958
0.0664579
0.0698389
0.0731427
0.0763846
0.0795879
0.0827897
0.0860431
0.0894123
0.0929738
0.096799
0.10094
0.105507
0.110639
0.116457
0.123135
0.130848
0.139584
0.148867
0.157413
0.163706
0.166683
0.165653
0.160184
0.149582
0.134054
0.115525
0.0893807
0.0592252
0.0276822
0.0249748
0.0253332
0.025692
0.0260936
0.0265056
0.0269456
0.027382
0.0278215
0.0282251
0.0285958
0.0288919
0.0291221
0.0292542
0.0293143
0.0292941
0.0292465
0.0291948
0.0292173
0.0293625
0.0297199
0.0303453
0.0313121
0.0326565
0.0344132
0.0365826
0.0391549
0.0420994
0.0453673
0.0488988
0.0526191
0.056461
0.0603623
0.064291
0.0682224
0.0721432
0.076047
0.0799415
0.0838489
0.0878029
0.0918451
0.0960103
0.100308
0.104795
0.109545
0.11461
0.120129
0.126306
0.13329
0.14088
0.148123
0.1538
0.156955
0.156713
0.152224
0.142342
0.127023
0.108472
0.0827331
0.0527781
0.0235021
0.022182
0.022616
0.0230577
0.0235543
0.0240695
0.0246319
0.0252094
0.0258194
0.0264238
0.0270319
0.0275975
0.0281254
0.0285683
0.0289346
0.0291895
0.0293581
0.0294335
0.0294677
0.0294892
0.0295781
0.0297925
0.0302219
0.0309306
0.0319916
0.0334493
0.0353404
0.0376776
0.0404499
0.043624
0.0471464
0.0509485
0.0549738
0.0591728
0.0635047
0.0679298
0.0724142
0.0769301
0.081465
0.0860098
0.090563
0.0951066
0.0995963
0.104018
0.108368
0.112617
0.116848
0.12126
0.126112
0.13142
0.136559
0.140667
0.143032
0.142793
0.1389
0.129886
0.115433
0.0979231
0.0739712
0.0455176
0.0196103
0.0199536
0.0204198
0.0208959
0.0214195
0.0219691
0.0225716
0.0232067
0.0238949
0.0246081
0.0253606
0.0261134
0.0268736
0.0275927
0.0282727
0.0288646
0.0293748
0.0297693
0.0300719
0.0302801
0.0304478
0.0306123
0.0308533
0.0312368
0.0318504
0.0327651
0.0340534
0.0357694
0.0379444
0.0405868
0.0436728
0.0471685
0.0510238
0.0552019
0.0596564
0.0643358
0.0691849
0.0741483
0.0791779
0.0842234
0.0892336
0.0941341
0.0988176
0.103192
0.107173
0.110644
0.113631
0.116295
0.118963
0.121795
0.124449
0.126422
0.127329
0.12649
0.122823
0.114677
0.101542
0.0858698
0.0646103
0.0384342
0.0162178
0.0174528
0.0179911
0.0185394
0.0191379
0.0197568
0.0204305
0.0211344
0.0218983
0.0226955
0.0235518
0.0244332
0.0253581
0.0262832
0.0272163
0.0281068
0.0289557
0.0297149
0.0303887
0.0309484
0.0314196
0.0318099
0.0321736
0.0325584
0.033043
0.0337015
0.0346214
0.035882
0.0375483
0.0396651
0.0422514
0.0453001
0.0488002
0.0527327
0.0570644
0.0617481
0.0667203
0.0719104
0.0772431
0.0826348
0.0879879
0.0931758
0.0980283
0.10238
0.106067
0.108902
0.110851
0.112027
0.112779
0.113334
0.113574
0.113314
0.112511
0.110746
0.107059
0.0997514
0.0881426
0.0746655
0.0564079
0.0325188
0.0136767
0.0154725
0.0160453
0.016627
0.0172482
0.0178899
0.018582
0.0193073
0.020094
0.0209219
0.0218191
0.0227593
0.0237677
0.0248093
0.0259006
0.0269966
0.0281029
0.0291689
0.030192
0.0311281
0.0319826
0.0327367
0.0334166
0.0340423
0.0346693
0.0353559
0.0361837
0.0372371
0.038596
0.0403311
0.0424877
0.0451012
0.0481853
0.0517555
0.0558036
0.0602967
0.0651807
0.0703809
0.0758118
0.0813657
0.0869138
0.0922845
0.0972593
0.101607
0.105101
0.107496
0.108714
0.108804
0.108112
0.10686
0.105078
0.102833
0.10039
0.0976302
0.0937708
0.0871453
0.0769833
0.0656047
0.0500273
0.0279508
0.0117234
0.0131916
0.0138367
0.0144906
0.0151861
0.0158946
0.0166513
0.0174316
0.0182694
0.0191411
0.0200817
0.0210656
0.0221271
0.0232364
0.0244209
0.0256437
0.0269201
0.0282051
0.0294992
0.0307548
0.0319686
0.0331053
0.0341698
0.0351565
0.0360937
0.0370151
0.0379828
0.0390685
0.0403503
0.0419044
0.0437966
0.0460768
0.0487963
0.0519958
0.0556972
0.0598917
0.0645436
0.0695881
0.0749421
0.08049
0.0860859
0.0915312
0.0965731
0.100935
0.104348
0.106526
0.107359
0.106838
0.105274
0.102827
0.0996091
0.0958635
0.0920947
0.0884518
0.0843674
0.0782646
0.0692755
0.0595626
0.0459879
0.0248919
0.0103816
0.0113718
0.0120527
0.0127419
0.0134632
0.0141976
0.0149754
0.0157773
0.0166334
0.0175231
0.0184796
0.0194802
0.0205607
0.021696
0.0229198
0.0242023
0.0255687
0.0269822
0.028452
0.0299343
0.0314272
0.0328892
0.0343136
0.0356772
0.0369857
0.0382479
0.0395013
0.0407964
0.0421948
0.0437658
0.0455714
0.0476801
0.0501493
0.05305
0.0564269
0.0602981
0.0646497
0.069437
0.0745895
0.079999
0.0855165
0.0909361
0.095989
0.100376
0.103803
0.105966
0.106733
0.10604
0.104151
0.101119
0.0970786
0.092372
0.0876702
0.0833441
0.0790128
0.0731841
0.0649537
0.0562879
0.0438313
0.0228903
0.00920587
0.00922205
0.00997442
0.0107359
0.0115332
0.0123373
0.0131834
0.0140444
0.0149546
0.0158885
0.0168832
0.0179131
0.0190186
0.0201748
0.0214215
0.0227333
0.0241437
0.0256241
0.0271934
0.0288162
0.030497
0.0321972
0.0339078
0.0355974
0.0372577
0.0388787
0.0404758
0.0420756
0.0437183
0.0454541
0.0473379
0.0494239
0.0517863
0.0545011
0.0576335
0.0612226
0.0652772
0.0697744
0.0746646
0.0798556
0.0852103
0.0905309
0.0955518
0.0999713
0.103493
0.105808
0.106773
0.106277
0.104526
0.101442
0.0971359
0.0919908
0.0867625
0.0819759
0.0774092
0.0716604
0.063759
0.0554947
0.0433371
0.0217701
0.00819065
0.0075229
0.00831166
0.00910846
0.00993242
0.0107636
0.0116327
0.0125176
0.013449
0.0144037
0.0154157
0.0164606
0.0175768
0.0187407
0.0199928
0.0213108
0.0227329
0.0242363
0.0258485
0.0275418
0.02933
0.0311809
0.0330898
0.0350249
0.0369725
0.0389115
0.0408415
0.0427692
0.0447132
0.0467029
0.0487702
0.0509674
0.0533495
0.0560015
0.0589947
0.0623817
0.0661893
0.0704157
0.0750342
0.0799742
0.0851202
0.090295
0.0952518
0.099704
0.103369
0.105944
0.107285
0.107238
0.105949
0.103199
0.0990473
0.0938652
0.0884356
0.08338
0.0785771
0.0726778
0.0646987
0.0562641
0.0436941
0.0209703
0.00693933
0.00556197
0.00641098
0.00726747
0.00815327
0.00904112
0.00996703
0.0109021
0.0118821
0.0128782
0.0139287
0.015004
0.0161465
0.0173286
0.0185944
0.0199199
0.021348
0.0228582
0.0244846
0.0262061
0.0280452
0.0299776
0.0320063
0.0341044
0.0362594
0.0384467
0.0406577
0.0428856
0.0451316
0.0474044
0.049721
0.0521044
0.0546087
0.0573047
0.0602638
0.0635445
0.0671844
0.071198
0.0755794
0.0802811
0.0852135
0.0902283
0.0951082
0.0995943
0.103429
0.106328
0.108146
0.108698
0.108071
0.105906
0.102194
0.0972674
0.0918838
0.0867055
0.0816783
0.0754981
0.0671345
0.0580992
0.0446447
0.0203848
0.00555832
0.00368196
0.00457957
0.00548603
0.00642149
0.00735816
0.00833287
0.00931478
0.0103404
0.0113787
0.0124683
0.0135779
0.0147496
0.0159543
0.0172365
0.0185716
0.0200039
0.0215143
0.0231411
0.0248671
0.0267222
0.0286888
0.0307782
0.0329705
0.0352584
0.0376196
0.0400437
0.042517
0.0450295
0.0475756
0.0501495
0.052767
0.0554527
0.0582715
0.0612851
0.0645497
0.0681065
0.0719803
0.0761816
0.0806838
0.0854237
0.0902853
0.0950859
0.099602
0.103609
0.106842
0.109163
0.110356
0.110461
0.108985
0.105849
0.101329
0.0961292
0.0909179
0.0856596
0.0790578
0.070088
0.0601711
0.0455197
0.0195937
0.00375564
0.00180356
0.00274616
0.00369981
0.00468254
0.00566611
0.0066878
0.00771522
0.00878576
0.00986646
0.0109972
0.0121437
0.0133496
0.0145831
0.0158894
0.0172418
0.0186853
0.0202002
0.0218268
0.0235504
0.0254052
0.0273796
0.0294916
0.0317286
0.0340908
0.0365608
0.0391314
0.0417877
0.0445143
0.047295
0.0501157
0.0529639
0.0558617
0.0588507
0.0619828
0.0653065
0.0688604
0.072673
0.0767653
0.0811266
0.0857179
0.090454
0.0951884
0.0997352
0.103905
0.107457
0.110257
0.11207
0.112892
0.112117
0.109597
0.10555
0.100604
0.0954075
0.0899269
0.082872
0.0731875
0.0622534
0.0462986
0.0186708
0.00174322
-1.28324e-05
0.000971442
0.00196784
0.00299285
0.00401858
0.00508254
0.00615182
0.00726369
0.00838455
0.00955355
0.0107363
0.0119751
0.0132377
0.0145685
0.0159398
0.0173965
0.0189183
0.0205462
0.0222663
0.0241154
0.0260852
0.0281992
0.0304507
0.0328469
0.0353769
0.0380386
0.0408201
0.0437055
0.0466747
0.0496998
0.0527695
0.0558763
0.0590566
0.0623458
0.0657819
0.0693962
0.0732156
0.0772659
0.0815471
0.0860391
0.0906844
0.0953696
0.0999446
0.104254
0.10808
0.111293
0.113644
0.115099
0.114949
0.112994
0.109393
0.104699
0.0995262
0.0938177
0.086259
0.0758174
0.0638378
0.0465573
0.0173493
-0.000706039
-0.00184977
-0.000826014
0.000211545
0.00127794
0.00234478
0.00345017
0.00455989
0.0057123
0.00687228
0.00808043
0.0093
0.010575
0.0118707
0.0132324
0.0146301
0.0161087
0.0176464
0.019284
0.0210073
0.0228544
0.0248189
0.0269277
0.029179
0.0315855
0.0341429
0.0368552
0.0397155
0.0427105
0.0458192
0.0490152
0.0522664
0.0555697
0.0589406
0.0624039
0.0659861
0.0697084
0.0735923
0.077663
0.0819254
0.0863728
0.0909697
0.0956308
0.100237
0.104663
0.108714
0.112265
0.115055
0.117031
0.117404
0.11593
0.112718
0.108246
0.103089
0.0971655
0.0891462
0.0779788
0.0650072
0.0464949
0.0158301
-0.00332061
-0.0036821
-0.00261736
-0.00153864
-0.000431481
0.000675849
0.00182203
0.00297237
0.00416527
0.00536509
0.00661189
0.00786898
0.00917943
0.0105084
0.0119005
0.0133255
0.0148277
0.0163844
0.0180364
0.0197683
0.0216189
0.0235819
0.0256863
0.0279331
0.0303393
0.0329059
0.0356429
0.038549
0.0416158
0.0448254
0.0481457
0.0515538
0.0550245
0.0585731
0.0622112
0.0659544
0.0698132
0.073801
0.0779391
0.0822323
0.086682
0.0912682
0.0959276
0.100566
0.105082
0.1093
0.113099
0.116212
0.118575
0.119335
0.11822
0.1153
0.110988
0.10582
0.0996816
0.0912034
0.0793638
0.0654933
0.0458452
0.013918
-0.00630217
-0.00559995
-0.00449233
-0.00336973
-0.00221836
-0.00106762
0.000122523
0.00131557
0.00255177
0.00379349
0.005083
0.0063808
0.00773235
0.0091001
0.0105304
0.0119903
0.0135249
0.0151097
0.0167854
0.0185354
0.0203982
0.0223676
0.0244734
0.0267183
0.0291225
0.0316909
0.034439
0.0373709
0.0404832
0.0437613
0.0471807
0.0507039
0.0543188
0.0580248
0.0618287
0.0657363
0.069748
0.0738678
0.0781106
0.0824775
0.0869727
0.0915861
0.096269
0.100945
0.105532
0.10987
0.11384
0.117174
0.119804
0.120831
0.119965
0.11725
0.11304
0.107835
0.101498
0.0926364
0.0802096
0.0655578
0.0449176
0.0118676
-0.0093502
-0.00754958
-0.00639689
-0.00522896
-0.0040324
-0.00283689
-0.0016016
-0.000363694
0.00091734
0.00220329
0.00353612
0.00487645
0.00626905
0.00767637
0.00914442
0.01064
0.0122083
0.0138238
0.0155273
0.0173009
0.019183
0.0211664
0.0232812
0.0255306
0.0279367
0.0305075
0.0332622
0.0362097
0.039352
0.0426796
0.0461656
0.0497886
0.0535184
0.0573618
0.0613171
0.0653829
0.0695507
0.0738158
0.0781852
0.0826539
0.0872253
0.0918934
0.0966186
0.101335
0.105973
0.110385
0.114453
0.117907
0.120688
0.121858
0.121127
0.118516
0.114338
0.109066
0.102531
0.0932998
0.0803596
0.0650387
0.0435043
0.00950095
-0.0126692
-0.00958555
-0.00838891
-0.00717529
-0.00593223
-0.00469045
-0.00340799
-0.00212382
-0.000795657
0.000536278
0.00191622
0.00330196
0.00474086
0.00619276
0.00770548
0.00924365
0.0108531
0.0125071
0.0142461
0.0160515
0.017961
0.019967
0.0220992
0.0243613
0.0267762
0.0293541
0.032117
0.035078
0.0382431
0.0416068
0.0451521
0.0488458
0.0526752
0.0566369
0.0607282
0.064943
0.0692654
0.0736829
0.0781943
0.082787
0.0874605
0.0922089
0.0969957
0.10176
0.10644
0.110894
0.115006
0.11851
0.121356
0.122579
0.121896
0.11932
0.115122
0.109757
0.10304
0.0935143
0.0801415
0.0642576
0.0419445
0.00708711
-0.0159684
-0.0116356
-0.0103964
-0.00913947
-0.00785245
-0.00656639
-0.00523849
-0.00390842
-0.0025337
-0.00115515
0.000271076
0.00170289
0.00318699
0.00468318
0.00623918
0.00781935
0.00946982
0.0111632
0.0129403
0.0147812
0.0167237
0.018759
0.0209165
0.0231998
0.0256319
0.0282243
0.0310013
0.0339787
0.0371667
0.0405644
0.0441528
0.0479159
0.0518267
0.0558917
0.0601048
0.0644568
0.0689264
0.0734943
0.0781521
0.0828789
0.0876687
0.0925123
0.0973724
0.102187
0.106899
0.111366
0.115477
0.118965
0.121798
0.12299
0.12227
0.119653
0.115382
0.109898
0.102994
0.0931786
0.0794276
0.0630632
0.0400281
0.00443754
-0.0194883
-0.0137444
-0.0124666
-0.0111689
-0.00983961
-0.00851101
-0.00713866
-0.00576446
-0.00434369
-0.00291962
-0.00144569
3.27434e-05
0.00156532
0.00310893
0.00471337
0.00634068
0.00803807
0.00977673
0.0115978
0.0134804
0.0154622
0.0175338
0.0197242
0.0220367
0.0244947
0.0271104
0.0299095
0.0329101
0.036125
0.039556
0.0431934
0.0470094
0.050997
0.0551541
0.0594779
0.0639575
0.0685677
0.0732838
0.0780908
0.0829596
0.0878776
0.0928304
0.0977764
0.10265
0.107391
0.111859
0.115942
0.119377
0.122151
0.12326
0.122453
0.119751
0.115371
0.109747
0.102668
0.0926227
0.0785477
0.0617712
0.038086
0.00182119
-0.0229428
-0.0158435
-0.0145283
-0.0131925
-0.0118244
-0.0104564
-0.00904325
-0.00762733
-0.00616365
-0.00469595
-0.00317799
-0.00165489
-7.76641e-05
0.00151065
0.00315976
0.0048315
0.0065735
0.00835644
0.0102219
0.0121481
0.0141728
0.0162857
0.0185154
0.0208648
0.0233572
0.026005
0.0288351
0.0318668
0.0351155
0.038586
0.0422656
0.0461444
0.0502002
0.0544438
0.0588702
0.0634685
0.0682107
0.0730685
0.0780209
0.0830317
0.0880812
0.0931484
0.0981857
0.103121
0.107888
0.112342
0.116375
0.119723
0.122395
0.123373
0.122425
0.119587
0.115062
0.109276
0.10201
0.0917231
0.0773506
0.0602054
0.0358874
-0.00096687
-0.026581
-0.0179933
-0.0166429
-0.0152701
-0.0138638
-0.0124574
-0.0110043
-0.0095486
-0.00804321
-0.00653391
-0.00497185
-0.00340505
-0.00178161
-0.000147249
0.00154989
0.00326941
0.00506017
0.00689156
0.00880562
0.0107797
0.0128518
0.015011
0.0172858
0.0196786
0.0222128
0.0249009
0.0277703
0.0308418
0.0341317
0.0376465
0.0413816
0.0453149
0.0494435
0.0537707
0.0582953
0.0630072
0.0678769
0.0728727
0.0779693
0.0831234
0.0883086
0.0934968
0.0986327
0.103636
0.108432
0.112873
0.116849
0.120099
0.122653
0.123478
0.122368
0.119372
0.114679
0.108716
0.101266
0.0907816
0.0761398
0.0586588
0.0337469
-0.00366406
-0.0301118
-0.0201406
-0.0187552
-0.017347
-0.0159046
-0.0144618
-0.0129711
-0.0114768
-0.00993174
-0.00838186
-0.00677877
-0.00516984
-0.00350394
-0.00182633
-8.53814e-05
0.0016787
0.00351509
0.00539299
0.0073549
0.00937748
0.0114989
0.0137077
0.0160318
0.0184736
0.0210559
0.0237916
0.0267084
0.0298276
0.0331675
0.0367361
0.0405253
0.0445286
0.0487284
0.05314
0.0577615
0.0625834
0.0675754
0.0727039
0.0779397
0.0832336
0.0885529
0.0938621
0.0990979
0.10417
0.108996
0.113418
0.117329
0.120467
0.122883
0.123531
0.122228
0.119039
0.114152
0.107992
0.10034
0.0896327
0.0747269
0.0569215
0.0314113
-0.00650771
-0.0338024
-0.0223479
-0.0209299
-0.0194871
-0.0180088
-0.01653
-0.0150013
-0.0134693
-0.0118844
-0.0102948
-0.00864928
-0.00699827
-0.00528736
-0.0035647
-0.00177612
3.57894e-05
0.00192181
0.00384981
0.00586302
0.00793735
0.0101113
0.0123731
0.0147505
0.0172457
0.0198817
0.0226712
0.0256426
0.0288178
0.0322155
0.0358445
0.0397032
0.0437719
0.0480524
0.0525511
0.0572709
0.0622034
0.0673174
0.0725779
0.0779525
0.0833865
0.0888415
0.094275
0.0996153
0.104762
0.109623
0.114033
0.117883
0.120912
0.123191
0.123659
0.122155
0.118765
0.113669
0.107299
0.099444
0.088545
0.0733873
0.0552639
0.0291819
-0.00925524
-0.0373559
-0.0245644
-0.0231134
-0.021637
-0.0201246
-0.018611
-0.0170463
-0.0154773
-0.0138542
-0.0122253
-0.0105398
-0.00884745
-0.00709473
-0.00532909
-0.00349664
-0.00163961
0.000293119
0.00226941
0.00433301
0.00645922
0.00868701
0.0110039
0.0134377
0.0159904
0.0186849
0.0215341
0.0245667
0.0278049
0.0312686
0.0349674
0.038895
0.0430478
0.0474105
0.0520022
0.0568239
0.0618683
0.0671039
0.0724945
0.0780051
0.0835765
0.089165
0.0947212
0.100166
0.105387
0.110285
0.114682
0.118469
0.121384
0.123518
0.123792
0.122067
0.118449
0.113124
0.106526
0.0984433
0.0873192
0.0719047
0.0534538
0.0267855
-0.012152
-0.0410466
-0.0268611
-0.025378
-0.0238676
-0.0223199
-0.0207709
-0.019169
-0.0175627
-0.0159003
-0.014232
-0.0125044
-0.0107699
-0.00897208
-0.00716083
-0.00528013
-0.00337412
-0.00139037
0.000637995
0.00275532
0.00493643
0.00722073
0.00959558
0.0120889
0.0147027
0.0174599
0.0203737
0.0234731
0.0267812
0.0303178
0.0340928
0.0381063
0.0423403
0.0467976
0.0514885
0.0564177
0.0615788
0.0669399
0.0724635
0.0781127
0.0838236
0.0895478
0.0952297
0.100782
0.106084
0.111024
0.115416
0.119148
0.121957
0.123954
0.124039
0.122095
0.118247
0.112681
0.105842
0.0975281
0.0862024
0.0705378
0.0517535
0.0245107
-0.0149256
-0.0445779
-0.029193
-0.0276771
-0.0261333
-0.0245514
-0.0229673
-0.021329
-0.0196849
-0.0179835
-0.0162748
-0.014506
-0.0127289
-0.0108878
-0.00903191
-0.00710555
-0.00515241
-0.00311975
-0.00104056
0.00113001
0.00336639
0.00570849
0.00814335
0.0106988
0.0133771
0.0162011
0.0191842
0.0223562
0.0257402
0.0293575
0.0332183
0.0373179
0.0416521
0.0462078
0.0510058
0.0560489
0.0613317
0.0668215
0.0724802
0.0782685
0.0841186
0.0899777
0.0957845
0.101444
0.106826
0.11181
0.116197
0.119873
0.122574
0.124427
0.124315
0.122134
0.118033
0.112208
0.105111
0.0965378
0.0849726
0.0690501
0.0499179
0.0220723
-0.0178242
-0.04825
-0.0316197
-0.0300725
-0.0284951
-0.026878
-0.0252581
-0.0235819
-0.0218996
-0.0201577
-0.018408
-0.0165954
-0.0147742
-0.0128859
-0.0109821
-0.00900516
-0.00700044
-0.00491408
-0.0027798
-0.000552259
0.00174279
0.00414562
0.0066434
0.00926399
0.01201
0.0149046
0.0179615
0.0212113
0.0246778
0.028382
0.0323348
0.0365363
0.0409684
0.0456352
0.0505478
0.0557129
0.0611251
0.0667509
0.072551
0.0784841
0.0844783
0.0904768
0.0964125
0.102184
0.107651
0.112684
0.117073
0.120701
0.123302
0.12502
0.124718
0.122303
0.117947
0.111852
0.104486
0.0956499
0.0838642
0.0676894
0.0482065
0.019764
-0.0205809
-0.05177
-0.0340774
-0.0324982
-0.0308877
-0.0292368
-0.0275818
-0.0258692
-0.0241487
-0.0223673
-0.0205764
-0.0187219
-0.0168568
-0.014924
-0.0129741
-0.0109498
-0.00889603
-0.00675856
-0.00457082
-0.002287
6.68828e-05
0.00253163
0.00509415
0.00778246
0.0105993
0.0135681
0.0167032
0.0200357
0.0235897
0.0273878
0.0314407
0.0357435
0.0402925
0.0450741
0.0501106
0.0554057
0.0609544
0.0667222
0.0726686
0.0787502
0.0848911
0.0910304
0.0970958
0.102979
0.108531
0.113614
0.118004
0.121582
0.124079
0.125656
0.125153
0.122486
0.117853
0.11147
0.103817
0.0946914
0.0826447
0.0662097
0.0463664
0.0173035
-0.0234625
-0.0554514
-0.0366027
-0.0349935
-0.0333503
-0.0316654
-0.0299755
-0.0282262
-0.0264685
-0.024648
-0.0228174
-0.0209204
-0.0190124
-0.0170336
-0.0150366
-0.0129621
-0.0108566
-0.00866471
-0.00642044
-0.00407752
-0.00166224
0.000866648
0.00349615
0.00625442
0.00914475
0.0121908
0.0154076
0.0188267
0.0224735
0.0263703
0.0305284
0.034948
0.039611
0.0445204
0.049689
0.0551229
0.0608174
0.0667365
0.0728381
0.0790766
0.0853717
0.0916586
0.0978594
0.10386
0.109502
0.11464
0.119037
0.122572
0.12497
0.126412
0.125714
0.122798
0.117886
0.111205
0.103255
0.0938374
0.0815469
0.0648571
0.0446556
0.0149877
-0.0261939
-0.0590079
-0.0391178
-0.0374804
-0.0358076
-0.0340922
-0.0323706
-0.0305879
-0.0287956
-0.0269392
-0.0250711
-0.0231358
-0.0211879
-0.0191682
-0.017128
-0.0150085
-0.0128551
-0.0106126
-0.00831435
-0.00591415
-0.00343835
-0.000845309
0.00185184
0.00468137
0.00764699
0.0107726
0.0140738
0.0175834
0.0213269
0.0253283
0.0295988
0.0341342
0.0389291
0.0439699
0.0492793
0.0548607
0.0607093
0.0667874
0.0730512
0.0794527
0.0859073
0.0923456
0.0986846
0.104803
0.110536
0.115728
0.12013
0.123618
0.125911
0.127209
0.126303
0.123117
0.117902
0.110905
0.102642
0.0929065
0.0803326
0.0633801
0.0428123
0.0125244
-0.0290455
-0.0627842
-0.0416443
-0.0399888
-0.0382933
-0.0365493
-0.0347998
-0.0329858
-0.031162
-0.0292702
-0.0273691
-0.0253971
-0.0234127
-0.0213521
-0.0192695
-0.0171033
-0.0149012
-0.0126064
-0.0102534
-0.00779525
-0.00525863
-0.0026013
0.000163728
0.00306501
0.00610683
0.0093136
0.0127016
0.0163045
0.0201489
0.0242587
0.028646
0.0333109
0.038234
0.0434184
0.0488766
0.054615
0.060628
0.0668759
0.0733128
0.0798877
0.0865113
0.0931098
0.0995944
0.105838
0.111666
0.116917
0.12133
0.124775
0.126967
0.128124
0.127013
0.123558
0.118036
0.110714
0.102127
0.0920742
0.0792341
0.0620244
0.0410946
0.0102062
-0.0317286
-0.0664778
-0.0440887
-0.0424041
-0.0406818
-0.0389154
-0.0371441
-0.0353096
-0.0334643
-0.031551
-0.0296259
-0.027629
-0.0256164
-0.0235261
-0.0214097
-0.0192075
-0.0169648
-0.0146261
-0.0122245
-0.00971353
-0.00711963
-0.00440037
-0.00156869
0.00140408
0.00452263
0.00781191
0.0112886
0.0149878
0.0189361
0.0231594
0.0276696
0.0324619
0.037531
0.0428619
0.0484781
0.0543826
0.060569
0.0669958
0.0736142
0.0803706
0.0871706
0.0939351
0.100569
0.10694
0.112864
0.118172
0.122592
0.125991
0.128073
0.129078
0.127744
0.123995
0.118143
0.110475
0.101551
0.0911565
0.0780126
0.0605381
0.039239
0.00773658
-0.0345268
-0.0703608
-0.0467885
-0.0450666
-0.0433045
-0.0414947
-0.0396813
-0.0378029
-0.0359167
-0.0339609
-0.0319969
-0.0299589
-0.0279077
-0.0257757
-0.0236189
-0.0213725
-0.0190855
-0.0166987
-0.0142471
-0.011682
-0.00903079
-0.00624951
-0.00335118
-0.000306563
0.00288967
0.00626285
0.00983049
0.0136283
0.0176845
0.0220248
0.0266618
0.0315958
0.0368069
0.0422969
0.0480798
0.05416
0.0605311
0.0671484
0.0739606
0.0809104
0.0878979
0.0948387
0.101632
0.108136
0.114163
0.119532
0.123963
0.127319
0.129299
0.13015
0.128591
0.124547
0.118359
0.110336
0.101066
0.0903333
0.0769031
0.0591706
0.037508
0.00541309
-0.0371571
-0.0740684
-0.049429
-0.047675
-0.0458806
-0.0440407
-0.042197
-0.0402885
-0.0383713
-0.0363844
-0.0343879
-0.0323174
-0.0302322
-0.0280659
-0.0258724
-0.0235879
-0.0212596
-0.0188286
-0.0163288
-0.0137111
-0.0110027
-0.00815914
-0.00519315
-0.00207526
0.00120052
0.00465992
0.00832106
0.0122212
0.0163886
0.0208513
0.025622
0.0306961
0.0360673
0.0417199
0.0476784
0.0539443
0.0605099
0.0673277
0.0743437
0.0814961
0.0886807
0.0958044
0.102764
0.109402
0.115536
0.120959
0.125405
0.128704
0.130581
0.131256
0.129453
0.125087
0.118537
0.110141
0.100511
0.0894174
0.0756662
0.0576686
0.035635
0.00293719
-0.0399182
-0.0779181
-0.0522958
-0.0505102
-0.0486805
-0.0468002
-0.0449158
-0.0429632
-0.0410031
-0.0389708
-0.0369309
-0.0348149
-0.0326858
-0.0304732
-0.0282344
-0.0259019
-0.0235255
-0.0210435
-0.0184907
-0.0158164
-0.0130479
-0.0101395
-0.00710355
-0.00391008
-0.000552265
0.00299614
0.00675414
0.0107601
0.0150437
0.0196332
0.0245419
0.0297706
0.0352977
0.0411263
0.0472697
0.0537322
0.0605044
0.067536
0.0747687
0.0821377
0.0895308
0.0968507
0.103984
0.110769
0.117011
0.122498
0.126958
0.130208
0.131988
0.13248
0.130425
0.125732
0.118815
0.110035
0.100037
0.0885909
0.0745371
0.0562819
0.0338855
0.000608829
-0.0425182
-0.0815775
-0.0550703
-0.0532632
-0.0514115
-0.0495099
-0.0476028
-0.0456259
-0.0436391
-0.0415784
-0.0395071
-0.0373581
-0.0351936
-0.0329441
-0.0306655
-0.0282913
-0.0258699
-0.0233398
-0.0207347
-0.0180039
-0.0151741
-0.0121991
-0.00909082
-0.00581904
-0.00237614
0.00126464
0.00512312
0.0092392
0.0136429
0.0183649
0.0234191
0.0288003
0.0345035
0.0405118
0.0468509
0.053521
0.0605108
0.0677676
0.0752281
0.0828248
0.0904368
0.0979621
0.105278
0.112211
0.118566
0.124112
0.128585
0.131773
0.133453
0.133742
0.131407
0.126357
0.119045
0.109865
0.0994857
0.0876664
0.0732776
0.0547583
0.0319928
-0.00187026
-0.0452627
-0.0853833
-0.0580467
-0.0562173
-0.0543399
-0.0524079
-0.0504694
-0.0484574
-0.0464353
-0.0443358
-0.0422265
-0.0400358
-0.0378302
-0.0355356
-0.0332121
-0.030789
-0.028318
-0.0257343
-0.0230734
-0.0202823
-0.0173885
-0.0143441
-0.011161
-0.00780822
-0.0042773
-0.000540976
0.00342158
0.0076514
0.0121802
0.0170394
0.0222434
0.0277939
0.0336695
0.0398729
0.0464189
0.053308
0.0605297
0.0680252
0.0757293
0.0835673
0.0914132
0.0991557
0.106665
0.113757
0.12023
0.125842
0.130331
0.133463
0.135052
0.135121
0.132495
0.127082
0.11937
0.10978
0.0990121
0.0868293
0.0721255
0.0533493
0.0302275
-0.00419834
-0.0478478
-0.0889951
-0.0609324
-0.0590865
-0.0571929
-0.0552462
-0.053292