/*--------------------------------*- C++ -*----------------------------------*\
  =========                 |
  \\      /  F ield         | OpenFOAM: The Open Source CFD Toolbox
   \\    /   O peration     | Website:  https://openfoam.org
    \\  /    A nd           | Version:  6.0
     \\/     M anipulation  |
\*---------------------------------------------------------------------------*/
FoamFile
{
    version     2.0;
    format      ascii;
    class       surfaceScalarField;
    location    "19";
    object      phi;
}
// * * * * * * * * * * * * * * * * * * * * * * * * * * * * * * * * * * * * * //

dimensions      [0 3 -1 0 0 0 0];

internalField   nonuniform List<scalar> 
123526
(
-0.000157907
2.63718e-05
0.000158317
-0.000157435
2.85325e-05
-0.000156941
3.08714e-05
-0.000156383
3.3402e-05
-0.000155793
3.61416e-05
-0.000155127
3.9108e-05
-0.000154418
4.23207e-05
-0.000153624
4.58013e-05
-0.000152774
4.95722e-05
-0.000151828
5.3659e-05
-0.000150814
5.80904e-05
-0.000149695
6.28962e-05
-0.000148494
6.81093e-05
-0.000147176
7.37632e-05
-0.000145757
7.98985e-05
-0.000144209
8.65621e-05
-0.000142547
9.37976e-05
-0.000140734
0.000101649
-0.000138778
0.00011018
-0.000136659
0.000119454
-0.000134366
0.000129525
-0.000131876
0.000140473
-0.000129188
0.000152386
-0.000126261
0.000165323
-0.000123095
0.000179411
-0.000119657
0.00019473
-0.000115924
0.000211397
-0.000111875
0.000229542
-0.000107468
0.000249275
-0.00010269
0.000270763
-9.74883e-05
0.000294128
-9.18483e-05
0.000319556
-8.57213e-05
0.000347196
-7.90703e-05
0.000377234
-7.18595e-05
0.000409855
-6.40266e-05
0.000445214
-5.55431e-05
0.00048353
-4.63509e-05
0.000524943
-3.63882e-05
0.000569606
-2.56103e-05
0.000617659
-1.39522e-05
0.000669164
-1.34206e-06
0.000724115
1.22865e-05
0.000782428
2.7e-05
0.000843846
4.28918e-05
0.000907885
6.00582e-05
0.000973748
7.86204e-05
0.00104023
9.86509e-05
0.00110563
0.000120135
0.00116781
0.00014284
0.00122423
0.000166375
0.00127188
0.000190342
0.00130673
0.000214427
0.00132293
0.000238384
0.00131222
0.000261734
0.00126441
0.000283698
0.00116763
0.000303322
0.00100671
0.000323961
0.000769626
0.000253064
0.000494817
-0.000193493
7.45172e-05
-0.000154705
2.59337e-05
0.0001551
-0.000154251
2.80665e-05
-0.000153779
3.03741e-05
-0.000153257
3.28712e-05
-0.000152714
3.5574e-05
-0.00015211
3.84996e-05
-0.000151477
4.16668e-05
-0.000150775
4.50963e-05
-0.000150031
4.88092e-05
-0.000149204
5.283e-05
-0.000148318
5.7188e-05
-0.000147336
6.19118e-05
-0.000146277
6.7034e-05
-0.000145103
7.25854e-05
-0.000143828
7.86073e-05
-0.000142422
8.51508e-05
-0.000140896
9.22561e-05
-0.000139213
9.9959e-05
-0.00013738
0.000108333
-0.000135377
0.000117443
-0.000133192
0.000127327
-0.000130803
0.000138075
-0.000128208
0.00014978
-0.00012537
0.000162474
-0.000122285
0.000176314
-0.000118926
0.000191359
-0.000115266
0.000207723
-0.000111287
0.000225549
-0.000106949
0.000244921
-0.000102236
0.000266036
-9.71022e-05
0.000288976
-9.15291e-05
0.000313962
-8.54714e-05
0.000341113
-7.88915e-05
0.000370626
-7.17557e-05
0.000402687
-6.40031e-05
0.000437428
-5.56088e-05
0.000475098
-4.6517e-05
0.00051581
-3.66696e-05
0.000559715
-2.60232e-05
0.000606965
-1.45143e-05
0.000657603
-2.06961e-06
0.000711613
1.1387e-05
0.000768912
2.5944e-05
0.000829223
4.17142e-05
0.000892048
5.88014e-05
0.000956583
7.73086e-05
0.00102163
9.72502e-05
0.00108558
0.000118527
0.0011464
0.000140843
0.00120174
0.000163823
0.00124867
0.000187155
0.00128311
0.000210637
0.00129909
0.000234109
0.00128831
0.000257083
0.00124082
0.000278814
0.00114506
0.000298045
0.000986128
0.000316494
0.000749125
0.000339468
0.000470755
-0.000211712
0.000355783
-0.000152162
2.54665e-05
0.000152568
-0.000151679
2.75667e-05
-0.000151174
2.9838e-05
-0.000150614
3.22997e-05
-0.000150033
3.49665e-05
-0.000149395
3.78553e-05
-0.000148733
4.09841e-05
-0.000148013
4.4373e-05
-0.000147262
4.80408e-05
-0.000146444
5.20112e-05
-0.000145584
5.63127e-05
-0.000144646
6.09725e-05
-0.000143649
6.60217e-05
-0.000142554
7.14877e-05
-0.000141375
7.7412e-05
-0.000140079
8.38492e-05
-0.000138674
9.08356e-05
-0.000137122
9.83995e-05
-0.000135428
0.000106623
-0.000133566
0.000115572
-0.000131525
0.000125272
-0.000129279
0.000135819
-0.000126827
0.000147316
-0.000124129
0.000159764
-0.000121181
0.000173354
-0.000117954
0.000188119
-0.000114423
0.000204178
-0.000110571
0.000221682
-0.000106354
0.00024069
-0.00010176
0.000261426
-9.67418e-05
0.000283941
-9.12815e-05
0.00030848
-8.53327e-05
0.000335137
-7.8858e-05
0.000364122
-7.18231e-05
0.000395621
-6.41677e-05
0.000429738
-5.58664e-05
0.00046676
-4.68644e-05
0.000506769
-3.71041e-05
0.000549912
-2.65428e-05
0.000596358
-1.51181e-05
0.000646131
-2.75796e-06
0.000699201
1.06193e-05
0.000755483
2.51105e-05
0.000814676
4.08248e-05
0.000876282
5.78436e-05
0.000939507
7.62271e-05
0.0010032
9.59282e-05
0.00106581
0.000116802
0.00112546
0.000138559
0.0011799
0.000160908
0.00122622
0.000183648
0.00126026
0.000206649
0.00127594
0.000229757
0.00126505
0.000252443
0.00121791
0.000273984
0.00112336
0.000292805
0.000967114
0.00031105
0.000730741
0.000324024
0.000457457
-0.000160739
0.000273021
-0.00014974
2.5047e-05
0.000150145
-0.000149284
2.71056e-05
-0.000148792
2.93322e-05
-0.000148246
3.17473e-05
-0.000147662
3.43668e-05
-0.00014702
3.72074e-05
-0.00014634
4.02878e-05
-0.000145599
4.36278e-05
-0.00014482
4.72454e-05
-0.000143976
5.11632e-05
-0.000143089
5.54099e-05
-0.000142132
6.00108e-05
-0.000141123
6.49957e-05
-0.000140029
7.03879e-05
-0.000138863
7.62286e-05
-0.000137597
8.2575e-05
-0.000136238
8.9459e-05
-0.000134748
9.69003e-05
-0.00013313
0.000104989
-0.00013136
0.000113792
-0.000129423
0.00012332
-0.000127293
0.000133678
-0.000124966
0.000144975
-0.0001224
0.000157185
-0.00011959
0.00017053
-0.000116506
0.000185021
-0.000113121
0.000200778
-0.000109416
0.000217962
-0.000105349
0.000236608
-0.000100903
0.000256966
-9.60342e-05
0.000279053
-9.07213e-05
0.000303144
-8.49177e-05
0.000329307
-7.85844e-05
0.000357759
-7.16858e-05
0.000388691
-6.41601e-05
0.00042218
-5.59806e-05
0.000458545
-4.70909e-05
0.000497841
-3.74333e-05
0.000540212
-2.69644e-05
0.000585843
-1.56231e-05
0.000634739
-3.33926e-06
0.000686862
9.96736e-06
0.000742118
2.43887e-05
0.000800191
4.00162e-05
0.00086059
5.68996e-05
0.000922547
7.50581e-05
0.000984957
9.44044e-05
0.00104636
0.000114788
0.00110495
0.000135964
0.00115856
0.000157736
0.00120424
0.000179989
0.00123774
0.000202627
0.00125296
0.000225447
0.00124181
0.000247874
0.00119492
0.00026919
0.00110129
0.000287694
0.00094742
0.000304151
0.000712417
0.000318912
0.000441341
-0.00014966
0.000305473
-0.000147474
2.46584e-05
0.000147811
-0.000147061
2.66763e-05
-0.000146614
2.886e-05
-0.000146106
3.12277e-05
-0.000145557
3.37962e-05
-0.00014494
3.6583e-05
-0.000144278
3.96072e-05
-0.000143545
4.28895e-05
-0.000142763
4.64471e-05
-0.000141907
5.03032e-05
-0.000141
5.4487e-05
-0.000140017
5.90228e-05
-0.000138977
6.39396e-05
-0.000137852
6.92573e-05
-0.000136658
7.50169e-05
-0.000135369
8.12781e-05
-0.000133995
8.8068e-05
-0.000132502
9.53978e-05
-0.000130894
0.000103365
-0.000129149
0.000112036
-0.000127251
0.000121407
-0.000125176
0.000131592
-0.000122919
0.000142703
-0.000120437
0.00015469
-0.000117725
0.000167804
-0.00011475
0.000182032
-0.000111486
0.000197499
-0.000107912
0.000214372
-0.000103983
0.000232664
-9.9683e-05
0.000252651
-9.49644e-05
0.000274318
-8.98067e-05
0.000297965
-8.41612e-05
0.000323635
-7.79871e-05
0.000351556
-7.12463e-05
0.00038192
-6.38754e-05
0.000414776
-5.58449e-05
0.00045048
-4.70968e-05
0.000489056
-3.75717e-05
0.000530648
-2.72253e-05
0.000575455
-1.59973e-05
0.000623467
-3.8188e-06
0.000674636
9.38363e-06
0.000728867
2.36876e-05
0.000785836
3.91631e-05
0.000845066
5.58314e-05
0.000905826
7.36835e-05
0.000967059
9.26132e-05
0.00102737
0.000112491
0.00108503
0.00013313
0.00113787
0.00015441
0.00118289
0.000176274
0.0012158
0.000198625
0.00123051
0.000221196
0.00121915
0.000243363
0.00117262
0.000264415
0.00108019
0.00028266
0.00092914
0.000297875
0.000697243
0.000310167
0.000428918
-0.000130241
0.000291022
-0.000145467
2.42876e-05
0.000145834
-0.000145066
2.62722e-05
-0.000144634
2.84204e-05
-0.000144158
3.07462e-05
-0.00014364
3.32671e-05
-0.000143063
3.60007e-05
-0.000142435
3.89666e-05
-0.000141737
4.21862e-05
-0.00014098
4.56767e-05
-0.000140144
4.94618e-05
-0.000139243
5.35721e-05
-0.000138258
5.80319e-05
-0.000137204
6.28702e-05
-0.000136059
6.81042e-05
-0.000134834
7.37757e-05
-0.000133512
7.9947e-05
-0.000132102
8.66415e-05
-0.000130576
9.38615e-05
-0.00012894
0.000101712
-0.000127173
0.000110258
-0.000125265
0.000119484
-0.000123192
0.000129507
-0.000120951
0.000140447
-0.000118499
0.000152226
-0.000115833
0.000165124
-0.00011292
0.000179105
-0.000109733
0.000194297
-0.00010625
0.000210873
-0.000102426
0.000228825
-9.82434e-05
0.000248454
-9.36544e-05
0.000269712
-8.86365e-05
0.000292926
-8.314e-05
0.000318113
-7.71221e-05
0.00034551
-7.05427e-05
0.000375311
-6.33366e-05
0.000407539
-5.54713e-05
0.000442581
-4.68867e-05
0.000480435
-3.75216e-05
0.000521243
-2.73302e-05
0.00056522
-1.62524e-05
0.000612342
-4.21957e-06
0.00066255
8.83219e-06
0.00071576
2.29621e-05
0.000771643
3.82215e-05
0.000829744
5.46108e-05
0.000889361
7.21074e-05
0.000949486
9.06028e-05
0.00100877
0.000110001
0.00106552
0.000130169
0.00111756
0.000151043
0.00116183
0.000172592
0.00119401
0.000194702
0.00120809
0.00021704
0.00119643
0.000238946
0.00115021
0.000259712
0.00105875
0.000277729
0.000910053
0.000292064
0.00068118
0.000303575
0.00041607
-0.000118023
0.000288963
-0.000143952
2.38795e-05
0.000144326
-0.000143529
2.58364e-05
-0.000143081
2.79554e-05
-0.000142592
3.02471e-05
-0.000142069
3.27284e-05
-0.000141493
3.54166e-05
-0.000140871
3.8331e-05
-0.000140185
4.14931e-05
-0.000139442
4.49195e-05
-0.00013862
4.8634e-05
-0.000137731
5.26688e-05
-0.000136754
5.70482e-05
-0.000135701
6.18017e-05
-0.000134548
6.69447e-05
-0.000133309
7.252e-05
-0.000131964
7.85939e-05
-0.000130526
8.51862e-05
-0.000128966
9.22919e-05
-0.000127293
0.000100023
-0.000125491
0.000108445
-0.000123551
0.000117528
-0.000121452
0.000127396
-0.000119193
0.000138173
-0.000116735
0.000149755
-0.000114074
0.00016245
-0.000111182
0.000176199
-0.000108029
0.000191129
-0.000104596
0.000207425
-0.000100839
0.000225053
-9.67385e-05
0.00024434
-9.2247e-05
0.000265205
-8.73417e-05
0.000288
-8.19718e-05
0.000312718
-7.60937e-05
0.000339605
-6.96653e-05
0.000368854
-6.26201e-05
0.000400463
-5.49233e-05
0.000434852
-4.65127e-05
0.00047199
-3.73254e-05
0.000512019
-2.73138e-05
0.00055517
-1.64173e-05
0.000601404
-4.56702e-06
0.000650656
8.29126e-06
0.000702858
2.21995e-05
0.000757688
3.71949e-05
0.000814706
5.32667e-05
0.000873241
7.03894e-05
0.000932323
8.84643e-05
0.000990648
0.00010743
0.00104652
0.000127198
0.00109775
0.000147737
0.00114125
0.000169022
0.00117268
0.000190905
0.00118615
0.000213003
0.00117429
0.000234631
0.00112852
0.000255084
0.00103833
0.000272878
0.000892328
0.000286655
0.00066756
0.000297397
0.000405419
-0.000103242
0.000283206
-0.00014263
2.34447e-05
0.000143056
-0.000142174
2.53753e-05
-0.000141692
2.74667e-05
-0.000141179
2.97277e-05
-0.000140634
3.21742e-05
-0.000140047
3.48226e-05
-0.000139418
3.76918e-05
-0.000138734
4.08025e-05
-0.000137996
4.41703e-05
-0.000137187
4.78187e-05
-0.000136311
5.17809e-05
-0.00013535
5.60806e-05
-0.000134311
6.07479e-05
-0.00013317
6.57965e-05
-0.000131936
7.12706e-05
-0.000130592
7.72406e-05
-0.000129145
8.37238e-05
-0.000127571
9.07081e-05
-0.000125878
9.83136e-05
-0.000124051
0.000106607
-0.000122082
0.000115545
-0.000119954
0.000125256
-0.000117669
0.000135873
-0.000115189
0.000147263
-0.000112514
0.000159761
-0.000109616
0.000173287
-0.00010647
0.000187969
-0.000103057
0.000203997
-9.9334e-05
0.000221316
-9.52833e-05
0.000240276
-9.08582e-05
0.000260765
-8.60359e-05
0.000283158
-8.0766e-05
0.000307425
-7.50044e-05
0.000333818
-6.87086e-05
0.00036253
-6.18111e-05
0.000393536
-5.42757e-05
0.000427285
-4.60386e-05
0.000463719
-3.70356e-05
0.000502979
-2.72175e-05
0.000545311
-1.65226e-05
0.000590665
-4.88202e-06
0.000638966
7.75131e-06
0.000690172
2.14052e-05
0.000743973
3.6109e-05
0.000799942
5.18478e-05
0.000857426
6.86025e-05
0.000915495
8.62877e-05
0.000972857
0.000104876
0.00102783
0.000124305
0.00107819
0.000144562
0.00112081
0.000165605
0.00115141
0.000187249
0.00116423
0.000209077
0.00115211
0.000230393
0.00110674
0.000250493
0.00101762
0.000268024
0.000873807
0.000281356
0.000652594
0.000291826
0.000393683
-9.24812e-05
0.000278766
-0.000141446
2.29835e-05
0.00014188
-0.000140966
2.4885e-05
-0.000140459
2.69459e-05
-0.000139916
2.91752e-05
-0.000139342
3.15877e-05
-0.000138726
3.41991e-05
-0.000138074
3.70272e-05
-0.00013737
4.00922e-05
-0.00013662
4.34079e-05
-0.000135805
4.69972e-05
-0.00013493
5.08934e-05
-0.000133976
5.51195e-05
-0.000132948
5.97054e-05
-0.000131822
6.46626e-05
-0.000130602
7.00367e-05
-0.000129273
7.59019e-05
-0.000127837
8.22731e-05
-0.000126271
8.9132e-05
-0.00012458
9.66069e-05
-0.000122749
0.000104766
-0.000120772
0.000113553
-0.000118631
0.000123105
-0.00011633
0.000133558
-0.000113834
0.000144755
-0.000111144
0.000157058
-0.000108235
0.000170365
-0.000105084
0.000184804
-0.000101675
0.000200573
-9.79674e-05
0.000217594
-9.39446e-05
0.00023624
-8.9562e-05
0.000256368
-8.47978e-05
0.000278375
-7.96033e-05
0.000302207
-7.39349e-05
0.000328124
-6.77504e-05
0.000356319
-6.09829e-05
0.000386741
-5.35951e-05
0.000419868
-4.5523e-05
0.000455615
-3.67014e-05
0.000494124
-2.70799e-05
0.000535654
-1.65962e-05
0.000580144
-5.18095e-06
0.00062751
7.20802e-06
0.000677743
2.05904e-05
0.000730547
3.49916e-05
0.000785504
5.03993e-05
0.000841973
6.68041e-05
0.000899058
8.41373e-05
0.000955476
0.000102396
0.00100955
0.000121536
0.00105903
0.000141539
0.00110079
0.000162341
0.0011306
0.000183721
0.00114283
0.000205235
0.00113059
0.000226196
0.00108578
0.000245902
0.000998005
0.00026312
0.000856742
0.000276067
0.000639895
0.000286432
0.000383643
-8.05507e-05
0.000275408
-0.00014019
2.2521e-05
0.000140641
-0.0001397
2.43898e-05
-0.000139178
2.64164e-05
-0.00013862
2.86108e-05
-0.000138028
3.09867e-05
-0.000137395
3.35596e-05
-0.000136724
3.63466e-05
-0.000136005
3.93671e-05
-0.000135241
4.26334e-05
-0.000134417
4.61673e-05
-0.000133537
5.00021e-05
-0.000132584
5.41598e-05
-0.000131561
5.86698e-05
-0.000130447
6.35406e-05
-0.000129243
6.8819e-05
-0.000127933
7.45826e-05
-0.000126518
8.08435e-05
-0.000124973
8.75772e-05
-0.000123301
9.49201e-05
-0.000121487
0.000102941
-0.000119523
0.000111574
-0.000117391
0.000120962
-0.000115095
0.000131248
-0.0001126
0.000142248
-0.00010991
0.000154354
-0.000107
0.000167441
-0.000103849
0.00018164
-0.000100444
0.000197154
-9.67466e-05
0.000213883
-9.27427e-05
0.000232224
-8.83896e-05
0.000252001
-8.36679e-05
0.000273635
-7.85308e-05
0.000297048
-7.29364e-05
0.000322506
-6.68442e-05
0.000350201
-6.01882e-05
0.000380058
-5.29319e-05
0.000412582
-4.50113e-05
0.000447664
-3.63619e-05
0.00048544
-2.69319e-05
0.000526186
-1.66596e-05
0.000569829
-5.47468e-06
0.000616279
6.66184e-06
0.000665555
1.97685e-05
0.000717383
3.38688e-05
0.000771343
4.89585e-05
0.00082681
6.50376e-05
0.000882905
8.20549e-05
0.000938354
0.000100023
0.000991482
0.000118904
0.00104003
0.000138665
0.00108086
0.000159213
0.00110984
0.000180296
0.0011215
0.000201455
0.00110912
0.000222025
0.00106479
0.000241311
0.000978158
0.000258174
0.000838965
0.000270746
0.000625779
0.000280942
0.000372288
-7.46072e-05
0.000272851
-0.000138885
2.20633e-05
0.000139318
-0.000138401
2.38957e-05
-0.000137881
2.58838e-05
-0.000137317
2.80392e-05
-0.000136717
3.03751e-05
-0.000136071
3.29067e-05
-0.000135387
3.56506e-05
-0.000134652
3.86258e-05
-0.000133873
4.18431e-05
-0.000133035
4.53234e-05
-0.000132145
4.90999e-05
-0.000131185
5.31933e-05
-0.00013016
5.7632e-05
-0.000129049
6.24221e-05
-0.000127854
6.76103e-05
-0.000126557
7.32776e-05
-0.000125161
7.9433e-05
-0.000123639
8.60455e-05
-0.000121992
9.3259e-05
-0.000120205
0.000101144
-0.000118268
0.000109623
-0.000116162
0.000118846
-0.000113888
0.000128961
-0.000111415
0.000139763
-0.000108743
0.000151669
-0.000105849
0.000164535
-0.000102713
0.000178491
-9.93233e-05
0.00019375
-9.56434e-05
0.00021019
-9.1661e-05
0.00022823
-8.73363e-05
0.000247663
-8.26518e-05
0.000268933
-7.75631e-05
0.000291938
-7.20313e-05
0.000316951
-6.60174e-05
0.000344163
-5.9458e-05
0.000373473
-5.23179e-05
0.000405414
-4.45347e-05
0.000439852
-3.60445e-05
0.000476919
-2.67963e-05
0.000516906
-1.67282e-05
0.000559726
-5.77091e-06
0.000605285
6.1153e-06
0.000653631
1.89509e-05
0.000704509
3.27612e-05
0.000757498
4.75509e-05
0.00081198
6.33294e-05
0.000867096
8.00608e-05
0.000921582
9.77652e-05
0.000973763
0.000116403
0.00102138
0.00013592
0.00106134
0.000156195
0.00108957
0.000176951
0.00110075
0.000197724
0.00108838
0.000217881
0.00104468
0.00023674
0.000959444
0.000253232
0.000822688
0.000265469
0.000613856
0.000275332
0.000362923
-6.86099e-05
0.000270488
-0.00013744
2.16245e-05
0.000137867
-0.000136969
2.34188e-05
-0.000136459
2.53661e-05
-0.000135906
2.74795e-05
-0.000135312
2.9772e-05
-0.00013467
3.22588e-05
-0.000133985
3.49566e-05
-0.000133249
3.78837e-05
-0.000132466
4.10501e-05
-0.000131624
4.44757e-05
-0.000130728
4.81938e-05
-0.000129765
5.22238e-05
-0.000128738
5.65934e-05
-0.000127629
6.13056e-05
-0.000126439
6.64075e-05
-0.000125152
7.19828e-05
-0.00012377
7.80374e-05
-0.000122267
8.45334e-05
-0.000120644
9.16221e-05
-0.000118884
9.93754e-05
-0.000116978
0.000107703
-0.000114905
0.000116763
-0.000112665
0.000126709
-0.000110226
0.000137313
-0.000107587
0.000149018
-0.000104726
0.00016166
-0.000101621
0.000175374
-9.82621e-05
0.000190377
-9.46129e-05
0.000206529
-9.06631e-05
0.000224268
-8.63738e-05
0.000243362
-8.17301e-05
0.000264273
-7.669e-05
0.000286878
-7.12169e-05
0.000311456
-6.52745e-05
0.000338197
-5.88023e-05
0.000366975
-5.17668e-05
0.000398352
-4.41085e-05
0.000432163
-3.57645e-05
0.000468543
-2.66858e-05
0.000507791
-1.6811e-05
0.000549812
-6.07209e-06
0.000594502
5.57255e-06
0.000641937
1.81487e-05
0.000691877
3.16846e-05
0.000743903
4.61946e-05
0.000797399
6.16948e-05
0.000851521
7.81625e-05
0.000905012
9.56183e-05
0.000956213
0.000114016
0.00100287
0.000133279
0.00104192
0.00015326
0.00106939
0.000173665
0.00108011
0.000194036
0.00106771
0.000213775
0.00102456
0.000232214
0.000940483
0.000248342
0.000805697
0.000260263
0.000600449
0.000269654
0.000352437
-6.87764e-05
0.000267831
-0.000135922
2.12035e-05
0.00013632
-0.00013547
2.29586e-05
-0.00013498
2.48636e-05
-0.000134441
2.69329e-05
-0.00013386
2.91797e-05
-0.000133226
3.16192e-05
-0.000132548
3.42681e-05
-0.000131815
3.71448e-05
-0.000131034
4.02582e-05
-0.000130191
4.36276e-05
-0.000129295
4.72865e-05
-0.000128331
5.12532e-05
-0.000127304
5.55545e-05
-0.000126196
6.01906e-05
-0.00012501
6.52088e-05
-0.00012373
7.06953e-05
-0.000122359
7.66528e-05
-0.000120871
8.30368e-05
-0.000119267
9.00052e-05
-0.000117532
9.7631e-05
-0.000115654
0.000105812
-0.000113614
0.000114713
-0.000111411
0.000124494
-0.000109011
0.000134902
-0.000106414
0.000146409
-0.000103595
0.000158829
-0.000100534
0.0001723
-9.72184e-05
0.000187049
-9.36138e-05
0.000202911
-8.97086e-05
0.000220353
-8.54664e-05
0.000239107
-8.08722e-05
0.000259663
-7.58868e-05
0.000281873
-7.04752e-05
0.000306023
-6.46041e-05
0.000332303
-5.82151e-05
0.000360562
-5.1278e-05
0.000391389
-4.37352e-05
0.000424594
-3.5527e-05
0.000460306
-2.66056e-05
0.00049884
-1.69119e-05
0.000540085
-6.37901e-06
0.000583935
5.03674e-06
0.000630487
1.73684e-05
0.000679511
3.06472e-05
0.00073059
4.48966e-05
0.000783115
6.01359e-05
0.000836251
7.63545e-05
0.000888759
9.35666e-05
0.000938995
0.000111718
0.000984724
0.000130712
0.00102294
0.00015038
0.00104975
0.000170418
0.00106011
0.000190382
0.0010478
0.00020971
0.00100531
0.000227751
0.000922623
0.000243536
0.000790176
0.000255192
0.000589154
0.000264029
0.000344263
-6.80236e-05
0.000264634
-0.000134283
2.08059e-05
0.000134668
-0.000133852
2.25225e-05
-0.000133382
2.43854e-05
-0.000132865
2.64102e-05
-0.000132304
2.861e-05
-0.000131691
3.10005e-05
-0.00013103
3.35983e-05
-0.000130313
3.6422e-05
-0.000129544
3.94799e-05
-0.000128712
4.27907e-05
-0.000127824
4.63883e-05
-0.000126866
5.02902e-05
-0.000125845
5.45224e-05
-0.000124744
5.90824e-05
-0.000123565
6.40177e-05
-0.000122294
6.94169e-05
-0.000120933
7.52796e-05
-0.000119459
8.15544e-05
-0.000117873
8.84062e-05
-0.000116159
9.59083e-05
-0.000114307
0.000103947
-0.000112297
0.000112693
-0.000110129
0.000122314
-0.000107768
0.000132531
-0.000105214
0.000143843
-0.000102442
0.000156045
-9.94309e-05
0.000169277
-9.61674e-05
0.000183772
-9.26165e-05
0.000199349
-8.87674e-05
0.000216492
-8.45822e-05
0.00023491
-8.00479e-05
0.000255114
-7.51256e-05
0.000276932
-6.97823e-05
0.000300659
-6.39861e-05
0.000326485
-5.76815e-05
0.000354234
-5.08405e-05
0.000384523
-4.34084e-05
0.000417134
-3.53281e-05
0.000452194
-2.65544e-05
0.000490032
-1.703e-05
0.000530523
-6.69001e-06
0.000573553
4.51117e-06
0.000619237
1.66138e-05
0.000667355
2.96522e-05
0.000717491
4.36568e-05
0.000769042
5.86479e-05
0.000821181
7.46248e-05
0.000872688
9.15909e-05
0.000921938
0.000109484
0.000966723
0.000128192
0.00100409
0.00014753
0.00103023
0.000167194
0.00104023
0.000186755
0.00102798
0.000205688
0.000986028
0.000223359
0.000904473
0.000238832
0.000773896
0.000250251
0.000576312
0.000258547
0.000334947
-7.21508e-05
0.000260853
-0.000132596
2.04267e-05
0.000132953
-0.000132187
2.21057e-05
-0.00013174
2.39272e-05
-0.000131244
2.59078e-05
-0.000130706
2.80605e-05
-0.000130112
3.04012e-05
-0.000129471
3.29469e-05
-0.000128771
3.57164e-05
-0.000128018
3.87172e-05
-0.0001272
4.19678e-05
-0.000126325
4.55027e-05
-0.000125378
4.93384e-05
-0.000124368
5.35007e-05
-0.000123276
5.79843e-05
-0.000122107
6.28369e-05
-0.000120847
6.81498e-05
-0.000119499
7.39191e-05
-0.000118039
8.00869e-05
-0.00011647
8.68245e-05
-0.000114776
9.4206e-05
-0.000112947
0.000102106
-0.000110966
0.000110702
-0.00010883
0.000120166
-0.000106506
0.000130197
-0.000103994
0.000141319
-0.000101268
0.000153308
-9.83078e-05
0.000166305
-9.50993e-05
0.000180551
-9.16075e-05
0.000195845
-8.782e-05
0.000212695
-8.37001e-05
0.000230779
-7.92339e-05
0.000250632
-7.43829e-05
0.000272062
-6.91153e-05
0.00029537
-6.33999e-05
0.000320748
-5.71836e-05
0.000347995
-5.04398e-05
0.000377755
-4.31171e-05
0.000409786
-3.51603e-05
0.000444211
-2.65272e-05
0.00048137
-1.71624e-05
0.000521128
-7.00361e-06
0.000563363
3.99663e-06
0.000608205
1.58842e-05
0.000655435
2.86962e-05
0.000704648
4.2468e-05
0.000755239
5.72185e-05
0.000806403
7.29551e-05
0.000856928
8.96683e-05
0.000905221
0.00010729
0.000949112
0.000125695
0.000985703
0.000144691
0.00101127
0.000163978
0.00102099
0.000183147
0.00100888
0.000201706
0.000967583
0.000219036
0.000887353
0.000234229
0.000759004
0.000245455
0.000565479
0.000253245
0.000327938
-7.40161e-05
0.000256598
-0.000130823
2.00676e-05
0.000131169
-0.000130433
2.1711e-05
-0.000130008
2.34931e-05
-0.000129536
2.54309e-05
-0.000129022
2.75375e-05
-0.000128454
2.98288e-05
-0.000127838
3.23221e-05
-0.000127163
3.50364e-05
-0.000126433
3.79788e-05
-0.000125638
4.11675e-05
-0.000124782
4.46378e-05
-0.000123855
4.84057e-05
-0.000122861
5.24965e-05
-0.000121785
5.69025e-05
-0.000120631
6.16718e-05
-0.000119386
6.68981e-05
-0.000118054
7.25745e-05
-0.000116611
7.86365e-05
-0.00011506
8.52616e-05
-0.000113387
9.25246e-05
-0.000111582
0.000100289
-0.000109627
0.000108738
-0.000107522
0.000118049
-0.000105233
0.000127898
-0.00010276
0.000138835
-0.000100079
0.000150616
-9.71684e-05
0.000163383
-9.40148e-05
0.000177385
-9.05828e-05
0.000192401
-8.68602e-05
0.000208961
-8.28093e-05
0.000226717
-7.84161e-05
0.000246224
-7.36426e-05
0.00026727
-6.84566e-05
0.000290164
-6.2828e-05
0.000315098
-5.67044e-05
0.000341849
-5.00612e-05
0.000371088
-4.28484e-05
0.000402547
-3.50136e-05
0.000436347
-2.65165e-05
0.000472841
-1.73045e-05
0.000511879
-7.31689e-06
0.000553335
3.49331e-06
0.000597347
1.5178e-05
0.0006437
2.77736e-05
0.000691992
4.13211e-05
0.000741628
5.58341e-05
0.000791809
7.13283e-05
0.000841352
8.77796e-05
0.000888682
0.000105117
0.000931672
0.000123205
0.000967479
0.000141851
0.000992449
0.000160766
0.00100188
0.000179558
0.000989838
0.000197766
0.000949044
0.000214783
0.000869886
0.000229727
0.000743289
0.000240777
0.000553041
0.000248166
0.000319565
-7.95747e-05
0.000252047
-0.000129031
1.97234e-05
0.000129355
-0.00012866
2.13327e-05
-0.000128255
2.30771e-05
-0.000127804
2.49737e-05
-0.000127312
2.70355e-05
-0.000126767
2.92785e-05
-0.000126175
3.17203e-05
-0.000125523
3.43798e-05
-0.000124818
3.72638e-05
-0.000124045
4.03903e-05
-0.000123212
4.37953e-05
-0.000122305
4.74944e-05
-0.000121332
5.15126e-05
-0.000120275
5.58403e-05
-0.000119141
6.05257e-05
-0.000117914
6.56651e-05
-0.0001166
7.12487e-05
-0.000115177
7.72056e-05
-0.000113646
8.37195e-05
-0.000111996
9.08656e-05
-0.000110215
9.8497e-05
-0.000108287
0.000106802
-0.000106211
0.000115962
-0.000103956
0.000125633
-0.000101521
0.000136388
-9.88824e-05
0.000147966
-9.60196e-05
0.000160508
-9.29189e-05
0.000174272
-8.9546e-05
0.000189017
-8.58873e-05
0.000205293
-8.19067e-05
0.000222725
-7.75888e-05
0.000241892
-7.2896e-05
0.000262559
-6.77958e-05
0.000285044
-6.22583e-05
0.00030954
-5.62318e-05
0.000335801
-4.96925e-05
0.000364526
-4.25917e-05
0.000395422
-3.48791e-05
0.000428609
-2.6516e-05
0.000464452
-1.74523e-05
0.000502788
-7.62899e-06
0.000543484
3.00002e-06
0.000586687
1.44899e-05
0.000632183
2.68767e-05
0.000679574
4.0204e-05
0.000728278
5.44799e-05
0.000777503
6.97272e-05
0.000826096
8.59074e-05
0.000872504
0.000102948
0.000914647
0.000120712
0.000949743
0.000139007
0.000974196
0.000157556
0.000983391
0.000175989
0.000971494
0.000193868
0.000931303
0.000210598
0.000853389
0.000225314
0.000728902
0.000236215
0.000542553
0.000243276
0.000313408
-8.20928e-05
0.000247371
-0.000127186
1.93944e-05
0.000127502
-0.00012683
2.09719e-05
-0.000126442
2.2681e-05
-0.000126012
2.45386e-05
-0.000125542
2.65576e-05
-0.000125022
2.87541e-05
-0.000124456
3.11455e-05
-0.000123832
3.37512e-05
-0.000123154
3.6577e-05
-0.000122409
3.96412e-05
-0.000121603
4.29804e-05
-0.000120723
4.66099e-05
-0.000119775
5.05545e-05
-0.000118743
5.48027e-05
-0.000117631
5.94033e-05
-0.000116428
6.44552e-05
-0.000115136
6.99455e-05
-0.000113735
7.57975e-05
-0.000112228
8.22007e-05
-0.000110602
8.9231e-05
-0.000108847
9.67306e-05
-0.000106947
0.000104893
-0.000104901
0.000113906
-0.00010268
0.000123402
-0.000100282
0.00013398
-9.76845e-05
0.000145357
-9.48675e-05
0.00015768
-9.1818e-05
0.000171211
-8.85016e-05
0.00018569
-8.49061e-05
0.000201688
-8.09942e-05
0.000218803
-7.67518e-05
0.000237636
-7.21404e-05
0.000257931
-6.7128e-05
0.000280013
-6.1684e-05
0.000304076
-5.57576e-05
0.000329853
-4.93249e-05
0.000358071
-4.23385e-05
0.000388411
-3.4749e-05
0.000420993
-2.65196e-05
0.000456192
-1.76015e-05
0.000493835
-7.93804e-06
0.000533783
2.51574e-06
0.000576188
1.38164e-05
0.000620835
2.59985e-05
0.000667332
3.9107e-05
0.00071511
5.31445e-05
0.000763385
6.81399e-05
0.000811032
8.40418e-05
0.00085652
0.000100779
0.000897815
0.000118214
0.000932182
0.00013616
0.000956091
0.000154357
0.000965009
0.00017245
0.00095317
0.000190022
0.000913424
0.000206485
0.000836508
0.000220992
0.000713668
0.000231746
0.000530455
0.00023859
0.000305629
-8.77577e-05
0.000242713
-0.000125344
1.90759e-05
0.000125642
-0.000125001
2.06232e-05
-0.00012463
2.22987e-05
-0.000124216
2.41192e-05
-0.000123766
2.60976e-05
-0.000123267
2.82496e-05
-0.000122723
3.05926e-05
-0.000122122
3.31461e-05
-0.00012147
3.59153e-05
-0.000120751
3.89182e-05
-0.000119972
4.21923e-05
-0.000119119
4.57524e-05
-0.000118198
4.96235e-05
-0.000117192
5.3792e-05
-0.000116107
5.83073e-05
-0.000114929
6.32712e-05
-0.000113663
6.8668e-05
-0.000112287
7.44151e-05
-0.000110806
8.07081e-05
-0.000109206
8.76232e-05
-0.000107479
9.49923e-05
-0.000105608
0.000103014
-0.000103594
0.000111881
-0.000101407
0.000121206
-9.9046e-05
0.000131608
-9.64892e-05
0.00014279
-9.37171e-05
0.000154898
-9.0717e-05
0.0001682
-8.74558e-05
0.000182418
-8.39205e-05
0.000198144
-8.00762e-05
0.000214949
-7.59076e-05
0.000233454
-7.13771e-05
0.000253383
-6.64523e-05
0.00027507
-6.11029e-05
0.000298707
-5.5278e-05
0.000324009
-4.89538e-05
0.000351726
-4.20834e-05
0.000381519
-3.46185e-05
0.000413505
-2.65231e-05
0.000448073
-1.77499e-05
0.000485037
-8.2438e-06
0.000524251
2.03827e-06
0.000565879
1.31526e-05
0.000609697
2.51319e-05
0.000655325
3.80214e-05
0.000702203
5.18186e-05
0.00074956
6.65576e-05
0.000796298
8.21764e-05
0.000840908
9.86067e-05
0.000881407
0.000115714
0.000915108
0.000133319
0.000938535
0.000151177
0.000947225
0.000168949
0.000935499
0.000186234
0.000896293
0.000202448
0.000820543
0.000216753
0.000699711
0.000227377
0.000520256
0.000234053
0.000299941
-9.02159e-05
0.000238134
-0.000123469
1.87685e-05
0.000123763
-0.000123138
2.02876e-05
-0.000122779
2.19318e-05
-0.000122381
2.37175e-05
-0.00012195
2.56574e-05
-0.000121471
2.77671e-05
-0.000120951
3.00638e-05
-0.000120375
3.25669e-05
-0.00011975
3.52811e-05
-0.000119059
3.8224e-05
-0.00011831
4.14339e-05
-0.000117486
4.49252e-05
-0.000116595
4.87229e-05
-0.00011562
5.28115e-05
-0.000114564
5.72414e-05
-0.000113416
6.21167e-05
-0.000112178
6.74197e-05
-0.000110832
7.30617e-05
-0.000109379
7.92444e-05
-0.000107808
8.60448e-05
-0.000106111
9.32843e-05
-0.000104272
0.000101167
-0.000102291
0.00010989
-0.000100139
0.000119045
-9.78152e-05
0.000129275
-9.52991e-05
0.000140264
-9.25714e-05
0.00015216
-8.96199e-05
0.000165238
-8.64119e-05
0.000179201
-8.29362e-05
0.00019466
-7.91568e-05
0.000211162
-7.50603e-05
0.000229345
-7.0609e-05
0.000248916
-6.57707e-05
0.000270214
-6.05152e-05
0.000293433
-5.47919e-05
0.000318266
-4.85769e-05
0.00034549
-4.18236e-05
0.000374743
-3.44843e-05
0.000406141
-2.65235e-05
0.000440085
-1.7895e-05
0.000476377
-8.54528e-06
0.000514867
1.56683e-06
0.000555725
1.24961e-05
0.000598723
2.4273e-05
0.000643491
3.69425e-05
0.000689478
5.04979e-05
0.000735926
6.49775e-05
0.000781761
8.03116e-05
0.000825498
9.64357e-05
0.000865191
0.00011322
0.000898202