/*--------------------------------*- C++ -*----------------------------------*\
  =========                 |
  \\      /  F ield         | OpenFOAM: The Open Source CFD Toolbox
   \\    /   O peration     | Website:  https://openfoam.org
    \\  /    A nd           | Version:  6.0
     \\/     M anipulation  |
\*---------------------------------------------------------------------------*/
FoamFile
{
    version     2.0;
    format      ascii;
    class       volVectorField;
    location    "19";
    object      U;
}
// * * * * * * * * * * * * * * * * * * * * * * * * * * * * * * * * * * * * * //

dimensions      [0 1 -1 0 0 0 0];

internalField   nonuniform List<vector> 
62000
(
(0.999834 0.000696054 -4.82011e-19)
(0.999594 0.000589278 -2.1281e-18)
(0.999511 0.000800378 2.81081e-19)
(0.999397 0.00102927 -1.73715e-20)
(0.999283 0.00125256 2.3329e-18)
(0.999177 0.00148539 -2.33257e-19)
(0.999076 0.0017087 -1.57504e-18)
(0.998985 0.001919 1.61631e-18)
(0.998903 0.00210801 -1.99068e-18)
(0.998831 0.00227321 -1.3675e-18)
(0.998769 0.00240935 8.30105e-19)
(0.998717 0.00251691 2.27495e-18)
(0.998674 0.00259438 -1.44847e-18)
(0.998638 0.00264403 1.50398e-18)
(0.998609 0.00266745 -1.58841e-18)
(0.998586 0.00266741 2.40875e-18)
(0.998567 0.00264721 -3.10094e-18)
(0.998553 0.0026094 7.71459e-19)
(0.998542 0.00255742 2.83369e-19)
(0.998535 0.00249309 1.71983e-19)
(0.998531 0.00241889 -2.25595e-18)
(0.998533 0.00233581 1.20208e-18)
(0.998539 0.00224517 -9.05043e-20)
(0.998551 0.00214748 3.68417e-19)
(0.998569 0.00204303 -4.54164e-19)
(0.998596 0.00193224 -1.84123e-18)
(0.99863 0.00181471 1.97415e-18)
(0.998675 0.00168986 1.90046e-19)
(0.998728 0.00155712 2.49063e-19)
(0.998794 0.00141485 -1.82692e-18)
(0.998869 0.00126635 1.21849e-18)
(0.99896 0.00111992 -2.97939e-18)
(0.999066 0.000978077 -7.13008e-19)
(0.999183 0.000844933 2.50975e-19)
(0.999313 0.000724732 4.99593e-19)
(0.999449 0.000625198 -2.51215e-18)
(0.999589 0.000555217 5.5444e-19)
(0.999727 0.000524496 4.51739e-19)
(0.999854 0.000541204 5.79376e-19)
(0.99996 0.000611295 -8.43165e-19)
(1.00003 0.000735029 -6.49678e-19)
(1.00005 0.000906015 1.72062e-20)
(0.999983 0.00110844 -5.71494e-19)
(0.99981 0.00130713 1.13863e-18)
(0.999485 0.00142992 1.92376e-18)
(0.998961 0.00136662 -3.54089e-18)
(0.998203 0.000976186 7.03618e-18)
(0.997201 0.000128325 1.01257e-17)
(0.995993 -0.0012164 -4.22437e-18)
(0.994655 -0.00294637 1.29695e-17)
(0.993242 -0.00484982 2.06624e-17)
(0.991724 -0.0068402 2.9269e-17)
(0.990004 -0.00918405 5.64792e-18)
(0.988056 -0.0124518 8.68467e-18)
(0.986057 -0.0172141 1.50067e-17)
(0.984242 -0.0239389 3.53159e-17)
(0.98298 -0.0339256 5.31483e-18)
(0.981632 -0.0474664 5.88347e-17)
(1.01806 -0.0476325 -3.49255e-17)
(0.355037 -0.702351 3.54442e-17)
(0.999967 -0.000358362 -1.30186e-19)
(0.999879 -0.000493403 9.01692e-19)
(0.999905 -0.000336975 -3.91986e-19)
(0.999872 -7.1484e-05 4.70809e-19)
(0.999787 0.000225047 1.13202e-18)
(0.99968 0.000601436 -1.54747e-19)
(0.99955 0.00103258 -1.28957e-18)
(0.999406 0.00151354 -6.89774e-20)
(0.999259 0.00202963 1.07758e-18)
(0.999116 0.00257085 -1.83488e-18)
(0.998983 0.00311965 -6.76824e-19)
(0.998866 0.00366625 2.35568e-18)
(0.998768 0.0041955 -1.72954e-18)
(0.998689 0.00469908 1.17587e-18)
(0.998629 0.0051669 -1.63823e-18)
(0.998585 0.00559291 8.92435e-19)
(0.998556 0.00597254 -3.74194e-19)
(0.998536 0.00630249 -2.77941e-19)
(0.998522 0.00658252 2.78448e-19)
(0.998512 0.00681159 -3.07767e-20)
(0.998503 0.0069919 5.94743e-19)
(0.998492 0.00712387 -6.33896e-19)
(0.998479 0.00721005 -4.80788e-19)
(0.998464 0.00725161 5.94056e-19)
(0.998447 0.00724937 -1.61586e-18)
(0.99843 0.00720379 -2.82664e-19)
(0.998415 0.00711437 3.13256e-18)
(0.998407 0.00697973 -1.32093e-18)
(0.998409 0.0067999 2.79855e-18)
(0.998428 0.00657379 -2.51423e-19)
(0.998463 0.00630778 -1.70426e-18)
(0.998527 0.00601025 5.66409e-19)
(0.998623 0.00568561 9.80271e-20)
(0.998752 0.00533737 8.95017e-19)
(0.998916 0.00497319 -1.90903e-18)
(0.999109 0.00460822 5.72621e-19)
(0.999329 0.00426126 7.13431e-19)
(0.999561 0.00395462 -3.54569e-19)
(0.999788 0.00370863 2.2453e-19)
(0.999981 0.00353894 1.04013e-19)
(1.0001 0.0034485 8.50654e-19)
(1.0001 0.00342433 -1.20041e-19)
(0.999912 0.00343369 4.92054e-19)
(0.999459 0.00334277 5.31701e-19)
(0.99867 0.00296787 -3.52532e-18)
(0.997492 0.00208415 2.62966e-18)
(0.995922 0.000500375 -9.81856e-18)
(0.994029 -0.00184325 -5.81304e-18)
(0.991952 -0.00470551 -2.82398e-18)
(0.989798 -0.00761289 -1.52425e-18)
(0.98752 -0.0102217 -2.31106e-17)
(0.984905 -0.0127912 -2.90203e-17)
(0.981716 -0.016284 2.32374e-18)
(0.977993 -0.0220285 -4.32291e-18)
(0.974392 -0.0308403 -1.70512e-17)
(0.971263 -0.0431169 6.76065e-18)
(0.969554 -0.0611178 6.65959e-18)
(0.966951 -0.0827008 -1.02425e-17)
(0.999256 -0.116932 5.32063e-17)
(1.0554 -0.0736508 -1.98467e-17)
(0.998831 0.00148384 1.40371e-18)
(0.99892 0.00103537 -4.20026e-19)
(0.999052 0.000926896 -2.25536e-19)
(0.999165 0.000861997 -1.03988e-19)
(0.999233 0.000835752 3.21151e-18)
(0.999273 0.000904362 -2.66169e-18)
(0.999272 0.00106161 -1.01027e-18)
(0.999237 0.00131904 6.71929e-19)
(0.999171 0.00167476 1.78265e-18)
(0.999083 0.00212819 7.47037e-19)
(0.998982 0.00266642 -3.0375e-18)
(0.998878 0.00328097 -1.4503e-18)
(0.998778 0.00395332 1.3859e-18)
(0.998691 0.0046693 -5.22065e-19)
(0.998622 0.00540871 1.28685e-19)
(0.998572 0.00615533 2.36292e-18)
(0.998543 0.00689133 -2.32254e-18)
(0.998533 0.0076022 2.27816e-18)
(0.998539 0.0082747 -2.91716e-19)
(0.998557 0.00889803 1.53368e-18)
(0.998583 0.00946415 -7.23428e-19)
(0.998612 0.0099665 -1.21981e-18)
(0.998639 0.0104008 3.98182e-19)
(0.998663 0.0107646 1.56117e-18)
(0.998679 0.0110539 -1.08311e-18)
(0.998688 0.011267 1.54603e-18)
(0.99869 0.0114004 -1.55439e-19)
(0.99869 0.0114517 -8.30145e-19)
(0.998691 0.0114201 -1.85029e-18)
(0.998699 0.0113042 1.91834e-18)
(0.998716 0.011111 3.02431e-19)
(0.998754 0.0108456 4.23792e-19)
(0.998818 0.0105092 -1.30085e-18)
(0.998914 0.0101028 1.55953e-18)
(0.999042 0.00963231 -9.93472e-20)
(0.999203 0.00911206 1.12137e-18)
(0.999393 0.00856133 -9.262e-20)
(0.999598 0.00800415 3.02815e-19)
(0.9998 0.00746335 -7.28364e-19)
(0.999963 0.00695675 1.60618e-19)
(1.00004 0.00648818 -6.30474e-19)
(0.999978 0.00604556 3.1856e-20)
(0.999681 0.00559379 -8.16506e-19)
(0.999056 0.00492708 -2.33417e-18)
(0.998041 0.00382537 1.67034e-18)
(0.996609 0.00206238 -4.08843e-19)
(0.994806 -0.000471947 9.03192e-19)
(0.992769 -0.00366638 -5.52979e-18)
(0.990695 -0.00699726 -1.60034e-19)
(0.988684 -0.00976406 -5.02705e-20)
(0.986613 -0.0116672 -2.72505e-17)
(0.984197 -0.0133251 -1.07508e-17)
(0.981169 -0.0161377 1.62034e-17)
(0.977585 -0.0217099 1.56528e-17)
(0.974318 -0.030722 1.55065e-17)
(0.971565 -0.0431479 -6.85221e-17)
(0.970843 -0.0608655 2.2029e-17)
(0.967617 -0.080831 -3.11668e-17)
(1.00047 -0.100923 -8.94713e-17)
(0.923434 -0.227573 9.54226e-18)
(0.998516 0.00366679 1.01515e-18)
(0.99853 0.0033076 -6.94477e-19)
(0.998542 0.003261 4.60336e-19)
(0.998586 0.00313846 6.7243e-19)
(0.998634 0.00297627 -1.40138e-18)
(0.998685 0.00283907 -1.39193e-18)
(0.998718 0.00273413 1.08781e-18)
(0.998731 0.00269397 1.82659e-19)
(0.998715 0.00273733 3.73938e-19)
(0.998672 0.00288354 -1.45685e-18)
(0.998602 0.00314017 -4.08774e-19)
(0.998513 0.00351503 3.19692e-19)
(0.998412 0.00400297 9.31276e-19)
(0.998308 0.00459901 1.08531e-19)
(0.998208 0.00528767 1.3941e-18)
(0.99812 0.00605419 -2.62097e-18)
(0.998051 0.00687718 1.05335e-18)
(0.998004 0.00773708 1.13796e-18)
(0.99798 0.00861132 -2.75293e-18)
(0.997978 0.00948056 2.81116e-18)
(0.997997 0.0103252 -3.49935e-19)
(0.998031 0.0111291 -2.62564e-18)
(0.998077 0.0118778 -6.32575e-19)
(0.998131 0.0125606 1.01062e-18)
(0.998187 0.0131653 4.95182e-20)
(0.998243 0.0136841 -1.43607e-18)
(0.998296 0.0141067 2.05915e-18)
(0.998347 0.0144268 -1.04303e-18)
(0.998397 0.0146395 1.86441e-19)
(0.998449 0.0147414 3.36648e-19)
(0.998505 0.014735 2.06618e-19)
(0.998575 0.0146209 4.47128e-19)
(0.998663 0.014397 1.67591e-19)
(0.998772 0.0140588 -8.97286e-19)
(0.998906 0.0136076 -3.18116e-19)
(0.999065 0.0130526 2.94781e-19)
(0.999244 0.012408 -2.07457e-18)
(0.999431 0.0116936 -5.3233e-20)
(0.999604 0.0109288 3.86921e-19)
(0.999729 0.0101289 -1.21484e-18)
(0.999756 0.00929688 -2.19334e-19)
(0.999625 0.00842639 -8.61827e-20)
(0.999219 0.00748027 1.5268e-18)
(0.998431 0.00622612 4.13607e-19)
(0.997212 0.00445144 3.18114e-18)
(0.995553 0.00197441 -1.13329e-18)
(0.993523 -0.00121959 4.88485e-18)
(0.991289 -0.00489084 3.96139e-19)
(0.989082 -0.00835934 2.31305e-17)
(0.987017 -0.010863 -4.69833e-18)
(0.984972 -0.0122321 5.02986e-17)
(0.982665 -0.013362 4.17471e-17)
(0.979814 -0.0159541 -2.34639e-17)
(0.976423 -0.0217437 1.91607e-17)
(0.973328 -0.0314109 3.03933e-17)
(0.970609 -0.0447003 2.97286e-17)
(0.970456 -0.0631226 8.51465e-18)
(0.966987 -0.0845479 1.03699e-17)
(0.99073 -0.0984934 6.04262e-17)
(0.980066 -0.203844 -1.45762e-17)
(1.00034 0.00465988 -9.22245e-19)
(1.00019 0.00473348 -1.76376e-18)
(1 0.0049826 3.06323e-20)
(0.999863 0.00514033 2.94024e-19)
(0.999746 0.00518631 -1.39487e-18)
(0.999655 0.00518357 2.43361e-18)
(0.999569 0.00512695 -2.55722e-19)
(0.999483 0.00505201 1.34408e-18)
(0.999383 0.00498253 5.82324e-19)
(0.999263 0.00495028 -3.19501e-18)
(0.999118 0.00497857 1.47633e-18)
(0.99895 0.00509359 -1.22766e-19)
(0.998759 0.00530955 -2.43203e-20)
(0.998553 0.00563987 1.8701e-18)
(0.998339 0.00608558 -1.79579e-18)
(0.998128 0.00664579 3.6472e-19)
(0.997929 0.00730913 -4.31371e-19)
(0.997751 0.00806289 5.61096e-19)
(0.9976 0.00888685 -8.44085e-19)
(0.997481 0.00976196 1.37643e-18)
(0.997396 0.0106643 -1.47358e-18)
(0.997345 0.011573 1.25828e-18)
(0.997327 0.0124664 1.85764e-18)
(0.997338 0.0133268 -1.89303e-18)
(0.997373 0.0141338 -5.33523e-19)
(0.997429 0.0148726 2.50629e-18)
(0.997499 0.0155251 -2.34365e-18)
(0.99758 0.0160787 7.47884e-19)
(0.99767 0.0165232 -1.94057e-18)
(0.997767 0.0168493 2.66803e-18)
(0.997872 0.0170551 -1.09643e-18)
(0.99799 0.0171351 -1.41748e-18)
(0.998124 0.0170814 -2.91518e-18)
(0.998274 0.0168837 8.74481e-19)
(0.998441 0.0165366 2.28505e-19)
(0.998625 0.0160422 -2.80466e-19)
(0.998818 0.0154069 1.95805e-18)
(0.999008 0.0146436 1.75203e-18)
(0.999171 0.0137647 -4.19614e-19)
(0.99927 0.0127807 7.16013e-19)
(0.999254 0.0116922 -2.17464e-19)
(0.999057 0.0105001 -1.45237e-19)
(0.998539 0.00915835 -1.34228e-18)
(0.997576 0.0074532 -2.73919e-18)
(0.996128 0.00519792 -1.73584e-18)
(0.994186 0.00225798 -2.8151e-18)
(0.991817 -0.0013186 -1.30203e-18)
(0.989198 -0.00524147 3.38292e-18)
(0.986582 -0.0087971 2.41553e-18)
(0.984129 -0.0112708 -7.43241e-18)
(0.981779 -0.0126315 -3.89046e-18)
(0.979313 -0.0139279 -2.11734e-17)
(0.976454 -0.0169977 -9.49568e-19)
(0.973119 -0.0236046 -1.99945e-17)
(0.969979 -0.0345531 1.72222e-17)
(0.96703 -0.0495743 -8.09722e-18)
(0.967197 -0.0700125 -5.49521e-18)
(0.964201 -0.0946257 -4.29285e-18)
(0.981419 -0.109882 3.16499e-17)
(0.960105 -0.205357 6.85064e-18)
(1.00365 0.00581365 -5.29373e-19)
(1.00344 0.00621724 6.42891e-19)
(1.00319 0.00664354 1.05121e-18)
(1.00295 0.00707169 -1.08883e-19)
(1.00271 0.00739659 -6.7577e-19)
(1.00248 0.00766141 -7.63396e-19)
(1.00226 0.0078383 -2.78453e-19)
(1.00203 0.00794015 -1.35275e-18)
(1.00179 0.0079778 1.81923e-18)
(1.00154 0.00797319 1.67808e-18)
(1.00125 0.00795032 -2.07168e-18)
(1.00093 0.00793942 1.19243e-18)
(1.00058 0.0079663 -3.97214e-19)
(1.00019 0.00805817 9.93739e-19)
(0.999781 0.00823347 -1.77303e-19)
(0.999358 0.00850866 -4.95105e-19)
(0.998934 0.00888939 -2.58108e-18)
(0.998521 0.00937796 3.92665e-18)
(0.998132 0.00996638 -1.91138e-18)
(0.99778 0.0106452 1.23414e-18)
(0.997472 0.0113953 -1.86866e-18)
(0.997217 0.012199 1.3805e-18)
(0.997017 0.0130346 -1.23663e-18)
(0.996875 0.0138819 -7.51292e-19)
(0.996788 0.0147168 4.30665e-20)
(0.996753 0.0155198 3.63002e-20)
(0.996762 0.0162666 1.13396e-18)
(0.996809 0.0169392 1.96575e-18)
(0.996887 0.017522 -6.24778e-19)
(0.996991 0.0180013 7.96077e-19)
(0.997118 0.0183689 -5.76878e-19)
(0.997268 0.0186132 9.18014e-20)
(0.997438 0.0187216 3.5387e-18)
(0.997625 0.0186769 -2.04874e-19)
(0.997826 0.0184672 2.22065e-18)
(0.998036 0.018087 -1.35325e-18)
(0.998246 0.0175341 -3.13258e-18)
(0.998439 0.016813 -1.73546e-18)
(0.99859 0.0159274 -3.22796e-19)
(0.99866 0.0148803 6.23379e-20)
(0.998597 0.0136687 2.18232e-19)
(0.998329 0.0123001 6.54692e-21)
(0.9977 0.0107128 -1.75523e-19)
(0.996573 0.00874454 2.40653e-18)
(0.994909 0.00623877 -2.48836e-18)
(0.992687 0.00309362 3.46196e-18)
(0.989963 -0.000621197 -8.67756e-19)
(0.986909 -0.00463319 -6.63319e-18)
(0.983796 -0.00827933 -1.28141e-17)
(0.980855 -0.0109407 1.74225e-17)
(0.978142 -0.0126804 -1.6904e-17)
(0.97556 -0.0145375 1.65448e-17)
(0.972881 -0.0182778 5.55936e-18)
(0.969948 -0.0255221 -6.03492e-18)
(0.967192 -0.0371497 -9.83437e-17)
(0.96441 -0.0530305 2.74257e-17)
(0.965075 -0.0745174 -2.67631e-17)
(0.963158 -0.101024 1.47431e-17)
(0.975676 -0.116602 6.9016e-18)
(0.964305 -0.203542 -6.50998e-18)
(1.00665 0.00864092 -2.84265e-18)
(1.0066 0.00902267 1.6188e-18)
(1.00648 0.00933915 6.42909e-19)
(1.00632 0.00977483 5.19359e-19)
(1.00612 0.010174 -1.25487e-18)
(1.0059 0.0105688 -1.39428e-18)
(1.00566 0.0109119 2.99073e-18)
(1.0054 0.0111934 -4.17482e-19)
(1.00513 0.0113994 3.6534e-19)
(1.00483 0.0115307 -2.5405e-18)
(1.00449 0.0115926 1.74091e-18)
(1.0041 0.0116028 -9.73838e-19)
(1.00366 0.0115807 -1.34249e-18)
(1.00315 0.0115534 2.76338e-18)
(1.00259 0.0115453 -5.01928e-19)
(1.00198 0.0115833 -1.05766e-18)
(1.00134 0.011687 -1.29256e-18)
(1.00067 0.0118745 4.14383e-18)
(1 0.0121537 -1.96303e-18)
(0.999351 0.0125298 -1.98306e-18)
(0.998735 0.0129958 2.2465e-18)
(0.998171 0.0135446 -1.95769e-19)
(0.997675 0.0141612 -3.12614e-20)
(0.997255 0.0148292 -8.74297e-19)
(0.996919 0.0155268 4.03538e-19)
(0.996668 0.0162342 -1.68155e-18)
(0.996497 0.0169242 -1.42959e-18)
(0.996402 0.0175769 4.67224e-19)
(0.996373 0.0181732 1.60277e-18)
(0.996403 0.0186953 1.05503e-18)
(0.996486 0.0191314 1.03447e-18)
(0.996615 0.019465 -9.53216e-19)
(0.996781 0.019679 3.48958e-19)
(0.996977 0.0197512 9.57386e-19)
(0.997191 0.0196647 -1.64876e-18)
(0.997412 0.0194072 -9.64161e-20)
(0.997628 0.0189684 -1.659e-19)
(0.997816 0.0183447 1.21703e-18)
(0.997947 0.0175302 -1.67358e-19)
(0.99798 0.0165196 5.87211e-19)
(0.997861 0.0153045 3.99849e-20)
(0.997512 0.0138965 -1.05056e-19)
(0.996774 0.0122161 9.94786e-19)
(0.995503 0.0101649 -5.79087e-19)
(0.99365 0.00761312 3.0382e-18)
(0.991172 0.00447004 -9.53126e-20)
(0.988104 0.000787838 1.18698e-17)
(0.984601 -0.00323315 7.75147e-18)
(0.980944 -0.00703982 -2.24726e-19)
(0.97744 -0.0101339 -2.28302e-17)
(0.974295 -0.0126268 2.96735e-18)
(0.971583 -0.0154187 -1.7721e-17)
(0.969188 -0.0200273 2.34591e-17)
(0.966921 -0.0277722 -3.9951e-18)
(0.964964 -0.0394876 3.50132e-17)
(0.962784 -0.055296 -2.2031e-17)
(0.964095 -0.0767599 -7.60205e-18)
(0.963464 -0.104111 -3.88455e-17)
(0.972982 -0.119319 -6.72084e-17)
(0.963972 -0.200482 1.18598e-17)
(1.00835 0.0130192 9.61175e-19)
(1.00852 0.013109 1.79777e-18)
(1.00864 0.0131224 -1.00153e-18)
(1.00868 0.0133321 -1.25286e-18)
(1.00864 0.0135819 -3.56627e-19)
(1.00856 0.0139008 1.43923e-18)
(1.00843 0.0142417 5.6507e-19)
(1.00828 0.0145807 5.03632e-19)
(1.0081 0.0148895 -6.9698e-19)
(1.00789 0.0151475 4.97343e-19)
(1.00764 0.0153393 -8.59931e-19)
(1.00734 0.0154603 -1.56266e-18)
(1.00698 0.0155112 2.04834e-18)
(1.00653 0.0155042 -7.44544e-19)
(1.006 0.0154545 -3.77745e-20)
(1.00538 0.0153858 -1.97448e-18)
(1.00468 0.0153204 1.282e-18)
(1.0039 0.015284 5.37636e-19)
(1.00306 0.0152959 -1.09909e-18)
(1.00219 0.0153749 3.39079e-18)
(1.0013 0.0155283 -1.31034e-18)
(1.00043 0.0157634 -2.88959e-18)
(0.999611 0.0160775 2.92698e-18)
(0.998853 0.0164637 -3.39399e-18)
(0.99818 0.016909 8.03449e-19)
(0.997605 0.0173979 1.98654e-18)
(0.997134 0.017906 1.50499e-19)
(0.996769 0.0184151 -1.27882e-18)
(0.996508 0.0189056 7.35415e-19)
(0.996346 0.0193598 -5.17188e-20)
(0.996275 0.0197619 -1.775e-18)
(0.996287 0.0200929 -5.04722e-19)
(0.996367 0.0203341 -9.87246e-19)
(0.996502 0.0204598 -1.34965e-18)
(0.996674 0.0204501 -8.14648e-19)
(0.996865 0.020288 2.04089e-18)
(0.997055 0.0199575 -5.28261e-20)
(0.997215 0.0194482 -1.00441e-18)
(0.997309 0.0187452 1.58406e-18)
(0.997293 0.0178348 -7.0333e-19)
(0.997107 0.016703 3.81882e-20)
(0.996668 0.015363 -1.68325e-19)
(0.995822 0.0137186 -2.1696e-18)
(0.994423 0.0117294 6.31092e-19)
(0.9924 0.00928475 1.29483e-18)
(0.989682 0.00628376 1.79733e-18)
(0.986269 0.00272932 -5.3958e-18)
(0.982286 -0.00129016 6.1037e-18)
(0.978001 -0.00537413 -2.19513e-17)
(0.973783 -0.00916821 5.40359e-18)
(0.969981 -0.0128181 9.97185e-18)
(0.966869 -0.0170251 -9.141e-18)
(0.964499 -0.0229718 -3.04059e-17)
(0.962727 -0.03159 1.39989e-17)
(0.961553 -0.0435578 1.20695e-17)
(0.960091 -0.0592688 -4.90372e-17)
(0.9621 -0.0806113 -1.39391e-17)
(0.962874 -0.108723 4.15841e-17)
(0.970624 -0.124315 6.14779e-17)
(0.967086 -0.199115 -1.05532e-17)
(1.00888 0.018655 -1.77378e-18)
(1.00928 0.0184004 2.08535e-18)
(1.00963 0.0180634 -1.15336e-18)
(1.00989 0.0179287 -1.32965e-19)
(1.01004 0.017868 6.431e-19)
(1.01012 0.017923 -3.25979e-19)
(1.01013 0.0180604 1.18991e-18)
(1.01011 0.0182634 5.48373e-19)
(1.01005 0.0185032 -8.82911e-19)
(1.00997 0.0187541 -1.66342e-18)
(1.00987 0.018988 1.87406e-18)
(1.00973 0.0191843 1.20724e-19)
(1.00954 0.0193241 -1.07968e-19)
(1.00929 0.0193995 -2.30797e-19)
(1.00895 0.0194069 1.1564e-18)
(1.00851 0.0193542 -1.51384e-18)
(1.00796 0.0192528 1.6868e-18)
(1.00729 0.0191229 -2.76594e-18)
(1.00651 0.0189839 1.14232e-18)
(1.00563 0.0188595 -5.50378e-19)
(1.00466 0.0187658 3.35241e-20)
(1.00365 0.0187223 -1.2967e-18)
(1.00262 0.0187386 3.37566e-18)
(1.0016 0.0188205 -9.15817e-19)
(1.00062 0.0189681 9.6101e-19)
(0.999716 0.0191745 -1.43319e-18)
(0.998902 0.0194237 -1.68262e-18)
(0.998197 0.019704 1.70433e-18)
(0.997611 0.0199989 -4.678e-19)
(0.997149 0.0202932 -3.20962e-19)
(0.99681 0.0205713 4.48057e-19)
(0.996588 0.0208147 1.18359e-18)
(0.99647 0.0210033 -3.88169e-20)
(0.99644 0.0211114 2.35512e-18)
(0.996478 0.0211182 -1.80372e-18)
(0.996559 0.0210041 1.13652e-18)
(0.996656 0.0207499 5.15198e-19)
(0.996735 0.0203409 6.06448e-19)
(0.996754 0.0197549 -4.75091e-19)
(0.996659 0.0189713 9.47602e-20)
(0.996387 0.0179717 3.85573e-19)
(0.995844 0.0167683 8.30827e-20)
(0.994891 0.0152531 1.01193e-18)
(0.993382 0.0134261 -6.03813e-20)
(0.991223 0.0111882 -1.65237e-18)
(0.988302 0.0084138 -6.339e-20)
(0.984589 0.00503998 -6.02009e-18)
(0.980156 0.00102382 -6.01394e-18)
(0.975234 -0.00340735 2.1992e-17)
(0.970215 -0.00805887 -2.75123e-18)
(0.965563 -0.0131186 1.16508e-18)
(0.961735 -0.0190935 -4.56039e-18)
(0.958986 -0.0268235 1.08805e-17)
(0.957297 -0.0368378 -2.83356e-17)
(0.956598 -0.049575 -9.72699e-18)
(0.955762 -0.0656088 5.51671e-17)
(0.958538 -0.0870544 3.90166e-18)
(0.960993 -0.115714 2.83819e-17)
(0.968027 -0.131848 -1.15686e-17)
(0.972323 -0.196698 1.77569e-17)
(1.00854 0.0246084 -7.97222e-20)
(1.0091 0.0240857 -1.46226e-18)
(1.00962 0.0234899 6.75786e-19)
(1.01008 0.0230551 -8.0806e-19)
(1.01041 0.0226899 8.68286e-19)
(1.01065 0.0224431 -3.99818e-19)
(1.01081 0.0223016 1.59886e-18)
(1.01091 0.0222605 -9.88208e-19)
(1.01096 0.0223047 1.22264e-18)
(1.01099 0.0224145 -5.94648e-19)
(1.011 0.0225654 -1.55479e-19)
(1.01099 0.0227331 4.59991e-19)
(1.01097 0.0228906 -1.42689e-18)
(1.01091 0.0230171 2.49665e-18)
(1.01079 0.0230925 1.04043e-19)
(1.01061 0.0231072 -4.37694e-20)
(1.01032 0.0230551 -1.76643e-18)
(1.00992 0.022942 1.25136e-18)
(1.00939 0.0227756 -1.63012e-18)
(1.00871 0.0225732 1.10364e-18)
(1.00791 0.0223498 1.76063e-19)
(1.00698 0.0221281 8.4683e-19)
(1.00596 0.0219246 -8.60614e-19)
(1.00488 0.0217553 -1.53375e-18)
(1.00376 0.0216322 1.17422e-18)
(1.00265 0.0215594 1.10778e-18)
(1.00158 0.0215321 -1.21903e-18)
(1.00058 0.0215488 1.89283e-19)
(0.999673 0.0215998 6.85569e-19)
(0.998881 0.0216777 -2.19831e-18)
(0.998215 0.0217683 4.44598e-19)
(0.99768 0.0218567 1.01913e-19)
(0.997272 0.021926 -2.79939e-19)
(0.996976 0.021951 -4.9849e-19)
(0.996776 0.0219128 -5.64481e-19)
(0.996647 0.0217911 -2.09702e-19)
(0.996561 0.0215663 8.49638e-21)
(0.996479 0.0212212 -3.93875e-19)
(0.996355 0.0207295 1.26737e-18)
(0.99613 0.0200657 -2.99705e-19)
(0.995735 0.0192091 -1.42061e-19)
(0.995069 0.0181697 2.42157e-19)
(0.994012 0.016834 1.24511e-18)
(0.992427 0.0152211 1.02989e-18)
(0.990194 0.0132382 -1.89735e-18)
(0.987172 0.0107322 2.35615e-18)
(0.983295 0.00757493 -1.85624e-18)
(0.978582 0.00360012 -8.32539e-18)
(0.973199 -0.00113252 -1.28452e-17)
(0.967519 -0.00658443 1.89066e-17)
(0.962066 -0.0129968 -1.71639e-17)
(0.957431 -0.020717 9.3116e-18)
(0.954066 -0.0302906 -3.47642e-17)
(0.952127 -0.0418845 -3.60613e-18)
(0.951578 -0.0556534 -1.39083e-17)
(0.951202 -0.0722111 3.02065e-18)
(0.95476 -0.0937164 2.26594e-17)
(0.959046 -0.122289 -3.24419e-17)
(0.965858 -0.13824 -2.0299e-17)
(0.978322 -0.192938 -2.19969e-17)
(1.0079 0.0306004 -2.71915e-19)
(1.00853 0.0299472 2.71249e-19)
(1.00915 0.0292153 5.72446e-19)
(1.00973 0.028576 5.30813e-19)
(1.0102 0.0279686 -9.72453e-19)
(1.01058 0.0274501 -4.02112e-19)
(1.01086 0.0270223 9.87142e-19)
(1.01106 0.0266964 6.14096e-19)
(1.0112 0.0264715 -1.27209e-18)
(1.01129 0.0263426 1.48094e-18)
(1.01136 0.0262956 -8.68065e-19)
(1.01141 0.0263146 -1.31258e-18)
(1.01146 0.0263754 1.00824e-18)
(1.0115 0.0264558 9.52284e-20)
(1.01154 0.0265287 -1.56569e-18)
(1.01154 0.0265741 1.0754e-18)
(1.01149 0.0265717 3.65524e-19)
(1.01136 0.0265118 -1.5962e-19)
(1.01112 0.026386 2.31442e-19)
(1.01076 0.0261983 8.11675e-19)
(1.01025 0.0259529 -1.79489e-18)
(1.0096 0.0256662 9.8604e-19)
(1.00879 0.025352 -3.18802e-19)
(1.00786 0.0250296 2.20232e-18)
(1.00682 0.0247166 -1.83016e-18)
(1.00571 0.0244252 5.99938e-19)
(1.00456 0.0241611 -1.56818e-18)
(1.00341 0.0239331 1.10004e-18)
(1.00229 0.0237412 -4.94061e-19)
(1.00124 0.0235862 1.57714e-18)
(1.00029 0.0234606 7.2888e-19)
(0.999441 0.0233571 -1.98675e-18)
(0.998712 0.0232613 1.10476e-18)
(0.9981 0.0231534 -3.30005e-20)
(0.997593 0.0230173 -7.69661e-19)
(0.997175 0.0228342 1.18732e-18)
(0.996821 0.0225864 1.57805e-19)
(0.996495 0.0222564 3.88311e-19)
(0.996152 0.0218158 -1.14887e-18)
(0.995735 0.0212373 4.41703e-19)
(0.99517 0.0205005 -2.71713e-19)
(0.994359 0.0196131 -1.44336e-20)
(0.993203 0.0184623 -8.27443e-19)
(0.991585 0.0170676 -1.72213e-19)
(0.98937 0.0153396 -4.57257e-19)
(0.986399 0.013106 -2.71488e-18)
(0.982578 0.0101894 -1.42162e-18)
(0.977874 0.00632814 8.40317e-18)
(0.972375 0.00144503 1.55432e-17)
(0.966397 -0.00455173 -8.6124e-18)
(0.960464 -0.0119585 1.2958e-17)
(0.955227 -0.0210092 1.07182e-17)
(0.95129 -0.0320286 1.99599e-17)
(0.948984 -0.0448994 5.07624e-17)
(0.948369 -0.0594995 3.19521e-17)
(0.948262 -0.076381 -4.66623e-18)
(0.952464 -0.0975877 -6.50941e-17)
(0.958424 -0.125312 -1.56895e-17)
(0.964844 -0.140328 1.027e-18)
(0.983616 -0.187558 1.66157e-17)
(1.00713 0.0360264 7.28754e-19)
(1.00775 0.0353546 -7.64361e-19)
(1.00838 0.0346201 -2.86936e-19)
(1.00901 0.0339124 1.67655e-18)
(1.00957 0.0331942 -1.28272e-18)
(1.01006 0.0325187 -6.49221e-19)
(1.01046 0.031898 1.32048e-18)
(1.01077 0.0313508 -1.44459e-18)
(1.011 0.0308891 1.38681e-18)
(1.01116 0.0305195 4.99098e-19)
(1.01126 0.0302422 -5.60382e-19)
(1.01134 0.0300529 -8.91105e-19)
(1.0114 0.0299387 7.05081e-19)
(1.01147 0.0298846 -5.29059e-19)
(1.01154 0.0298676 1.50251e-19)
(1.01162 0.0298669 -2.47112e-19)
(1.01169 0.0298572 6.25237e-19)
(1.01173 0.0298201 8.09814e-19)
(1.01172 0.0297348 -2.25971e-18)
(1.01162 0.0295919 1.46701e-18)
(1.01141 0.0293822 -9.14368e-19)
(1.01107 0.0291097 -8.30508e-19)
(1.01058 0.0287783 1.0151e-18)
(1.00993 0.028403 -4.20069e-20)
(1.00913 0.027998 -6.00996e-19)
(1.0082 0.0275781 1.13592e-19)
(1.00716 0.0271544 1.38293e-18)
(1.00604 0.0267424 2.42855e-19)
(1.00488 0.0263503 -1.0937e-18)
(1.00371 0.025989 7.59501e-19)
(1.00258 0.025657 -1.2343e-18)
(1.0015 0.0253558 1.36557e-18)
(1.00051 0.0250781 9.06602e-19)
(0.999595 0.0248096 4.73322e-19)
(0.998776 0.0245391 2.97532e-20)
(0.99804 0.0242509 4.18356e-19)
(0.997374 0.023931 -9.99226e-19)
(0.99675 0.0235637 -1.16067e-18)
(0.996131 0.0231203 3.49602e-19)
(0.995468 0.0225749 3.85631e-19)
(0.994693 0.0219093 1.79004e-19)
(0.993716 0.0211292 2.1823e-20)
(0.992467 0.0201287 -1.81459e-18)
(0.990859 0.0189135 -5.88912e-19)
(0.988755 0.0173974 9.33412e-19)
(0.985991 0.0154023 1.28125e-18)
(0.982457 0.0127259 7.70692e-18)
(0.978079 0.00905126 -1.03477e-18)
(0.972861 0.00420767 3.55474e-18)
(0.967039 -0.00198851 1.82187e-17)
(0.961082 -0.00987966 -1.67341e-18)
(0.955628 -0.0196278 -6.13504e-18)
(0.951359 -0.0314225 1.42022e-17)
(0.948744 -0.0449656 4.68703e-18)
(0.94794 -0.0599162 1.08795e-17)
(0.947868 -0.0767393 3.72502e-17)
(0.952369 -0.0973348 5.28262e-17)
(0.95947 -0.123919 3.72124e-18)
(0.964853 -0.137968 2.75617e-17)
(0.987163 -0.182257 1.54545e-18)
(1.00659 0.0409869 -9.38499e-19)
(1.00711 0.0403879 6.77791e-19)
(1.00766 0.0397353 7.99278e-19)
(1.00827 0.03905 -2.95427e-19)
(1.00885 0.0383098 -9.67854e-19)
(1.00938 0.0375658 1.95332e-18)
(1.00986 0.0368331 -2.40003e-18)
(1.01025 0.0361362 8.36881e-19)
(1.01056 0.0354931 4.49442e-19)
(1.01079 0.03492 8.80057e-19)
(1.01094 0.0344263 -1.24882e-18)
(1.01104 0.0340195 -4.19698e-20)
(1.01111 0.0336973 -3.60788e-19)
(1.01116 0.0334562 2.01518e-18)
(1.01121 0.0332817 -1.09505e-18)
(1.01127 0.0331599 6.31879e-19)
(1.01135 0.0330686 -8.36925e-19)
(1.01143 0.0329891 1.08948e-19)
(1.01151 0.0328959 1.00218e-18)
(1.01156 0.0327717 -5.92922e-19)
(1.01155 0.0325973 -4.23222e-19)
(1.01145 0.0323642 -2.84223e-19)
(1.01123 0.0320645 9.2271e-19)
(1.01088 0.0317039 -5.54685e-19)
(1.01037 0.0312871 3.10514e-19)
(1.00971 0.0308247 -6.00286e-19)
(1.0089 0.0303267 4.78565e-19)
(1.00795 0.0298095 -7.20354e-19)
(1.0069 0.0292865 2.34263e-20)
(1.00578 0.0287728 -6.96862e-19)
(1.00461 0.0282751 5.81302e-20)
(1.00343 0.0278029 1.55695e-20)
(1.00227 0.0273543 -5.40348e-20)
(1.00114 0.0269229 2.75432e-19)
(1.00006 0.0265028 -2.11845e-19)
(0.999039 0.0260827 8.90144e-19)
(0.99807 0.0256536 -5.00159e-19)
(0.99714 0.0252024 2.40828e-19)
(0.996226 0.0247026 2.70101e-19)
(0.995292 0.0241314 -3.32117e-19)
(0.994285 0.0234745 4.25313e-20)
(0.993131 0.0227369 -2.19083e-20)
(0.991795 0.0218227 2.16357e-18)
(0.990225 0.0207178 1.2438e-18)
(0.988297 0.0193383 7.6173e-19)
(0.985851 0.0175157 2.19299e-18)
(0.982776 0.015047 -2.90496e-18)
(0.978967 0.0115987 -7.55208e-18)
(0.974351 0.00695333 -5.89734e-18)
(0.969076 0.000875991 -8.69617e-18)
(0.963519 -0.00700669 -3.27988e-18)
(0.95824 -0.0168216 -1.07961e-17)
(0.953926 -0.0287024 2.41234e-17)
(0.951127 -0.0422771 -4.29703e-17)
(0.950065 -0.0570764 -1.59544e-17)
(0.949786 -0.0735189 -3.32566e-17)
(0.95416 -0.0934036 -2.18486e-17)
(0.961759 -0.119003 -2.78642e-17)
(0.965457 -0.132525 -4.99489e-18)
(0.988734 -0.177804 4.51466e-19)
(1.00623 0.0451793 9.77254e-19)
(1.00659 0.0446979 9.88913e-19)
(1.00702 0.044196 -1.38049e-18)
(1.00754 0.0436199 4.07256e-19)
(1.00807 0.0429576 1.41879e-19)
(1.0086 0.0422503 9.6164e-19)
(1.00911 0.0415135 1.00304e-19)
(1.00956 0.04077 -1.37038e-18)
(1.00994 0.0400411 5.27569e-19)
(1.01024 0.0393463 4.56019e-19)
(1.01046 0.038702 -4.30245e-20)
(1.01061 0.038123 4.83145e-19)
(1.0107 0.0376169 1.83605e-19)
(1.01074 0.0371897 -1.35159e-18)
(1.01076 0.0368377 3.5028e-19)
(1.01078 0.0365565 6.62411e-19)
(1.01081 0.036332 -2.50359e-19)
(1.01085 0.0361514 -1.43318e-18)
(1.01091 0.0359916 1.45794e-18)
(1.01098 0.0358354 -3.10609e-19)
(1.01104 0.0356587 -6.04732e-19)
(1.01106 0.0354462 2.31351e-19)
(1.01101 0.0351806 -1.41098e-19)
(1.01087 0.034858 1.53402e-19)
(1.01061 0.0344714 -7.78331e-19)
(1.01021 0.0340243 1.50065e-19)
(1.00965 0.0335194 -7.54756e-19)
(1.00894 0.0329687 5.31831e-19)
(1.00809 0.0323855 6.98055e-19)
(1.00711 0.0317862 1.16856e-19)
(1.00602 0.0311805 -8.34715e-19)
(1.00487 0.0305822 -6.8404e-19)
(1.00366 0.0299969 6.3218e-19)
(1.00242 0.0294223 1.14782e-18)
(1.00118 0.0288588 -1.41575e-18)
(0.999945 0.0282993 4.83607e-19)
(0.99873 0.0277403 8.18505e-19)
(0.997532 0.0271721 6.77967e-19)
(0.996345 0.0265715 3.67549e-19)
(0.99515 0.0259201 3.83237e-19)
(0.993913 0.0252087 2.13162e-19)
(0.992585 0.0244415 -8.88263e-20)
(0.991164 0.0235355 3.99986e-19)
(0.989638 0.0224556 -1.53545e-18)
(0.987906 0.0211201 -4.76056e-19)
(0.985819 0.0193823 -5.97776e-18)
(0.98327 0.0170564 5.84237e-18)
(0.980142 0.013825 1.22522e-17)
(0.976296 0.00946196 -6.70794e-18)
(0.971795 0.0037157 -1.35635e-17)
(0.966908 -0.00380325 -1.30357e-17)
(0.962077 -0.0132138 2.41794e-17)
(0.957941 -0.0246622 -1.6121e-17)
(0.955065 -0.0378012 1.30772e-17)
(0.95369 -0.0521285 6.72624e-18)
(0.952979 -0.0680866 -1.5252e-17)
(0.956827 -0.0874643 8.8528e-18)
(0.96434 -0.112645 7.24438e-18)
(0.965917 -0.126402 1.27448e-17)
(0.988568 -0.175692 -1.43323e-17)
(1.00625 0.0488975 -9.67773e-19)
(1.00643 0.0485632 1.44741e-18)
(1.00667 0.0482321 -1.88327e-19)
(1.00704 0.047796 -8.91918e-19)
(1.00746 0.0472485 1.40505e-18)
(1.00792 0.0466257 -1.13113e-18)
(1.00839 0.0459396 5.22674e-19)
(1.00885 0.0452121 -3.32063e-19)
(1.00926 0.0444629 -3.11642e-19)
(1.00961 0.0437132 1.02425e-18)
(1.00989 0.0429812 5.46654e-19)
(1.0101 0.042286 -1.42298e-18)
(1.01023 0.0416403 8.24169e-20)
(1.01029 0.0410573 -4.95155e-19)
(1.01031 0.0405409 5.06026e-19)
(1.01029 0.040096 2.87559e-19)
(1.01026 0.0397172 4.15943e-19)
(1.01024 0.0394003 -8.46637e-19)
(1.01023 0.0391289 7.24833e-19)
(1.01024 0.0388907 -5.22797e-19)
(1.01026 0.0386634 4.18142e-20)
(1.01029 0.0384302 1.00087e-18)
(1.01029 0.0381697 -9.07008e-19)
(1.01025 0.0378717 1.15074e-18)
(1.01013 0.0375195 -4.58198e-19)
(1.0099 0.0371088 6.74957e-19)
(1.00955 0.0366331 3.4672e-19)
(1.00906 0.036097 -2.27991e-19)
(1.00842 0.0355097 -1.49683e-19)
(1.00762 0.034882 -5.94967e-19)
(1.00669 0.0342255 1.30739e-18)
(1.00564 0.0335548 -3.97541e-19)
(1.00448 0.0328768 3.81062e-19)
(1.00324 0.0321939 -7.43839e-19)
(1.00193 0.0315097 -5.0708e-19)
(1.00058 0.0308212 -9.0938e-19)
(0.9992 0.0301292 3.39262e-19)
(0.997804 0.0294277 4.68294e-19)
(0.996398 0.0286971 3.67834e-19)