1.45 	0 	0 	-0.094187
2.35 	0 	0 	0.0309223
