1.45 	0 	0 	0.0463418 	-0.00748329 	3.60781e-21
2.35 	0 	0 	0.258804 	-0.0119594 	5.07619e-22
