/*--------------------------------*- C++ -*----------------------------------*\
  =========                 |
  \\      /  F ield         | OpenFOAM: The Open Source CFD Toolbox
   \\    /   O peration     | Website:  https://openfoam.org
    \\  /    A nd           | Version:  6.0
     \\/     M anipulation  |
\*---------------------------------------------------------------------------*/
FoamFile
{
    version     2.0;
    format      ascii;
    class       volVectorField;
    location    "56";
    object      U;
}
// * * * * * * * * * * * * * * * * * * * * * * * * * * * * * * * * * * * * * //

dimensions      [0 1 -1 0 0 0 0];

internalField   nonuniform List<vector> 
2000
(
(-0.00199122 0.00173836 5.72898e-20)
(-0.00762157 0.00330259 6.80427e-20)
(-0.0153301 0.00366189 -6.48679e-20)
(-0.0223324 0.00333759 -1.32364e-19)
(-0.0276804 0.00263998 -9.24636e-20)
(-0.0312214 0.00177217 1.23181e-19)
(-0.0330527 0.000879553 7.17493e-20)
(-0.0334436 6.88439e-05 -2.90249e-20)
(-0.0328262 -0.000580836 -7.24568e-20)
(-0.0314952 -0.0010056 5.28306e-20)
(-0.00248969 0.00512131 -1.42006e-19)
(-0.00837066 0.00968548 1.96036e-19)
(-0.0157252 0.0106975 1.95484e-20)
(-0.022025 0.00969734 -1.13551e-19)
(-0.0264593 0.00759813 5.43356e-19)
(-0.0289517 0.00499667 -2.39137e-19)
(-0.0296475 0.0023213 -2.58716e-19)
(-0.0288424 -0.00010969 3.12044e-19)
(-0.0269847 -0.00205457 -3.07748e-19)
(-0.0244467 -0.0033209 1.55255e-19)
(-0.00343575 0.00822487 2.35847e-20)
(-0.00972808 0.0154095 8.38821e-21)
(-0.0163015 0.0168861 5.87515e-19)
(-0.0211436 0.0151402 2.06095e-19)
(-0.0237176 0.0116332 4.08753e-20)
(-0.0240981 0.00731684 3.3802e-19)
(-0.0225237 0.0028769 -6.42025e-19)
(-0.0193385 -0.0011638 1.39244e-20)
(-0.0150202 -0.00438849 -3.79648e-19)
(-0.010103 -0.00647358 4.18228e-19)
(-0.00472404 0.010868 -4.43651e-20)
(-0.0114034 0.0200602 2.5524e-19)
(-0.0166177 0.0217189 -7.43652e-19)
(-0.0191362 0.0191491 -9.61239e-20)
(-0.018832 0.0142674 -5.47353e-19)
(-0.0160035 0.00831159 5.66873e-19)
(-0.0110227 0.00217628 -6.01275e-19)
(-0.00429652 -0.00342943 4.22266e-19)
(0.00366276 -0.00789577 1.77522e-19)
(0.0120631 -0.0107636 -2.00596e-19)
(-0.00618706 0.0128748 -4.93785e-19)
(-0.0129399 0.0232573 4.45591e-21)
(-0.0159822 0.0247663 9.16072e-19)
(-0.0151343 0.0213427 2.74635e-19)
(-0.0108146 0.0152251 -8.73241e-19)
(-0.00361587 0.00783546 5.42999e-19)
(0.00591813 0.000196503 6.1548e-19)
(0.0173137 -0.00683829 -5.48748e-19)
(0.0300353 -0.0124516 3.91253e-19)
(0.0429232 -0.0160458 9.60769e-20)
(-0.00758376 0.0140743 6.74972e-20)
(-0.0136957 0.0246648 1.25187e-20)
(-0.0134291 0.0257005 -1.17119e-18)
(-0.00792073 0.0215115 -6.55219e-19)
(0.00173556 0.0144922 7.81621e-19)
(0.0145786 0.00611563 -9.15311e-19)
(0.0298493 -0.00258942 1.04885e-18)
(0.0470085 -0.0107138 -9.05981e-20)
(0.0655391 -0.0172481 -2.95075e-19)
(0.0837987 -0.0214693 -8.57618e-19)
(-0.00858782 0.014304 -1.46871e-19)
(-0.0128318 0.0240056 -2.68248e-19)
(-0.00771336 0.0243087 -3.29556e-19)
(0.00407927 0.0196269 7.03032e-19)
(0.0206595 0.012327 1.30413e-18)
(0.0406175 0.00378487 -2.69544e-19)
(0.0629139 -0.00513185 -6.56021e-19)
(0.0869288 -0.0136316 2.00087e-19)
(0.112249 -0.0206138 -1.26006e-18)
(0.136673 -0.0252819 1.38407e-18)
(-0.00878374 0.0134242 8.98271e-19)
(-0.00932805 0.0210859 -4.90319e-19)
(0.00264606 0.0205023 9.5725e-19)
(0.0227355 0.0158175 -1.56395e-18)
(0.0481732 0.00920572 -7.47281e-19)
(0.0770139 0.00182641 -1.03508e-18)
(0.107829 -0.0057938 3.0072e-19)
(0.139842 -0.0132481 -8.37263e-19)
(0.172876 -0.0195724 1.82327e-18)
(0.204272 -0.0240789 5.1039e-19)
(-0.00768224 0.0113475 6.61294e-20)
(-0.00204468 0.015839 7.9869e-19)
(0.0192553 0.0143225 1.58718e-18)
(0.0500645 0.0103002 4.85008e-19)
(0.0867018 0.0056594 1.43555e-18)
(0.126594 0.00136019 7.8685e-20)
(0.167732 -0.00240699 -7.09234e-22)
(0.208919 -0.00569213 5.78753e-19)
(0.250232 -0.00783834 4.68105e-19)
(0.289114 -0.00926192 -1.51927e-18)
(-0.00477047 0.00808578 -5.32099e-19)
(0.0101469 0.00838454 -8.91189e-19)
(0.0436435 0.0059379 -1.29538e-18)
(0.0879959 0.00320916 3.0611e-20)
(0.138749 0.00175696 -6.6037e-19)
(0.192804 0.00254299 1.04082e-18)
(0.247586 0.00588954 -2.86549e-18)
(0.30116 0.0120154 1.28647e-18)
(0.352881 0.0215154 4.83549e-19)
(0.400028 0.0302482 1.51713e-18)
(0.000388672 0.00380853 2.66174e-19)
(0.0281179 -0.0008744 -1.01894e-18)
(0.0768093 -0.00427281 9.09817e-19)
(0.137563 -0.00546138 -3.52978e-19)
(0.205553 -0.00344236 3.83943e-19)
(0.277819 0.00270791 8.35869e-19)
(0.352527 0.0137259 -1.12225e-18)
(0.429273 0.0305533 1.45809e-19)
(0.509035 0.0524534 -5.37767e-19)
(0.594169 0.0694539 1.0911e-18)
(0.00806019 -0.00110793 3.81364e-19)
(0.0522601 -0.0110931 -9.23806e-19)
(0.118756 -0.0153294 1.25868e-18)
(0.197748 -0.0150187 -7.83867e-19)
(0.284048 -0.0102793 -2.87557e-19)
(0.374603 -0.000971797 1.70247e-19)
(0.467605 0.0128153 8.80212e-20)
(0.562487 0.0307703 1.19395e-18)
(0.658901 0.0501772 3.4371e-19)
(0.754557 0.0623404 1.46941e-18)
(0.018352 -0.00610193 -3.404e-19)
(0.0826125 -0.0209185 1.19443e-18)
(0.169007 -0.0252636 -9.96639e-19)
(0.267054 -0.022831 -1.16885e-18)
(0.371087 -0.0151006 1.63535e-18)
(0.477614 -0.00286562 -1.24343e-18)
(0.584238 0.0129433 3.28446e-19)
(0.689404 0.031214 -1.94708e-18)
(0.791332 0.0492643 1.4585e-18)
(0.88604 0.0617495 7.28723e-20)
(0.0312702 -0.0105458 -4.43622e-19)
(0.118976 -0.0287937 -4.28431e-19)
(0.226869 -0.0317842 -9.12311e-19)
(0.344062 -0.0258912 1.10583e-18)
(0.464446 -0.0140393 -5.58543e-20)
(0.584059 0.00207632 7.1492e-19)
(0.699967 0.0208543 1.30421e-18)
(0.809928 0.0407968 -4.00789e-19)
(0.911576 0.0598093 -1.41761e-18)
(1.0009 0.0748784 2.81449e-18)
(0.0467452 -0.0138316 -2.29305e-19)
(0.16091 -0.0332167 -2.73515e-19)
(0.291339 -0.03278 4.92213e-19)
(0.427113 -0.0216645 -9.14891e-19)
(0.561883 -0.00426154 1.56304e-19)
(0.691439 0.0168805 1.39095e-19)
(0.812662 0.039613 6.10001e-20)
(0.923199 0.0622303 -9.85866e-21)
(1.02086 0.0832295 -1.49427e-19)
(1.10226 0.100992 -2.37939e-18)
(0.0646184 -0.0153976 9.30816e-19)
(0.207682 -0.0328631 -6.49606e-19)
(0.360982 -0.0265371 8.30769e-21)
(0.514052 -0.00833833 -9.89344e-19)
(0.660652 0.0159069 -3.53959e-19)
(0.7967 0.0428758 3.30956e-19)
(0.919359 0.0699943 2.57016e-19)
(1.02673 0.0954717 -9.15864e-19)
(1.11735 0.118343 7.48589e-19)
(1.18885 0.137793 -9.81505e-19)
(0.0846109 -0.0147325 4.01745e-19)
(0.258228 -0.0266431 -3.57044e-19)
(0.433899 -0.0118354 1.48301e-18)
(0.602223 0.015101 1.51203e-19)
(0.757549 0.0470193 3.47494e-19)
(0.896411 0.0799696 1.54879e-18)
(1.01678 0.111131 -2.36812e-19)
(1.11772 0.138798 2.1577e-19)
(1.19888 0.162564 8.93473e-20)
(1.25919 0.182097 -1.09969e-19)
(0.106293 -0.0113861 2.80677e-19)
(0.31114 -0.0137428 6.74811e-19)
(0.507779 0.0120121 -7.22884e-19)
(0.688607 0.0488896 -2.44722e-19)
(0.849158 0.0886661 -3.02308e-19)
(0.987142 0.127018 4.68411e-19)
(1.10185 0.161148 -2.43644e-19)
(1.19374 0.189675 6.55497e-19)
(1.26384 0.212846 2.20581e-19)
(1.31249 0.230667 -3.59617e-19)
(0.129071 -0.00499455 -3.02464e-19)
(0.364701 0.00632851 2.68842e-19)
(0.580014 0.0451371 -5.73656e-19)
(0.770037 0.092543 2.47447e-19)
(0.932158 0.139656 -2.56758e-19)
(1.06583 0.182158 -3.20444e-19)
(1.17213 0.217628 -2.57328e-19)
(1.25319 0.245301 2.87581e-19)
(1.3115 0.266204 -5.42201e-19)
(1.34885 0.280637 3.2767e-19)
(0.152191 0.00468204 -1.07814e-19)
(0.416945 0.0336823 -2.10896e-19)
(0.647852 0.0871018 1.00428e-19)
(0.843431 0.144924 6.1918e-21)
(1.0036 0.198186 8.33291e-20)
(1.13007 0.243068 1.1432e-19)
(1.22601 0.277938 1.05949e-19)
(1.29535 0.302935 -1.40493e-19)
(1.34201 0.31998 1.19606e-19)
(1.36911 0.329676 -1.87177e-19)
(0.174775 0.017719 -6.24091e-20)
(0.465772 0.0680015 -2.34115e-20)
(0.708578 0.1369 9.31613e-20)
(0.906006 0.204326 -4.28882e-20)
(1.0611 0.262007 1.14309e-19)
(1.17821 0.307192 -1.47593e-19)
(1.26274 0.339451 3.4208e-20)
(1.32037 0.360077 3.67046e-20)
(1.35627 0.371952 -1.53844e-20)
(1.37464 0.375987 5.82066e-20)
(0.195856 0.0339917 -6.73277e-20)
(0.509069 0.10851 -3.04676e-19)
(0.759689 0.192986 -2.11022e-20)
(0.955467 0.268575 6.27144e-21)
(1.10299 0.328579 -3.9627e-19)
(1.20943 0.371907 5.23874e-20)
(1.28239 0.399693 -4.46001e-20)
(1.3291 0.414557 -1.07576e-19)
(1.35567 0.42033 2.24275e-19)
(1.36715 0.418232 -4.08921e-19)
(0.214444 0.0531504 -3.25169e-20)
(0.54485 0.15397 6.17056e-19)
(0.799063 0.253335 9.94243e-20)
(0.990133 0.335148 -5.43237e-19)
(1.12837 0.395217 -4.40513e-20)
(1.22372 0.434653 -5.2057e-19)
(1.28574 0.456425 3.81586e-19)
(1.32289 0.464539 -1.38445e-19)
(1.34191 0.463703 2.45594e-19)
(1.34841 0.45542 -1.7944e-19)
(0.229586 0.0746121 -2.05051e-19)
(0.571392 0.202718 1.95837e-19)
(0.825092 0.315541 -1.41352e-19)
(1.00902 0.401307 1.06544e-18)
(1.13708 0.459223 5.25826e-19)
(1.22172 0.493028 -1.21913e-19)
(1.27409 0.507671 4.10714e-19)
(1.30345 0.508499 -2.70251e-19)
(1.31688 0.500956 -7.52868e-20)
(1.32028 0.486799 4.93968e-19)
(0.240435 0.0975684 -3.54915e-19)
(0.587355 0.252731 4.51648e-19)
(0.836772 0.376931 -8.8861e-19)
(1.01185 0.464233 1.24792e-19)
(1.12966 0.51799 2.78862e-19)
(1.20468 0.544843 -4.27649e-19)
(1.24914 0.551725 -4.97909e-19)
(1.27272 0.545172 2.18555e-19)
(1.28252 0.531184 -2.63164e-19)
(1.28453 0.511755 3.1594e-19)
(0.246311 0.121013 -8.96745e-20)
(0.591872 0.301725 -4.59566e-19)
(0.833754 0.434707 2.54251e-19)
(0.999029 0.521159 4.26362e-19)
(1.10725 0.569097 -2.56401e-19)
(1.17428 0.588156 -1.91024e-19)
(1.21287 0.587119 -1.043e-19)
(1.23273 0.573484 -5.15622e-20)
(1.24077 0.553598 1.07857e-20)
(1.24291 0.52972 1.0751e-19)
(0.246759 0.143785 6.58183e-20)
(0.584617 0.347278 -3.85618e-19)
(0.81634 0.486098 6.43165e-19)
(0.971581 0.569494 -3.81068e-19)
(1.07145 0.610386 1.06476e-19)
(1.13247 0.621291 -1.51052e-19)
(1.16741 0.612602 1.62615e-19)
(1.18559 0.592496 3.11466e-20)
(1.19356 0.567431 -7.80161e-20)
(1.19711 0.540022 1.51527e-19)
(0.241593 0.164635 -1.73026e-19)
(0.565832 0.386974 3.38033e-19)
(0.785448 0.528508 -1.52033e-20)
(0.931025 0.60695 -7.32226e-20)
(1.02419 0.640034 -2.01308e-19)
(1.08145 0.642882 2.48051e-20)
(1.11501 0.627184 6.15347e-20)
(1.1335 0.601458 -1.51524e-19)
(1.14302 0.571983 1.76971e-19)
(1.1492 0.541879 1.50329e-19)
(0.230935 0.18231 3.84274e-20)
(0.536325 0.418562 -8.09275e-20)
(0.742531 0.559669 2.42472e-20)
(0.879239 0.631621 1.24425e-20)
(0.967553 0.656554 7.79771e-20)
(1.02334 0.651785 -1.44069e-19)
(1.05788 0.629967 -3.01354e-19)
(1.07891 0.599657 -1.22931e-19)
(1.09213 0.566623 -1.57125e-19)
(1.10255 0.534701 1.33129e-19)
(0.21523 0.195653 1.10788e-19)
(0.49743 0.44013 -1.71723e-19)
(0.689467 0.577805 1.65748e-19)
(0.818263 0.64211 -3.14835e-19)
(0.903421 0.658818 7.63856e-20)
(0.959695 0.646834 5.16204e-19)
(0.997278 0.619363 -1.58295e-19)
(1.02316 0.584703 1.88172e-19)
(1.04271 0.548005 2.7548e-19)
(1.05903 0.515028 1.00199e-18)
(0.195249 0.203726 6.80463e-19)
(0.450967 0.450296 -4.6302e-19)
(0.628513 0.581864 1.12683e-18)
(0.750268 0.637905 -1.92983e-19)
(0.833389 0.646759 9.66775e-19)
(0.891057 0.628052 6.06547e-19)
(0.93231 0.594737 -1.42498e-18)
(0.96357 0.553881 2.16352e-18)
(0.989456 0.507899 -4.57215e-19)
(1.00632 0.461007 8.99679e-19)
(0.17205 0.205874 -3.7536e-19)
(0.399204 0.448254 -2.67607e-19)
(0.562391 0.571529 2.58804e-19)
(0.677928 0.619482 -6.41013e-19)
(0.759661 0.622009 -2.00217e-18)
(0.818699 0.598991 -8.052e-19)
(0.862692 0.563188 -7.2575e-19)
(0.897113 0.521741 3.51222e-19)
(0.925117 0.478159 2.92726e-18)
(0.942605 0.437392 -6.08908e-19)
(0.146894 0.201721 1.97538e-19)
(0.344727 0.433649 -7.9943e-19)
(0.494241 0.546774 1.75834e-19)
(0.604666 0.587133 -1.28047e-18)
(0.686058 0.585016 2.80349e-18)
(0.747292 0.559929 -3.24925e-19)
(0.794583 0.52408 1.52765e-18)
(0.832423 0.484257 -2.18835e-18)
(0.863341 0.443962 6.86539e-19)
(0.884648 0.407477 1.06207e-19)
(0.121118 0.191156 1.45619e-19)
(0.290163 0.40655 8.81728e-19)
(0.427119 0.507894 -2.58996e-18)
(0.533587 0.541229 1.26029e-18)
(0.615632 0.535983 -4.1608e-21)
(0.679887 0.510616 -4.25287e-19)
(0.731204 0.47643 5.35227e-19)
(0.773236 0.439624 -5.31934e-19)
(0.808165 0.403351 -1.82851e-18)
(0.834247 0.370865 -5.01006e-19)
(0.0960486 0.174334 4.7648e-19)
(0.238033 0.367474 5.34622e-19)
(0.363854 0.455615 2.20822e-18)
(0.467419 0.482513 -1.22844e-18)
(0.550831 0.4755 2.53214e-18)
(0.618565 0.451352 -5.45426e-19)
(0.674213 0.420139 -5.76534e-19)
(0.720699 0.387299 6.81307e-19)
(0.759931 0.355515 4.44209e-19)
(0.790869 0.327125 1.6106e-18)
(0.0729448 0.15167 -4.8356e-19)
(0.190664 0.317377 1.57842e-19)
(0.306988 0.391112 4.26869e-20)
(0.408535 0.412151 1.25235e-18)
(0.493702 0.404589 -3.12607e-18)
(0.56499 0.382954 5.31053e-19)
(0.624864 0.355821 1.17263e-18)
(0.675617 0.327751 -1.41765e-18)
(0.718933 0.300911 4.9943e-19)
(0.754394 0.276898 -2.31788e-18)
(0.0529469 0.123826 1.03049e-19)
(0.150114 0.257626 5.5592e-19)
(0.258722 0.315974 2.16216e-19)
(0.358945 0.331692 2.93022e-19)
(0.445941 0.324635 5.61474e-19)
(0.520504 0.306609 1.67169e-18)
(0.584154 0.284488 -2.04677e-18)
(0.638655 0.261882 -1.1528e-18)
(0.685522 0.240441 1.91039e-19)
(0.724903 0.221195 1.50298e-18)
(0.0370318 0.0916908 -6.23151e-19)
(0.118111 0.189953 -7.41313e-20)
(0.220874 0.23216 -6.2098e-19)
(0.320288 0.243022 8.84368e-20)
(0.408909 0.237333 -5.31593e-19)
(0.486184 0.2238 -6.06909e-19)
(0.55289 0.207442 -9.0445e-19)
(0.610384 0.190868 2.43724e-18)
(0.660066 0.175233 4.20486e-19)
(0.702561 0.161149 -6.40956e-19)
(0.0259729 0.0563424 3.35846e-19)
(0.0960029 0.116392 4.43912e-19)
(0.194847 0.141927 1.74894e-19)
(0.293812 0.148292 -9.43903e-19)
(0.38364 0.144614 -4.39429e-19)
(0.462844 0.136227 -9.46239e-20)
(0.531693 0.126185 1.84898e-19)
(0.591264 0.116066 1.48464e-19)
(0.642892 0.106552 -1.14804e-18)
(0.687548 0.0979587 6.58767e-19)
(0.0203063 0.0190052 -1.74895e-19)
(0.084714 0.0392057 -1.98972e-19)
(0.181592 0.0477521 1.58584e-19)
(0.280362 0.0498478 1.40795e-19)
(0.370831 0.0485769 1.44295e-19)
(0.451036 0.0457362 2.20675e-19)
(0.520987 0.0423509 -1.16023e-20)
(0.581621 0.0389484 -2.89467e-19)
(0.634242 0.0357543 2.74962e-19)
(0.680003 0.0328653 -4.13692e-19)
(0.0203063 -0.0190052 -1.76045e-19)
(0.084714 -0.0392055 -1.89616e-19)
(0.181592 -0.0477519 1.74745e-19)
(0.280362 -0.0498476 3.42134e-19)
(0.370831 -0.0485767 2.27968e-19)
(0.451036 -0.045736 -3.00378e-19)
(0.520987 -0.0423507 -1.63223e-19)
(0.581621 -0.0389482 7.11806e-20)
(0.634242 -0.0357541 1.60032e-19)
(0.680003 -0.0328651 -9.52971e-20)
(0.0259729 -0.0563423 4.20122e-19)
(0.0960029 -0.116392 -5.3393e-19)
(0.194847 -0.141927 -4.44095e-20)
(0.293812 -0.148292 2.95834e-19)
(0.38364 -0.144613 -1.33752e-18)
(0.462844 -0.136226 5.71508e-19)
(0.531693 -0.126185 5.89959e-19)
(0.591264 -0.116066 -6.96474e-19)
(0.642892 -0.106552 6.65299e-19)
(0.687548 -0.0979586 -2.92006e-19)
(0.0370318 -0.0916908 -7.26359e-20)
(0.118111 -0.189953 -9.26705e-21)
(0.220874 -0.23216 -1.44218e-18)
(0.320288 -0.243022 -4.58787e-19)
(0.408909 -0.237333 -4.83721e-20)
(0.486184 -0.2238 -7.54746e-19)
(0.55289 -0.207442 1.40629e-18)
(0.610384 -0.190868 -4.94209e-20)
(0.660066 -0.175233 8.03022e-19)
(0.702561 -0.161149 -7.06084e-19)
(0.0529468 -0.123826 1.22673e-19)
(0.150114 -0.257626 -5.67947e-19)
(0.258722 -0.315974 1.74757e-18)
(0.358945 -0.331692 2.47299e-19)
(0.445941 -0.324635 1.21578e-18)
(0.520504 -0.306609 -1.18859e-18)
(0.584154 -0.284488 1.24778e-18)
(0.638655 -0.261882 -8.99613e-19)
(0.685522 -0.240441 -3.95066e-19)
(0.724903 -0.221195 3.35615e-19)
(0.0729448 -0.15167 1.09541e-18)
(0.190664 -0.317376 2.80494e-21)
(0.306988 -0.391111 -1.84178e-18)
(0.408535 -0.412151 -5.34359e-19)
(0.493702 -0.404588 1.77429e-18)
(0.56499 -0.382953 -1.03984e-18)
(0.624864 -0.35582 -1.2038e-18)
(0.675617 -0.327751 1.08311e-18)
(0.718933 -0.30091 -7.37382e-19)
(0.754394 -0.276898 -1.58974e-19)
(0.0960486 -0.174334 -1.63517e-19)
(0.238033 -0.367474 -7.75589e-21)
(0.363854 -0.455615 1.99878e-18)
(0.467419 -0.482513 1.14608e-18)
(0.550831 -0.4755 -1.3515e-18)
(0.618565 -0.451352 1.63638e-18)
(0.674213 -0.420139 -1.77566e-18)
(0.720699 -0.387299 1.76701e-19)
(0.759931 -0.355514 5.28879e-19)
(0.790869 -0.327125 1.22377e-18)
(0.121118 -0.191156 1.87439e-19)
(0.290163 -0.40655 3.01846e-19)
(0.427119 -0.507894 3.2834e-19)
(0.533587 -0.541229 -1.05558e-18)
(0.615632 -0.535982 -1.8803e-18)
(0.679887 -0.510616 3.95965e-19)
(0.731204 -0.476429 1.14585e-18)
(0.773235 -0.439624 -3.27996e-19)
(0.808165 -0.403351 1.9747e-18)
(0.834247 -0.370865 -1.92479e-18)
(0.146894 -0.201721 -1.06107e-18)
(0.344727 -0.433649 4.07728e-19)
(0.494241 -0.546774 -1.10093e-18)
(0.604666 -0.587133 1.77982e-18)
(0.686058 -0.585016 8.89982e-19)
(0.747292 -0.559929 1.25656e-18)
(0.794583 -0.52408 -2.90794e-19)
(0.832423 -0.484256 1.14574e-18)
(0.863341 -0.443962 -2.42575e-18)
(0.884648 -0.407477 -6.3241e-19)
(0.17205 -0.205874 6.24627e-20)
(0.399204 -0.448254 -7.12842e-19)
(0.562391 -0.571529 -1.14141e-18)
(0.677928 -0.619481 -4.83606e-19)
(0.759661 -0.622009 -1.36659e-18)
(0.818699 -0.598991 -1.38992e-19)
(0.862692 -0.563188 1.18832e-19)
(0.897113 -0.521741 -5.34019e-19)
(0.925116 -0.478159 -5.96799e-19)
(0.942605 -0.437392 1.57391e-18)
(0.195249 -0.203726 3.35419e-19)
(0.450967 -0.450295 4.68416e-19)
(0.628513 -0.581864 8.39155e-19)
(0.750268 -0.637905 3.72161e-20)
(0.833389 -0.646758 5.59893e-19)
(0.891057 -0.628052 -7.66692e-19)
(0.93231 -0.594737 2.34079e-18)
(0.96357 -0.55388 -1.0335e-18)
(0.989456 -0.507899 -5.07572e-19)
(1.00632 -0.461007 -1.53054e-18)
(0.21523 -0.195653 -1.32115e-19)
(0.49743 -0.44013 2.33404e-19)
(0.689467 -0.577805 -2.3918e-19)
(0.818263 -0.64211 1.28947e-19)
(0.903421 -0.658818 -1.52379e-19)
(0.959695 -0.646834 -3.90804e-19)
(0.997277 -0.619363 5.14082e-19)
(1.02316 -0.584703 -1.68154e-19)
(1.04271 -0.548005 2.60873e-19)
(1.05903 -0.515028 -5.69259e-19)
(0.230935 -0.18231 -7.39254e-21)
(0.536325 -0.418561 -1.0646e-19)
(0.742531 -0.559669 2.11705e-20)
(0.879239 -0.631621 1.44575e-19)
(0.967553 -0.656554 -6.5331e-20)
(1.02334 -0.651785 1.75395e-20)
(1.05788 -0.629967 -1.71897e-20)
(1.07891 -0.599657 -3.83368e-19)
(1.09213 -0.566623 -1.7796e-19)
(1.10255 -0.534701 -5.59992e-19)
(0.241593 -0.164635 -9.61283e-20)
(0.565832 -0.386974 3.39233e-19)
(0.785448 -0.528508 -2.10753e-19)
(0.931025 -0.60695 -7.59525e-20)
(1.02419 -0.640033 3.39102e-20)
(1.08145 -0.642882 7.15236e-20)
(1.11501 -0.627183 -7.0235e-21)
(1.1335 -0.601458 2.92465e-19)
(1.14302 -0.571983 -2.52726e-19)
(1.1492 -0.541879 -3.58072e-21)
(0.246759 -0.143785 -2.36704e-19)
(0.584617 -0.347278 -1.48238e-19)
(0.816339 -0.486098 -3.68095e-19)
(0.971581 -0.569494 4.18721e-19)
(1.07145 -0.610386 -3.07021e-20)
(1.13247 -0.621291 1.361e-19)
(1.16741 -0.612602 1.53589e-19)
(1.18559 -0.592496 -5.58716e-20)
(1.19356 -0.567431 5.05016e-20)
(1.19711 -0.540022 -1.59895e-19)
(0.246311 -0.121013 -1.61017e-19)
(0.591872 -0.301725 -2.06832e-19)
(0.833754 -0.434707 3.11655e-19)
(0.999029 -0.521159 -4.68254e-19)
(1.10725 -0.569097 8.22572e-20)
(1.17428 -0.588156 4.15734e-20)
(1.21287 -0.587119 9.19867e-20)
(1.23273 -0.573484 -6.04727e-20)
(1.24077 -0.553598 -7.24205e-20)
(1.24291 -0.52972 -2.35868e-19)
(0.240435 -0.0975684 6.71296e-19)
(0.587355 -0.252731 -5.25369e-19)
(0.836772 -0.376931 2.45462e-20)
(1.01185 -0.464233 -6.73195e-19)
(1.12966 -0.51799 -1.95426e-19)
(1.20468 -0.544843 1.56343e-19)
(1.24914 -0.551725 1.14543e-19)
(1.27272 -0.545172 -3.82061e-19)
(1.28252 -0.531184 1.67684e-19)
(1.28453 -0.511755 -3.02426e-19)
(0.229586 -0.0746121 3.33147e-19)
(0.571392 -0.202718 -3.29718e-19)
(0.825092 -0.315541 1.18316e-18)
(1.00902 -0.401307 9.4346e-20)
(1.13708 -0.459222 2.68322e-19)
(1.22172 -0.493027 9.5715e-19)
(1.27409 -0.507671 -1.98961e-19)
(1.30345 -0.508499 4.8314e-20)
(1.31688 -0.500956 -2.84388e-20)
(1.32028 -0.486799 -4.95284e-20)
(0.214444 -0.0531504 2.56805e-19)
(0.54485 -0.15397 5.83528e-19)
(0.799063 -0.253335 -5.94776e-19)
(0.990133 -0.335148 -1.80661e-19)
(1.12837 -0.395217 -1.91267e-19)
(1.22372 -0.434653 3.76543e-19)
(1.28574 -0.456425 -1.77682e-19)
(1.32289 -0.464538 4.18932e-19)
(1.34191 -0.463703 1.00804e-19)
(1.34841 -0.45542 -1.77284e-19)
(0.195856 -0.0339917 -2.77402e-19)
(0.509069 -0.10851 2.57423e-19)
(0.759689 -0.192986 -5.28491e-19)
(0.955467 -0.268575 2.21265e-19)
(1.10299 -0.328579 -2.21762e-19)
(1.20943 -0.371907 -2.63696e-19)
(1.28239 -0.399693 -2.04602e-19)
(1.3291 -0.414556 2.25738e-19)
(1.35567 -0.42033 -3.92358e-19)
(1.36714 -0.418232 2.48387e-19)
(0.174775 -0.017719 -1.03925e-19)
(0.465772 -0.0680015 -2.03935e-19)
(0.708578 -0.1369 9.59354e-20)
(0.906006 -0.204326 7.08308e-21)
(1.0611 -0.262007 7.6353e-20)
(1.17821 -0.307192 1.09396e-19)
(1.26274 -0.33945 9.31491e-20)
(1.32037 -0.360077 -1.2603e-19)
(1.35627 -0.371951 1.02736e-19)
(1.37464 -0.375986 -1.62285e-19)
(0.152191 -0.00468204 -6.54858e-20)
(0.416945 -0.0336823 -2.63952e-20)
(0.647853 -0.0871017 9.83494e-20)
(0.843431 -0.144924 -4.43696e-20)
(1.0036 -0.198186 1.2417e-19)
(1.13007 -0.243068 -1.56951e-19)
(1.22601 -0.277937 4.03216e-20)
(1.29535 -0.302934 3.46032e-20)
(1.34201 -0.31998 -1.23615e-20)
(1.36911 -0.329676 5.67347e-20)
(0.129071 0.00499455 -7.85609e-20)
(0.364701 -0.0063285 -3.33061e-19)
(0.580014 -0.0451371 -2.68242e-20)
(0.770037 -0.0925429 1.07068e-20)
(0.932158 -0.139656 -4.61989e-19)
(1.06583 -0.182158 4.87856e-20)
(1.17213 -0.217628 -5.16875e-20)
(1.25319 -0.245301 -1.40585e-19)
(1.3115 -0.266204 3.1107e-19)
(1.34885 -0.280637 -5.65932e-19)
(0.106293 0.0113861 -4.45384e-20)
(0.31114 0.0137428 7.14364e-19)
(0.507779 -0.0120121 9.52791e-20)
(0.688607 -0.0488895 -6.4531e-19)
(0.849158 -0.0886661 -7.72719e-20)
(0.987142 -0.127018 -7.27703e-19)
(1.10185 -0.161148 5.65836e-19)
(1.19374 -0.189675 -2.29657e-19)
(1.26384 -0.212846 4.35299e-19)
(1.31249 -0.230666 -3.84019e-19)
(0.0846109 0.0147325 -2.51896e-19)
(0.258228 0.0266432 2.93297e-19)
(0.433899 0.0118354 -2.04869e-19)
(0.602223 -0.0151009 1.41611e-18)
(0.757549 -0.0470193 7.49595e-19)
(0.896411 -0.0799695 -1.96286e-19)
(1.01678 -0.111131 7.63242e-19)
(1.11772 -0.138798 -4.99035e-19)
(1.19888 -0.162564 -1.60482e-19)
(1.25919 -0.182097 1.15951e-18)
(0.0646184 0.0153976 -4.65667e-19)
(0.207682 0.0328632 6.95267e-19)
(0.360982 0.0265372 -1.31852e-18)
(0.514052 0.00833838 2.28232e-19)
(0.660652 -0.0159068 5.69049e-19)
(0.7967 -0.0428757 -7.15099e-19)
(0.919359 -0.0699942 -1.26652e-18)
(1.02673 -0.0954716 6.78963e-19)
(1.11735 -0.118343 -8.83003e-19)
(1.18885 -0.137793 1.41309e-18)
(0.0467452 0.0138316 -1.15116e-19)
(0.16091 0.0332168 -6.99806e-19)
(0.291339 0.03278 3.45453e-19)
(0.427113 0.0216646 8.64153e-19)
(0.561883 0.0042616 -4.64181e-19)
(0.69144 -0.0168804 -4.58078e-19)
(0.812662 -0.0396129 -7.76649e-19)
(0.923199 -0.0622302 -3.55878e-19)
(1.02086 -0.0832293 -8.54666e-20)
(1.10226 -0.100992 1.41221e-18)
(0.0312702 0.0105458 1.93283e-19)
(0.118976 0.0287937 -9.50654e-19)
(0.226869 0.0317843 1.62604e-18)
(0.344063 0.0258913 -9.05441e-19)
(0.464446 0.0140393 5.86634e-19)
(0.58406 -0.00207623 -7.29949e-19)
(0.699967 -0.0208542 8.12987e-19)
(0.809928 -0.0407967 7.10029e-19)
(0.911576 -0.0598092 1.55133e-18)
(1.0009 -0.0748783 -2.5647e-18)
(0.018352 0.00610195 -6.0058e-19)
(0.0826126 0.0209186 1.20598e-18)
(0.169007 0.0252637 1.60937e-20)
(0.267054 0.022831 -4.34378e-19)
(0.371087 0.0151007 -2.30674e-19)
(0.477614 0.00286571 1.84367e-19)
(0.584238 -0.0129432 -1.30891e-18)
(0.689404 -0.0312139 1.01127e-18)
(0.791332 -0.0492641 -1.30333e-18)
(0.88604 -0.0617494 -5.94915e-19)
(0.00806022 0.00110795 1.03348e-18)
(0.0522601 0.0110931 -3.22397e-19)
(0.118756 0.0153295 -6.04769e-19)
(0.197748 0.0150188 1.64253e-18)
(0.284048 0.0102794 -1.61348e-18)
(0.374603 0.0009719 9.01469e-19)
(0.467605 -0.0128152 9.60104e-19)
(0.562487 -0.0307702 2.62726e-19)
(0.658901 -0.0501771 2.73251e-19)
(0.754557 -0.0623402 -3.87625e-19)
(0.000388695 -0.00380851 -9.88388e-19)
(0.028118 0.000874444 9.39448e-19)
(0.0768094 0.00427288 -8.31376e-19)
(0.137563 0.00546146 1.04308e-18)
(0.205553 0.00344246 -3.11634e-19)
(0.27782 -0.0027078 -1.0823e-18)
(0.352527 -0.0137258 3.10375e-19)
(0.429273 -0.0305531 -5.12091e-19)
(0.509035 -0.0524533 -6.06527e-19)
(0.59417 -0.0694537 -1.8922e-18)
(-0.00477045 -0.00808576 -1.23468e-18)
(0.0101469 -0.00838449 9.81593e-19)
(0.0436436 -0.00593783 -1.92324e-18)
(0.087996 -0.00320907 3.43908e-19)
(0.13875 -0.00175685 -1.33239e-18)
(0.192804 -0.00254286 -7.99101e-19)
(0.247586 -0.00588939 1.91234e-18)
(0.30116 -0.0120152 -2.61444e-18)
(0.352881 -0.0215152 5.03226e-19)
(0.400028 -0.0302479 -8.28665e-19)
(-0.00768223 -0.0113475 6.08185e-19)
(-0.00204464 -0.015839 2.5733e-19)
(0.0192554 -0.0143225 -7.65392e-20)
(0.0500646 -0.0103001 7.30848e-19)
(0.0867019 -0.00565927 2.14608e-18)
(0.126594 -0.00136003 7.40704e-19)
(0.167733 0.00240717 7.6535e-19)
(0.20892 0.00569234 -2.6464e-19)
(0.250232 0.00783859 -2.46852e-18)
(0.289114 0.00926223 6.26043e-19)
(-0.00878373 -0.0134241 -1.71697e-19)
(-0.00932802 -0.0210859 5.46476e-19)
(0.00264612 -0.0205022 -1.43158e-19)
(0.0227356 -0.0158174 1.0108e-18)
(0.0481733 -0.00920557 -2.33706e-18)
(0.077014 -0.00182622 1.9837e-19)
(0.107829 0.00579402 -1.11226e-18)
(0.139842 0.0132484 1.63666e-18)
(0.172876 0.0195727 -4.78386e-19)
(0.204272 0.0240793 -6.83588e-20)
(-0.00858781 -0.014304 -1.16885e-19)
(-0.0128317 -0.0240055 -6.57201e-19)
(-0.0077133 -0.0243086 1.65281e-18)
(0.00407934 -0.0196268 -8.71451e-19)
(0.0206596 -0.0123268 6.12486e-20)
(0.0406176 -0.00378465 2.79663e-19)
(0.062914 0.00513211 -2.55579e-19)
(0.0869289 0.0136319 3.3216e-19)
(0.112249 0.0206142 1.15098e-18)
(0.136673 0.0252823 3.01187e-19)
(-0.00758375 -0.0140743 -2.62165e-19)
(-0.0136957 -0.0246648 -2.916e-19)
(-0.0134291 -0.0257004 -1.29432e-18)
(-0.00792068 -0.0215113 6.8918e-19)
(0.00173562 -0.014492 -1.4215e-18)
(0.0145786 -0.00611538 3.22936e-19)
(0.0298494 0.00258972 3.63118e-19)
(0.0470085 0.0107141 -3.83741e-19)
(0.0655392 0.0172485 -2.48273e-19)
(0.0837988 0.0214698 -1.1158e-18)
(-0.00618705 -0.0128748 2.04799e-19)
(-0.0129399 -0.0232572 -4.81728e-20)
(-0.0159822 -0.0247662 9.78712e-22)
(-0.0151343 -0.0213425 -6.21999e-19)
(-0.0108146 -0.0152249 1.57457e-18)
(-0.00361583 -0.00783518 -2.45594e-19)
(0.00591817 -0.00019617 -6.12888e-19)
(0.0173137 0.00683867 7.50147e-19)
(0.0300353 0.0124521 -2.63615e-19)
(0.0429232 0.0160463 1.45709e-18)
(-0.00472403 -0.010868 -3.84396e-20)
(-0.0114033 -0.0200601 -2.25369e-19)
(-0.0166177 -0.0217187 -8.89468e-20)
(-0.0191361 -0.0191489 -1.13633e-19)
(-0.018832 -0.0142672 -2.44309e-19)
(-0.0160035 -0.00831128 -7.67218e-19)
(-0.0110227 -0.00217592 9.59695e-19)
(-0.00429649 0.00342984 5.60608e-19)
(0.00366279 0.00789625 -1.00427e-19)
(0.0120631 0.0107642 -8.93747e-19)
(-0.00343575 -0.00822485 2.18286e-19)
(-0.00972807 -0.0154094 3.81456e-20)
(-0.0163014 -0.0168859 2.58201e-19)
(-0.0211436 -0.0151399 -2.95521e-20)
(-0.0237175 -0.0116329 2.35111e-19)
(-0.0240981 -0.00731651 2.6526e-19)
(-0.0225237 -0.00287652 3.97677e-19)
(-0.0193384 0.00116424 -1.12655e-18)
(-0.0150202 0.00438899 -2.07926e-19)
(-0.010103 0.00647414 3.72646e-19)
(-0.00248969 -0.00512129 -1.10222e-19)
(-0.00837066 -0.00968538 -1.5666e-19)
(-0.0157252 -0.0106973 -7.53634e-20)
(-0.022025 -0.00969711 3.68611e-19)
(-0.0264593 -0.00759784 1.78925e-19)
(-0.0289517 -0.00499632 3.66935e-20)
(-0.0296475 -0.0023209 -7.95545e-20)
(-0.0288424 0.000110147 -6.17123e-20)
(-0.0269847 0.00205509 5.29714e-19)
(-0.0244467 0.00332147 -3.60775e-19)
(-0.00199122 -0.00173834 5.619e-20)
(-0.00762156 -0.00330249 6.99164e-20)
(-0.0153301 -0.00366172 -5.9617e-20)
(-0.0223324 -0.00333736 -5.4529e-20)
(-0.0276804 -0.00263968 -5.65384e-20)
(-0.0312214 -0.00177181 -9.02158e-20)
(-0.0330527 -0.000879143 2.89768e-21)
(-0.0334436 -6.83787e-05 1.25174e-19)
(-0.0328262 0.000581359 -1.25683e-19)
(-0.0314952 0.00100619 2.28671e-19)
(-0.00813512 -0.00258498 1.65343e-20)
(0.0621228 -0.00662687 9.88735e-21)
(0.277545 -0.00671176 1.33755e-21)
(0.376956 -0.00439094 -9.02395e-22)
(0.479666 -0.00368297 -6.35436e-23)
(0.553548 -0.00263746 1.48041e-22)
(0.606042 -0.00218118 1.66313e-22)
(0.660337 -0.00157503 -3.39945e-23)
(0.683571 -0.00146119 -2.49005e-24)
(0.733796 -0.00101112 2.43881e-22)
(0.00866443 -0.00805983 2.62204e-20)
(0.077377 -0.0197189 1.25331e-21)
(0.289036 -0.0199779 -1.748e-20)
(0.385712 -0.0130662 1.40442e-20)
(0.486374 -0.0109696 8.87129e-22)
(0.558782 -0.00786184 -5.94036e-22)
(0.610313 -0.00650948 6.88648e-22)
(0.663697 -0.00470785 6.96764e-23)
(0.686503 -0.00436441 1.40116e-22)
(0.736019 -0.00301695 -2.23495e-22)
(0.041969 -0.014415 2.68568e-20)
(0.107412 -0.03233 -3.61025e-20)
(0.31159 -0.032785 1.7869e-20)
(0.402913 -0.0214408 -1.16344e-20)
(0.499556 -0.0180289 8.28201e-22)
(0.569085 -0.0129347 -6.45403e-22)
(0.618729 -0.0107228 -2.56773e-22)
(0.670329 -0.00776102 8.24178e-25)
(0.692301 -0.0072018 -1.07307e-22)
(0.740424 -0.00498321 -3.26276e-22)
(0.0911767 -0.0221287 -4.16266e-20)
(0.151304 -0.0441608 -5.01135e-20)
(0.344376 -0.0448481 -2.31229e-20)
(0.427952 -0.029331 1.21276e-20)
(0.518762 -0.0247212 -1.45357e-20)
(0.584132 -0.0177627 3.8441e-21)
(0.631048 -0.0147495 -2.08826e-22)
(0.680063 -0.0106847 1.20781e-22)
(0.700831 -0.00993178 -1.28978e-22)
(0.74693 -0.00688458 1.21096e-22)
(0.155357 -0.0314738 1.15128e-19)
(0.207728 -0.0549238 7.22385e-20)
(0.386208 -0.0559034 2.59799e-20)
(0.459961 -0.0365748 -2.35674e-20)
(0.543345 -0.0309224 1.19316e-20)
(0.603457 -0.022263 3.16e-21)
(0.646919 -0.0185255 2.20888e-21)
(0.692652 -0.013434 2.39175e-22)
(0.711901 -0.0125161 2.86626e-22)
(0.755417 -0.0086973 -6.42524e-22)
(0.233227 -0.0423776 -5.08263e-20)
(0.275007 -0.0643039 3.90006e-20)
(0.435604 -0.0656978 4.82046e-21)
(0.49786 -0.0430288 2.62831e-20)
(0.572503 -0.0365258 -5.94614e-21)
(0.62648 -0.0263651 -3.68263e-21)
(0.665902 -0.0219954 -2.28171e-21)
(0.707786 -0.0159701 -1.47415e-22)
(0.725268 -0.0149209 -1.55564e-22)
(0.765733 -0.0103998 6.89334e-22)
(0.323161 -0.0545601 -3.86776e-20)
(0.35117 -0.0720365 -1.00779e-19)
(0.490868 -0.0740281 -1.70467e-20)
(0.540412 -0.0485771 -1.46383e-20)
(0.605321 -0.0414486 6.9716e-21)
(0.652536 -0.0300137 -1.94174e-21)
(0.687491 -0.0251152 2.45471e-21)
(0.725103 -0.0182612 4.49381e-22)
(0.740647 -0.0171181 -4.65794e-23)