1.45 	0 	0 	-0.291901
2.35 	0 	0 	-0.127227
