1.45 	0 	0 	-0.00340127 	-0.00292976 	3.96423e-21
2.35 	0 	0 	0.0770224 	-0.00714559 	2.39864e-21
