1.275 	2.15223e-18 	-2.76991e-20 	0.0163347 	-0.0044986 	-1.83844e-22
1.825 	2.15223e-18 	-1.39322e-20 	0.201932 	-0.00865856 	7.02789e-22
2.375 	2.15223e-18 	-2.66896e-23 	0.48953 	-0.00817479 	-2.06443e-22
