1.45 	0 	0 	-0.00811086 	-0.00257029 	3.78477e-21
2.35 	0 	0 	0.0613651 	-0.00663185 	2.28854e-21
