/*--------------------------------*- C++ -*----------------------------------*\
  =========                 |
  \\      /  F ield         | OpenFOAM: The Open Source CFD Toolbox
   \\    /   O peration     | Website:  https://openfoam.org
    \\  /    A nd           | Version:  6.0
     \\/     M anipulation  |
\*---------------------------------------------------------------------------*/
FoamFile
{
    version     2.0;
    format      ascii;
    class       volScalarField;
    location    "350";
    object      nuTilda;
}
// * * * * * * * * * * * * * * * * * * * * * * * * * * * * * * * * * * * * * //

dimensions      [0 2 -1 0 0 0 0];

internalField   nonuniform List<scalar> 
9800
(
0.14
0.139976
0.139995
0.139997
0.14
0.140002
0.140005
0.140007
0.140009
0.140011
0.140013
0.140014
0.140016
0.140018
0.14002
0.140022
0.140026
0.140029
0.140029
0.140026
0.140025
0.140021
0.14001
0.140009
0.140022
0.140025
0.140027
0.140029
0.14003
0.140027
0.140023
0.140021
0.140019
0.140017
0.140016
0.140014
0.140012
0.14001
0.140008
0.140005
0.140003
0.139999
0.139996
0.139986
0.139973
0.139966
0.139975
0.139986
0.139994
0.14
0.140006
0.140012
0.140019
0.140026
0.140035
0.140046
0.140058
0.140074
0.140093
0.140116
0.140145
0.140181
0.140227
0.140287
0.140366
0.140474
0.140622
0.140853
0.141158
0.14191
0.142773
0.144129
0.144619
0.145353
0.145643
0.145888
0.146054
0.146168
0.14623
0.14625
0.14624
0.146213
0.146183
0.146162
0.146158
0.146174
0.146207
0.146251
0.146296
0.146331
0.146346
0.146331
0.146284
0.146197
0.146098
0.146023
0.145995
0.145972
0.146334
0.184826
0.140086
0.140073
0.140071
0.140065
0.14006
0.140057
0.140054
0.140052
0.14005
0.140049
0.140048
0.140049
0.14005
0.140049
0.140046
0.14004
0.140026
0.140004
0.140011
0.140038
0.140045
0.140043
0.140022
0.14002
0.140043
0.140047
0.140041
0.140017
0.140007
0.140027
0.140041
0.140047
0.140048
0.140048
0.140048
0.140048
0.140049
0.14005
0.140052
0.140053
0.140054
0.140056
0.140057
0.140055
0.140049
0.140044
0.140047
0.14006
0.140077
0.140096
0.140116
0.140137
0.140159
0.140183
0.140209
0.140239
0.140272
0.140311
0.140354
0.140405
0.140464
0.140533
0.140613
0.140709
0.140823
0.140961
0.141127
0.141336
0.14158
0.141936
0.142318
0.142586
0.142735
0.14284
0.142922
0.142999
0.143071
0.143133
0.143182
0.143221
0.143252
0.14328
0.14331
0.143344
0.143384
0.143431
0.143465
0.143534
0.143622
0.143726
0.143845
0.143977
0.144121
0.144274
0.144432
0.14459
0.144744
0.144887
0.14499
0.145653
0.140132
0.14012
0.140108
0.140099
0.140092
0.140085
0.140079
0.140072
0.140066
0.14006
0.140052
0.140039
0.140019
0.140007
0.139998
0.139989
0.139983
0.139996
0.140018
0.14005
0.140064
0.14006
0.140033
0.140029
0.140059
0.140064
0.140051
0.14002
0.139991
0.13998
0.139992
0.140006
0.140024
0.140042
0.140054
0.140061
0.140067
0.140071
0.140075
0.140079
0.140081
0.140083
0.140086
0.140088
0.140088
0.140086
0.140086
0.14009
0.140099
0.140113
0.140131
0.140151
0.140172
0.140195
0.14022
0.140246
0.140274
0.140305
0.140338
0.140373
0.140412
0.140455
0.140501
0.140547
0.140587
0.140652
0.140734
0.140832
0.140945
0.141075
0.141221
0.141379
0.141545
0.141723
0.141912
0.142107
0.142304
0.142499
0.142693
0.142883
0.143068
0.143248
0.143423
0.143592
0.143754
0.143906
0.144049
0.144182
0.144306
0.14442
0.144525
0.144619
0.144705
0.144781
0.144849
0.14491
0.144965
0.145014
0.145064
0.145128
0.14014
0.140123
0.140102
0.140082
0.14006
0.140036
0.140023
0.140017
0.140012
0.140005
0.139995
0.139983
0.139975
0.139982
0.139982
0.13998
0.139987
0.140011
0.140042
0.140072
0.140085
0.140077
0.140045
0.140036
0.14007
0.140081
0.140068
0.140037
0.140001
0.139977
0.139965
0.139956
0.139965
0.139981
0.139996
0.140006
0.140013
0.140017
0.140022
0.140035
0.140051
0.140064
0.140075
0.140084
0.14009
0.140095
0.140098
0.140101
0.140106
0.140114
0.140125
0.140139
0.140156
0.140175
0.140196
0.140219
0.140244
0.140269
0.140297
0.140325
0.140355
0.140387
0.14042
0.140454
0.140486
0.14052
0.140556
0.140596
0.140638
0.140682
0.140728
0.140778
0.140836
0.140901
0.140971
0.141042
0.141113
0.141184
0.141252
0.141317
0.141376
0.141428
0.141471
0.141508
0.141539
0.141566
0.141589
0.14161
0.141629
0.141648
0.141668
0.14169
0.141714
0.141741
0.141771
0.141804
0.14184
0.14188
0.141918
0.141971
0.140133
0.140111
0.140084
0.140059
0.140033
0.140009
0.139988
0.139967
0.139945
0.139929
0.139919
0.139913
0.139914
0.139925
0.139938
0.139967
0.139996
0.140029
0.140063
0.140092
0.140103
0.140089
0.14005
0.140026
0.140073
0.140091
0.14008
0.14005
0.140009
0.139957
0.139918
0.139896
0.139894
0.139904
0.139919
0.139947
0.139973
0.13999
0.140003
0.140016
0.140031
0.140047
0.140062
0.140076
0.140088
0.140099
0.140108
0.140116
0.140123
0.14013
0.140138
0.140149
0.140161
0.140176
0.140193
0.140211
0.140231
0.140253
0.140276
0.140301
0.140326
0.140352
0.140379
0.140406
0.140434
0.140461
0.140487
0.140512
0.140536
0.140558
0.14058
0.140601
0.140623
0.140647
0.140673
0.140701
0.140732
0.140766
0.140801
0.140838
0.140874
0.14091
0.140945
0.140978
0.14101
0.141042
0.141073
0.141105
0.141137
0.141169
0.141201
0.141234
0.141268
0.141302
0.141336
0.141371
0.141407
0.141443
0.141477
0.141509
0.140095
0.140068
0.140033
0.139998
0.139961
0.139924
0.139892
0.13987
0.139852
0.139839
0.139832
0.139831
0.139839
0.139858
0.139893
0.139953
0.140004
0.140046
0.140082
0.140108
0.140113
0.140091
0.14004
0.139993
0.140062
0.140092
0.140088
0.140059
0.140011
0.139936
0.139868
0.13983
0.139816
0.139817
0.139829
0.139851
0.139883
0.139921
0.139955
0.139981
0.140004
0.140025
0.140043
0.14006
0.140075
0.140089
0.140101
0.140112
0.140122
0.140131
0.14014
0.140148
0.140158
0.140168
0.14018
0.140193
0.140208
0.140224
0.140241
0.14026
0.140279
0.1403
0.140321
0.140342
0.140365
0.140387
0.140409
0.140432
0.140453
0.140474
0.140495
0.140516
0.140536
0.140556
0.140577
0.140598
0.140621
0.140646
0.140672
0.1407
0.14073
0.140761
0.140793
0.140825
0.140857
0.14089
0.140923
0.140957
0.14099
0.141024
0.141058
0.141092
0.141126
0.14116
0.141194
0.141228
0.141262
0.141296
0.141329
0.141351
0.139939
0.139909
0.139875
0.139842
0.139812
0.139785
0.139764
0.139751
0.139741
0.139737
0.139741
0.139756
0.139791
0.139845
0.139905
0.139969
0.140024
0.140068
0.140103
0.140122
0.140118
0.140083
0.140015
0.139958
0.140039
0.140084
0.140091
0.140068
0.140022
0.139949
0.139869
0.139789
0.139744
0.139726
0.139725
0.139734
0.139754
0.139784
0.139816
0.139847
0.139875
0.1399
0.139923
0.13995
0.139979
0.140007
0.140032
0.140055
0.140075
0.140092
0.140108
0.140121
0.140132
0.140143
0.140154
0.140164
0.140175
0.140187
0.1402
0.140214
0.140228
0.140244
0.140261
0.140278
0.140296
0.140315
0.140334
0.140354
0.140374
0.140395
0.140415
0.140436
0.140457
0.140479
0.1405
0.140522
0.140544
0.140566
0.14059
0.140614
0.140638
0.140664
0.140691
0.140718
0.140745
0.140773
0.140801
0.140829
0.140857
0.140885
0.140912
0.14094
0.140968
0.140996
0.141023
0.141051
0.141078
0.141106
0.141133
0.141146
0.139738
0.139712
0.139688
0.139668
0.139652
0.13964
0.139634
0.139634
0.139642
0.139662
0.1397
0.139751
0.139812
0.139878
0.139943
0.140003
0.140054
0.140094
0.140121
0.140129
0.140111
0.140056
0.139962
0.139916
0.140005
0.140066
0.140087
0.140075
0.140037
0.139976
0.139898
0.139807
0.13972
0.13966
0.139629
0.139617
0.139619
0.139631
0.139649
0.139672
0.139696
0.13972
0.139744
0.139768
0.139794
0.139819
0.139845
0.139872
0.139903
0.139936
0.139969
0.14
0.140028
0.140054
0.140077
0.140097
0.140116
0.140132
0.140147
0.140161
0.140175
0.140189
0.140202
0.140216
0.140231
0.140246
0.140261
0.140278
0.140295
0.140312
0.14033
0.140348
0.140367
0.140387
0.140406
0.140427
0.140447
0.140468
0.140489
0.14051
0.140531
0.140553
0.140575
0.140597
0.140619
0.140641
0.140664
0.140686
0.140708
0.140731
0.140753
0.140775
0.140797
0.140818
0.14084
0.140862
0.140884
0.140906
0.140928
0.140936
0.139537
0.139516
0.139507
0.139502
0.139503
0.139511
0.139527
0.139555
0.139597
0.139657
0.139732
0.139798
0.139865
0.139929
0.139989
0.140041
0.140084
0.140115
0.14013
0.140123
0.140084
0.140004
0.139884
0.139858
0.139955
0.140032
0.14007
0.140073
0.140049
0.140001
0.139935
0.13985
0.139753
0.139655
0.139577
0.139528
0.1395
0.139488
0.139488
0.139494
0.139506
0.13952
0.139537
0.139555
0.139575
0.139595
0.139616
0.139638
0.139661
0.139686
0.139713
0.139741
0.13977
0.139799
0.139827
0.139855
0.139886
0.139919
0.139953
0.139986
0.140018
0.140047
0.140074
0.140099
0.140122
0.140143
0.140162
0.14018
0.140198
0.140216
0.140233
0.140249
0.140266
0.140283
0.1403
0.140318
0.140335
0.140352
0.14037
0.140387
0.140405
0.140422
0.14044
0.140457
0.140474
0.140492
0.140509
0.140526
0.140544
0.140561
0.140578
0.140596
0.140613
0.140631
0.140648
0.140666
0.140684
0.140702
0.14072
0.140723
0.139388
0.139361
0.139376
0.139401
0.139436
0.139483
0.139538
0.1396
0.139667
0.139738
0.139811
0.139874
0.139934
0.13999
0.140039
0.140081
0.140112
0.140129
0.140127
0.140098
0.140035
0.139931
0.139799
0.139778
0.139869
0.139971
0.140032
0.140056
0.140049
0.140019
0.139969
0.1399
0.139815
0.139718
0.139617
0.139521
0.139444
0.13939
0.139356
0.139336
0.139328
0.139326
0.13933
0.139338
0.139348
0.139361
0.139374
0.139388
0.139402
0.139418
0.139434
0.139453
0.139473
0.139495
0.139518
0.139541
0.139566
0.139593
0.139621
0.13965
0.139679
0.139708
0.139735
0.139763
0.139795
0.139832
0.139871
0.13991
0.139947
0.139981
0.140011
0.140039
0.140065
0.140088
0.140109
0.140129
0.140147
0.140165
0.140182
0.140198
0.140213
0.140228
0.140242
0.140257
0.140271
0.140284
0.140298
0.140312
0.140325
0.140339
0.140353
0.140366
0.140379
0.140393
0.140406
0.140419
0.140432
0.140445
0.140457
0.14045
0.13927
0.139267
0.139322
0.13939
0.139465
0.139541
0.139616
0.139688
0.139758
0.139825
0.13989
0.139946
0.139997
0.140042
0.14008
0.140108
0.140123
0.140121
0.140095
0.14004
0.139949
0.139822
0.139693
0.139669
0.139741
0.139876
0.139969
0.140019
0.140036
0.140026
0.139995
0.139945
0.13988
0.139801
0.139711
0.139613
0.139514
0.139419
0.139333
0.139262
0.13921
0.139174
0.13915
0.139137
0.139131
0.139129
0.139131
0.139135
0.13914
0.139146
0.139152
0.13916
0.139169
0.139179
0.139189
0.139201
0.139215
0.139229
0.139245
0.139262
0.13928
0.139298
0.139315
0.139333
0.139352
0.139372
0.139394
0.139416
0.139438
0.13946
0.139484
0.139514
0.139549
0.139586
0.139622
0.139656
0.139688
0.139718
0.139745
0.13977
0.139793
0.139814
0.139834
0.139852
0.13987
0.139887
0.139903
0.139919
0.139934
0.139949
0.139963
0.139978
0.139991
0.140004
0.140017
0.140029
0.14004
0.14005
0.140059
0.140039
0.139337
0.139379
0.139449
0.139524
0.139599
0.139672
0.139741
0.139806
0.139868
0.139925
0.139979
0.140025
0.140064
0.140096
0.140119
0.140129
0.140124
0.140098
0.140046
0.139962
0.139841
0.139687
0.13956
0.139526
0.139583
0.139715
0.139842
0.139927
0.139974
0.13999
0.139983
0.139955
0.139909
0.139849
0.139776
0.139691
0.139595
0.139491
0.139381
0.13927
0.139166
0.139076
0.139004
0.138951
0.138913
0.138887
0.138869
0.138856
0.138848
0.138842
0.138838
0.138836
0.138834
0.138833
0.138832
0.138833
0.138834
0.138835
0.138837
0.138839
0.138842
0.138846
0.13885
0.138854
0.138858
0.138862
0.138866
0.138871
0.138875
0.138879
0.138883
0.138888
0.138894
0.138902
0.13891
0.138921
0.138935
0.138957
0.138984
0.139012
0.139042
0.139071
0.139099
0.139126
0.139152
0.139176
0.139199
0.13922
0.139239
0.139258
0.139275
0.13929
0.139304
0.139317
0.139327
0.139337
0.139344
0.13935
0.139352
0.139311
0.139289
0.139321
0.139406
0.139503
0.139596
0.13968
0.139754
0.139821
0.139881
0.139934
0.139986
0.140024
0.140052
0.14007
0.140074
0.140061
0.140027
0.139966
0.139872
0.139739
0.139577
0.139438
0.139353
0.139339
0.139405
0.139551
0.139708
0.139829
0.139908
0.139953
0.139969
0.139961
0.139936
0.139894
0.139839
0.139773
0.139694
0.139604
0.139503
0.139392
0.139274
0.139153
0.139035
0.138923
0.138823
0.138738
0.138669
0.138617
0.138576
0.138544
0.138519
0.138499
0.138481
0.138466
0.138453
0.138441
0.13843
0.13842
0.13841
0.138399
0.138389
0.138379
0.13837
0.13836
0.13835
0.13834
0.138328
0.138317
0.138306
0.138295
0.138283
0.138272
0.13826
0.138249
0.138237
0.138225
0.138214
0.138204
0.138195
0.138187
0.13818
0.138174
0.138172
0.138178
0.138191
0.138209
0.13823
0.138252
0.138274
0.138295
0.138316
0.138334
0.13835
0.138364
0.138377
0.138387
0.138395
0.138401
0.138403
0.138359
0.139519
0.139576
0.139651
0.139729
0.139803
0.13987
0.13993
0.139984
0.140031
0.140071
0.140104
0.140124
0.140132
0.140125
0.140102
0.140058
0.139989
0.139893
0.139765
0.139606
0.139425
0.139245
0.139119
0.139072
0.139095
0.139174
0.13928
0.139393
0.139509
0.13961
0.139683
0.139716
0.139719
0.139696
0.13965
0.139585
0.139501
0.139401
0.139289
0.13917
0.139048
0.138925
0.138803
0.138685
0.138572
0.138468
0.138376
0.138295
0.138227
0.138168
0.13812
0.138078
0.138042
0.138011
0.137983
0.137957
0.137935
0.137913
0.137892
0.137871
0.137851
0.13783
0.13781
0.13779
0.13777
0.13775
0.13773
0.137709
0.137689
0.137667
0.137646
0.137624
0.137602
0.137581
0.137558
0.137536
0.137512
0.137488
0.137464
0.137439
0.137413
0.137387
0.13736
0.137334
0.137308
0.137282
0.137257
0.137235
0.137216
0.137203
0.137194
0.137189
0.137184
0.137179
0.137173
0.137167
0.137159
0.137149
0.137137
0.137084
0.139183
0.139192
0.139237
0.139289
0.139338
0.139383
0.139421
0.139452
0.139476
0.139493
0.1395
0.139497
0.139481
0.13945
0.139404
0.139341
0.139259
0.139159
0.139044
0.138919
0.138796
0.138693
0.138634
0.138635
0.138701
0.138842
0.139009
0.139165
0.139306
0.139427
0.139523
0.139588
0.139624
0.139634
0.139619
0.139583
0.139528
0.139456
0.139371
0.139278
0.139177
0.139072
0.138963
0.138852
0.138741
0.138629
0.138519
0.138411
0.138305
0.138203
0.138104
0.138008
0.137917
0.137831
0.137753
0.137681
0.137616
0.137557
0.137502
0.137451
0.137403
0.137357
0.137313
0.13727
0.137229
0.137188
0.137149
0.13711
0.137072
0.137034
0.136996
0.136957
0.136919
0.136881
0.136842
0.136803
0.136763
0.136723
0.136682
0.136643
0.136602
0.136562
0.136521
0.136479
0.136437
0.136394
0.136349
0.136305
0.136259
0.136214
0.136168
0.136122
0.136078
0.136041
0.136013
0.135992
0.135977
0.135965
0.135954
0.135899
0.139336
0.139336
0.139348
0.139364
0.139379
0.139391
0.139397
0.139397
0.13939
0.139375
0.139351
0.139317
0.139271
0.139212
0.139141
0.139058
0.138964
0.138859
0.138748
0.138633
0.138517
0.138403
0.138294
0.138188
0.138095
0.138076
0.138111
0.138174
0.138248
0.138322
0.138392
0.138451
0.138496
0.138525
0.138538
0.138537
0.13852
0.13849
0.138447
0.138395
0.138334
0.138266
0.138192
0.138113
0.13803
0.137943
0.137854
0.137763
0.13767
0.137575
0.13748
0.137384
0.137289
0.137194
0.137101
0.137011
0.136923
0.136838
0.136757
0.136679
0.136604
0.136531
0.136462
0.136396
0.136333
0.136271
0.136212
0.136155
0.136099
0.136046
0.135994
0.135943
0.135893
0.135845
0.135797
0.135748
0.135701
0.135653
0.135605
0.135556
0.135508
0.135458
0.135408
0.135358
0.135306
0.135252
0.135198
0.135142
0.135085
0.135027
0.134967
0.134906
0.134843
0.134777
0.134709
0.13464
0.134569
0.134495
0.13442
0.134348
0.138631
0.138748
0.138804
0.138811
0.138795
0.13877
0.138741
0.13871
0.138674
0.138625
0.138561
0.138499
0.138435
0.138368
0.1383
0.138233
0.138169
0.13811
0.138056
0.138009
0.137968
0.137933
0.137905
0.137884
0.137876
0.137885
0.137912
0.137953
0.138002
0.138055
0.13811
0.13816
0.138205
0.138244
0.138275
0.138298
0.138311
0.138314
0.138308
0.138292
0.138269
0.138237
0.138199
0.138153
0.138102
0.138045
0.137983
0.137917
0.137847
0.137773
0.137696
0.137615
0.137532
0.137446
0.137358
0.137268
0.137177
0.137084
0.13699
0.136896
0.136804
0.136712
0.13662
0.136526
0.136429
0.136329
0.136223
0.136112
0.135994
0.135869
0.135739
0.135606
0.135476
0.13535
0.135229
0.135112
0.135
0.134891
0.134785
0.134681
0.134579
0.134479
0.134379
0.13428
0.134182
0.134083
0.133985
0.133886
0.133788
0.133688
0.133589
0.133491
0.133393
0.133295
0.133196
0.133095
0.132994
0.132891
0.132789
0.132692
0.138772
0.138764
0.138738
0.1387
0.138657
0.138611
0.138565
0.138518
0.13847
0.138422
0.138373
0.138325
0.138276
0.138226
0.138175
0.138125
0.138077
0.138031
0.137987
0.137946
0.137907
0.137871
0.137836
0.137803
0.137772
0.137741
0.137711
0.137681
0.137652
0.137621
0.137591
0.137566
0.137548
0.137534
0.137522
0.13751
0.137496
0.137477
0.137456
0.137432
0.137406
0.137374
0.137338
0.137298
0.137253
0.137205
0.137154
0.1371
0.137043
0.136982
0.136918
0.136852
0.136782
0.13671
0.136635
0.136559
0.136481
0.136401
0.136319
0.136235
0.136149
0.136063
0.135976
0.135891
0.135807
0.135721
0.135634
0.135547
0.135459
0.135371
0.135281
0.135191
0.135102
0.135012
0.134922
0.134831
0.134741
0.134653
0.134566
0.134478
0.134393
0.134306
0.134219
0.134132
0.134043
0.133953
0.133862
0.13377
0.133676
0.13358
0.133482
0.133382
0.133279
0.133174
0.133064
0.132947
0.132815
0.132666
0.132496
0.132322
0.140386
0.140625
0.1408
0.140917
0.140988
0.141027
0.141041
0.141035
0.14101
0.140964
0.140921
0.140876
0.14083
0.140784
0.14074
0.140697
0.140656
0.140618
0.140583
0.14055
0.140519
0.140491
0.140464
0.140438
0.140413
0.140388
0.140362
0.140334
0.140303
0.140266
0.140225
0.140203
0.140175
0.140148
0.140122
0.140097
0.140072
0.140046
0.140021
0.139993
0.139964
0.139933
0.139901
0.139867
0.139832
0.139794
0.139752
0.139708
0.139663
0.139613
0.13956
0.139504
0.139444
0.139381
0.139315
0.139246
0.139174
0.1391
0.139025
0.138948
0.138866
0.138785
0.138714
0.13863
0.138544
0.138454
0.13836
0.138264
0.138164
0.138059
0.13795
0.137834
0.13771
0.137579
0.13744
0.137289
0.137128
0.136951
0.136756
0.136542
0.136308
0.136056
0.135784
0.135497
0.135201
0.134902
0.134604
0.134307
0.134011
0.133716
0.133421
0.133126
0.132829
0.132529
0.132228
0.131924
0.13162
0.131321
0.131044
0.130835
0.132227
0.13111
0.130691
0.130613
0.130683
0.130729
0.130638
0.130406
0.130052
0.129644
0.129741
0.129061
0.128388
0.127804
0.127279
0.126789
0.12632
0.125862
0.125408
0.124954
0.124498
0.12404
0.12358
0.123123
0.12267
0.122226
0.121796
0.121386
0.121001
0.120655
0.120475
0.120893
0.120606
0.120288
0.119936
0.119554
0.119145
0.118716
0.118271
0.117814
0.11735
0.116881
0.116412
0.115945
0.115481
0.115021
0.114567
0.114119
0.113677
0.113242
0.112811
0.112386
0.111966
0.111549
0.111137
0.110729
0.110327
0.10993
0.109539
0.109151
0.108767
0.108571
0.108749
0.108489
0.108209
0.107919
0.107619
0.10731
0.106994
0.106669
0.106338
0.105999
0.105655
0.105303
0.104946
0.104582
0.104213
0.103837
0.103456
0.103068
0.102675
0.102275
0.101871
0.101462
0.101048
0.100629
0.100207
0.0997812
0.0993525
0.0989221
0.0984917
0.0980641
0.0976431
0.0972352
0.0968507
0.0965062
0.0962287
0.0960627
0.0960802
0.096405
0.296627
0.314562
0.331415
0.347165
0.361955
0.375901
0.389101
0.401633
0.413563
0.424947
0.435833
0.446262
0.456271
0.465889
0.475145
0.484063
0.492682
0.500979
0.508994
0.51675
0.524263
0.531545
0.538609
0.545465
0.552124
0.558595
0.564887
0.571009
0.576968
0.582772
0.588428
0.593943
0.599246
0.604323
0.609449
0.614464
0.619371
0.624177
0.628886
0.633506
0.638043
0.642502
0.646891
0.651217
0.655487
0.659708
0.663889
0.667828
0.67165
0.675787
0.679925
0.684067
0.688222
0.692402
0.696615
0.700874
0.705189
0.709571
0.71403
0.718128
0.722365
0.727259
0.732274
0.737413
0.742682
0.74809
0.753643
0.758102
0.764742
0.770706
0.146506
0.146783
0.147124
0.147519
0.147967
0.148465
0.149013
0.149607
0.150245
0.150926
0.151647
0.152403
0.153196
0.154024
0.154888
0.155788
0.15673
0.157701
0.158708
0.159753
0.160839
0.161964
0.163128
0.16433
0.16557
0.166847
0.16816
0.169509
0.170893
0.17231
0.173761
0.175245
0.176732
0.178215
0.179796
0.181412
0.183058
0.184734
0.186438
0.188169
0.189927
0.191711
0.19352
0.195355
0.197215
0.199101
0.201013
0.202858
0.204696
0.206728
0.208796
0.210894
0.213022
0.215182
0.217379
0.219615
0.221898
0.224234
0.226635
0.228876
0.231258
0.234071
0.237022
0.240124
0.243408
0.246916
0.250697
0.2541
0.259212
0.264243
0.144963
0.144917
0.144875
0.144839
0.144808
0.144781
0.144756
0.144732
0.144709
0.144685
0.144662
0.14464
0.144618
0.144597
0.144576
0.144556
0.144537
0.144517
0.144497
0.144475
0.14445
0.144422
0.144391
0.144358
0.144322
0.144283
0.144241
0.144197
0.144151
0.144102
0.144052
0.143999
0.143941
0.143878
0.143818
0.143758
0.143697
0.143636
0.143575
0.143514
0.143453
0.143393
0.143334
0.143276
0.143218
0.143162
0.143106
0.143039
0.142965
0.142912
0.142864
0.142818
0.142776
0.142738
0.142703
0.142673
0.142646
0.142624
0.142606
0.142554
0.142508
0.142521
0.14255
0.142596
0.142663
0.142757
0.142887
0.142922
0.14327
0.143632
0.141947
0.141937
0.141922
0.141904
0.141884
0.141863
0.141842
0.141822
0.141802
0.141784
0.141766
0.141749
0.141733
0.141717
0.141701
0.141686
0.141671
0.141655
0.141639
0.141624
0.141609
0.141595
0.141582
0.141569
0.141555
0.141541
0.141527
0.141512
0.141497
0.141481
0.141465
0.141448
0.14143
0.141411
0.141392
0.141372
0.141351
0.14133
0.141307
0.141284
0.141261
0.141236
0.141211
0.141185
0.141159
0.141132
0.141104
0.141075
0.141044
0.141013
0.140982
0.14095
0.140918
0.140885
0.140852
0.140818
0.140784
0.140749
0.140712
0.140672
0.140629
0.140586
0.140544
0.140501
0.140459
0.140416
0.140374
0.140326
0.140289
0.140257
0.141483
0.141471
0.141457
0.141442
0.141424
0.141404
0.141384
0.141363
0.141343
0.141323
0.141304
0.141285
0.141267
0.141249
0.141232
0.141214
0.141197
0.14118
0.141162
0.141144
0.141126
0.141109
0.141091
0.141073
0.141056
0.141038
0.141021
0.141004
0.140987
0.140971
0.140955
0.140939
0.140924
0.14091
0.140895
0.140881
0.140868
0.140855
0.140842
0.140829
0.140817
0.140805
0.140793
0.140781
0.14077
0.140759
0.140748
0.140737
0.140726
0.140715
0.140704
0.140692
0.140681
0.140669
0.140657
0.140645
0.140633
0.140621
0.140609
0.140597
0.140584
0.140571
0.140558
0.140545
0.140533
0.140521
0.140511
0.140503
0.140497
0.140495
0.141327
0.141315
0.141303
0.141289
0.141273
0.141255
0.141236
0.141215
0.141195
0.141174
0.141154
0.141135
0.141116
0.141098
0.141081
0.141063
0.141046
0.141028
0.141011
0.140993
0.140975
0.140957
0.140939
0.140921
0.140902
0.140884
0.140866
0.140848
0.14083
0.140813
0.140796
0.140779
0.140763
0.140747
0.140732
0.140717
0.140703
0.140689
0.140676
0.140664
0.140651
0.140639
0.140628
0.140617
0.140606
0.140595
0.140585
0.140574
0.140564
0.140553
0.140543
0.140532
0.14052
0.140509
0.140497
0.140485
0.140473
0.140461
0.14045
0.140438
0.140426
0.140413
0.1404
0.140387
0.140374
0.140363
0.140353
0.140344
0.140339
0.140339
0.141123
0.141113
0.141101
0.14109
0.141077
0.141062
0.141045
0.141027
0.141008
0.140989
0.14097
0.140952
0.140934
0.140917
0.1409
0.140884
0.140867
0.140851
0.140834
0.140817
0.1408
0.140782
0.140764
0.140746
0.140728
0.140709
0.14069
0.140672
0.140653
0.140635
0.140617
0.140599
0.140583
0.140567
0.140551
0.140536
0.140521
0.140506
0.140493
0.140479
0.140466
0.140453
0.140441
0.14043
0.140419
0.140409
0.1404
0.140391
0.140383
0.140374
0.140364
0.140355
0.140344
0.140334
0.140323
0.140311
0.140299
0.140287
0.140275
0.140263
0.14025
0.140236
0.140222
0.140208
0.140194
0.140181
0.14017
0.14016
0.140153
0.140152
0.140917
0.140909
0.140899
0.140888
0.140876
0.140862
0.140847
0.140831
0.140814
0.140796
0.140778
0.14076
0.140742
0.140724
0.140707
0.140691
0.140674
0.140658
0.140643
0.140627
0.140612
0.140597
0.140582
0.140567
0.140553
0.140539
0.140525
0.140511
0.140497
0.140484
0.14047
0.140456
0.140442
0.140427
0.140412
0.140397
0.140381
0.140365
0.140348
0.140331
0.140313
0.140296
0.140278
0.14026
0.140242
0.140224
0.140208
0.140192
0.140176
0.140161
0.140145
0.140131
0.140117
0.140103
0.140089
0.140076
0.140064
0.140052
0.140041
0.140029
0.140017
0.140004
0.13999
0.139976
0.139962
0.139948
0.139937
0.139926
0.139918
0.139916
0.140706
0.140698
0.140688
0.140677
0.140666
0.140654
0.14064
0.140625
0.140609
0.140592
0.140575
0.140559
0.140543
0.140528
0.140514
0.140499
0.140484
0.140469
0.140454
0.140439
0.140425
0.140412
0.140399
0.140387
0.140374
0.140362
0.140349
0.140336
0.140322
0.140308
0.140293
0.140278
0.140262
0.140246
0.140229
0.140212
0.140194
0.140175
0.140156
0.140136
0.140115
0.140094
0.140072
0.140049
0.140026
0.140002
0.139979
0.139955
0.13993
0.139905
0.13988
0.139855
0.139831
0.139807
0.139784
0.139762
0.13974
0.13972
0.139701
0.139683
0.139664
0.139645
0.139627
0.13961
0.139594
0.139579
0.139567
0.139555
0.139549
0.139547
0.14043
0.140422
0.14041
0.140396
0.140382
0.140367
0.140352
0.140335
0.140317
0.1403
0.140284
0.140269
0.140254
0.14024
0.140225
0.14021
0.140194
0.140178
0.140163
0.140147
0.140131
0.140116
0.140101
0.140085
0.14007
0.140054
0.140038
0.140022
0.140005
0.139988
0.139971
0.139953
0.139935
0.139917
0.139898
0.139879
0.139858
0.139838
0.139816
0.139795
0.139772
0.139749
0.139725
0.139701
0.139676
0.139651
0.139626
0.139602
0.139576
0.13955
0.139523
0.139496
0.139469
0.139442
0.139415
0.139389
0.139363
0.139338
0.139315
0.139293
0.139271
0.139249
0.139229
0.139209
0.139191
0.139175
0.139161
0.139148
0.139139
0.139135
0.140011
0.14
0.139985
0.139967
0.139947
0.139927
0.139907
0.139887
0.139868
0.13985
0.139833
0.139817
0.139801
0.139785
0.139768
0.13975
0.139732
0.139714
0.139696
0.139679
0.139661
0.139643
0.139626
0.139609
0.139591
0.139574
0.139556
0.139539
0.139521
0.139503
0.139484
0.139466
0.139448
0.139429
0.139409
0.13939
0.13937
0.139349
0.139328
0.139306
0.139284
0.139262
0.139239
0.139215
0.139192
0.139168
0.139145
0.139122
0.139098
0.139073
0.139049
0.139024
0.138999
0.138974
0.138948
0.138924
0.138899
0.138876
0.138853
0.138832
0.13881
0.138788
0.138768
0.138749
0.138731
0.138716
0.138703
0.13869
0.138681
0.138675
0.139268
0.139255
0.139238
0.139218
0.139197
0.139175
0.139154
0.139135
0.139118
0.139102
0.139087
0.139073
0.139058
0.139043
0.139027
0.139011
0.138995
0.138979
0.138963
0.138947
0.138931
0.138916
0.1389
0.138885
0.138871
0.138856
0.138841
0.138826
0.138811
0.138796
0.138781
0.138766
0.138751
0.138736
0.13872
0.138704
0.138688
0.138672
0.138655
0.138637
0.13862
0.138601
0.138583
0.138564
0.138545
0.138525
0.138506
0.138488
0.138468
0.138448
0.138428
0.138407
0.138387
0.138366
0.138346
0.138325
0.138305
0.138285
0.138266
0.138248
0.138229
0.13821
0.138192
0.138176
0.138161
0.138147
0.138136
0.138123
0.138113
0.138107
0.138316
0.138305
0.138291
0.138275
0.138257
0.13824
0.138224
0.13821
0.138197
0.138185
0.138175
0.138166
0.138157
0.138148
0.138138
0.138128
0.138117
0.138107
0.138096
0.138086
0.138076
0.138067
0.138058
0.138049
0.13804
0.138031
0.138022
0.138014
0.138005
0.137996
0.137986
0.137977
0.137967
0.137956
0.137946
0.137935
0.137923
0.137912
0.137899
0.137887
0.137874
0.13786
0.137846
0.137831
0.137816
0.137801
0.137786
0.137771
0.137754
0.137738
0.137722
0.137705
0.137689
0.137674
0.137659
0.137644
0.13763
0.137615
0.137602
0.137589
0.137576
0.137564
0.137554
0.137545
0.137537
0.137531
0.137525
0.137517
0.137512
0.137506
0.137031
0.137021
0.13701
0.136999
0.136988
0.136979
0.136972
0.136966
0.136961
0.136957
0.136954
0.136951
0.136949
0.136946
0.136944
0.13694
0.136937
0.136933
0.136929
0.136925
0.136922
0.136919
0.136916
0.136914
0.136912
0.136911
0.136909
0.136907
0.136904
0.136901
0.136898
0.136894
0.136889
0.136883
0.136877
0.13687
0.136863
0.136856
0.136848
0.13684
0.136832
0.136823
0.136814
0.136805
0.136795
0.136785
0.136774
0.136762
0.136748
0.136736
0.136724
0.136714
0.136704
0.136696
0.136688
0.136681
0.136674
0.136667
0.13666
0.136653
0.136646
0.136641
0.136637
0.136635
0.136633
0.136632
0.13663
0.136625
0.136622
0.136618
0.135849
0.135841
0.135833
0.135827
0.13582
0.135815
0.135809
0.135804
0.135799
0.135793
0.135788
0.135783
0.135778
0.135773
0.135768
0.135763
0.135758
0.135753
0.135748
0.135744
0.135739
0.135735
0.135731
0.135727
0.135724
0.13572
0.135717
0.135714
0.135712
0.135709
0.135706
0.135704
0.135701
0.135697
0.135694
0.135691
0.135688
0.135686
0.135683
0.135681
0.135679
0.135677
0.135675
0.135673
0.135672
0.135671
0.135669
0.135666
0.135663
0.135661
0.13566
0.135659
0.135658
0.135659
0.13566
0.135661
0.135663
0.135665
0.135667
0.135666
0.135666
0.135668
0.135671
0.135676
0.135681
0.135685
0.135689
0.135686
0.135686
0.135681
0.134287
0.134283
0.134279
0.134276
0.134273
0.134271
0.134268
0.134265
0.134263
0.13426
0.134258
0.134255
0.134253
0.13425
0.134247
0.134245
0.134242
0.134239
0.134236
0.134233
0.13423
0.134227
0.134224
0.134222
0.134219
0.134217
0.134215
0.134213
0.134211
0.134209
0.134208
0.134206
0.134203
0.1342
0.134197
0.134195
0.134192
0.134191
0.134189
0.134188
0.134187
0.134186
0.134186
0.134186
0.134186
0.134186
0.134186
0.134184
0.134181
0.13418
0.134179
0.134179
0.13418
0.134181
0.134184
0.134187
0.13419
0.134193
0.134196
0.134195
0.134194
0.134196
0.1342
0.134206
0.134213
0.134219
0.134223
0.134219
0.134221
0.134215
0.132623
0.132608
0.132596
0.132583
0.13257
0.132558
0.132545
0.132533
0.13252
0.132507
0.132494
0.132482
0.132469
0.132456
0.132443
0.13243
0.132417
0.132404
0.132391
0.132378
0.132365
0.132352
0.132339
0.132326
0.132313
0.132301
0.132289
0.132278
0.132267
0.132256
0.132246
0.132235
0.132224
0.132212
0.1322
0.132188
0.132176
0.132166
0.132155
0.132146
0.132137
0.132128
0.132121
0.132114
0.132107
0.132101
0.132094
0.132085
0.132074
0.132065
0.132057
0.13205
0.132045
0.132041
0.132039
0.132037
0.132037
0.132036
0.132035
0.132029
0.132022
0.132019
0.132019
0.132022
0.132027
0.132032
0.132034
0.132022
0.13202
0.132008
0.132152
0.132071
0.131992
0.131913
0.131835
0.131757
0.131681
0.131605
0.13153
0.131455
0.131381
0.131308
0.131236
0.131164
0.131092
0.131021
0.13095
0.13088
0.13081
0.130739
0.130669
0.1306
0.13053
0.130461
0.130393
0.130326
0.130258
0.130192
0.130126
0.130061
0.129997
0.129935
0.129872
0.129806
0.129741
0.129676
0.129613
0.129551
0.129491
0.129431
0.129373
0.129316
0.12926
0.129207
0.129155
0.129106
0.129058
0.129007
0.128951
0.128897
0.128846
0.128797
0.128752
0.128708
0.128668
0.128631
0.128596
0.128563
0.128532
0.128492
0.128447
0.128409
0.128377
0.128351
0.128329
0.128311
0.128294
0.12825
0.128231
0.128207
0.129801
0.129581
0.129415
0.129252
0.129088
0.128921
0.128753
0.128582
0.128411
0.128237
0.128062
0.127886
0.127709
0.127531
0.127353
0.127173
0.126995
0.126816
0.126635
0.126454
0.126273
0.126091
0.12591
0.125729
0.125548
0.125366
0.125185
0.125004
0.124825
0.124647
0.124471
0.124299
0.124124