/*--------------------------------*- C++ -*----------------------------------*\
  =========                 |
  \\      /  F ield         | OpenFOAM: The Open Source CFD Toolbox
   \\    /   O peration     | Website:  https://openfoam.org
    \\  /    A nd           | Version:  6.0
     \\/     M anipulation  |
\*---------------------------------------------------------------------------*/
FoamFile
{
    version     2.0;
    format      ascii;
    class       volScalarField;
    location    "350";
    object      p;
}
// * * * * * * * * * * * * * * * * * * * * * * * * * * * * * * * * * * * * * //

dimensions      [0 2 -2 0 0 0 0];

internalField   nonuniform List<scalar> 
9800
(
138.055
136.232
134.934
133.952
133.149
132.446
131.795
131.168
130.55
129.933
129.294
128.635
127.958
127.261
126.544
125.809
125.059
124.299
123.54
122.799
122.107
121.513
121.119
121.15
121.609
122.275
123.041
123.857
124.692
125.529
126.355
127.159
127.942
128.701
129.435
130.142
130.821
131.473
132.096
132.69
133.256
133.792
134.297
134.773
135.216
135.627
136.005
136.348
136.654
136.92
137.147
137.328
137.464
137.549
137.58
137.553
137.464
137.31
137.088
136.798
136.449
136.052
135.644
135.286
135.087
135.239
136.05
138.063
142.01
149.413
160.773
179.543
197.45
212.816
219.41
224.281
230.103
235.845
240.912
245.618
250.233
254.695
258.871
262.76
266.469
270.1
273.702
277.271
280.783
284.206
287.529
290.751
293.892
296.97
300.004
303.004
305.975
308.922
311.804
314.685
209.231
209.635
209.832
209.962
210.072
210.183
210.299
210.417
210.532
210.644
210.748
210.836
210.907
210.96
210.999
211.024
211.04
211.055
211.076
211.114
211.179
211.265
211.331
211.387
211.438
211.477
211.537
211.624
211.726
211.832
211.933
212.023
212.089
212.131
212.144
212.126
212.077
211.993
211.875
211.72
211.529
211.299
211.031
210.721
210.37
209.976
209.537
209.051
208.517
207.932
207.294
206.6
205.848
205.033
204.154
203.206
202.186
201.09
199.914
198.654
197.305
195.864
194.318
192.656
190.854
188.899
186.735
184.359
181.708
179.074
176.64
177.661
183.785
193.329
204.541
213.684
220.951
227.509
233.727
239.474
244.646
249.303
253.567
257.55
261.336
264.975
268.489
271.865
275.086
278.136
281.015
283.73
286.296
288.716
290.991
293.109
295.048
296.783
298.235
299.408
138.734
140.653
142.261
143.64
144.865
145.989
147.055
148.09
149.11
150.127
151.169
152.242
153.34
154.463
155.609
156.775
157.953
159.13
160.288
161.393
162.402
163.249
163.805
163.881
163.467
162.746
161.85
160.85
159.792
158.706
157.613
156.532
155.474
154.434
153.418
152.425
151.458
150.516
149.6
148.709
147.845
147.005
146.192
145.405
144.646
143.914
143.213
142.543
141.909
141.312
140.758
140.251
139.798
139.406
139.085
138.847
138.706
138.682
138.792
139.071
139.546
140.269
141.288
142.688
144.544
146.991
150.153
154.238
159.421
165.967
173.942
183.502
193.519
202.903
211.105
218.127
224.403
230.213
235.503
240.202
244.411
248.32
252.06
255.677
259.178
262.548
265.767
268.812
271.675
274.361
276.887
279.258
281.479
283.54
285.428
287.123
288.606
289.843
290.816
291.413
146.64
145.454
144.58
143.909
143.38
142.946
142.583
142.273
142.008
141.779
141.581
141.413
141.275
141.166
141.083
141.023
140.982
140.955
140.936
140.918
140.898
140.887
140.912
140.975
141.074
141.205
141.347
141.486
141.626
141.773
141.933
142.112
142.315
142.545
142.805
143.097
143.423
143.782
144.178
144.61
145.081
145.59
146.141
146.733
147.371
148.055
148.79
149.578
150.424
151.333
152.31
153.361
154.494
155.717
157.039
158.472
160.025
161.715
163.553
165.561
167.748
170.142
172.745
175.587
178.667
182.007
185.583
189.397
193.391
197.529
201.722
205.925
210.106
214.337
218.664
223.054
227.363
231.481
235.367
239.066
242.64
246.142
249.581
252.935
256.161
259.214
262.072
264.73
267.207
269.518
271.681
273.696
275.559
277.255
278.776
280.11
281.25
282.182
282.916
283.361
167.762
167.166
166.552
165.948
165.367
164.814
164.287
163.785
163.307
162.847
162.39
161.93
161.473
161.018
160.563
160.11
159.662
159.224
158.805
158.42
158.086
157.832
157.707
157.771
158.03
158.427
158.91
159.447
160.02
160.613
161.216
161.817
162.413
163.006
163.597
164.185
164.771
165.356
165.942
166.529
167.121
167.717
168.322
168.936
169.564
170.205
170.866
171.547
172.253
172.988
173.755
174.559
175.405
176.298
177.242
178.247
179.315
180.457
181.674
182.983
184.382
185.89
187.504
189.248
191.119
193.151
195.34
197.725
200.31
203.136
206.211
209.56
213.157
216.943
220.798
224.615
228.316
231.897
235.374
238.768
242.075
245.284
248.369
251.305
254.075
256.668
259.094
261.367
263.503
265.512
267.398
269.155
270.776
272.255
273.591
274.781
275.828
276.723
277.486
278.029
172.681
172.556
172.428
172.302
172.18
172.065
171.961
171.87
171.798
171.743
171.697
171.661
171.639
171.629
171.632
171.647
171.674
171.713
171.767
171.834
171.915
172.005
172.096
172.186
172.277
172.368
172.466
172.575
172.697
172.829
172.972
173.12
173.273
173.435
173.608
173.791
173.987
174.196
174.421
174.664
174.927
175.213
175.525
175.864
176.236
176.643
177.088
177.575
178.108
178.693
179.332
180.032
180.797
181.634
182.546
183.545
184.631
185.817
187.104
188.509
190.029
191.684
193.467
195.4
197.477
199.716
202.106
204.658
207.348
210.176
213.103
216.11
219.143
222.178
225.177
228.139
231.059
233.942
236.779
239.556
242.251
244.847
247.327
249.688
251.93
254.061
256.09
258.019
259.852
261.583
263.207
264.72
266.121
267.407
268.581
269.641
270.587
271.408
272.125
272.653
178.46
177.915
177.439
177.025
176.67
176.366
176.112
175.902
175.738
175.616
175.527
175.469
175.447
175.457
175.499
175.57
175.667
175.786
175.923
176.073
176.228
176.379
176.514
176.62
176.694
176.748
176.794
176.842
176.9
176.971
177.063
177.174
177.309
177.471
177.665
177.889
178.147
178.439
178.767
179.132
179.536
179.979
180.465
180.993
181.567
182.187
182.856
183.577
184.351
185.181
186.069
187.018
188.03
189.108
190.255
191.474
192.764
194.133
195.576
197.102
198.704
200.393
202.153
203.997
205.911
207.906
209.962
212.088
214.262
216.489
218.75
221.049
223.37
225.719
228.081
230.456
232.824
235.176
237.487
239.748
241.942
244.065
246.114
248.092
250
251.839
253.606
255.298
256.909
258.436
259.877
261.232
262.502
263.688
264.788
265.799
266.72
267.542
268.287
268.878
185.984
185.4
184.852
184.343
183.872
183.441
183.049
182.696
182.385
182.114
181.869
181.653
181.468
181.314
181.189
181.093
181.025
180.983
180.966
180.974
181.007
181.065
181.15
181.262
181.4
181.564
181.752
181.963
182.197
182.453
182.734
183.034
183.356
183.702
184.076
184.476
184.904
185.361
185.846
186.361
186.907
187.484
188.094
188.737
189.415
190.128
190.878
191.667
192.494
193.363
194.273
195.228
196.227
197.274
198.366
199.51
200.701
201.947
203.242
204.594
205.996
207.455
208.962
210.524
212.134
213.802
215.513
217.278
219.082
220.932
222.814
224.733
226.671
228.63
230.589
232.548
234.487
236.404
238.284
240.129
241.931
243.692
245.408
247.081
248.704
250.276
251.789
253.244
254.635
255.965
257.23
258.432
259.569
260.639
261.638
262.563
263.413
264.184
264.897
265.483
192.602
192.067
191.568
191.104
190.675
190.281
189.92
189.594
189.304
189.049
188.816
188.606
188.424
188.269
188.141
188.038
187.963
187.913
187.889
187.893
187.924
187.983
188.074
188.197
188.353
188.538
188.751
188.99
189.253
189.54
189.849
190.176
190.519
190.884
191.272
191.683
192.117
192.575
193.057
193.565
194.099
194.66
195.249
195.867
196.516
197.196
197.908
198.654
199.434
200.251
201.104
201.996
202.925
203.895
204.904
205.957
207.048
208.185
209.361
210.583
211.843
213.147
214.486
215.866
217.279
218.732
220.215
221.733
223.272
224.839
226.421
228.019
229.621
231.229
232.831
234.428
236.01
237.58
239.129
240.661
242.168
243.65
245.102
246.522
247.904
249.249
250.551
251.812
253.028
254.199
255.322
256.395
257.415
258.38
259.288
260.139
260.933
261.668
262.363
262.955
198.161
197.681
197.232
196.816
196.433
196.084
195.769
195.488
195.245
195.037
194.851
194.689
194.556
194.45
194.373
194.323
194.299
194.3
194.328
194.379
194.454
194.552
194.671
194.812
194.972
195.152
195.352
195.573
195.816
196.081
196.368
196.673
196.994
197.339
197.709
198.103
198.522
198.966
199.436
199.932
200.455
201.006
201.584
202.192
202.828
203.494
204.19
204.917
205.673
206.462
207.281
208.133
209.015
209.93
210.875
211.855
212.862
213.904
214.972
216.074
217.2
218.357
219.535
220.738
221.961
223.21
224.476
225.762
227.06
228.374
229.695
231.026
232.359
233.696
235.029
236.362
237.687
239.006
240.311
241.605
242.88
244.137
245.371
246.581
247.764
248.919
250.044
251.138
252.196
253.22
254.204
255.149
256.053
256.915
257.736
258.517
259.259
259.959
260.635
261.226
204.27
203.766
203.297
202.863
202.465
202.102
201.775
201.483
201.231
201.015
200.823
200.656
200.519
200.411
200.332
200.28
200.257
200.259
200.289
200.343
200.423
200.527
200.655
200.806
200.98
201.175
201.391
201.629
201.889
202.17
202.474
202.794
203.129
203.488
203.869
204.274
204.702
205.153
205.627
206.126
206.647
207.194
207.763
208.358
208.976
209.619
210.285
210.976
211.69
212.43
213.192
213.979
214.788
215.622
216.477
217.357
218.257
219.18
220.122
221.088
222.069
223.072
224.087
225.118
226.162
227.223
228.295
229.381
230.474
231.578
232.686
233.802
234.918
236.038
237.155
238.271
239.381
240.486
241.58
242.665
243.736
244.794
245.834
246.858
247.861
248.843
249.802
250.737
251.645
252.527
253.38
254.205
255.002
255.771
256.512
257.225
257.912
258.57
259.212
259.783
207.933
207.63
207.344
207.076
206.83
206.606
206.407
206.232
206.087
205.971
205.868
205.781
205.718
205.677
205.66
205.664
205.692
205.741
205.813
205.906
206.022
206.159
206.318
206.499
206.7
206.921
207.161
207.422
207.702
208.003
208.323
208.656
209.003
209.369
209.757
210.164
210.592
211.04
211.508
211.996
212.504
213.033
213.581
214.151
214.738
215.347
215.974
216.621
217.287
217.972
218.675
219.398
220.137
220.895
221.669
222.462
223.269
224.095
224.934
225.789
226.657
227.539
228.429
229.33
230.239
231.161
232.09
233.028
233.972
234.923
235.876
236.835
237.793
238.753
239.71
240.666
241.617
242.564
243.502
244.434
245.354
246.265
247.163
248.047
248.916
249.77
250.607
251.426
252.227
253.009
253.773
254.518
255.243
255.95
256.636
257.304
257.953
258.58
259.197
259.752
215.242
214.783
214.361
213.974
213.622
213.304
213.02
212.77
212.557
212.379
212.226
212.097
211.996
211.922
211.876
211.855
211.861
211.892
211.948
212.028
212.132
212.26
212.412
212.587
212.785
213.006
213.246
213.506
213.785
214.083
214.4
214.728
215.067
215.425
215.8
216.194
216.604
217.032
217.477
217.939
218.417
218.911
219.421
219.948
220.489
221.046
221.617
222.204
222.804
223.419
224.047
224.69
225.345
226.014
226.694
227.388
228.091
228.808
229.533
230.271
231.016
231.771
232.53
233.295
234.065
234.843
235.626
236.415
237.206
238.002
238.798
239.597
240.395
241.194
241.989
242.784
243.573
244.359
245.139
245.913
246.679
247.438
248.187
248.927
249.657
250.377
251.085
251.782
252.467
253.14
253.801
254.449
255.084
255.706
256.314
256.909
257.489
258.054
258.612
259.118
213.715
213.748
213.781
213.817
213.86
213.913
213.977
214.055
214.154
214.27
214.384
214.5
214.629
214.772
214.929
215.099
215.284
215.482
215.694
215.919
216.158
216.409
216.673
216.949
217.236
217.533
217.841
218.162
218.497
218.845
219.207
219.575
219.949
220.337
220.741
221.159
221.59
222.036
222.495
222.969
223.455
223.955
224.467
224.992
225.529
226.079
226.641
227.215
227.799
228.396
229.003
229.621
230.249
230.888
231.535
232.192
232.857
233.531
234.212
234.901
235.596
236.296
236.998
237.703
238.41
239.123
239.838
240.557
241.277
241.999
242.72
243.443
244.163
244.883
245.6
246.316
247.026
247.734
248.436
249.134
249.825
250.51
251.188
251.859
252.522
253.177
253.823
254.461
255.088
255.706
256.313
256.909
257.494
258.068
258.629
259.178
259.715
260.238
260.754
261.226
228.378
227.848
227.361
226.913
226.502
226.126
225.785
225.477
225.202
224.962
224.76
224.587
224.444
224.329
224.242
224.183
224.152
224.147
224.169
224.217
224.292
224.392
224.519
224.67
224.848
225.051
225.277
225.523
225.788
226.071
226.37
226.678
226.993
227.321
227.662
228.017
228.383
228.76
229.149
229.55
229.96
230.382
230.813
231.254
231.705
232.165
232.635
233.114
233.6
234.096
234.6
235.111
235.63
236.156
236.688
237.227
237.771
238.321
238.876
239.436
239.999
240.566
241.132
241.698
242.266
242.837
243.41
243.985
244.56
245.138
245.714
246.292
246.869
247.446
248.021
248.595
249.167
249.737
250.304
250.868
251.429
251.987
252.539
253.089
253.632
254.172
254.705
255.233
255.754
256.27
256.778
257.279
257.773
258.261
258.74
259.212
259.676
260.132
260.582
261.001
210.217
210.846
211.455
212.053
212.648
213.241
213.838
214.441
215.063
215.693
216.283
216.848
217.411
217.977
218.544
219.112
219.682
220.252
220.822
221.393
221.963
222.533
223.102
223.669
224.235
224.796
225.355
225.912
226.469
227.028
227.587
228.135
228.677
229.223
229.774
230.33
230.892
231.46
232.033
232.612
233.196
233.787
234.383
234.985
235.591
236.203
236.82
237.442
238.068
238.698
239.331
239.968
240.607
241.25
241.894
242.54
243.187
243.836
244.484
245.133
245.782
246.429
247.07
247.707
248.342
248.976
249.608
250.238
250.865
251.49
252.11
252.728
253.341
253.95
254.554
255.153
255.746
256.334
256.915
257.49
258.057
258.617
259.169
259.714
260.25
260.777
261.295
261.804
262.304
262.794
263.273
263.744
264.203
264.653
265.093
265.522
265.94
266.348
266.745
267.122
252.892
252.018
251.194
250.414
249.671
248.957
248.272
247.606
246.952
246.32
245.785
245.296
244.84
244.416
244.023
243.661
243.332
243.035
242.771
242.539
242.341
242.174
242.041
241.941
241.873
241.839
241.837
241.864
241.919
241.998
242.101
242.227
242.36
242.51
242.676
242.859
243.056
243.267
243.493
243.732
243.983
244.247
244.523
244.81
245.108
245.416
245.733
246.06
246.396
246.74
247.093
247.452
247.819
248.192
248.572
248.957
249.348
249.743
250.144
250.548
250.956
251.367
251.775
252.183
252.592
253.004
253.418
253.836
254.256
254.678
255.102
255.527
255.953
256.38
256.807
257.235
257.661
258.088
258.513
258.938
259.36
259.781
260.2
260.617
261.03
261.442
261.85
262.255
262.656
263.053
263.447
263.836
264.221
264.601
264.976
265.347
265.711
266.071
266.42
266.774
180.074
181.958
183.812
185.639
187.462
189.288
191.129
193.003
194.938
196.895
198.665
200.349
202.017
203.676
205.329
206.971
208.603
210.222
211.827
213.417
214.991
216.547
218.085
219.602
221.1
222.575
224.028
225.459
226.87
228.261
229.621
230.908
232.163
233.399
234.619
235.825
237.017
238.194
239.358
240.508
241.645
242.768
243.878
244.974
246.057
247.127
248.183
249.226
250.256
251.272
252.274
253.263
254.238
255.2
256.147
257.08
258
258.905
259.795
260.672
261.533
262.376
263.196
264.005
264.795
265.57
266.332
267.08
267.814
268.534
269.239
269.931
270.607
271.269
271.916
272.548
273.164
273.766
274.352
274.923
275.477
276.017
276.541
277.049
277.541
278.018
278.478
278.924
279.352
279.765
280.162
280.544
280.909
281.259
281.592
281.911
282.214
282.501
282.764
283.057
317.158
315.33
313.287
311.275
309.309
307.359
305.408
303.437
301.379
299.2
297.536
295.917
294.289
292.706
291.173
289.689
288.255
286.875
285.55
284.282
283.072
281.922
280.833
279.804
278.833
277.921
277.07
276.278
275.547
274.864
274.205
273.678
273.152
272.626
272.139
271.695
271.291
270.924
270.594
270.3
270.041
269.817
269.625
269.465
269.335
269.235
269.164
269.119
269.101
269.107
269.137
269.189
269.262
269.355
269.467
269.596
269.742
269.903
270.078
270.268
270.463
270.654
270.867
271.111
271.325
271.544
271.779
272.03
272.29
272.561
272.842
273.132
273.43
273.736
274.048
274.367
274.691
275.02
275.354
275.692
276.032
276.375
276.721
277.068
277.416
277.765
278.114
278.463
278.811
279.158
279.503
279.848
280.189
280.528
280.863
281.197
281.524
281.842
282.14
282.796
64.383
72.7706
79.0057
86.1489
93.8367
101.775
110.049
119.094
127.484
130.257
132.675
138.195
144.078
149.707
155.266
160.776
166.232
171.618
176.932
182.162
187.309
192.363
197.325
202.188
206.954
211.607
216.149
220.632
225.14
229.255
231.966
234.701
238.418
241.861
245.178
248.428
251.616
254.734
257.784
260.764
263.676
266.517
269.291
271.996
274.632
277.2
279.701
282.133
284.499
286.797
289.029
291.195
293.296
295.331
297.305
299.219
301.072
302.861
304.594
306.276
307.85
309.176
310.481
312.122
313.523
314.821
316.087
317.316
318.501
319.644
320.743
321.801
322.818
323.795
324.732
325.631
326.491
327.314
328.101
328.853
329.57
330.253
330.904
331.523
332.111
332.67
333.199
333.702
334.176
334.626
335.05
335.451
335.828
336.184
336.519
336.838
337.129
337.334
337.482
339.004
315.832
315.415
315.105
314.936
314.82
314.729
314.674
314.652
314.67
314.719
314.804
314.919
315.063
315.232
315.43
315.657
315.9
316.157
316.447
316.762
317.097
317.451
317.823
318.212
318.619
319.043
319.482
319.937
320.408
320.897
321.399
321.868
322.31
322.888
323.531
324.101
324.666
325.249
325.845
326.452
327.069
327.697
328.334
328.985
329.653
330.323
330.865
331.384
332.23
333.151
333.869
334.569
335.291
336.03
336.777
337.543
338.336
339.11
339.579
340.124
341.347
342.576
343.406
344.23
345.128
345.899
345.947
347.5
349.385
349.069
299.196
299.337
299.85
300.378
300.858
301.32
301.779
302.232
302.684
303.132
303.581
304.03
304.482
304.935
305.391
305.849
306.31
306.773
307.24
307.71
308.183
308.659
309.138
309.621
310.107
310.597
311.09
311.588
312.089
312.595
313.106
313.62
314.135
314.659
315.19
315.72
316.252
316.791
317.334
317.883
318.435
318.994
319.557
320.126
320.7
321.281
321.86
322.44
323.036
323.643
324.238
324.837
325.441
326.053
326.669
327.293
327.922
328.559
329.184
329.81
330.478
331.153
331.8
332.455
333.128
333.809
334.447
335.187
336.034
336.464
291.823
292.125
292.717
293.301
293.844
294.373
294.903
295.43
295.957
296.481
297.006
297.531
298.055
298.58
299.104
299.628
300.152
300.675
301.199
301.722
302.245
302.768
303.291
303.815
304.338
304.862
305.386
305.911
306.436
306.962
307.488
308.016
308.541
309.066
309.592
310.116
310.639
311.164
311.689
312.214
312.739
313.266
313.792
314.32
314.847
315.376
315.904
316.428
316.95
317.473
317.99
318.507
319.024
319.542
320.059
320.576
321.092
321.61
322.125
322.629
323.131
323.631
324.122
324.614
325.109
325.606
326.095
326.574
327.101
327.469
283.789
284.149
284.784
285.4
285.976
286.545
287.116
287.686
288.256
288.824
289.393
289.961
290.53
291.097
291.665
292.232
292.799
293.366
293.932
294.498
295.064
295.629
296.193
296.758
297.322
297.885
298.449
299.013
299.576
300.14
300.703
301.267
301.828
302.389
302.949
303.506
304.061
304.617
305.173
305.729
306.285
306.842
307.398
307.956
308.513
309.073
309.631
310.185
310.737
311.289
311.833
312.378
312.925
313.475
314.025
314.578
315.132
315.689
316.244
316.792
317.337
317.878
318.41
318.947
319.489
320.038
320.575
321.112
321.688
322.094
278.559
278.924
279.551
280.16
280.734
281.303
281.875
282.447
283.019
283.591
284.162
284.732
285.303
285.873
286.443
287.013
287.584
288.153
288.724
289.293
289.863
290.432
291
291.569
292.137
292.705
293.273
293.842
294.41
294.98
295.549
296.119
296.686
297.252
297.817
298.378
298.939
299.501
300.062
300.625
301.187
301.75
302.313
302.878
303.443
304.011
304.578
305.14
305.699
306.256
306.807
307.36
307.915
308.472
309.032
309.594
310.159
310.728
311.296
311.855
312.41
312.959
313.501
314.05
314.606
315.172
315.727
316.279
316.87
317.296
273.182
273.563
274.197
274.812
275.395
275.976
276.562
277.149
277.734
278.319
278.902
279.485
280.067
280.648
281.229
281.811
282.392
282.973
283.555
284.136
284.716
285.297
285.877
286.457
287.037
287.618
288.199
288.78
289.362
289.945
290.529
291.114
291.698
292.279
292.859
293.435
294.013
294.591
295.17
295.75
296.331
296.914
297.497
298.082
298.668
299.257
299.846
300.431
301.01
301.585
302.153
302.725
303.298
303.874
304.451
305.03
305.612
306.198
306.782
307.356
307.921
308.475
309.024
309.581
310.147
310.722
311.288
311.848
312.441
312.88
269.44
269.818
270.44
271.049
271.629
272.208
272.793
273.378
273.962
274.544
275.126
275.706
276.287
276.867
277.447
278.028
278.61
279.191
279.773
280.354
280.935
281.517
282.097
282.679
283.26
283.842
284.424
285.007
285.591
286.176
286.762
287.349
287.934
288.518
289.097
289.675
290.253
290.834
291.414
291.995
292.577
293.162
293.746
294.334
294.922
295.514
296.106
296.693
297.273
297.846
298.415
298.987
299.561
300.137
300.715
301.296
301.88
302.468
303.055
303.631
304.194
304.745
305.293
305.85
306.417
306.995
307.566
308.129
308.718
309.163
266.063
266.457
267.085
267.701
268.288
268.877
269.468
270.06
270.648
271.234
271.818
272.402
272.984
273.567
274.149
274.731
275.313
275.895
276.476
277.057
277.637
278.216
278.795
279.374
279.952
280.531
281.109
281.689
282.268
282.849
283.43
284.013
284.593
285.17
285.743
286.314
286.885
287.457
288.029
288.603
289.177
289.753
290.329
290.908
291.488
292.072
292.656
293.236
293.807
294.371
294.93
295.495
296.062
296.634
297.208
297.786
298.369
298.958
299.549
300.129
300.694
301.246
301.798
302.362
302.938
303.528
304.112
304.688
305.283
305.742
263.547
263.944
264.565
265.171
265.749
266.327
266.907
267.486
268.063
268.638
269.212
269.786
270.36
270.934
271.508
272.083
272.658
273.234
273.809
274.384
274.958
275.532
276.105
276.679
277.252
277.826
278.4
278.976
279.551
280.129
280.707
281.286
281.864
282.438
283.006
283.573
284.14
284.71
285.279
285.849
286.42
286.994
287.567
288.144
288.722
289.304
289.886
290.464
291.031
291.59
292.145
292.706
293.27
293.838
294.409
294.985
295.565
296.152
296.741
297.319
297.88
298.425
298.972
299.533
300.107
300.697
301.281
301.856
302.445
302.905
261.832
262.238
262.853
263.453
264.023
264.594
265.166
265.737
266.306
266.874
267.44
268.007
268.574
269.14
269.706
270.273
270.839
271.405
271.971
272.536
273.1
273.664
274.227
274.791
275.354
275.918
276.482
277.048
277.614
278.181
278.75
279.321
279.89
280.454
281.013
281.571
282.129
282.69
283.251
283.814
284.378
284.944
285.512
286.083
286.655
287.232
287.81
288.383
288.945
289.496
290.044
290.598
291.156
291.716
292.28
292.849
293.421
294.001
294.582
295.152
295.699
296.23
296.762
297.31
297.871
298.448
299.02
299.582
300.152
300.602
260.367
260.771
261.371
261.952
262.506
263.06
263.617
264.174
264.729
265.285
265.84
266.395
266.95
267.507
268.062
268.619
269.175
269.733
270.29
270.847
271.402
271.958
272.514
273.07
273.626
274.184
274.741
275.3
275.86
276.421
276.984
277.549
278.112
278.671
279.223
279.774
280.326
280.881
281.436
281.993
282.55
283.11
283.672
284.237
284.803
285.375
285.947
286.515
287.069
287.612
288.152
288.699
289.249
289.803
290.359
290.921
291.486
292.06
292.636
293.199
293.737
294.258
294.782
295.322
295.876
296.449
297.016
297.575
298.135
298.584
260.331
260.732
261.315
261.883
262.426
262.97
263.517
264.065
264.61
265.156
265.7
266.244
266.787
267.33
267.872
268.415
268.956
269.498
270.039
270.579
271.118
271.656
272.193
272.731
273.268
273.806
274.343
274.882
275.421
275.962
276.503
277.047
277.588
278.124
278.652
279.179
279.707
280.238
280.768
281.3
281.832
282.367
282.904
283.443
283.985
284.531
285.079
285.622
286.15
286.666
287.18
287.702
288.227
288.757
289.291
289.831
290.377
290.932
291.491
292.038
292.558
293.06
293.567
294.094
294.636
295.2
295.76
296.312
296.858
297.3
259.643
260.031
260.59
261.136
261.658
262.182
262.71
263.239
263.766
264.294
264.822
265.35
265.878
266.407
266.935
267.464
267.993
268.524
269.053
269.583
270.111
270.639
271.167
271.695
272.223
272.753
273.282
273.813
274.343
274.877
275.411
275.948
276.482
277.011
277.531
278.051
278.572
279.095
279.618
280.144
280.669
281.198
281.728
282.262
282.797
283.337
283.879
284.416
284.938
285.446
285.953
286.468
286.986
287.51
288.038
288.572
289.112
289.662
290.215
290.758
291.271
291.765
292.266
292.788
293.325
293.886
294.443
294.993
295.533
295.976
261.739
262.116
262.652
263.178
263.682
264.188
264.695
265.203
265.709
266.215
266.719
267.223
267.726
268.229
268.731
269.233
269.734
270.236
270.736
271.235
271.733
272.231
272.727
273.224
273.72
274.217
274.713
275.212
275.71
276.211
276.713
277.217
277.719
278.215
278.701
279.187
279.674
280.164
280.653
281.146
281.638
282.135
282.632
283.133
283.637
284.147
284.658
285.165
285.653
286.126
286.599
287.08
287.566
288.057
288.551
289.053
289.561
290.08
290.603
291.114
291.589
292.043
292.506
292.991
293.493
294.02
294.546
295.062
295.558
295.967
261.458
261.811
262.321
262.826
263.31
263.795
264.282
264.771
265.258
265.747
266.235
266.724
267.213
267.702
268.191
268.681
269.17
269.661
270.149
270.639
271.126
271.614
272.1
272.588
273.075
273.563
274.051
274.541
275.031
275.524
276.017
276.514
277.008
277.496
277.973
278.451
278.93
279.413
279.894
280.378
280.863
281.352
281.841
282.335
282.83
283.333
283.836
284.336
284.816
285.282
285.746
286.221
286.699
287.183
287.67
288.165
288.666
289.178
289.694
290.199
290.669
291.117
291.575
292.056
292.555
293.078
293.6
294.116
294.61
295.024
267.56
267.881
268.345
268.811
269.257
269.702
270.147
270.593
271.036
271.479
271.919
272.36
272.798
273.236
273.671
274.107
274.541
274.976
275.408
275.839
276.267
276.695
277.121
277.548
277.973
278.399
278.824
279.251
279.677
280.106
280.535
280.968
281.398
281.819
282.228
282.638
283.048
283.461
283.874
284.289
284.705
285.124
285.544
285.97
286.397
286.83
287.267
287.697
288.103
288.491
288.879
289.278
289.68
290.089
290.503
290.925
291.354
291.796
292.244
292.677
293.065
293.427
293.803
294.206
294.63
295.084
295.543
295.984
296.391
296.733
267.16
267.359
267.769
268.213
268.63
269.042
269.454
269.868
270.279
270.691
271.101
271.512
271.92
272.33
272.737
273.145
273.551
273.959
274.364
274.768
275.17
275.573
275.974
276.376
276.776
277.178
277.58
277.984
278.387
278.794
279.202
279.613
280.022
280.424
280.812
281.203
281.595
281.991
282.387
282.786
283.186
283.591
283.997
284.409
284.823
285.245
285.67
286.09
286.489
286.87
287.253
287.648
288.047
288.453
288.864
289.284
289.712
290.152
290.598
291.032
291.427
291.799
292.184
292.596
293.027
293.486
293.946
294.4
294.822
295.189
283.444
283.501
283.792
284.144
284.465
284.772
285.075
285.377
285.673
285.965
286.251
286.535
286.814
287.09
287.36
287.628
287.891
288.154
288.41
288.663
288.91
289.156
289.396
289.636
289.871
290.107
290.339
290.573
290.805
291.039
291.273
291.511
291.743
291.961
292.161
292.361
292.562
292.766
292.968
293.174
293.38
293.591
293.804
294.023
294.246
294.477
294.714
294.942
295.131
295.294
295.462
295.643
295.831
296.028
296.234
296.453
296.683
296.932
297.192
297.43
297.597
297.733
297.894
298.093
298.325
298.598
298.892
299.142
299.342
299.522
283.275
282.023
282.017
282.437
282.732
282.952
283.173
283.4
283.622
283.839
284.049
284.258
284.46
284.66
284.854
285.046
285.233
285.421
285.602
285.781
285.954
286.126
286.294
286.462
286.627
286.792
286.956
287.121
287.285
287.452
287.62
287.793
287.962
288.116
288.251
288.391
288.534
288.68
288.827
288.978
289.131
289.291
289.454
289.624
289.8
289.984
290.175
290.36
290.512
290.642
290.781
290.936
291.098
291.272
291.455
291.651
291.859
292.084
292.32
292.541
292.712
292.864
293.04
293.249
293.485
293.756
294.036
294.294
294.54
294.726
340.969
336.64
335.23
335.129
334.79
334.243
333.699
333.181
332.661
332.136
331.604
331.071
330.533
329.993
329.448
328.901
328.35
327.801
327.245
326.685
326.12
325.553
324.982
324.411
323.838
323.267
322.695
322.126
321.559
320.996
320.436
319.884
319.323
318.718
318.07
317.425
316.781
316.139
315.495
314.855
314.217
313.586
312.959
312.342
311.733
311.136
310.551
309.94
309.216
308.417
307.629
306.856
306.091
305.34
304.605
303.892
303.201
302.541
301.914
301.211
300.282
299.254
298.291
297.406
296.597
295.882
295.269
294.404
293.396
292.584
342.455
331.932
324.196
318.627
314.433
311.201
308.703
306.754
305.206
303.951
302.911
302.034
301.282
300.631
300.06
299.559
299.115
298.722
298.373
298.062
297.785
297.538
297.317
297.12
296.944
296.787
296.647
296.522
296.41
296.311
296.222
296.144
296.075
296.014
295.96
295.912
295.871
295.835
295.803
295.776
295.753
295.733
295.716
295.702
295.69
295.681
295.673
295.666
295.661
295.657
295.654
295.651
295.65
295.648
295.647
295.646
295.645
295.644
295.643
295.641
295.639
295.636
295.633
295.629
295.624
295.618
295.612
295.605
295.598
295.591
295.584
295.577
295.572
295.566
295.556
335.427
329.838
324.655
320.527
316.923
313.725
311.013
308.776
306.936
305.421
304.168
303.125
302.245
301.496
300.849
300.286
299.792
299.355
298.966
298.619
298.309
298.032
297.783
297.559
297.359
297.18
297.019
296.876
296.747
296.632
296.529
296.436
296.354
296.281
296.215
296.157
296.105
296.059
296.019
295.983
295.951
295.923
295.899
295.878
295.859
295.843
295.828
295.816
295.805
295.796
295.787
295.78
295.773
295.767
295.762
295.757
295.751
295.746
295.741
295.736
295.73
295.724
295.717
295.71
295.702
295.693
295.683
295.673
295.662
295.65
295.637
295.624
295.611
295.597
295.569
327.739
324.467
320.991
318.389
316.133
313.922
311.836
309.954
308.272
306.776
305.458
304.307
303.306
302.435
301.68
301.025
300.455
299.96
299.526
299.145
298.807
298.506
298.236
297.994
297.777
297.581
297.404
297.244
297.101
296.971
296.854
296.749
296.655
296.57
296.493
296.425
296.363
296.308
296.259
296.214
296.175
296.139
296.108
296.079
296.054
296.032
296.011
295.993
295.976
295.961
295.948
295.935
295.924
295.913
295.903
295.893
295.884
295.874
295.865
295.856
295.846
295.836
295.826
295.815
295.803
295.79
295.776
295.761
295.745
295.727
295.707
295.685
295.662
295.635
295.582
322.863
320.837
318.38
316.44
314.664
312.855
311.133
309.594
308.232
307.015
305.924
304.946
304.063
303.262
302.531
301.865
301.263
300.721
300.235
299.801
299.413
299.068
298.76
298.485
298.24
298.021
297.826
297.65
297.493
297.351
297.222
297.107
297.002
296.907
296.821
296.743
296.672
296.608
296.549
296.495
296.447
296.403
296.363
296.327
296.294
296.265
296.238
296.213
296.191
296.17
296.151
296.133
296.117
296.101
296.086
296.072
296.058
296.044
296.031
296.017
296.004
295.99
295.975
295.96
295.944
295.926
295.908
295.887
295.864
295.839
295.81
295.778
295.743
295.701
295.619
318.337
316.808
314.984
313.741
312.622
311.372
310.086
308.868
307.735
306.684
305.721
304.854
304.077
303.379
302.749
302.176
301.656