/*--------------------------------*- C++ -*----------------------------------*\
  =========                 |
  \\      /  F ield         | OpenFOAM: The Open Source CFD Toolbox
   \\    /   O peration     | Website:  https://openfoam.org
    \\  /    A nd           | Version:  6.0
     \\/     M anipulation  |
\*---------------------------------------------------------------------------*/
FoamFile
{
    version     2.0;
    format      ascii;
    class       volVectorField;
    location    "2.1";
    object      U;
}
// * * * * * * * * * * * * * * * * * * * * * * * * * * * * * * * * * * * * * //

dimensions      [0 1 -1 0 0 0 0];

internalField   nonuniform List<vector> 
24000
(
(0.999994 -1.03382e-06 -7.96254e-17)
(0.999947 -2.32907e-05 1.08412e-16)
(0.999868 -6.83491e-05 -1.90606e-16)
(0.999778 -0.000142188 2.10316e-16)
(0.999708 -0.000237608 -1.03755e-15)
(0.999676 -0.000334076 -6.15028e-16)
(0.999688 -0.000412425 6.29656e-16)
(0.999742 -0.000451739 -1.39508e-15)
(0.999828 -0.000427093 4.37915e-16)
(0.999926 -0.000329406 -3.21962e-16)
(1.00001 -8.44964e-06 -3.1141e-16)
(1.00122 0.00128534 -4.61328e-16)
(0.999988 -7.00848e-06 1.16728e-16)
(0.999905 -5.47099e-05 -1.60422e-16)
(0.999764 -0.000142395 3.56168e-16)
(0.999607 -0.0002826 -8.89317e-17)
(0.999488 -0.000458104 4.61781e-16)
(0.999443 -0.000627734 6.21988e-16)
(0.999476 -0.000759567 -3.50287e-16)
(0.999584 -0.000817185 1.48198e-15)
(0.999747 -0.000756428 -3.1095e-16)
(0.999937 -0.000568337 1.59604e-17)
(1.00004 -5.68326e-06 8.13384e-17)
(1.00218 0.00193241 1.53594e-16)
(0.999987 -1.36874e-05 -8.89081e-17)
(0.999914 -7.49042e-05 2.16157e-16)
(0.999791 -0.000170734 -1.23445e-16)
(0.999654 -0.000314332 4.51388e-16)
(0.999556 -0.000485332 2.51499e-16)
(0.999528 -0.000640198 2.31327e-16)
(0.999574 -0.000750617 5.18088e-16)
(0.999689 -0.000787055 -6.5879e-16)
(0.999852 -0.000707717 -3.67639e-16)
(1.00005 -0.000520719 -1.29768e-16)
(1.00007 6.9433e-06 -2.90218e-17)
(1.00227 0.00156449 4.85867e-16)
(0.999985 -2.07153e-05 -3.79634e-17)
(0.999925 -9.47782e-05 -2.04518e-16)
(0.999826 -0.000197342 -3.15789e-16)
(0.999714 -0.00034082 -2.23779e-16)
(0.999635 -0.000504705 -1.31063e-16)
(0.999619 -0.000647749 -9.05454e-16)
(0.999668 -0.0007459 -1.43441e-15)
(0.999779 -0.00077721 1.63886e-16)
(0.999932 -0.000702296 4.69234e-17)
(1.00013 -0.000536231 6.44986e-16)
(1.00011 -7.91385e-05 -4.11567e-16)
(1.0021 0.00116804 -5.68423e-16)
(0.999982 -2.77927e-05 6.76321e-17)
(0.999925 -0.000116612 3.30159e-17)
(0.999835 -0.000232927 1.60035e-16)
(0.999731 -0.000387504 -7.56444e-17)
(0.999658 -0.000559929 2.07847e-16)
(0.999643 -0.000710536 1.87076e-16)
(0.999694 -0.000816041 1.45112e-15)
(0.999808 -0.00085645 -9.48076e-17)
(0.999966 -0.000790281 -2.79688e-16)
(1.00019 -0.000625079 7.60021e-17)
(1.00016 -0.000190156 2.84026e-16)
(1.00194 0.00096718 -1.50516e-16)
(0.999977 -3.4798e-05 3.91381e-18)
(0.999922 -0.000138691 -1.89983e-17)
(0.999838 -0.000270201 -2.13604e-17)
(0.999742 -0.000436231 -3.86718e-18)
(0.999677 -0.000616034 -8.6258e-16)
(0.999668 -0.000771351 1.05553e-15)
(0.999725 -0.000878727 2.92913e-17)
(0.999848 -0.000918431 1.46149e-16)
(1.00002 -0.000847184 6.9126e-16)
(1.00027 -0.000662432 -3.40198e-16)
(1.00026 -0.000220439 5.15394e-16)
(1.00185 0.000918864 3.44841e-16)
(0.999971 -4.18637e-05 -3.54177e-18)
(0.999919 -0.000160483 2.0487e-16)
(0.999846 -0.000305847 -2.07757e-16)
(0.999764 -0.000478955 -1.01293e-16)
(0.999714 -0.000658817 4.43283e-16)
(0.999717 -0.000809245 -2.18053e-16)
(0.999786 -0.000907253 -6.03885e-16)
(0.99992 -0.00093422 -3.13283e-16)
(1.0001 -0.000847517 1.22089e-16)
(1.00036 -0.000640273 6.01645e-16)
(1.00037 -0.000194869 -1.21659e-15)
(1.00182 0.000900755 3.16189e-16)
(0.999965 -4.91388e-05 -5.23145e-17)
(0.999916 -0.000182558 7.93142e-17)
(0.999853 -0.000341722 2.39397e-16)
(0.999786 -0.000520937 4.5317e-16)
(0.999752 -0.000699595 2.41237e-16)
(0.999769 -0.000844191 -2.67672e-16)
(0.99985 -0.000932483 -2.9103e-16)
(0.999995 -0.000947198 -1.39491e-16)
(1.00018 -0.000847223 4.8183e-17)
(1.00046 -0.00062655 -1.30329e-16)
(1.00049 -0.000190964 1.04162e-15)
(1.00181 0.000827281 -5.46705e-16)
(0.999959 -5.66818e-05 2.05977e-17)
(0.999911 -0.000205238 -1.94772e-16)
(0.999856 -0.000379193 1.461e-17)
(0.999801 -0.000566284 -7.23159e-17)
(0.999779 -0.000746974 7.2973e-17)
(0.999807 -0.000890707 -6.11017e-17)
(0.999898 -0.000975999 5.11946e-17)
(1.00005 -0.00098617 5.58585e-16)
(1.00025 -0.000880931 -6.92181e-17)
(1.00054 -0.000655719 -7.89389e-16)
(1.0006 -0.000235791 -8.78695e-16)
(1.00181 0.000702772 9.72613e-16)
(0.999951 -6.44799e-05 7.32055e-17)
(0.999905 -0.000228307 4.8683e-18)
(0.999855 -0.000417586 1.84472e-16)
(0.999809 -0.000613897 -4.83592e-16)
(0.999797 -0.000799056 -1.15406e-16)
(0.999834 -0.00094545 5.22264e-16)
(0.999934 -0.00103267 -4.436e-16)
(1.0001 -0.00104389 -6.68962e-16)
(1.0003 -0.000938917 2.04868e-16)
(1.00061 -0.000712087 2.05383e-16)
(1.00071 -0.000305094 6.53389e-16)
(1.00183 0.000573743 -1.37553e-16)
(0.999943 -7.25095e-05 -1.00408e-16)
(0.999897 -0.000251448 -2.3117e-17)
(0.999853 -0.000455748 -2.19856e-16)
(0.999815 -0.000661366 3.65733e-17)
(0.999814 -0.000851258 1.67209e-16)
(0.99986 -0.00100038 -3.60422e-16)
(0.99997 -0.00108995 2.7076e-16)
(1.00014 -0.0011028 7.53766e-16)
(1.00036 -0.000998842 -5.61966e-16)
(1.00068 -0.000768717 2.2412e-16)
(1.00082 -0.000369162 -8.4641e-16)
(1.00187 0.000469497 -9.01276e-16)
(0.999934 -8.07251e-05 6.51851e-18)
(0.999889 -0.00027443 1.92017e-16)
(0.99985 -0.000493054 -1.92567e-16)
(0.999821 -0.000707659 1.48907e-16)
(0.99983 -0.000901847 -4.57573e-16)
(0.999888 -0.00105243 -2.03849e-16)
(1.00001 -0.00114252 6.63668e-17)
(1.00019 -0.00115483 -3.02721e-16)
(1.00042 -0.00104993 -3.94034e-16)
(1.00075 -0.00081394 3.62708e-16)
(1.00092 -0.000417982 2.85329e-16)
(1.00192 0.000388596 1.0039e-17)
(0.999924 -8.90643e-05 2.45268e-17)
(0.999881 -0.000297117 -1.91881e-17)
(0.999848 -0.000529341 5.30602e-16)
(0.999827 -0.000752863 1.53054e-16)
(0.999847 -0.000951516 2.61553e-16)
(0.999918 -0.00110308 -2.92337e-16)
(1.00005 -0.00119232 -1.47832e-16)
(1.00025 -0.00120212 1.20527e-16)
(1.00048 -0.00109436 4.65385e-16)
(1.00083 -0.000851318 -1.21858e-15)
(1.00103 -0.000457629 -4.86028e-16)
(1.00198 0.000317217 5.40369e-16)
(0.999914 -9.74331e-05 -7.57503e-17)
(0.999872 -0.000319374 -6.74175e-17)
(0.999846 -0.000564519 -4.19351e-16)
(0.999832 -0.000797098 -3.31342e-16)
(0.999863 -0.00100108 -2.32196e-16)
(0.999946 -0.00115442 3.64922e-16)
(1.00009 -0.00124292 2.50921e-16)
(1.0003 -0.00124971 -2.76406e-16)
(1.00055 -0.00113839 -3.70878e-16)
(1.00091 -0.000888555 -1.32828e-16)
(1.00114 -0.000496832 6.90236e-16)
(1.00204 0.000246286 -4.80162e-16)
(0.999903 -0.00010573 4.07744e-17)
(0.999864 -0.000341095 3.22299e-17)
(0.999844 -0.000598492 4.95349e-17)
(0.999837 -0.000840156 7.90277e-17)
(0.999877 -0.00105042 8.21584e-17)
(0.999973 -0.00120693 -1.48217e-16)
(1.00013 -0.00129576 7.76793e-18)
(1.00036 -0.00130017 -3.82852e-16)
(1.00062 -0.00118551 3.62442e-16)
(1.00099 -0.000929523 1.38134e-15)
(1.00124 -0.000538987 -2.05239e-16)
(1.00211 0.000175239 6.68692e-16)
(0.999892 -0.000113839 -3.93708e-17)
(0.999855 -0.000362203 1.48693e-18)
(0.999843 -0.000631207 1.47833e-16)
(0.999842 -0.000881691 2.09038e-16)
(0.999892 -0.00109878 2.31212e-16)
(1 -0.00125955 -1.50211e-16)
(1.00017 -0.00134979 -2.41869e-16)
(1.00041 -0.00135263 5.91418e-16)
(1.00068 -0.001235 1.43199e-16)
(1.00107 -0.000973121 -1.48882e-15)
(1.00134 -0.000582313 2.35267e-16)
(1.00219 0.000107601 2.21671e-17)
(0.99988 -0.000121648 9.0082e-17)
(0.999846 -0.000382691 3.30939e-17)
(0.999841 -0.000662773 -3.19536e-16)
(0.999849 -0.000921602 1.37895e-16)
(0.999909 -0.0011455 -5.61232e-17)
(1.00003 -0.00131096 3.6731e-16)
(1.00021 -0.00140316 6.25317e-16)
(1.00046 -0.00140485 1.0528e-16)
(1.00075 -0.00128438 5.1044e-16)
(1.00115 -0.00101658 1.23774e-15)
(1.00144 -0.000624179 1.43128e-15)
(1.00227 4.49764e-05 -5.33513e-16)
(0.999867 -0.000129042 3.46237e-17)
(0.999837 -0.000402583 -2.74473e-17)
(0.99984 -0.000693425 3.03926e-16)
(0.999856 -0.000960161 -2.77217e-16)
(0.999926 -0.00119059 3.92377e-16)
(1.00006 -0.00136064 4.03314e-18)
(1.00025 -0.00145485 -4.06525e-16)
(1.00052 -0.00145547 1.2817e-16)
(1.00082 -0.00133215 -4.41966e-16)
(1.00123 -0.0010586 -2.1629e-16)
(1.00155 -0.000664074 -5.74092e-16)
(1.00235 -1.40851e-05 -1.0591e-16)
(0.999853 -0.000135915 -4.15225e-17)
(0.999826 -0.000421936 -2.31121e-16)
(0.999837 -0.000723492 -1.26496e-16)
(0.999864 -0.000997962 1.5525e-16)
(0.999945 -0.00123473 -2.81943e-17)
(1.00009 -0.00140915 -2.6198e-16)
(1.0003 -0.00150532 -5.46339e-17)
(1.00058 -0.00150495 -3.37563e-17)
(1.00089 -0.00137893 -5.30526e-16)
(1.00131 -0.00110018 -3.89125e-16)
(1.00165 -0.000703648 -1.7212e-15)
(1.00243 -7.23819e-05 1.01919e-15)
(0.999838 -0.000142165 -3.95634e-17)
(0.999815 -0.000440784 2.40614e-16)
(0.999833 -0.000753254 -1.71747e-16)
(0.99987 -0.00103564 7.66536e-17)
(0.999964 -0.00127884 -1.88174e-16)
(1.00012 -0.00145763 -4.26276e-16)
(1.00034 -0.00155586 5.40766e-17)
(1.00063 -0.00155476 -6.90423e-17)
(1.00096 -0.00142637 2.87196e-16)
(1.00139 -0.00114314 4.46311e-16)
(1.00175 -0.00074471 1.54032e-15)
(1.00251 -0.000130998 -9.85626e-16)
(0.999822 -0.000147712 2.84572e-17)
(0.999802 -0.000459155 -1.12017e-17)
(0.999827 -0.000782907 2.72358e-17)
(0.999875 -0.00107368 -6.35743e-17)
(0.999981 -0.00132372 -2.3645e-16)
(1.00015 -0.00150714 -9.4594e-18)
(1.00039 -0.00160769 -1.25419e-16)
(1.00069 -0.00160623 -6.69944e-16)
(1.00103 -0.00147583 4.03644e-16)
(1.00148 -0.00118861 2.18572e-16)
(1.00185 -0.000787833 6.51675e-17)
(1.0026 -0.000189527 2.21588e-16)
(0.999805 -0.000152486 3.25504e-17)
(0.999787 -0.000477041 -2.6398e-16)
(0.99982 -0.000812502 5.16866e-16)
(0.999878 -0.00111228 4.91855e-17)
(0.999996 -0.0013697 1.43428e-16)
(1.00018 -0.00155814 8.69489e-16)
(1.00043 -0.00166132 7.15084e-16)
(1.00075 -0.00165979 3.6191e-16)
(1.00111 -0.0015275 -9.5895e-16)
(1.00156 -0.0012363 -2.79631e-16)
(1.00195 -0.000832191 9.24526e-17)
(1.00269 -0.000246446 -3.30839e-17)
(0.999787 -0.00015645 -6.10007e-17)
(0.999772 -0.000494435 1.05159e-16)
(0.999811 -0.000842021 -6.96909e-17)
(0.999879 -0.00115141 -8.85047e-17)
(1.00001 -0.00141674 -2.55168e-16)
(1.0002 -0.00161057 -5.04875e-16)
(1.00047 -0.00171659 -2.7442e-16)
(1.0008 -0.00171507 -2.1764e-17)
(1.00118 -0.00158074 2.7792e-16)
(1.00164 -0.00128525 -2.65006e-16)
(1.00205 -0.00087664 -1.56277e-15)
(1.00278 -0.000301136 7.90137e-16)
(0.999767 -0.000159577 4.45388e-17)
(0.999755 -0.000511318 6.34495e-18)
(0.9998 -0.00087139 -1.89655e-16)
(0.999879 -0.0011909 -1.45053e-16)
(1.00002 -0.00146457 -8.04966e-17)
(1.00023 -0.00166407 -1.18984e-16)
(1.00051 -0.00177303 -2.17054e-16)
(1.00086 -0.00177143 -2.31565e-16)
(1.00125 -0.00163472 -6.75006e-17)
(1.00173 -0.00133455 -2.45875e-16)
(1.00215 -0.000920524 9.27757e-17)
(1.00287 -0.000353476 -1.57233e-16)
(0.999746 -0.000161872 1.52669e-17)
(0.999736 -0.000527696 1.49424e-16)
(0.999789 -0.000900569 4.09012e-17)
(0.999877 -0.00123059 -1.57081e-17)
(1.00003 -0.00151289 9.88492e-17)
(1.00026 -0.0017183 2.77799e-16)
(1.00055 -0.00183025 1.06935e-16)
(1.00092 -0.00182846 2.67464e-16)
(1.00132 -0.00168908 3.13538e-16)
(1.00181 -0.001384 -3.05944e-16)
(1.00225 -0.000964097 1.00369e-15)
(1.00296 -0.00040404 -6.20365e-16)
(0.999723 -0.000163344 -2.07023e-17)
(0.999717 -0.000543574 -1.95492e-17)
(0.999776 -0.000929542 -1.47778e-16)
(0.999875 -0.00127039 -9.72642e-17)
(1.00004 -0.00156153 -3.48676e-17)
(1.00028 -0.00177303 -1.78924e-16)
(1.00059 -0.00188807 1.04139e-17)
(1.00097 -0.00188607 -3.11341e-16)
(1.00139 -0.00174388 -2.70481e-17)
(1.0019 -0.00143392 1.0514e-15)
(1.00235 -0.001008 4.95687e-16)
(1.00306 -0.000453806 5.29276e-17)
(0.9997 -0.000164022 -9.84965e-18)
(0.999697 -0.000558982 -1.14698e-16)
(0.999762 -0.000958347 -5.05448e-17)
(0.999872 -0.00131029 -7.55191e-17)
(1.00005 -0.00161044 5.57543e-16)
(1.00031 -0.00182822 -1.29178e-16)
(1.00063 -0.00194653 1.53782e-16)
(1.00103 -0.00194446 -1.59782e-16)
(1.00146 -0.0017995 -2.55278e-16)
(1.00198 -0.00148487 -2.65122e-16)
(1.00245 -0.00105299 -1.96212e-17)
(1.00315 -0.000503728 -2.00567e-16)
(0.999674 -0.000163931 3.41057e-17)
(0.999675 -0.000573942 -4.08672e-17)
(0.999748 -0.000987032 1.71667e-16)
(0.999868 -0.00135035 3.46579e-16)
(1.00006 -0.0016597 -5.27199e-16)
(1.00033 -0.00188397 4.99001e-16)
(1.00067 -0.00200577 -2.75953e-16)
(1.00108 -0.00200385 -1.44094e-16)
(1.00154 -0.00185631 -1.94117e-16)
(1.00207 -0.00153729 -3.54974e-16)
(1.00254 -0.00109948 -1.5059e-16)
(1.00325 -0.000554026 -1.20344e-16)
(0.999648 -0.000163115 -5.82547e-18)
(0.999652 -0.000588492 -1.56743e-17)
(0.999732 -0.00101566 -1.57863e-17)
(0.999863 -0.00139068 -3.35497e-16)
(1.00007 -0.00170946 -1.44044e-16)
(1.00035 -0.00194045 -1.3048e-17)
(1.00071 -0.002066 -3.89737e-16)
(1.00114 -0.0020645 7.18325e-16)
(1.00161 -0.00191462 -5.86283e-18)
(1.00215 -0.00159146 2.50768e-16)
(1.00264 -0.0011477 1.77595e-16)
(1.00334 -0.000604528 -5.41093e-18)
(0.99962 -0.000161605 -1.89008e-17)
(0.999629 -0.000602647 1.07921e-16)
(0.999715 -0.00104428 3.21405e-17)
(0.999857 -0.00143139 4.61126e-16)
(1.00008 -0.00175991 2.51652e-16)
(1.00038 -0.00199789 -4.22199e-16)
(1.00075 -0.00212743 1.91712e-16)
(1.0012 -0.00212661 -3.7846e-16)
(1.00168 -0.00197458 1.31037e-15)
(1.00224 -0.00164743 -1.01859e-16)
(1.00274 -0.00119752 2.23959e-17)
(1.00344 -0.000655176 -1.40287e-16)
(0.999591 -0.000159453 -1.97225e-17)
(0.999604 -0.000616434 7.53963e-17)
(0.999696 -0.0010729 -9.05727e-17)
(0.999849 -0.00147256 -4.47548e-16)
(1.00008 -0.00181123 4.63436e-16)
(1.0004 -0.00205649 2.71105e-16)
(1.00079 -0.00219026 3.42903e-16)
(1.00125 -0.00219032 1.53443e-16)
(1.00175 -0.00203624 -1.08847e-16)
(1.00232 -0.00170509 5.46522e-16)
(1.00284 -0.00124873 -9.90905e-16)
(1.00353 -0.000705699 1.11673e-15)
(0.999561 -0.0001567 2.74819e-17)
(0.999578 -0.000629859 -1.44303e-16)
(0.999676 -0.0011015 -8.42544e-17)
(0.99984 -0.00151417 -2.68456e-17)
(1.00009 -0.00186348 -1.7725e-16)
(1.00042 -0.00211638 -5.03268e-18)
(1.00083 -0.00225458 -2.81874e-16)
(1.00131 -0.00225562 -2.13351e-16)
(1.00182 -0.00209947 -1.20363e-15)
(1.00241 -0.00176416 -3.97255e-16)
(1.00293 -0.00130088 -2.55311e-16)
(1.00363 -0.000755812 -2.99412e-17)
(0.99953 -0.00015341 1.05395e-17)
(0.999551 -0.000642943 -1.18645e-17)
(0.999655 -0.00113003 -4.26327e-17)
(0.999829 -0.00155618 3.25601e-16)
(1.00009 -0.00191663 -5.52831e-16)
(1.00044 -0.00217753 -4.10269e-16)
(1.00086 -0.00232035 3.52503e-16)
(1.00136 -0.0023224 -2.33318e-17)
(1.00189 -0.00216404 7.29288e-17)
(1.00249 -0.00182428 4.21021e-16)
(1.00303 -0.00135356 -1.68215e-16)
(1.00373 -0.000805298 3.0273e-16)
(0.999498 -0.000149641 -1.51822e-17)
(0.999523 -0.000655699 1.70156e-16)
(0.999633 -0.00115842 2.88637e-16)
(0.999817 -0.00159844 -9.61678e-17)
(1.00009 -0.00197049 4.35577e-17)
(1.00046 -0.00223976 1.82283e-16)
(1.0009 -0.00238735 -4.20851e-16)
(1.00141 -0.00239037 4.4314e-16)
(1.00196 -0.00222959 3.44554e-16)
(1.00257 -0.00188498 -2.83874e-16)
(1.00313 -0.0014063 3.22887e-18)
(1.00383 -0.000853978 -1.89729e-17)
(0.999465 -0.000145472 -4.29697e-18)
(0.999494 -0.000668169 -2.47195e-16)
(0.999611 -0.00118665 -4.8518e-17)
(0.999804 -0.00164082 5.79578e-17)
(1.0001 -0.00202485 6.52212e-16)
(1.00047 -0.0023028 5.2075e-17)
(1.00093 -0.00245528 3.90764e-16)
(1.00146 -0.0024592 -7.23801e-16)
(1.00203 -0.00229572 3.63502e-16)
(1.00266 -0.00194589 -4.36627e-16)
(1.00323 -0.00145881 9.36351e-16)
(1.00393 -0.000901677 -4.64337e-16)
(0.99943 -0.000140977 2.14789e-17)
(0.999464 -0.000680395 1.09595e-16)
(0.999588 -0.00121469 -1.16393e-16)
(0.999791 -0.00168318 4.79149e-17)
(1.0001 -0.00207947 -3.92342e-16)
(1.00049 -0.00236633 -1.38141e-16)
(1.00097 -0.00252378 2.26799e-17)
(1.00152 -0.0025285 5.18659e-16)
(1.00211 -0.0023621 3.13053e-16)
(1.00275 -0.00200675 -2.16104e-17)
(1.00333 -0.00151094 1.23372e-15)
(1.00403 -0.000948692 -6.07452e-16)
(0.999395 -0.000136247 1.44406e-18)
(0.999434 -0.000692452 1.1962e-16)
(0.999564 -0.00124259 1.19506e-16)
(0.999778 -0.00172549 -1.4405e-17)
(1.0001 -0.00213418 2.86936e-16)
(1.00051 -0.00243012 3.71046e-16)
(1.001 -0.00259261 -1.13228e-16)
(1.00157 -0.00259807 5.21021e-16)
(1.00218 -0.00242857 -1.19557e-15)
(1.00283 -0.00206752 -1.32614e-16)
(1.00342 -0.00156283 -1.77595e-15)
(1.00413 -0.000995721 1.40153e-16)
(0.999358 -0.000131361 -6.22972e-17)
(0.999402 -0.000704416 7.44283e-17)
(0.99954 -0.00127044 -2.12685e-17)
(0.999764 -0.00176778 1.55149e-16)
(1.0001 -0.00218895 -2.13643e-16)
(1.00052 -0.00249406 -5.20701e-16)
(1.00104 -0.00266163 -4.0055e-17)
(1.00163 -0.0026678 -3.71376e-16)
(1.00225 -0.00249514 1.27354e-15)
(1.00292 -0.00212831 -4.28989e-17)
(1.00352 -0.00161466 3.81126e-16)
(1.00423 -0.00104301 7.00483e-16)
(0.999321 -0.000126413 1.5492e-17)
(0.99937 -0.000716386 -3.19094e-16)
(0.999515 -0.00129836 1.09977e-16)
(0.99975 -0.00181019 -5.10078e-16)
(1.0001 -0.00224387 2.55212e-16)
(1.00054 -0.0025582 8.45014e-16)
(1.00107 -0.00273091 -2.19106e-16)
(1.00168 -0.00273781 -5.18824e-16)
(1.00232 -0.00256197 -4.05287e-16)
(1.003 -0.0021894 -8.01252e-17)
(1.00362 -0.00166681 3.95025e-16)
(1.00433 -0.00109072 -6.40502e-16)
(0.999282 -0.000121477 3.553e-17)
(0.999337 -0.000728446 9.27069e-17)
(0.999489 -0.0013265 -3.33986e-16)
(0.999735 -0.00185288 4.62582e-16)
(1.0001 -0.0022991 -6.95525e-16)
(1.00056 -0.00262272 -6.94789e-16)
(1.00111 -0.0028006 2.64877e-16)
(1.00173 -0.00280829 9.31511e-16)
(1.00239 -0.00262931 -5.24714e-16)
(1.00309 -0.00225102 2.11116e-16)
(1.00372 -0.00171949 -1.70468e-16)
(1.00443 -0.00113907 5.99983e-17)
(0.999243 -0.000116638 -6.05211e-18)
(0.999302 -0.000740692 2.00085e-16)
(0.999462 -0.00135501 2.66469e-16)
(0.99972 -0.00189608 -3.17186e-16)
(1.00009 -0.00235491 1.54313e-16)
(1.00057 -0.00268786 4.28e-16)
(1.00114 -0.00287098 1.43932e-16)
(1.00179 -0.0028795 -9.65491e-17)
(1.00246 -0.00269742 7.35519e-16)
(1.00318 -0.00231345 3.74221e-16)
(1.00382 -0.00177289 7.0337e-17)
(1.00453 -0.00118835 6.33021e-17)
(0.999202 -0.000111956 1.36058e-17)
(0.999267 -0.000753196 -2.23208e-16)
(0.999434 -0.00138402 -5.89677e-17)
(0.999703 -0.00193996 1.24221e-16)
(1.00009 -0.00241152 7.50986e-16)
(1.00059 -0.00275389 -3.85202e-16)
(1.00118 -0.00294229 -3.28183e-16)
(1.00184 -0.00295168 -7.45806e-17)
(1.00253 -0.00276651 -7.27484e-16)
(1.00326 -0.00237684 4.22918e-16)
(1.00392 -0.00182706 -5.88127e-17)
(1.00463 -0.00123845 3.76548e-16)
(0.999161 -0.000107503 -1.0796e-17)
(0.99923 -0.000766031 1.39762e-16)
(0.999405 -0.00141363 -9.64331e-17)
(0.999685 -0.00198469 3.61859e-16)
(1.00009 -0.00246914 -7.05506e-16)
(1.0006 -0.00282102 4.95704e-16)
(1.00121 -0.00301475 -4.82256e-17)
(1.00189 -0.00302501 -5.03802e-17)
(1.00261 -0.00283673 7.52751e-16)
(1.00335 -0.00244128 -2.90157e-16)
(1.00402 -0.0018821 -2.37321e-16)
(1.00473 -0.00128927 -9.51053e-17)
(0.999119 -0.000103328 1.51966e-18)
(0.999191 -0.000779242 -2.60497e-17)
(0.999374 -0.00144389 1.17506e-16)
(0.999666 -0.00203034 -4.01371e-16)
(1.00009 -0.00252788 3.48327e-16)
(1.00062 -0.00288937 1.1655e-16)
(1.00124 -0.00308845 1.67861e-16)
(1.00194 -0.00309956 -8.76383e-16)
(1.00268 -0.00290809 -3.67669e-16)
(1.00344 -0.00250674 -1.32212e-15)
(1.00411 -0.00193805 -6.90694e-16)
(1.00484 -0.00134063 -7.07616e-16)
(0.999076 -9.94917e-05 -1.97283e-17)
(0.999152 -0.000792881 1.80585e-17)
(0.999342 -0.00147486 -2.20196e-16)
(0.999645 -0.00207698 1.44757e-17)
(1.00008 -0.00258779 -8.84924e-17)
(1.00063 -0.00295899 5.2657e-18)
(1.00128 -0.00316344 3.101e-16)
(1.002 -0.00317536 1.18482e-15)
(1.00275 -0.00298059 1.02993e-16)
(1.00352 -0.0025732 8.25147e-16)
(1.00421 -0.00199473 -1.20991e-16)
(1.00494 -0.00139252 1.28417e-15)
(0.999032 -9.6032e-05 1.89815e-17)
(0.999111 -0.000806974 1.09642e-17)
(0.999308 -0.00150655 2.97581e-16)
(0.999623 -0.0021246 -1.74045e-16)
(1.00007 -0.00264887 -2.03793e-16)
(1.00064 -0.00302986 -2.3537e-16)
(1.00131 -0.00323969 -1.42764e-16)
(1.00205 -0.00325236 -4.75057e-16)
(1.00282 -0.00305418 8.5492e-17)
(1.00361 -0.00264061 8.19825e-16)
(1.00431 -0.00205222 7.95258e-16)
(1.00504 -0.00144462 -1.14046e-15)
(0.998987 -9.29998e-05 -1.93791e-17)
(0.999068 -0.00082156 -2.39719e-16)
(0.999273 -0.00153896 -1.27612e-16)
(0.9996 -0.00217318 2.92295e-17)
(1.00007 -0.00271106 5.10887e-16)
(1.00065 -0.00310193 -4.05098e-16)
(1.00134 -0.00331713 -3.6152e-16)
(1.0021 -0.00333051 -4.46876e-16)
(1.00289 -0.00312883 -5.35683e-16)
(1.00369 -0.00270897 -1.77131e-15)
(1.00441 -0.00211099 -5.91893e-16)
(1.00515 -0.0014972 5.78172e-16)
(0.998942 -9.04251e-05 9.69863e-18)
(0.999025 -0.000836654 2.00208e-16)
(0.999237 -0.00157211 6.03807e-17)
(0.999576 -0.0022227 3.72521e-16)
(1.00006 -0.00277433 -5.89677e-16)
(1.00066 -0.00317512 5.74794e-16)
(1.00137 -0.00339569 -6.85429e-18)
(1.00215 -0.00340974 1.05308e-15)
(1.00295 -0.0032045 3.80154e-16)
(1.00378 -0.00277824 2.30997e-15)
(1.0045 -0.00217111 3.29141e-16)
(1.00525 -0.00155006 5.38832e-16)
(0.998896 -8.83486e-05 -1.98017e-17)
(0.99898 -0.000852289 4.30088e-17)
(0.9992 -0.001606 9.36649e-17)
(0.99955 -0.00227315 -1.45686e-16)
(1.00005 -0.00283864 5.03847e-16)
(1.00067 -0.00324941 -6.06439e-16)
(1.0014 -0.00347535 5.53658e-16)
(1.0022 -0.00349006 -1.42105e-16)
(1.00302 -0.00328122 2.31922e-16)
(1.00386 -0.0028485 -1.68454e-15)
(1.0046 -0.00223233 1.00011e-15)
(1.00535 -0.00160283 -1.20242e-15)
(0.998849 -8.6788e-05 2.12987e-17)
(0.998935 -0.000868476 -1.1906e-16)
(0.999162 -0.00164064 -1.73087e-16)
(0.999523 -0.00232453 -1.7112e-16)
(1.00004 -0.00290398 5.2194e-17)
(1.00068 -0.00332477 -1.5966e-16)
(1.00143 -0.00355611 -3.01574e-16)
(1.00225 -0.00357148 -6.69158e-16)
(1.00309 -0.00335903 -2.39634e-16)
(1.00395 -0.00291976 3.93703e-16)
(1.0047 -0.00229465 -9.82413e-16)
(1.00546 -0.00165531 6.95176e-16)
(0.998802 -8.57696e-05 5.13208e-17)
(0.998888 -0.000885239 1.44772e-17)
(0.999122 -0.00167604 -4.60603e-17)
(0.999496 -0.00237684 1.24354e-16)
(1.00003 -0.00297037 -6.88045e-16)
(1.00069 -0.00340123 1.16457e-16)
(1.00145 -0.00363799 5.04625e-16)
(1.00229 -0.00365404 -2.81686e-16)
(1.00316 -0.00343797 9.46127e-17)
(1.00403 -0.00299206 -1.23932e-16)
(1.00479 -0.00235831 2.24236e-16)
(1.00556 -0.00170786 -5.23834e-16)
(0.998754 -8.52953e-05 -3.35014e-17)
(0.99884 -0.000902585 7.35862e-17)
(0.999082 -0.0017122 -1.34647e-16)
(0.999467 -0.00243007 -8.06634e-17)
(1.00001 -0.00303779 5.11861e-16)
(1.00069 -0.00347879 2.11691e-16)
(1.00148 -0.003721 -2.23425e-16)
(1.00234 -0.00373773 4.5824e-16)
(1.00323 -0.00351804 1.50819e-16)
(1.00411 -0.00306534 2.97467e-16)
(1.00489 -0.0024231 -3.06196e-16)
(1.00567 -0.00176028 -1.10008e-17)
(0.998705 -8.53746e-05 -5.13067e-17)
(0.998791 -0.00092053 -2.67075e-17)
(0.99904 -0.00174913 1.38804e-16)
(0.999437 -0.00248422 1.22693e-16)
(1 -0.00310624 1.59578e-16)
(1.0007 -0.00355746 4.31615e-16)
(1.00151 -0.00380516 -1.93671e-16)
(1.00239 -0.00382257 -8.63616e-17)
(1.00329 -0.00359919 -1.82979e-16)
(1.0042 -0.00313956 -6.68819e-18)
(1.00499 -0.00248873 6.62733e-18)
(1.00578 -0.0018121 3.83428e-16)
(0.998656 -8.59921e-05 8.63168e-17)
(0.998741 -0.000939073 -1.3998e-17)
(0.998997 -0.0017868 1.60448e-16)
(0.999407 -0.00253925 -7.33004e-17)
(0.999986 -0.00317569 -1.40495e-16)
(1.0007 -0.00363718 -5.68251e-16)
(1.00153 -0.00389039 -3.44092e-16)
(1.00243 -0.00390849 2.24011e-16)
(1.00336 -0.00368134 3.5271e-17)
(1.00428 -0.00321462 5.36e-17)
(1.00509 -0.00255489 8.28648e-17)
(1.00588 -0.00186355 3.42695e-17)
(0.998606 -8.71415e-05 -8.60932e-17)
(0.99869 -0.000958229 1.31754e-16)
(0.998954 -0.0018252 -2.36223e-16)
(0.999375 -0.00259511 1.62554e-16)
(0.99997 -0.00324606 -3.77184e-18)
(1.00071 -0.00371791 3.85778e-16)
(1.00156 -0.00397665 3.3582e-16)
(1.00248 -0.0039954 -2.24228e-16)
(1.00343 -0.00376441 3.6877e-16)
(1.00437 -0.00329041 -2.38873e-16)
(1.00518 -0.0026213 7.12639e-16)
(1.00599 -0.00191452 7.17749e-16)
(0.998555 -8.87937e-05 6.59779e-17)
(0.998639 -0.00097799 -9.53742e-17)
(0.998909 -0.0018643 -4.00782e-17)
(0.999342 -0.00265174 1.21008e-16)
(0.999954 -0.00331728 -1.51883e-16)
(1.00071 -0.00379952 -2.36219e-16)
(1.00158 -0.00406381 3.60741e-16)
(1.00253 -0.00408319 -2.11239e-16)
(1.00349 -0.00384827 -4.49039e-16)
(1.00445 -0.00336683 2.41411e-16)
(1.00528 -0.00268783 -4.09041e-16)
(1.0061 -0.00196551 -5.62299e-16)
(0.998503 -9.09311e-05 2.74297e-17)
(0.998586 -0.000998368 -1.01432e-16)
(0.998863 -0.00190408 4.14519e-16)
(0.999308 -0.0027091 -2.02591e-16)
(0.999936 -0.00338928 8.27931e-17)
(1.00071 -0.00388196 -1.92046e-16)
(1.0016 -0.00415179 -4.7408e-16)
(1.00257 -0.00417177 4.11688e-16)
(1.00356 -0.00393287 4.7425e-16)
(1.00453 -0.00344386 -5.9825e-16)
(1.00538 -0.00275445 -2.33183e-16)
(1.00621 -0.00201711 -1.76278e-16)
(0.99845 -9.35153e-05 -7.86212e-17)
(0.998531 -0.00101936 3.06348e-17)
(0.998817 -0.00194453 -1.87625e-16)
(0.999274 -0.00276714 2.56738e-17)
(0.999919 -0.00346199 1.1427e-16)
(1.00071 -0.00396512 4.66585e-16)
(1.00163 -0.00424051 5.04579e-18)
(1.00262 -0.00426107 -2.43562e-17)
(1.00362 -0.00401816 -6.52103e-16)
(1.00462 -0.0035215 9.56638e-17)
(1.00548 -0.00282125 -1.34543e-16)
(1.00631 -0.00206956 7.18608e-17)
(0.998396 -9.65222e-05 -1.26951e-17)
(0.998476 -0.00104096 -2.33716e-17)
(0.998769 -0.00198566 -2.73813e-16)
(0.999239 -0.00282587 -5.00357e-17)
(0.9999 -0.00353539 -1.79849e-16)
(1.00071 -0.00404898 -1.30134e-16)
(1.00165 -0.00432996 -1.32699e-16)
(1.00266 -0.00435111 1.63014e-16)
(1.00369 -0.00410421 1.83406e-16)
(1.0047 -0.00359984 3.136e-16)
(1.00558 -0.0028883 4.41466e-16)
(1.00642 -0.00212283 -2.27267e-16)
(0.99834 -9.99082e-05 3.07001e-17)
(0.99842 -0.00106318 1.59567e-17)
(0.998721 -0.00202745 2.61425e-16)
(0.999202 -0.00288527 -5.2525e-17)
(0.99988 -0.00360948 -9.6908e-17)
(1.00071 -0.00413356 -1.49322e-16)
(1.00167 -0.00442015 4.42787e-16)
(1.0027 -0.00444193 -2.96881e-16)
(1.00375 -0.00419108 1.04849e-16)
(1.00478 -0.00367902 4.08451e-16)
(1.00568 -0.00295577 -2.5949e-16)
(1.00653 -0.00217724 -4.04359e-17)
(0.998283 -0.000103645 -4.19768e-17)
(0.998363 -0.001086 4.34341e-17)
(0.998671 -0.00206994 8.91017e-17)
(0.999165 -0.0029454 1.89844e-16)
(0.99986 -0.00368431 3.42104e-16)
(1.00071 -0.00421893 -2.54637e-16)
(1.00169 -0.00451118 -1.68865e-16)
(1.00275 -0.00453367 1.7802e-17)
(1.00382 -0.00427891 -3.11199e-16)
(1.00487 -0.0037592 -4.47639e-16)
(1.00578 -0.00302391 5.95621e-16)
(1.00664 -0.00223315 2.48455e-16)
(0.998225 -0.000107685 6.75612e-17)
(0.998304 -0.00110941 8.25517e-17)
(0.99862 -0.00211313 -8.46376e-17)
(0.999127 -0.00300628 -1.72155e-16)
(0.999839 -0.00375995 4.47754e-17)
(1.00071 -0.00430516 4.16926e-16)
(1.00171 -0.00460317 -2.97592e-16)
(1.00279 -0.00462645 -1.0749e-17)
(1.00388 -0.00436786 3.97146e-16)
(1.00495 -0.00384053 -3.89039e-16)
(1.00588 -0.00309302 -5.05764e-16)
(1.00675 -0.00229056 -1.28964e-16)
(0.998165 -0.000111997 8.35886e-18)
(0.998244 -0.0011334 8.45276e-18)
(0.998568 -0.00215705 -2.78491e-16)
(0.999087 -0.00306796 -2.27168e-16)
(0.999816 -0.00383648 -3.82227e-16)
(1.00071 -0.00439239 5.20587e-17)
(1.00173 -0.00469624 8.53517e-17)
(1.00283 -0.00472044 -5.9379e-17)
(1.00395 -0.00445808 -3.26252e-16)
(1.00504 -0.00392315 7.30663e-16)
(1.00598 -0.00316304 3.77919e-16)
(1.00686 -0.00234963 -1.16025e-16)
(0.998103 -0.00011653 -3.96863e-17)
(0.998182 -0.00115793 -7.73618e-17)
(0.998514 -0.00220167 3.71254e-16)
(0.999046 -0.00313048 3.38163e-16)
(0.999792 -0.00391397 -7.43614e-18)
(1.00071 -0.0044807 7.23553e-17)
(1.00175 -0.00479053 -1.12323e-16)
(1.00288 -0.00481577 8.25179e-17)
(1.00401 -0.00454967 3.4731e-16)
(1.00512 -0.00400714 -1.8041e-16)
(1.00608 -0.0032342 1.28351e-16)
(1.00698 -0.00240975 2.15507e-16)
(0.99804 -0.000121248 -2.48336e-18)
(0.998119 -0.00118298 5.35273e-17)
(0.998459 -0.002247 -1.62541e-16)
(0.999003 -0.00319387 -3.19612e-16)
(0.999767 -0.00399248 1.93564e-16)
(1.0007 -0.00457019 -4.43911e-16)
(1.00177 -0.00488613 1.31162e-16)
(1.00292 -0.00491252 -1.94758e-16)
(1.00408 -0.00464274 3.07845e-17)
(1.0052 -0.00409256 1.85037e-16)
(1.00618 -0.00330705 -1.59216e-16)
(1.00709 -0.00247111 -4.80238e-16)
(0.997974 -0.000126099 2.29417e-17)
(0.998055 -0.0012085 -1.48622e-16)
(0.998402 -0.00229302 1.66781e-16)
(0.998959 -0.00325811 2.8015e-16)
(0.999741 -0.00407203 -3.60321e-16)
(1.0007 -0.0046609 -3.04929e-17)
(1.00179 -0.00498311 2.1931e-16)
(1.00296 -0.00501076 -2.64641e-16)
(1.00414 -0.00473732 -3.20542e-16)
(1.00529 -0.00417941 9.06154e-17)
(1.00628 -0.00338168 -2.77398e-16)
(1.0072 -0.00253322 4.2296e-16)
(0.997907 -0.000131049 1.50764e-17)
(0.997989 -0.00123446 7.83323e-17)
(0.998344 -0.00233969 -7.73844e-17)
(0.998914 -0.00332321 2.36084e-16)
(0.999713 -0.00415265 1.75106e-16)
(1.00069 -0.00475287 1.47461e-16)
(1.00181 -0.00508151 -2.47983e-16)
(1.003 -0.00511054 3.7785e-16)
(1.0042 -0.00483345 -3.35977e-18)
(1.00537 -0.0042677 -7.18373e-16)
(1.00638 -0.00345783 1.37223e-16)
(1.00732 -0.00259553 -2.66165e-17)
(0.997839 -0.000136045 -2.40337e-17)
(0.997921 -0.0012608 8.09192e-17)
(0.998284 -0.00238698 -2.69594e-16)
(0.998867 -0.00338914 -1.97788e-16)
(0.999684 -0.00423431 4.02627e-17)
(1.00068 -0.00484609 1.55057e-16)
(1.00182 -0.00518134 2.59028e-16)
(1.00304 -0.00521185 3.53445e-17)
(1.00427 -0.00493113 2.79939e-17)
(1.00546 -0.00435739 4.78351e-16)
(1.00649 -0.00353539 1.45367e-16)
(1.00744 -0.00265765 -2.30911e-16)
(0.997768 -0.000141055 -1.89975e-17)
(0.997853 -0.00128749 -2.24533e-17)
(0.998223 -0.00243484 2.85749e-16)
(0.998818 -0.00345586 4.56621e-18)
(0.999653 -0.004317 2.46224e-16)
(1.00067 -0.00494055 -2.3212e-16)
(1.00184 -0.0052826 -1.51924e-16)
(1.00308 -0.0053147 -4.51245e-17)
(1.00433 -0.00503035 5.43781e-18)
(1.00554 -0.00444847 2.90576e-16)
(1.00659 -0.00361465 -4.52367e-16)
(1.00756 -0.00272015 -2.65497e-16)
(0.997695 -0.000146033 5.18039e-18)
(0.997782 -0.00131448 -7.88782e-17)
(0.99816 -0.00248324 -2.76416e-16)
(0.998768 -0.00352335 4.9284e-17)
(0.999621 -0.00440069 2.3024e-17)
(1.00066 -0.00503625 2.92627e-18)
(1.00185 -0.00538528 -8.02747e-17)
(1.00312 -0.00541909 3.48952e-16)
(1.00439 -0.00513111 3.82478e-16)
(1.00563 -0.0045409 -2.54245e-16)
(1.00669 -0.00369543 6.85234e-16)