1.275 	2.15223e-18 	-2.76991e-20 	-0.0329927 	-0.000636357 	-2.06985e-22
1.825 	2.15223e-18 	-1.39322e-20 	0.00305198 	-0.00390339 	1.71149e-21
2.375 	2.15223e-18 	-2.66896e-23 	0.182879 	-0.00538441 	-6.72983e-22
