1.275 	2.15223e-18 	-2.76991e-20 	-0.0340517 	-0.000442583 	-1.9841e-22
1.825 	2.15223e-18 	-1.39322e-20 	-0.00871601 	-0.00277117 	1.78149e-21
2.375 	2.15223e-18 	-2.66896e-23 	0.117436 	-0.00327544 	-7.4365e-22
