/*--------------------------------*- C++ -*----------------------------------*\
  =========                 |
  \\      /  F ield         | OpenFOAM: The Open Source CFD Toolbox
   \\    /   O peration     | Website:  https://openfoam.org
    \\  /    A nd           | Version:  6.0
     \\/     M anipulation  |
\*---------------------------------------------------------------------------*/
FoamFile
{
    version     2.0;
    format      ascii;
    class       volScalarField;
    location    "22";
    object      p;
}
// * * * * * * * * * * * * * * * * * * * * * * * * * * * * * * * * * * * * * //

dimensions      [0 2 -2 0 0 0 0];

internalField   nonuniform List<scalar> 
2000
(
-0.349246
-0.355151
-0.356837
-0.356164
-0.354301
-0.351619
-0.348399
-0.344932
-0.341508
-0.337804
-0.351967
-0.357451
-0.358797
-0.357823
-0.355671
-0.352715
-0.349232
-0.345505
-0.341826
-0.338002
-0.357426
-0.362051
-0.362706
-0.361122
-0.358389
-0.354877
-0.350859
-0.346595
-0.342387
-0.338319
-0.365665
-0.36895
-0.368542
-0.366032
-0.362417
-0.35806
-0.353217
-0.348109
-0.343055
-0.338597
-0.376743
-0.378145
-0.376275
-0.372513
-0.367714
-0.362214
-0.356239
-0.349933
-0.343629
-0.338579
-0.390724
-0.389621
-0.385866
-0.380525
-0.374246
-0.367315
-0.359892
-0.351982
-0.343902
-0.337935
-0.407642
-0.403337
-0.397253
-0.390025
-0.382009
-0.373405
-0.36427
-0.354373
-0.34387
-0.336406
-0.42744
-0.419192
-0.410346
-0.400955
-0.390988
-0.380527
-0.369487
-0.357239
-0.343291
-0.332841
-0.449906
-0.437015
-0.425029
-0.413272
-0.401222
-0.388773
-0.375527
-0.35996
-0.33987
-0.322552
-0.474606
-0.45654
-0.441203
-0.427124
-0.413333
-0.399632
-0.385263
-0.367592
-0.342547
-0.318564
-0.500852
-0.477341
-0.458597
-0.442423
-0.427689
-0.414772
-0.40401
-0.396044
-0.39617
-0.415688
-0.527822
-0.498841
-0.476596
-0.45806
-0.441718
-0.42803
-0.417468
-0.411094
-0.414036
-0.431292
-0.55479
-0.520582
-0.494925
-0.473918
-0.455549
-0.44018
-0.428178
-0.420261
-0.419538
-0.42734
-0.58111
-0.542092
-0.513271
-0.489823
-0.469181
-0.451529
-0.437028
-0.425931
-0.419713
-0.418359
-0.606031
-0.562703
-0.531011
-0.505129
-0.48191
-0.461336
-0.443367
-0.427879
-0.415293
-0.40565
-0.628564
-0.58148
-0.547199
-0.518831
-0.492681
-0.468598
-0.44646
-0.425956
-0.406919
-0.390116
-0.647424
-0.597214
-0.560605
-0.529645
-0.500205
-0.472143
-0.445422
-0.419737
-0.39467
-0.372002
-0.661052
-0.608449
-0.569766
-0.536086
-0.503053
-0.470715
-0.439288
-0.408619
-0.378259
-0.35107
-0.667686
-0.613547
-0.57306
-0.536563
-0.499751
-0.463058
-0.427094
-0.391938
-0.357223
-0.326822
-0.665458
-0.610768
-0.568793
-0.529464
-0.488865
-0.448001
-0.407954
-0.369055
-0.331049
-0.298671
-0.652514
-0.59837
-0.555296
-0.51326
-0.469106
-0.42454
-0.381139
-0.339446
-0.299289
-0.266081
-0.627118
-0.574712
-0.531031
-0.486614
-0.439414
-0.391915
-0.346145
-0.302773
-0.261654
-0.228683
-0.587798
-0.538388
-0.494721
-0.448487
-0.399053
-0.349679
-0.302744
-0.258943
-0.218082
-0.186341
-0.533457
-0.488337
-0.445454
-0.398229
-0.347668
-0.297731
-0.251017
-0.208136
-0.168777
-0.139197
-0.463492
-0.423963
-0.382785
-0.335643
-0.285316
-0.236325
-0.19134
-0.150804
-0.114214
-0.0876761
-0.377902
-0.345231
-0.306806
-0.261022
-0.212456
-0.166021
-0.124315
-0.0875632
-0.0550301
-0.0324043
-0.277375
-0.252746
-0.218198
-0.175162
-0.129948
-0.0876614
-0.0507127
-0.0191143
0.00805474
0.0257921
-0.163351
-0.147797
-0.118248
-0.079356
-0.0390275
-0.00238734
0.0284089
0.0534247
0.0734987
0.0848831
-0.0380406
-0.032357
-0.0088052
0.0247248
0.0589214
0.0887484
0.112192
0.128841
0.138778
0.141152
0.0956009
0.0909327
0.107716
0.13505
0.162576
0.18557
0.202061
0.210432
0.2094
0.202672
0.233998
0.218806
0.228213
0.248725
0.269478
0.286595
0.298802
0.304286
0.303241
0.317161
0.373254
0.347617
0.349074
0.361895
0.374918
0.384895
0.39095
0.392193
0.391117
0.404043
0.509427
0.473695
0.466888
0.471442
0.476097
0.478177
0.477115
0.472495
0.466804
0.471908
0.638669
0.59343
0.578365
0.574464
0.570567
0.564579
0.556244
0.545411
0.534153
0.531312
0.757319
0.703383
0.68041
0.668302
0.656137
0.642389
0.627078
0.610241
0.593572
0.583625
0.861991
0.800388
0.770206
0.750561
0.730853
0.710076
0.688489
0.666277
0.644762
0.628606
0.94967
0.881637
0.845264
0.819128
0.792965
0.766214
0.739335
0.712624
0.687048
0.66569
1.0178
0.944762
0.903491
0.872215
0.840968
0.809541
0.778544
0.748357
0.719635
0.69422
1.06438
0.987911
0.943251
0.908418
0.873668
0.839032
0.805223
0.772671
0.741806
0.713605
1.08802
1.00981
0.963419
0.926768
0.890232
0.853964
0.818729
0.784983
0.75303
0.723411
1.08802
1.00981
0.963419
0.926769
0.890233
0.853965
0.818729
0.784983
0.753031
0.723411
1.06438
0.987914
0.943254
0.90842
0.87367
0.839034
0.805224
0.772673
0.741807
0.713606
1.01781
0.944766
0.903495
0.872219
0.840972
0.809544
0.778547
0.748359
0.719638
0.694222
0.949676
0.881643
0.845269
0.819133
0.792969
0.766218
0.739339
0.712627
0.687051
0.665693
0.861998
0.800395
0.770212
0.750567
0.730859
0.710081
0.688494
0.666282
0.644766
0.62861
0.757327
0.703392
0.680418
0.668309
0.656143
0.642395
0.627083
0.610247
0.593577
0.58363
0.638679
0.59344
0.578374
0.574473
0.570574
0.564586
0.556251
0.545417
0.534159
0.531318
0.509438
0.473706
0.466898
0.471451
0.476106
0.478185
0.477123
0.472502
0.46681
0.471915
0.373267
0.347629
0.349085
0.361906
0.374928
0.384904
0.390958
0.392201
0.391125
0.40405
0.234011
0.218819
0.228226
0.248736
0.269489
0.286605
0.298812
0.304295
0.30325
0.31717
0.0956153
0.0909466
0.10773
0.135062
0.162587
0.185581
0.202071
0.210441
0.209409
0.202682
-0.0380255
-0.0323422
-0.00879111
0.0247381
0.058934
0.0887602
0.112203
0.128851
0.138788
0.141161
-0.163335
-0.147782
-0.118233
-0.0793419
-0.0390143
-0.00237485
0.0284207
0.0534359
0.0735093
0.0848934
-0.277359
-0.252731
-0.218183
-0.175148
-0.129934
-0.0876483
-0.0507003
-0.0191026
0.00806592
0.0258028
-0.377885
-0.345215
-0.30679
-0.261006
-0.212442
-0.166007
-0.124302
-0.0875509
-0.0550184
-0.0323931
-0.463475
-0.423946
-0.382769
-0.335628
-0.285301
-0.236311
-0.191326
-0.150791
-0.114202
-0.0876645
-0.53344
-0.48832
-0.445438
-0.398213
-0.347653
-0.297717
-0.251003
-0.208123
-0.168764
-0.139185
-0.587781
-0.538371
-0.494704
-0.448471
-0.399038
-0.349664
-0.30273
-0.258929
-0.218069
-0.186329
-0.6271
-0.574695
-0.531014
-0.486598
-0.439398
-0.3919
-0.34613
-0.302759
-0.261641
-0.228671
-0.652496
-0.598353
-0.555279
-0.513244
-0.46909
-0.424525
-0.381124
-0.339432
-0.299275
-0.266068
-0.665441
-0.610751
-0.568777
-0.529447
-0.488849
-0.447986
-0.407939
-0.369041
-0.331035
-0.298658
-0.667669
-0.613531
-0.573044
-0.536547
-0.499735
-0.463043
-0.427079
-0.391924
-0.357209
-0.326809
-0.661036
-0.608433
-0.56975
-0.536071
-0.503038
-0.4707
-0.439273
-0.408605
-0.378245
-0.351056
-0.647408
-0.597199
-0.560589
-0.529629
-0.50019
-0.472128
-0.445408
-0.419723
-0.394656
-0.371988
-0.628549
-0.581465
-0.547184
-0.518816
-0.492666
-0.468583
-0.446445
-0.425942
-0.406905
-0.390102
-0.606016
-0.562688
-0.530996
-0.505115
-0.481896
-0.461322
-0.443353
-0.427865
-0.415279
-0.405636
-0.581095
-0.542078
-0.513257
-0.489809
-0.469167
-0.451515
-0.437014
-0.425917
-0.419699
-0.418345
-0.554776
-0.520569
-0.494911
-0.473905
-0.455535
-0.440166
-0.428164
-0.420248
-0.419525
-0.427326
-0.527808
-0.498828
-0.476583
-0.458048
-0.441706
-0.428017
-0.417455
-0.411081
-0.414023
-0.431278
-0.500839
-0.477328
-0.458585
-0.44241
-0.427677
-0.414759
-0.403997
-0.396031
-0.396156
-0.415674
-0.474592
-0.456527
-0.441191
-0.427112
-0.413322
-0.39962
-0.38525
-0.367579
-0.342533
-0.318549
-0.449893
-0.437003
-0.425018
-0.41326
-0.401211
-0.388762
-0.375515
-0.359948
-0.339857
-0.322538
-0.427428
-0.419181
-0.410336
-0.400945
-0.390977
-0.380517
-0.369476
-0.357228
-0.343279
-0.332828
-0.40763
-0.403326
-0.397243
-0.390016
-0.382
-0.373395
-0.36426
-0.354363
-0.343859
-0.336394
-0.390714
-0.389612
-0.385857
-0.380516
-0.374238
-0.367307
-0.359883
-0.351972
-0.343892
-0.337924
-0.376734
-0.378136
-0.376268
-0.372505
-0.367706
-0.362206
-0.356231
-0.349925
-0.343621
-0.33857
-0.365657
-0.368943
-0.368536
-0.366026
-0.362411
-0.358054
-0.353211
-0.348103
-0.343048
-0.33859
-0.35742
-0.362046
-0.362701
-0.361118
-0.358385
-0.354873
-0.350854
-0.34659
-0.342382
-0.338314
-0.351963
-0.357448
-0.358794
-0.35782
-0.355668
-0.352712
-0.349229
-0.345502
-0.341823
-0.337999
-0.349245
-0.35515
-0.356836
-0.356164
-0.3543
-0.351618
-0.348398
-0.344931
-0.341507
-0.337803
-0.291423
-0.127349
-0.082137
-0.0310897
-0.0201289
-0.00835249
-0.00508861
-0.00124735
-0.000790876
0.00218132
-0.292656
-0.127898
-0.0824089
-0.0312873
-0.0201985
-0.00841442
-0.00512137
-0.00127135
-0.000801594
0.00216358
-0.295051
-0.128982
-0.0829484
-0.0316855
-0.0203379
-0.00853713
-0.00518543
-0.00131796
-0.000822684
0.00212815
-0.298467
-0.130576
-0.0837438
-0.0322864
-0.0205465
-0.00872009
-0.00528048
-0.00138699
-0.000853966
0.0020752
-0.302659
-0.132635
-0.0847687
-0.0330882
-0.0208219
-0.00896188
-0.00540566
-0.00147814
-0.000894906
0.00200543
-0.30727
-0.135085
-0.0859731
-0.0340772
-0.0211578
-0.0092588
-0.00555931
-0.00159068
-0.000944928
0.0019196
-0.31217
-0.137992
-0.0873622
-0.0352483
-0.0215544
-0.00960777
-0.00574061
-0.00172333
-0.00100406
0.00181951
-0.317882
-0.142011
-0.0891989
-0.0367021
-0.0220551
-0.0100218
-0.00595578
-0.00187614
-0.001074
0.001708
-0.32267
-0.14752
-0.0916623
-0.0386041
-0.0227103
-0.010529
-0.0062133
-0.00205525
-0.00115262
0.00158257
-0.314874
-0.149896
-0.0927847
-0.0403128
-0.0232179
-0.0110361
-0.00646304
-0.00226487
-0.00121657
0.00141986
-0.248352
-0.141789
-0.0891769
-0.0436017
-0.0237066
-0.0124376
-0.00716956
-0.00308299
-0.00137874
0.000707912
-0.19021
-0.132733
-0.0831628
-0.0450681
-0.0254054
-0.0148532
-0.0089817
-0.00459493
-0.0021264
-0.000166446
-0.148744
-0.114824
-0.0737007
-0.0436334
-0.0267678
-0.0170443
-0.0108499
-0.00615703
-0.00303145
-0.000837943
-0.109116
-0.0938833
-0.0642457
-0.041658
-0.0277496
-0.0188129
-0.0124496
-0.00753894
-0.0038836
-0.00128523
-0.079856
-0.0765842
-0.0574153
-0.0403952
-0.0285197
-0.020131
-0.0136999
-0.00864222
-0.00459732
-0.00156603
-0.0597494
-0.0637204
-0.0524308
-0.0393873
-0.0288938
-0.0209546
-0.0145836
-0.00946016
-0.00515362
-0.00175228
-0.046715
-0.0544496
-0.0485504
-0.0384095
-0.0289587
-0.0214178
-0.0151801
-0.0100465
-0.00557011
-0.00188756
-0.0384663
-0.0479849
-0.0455751
-0.0375504
-0.0289003
-0.0216742
-0.0155723
-0.0104517
-0.00586665
-0.00198677
-0.033643
-0.0438813
-0.0435591
-0.0369432
-0.0288368
-0.0218118
-0.0158086
-0.0107049
-0.00605685
-0.00205159
-0.0314126
-0.0418783
-0.0425441
-0.0366436
-0.0288106
-0.0218714
-0.0159187
-0.0108234
-0.00615082
-0.00208132
-0.219716
-0.247615
-0.273396
-0.297343
-0.319841
-0.341395
-0.362623
-0.384171
-0.406539
-0.430381
-0.0690358
-0.0791781
-0.0883425
-0.0967722
-0.104774
-0.112729
-0.121095
-0.130412
-0.141258
-0.155423
-0.0462403
-0.0554205
-0.0642152
-0.0725976
-0.0805302
-0.0879683
-0.0948682
-0.101203
-0.10697
-0.112289
-0.0198008
-0.0255191
-0.0310312
-0.0363559
-0.0415152
-0.0465324
-0.0514305
-0.0562316
-0.060936
-0.0654214
-0.0140807
-0.0184351
-0.022665
-0.0267668
-0.0307368
-0.0345711
-0.0382659
-0.0418185
-0.0452095
-0.0484055
-0.0090165
-0.0122323
-0.0153888
-0.018485
-0.0215203
-0.0244942
-0.0274062
-0.030255
-0.0330292
-0.0357301
-0.00788471
-0.01042
-0.012919
-0.0153776
-0.0177924
-0.0201603
-0.0224786
-0.024745
-0.0269537
-0.0291161
-0.00707655
-0.00913264
-0.0111721
-0.013191
-0.0151856
-0.0171523
-0.0190882
-0.0209903
-0.0228555
-0.0246893
-0.00698372
-0.0087564
-0.010521
-0.0122732
-0.0140086
-0.0157234
-0.0174141
-0.0190774
-0.0207117
-0.0223164
-0.00692485
-0.00854872
-0.0101699
-0.0117845
-0.0133892
-0.0149806
-0.0165554
-0.018111
-0.019646
-0.0211573
0.166889
0.1259
0.080552
0.0374831
-0.00425555
-0.0451349
-0.0845384
-0.121884
-0.156903
-0.18951
0.11644
0.090525
0.0637349
0.0408978
0.0207788
0.00210601
-0.0152034
-0.0309386
-0.045073
-0.0577218
0.0723368
0.0566396
0.0416887
0.0287786
0.016929
0.00546399
-0.00568728
-0.0164369
-0.0267617
-0.0366883
0.0520966
0.0430249
0.0343979
0.0266894
0.0194249
0.012334
0.00541915
-0.00126103
-0.00768525
-0.0138607
0.0365725
0.0306223
0.0248839
0.019595
0.0145063
0.0094868
0.00454336
-0.000292687
-0.00500884
-0.00960469
0.0263216
0.0224338
0.0185901
0.0149539
0.0114129
0.00789902
0.0044138
0.000973949
-0.00241221
-0.00574268
0.0186276
0.0159003
0.0131465
0.0104713
0.00782668
0.00517977
0.00253237
-0.000104367
-0.00272258
-0.00531744
0.013454
0.0114601
0.00941615
0.00738444
0.00534836
0.00329435
0.00122478
-0.000852847
-0.00293216
-0.00500824
0.0101283
0.0085345
0.00689185
0.00522947
0.00354259
0.00182812
8.9904e-05
-0.00166589
-0.00343351
-0.00520779
0.00853472
0.00711529
0.00565262
0.00416092
0.00263958
0.00108969
-0.000484446
-0.00207765
-0.00368508
-0.00530225
0.334325
0.333624
0.332075
0.329199
0.324214
0.315881
0.30243
0.281467
0.250356
0.205735
0.244435
0.243319
0.240683
0.236098
0.229227
0.219641
0.206768
0.189952
0.168443
0.141687
0.173615
0.172486
0.169819
0.165294
0.158804
0.15024
0.139414
0.12611
0.109921
0.0909343
0.122016
0.12113
0.119028
0.115466
0.110426
0.103935
0.0959858
0.086588
0.0756637
0.063548
0.0856924
0.085048
0.0835092
0.0808964
0.0772168
0.0725228
0.0668487
0.0602326
0.0526547
0.0443239
0.0605224
0.0600591
0.0589508
0.057069
0.0544269
0.0510759
0.0470575
0.0424158
0.0371683
0.0314613
0.0433788
0.0430404
0.0422305
0.0408556
0.0389274
0.0364861
0.0335656
0.0301984
0.026404
0.0222666
0.0320993
0.0318426
0.0312283
0.0301857
0.028724
0.0268748
0.0246647
0.022119
0.019258
0.0161337
0.0252677
0.0250593
0.0245608
0.0237149
0.0225289
0.0210278
0.0192329
0.0171631
0.0148362
0.0122835
0.0220494
0.021863
0.021418
0.0206634
0.0196054
0.0182658
0.0166635
0.0148147
0.0127362
0.0104509
0.484294
0.486047
0.49238
0.503526
0.519377
0.540237
0.56657
0.598902
0.637769
0.683417
0.482053
0.48378
0.490033
0.501023
0.516625
0.537107
0.562877
0.594371
0.63199
0.675824
0.477622
0.479304
0.485404
0.496091
0.511207
0.530949
0.555607
0.585448
0.620598
0.660848
0.471103
0.472729
0.478619
0.488874
0.50329
0.521955
0.544992
0.572409
0.603916
0.638893
0.462632
0.464209
0.469849
0.479568
0.493099
0.510395
0.531354
0.555643
0.582409
0.610548
0.45238
0.453928
0.459302
0.468402
0.480893
0.496565
0.515052
0.535597
0.556648
0.576548
0.440541
0.442129
0.447256
0.455694
0.467034
0.480879
0.496556
0.512812
0.527309
0.537759
0.427322
0.429138
0.434152
0.442001
0.452216
0.464183
0.476851
0.488331
0.495393
0.494977
0.412793
0.415085
0.420178
0.427564
0.436758
0.44693
0.456579
0.462988
0.461776
0.447695
0.396592
0.399027
0.403694
0.40995
0.417328
0.424878
0.430824
0.431946
0.423478
0.395772
0.396596
0.399031
0.403698
0.409954
0.417333
0.424882
0.430829
0.431951
0.423484
0.395779
0.412797
0.415089
0.420182
0.427568
0.436762
0.446934
0.456584
0.462993
0.461781
0.447701
0.427326
0.429141
0.434156
0.442005
0.452219
0.464187
0.476856
0.488335
0.495398
0.494982
0.440544
0.442132
0.447259
0.455698
0.467037
0.480882
0.49656
0.512816
0.527313
0.537764
0.452382
0.453931
0.459305
0.468405
0.480896
0.496568
0.515055
0.5356
0.556651
0.576552
0.462635
0.464211
0.469852
0.479571
0.493102
0.510397
0.531357
0.555646
0.582412
0.610551
0.471104
0.472731
0.478621
0.488876
0.503292
0.521957
0.544994
0.572411
0.603918
0.638896
0.477624
0.479305
0.485405
0.496092
0.511209
0.53095
0.555608
0.58545
0.6206
0.66085
0.482054
0.483781
0.490034
0.501024
0.516626
0.537108
0.562877
0.594372
0.631991
0.675826
0.484295
0.486047
0.49238
0.503526
0.519377
0.540237
0.566571
0.598903
0.63777
0.683418
0.0220554
0.021869
0.0214241
0.0206695
0.0196114
0.0182718
0.0166695
0.0148207
0.0127422
0.0104568
0.0252737
0.0250653
0.0245669
0.0237209
0.0225349
0.0210338
0.0192389
0.0171691
0.0148422
0.0122896
0.0321054
0.0318487
0.0312344
0.0301918
0.0287301
0.0268809
0.0246708
0.0221251
0.0192641
0.0161398
0.043385
0.0430465
0.0422366
0.0408617
0.0389335
0.0364923
0.0335717
0.0302046
0.0264102
0.0222728
0.0605286
0.0600653
0.058957
0.0570752
0.0544332
0.0510821
0.0470638
0.0424221
0.0371746
0.0314676
0.0856986
0.0850542
0.0835154
0.0809026
0.0772231
0.0725291
0.0668551
0.0602389
0.0526612
0.0443304
0.122022
0.121137
0.119034
0.115472
0.110433
0.103941
0.0959922
0.0865945
0.0756703
0.0635547
0.173621
0.172492
0.169825
0.1653
0.15881
0.150246
0.13942
0.126116
0.109928
0.0909413
0.244441
0.243325
0.240689
0.236104
0.229233
0.219647
0.206775
0.189959
0.16845
0.141694
0.33433
0.333629
0.33208
0.329205
0.32422
0.315887
0.302437
0.281473
0.250364
0.205743
0.00854065
0.00712118
0.00565846
0.00416671
0.00264532
0.00109537
-0.000478837
-0.00207211
-0.00367962
-0.00529687
0.0101343
0.00854048
0.00689776
0.00523533
0.00354839
0.00183383
9.5545e-05
-0.00166032
-0.00342802
-0.00520237
0.0134602
0.0114662
0.00942216
0.00739037
0.00535422
0.00330013
0.00123046
-0.000847244
-0.00292664
-0.00500281
0.0186338
0.0159064
0.0131526
0.0104773
0.00783261
0.00518561
0.00253811
-9.87182e-05
-0.00271702
-0.00531197
0.0263279
0.0224401
0.0185963
0.01496
0.0114189
0.00790497
0.00441967
0.000979731
-0.00240652
-0.00573708
0.0365789
0.0306288
0.0248903
0.0196013
0.0145125
0.00949299
0.00454948
-0.000286639
-0.00500287
-0.00959879
0.0521034
0.0430316
0.0344046
0.0266961
0.0194315
0.0123406
0.00542566
-0.00125457
-0.00767886
-0.0138543
0.072344
0.0566468
0.041696
0.0287859
0.0169363
0.00547124
-0.00568003
-0.0164296
-0.0267544
-0.0366811
0.116447
0.0905327
0.0637427
0.0409056
0.0207867
0.00211398
-0.0151954
-0.0309305
-0.0450648
-0.0577137
0.166897
0.125909
0.0805614
0.0374926
-0.00424574
-0.0451248
-0.0845281
-0.121873
-0.156892
-0.189499
-0.00691955
-0.00854352
-0.0101648
-0.0117796
-0.0133844
-0.0149758
-0.0165508
-0.0181065
-0.0196417
-0.021153
-0.00697839
-0.00875116
-0.0105159
-0.0122682
-0.0140037
-0.0157187
-0.0174094
-0.0190729
-0.0207073
-0.0223121
-0.00707123
-0.00912742
-0.011167
-0.013186
-0.0151807
-0.0171475
-0.0190835
-0.0209857
-0.022851
-0.0246849
-0.00787934
-0.0104147
-0.0129138
-0.0153726
-0.0177874
-0.0201554
-0.0224738
-0.0247403
-0.0269492
-0.0291116
-0.009011
-0.0122269
-0.0153834
-0.0184797
-0.0215151
-0.0244891
-0.0274012
-0.0302501
-0.0330244
-0.0357255
-0.0140749
-0.0184293
-0.0226593
-0.0267612
-0.0307313
-0.0345656
-0.0382606
-0.0418133
-0.0452044
-0.0484006
-0.0197945
-0.025513
-0.0310251
-0.0363499
-0.0415093
-0.0465265
-0.0514247
-0.056226
-0.0609305
-0.065416
-0.0462331
-0.0554134
-0.064208
-0.0725904
-0.0805231
-0.0879611
-0.0948611
-0.101196
-0.106963
-0.112282
-0.0690276
-0.0791698
-0.0883342
-0.0967638
-0.104766
-0.112721
-0.121087
-0.130403
-0.141249
-0.155414
-0.219704
-0.247603
-0.273384
-0.29733
-0.319828
-0.341381
-0.362609
-0.384156
-0.406523
-0.430365
-0.0314103
-0.0418762
-0.0425426
-0.0366426
-0.0288087
-0.021868
-0.0159142
-0.0108196
-0.00614816
-0.00208035
-0.0336407
-0.0438793
-0.0435578
-0.0369424
-0.028835
-0.0218082
-0.0158038
-0.0107009
-0.00605405
-0.00205062
-0.0384639
-0.047983
-0.0455741
-0.0375502
-0.0288986
-0.0216704
-0.0155671
-0.0104474
-0.00586361
-0.00198583
-0.0467126
-0.0544478
-0.0485501
-0.0384101
-0.0289573
-0.0214134
-0.0151741
-0.0100414
-0.00556679
-0.00188674
-0.0597467
-0.0637189
-0.0524314
-0.0393892
-0.0288929
-0.0209493
-0.0145763
-0.00945393
-0.00515008
-0.0017518
-0.0798529
-0.0765829
-0.0574173
-0.0403993
-0.0285192
-0.0201241
-0.0136906
-0.0086343
-0.00459382
-0.00156634
-0.109113
-0.0938827
-0.0642502
-0.0416655
-0.0277496
-0.0188033
-0.0124373
-0.00752848
-0.00388056
-0.00128699
-0.148738
-0.114824
-0.0737095
-0.0436464
-0.0267686
-0.0170311
-0.0108333
-0.00614284
-0.00302903
-0.000841803
-0.190201
-0.132731
-0.0831769
-0.045089
-0.025409
-0.0148369
-0.00896064
-0.00457614
-0.002124
-0.000172279
-0.248337
-0.141783
-0.0891927
-0.0436285
-0.0237143
-0.0124221
-0.0071472
-0.0030614
-0.00137569
0.000701633
-0.314859
-0.149889
-0.0927977
-0.0403364
-0.0232254
-0.0110241
-0.00644523
-0.002246
-0.00121408
0.0014146
-0.322656
-0.147513
-0.0916748
-0.0386265
-0.0227174
-0.0105177
-0.0061968
-0.00203756
-0.00115036
0.00157764
-0.317868
-0.142005
-0.089211
-0.036723
-0.0220614
-0.0100112
-0.00594065
-0.00186
-0.00107204
0.00170345
-0.312157
-0.137986
-0.0873736
-0.0352675
-0.0215601
-0.00959811
-0.00572719
-0.00170897
-0.00100249
0.00181523
-0.307258
-0.135079
-0.0859834
-0.0340942
-0.0211628
-0.00925024
-0.00554751
-0.0015781
-0.000943513
0.00191599
-0.302649
-0.132631
-0.0847775
-0.0331028
-0.0208261
-0.00895461
-0.00539574
-0.00146754
-0.000893728
0.00200241
-0.298459
-0.130572
-0.083751
-0.0322981
-0.0205499
-0.00871424
-0.00527259
-0.00137854
-0.000853036
0.00207281
-0.295045
-0.128979
-0.0829537
-0.0316941
-0.0203404
-0.00853284
-0.00517974
-0.00131182
-0.000822052
0.00212635
-0.292652
-0.127896
-0.0824122
-0.0312926
-0.0202
-0.00841179
-0.00511785
-0.00126758
-0.000801175
0.00216257
-0.291422
-0.127348
-0.0821381
-0.0310915
-0.0201294
-0.00835162
-0.0050875
-0.00124612
-0.00079079
0.00218088
)
;

boundaryField
{
    inlet
    {
        type            zeroGradient;
    }
    outlet
    {
        type            fixedValue;
        value           uniform 0;
    }
    cylinder
    {
        type            zeroGradient;
    }
    top
    {
        type            symmetryPlane;
    }
    bottom
    {
        type            symmetryPlane;
    }
    defaultFaces
    {
        type            empty;
    }
}


// ************************************************************************* //
