/*--------------------------------*- C++ -*----------------------------------*\
  =========                 |
  \\      /  F ield         | OpenFOAM: The Open Source CFD Toolbox
   \\    /   O peration     | Website:  https://openfoam.org
    \\  /    A nd           | Version:  6.0
     \\/     M anipulation  |
\*---------------------------------------------------------------------------*/
FoamFile
{
    version     2.0;
    format      ascii;
    class       surfaceScalarField;
    location    "22";
    object      phi;
}
// * * * * * * * * * * * * * * * * * * * * * * * * * * * * * * * * * * * * * //

dimensions      [0 3 -1 0 0 0 0];

internalField   nonuniform List<scalar> 
3880
(
-1.79773e-05
1.79895e-05
-1.22055e-08
-5.34916e-05
3.55427e-05
-2.83395e-08
-9.53717e-05
4.19194e-05
-3.91933e-08
-0.00013655
4.12248e-05
-4.61717e-08
-0.000172665
3.61652e-05
-5.0183e-08
-0.000201305
2.86913e-05
-5.18404e-08
-0.000221536
2.02823e-05
-5.15718e-08
-0.000233596
1.21097e-05
-4.96925e-08
-0.000238693
5.14365e-06
-4.64731e-08
1.59448e-07
-4.21901e-08
-0.00023881
-1.72977e-05
3.52872e-05
-5.08399e-05
6.90848e-05
-8.9594e-05
8.06735e-05
-0.000126606
7.82363e-05
-0.000157554
6.71133e-05
-0.000179993
5.11304e-05
-0.000192903
3.31921e-05
-0.000196422
1.56287e-05
-0.000191702
4.24428e-07
-1.07816e-05
-0.000180761
-1.59038e-05
5.1191e-05
-4.54214e-05
9.86024e-05
-7.78379e-05
0.00011309
-0.000106468
0.000106867
-0.000127118
8.77626e-05
-0.000137309
6.13218e-05
-0.000135865
3.17482e-05
-0.000122717
2.48044e-06
-9.88798e-05
-2.34127e-05
-4.3239e-05
-6.64224e-05
-1.37084e-05
6.48994e-05
-3.69544e-05
0.000121848
-5.95954e-05
0.000135731
-7.5454e-05
0.000122725
-8.06359e-05
9.29445e-05
-7.27195e-05
5.34054e-05
-5.03537e-05
9.38233e-06
-1.31533e-05
-3.472e-05
3.8135e-05
-7.4701e-05
-0.000106524
0.00010142
-1.05483e-05
7.54477e-05
-2.49218e-05
0.000136222
-3.38977e-05
0.000144707
-3.21463e-05
0.000120974
-1.63809e-05
7.71791e-05
1.55257e-05
2.14989e-05
6.49836e-05
-4.00756e-05
0.000132755
-0.000102492
0.000218561
-0.000160507
-0.000208367
0.000320404
-6.17241e-06
8.16201e-05
-8.53577e-06
0.000138585
7.90828e-07
0.00013538
2.58734e-05
9.58913e-05
6.89394e-05
3.41131e-05
0.000131353
-4.09144e-05
0.000214197
-0.00012292
0.000318482
-0.000206776
0.000444628
-0.000286652
-0.000354643
0.000590904
-2.69235e-07
8.18893e-05
1.31785e-05
0.000125137
4.64611e-05
0.000102098
0.000101993
4.03591e-05
0.000180423
-4.43164e-05
0.000281636
-0.000142127
0.000405546
-0.000246831
0.00055271
-0.00035394
0.000724207
-0.000458149
-0.000549573
0.000919137
7.44471e-06
7.44446e-05
4.11028e-05
9.14793e-05
0.000105037
3.81639e-05
0.00019984
-5.44444e-05
0.00032422
-0.000168697
0.000475804
-0.00029371
0.000651973
-0.000423
0.00085102
-0.000552987
0.00107341
-0.00068054
-0.000798671
0.00132251
1.70772e-05
5.73673e-05
7.55503e-05
3.30062e-05
0.000177407
-6.36931e-05
0.000321734
-0.000198771
0.00050558
-0.000352543
0.000724181
-0.000512311
0.000971259
-0.000670078
0.00124
-0.000821727
0.00152664
-0.000967176
-0.00111712
0.00184508
2.83625e-05
2.90048e-05
0.000115606
-5.42371e-05
0.000261932
-0.00021002
0.000465939
-0.000402777
0.000724833
-0.000611438
0.00103415
-0.000821626
0.00138709
-0.00102302
0.00177285
-0.00120749
0.00217573
-0.00137006
-0.00151469
0.0025733
4.04869e-05
-1.14821e-05
0.000158419
-0.000172169
0.00035218
-0.000403782
0.000620506
-0.000671102
0.000962772
-0.000953704
0.00137967
-0.00123852
0.00187444
-0.00151779
0.00245618
-0.00178923
0.00314781
-0.00206168
-0.00237349
0.00400662
5.23712e-05
-6.38533e-05
0.000199997
-0.000319794
0.000438092
-0.000641877
0.000763141
-0.000996151
0.00117246
-0.00136302
0.00166417
-0.00173023
0.00223719
-0.00209082
0.00289067
-0.00244271
0.0036191
-0.00279011
-0.00314205
0.00438766
6.34969e-05
-0.00012735
0.000238292
-0.00049459
0.000514945
-0.00091853
0.00088544
-0.00136665
0.00134201
-0.00181958
0.0018765
-0.00226473
0.00247973
-0.00269404
0.00313989
-0.00310287
0.0038384
-0.00348863
-0.00384519
0.00454155
7.38837e-05
-0.000201234
0.000273029
-0.000693735
0.000582198
-0.0012277
0.000987601
-0.00177205
0.00147536
-0.00230734
0.00203085
-0.00282023
0.0026383
-0.00330149
0.00327998
-0.00374455
0.00393464
-0.00414329
-0.00448649
0.00457593
8.3675e-05
-0.000284909
0.000304352
-0.000914412
0.000640118
-0.00156347
0.00107079
-0.00220272
0.00157633
-0.00281289
0.00213657
-0.00338046
0.00273129
-0.00389621
0.00334039
-0.00435365
0.00394375
-0.00474665
-0.00506429
0.00452155
9.286e-05
-0.000377769
0.000332002
-0.00115355
0.000688132
-0.0019196
0.00113445
-0.00264904
0.00164521
-0.00332365
0.00219588
-0.00393113
0.00276374
-0.00446406
0.00332849
-0.0049184
0.00387271
-0.00529087
-0.00557416
0.00438258
0.000101195
-0.000478964
0.000355096
-0.00140745
0.000724531
-0.00228903
0.00117619
-0.0031007
0.00167939
-0.00382686
0.00220663
-0.00445836
0.00273438
-0.00499182
0.00324384
-0.00542786
0.00372118
-0.0057682
-0.00601124
0.00415826
0.000108251
-0.000587215
0.000372292
-0.0016715
0.000746893
-0.00266363
0.00119272
-0.00354652
0.00167529
-0.00430942
0.00216564
-0.00494871
0.00264112
-0.00546731
0.00308569
-0.00587242
0.00348975
-0.00617227
-0.00637195
0.00385046
0.000113503
-0.000700717
0.000382075
-0.00194007
0.000752707
-0.00303426
0.00118098
-0.0039748
0.00163003
-0.00475847
0.00207113
-0.00538981
0.00248395
-0.00588014
0.0028562
-0.00624466
0.00318278
-0.00649885
-0.00665466
0.00346548
0.00011642
-0.000817138
0.000383031
-0.00220668
0.000739888
-0.00339112
0.00113887
-0.00437378
0.00154244
-0.00516204
0.00192374
-0.00577111
0.00226595
-0.00622235
0.00256109
-0.0065398
0.00280845
-0.00674621
-0.0068598
0.00301359
0.000116538
-0.000933676
0.000374056
-0.0024642
0.00070712
-0.00372419
0.0010657
-0.00473236
0.00141342
-0.00550976
0.0017267
-0.00608438
0.00199307
-0.00648873
0.00220901
-0.00675574
0.00237767
-0.00691487
-0.00698959
0.00250746
0.000113456
-0.00104713
0.000354385
-0.00270513
0.000653895
-0.0040237
0.00096213
-0.00504059
0.00124563
-0.00579327
0.00148523
-0.00632398
0.00167321
-0.00667671
0.00181022
-0.00689274
0.00190257
-0.00700723
-0.00704752
0.0019605
0.000106913
-0.00115405
0.000323734
-0.00292195
0.00058063
-0.00428059
0.000830127
-0.00529009
0.00104326
-0.00600639
0.00120602
-0.00648674
0.00131539
-0.00678608
0.00137561
-0.00695297
0.00139533
-0.00702694
-0.0070379
0.00138571
9.67642e-05
-0.00125081
0.000282227
-0.00310741
0.000488477
-0.00448684
0.000672593
-0.00547421
0.000811356
-0.00614516
0.000896276
-0.00657166
0.000928669
-0.00681847
0.000915598
-0.00693989
0.000867123
-0.00697847
-0.00696541
0.000794633
8.29903e-05
-0.0013338
0.000230378
-0.0032548
0.0003792
-0.00463566
0.000493052
-0.00558806
0.00055536
-0.00620746
0.000563147
-0.00657945
0.000521469
-0.0067768
0.000439338
-0.00685776
0.000327405
-0.00686654
-0.00683479
0.000196786
6.5709e-05
-0.00139951
0.000169074
-0.00335816
0.000255056
-0.00472164
0.000295392
-0.0056284
0.000280657
-0.00619273
0.000213134
-0.00651193
0.000100947
-0.00666461
-4.57773e-05
-0.00671104
-0.000216548
-0.00669577
-0.00665061
-0.000400728
4.5191e-05
-0.0014447
9.95751e-05
-0.00341255
0.00011875
-0.00474082
8.37637e-05
-0.00559341
-7.54512e-06
-0.00610142
-0.000148062
-0.00637141
-0.000327206
-0.00648546
-0.000534407
-0.00650384
-0.000759938
-0.00647023
-0.00641666
-0.000993886
2.18861e-05
-0.00146659
2.35519e-05
-0.00341421
-2.65289e-05
-0.00469074
-0.000137369
-0.00548257
-0.000304133
-0.00593466
-0.000515423
-0.00616012
-0.000758668
-0.00624222
-0.00102323
-0.00623928
-0.00130067
-0.00619279
-0.00613342
-0.00158392
-3.53548e-06
-0.00146305
-5.68384e-05
-0.00336091
-0.000176994
-0.00457058
-0.000363076
-0.00529649
-0.000604004
-0.00569373
-0.000884885
-0.00587924
-0.00119149
-0.00593561
-0.00151298
-0.00591779
-0.00184232
-0.00586345
-0.0057939
-0.00218183
-3.01191e-05
-0.00143293
-0.000138775
-0.00325225
-0.000327797
-0.00438156
-0.000586983
-0.0050373
-0.00090051
-0.0053802
-0.00125177
-0.00552798
-0.00162623
-0.00556115
-0.00201349
-0.00553053
-0.00240958
-0.00546736
-0.00540653
-0.00279695
-5.66313e-05
-0.0013763
-0.00021874
-0.00309014
-0.00047253
-0.00412777
-0.000799176
-0.00471066
-0.00117955
-0.00499983
-0.00159773
-0.00510979
-0.00204242
-0.00511646
-0.00250636
-0.0050666
-0.00298864
-0.00498508
-0.00486998
-0.00352518
-8.19964e-05
-0.0012943
-0.000293688
-0.00287845
-0.000605442
-0.00381602
-0.000989534
-0.00432656
-0.00142242
-0.00456694
-0.00188605
-0.00464617
-0.00236742
-0.00463509
-0.00285756
-0.00457646
-0.00335028
-0.00449236
-0.00439087
-0.00382939
-0.000105577
-0.00118873
-0.000362239
-0.00262179
-0.000725174
-0.00345308
-0.00115838
-0.00389336
-0.00163432
-0.004091
-0.0021333
-0.00414719
-0.00264187
-0.00412652
-0.00315104
-0.00406729
-0.00365361
-0.00398979
-0.00390448
-0.00414
-0.000127028
-0.0010617
-0.000423805
-0.00232501
-0.000831617
-0.00304527
-0.00130728
-0.0034177
-0.00182024
-0.00357803
-0.00235004
-0.00361738
-0.00288362
-0.00359294
-0.00341281
-0.0035381
-0.00393204
-0.00347056
-0.00339979
-0.00443673
-0.000146089
-0.000915611
-0.000477953
-0.00199315
-0.000924591
-0.00259863
-0.00143681
-0.00290548
-0.00198187
-0.00303297
-0.00253916
-0.0030601
-0.00309636
-0.00303573
-0.00364649
-0.00298797
-0.00418558
-0.00293147
-0.00287405
-0.00471132
-0.000162511
-0.0007531
-0.000524225
-0.00163143
-0.00100366
-0.0021192
-0.00154676
-0.00236238
-0.0021192
-0.00246053
-0.0027005
-0.0024788
-0.0032792
-0.00245703
-0.00384939
-0.00241778
-0.00440825
-0.00237262
-0.00232764
-0.00495466
-0.000176045
-0.000577055
-0.000562112
-0.00124537
-0.00106818
-0.00161313
-0.00163637
-0.00179419
-0.00223128
-0.00186562
-0.00283264
-0.00187745
-0.00342975
-0.00185992
-0.00401755
-0.00182998
-0.00459399
-0.00179618
-0.00176298
-0.00515865
-0.000186448
-0.000390607
-0.000591093
-0.000840722
-0.00111741
-0.00108681
-0.00170471
-0.00120689
-0.00231683
-0.0012535
-0.00293376
-0.00126052
-0.00354537
-0.00124831
-0.00414721
-0.00122814
-0.00473774
-0.00120565
-0.00118376
-0.00531696
-0.000193514
-0.000197093
-0.000610706
-0.00042353
-0.00115067
-0.000546849
-0.00175086
-0.0006067
-0.00237465
-0.000629705
-0.0030022
-0.000632965
-0.00362381
-0.000626706
-0.00423538
-0.000616567
-0.00483569
-0.000605333
-0.000594462
-0.00542499
-0.000197087
-6.38676e-09
-0.000620603
-1.36477e-08
-0.00116743
-1.73558e-08
-0.00177412
-1.88268e-08
-0.0024038
-1.90065e-08
-0.00303675
-1.85021e-08
-0.00366344
-1.76688e-08
-0.00427999
-1.67011e-08
-0.0048853
-1.56819e-08
-1.46439e-08
-0.00547975
-0.000197087
0.00019708
-0.000620603
0.000423503
-0.00116744
0.000546814
-0.00177412
0.000606662
-0.0024038
0.000629667
-0.00303675
0.000632929
-0.00366344
0.00062667
-0.00427999
0.000616533
-0.0048853
0.000605301
0.000594433
-0.00547975
-0.000193514
0.000390594
-0.000610706
0.000840695
-0.00115067
0.00108678
-0.00175086
0.00120685
-0.00237465
0.00125346
-0.00300221
0.00126048
-0.00362381
0.00124827
-0.00423538
0.00122811
-0.0048357
0.00120561
0.00118373
-0.00542499
-0.000186449
0.000577043
-0.000591094
0.00124534
-0.00111741
0.00161309
-0.00170471
0.00179415
-0.00231684
0.00186558
-0.00293376
0.00187741
-0.00354537
0.00185988
-0.00414721
0.00182995
-0.00473774
0.00179614
0.00176295
-0.00531696
-0.000176045
0.000753087
-0.000562113
0.00163141
-0.00106818
0.00211916
-0.00163637
0.00236235
-0.00223128
0.00246049
-0.00283264
0.00247877
-0.00342975
0.002457
-0.00401755
0.00241775
-0.00459399
0.00237259
0.00232761
-0.00515865
-0.000162511
0.000915599
-0.000524226
0.00199312
-0.00100366
0.0025986
-0.00154676
0.00290544
-0.0021192
0.00303294
-0.0027005
0.00306006
-0.00327921
0.0030357
-0.0038494
0.00298794
-0.00440825
0.00293144
0.00287402
-0.00495466
-0.000146089
0.00106169
-0.000477954
0.00232499
-0.000924592
0.00304524
-0.00143681
0.00341767
-0.00198188
0.003578
-0.00253916
0.00361735
-0.00309636
0.00359291
-0.0036465
0.00353807
-0.00418558
0.00347053
0.00339976
-0.00471132
-0.000127028
0.00118872
-0.000423806
0.00262177
-0.000831619
0.00345305
-0.00130728
0.00389333
-0.00182024
0.00409096
-0.00235004
0.00414715
-0.00288362
0.00412648
-0.00341281
0.00406726
-0.00393204
0.00398976
0.00390446
-0.00443674
-0.000105577
0.00129429
-0.00036224
0.00287843
-0.000725176
0.00381598
-0.00115838
0.00432653
-0.00163433
0.00456691
-0.00213331
0.00464613
-0.00264188
0.00463505
-0.00315104
0.00457643
-0.00365361
0.00449233
0.00439085
-0.00414001
-8.19969e-05
0.00137629
-0.000293689
0.00309012
-0.000605445
0.00412774
-0.000989537
0.00471062
-0.00142243
0.0049998
-0.00188605
0.00510976
-0.00236743
0.00511643
-0.00285756
0.00506656
-0.00335029
0.00498505
0.00486995
-0.0038294
-5.66319e-05
0.00143292
-0.000218741
0.00325223
-0.000472533
0.00438153
-0.000799179
0.00503727
-0.00117955
0.00538017
-0.00159773
0.00552794
-0.00204243
0.00556112
-0.00250636
0.0055305
-0.00298864
0.00546733
0.0054065
-0.00352519
-3.01197e-05
0.00146304
-0.000138777
0.00336089
-0.0003278
0.00457055
-0.000586987
0.00529645
-0.000900514
0.00569369
-0.00125178
0.0058792
-0.00162624
0.00593558
-0.00201349
0.00591776
-0.00240958
0.00586342
0.00579387
-0.00279695
-3.53612e-06
0.00146658
-5.68401e-05
0.00341419
-0.000176996
0.00469071
-0.00036308
0.00548254
-0.000604008
0.00593462
-0.00088489
0.00616008
-0.0011915
0.00624219
-0.00151298
0.00623924
-0.00184232
0.00619276
0.00613339
-0.00218184
2.18855e-05
0.00144469
2.35501e-05
0.00341253
-2.6532e-05
0.00474079
-0.000137373
0.00559338
-0.000304138
0.00610139
-0.000515429
0.00637137
-0.000758673
0.00648543
-0.00102324
0.00650381
-0.00130068
0.0064702
0.00641663
-0.00158393
4.51903e-05
0.0013995
9.95731e-05
0.00335814
0.000118747
0.00472162
8.37593e-05
0.00562837
-7.55022e-06
0.0061927
-0.000148067
0.00651189
-0.000327212
0.00666458
-0.000534412
0.00671101
-0.000759944
0.00669573
0.00665058
-0.000993891
6.57083e-05
0.00133379
0.000169072
0.00325478
0.000255052
0.00463564
0.000295387
0.00558803
0.000280651
0.00620743
0.000213128
0.00657942
0.000100941
0.00677676
-4.57832e-05
0.00685773
-0.000216553
0.0068665
0.00683476
-0.000400733
8.29895e-05
0.0012508
0.000230376
0.00310739
0.000379196
0.00448682
0.000493048
0.00547418
0.000555354
0.00614513
0.00056314
0.00657163
0.000521463
0.00681844
0.000439332
0.00693986
0.000327399
0.00697844
0.00696538
0.000196781
9.67635e-05
0.00115404
0.000282225
0.00292193
0.000488473
0.00428057
0.000672588
0.00529006
0.00081135
0.00600636
0.00089627
0.00648671
0.000928663
0.00678605
0.000915592
0.00695293
0.000867117
0.00702691
0.00703787
0.000794628
0.000106913
0.00104713
0.000323732
0.00270511
0.000580626
0.00402368
0.000830122
0.00504057
0.00104325
0.00579324
0.00120601
0.00632395
0.00131538
0.00667668
0.00137561
0.0068927
0.00139533
0.00700719
0.00704749
0.00138571
0.000113455
0.000933672
0.000354383
0.00246419
0.000653891
0.00372417
0.000962125
0.00473233
0.00124562
0.00550974
0.00148523
0.00608435
0.00167321
0.00648869
0.00181021
0.0067557
0.00190256
0.00691484
0.00698955
0.0019605
0.000116538
0.000817135
0.000374054
0.00220667
0.000707116
0.00339111
0.0010657
0.00437375
0.00141342
0.00516202
0.00172669
0.00577108
0.00199306
0.00622232
0.002209
0.00653977
0.00237766
0.00674617
0.00685977
0.00250745
0.00011642
0.000700715
0.000383029
0.00194006
0.000739884
0.00303425
0.00113886
0.00397478
0.00154244
0.00475844
0.00192373
0.00538978
0.00226594
0.00588011
0.00256108
0.00624463
0.00280844
0.00649882
0.00665462
0.00301358
0.000113502
0.000587213
0.000382072
0.00167149
0.000752703
0.00266362
0.00118097
0.00354651
0.00163002
0.0043094
0.00207112
0.00494869
0.00248394
0.00546728
0.00285619
0.00587239
0.00318277
0.00617223
0.00637192
0.00346547
0.00010825
0.000478963
0.00037229
0.00140745
0.000746889
0.00228902
0.00119272
0.00310068
0.00167528
0.00382684
0.00216563
0.00445834
0.00264111
0.00499179
0.00308567
0.00542783
0.00348974
0.00576817
0.00601121
0.00385044
0.000101195
0.000377769
0.000355094
0.00115355
0.000724527
0.00191959
0.00117618
0.00264903
0.00167938
0.00332363
0.00220661
0.00393111
0.00273437
0.00446404
0.00324382
0.00491837
0.00372116
0.00529083
0.00557412
0.00415825
9.28594e-05
0.000284909
0.000331999
0.00091441
0.000688127
0.00156346
0.00113444
0.00220271
0.0016452
0.00281287
0.00219587
0.00338044
0.00276372
0.00389618
0.00332847
0.00435362
0.00387269
0.00474661
0.00506426
0.00438256
8.36744e-05
0.000201235
0.00030435
0.000693735
0.000640113
0.0012277
0.00107078
0.00177204
0.00157632
0.00230733
0.00213655
0.00282021
0.00273127
0.00330147
0.00334037
0.00374452
0.00394373
0.00414325
0.00448646
0.00452153
7.38831e-05
0.000127352
0.000273026
0.000494592
0.000582193
0.000918531
0.000987592
0.00136664
0.00147534
0.00181958
0.00203084
0.00226472
0.00263828
0.00269402
0.00327996
0.00310284
0.00393461
0.0034886
0.00384516
0.00457591
6.34961e-05
6.38556e-05
0.000238289
0.000319799
0.000514939
0.000641882
0.000885429
0.000996153
0.00134199
0.00136302
0.00187648
0.00173023
0.0024797
0.0020908
0.00313986
0.00244269
0.00383837
0.00279009
0.00314202
0.00454151
5.23702e-05
1.14853e-05
0.000199993
0.000172176
0.000438084
0.00040379
0.000763128
0.00067111
0.00117244
0.000953708
0.00166414
0.00123852
0.00223716
0.00151778
0.00289064
0.00178921
0.00361906
0.00206166
0.00237346
0.00438762
4.04856e-05
-2.90003e-05
0.000158414
5.42481e-05
0.00035217
0.000210034
0.000620489
0.000402791
0.000962748
0.000611449
0.00137964
0.000821632
0.0018744
0.00102302
0.00245614
0.00120748
0.00314776
0.00137004
0.00151466
0.00400656
2.83608e-05
-5.7361e-05
0.0001156
-3.29908e-05
0.00026192
6.37137e-05
0.000465918
0.000198793
0.000724803
0.000352564
0.00103411
0.000512328
0.00138704
0.000670089
0.00177279
0.00082173
0.00217565
0.00096717
0.0011171
0.00257322
1.70751e-05
-7.44361e-05
7.5543e-05
-9.14587e-05
0.000177392
-3.81357e-05
0.000321709
5.44761e-05
0.000505545
0.000168729
0.000724134
0.000293739
0.000971199
0.000423024
0.00123993
0.000553003
0.00152655
0.000680547
0.000798667
0.00184498
7.44222e-06
-8.18784e-05
4.10945e-05
-0.000125111
0.00010502
-0.000102061
0.000199813
-4.0317e-05
0.000324181
4.436e-05
0.000475752
0.000142169
0.000651907
0.000246868
0.00085094
0.00035397
0.00107332
0.000458171
0.000549584
0.0013224
-2.71938e-07
-8.16064e-05
1.31696e-05
-0.000138553
4.64434e-05
-0.000135335
0.000101965
-9.58385e-05
0.000180382
-3.40573e-05
0.000281582
4.09697e-05
0.000405478
0.000122972
0.000552627
0.000206822
0.000724109
0.000286689
0.000354668
0.000919024
-6.17516e-06
-7.54313e-05
-8.54473e-06
-0.000136183
7.73214e-07
-0.000144653
2.58453e-05
-0.000120911
6.88994e-05
-7.71114e-05
0.0001313
-2.14307e-05
0.000214131
4.0141e-05
0.000318401
0.000102551
0.000444532
0.000160558
0.000208407
0.000590793
-1.05509e-05
-6.48804e-05
-2.49302e-05
-0.000121804
-3.39141e-05
-0.000135669
-3.21723e-05
-0.000122652
-1.64177e-05
-9.2866e-05
1.54771e-05
-5.33255e-05
6.49225e-05
-9.30447e-06
0.000132681
3.47926e-05
0.000218473
7.47659e-05
0.000106579
0.000320302
-1.37106e-05
-5.11698e-05
-3.69617e-05
-9.85526e-05
-5.96094e-05
-0.000113021
-7.54763e-05
-0.000106786
-8.06674e-05
-8.7675e-05
-7.27609e-05
-6.12319e-05
-5.04056e-05
-3.16598e-05
-1.32164e-05
-2.39662e-06
3.80603e-05
2.34892e-05
4.3306e-05
0.000101333
-1.59056e-05
-3.52642e-05
-4.54269e-05
-6.90313e-05
-7.78487e-05
-8.05994e-05
-0.000106485
-7.81491e-05
-0.000127142
-6.70187e-05
-0.000137341
-5.10329e-05
-0.000135905
-3.30956e-05
-0.000122765
-1.55364e-05
-9.89367e-05
-3.38997e-07
1.0858e-05
-6.64887e-05
-1.72988e-05
-1.79654e-05
-5.08434e-05
-3.54868e-05
-8.96008e-05
-4.18421e-05
-0.000126616
-4.11337e-05
-0.000157569
-3.60663e-05
-0.000180012
-2.85892e-05
-0.000192927
-2.01808e-05
-0.000196452
-1.20121e-05
-0.000191738
-5.05264e-06
-7.71215e-08
-0.000180803
-1.79776e-05
-5.34927e-05
-9.5374e-05
-0.000136554
-0.00017267
-0.000201311
-0.000221544
-0.000233606
-0.000238705
-0.000238824
0.00018614
-0.000425107
1.56786e-07
0.00132488
-0.00114115
2.41406e-06
0.00249378
-0.00117113
2.22967e-06
0.00324068
-0.000745881
-1.02587e-06
0.00386786
-0.00062194
-5.23966e-06
0.00429904
-0.000427524
-3.6494e-06
0.00465129
-0.000350682
-1.57181e-06
0.004893
-0.000244913
3.19825e-06
0.00511171
-0.000225333
6.62852e-06
-0.000143665
2.20245e-06
0.000297876
-0.000903744
0.00140733
-0.00225061
0.00254985
-0.00231364
0.0032802
-0.00147624
0.00389584
-0.00123758
0.00432039
-0.000852071
0.00466849
-0.000698784
0.00490841
-0.000484828
0.00512633
-0.000443254
-0.000286147
0.00051415
-0.00148432
0.00156655
-0.00330301
0.00265781
-0.00340489
0.0033563
-0.00217473
0.0039497
-0.00183098
0.00436158
-0.00126396
0.00470178
-0.00103898
0.0049384
-0.000721449
0.00515499
-0.00065985
-0.000430765
0.000821091
-0.00220399
0.00179163
-0.00427355
0.00280959
-0.00442286
0.00346328
-0.00282842
0.00402549
-0.00239319
0.00441989
-0.00165835
0.00474933
-0.00136841
0.00498178
-0.000953903
0.005197
-0.000875065
-0.000578963
0.0011991
-0.00308268
0.00206724
-0.00514169
0.00299388
-0.0053495
0.00359314
-0.00342767
0.0041176
-0.00291765
0.00449135
-0.00203211
0.00480838
-0.00168544
0.00503663
-0.00118216
0.00525104
-0.00108947
-0.000732522
0.00162408
-0.00411586
0.00237476
-0.00589237
0.00319701
-0.00617175
0.00373616
-0.00396682
0.00421921
-0.0034007
0.00457117
-0.00238406
0.00487558
-0.00198986
0.00510063
-0.0014072
0.00531558
-0.00130443
-0.000893688
0.00206796
-0.00526469
0.00269298
-0.00651739
0.00340374
-0.00688252
0.00388159
-0.00444466
0.00432274
-0.00384185
0.00465393
-0.00271526
0.00494713
-0.00228306
0.00517108
-0.00163115
0.00538881
-0.00152216
-0.0010652
0.00250041
-0.00644259
0.00299883
-0.00701581
0.00359809
-0.00748178
0.0040182
-0.00486478
0.0044203
-0.00424394
0.00473399
-0.00302895
0.00501898
-0.00256805
0.00524509
-0.00185726
0.00546869
-0.00174576
-0.00125032
0.00290381
-0.00750131
0.00327335
-0.00738534
0.003766
-0.00797444
0.00413554
-0.00523431
0.0045044
-0.0046128
0.0048058
-0.00333034
0.00508708
-0.00284934
0.00531967
-0.00208984
0.0055531
-0.00197918
-0.00145276
0.00328299
-0.00821101
0.00351489
-0.00761724
0.00389661
-0.00835616
0.00422636
-0.00556406
0.00456827
-0.00495472
0.00486448
-0.00362655
0.00514741
-0.00313227
0.00539214
-0.00233457
0.00563955
-0.00222659
-0.00167729
0.0432984
-0.000942967
-0.0505664
0.0390862
-0.00340509
0.0370219
-0.00629179
0.0368505
-0.00539272
0.0367196
-0.00482385
0.0369209
-0.00382784
0.0371289
-0.00334026
0.0374439
-0.00264959
0.0376925
-0.00247514
-0.00204005
0.0523454
0.00328146
-0.0565698
0.0501495
-0.00120919
0.0475616
-0.00370386
0.0460337
-0.00386482
0.0448304
-0.00362051
0.0440332
-0.00303066
0.04339
-0.0026971
0.0430125
-0.0022721
0.0426399
-0.00210244
-0.00188986
0.0539032
0.00449275
-0.0551145
0.0526176
7.63918e-05
0.0509986
-0.00208484
0.049695
-0.00256128
0.0485917
-0.0025172
0.0477456
-0.00218448
0.0469862
-0.00193779
0.0464357
-0.00172152
0.0458912
-0.001558
-0.00151896
0.0520564
0.00434565
-0.0519093
0.0516434
0.00048933
0.0508023
-0.00124368
0.0499626
-0.0017216
0.0492093
-0.00176389
0.0486077
-0.00158287
0.048042
-0.0013721
0.0475934
-0.00127294
0.0471484
-0.00111297
-0.00115309
0.0500015
0.00366632
-0.0493222
0.0498711
0.000619765
0.0494383
-0.00081088
0.0489318
-0.00121508
0.0484481
-0.00128023
0.0480536
-0.00118836
0.0476865
-0.00100496
0.0473744
-0.000960838
0.0470767
-0.000815321
-0.000869001
0.0483015
0.00287041
-0.0475056
0.0483248
0.000596431
0.0480634
-0.000549494
0.0477269
-0.000878573
0.0473899
-0.000943182
0.047105
-0.000903511
0.0468548
-0.000754743
0.0466289
-0.000734896
0.046429
-0.000615493
-0.000656179
0.0470923
0.0020858
-0.0463077
0.0471851
0.000503623
0.047001
-0.000365412
0.0467437
-0.000621205
0.046476
-0.000675474
0.0462363
-0.000663805
0.0460361
-0.000554575
0.045847
-0.000545839
0.0456893
-0.000457723
-0.000481848
0.0462775
0.001352
-0.0455437
0.0464213
0.000359857
0.0462789
-0.000223059
0.046057
-0.000399312
0.0458195
-0.000437922
0.0455947
-0.00043904
0.0454091
-0.000369008
0.0452292
-0.000365949
0.0450802
-0.000308713
-0.000320951
0.0457806
0.000663722
-0.0450923
0.0459568
0.000183706
0.0458407
-0.00010695
0.0456353
-0.000193926
0.0454104
-0.000213066
0.04519
-0.00021861
0.0450056
-0.000184631
0.0448247
-0.000185048
0.0446718
-0.000155771
-0.000161597
0.0455461
-0.0448824
0.0457298
0.0456228
0.0454289
0.0452159
0.0449972
0.0448126
0.0446276
0.0444718
0.0567774
0.0023008
-0.0560647
0.0573322
0.00291073
0.0576804
0.00350225
0.0577723
0.00406633
0.0575612
0.00459374
0.0570071
0.00507567
0.0560786
0.00550441
0.0547463
0.00587385
0.0529549
0.00617909
0.00639504
0.0513983
0.00169212
-0.0507896
0.052052
0.00225701
0.0527367
0.00281754
0.0534344
0.00336863
0.0541236
0.00390454
0.0547802
0.00441908
0.0553788
0.0049058
0.0558943
0.00535833
0.0563025
0.00577093
0.00612768
0.0480913
0.00121729
-0.0476165
0.0486471
0.00170121
0.0492807
0.00218397
0.0499867
0.00266267
0.050757
0.00313418
0.0515811
0.00359502
0.0524455
0.00404137
0.0533348
0.00446905
0.0542322
0.00487353
0.00524539
0.0454937
0.000890777
-0.0451672
0.0459004
0.00129455
0.0463878
0.00169659
0.0469558
0.00209464
0.0476035
0.00248644
0.0483289
0.00286966
0.0491284
0.0032419
0.0499968
0.00360065
0.0509272
0.00394311
0.00426329
0.0439049
0.000651035
-0.0436651
0.0442187
0.000980718
0.0446068
0.00130852
0.0450689
0.00163258
0.0456043
0.00195103
0.0462119
0.002262
0.0468902
0.00256362
0.0476369
0.00285402
0.0484489
0.0031311
0.00338996
0.042809
0.000468952
-0.0426269
0.0430611
0.000728659
0.043383
0.000986596
0.0437744
0.00124124
0.0442343
0.0014911
0.0447616
0.00173467
0.0453547
0.00197049
0.0460117
0.00219707
0.04673
0.00241282
0.00261434
0.0421151
0.000324276
-0.0419704
0.0423266
0.000517089
0.0426047
0.000708488
0.0429487
0.000897318
0.0433573
0.00108244
0.0438293
0.00126271
0.0443628
0.00143703
0.0449555
0.00160428
0.0456051
0.00176328
0.00191171
0.041663
0.000203769
-0.0415425
0.0418487
0.00033146
0.0420989
0.000458193
0.0424131
0.000583195
0.0427898
0.000705698
0.0432276
0.000824943
0.0437244
0.000940181
0.044278
0.00105067
0.0448857
0.00115563
0.00125371
0.0413983
9.80435e-05
-0.0412926
0.0415681
0.000161682
0.0418014
0.000224859
0.0420974
0.000287187
0.0424548
0.000348278
0.042872
0.00040775
0.043347
0.000465226
0.0438773
0.000520333
0.0444603
0.000572679
0.000621624
0.0412728
-0.0411747
0.0414344
0.0416593
0.0419465
0.0422948
0.0427025
0.0431677
0.0436881
0.0442607
0.0481104
-0.00335405
-0.0475533
0.0488238
-0.00289525
0.0496465
-0.00240662
0.0505388
-0.00188609
0.0514727
-0.00133463
0.0524296
-0.000760138
0.0533913
-0.00016712
0.0543363
0.000440732
0.0552381
0.00105868
0.00168093
0.0479856
-0.00340715
-0.0479325
0.0480819
-0.00299155
0.048221
-0.00254565
0.0484086
-0.00207373
0.0486509
-0.00157693
0.0489521
-0.00106133
0.0493157
-0.000530666
0.0497437
1.27307e-05
0.050236
0.000566374
0.0011273
0.0468971
-0.00314779
-0.0471565
0.0466932
-0.00278763
0.0465499
-0.00240234
0.0464725
-0.00199631
0.0464672
-0.00157162
0.0465375
-0.00113168
0.0466858
-0.000679002
0.0469142
-0.000215599
0.0472241
0.000256447
0.000734876
0.0455817
-0.00277164
-0.0459578
0.0452634
-0.00246935
0.0450065
-0.00214542
0.0448144
-0.00180428
0.0446906
-0.0014478
0.0446373
-0.00107842
0.0446566
-0.000698226
0.0447501
-0.000309159
0.0449198
8.67683e-05
0.000487463
0.0446596
-0.00234983
-0.0450814
0.0442916
-0.00210136
0.043982
-0.00183576
0.0437338
-0.00155609
0.0435499
-0.00126395
0.0434327
-0.000961208
0.0433841
-0.000649587
0.0434057
-0.000330786
0.043499
-6.54791e-06
0.000321337
0.0439893
-0.00190051
-0.0444386
0.0435919
-0.00170401
0.0432504
-0.0014942
0.0429676
-0.00127335
0.0427463
-0.00104266
0.0425887
-0.000803567
0.0424965
-0.000557443
0.0424714
-0.000305683
0.0425146
-4.97154e-05
0.000208995
0.0435586
-0.00143609
-0.044023
0.0431445
-0.00128997
0.0427845
-0.00113416
0.0424813
-0.000970125
0.0422374
-0.000798784
0.042055
-0.000621156
0.0419358
-0.000438276
0.0418813
-0.000251197
0.0418926
-6.10018e-05
0.000131201
0.0432797
-0.000961568
-0.0437542
0.0428546
-0.000864882
0.0424822
-0.000761808
0.0421654
-0.000653279
0.0419065
-0.000539897
0.0417077
-0.000422325
0.0415706
-0.000301246
0.0414968
-0.000177364
0.0414872
-5.14037e-05
7.58938e-05
0.0431187
-0.000481592
-0.0435987
0.0426874
-0.000433575
0.042308
-0.000382386
0.0419832
-0.000328468
0.0417154
-0.000272118
0.0415067
-0.000213659
0.0413589
-0.00015343
0.0412733
-9.1779e-05
0.041251
-2.90677e-05
3.43332e-05
0.0430449
-0.0435265
0.0426113
0.0422289
0.0419004
0.0416283
0.0414147
0.0412612
0.0411694
0.0411404
0.0429475
0.000174614
-0.000193159
0.0429914
0.000521226
-0.000565171
0.0430659
0.000872586
-0.000947069
0.0431885
0.00123687
-0.00135946
0.0433892
0.00161944
-0.00182017
0.0437117
0.00202454
-0.00234699
0.0442146
0.00245427
-0.00295726
0.0449701
0.00291106
-0.00366648
0.046072
0.00337093
-0.00447284
0.00392323
-0.0054046
0.0429657
0.000137861
0.0430729
0.000413974
0.0432541
0.000691443
0.0435195
0.000971451
0.0438841
0.00125481
0.0443669
0.00154176
0.0449898
0.00183135
0.0457772
0.00212369
0.046745
0.00240319
0.00273565
0.0429665
0.000100252
0.0430779
0.000302652
0.0432627
0.000506594
0.0435251
0.000709067
0.0438707
0.000909172
0.0443069
0.00110561
0.0448419
0.0012963
0.0454861
0.00147954
0.0462439
0.00164534
0.00182309
0.0429586
7.05395e-05
0.0430476
0.000213689
0.043196
0.000358201
0.0434046
0.000500483
0.0436744
0.000639332
0.0440066
0.000773451
0.0444016
0.000901269
0.0448596
0.00102158
0.0453755
0.00112938
0.00124082
0.0429506
4.88783e-05
0.0430161
0.000148223
0.0431258
0.000248497
0.0432794
0.000346807
0.0434767
0.000442092
0.0437168
0.000533302
0.0439988
0.000619296
0.0443212
0.000699144
0.0446806
0.000770054
0.000839972
0.0429445
3.32931e-05
0.0429918
0.000100973
0.043071
0.000169254
0.0431817
0.000236085
0.0433231
0.000300689
0.0434941
0.000362328
0.0436931
0.000420258
0.0439184
0.000473887
0.0441667
0.000521741
0.000568086
0.0429403
2.19059e-05
0.0429749
6.64273e-05
0.0430328
0.000111325
0.0431136
0.00015524
0.0432167
0.000197651
0.0433409
0.000238066
0.0434852
0.00027601
0.043648
0.000311092
0.0438272
0.000342484
0.00037235
0.0429376
1.3269e-05
0.0429638
4.02243e-05
0.0430077
6.73944e-05
0.043069
9.39703e-05
0.043147
0.000119638
0.0432409
0.000144105
0.0433499
0.000167097
0.0434726
0.000188386
0.0436075
0.000207539
0.000225659
0.0429359
6.25726e-06
0.0429572
1.89693e-05
0.0429928
3.1772e-05
0.0430425
4.42954e-05
0.0431057