/*--------------------------------*- C++ -*----------------------------------*\
  =========                 |
  \\      /  F ield         | OpenFOAM: The Open Source CFD Toolbox
   \\    /   O peration     | Website:  https://openfoam.org
    \\  /    A nd           | Version:  6.0
     \\/     M anipulation  |
\*---------------------------------------------------------------------------*/
FoamFile
{
    version     2.0;
    format      ascii;
    class       volVectorField;
    location    "22";
    object      U;
}
// * * * * * * * * * * * * * * * * * * * * * * * * * * * * * * * * * * * * * //

dimensions      [0 1 -1 0 0 0 0];

internalField   nonuniform List<vector> 
2000
(
(-0.00199167 0.00174094 5.74871e-20)
(-0.00762208 0.00330793 6.82728e-20)
(-0.0153292 0.00366857 -6.50863e-20)
(-0.0223282 0.00334464 -1.3281e-19)
(-0.0276713 0.0026467 -9.27757e-20)
(-0.0312057 0.00177806 1.23598e-19)
(-0.033029 0.000884249 7.19949e-20)
(-0.0334107 7.20702e-05 -2.91232e-20)
(-0.032784 -0.000579272 -7.27065e-20)
(-0.0314422 -0.00100573 5.3013e-20)
(-0.00249027 0.00512405 -1.42491e-19)
(-0.00837109 0.00968999 1.96697e-19)
(-0.0157236 0.0107017 1.96144e-20)
(-0.0220194 0.00969994 -1.13935e-19)
(-0.0264479 0.00759824 5.45184e-19)
(-0.0289327 0.00499371 -2.39945e-19)
(-0.0296194 0.00231493 -2.59597e-19)
(-0.028804 -0.00011963 3.13111e-19)
(-0.0269359 -0.00206813 -3.08811e-19)
(-0.0243861 -0.00333774 1.55787e-19)
(-0.00343638 0.00822753 2.36658e-20)
(-0.00972796 0.0154127 8.41301e-21)
(-0.0162981 0.0168873 5.89467e-19)
(-0.0211348 0.0151378 2.06779e-19)
(-0.0237012 0.0116263 4.10091e-20)
(-0.0240725 0.00730471 3.39161e-19)
(-0.0224872 0.00285924 -6.44204e-19)
(-0.0192898 -0.00118707 1.39712e-20)
(-0.0149592 -0.00441728 -3.80954e-19)
(-0.0100284 -0.00650724 4.19675e-19)
(-0.00472458 0.0108702 -4.45145e-20)
(-0.0114021 0.0200616 2.56072e-19)
(-0.0166115 0.0217165 -7.46104e-19)
(-0.0191223 0.0191413 -9.6449e-20)
(-0.0188084 0.0142531 -5.49178e-19)
(-0.0159681 0.00829001 5.68772e-19)
(-0.010974 0.00214718 -6.03304e-19)
(-0.00423313 -0.00346604 4.23696e-19)
(0.00374095 -0.00793971 1.78124e-19)
(0.0121572 -0.010814 -2.01294e-19)
(-0.00618729 0.0128763 -4.95381e-19)
(-0.0129369 0.0232561 4.46338e-21)
(-0.0159719 0.0247598 9.19026e-19)
(-0.0151137 0.0213288 2.75542e-19)
(-0.0107813 0.0152029 -8.76112e-19)
(-0.00356785 0.00780424 5.44787e-19)
(0.00598259 0.000156018 6.17562e-19)
(0.0173958 -0.00688799 -5.50611e-19)
(0.0301351 -0.0125103 3.92602e-19)
(0.0430414 -0.0161124 9.64099e-20)
(-0.00758339 0.0140747 6.77193e-20)
(-0.01369 0.0246606 1.25572e-20)
(-0.0134134 0.0256891 -1.17488e-18)
(-0.00789157 0.0214911 -6.57319e-19)
(0.00178078 0.0144619 7.84156e-19)
(0.014642 0.0060748 -9.18309e-19)
(0.0299325 -0.00264096 1.05236e-18)
(0.0471126 -0.0107759 -9.08788e-20)
(0.0656641 -0.0173205 -2.96072e-19)
(0.0839445 -0.0215509 -8.60618e-19)
(-0.00858647 0.0143031 -1.47304e-19)
(-0.0128225 0.0239978 -2.69038e-19)
(-0.00769087 0.024292 -3.3055e-19)
(0.00411871 0.0195998 7.0522e-19)
(0.0207187 0.0122885 1.30828e-18)
(0.0406986 0.00373466 -2.70393e-19)
(0.0630184 -0.00519383 -6.58218e-19)
(0.0870575 -0.0137051 2.00754e-19)
(0.112401 -0.0206985 -1.26449e-18)
(0.136848 -0.0253768 1.38889e-18)
(-0.00878104 0.0134217 9.00891e-19)
(-0.00931436 0.0210744 -4.91709e-19)
(0.0026765 0.0204801 9.60138e-19)
(0.0227866 0.0157835 -1.56874e-18)
(0.0482479 0.00915921 -7.49637e-19)
(0.0771141 0.00176721 -1.03841e-18)
(0.107956 -0.00586542 3.01675e-19)
(0.139997 -0.0133316 -8.40158e-19)
(0.173056 -0.0196673 1.82961e-18)
(0.204477 -0.0241845 5.12222e-19)
(-0.00767782 0.0113435 6.62512e-20)
(-0.00202575 0.0158237 8.00959e-19)
(0.0192947 0.014295 1.59176e-18)
(0.0501283 0.0102596 4.86503e-19)
(0.0867927 0.00560528 1.43997e-18)
(0.126714 0.00129252 7.89391e-20)
(0.167882 -0.00248768 -7.81752e-22)
(0.209099 -0.00578486 5.8064e-19)
(0.250439 -0.00794223 4.69878e-19)
(0.289345 -0.00937636 -1.52477e-18)
(-0.00476402 0.00808031 -5.33521e-19)
(0.0101717 0.00836589 -8.93645e-19)
(0.0436924 0.00590576 -1.29913e-18)
(0.0880727 0.00316291 3.06455e-20)
(0.138856 0.00169615 -6.62395e-19)
(0.192942 0.00246755 1.04406e-18)
(0.247756 0.0057999 -2.87469e-18)
(0.301361 0.0119125 1.2907e-18)
(0.35311 0.0214001 4.85345e-19)
(0.40028 0.0301217 1.52282e-18)
(0.000397379 0.00380188 2.66897e-19)
(0.028149 -0.000895644 -1.02164e-18)
(0.076868 -0.00430837 9.12291e-19)
(0.137652 -0.00551164 -3.53984e-19)
(0.205674 -0.00350783 3.85044e-19)
(0.277972 0.00262688 8.38382e-19)
(0.352711 0.0136292 -1.12563e-18)
(0.429483 0.0304411 1.46308e-19)
(0.509266 0.0523274 -5.39444e-19)
(0.594409 0.0693183 1.0941e-18)
(0.00807134 -0.00111539 3.82297e-19)
(0.0522978 -0.0111159 -9.26132e-19)
(0.118824 -0.0153667 1.26201e-18)
(0.197849 -0.0150704 -7.86039e-19)
(0.284181 -0.0103459 -2.8835e-19)
(0.374767 -0.00105364 1.70723e-19)
(0.467796 0.0127181 8.8275e-20)
(0.5627 0.0306579 1.19751e-18)
(0.659128 0.0500517 3.44768e-19)
(0.754786 0.0622067 1.47351e-18)
(0.0183657 -0.00610983 -3.41186e-19)
(0.0826571 -0.0209418 1.19733e-18)
(0.169085 -0.0253007 -9.99219e-19)
(0.267167 -0.0228815 -1.17205e-18)
(0.371232 -0.0151648 1.63985e-18)
(0.477788 -0.00294366 -1.24699e-18)
(0.584435 0.0128513 3.29378e-19)
(0.689618 0.0311085 -1.95275e-18)
(0.791553 0.0491472 1.46273e-18)
(0.886259 0.0616252 7.30858e-20)
(0.0312868 -0.0105537 -4.44591e-19)
(0.119028 -0.0288163 -4.2946e-19)
(0.226956 -0.0318193 -9.14609e-19)
(0.344185 -0.0259383 1.10863e-18)
(0.4646 -0.0140984 -5.60131e-20)
(0.58424 0.00200509 7.16896e-19)
(0.700166 0.0207708 1.30794e-18)
(0.810139 0.0407014 -4.0193e-19)
(0.91179 0.0597035 -1.42169e-18)
(1.00111 0.0747655 2.82261e-18)
(0.0467646 -0.0138393 -2.29778e-19)
(0.160968 -0.0332377 -2.74099e-19)
(0.291435 -0.0328118 4.93405e-19)
(0.427244 -0.0217065 -9.17198e-19)
(0.562043 -0.00431385 1.56677e-19)
(0.691623 0.0168176 1.39467e-19)
(0.81286 0.0395392 6.11703e-20)
(0.923404 0.0621457 -9.85643e-21)
(1.02106 0.0831351 -1.49845e-19)
(1.10245 0.10089 -2.38648e-18)
(0.0646407 -0.0154046 9.32755e-19)
(0.207746 -0.0328815 -6.50983e-19)
(0.361085 -0.0265645 8.32133e-21)
(0.51419 -0.00837418 -9.91739e-19)
(0.660816 0.0158622 -3.54905e-19)
(0.796883 0.0428216 3.31808e-19)
(0.919553 0.0699301 2.57753e-19)
(1.02693 0.0953972 -9.18488e-19)
(1.11754 0.118259 7.50828e-19)
(1.18902 0.137701 -9.84544e-19)
(0.0846359 -0.0147384 4.02544e-19)
(0.258297 -0.0266581 -3.578e-19)
(0.434008 -0.0118574 1.48639e-18)
(0.602364 0.0150719 1.51603e-19)
(0.757713 0.0469824 3.48348e-19)
(0.89659 0.0799238 1.55293e-18)
(1.01696 0.111076 -2.37399e-19)
(1.1179 0.138732 2.16466e-19)
(1.19905 0.162489 8.96675e-20)
(1.25935 0.182012 -1.10254e-19)
(0.106321 -0.0113905 2.81214e-19)
(0.311214 -0.0137537 6.76231e-19)
(0.507892 0.011996 -7.24551e-19)
(0.688749 0.0488676 -2.45358e-19)
(0.849319 0.0886368 -3.03116e-19)
(0.987314 0.12698 4.69645e-19)
(1.10202 0.1611 -2.44351e-19)
(1.19391 0.189616 6.57442e-19)
(1.264 0.212778 2.21314e-19)
(1.31264 0.230588 -3.60781e-19)
(0.1291 -0.00499723 -3.03053e-19)
(0.364777 0.00632214 2.69405e-19)
(0.580128 0.0451272 -5.74924e-19)
(0.770177 0.0925279 2.4803e-19)
(0.932313 0.139633 -2.57389e-19)
(1.066 0.182126 -3.21293e-19)
(1.17229 0.217586 -2.5809e-19)
(1.25334 0.245248 2.8847e-19)
(1.31164 0.266141 -5.44062e-19)
(1.34898 0.280565 3.28797e-19)
(0.152222 0.00468137 -1.0802e-19)
(0.417023 0.0336808 -2.11339e-19)
(0.647965 0.0870981 1.00641e-19)
(0.843566 0.144916 6.19714e-21)
(1.00374 0.19817 8.35293e-20)
(1.13022 0.243043 1.14637e-19)
(1.22615 0.277901 1.06284e-19)
(1.29548 0.302887 -1.40933e-19)
(1.34214 0.319923 1.20046e-19)
(1.36922 0.329609 -1.87896e-19)
(0.174806 0.0177205 -6.25341e-20)
(0.465849 0.0680048 -2.34613e-20)
(0.708687 0.136902 9.33887e-20)
(0.906135 0.204324 -4.29833e-20)
(1.06123 0.261997 1.14631e-19)
(1.17834 0.307172 -1.48023e-19)
(1.26287 0.339419 3.43004e-20)
(1.32049 0.360035 3.68066e-20)
(1.35638 0.371899 -1.54517e-20)
(1.37474 0.375925 5.8431e-20)
(0.195887 0.0339953 -6.74683e-20)
(0.509144 0.108518 -3.05362e-19)
(0.759793 0.192993 -2.11716e-20)
(0.955587 0.268578 6.29761e-21)
(1.10312 0.328574 -3.97424e-19)
(1.20956 0.371891 5.25131e-20)
(1.28251 0.399666 -4.47287e-20)
(1.32921 0.414519 -1.07993e-19)
(1.35577 0.420282 2.25342e-19)
(1.36723 0.418175 -4.10965e-19)
(0.214474 0.0531561 -3.25982e-20)
(0.544922 0.153982 6.18536e-19)
(0.79916 0.253347 9.96619e-20)
(0.990244 0.335155 -5.44677e-19)
(1.12848 0.395216 -4.41879e-20)
(1.22383 0.434641 -5.22419e-19)
(1.28585 0.456402 3.83103e-19)
(1.32299 0.464505 -1.39143e-19)
(1.342 0.463661 2.46894e-19)
(1.34849 0.45537 -1.80778e-19)
(0.229615 0.0746196 -2.05535e-19)
(0.571459 0.202733 1.96472e-19)
(0.825181 0.315557 -1.41815e-19)
(1.00912 0.401318 1.06868e-18)
(1.13718 0.459224 5.27664e-19)
(1.22182 0.493019 -1.22428e-19)
(1.27418 0.507652 4.12728e-19)
(1.30354 0.50847 -2.71668e-19)
(1.31696 0.500919 -7.58724e-20)
(1.32034 0.486754 4.97795e-19)
(0.240462 0.0975774 -3.55842e-19)
(0.587416 0.252749 4.53109e-19)
(0.836853 0.37695 -8.91562e-19)
(1.01194 0.464247 1.25317e-19)
(1.12976 0.517994 2.80294e-19)
(1.20477 0.544838 -4.29424e-19)
(1.24922 0.55171 -5.01285e-19)
(1.27279 0.545147 2.20382e-19)
(1.28259 0.531151 -2.65733e-19)
(1.28459 0.511716 3.20414e-19)
(0.246336 0.121023 -8.98978e-20)
(0.591927 0.301745 -4.61072e-19)
(0.833826 0.434728 2.54991e-19)
(0.999109 0.521174 4.28425e-19)
(1.10733 0.569104 -2.57502e-19)
(1.17435 0.588153 -1.92183e-19)
(1.21294 0.587106 -1.06378e-19)
(1.2328 0.573464 -5.25717e-20)
(1.24083 0.55357 1.0505e-20)
(1.24296 0.529686 1.11931e-19)
(0.24678 0.143796 6.6232e-20)
(0.584665 0.347299 -3.87739e-19)
(0.816403 0.48612 6.46991e-19)
(0.97165 0.569511 -3.83197e-19)
(1.07152 0.610394 1.07978e-19)
(1.13254 0.62129 -1.52937e-19)
(1.16747 0.612593 1.6475e-19)
(1.18565 0.592479 3.30622e-20)
(1.19361 0.567408 -7.37622e-20)
(1.19716 0.539993 1.43685e-19)
(0.241612 0.164647 -1.74301e-19)
(0.565874 0.386996 3.40785e-19)
(0.785503 0.528531 -1.51344e-20)
(0.931085 0.606967 -7.42488e-20)
(1.02425 0.640043 -2.0182e-19)
(1.08151 0.642883 2.52996e-20)
(1.11506 0.627177 5.80212e-20)
(1.13355 0.601444 -1.48766e-19)
(1.14307 0.571964 1.73409e-19)
(1.14925 0.541855 1.48539e-19)
(0.230951 0.182322 4.07276e-20)
(0.536361 0.418583 -8.16542e-20)
(0.742578 0.559691 2.27449e-20)
(0.87929 0.631638 1.65809e-20)
(0.967605 0.656564 7.37976e-20)
(1.02339 0.651788 -1.41649e-19)
(1.05793 0.629963 -2.98686e-19)
(1.07895 0.599647 -1.22177e-19)
(1.09218 0.566608 -1.56355e-19)
(1.10258 0.534682 1.31967e-19)
(0.215244 0.195664 1.08514e-19)
(0.497459 0.440151 -1.69442e-19)
(0.689506 0.577826 1.63675e-19)
(0.818306 0.642127 -3.12112e-19)
(0.903465 0.658828 7.55745e-20)
(0.959738 0.646838 5.13186e-19)
(0.997318 0.619361 -1.57441e-19)
(1.0232 0.584695 1.86745e-19)
(1.04275 0.547993 2.7379e-19)
(1.05906 0.515012 9.96206e-19)
(0.19526 0.203736 6.7744e-19)
(0.450991 0.450315 -4.60549e-19)
(0.628546 0.581884 1.1218e-18)
(0.750304 0.637922 -1.92058e-19)
(0.833426 0.646769 9.63088e-19)
(0.891093 0.628057 6.04228e-19)
(0.932345 0.594737 -1.4193e-18)
(0.963603 0.553876 2.15553e-18)
(0.989486 0.50789 -4.55658e-19)
(1.00635 0.460995 8.96943e-19)
(0.172059 0.205884 -3.73845e-19)
(0.399224 0.448272 -2.66887e-19)
(0.562417 0.571548 2.58541e-19)
(0.677958 0.619497 -6.39033e-19)
(0.759692 0.622019 -1.99612e-18)
(0.81873 0.598996 -8.03021e-19)
(0.862721 0.563189 -7.23415e-19)
(0.897141 0.521738 3.50433e-19)
(0.925143 0.478153 2.91898e-18)
(0.942629 0.437384 -6.07104e-19)
(0.146901 0.201729 1.97071e-19)
(0.344743 0.433665 -7.9792e-19)
(0.494262 0.546791 1.75425e-19)
(0.60469 0.587148 -1.27759e-18)
(0.686083 0.585027 2.79677e-18)
(0.747318 0.559935 -3.24299e-19)
(0.794608 0.524082 1.52426e-18)
(0.832447 0.484256 -2.18312e-18)
(0.863364 0.443958 6.85051e-19)
(0.884668 0.407471 1.06012e-19)
(0.121123 0.191164 1.4531e-19)
(0.290175 0.406564 8.79916e-19)
(0.427136 0.50791 -2.58521e-18)
(0.533607 0.541242 1.2578e-18)
(0.615653 0.535992 -4.01286e-21)
(0.679908 0.510622 -4.24472e-19)
(0.731225 0.476433 5.3439e-19)
(0.773255 0.439624 -5.30899e-19)
(0.808184 0.40335 -1.82471e-18)
(0.834265 0.370862 -5.0009e-19)
(0.0960526 0.174341 4.75738e-19)
(0.238042 0.367486 5.33778e-19)
(0.363868 0.455629 2.20447e-18)
(0.467435 0.482525 -1.2264e-18)
(0.550848 0.475509 2.52787e-18)
(0.618583 0.451358 -5.44464e-19)
(0.67423 0.420142 -5.75425e-19)
(0.720716 0.387301 6.80051e-19)
(0.759947 0.355514 4.43368e-19)
(0.790884 0.327123 1.6074e-18)
(0.0729476 0.151675 -4.82948e-19)
(0.190671 0.317387 1.57693e-19)
(0.306999 0.391123 4.2677e-20)
(0.408547 0.412161 1.25047e-18)
(0.493716 0.404597 -3.12129e-18)
(0.565004 0.38296 5.30302e-19)
(0.624878 0.355825 1.17069e-18)
(0.675631 0.327753 -1.41527e-18)
(0.718947 0.300911 4.98562e-19)
(0.754407 0.276897 -2.31381e-18)
(0.0529488 0.123831 1.02932e-19)
(0.150119 0.257635 5.55234e-19)
(0.25873 0.315984 2.15943e-19)
(0.358955 0.331701 2.92671e-19)
(0.445952 0.324643 5.60724e-19)
(0.520516 0.306615 1.66929e-18)
(0.584166 0.284492 -2.04374e-18)
(0.638667 0.261885 -1.15098e-18)
(0.685533 0.240443 1.90727e-19)
(0.724914 0.221196 1.5005e-18)
(0.0370331 0.0916944 -6.22475e-19)
(0.118114 0.18996 -7.40193e-20)
(0.220881 0.232168 -6.20196e-19)
(0.320296 0.24303 8.83363e-20)
(0.408918 0.237339 -5.30875e-19)
(0.486194 0.223805 -6.06084e-19)
(0.552901 0.207446 -9.03179e-19)
(0.610394 0.190871 2.43362e-18)
(0.660076 0.175235 4.19801e-19)
(0.702571 0.16115 -6.39929e-19)
(0.0259737 0.0563451 3.355e-19)
(0.0960056 0.116398 4.43424e-19)
(0.194852 0.141933 1.74662e-19)
(0.293819 0.148298 -9.42761e-19)
(0.383648 0.144619 -4.38873e-19)
(0.462853 0.136231 -9.45086e-20)
(0.531702 0.126189 1.84647e-19)
(0.591274 0.116069 1.48266e-19)
(0.642901 0.106554 -1.1463e-18)
(0.687557 0.0979607 6.57781e-19)
(0.0203068 0.0190069 -1.74718e-19)
(0.0847162 0.0392092 -1.98754e-19)
(0.181597 0.0477564 1.584e-19)
(0.280368 0.0498522 1.40626e-19)
(0.370838 0.0485811 1.44119e-19)
(0.451044 0.0457401 2.2039e-19)
(0.520995 0.0423545 -1.15956e-20)
(0.58163 0.0389516 -2.89064e-19)
(0.63425 0.0357572 2.7455e-19)
(0.680011 0.0328679 -4.13062e-19)
(0.0203067 -0.0190044 -1.75865e-19)
(0.084716 -0.0392037 -1.89405e-19)
(0.181596 -0.0477495 1.74544e-19)
(0.280367 -0.0498447 3.41723e-19)
(0.370838 -0.0485735 2.27678e-19)
(0.451043 -0.0457327 -2.99988e-19)
(0.520995 -0.0423474 -1.62991e-19)
(0.581629 -0.038945 7.10885e-20)
(0.63425 -0.0357509 1.59796e-19)
(0.680011 -0.032862 -9.51522e-20)
(0.0259734 -0.0563425 4.19679e-19)
(0.096005 -0.116392 -5.33325e-19)
(0.194851 -0.141926 -4.43468e-20)
(0.293818 -0.148291 2.9548e-19)
(0.383647 -0.144611 -1.33583e-18)
(0.462852 -0.136224 5.70756e-19)
(0.531702 -0.126182 5.89133e-19)
(0.591273 -0.116063 -6.9547e-19)
(0.642901 -0.106548 6.6429e-19)
(0.687556 -0.0979549 -2.91589e-19)
(0.0370326 -0.091692 -7.25621e-20)
(0.118113 -0.189955 -9.24551e-21)
(0.220879 -0.232161 -1.44039e-18)
(0.320295 -0.243022 -4.58156e-19)
(0.408917 -0.237332 -4.82474e-20)
(0.486193 -0.223798 -7.53684e-19)
(0.5529 -0.207439 1.40426e-18)
(0.610393 -0.190865 -4.93773e-20)
(0.660075 -0.175229 8.01794e-19)
(0.70257 -0.161145 -7.0492e-19)
(0.0529482 -0.123828 1.22538e-19)
(0.150117 -0.257629 -5.67187e-19)
(0.258728 -0.315977 1.74533e-18)
(0.358954 -0.331694 2.46999e-19)
(0.44595 -0.324635 1.21409e-18)
(0.520514 -0.306607 -1.18682e-18)
(0.584165 -0.284485 1.24589e-18)
(0.638665 -0.261878 -8.98277e-19)
(0.685532 -0.240437 -3.94502e-19)
(0.724912 -0.22119 3.35052e-19)
(0.0729468 -0.151673 1.09397e-18)
(0.190669 -0.317382 2.80876e-21)
(0.306996 -0.391117 -1.83909e-18)
(0.408545 -0.412154 -5.33521e-19)
(0.493714 -0.40459 1.77165e-18)
(0.565002 -0.382953 -1.03819e-18)
(0.624876 -0.355818 -1.20186e-18)
(0.675629 -0.327747 1.08137e-18)
(0.718945 -0.300905 -7.3612e-19)
(0.754405 -0.276891 -1.58717e-19)
(0.0960516 -0.174338 -1.63316e-19)
(0.23804 -0.367482 -7.72008e-21)
(0.363865 -0.455623 1.99543e-18)
(0.467432 -0.482518 1.14416e-18)
(0.550845 -0.475502 -1.34917e-18)
(0.61858 -0.451352 1.63362e-18)
(0.674228 -0.420136 -1.7724e-18)
(0.720713 -0.387294 1.76444e-19)
(0.759945 -0.355508 5.27954e-19)
(0.790882 -0.327117 1.22137e-18)
(0.121122 -0.191162 1.87049e-19)
(0.290173 -0.40656 3.0113e-19)
(0.427133 -0.507904 3.27432e-19)
(0.533604 -0.541235 -1.05359e-18)
(0.61565 -0.535986 -1.87649e-18)
(0.679905 -0.510616 3.95188e-19)
(0.731222 -0.476426 1.14381e-18)
(0.773253 -0.439618 -3.27378e-19)
(0.808181 -0.403344 1.97057e-18)
(0.834262 -0.370856 -1.9209e-18)
(0.1469 -0.201728 -1.0587e-18)
(0.34474 -0.433661 4.06471e-19)
(0.494259 -0.546786 -1.0983e-18)
(0.604687 -0.587142 1.77545e-18)
(0.68608 -0.58502 8.87821e-19)
(0.747314 -0.559929 1.2535e-18)
(0.794605 -0.524076 -2.89919e-19)
(0.832443 -0.48425 1.14305e-18)
(0.863361 -0.443953 -2.41987e-18)
(0.884666 -0.407466 -6.30905e-19)
(0.172057 -0.205882 6.25698e-20)
(0.399221 -0.448269 -7.10789e-19)
(0.562414 -0.571543 -1.13723e-18)
(0.677954 -0.619491 -4.82239e-19)
(0.759688 -0.622013 -1.36255e-18)
(0.818726 -0.59899 -1.38759e-19)
(0.862718 -0.563184 1.18759e-19)
(0.897137 -0.521733 -5.32282e-19)
(0.925139 -0.478148 -5.95147e-19)
(0.942626 -0.437379 1.56939e-18)
(0.195259 -0.203735 3.34139e-19)
(0.450989 -0.450312 4.66183e-19)
(0.628542 -0.581879 8.35729e-19)
(0.7503 -0.637916 3.72459e-20)
(0.833422 -0.646764 5.58039e-19)
(0.891089 -0.628051 -7.63716e-19)
(0.93234 -0.594731 2.33232e-18)
(0.963599 -0.55387 -1.02961e-18)
(0.989482 -0.507886 -5.05903e-19)
(1.00634 -0.46099 -1.52573e-18)
(0.215243 -0.195663 -1.3146e-19)
(0.497456 -0.440148 2.30944e-19)
(0.689502 -0.577822 -2.36919e-19)
(0.818301 -0.642122 1.28027e-19)
(0.90346 -0.658823 -1.51371e-19)
(0.959733 -0.646833 -3.88494e-19)
(0.997313 -0.619356 5.10977e-19)
(1.0232 -0.58469 -1.67688e-19)
(1.04274 -0.547988 2.5932e-19)
(1.05906 -0.515008 -5.66012e-19)
(0.23095 -0.18232 -6.54506e-21)
(0.536358 -0.418581 -1.08597e-19)
(0.742574 -0.559687 2.42294e-20)
(0.879285 -0.631634 1.42584e-19)
(0.9676 -0.656559 -6.60632e-20)
(1.02339 -0.651783 1.79772e-20)
(1.05792 -0.629958 -1.69617e-20)
(1.07895 -0.599642 -3.80068e-19)
(1.09217 -0.566604 -1.76978e-19)
(1.10258 -0.534678 -5.55605e-19)
(0.241611 -0.164646 -9.68491e-20)
(0.565871 -0.386994 3.41904e-19)
(0.785498 -0.528527 -2.13133e-19)
(0.93108 -0.606963 -7.88986e-20)
(1.02424 -0.640039 3.80533e-20)
(1.0815 -0.642879 6.8243e-20)
(1.11506 -0.627172 -6.16525e-21)
(1.13354 -0.60144 2.87187e-19)
(1.14307 -0.57196 -2.48774e-19)
(1.14924 -0.541851 -3.34959e-21)
(0.246779 -0.143795 -2.37599e-19)
(0.584662 -0.347297 -1.49189e-19)
(0.816398 -0.486117 -3.70226e-19)
(0.971645 -0.569507 4.21312e-19)
(1.07151 -0.61039 -3.08507e-20)
(1.13254 -0.621286 1.37928e-19)
(1.16746 -0.612589 1.57047e-19)
(1.18564 -0.592475 -5.69319e-20)
(1.19361 -0.567404 4.66483e-20)
(1.19715 -0.53999 -1.51368e-19)
(0.246335 -0.121022 -1.61458e-19)
(0.591924 -0.301743 -2.07382e-19)
(0.833822 -0.434726 3.12774e-19)
(0.999104 -0.521171 -4.70405e-19)
(1.10733 -0.5691 8.26032e-20)
(1.17435 -0.588149 4.19172e-20)
(1.21293 -0.587103 9.21576e-20)
(1.23279 -0.57346 -6.04641e-20)
(1.24083 -0.553567 -7.28036e-20)
(1.24296 -0.529683 -2.43273e-19)
(0.240461 -0.0975769 6.73114e-19)
(0.587413 -0.252748 -5.26674e-19)
(0.836849 -0.376948 2.45613e-20)
(1.01193 -0.464244 -6.75452e-19)
(1.12975 -0.517991 -1.96315e-19)
(1.20477 -0.544834 1.57136e-19)
(1.24921 -0.551706 1.15241e-19)
(1.27278 -0.545144 -3.84538e-19)
(1.28258 -0.531148 1.6981e-19)
(1.28458 -0.511713 -3.05567e-19)
(0.229614 -0.0746193 3.33905e-19)
(0.571456 -0.202732 -3.30446e-19)
(0.825177 -0.315555 1.18638e-18)
(1.00911 -0.401315 9.47225e-20)
(1.13718 -0.459222 2.69135e-19)
(1.22182 -0.493016 9.61061e-19)
(1.27418 -0.507649 -1.99519e-19)
(1.30353 -0.508467 4.89773e-20)
(1.31695 -0.500916 -2.81299e-20)
(1.32034 -0.486752 -4.98101e-20)
(0.214473 -0.0531559 2.57323e-19)
(0.544919 -0.153981 5.84888e-19)
(0.799156 -0.253346 -5.96367e-19)
(0.990239 -0.335153 -1.81266e-19)
(1.12848 -0.395214 -1.9203e-19)
(1.22382 -0.434639 3.7773e-19)
(1.28584 -0.456399 -1.78363e-19)
(1.32298 -0.464503 4.20799e-19)
(1.34199 -0.463658 1.0151e-19)
(1.34849 -0.455368 -1.78458e-19)
(0.195886 -0.0339952 -2.7797e-19)
(0.509142 -0.108517 2.57972e-19)
(0.759789 -0.192992 -5.29721e-19)
(0.955583 -0.268576 2.21829e-19)
(1.10311 -0.328572 -2.22371e-19)
(1.20955 -0.371889 -2.64514e-19)
(1.28251 -0.399664 -2.0534e-19)
(1.3292 -0.414517 2.26602e-19)
(1.35576 -0.42028 -3.94171e-19)
(1.36723 -0.418174 2.49516e-19)
(0.174805 -0.0177204 -1.04126e-19)
(0.465847 -0.0680044 -2.04369e-19)
(0.708683 -0.136901 9.6143e-20)
(0.90613 -0.204323 7.08863e-21)
(1.06123 -0.261995 7.65477e-20)
(1.17834 -0.307171 1.09708e-19)
(1.26286 -0.339418 9.3477e-20)
(1.32048 -0.360033 -1.2646e-19)
(1.35637 -0.371897 1.03168e-19)
(1.37474 -0.375923 -1.62999e-19)
(0.152221 -0.00468133 -6.5611e-20)
(0.417021 -0.0336806 -2.6446e-20)
(0.647962 -0.0870975 9.85764e-20)
(0.843562 -0.144915 -4.44642e-20)
(1.00374 -0.198169 1.24492e-19)
(1.13021 -0.243042 -1.57379e-19)
(1.22615 -0.2779 4.0415e-20)
(1.29548 -0.302886 3.47036e-20)
(1.34213 -0.319922 -1.24273e-20)
(1.36921 -0.329608 5.69545e-20)
(0.1291 0.00499725 -7.87055e-20)
(0.364776 -0.00632201 -3.33753e-19)
(0.580125 -0.0451269 -2.68949e-20)
(0.770174 -0.0925273 1.07344e-20)
(0.932309 -0.139633 -4.63153e-19)
(1.06599 -0.182125 4.89091e-20)
(1.17229 -0.217586 -5.18173e-20)
(1.25333 -0.245248 -1.41006e-19)
(1.31163 -0.266141 3.12139e-19)
(1.34897 -0.280564 -5.67924e-19)
(0.10632 0.0113905 -4.46241e-20)
(0.311213 0.0137538 7.15868e-19)
(0.507889 -0.0119958 9.55133e-20)
(0.688746 -0.0488671 -6.46776e-19)
(0.849315 -0.0886362 -7.74201e-20)
(0.987308 -0.12698 -7.29596e-19)
(1.10202 -0.161099 5.67386e-19)
(1.1939 -0.189616 -2.30365e-19)
(1.26399 -0.212777 4.36621e-19)
(1.31263 -0.230588 -3.85312e-19)
(0.0846358 0.0147384 -2.52394e-19)
(0.258296 0.0266582 2.93958e-19)
(0.434006 0.0118576 -2.0535e-19)
(0.602361 -0.0150716 1.41945e-18)
(0.757709 -0.0469819 7.51485e-19)
(0.896585 -0.0799233 -1.96816e-19)
(1.01696 -0.111075 7.65324e-19)
(1.11789 -0.138732 -5.00485e-19)
(1.19905 -0.162488 -1.61066e-19)
(1.25934 -0.182012 1.16317e-18)
(0.0646407 0.0154046 -4.66626e-19)
(0.207746 0.0328816 6.96791e-19)
(0.361084 0.0265647 -1.32158e-18)
(0.514187 0.00837455 2.28782e-19)
(0.660813 -0.0158617 5.70544e-19)
(0.796879 -0.0428212 -7.16941e-19)
(0.919547 -0.0699297 -1.27004e-18)
(1.02692 -0.0953971 6.80866e-19)
(1.11753 -0.118259 -8.8564e-19)
(1.18902 -0.137701 1.41733e-18)
(0.0467647 0.0138394 -1.15347e-19)
(0.160968 0.0332379 -7.01373e-19)
(0.291434 0.0328122 3.46217e-19)
(0.427242 0.021707 8.66315e-19)
(0.56204 0.0043144 -4.65332e-19)
(0.691619 -0.0168171 -4.59292e-19)
(0.812855 -0.0395389 -7.78837e-19)
(0.923398 -0.0621456 -3.56921e-19)
(1.02105 -0.0831352 -8.57423e-20)
(1.10244 -0.10089 1.41636e-18)
(0.0312869 0.0105539 1.93723e-19)
(0.119028 0.0288167 -9.5289e-19)
(0.226956 0.03182 1.63007e-18)
(0.344183 0.0259392 -9.07681e-19)
(0.464597 0.0140992 5.88225e-19)
(0.584236 -0.00200431 -7.3194e-19)
(0.700161 -0.0207703 8.15239e-19)
(0.810133 -0.0407011 7.12045e-19)
(0.911783 -0.0597035 1.55574e-18)
(1.0011 -0.0747658 -2.57201e-18)
(0.018366 0.00611008 -6.0194e-19)
(0.0826574 0.0209424 1.20889e-18)
(0.169085 0.0253018 1.61684e-20)
(0.267166 0.0228828 -4.35466e-19)
(0.37123 0.0151662 -2.31209e-19)
(0.477784 0.00294501 1.84888e-19)
(0.58443 -0.0128502 -1.31263e-18)
(0.689612 -0.0311078 1.01416e-18)
(0.791546 -0.0491469 -1.30707e-18)
(0.886251 -0.0616253 -5.96564e-19)
(0.00807172 0.00111579 1.03595e-18)
(0.0522984 0.0111169 -3.23168e-19)
(0.118825 0.0153684 -6.06371e-19)
(0.197849 0.0150726 1.64693e-18)
(0.28418 0.0103482 -1.61793e-18)
(0.374764 0.00105593 9.04044e-19)
(0.467792 -0.012716 9.62932e-19)
(0.562694 -0.0306563 2.63515e-19)
(0.659121 -0.0500507 2.74055e-19)
(0.754778 -0.0622062 -3.88686e-19)
(0.000397869 -0.00380128 -9.90834e-19)
(0.02815 0.000897309 9.41893e-19)
(0.0768687 0.00431099 -8.33594e-19)
(0.137652 0.00551493 1.04599e-18)
(0.205673 0.00351148 -3.125e-19)
(0.27797 -0.00262317 -1.08552e-18)
(0.352706 -0.0136257 3.1129e-19)
(0.429477 -0.0304381 -5.13592e-19)
(0.509258 -0.0523251 -6.08288e-19)
(0.5944 -0.0693166 -1.89747e-18)
(-0.0047634 -0.00807942 -1.23795e-18)
(0.0101729 -0.00836346 9.84252e-19)
(0.0436934 -0.00590199 -1.92864e-18)
(0.0880728 -0.00315816 3.449e-19)
(0.138855 -0.0016908 -1.33635e-18)
(0.19294 -0.00246196 -8.0158e-19)
(0.247752 -0.0057944 1.9184e-18)
(0.301354 -0.0119074 -2.62294e-18)
(0.353101 -0.0213957 5.04878e-19)
(0.400269 -0.0301181 -8.31831e-19)
(-0.00767707 -0.0113422 6.09825e-19)
(-0.00202427 -0.0158204 2.58103e-19)
(0.019296 -0.0142899 -7.68276e-20)
(0.0501287 -0.0102531 7.32979e-19)
(0.0867919 -0.00559794 2.15257e-18)
(0.126711 -0.00128476 7.43036e-19)
(0.167878 0.00249548 7.67836e-19)
(0.209092 0.00579235 -2.65483e-19)
(0.250431 0.00794906 -2.47727e-18)
(0.289335 0.00938223 6.28215e-19)
(-0.00878016 -0.01342 -1.72202e-19)
(-0.00931265 -0.0210699 5.48116e-19)
(0.00267803 -0.0204733 -1.43598e-19)
(0.0227873 -0.0157751 1.0139e-18)
(0.0482473 -0.00914973 -2.34428e-18)
(0.0771119 -0.00175718 1.99036e-19)
(0.107952 0.00587555 -1.11588e-18)
(0.13999 0.0133414 1.64221e-18)
(0.173048 0.0196764 -4.79965e-19)
(0.204466 0.0241924 -6.85845e-20)
(-0.00858549 -0.0143008 -1.17222e-19)
(-0.0128206 -0.0239921 -6.59164e-19)
(-0.00768916 -0.0242836 1.65793e-18)
(0.00411958 -0.0195894 -8.74134e-19)
(0.0207183 -0.0122768 6.14099e-20)
(0.0406966 -0.00372236 2.80541e-19)
(0.0630145 0.00520623 -2.56464e-19)
(0.0870516 0.0137171 3.33261e-19)
(0.112393 0.0207096 1.15498e-18)
(0.136838 0.0253866 3.02254e-19)
(-0.00758237 -0.0140719 -2.62973e-19)
(-0.0136881 -0.0246536 -2.92515e-19)
(-0.0134116 -0.0256789 -1.29837e-18)
(-0.00789058 -0.0214788 6.91377e-19)
(0.00178056 -0.0144481 -1.42609e-18)
(0.0146402 -0.00606035 3.2397e-19)
(0.0299291 0.00265549 3.64303e-19)
(0.0471073 0.01079 -3.85065e-19)
(0.0656568 0.0173336 -2.49152e-19)
(0.0839351 0.0215626 -1.11968e-18)
(-0.0061863 -0.0128729 2.05466e-19)
(-0.012935 -0.0232479 -4.83374e-20)
(-0.0159702 -0.024748 9.68337e-22)
(-0.0151127 -0.0213146 -6.24027e-19)
(-0.0107814 -0.0151872 1.5797e-18)
(-0.00356929 -0.00778785 -2.464e-19)
(0.00597962 -0.000139582 -6.14944e-19)
(0.0173911 0.00690387 7.52676e-19)
(0.0301287 0.0125251 -2.64524e-19)
(0.0430331 0.0161257 1.4621e-18)
(-0.0047237 -0.0108663 -3.85678e-20)
(-0.0114005 -0.0200522 -2.26114e-19)
(-0.01661 -0.0217033 -8.92421e-20)
(-0.0191214 -0.0191255 -1.14013e-19)
(-0.0188084 -0.0142357 -2.45116e-19)
(-0.0159693 -0.00827195 -7.69783e-19)
(-0.0109764 -0.00212913 9.62923e-19)
(-0.00423691 0.00348347 5.62526e-19)
(0.00373571 0.00795597 -1.00762e-19)
(0.0121504 0.0108286 -8.96818e-19)
(-0.00343568 -0.00822313 2.19023e-19)
(-0.00972665 -0.0154024 3.82667e-20)
(-0.0162969 -0.0168729 2.59051e-19)
(-0.021134 -0.0151207 -2.96586e-20)
(-0.0237012 -0.0116076 2.35885e-19)
(-0.0240733 -0.00728534 2.66145e-19)
(-0.0224889 -0.00283992 3.99026e-19)
(-0.0192926 0.0012057 -1.13038e-18)
(-0.0149631 0.00443468 -2.08644e-19)
(-0.0100335 0.00652298 3.73927e-19)
(-0.00248982 -0.00511934 -1.106e-19)
(-0.00837025 -0.009679 -1.57191e-19)
(-0.0157228 -0.0106864 -7.56127e-20)
(-0.0220189 -0.00968193 3.69845e-19)
(-0.0264478 -0.00757863 1.79523e-19)
(-0.0289331 -0.00497344 3.68175e-20)
(-0.0296204 -0.00229474 -7.98221e-20)
(-0.0288057 0.000139088 -6.19234e-20)
(-0.0269382 0.00208631 5.31537e-19)
(-0.0243892 0.00335423 -3.62014e-19)
(-0.00199152 -0.00173606 5.63837e-20)
(-0.00762179 -0.0032966 7.01532e-20)
(-0.0153289 -0.00365289 -5.98172e-20)
(-0.0223281 -0.00332618 -5.47117e-20)
(-0.0276713 -0.00262663 -5.67281e-20)
(-0.0312058 -0.00175733 -9.05214e-20)
(-0.0330293 -0.000863623 2.90602e-21)
(-0.0334113 -5.21966e-05 1.25601e-19)
(-0.0327848 0.000597853 -1.26117e-19)
(-0.0314432 0.0010226 2.29458e-19)
(-0.00790193 -0.00259921 1.65993e-20)
(0.062521 -0.00665815 9.99242e-21)
(0.277985 -0.0067648 1.36035e-21)
(0.378719 -0.00437756 -9.14927e-22)
(0.480072 -0.00366523 -6.23507e-23)
(0.557379 -0.00261517 1.55006e-22)
(0.607231 -0.00221271 1.93839e-22)
(0.666542 -0.00167323 -4.31521e-23)
(0.687548 -0.00159064 -1.60413e-24)
(0.742775 -0.00113409 2.44218e-22)
(0.00891534 -0.00809787 2.62831e-20)
(0.0777823 -0.019758 1.19376e-21)
(0.289497 -0.0200888 -1.77052e-20)
(0.387461 -0.0130533 1.4346e-20)
(0.4868 -0.0110353 9.2661e-22)
(0.562608 -0.00787563 -6.44052e-22)
(0.611525 -0.0066345 7.99708e-22)
(0.669902 -0.0049216 9.48864e-23)
(0.690493 -0.00460199 2.37223e-22)
(0.744988 -0.00333919 -2.24391e-22)
(0.0422494 -0.0144768 2.69737e-20)
(0.107826 -0.0323767 -3.63361e-20)
(0.312093 -0.0329525 1.80771e-20)
(0.404639 -0.0214284 -1.19122e-20)
(0.500023 -0.0181777 8.64771e-22)
(0.572889 -0.012984 -6.84566e-22)
(0.619977 -0.0109404 -3.08729e-22)
(0.676506 -0.00808858 8.1759e-24)
(0.6963 -0.00754667 -1.82533e-22)
(0.749346 -0.00550273 -3.27718e-22)
(0.0914962 -0.0222141 -4.17024e-20)
(0.151729 -0.0442153 -5.0338e-20)
(0.344937 -0.0450699 -2.33583e-20)
(0.429649 -0.029319 1.23636e-20)
(0.519288 -0.0249519 -1.52032e-20)
(0.587905 -0.0178467 4.08935e-21)
(0.632345 -0.0150586 -2.49929e-22)
(0.686204 -0.011124 1.6964e-22)
(0.704845 -0.0103827 -2.07972e-22)
(0.755795 -0.00759785 1.21391e-22)
(0.15572 -0.0315824 1.15561e-19)
(0.208163 -0.0549861 7.28984e-20)
(0.386835 -0.0561769 2.62599e-20)
(0.461621 -0.0365631 -2.40511e-20)
(0.543942 -0.0312332 1.2511e-20)
(0.607185 -0.0223803 3.35575e-21)
(0.64827 -0.0189242 2.57073e-21)
(0.698736 -0.0139819 3.22268e-22)
(0.715926 -0.0130717 4.94475e-22)
(0.7642 -0.00960001 -6.4234e-22)
(0.233636 -0.0425083 -5.11445e-20)
(0.275448 -0.064374 3.89869e-20)
(0.436298 -0.0660196 4.84291e-21)
(0.499476 -0.0430175 2.69249e-20)
(0.573174 -0.0369142 -6.15908e-21)
(0.63015 -0.0265142 -3.93207e-21)
(0.66731 -0.0224813 -2.64323e-21)
(0.713793 -0.016623 -2.35543e-22)
(0.729297 -0.0155794 -2.42842e-22)
(0.774408 -0.0114864 6.80905e-22)
(0.323608 -0.054711 -3.87103e-20)
(0.351612 -0.0721141 -1.01434e-19)
(0.491621 -0.0743946 -1.72479e-20)
(0.541975 -0.0485662 -1.49198e-20)
(0.606063 -0.0419114 7.2831e-21)
(0.656131 -0.0301927 -2.08898e-21)
(0.688951 -0.0256851 2.73682e-21)
(0.731007 -0.0190149 5.67864e-22)
(0.744668 -0.0178773 -7.28663e-23)
(0.786232 -0.0132366 2.61839e-22)