/*--------------------------------*- C++ -*----------------------------------*\
  =========                 |
  \\      /  F ield         | OpenFOAM: The Open Source CFD Toolbox
   \\    /   O peration     | Website:  https://openfoam.org
    \\  /    A nd           | Version:  6.0
     \\/     M anipulation  |
\*---------------------------------------------------------------------------*/
FoamFile
{
    version     2.0;
    format      ascii;
    class       volScalarField;
    location    "0.3";
    object      p;
}
// * * * * * * * * * * * * * * * * * * * * * * * * * * * * * * * * * * * * * //

dimensions      [0 2 -2 0 0 0 0];

internalField   nonuniform List<scalar> 
800
(
-3.24234e-09
-6.88971e-05
-0.000199576
-0.00036248
-0.000539902
-0.000726959
-0.000924819
-0.00113605
-0.00136231
-0.00160368
-0.00185871
-0.00212481
-0.00239848
-0.00267531
-0.00294977
-0.0032147
-0.00346055
-0.00367432
-0.00383814
-0.00392723
-0.0039072
-0.0037306
-0.00333267
-0.00262725
-0.00150437
0.000166979
0.0025265
0.0056955
0.00973276
0.0145776
0.0199949
0.0255501
0.0306474
0.0346566
0.0371128
0.0379129
0.037393
0.0362137
0.0351106
0.034597
6.91505e-05
-4.74922e-06
-0.000118338
-0.000257273
-0.000414518
-0.000587426
-0.000776064
-0.00098102
-0.00120206
-0.00143779
-0.0016857
-0.00194239
-0.00220359
-0.00246409
-0.00271744
-0.00295542
-0.00316744
-0.00333959
-0.00345361
-0.00348542
-0.00340334
-0.00316572
-0.00271816
-0.00199022
-0.000892615
0.000683303
0.00286
0.00575594
0.00944911
0.0139207
0.0189911
0.0242781
0.0292199
0.0331953
0.0357275
0.0366921
0.0363994
0.0354696
0.03456
0.0340942
0.000208975
0.000102351
-1.58976e-05
-0.000145233
-0.00029088
-0.000453988
-0.000635535
-0.000835809
-0.00105368
-0.00128674
-0.00153168
-0.00178444
-0.0020403
-0.0022937
-0.00253798
-0.00276494
-0.00296443
-0.00312376
-0.00322721
-0.00325534
-0.00318417
-0.00298359
-0.00261471
-0.00202507
-0.00114167
0.000136758
0.00194287
0.00442956
0.0077331
0.0119066
0.0168366
0.0221789
0.0273619
0.0316987
0.0346045
0.0358438
0.0356644
0.0346992
0.0336572
0.0330026
0.000383242
0.000229333
9.44472e-05
-3.42188e-05
-0.000174808
-0.000332687
-0.000510509
-0.000709027
-0.000926772
-0.00116073
-0.00140701
-0.0016612
-0.00191845
-0.00217338
-0.00241991
-0.00265106
-0.00285886
-0.00303441
-0.00316816
-0.00325031
-0.00327091
-0.00321871
-0.00307738
-0.00281702
-0.00238005
-0.00166354
-0.00050609
0.0013065
0.00400121
0.0077378
0.0125042
0.0180251
0.0237351
0.0288611
0.0326323
0.0345734
0.0347412
0.0337297
0.032375
0.0313454
0.000552092
0.000347407
0.000192502
6.10238e-05
-7.81994e-05
-0.000234513
-0.000412088
-0.000612123
-0.000832894
-0.00107092
-0.00132196
-0.00158147
-0.00184483
-0.00210736
-0.00236434
-0.00261118
-0.00284391
-0.0030601
-0.00326029
-0.00344966
-0.0036392
-0.0038447
-0.00408111
-0.0043491
-0.00461229
-0.00476807
-0.00462257
-0.00388775
-0.00222018
0.000690256
0.00499607
0.0105694
0.0169279
0.0232545
0.0285527
0.0319544
0.0330986
0.0323514
0.0306449
0.0290541
0.00067913
0.00042491
0.000249733
0.000113717
-2.68743e-05
-0.000184835
-0.000365387
-0.000569889
-0.000796283
-0.00104071
-0.00129874
-0.00156599
-0.00183842
-0.00211256
-0.00238583
-0.00265723
-0.00292856
-0.00320649
-0.00350536
-0.00385043
-0.0042803
-0.00484616
-0.00560428
-0.00659751
-0.00782353
-0.00919252
-0.010486
-0.0113385
-0.0112665
-0.00976199
-0.00643651
-0.00117927
0.00571791
0.0135009
0.0210009
0.0268679
0.030044
0.0302957
0.0284025
0.0260169
0.000730214
0.000429192
0.000234794
9.37261e-05
-4.97274e-05
-0.000211255
-0.000396621
-0.000607006
-0.000839903
-0.00109112
-0.00135622
-0.00163118
-0.00191292
-0.00219962
-0.00249154
-0.00279225
-0.00311082
-0.00346513
-0.00388634
-0.00442392
-0.00514966
-0.00615772
-0.00755588
-0.00944262
-0.0118658
-0.0147646
-0.0179056
-0.020842
-0.0229293
-0.0234271
-0.0216713
-0.0172649
-0.0102322
-0.00112984
0.00888177
0.0180881
0.0245893
0.0270643
0.0255557
0.0221459
0.000672857
0.000327389
0.000115491
-2.96179e-05
-0.000175361
-0.00033997
-0.00052937
-0.0007443
-0.000981712
-0.00123713
-0.00150619
-0.00178549
-0.00207308
-0.00236917
-0.00267731
-0.00300628
-0.00337333
-0.0038088
-0.00436235
-0.00510994
-0.00615983
-0.0076538
-0.00975785
-0.0126349
-0.016393
-0.0210069
-0.0262291
-0.0315224
-0.0360708
-0.0389027
-0.0391025
-0.0360263
-0.0294464
-0.0196433
-0.00753285
0.00516267
0.0159196
0.0220196
0.0219428
0.017465
0.000475395
8.61939e-05
-0.000140868
-0.000286717
-0.000431028
-0.000594648
-0.000783537
-0.000997864
-0.001234
-0.00148719
-0.00175326
-0.00202945
-0.00231508
-0.00261254
-0.00292881
-0.0032781
-0.00368599
-0.00419537
-0.00487428
-0.0058248
-0.00719098
-0.00916122
-0.0119583
-0.015807
-0.0208703
-0.0271502
-0.034373
-0.0419048
-0.0487689
-0.0538056
-0.0559302
-0.0543637
-0.0487364
-0.0390934
-0.0259631
-0.0106542
0.004262
0.0148665
0.0174159
0.0123397
0.000105147
-0.000329566
-0.000568125
-0.000707608
-0.000842035
-0.000995627
-0.00117456
-0.00137844
-0.00160302
-0.00184325
-0.00209505
-0.00235627
-0.00262743
-0.00291297
-0.0032232
-0.00357751
-0.00400923
-0.00457274
-0.00535245
-0.00647322
-0.00810949
-0.0104882
-0.0138773
-0.0185477
-0.0246977
-0.0323367
-0.0411526
-0.0504223
-0.0590465
-0.0657487
-0.0693738
-0.0691275
-0.0646328
-0.0558275
-0.0428891
-0.0264859
-0.00862521
0.0062749
0.0122797
0.00782431
-0.000474985
-0.000959935
-0.00120314
-0.00132264
-0.00143162
-0.00155944
-0.00171292
-0.00189116
-0.00208912
-0.00230123
-0.00252328
-0.00275343
-0.00299311
-0.00324851
-0.00353284
-0.00387005
-0.00430023
-0.00488729
-0.00572869
-0.00696634
-0.00879589
-0.0114691
-0.0152798
-0.0205209
-0.0274
-0.0359144
-0.0457128
-0.0560109
-0.065646
-0.0733022
-0.0778304
-0.0784906
-0.0749788
-0.0672434
-0.0552631
-0.0391285
-0.0199814
-0.00190667
0.00783724
0.00568619
-0.00131245
-0.00185511
-0.00208895
-0.00216354
-0.00222075
-0.00229806
-0.0024034
-0.002535
-0.00268659
-0.00285153
-0.00302493
-0.00320468
-0.00339263
-0.00359613
-0.00383074
-0.00412417
-0.00452205
-0.00509572
-0.00595187
-0.0072429
-0.00917518
-0.0120094
-0.0160439
-0.021568
-0.0287754
-0.0376395
-0.0477818
-0.0583997
-0.0683317
-0.0762879
-0.0811664
-0.0822913
-0.0794306
-0.0725837
-0.06167
-0.0464281
-0.0272015
-0.00717704
0.00625517
0.00786395
-0.00247583
-0.00308428
-0.00327906
-0.00326381
-0.00322655
-0.00321673
-0.00324281
-0.00330093
-0.00338235
-0.00347829
-0.00358222
-0.00369099
-0.00380604
-0.00393524
-0.00409576
-0.00431829
-0.00465289
-0.00517648
-0.00600176
-0.007286
-0.00923699
-0.0121106
-0.0161912
-0.0217443
-0.0289328
-0.0377024
-0.0476651
-0.0580407
-0.0677229
-0.0754922
-0.0803064
-0.0815242
-0.0789312
-0.0725403
-0.0622651
-0.047704
-0.0286624
-0.00728473
0.00977578
0.0160235
-0.00407575
-0.00475075
-0.00484241
-0.00465673
-0.00445755
-0.00430855
-0.00421482
-0.00416704
-0.00415153
-0.00415555
-0.00416956
-0.00418829
-0.00421188
-0.00424791
-0.00431445
-0.00444442
-0.00469137
-0.00513652
-0.00589633
-0.00712921
-0.0090383
-0.0118656
-0.0158698
-0.02128
-0.0282196
-0.0366066
-0.0460566
-0.0558378
-0.0649294
-0.0722018
-0.0766657
-0.0776717
-0.0749496
-0.0684473
-0.0580435
-0.0433051
-0.0237807
-0.000762061
0.0201794
0.0317299
-0.00630873
-0.0070187
-0.00686671
-0.00636639
-0.00590194
-0.00554279
-0.00527878
-0.00508795
-0.00494732
-0.00483747
-0.0047441
-0.00465858
-0.00457886
-0.00451146
-0.00447466
-0.0045029
-0.00465241
-0.00500762
-0.00568732
-0.00684896
-0.00868815
-0.0114291
-0.0153005
-0.020491
-0.0270822
-0.0349651
-0.0437639
-0.0528006
-0.0611431
-0.067747
-0.0716551
-0.0721648
-0.0688782
-0.061587
-0.050056
-0.0338299
-0.01243
0.0133165
0.0389123
0.056844
-0.0095563
-0.0101622
-0.00944884
-0.00837995
-0.00749993
-0.00683964
-0.00634627
-0.00597247
-0.00567941
-0.00543744
-0.00522545
-0.00503011
-0.00484633
-0.00467894
-0.00454584
-0.00448235
-0.00454652
-0.00482484
-0.00543697
-0.00653779
-0.00831393
-0.0109711
-0.0147082
-0.0196753
-0.0259146
-0.0332919
-0.0414366
-0.0497152
-0.0572671
-0.0631093
-0.0662858
-0.0659953
-0.0616406
-0.0527521
-0.0388595
-0.0194077
0.0059578
0.03637
0.0681231
0.0942846
-0.0146504
-0.0146465
-0.0126407
-0.0105895
-0.00910057
-0.00803529
-0.00724952
-0.00665339
-0.00618526
-0.00580136
-0.00547103
-0.00517445
-0.00490227
-0.00465694
-0.0044555
-0.00433357
-0.00435019
-0.00459254
-0.00517928
-0.00626055
-0.00801209
-0.0106203
-0.0142557
-0.019033
-0.0249589
-0.0318758
-0.0394131
-0.0469665
-0.0537224
-0.0587285
-0.0609982
-0.0595888
-0.053634
-0.0422742
-0.0246134
0.000238083
0.0326078
0.0712432
0.112664
0.150735
-0.023774
-0.0212207
-0.0163976
-0.012774
-0.0104134
-0.0088071
-0.00765868
-0.00681179
-0.00616858
-0.00566117
-0.00524265
-0.00488286
-0.00456619
-0.00429172
-0.0040752
-0.0039523
-0.00398245
-0.00425236
-0.0048778
-0.00600176
-0.00778666
-0.0103981
-0.0139785
-0.0186093
-0.0242658
-0.0307683
-0.0377433
-0.0446027
-0.0505606
-0.0546722
-0.0559019
-0.0531459
-0.0452364
-0.0308232
-0.00835314
0.0238832
0.0669535
0.120007
0.179969
0.240277
-0.0435975
-0.0304453
-0.0194741
-0.0131577
-0.00973601
-0.00764454
-0.00627569
-0.00536758
-0.0047461
-0.0042958
-0.0039486
-0.00366621
-0.00342988
-0.00323811
-0.00310776
-0.00307641
-0.00320503
-0.00358022
-0.00431457
-0.00554339
-0.00741576
-0.0100775
-0.0136459
-0.0181741
-0.0236119
-0.0297625
-0.0362505
-0.0424999
-0.047744
-0.0510389
-0.0513072
-0.0473128
-0.0376466
-0.0205233
0.0063005
0.0458354
0.101383
0.17587
0.269823
0.376458
-0.102191
-0.0361021
-0.0111875
-0.00515013
-0.00296874
-0.00162094
-0.000933321
-0.000721595
-0.000734731
-0.000821429
-0.000920531
-0.00101147
-0.00109109
-0.00117033
-0.00127639
-0.00145524
-0.00177399
-0.00232256
-0.00321359
-0.00457867
-0.00655921
-0.00928961
-0.0128727
-0.0173467
-0.0226493
-0.0285783
-0.0347635
-0.0406428
-0.0454682
-0.0483028
-0.0480554
-0.0434232
-0.0328939
-0.0144556
0.0144469
0.057872
0.121498
0.215873
0.351627
0.529641
)
;

boundaryField
{
    movingWall
    {
        type            zeroGradient;
    }
    fixedWalls
    {
        type            zeroGradient;
    }
    frontAndBack
    {
        type            empty;
    }
}


// ************************************************************************* //
