/*--------------------------------*- C++ -*----------------------------------*\
  =========                 |
  \\      /  F ield         | OpenFOAM: The Open Source CFD Toolbox
   \\    /   O peration     | Website:  https://openfoam.org
    \\  /    A nd           | Version:  6.0
     \\/     M anipulation  |
\*---------------------------------------------------------------------------*/
FoamFile
{
    version     2.0;
    format      ascii;
    class       volVectorField;
    location    "0.3";
    object      U;
}
// * * * * * * * * * * * * * * * * * * * * * * * * * * * * * * * * * * * * * //

dimensions      [0 1 -1 0 0 0 0];

internalField   nonuniform List<vector> 
800
(
(0.00013678 -0.000137367 0)
(0.000297702 -9.23743e-05 0)
(0.000193684 2.02455e-05 0)
(-0.000181056 0.000107677 0)
(-0.000740397 0.000157277 0)
(-0.0014 0.00017951 0)
(-0.00210655 0.000187875 0)
(-0.00283651 0.00019261 0)
(-0.00358661 0.000199539 0)
(-0.00436454 0.000211199 0)
(-0.00518321 0.000228515 0)
(-0.00605853 0.000252091 0)
(-0.0070096 0.000282948 0)
(-0.00806001 0.000322833 0)
(-0.0092398 0.000374336 0)
(-0.0105875 0.000440941 0)
(-0.0121519 0.000527086 0)
(-0.0139943 0.000638242 0)
(-0.0161895 0.000780942 0)
(-0.0188259 0.000962616 0)
(-0.0220041 0.00119092 0)
(-0.0258296 0.001472 0)
(-0.0303988 0.001807 0)
(-0.0357717 0.00218581 0)
(-0.0419287 0.00257782 0)
(-0.0487094 0.00292109 0)
(-0.0557424 0.00311476 0)
(-0.0623877 0.00302366 0)
(-0.0677313 0.00250536 0)
(-0.0706737 0.00146348 0)
(-0.0701393 -8.41712e-05 0)
(-0.0653838 -0.00195119 0)
(-0.0563223 -0.0037771 0)
(-0.0437654 -0.00509675 0)
(-0.0294425 -0.00548687 0)
(-0.0157189 -0.00475722 0)
(-0.00498811 -0.00309829 0)
(0.00114065 -0.00106555 0)
(0.00259953 0.000602356 0)
(0.00113551 0.00103894 0)
(9.07895e-05 -0.000307228 0)
(-5.74971e-05 2.89375e-05 0)
(-0.000868562 0.000556828 0)
(-0.00226121 0.000978992 0)
(-0.00406048 0.00124538 0)
(-0.00610805 0.00138975 0)
(-0.00829413 0.00146421 0)
(-0.0105614 0.00151272 0)
(-0.0128933 0.0015637 0)
(-0.0152994 0.00163271 0)
(-0.0178048 0.0017283 0)
(-0.0204456 0.00185715 0)
(-0.023269 0.0020272 0)
(-0.0263348 0.00224935 0)
(-0.0297197 0.00253802 0)
(-0.0335204 0.00291126 0)
(-0.0378568 0.00339054 0)
(-0.0428743 0.00399997 0)
(-0.0487426 0.00476463 0)
(-0.0556497 0.00570692 0)
(-0.0637876 0.00683955 0)
(-0.0733236 0.0081533 0)
(-0.0843524 0.00959762 0)
(-0.0968235 0.0110541 0)
(-0.110448 0.0123073 0)
(-0.124597 0.0130261 0)
(-0.138231 0.0127765 0)
(-0.149898 0.0110912 0)
(-0.157864 0.00760345 0)
(-0.160366 0.00222302 0)
(-0.155965 -0.00470363 0)
(-0.143923 -0.0123153 0)
(-0.12452 -0.019292 0)
(-0.0992557 -0.0240752 0)
(-0.0708781 -0.0252728 0)
(-0.0431381 -0.0222224 0)
(-0.0201233 -0.0155353 0)
(-0.00503927 -0.00721334 0)
(0.00129281 -8.53798e-05 0)
(0.00118054 0.00271101 0)
(-6.60706e-05 -0.000162678 0)
(-0.000794507 0.000899254 0)
(-0.00259829 0.00217451 0)
(-0.00520391 0.00318243 0)
(-0.00833916 0.00384152 0)
(-0.0118017 0.00422229 0)
(-0.0154516 0.00443488 0)
(-0.019212 0.00457647 0)
(-0.0230575 0.00471415 0)
(-0.0269971 0.00488872 0)
(-0.0310625 0.00512593 0)
(-0.0353028 0.00544699 0)
(-0.0397847 0.00587553 0)
(-0.0445952 0.0064413 0)
(-0.0498453 0.00718151 0)
(-0.055674 0.00814058 0)
(-0.0622508 0.00936849 0)
(-0.0697755 0.0109169 0)
(-0.0784722 0.0128316 0)
(-0.0885741 0.0151394 0)
(-0.100294 0.0178258 0)
(-0.113778 0.0208019 0)
(-0.129029 0.0238611 0)
(-0.14582 0.0266321 0)
(-0.163592 0.0285483 0)
(-0.181383 0.0288611 0)
(-0.197807 0.0267288 0)
(-0.211143 0.0213946 0)
(-0.219514 0.0124283 0)
(-0.221146 -2.71806e-05 0)
(-0.214651 -0.0150777 0)
(-0.199292 -0.0310207 0)
(-0.175215 -0.0454382 0)
(-0.143681 -0.0554795 0)
(-0.107279 -0.0584307 0)
(-0.0700297 -0.0526742 0)
(-0.0370669 -0.0389146 0)
(-0.0133504 -0.0209201 0)
(-0.00131018 -0.00468084 0)
(0.000862572 0.0033596 0)
(-0.000248161 0.000426423 0)
(-0.00164682 0.00270008 0)
(-0.00456406 0.00498599 0)
(-0.00846375 0.00672344 0)
(-0.0129522 0.00785197 0)
(-0.0177868 0.00850831 0)
(-0.0228076 0.00887761 0)
(-0.0279278 0.00912049 0)
(-0.0331184 0.00934978 0)
(-0.0383888 0.00963741 0)
(-0.0437748 0.010032 0)
(-0.0493341 0.0105752 0)
(-0.0551465 0.0113126 0)
(-0.0613173 0.0122993 0)
(-0.0679806 0.0136017 0)
(-0.0753028 0.0152963 0)
(-0.0834839 0.0174652 0)
(-0.0927534 0.0201862 0)
(-0.10336 0.0235172 0)
(-0.115548 0.0274686 0)
(-0.129522 0.0319624 0)
(-0.145384 0.0367788 0)
(-0.163063 0.0414941 0)
(-0.18223 0.0454312 0)
(-0.202222 0.04765 0)
(-0.222003 0.047015 0)
(-0.240183 0.0423588 0)
(-0.255107 0.032735 0)
(-0.264992 0.0177093 0)
(-0.268105 -0.00237579 0)
(-0.262937 -0.026221 0)
(-0.248382 -0.0514985 0)
(-0.223945 -0.0748945 0)
(-0.190029 -0.0923129 0)
(-0.14838 -0.0994143 0)
(-0.102659 -0.0928226 0)
(-0.0588068 -0.07222 0)
(-0.024224 -0.042562 0)
(-0.00451354 -0.0138463 0)
(0.00058422 0.0027031 0)
(-0.000428842 0.00148828 0)
(-0.00250525 0.00547977 0)
(-0.00654545 0.00901287 0)
(-0.0117196 0.0115687 0)
(-0.017497 0.013182 0)
(-0.0235923 0.0140971 0)
(-0.0298292 0.0145942 0)
(-0.036116 0.0149057 0)
(-0.0424231 0.0151936 0)
(-0.0487615 0.0155632 0)
(-0.0551699 0.016089 0)
(-0.0617107 0.0168364 0)
(-0.0684715 0.0178765 0)
(-0.0755673 0.0192935 0)
(-0.0831447 0.0211862 0)
(-0.0913842 0.0236647 0)
(-0.100499 0.0268421 0)
(-0.110732 0.0308183 0)
(-0.122337 0.0356535 0)
(-0.13556 0.0413268 0)
(-0.150598 0.0476792 0)
(-0.167543 0.0543447 0)
(-0.186322 0.0606809 0)
(-0.206629 0.0657275 0)
(-0.22787 0.0682229 0)
(-0.249135 0.0667124 0)
(-0.269196 0.0597543 0)
(-0.286552 0.0462041 0)
(-0.299497 0.0255288 0)
(-0.306241 -0.00190682 0)
(-0.30505 -0.0346313 0)
(-0.294377 -0.0699583 0)
(-0.272989 -0.103953 0)
(-0.240192 -0.131459 0)
(-0.196356 -0.146377 0)
(-0.143894 -0.142745 0)
(-0.0885619 -0.117481 0)
(-0.0400939 -0.0748957 0)
(-0.00929589 -0.0293755 0)
(0.00017962 0.0003624 0)
(-0.000599582 0.00300573 0)
(-0.00332338 0.00921179 0)
(-0.00843304 0.0142116 0)
(-0.0147986 0.0176446 0)
(-0.0217464 0.0197205 0)
(-0.0289469 0.0208387 0)
(-0.0362091 0.0213979 0)
(-0.0434384 0.0217109 0)
(-0.0506073 0.0219916 0)
(-0.0577285 0.0223795 0)
(-0.0648423 0.0229753 0)
(-0.0720128 0.0238696 0)
(-0.0793292 0.0251605 0)
(-0.0869085 0.0269626 0)
(-0.0948994 0.0294076 0)
(-0.103484 0.0326389 0)
(-0.112876 0.0367995 0)
(-0.123316 0.0420086 0)
(-0.135059 0.0483259 0)
(-0.148352 0.0556987 0)
(-0.1634 0.0638931 0)
(-0.180327 0.0724144 0)
(-0.199121 0.0804354 0)
(-0.219581 0.0867593 0)
(-0.241266 0.0898498 0)
(-0.263441 0.0879554 0)
(-0.285046 0.0793334 0)
(-0.30469 0.0625625 0)
(-0.320717 0.036904 0)
(-0.33135 0.00263935 0)
(-0.33485 -0.0387085 0)
(-0.329571 -0.0843034 0)
(-0.313868 -0.129956 0)
(-0.28606 -0.169937 0)
(-0.2448 -0.196733 0)
(-0.190234 -0.201446 0)
(-0.126139 -0.176371 0)
(-0.0627214 -0.121677 0)
(-0.0168831 -0.0543533 0)
(-0.000611812 -0.00456565 0)
(-0.00075953 0.00494964 0)
(-0.00409011 0.0138358 0)
(-0.0101931 0.0204946 0)
(-0.017641 0.0248331 0)
(-0.0256172 0.0273171 0)
(-0.033749 0.0285509 0)
(-0.0418331 0.0290757 0)
(-0.0497749 0.0292946 0)
(-0.05755 0.0294745 0)
(-0.0651737 0.0297885 0)
(-0.0726861 0.0303626 0)
(-0.0801494 0.0313114 0)
(-0.0876482 0.0327593 0)
(-0.0952937 0.0348503 0)
(-0.103226 0.0377476 0)
(-0.111616 0.0416274 0)
(-0.120666 0.0466612 0)
(-0.130605 0.0529885 0)
(-0.141677 0.0606728 0)
(-0.15413 0.0696404 0)
(-0.168182 0.0796019 0)
(-0.183998 0.0899649 0)
(-0.201641 0.0997553 0)
(-0.22102 0.107575 0)
(-0.241826 0.11163 0)
(-0.263459 0.109857 0)
(-0.284974 0.100176 0)
(-0.305082 0.080866 0)
(-0.32228 0.0510082 0)
(-0.335069 0.0108649 0)
(-0.34213 -0.0379835 0)
(-0.342228 -0.0927483 0)
(-0.333823 -0.149499 0)
(-0.314648 -0.202767 0)
(-0.281714 -0.244592 0)
(-0.232295 -0.263685 0)
(-0.16646 -0.246655 0)
(-0.0916842 -0.185158 0)
(-0.0284718 -0.0926244 0)
(-0.00213463 -0.013536 0)
(-0.000913361 0.00729402 0)
(-0.00482047 0.0192902 0)
(-0.0118497 0.0277664 0)
(-0.0202746 0.0330046 0)
(-0.0291382 0.0358103 0)
(-0.0380289 0.0370431 0)
(-0.0467363 0.0374119 0)
(-0.0551698 0.0374175 0)
(-0.0633111 0.037381 0)
(-0.071178 0.0375062 0)
(-0.0788093 0.0379411 0)
(-0.0862608 0.0388214 0)
(-0.0936071 0.0402946 0)
(-0.100944 0.0425305 0)
(-0.108392 0.0457216 0)
(-0.116099 0.0500738 0)
(-0.12424 0.0557871 0)
(-0.133018 0.0630229 0)
(-0.142653 0.071855 0)
(-0.153372 0.0822011 0)
(-0.165393 0.0937367 0)
(-0.178895 0.105798 0)
(-0.193981 0.117289 0)
(-0.210626 0.126631 0)
(-0.228602 0.131778 0)
(-0.247404 0.130361 0)
(-0.26621 0.119996 0)
(-0.283931 0.0987576 0)
(-0.299408 0.0657098 0)
(-0.311693 0.0212638 0)
(-0.320197 -0.0328802 0)
(-0.32446 -0.0941488 0)
(-0.32352 -0.159382 0)
(-0.315117 -0.224324 0)
(-0.2952 -0.281972 0)
(-0.258386 -0.320204 0)
(-0.200296 -0.320558 0)
(-0.122968 -0.263126 0)
(-0.0448121 -0.147733 0)
(-0.00490909 -0.0285795 0)
(-0.00107109 0.010028 0)
(-0.005552 0.0255366 0)
(-0.0134731 0.0359511 0)
(-0.0227947 0.0420434 0)
(-0.0324204 0.0450488 0)
(-0.0419093 0.0461355 0)
(-0.0510536 0.0462037 0)
(-0.059774 0.0458588 0)
(-0.068062 0.0454736 0)
(-0.0759397 0.0452781 0)
(-0.0834432 0.0454371 0)
(-0.0906187 0.0461014 0)
(-0.0975239 0.0474356 0)
(-0.104231 0.0496302 0)
(-0.110828 0.0529012 0)
(-0.117427 0.0574802 0)
(-0.12416 0.0635928 0)
(-0.131182 0.0714222 0)
(-0.138666 0.0810559 0)
(-0.146795 0.0924113 0)
(-0.155749 0.105142 0)
(-0.165685 0.118529 0)
(-0.176702 0.131377 0)
(-0.188801 0.141949 0)
(-0.201823 0.147985 0)
(-0.215394 0.146873 0)
(-0.228913 0.136037 0)
(-0.24164 0.11351 0)
(-0.252919 0.0785163 0)
(-0.262451 0.0317632 0)
(-0.270397 -0.0248581 0)
(-0.277103 -0.0890303 0)
(-0.282404 -0.15862 0)
(-0.284616 -0.231276 0)
(-0.279542 -0.302344 0)
(-0.260127 -0.361064 0)
(-0.218106 -0.386365 0)
(-0.149327 -0.347071 0)
(-0.0650417 -0.220451 0)
(-0.00959932 -0.0522162 0)
(-0.00124939 0.0131681 0)
(-0.0063459 0.032581 0)
(-0.0151764 0.0450117 0)
(-0.0253508 0.0518602 0)
(-0.0356335 0.0548984 0)
(-0.0455708 0.0556614 0)
(-0.0549742 0.055263 0)
(-0.0637871 0.0544156 0)
(-0.072018 0.0535386 0)
(-0.079696 0.0528804 0)
(-0.0868544 0.0526143 0)
(-0.0935272 0.0528979 0)
(-0.0997502 0.0539048 0)
(-0.105564 0.0558372 0)
(-0.111015 0.0589268 0)
(-0.116163 0.0634233 0)
(-0.121082 0.0695718 0)
(-0.125857 0.0775734 0)
(-0.130592 0.0875285 0)
(-0.135398 0.0993573 0)
(-0.14039 0.112699 0)
(-0.145672 0.126799 0)
(-0.151323 0.140394 0)
(-0.157374 0.151639 0)
(-0.163778 0.158142 0)
(-0.170384 0.157169 0)
(-0.17695 0.146095 0)
(-0.183222 0.123037 0)
(-0.189109 0.0874676 0)
(-0.194879 0.0404169 0)
(-0.20122 -0.0160042 0)
(-0.209008 -0.0796449 0)
(-0.218734 -0.14929 0)
(-0.229557 -0.224614 0)
(-0.23799 -0.30413 0)
(-0.236692 -0.380475 0)
(-0.21503 -0.433481 0)
(-0.163773 -0.424476 0)
(-0.0855442 -0.305489 0)
(-0.0166539 -0.086878 0)
(-0.00147522 0.0167734 0)
(-0.00729445 0.0404939 0)
(-0.0171195 0.0549611 0)
(-0.028142 0.0623938 0)
(-0.0389879 0.0652371 0)
(-0.0492206 0.065459 0)
(-0.0586973 0.0644052 0)
(-0.067402 0.062892 0)
(-0.0753698 0.0613747 0)
(-0.0826419 0.0601089 0)
(-0.0892511 0.0592651 0)
(-0.0952189 0.058997 0)
(-0.100557 0.0594762 0)
(-0.10527 0.0609057 0)
(-0.109356 0.0635212 0)
(-0.112812 0.0675798 0)
(-0.115639 0.0733367 0)
(-0.117841 0.0810041 0)
(-0.119432 0.090692 0)
(-0.120435 0.102326 0)
(-0.120886 0.115545 0)
(-0.120834 0.129583 0)
(-0.120349 0.143159 0)
(-0.119526 0.154409 0)
(-0.118494 0.160928 0)
(-0.117419 0.160004 0)
(-0.116518 0.149088 0)
(-0.116093 0.126449 0)
(-0.116606 0.0917625 0)
(-0.118758 0.0462691 0)
(-0.123483 -0.00778617 0)
(-0.131796 -0.0683341 0)
(-0.144445 -0.134755 0)
(-0.161268 -0.208328 0)
(-0.179933 -0.290664 0)
(-0.194097 -0.378913 0)
(-0.192658 -0.45704 0)
(-0.163285 -0.484445 0)
(-0.101062 -0.391901 0)
(-0.0256239 -0.134064 0)
(-0.001794 0.0209695 0)
(-0.00853877 0.0494337 0)
(-0.0195263 0.0658687 0)
(-0.0314211 0.073601 0)
(-0.0427218 0.0759359 0)
(-0.0530615 0.0753482 0)
(-0.0623846 0.0734257 0)
(-0.0707398 0.0710747 0)
(-0.0782019 0.0687689 0)
(-0.0848319 0.0667553 0)
(-0.0906671 0.0651885 0)
(-0.0957205 0.0642059 0)
(-0.0999828 0.0639641 0)
(-0.103424 0.0646534 0)
(-0.105994 0.0664998 0)
(-0.107627 0.0697541 0)
(-0.108245 0.0746696 0)
(-0.107764 0.081461 0)
(-0.106102 0.0902453 0)
(-0.103189 0.10096 0)
(-0.098983 0.113264 0)
(-0.0934905 0.126421 0)
(-0.0867925 0.139202 0)
(-0.0790826 0.149822 0)
(-0.0707037 0.156 0)
(-0.0621742 0.155183 0)
(-0.0541894 0.145005 0)
(-0.0475966 0.123899 0)
(-0.0433569 0.0916336 0)
(-0.0424921 0.0494505 0)
(-0.0460021 -0.000476628 0)
(-0.0547544 -0.0562086 0)
(-0.069356 -0.117444 0)
(-0.0898976 -0.186403 0)
(-0.115122 -0.267015 0)
(-0.14048 -0.360857 0)
(-0.156199 -0.458048 0)
(-0.148927 -0.521517 0)
(-0.107801 -0.468661 0)
(-0.0346444 -0.193361 0)
(-0.0022872 0.0259907 0)
(-0.0103057 0.0596804 0)
(-0.0227186 0.0778567 0)
(-0.0355076 0.0854266 0)
(-0.0470852 0.086818 0)
(-0.0572483 0.0850877 0)
(-0.0660896 0.0820559 0)
(-0.0737528 0.0786884 0)
(-0.0803679 0.0754508 0)
(-0.086026 0.0725621 0)
(-0.0907777 0.0701463 0)
(-0.0946373 0.0683118 0)
(-0.0975848 0.0671872 0)
(-0.0995667 0.066936 0)
(-0.100496 0.0677591 0)
(-0.100254 0.0698857 0)
(-0.0986928 0.0735526 0)
(-0.0956473 0.0789676 0)
(-0.0909449 0.0862524 0)
(-0.084428 0.095367 0)
(-0.0759828 0.106015 0)
(-0.0655784 0.117539 0)
(-0.053317 0.128834 0)
(-0.0394933 0.138296 0)
(-0.0246517 0.143883 0)
(-0.00962194 0.143322 0)
(0.00449254 0.134508 0)
(0.01639 0.116033 0)
(0.0247026 0.0876481 0)
(0.028161 0.0503823 0)
(0.0257563 0.00608405 0)
(0.0168496 -0.0436142 0)
(0.00117119 -0.0986388 0)
(-0.0212478 -0.16158 0)
(-0.0498257 -0.237594 0)
(-0.081968 -0.331629 0)
(-0.110537 -0.440485 0)
(-0.123193 -0.535017 0)
(-0.104692 -0.528625 0)
(-0.0409348 -0.261314 0)
(-0.00310994 0.0322623 0)
(-0.0129806 0.0716849 0)
(-0.0271777 0.0910769 0)
(-0.040801 0.0977377 0)
(-0.0522978 0.0975807 0)
(-0.0617938 0.0942961 0)
(-0.0696139 0.0898845 0)
(-0.0760302 0.0853159 0)
(-0.0812446 0.0810108 0)
(-0.0853915 0.0771383 0)
(-0.0885493 0.0737784 0)
(-0.0907499 0.070999 0)
(-0.0919817 0.0688895 0)
(-0.0921891 0.0675738 0)
(-0.0912709 0.0672129 0)
(-0.0890797 0.0679985 0)
(-0.0854253 0.0701358 0)
(-0.0800826 0.0738127 0)
(-0.0728091 0.0791508 0)
(-0.0633727 0.0861389 0)
(-0.0515928 0.0945492 0)
(-0.0373957 0.103847 0)
(-0.0208833 0.113113 0)
(-0.00240865 0.121006 0)
(0.0173549 0.12581 0)
(0.037375 0.125614 0)
(0.0562826 0.118626 0)
(0.072478 0.103598 0)
(0.0843192 0.0801919 0)
(0.0903576 0.0490774 0)
(0.089558 0.0115725 0)
(0.0814267 -0.0311991 0)
(0.0659597 -0.0794537 0)
(0.0434054 -0.135834 0)
(0.0140381 -0.205752 0)
(-0.0211573 -0.295966 0)
(-0.0582323 -0.409067 0)
(-0.0877358 -0.526772 0)
(-0.0919829 -0.568054 0)
(-0.0420832 -0.331782 0)
(-0.00457133 0.0405701 0)
(-0.0172491 0.086139 0)
(-0.0336392 0.105628 0)
(-0.04776 0.110177 0)
(-0.0584036 0.107644 0)
(-0.0663077 0.102305 0)
(-0.072133 0.0962108 0)
(-0.0763127 0.0902489 0)
(-0.0791412 0.0847488 0)
(-0.0808165 0.0798088 0)
(-0.081467 0.0754532 0)
(-0.0811652 0.0717011 0)
(-0.0799327 0.0685939 0)
(-0.077739 0.0662063 0)
(-0.0744997 0.0646477 0)
(-0.0700737 0.0640581 0)
(-0.0642645 0.0645959 0)
(-0.0568272 0.0664143 0)
(-0.0474843 0.0696235 0)
(-0.0359557 0.0742369 0)
(-0.0220042 0.0801035 0)
(-0.00550031 0.0868333 0)
(0.0134996 0.0937312 0)
(0.0346661 0.0997647 0)
(0.0573204 0.103598 0)
(0.080392 0.10372 0)
(0.102442 0.0986845 0)
(0.121777 0.0874112 0)
(0.136648 0.0694573 0)
(0.145514 0.045086 0)
(0.147275 0.0150016 0)
(0.141409 -0.0202922 0)
(0.12791 -0.0613799 0)
(0.107024 -0.110857 0)
(0.0787857 -0.173796 0)
(0.0430957 -0.257311 0)
(0.000952281 -0.36791 0)
(-0.0424867 -0.49935 0)
(-0.0695661 -0.585142 0)
(-0.0363182 -0.398294 0)
(-0.00730951 0.052451 0)
(-0.0243681 0.104046 0)
(-0.0431926 0.121318 0)
(-0.0566615 0.121863 0)
(-0.0646903 0.115861 0)
(-0.0691035 0.107876 0)
(-0.0710159 0.0997644 0)
(-0.0710635 0.0922114 0)
(-0.069672 0.0854101 0)
(-0.0671374 0.0793676 0)
(-0.0636643 0.0740403 0)
(-0.0593866 0.0693892 0)
(-0.0543764 0.0654005 0)
(-0.0486469 0.0620919 0)
(-0.0421518 0.0595136 0)
(-0.0347837 0.057745 0)
(-0.0263742 0.0568863 0)
(-0.0166976 0.0570418 0)
(-0.00548349 0.0582939 0)
(0.00755838 0.0606644 0)
(0.022697 0.0640652 0)
(0.0401193 0.0682415 0)
(0.0598528 0.0727205 0)
(0.0816777 0.0767816 0)
(0.105046 0.0794726 0)
(0.129035 0.0796914 0)
(0.15235 0.0763425 0)
(0.173429 0.0685357 0)
(0.190604 0.0557655 0)
(0.202343 0.0379489 0)
(0.207449 0.0152467 0)
(0.205195 -0.0124016 0)
(0.195226 -0.0459063 0)
(0.177396 -0.0877681 0)
(0.15122 -0.142502 0)
(0.115871 -0.216735 0)
(0.07017 -0.318795 0)
(0.0145452 -0.453818 0)
(-0.036078 -0.577568 0)
(-0.0214554 -0.454783 0)
(-0.0127112 0.0712094 0)
(-0.0366445 0.126687 0)
(-0.0569794 0.137121 0)
(-0.0660464 0.130698 0)
(-0.0670367 0.119738 0)
(-0.0636894 0.108392 0)
(-0.0577058 0.0979329 0)
(-0.0499807 0.0886844 0)
(-0.0411071 0.0806291 0)
(-0.031486 0.0736375 0)
(-0.0213818 0.067568 0)
(-0.0109622 0.0623054 0)
(-0.000320647 0.0577698 0)
(0.0105119 0.0539169 0)
(0.0215626 0.0507351 0)
(0.0329154 0.0482418 0)
(0.0447106 0.0464759 0)
(0.0571424 0.0454866 0)
(0.0704515 0.045316 0)
(0.0849083 0.0459744 0)
(0.100783 0.0474076 0)
(0.118298 0.0494601 0)
(0.137567 0.051839 0)
(0.158514 0.0540901 0)
(0.180805 0.0556014 0)
(0.203789 0.0556446 0)
(0.226484 0.0534645 0)
(0.247634 0.0483898 0)
(0.265816 0.0399423 0)
(0.27962 0.0278454 0)
(0.287753 0.0119254 0)
(0.289197 -0.00821806 0)
(0.282985 -0.0335966 0)
(0.268258 -0.0664531 0)
(0.243515 -0.110611 0)
(0.207152 -0.172035 0)
(0.156401 -0.259372 0)
(0.0878574 -0.38692 0)
(0.0116024 -0.538017 0)
(0.00616306 -0.490554 0)
(-0.0241517 0.104438 0)
(-0.0577656 0.153974 0)
(-0.0712524 0.14676 0)
(-0.0624989 0.128339 0)
(-0.0451388 0.111302 0)
(-0.0251361 0.0967842 0)
(-0.00423459 0.0845946 0)
(0.0167577 0.0744571 0)
(0.0373523 0.066023 0)
(0.0572868 0.0589548 0)
(0.0764457 0.0529835 0)
(0.0947975 0.0479112 0)
(0.112363 0.0435965 0)
(0.129201 0.0399424 0)
(0.145406 0.036888 0)
(0.161107 0.0344015 0)
(0.176468 0.032473 0)
(0.191686 0.0311058 0)
(0.206994 0.0303044 0)
(0.222645 0.0300595 0)
(0.238896 0.0303297 0)
(0.255982 0.0310193 0)
(0.274062 0.0319587 0)
(0.293174 0.0328874 0)
(0.313168 0.0334556 0)
(0.333662 0.0332387 0)
(0.354002 0.0317853 0)
(0.373299 0.0286618 0)
(0.390424 0.0235198 0)
(0.404195 0.0160725 0)
(0.413269 0.00607465 0)
(0.416451 -0.00692381 0)
(0.412112 -0.0237175 0)
(0.398743 -0.0459984 0)
(0.373378 -0.0764964 0)
(0.333361 -0.120257 0)
(0.273595 -0.185197 0)
(0.18862 -0.291212 0)
(0.0821837 -0.450373 0)
(0.0546627 -0.479559 0)
(-0.0583319 0.178632 0)
(-0.0732427 0.168638 0)
(-0.0220447 0.12224 0)
(0.0332137 0.0963133 0)
(0.0832088 0.0790108 0)
(0.127584 0.0655159 0)
(0.167281 0.0547826 0)
(0.202915 0.0463368 0)
(0.234942 0.0396651 0)
(0.263815 0.0343149 0)
(0.289959 0.0299585 0)
(0.313745 0.026372 0)
(0.335489 0.0234002 0)
(0.35547 0.0209341 0)
(0.373947 0.0188987 0)
(0.391166 0.0172445 0)
(0.40737 0.0159409 0)
(0.422807 0.0149695 0)
(0.437728 0.0143162 0)
(0.45239 0.0139633 0)
(0.467038 0.01388 0)
(0.481894 0.0140119 0)
(0.49712 0.0142717 0)
(0.512792 0.0145313 0)
(0.528841 0.0146239 0)
(0.545042 0.0143465 0)
(0.560939 0.0134868 0)
(0.575923 0.0118295 0)
(0.589093 0.00920219 0)
(0.599545 0.0054305 0)
(0.605951 0.000376918 0)
(0.607268 -0.00625856 0)
(0.60141 -0.0148666 0)
(0.586959 -0.0264173 0)
(0.559547 -0.0421944 0)
(0.516307 -0.065346 0)
(0.447251 -0.101018 0)
(0.347332 -0.166519 0)
(0.206702 -0.296553 0)
(0.1491 -0.374942 0)
(0.230833 0.123529 0)
(0.278149 0.108657 0)
(0.3756 0.0766312 0)
(0.458985 0.0557462 0)
(0.520026 0.0422368 0)
(0.566298 0.0326032 0)
(0.603318 0.0254397 0)
(0.633765 0.020079 0)
(0.659155 0.0160481 0)
(0.680581 0.0129856 0)
(0.698879 0.0106302 0)
(0.714683 0.00879912 0)
(0.728472 0.00736345 0)
(0.740624 0.00623154 0)
(0.751444 0.00533805 0)
(0.761196 0.00463685 0)
(0.770111 0.00409572 0)
(0.7784 0.00369201 0)
(0.786263 0.00340889 0)
(0.793883 0.0032317 0)
(0.801425 0.00314473 0)
(0.809024 0.00312741 0)
(0.816766 0.00315227 0)
(0.824672 0.00318158 0)
(0.83266 0.00316934 0)
(0.840558 0.00305929 0)
(0.848024 0.00279517 0)
(0.854665 0.00231734 0)
(0.85984 0.00158124 0)
(0.86302 0.000537773 0)
(0.863201 -0.000851247 0)
(0.85989 -0.00266247 0)
(0.851278 -0.0050231 0)
(0.837087 -0.00812353 0)
(0.812913 -0.0124418 0)
(0.77904 -0.0183755 0)
(0.721642 -0.0283697 0)
(0.643682 -0.0446178 0)
(0.493527 -0.0857515 0)
(0.375114 -0.135557 0)
)
;

boundaryField
{
    movingWall
    {
        type            fixedValue;
        value           uniform (1 0 0);
    }
    fixedWalls
    {
        type            noSlip;
    }
    frontAndBack
    {
        type            empty;
    }
}


// ************************************************************************* //
