/*--------------------------------*- C++ -*----------------------------------*\
  =========                 |
  \\      /  F ield         | OpenFOAM: The Open Source CFD Toolbox
   \\    /   O peration     | Website:  https://openfoam.org
    \\  /    A nd           | Version:  6.0
     \\/     M anipulation  |
\*---------------------------------------------------------------------------*/
FoamFile
{
    version     2.0;
    format      ascii;
    class       volScalarField;
    location    "4.4";
    object      p;
}
// * * * * * * * * * * * * * * * * * * * * * * * * * * * * * * * * * * * * * //

dimensions      [0 2 -2 0 0 0 0];

internalField   nonuniform List<scalar> 
34500
(
1.0058
1.0058
1.00561
1.00527
1.00482
1.0043
1.00373
1.00314
1.00255
1.00198
1.00147
1.00102
1.00064
1.00038
1.00023
1.00581
1.00583
1.00569
1.00542
1.00506
1.0046
1.00409
1.00353
1.00294
1.00236
1.00179
1.00128
1.00082
1.0005
1.00027
1.00581
1.00582
1.00566
1.00536
1.00495
1.00445
1.0039
1.00332
1.00272
1.00214
1.00159
1.00111
1.00068
1.00041
1.0002
1.00581
1.00581
1.00563
1.0053
1.00487
1.00434
1.00377
1.00316
1.00257
1.00199
1.00146
1.001
1.0006
1.00037
1.00019
1.00582
1.00582
1.00565
1.00533
1.00489
1.00437
1.0038
1.0032
1.0026
1.00202
1.00149
1.00103
1.00063
1.00039
1.00021
1.00582
1.00583
1.00567
1.00536
1.00494
1.00443
1.00387
1.00327
1.00267
1.00209
1.00155
1.00107
1.00066
1.00041
1.00021
1.00583
1.00585
1.00569
1.00539
1.00497
1.00447
1.00391
1.00331
1.0027
1.00212
1.00157
1.00109
1.00067
1.00041
1.0002
1.00584
1.00586
1.0057
1.0054
1.005
1.00449
1.00393
1.00333
1.00272
1.00213
1.00158
1.0011
1.00068
1.00041
1.00019
1.00585
1.00587
1.00572
1.00542
1.00502
1.00452
1.00396
1.00335
1.00274
1.00215
1.00159
1.0011
1.00067
1.00039
1.00018
1.00587
1.00589
1.00573
1.00544
1.00503
1.00454
1.00397
1.00337
1.00276
1.00216
1.0016
1.0011
1.00066
1.00038
1.00016
1.00588
1.0059
1.00575
1.00545
1.00505
1.00455
1.00399
1.00338
1.00276
1.00216
1.00159
1.00109
1.00065
1.00036
1.00014
1.00589
1.00592
1.00576
1.00547
1.00506
1.00456
1.00399
1.00338
1.00276
1.00216
1.00158
1.00108
1.00064
1.00034
1.00012
1.00591
1.00593
1.00578
1.00549
1.00508
1.00457
1.004
1.00339
1.00277
1.00216
1.00158
1.00107
1.00063
1.00033
1.0001
1.00593
1.00595
1.0058
1.00551
1.0051
1.00459
1.00402
1.0034
1.00277
1.00216
1.00158
1.00107
1.00062
1.00031
1.00008
1.00595
1.00597
1.00582
1.00553
1.00512
1.00461
1.00404
1.00342
1.00279
1.00217
1.00158
1.00107
1.00062
1.0003
1.00006
1.00597
1.006
1.00585
1.00556
1.00515
1.00464
1.00406
1.00344
1.0028
1.00218
1.00159
1.00107
1.00061
1.00029
1.00004
1.00599
1.00602
1.00587
1.00558
1.00518
1.00467
1.00409
1.00346
1.00282
1.0022
1.0016
1.00107
1.0006
1.00027
1.00001
1.00601
1.00605
1.0059
1.00561
1.00521
1.0047
1.00412
1.00349
1.00284
1.00221
1.0016
1.00107
1.00059
1.00025
0.999984
1.00604
1.00607
1.00593
1.00564
1.00523
1.00472
1.00414
1.00351
1.00286
1.00222
1.00161
1.00106
1.00058
1.00023
0.999955
1.00606
1.0061
1.00595
1.00567
1.00526
1.00475
1.00416
1.00353
1.00287
1.00222
1.0016
1.00105
1.00056
1.0002
0.999926
1.00609
1.00613
1.00598
1.0057
1.00529
1.00477
1.00418
1.00354
1.00288
1.00222
1.0016
1.00104
1.00055
1.00018
0.999897
1.00612
1.00615
1.00601
1.00573
1.00531
1.0048
1.0042
1.00355
1.00289
1.00223
1.00159
1.00103
1.00053
1.00016
0.999868
1.00615
1.00618
1.00604
1.00576
1.00534
1.00482
1.00422
1.00357
1.0029
1.00223
1.00159
1.00102
1.00052
1.00013
0.999837
1.00618
1.00622
1.00607
1.00579
1.00537
1.00485
1.00425
1.00359
1.00291
1.00223
1.00159
1.00101
1.0005
1.00011
0.999806
1.00621
1.00625
1.00611
1.00582
1.0054
1.00488
1.00427
1.00361
1.00292
1.00224
1.00159
1.001
1.00048
1.00008
0.999774
1.00624
1.00628
1.00614
1.00586
1.00544
1.00491
1.0043
1.00363
1.00294
1.00225
1.00159
1.00099
1.00047
1.00006
0.99974
1.00628
1.00632
1.00618
1.00589
1.00547
1.00494
1.00433
1.00365
1.00295
1.00226
1.00159
1.00098
1.00045
1.00003
0.999705
1.00631
1.00636
1.00622
1.00593
1.00551
1.00498
1.00435
1.00367
1.00296
1.00226
1.00158
1.00097
1.00043
1
0.999669
1.00635
1.00639
1.00625
1.00597
1.00554
1.00501
1.00438
1.00369
1.00298
1.00226
1.00158
1.00095
1.0004
0.999969
0.999632
1.00639
1.00643
1.00629
1.006
1.00558
1.00504
1.0044
1.00371
1.00299
1.00227
1.00157
1.00094
1.00038
0.999938
0.999594
1.00643
1.00647
1.00633
1.00604
1.00561
1.00507
1.00443
1.00373
1.003
1.00227
1.00156
1.00092
1.00035
0.999906
0.999556
1.00647
1.00652
1.00637
1.00608
1.00565
1.0051
1.00446
1.00375
1.00301
1.00227
1.00155
1.00091
1.00033
0.999874
0.999517
1.00651
1.00656
1.00642
1.00612
1.00569
1.00513
1.00448
1.00377
1.00302
1.00227
1.00155
1.00089
1.00031
0.999841
0.999477
1.00655
1.00661
1.00646
1.00617
1.00573
1.00517
1.00451
1.00379
1.00303
1.00227
1.00154
1.00087
1.00028
0.999807
0.999436
1.0066
1.00665
1.00651
1.00621
1.00577
1.00521
1.00454
1.00381
1.00304
1.00228
1.00154
1.00086
1.00025
0.999772
0.999393
1.00665
1.0067
1.00656
1.00626
1.00581
1.00524
1.00457
1.00383
1.00306
1.00228
1.00153
1.00084
1.00023
0.999736
0.99935
1.00669
1.00675
1.00661
1.00631
1.00586
1.00528
1.00461
1.00386
1.00307
1.00228
1.00152
1.00082
1.0002
0.999698
0.999305
1.00674
1.0068
1.00666
1.00636
1.00591
1.00532
1.00464
1.00388
1.00309
1.00229
1.00151
1.0008
1.00017
0.999659
0.999259
1.00679
1.00685
1.00671
1.00641
1.00595
1.00536
1.00467
1.00391
1.0031
1.00229
1.0015
1.00078
1.00014
0.999618
0.999211
1.00685
1.00691
1.00676
1.00646
1.006
1.00541
1.0047
1.00393
1.00311
1.00229
1.00149
1.00076
1.00011
0.999577
0.999163
1.0069
1.00696
1.00682
1.00651
1.00605
1.00545
1.00474
1.00395
1.00313
1.00229
1.00148
1.00074
1.00007
0.999535
0.999113
1.00696
1.00702
1.00687
1.00656
1.0061
1.00549
1.00477
1.00398
1.00314
1.00229
1.00147
1.00071
1.00004
0.999492
0.999062
1.00702
1.00708
1.00693
1.00662
1.00615
1.00553
1.00481
1.004
1.00315
1.00229
1.00146
1.00069
1
0.999447
0.999009
1.00707
1.00714
1.00699
1.00668
1.0062
1.00558
1.00484
1.00403
1.00316
1.00229
1.00145
1.00066
0.999966
0.999401
0.998956
1.00714
1.0072
1.00705
1.00673
1.00625
1.00563
1.00488
1.00405
1.00318
1.00229
1.00143
1.00064
0.999929
0.999353
0.9989
1.0072
1.00726
1.00711
1.00679
1.00631
1.00567
1.00492
1.00408
1.00319
1.00229
1.00142
1.00061
0.99989
0.999305
0.998844
1.00726
1.00733
1.00718
1.00685
1.00636
1.00572
1.00496
1.00411
1.0032
1.00229
1.0014
1.00058
0.99985
0.999255
0.998786
1.00733
1.0074
1.00724
1.00692
1.00642
1.00577
1.00499
1.00413
1.00322
1.00229
1.00139
1.00056
0.999809
0.999203
0.998726
1.00739
1.00746
1.00731
1.00698
1.00648
1.00582
1.00503
1.00416
1.00323
1.00229
1.00137
1.00053
0.999767
0.999151
0.998665
1.00746
1.00753
1.00738
1.00704
1.00654
1.00587
1.00507
1.00419
1.00324
1.00229
1.00136
1.0005
0.999724
0.999097
0.998603
1.00753
1.00761
1.00745
1.00711
1.0066
1.00592
1.00511
1.00421
1.00326
1.00229
1.00134
1.00046
0.999679
0.999041
0.998539
1.0076
1.00768
1.00752
1.00718
1.00666
1.00597
1.00516
1.00424
1.00327
1.00229
1.00132
1.00043
0.999634
0.998985
0.998473
1.00768
1.00775
1.00759
1.00725
1.00672
1.00603
1.0052
1.00427
1.00329
1.00229
1.00131
1.0004
0.999587
0.998927
0.998406
1.00775
1.00783
1.00767
1.00732
1.00679
1.00608
1.00524
1.0043
1.0033
1.00228
1.00129
1.00037
0.99954
0.998867
0.998337
1.00783
1.00791
1.00775
1.00739
1.00685
1.00614
1.00529
1.00433
1.00332
1.00228
1.00127
1.00033
0.99949
0.998805
0.998266
1.00791
1.00799
1.00782
1.00747
1.00692
1.0062
1.00534
1.00437
1.00333
1.00228
1.00125
1.0003
0.999439
0.998743
0.998193
1.00799
1.00807
1.0079
1.00755
1.00699
1.00626
1.00538
1.0044
1.00335
1.00228
1.00123
1.00026
0.999387
0.998677
0.998118
1.00807
1.00816
1.00799
1.00763
1.00706
1.00632
1.00543
1.00443
1.00336
1.00228
1.00121
1.00022
0.999334
0.998611
0.998042
1.00815
1.00824
1.00807
1.00771
1.00714
1.00638
1.00548
1.00446
1.00338
1.00227
1.00119
1.00018
0.999278
0.998543
0.997964
1.00824
1.00833
1.00816
1.00779
1.00721
1.00645
1.00553
1.0045
1.00339
1.00227
1.00117
1.00014
0.999222
0.998473
0.997884
1.00833
1.00842
1.00825
1.00787
1.00729
1.00651
1.00558
1.00453
1.00341
1.00226
1.00114
1.0001
0.999164
0.998402
0.997801
1.00842
1.00851
1.00834
1.00796
1.00736
1.00658
1.00563
1.00456
1.00342
1.00226
1.00112
1.00006
0.999104
0.998328
0.997717
1.00851
1.00861
1.00843
1.00804
1.00744
1.00664
1.00568
1.0046
1.00344
1.00226
1.00109
1.00001
0.999043
0.998253
0.997631
1.0086
1.0087
1.00852
1.00813
1.00752
1.00671
1.00573
1.00463
1.00346
1.00225
1.00107
0.999969
0.998981
0.998176
0.997543
1.0087
1.0088
1.00862
1.00822
1.0076
1.00678
1.00579
1.00467
1.00347
1.00225
1.00104
0.999922
0.998916
0.998097
0.997452
1.0088
1.0089
1.00871
1.00831
1.00769
1.00685
1.00584
1.00471
1.00349
1.00224
1.00102
0.999875
0.998851
0.998016
0.997359
1.0089
1.009
1.00881
1.00841
1.00777
1.00693
1.0059
1.00475
1.0035
1.00224
1.00099
0.999826
0.998783
0.997933
0.997264
1.009
1.00911
1.00892
1.00851
1.00786
1.007
1.00596
1.00478
1.00352
1.00223
1.00096
0.999777
0.998714
0.997848
0.997167
1.00911
1.00921
1.00902
1.0086
1.00795
1.00708
1.00602
1.00482
1.00354
1.00222
1.00093
0.999725
0.998643
0.997761
0.997067
1.00921
1.00932
1.00913
1.00871
1.00804
1.00715
1.00608
1.00486
1.00356
1.00222
1.0009
0.999673
0.998571
0.997672
0.996965
1.00932
1.00943
1.00923
1.00881
1.00813
1.00723
1.00614
1.0049
1.00357
1.00221
1.00087
0.999619
0.998496
0.99758
0.996861
1.00943
1.00955
1.00934
1.00891
1.00823
1.00731
1.0062
1.00494
1.00359
1.0022
1.00084
0.999564
0.99842
0.997487
0.996754
1.00955
1.00966
1.00946
1.00902
1.00833
1.0074
1.00626
1.00498
1.00361
1.00219
1.0008
0.999507
0.998342
0.997391
0.996644
1.00966
1.00978
1.00957
1.00913
1.00842
1.00748
1.00633
1.00503
1.00363
1.00219
1.00077
0.999449
0.998262
0.997293
0.996532
1.00978
1.0099
1.00969
1.00924
1.00853
1.00757
1.0064
1.00507
1.00364
1.00218
1.00074
0.999389
0.998179
0.997193
0.996417
1.0099
1.01002
1.00981
1.00936
1.00863
1.00765
1.00646
1.00512
1.00366
1.00217
1.0007
0.999328
0.998096
0.99709
0.9963
1.01002
1.01015
1.00993
1.00947
1.00873
1.00774
1.00653
1.00516
1.00368
1.00216
1.00066
0.999265
0.998009
0.996984
0.996179
1.01015
1.01028
1.01006
1.00959
1.00884
1.00783
1.0066
1.00521
1.0037
1.00215
1.00063
0.999201
0.997921
0.996877
0.996056
1.01028
1.01041
1.01019
1.00971
1.00895
1.00793
1.00667
1.00525
1.00372
1.00214
1.00059
0.999135
0.997831
0.996766
0.99593
1.01041
1.01054
1.01032
1.00984
1.00906
1.00802
1.00675
1.0053
1.00374
1.00213
1.00055
0.999067
0.997738
0.996653
0.995801
1.01054
1.01068
1.01045
1.00996
1.00918
1.00812
1.00682
1.00535
1.00376
1.00212
1.00051
0.998998
0.997643
0.996537
0.995669
1.01068
1.01082
1.01059
1.01009
1.00929
1.00822
1.0069
1.0054
1.00378
1.00211
1.00046
0.998927
0.997546
0.996419
0.995534
1.01081
1.01096
1.01073
1.01022
1.00941
1.00832
1.00697
1.00545
1.00379
1.0021
1.00042
0.998853
0.997446
0.996297
0.995395
1.01096
1.0111
1.01087
1.01036
1.00953
1.00842
1.00705
1.0055
1.00381
1.00208
1.00038
0.998778
0.997345
0.996173
0.995254
1.0111
1.01125
1.01101
1.0105
1.00966
1.00852
1.00713
1.00555
1.00383
1.00207
1.00033
0.998701
0.99724
0.996046
0.995109
1.01125
1.0114
1.01116
1.01064
1.00978
1.00863
1.00722
1.0056
1.00385
1.00206
1.00028
0.998623
0.997133
0.995916
0.994961
1.0114
1.01155
1.01131
1.01078
1.00991
1.00874
1.0073
1.00566
1.00387
1.00204
1.00023
0.998541
0.997023
0.995782
0.994809
1.01155
1.01171
1.01146
1.01092
1.01004
1.00885
1.00738
1.00571
1.00389
1.00203
1.00018
0.998459
0.996911
0.995646
0.994655
1.01171
1.01187
1.01162
1.01107
1.01018
1.00896
1.00747
1.00576
1.00392
1.00201
1.00013
0.998374
0.996796
0.995506
0.994496
1.01187
1.01203
1.01178
1.01122
1.01031
1.00908
1.00756
1.00582
1.00394
1.00199
1.00008
0.998287
0.996679
0.995364
0.994334
1.01203
1.0122
1.01194
1.01138
1.01045
1.0092
1.00765
1.00588
1.00396
1.00198
1.00002
0.998197
0.996558
0.995218
0.994168
1.01219
1.01237
1.0121
1.01153
1.01059
1.00932
1.00774
1.00594
1.00398
1.00196
0.999968
0.998106
0.996436
0.995069
0.993998
1.01236
1.01254
1.01227
1.0117
1.01074
1.00944
1.00783
1.00599
1.004
1.00194
0.99991
0.998012
0.996309
0.994916
0.993825
1.01253
1.01272
1.01245
1.01186
1.01089
1.00956
1.00793
1.00605
1.00402
1.00192
0.999852
0.997916
0.99618
0.99476
0.993648
1.01271
1.0129
1.01262
1.01203
1.01104
1.00969
1.00802
1.00612
1.00404
1.0019
0.999791
0.997817
0.996048
0.994599
0.993466
1.01289
1.01308
1.0128
1.0122
1.01119
1.00982
1.00812
1.00618
1.00406
1.00188
0.999729
0.997717
0.995913
0.994436
0.993281
1.01307
1.01327
1.01298
1.01237
1.01135
1.00995
1.00822
1.00624
1.00408
1.00186
0.999664
0.997613
0.995774
0.994268
0.993091
1.01326
1.01346
1.01317
1.01255
1.01151
1.01009
1.00833
1.00631
1.00411
1.00184
0.999599
0.997507
0.995632
0.994097
0.992897
1.01344
1.01365
1.01336
1.01273
1.01167
1.01023
1.00843
1.00637
1.00413
1.00181
0.99953
0.997398
0.995487
0.993922
0.992699
1.01364
1.01385
1.01356
1.01292
1.01184
1.01037
1.00854
1.00644
1.00415
1.00179
0.999461
0.997286
0.995338
0.993743
0.992496
1.01383
1.01405
1.01375
1.0131
1.01201
1.01051
1.00865
1.0065
1.00417
1.00176
0.999389
0.997171
0.995186
0.99356
0.992289
1.01404
1.01426
1.01396
1.0133
1.01218
1.01066
1.00876
1.00657
1.00419
1.00174
0.999315
0.997054
0.99503
0.993372
0.992077
1.01424
1.01447
1.01416
1.01349
1.01236
1.01081
1.00887
1.00664
1.00421
1.00171
0.999239
0.996933
0.99487
0.99318
0.99186
1.01445
1.01468
1.01437
1.01369
1.01254
1.01096
1.00898
1.00671
1.00424
1.00168
0.999162
0.99681
0.994707
0.992985
0.991639
1.01466
1.0149
1.01459
1.0139
1.01273
1.01111
1.0091
1.00678
1.00426
1.00165
0.999081
0.996683
0.99454
0.992784
0.991413
1.01488
1.01512
1.01481
1.01411
1.01291
1.01127
1.00922
1.00686
1.00428
1.00162
0.998999
0.996554
0.994369
0.992579
0.991182
1.0151
1.01535
1.01503
1.01432
1.01311
1.01143
1.00934
1.00693
1.0043
1.00159
0.998913
0.99642
0.994193
0.992369
0.990946
1.01533
1.01558
1.01526
1.01454
1.0133
1.0116
1.00946
1.007
1.00432
1.00155
0.998826
0.996284
0.994014
0.992155
0.990705
1.01556
1.01581
1.01549
1.01476
1.0135
1.01176
1.00959
1.00708
1.00434
1.00152
0.998736
0.996144
0.99383
0.991935
0.990458
1.01579
1.01606
1.01573
1.01498
1.01371
1.01193
1.00972
1.00716
1.00436
1.00148
0.998644
0.996
0.993642
0.991711
0.990206
1.01603
1.0163
1.01597
1.01521
1.01391
1.01211
1.00985
1.00723
1.00438
1.00144
0.998548
0.995853
0.99345
0.991482
0.989949
1.01627
1.01655
1.01622
1.01545
1.01413
1.01229
1.00998
1.00731
1.0044
1.0014
0.998451
0.995702
0.993253
0.991247
0.989686
1.01652
1.01681
1.01647
1.01569
1.01434
1.01247
1.01012
1.00739
1.00442
1.00136
0.998349
0.995546
0.993051
0.991007
0.989417
1.01677
1.01707
1.01672
1.01594
1.01456
1.01265
1.01025
1.00748
1.00444
1.00132
0.998246
0.995388
0.992844
0.990762
0.989143
1.01703
1.01733
1.01699
1.01619
1.01479
1.01284
1.01039
1.00756
1.00446
1.00127
0.998139
0.995224
0.992633
0.990511
0.988862
1.01729
1.0176
1.01725
1.01644
1.01502
1.01303
1.01054
1.00764
1.00448
1.00123
0.998029
0.995057
0.992416
0.990255
0.988576
1.01756
1.01788
1.01753
1.0167
1.01525
1.01323
1.01068
1.00773
1.0045
1.00118
0.997915
0.994885
0.992194
0.989993
0.988283
1.01784
1.01816
1.01781
1.01697
1.01549
1.01343
1.01083
1.00781
1.00452
1.00113
0.997798
0.994709
0.991968
0.989725
0.987984
1.01812
1.01845
1.01809
1.01724
1.01574
1.01363
1.01098
1.0079
1.00454
1.00107
0.997678
0.994528
0.991735
0.989451
0.987679
1.0184
1.01874
1.01838
1.01752
1.01599
1.01384
1.01113
1.00799
1.00455
1.00102
0.997554
0.994342
0.991497
0.989171
0.987367
1.01869
1.01904
1.01868
1.0178
1.01624
1.01405
1.01129
1.00808
1.00457
1.00096
0.997426
0.994151
0.991253
0.988884
0.987049
1.01899
1.01935
1.01898
1.01809
1.0165
1.01427
1.01145
1.00817
1.00458
1.0009
0.997295
0.993956
0.991003
0.988592
0.986724
1.01929
1.01966
1.01929
1.01838
1.01677
1.01449
1.01161
1.00826
1.0046
1.00084
0.997159
0.993755
0.990747
0.988292
0.986392
1.0196
1.01998
1.0196
1.01868
1.01704
1.01471
1.01177
1.00835
1.00461
1.00077
0.997019
0.993549
0.990486
0.987986
0.986053
1.01991
1.0203
1.01992
1.01899
1.01731
1.01494
1.01194
1.00844
1.00462
1.0007
0.996875
0.993337
0.990217
0.987673
0.985706
1.02023
1.02064
1.02025
1.0193
1.0176
1.01518
1.01211
1.00853
1.00464
1.00063
0.996726
0.99312
0.989943
0.987353
0.985353
1.02056
1.02097
1.02059
1.01962
1.01788
1.01542
1.01228
1.00863
1.00465
1.00056
0.996572
0.992896
0.989661
0.987025
0.984992
1.02089
1.02132
1.02093
1.01995
1.01818
1.01566
1.01245
1.00872
1.00466
1.00048
0.996414
0.992667
0.989373
0.986691
0.984623
1.02123
1.02167
1.02128
1.02029
1.01848
1.01591
1.01263
1.00882
1.00466
1.0004
0.996251
0.992432
0.989078
0.986349
0.984247
1.02158
1.02203
1.02164
1.02063
1.01878
1.01616
1.01281
1.00892
1.00467
1.00031
0.996083
0.99219
0.988776
0.986
0.983863
1.02193
1.0224
1.022
1.02097
1.0191
1.01642
1.013
1.00901
1.00467
1.00023
0.995909
0.991941
0.988466
0.985642
0.983471
1.02229
1.02277
1.02237
1.02133
1.01942
1.01668
1.01318
1.00911
1.00468
1.00013
0.995729
0.991686
0.988149
0.985277
0.983071
1.02266
1.02315
1.02275
1.02169
1.01974
1.01695
1.01337
1.00921
1.00468
1.00004
0.995544
0.991424
0.987823
0.984903
0.982662
1.02304
1.02354
1.02314
1.02206
1.02007
1.01722
1.01357
1.00931
1.00467
0.999938
0.995353
0.991155
0.987491
0.984521
0.982245
1.02342
1.02394
1.02354
1.02244
1.02041
1.0175
1.01376
1.00941
1.00467
0.999833
0.995155
0.990877
0.987149
0.98413
0.981819
1.02381
1.02435
1.02394
1.02283
1.02076
1.01778
1.01396
1.00951
1.00466
0.999723
0.994952
0.990593
0.9868
0.983731
0.981385
1.02421
1.02476
1.02435
1.02323
1.02111
1.01807
1.01416
1.00961
1.00466
0.999608
0.994741
0.9903
0.986441
0.983323
0.980941
1.02462
1.02519
1.02478
1.02363
1.02148
1.01836
1.01437
1.00971
1.00464
0.999489
0.994524
0.99
0.986074
0.982906
0.980489
1.02504
1.02562
1.02521
1.02404
1.02185
1.01866
1.01458
1.00981
1.00463
0.999364
0.994299
0.98969
0.985698
0.982479
0.980026
1.02546
1.02606
1.02565
1.02447
1.02222
1.01897
1.01479
1.00991
1.00461
0.999233
0.994066
0.989373
0.985312
0.982043
0.979556
1.02589
1.02651
1.0261
1.0249
1.02261
1.01928
1.015
1.01
1.00459
0.999096
0.993826
0.989046
0.984917
0.981597
0.979074
1.02634
1.02698
1.02656
1.02534
1.023
1.0196
1.01522
1.0101
1.00457
0.998954
0.993578
0.98871
0.984512
0.981141
0.978584
1.02679
1.02745
1.02703
1.02579
1.0234
1.01992
1.01544
1.0102
1.00454
0.998804
0.993321
0.988364
0.984097
0.980675
0.978083
1.02725
1.02793
1.02751
1.02625
1.02381
1.02025
1.01566
1.0103
1.00451
0.998648
0.993056
0.988008
0.983672
0.980199
0.977572
1.02772
1.02842
1.028
1.02672
1.02423
1.02058
1.01588
1.0104
1.00447
0.998484
0.992781
0.987642
0.983235
0.979711
0.977051
1.0282
1.02892
1.02851
1.0272
1.02466
1.02093
1.01611
1.01049
1.00443
0.998314
0.992498
0.987266
0.982789
0.979214
0.976519
1.0287
1.02944
1.02902
1.02769
1.02509
1.02127
1.01634
1.01058
1.00438
0.998135
0.992204
0.986879
0.98233
0.978704
0.975977
1.0292
1.02996
1.02955
1.02819
1.02554
1.02163
1.01657
1.01068
1.00433
0.997948
0.9919
0.986481
0.981861
0.978184
0.975423
1.02971
1.0305
1.03008
1.02871
1.026
1.02199
1.01681
1.01077
1.00427
0.997752
0.991585
0.986071
0.981379
0.977652
0.974859
1.03023
1.03105
1.03063
1.02923
1.02646
1.02236
1.01704
1.01085
1.00421
0.997547
0.99126
0.985649
0.980886
0.977108
0.974283
1.03077
1.03161
1.03119
1.02977
1.02694
1.02273
1.01728
1.01094
1.00414
0.997332
0.990923
0.985215
0.980379
0.976552
0.973696
1.03132
1.03218
1.03177
1.03032
1.02742
1.02311
1.01752
1.01102
1.00406
0.997108
0.990575
0.984768
0.979861
0.975984
0.973097
1.03188
1.03277
1.03236
1.03088
1.02792
1.0235
1.01777
1.0111
1.00397
0.996873
0.990213
0.984308
0.979329
0.975403
0.972486
1.03245
1.03337
1.03296
1.03146
1.02842
1.02389
1.01801
1.01118
1.00388
0.996628
0.98984
0.983835
0.978784
0.974809
0.971863
1.03303
1.03398
1.03357
1.03205
1.02894
1.02429
1.01826
1.01125
1.00378
0.99637
0.989453
0.983348
0.978224
0.974202
0.971227
1.03363
1.03461
1.0342
1.03265
1.02947
1.0247
1.0185
1.01132
1.00367
0.996101
0.989052
0.982846
0.977651
0.973582
0.97058
1.03424
1.03525
1.03485
1.03326
1.03001
1.02511
1.01875
1.01138
1.00355
0.995819
0.988636
0.98233
0.977063
0.972947
0.969919
1.03486
1.03591
1.03551
1.03389
1.03056
1.02553
1.019
1.01144
1.00342
0.995524
0.988206
0.981798
0.976461
0.972299
0.969245
1.0355
1.03658
1.03618
1.03454
1.03112
1.02596
1.01925
1.01149
1.00328
0.995214
0.987761
0.98125
0.975842
0.971636
0.968558
1.03615
1.03727
1.03688
1.0352
1.03169
1.02639
1.0195
1.01154
1.00313
0.994891
0.987299
0.980687
0.975209
0.970959
0.967858
1.03681
1.03797
1.03759
1.03587
1.03228
1.02683
1.01975
1.01158
1.00297
0.994552
0.986821
0.980106
0.974559
0.970267
0.967144
1.0375
1.03869
1.03831
1.03657
1.03288
1.02728
1.01999
1.01161
1.00279
0.994197
0.986325
0.979508
0.973893
0.96956
0.966417
1.03819
1.03943
1.03905
1.03727
1.03349
1.02773
1.02024
1.01163
1.0026
0.993825
0.985812
0.978892
0.97321
0.968837
0.965675
1.03891
1.04018
1.03981
1.038
1.03411
1.02819
1.02049
1.01164
1.0024
0.993436
0.98528
0.978259
0.97251
0.968099
0.964919
1.03964
1.04096
1.04059
1.03874
1.03475
1.02865
1.02073
1.01165
1.00218
0.993029
0.984728
0.977606
0.971792
0.967344
0.964148
1.04039
1.04175
1.04139
1.0395
1.0354
1.02912
1.02097
1.01164
1.00194
0.992602
0.984157
0.976933
0.971057
0.966573
0.963364
1.04115
1.04256
1.04221
1.04028
1.03606
1.0296
1.0212
1.01162
1.00169
0.992155
0.983564
0.976241
0.970302
0.965785
0.962564
1.04193
1.04339
1.04305
1.04108
1.03674
1.03008
1.02144
1.01159
1.00142
0.991688
0.98295
0.975528
0.969529
0.964981
0.96175
1.04274
1.04424
1.04391
1.04189
1.03743
1.03056
1.02166
1.01155
1.00113
0.991198
0.982314
0.974794
0.968736
0.96416
0.96092
1.04356
1.04511
1.0448
1.04273
1.03813
1.03105
1.02188
1.01149
1.00082
0.990686
0.981655
0.974038
0.967924
0.963321
0.960075
1.0444
1.04601
1.0457
1.04358
1.03885
1.03155
1.0221
1.01141
1.00048
0.990149
0.980971
0.973259
0.967091
0.962464
0.959215
1.04526
1.04693
1.04663
1.04446
1.03959
1.03204
1.0223
1.01132
1.00013
0.989587
0.980264
0.972458
0.966239
0.961589
0.958339
1.04614
1.04787
1.04758
1.04536
1.04033
1.03254
1.0225
1.01121
0.99975
0.989
0.97953
0.971632
0.965364
0.960696
0.957448
1.04704
1.04883
1.04856
1.04628
1.04109
1.03305
1.02269
1.01108
0.999346
0.988385
0.978769
0.970783
0.964469
0.959785
0.956541
1.04797
1.04982
1.04956
1.04723
1.04187
1.03355
1.02286
1.01093
0.998914
0.987741
0.977982
0.969908
0.963552
0.958855
0.955617
1.04892
1.05083
1.05059
1.04819
1.04266
1.03406
1.02303
1.01075
0.998455
0.987068
0.977166
0.969009
0.962612
0.957906
0.954677
1.04989
1.05188
1.05165
1.04918
1.04346
1.03456
1.02318
1.01055
0.997965
0.986363
0.97632
0.968082
0.96165
0.956937
0.953721
1.05089
1.05294
1.05274
1.0502
1.04428
1.03507
1.02331
1.01033
0.997444
0.985627
0.975444
0.96713
0.960665
0.955949
0.952749
1.05192
1.05404
1.05385
1.05124
1.04511
1.03557
1.02342
1.01008
0.99689
0.984857
0.974537
0.966149
0.959656
0.954941
0.951759
1.05297
1.05517
1.055
1.05231
1.04596
1.03607
1.02352
1.00979
0.9963
0.984052
0.973598
0.965141
0.958624
0.953914
0.950754
1.05404
1.05633
1.05617
1.0534
1.04682
1.03657
1.02359
1.00948
0.995674
0.98321
0.972626
0.964103
0.957567
0.952865
0.94973
1.05515
1.05751
1.05738
1.05452
1.04769
1.03705
1.02365
1.00912
0.995009
0.982331
0.97162
0.963037
0.956486
0.951797
0.948691
1.05629
1.05874
1.05863
1.05567
1.04858
1.03753
1.02367
1.00874
0.994303
0.981412
0.970579
0.961941
0.95538
0.950708
0.947633
1.05745
1.05999
1.05991
1.05685
1.04947
1.03801
1.02367
1.00831
0.993554
0.980453
0.969501
0.960814
0.954248
0.949598
0.946559
1.05865
1.06128
1.06122
1.05805
1.05038
1.03846
1.02363
1.00784
0.992761
0.979451
0.968387
0.959656
0.953091
0.948467
0.945467
1.05988
1.06261
1.06258
1.05929
1.0513
1.03891
1.02356
1.00732
0.99192
0.978406
0.967235
0.958466
0.951908
0.947314
0.944357
1.06114
1.06398
1.06397
1.06056
1.05222
1.03933
1.02345
1.00676
0.99103
0.977315
0.966044
0.957244
0.950698
0.94614
0.94323
1.06244
1.06538
1.0654
1.06185
1.05316
1.03974
1.02331
1.00614
0.990089
0.976178
0.964813
0.95599
0.949463
0.944945
0.942085
1.06377
1.06683
1.06688
1.06318
1.0541
1.04013
1.02311
1.00548
0.989093
0.974992
0.963541
0.954701
0.948199
0.943727
0.940922
1.06515
1.06832
1.0684
1.06454
1.05504
1.04048
1.02287
1.00475
0.988042
0.973757
0.962228
0.95338
0.946909
0.942489
0.939742
1.06656
1.06986
1.06997
1.06593
1.05599
1.04081
1.02258
1.00396
0.986931
0.97247
0.960872
0.952024
0.945592
0.941227
0.938543
1.06801
1.07144
1.07158
1.06735
1.05693
1.0411
1.02223
1.00311
0.98576
0.97113
0.959473
0.950633
0.944247
0.939944
0.937327
1.0695
1.07307
1.07324
1.06881
1.05788
1.04136
1.02181
1.00219
0.984525
0.969736
0.958029
0.949207
0.942873
0.938638
0.936093
1.07104
1.07475
1.07496
1.07029
1.05881
1.04157
1.02133
1.0012
0.983223
0.968287
0.956541
0.947746
0.941473
0.937311
0.934841
1.07262
1.07649
1.07672
1.07181
1.05974
1.04173
1.02078
1.00014
0.981854
0.96678
0.955007
0.946248
0.940044
0.935961
0.933571
1.07425
1.07828
1.07855
1.07335
1.06066
1.04184
1.02015
0.998989
0.980413
0.965214
0.953426
0.944715
0.938587
0.934589
0.932283
1.07593
1.08013
1.08043
1.07493
1.06155
1.04188
1.01944
0.997758
0.978899
0.963589
0.951799
0.943145
0.937101
0.933194
0.930977
1.07767
1.08204
1.08237
1.07654
1.06243
1.04186
1.01864
0.996439
0.977309
0.961903
0.950124
0.941539
0.935588
0.931778
0.929654
1.07945
1.08402
1.08437
1.07817
1.06327
1.04176
1.01775
0.995028
0.975641
0.960155
0.948401
0.939896
0.934046
0.93034
0.928313
1.08129
1.08606
1.08643
1.07982
1.06408
1.04158
1.01675
0.993521
0.973892
0.958343
0.94663
0.938216
0.932476
0.92888
0.926955
1.08319
1.08817
1.08856
1.0815
1.06485
1.04131
1.01564
0.991913
0.972061
0.956467
0.94481
0.9365
0.930878
0.927398
0.925579
1.08515
1.09036
1.09076
1.08319
1.06556
1.04093
1.01442
0.990201
0.970145
0.954526
0.942941
0.934747
0.929253
0.925894
0.924186
1.08718
1.09263
1.09302
1.0849
1.06622
1.04045
1.01307
0.98838
0.968143
0.952519
0.941023
0.932957
0.927599
0.924369
0.922776
1.08927
1.09498
1.09536
1.08662
1.0668
1.03984
1.0116
0.986446
0.966052
0.950446
0.939056
0.931132
0.925919
0.922824
0.921349
1.09143
1.09742
1.09777
1.08834
1.06731
1.0391
1.00999
0.984395
0.963871
0.948306
0.93704
0.92927
0.924212
0.921257
0.919906
1.09367
1.09996
1.10025
1.09006
1.06772
1.03822
1.00823
0.982225
0.961599
0.946098
0.934975
0.927373
0.922478
0.91967
0.918447
1.09599
1.10259
1.10281
1.09177
1.06803
1.03718
1.00631
0.97993
0.959235
0.943824
0.932862
0.925441
0.920718
0.918063
0.916971
1.09838
1.10532
1.10544
1.09345
1.06821
1.03597
1.00424
0.977509
0.956777
0.941483
0.930702
0.923475
0.918933
0.916437
0.915481
1.10087
1.10816
1.10814
1.09511
1.06826
1.03458
1.002
0.974959
0.954226
0.939074
0.928494
0.921475
0.917123
0.914791
0.913975
1.10344
1.11112
1.11092
1.09672
1.06815
1.033
0.999588
0.972276
0.95158
0.9366
0.92624
0.919442
0.915289
0.913127
0.912455
1.10611
1.1142
1.11376
1.09827
1.06787
1.0312
0.996992
0.96946
0.948841
0.93406
0.923941
0.917377
0.913431
0.911444
0.910919
1.10888
1.11741
1.11668
1.09975
1.0674
1.02918
0.994208
0.966508
0.946008
0.931457
0.921598
0.915281
0.911551
0.909745
0.90937
1.11177
1.12076
1.11965
1.10113
1.06671
1.02692
0.991231
0.963421
0.943082
0.92879
0.919211
0.913155
0.909648
0.908028
0.907807
1.11476
1.12425
1.12268
1.1024
1.06578
1.0244
0.988055
0.960197
0.940065
0.926061
0.916784
0.911
0.907725
0.906295
0.906231
1.11788
1.12789
1.12575
1.10353
1.06459
1.02162
0.984676
0.956838
0.936957
0.923273
0.914317
0.908818
0.905781
0.904546
0.904643
1.12113
1.13169
1.12886
1.10449
1.0631
1.01855
0.981092
0.953344
0.933763
0.920428
0.911812
0.906611
0.903819
0.902782
0.903042
1.12453
1.13565
1.13199
1.10525
1.0613
1.01519
0.9773
0.949718
0.930483
0.917527
0.909272
0.904378
0.901839
0.901005
0.901429
1.12807
1.13979
1.13512
1.10578
1.05915
1.01152
0.9733
0.945963
0.927121
0.914574
0.906697
0.902123
0.899842
0.899214
0.899805
1.13178
1.1441
1.13824
1.10605
1.05662
1.00753
0.969093
0.942081
0.92368
0.911571
0.904092
0.899847
0.897829
0.89741
0.89817
1.13566
1.1486
1.14132
1.10601
1.05369
1.00321
0.96468
0.938079
0.920164
0.908522
0.901458
0.897552
0.895802
0.895595
0.896525
1.13974
1.15328
1.14432
1.10561
1.05032
0.998559
0.960068
0.933961
0.916578
0.90543
0.898797
0.895239
0.893762
0.893769
0.89487
1.14402
1.15815
1.14722
1.10482
1.04649
0.993567
0.95526
0.929733
0.912927
0.902299
0.896114
0.892911
0.891711
0.891933
0.893207
1.14853
1.16321
1.14996
1.10357
1.04216
0.988232
0.950266
0.925403
0.909214
0.899133
0.893411
0.89057
0.889649
0.890089
0.891535
1.15328
1.16845
1.15252
1.10181
1.03732
0.982558
0.945096
0.920979
0.905447
0.895937
0.89069
0.888218
0.887579
0.888236
0.889855
1.1583
1.17387
1.15482
1.09949
1.03192
0.976548
0.939762
0.916469
0.90163
0.892714
0.887956
0.885856
0.885502
0.886377
0.888167
1.16361
1.17945
1.1568
1.09654
1.02597
0.970212
0.934277
0.911882
0.897772
0.889471
0.885211
0.883488
0.883419
0.884512
0.886473
1.16924
1.18517
1.1584
1.09291
1.01942
0.963565
0.928658
0.907228
0.893876
0.886211
0.88246
0.881116
0.881332
0.882642
0.884773
1.17522
1.191
1.15953
1.08852
1.01229
0.956626
0.922922
0.902517
0.889952
0.88294
0.879705
0.878743
0.879242
0.880769
0.883067
1.18157
1.19692
1.16011
1.08331
1.00456
0.949419
0.917087
0.89776
0.886006
0.879664
0.876951
0.876369
0.877152
0.878892
0.881356
1.18834
1.20287
1.16003
1.07723
0.99623
0.941972
0.911175
0.892966
0.882046
0.876389
0.874201
0.874
0.875063
0.877015
0.879639
1.19555
1.20879
1.15919
1.0702
0.987322
0.934321
0.905205
0.888148
0.878079
0.87312
0.87146
0.871635
0.872976
0.875136
0.877919
1.20326
1.2146
1.15746
1.06219
0.977858
0.926504
0.899198
0.883314
0.874114
0.869863
0.86873
0.869279
0.870894
0.873258
0.876194
1.21148
1.22023
1.15472
1.05314
0.967874
0.918565
0.893175
0.878477
0.87016
0.866625
0.866017
0.866934
0.868818
0.871381
0.874466
1.22027
1.22555
1.15083
1.04302
0.957421
0.910551
0.887157
0.873648
0.866224
0.863411
0.863323
0.864602
0.866749
0.869506
0.872734
1.22966
1.23043
1.14566
1.03181
0.946562
0.902509
0.881162
0.868835
0.862317
0.860228
0.860653
0.862286
0.864689
0.867633
0.870998
1.23969
1.23471
1.13905
1.0195
0.935374
0.89449
0.875207
0.864052
0.858448
0.857083
0.858011
0.859989
0.86264
0.865765
0.869259
1.25037
1.23821
1.13086
1.00612
0.923952
0.886542
0.869308
0.859308
0.854626
0.853982
0.855401
0.857713
0.860603
0.8639
0.867515
1.26172
1.2407
1.12093
0.991722
0.912398
0.87871
0.863479
0.854616
0.850862
0.85093