/*--------------------------------*- C++ -*----------------------------------*\
  =========                 |
  \\      /  F ield         | OpenFOAM: The Open Source CFD Toolbox
   \\    /   O peration     | Website:  https://openfoam.org
    \\  /    A nd           | Version:  6.0
     \\/     M anipulation  |
\*---------------------------------------------------------------------------*/
FoamFile
{
    version     2.0;
    format      ascii;
    class       volVectorField;
    location    "4.4";
    object      U;
}
// * * * * * * * * * * * * * * * * * * * * * * * * * * * * * * * * * * * * * //

dimensions      [0 1 -1 0 0 0 0];

internalField   nonuniform List<vector> 
24000
(
(0.999994 4.73779e-06 -7.9592e-17)
(0.999948 -1.14281e-05 1.08402e-16)
(0.999862 -5.66996e-05 -1.90662e-16)
(0.999753 -0.000144503 2.10444e-16)
(0.999655 -0.000267718 -1.03843e-15)
(0.999592 -0.000407753 -6.15659e-16)
(0.999587 -0.000534034 6.30321e-16)
(0.999635 -0.000623203 -1.39658e-15)
(0.999731 -0.000639641 4.38436e-16)
(0.999841 -0.000600462 -3.22447e-16)
(0.999963 -0.000365004 -3.1219e-16)
(1.00074 0.000679787 -4.64735e-16)
(0.999988 1.6925e-05 1.16678e-16)
(0.999904 -2.26871e-05 -1.60405e-16)
(0.999745 -0.000117898 3.56271e-16)
(0.999547 -0.000290505 -8.89903e-17)
(0.999373 -0.000526386 4.6219e-16)
(0.999267 -0.000788259 6.22655e-16)
(0.999268 -0.00101857 -3.50664e-16)
(0.999367 -0.00117691 1.48378e-15)
(0.999552 -0.00119696 -3.11334e-16)
(0.999767 -0.00112196 1.59723e-17)
(0.999937 -0.000709321 8.15645e-17)
(1.00148 0.000825 1.54671e-16)
(0.999987 2.76172e-05 -8.88703e-17)
(0.999914 -2.7374e-05 2.16132e-16)
(0.999772 -0.000135027 -1.23484e-16)
(0.999595 -0.000313862 4.51677e-16)
(0.999441 -0.000552196 2.51724e-16)
(0.999345 -0.000812463 2.3157e-16)
(0.999352 -0.00103944 5.18692e-16)
(0.999451 -0.0011978 -6.59634e-16)
(0.99963 -0.00122325 -3.68148e-16)
(0.999853 -0.0011707 -1.3e-16)
(0.999937 -0.000827091 -2.91002e-17)
(1.00156 0.000199566 4.8947e-16)
(0.999985 3.60124e-05 -3.7947e-17)
(0.999929 -3.54192e-05 -2.0449e-16)
(0.999813 -0.000152292 -3.15866e-16)
(0.999671 -0.000327947 -2.23922e-16)
(0.999546 -0.000554915 -1.31174e-16)
(0.999468 -0.000797977 -9.06392e-16)
(0.999479 -0.00100973 -1.43604e-15)
(0.99957 -0.00116096 1.64084e-16)
(0.999731 -0.00119319 4.70012e-17)
(0.999956 -0.00115911 6.46116e-16)
(0.999961 -0.000886983 -4.12747e-16)
(1.00144 -0.000142288 -5.72675e-16)
(0.999982 4.23561e-05 6.76028e-17)
(0.999931 -4.84894e-05 3.30128e-17)
(0.999824 -0.00018192 1.60074e-16)
(0.999698 -0.000367122 -7.56879e-17)
(0.99959 -0.000598558 2.08008e-16)
(0.999527 -0.000839291 1.87284e-16)
(0.999545 -0.00104677 1.4527e-15)
(0.999641 -0.0011931 -9.49294e-17)
(0.999801 -0.00122149 -2.80047e-16)
(1.00005 -0.00117744 7.61252e-17)
(1.00002 -0.000915286 2.84851e-16)
(1.00134 -0.00018032 -1.51673e-16)
(0.999977 4.69789e-05 3.91203e-18)
(0.999927 -6.40509e-05 -1.8994e-17)
(0.999823 -0.000216339 -2.13642e-17)
(0.999707 -0.000415818 -3.86919e-18)
(0.999611 -0.000656953 -8.63242e-16)
(0.999563 -0.000898561 1.05654e-15)
(0.999595 -0.00110137 2.93158e-17)
(0.999703 -0.00123788 1.46321e-16)
(0.999871 -0.00125247 6.92181e-16)
(1.00014 -0.00118745 -3.40786e-16)
(1.00012 -0.000918281 5.16905e-16)
(1.00127 -0.000187499 3.47469e-16)
(0.999971 5.00147e-05 -3.54033e-18)
(0.999924 -8.06437e-05 2.04835e-16)
(0.999824 -0.000250565 -2.07798e-16)
(0.999717 -0.000463458 -1.01348e-16)
(0.999635 -0.000713271 4.43623e-16)
(0.999603 -0.000954451 -2.18256e-16)
(0.999648 -0.00115087 -6.04525e-16)
(0.999769 -0.00127672 -3.13658e-16)
(0.999944 -0.00127867 1.22262e-16)
(1.00024 -0.00120012 6.02732e-16)
(1.00023 -0.000937874 -1.22022e-15)
(1.00124 -0.000272055 3.18653e-16)
(0.999965 5.15554e-05 -5.22913e-17)
(0.999921 -9.81298e-05 7.92985e-17)
(0.999826 -0.000284686 2.39447e-16)
(0.999727 -0.000510848 4.53415e-16)
(0.999657 -0.000770247 2.41426e-16)
(0.999638 -0.00101366 -2.67931e-16)
(0.999694 -0.00120763 -2.9135e-16)
(0.999826 -0.0013287 -1.39667e-16)
(1.00001 -0.00132572 4.82593e-17)
(1.00032 -0.00124231 -1.30543e-16)
(1.00034 -0.000995907 1.04475e-15)
(1.00125 -0.000404757 -5.50983e-16)
(0.999957 5.17534e-05 2.05886e-17)
(0.999917 -0.000116439 -1.94736e-16)
(0.999827 -0.000319115 1.46136e-17)
(0.999735 -0.000558945 -7.23615e-17)
(0.999673 -0.000829358 7.30295e-17)
(0.999666 -0.00107818 -6.11639e-17)
(0.999731 -0.00127383 5.1252e-17)
(0.999872 -0.00139486 5.5929e-16)
(1.00006 -0.0013916 -6.93153e-17)
(1.00039 -0.00130384 -7.90848e-16)
(1.00045 -0.00106837 -8.81381e-16)
(1.00129 -0.000524884 9.80291e-16)
(0.999949 5.07743e-05 7.31725e-17)
(0.999912 -0.000135331 4.8678e-18)
(0.999827 -0.000353362 1.84499e-16)
(0.999744 -0.000606132 -4.83835e-16)
(0.999691 -0.00088674 -1.15494e-16)
(0.999694 -0.00114072 5.22756e-16)
(0.999768 -0.00133769 -4.44081e-16)
(0.999919 -0.00145791 -6.69802e-16)
(1.00011 -0.0014531 2.0516e-16)
(1.00046 -0.0013561 2.05764e-16)
(1.00056 -0.00112277 6.55383e-16)
(1.00135 -0.000603976 -1.3863e-16)
(0.99994 4.87681e-05 -1.00362e-16)
(0.999906 -0.00015463 -2.31113e-17)
(0.999829 -0.000387108 -2.19885e-16)
(0.999755 -0.000651287 3.65991e-17)
(0.999713 -0.000939765 1.67329e-16)
(0.999728 -0.00119645 -3.6078e-16)
(0.999813 -0.0013917 2.71068e-16)
(0.999974 -0.00150747 7.54699e-16)
(1.00018 -0.00149746 -5.62779e-16)
(1.00054 -0.0013874 2.24535e-16)
(1.00068 -0.00115221 -8.49007e-16)
(1.00144 -0.000654666 -9.08427e-16)
(0.99993 4.58608e-05 6.5157e-18)
(0.999899 -0.000174339 1.91972e-16)
(0.99983 -0.000420693 -1.92583e-16)
(0.999768 -0.000695073 1.48975e-16)
(0.999739 -0.000989572 -4.57881e-16)
(0.999766 -0.00124717 -2.04042e-16)
(0.999863 -0.00143868 6.64453e-17)
(1.00004 -0.00154766 -3.03096e-16)
(1.00025 -0.00153054 -3.9459e-16)
(1.00062 -0.00140755 3.63376e-16)
(1.0008 -0.00117184 2.862e-16)
(1.00153 -0.000702845 1.01099e-17)
(0.999919 4.21754e-05 2.45157e-17)
(0.999891 -0.000194496 -1.91849e-17)
(0.999831 -0.000454637 5.30645e-16)
(0.99978 -0.00073875 1.53113e-16)
(0.999764 -0.00103861 2.61731e-16)
(0.999803 -0.00129705 -2.92592e-16)
(0.999912 -0.00148509 -1.47976e-16)
(1.0001 -0.00158774 1.20669e-16)
(1.00032 -0.00156434 4.66052e-16)
(1.0007 -0.00143134 -1.22085e-15)
(1.00092 -0.00119794 -4.87536e-16)
(1.00162 -0.000762522 5.44682e-16)
(0.999907 3.78231e-05 -7.57153e-17)
(0.999882 -0.000215108 -6.74014e-17)
(0.999829 -0.00048924 -4.19379e-16)
(0.99979 -0.000783065 -3.31461e-16)
(0.999787 -0.00108829 -2.32332e-16)
(0.999838 -0.00134832 3.6523e-16)
(0.999958 -0.00153448 2.5118e-16)
(1.00015 -0.0016328 -2.76737e-16)
(1.00038 -0.00160536 -3.71406e-16)
(1.00077 -0.00146551 -1.33082e-16)
(1.00102 -0.00123576 6.92362e-16)
(1.00172 -0.000831879 -4.83999e-16)
(0.999894 3.29096e-05 4.07558e-17)
(0.99987 -0.000236117 3.22215e-17)
(0.999825 -0.00052451 4.9539e-17)
(0.999798 -0.000828139 7.90589e-17)
(0.999807 -0.00113871 8.22148e-17)
(0.99987 -0.00140088 -1.48342e-16)
(1 -0.00158653 7.77816e-18)
(1.00021 -0.00168236 -3.83305e-16)
(1.00045 -0.00165287 3.62963e-16)
(1.00084 -0.00150813 1.38396e-15)
(1.00113 -0.00128143 -2.05889e-16)
(1.0018 -0.000903025 6.74083e-16)
(0.999881 2.75216e-05 -3.93523e-17)
(0.999858 -0.000257452 1.48636e-18)
(0.999819 -0.000560335 1.47841e-16)
(0.999803 -0.000873876 2.09107e-16)
(0.999825 -0.00118964 2.31345e-16)
(0.999899 -0.00145389 -1.50331e-16)
(1.00004 -0.00163955 -2.42102e-16)
(1.00026 -0.00173376 5.92118e-16)
(1.00051 -0.00170322 1.43406e-16)
(1.00092 -0.00155433 -1.49167e-15)
(1.00123 -0.00132934 2.36e-16)
(1.00189 -0.000971116 2.23483e-17)
(0.999867 2.1739e-05 9.00401e-17)
(0.999844 -0.000279015 3.30853e-17)
(0.999811 -0.000596537 -3.19553e-16)
(0.999806 -0.000920192 1.37938e-16)
(0.99984 -0.00124105 -5.61539e-17)
(0.999928 -0.00150709 3.67599e-16)
(1.00008 -0.00169269 6.25928e-16)
(1.00031 -0.00178538 1.05405e-16)
(1.00057 -0.001754 5.11187e-16)
(1.00099 -0.00160124 1.24014e-15)
(1.00133 -0.00137694 1.43586e-15)
(1.00199 -0.00103579 -5.37854e-16)
(0.999852 1.56269e-05 3.46072e-17)
(0.999828 -0.000300709 -2.74408e-17)
(0.999802 -0.000632922 3.03943e-16)
(0.999807 -0.000967008 -2.77305e-16)
(0.999854 -0.00129314 3.9259e-16)
(0.999954 -0.00156091 4.03434e-18)
(1.00012 -0.00174633 -4.06919e-16)
(1.00036 -0.00183738 1.28323e-16)
(1.00063 -0.00180512 -4.42613e-16)
(1.00106 -0.00164877 -2.1671e-16)
(1.00142 -0.00142458 -5.75922e-16)
(1.00208 -0.00109876 -1.06776e-16)
(0.999837 9.25005e-06 -4.15029e-17)
(0.999812 -0.000322416 -2.31062e-16)
(0.999791 -0.000669235 -1.26503e-16)
(0.999805 -0.0010141 1.55299e-16)
(0.999864 -0.00134598 -2.82109e-17)
(0.999978 -0.00161583 -2.62185e-16)
(1.00016 -0.00180126 -5.46869e-17)
(1.00041 -0.00189072 -3.3795e-17)
(1.0007 -0.00185751 -5.31317e-16)
(1.00113 -0.00169785 -3.89902e-16)
(1.00152 -0.00147326 -1.72682e-15)
(1.00217 -0.00116064 1.02754e-15)
(0.999821 2.66347e-06 -3.95442e-17)
(0.999796 -0.000344034 2.40552e-16)
(0.99978 -0.000705212 -1.71755e-16)
(0.999802 -0.00106107 7.66775e-17)
(0.999873 -0.00139924 -1.88278e-16)
(1 -0.00167181 -4.26609e-16)
(1.00019 -0.00185771 5.41291e-17)
(1.00046 -0.00194579 -6.91237e-17)
(1.00076 -0.00191159 2.87625e-16)
(1.0012 -0.00174874 4.47211e-16)
(1.00161 -0.00152293 1.54537e-15)
(1.00226 -0.00122093 -9.93671e-16)
(0.999804 -4.07275e-06 2.84435e-17)
(0.999779 -0.000365467 -1.12e-17)
(0.999768 -0.000740604 2.72406e-17)
(0.999799 -0.00110743 -6.35957e-17)
(0.99988 -0.00145231 -2.3658e-16)
(1.00002 -0.00172823 -9.46467e-18)
(1.00023 -0.0019151 -1.25541e-16)
(1.00051 -0.00200205 -6.70756e-16)
(1.00082 -0.00196675 4.04258e-16)
(1.00128 -0.00180061 2.19024e-16)
(1.0017 -0.00157266 6.539e-17)
(1.00235 -0.00127866 2.23411e-16)
(0.999787 -1.09021e-05 3.25342e-17)
(0.999762 -0.000386659 -2.63907e-16)
(0.999757 -0.000775264 5.16883e-16)
(0.999795 -0.00115279 4.91985e-17)
(0.999888 -0.00150453 1.43506e-16)
(1.00004 -0.00178424 8.70165e-16)
(1.00026 -0.00197251 7.15781e-16)
(1.00056 -0.00205849 3.62349e-16)
(1.00088 -0.00202195 -9.60415e-16)
(1.00135 -0.00185242 -2.80205e-16)
(1.0018 -0.00162164 9.27684e-17)
(1.00245 -0.00133394 -3.33583e-17)
(0.999769 -1.77551e-05 -6.09697e-17)
(0.999744 -0.000407576 1.0513e-16)
(0.999746 -0.000809146 -6.96972e-17)
(0.999792 -0.00119696 -8.8533e-17)
(0.999895 -0.00155551 -2.553e-16)
(1.00006 -0.00183926 -5.05268e-16)
(1.00029 -0.00202921 -2.7469e-16)
(1.00061 -0.00211441 -2.17905e-17)
(1.00095 -0.00207655 2.78348e-16)
(1.00142 -0.00190372 -2.6556e-16)
(1.00189 -0.00166991 -1.56809e-15)
(1.00254 -0.00138755 7.96699e-16)
(0.99975 -2.456e-05 4.45159e-17)
(0.999726 -0.000428219 6.34423e-18)
(0.999735 -0.000842328 -1.89657e-16)
(0.99979 -0.00124 -1.45092e-16)
(0.999904 -0.00160522 -8.0531e-17)
(1.00008 -0.00189317 -1.19072e-16)
(1.00033 -0.00208507 -2.17264e-16)
(1.00066 -0.00216972 -2.31845e-16)
(1.00101 -0.00213066 -6.76051e-17)
(1.0015 -0.0019549 -2.46395e-16)
(1.00198 -0.0017182 9.30819e-17)
(1.00264 -0.00144075 -1.58529e-16)
(0.999731 -3.12302e-05 1.52587e-17)
(0.999708 -0.000448588 1.49376e-16)
(0.999724 -0.000874935 4.08996e-17)
(0.999787 -0.00128214 -1.57096e-17)
(0.999912 -0.00165397 9.89043e-17)
(1.0001 -0.00194626 2.78006e-16)
(1.00036 -0.00214041 1.07038e-16)
(1.00071 -0.00222487 2.67789e-16)
(1.00108 -0.00218488 3.14026e-16)
(1.00158 -0.00200666 -3.066e-16)
(1.00208 -0.00176729 1.00717e-15)
(1.00273 -0.00149424 -6.25561e-16)
(0.999711 -3.76799e-05 -2.06912e-17)
(0.999689 -0.000468689 -1.95443e-17)
(0.999712 -0.000907111 -1.47769e-16)
(0.999784 -0.00132371 -9.72816e-17)
(0.999921 -0.00170221 -3.48774e-17)
(1.00012 -0.00199904 -1.79053e-16)
(1.0004 -0.00219577 1.04231e-17)
(1.00076 -0.00228044 -3.11715e-16)
(1.00114 -0.00223984 -2.70903e-17)
(1.00165 -0.00205958 1.05366e-15)
(1.00217 -0.00181751 4.97425e-16)
(1.00283 -0.00154806 5.33683e-17)
(0.99969 -4.38146e-05 -9.84407e-18)
(0.999668 -0.000488508 -1.14657e-16)
(0.999698 -0.000938956 -5.05376e-17)
(0.99978 -0.00136497 -7.55273e-17)
(0.999928 -0.00175032 5.57788e-16)
(1.00015 -0.00205197 -1.29266e-16)
(1.00044 -0.0022516 1.53922e-16)
(1.00081 -0.00233685 -1.59972e-16)
(1.00121 -0.00229586 -2.55678e-16)
(1.00173 -0.00211375 -2.65697e-16)
(1.00226 -0.00186869 -1.96856e-17)
(1.00293 -0.00160182 -2.02272e-16)
(0.999668 -4.95509e-05 3.40862e-17)
(0.999647 -0.000508029 -4.08504e-17)
(0.999684 -0.000970536 1.71652e-16)
(0.999775 -0.00140611 3.46641e-16)
(0.999935 -0.00179861 -5.27419e-16)
(1.00017 -0.00210535 4.99339e-16)
(1.00047 -0.00230818 -2.76206e-16)
(1.00086 -0.00239425 -1.44262e-16)
(1.00127 -0.00235294 -1.94421e-16)
(1.00181 -0.00216895 -3.55752e-16)
(1.00236 -0.0019204 -1.51125e-16)
(1.00302 -0.00165507 -1.21369e-16)
(0.999645 -5.48077e-05 -5.82228e-18)
(0.999625 -0.000527216 -1.56662e-17)
(0.999668 -0.00100186 -1.57846e-17)
(0.999768 -0.0014472 -3.35544e-16)
(0.99994 -0.00184719 -1.44092e-16)
(1.00018 -0.00215934 -1.30632e-17)
(1.0005 -0.00236557 -3.90083e-16)
(1.0009 -0.00245259 7.19186e-16)
(1.00134 -0.00241087 -5.8702e-18)
(1.00189 -0.00222482 2.51323e-16)
(1.00245 -0.00197228 1.78244e-16)
(1.00312 -0.00170773 -5.4615e-18)
(0.99962 -5.95234e-05 -1.88895e-17)
(0.999601 -0.00054604 1.07877e-16)
(0.999651 -0.00103292 3.21353e-17)
(0.99976 -0.00148828 4.61182e-16)
(0.999945 -0.00189609 2.51752e-16)
(1.0002 -0.00221393 -4.22471e-16)
(1.00054 -0.00242373 1.91889e-16)
(1.00095 -0.00251175 -3.78907e-16)
(1.0014 -0.00246946 1.31244e-15)
(1.00196 -0.00228115 -1.02086e-16)
(1.00254 -0.00202419 2.24814e-17)
(1.00322 -0.00175987 -1.41503e-16)
(0.999595 -6.3643e-05 -1.97102e-17)
(0.999577 -0.000564469 7.53626e-17)
(0.999633 -0.00106371 -9.05572e-17)
(0.999752 -0.00152932 -4.47589e-16)
(0.999948 -0.00194524 4.63592e-16)
(1.00022 -0.00226904 2.71273e-16)
(1.00057 -0.00248257 3.43204e-16)
(1.001 -0.00257163 1.53627e-16)
(1.00147 -0.00252861 -1.09023e-16)
(1.00204 -0.00233788 5.47753e-16)
(1.00264 -0.00207622 -9.94579e-16)
(1.00332 -0.00181187 1.12654e-15)
(0.999568 -6.7132e-05 2.74648e-17)
(0.999551 -0.000582489 -1.44238e-16)
(0.999614 -0.00109423 -8.42356e-17)
(0.999742 -0.00157029 -2.68394e-17)
(0.999951 -0.0019946 -1.77313e-16)
(1.00024 -0.0023246 -5.03917e-18)
(1.0006 -0.00254203 -2.82112e-16)
(1.00105 -0.00263221 -2.13597e-16)
(1.00153 -0.00258835 -1.20553e-15)
(1.00212 -0.00239515 -3.98152e-16)
(1.00273 -0.00212867 -2.56267e-16)
(1.00342 -0.00186404 -3.02018e-17)
(0.999539 -6.99607e-05 1.05326e-17)
(0.999524 -0.000600086 -1.18576e-17)
(0.999594 -0.0011245 -4.26195e-17)
(0.999731 -0.00161123 3.25617e-16)
(0.999953 -0.00204414 -5.52986e-16)
(1.00025 -0.00238057 -4.10501e-16)
(1.00064 -0.00260209 3.52797e-16)
(1.0011 -0.0026935 -2.33545e-17)
(1.0016 -0.00264881 7.30485e-17)
(1.0022 -0.0024532 4.21983e-16)
(1.00283 -0.00218188 -1.68857e-16)
(1.00352 -0.00191675 3.05451e-16)
(0.999509 -7.21154e-05 -1.51723e-17)
(0.999496 -0.000617264 1.70072e-16)
(0.999573 -0.00115459 2.8857e-16)
(0.99972 -0.0016522 -9.61689e-17)
(0.999954 -0.00209391 4.35799e-17)
(1.00027 -0.00243699 1.82387e-16)
(1.00067 -0.00266282 -4.21191e-16)
(1.00115 -0.00275566 4.4365e-16)
(1.00167 -0.00271021 3.45102e-16)
(1.00228 -0.00251232 -2.84524e-16)
(1.00292 -0.00223624 3.23488e-18)
(1.00362 -0.00197024 -1.91376e-17)
(0.999478 -7.35824e-05 -4.29406e-18)
(0.999467 -0.000634025 -2.4707e-16)
(0.99955 -0.00118456 -4.85072e-17)
(0.999707 -0.00169331 5.79574e-17)
(0.999955 -0.00214407 6.52363e-16)
(1.00029 -0.00249402 5.2104e-17)
(1.0007 -0.00272438 3.91077e-16)
(1.0012 -0.00281888 -7.24624e-16)
(1.00173 -0.00277283 3.64081e-16)
(1.00236 -0.00257284 -4.3764e-16)
(1.00301 -0.00229205 9.39971e-16)
(1.00372 -0.00202471 -4.68588e-16)
(0.999445 -7.43609e-05 2.14642e-17)
(0.999436 -0.00065038 1.0954e-16)
(0.999526 -0.00121446 -1.1636e-16)
(0.999693 -0.0017347 4.79121e-17)
(0.999954 -0.00219479 -3.92424e-16)
(1.0003 -0.00255187 -1.38206e-16)
(1.00073 -0.00278701 2.26954e-17)
(1.00125 -0.00288344 5.19249e-16)
(1.0018 -0.00283695 3.1355e-16)
(1.00244 -0.00263499 -2.16615e-17)
(1.00311 -0.00234949 1.23853e-15)
(1.00382 -0.00208013 -6.13038e-16)
(0.99941 -7.44489e-05 1.44282e-18)
(0.999405 -0.000666327 1.19556e-16)
(0.999501 -0.00124434 1.19471e-16)
(0.999678 -0.00177648 -1.44054e-17)
(0.999952 -0.00224627 2.86987e-16)
(1.00031 -0.00261078 3.71223e-16)
(1.00076 -0.00285097 -1.13315e-16)
(1.0013 -0.00294955 5.21608e-16)
(1.00187 -0.00290275 -1.19748e-15)
(1.00253 -0.00269889 -1.32928e-16)
(1.0032 -0.00240857 -1.78297e-15)
(1.00392 -0.00213616 1.4146e-16)
(0.999375 -7.38579e-05 -6.22527e-17)
(0.999372 -0.000681872 7.43856e-17)
(0.999474 -0.00127421 -2.12626e-17)
(0.999661 -0.0018187 1.55135e-16)
(0.999949 -0.00229865 -2.13679e-16)
(1.00033 -0.00267093 -5.20937e-16)
(1.00079 -0.00291644 -4.00848e-17)
(1.00134 -0.00301738 -3.71794e-16)
(1.00193 -0.00297033 1.27558e-15)
(1.00261 -0.0027645 -4.30026e-17)
(1.0033 -0.00246911 3.82642e-16)
(1.00402 -0.00219254 7.07041e-16)
(0.999338 -7.26008e-05 1.54813e-17)
(0.999338 -0.000697008 -3.18915e-16)
(0.999446 -0.00130405 1.09941e-16)
(0.999643 -0.00186138 -5.1003e-16)
(0.999944 -0.00235196 2.55248e-16)
(1.00034 -0.00273241 8.45388e-16)
(1.00082 -0.00298347 -2.19268e-16)
(1.00139 -0.00308693 -5.19407e-16)
(1.002 -0.00303959 -4.05943e-16)
(1.00269 -0.0028316 -8.03204e-17)
(1.00339 -0.0025308 3.96626e-16)
(1.00413 -0.00224883 -6.46584e-16)
(0.9993 -7.07063e-05 3.55038e-17)
(0.999302 -0.000711739 9.26551e-17)
(0.999416 -0.00133381 -3.33874e-16)
(0.999623 -0.00190444 4.62533e-16)
(0.999938 -0.00240616 -6.95613e-16)
(1.00035 -0.00279516 -6.95088e-16)
(1.00085 -0.00305201 2.65072e-16)
(1.00144 -0.00315806 9.32555e-16)
(1.00206 -0.00311032 -5.25565e-16)
(1.00277 -0.00289991 2.11625e-16)
(1.00349 -0.00259331 -1.71161e-16)
(1.00423 -0.00230486 6.05675e-17)
(0.99926 -6.82072e-05 -6.0476e-18)
(0.999266 -0.000726065 1.99965e-16)
(0.999385 -0.00136344 2.66377e-16)
(0.999602 -0.00194777 -3.17148e-16)
(0.99993 -0.0024611 1.54338e-16)
(1.00036 -0.00285901 4.28179e-16)
(1.00088 -0.00312186 1.44036e-16)
(1.00148 -0.00323053 -9.66597e-17)
(1.00213 -0.00318224 7.36723e-16)
(1.00285 -0.00296908 3.75139e-16)
(1.00358 -0.00265631 7.063e-17)
(1.00433 -0.00236026 6.39113e-17)
(0.999219 -6.51531e-05 1.35952e-17)
(0.999229 -0.000740007 -2.23072e-16)
(0.999354 -0.0013929 -5.89469e-17)
(0.99958 -0.00199127 1.24206e-16)
(0.999922 -0.00251659 7.51059e-16)
(1.00036 -0.00292374 -3.85357e-16)
(1.0009 -0.00319275 -3.28419e-16)
(1.00153 -0.00330408 -7.46662e-17)
(1.00219 -0.00325504 -7.28677e-16)
(1.00293 -0.00303883 4.23962e-16)
(1.00368 -0.00271958 -5.90561e-17)
(1.00444 -0.00241516 3.80169e-16)
(0.999177 -6.15966e-05 -1.07877e-17)
(0.99919 -0.000753589 1.39674e-16)
(0.999322 -0.00142216 -9.63953e-17)
(0.999557 -0.00203483 3.61798e-16)
(0.999913 -0.00257247 -7.05566e-16)
(1.00037 -0.00298912 4.95896e-16)
(1.00093 -0.00326445 -4.82573e-17)
(1.00157 -0.00337842 -5.04386e-17)
(1.00226 -0.0033285 7.53996e-16)
(1.00301 -0.00310899 -2.90881e-16)
(1.00377 -0.00278304 -2.38325e-16)
(1.00454 -0.00246948 -9.60293e-17)
(0.999134 -5.76042e-05 1.51836e-18)
(0.999151 -0.000766861 -2.60335e-17)
(0.999289 -0.00145126 1.17458e-16)
(0.999534 -0.00207841 -4.01301e-16)
(0.999903 -0.00262861 3.4835e-16)
(1.00038 -0.00305499 1.16585e-16)
(1.00095 -0.00333676 1.6798e-16)
(1.00162 -0.00345342 -8.77358e-16)
(1.00232 -0.0034025 -3.68278e-16)
(1.00309 -0.00317952 -1.32544e-15)
(1.00387 -0.00284671 -6.93637e-16)
(1.00464 -0.0025236 -7.14486e-16)
(0.99909 -5.32412e-05 -1.97121e-17)
(0.999111 -0.000779875 1.80456e-17)
(0.999255 -0.00148023 -2.201e-16)
(0.99951 -0.00212201 1.44746e-17)
(0.999893 -0.00268498 -8.84968e-17)
(1.00039 -0.00312128 5.25739e-18)
(1.00098 -0.00340961 3.10312e-16)
(1.00166 -0.00352899 1.18614e-15)
(1.00239 -0.00347703 1.03165e-16)
(1.00317 -0.00325044 8.27242e-16)
(1.00397 -0.00291067 -1.21518e-16)
(1.00475 -0.00257756 1.29679e-15)
(0.999044 -4.85815e-05 1.89658e-17)
(0.99907 -0.000792702 1.09555e-17)
(0.999221 -0.00150915 2.97446e-16)
(0.999486 -0.00216573 -1.74001e-16)
(0.999883 -0.00274162 -2.03793e-16)
(1.00039 -0.00318799 -2.35457e-16)
(1.00101 -0.00348301 -1.42863e-16)
(1.00171 -0.00360519 -4.75586e-16)
(1.00245 -0.00355216 8.56338e-17)
(1.00326 -0.00332188 8.21913e-16)
(1.00406 -0.00297507 7.98712e-16)
(1.00486 -0.0026318 -1.15163e-15)
(0.998998 -4.36928e-05 -1.93626e-17)
(0.999028 -0.00080541 -2.39545e-16)
(0.999185 -0.00153814 -1.27552e-16)
(0.99946 -0.00220966 2.92285e-17)
(0.999872 -0.00279864 5.10879e-16)
(1.0004 -0.00325525 -4.05225e-16)
(1.00103 -0.00355706 -3.61756e-16)
(1.00176 -0.00368211 -4.47367e-16)
(1.00252 -0.00362803 -5.36579e-16)
(1.00334 -0.00339398 -1.77588e-15)
(1.00416 -0.00303983 -5.94503e-16)
(1.00496 -0.00268624 5.83909e-16)
(0.99895 -3.86468e-05 9.69046e-18)
(0.998985 -0.000818077 2.00061e-16)
(0.999149 -0.00156728 6.03495e-17)
(0.999434 -0.00225395 3.72413e-16)
(0.99986 -0.0028562 -5.89653e-16)
(1.0004 -0.0033232 5.74954e-16)
(1.00106 -0.00363194 -6.85368e-18)
(1.0018 -0.00375993 1.05422e-15)
(1.00258 -0.00370479 3.8079e-16)
(1.00342 -0.0034669 2.31593e-15)
(1.00426 -0.00310503 3.30595e-16)
(1.00507 -0.00274113 5.44166e-16)
(0.998901 -3.35063e-05 -1.97841e-17)
(0.998941 -0.000830767 4.2975e-17)
(0.999112 -0.00159669 9.3612e-17)
(0.999407 -0.00229873 -1.45643e-16)
(0.999848 -0.00291445 5.03813e-16)
(1.00041 -0.00339201 -6.06601e-16)
(1.00108 -0.00370778 5.54002e-16)
(1.00185 -0.00383877 -1.42269e-16)
(1.00265 -0.00378255 2.32311e-16)
(1.0035 -0.00354071 -1.68894e-15)
(1.00436 -0.0031707 1.00459e-15)
(1.00518 -0.00279663 -1.21449e-15)
(0.998852 -2.83368e-05 2.12801e-17)
(0.998895 -0.000843551 -1.18965e-16)
(0.999073 -0.00162645 -1.72991e-16)
(0.999379 -0.00234412 -1.71059e-16)
(0.999834 -0.00297354 5.21816e-17)
(1.00041 -0.00346183 -1.5969e-16)
(1.00111 -0.00378472 -3.01759e-16)
(1.00189 -0.00391875 -6.69878e-16)
(1.00271 -0.0038614 -2.40036e-16)
(1.00359 -0.00361548 3.94735e-16)
(1.00445 -0.00323699 -9.86831e-16)
(1.00528 -0.00285302 7.02152e-16)
(0.998801 -2.31938e-05 5.12741e-17)
(0.998848 -0.000856485 1.44668e-17)
(0.999033 -0.00165662 -4.60317e-17)
(0.99935 -0.00239019 1.2431e-16)
(0.99982 -0.00303355 -6.87958e-16)
(1.00042 -0.00353274 1.1649e-16)
(1.00113 -0.00386285 5.04916e-16)
(1.00193 -0.00399994 -2.81982e-16)
(1.00278 -0.00394138 9.47717e-17)
(1.00367 -0.00369124 -1.2426e-16)
(1.00455 -0.00330382 2.25256e-16)
(1.00539 -0.00291025 -5.29177e-16)
(0.998749 -1.81357e-05 -3.34712e-17)
(0.9988 -0.000869628 7.35248e-17)
(0.998991 -0.00168728 -1.3456e-16)
(0.999319 -0.00243704 -8.06287e-17)
(0.999804 -0.00309456 5.11786e-16)
(1.00042 -0.00360481 2.11733e-16)
(1.00115 -0.00394222 -2.2356e-16)
(1.00198 -0.00408238 4.58725e-16)
(1.00284 -0.00402252 1.51071e-16)
(1.00375 -0.00376801 2.98257e-16)
(1.00465 -0.00337132 -3.07593e-16)
(1.00549 -0.00296843 -1.11138e-17)
(0.998697 -1.32126e-05 -5.12588e-17)
(0.99875 -0.000883027 -2.66847e-17)
(0.998949 -0.00171847 1.38718e-16)
(0.999288 -0.00248469 1.22642e-16)
(0.999788 -0.00315661 1.59544e-16)
(1.00042 -0.00367807 4.31681e-16)
(1.00117 -0.00402285 -1.93782e-16)
(1.00202 -0.00416607 -8.64524e-17)
(1.00291 -0.00410484 -1.83289e-16)
(1.00383 -0.00384579 -6.70575e-18)
(1.00475 -0.00343957 6.65765e-18)
(1.0056 -0.00302777 3.87416e-16)
(0.998643 -8.47717e-06 8.62352e-17)
(0.998699 -0.000896732 -1.39854e-17)
(0.998904 -0.00175023 1.60341e-16)
(0.999254 -0.00253319 -7.3266e-17)
(0.99977 -0.00321973 -1.40471e-16)
(1.00042 -0.00375255 -5.68332e-16)
(1.0012 -0.00410475 -3.44272e-16)
(1.00207 -0.00425104 2.24241e-16)
(1.00297 -0.00418836 3.53296e-17)
(1.00392 -0.00392464 5.37441e-17)
(1.00484 -0.00350878 8.32477e-17)
(1.00571 -0.00308834 3.46281e-17)
(0.998589 -3.97306e-06 -8.6011e-17)
(0.998647 -0.000910781 1.31634e-16)
(0.998859 -0.00178262 -2.3606e-16)
(0.99922 -0.00258258 1.62475e-16)
(0.999751 -0.00328395 -3.77382e-18)
(1.00042 -0.00382826 3.85822e-16)
(1.00122 -0.00418796 3.35994e-16)
(1.00211 -0.00433731 -2.24461e-16)
(1.00304 -0.00427314 3.69392e-16)
(1.004 -0.00400459 -2.39522e-16)
(1.00494 -0.00357911 7.15976e-16)
(1.00581 -0.00315027 7.25392e-16)
(0.998534 2.54698e-07 6.5914e-17)
(0.998593 -0.00092522 -9.52875e-17)
(0.998812 -0.00181566 -4.00459e-17)
(0.999184 -0.0026329 1.20942e-16)
(0.999731 -0.00334931 -1.51844e-16)
(1.00042 -0.00390525 -2.36243e-16)
(1.00124 -0.0042725 3.60914e-16)
(1.00215 -0.00442495 -2.11452e-16)
(1.0031 -0.00435924 -4.498e-16)
(1.00408 -0.00408575 2.42069e-16)
(1.00504 -0.00365074 -4.10961e-16)
(1.00592 -0.00321337 -5.68311e-16)
(0.998478 4.1711e-06 2.74021e-17)
(0.998538 -0.000940079 -1.01336e-16)
(0.998764 -0.0018494 4.14216e-16)
(0.999147 -0.00268419 -2.02486e-16)
(0.99971 -0.00341585 8.27699e-17)
(1.00042 -0.00398357 -1.92058e-16)
(1.00126 -0.00435845 -4.74314e-16)
(1.00219 -0.004514 4.12106e-16)
(1.00316 -0.0044467 4.75055e-16)
(1.00416 -0.00416812 -5.99897e-16)
(1.00514 -0.00372373 -2.34293e-16)
(1.00603 -0.00327726 -1.78197e-16)
(0.998421 7.74145e-06 -7.85431e-17)
(0.998482 -0.000955396 3.06067e-17)
(0.998714 -0.00188387 -1.87486e-16)
(0.999109 -0.00273649 2.56587e-17)
(0.999688 -0.00348362 1.14233e-16)
(1.00042 -0.00406325 4.66607e-16)
(1.00128 -0.00444584 5.04829e-18)
(1.00223 -0.00460454 -2.43831e-17)
(1.00323 -0.00453558 -6.53213e-16)
(1.00425 -0.00425173 9.59297e-17)
(1.00524 -0.0037981 -1.35187e-16)
(1.00613 -0.00334173 7.26479e-17)
(0.998363 1.09434e-05 -1.26818e-17)
(0.998424 -0.000971194 -2.33473e-17)
(0.998663 -0.00191909 -2.736e-16)
(0.99907 -0.0027898 -5.00074e-17)
(0.999664 -0.00355263 -1.79793e-16)
(1.00041 -0.00414434 -1.30142e-16)
(1.00129 -0.00453471 -1.32757e-16)
(1.00227 -0.00469656 1.63175e-16)
(1.00329 -0.00462586 1.83721e-16)
(1.00433 -0.00433655 3.14477e-16)
(1.00534 -0.00387371 4.43603e-16)
(1.00624 -0.00340649 -2.29794e-16)
(0.998305 1.37563e-05 3.06689e-17)
(0.998365 -0.000987506 1.59421e-17)
(0.998611 -0.00195507 2.61219e-16)
(0.999029 -0.00284414 -5.24928e-17)
(0.99964 -0.0036229 -9.6873e-17)
(1.00041 -0.00422684 -1.49325e-16)
(1.00131 -0.00462506 4.4298e-16)
(1.00231 -0.00479007 -2.97179e-16)
(1.00335 -0.00471751 1.05027e-16)
(1.00441 -0.00442253 4.09595e-16)
(1.00543 -0.00395048 -2.60751e-16)
(1.00635 -0.00347144 -4.08863e-17)
(0.998246 1.61712e-05 -4.19327e-17)
(0.998305 -0.00100435 4.33905e-17)
(0.998558 -0.00199181 8.90278e-17)
(0.998987 -0.00289949 1.89725e-16)
(0.999614 -0.00369439 3.41978e-16)
(1.0004 -0.00431071 -2.54633e-16)
(1.00133 -0.00471684 -1.68941e-16)
(1.00235 -0.00488497 1.78191e-17)
(1.00341 -0.00481045 -3.11735e-16)
(1.00449 -0.00450953 -4.48905e-16)
(1.00553 -0.00402822 5.98558e-16)
(1.00646 -0.00353622 2.51265e-16)
(0.998186 1.81802e-05 6.749e-17)
(0.998244 -0.00102175 8.24648e-17)
(0.998503 -0.00202931 -8.45683e-17)
(0.998944 -0.00295582 -1.72046e-16)
(0.999587 -0.00376705 4.47525e-17)
(1.00039 -0.00439589 4.16918e-16)
(1.00134 -0.00480999 -2.97715e-16)
(1.00239 -0.00498119 -1.07602e-17)
(1.00347 -0.00490458 3.97828e-16)
(1.00457 -0.00459745 -3.9014e-16)
(1.00563 -0.00410675 -5.08269e-16)
(1.00657 -0.00360089 -1.3042e-16)
(0.998125 1.97864e-05 8.34942e-18)
(0.998182 -0.00103972 8.44224e-18)
(0.998447 -0.00206757 -2.7825e-16)
(0.998899 -0.00301308 -2.27014e-16)
(0.999559 -0.00384083 -3.82074e-16)
(1.00039 -0.0044823 5.20529e-17)
(1.00136 -0.0049044 8.53885e-17)
(1.00243 -0.0050786 -5.94376e-17)
(1.00354 -0.00499977 -3.26816e-16)
(1.00466 -0.00468619 7.32757e-16)
(1.00573 -0.00418598 3.79817e-16)
(1.00668 -0.00366515 -1.17353e-16)
(0.998063 2.0992e-05 -3.96431e-17)
(0.998118 -0.00105829 -7.72783e-17)
(0.99839 -0.00210658 3.7093e-16)
(0.998854 -0.00307125 3.37934e-16)
(0.999531 -0.00391565 -7.43039e-18)
(1.00038 -0.00456985 7.23457e-17)
(1.00137 -0.00499998 -1.12363e-16)
(1.00247 -0.00517712 8.25981e-17)
(1.0036 -0.00509598 3.47908e-16)
(1.00474 -0.00477574 -1.80928e-16)
(1.00583 -0.00426586 1.28998e-16)
(1.00679 -0.00372949 2.17965e-16)
(0.998 2.18076e-05 -2.48043e-18)
(0.998054 -0.00107747 5.34674e-17)
(0.998332 -0.00214635 -1.62396e-16)
(0.998807 -0.00313029 -3.19384e-16)
(0.999501 -0.00399146 1.93477e-16)
(1.00037 -0.00465848 -4.43879e-16)
(1.00139 -0.00509664 1.31214e-16)
(1.00251 -0.00527667 -1.94946e-16)
(1.00366 -0.00519312 3.08349e-17)
(1.00482 -0.00486605 1.85572e-16)
(1.00593 -0.00434607 -1.60029e-16)
(1.0069 -0.00379372 -4.85785e-16)
(0.997936 2.22415e-05 2.29157e-17)
(0.997988 -0.00109729 -1.48453e-16)
(0.998273 -0.00218688 1.66626e-16)
(0.99876 -0.00319021 2.79947e-16)
(0.999471 -0.00406825 -3.60148e-16)
(1.00036 -0.00474815 -3.04855e-17)
(1.0014 -0.00519436 2.19388e-16)
(1.00254 -0.00537724 -2.64889e-16)
(1.00372 -0.00529121 -3.21097e-16)
(1.0049 -0.00495721 9.08766e-17)
(1.00603 -0.00442663 -2.78819e-16)
(1.00701 -0.00385836 4.27825e-16)
(0.997871 2.23094e-05 1.50587e-17)
(0.997921 -0.00111775 7.82431e-17)
(0.998213 -0.0022282 -7.73131e-17)
(0.998712 -0.00325101 2.35901e-16)
(0.999439 -0.00414601 1.75025e-16)
(1.00035 -0.00483887 1.47446e-16)
(1.00141 -0.00529314 -2.48069e-16)
(1.00258 -0.00547886 3.78214e-16)
(1.00378 -0.00539031 -3.36508e-18)
(1.00499 -0.0050493 -7.20472e-16)
(1.00613 -0.00450768 1.37935e-16)
(1.00712 -0.0039238 -2.69266e-17)
(0.997804 2.2024e-05 -2.40058e-17)
(0.997852 -0.00113888 8.08232e-17)
(0.998151 -0.00227032 -2.69328e-16)
(0.998662 -0.00331272 -1.97637e-16)
(0.999407 -0.00422477 4.02442e-17)
(1.00034 -0.00493068 1.55034e-16)
(1.00143 -0.00539304 2.5911e-16)
(1.00262 -0.0055816 3.5378e-17)
(1.00384 -0.00549051 2.80433e-17)
(1.00507 -0.00514246 4.79751e-16)
(1.00623 -0.00458951 1.46121e-16)
(1.00723 -0.00399069 -2.33599e-16)
(0.997736 2.14052e-05 -1.89747e-17)
(0.997782 -0.00116066 -2.24274e-17)
(0.998089 -0.00231328 2.85466e-16)
(0.998612 -0.00337538 4.56043e-18)
(0.999374 -0.00430459 2.46088e-16)
(1.00033 -0.00502363 -2.32082e-16)
(1.00144 -0.00549413 -1.51973e-16)
(1.00266 -0.00568556 -4.51657e-17)
(1.00391 -0.00559191 5.44757e-18)
(1.00515 -0.00523681 2.91432e-16)
(1.00633 -0.00467208 -4.54741e-16)
(1.00734 -0.00405881 -2.68641e-16)
(0.997666 2.04703e-05 5.17433e-18)
(0.997711 -0.00118311 -7.87812e-17)
(0.998024 -0.00235708 -2.7613e-16)
(0.99856 -0.00343903 4.92397e-17)
(0.999339 -0.00438553 2.30052e-17)
(1.00031 -0.0051178 2.92895e-18)
(1.00145 -0.00559651 -8.02966e-17)
(1.00269 -0.00579084 3.49267e-16)
(1.00397 -0.00569463 3.83135e-16)
(1.00524 -0.00533248 -2.54996e-16)
(1.00644 -0.00475563 6.88831e-16)
(1.00746 -0.00412842 6.33899e-16)