1.275 	2.15223e-18 	-2.76991e-20 	-0.033942 	-0.000441747 	-1.99157e-22
1.825 	2.15223e-18 	-1.39322e-20 	-0.00851834 	-0.00278262 	1.78994e-21
2.375 	2.15223e-18 	-2.66896e-23 	0.117982 	-0.0033023 	-7.4709e-22
