1.45 	0 	0 	-0.291616
2.35 	0 	0 	-0.126928
