1.45 	0 	0 	-0.00796479 	-0.00257742 	3.79886e-21
2.35 	0 	0 	0.061653 	-0.00664244 	2.30865e-21
