1.275 	2.15223e-18 	-2.76991e-20 	-0.0341265 	-0.000445258 	-1.97748e-22
1.825 	2.15223e-18 	-1.39322e-20 	-0.00885264 	-0.00276759 	1.77365e-21
2.375 	2.15223e-18 	-2.66896e-23 	0.117051 	-0.00325961 	-7.40417e-22
