/*--------------------------------*- C++ -*----------------------------------*\
  =========                 |
  \\      /  F ield         | OpenFOAM: The Open Source CFD Toolbox
   \\    /   O peration     | Website:  https://openfoam.org
    \\  /    A nd           | Version:  6.0
     \\/     M anipulation  |
\*---------------------------------------------------------------------------*/
FoamFile
{
    version     2.0;
    format      ascii;
    class       surfaceScalarField;
    location    "43";
    object      phi;
}
// * * * * * * * * * * * * * * * * * * * * * * * * * * * * * * * * * * * * * //

dimensions      [0 3 -1 0 0 0 0];

internalField   nonuniform List<scalar> 
3880
(
-1.79763e-05
1.79768e-05
-5.08031e-10
-5.34945e-05
3.55195e-05
-1.20786e-09
-9.53875e-05
4.18947e-05
-1.69464e-09
-0.00013659
4.12047e-05
-2.02775e-09
-0.000172742
3.61542e-05
-2.26037e-09
-0.000201432
2.86925e-05
-2.4371e-09
-0.000221728
2.0298e-05
-2.5945e-09
-0.000233866
1.21413e-05
-2.76446e-09
-0.000239055
5.19184e-06
-2.9768e-09
2.24025e-07
-3.26917e-09
-0.000239276
-1.72976e-05
3.52744e-05
-5.08458e-05
6.90676e-05
-8.96156e-05
8.06645e-05
-0.000126655
7.82437e-05
-0.000157644
6.71432e-05
-0.000180138
5.11867e-05
-0.000193118
3.32777e-05
-0.000196721
1.57447e-05
-0.0001921
5.7083e-07
-1.06062e-05
-0.00018127
-1.59052e-05
5.11796e-05
-4.54319e-05
9.85943e-05
-7.78685e-05
0.000113101
-0.000106532
0.000106907
-0.000127228
8.78397e-05
-0.000137482
6.14406e-05
-0.000136116
3.19117e-05
-0.000123062
2.69003e-06
-9.93332e-05
-2.31577e-05
-4.29411e-05
-6.69983e-05
-1.37115e-05
6.48911e-05
-3.69708e-05
0.000121854
-5.96374e-05
0.000135768
-7.5536e-05
0.000122806
-8.07733e-05
9.3077e-05
-7.29284e-05
5.35957e-05
-5.06507e-05
9.63399e-06
-1.35551e-05
-3.44055e-05
3.76121e-05
-7.43249e-05
-0.00010609
0.000100761
-1.05535e-05
7.54446e-05
-2.49448e-05
0.000136245
-3.39528e-05
0.000144776
-3.22492e-05
0.000121102
-1.65482e-05
7.73759e-05
1.52766e-05
2.17708e-05
6.46354e-05
-3.97248e-05
0.000132291
-0.000102061
0.000217963
-0.000159997
-0.000207783
0.000319656
-6.17968e-06
8.16242e-05
-8.56548e-06
0.000138631
7.22378e-07
0.000135488
2.5749e-05
9.60755e-05
6.87411e-05
3.43838e-05
0.000131063
-4.05506e-05
0.000213798
-0.00012246
0.000317955
-0.000206218
0.000443957
-0.000285999
-0.0003539
0.000590074
-2.78417e-07
8.19026e-05
1.31426e-05
0.00012521
4.63803e-05
0.00010225
0.000101849
4.06067e-05
0.000180196
-4.39633e-05
0.000281308
-0.000141662
0.0004051
-0.000246252
0.000552128
-0.000353246
0.000723475
-0.000457346
-0.000548667
0.000918242
7.43399e-06
7.44686e-05
4.10619e-05
9.15817e-05
0.000104946
3.83659e-05
0.00019968
-5.41276e-05
0.000323972
-0.000168255
0.000475448
-0.000293138
0.000651492
-0.000422296
0.0008504
-0.000552154
0.00107264
-0.000679586
-0.000797606
0.00132158
1.70655e-05
5.74031e-05
7.55063e-05
3.31408e-05
0.000177311
-6.3439e-05
0.000321566
-0.000198383
0.000505322
-0.000352011
0.000723815
-0.000511631
0.000970769
-0.00066925
0.00123937
-0.000820757
0.00152586
-0.000966076
-0.00111591
0.00184417
2.83504e-05
2.90527e-05
0.000115561
-5.40697e-05
0.000261836
-0.000209714
0.000465773
-0.00040232
0.000724583
-0.000610821
0.0010338
-0.000820847
0.00138663
-0.00102208
0.00177227
-0.0012064
0.00217503
-0.00136883
-0.00151337
0.00257249
4.04749e-05
-1.14222e-05
0.000158375
-0.000171969
0.000352088
-0.000403427
0.000620351
-0.000670583
0.000962547
-0.000953017
0.00137937
-0.00123767
0.00187407
-0.00151678
0.00245576
-0.00178808
0.00314735
-0.00206043
-0.00237219
0.00400618
5.23593e-05
-6.37815e-05
0.000199954
-0.000319564
0.000438005
-0.000641478
0.000763001
-0.000995579
0.00117226
-0.00136228
0.00166392
-0.00172933
0.00223691
-0.00208977
0.00289038
-0.00244155
0.00361882
-0.00278887
-0.00314079
0.00438742
6.34848e-05
-0.000127266
0.000238251
-0.00049433
0.000514863
-0.000918091
0.000885313
-0.00136603
0.00134184
-0.0018188
0.00187631
-0.0022638
0.00247952
-0.00269299
0.00313969
-0.00310172
0.00383825
-0.00348743
-0.00384399
0.00454145
7.38715e-05
-0.000201138
0.000272988
-0.000693447
0.000582121
-0.00122722
0.000987487
-0.0017714
0.00147522
-0.00230653
0.0020307
-0.00281928
0.00263816
-0.00330044
0.00327987
-0.00374344
0.00393458
-0.00414215
-0.00448537
0.00457596
8.36627e-05
-0.000284801
0.000304313
-0.000914097
0.000640048
-0.00156296
0.00107069
-0.00220204
0.00157622
-0.00281206
0.00213646
-0.00337952
0.00273121
-0.00389519
0.00334036
-0.00435259
0.0039438
-0.00474559
-0.00506327
0.00452169
9.28482e-05
-0.000377649
0.000331967
-0.00115322
0.000688072
-0.00191906
0.00113437
-0.00264834
0.00164514
-0.00332282
0.00219582
-0.00393021
0.00276372
-0.00446309
0.00332854
-0.00491741
0.00387285
-0.00528989
-0.00557323
0.00438282
0.000101184
-0.000478833
0.000355067
-0.0014071
0.000724484
-0.00228848
0.00117614
-0.00309999
0.00167935
-0.00382604
0.00220662
-0.00445748
0.00273444
-0.00499091
0.00324398
-0.00542695
0.00372141
-0.00576733
-0.00601043
0.0041586
0.000108242
-0.000587075
0.000372269
-0.00167113
0.000746863
-0.00266308
0.0011927
-0.00354583
0.00167529
-0.00430863
0.00216569
-0.00494788
0.00264125
-0.00546646
0.0030859
-0.0058716
0.00349006
-0.00617149
-0.00637124
0.00385088
0.000113496
-0.00070057
0.00038206
-0.00193969
0.000752695
-0.00303371
0.00118098
-0.00397412
0.00163007
-0.00475772
0.00207123
-0.00538904
0.00248414
-0.00587937
0.00285647
-0.00624393
0.00318316
-0.00649818
-0.00665405
0.00346596
0.000116416
-0.000816986
0.000383026
-0.0022063
0.000739894
-0.00339058
0.0011389
-0.00437313
0.00154253
-0.00516134
0.00192389
-0.0057704
0.00226619
-0.00622167
0.00256142
-0.00653917
0.00280887
-0.00674563
-0.00685929
0.00301411
0.000116537
-0.000933523
0.00037406
-0.00246382
0.000707144
-0.00372366
0.00106576
-0.00473175
0.00141354
-0.00550912
0.00172689
-0.00608375
0.00199335
-0.00648813
0.00220937
-0.00675519
0.00237812
-0.00691438
-0.00698916
0.00250799
0.000113457
-0.00104698
0.000354398
-0.00270476
0.000653935
-0.0040232
0.000962216
-0.00504003
0.00124578
-0.00579268
0.00148545
-0.00632342
0.00167351
-0.00667619
0.0018106
-0.00689227
0.00190303
-0.00700681
-0.00704716
0.00196103
0.000106917
-0.0011539
0.000323755
-0.0029216
0.000580684
-0.00428013
0.000830231
-0.00528958
0.00104342
-0.00600588
0.00120625
-0.00648625
0.0013157
-0.00678563
0.001376
-0.00695257
0.00139579
-0.0070266
-0.00703761
0.00138623
9.67702e-05
-0.00125067
0.000282254
-0.00310709
0.000488541
-0.00448642
0.00067271
-0.00547374
0.000811534
-0.0061447
0.00089652
-0.00657124
0.00092898
-0.00681809
0.000915974
-0.00693956
0.000867558
-0.00697819
-0.00696517
0.000795122
8.29982e-05
-0.00133367
0.00023041
-0.0032545
0.000379272
-0.00463528
0.000493176
-0.00558765
0.000555542
-0.00620707
0.00056339
-0.00657908
0.000521772
-0.00677647
0.000439697
-0.00685749
0.000327815
-0.0068663
-0.0068346
0.000197242
6.57186e-05
-0.00139938
0.00016911
-0.00335789
0.000255132
-0.0047213
0.000295519
-0.00562804
0.000280838
-0.00619239
0.00021337
-0.00651162
0.000101236
-0.00666434
-4.54407e-05
-0.00671081
-0.000216168
-0.00669558
-0.00665045
-0.00040031
4.52017e-05
-0.00144459
9.96134e-05
-0.0034123
0.000118828
-0.00474051
8.38892e-05
-0.0055931
-7.36991e-06
-0.00610113
-0.000147838
-0.00637115
-0.000326937
-0.00648524
-0.000534096
-0.00650365
-0.000759592
-0.00647008
-0.00641654
-0.000993508
2.18974e-05
-0.00146648
2.35909e-05
-0.00341399
-2.64516e-05
-0.00469047
-0.000137248
-0.0054823
-0.000303968
-0.00593441
-0.000515215
-0.0061599
-0.000758421
-0.00624204
-0.00102295
-0.00623912
-0.00130036
-0.00619267
-0.00613332
-0.00158358
-3.52394e-06
-0.00146296
-5.67999e-05
-0.00336072
-0.000176919
-0.00457035
-0.000362962
-0.00529626
-0.000603851
-0.00569352
-0.000884695
-0.00587906
-0.00119127
-0.00593546
-0.00151273
-0.00591767
-0.00184204
-0.00586335
-0.00579383
-0.00218153
-3.01077e-05
-0.00143285
-0.000138738
-0.00325209
-0.000327727
-0.00438136
-0.000586878
-0.00503711
-0.000900371
-0.00538002
-0.0012516
-0.00552783
-0.00162603
-0.00556103
-0.00201327
-0.00553043
-0.00240934
-0.00546729
-0.00540647
-0.00279669
-5.66204e-05
-0.00137623
-0.000218705
-0.00309
-0.000472466
-0.0041276
-0.000799081
-0.00471049
-0.00117942
-0.00499968
-0.00159758
-0.00510967
-0.00204225
-0.00511636
-0.00250616
-0.00506652
-0.00298843
-0.00498502
-0.00486994
-0.00352497
-8.19862e-05
-0.00129424
-0.000293656
-0.00287833
-0.000605384
-0.00381588
-0.000989449
-0.00432643
-0.00142231
-0.00456682
-0.00188592
-0.00464606
-0.00236727
-0.004635
-0.0028574
-0.00457639
-0.00335011
-0.00449231
-0.00439084
-0.00382921
-0.000105567
-0.00118868
-0.00036221
-0.00262169
-0.000725122
-0.00345296
-0.0011583
-0.00389325
-0.00163423
-0.00409089
-0.00213319
-0.0041471
-0.00264174
-0.00412645
-0.0031509
-0.00406724
-0.00365346
-0.00398975
-0.00390446
-0.00413984
-0.000127019
-0.00106166
-0.00042378
-0.00232493
-0.000831571
-0.00304517
-0.00130721
-0.00341761
-0.00182015
-0.00357795
-0.00234994
-0.00361731
-0.00288351
-0.00359288
-0.00341269
-0.00353806
-0.00393191
-0.00347053
-0.00339977
-0.0044366
-0.000146081
-0.000915577
-0.00047793
-0.00199308
-0.000924551
-0.00259855
-0.00143676
-0.0029054
-0.0019818
-0.0030329
-0.00253907
-0.00306004
-0.00309627
-0.00303569
-0.00364639
-0.00298793
-0.00418547
-0.00293145
-0.00287403
-0.00471121
-0.000162504
-0.000753073
-0.000524205
-0.00163138
-0.00100363
-0.00211913
-0.00154671
-0.00236232
-0.00211914
-0.00246047
-0.00270043
-0.00247876
-0.00327912
-0.00245699
-0.00384931
-0.00241775
-0.00440816
-0.00237259
-0.00232762
-0.00495457
-0.000176039
-0.000577034
-0.000562094
-0.00124532
-0.00106815
-0.00161308
-0.00163633
-0.00179414
-0.00223122
-0.00186558
-0.00283257
-0.00187741
-0.00342968
-0.00185989
-0.00401747
-0.00182996
-0.00459391
-0.00179616
-0.00176296
-0.00515857
-0.000186443
-0.000390591
-0.000591077
-0.00084069
-0.00111738
-0.00108677
-0.00170467
-0.00120685
-0.00231679
-0.00125346
-0.0029337
-0.00126049
-0.00354531
-0.00124828
-0.00414715
-0.00122812
-0.00473767
-0.00120563
-0.00118375
-0.00531689
-0.000193509
-0.000197082
-0.000610691
-0.000423508
-0.00115064
-0.000546822
-0.00175082
-0.000606672
-0.0023746
-0.000629679
-0.00300215
-0.000632942
-0.00362375
-0.000626684
-0.00423532
-0.000616548
-0.00483563
-0.000605317
-0.000594448
-0.00542493
-0.000197082
-3.90967e-10
-0.000620589
-8.29263e-10
-0.00116741
-1.06978e-09
-0.00177408
-1.19456e-09
-0.00240376
-1.25512e-09
-0.0030367
-1.27819e-09
-0.00366338
-1.27584e-09
-0.00427993
-1.25375e-09
-0.00488524
-1.21395e-09
-1.15624e-09
-0.00547969
-0.000197082
0.000197081
-0.000620589
0.000423506
-0.00116741
0.00054682
-0.00177408
0.00060667
-0.00240376
0.000629676
-0.0030367
0.000632939
-0.00366338
0.000626682
-0.00427993
0.000616546
-0.00488524
0.000605314
0.000594446
-0.00547969
-0.000193509
0.00039059
-0.000610691
0.000840688
-0.00115064
0.00108677
-0.00175082
0.00120685
-0.0023746
0.00125346
-0.00300215
0.00126049
-0.00362375
0.00124828
-0.00423532
0.00122812
-0.00483563
0.00120563
0.00118374
-0.00542493
-0.000186443
0.000577033
-0.000591077
0.00124532
-0.00111738
0.00161307
-0.00170467
0.00179414
-0.00231679
0.00186558
-0.0029337
0.00187741
-0.00354531
0.00185988
-0.00414715
0.00182995
-0.00473767
0.00179615
0.00176296
-0.00531689
-0.000176039
0.000753072
-0.000562094
0.00163138
-0.00106815
0.00211913
-0.00163633
0.00236232
-0.00223122
0.00246047
-0.00283257
0.00247875
-0.00342968
0.00245699
-0.00401747
0.00241775
-0.00459391
0.00237259
0.00232762
-0.00515857
-0.000162504
0.000915576
-0.000524206
0.00199308
-0.00100363
0.00259855
-0.00154671
0.0029054
-0.00211914
0.0030329
-0.00270043
0.00306004
-0.00327912
0.00303569
-0.00384931
0.00298793
-0.00440816
0.00293144
0.00287403
-0.00495457
-0.000146081
0.00106166
-0.000477931
0.00232493
-0.000924551
0.00304517
-0.00143676
0.00341761
-0.0019818
0.00357795
-0.00253907
0.00361731
-0.00309627
0.00359288
-0.00364639
0.00353806
-0.00418547
0.00347052
0.00339976
-0.00471121
-0.00012702
0.00118868
-0.00042378
0.00262169
-0.000831571
0.00345296
-0.00130721
0.00389325
-0.00182015
0.00409089
-0.00234994
0.0041471
-0.00288351
0.00412645
-0.00341269
0.00406724
-0.00393191
0.00398974
0.00390445
-0.0044366
-0.000105567
0.00129424
-0.00036221
0.00287833
-0.000725122
0.00381587
-0.0011583
0.00432642
-0.00163423
0.00456682
-0.00213319
0.00464606
-0.00264174
0.004635
-0.0031509
0.00457639
-0.00365346
0.00449231
0.00439084
-0.00413984
-8.19862e-05
0.00137623
-0.000293656
0.00309
-0.000605384
0.0041276
-0.00098945
0.00471049
-0.00142231
0.00499968
-0.00188592
0.00510967
-0.00236727
0.00511636
-0.0028574
0.00506651
-0.00335011
0.00498502
0.00486994
-0.00382921
-5.66204e-05
0.00143285
-0.000218705
0.00325209
-0.000472466
0.00438136
-0.000799081
0.0050371
-0.00117942
0.00538002
-0.00159758
0.00552782
-0.00204225
0.00556103
-0.00250617
0.00553043
-0.00298843
0.00546728
0.00540647
-0.00352497
-3.01078e-05
0.00146296
-0.000138738
0.00336072
-0.000327727
0.00457035
-0.000586878
0.00529625
-0.000900371
0.00569352
-0.0012516
0.00587905
-0.00162603
0.00593546
-0.00201327
0.00591766
-0.00240934
0.00586335
0.00579383
-0.00279669
-3.52398e-06
0.00146648
-5.68e-05
0.00341399
-0.000176919
0.00469047
-0.000362962
0.0054823
-0.000603851
0.0059344
-0.000884695
0.0061599
-0.00119127
0.00624203
-0.00151273
0.00623912
-0.00184204
0.00619267
0.00613332
-0.00218153
2.18974e-05
0.00144459
2.35908e-05
0.0034123
-2.64517e-05
0.00474051
-0.000137248
0.00559309
-0.000303968
0.00610112
-0.000515216
0.00637115
-0.000758421
0.00648524
-0.00102295
0.00650365
-0.00130036
0.00647008
0.00641654
-0.00158358
4.52016e-05
0.00139938
9.96133e-05
0.00335789
0.000118828
0.0047213
8.38889e-05
0.00562803
-7.37018e-06
0.00619238
-0.000147838
0.00651161
-0.000326938
0.00666434
-0.000534097
0.00671081
-0.000759592
0.00669557
0.00665045
-0.000993509
6.57185e-05
0.00133366
0.00016911
0.0032545
0.000255132
0.00463528
0.000295519
0.00558765
0.000280838
0.00620706
0.000213369
0.00657908
0.000101235
0.00677647
-4.54411e-05
0.00685749
-0.000216168
0.0068663
0.00683459
-0.000400311
8.29982e-05
0.00125067
0.00023041
0.00310708
0.000379272
0.00448641
0.000493176
0.00547374
0.000555542
0.0061447
0.00056339
0.00657123
0.000521772
0.00681809
0.000439697
0.00693956
0.000327815
0.00697818
0.00696517
0.000197241
9.67702e-05
0.0011539
0.000282254
0.0029216
0.000488541
0.00428013
0.000672709
0.00528957
0.000811533
0.00600587
0.00089652
0.00648625
0.00092898
0.00678563
0.000915973
0.00695257
0.000867557
0.0070266
0.0070376
0.000795122
0.000106917
0.00104698
0.000323755
0.00270476
0.000580683
0.0040232
0.000830231
0.00504003
0.00104342
0.00579268
0.00120625
0.00632342
0.0013157
0.00667619
0.001376
0.00689227
0.00139579
0.00700681
0.00704716
0.00138623
0.000113457
0.000933523
0.000354398
0.00246382
0.000653935
0.00372366
0.000962216
0.00473175
0.00124578
0.00550912
0.00148545
0.00608374
0.00167351
0.00648812
0.0018106
0.00675518
0.00190303
0.00691438
0.00698915
0.00196103
0.000116537
0.000816986
0.00037406
0.0022063
0.000707144
0.00339058
0.00106576
0.00437313
0.00141354
0.00516134
0.00172689
0.0057704
0.00199335
0.00622167
0.00220937
0.00653916
0.00237812
0.00674563
0.00685928
0.00250799
0.000116416
0.00070057
0.000383026
0.00193969
0.000739894
0.00303371
0.0011389
0.00397412
0.00154253
0.00475772
0.00192389
0.00538904
0.00226619
0.00587937
0.00256142
0.00624393
0.00280887
0.00649818
0.00665404
0.00301411
0.000113496
0.000587075
0.00038206
0.00167112
0.000752694
0.00266307
0.00118098
0.00354583
0.00163007
0.00430863
0.00207123
0.00494787
0.00248414
0.00546646
0.00285647
0.0058716
0.00318316
0.00617149
0.00637124
0.00346596
0.000108241
0.000478833
0.000372269
0.0014071
0.000746863
0.00228848
0.0011927
0.00309999
0.00167529
0.00382604
0.00216569
0.00445747
0.00264125
0.0049909
0.0030859
0.00542695
0.00349006
0.00576733
0.00601042
0.00385088
0.000101184
0.000377649
0.000355066
0.00115322
0.000724484
0.00191906
0.00117614
0.00264834
0.00167935
0.00332282
0.00220662
0.00393021
0.00273444
0.00446309
0.00324398
0.00491741
0.00372141
0.00528989
0.00557323
0.0041586
9.28482e-05
0.000284801
0.000331966
0.000914097
0.000688072
0.00156296
0.00113437
0.00220204
0.00164514
0.00281206
0.00219582
0.00337952
0.00276372
0.00389519
0.00332854
0.00435259
0.00387285
0.00474558
0.00506326
0.00438282
8.36627e-05
0.000201138
0.000304313
0.000693447
0.000640048
0.00122722
0.00107069
0.00177139
0.00157622
0.00230653
0.00213646
0.00281928
0.00273121
0.00330044
0.00334036
0.00374343
0.0039438
0.00414215
0.00448537
0.00452169
7.38714e-05
0.000127266
0.000272988
0.00049433
0.000582121
0.00091809
0.000987487
0.00136603
0.00147521
0.0018188
0.0020307
0.0022638
0.00263815
0.00269299
0.00327987
0.00310172
0.00393458
0.00348743
0.00384399
0.00457596
6.34848e-05
6.37816e-05
0.000238251
0.000319564
0.000514863
0.000641478
0.000885312
0.000995579
0.00134184
0.00136228
0.0018763
0.00172933
0.00247952
0.00208977
0.00313969
0.00244155
0.00383825
0.00278887
0.00314079
0.00454145
5.23592e-05
1.14224e-05
0.000199954
0.00017197
0.000438005
0.000403427
0.000763
0.000670583
0.00117226
0.000953016
0.00166392
0.00123767
0.00223691
0.00151678
0.00289038
0.00178808
0.00361882
0.00206043
0.00237219
0.00438742
4.04748e-05
-2.90525e-05
0.000158374
5.407e-05
0.000352087
0.000209714
0.00062035
0.00040232
0.000962546
0.000610821
0.00137937
0.000820846
0.00187407
0.00102208
0.00245575
0.0012064
0.00314735
0.00136883
0.00151337
0.00400618
2.83504e-05
-5.74028e-05
0.000115561
-3.31403e-05
0.000261835
6.34396e-05
0.000465772
0.000198383
0.000724582
0.000352012
0.0010338
0.000511631
0.00138663
0.00066925
0.00177227
0.000820756
0.00217502
0.000966076
0.00111591
0.00257248
1.70655e-05
-7.44683e-05
7.55061e-05
-9.15809e-05
0.000177311
-3.8365e-05
0.000321565
5.41285e-05
0.000505321
0.000168256
0.000723813
0.000293139
0.000970766
0.000422296
0.00123937
0.000552154
0.00152586
0.000679586
0.000797606
0.00184416
7.4339e-06
-8.19022e-05
4.10616e-05
-0.000125209
0.000104945
-0.000102249
0.000199679
-4.06053e-05
0.00032397
4.39647e-05
0.000475445
0.000141664
0.000651489
0.000246253
0.000850396
0.000353247
0.00107263
0.000457347
0.000548669
0.00132157
-2.78522e-07
-8.16237e-05
1.31422e-05
-0.000138629
4.63795e-05
-0.000135486
0.000101848
-9.60736e-05
0.000180194
-3.43818e-05
0.000281305
4.05526e-05
0.000405096
0.000122462
0.000552123
0.00020622
0.000723469
0.000286001
0.000353902
0.000918236
-6.17979e-06
-7.54439e-05
-8.56587e-06
-0.000136243
7.21562e-07
-0.000144774
2.57476e-05
-0.0001211
6.87391e-05
-7.73733e-05
0.00013106
-2.17681e-05
0.000213794
3.97276e-05
0.00031795
0.000102064
0.000443951
0.00016
0.000207787
0.000590067
-1.05536e-05
-6.48903e-05
-2.49452e-05
-0.000121852
-3.39536e-05
-0.000135765
-3.22505e-05
-0.000122803
-1.65502e-05
-9.30737e-05
1.5274e-05
-5.35923e-05
6.4632e-05
-9.63044e-06
0.000132286
3.44092e-05
0.000217958
7.4329e-05
0.000106094
0.00031965
-1.37116e-05
-5.11787e-05
-3.69711e-05
-9.85923e-05
-5.96381e-05
-0.000113098
-7.55372e-05
-0.000106904
-8.07749e-05
-8.78359e-05
-7.29307e-05
-6.14365e-05
-5.06536e-05
-3.19075e-05
-1.35588e-05
-2.68557e-06
3.76076e-05
2.31625e-05
4.29464e-05
0.000100755
-1.59052e-05
-3.52735e-05
-4.54321e-05
-6.90654e-05
-7.7869e-05
-8.06613e-05
-0.000106533
-7.824e-05
-0.00012723
-6.7139e-05
-0.000137484
-5.11823e-05
-0.000136119
-3.32729e-05
-0.000123065
-1.57397e-05
-9.93367e-05
-5.65408e-07
1.06122e-05
-6.70024e-05
-1.72977e-05
-1.79758e-05
-5.0846e-05
-3.55171e-05
-8.9616e-05
-4.18913e-05
-0.000126655
-4.12007e-05
-0.000157645
-3.61498e-05
-0.000180139
-2.86877e-05
-0.000193119
-2.02929e-05
-0.000196723
-1.21359e-05
-0.000192102
-5.18602e-06
-2.17636e-07
-0.000181273
-1.79763e-05
-5.34946e-05
-9.53876e-05
-0.00013659
-0.000172742
-0.000201433
-0.000221728
-0.000233867
-0.000239056
-0.000239277
0.000183748
-0.000422906
-1.18092e-07
0.00132176
-0.00113811
9.88599e-08
0.00248551
-0.00116428
5.22129e-07
0.00323257
-0.000747324
2.68496e-07
0.00385231
-0.000619363
-3.73023e-07
0.00428064
-0.00042773
-6.0751e-07
0.00462466
-0.000343077
-9.43e-07
0.00485658
-0.000231627
-2.88699e-07
0.00506596
-0.000210386
1.0013e-06
-0.000125045
6.86756e-07
0.00029543
-0.000899605
0.00140416
-0.00224684
0.00254162
-0.00230173
0.00327211
-0.00147782
0.00388031
-0.00122756
0.00430201
-0.00084943
0.00464188
-0.000682949
0.00487202
-0.000461765
0.00508063
-0.000418993
-0.000250451
0.000511629
-0.00147823
0.0015633
-0.00329851
0.00264963
-0.00338807
0.00334824
-0.00217643
0.00393426
-0.00181357
0.00434331
-0.00125848
0.00467533
-0.00101497
0.00490223
-0.000688667
0.00510952
-0.000626287
-0.000378085
0.000818489
-0.00219596
0.00178827
-0.00426829
0.0028015
-0.0044013
0.00345528
-0.00283021
0.00401019
-0.00236848
0.00440177
-0.00165006
0.00472311
-0.00133631
0.00494592
-0.000911474
0.00515182
-0.000832188
-0.000509392
0.00119644
-0.00307274
0.0020638
-0.00513566
0.00298593
-0.00532342
0.00358524
-0.00342952
0.00410254
-0.00288578
0.0044735
-0.00202103
0.00478253
-0.00164534
0.00500123
-0.00113017
0.0052063
-0.00103726
-0.000646187
0.00162141
-0.00410408
0.00237131
-0.00588556
0.00318928
-0.00614139
0.00372844
-0.00396868
0.0042045
-0.00336183
0.0045537
-0.00237023
0.00485026
-0.0019419
0.00506585
-0.00134576
0.00527144
-0.00124286
-0.000790732
0.00206536
-0.0052512
0.00268962
-0.00650982
0.00339634
-0.0068481
0.00387414
-0.00444649
0.00430851
-0.00379621
0.00463698
-0.00269869
0.00492249
-0.00222741
0.0051371
-0.00156037
0.00534544
-0.0014512
-0.000945793
0.00249796
-0.00642758
0.00299566
-0.00700752
0.00359113
-0.00744357
0.00401114
-0.0048665
0.00440673
-0.0041918
0.0047177
-0.00300966
0.00499522
-0.00250494
0.00521212
-0.00177726
0.00542631
-0.00166539
-0.00111465
0.00290162
-0.00748503
0.00327051
-0.00737641
0.0037596
-0.00793266
0.00412898
-0.00523588
0.00449165
-0.00455447
0.00479033
-0.00330833
0.00506442
-0.00277903
0.00528794
-0.00200078
0.00551195
-0.0018894
-0.00130108
0.0032811
-0.00819364
0.00351249
-0.0076078
0.0038909
-0.00831108
0.00422038
-0.00556535
0.00455655
-0.00489064
0.00484994
-0.00360173
0.00512607
-0.00305516
0.00536183
-0.00223654
0.00559988
-0.00212745
-0.00150984
0.0432806
-0.000915502
-0.0505587
0.0390644
-0.00339165
0.0369861
-0.00623276
0.0368
-0.00537927
0.0366531
-0.00474372
0.0368188
-0.00376738
0.0370092
-0.00324564
0.0372629
-0.00249022
0.0374732
-0.00233775
-0.00179852
0.0523392
0.0033129
-0.0565676
0.0501432
-0.00119558
0.0475496
-0.00363919
0.0460087
-0.00383839
0.0448014
-0.0035364
0.0439754
-0.00294144
0.0433284
-0.00259856
0.0429106
-0.00207243
0.042509
-0.00193616
-0.00160576
0.053904
0.00452401
-0.0551151
0.0526219
8.65497e-05
0.0510055
-0.00202283
0.049696
-0.00252889
0.0485975
-0.00243789
0.0477379
-0.00208178
0.0469856
-0.00184629
0.0464232
-0.00151001
0.0458667
-0.00137965
-0.00122372
0.0520606
0.00437436
-0.051911
0.0516516
0.000495541
0.0508182
-0.00118941
0.0499786
-0.00168933
0.0492355
-0.00169471
0.0486344
-0.00148072
0.0480833
-0.00129519
0.0476471
-0.00107378
0.0472085
-0.000941107
-0.000873716
0.0500074
0.00369109
-0.0493241
0.0498799
0.000623052
0.0494568
-0.000766338
0.0489538
-0.00118634
0.0484822
-0.00122316
0.0480977
-0.00109616
0.0477477
-0.000945225
0.0474628
-0.000788885
0.0471851
-0.000663343
-0.00062448
0.0483082
0.00289048
-0.0475076
0.0483333
0.000597916
0.0480818
-0.000514837
0.0477504
-0.000854872
0.0474255
-0.000898354
0.0471559
-0.000826513
0.0469219
-0.000711223
0.0467296
-0.000596609
0.0465569
-0.000490637
-0.00045699
0.0470995
0.00210085
-0.0463099
0.0471933
0.00050413
0.0470186
-0.000340129
0.0467669
-0.000603136
0.0465109
-0.000642424
0.0462891
-0.000604681
0.0461028
-0.000524863
0.0459489
-0.000442771
0.0458214
-0.000363099
-0.000332189
0.0462851
0.00136195
-0.0455462
0.0464293
0.000359962
0.0462957
-0.000206583
0.0460797
-0.000387097
0.0458535
-0.00041623
0.0456478
-0.000399046
0.0454737
-0.000350749
0.0453287
-0.0002977
0.045211
-0.000245467
-0.000221592
0.0457885
0.000668585
-0.0450951
0.0459647
0.000183791
0.045857
-9.88809e-05
0.0456575
-0.000187634
0.0454438
-0.000202551
0.045243
-0.000198204
0.0450685
-0.000176259
0.0449216
-0.000150771
0.0448005
-0.000124406
-0.000112031
0.0455539
-0.0448853
0.0457377
0.0456388
0.0454512
0.0452486
0.0450504
0.0448742
0.0447234
0.044599
0.0567753
0.00230158
-0.0560628
0.0573297
0.00291154
0.0576775
0.00350308
0.057769
0.00406717
0.0575572
0.00459456
0.0570025
0.00507647
0.0560733
0.00550515
0.0547402
0.00587451
0.052948
0.00617965
0.00639546
0.0513979
0.00169289
-0.0507892
0.0520516
0.00225783
0.0527363
0.00281841
0.0534339
0.00336954
0.054123
0.00390549
0.0547794
0.00442005
0.0553778
0.00490678
0.055893
0.0053593
0.0563008
0.00577188
0.0061286
0.0480918
0.00121799
-0.0476169
0.0486477
0.00170196
0.0492813
0.00218476
0.0499873
0.00266351
0.0507578
0.00313507
0.0515819
0.00359595
0.0524463
0.00404232
0.0533356
0.00447003
0.0542329
0.00487454
0.00524642
0.0454945
0.000891381
-0.0451679
0.0459013
0.0012952
0.0463888
0.00169728
0.0469569
0.00209537
0.0476047
0.00248722
0.0483302
0.00287048
0.0491298
0.00324276
0.0499983
0.00360154
0.0509288
0.00394403
0.00426424
0.0439058
0.00065155
-0.043666
0.0442197
0.00098127
0.0446079
0.00130911
0.0450701
0.00163321
0.0456056
0.00195169
0.0462134
0.0022627
0.0468918
0.00256436
0.0476385
0.00285479
0.0484507
0.0031319
0.0033908
0.0428101
0.000469377
-0.0426279
0.0430622
0.000729115
0.0433842
0.000987084
0.0437757
0.00124177
0.0442357
0.00149166
0.0447631
0.00173526
0.0453564
0.00197111
0.0460135
0.00219773
0.0467318
0.00241351
0.00261506
0.0421162
0.000324606
-0.0419714
0.0423279
0.000517445
0.0426061
0.000708869
0.0429501
0.000897728
0.0433589
0.00108288
0.043831
0.00126318
0.0443646
0.00143753
0.0449575
0.00160481
0.0456071
0.00176384
0.00191231
0.0416643
0.000203995
-0.0415437
0.04185
0.000331704
0.0421004
0.000458456
0.0424147
0.000583479
0.0427915
0.000706004
0.0432295
0.000825271
0.0437265
0.000940533
0.0442802
0.00105105
0.044888
0.00115604
0.00125414
0.0413996
9.81583e-05
-0.0412938
0.0415695
0.000161806
0.041803
0.000224994
0.0420991
0.000287332
0.0424567
0.000348435
0.042874
0.00040792
0.0433492
0.000465409
0.0438797
0.00052053
0.0444628
0.000572891
0.000621853
0.0412741
-0.041176
0.041436
0.0416609
0.0419483
0.0422967
0.0427046
0.04317
0.0436906
0.0442635
0.0481094
-0.00335375
-0.0475524
0.0488228
-0.0028949
0.0496454
-0.00240623
0.0505376
-0.00188566
0.0514714
-0.00133414
0.0524283
-0.000759605
0.0533899
-0.000166535
0.0543348
0.000441368
0.0552365
0.00105936
0.00168167
0.0479852
-0.00340684
-0.0479321
0.0480815
-0.0029912
0.0482205
-0.00254527
0.0484082
-0.0020733
0.0486505
-0.00157646
0.0489517
-0.00106081
0.0493152
-0.000530099
0.0497433
1.3348e-05
0.0502356
0.000567043
0.00112802
0.046897
-0.0031475
-0.0471564
0.0466931
-0.00278731
0.0465499
-0.00240198
0.0464725
-0.00199592
0.0464672
-0.00157119
0.0465376
-0.00113121
0.046686
-0.00067849
0.0469144
-0.000215043
0.0472244
0.000257048
0.000735523
0.0455818
-0.00277138
-0.0459579
0.0452636
-0.00246906
0.0450067
-0.0021451
0.0448147
-0.00180393
0.0446909
-0.00144742
0.0446377
-0.00107801
0.044657
-0.000697778
0.0447507
-0.000308674
0.0449204
8.72915e-05
0.000488027
0.0446599
-0.0023496
-0.0450817
0.0442919
-0.00210111
0.0439823
-0.00183549
0.0437342
-0.00155579
0.0435504
-0.00126363
0.0434332
-0.000960855
0.0433847
-0.000649204
0.0434064
-0.000330373
0.0434998
-6.10171e-06
0.000321816
0.0439897
-0.00190031
-0.0444389
0.0435923
-0.0017038
0.0432508
-0.00149398
0.0429681
-0.0012731
0.0427469
-0.00104239
0.0425893
-0.000803275
0.0424972
-0.000557127
0.0424722
-0.000305342
0.0425155
-4.93477e-05
0.000209391
0.043559
-0.00143593
-0.0440234
0.043145
-0.00128981
0.042785
-0.00113398
0.0424818
-0.000969931
0.042238
-0.000798575
0.0420557
-0.00062093
0.0419366
-0.000438031
0.0418822
-0.000250933
0.0418935
-6.07172e-05
0.000131507
0.0432802
-0.000961461
-0.0437546
0.0428551
-0.000864767
0.0424828
-0.000761685
0.042166
-0.000653145
0.0419072
-0.000539753
0.0417085
-0.00042217
0.0415715
-0.000301079
0.0414978
-0.000177184
0.0414883
-5.12091e-05
7.61037e-05
0.0431192
-0.000481537
-0.0435992
0.042688
-0.000433515
0.0423086
-0.000382323
0.0419839
-0.0003284
0.0417162
-0.000272045
0.0415076
-0.00021358
0.0413599
-0.000153345
0.0412744
-9.16876e-05
0.0412521
-2.89691e-05
3.44395e-05
0.0430454
-0.043527
0.0426119
0.0422296
0.0419012
0.0416291
0.0414156
0.0412622
0.0411705
0.0411416
0.0429475
0.00017463
-0.000193169
0.0429914
0.000521276
-0.0005652
0.0430658
0.000872671
-0.000947118
0.0431884
0.001237
-0.00135953
0.043389
0.00161961
-0.00182026
0.0437114
0.00202475
-0.0023471
0.0442143
0.00245452
-0.0029574
0.0449695
0.00291137
-0.00366664
0.0460712
0.00337131
-0.00447302
0.00392367
-0.0054048
0.0429657
0.000137881
0.0430729
0.000414036
0.043254
0.000691548
0.0435194
0.000971602
0.043884
0.00125501
0.0443668
0.00154202
0.0449896
0.00183167
0.0457769
0.00212406
0.0467446
0.00240364
0.00273618
0.0429665
0.000100273
0.0430779
0.000302717
0.0432627
0.000506705
0.0435251
0.000709226
0.0438707
0.000909384
0.0443068
0.00110588
0.0448419
0.00129663
0.045486
0.00147993
0.0462438
0.00164581
0.00182363
0.0429586
7.05594e-05
0.0430476
0.000213751
0.043196
0.000358307
0.0434046
0.000500636
0.0436744
0.000639534
0.0440066
0.000773707
0.0444017
0.000901581
0.0448597
0.00102195
0.0453756
0.00112982
0.00124133
0.0429506
4.88961e-05
0.0430161
0.000148279
0.0431258
0.000248593
0.0432795
0.000346944
0.0434767
0.000442274
0.0437169
0.000533531
0.0439989
0.000619575
0.0443214
0.000699476
0.0446808
0.000770443
0.000840424
0.0429445
3.3308e-05
0.0429918
0.00010102
0.043071
0.000169335
0.0431818
0.000236201
0.0433232
0.000300842
0.0434942
0.000362521
0.0436933
0.000420493
0.0439186
0.000474167
0.044167
0.000522069
0.000568465
0.0429403
2.19175e-05
0.0429749
6.64639e-05
0.0430328
0.000111388
0.0431137
0.000155331
0.0432168
0.000197771
0.0433411
0.000238217
0.0434854
0.000276194
0.0436482
0.000311311
0.0438276
0.00034274
0.000372646
0.0429376
1.3277e-05
0.0429638
4.02495e-05
0.0430077
6.74377e-05
0.043069
9.40327e-05
0.0431471
0.00011972
0.0432411
0.000144209
0.0433501
0.000167223
0.0434728
0.000188537
0.0436079
0.000207715
0.000225863
0.0429359
6.26135e-06
0.0429572
1.89822e-05
0.0429929
3.17941e-05
0.0430426
4.43272e-05
0.0431058
5.64352e-05
0.0431821