/*--------------------------------*- C++ -*----------------------------------*\
  =========                 |
  \\      /  F ield         | OpenFOAM: The Open Source CFD Toolbox
   \\    /   O peration     | Website:  https://openfoam.org
    \\  /    A nd           | Version:  6.0
     \\/     M anipulation  |
\*---------------------------------------------------------------------------*/
FoamFile
{
    version     2.0;
    format      ascii;
    class       volVectorField;
    location    "43";
    object      U;
}
// * * * * * * * * * * * * * * * * * * * * * * * * * * * * * * * * * * * * * //

dimensions      [0 1 -1 0 0 0 0];

internalField   nonuniform List<vector> 
2000
(
(-0.00199127 0.00173849 5.72928e-20)
(-0.00762172 0.00330285 6.80462e-20)
(-0.0153304 0.00366221 -6.48712e-20)
(-0.0223328 0.00333794 -1.32371e-19)
(-0.0276809 0.00264031 -9.24683e-20)
(-0.0312219 0.00177248 1.23187e-19)
(-0.0330532 0.000879834 7.17529e-20)
(-0.033444 6.90885e-05 -2.90263e-20)
(-0.0328264 -0.000580626 -7.24605e-20)
(-0.0314953 -0.00100542 5.28333e-20)
(-0.00248975 0.0051215 -1.42013e-19)
(-0.00837083 0.00968584 1.96046e-19)
(-0.0157254 0.0106979 1.95494e-20)
(-0.0220254 0.00969777 -1.13557e-19)
(-0.0264597 0.00759851 5.43384e-19)
(-0.0289521 0.00499698 -2.3915e-19)
(-0.0296479 0.0023215 -2.58729e-19)
(-0.0288426 -0.000109608 3.1206e-19)
(-0.0269846 -0.00205462 -3.07764e-19)
(-0.0244465 -0.00332107 1.55262e-19)
(-0.00343582 0.0082251 2.35859e-20)
(-0.00972825 0.01541 8.38862e-21)
(-0.0163017 0.0168866 5.87545e-19)
(-0.0211439 0.0151407 2.06105e-19)
(-0.0237178 0.0116336 4.08774e-20)
(-0.0240983 0.00731712 3.38038e-19)
(-0.0225238 0.00287701 -6.42058e-19)
(-0.0193383 -0.00116389 1.39251e-20)
(-0.0150197 -0.0043888 -3.79668e-19)
(-0.0101022 -0.00647412 4.18249e-19)
(-0.00472412 0.0108682 -4.43674e-20)
(-0.0114035 0.0200607 2.55253e-19)
(-0.0166179 0.0217194 -7.4369e-19)
(-0.0191363 0.0191496 -9.61288e-20)
(-0.018832 0.0142678 -5.47381e-19)
(-0.0160034 0.00831181 5.66902e-19)
(-0.0110224 0.00217627 -6.01306e-19)
(-0.00429588 -0.0034297 4.22288e-19)
(0.00366376 -0.00789634 1.77531e-19)
(0.0120645 -0.0107645 -2.00606e-19)
(-0.00618715 0.012875 -4.9381e-19)
(-0.0129401 0.0232577 4.45608e-21)
(-0.0159823 0.0247669 9.16117e-19)
(-0.0151343 0.0213431 2.74649e-19)
(-0.0108144 0.0152254 -8.73285e-19)
(-0.00361538 0.00783559 5.43027e-19)
(0.00591894 0.000196366 6.15511e-19)
(0.0173149 -0.00683874 -5.48776e-19)
(0.0300369 -0.0124524 3.91273e-19)
(0.0429253 -0.016047 9.60818e-20)
(-0.00758385 0.0140745 6.75006e-20)
(-0.0136958 0.0246653 1.25193e-20)
(-0.0134291 0.025701 -1.17125e-18)
(-0.00792049 0.0215118 -6.55252e-19)
(0.0017361 0.0144924 7.8166e-19)
(0.0145795 0.00611563 -9.15357e-19)
(0.0298506 -0.00258971 1.04891e-18)
(0.0470103 -0.0107144 -9.06025e-20)
(0.0655415 -0.0172491 -2.9509e-19)
(0.0838017 -0.0214708 -8.57663e-19)
(-0.00858789 0.0143042 -1.46878e-19)
(-0.0128318 0.0240059 -2.6826e-19)
(-0.00771318 0.0243091 -3.29572e-19)
(0.00407976 0.0196272 7.03066e-19)
(0.0206604 0.012327 1.30419e-18)
(0.0406189 0.00378472 -2.69557e-19)
(0.0629158 -0.0051323 -6.56055e-19)
(0.0869313 -0.0136325 2.00098e-19)
(0.112252 -0.0206151 -1.26013e-18)
(0.136676 -0.0252836 1.38414e-18)
(-0.00878379 0.0134243 8.98312e-19)
(-0.00932799 0.0210861 -4.90341e-19)
(0.00264642 0.0205025 9.57296e-19)
(0.0227363 0.0158176 -1.56403e-18)
(0.0481745 0.0092056 -7.47318e-19)
(0.0770157 0.00182606 -1.03513e-18)
(0.107832 -0.00579443 3.00735e-19)
(0.139845 -0.0132491 -8.37308e-19)
(0.17288 -0.0195738 1.82337e-18)
(0.204277 -0.0240809 5.10419e-19)
(-0.00768225 0.0113476 6.61314e-20)
(-0.00204449 0.0158391 7.98726e-19)
(0.0192559 0.0143225 1.58725e-18)
(0.0500655 0.0103 4.85032e-19)
(0.0867034 0.00565906 1.43562e-18)
(0.126596 0.00135962 7.86889e-20)
(0.167735 -0.00240784 -7.10259e-22)
(0.208923 -0.0056933 5.78783e-19)
(0.250236 -0.00783989 4.68133e-19)
(0.289119 -0.00926397 -1.51935e-18)
(-0.00477042 0.00808578 -5.32122e-19)
(0.0101472 0.00838445 -8.91228e-19)
(0.0436443 0.0059377 -1.29544e-18)
(0.0879973 0.0032088 3.06116e-20)
(0.138751 0.00175639 -6.60402e-19)
(0.192807 0.00254217 1.04087e-18)
(0.247589 0.00588845 -2.86563e-18)
(0.301164 0.012014 1.28654e-18)
(0.352886 0.0215136 4.83578e-19)
(0.400033 0.030246 1.51722e-18)
(0.000388781 0.00380847 2.66185e-19)
(0.0281184 -0.000874606 -1.01898e-18)
(0.0768103 -0.00427317 9.09856e-19)
(0.137564 -0.00546193 -3.52994e-19)
(0.205555 -0.00344314 3.83961e-19)
(0.277822 0.00270687 8.35909e-19)
(0.352531 0.0137246 -1.1223e-18)
(0.429277 0.0305516 1.45817e-19)
(0.50904 0.0524515 -5.37794e-19)
(0.594174 0.0694517 1.09115e-18)
(0.00806036 -0.00110803 3.81379e-19)
(0.0522607 -0.0110933 -9.23843e-19)
(0.118757 -0.0153299 1.25874e-18)
(0.19775 -0.0150194 -7.83901e-19)
(0.28405 -0.0102802 -2.87569e-19)
(0.374606 -0.000972975 1.70255e-19)
(0.467608 0.0128139 8.80253e-20)
(0.562491 0.0307685 1.194e-18)
(0.658906 0.0501752 3.43727e-19)
(0.754562 0.0623381 1.46948e-18)
(0.0183522 -0.00610205 -3.40412e-19)
(0.0826133 -0.0209189 1.19448e-18)
(0.169008 -0.0252642 -9.9668e-19)
(0.267056 -0.0228317 -1.1689e-18)
(0.37109 -0.0151016 1.63542e-18)
(0.477617 -0.00286683 -1.24349e-18)
(0.584242 0.0129418 3.28461e-19)
(0.689408 0.0312123 -1.94717e-18)
(0.791336 0.0492623 1.45856e-18)
(0.886044 0.0617474 7.28757e-20)
(0.0312705 -0.0105459 -4.43638e-19)
(0.118977 -0.0287941 -4.28448e-19)
(0.22687 -0.0317848 -9.12348e-19)
(0.344065 -0.025892 1.10588e-18)
(0.464449 -0.0140402 -5.58569e-20)
(0.584063 0.00207515 7.14951e-19)
(0.699971 0.0208529 1.30427e-18)
(0.809932 0.0407951 -4.00808e-19)
(0.91158 0.0598075 -1.41767e-18)
(1.00091 0.0748764 2.81462e-18)
(0.0467455 -0.0138317 -2.29313e-19)
(0.160911 -0.0332171 -2.73525e-19)
(0.291341 -0.0327805 4.92232e-19)
(0.427116 -0.0216652 -9.14929e-19)
(0.561886 -0.00426242 1.5631e-19)
(0.691443 0.0168794 1.39101e-19)
(0.812665 0.0396117 6.10029e-20)
(0.923203 0.0622288 -9.85868e-21)
(1.02086 0.0832278 -1.49433e-19)
(1.10226 0.10099 -2.3795e-18)
(0.0646188 -0.0153977 9.30847e-19)
(0.207683 -0.0328635 -6.49628e-19)
(0.360984 -0.0265376 8.30793e-21)
(0.514055 -0.00833895 -9.89383e-19)
(0.660655 0.0159061 -3.53974e-19)
(0.796704 0.0428748 3.3097e-19)
(0.919363 0.0699932 2.57028e-19)
(1.02674 0.0954704 -9.15907e-19)
(1.11735 0.118341 7.48625e-19)
(1.18885 0.137791 -9.81554e-19)
(0.0846114 -0.0147326 4.01758e-19)
(0.258229 -0.0266434 -3.57056e-19)
(0.433901 -0.0118358 1.48306e-18)
(0.602226 0.0151004 1.5121e-19)
(0.757552 0.0470187 3.47508e-19)
(0.896414 0.0799688 1.54886e-18)
(1.01678 0.11113 -2.36822e-19)
(1.11772 0.138797 2.15781e-19)
(1.19888 0.162563 8.93523e-20)
(1.25919 0.182095 -1.09974e-19)
(0.106294 -0.0113862 2.80685e-19)
(0.311142 -0.0137429 6.74834e-19)
(0.507781 0.0120118 -7.22911e-19)
(0.68861 0.0488892 -2.44732e-19)
(0.849161 0.0886656 -3.02321e-19)
(0.987145 0.127018 4.68431e-19)
(1.10185 0.161147 -2.43656e-19)
(1.19374 0.189674 6.55528e-19)
(1.26384 0.212845 2.20593e-19)
(1.3125 0.230665 -3.59636e-19)
(0.129071 -0.0049946 -3.02473e-19)
(0.364702 0.00632839 2.68851e-19)
(0.580017 0.0451369 -5.73677e-19)
(0.77004 0.0925427 2.47456e-19)
(0.932161 0.139655 -2.56768e-19)
(1.06584 0.182157 -3.20458e-19)
(1.17214 0.217627 -2.5734e-19)
(1.25319 0.2453 2.87595e-19)
(1.3115 0.266203 -5.42231e-19)
(1.34885 0.280636 3.27688e-19)
(0.152192 0.00468203 -1.07817e-19)
(0.416947 0.0336823 -2.10903e-19)
(0.647855 0.0871017 1.00432e-19)
(0.843433 0.144924 6.19189e-21)
(1.0036 0.198185 8.33323e-20)
(1.13007 0.243068 1.14325e-19)
(1.22601 0.277937 1.05954e-19)
(1.29535 0.302934 -1.40501e-19)
(1.34201 0.319979 1.19613e-19)
(1.36911 0.329675 -1.87189e-19)
(0.174775 0.017719 -6.24111e-20)
(0.465774 0.0680015 -2.34123e-20)
(0.70858 0.1369 9.3165e-20)
(0.906008 0.204326 -4.28897e-20)
(1.0611 0.262007 1.14314e-19)
(1.17821 0.307192 -1.476e-19)
(1.26274 0.33945 3.42095e-20)
(1.32037 0.360076 3.67062e-20)
(1.35627 0.371951 -1.53855e-20)
(1.37465 0.375985 5.82102e-20)
(0.195857 0.0339917 -6.733e-20)
(0.509071 0.10851 -3.04687e-19)
(0.759691 0.192986 -2.11034e-20)
(0.955469 0.268575 6.27186e-21)
(1.10299 0.328579 -3.96289e-19)
(1.20944 0.371907 5.23894e-20)
(1.2824 0.399693 -4.46022e-20)
(1.3291 0.414556 -1.07582e-19)
(1.35567 0.420329 2.24292e-19)
(1.36715 0.418231 -4.08954e-19)
(0.214445 0.0531505 -3.25183e-20)
(0.544852 0.15397 6.1708e-19)
(0.799065 0.253335 9.94282e-20)
(0.990135 0.335148 -5.4326e-19)
(1.12837 0.395217 -4.40535e-20)
(1.22372 0.434653 -5.20599e-19)
(1.28575 0.456424 3.81611e-19)
(1.32289 0.464538 -1.38456e-19)
(1.34192 0.463703 2.45615e-19)
(1.34842 0.45542 -1.79461e-19)
(0.229587 0.0746122 -2.05059e-19)
(0.571394 0.202718 1.95847e-19)
(0.825093 0.315541 -1.41359e-19)
(1.00902 0.401307 1.06549e-18)
(1.13708 0.459223 5.25856e-19)
(1.22173 0.493027 -1.21921e-19)
(1.27409 0.507671 4.10746e-19)
(1.30345 0.508498 -2.70274e-19)
(1.31688 0.500956 -7.52962e-20)
(1.32028 0.486798 4.94029e-19)
(0.240436 0.0975685 -3.5493e-19)
(0.587356 0.252731 4.51671e-19)
(0.836774 0.376931 -8.88658e-19)
(1.01185 0.464234 1.248e-19)
(1.12967 0.51799 2.78885e-19)
(1.20469 0.544843 -4.27677e-19)
(1.24914 0.551725 -4.97963e-19)
(1.27272 0.545172 2.18584e-19)
(1.28252 0.531183 -2.63205e-19)
(1.28453 0.511754 3.16012e-19)
(0.246312 0.121013 -8.96781e-20)
(0.591873 0.301725 -4.5959e-19)
(0.833755 0.434708 2.54263e-19)
(0.999031 0.521159 4.26396e-19)
(1.10725 0.569097 -2.56419e-19)
(1.17428 0.588156 -1.91043e-19)
(1.21287 0.587119 -1.04333e-19)
(1.23273 0.573484 -5.15783e-20)
(1.24078 0.553598 1.07812e-20)
(1.24291 0.529719 1.0758e-19)
(0.246759 0.143785 6.5825e-20)
(0.584618 0.347278 -3.85652e-19)
(0.816341 0.486098 6.43227e-19)
(0.971582 0.569494 -3.81102e-19)
(1.07145 0.610386 1.065e-19)
(1.13248 0.621291 -1.51083e-19)
(1.16741 0.612602 1.62649e-19)
(1.18559 0.592496 3.11772e-20)
(1.19356 0.567431 -7.79485e-20)
(1.19711 0.540021 1.51402e-19)
(0.241593 0.164636 -1.73046e-19)
(0.565833 0.386974 3.38078e-19)
(0.785449 0.528509 -1.52022e-20)
(0.931026 0.60695 -7.32391e-20)
(1.02419 0.640034 -2.01316e-19)
(1.08145 0.642882 2.4813e-20)
(1.11501 0.627183 6.14787e-20)
(1.1335 0.601458 -1.5148e-19)
(1.14303 0.571983 1.76915e-19)
(1.1492 0.541879 1.503e-19)
(0.230935 0.18231 3.84643e-20)
(0.536326 0.418562 -8.09392e-20)
(0.742532 0.559669 2.42231e-20)
(0.87924 0.631621 1.25089e-20)
(0.967554 0.656554 7.79103e-20)
(1.02334 0.651785 -1.4403e-19)
(1.05788 0.629967 -3.01311e-19)
(1.07891 0.599657 -1.22919e-19)
(1.09214 0.566623 -1.57113e-19)
(1.10255 0.534701 1.33111e-19)
(0.215231 0.195654 1.10751e-19)
(0.49743 0.440131 -1.71687e-19)
(0.689468 0.577805 1.65715e-19)
(0.818263 0.64211 -3.14792e-19)
(0.903422 0.658818 7.63727e-20)
(0.959696 0.646834 5.16156e-19)
(0.997278 0.619363 -1.58281e-19)
(1.02317 0.584703 1.8815e-19)
(1.04271 0.548005 2.75453e-19)
(1.05903 0.515028 1.0019e-18)
(0.195249 0.203726 6.80415e-19)
(0.450967 0.450296 -4.62981e-19)
(0.628514 0.581864 1.12675e-18)
(0.750269 0.637906 -1.92969e-19)
(0.83339 0.646759 9.66716e-19)
(0.891058 0.628052 6.0651e-19)
(0.932311 0.594737 -1.42489e-18)
(0.963571 0.553881 2.16339e-18)
(0.989457 0.507899 -4.5719e-19)
(1.00632 0.461007 8.99636e-19)
(0.17205 0.205874 -3.75336e-19)
(0.399205 0.448255 -2.67596e-19)
(0.562391 0.57153 2.588e-19)
(0.677928 0.619482 -6.40982e-19)
(0.759662 0.622009 -2.00207e-18)
(0.8187 0.598991 -8.05165e-19)
(0.862693 0.563188 -7.25713e-19)
(0.897114 0.521741 3.5121e-19)
(0.925117 0.478159 2.92713e-18)
(0.942606 0.437392 -6.08879e-19)
(0.146894 0.201721 1.9753e-19)
(0.344728 0.433649 -7.99406e-19)
(0.494241 0.546775 1.75827e-19)
(0.604666 0.587134 -1.28043e-18)
(0.686058 0.585017 2.80338e-18)
(0.747293 0.559929 -3.24915e-19)
(0.794584 0.52408 1.52759e-18)
(0.832423 0.484257 -2.18827e-18)
(0.863342 0.443962 6.86515e-19)
(0.884648 0.407477 1.06204e-19)
(0.121118 0.191156 1.45614e-19)
(0.290163 0.40655 8.817e-19)
(0.427119 0.507894 -2.58988e-18)
(0.533587 0.541229 1.26025e-18)
(0.615632 0.535983 -4.15842e-21)
(0.679888 0.510616 -4.25274e-19)
(0.731204 0.47643 5.35214e-19)
(0.773236 0.439624 -5.31918e-19)
(0.808165 0.403352 -1.82845e-18)
(0.834247 0.370865 -5.00992e-19)
(0.0960487 0.174334 4.76468e-19)
(0.238033 0.367474 5.34609e-19)
(0.363854 0.455616 2.20816e-18)
(0.467419 0.482513 -1.22841e-18)
(0.550831 0.4755 2.53207e-18)
(0.618566 0.451352 -5.45411e-19)
(0.674213 0.420139 -5.76517e-19)
(0.720699 0.387299 6.81287e-19)
(0.759931 0.355515 4.44196e-19)
(0.790869 0.327125 1.61055e-18)
(0.0729449 0.15167 -4.8355e-19)
(0.190664 0.317377 1.5784e-19)
(0.306988 0.391112 4.26868e-20)
(0.408535 0.412151 1.25232e-18)
(0.493703 0.404589 -3.126e-18)
(0.56499 0.382954 5.31041e-19)
(0.624864 0.355821 1.1726e-18)
(0.675617 0.327751 -1.41761e-18)
(0.718933 0.300911 4.99417e-19)
(0.754394 0.276898 -2.31782e-18)
(0.0529469 0.123826 1.03048e-19)
(0.150114 0.257626 5.5591e-19)
(0.258722 0.315974 2.16212e-19)
(0.358945 0.331692 2.93017e-19)
(0.445941 0.324635 5.61462e-19)
(0.520504 0.306609 1.67165e-18)
(0.584155 0.284488 -2.04672e-18)
(0.638655 0.261882 -1.15277e-18)
(0.685522 0.240441 1.91035e-19)
(0.724903 0.221195 1.50294e-18)
(0.0370318 0.0916909 -6.2314e-19)
(0.118111 0.189953 -7.41295e-20)
(0.220875 0.23216 -6.20968e-19)
(0.320288 0.243022 8.84353e-20)
(0.408909 0.237333 -5.31582e-19)
(0.486184 0.2238 -6.06896e-19)
(0.552891 0.207443 -9.0443e-19)
(0.610384 0.190868 2.43719e-18)
(0.660066 0.175233 4.20475e-19)
(0.702562 0.161149 -6.4094e-19)
(0.0259729 0.0563425 3.35841e-19)
(0.0960029 0.116392 4.43904e-19)
(0.194847 0.141927 1.7489e-19)
(0.293812 0.148292 -9.43885e-19)
(0.38364 0.144614 -4.3942e-19)
(0.462844 0.136227 -9.46221e-20)
(0.531693 0.126185 1.84894e-19)
(0.591265 0.116066 1.48461e-19)
(0.642892 0.106552 -1.14801e-18)
(0.687548 0.0979589 6.58752e-19)
(0.0203063 0.0190053 -1.74892e-19)
(0.0847141 0.0392058 -1.98969e-19)
(0.181592 0.0477523 1.58581e-19)
(0.280362 0.0498479 1.40792e-19)
(0.370831 0.048577 1.44292e-19)
(0.451036 0.0457363 2.20671e-19)
(0.520987 0.0423511 -1.16022e-20)
(0.581621 0.0389486 -2.89461e-19)
(0.634242 0.0357545 2.74955e-19)
(0.680003 0.0328654 -4.13682e-19)
(0.0203063 -0.0190051 -1.76042e-19)
(0.084714 -0.0392054 -1.89613e-19)
(0.181592 -0.0477518 1.74742e-19)
(0.280362 -0.0498475 3.42128e-19)
(0.370831 -0.0485765 2.27963e-19)
(0.451036 -0.0457358 -3.00372e-19)
(0.520987 -0.0423505 -1.63219e-19)
(0.581621 -0.0389481 7.11792e-20)
(0.634242 -0.035754 1.60029e-19)
(0.680003 -0.032865 -9.52949e-20)
(0.0259729 -0.0563423 4.20115e-19)
(0.0960029 -0.116392 -5.3392e-19)
(0.194847 -0.141927 -4.44086e-20)
(0.293812 -0.148292 2.95828e-19)
(0.38364 -0.144613 -1.3375e-18)
(0.462844 -0.136226 5.71496e-19)
(0.531693 -0.126185 5.89946e-19)
(0.591265 -0.116066 -6.96458e-19)
(0.642892 -0.106551 6.65283e-19)
(0.687548 -0.0979584 -2.91999e-19)
(0.0370318 -0.0916908 -7.26347e-20)
(0.118111 -0.189953 -9.26672e-21)
(0.220874 -0.23216 -1.44216e-18)
(0.320288 -0.243022 -4.58777e-19)
(0.408909 -0.237333 -4.83702e-20)
(0.486184 -0.2238 -7.5473e-19)
(0.55289 -0.207442 1.40626e-18)
(0.610384 -0.190868 -4.94202e-20)
(0.660066 -0.175232 8.03003e-19)
(0.702562 -0.161149 -7.06066e-19)
(0.0529469 -0.123826 1.22671e-19)
(0.150114 -0.257626 -5.67935e-19)
(0.258722 -0.315974 1.74754e-18)
(0.358945 -0.331692 2.47294e-19)
(0.445941 -0.324635 1.21575e-18)
(0.520504 -0.306609 -1.18856e-18)
(0.584154 -0.284488 1.24775e-18)
(0.638655 -0.261882 -8.99592e-19)
(0.685522 -0.240441 -3.95057e-19)
(0.724903 -0.221195 3.35606e-19)
(0.0729448 -0.15167 1.09539e-18)
(0.190664 -0.317377 2.80499e-21)
(0.306988 -0.391111 -1.84174e-18)
(0.408535 -0.412151 -5.34346e-19)
(0.493703 -0.404588 1.77425e-18)
(0.56499 -0.382953 -1.03982e-18)
(0.624864 -0.35582 -1.20377e-18)
(0.675617 -0.327751 1.08309e-18)
(0.718933 -0.30091 -7.37362e-19)
(0.754394 -0.276897 -1.5897e-19)
(0.0960487 -0.174334 -1.63514e-19)
(0.238033 -0.367474 -7.75534e-21)
(0.363854 -0.455615 1.99873e-18)
(0.467419 -0.482513 1.14605e-18)
(0.550831 -0.4755 -1.35147e-18)
(0.618566 -0.451352 1.63634e-18)
(0.674213 -0.420138 -1.77561e-18)
(0.720699 -0.387299 1.76697e-19)
(0.759931 -0.355514 5.28865e-19)
(0.790869 -0.327124 1.22374e-18)
(0.121118 -0.191156 1.87433e-19)
(0.290163 -0.40655 3.01835e-19)
(0.427119 -0.507894 3.28326e-19)
(0.533587 -0.541229 -1.05555e-18)
(0.615632 -0.535982 -1.88024e-18)
(0.679887 -0.510615 3.95953e-19)
(0.731204 -0.476429 1.14582e-18)
(0.773236 -0.439623 -3.27986e-19)
(0.808165 -0.403351 1.97464e-18)
(0.834247 -0.370865 -1.92473e-18)
(0.146894 -0.201721 -1.06103e-18)
(0.344727 -0.433649 4.07709e-19)
(0.494241 -0.546774 -1.10089e-18)
(0.604666 -0.587133 1.77975e-18)
(0.686058 -0.585016 8.89949e-19)
(0.747292 -0.559929 1.25651e-18)
(0.794584 -0.52408 -2.90781e-19)
(0.832423 -0.484256 1.1457e-18)
(0.863342 -0.443962 -2.42566e-18)
(0.884648 -0.407477 -6.32387e-19)
(0.17205 -0.205874 6.24643e-20)
(0.399204 -0.448254 -7.1281e-19)
(0.562391 -0.571529 -1.14134e-18)
(0.677928 -0.619481 -4.83585e-19)
(0.759661 -0.622009 -1.36653e-18)
(0.818699 -0.598991 -1.38988e-19)
(0.862692 -0.563188 1.18831e-19)
(0.897113 -0.521741 -5.33992e-19)
(0.925117 -0.478159 -5.96774e-19)
(0.942606 -0.437392 1.57384e-18)
(0.195249 -0.203726 3.35399e-19)
(0.450967 -0.450296 4.68382e-19)
(0.628514 -0.581864 8.39102e-19)
(0.750268 -0.637905 3.72166e-20)
(0.833389 -0.646759 5.59864e-19)
(0.891057 -0.628052 -7.66646e-19)
(0.932311 -0.594737 2.34065e-18)
(0.963571 -0.55388 -1.03344e-18)
(0.989457 -0.507899 -5.07546e-19)
(1.00632 -0.461006 -1.53046e-18)
(0.215231 -0.195654 -1.32105e-19)
(0.49743 -0.44013 2.33366e-19)
(0.689468 -0.577805 -2.39145e-19)
(0.818263 -0.64211 1.28933e-19)
(0.903422 -0.658818 -1.52363e-19)
(0.959696 -0.646834 -3.90769e-19)
(0.997278 -0.619363 5.14034e-19)
(1.02317 -0.584702 -1.68147e-19)
(1.04271 -0.548005 2.60849e-19)
(1.05903 -0.515027 -5.69209e-19)
(0.230935 -0.18231 -7.37947e-21)
(0.536326 -0.418562 -1.06493e-19)
(0.742532 -0.559669 2.12177e-20)
(0.879239 -0.631621 1.44544e-19)
(0.967554 -0.656554 -6.53423e-20)
(1.02334 -0.651785 1.75462e-20)
(1.05788 -0.629967 -1.71862e-20)
(1.07891 -0.599657 -3.83317e-19)
(1.09214 -0.566623 -1.77945e-19)
(1.10255 -0.534701 -5.59924e-19)
(0.241593 -0.164636 -9.61394e-20)
(0.565833 -0.386974 3.39275e-19)
(0.785449 -0.528508 -2.1079e-19)
(0.931026 -0.60695 -7.59979e-20)
(1.02419 -0.640034 3.39741e-20)
(1.08145 -0.642882 7.1473e-20)
(1.11501 -0.627183 -7.01026e-21)
(1.1335 -0.601457 2.92384e-19)
(1.14303 -0.571983 -2.52666e-19)
(1.1492 -0.541878 -3.57716e-21)
(0.246759 -0.143785 -2.36718e-19)
(0.584618 -0.347278 -1.48252e-19)
(0.81634 -0.486098 -3.68128e-19)
(0.971582 -0.569494 4.1876e-19)
(1.07145 -0.610386 -3.07044e-20)
(1.13248 -0.62129 1.36128e-19)
(1.16741 -0.612602 1.53642e-19)
(1.18559 -0.592495 -5.58879e-20)
(1.19356 -0.567431 5.04422e-20)
(1.19711 -0.540021 -1.59764e-19)
(0.246312 -0.121013 -1.61024e-19)
(0.591873 -0.301725 -2.06841e-19)
(0.833755 -0.434708 3.11672e-19)
(0.999031 -0.521159 -4.68287e-19)
(1.10725 -0.569097 8.22625e-20)
(1.17428 -0.588156 4.15787e-20)
(1.21287 -0.587119 9.19893e-20)
(1.23273 -0.573484 -6.04726e-20)
(1.24077 -0.553598 -7.24264e-20)
(1.24291 -0.529719 -2.35982e-19)
(0.240436 -0.0975685 6.71324e-19)
(0.587356 -0.252731 -5.25389e-19)
(0.836774 -0.376931 2.45465e-20)
(1.01185 -0.464234 -6.7323e-19)
(1.12967 -0.51799 -1.95439e-19)
(1.20469 -0.544843 1.56355e-19)
(1.24914 -0.551725 1.14554e-19)
(1.27272 -0.545171 -3.82099e-19)
(1.28252 -0.531183 1.67716e-19)
(1.28453 -0.511754 -3.02475e-19)
(0.229587 -0.0746122 3.33159e-19)
(0.571394 -0.202718 -3.29729e-19)
(0.825093 -0.315541 1.18321e-18)
(1.00902 -0.401307 9.43518e-20)
(1.13708 -0.459222 2.68334e-19)
(1.22173 -0.493027 9.5721e-19)
(1.27409 -0.507671 -1.9897e-19)
(1.30345 -0.508498 4.83242e-20)
(1.31688 -0.500956 -2.84341e-20)
(1.32028 -0.486798 -4.95328e-20)
(0.214445 -0.0531505 2.56813e-19)
(0.544851 -0.15397 5.83549e-19)
(0.799064 -0.253335 -5.948e-19)
(0.990135 -0.335148 -1.8067e-19)
(1.12837 -0.395217 -1.91279e-19)
(1.22372 -0.434653 3.76562e-19)
(1.28574 -0.456424 -1.77692e-19)
(1.32289 -0.464538 4.18961e-19)
(1.34192 -0.463703 1.00815e-19)
(1.34842 -0.455419 -1.77302e-19)
(0.195857 -0.0339917 -2.7741e-19)
(0.509071 -0.10851 2.57431e-19)
(0.75969 -0.192986 -5.2851e-19)
(0.955469 -0.268575 2.21274e-19)
(1.10299 -0.328579 -2.21771e-19)
(1.20944 -0.371907 -2.63708e-19)
(1.2824 -0.399693 -2.04613e-19)
(1.3291 -0.414556 2.25752e-19)
(1.35567 -0.420329 -3.92385e-19)
(1.36715 -0.418231 2.48404e-19)
(0.174775 -0.017719 -1.03928e-19)
(0.465774 -0.0680015 -2.03942e-19)
(0.708579 -0.1369 9.59386e-20)
(0.906008 -0.204326 7.08316e-21)
(1.0611 -0.262007 7.6356e-20)
(1.17821 -0.307192 1.09401e-19)
(1.26274 -0.33945 9.31541e-20)
(1.32037 -0.360076 -1.26036e-19)
(1.35627 -0.371951 1.02742e-19)
(1.37465 -0.375985 -1.62296e-19)
(0.152192 -0.00468203 -6.54877e-20)
(0.416946 -0.0336823 -2.6396e-20)
(0.647854 -0.0871017 9.83529e-20)
(0.843433 -0.144924 -4.4371e-20)
(1.0036 -0.198185 1.24175e-19)
(1.13007 -0.243068 -1.56958e-19)
(1.22601 -0.277937 4.03231e-20)
(1.29535 -0.302934 3.46047e-20)
(1.34201 -0.319979 -1.23625e-20)
(1.36911 -0.329675 5.67381e-20)
(0.129071 0.0049946 -7.85631e-20)
(0.364702 -0.00632839 -3.33072e-19)
(0.580016 -0.0451369 -2.68253e-20)
(0.77004 -0.0925427 1.07072e-20)
(0.93216 -0.139655 -4.62007e-19)
(1.06584 -0.182157 4.87875e-20)
(1.17214 -0.217627 -5.16895e-20)
(1.25319 -0.2453 -1.40592e-19)
(1.3115 -0.266203 3.11086e-19)
(1.34885 -0.280636 -5.65962e-19)
(0.106294 0.0113862 -4.45397e-20)
(0.311142 0.0137429 7.14387e-19)
(0.507781 -0.0120118 9.52827e-20)
(0.688609 -0.0488892 -6.45333e-19)
(0.84916 -0.0886656 -7.72742e-20)
(0.987145 -0.127018 -7.27732e-19)
(1.10185 -0.161147 5.6586e-19)
(1.19374 -0.189674 -2.29668e-19)
(1.26384 -0.212845 4.35319e-19)
(1.3125 -0.230665 -3.84039e-19)
(0.0846114 0.0147326 -2.51904e-19)
(0.258229 0.0266434 2.93307e-19)
(0.433901 0.0118357 -2.04876e-19)
(0.602225 -0.0151005 1.41617e-18)
(0.757551 -0.0470187 7.49624e-19)
(0.896414 -0.0799688 -1.96294e-19)
(1.01678 -0.11113 7.63274e-19)
(1.11772 -0.138797 -4.99057e-19)
(1.19888 -0.162563 -1.60491e-19)
(1.25919 -0.182096 1.15956e-18)
(0.0646188 0.0153977 -4.65681e-19)
(0.207683 0.0328634 6.9529e-19)
(0.360983 0.0265376 -1.31857e-18)
(0.514055 0.00833893 2.2824e-19)
(0.660655 -0.0159061 5.69071e-19)
(0.796703 -0.0428749 -7.15127e-19)
(0.919362 -0.0699932 -1.26658e-18)
(1.02674 -0.0954705 6.78992e-19)
(1.11735 -0.118341 -8.83044e-19)
(1.18885 -0.137791 1.41315e-18)
(0.0467455 0.0138317 -1.15119e-19)
(0.160911 0.0332171 -6.9983e-19)
(0.29134 0.0327805 3.45465e-19)
(0.427116 0.0216652 8.64186e-19)
(0.561885 0.00426239 -4.64199e-19)
(0.691443 -0.0168795 -4.58096e-19)
(0.812665 -0.0396118 -7.76683e-19)
(0.923202 -0.0622289 -3.55894e-19)
(1.02086 -0.0832279 -8.54708e-20)
(1.10226 -0.10099 1.41227e-18)
(0.0312705 0.0105459 1.9329e-19)
(0.118977 0.0287941 -9.50688e-19)
(0.22687 0.0317848 1.62611e-18)
(0.344065 0.025892 -9.05475e-19)
(0.464448 0.0140402 5.86658e-19)
(0.584063 -0.00207519 -7.29979e-19)
(0.69997 -0.020853 8.13021e-19)
(0.809932 -0.0407952 7.1006e-19)
(0.911579 -0.0598075 1.55139e-18)
(1.00091 -0.0748765 -2.56481e-18)
(0.0183522 0.00610206 -6.00601e-19)
(0.0826133 0.0209189 1.20602e-18)
(0.169008 0.0252642 1.60948e-20)
(0.267056 0.0228317 -4.34395e-19)
(0.37109 0.0151016 -2.30683e-19)
(0.477617 0.00286681 1.84375e-19)
(0.584241 -0.0129419 -1.30897e-18)
(0.689408 -0.0312124 1.01131e-18)
(0.791336 -0.0492624 -1.30339e-18)
(0.886043 -0.0617474 -5.9494e-19)
(0.00806038 0.00110804 1.03352e-18)
(0.0522607 0.0110934 -3.22409e-19)
(0.118757 0.0153299 -6.04794e-19)
(0.19775 0.0150194 1.6426e-18)
(0.28405 0.0102802 -1.61355e-18)
(0.374605 0.000972975 9.01508e-19)
(0.467608 -0.0128139 9.60148e-19)
(0.562491 -0.0307686 2.62738e-19)
(0.658905 -0.0501752 2.73263e-19)
(0.754561 -0.0623382 -3.87641e-19)
(0.000388805 -0.00380845 -9.88426e-19)
(0.0281184 0.000874655 9.39486e-19)
(0.0768103 0.00427324 -8.3141e-19)
(0.137564 0.00546199 1.04312e-18)
(0.205555 0.0034432 -3.11647e-19)
(0.277822 -0.00270683 -1.08235e-18)
(0.352531 -0.0137246 3.10389e-19)
(0.429277 -0.0305516 -5.12114e-19)
(0.509039 -0.0524515 -6.06555e-19)
(0.594174 -0.0694516 -1.89229e-18)
(-0.00477039 -0.00808574 -1.23473e-18)
(0.0101472 -0.00838437 9.81634e-19)
(0.0436443 -0.00593759 -1.92332e-18)
(0.0879972 -0.00320867 3.43923e-19)
(0.138751 -0.00175626 -1.33245e-18)
(0.192806 -0.00254205 -7.99139e-19)
(0.247589 -0.00588833 1.91243e-18)
(0.301163 -0.0120139 -2.61457e-18)
(0.352885 -0.0215135 5.03251e-19)
(0.400033 -0.0302457 -8.28715e-19)
(-0.00768221 -0.0113475 6.0821e-19)
(-0.00204444 -0.015839 2.57342e-19)
(0.0192559 -0.0143223 -7.65436e-20)
(0.0500655 -0.0102998 7.30881e-19)
(0.0867033 -0.00565884 2.14618e-18)
(0.126596 -0.00135939 7.40739e-19)
(0.167735 0.00240808 7.65388e-19)
(0.208923 0.00569356 -2.64653e-19)
(0.250236 0.0078402 -2.46865e-18)
(0.289118 0.00926436 6.26076e-19)
(-0.00878375 -0.0134242 -1.71704e-19)
(-0.00932793 -0.021086 5.46501e-19)
(0.00264645 -0.0205022 -1.43164e-19)
(0.0227363 -0.0158173 1.01085e-18)
(0.0481744 -0.00920528 -2.33717e-18)
(0.0770155 -0.00182572 1.9838e-19)
(0.107831 0.0057948 -1.11232e-18)
(0.139845 0.0132495 1.63675e-18)
(0.172879 0.0195743 -4.7841e-19)
(0.204276 0.0240814 -6.83623e-20)
(-0.00858785 -0.0143041 -1.1689e-19)
(-0.0128317 -0.0240057 -6.57231e-19)
(-0.00771314 -0.0243087 1.65289e-18)
(0.00407975 -0.0196268 -8.71492e-19)
(0.0206603 -0.0123266 6.12511e-20)
(0.0406187 -0.00378425 2.79676e-19)
(0.0629155 0.00513281 -2.55592e-19)
(0.0869309 0.013633 3.32177e-19)
(0.112251 0.0206157 1.15104e-18)
(0.136676 0.0252843 3.01203e-19)
(-0.00758381 -0.0140744 -2.62177e-19)
(-0.0136958 -0.024665 -2.91614e-19)
(-0.0134291 -0.0257006 -1.29438e-18)
(-0.00792049 -0.0215114 6.89213e-19)
(0.00173603 -0.0144918 -1.42157e-18)
(0.0145793 -0.00611504 3.22951e-19)
(0.0298504 0.00259034 3.63136e-19)
(0.04701 0.0107151 -3.83761e-19)
(0.0655411 0.0172499 -2.48286e-19)
(0.0838012 0.0214717 -1.11586e-18)
(-0.00618711 -0.0128749 2.04809e-19)
(-0.01294 -0.0232574 -4.81753e-20)
(-0.0159823 -0.0247664 9.78582e-22)
(-0.0151343 -0.0213426 -6.2203e-19)
(-0.0108144 -0.0152248 1.57464e-18)
(-0.00361552 -0.00783488 -2.45606e-19)
(0.00591873 -0.00019561 -6.12919e-19)
(0.0173146 0.00683956 7.50185e-19)
(0.0300366 0.0124533 -2.63628e-19)
(0.0429249 0.016048 1.45717e-18)
(-0.00472408 -0.0108681 -3.84415e-20)
(-0.0114035 -0.0200603 -2.2538e-19)
(-0.0166179 -0.0217189 -8.89513e-20)
(-0.0191363 -0.0191489 -1.13639e-19)
(-0.0188321 -0.0142671 -2.44321e-19)
(-0.0160035 -0.008311 -7.67257e-19)
(-0.0110226 -0.00217541 9.59743e-19)
(-0.00429612 0.00343062 5.60637e-19)
(0.00366345 0.00789735 -1.00432e-19)
(0.0120641 0.0107656 -8.93792e-19)
(-0.00343579 -0.00822492 2.18297e-19)
(-0.00972819 -0.0154095 3.81474e-20)
(-0.0163017 -0.0168859 2.58214e-19)
(-0.0211439 -0.0151399 -2.95537e-20)
(-0.0237178 -0.0116328 2.35122e-19)
(-0.0240984 -0.00731623 2.65273e-19)
(-0.0225239 -0.00287606 3.97697e-19)
(-0.0193385 0.0011649 -1.12661e-18)
(-0.01502 0.0043899 -2.07936e-19)
(-0.0101025 0.00647533 3.72665e-19)
(-0.00248973 -0.0051213 -1.10228e-19)
(-0.00837079 -0.00968537 -1.56668e-19)
(-0.0157254 -0.0106972 -7.53672e-20)
(-0.0220254 -0.00969698 3.6863e-19)
(-0.0264598 -0.00759764 1.78934e-19)
(-0.0289521 -0.00499603 3.66954e-20)
(-0.0296479 -0.00232049 -7.95585e-20)
(-0.0288427 0.000110683 -6.17154e-20)
(-0.0269848 0.00205578 5.2974e-19)
(-0.0244467 0.00332235 -3.60793e-19)
(-0.00199126 -0.00173828 5.61929e-20)
(-0.00762171 -0.00330236 6.99199e-20)
(-0.0153304 -0.00366153 -5.96201e-20)
(-0.0223328 -0.00333712 -5.45318e-20)
(-0.0276809 -0.00263941 -5.65412e-20)
(-0.0312219 -0.0017715 -9.02203e-20)
(-0.0330532 -0.000878797 2.89783e-21)
(-0.033444 -6.79825e-05 1.2518e-19)
(-0.0328265 0.000581817 -1.2569e-19)
(-0.0314953 0.00100672 2.28683e-19)
(-0.00813314 -0.00258506 1.65351e-20)
(0.0621557 -0.00662809 9.88798e-21)
(0.277528 -0.00671661 1.33813e-21)
(0.376998 -0.00439196 -9.02612e-22)
(0.479662 -0.0036777 -6.35689e-23)
(0.553593 -0.00263153 1.4816e-22)
(0.60606 -0.00217347 1.66695e-22)
(0.660401 -0.00157727 -3.41631e-23)
(0.68362 -0.00147452 -2.47165e-24)
(0.733894 -0.00101816 2.43726e-22)
(0.0086671 -0.00806138 2.62218e-20)
(0.0774096 -0.0197194 1.25311e-21)
(0.289019 -0.019983 -1.74842e-20)
(0.385753 -0.0130679 1.40487e-20)
(0.48637 -0.0109645 8.87579e-22)
(0.558828 -0.00785685 -5.95064e-22)
(0.610332 -0.00650255 6.90125e-22)
(0.663761 -0.00471129 7.02737e-23)
(0.686553 -0.00437906 1.41844e-22)
(0.736116 -0.00302592 -2.23362e-22)
(0.0419728 -0.014418 2.68583e-20)
(0.107443 -0.0323297 -3.61042e-20)
(0.311574 -0.0327904 1.78727e-20)
(0.402953 -0.0214431 -1.16384e-20)
(0.499552 -0.018024 8.28774e-22)
(0.56913 -0.0129307 -6.4593e-22)
(0.618749 -0.0107166 -2.57345e-22)
(0.670394 -0.0077656 1.15549e-24)
(0.69235 -0.00721769 -1.08581e-22)
(0.74052 -0.00499408 -3.26106e-22)
(0.0911822 -0.022133 -4.1629e-20)
(0.151334 -0.0441598 -5.01144e-20)
(0.344362 -0.0448536 -2.31252e-20)
(0.42799 -0.0293339 1.21311e-20)
(0.518758 -0.0247166 -1.4544e-20)
(0.584176 -0.0177596 3.84871e-21)
(0.631069 -0.0147442 -2.09319e-22)
(0.680127 -0.0106904 1.2204e-22)
(0.700879 -0.00994883 -1.30495e-22)
(0.747024 -0.00689728 1.21021e-22)
(0.155364 -0.0314794 1.15134e-19)
(0.207755 -0.0549221 7.22409e-20)
(0.386195 -0.0559092 2.59837e-20)
(0.459998 -0.0365782 -2.35743e-20)
(0.543342 -0.0309181 1.19381e-20)
(0.603501 -0.0222609 3.16356e-21)
(0.64694 -0.018521 2.21374e-21)
(0.692717 -0.0134407 2.41299e-22)
(0.711949 -0.0125342 2.90581e-22)
(0.755508 -0.00871175 -6.42203e-22)
(0.233236 -0.0423843 -5.08287e-20)
(0.275032 -0.0643015 3.90022e-20)
(0.435594 -0.0657037 4.82012e-21)
(0.497895 -0.0430326 2.62919e-20)
(0.5725 -0.0365218 -5.94886e-21)
(0.626523 -0.026364 -3.68785e-21)
(0.665923 -0.0219916 -2.28683e-21)
(0.70785 -0.0159777 -1.49952e-22)
(0.725315 -0.01494 -1.572e-22)
(0.76582 -0.0104159 6.88803e-22)
(0.323171 -0.0545677 -3.868e-20)
(0.351193 -0.0720335 -1.00785e-19)
(0.490859 -0.0740343 -1.70512e-20)
(0.540445 -0.0485814 -1.46423e-20)
(0.605319 -0.0414451 6.97559e-21)
(0.652577 -0.0300134 -1.94337e-21)
(0.687512 -0.0251121 2.45884e-21)
(0.725165 -0.0182697 4.52189e-22)
(0.740692 -0.017138 -4.71259e-23)
(0.777777 -0.01199 2.65239e-22)