/*--------------------------------*- C++ -*----------------------------------*\
  =========                 |
  \\      /  F ield         | OpenFOAM: The Open Source CFD Toolbox
   \\    /   O peration     | Website:  https://openfoam.org
    \\  /    A nd           | Version:  6.0
     \\/     M anipulation  |
\*---------------------------------------------------------------------------*/
FoamFile
{
    version     2.0;
    format      ascii;
    class       volScalarField;
    location    "1.6";
    object      p;
}
// * * * * * * * * * * * * * * * * * * * * * * * * * * * * * * * * * * * * * //

dimensions      [0 2 -2 0 0 0 0];

internalField   nonuniform List<scalar> 
34500
(
1.00595
1.00597
1.00581
1.00549
1.00504
1.0045
1.00388
1.00325
1.00263
1.00205
1.00152
1.00107
1.00068
1.00041
1.00024
1.00596
1.006
1.0059
1.00566
1.00529
1.00483
1.00428
1.00368
1.00306
1.00246
1.00188
1.00136
1.00089
1.00055
1.00029
1.00596
1.00599
1.00587
1.0056
1.0052
1.00471
1.00413
1.00352
1.00289
1.00229
1.00172
1.00122
1.00078
1.00047
1.00023
1.00596
1.00599
1.00584
1.00555
1.00512
1.0046
1.00401
1.00339
1.00276
1.00216
1.00161
1.00113
1.00071
1.00043
1.0002
1.00597
1.00599
1.00585
1.00556
1.00514
1.00462
1.00403
1.00341
1.00278
1.00219
1.00163
1.00114
1.00071
1.00043
1.0002
1.00598
1.00601
1.00587
1.00558
1.00516
1.00466
1.00407
1.00345
1.00282
1.00222
1.00165
1.00116
1.00072
1.00042
1.00019
1.00599
1.00602
1.00588
1.00559
1.00518
1.00467
1.00408
1.00346
1.00283
1.00222
1.00165
1.00114
1.0007
1.00041
1.00017
1.006
1.00603
1.00589
1.0056
1.00518
1.00467
1.00408
1.00345
1.00282
1.00221
1.00164
1.00113
1.00069
1.00039
1.00016
1.00601
1.00604
1.00591
1.00562
1.0052
1.00468
1.00409
1.00346
1.00283
1.00221
1.00164
1.00113
1.00069
1.00038
1.00014
1.00602
1.00605
1.00592
1.00564
1.00522
1.00471
1.00412
1.00349
1.00285
1.00223
1.00165
1.00114
1.00069
1.00037
1.00013
1.00604
1.00607
1.00594
1.00566
1.00525
1.00474
1.00415
1.00352
1.00287
1.00225
1.00167
1.00115
1.00069
1.00036
1.0001
1.00605
1.00609
1.00596
1.00569
1.00528
1.00477
1.00417
1.00354
1.0029
1.00227
1.00168
1.00115
1.00068
1.00034
1.00008
1.00607
1.0061
1.00598
1.00571
1.0053
1.00479
1.0042
1.00356
1.00291
1.00228
1.00168
1.00114
1.00067
1.00032
1.00005
1.00609
1.00612
1.006
1.00573
1.00532
1.00481
1.00422
1.00358
1.00292
1.00228
1.00168
1.00113
1.00065
1.0003
1.00002
1.00611
1.00614
1.00602
1.00575
1.00533
1.00482
1.00423
1.00359
1.00293
1.00228
1.00167
1.00112
1.00064
1.00027
0.999989
1.00613
1.00616
1.00604
1.00576
1.00535
1.00484
1.00424
1.00359
1.00293
1.00228
1.00166
1.00111
1.00062
1.00024
0.999958
1.00615
1.00619
1.00606
1.00578
1.00537
1.00485
1.00425
1.0036
1.00293
1.00228
1.00166
1.00109
1.0006
1.00022
0.999929
1.00618
1.00621
1.00609
1.00581
1.00539
1.00487
1.00427
1.00361
1.00294
1.00228
1.00165
1.00109
1.00059
1.0002
0.999898
1.0062
1.00624
1.00611
1.00583
1.00542
1.00489
1.00429
1.00363
1.00295
1.00229
1.00165
1.00108
1.00058
1.00018
0.999866
1.00623
1.00626
1.00614
1.00586
1.00544
1.00492
1.00431
1.00365
1.00297
1.00229
1.00165
1.00107
1.00056
1.00015
0.999832
1.00625
1.00629
1.00617
1.00589
1.00547
1.00495
1.00433
1.00367
1.00298
1.0023
1.00166
1.00107
1.00054
1.00012
0.999797
1.00628
1.00632
1.0062
1.00592
1.0055
1.00498
1.00436
1.00369
1.003
1.00231
1.00165
1.00106
1.00053
1.00009
0.99976
1.00631
1.00635
1.00623
1.00595
1.00553
1.005
1.00439
1.00371
1.00301
1.00232
1.00165
1.00104
1.0005
1.00006
0.999722
1.00634
1.00638
1.00626
1.00598
1.00556
1.00503
1.00441
1.00373
1.00302
1.00232
1.00164
1.00103
1.00048
1.00003
0.999683
1.00638
1.00642
1.00629
1.00601
1.00559
1.00506
1.00443
1.00374
1.00303
1.00232
1.00164
1.00101
1.00046
1
0.999644
1.00641
1.00645
1.00633
1.00605
1.00562
1.00508
1.00445
1.00376
1.00304
1.00232
1.00163
1.00099
1.00043
0.999967
0.999604
1.00645
1.00649
1.00636
1.00608
1.00565
1.00511
1.00447
1.00377
1.00304
1.00232
1.00162
1.00098
1.00041
0.999935
0.999564
1.00648
1.00652
1.0064
1.00611
1.00568
1.00513
1.00449
1.00379
1.00305
1.00232
1.00161
1.00096
1.00038
0.999901
0.999522
1.00652
1.00656
1.00644
1.00615
1.00572
1.00516
1.00452
1.00381
1.00306
1.00232
1.00161
1.00095
1.00036
0.999867
0.99948
1.00656
1.0066
1.00648
1.00619
1.00575
1.0052
1.00454
1.00383
1.00307
1.00232
1.0016
1.00093
1.00033
0.999831
0.999436
1.0066
1.00664
1.00652
1.00623
1.00579
1.00523
1.00457
1.00385
1.00309
1.00233
1.00159
1.00091
1.00031
0.999795
0.999391
1.00665
1.00669
1.00656
1.00627
1.00583
1.00526
1.0046
1.00387
1.0031
1.00233
1.00158
1.00089
1.00028
0.999756
0.999344
1.00669
1.00673
1.0066
1.00631
1.00586
1.0053
1.00463
1.00389
1.00311
1.00233
1.00157
1.00087
1.00025
0.999717
0.999298
1.00674
1.00678
1.00665
1.00636
1.0059
1.00533
1.00465
1.00391
1.00312
1.00233
1.00156
1.00085
1.00022
0.999677
0.999249
1.00678
1.00683
1.0067
1.0064
1.00594
1.00537
1.00468
1.00392
1.00313
1.00233
1.00155
1.00083
1.00019
0.999636
0.999201
1.00683
1.00687
1.00674
1.00645
1.00599
1.0054
1.00471
1.00394
1.00314
1.00233
1.00154
1.00081
1.00015
0.999594
0.999151
1.00688
1.00693
1.00679
1.00649
1.00603
1.00544
1.00474
1.00397
1.00315
1.00233
1.00153
1.00078
1.00012
0.999552
0.9991
1.00694
1.00698
1.00685
1.00654
1.00607
1.00548
1.00477
1.00399
1.00316
1.00233
1.00152
1.00076
1.00009
0.999507
0.999047
1.00699
1.00703
1.0069
1.00659
1.00612
1.00552
1.0048
1.00401
1.00317
1.00233
1.00151
1.00074
1.00005
0.999462
0.998994
1.00704
1.00709
1.00695
1.00664
1.00617
1.00556
1.00483
1.00403
1.00318
1.00233
1.00149
1.00071
1.00001
0.999416
0.998938
1.0071
1.00714
1.00701
1.0067
1.00621
1.0056
1.00487
1.00406
1.0032
1.00233
1.00148
1.00069
0.999977
0.999368
0.998882
1.00716
1.0072
1.00707
1.00675
1.00626
1.00564
1.0049
1.00408
1.00321
1.00232
1.00147
1.00066
0.999938
0.999319
0.998824
1.00722
1.00726
1.00712
1.00681
1.00631
1.00568
1.00494
1.0041
1.00322
1.00232
1.00145
1.00063
0.999899
0.999269
0.998766
1.00728
1.00732
1.00718
1.00686
1.00637
1.00573
1.00497
1.00412
1.00323
1.00232
1.00143
1.0006
0.999857
0.999217
0.998706
1.00734
1.00739
1.00725
1.00692
1.00642
1.00577
1.005
1.00415
1.00324
1.00232
1.00142
1.00057
0.999816
0.999165
0.998645
1.0074
1.00745
1.00731
1.00698
1.00647
1.00582
1.00504
1.00417
1.00325
1.00232
1.0014
1.00054
0.999773
0.999111
0.998582
1.00747
1.00752
1.00737
1.00704
1.00653
1.00587
1.00508
1.0042
1.00326
1.00231
1.00139
1.00051
0.999729
0.999056
0.998518
1.00754
1.00759
1.00744
1.0071
1.00658
1.00591
1.00512
1.00422
1.00328
1.00231
1.00137
1.00048
0.999684
0.999
0.998452
1.00761
1.00766
1.00751
1.00717
1.00664
1.00596
1.00515
1.00425
1.00329
1.00231
1.00135
1.00045
0.999638
0.998942
0.998385
1.00768
1.00773
1.00758
1.00723
1.0067
1.00601
1.00519
1.00428
1.0033
1.0023
1.00133
1.00041
0.99959
0.998882
0.998315
1.00775
1.0078
1.00765
1.0073
1.00676
1.00607
1.00523
1.0043
1.00331
1.0023
1.00131
1.00038
0.999542
0.998822
0.998245
1.00783
1.00788
1.00772
1.00737
1.00682
1.00612
1.00528
1.00433
1.00332
1.0023
1.00129
1.00034
0.999491
0.998759
0.998173
1.0079
1.00795
1.0078
1.00744
1.00689
1.00617
1.00532
1.00436
1.00334
1.00229
1.00127
1.00031
0.99944
0.998696
0.998099
1.00798
1.00803
1.00787
1.00751
1.00695
1.00623
1.00536
1.00439
1.00335
1.00229
1.00125
1.00027
0.999387
0.99863
0.998024
1.00806
1.00811
1.00795
1.00759
1.00702
1.00628
1.0054
1.00441
1.00336
1.00228
1.00123
1.00023
0.999333
0.998564
0.997947
1.00814
1.00819
1.00803
1.00766
1.00708
1.00634
1.00545
1.00444
1.00337
1.00228
1.0012
1.00019
0.999278
0.998495
0.997868
1.00823
1.00828
1.00811
1.00774
1.00715
1.0064
1.00549
1.00447
1.00339
1.00227
1.00118
1.00015
0.999222
0.998426
0.997788
1.00831
1.00836
1.0082
1.00782
1.00722
1.00646
1.00554
1.0045
1.0034
1.00227
1.00116
1.00011
0.999164
0.998354
0.997706
1.0084
1.00845
1.00828
1.0079
1.0073
1.00652
1.00559
1.00454
1.00341
1.00226
1.00113
1.00007
0.999105
0.998282
0.997622
1.00849
1.00854
1.00837
1.00798
1.00737
1.00658
1.00563
1.00457
1.00343
1.00226
1.00111
1.00002
0.999044
0.998206
0.997535
1.00858
1.00863
1.00846
1.00806
1.00745
1.00665
1.00568
1.0046
1.00344
1.00225
1.00108
0.999978
0.998982
0.99813
0.997447
1.00867
1.00873
1.00855
1.00815
1.00752
1.00671
1.00574
1.00463
1.00345
1.00224
1.00106
0.999931
0.998918
0.998051
0.997357
1.00877
1.00882
1.00864
1.00824
1.0076
1.00678
1.00579
1.00467
1.00347
1.00224
1.00103
0.999885
0.998853
0.997971
0.997265
1.00886
1.00892
1.00874
1.00833
1.00768
1.00685
1.00584
1.0047
1.00348
1.00223
1.001
0.999836
0.998786
0.997889
0.99717
1.00896
1.00902
1.00884
1.00842
1.00777
1.00692
1.00589
1.00474
1.0035
1.00222
1.00097
0.999786
0.998718
0.997805
0.997074
1.00907
1.00912
1.00894
1.00851
1.00785
1.00699
1.00595
1.00477
1.00351
1.00222
1.00094
0.999735
0.998647
0.997719
0.996975
1.00917
1.00923
1.00904
1.00861
1.00794
1.00706
1.006
1.00481
1.00353
1.00221
1.00091
0.999683
0.998576
0.997631
0.996875
1.00927
1.00933
1.00914
1.00871
1.00802
1.00714
1.00606
1.00485
1.00354
1.0022
1.00088
0.999629
0.998502
0.997541
0.996771
1.00938
1.00944
1.00925
1.00881
1.00811
1.00721
1.00612
1.00488
1.00356
1.00219
1.00085
0.999575
0.998427
0.997449
0.996666
1.00949
1.00955
1.00936
1.00891
1.00821
1.00729
1.00618
1.00492
1.00357
1.00218
1.00081
0.999518
0.99835
0.997354
0.996558
1.00961
1.00967
1.00947
1.00901
1.0083
1.00737
1.00624
1.00496
1.00359
1.00217
1.00078
0.999461
0.998271
0.997258
0.996448
1.00972
1.00978
1.00958
1.00912
1.00839
1.00745
1.0063
1.005
1.0036
1.00216
1.00074
0.999401
0.99819
0.997159
0.996335
1.00984
1.0099
1.00969
1.00923
1.00849
1.00753
1.00636
1.00504
1.00362
1.00215
1.00071
0.999341
0.998108
0.997059
0.99622
1.00996
1.01002
1.00981
1.00934
1.00859
1.00761
1.00643
1.00508
1.00363
1.00214
1.00067
0.999279
0.998023
0.996955
0.996102
1.01008
1.01014
1.00993
1.00945
1.00869
1.0077
1.00649
1.00512
1.00365
1.00213
1.00063
0.999216
0.997937
0.99685
0.995981
1.0102
1.01027
1.01005
1.00957
1.0088
1.00779
1.00656
1.00517
1.00367
1.00212
1.00059
0.999151
0.997849
0.996742
0.995858
1.01033
1.0104
1.01018
1.00968
1.0089
1.00788
1.00663
1.00521
1.00368
1.00211
1.00055
0.999085
0.997759
0.996632
0.995732
1.01046
1.01053
1.01031
1.0098
1.00901
1.00797
1.0067
1.00526
1.0037
1.0021
1.00051
0.999017
0.997666
0.996518
0.995603
1.01059
1.01066
1.01044
1.00993
1.00912
1.00806
1.00677
1.0053
1.00372
1.00208
1.00047
0.998947
0.997571
0.996403
0.995472
1.01073
1.0108
1.01057
1.01005
1.00923
1.00816
1.00684
1.00535
1.00374
1.00207
1.00043
0.998875
0.997474
0.996285
0.995337
1.01086
1.01094
1.01071
1.01018
1.00935
1.00825
1.00692
1.00539
1.00375
1.00206
1.00039
0.998803
0.997375
0.996164
0.995199
1.011
1.01108
1.01084
1.01031
1.00946
1.00835
1.00699
1.00544
1.00377
1.00204
1.00034
0.998727
0.997273
0.99604
0.995058
1.01115
1.01122
1.01098
1.01044
1.00958
1.00845
1.00707
1.00549
1.00379
1.00203
1.00029
0.998651
0.99717
0.995914
0.994915
1.01129
1.01137
1.01113
1.01058
1.00971
1.00855
1.00715
1.00554
1.00381
1.00201
1.00025
0.998572
0.997063
0.995785
0.994767
1.01144
1.01152
1.01128
1.01072
1.00983
1.00866
1.00723
1.00559
1.00382
1.002
1.0002
0.998492
0.996955
0.995653
0.994617
1.01159
1.01167
1.01142
1.01086
1.00996
1.00877
1.00731
1.00564
1.00384
1.00198
1.00015
0.998409
0.996843
0.995518
0.994463
1.01175
1.01183
1.01158
1.011
1.01009
1.00887
1.00739
1.0057
1.00386
1.00197
1.00009
0.998325
0.99673
0.99538
0.994306
1.0119
1.01199
1.01173
1.01115
1.01022
1.00899
1.00748
1.00575
1.00388
1.00195
1.00004
0.998238
0.996613
0.995238
0.994145
1.01206
1.01215
1.01189
1.0113
1.01035
1.0091
1.00756
1.0058
1.0039
1.00193
0.999987
0.99815
0.996494
0.995094
0.993982
1.01223
1.01231
1.01205
1.01145
1.01049
1.00921
1.00765
1.00586
1.00392
1.00191
0.999931
0.998059
0.996372
0.994946
0.993813
1.01239
1.01248
1.01222
1.01161
1.01063
1.00933
1.00774
1.00591
1.00394
1.00189
0.999874
0.997966
0.996248
0.994795
0.993642
1.01256
1.01265
1.01239
1.01177
1.01077
1.00945
1.00783
1.00597
1.00396
1.00187
0.999815
0.997871
0.99612
0.994641
0.993467
1.01274
1.01283
1.01256
1.01193
1.01092
1.00958
1.00792
1.00603
1.00398
1.00185
0.999755
0.997773
0.99599
0.994483
0.993288
1.01291
1.01301
1.01273
1.0121
1.01107
1.0097
1.00802
1.00609
1.004
1.00183
0.999693
0.997673
0.995856
0.994321
0.993105
1.01309
1.01319
1.01291
1.01227
1.01122
1.00983
1.00812
1.00615
1.00402
1.00181
0.999629
0.997571
0.995719
0.994157
0.992918
1.01328
1.01338
1.0131
1.01244
1.01138
1.00996
1.00821
1.00621
1.00404
1.00179
0.999564
0.997466
0.995579
0.993988
0.992727
1.01346
1.01357
1.01328
1.01261
1.01153
1.01009
1.00831
1.00627
1.00406
1.00176
0.999497
0.997359
0.995437
0.993816
0.992532
1.01365
1.01376
1.01347
1.01279
1.0117
1.01023
1.00842
1.00633
1.00408
1.00174
0.999428
0.997249
0.99529
0.993639
0.992332
1.01385
1.01396
1.01366
1.01298
1.01186
1.01037
1.00852
1.0064
1.0041
1.00171
0.999358
0.997137
0.995141
0.993459
0.992128
1.01405
1.01416
1.01386
1.01316
1.01203
1.01051
1.00863
1.00646
1.00412
1.00168
0.999285
0.997021
0.994987
0.993275
0.991919
1.01425
1.01436
1.01406
1.01335
1.0122
1.01065
1.00874
1.00653
1.00414
1.00166
0.999211
0.996903
0.994831
0.993086
0.991707
1.01445
1.01457
1.01427
1.01355
1.01237
1.0108
1.00885
1.0066
1.00416
1.00163
0.999134
0.996782
0.994671
0.992894
0.991489
1.01466
1.01479
1.01448
1.01375
1.01255
1.01095
1.00896
1.00667
1.00418
1.0016
0.999056
0.996658
0.994507
0.992697
0.991267
1.01488
1.015
1.01469
1.01395
1.01273
1.0111
1.00907
1.00674
1.0042
1.00157
0.998975
0.996531
0.994339
0.992495
0.99104
1.01509
1.01523
1.01491
1.01416
1.01292
1.01126
1.00919
1.00681
1.00422
1.00154
0.998892
0.996401
0.994167
0.99229
0.990808
1.01531
1.01545
1.01513
1.01437
1.01311
1.01141
1.00931
1.00688
1.00424
1.0015
0.998806
0.996267
0.993991
0.992079
0.990571
1.01554
1.01568
1.01536
1.01458
1.0133
1.01158
1.00943
1.00695
1.00426
1.00147
0.998719
0.996131
0.993812
0.991865
0.990329
1.01577
1.01592
1.01559
1.0148
1.0135
1.01174
1.00955
1.00703
1.00428
1.00143
0.998629
0.995991
0.993628
0.991645
0.990081
1.01601
1.01616
1.01582
1.01502
1.0137
1.01191
1.00968
1.0071
1.0043
1.0014
0.998536
0.995847
0.99344
0.99142
0.989829
1.01624
1.0164
1.01606
1.01525
1.01391
1.01208
1.00981
1.00718
1.00432
1.00136
0.998441
0.9957
0.993247
0.99119
0.989571
1.01649
1.01665
1.01631
1.01549
1.01412
1.01226
1.00994
1.00726
1.00434
1.00132
0.998343
0.995549
0.99305
0.990956
0.989308
1.01674
1.0169
1.01656
1.01572
1.01433
1.01244
1.01007
1.00734
1.00436
1.00128
0.998242
0.995394
0.992848
0.990716
0.989038
1.01699
1.01716
1.01681
1.01597
1.01455
1.01262
1.01021
1.00742
1.00438
1.00123
0.998139
0.995236
0.992642
0.990471
0.988764
1.01725
1.01743
1.01707
1.01621
1.01477
1.0128
1.01035
1.0075
1.0044
1.00119
0.998032
0.995073
0.99243
0.99022
0.988482
1.01751
1.0177
1.01734
1.01647
1.015
1.01299
1.01049
1.00758
1.00441
1.00114
0.997923
0.994907
0.992215
0.989964
0.988196
1.01778
1.01797
1.01761
1.01672
1.01523
1.01319
1.01063
1.00766
1.00443
1.00109
0.99781
0.994736
0.991993
0.989702
0.987903
1.01806
1.01825
1.01789
1.01699
1.01547
1.01338
1.01077
1.00775
1.00445
1.00104
0.997695
0.994561
0.991767
0.989434
0.987604
1.01833
1.01854
1.01817
1.01725
1.01571
1.01359
1.01092
1.00783
1.00447
1.00099
0.997575
0.994381
0.991535
0.98916
0.987299
1.01862
1.01883
1.01846
1.01753
1.01595
1.01379
1.01107
1.00792
1.00448
1.00094
0.997453
0.994197
0.991298
0.988881
0.986987
1.01891
1.01912
1.01875
1.01781
1.0162
1.014
1.01123
1.00801
1.0045
1.00088
0.997326
0.994007
0.991055
0.988595
0.986668
1.0192
1.01943
1.01905
1.01809
1.01646
1.01421
1.01138
1.0081
1.00452
1.00082
0.997196
0.993814
0.990807
0.988303
0.986344
1.01951
1.01974
1.01936
1.01838
1.01672
1.01443
1.01154
1.00819
1.00453
1.00076
0.997062
0.993614
0.990552
0.988004
0.986012
1.01981
1.02005
1.01967
1.01868
1.01699
1.01465
1.0117
1.00828
1.00454
1.00069
0.996925
0.993411
0.990292
0.987699
0.985673
1.02013
1.02037
1.01999
1.01899
1.01726
1.01488
1.01187
1.00837
1.00456
1.00063
0.996782
0.993201
0.990026
0.987387
0.985327
1.02045
1.0207
1.02031
1.01929
1.01754
1.01511
1.01204
1.00846
1.00457
1.00056
0.996636
0.992986
0.989753
0.987069
0.984974
1.02077
1.02104
1.02064
1.01961
1.01782
1.01534
1.01221
1.00856
1.00458
1.00049
0.996485
0.992766
0.989474
0.986742
0.984613
1.0211
1.02138
1.02098
1.01993
1.01811
1.01558
1.01238
1.00865
1.00459
1.00041
0.99633
0.99254
0.989188
0.98641
0.984246
1.02144
1.02173
1.02133
1.02026
1.01841
1.01583
1.01256
1.00875
1.0046
1.00033
0.99617
0.992307
0.988895
0.986069
0.983869
1.02179
1.02209
1.02168
1.0206
1.01871
1.01608
1.01274
1.00884
1.00461
1.00025
0.996005
0.992069
0.988595
0.985721
0.983486
1.02214
1.02245
1.02204
1.02094
1.01902
1.01633
1.01292
1.00894
1.00461
1.00017
0.995835
0.991824
0.988288
0.985365
0.983095
1.0225
1.02282
1.02241
1.0213
1.01933
1.01659
1.0131
1.00904
1.00462
1.00008
0.99566
0.991573
0.987974
0.985002
0.982696
1.02287
1.0232
1.02278
1.02165
1.01966
1.01685
1.01329
1.00914
1.00462
0.999985
0.995478
0.991315
0.987652
0.984631
0.982288
1.02324
1.02358
1.02317
1.02202
1.01998
1.01712
1.01348
1.00924
1.00462
0.999889
0.995292
0.99105
0.987323
0.984251
0.981872
1.02362
1.02398
1.02356
1.02239
1.02032
1.0174
1.01368
1.00934
1.00462
0.999788
0.995099
0.990778
0.986985
0.983863
0.981447
1.02401
1.02438
1.02396
1.02278
1.02066
1.01768
1.01387
1.00944
1.00462
0.999683
0.994901
0.990499
0.98664
0.983467
0.981014
1.02441
1.02479
1.02437
1.02317
1.02101
1.01796
1.01407
1.00954
1.00461
0.999573
0.994696
0.990211
0.986286
0.983061
0.980571
1.02481
1.02521
1.02478
1.02356
1.02137
1.01825
1.01428
1.00964
1.0046
0.999459
0.994484
0.989917
0.985924
0.982648
0.980121
1.02523
1.02564
1.02521
1.02397
1.02173
1.01855
1.01448
1.00974
1.00459
0.999339
0.994266
0.989614
0.985552
0.982224
0.97966
1.02565
1.02608
1.02564
1.02439
1.0221
1.01885
1.01469
1.00984
1.00458
0.999215
0.99404
0.989303
0.985173
0.981792
0.979191
1.02608
1.02652
1.02609
1.02481
1.02248
1.01916
1.01491
1.00994
1.00456
0.999084
0.993807
0.988983
0.984783
0.98135
0.978711
1.02652
1.02698
1.02654
1.02525
1.02287
1.01947
1.01512
1.01004
1.00454
0.998949
0.993567
0.988654
0.984384
0.980898
0.978222
1.02697
1.02745
1.02701
1.02569
1.02326
1.01979
1.01534
1.01014
1.00452
0.998807
0.993318
0.988316
0.983975
0.980436
0.977723
1.02743
1.02792
1.02748
1.02614
1.02367
1.02012
1.01556
1.01024
1.00449
0.998658
0.993062
0.98797
0.983557
0.979965
0.977215
1.02789
1.02841
1.02797
1.02661
1.02408
1.02045
1.01579
1.01034
1.00446
0.998503
0.992796
0.987612
0.983128
0.979482
0.976695
1.02837
1.0289
1.02846
1.02708
1.0245
1.02079
1.01601
1.01044
1.00443
0.998341
0.992522
0.987246
0.982689
0.97899
0.976166
1.02886
1.02941
1.02897
1.02756
1.02493
1.02113
1.01624
1.01054
1.00439
0.998172
0.992239
0.986868
0.982238
0.978486
0.975625
1.02936
1.02993
1.02948
1.02806
1.02537
1.02148
1.01647
1.01063
1.00434
0.997995
0.991946
0.986481
0.981777
0.977971
0.975075
1.02986
1.03046
1.03001
1.02856
1.02582
1.02184
1.01671
1.01073
1.00429
0.99781
0.991643
0.986082
0.981305
0.977445
0.974512
1.03038
1.031
1.03055
1.02908
1.02628
1.0222
1.01695
1.01082
1.00424
0.997617
0.99133
0.985672
0.980821
0.976908
0.97394
1.03091
1.03155
1.03111
1.02961
1.02674
1.02257
1.01719
1.01091
1.00418
0.997414
0.991006
0.98525
0.980324
0.976358
0.973355
1.03145
1.03212
1.03167
1.03015
1.02722
1.02295
1.01743
1.011
1.00411
0.997203
0.990671
0.984816
0.979816
0.975797
0.972759
1.03201
1.03269
1.03225
1.0307
1.02771
1.02333
1.01767
1.01109
1.00404
0.996981
0.990324
0.984369
0.979295
0.975224
0.972151
1.03257
1.03329
1.03284
1.03127
1.02821
1.02372
1.01792
1.01117
1.00395
0.99675
0.989966
0.983911
0.978762
0.974638
0.971532
1.03315
1.03389
1.03345
1.03185
1.02872
1.02412
1.01817
1.01125
1.00387
0.996508
0.989594
0.983438
0.978214
0.974039
0.9709
1.03374
1.03451
1.03407
1.03244
1.02924
1.02452
1.01842
1.01133
1.00377
0.996254
0.98921
0.982952
0.977654
0.973428
0.970256
1.03434
1.03514
1.0347
1.03304
1.02977
1.02493
1.01867
1.0114
1.00366
0.995989
0.988812
0.982452
0.97708
0.972802
0.969599
1.03496
1.03578
1.03535
1.03366
1.03031
1.02535
1.01892
1.01147
1.00355
0.995712
0.988401
0.981937
0.976491
0.972164
0.96893
1.03559
1.03645
1.03601
1.0343
1.03086
1.02577
1.01917
1.01153
1.00342
0.995421
0.987974
0.981408
0.975888
0.971511
0.968247
1.03623
1.03712
1.03669
1.03495
1.03143
1.0262
1.01943
1.01159
1.00329
0.995118
0.987533
0.980863
0.97527
0.970845
0.967552
1.03689
1.03781
1.03739
1.03561
1.03201
1.02664
1.01968
1.01164
1.00314
0.994799
0.987076
0.980302
0.974636
0.970164
0.966843
1.03756
1.03852
1.0381
1.03629
1.0326
1.02708
1.01993
1.01168
1.00299
0.994467
0.986603
0.979725
0.973987
0.969469
0.966121
1.03825
1.03925
1.03883
1.03698
1.0332
1.02753
1.02019
1.01172
1.00282
0.994118
0.986113
0.97913
0.973321
0.968758
0.965384
1.03896
1.03999
1.03958
1.03769
1.03381
1.02799
1.02044
1.01175
1.00263
0.993753
0.985605
0.978519
0.97264
0.968032
0.964634
1.03968
1.04075
1.04034
1.03842
1.03444
1.02845
1.02069
1.01177
1.00244
0.993371
0.985079
0.977889
0.971941
0.967291
0.96387
1.04041
1.04152
1.04113
1.03917
1.03508
1.02892
1.02094
1.01178
1.00223
0.992972
0.984535
0.977241
0.971225
0.966534
0.963091
1.04117
1.04232
1.04193
1.03993
1.03574
1.0294
1.02118
1.01178
1.002
0.992553
0.98397
0.976574
0.970491
0.96576
0.962298
1.04194
1.04313
1.04275
1.04071
1.0364
1.02988
1.02142
1.01177
1.00175
0.992115
0.983386
0.975888
0.96974
0.964971
0.96149
1.04273
1.04397
1.0436
1.04151
1.03708
1.03036
1.02166
1.01175
1.00149
0.991657
0.98278
0.975181
0.968969
0.964164
0.960666
1.04353
1.04483
1.04446
1.04233
1.03778
1.03085
1.0219
1.01171
1.00121
0.991177
0.982153
0.974454
0.96818
0.96334
0.959828
1.04436
1.0457
1.04535
1.04317
1.03849
1.03135
1.02212
1.01166
1.00091
0.990675
0.981503
0.973705
0.967371
0.962499
0.958974
1.04521
1.0466
1.04626
1.04404
1.03921
1.03185
1.02235
1.0116
1.00059
0.990149
0.980831
0.972935
0.966543
0.961641
0.958105
1.04608
1.04752
1.04719
1.04492
1.03995
1.03235
1.02256
1.01151
1.00024
0.989599
0.980133
0.972142
0.965694
0.960764
0.957219
1.04696
1.04847
1.04814
1.04582
1.0407
1.03286
1.02277
1.01141
0.999877
0.989024
0.979411
0.971326
0.964825
0.959869
0.956318
1.04788
1.04943
1.04912
1.04675
1.04147
1.03337
1.02296
1.01129
0.999485
0.988421
0.978662
0.970485
0.963933
0.958955
0.9554
1.04881
1.05043
1.05013
1.04769
1.04225
1.03388
1.02315
1.01115
0.999067
0.987792
0.977888
0.969621
0.963021
0.958023
0.954466
1.04976
1.05145
1.05117
1.04866
1.04304
1.0344
1.02332
1.01099
0.99862
0.987132
0.977085
0.968731
0.962086
0.95707
0.953514
1.05074
1.05249
1.05223
1.04966
1.04385
1.03491
1.02348
1.0108
0.998145
0.986443
0.976254
0.967816
0.961129
0.956099
0.952547
1.05175
1.05357
1.05332
1.05068
1.04468
1.03542
1.02362
1.01059
0.997639
0.985723
0.975393
0.966874
0.960149
0.955108
0.951562
1.05278
1.05467
1.05443
1.05173
1.04552
1.03594
1.02375
1.01035
0.9971
0.984969
0.974502
0.965906
0.959146
0.954097
0.95056
1.05384
1.0558
1.05558
1.0528
1.04637
1.03644
1.02386
1.01008
0.996528
0.984181
0.973579
0.964909
0.958118
0.953065
0.94954
1.05492
1.05696
1.05677
1.0539
1.04724
1.03695
1.02394
1.00978
0.995919
0.983358
0.972624
0.963884
0.957066
0.952013
0.948504
1.05603
1.05815
1.05798
1.05502
1.04811
1.03745
1.02401
1.00945
0.995272
0.982498
0.971635
0.96283
0.95599
0.95094
0.94745
1.05717
1.05938
1.05923
1.05618
1.04901
1.03794
1.02405
1.00907
0.994586
0.9816
0.970612
0.961747
0.954888
0.949846
0.946378
1.05835
1.06064
1.06051
1.05736
1.04991
1.03842
1.02406
1.00866
0.993857
0.980661
0.969553
0.960633
0.953761
0.94873
0.945288
1.05955
1.06193
1.06183
1.05857
1.05082
1.03889
1.02404
1.00821
0.993085
0.979682
0.968458
0.959488
0.952608
0.947594
0.94418
1.06078
1.06326
1.06319
1.05981
1.05175
1.03934
1.02398
1.00772
0.992267
0.978659
0.967325
0.958311
0.951429
0.946435
0.943054
1.06205
1.06463
1.06458
1.06108
1.05268
1.03978
1.02389
1.00717
0.9914
0.977592
0.966154
0.957102
0.950223
0.945255
0.941911
1.06336
1.06604
1.06602
1.06239
1.05363
1.0402
1.02376
1.00658
0.990483
0.976479
0.964944
0.95586
0.94899
0.944052
0.940748
1.0647
1.06749
1.0675
1.06372
1.05458
1.0406
1.02358
1.00594
0.989513
0.975319
0.963693
0.954586
0.94773
0.942827
0.939568
1.06607
1.06899
1.06903
1.06508
1.05553
1.04097
1.02336
1.00523
0.988488
0.974109
0.962401
0.953277
0.946443
0.94158
0.938369
1.06749
1.07053
1.0706
1.06648
1.05648
1.04131
1.02309
1.00447
0.987405
0.972849
0.961066
0.951934
0.945128
0.940311
0.937152
1.06895
1.07211
1.07221
1.06791
1.05744
1.04162
1.02276
1.00365
0.986262
0.971536
0.959689
0.950555
0.943784
0.939018
0.935917
1.07045
1.07375
1.07388
1.06937
1.0584
1.04189
1.02237
1.00275
0.985056
0.97017
0.958267
0.949142
0.942413
0.937704
0.934663
1.07199
1.07543
1.0756
1.07086
1.05934
1.04212
1.02191
1.00179
0.983785
0.968748
0.956801
0.947693
0.941014
0.936366
0.93339
1.07358
1.07717
1.07737
1.07239
1.06029
1.0423
1.02138
1.00075
0.982447
0.967271
0.955289
0.946208
0.939586
0.935006
0.9321
1.07521
1.07897
1.0792
1.07394
1.06121
1.04242
1.02078
0.999638
0.981038
0.965734
0.953731
0.944687
0.938129
0.933623
0.93079
1.0769
1.08082
1.08108
1.07552
1.06212
1.04249
1.0201
0.998439
0.979557
0.964139
0.952126
0.943129
0.936644
0.932218
0.929463
1.07864
1.08273
1.08303
1.07714
1.06301
1.04249
1.01932
0.997153
0.978
0.962483
0.950473
0.941535
0.93513
0.930789
0.928116
1.08043
1.08471
1.08503
1.07878
1.06387
1.04241
1.01846
0.995776
0.976367
0.960765
0.948773
0.939903
0.933587
0.929339
0.926752
1.08227
1.08676
1.0871
1.08044
1.0647
1.04226
1.01749
0.994303
0.974653
0.958984
0.947024
0.938235
0.932016
0.927865
0.925369
1.08418
1.08887
1.08923
1.08213
1.06548
1.04201
1.01642
0.992731
0.972858
0.95714
0.945226
0.93653
0.930416
0.926369
0.923969
1.08615
1.09107
1.09144
1.08383
1.06621
1.04166
1.01523
0.991056
0.970978
0.95523
0.94338
0.934787
0.928788
0.924851
0.92255
1.08818
1.09334
1.09371
1.08555
1.06689
1.0412
1.01391
0.989272
0.969013
0.953255
0.941485
0.933008
0.927132
0.923311
0.921114
1.09027
1.09569
1.09605
1.08728
1.0675
1.04062
1.01247
0.987377
0.96696
0.951214
0.93954
0.931192
0.925448
0.921749
0.919659
1.09244
1.09813
1.09846
1.08902
1.06802
1.03991
1.0109
0.985366
0.964818
0.949107
0.937547
0.929341
0.923736
0.920165
0.918187
1.09468
1.10067
1.10095
1.09075
1.06846
1.03906
1.00918
0.983236
0.962585
0.946932
0.935505
0.927453
0.921997
0.91856
0.916698
1.097
1.1033
1.10352
1.09247
1.06879
1.03806
1.0073
0.980983
0.960261
0.944692
0.933415
0.92553
0.920231
0.916934
0.915192
1.0994
1.10604
1.10615
1.09418
1.069
1.03688
1.00527
0.978605
0.957844
0.942384
0.931277
0.923571
0.918439
0.915287
0.913669
1.10189
1.10889
1.10887
1.09585
1.06908
1.03553
1.00307
0.976097
0.955334
0.94001
0.929091
0.921579
0.916621
0.91362
0.912129
1.10447
1.11185
1.11165
1.09748
1.069
1.03397
1.0007
0.973459
0.95273
0.93757
0.92686
0.919552
0.914777
0.911933
0.910574
1.10714
1.11493
1.11451
1.09905
1.06875
1.03221
0.998145
0.970688
0.950033
0.935066
0.924582
0.917494
0.912909
0.910226
0.909003
1.10992
1.11815
1.11743
1.10055
1.0683
1.03023
0.995404
0.967783
0.947243
0.932497
0.922261
0.915403
0.911016
0.9085
0.907416
1.11281
1.1215
1.12042
1.10195
1.06764
1.02801
0.992472
0.964743
0.944361
0.929866
0.919896
0.913281
0.9091
0.906756
0.905815
1.11581
1.12499
1.12346
1.10324
1.06675
1.02553
0.989342
0.961567
0.941389
0.927173
0.917489
0.91113
0.907161
0.904994
0.904199
1.11893
1.12864
1.12654
1.1044
1.06559
1.02279
0.98601
0.958258
0.938328
0.924422
0.915043
0.90895
0.905201
0.903214
0.902569
1.12219
1.13244
1.12967
1.10538
1.06414
1.01977
0.982474
0.954814
0.93518
0.921613
0.912558
0.906743
0.90322
0.901418
0.900925
1.12559
1.13641
1.13281
1.10618
1.06237
1.01645
0.978732
0.95124
0.931947
0.918749
0.910037
0.90451
0.901219
0.899606
0.899268
1.12914
1.14055
1.13597
1.10674
1.06026
1.01282
0.974783
0.947538
0.928634
0.915833
0.90748
0.902252
0.899199
0.897777
0.897598
1.13285
1.14488
1.1391
1.10703
1.05777
1.00888
0.970628
0.943712
0.925243
0.912868
0.904893
0.899972
0.897161
0.895935
0.895916
1.13674
1.14938
1.1422
1.10702
1.05488
1.00461
0.966269
0.939766
0.921777
0.909857
0.902275
0.89767
0.895106
0.894078
0.894222
1.14082
1.15407
1.14522
1.10666
1.05155
1.00001
0.961712
0.935706
0.918243
0.906803
0.899629
0.895349
0.893036
0.892208
0.892517
1.14511
1.15896
1.14814
1.1059
1.04776
0.995071
0.956961
0.931538
0.914644
0.903709
0.896959
0.893009
0.89095
0.890325
0.890802
1.14963
1.16403
1.15091
1.10469
1.04348
0.98979
0.952027
0.927269
0.910985
0.900581
0.894268
0.890654
0.888852
0.888431
0.889076
1.15439
1.16928
1.15349
1.10297
1.03868
0.98417
0.946918
0.922908
0.907272
0.897422
0.891557
0.888284
0.886741
0.886526
0.887341
1.15941
1.17471
1.15581
1.10068
1.03333
0.978217
0.941648
0.918463
0.903511
0.894236
0.88883
0.885902
0.884619
0.884611
0.885597
1.16473
1.18031
1.15783
1.09778
1.02742
0.971941
0.936229
0.913944
0.899709
0.891028
0.88609
0.88351
0.882487
0.882687
0.883845
1.17037
1.18604
1.15946
1.09418
1.02093
0.965357
0.930679
0.909359
0.895871
0.887803
0.88334
0.881108
0.880346
0.880754
0.882085
1.17635
1.1919
1.16062
1.08983
1.01385
0.958483
0.925014
0.90472
0.892004
0.884565
0.880584
0.8787
0.878199
0.878815
0.880319
1.18271
1.19783
1.16123
1.08467
1.00617
0.951343
0.919255
0.900036
0.888117
0.88132
0.877824
0.876288
0.876046
0.876869
0.878547
1.18949
1.2038
1.16119
1.07863
0.9979
0.943968
0.913421
0.895318
0.884214
0.878072
0.875063
0.873872
0.873888
0.874918
0.876769
1.19672
1.20975
1.16038
1.07166
0.989054
0.936392
0.907533
0.890577
0.880306
0.874827
0.872304
0.871455
0.871727
0.872963
0.874988
1.20443
1.21559
1.15869
1.06369
0.979655
0.928655
0.901611
0.885823
0.876397
0.871591
0.869552
0.86904
0.869564
0.871004
0.873203
1.21268
1.22124
1.156
1.0547
0.96974
0.9208
0.895678
0.881067
0.872498
0.868367
0.866807
0.866627
0.867401
0.869044
0.871415
1.22148
1.22659
1.15216
1.04463
0.95936
0.912874
0.889752
0.876318
0.868615
0.865162
0.864074
0.864219
0.86524
0.867084
0.869626
1.23089
1.23151
1.14703
1.03348
0.94858
0.904927
0.883854
0.871588
0.864756
0.86198
0.861356
0.861818
0.863081
0.865125
0.867837
1.24094
1.23583
1.14047
1.02123
0.937477
0.897007
0.877999
0.866886
0.86093
0.858826
0.858654
0.859425
0.860928
0.863168
0.866049
1.25164
1.23937
1.13233
1.00793
0.926147
0.889165
0.872204
0.862221
0.857144
0.855704
0.855972
0.857044
0.858782
0.861216
0.864264
1.26303
1.24191
1.12245
0.993598
0.914693