/*--------------------------------*- C++ -*----------------------------------*\
  =========                 |
  \\      /  F ield         | OpenFOAM: The Open Source CFD Toolbox
   \\    /   O peration     | Website:  https://openfoam.org
    \\  /    A nd           | Version:  6.0
     \\/     M anipulation  |
\*---------------------------------------------------------------------------*/
FoamFile
{
    version     2.0;
    format      ascii;
    class       volScalarField;
    location    "1.6";
    object      p;
}
// * * * * * * * * * * * * * * * * * * * * * * * * * * * * * * * * * * * * * //

dimensions      [0 2 -2 0 0 0 0];

internalField   nonuniform List<scalar> 
24000
(
1.00678
1.00647
1.00588
1.00506
1.0041
1.00311
1.00223
1.00147
1.00084
1.00037
0.999989
0.999749
1.00679
1.00653
1.00603
1.00531
1.00442
1.00347
1.00257
1.00174
1.00102
1.00044
0.999928
0.999598
1.00679
1.00651
1.00599
1.00524
1.00433
1.00335
1.00243
1.0016
1.00089
1.00034
0.999843
0.99955
1.00679
1.0065
1.00595
1.00519
1.00427
1.00329
1.00238
1.00156
1.00086
1.00033
0.999821
0.999528
1.00679
1.00651
1.00597
1.00522
1.00432
1.00336
1.00246
1.00164
1.00093
1.00037
0.999821
0.99949
1.0068
1.00653
1.00599
1.00525
1.00436
1.00341
1.00251
1.00169
1.00096
1.00038
0.999787
0.999425
1.00681
1.00654
1.006
1.00525
1.00436
1.00341
1.0025
1.00166
1.00093
1.00033
0.999724
0.999351
1.00682
1.00655
1.00601
1.00526
1.00436
1.0034
1.00248
1.00163
1.00089
1.00028
0.999668
0.99929
1.00683
1.00657
1.00603
1.00527
1.00437
1.00341
1.00249
1.00163
1.00088
1.00026
0.999634
0.999242
1.00684
1.00659
1.00606
1.0053
1.0044
1.00344
1.00252
1.00166
1.00089
1.00026
0.999613
0.999201
1.00685
1.00662
1.00609
1.00534
1.00444
1.00348
1.00256
1.00169
1.00091
1.00027
0.999594
0.999159
1.00687
1.00664
1.00612
1.00537
1.00447
1.00351
1.00259
1.00171
1.00092
1.00026
0.999572
0.999116
1.00688
1.00666
1.00615
1.00541
1.00451
1.00355
1.00261
1.00173
1.00093
1.00025
0.999546
0.999073
1.00689
1.00669
1.00618
1.00545
1.00455
1.00358
1.00264
1.00174
1.00093
1.00024
0.999521
0.999033
1.00691
1.00671
1.00621
1.00549
1.00459
1.00362
1.00267
1.00176
1.00094
1.00023
0.999497
0.998993
1.00693
1.00673
1.00624
1.00552
1.00463
1.00366
1.0027
1.00178
1.00094
1.00023
0.999474
0.998956
1.00694
1.00675
1.00626
1.00555
1.00467
1.00369
1.00273
1.0018
1.00095
1.00022
0.999451
0.998918
1.00696
1.00677
1.00628
1.00558
1.0047
1.00372
1.00275
1.00182
1.00095
1.0002
0.999427
0.998881
1.00698
1.00679
1.0063
1.00561
1.00473
1.00375
1.00277
1.00183
1.00095
1.00019
0.999401
0.998844
1.007
1.00681
1.00632
1.00563
1.00475
1.00377
1.00279
1.00184
1.00095
1.00018
0.999377
0.998809
1.00702
1.00684
1.00635
1.00566
1.00478
1.0038
1.00281
1.00185
1.00095
1.00016
0.999353
0.998775
1.00704
1.00686
1.00637
1.00568
1.00481
1.00382
1.00283
1.00186
1.00095
1.00015
0.99933
0.998742
1.00706
1.00689
1.0064
1.00571
1.00484
1.00385
1.00285
1.00187
1.00095
1.00014
0.999307
0.998709
1.00709
1.00692
1.00643
1.00575
1.00487
1.00388
1.00288
1.00189
1.00095
1.00013
0.999283
0.998676
1.00712
1.00695
1.00647
1.00578
1.0049
1.00391
1.0029
1.0019
1.00095
1.00011
0.999259
0.998643
1.00714
1.00698
1.0065
1.00581
1.00493
1.00394
1.00292
1.00191
1.00095
1.0001
0.999235
0.998611
1.00717
1.00702
1.00653
1.00585
1.00497
1.00397
1.00294
1.00192
1.00095
1.00008
0.99921
0.998579
1.0072
1.00705
1.00657
1.00589
1.005
1.004
1.00296
1.00193
1.00095
1.00007
0.999186
0.998547
1.00723
1.00709
1.00661
1.00592
1.00504
1.00403
1.00299
1.00195
1.00095
1.00005
0.999162
0.998516
1.00727
1.00713
1.00665
1.00596
1.00507
1.00406
1.00301
1.00196
1.00095
1.00004
0.99914
0.998486
1.0073
1.00717
1.00669
1.00601
1.00511
1.00409
1.00303
1.00197
1.00095
1.00003
0.999117
0.998455
1.00734
1.00721
1.00674
1.00605
1.00515
1.00413
1.00306
1.00199
1.00095
1.00002
0.999095
0.998425
1.00737
1.00725
1.00678
1.0061
1.0052
1.00417
1.00309
1.002
1.00096
1.00001
0.999073
0.998394
1.00741
1.0073
1.00683
1.00615
1.00524
1.00421
1.00312
1.00202
1.00096
0.999995
0.999051
0.998363
1.00745
1.00734
1.00688
1.0062
1.00529
1.00425
1.00315
1.00204
1.00096
0.999983
0.999027
0.998331
1.00749
1.00739
1.00693
1.00625
1.00534
1.00429
1.00318
1.00206
1.00097
0.999971
0.999004
0.9983
1.00753
1.00743
1.00697
1.00629
1.00538
1.00433
1.00321
1.00207
1.00097
0.999958
0.99898
0.998267
1.00757
1.00748
1.00702
1.00634
1.00543
1.00437
1.00324
1.00209
1.00097
0.999945
0.998955
0.998235
1.00762
1.00752
1.00707
1.00639
1.00548
1.00441
1.00327
1.0021
1.00097
0.99993
0.998929
0.998202
1.00766
1.00757
1.00711
1.00644
1.00552
1.00444
1.0033
1.00212
1.00097
0.999915
0.998904
0.998169
1.00771
1.00762
1.00716
1.00648
1.00556
1.00448
1.00332
1.00213
1.00097
0.9999
0.998877
0.998135
1.00775
1.00767
1.00721
1.00653
1.00561
1.00452
1.00335
1.00215
1.00097
0.999884
0.998851
0.998102
1.0078
1.00772
1.00726
1.00658
1.00565
1.00455
1.00337
1.00216
1.00097
0.999868
0.998823
0.998068
1.00785
1.00777
1.00731
1.00663
1.0057
1.00459
1.0034
1.00217
1.00097
0.999853
0.998796
0.998035
1.0079
1.00782
1.00737
1.00668
1.00574
1.00463
1.00343
1.00218
1.00097
0.999837
0.998769
0.998001
1.00796
1.00788
1.00742
1.00674
1.00579
1.00467
1.00346
1.0022
1.00097
0.999822
0.998742
0.997967
1.00801
1.00794
1.00748
1.00679
1.00584
1.00471
1.00349
1.00221
1.00096
0.999805
0.998713
0.997933
1.00806
1.008
1.00754
1.00685
1.00589
1.00476
1.00352
1.00223
1.00096
0.99979
0.998686
0.997899
1.00812
1.00806
1.0076
1.00691
1.00595
1.0048
1.00355
1.00224
1.00096
0.999774
0.998658
0.997863
1.00818
1.00812
1.00766
1.00697
1.006
1.00484
1.00358
1.00226
1.00096
0.999759
0.998631
0.997828
1.00824
1.00818
1.00773
1.00703
1.00605
1.00489
1.00361
1.00228
1.00096
0.999743
0.998603
0.997792
1.0083
1.00825
1.00779
1.0071
1.00611
1.00494
1.00364
1.0023
1.00097
0.999728
0.998575
0.997755
1.00836
1.00832
1.00786
1.00716
1.00617
1.00498
1.00368
1.00231
1.00097
0.999712
0.998547
0.997717
1.00842
1.00838
1.00793
1.00723
1.00623
1.00503
1.00371
1.00233
1.00097
0.999697
0.998519
0.997679
1.00848
1.00845
1.008
1.00729
1.00629
1.00508
1.00375
1.00235
1.00097
0.999681
0.99849
0.997638
1.00855
1.00852
1.00807
1.00736
1.00635
1.00513
1.00378
1.00237
1.00097
0.999666
0.998461
0.997598
1.00861
1.00859
1.00814
1.00743
1.00641
1.00518
1.00382
1.00239
1.00097
0.999649
0.99843
0.997555
1.00868
1.00867
1.00821
1.0075
1.00648
1.00524
1.00386
1.00241
1.00097
0.999632
0.998399
0.997513
1.00875
1.00874
1.00828
1.00757
1.00654
1.00529
1.00389
1.00243
1.00097
0.999614
0.998367
0.997468
1.00882
1.00881
1.00836
1.00764
1.0066
1.00534
1.00393
1.00244
1.00097
0.999597
0.998334
0.997424
1.00889
1.00889
1.00843
1.00771
1.00666
1.00539
1.00396
1.00246
1.00097
0.999577
0.9983
0.997378
1.00896
1.00897
1.00851
1.00779
1.00673
1.00544
1.004
1.00248
1.00097
0.999559
0.998266
0.997332
1.00903
1.00904
1.00858
1.00786
1.00679
1.0055
1.00404
1.0025
1.00097
0.999539
0.998231
0.997284
1.00911
1.00912
1.00866
1.00793
1.00686
1.00555
1.00407
1.00252
1.00097
0.99952
0.998195
0.997237
1.00918
1.00921
1.00874
1.00801
1.00692
1.0056
1.00411
1.00253
1.00097
0.9995
0.998159
0.997188
1.00926
1.00929
1.00882
1.00809
1.00699
1.00566
1.00415
1.00255
1.00097
0.999481
0.998123
0.997139
1.00934
1.00937
1.0089
1.00817
1.00706
1.00571
1.00419
1.00257
1.00097
0.99946
0.998085
0.997088
1.00943
1.00946
1.00899
1.00825
1.00713
1.00577
1.00423
1.00259
1.00097
0.99944
0.998048
0.997037
1.00951
1.00955
1.00908
1.00833
1.0072
1.00583
1.00427
1.00261
1.00097
0.999419
0.998009
0.996984
1.00959
1.00964
1.00916
1.00842
1.00728
1.00589
1.00431
1.00264
1.00097
0.999398
0.997971
0.996931
1.00968
1.00973
1.00926
1.0085
1.00735
1.00595
1.00435
1.00266
1.00097
0.999376
0.997931
0.996875
1.00977
1.00983
1.00935
1.00859
1.00743
1.00601
1.0044
1.00268
1.00097
0.999355
0.997891
0.996818
1.00986
1.00992
1.00944
1.00868
1.00751
1.00608
1.00444
1.0027
1.00097
0.999332
0.99785
0.996758
1.00995
1.01002
1.00954
1.00877
1.00759
1.00614
1.00448
1.00272
1.00097
0.999309
0.997808
0.996698
1.01004
1.01012
1.00963
1.00886
1.00767
1.00621
1.00453
1.00275
1.00096
0.999284
0.997764
0.996635
1.01014
1.01022
1.00973
1.00896
1.00775
1.00627
1.00458
1.00277
1.00096
0.99926
0.99772
0.996571
1.01023
1.01032
1.00983
1.00905
1.00783
1.00634
1.00462
1.00279
1.00096
0.999234
0.997673
0.996504
1.01033
1.01042
1.00993
1.00915
1.00792
1.00641
1.00467
1.00282
1.00096
0.999208
0.997626
0.996437
1.01043
1.01053
1.01004
1.00925
1.008
1.00648
1.00471
1.00284
1.00096
0.999179
0.997576
0.996367
1.01053
1.01063
1.01014
1.00935
1.00809
1.00655
1.00476
1.00286
1.00095
0.999151
0.997527
0.996297
1.01064
1.01074
1.01025
1.00945
1.00817
1.00661
1.00481
1.00288
1.00095
0.99912
0.997474
0.996224
1.01074
1.01085
1.01035
1.00955
1.00826
1.00669
1.00486
1.0029
1.00094
0.99909
0.997422
0.996151
1.01085
1.01096
1.01046
1.00965
1.00835
1.00676
1.0049
1.00292
1.00093
0.999057
0.997367
0.996075
1.01096
1.01108
1.01057
1.00975
1.00844
1.00683
1.00495
1.00294
1.00093
0.999025
0.997312
0.995999
1.01107
1.01119
1.01069
1.00986
1.00853
1.0069
1.005
1.00296
1.00092
0.99899
0.997254
0.99592
1.01118
1.01131
1.0108
1.00997
1.00862
1.00697
1.00504
1.00298
1.00091
0.998956
0.997196
0.995841
1.0113
1.01143
1.01092
1.01008
1.00872
1.00705
1.00509
1.003
1.0009
0.998919
0.997136
0.995759
1.01141
1.01155
1.01103
1.01019
1.00881
1.00712
1.00514
1.00302
1.00089
0.998882
0.997076
0.995678
1.01153
1.01168
1.01115
1.0103
1.00891
1.0072
1.00519
1.00304
1.00088
0.998844
0.997013
0.995593
1.01165
1.0118
1.01128
1.01042
1.00901
1.00727
1.00524
1.00306
1.00087
0.998805
0.99695
0.995508
1.01178
1.01193
1.0114
1.01053
1.0091
1.00735
1.00529
1.00308
1.00086
0.998764
0.996884
0.99542
1.0119
1.01206
1.01153
1.01065
1.0092
1.00743
1.00534
1.0031
1.00085
0.998724
0.996818
0.995332
1.01203
1.0122
1.01166
1.01077
1.00931
1.00751
1.00539
1.00312
1.00084
0.998681
0.996749
0.995241
1.01216
1.01233
1.01179
1.01089
1.00941
1.00759
1.00544
1.00314
1.00083
0.998638
0.99668
0.99515
1.01229
1.01247
1.01192
1.01101
1.00951
1.00767
1.00549
1.00316
1.00081
0.998592
0.996608
0.995055
1.01242
1.01261
1.01205
1.01114
1.00962
1.00775
1.00554
1.00318
1.0008
0.998547
0.996536
0.99496
1.01255
1.01275
1.01219
1.01127
1.00972
1.00783
1.00559
1.0032
1.00078
0.998498
0.99646
0.994861
1.01269
1.01289
1.01233
1.01139
1.00983
1.00792
1.00565
1.00321
1.00076
0.99845
0.996385
0.994763
1.01283
1.01304
1.01247
1.01152
1.00994
1.008
1.0057
1.00323
1.00074
0.998399
0.996306
0.99466
1.01297
1.01319
1.01261
1.01165
1.01005
1.00808
1.00575
1.00325
1.00073
0.998348
0.996226
0.994558
1.01312
1.01334
1.01275
1.01179
1.01016
1.00817
1.0058
1.00326
1.00071
0.998294
0.996144
0.994451
1.01326
1.01349
1.0129
1.01192
1.01027
1.00825
1.00585
1.00328
1.00069
0.99824
0.996061
0.994344
1.01341
1.01364
1.01304
1.01206
1.01039
1.00834
1.00591
1.0033
1.00066
0.998183
0.995974
0.994233
1.01356
1.0138
1.01319
1.0122
1.0105
1.00843
1.00596
1.00331
1.00064
0.998126
0.995887
0.994122
1.01372
1.01396
1.01335
1.01234
1.01062
1.00852
1.00601
1.00333
1.00062
0.998066
0.995796
0.994007
1.01388
1.01412
1.0135
1.01248
1.01074
1.00861
1.00607
1.00334
1.00059
0.998006
0.995706
0.993891
1.01404
1.01429
1.01366
1.01263
1.01086
1.0087
1.00612
1.00336
1.00057
0.997943
0.995611
0.993771
1.0142
1.01446
1.01382
1.01277
1.01098
1.00879
1.00617
1.00337
1.00054
0.99788
0.995516
0.99365
1.01436
1.01463
1.01398
1.01292
1.01111
1.00889
1.00623
1.00338
1.00051
0.997814
0.995416
0.993525
1.01453
1.0148
1.01415
1.01308
1.01123
1.00898
1.00629
1.0034
1.00048
0.997747
0.995317
0.993399
1.0147
1.01498
1.01432
1.01323
1.01136
1.00908
1.00634
1.00341
1.00045
0.997677
0.995213
0.993269
1.01488
1.01516
1.01449
1.01339
1.0115
1.00918
1.0064
1.00343
1.00042
0.997607
0.995109
0.993138
1.01506
1.01534
1.01466
1.01355
1.01163
1.00928
1.00646
1.00344
1.00039
0.997534
0.995
0.993002
1.01524
1.01553
1.01484
1.01371
1.01177
1.00938
1.00652
1.00345
1.00035
0.99746
0.994891
0.992865
1.01542
1.01572
1.01502
1.01388
1.0119
1.00949
1.00658
1.00346
1.00032
0.997382
0.994777
0.992723
1.01561
1.01591
1.01521
1.01405
1.01205
1.00959
1.00664
1.00348
1.00028
0.997304
0.994662
0.99258
1.0158
1.01611
1.0154
1.01422
1.01219
1.0097
1.0067
1.00349
1.00024
0.997222
0.994542
0.992432
1.016
1.01631
1.01559
1.0144
1.01234
1.00981
1.00676
1.0035
1.0002
0.997139
0.994422
0.992282
1.0162
1.01651
1.01578
1.01458
1.01248
1.00992
1.00682
1.00351
1.00016
0.997052
0.994296
0.992127
1.0164
1.01672
1.01598
1.01476
1.01264
1.01003
1.00688
1.00352
1.00012
0.996965
0.99417
0.991971
1.01661
1.01693
1.01618
1.01495
1.01279
1.01014
1.00694
1.00353
1.00007
0.996873
0.994038
0.991809
1.01682
1.01714
1.01639
1.01513
1.01295
1.01026
1.00701
1.00354
1.00003
0.99678
0.993905
0.991645
1.01703
1.01736
1.0166
1.01533
1.01311
1.01038
1.00707
1.00355
0.999981
0.996683
0.993766
0.991475
1.01725
1.01758
1.01681
1.01552
1.01327
1.0105
1.00714
1.00355
0.999932
0.996585
0.993627
0.991304
1.01747
1.01781
1.01703
1.01572
1.01343
1.01062
1.0072
1.00356
0.99988
0.996483
0.993481
0.991127
1.01769
1.01804
1.01726
1.01593
1.0136
1.01074
1.00727
1.00357
0.999827
0.996379
0.993334
0.990947
1.01792
1.01828
1.01748
1.01613
1.01377
1.01086
1.00733
1.00357
0.999771
0.996271
0.993181
0.990761
1.01816
1.01852
1.01771
1.01635
1.01395
1.01099
1.0074
1.00358
0.999714
0.996161
0.993027
0.990573
1.01839
1.01876
1.01795
1.01656
1.01413
1.01112
1.00747
1.00358
0.999654
0.996046
0.992866
0.990378
1.01864
1.01901
1.01819
1.01678
1.01431
1.01125
1.00754
1.00358
0.999593
0.99593
0.992703
0.990181
1.01888
1.01927
1.01844
1.01701
1.0145
1.01139
1.00761
1.00359
0.999528
0.995808
0.992534
0.989976
1.01913
1.01953
1.01869
1.01724
1.01469
1.01152
1.00768
1.00359
0.999462
0.995685
0.992362
0.989769
1.01939
1.01979
1.01894
1.01747
1.01488
1.01166
1.00775
1.00359
0.999392
0.995556
0.992184
0.989555
1.01965
1.02006
1.01921
1.01771
1.01508
1.0118
1.00782
1.00359
0.999321
0.995425
0.992003
0.989337
1.01992
1.02034
1.01947
1.01796
1.01528
1.01194
1.00789
1.00358
0.999246
0.995288
0.991815
0.989112
1.02019
1.02062
1.01974
1.0182
1.01548
1.01209
1.00796
1.00358
0.99917
0.995149
0.991624
0.988884
1.02047
1.0209
1.02002
1.01846
1.01569
1.01224
1.00803
1.00358
0.999088
0.995004
0.991426
0.988647
1.02075
1.0212
1.0203
1.01872
1.0159
1.01239
1.00811
1.00357
0.999005
0.994856
0.991225
0.988407
1.02104
1.0215
1.02059
1.01898
1.01612
1.01254
1.00818
1.00356
0.998918
0.994702
0.991016
0.988159
1.02133
1.0218
1.02089
1.01925
1.01634
1.0127
1.00826
1.00355
0.998828
0.994544
0.990803
0.987907
1.02163
1.02211
1.02119
1.01953
1.01657
1.01285
1.00833
1.00354
0.998733
0.99438
0.990582
0.987645
1.02194
1.02243
1.0215
1.01981
1.0168
1.01302
1.00841
1.00353
0.998636
0.994213
0.990358
0.98738
1.02225
1.02275
1.02181
1.0201
1.01703
1.01318
1.00848
1.00351
0.998534
0.994038
0.990125
0.987106
1.02257
1.02309
1.02214
1.02039
1.01727
1.01334
1.00855
1.0035
0.998429
0.99386
0.989888
0.986827
1.02289
1.02342
1.02246
1.02069
1.01752
1.01351
1.00863
1.00347
0.998318
0.993674
0.989641
0.986538
1.02323
1.02377
1.0228
1.021
1.01777
1.01368
1.00871
1.00345
0.998205
0.993484
0.98939
0.986244
1.02357
1.02412
1.02314
1.02131
1.01802
1.01385
1.00878
1.00343
0.998085
0.993286
0.98913
0.98594
1.02391
1.02448
1.02349
1.02163
1.01828
1.01403
1.00886
1.0034
0.997963
0.993084
0.988865
0.985631
1.02427
1.02485
1.02385
1.02196
1.01854
1.01421
1.00893
1.00337
0.997833
0.992873
0.98859
0.985311
1.02463
1.02523
1.02422
1.02229
1.01882
1.01439
1.00901
1.00334
0.9977
0.992657
0.988309
0.984986
1.025
1.02561
1.02459
1.02264
1.01909
1.01457
1.00908
1.0033
0.99756
0.992432
0.988018
0.984649
1.02538
1.02601
1.02498
1.02299
1.01937
1.01476
1.00916
1.00326
0.997416
0.992202
0.987721
0.984306
1.02576
1.02641
1.02537
1.02334
1.01966
1.01495
1.00923
1.00322
0.997264
0.991962
0.987413
0.983952
1.02616
1.02682
1.02577
1.02371
1.01995
1.01514
1.0093
1.00317
0.997108
0.991717
0.987099
0.983591
1.02656
1.02724
1.02618
1.02408
1.02025
1.01534
1.00937
1.00312
0.996943
0.99146
0.986773
0.983217
1.02697
1.02767
1.0266
1.02446
1.02056
1.01554
1.00945
1.00306
0.996774
0.991198
0.986439
0.982836
1.02739
1.02811
1.02703
1.02485
1.02087
1.01574
1.00951
1.003
0.996595
0.990925
0.986094
0.982443
1.02782
1.02856
1.02747
1.02525
1.02119
1.01594
1.00958
1.00294
0.996411
0.990644
0.985741
0.982041
1.02826
1.02902
1.02792
1.02566
1.02151
1.01615
1.00965
1.00287
0.996217
0.990352
0.985375
0.981627
1.02872
1.0295
1.02838
1.02608
1.02184
1.01636
1.00972
1.00279
0.996017
0.990052
0.985001
0.981203
1.02918
1.02998
1.02886
1.02651
1.02218
1.01657
1.00978
1.00271
0.995807
0.98974
0.984613
0.980766
1.02965
1.03047
1.02934
1.02695
1.02252
1.01678
1.00984
1.00262
0.995589
0.989419
0.984216
0.98032
1.03013
1.03098
1.02984
1.0274
1.02288
1.01699
1.0099
1.00253
0.99536
0.989085
0.983805
0.979859
1.03063
1.0315
1.03035
1.02786
1.02324
1.01721
1.00996
1.00243
0.995124
0.988742
0.983384
0.979388
1.03113
1.03203
1.03087
1.02833
1.0236
1.01743
1.01001
1.00232
0.994875
0.988385
0.982947
0.978902
1.03165
1.03258
1.0314
1.02881
1.02397
1.01765
1.01006
1.0022
0.994618
0.988017
0.982501
0.978405
1.03218
1.03313
1.03195
1.0293
1.02436
1.01788
1.01011
1.00208
0.994347
0.987635
0.982038
0.977892
1.03272
1.03371
1.03251
1.02981
1.02474
1.0181
1.01015
1.00195
0.994067
0.987241
0.981564
0.977368
1.03328
1.03429
1.03308
1.03032
1.02514
1.01833
1.01018
1.0018
0.993772
0.986832
0.981073
0.976827
1.03385
1.03489
1.03368
1.03085
1.02555
1.01856
1.01022
1.00165
0.993467
0.98641
0.98057
0.976274
1.03443
1.03551
1.03428
1.0314
1.02596
1.01879
1.01025
1.00149
0.993146
0.985971
0.980049
0.975703
1.03503
1.03614
1.0349
1.03195
1.02638
1.01902
1.01027
1.00132
0.992814
0.985519
0.979514
0.97512
1.03564
1.03679
1.03554
1.03252
1.02681
1.01925
1.01028
1.00113
0.992464
0.985049
0.978961
0.974517
1.03627
1.03746
1.0362
1.03311
1.02724
1.01948
1.01029
1.00093
0.992102
0.984564
0.978394
0.973901
1.03692
1.03815
1.03687
1.03371
1.02769
1.01971
1.01029
1.00072
0.991721
0.98406
0.977806
0.973265
1.03758
1.03885
1.03756
1.03432
1.02814
1.01995
1.01028
1.0005
0.991325
0.983539
0.977203
0.972615
1.03826
1.03957
1.03828
1.03495
1.0286
1.02017
1.01027
1.00026
0.99091
0.982999
0.97658
0.971944
1.03896
1.04031
1.03901
1.0356
1.02907
1.0204
1.01024
1
0.990478
0.98244
0.975939
0.971257
1.03967
1.04108
1.03976
1.03626
1.02955
1.02063
1.0102
0.999732
0.990025
0.98186
0.975276
0.970549
1.04041
1.04186
1.04053
1.03694
1.03004
1.02086
1.01015
0.999444
0.989553
0.981261
0.974596
0.969824
1.04116
1.04267
1.04133
1.03764
1.03053
1.02108
1.01009
0.999135
0.989059
0.980638
0.973892
0.969077
1.04194
1.0435
1.04214
1.03835
1.03103
1.02129
1.01001
0.998809
0.988544
0.979995
0.973168
0.968311
1.04273
1.04435
1.04299
1.03909
1.03154
1.0215
1.00992
0.998459
0.988004
0.979326
0.972421
0.967522
1.04355
1.04523
1.04385
1.03984
1.03206
1.02171
1.00982
0.99809
0.987441
0.978635
0.971652
0.966714
1.0444
1.04614
1.04474
1.04061
1.03259
1.02191
1.00969
0.997695
0.986852
0.977917
0.970857
0.965882
1.04526
1.04707
1.04566
1.04141
1.03312
1.0221
1.00955
0.997276
0.986237
0.977175
0.97004
0.965028
1.04616
1.04803
1.04661
1.04222
1.03366
1.02229
1.00938
0.99683
0.985592
0.976404
0.969196
0.96415
1.04708
1.04902
1.04759
1.04305
1.0342
1.02246
1.0092
0.996357
0.98492
0.975607
0.968328
0.963249
1.04802
1.05004
1.04859
1.04391
1.03475
1.02262
1.00898
0.995853
0.984216
0.974779
0.967431
0.962322
1.049
1.05109
1.04963
1.04479
1.03531
1.02277
1.00875
0.995318
0.983482
0.973923
0.966508
0.961371
1.05
1.05218
1.0507
1.04569
1.03587
1.0229
1.00848
0.99475
0.982712
0.973033
0.965555
0.960392
1.05104
1.0533
1.05181
1.04661
1.03643
1.02301
1.00819
0.994147
0.98191
0.972114
0.964575
0.959389
1.0521
1.05446
1.05295
1.04756
1.03699
1.02311
1.00786
0.993505
0.981069
0.971159
0.963563
0.958357
1.0532
1.05565
1.05413
1.04853
1.03756
1.02318
1.0075
0.992825
0.980191
0.970171
0.962521
0.957299
1.05434
1.05689
1.05535
1.04952
1.03812
1.02323
1.00709
0.992102
0.979272
0.969145
0.961446
0.95621
1.05551
1.05817
1.05661
1.05054
1.03868
1.02325
1.00665
0.991336
0.978313
0.968084
0.960341
0.955093
1.05672
1.05949
1.05791
1.05158
1.03923
1.02324
1.00616
0.990522
0.97731
0.966983
0.9592
0.953945
1.05797
1.06086
1.05925
1.05265
1.03978
1.02319
1.00563
0.98966
0.976262
0.965845
0.958026
0.952768
1.05927
1.06228
1.06065
1.05374
1.04032
1.02311
1.00504
0.988744
0.975166
0.964663
0.956815
0.951558
1.0606
1.06375
1.06209
1.05486
1.04085
1.02298
1.0044
0.987775
0.974022
0.963442
0.955569
0.950317
1.06199
1.06528
1.06358
1.05599
1.04135
1.02281
1.0037
0.986746
0.972826
0.962175
0.954285
0.949042
1.06342
1.06686
1.06512
1.05716
1.04184
1.02259
1.00294
0.985657
0.971578
0.960865
0.952964
0.947734
1.0649
1.06851
1.06672
1.05834
1.04231
1.02231
1.0021
0.984503
0.970274
0.959507
0.951603
0.946391
1.06643
1.07021
1.06837
1.05954
1.04274
1.02196
1.0012
0.983282
0.968914
0.958104
0.950203
0.945015
1.06803
1.07199
1.07008
1.06076
1.04314
1.02155
1.00021
0.98199
0.967493
0.95665
0.948761
0.943601
1.06968
1.07384
1.07186
1.06199
1.0435
1.02105
0.999144
0.980623
0.966012
0.955148
0.947279
0.942152
1.07139
1.07576
1.0737
1.06324
1.04381
1.02048
0.997986
0.979178
0.964467
0.953593
0.945753
0.940665
1.07317
1.07777
1.0756
1.06449
1.04407
1.01981
0.996732
0.977651
0.962857
0.951987
0.944185
0.939141
1.07502
1.07986
1.07758
1.06575
1.04425
1.01904
0.995375
0.976039
0.961179
0.950326
0.942572
0.937577
1.07695
1.08204
1.07962
1.06701
1.04437
1.01815
0.993911
0.974338
0.959431
0.948612
0.940915
0.935976
1.07895
1.08433
1.08173
1.06826
1.04439
1.01715
0.992331
0.972544
0.957612
0.94684
0.939211
0.934333
1.08104
1.08671
1.08392
1.06949
1.04432
1.01601
0.99063
0.970654
0.95572
0.945013
0.937463
0.932651
1.08321
1.08921
1.08618
1.0707
1.04413
1.01472
0.988798
0.968664
0.953752
0.943127
0.935666
0.930927
1.08548
1.09182
1.08851
1.07188
1.04381
1.01328
0.986831
0.966571
0.951709
0.941184
0.933824
0.929162
1.08785
1.09456
1.09091
1.073
1.04334
1.01167
0.98472
0.964371
0.949586
0.93918
0.931933
0.927354
1.09033
1.09744
1.09339
1.07406
1.04271
1.00987
0.982459
0.962063
0.947386
0.937118
0.929994
0.925505
1.09293
1.10046
1.09593
1.07504
1.04189
1.00787
0.980039
0.959641
0.945104
0.934994
0.928007
0.923611
1.09565
1.10363
1.09853
1.07592
1.04086
1.00566
0.977457
0.957106
0.942742
0.932811
0.925972
0.921675
1.09851
1.10697
1.10119
1.07667
1.0396
1.00322
0.974703
0.954455
0.940297
0.930567
0.923887
0.919696
1.10152
1.11048
1.1039
1.07727
1.03807
1.00053
0.971774
0.951686
0.937772
0.928263
0.921754
0.917673
1.10468
1.11417
1.10664
1.07768
1.03624
0.997576
0.968663
0.948798
0.935165
0.925899
0.919571
0.915606
1.10802
1.11806
1.10939
1.07787
1.03409
0.994347
0.965368
0.945793
0.932477
0.923475
0.917341
0.913497
1.11155
1.12215
1.11214
1.0778
1.03158
0.990825
0.961884
0.942668
0.929709
0.920992
0.915062
0.911342
1.11528
1.12646
1.11485
1.07742
1.02868
0.986997
0.958211
0.939428
0.926863
0.918453
0.912737
0.909145
1.11924
1.13098
1.11751
1.07667
1.02534
0.98285
0.954349
0.936072
0.923939
0.915856
0.910363
0.906903
1.12345
1.13574
1.12005
1.0755
1.02153
0.978373
0.950299
0.932606
0.920942
0.913205
0.907943
0.904617
1.12793
1.14072
1.12244
1.07385
1.01722
0.973559
0.946065
0.929032
0.917872
0.910501
0.905478
0.902287
1.13272
1.14594
1.12461
1.07163
1.01235
0.968404
0.941655
0.925356
0.914735
0.907746
0.902968
0.899915
1.13785
1.15138
1.1265
1.06877
1.00689
0.962907
0.937075
0.921584
0.911533
0.904943
0.900414
0.897498
1.14335
1.15702
1.128
1.06518
1.00082
0.957074
0.932339
0.917724
0.908272
0.902094
0.897818
0.895039
1.14927
1.16285
1.12903
1.06076
0.994095
0.950916
0.92746
0.913782
0.904955
0.899202
0.895181
0.892536
1.15565
1.16883
1.12945
1.05543
0.986702
0.944451
0.922455
0.909769
0.901589
0.896271
0.892504
0.889992
1.16255
1.17489
1.12913
1.04908
0.978625
0.937704
0.917342
0.905693
0.898178
0.893304
0.889788
0.887406
1.17002
1.18098
1.12791
1.0416
0.969865
0.930711
0.912146
0.901566
0.89473
0.890304
0.887036
0.88478
1.17813
1.18698
1.1256
1.0329
0.960438
0.923513
0.906888
0.897399
0.891251
0.887276
0.884249
0.882114
1.18695
1.19277
1.12199
1.02289
0.95038
0.916163
0.901594
0.893201
0.887748
0.884222
0.881429
0.87941
1.19653
1.19816
1.11686
1.0115
0.939749
0.90872
0.89629
0.888986
0.884226
0.881148
0.878577
0.87667
1.20696
1.20294
1.10994
0.998673
0.92863
0.90125
0.891002
0.884763
0.880695
0.878058
0.875697
0.873896
1.21829
1.20682
1.10097
0.984392
0.917138
0.893827
0.885753
0.880544
0.877161
0.874956
0.872791
0.87109
1.23057
1.20945
1.08966
0.96869
0.905417
0.886524
0.880568
0.876339
0.87363
0.871846
0.869864
0.868255
1.24383
1.2104
1.07573
0.951661
0.893639
0.879412
0.875462
0.872157
0.87011
0.868736
0.866924
0.865396
1.25806
1.20912
1.05891
0.933481
0.882004
0.872562
0.870455
0.868007
0.866606
0.865625
0.86397
0.862503
1.27318
1.20496
1.03896
0.914421
0.87072
0.86602
0.865552
0.863902
0.863144
0.862558
0.861057
0.859623
1.28904
1.19711
1.01574
0.894877
0.860022
0.85984
0.86075
0.859808
0.859655
0.859423
0.858062
0.856648
1.30529
1.18461
0.989247
0.875312
0.850044
0.854022
0.856138
0.855932
0.85645
0.856607
0.855342
0.85382
1.32143
1.16632
0.959816
0.856509
0.841078
0.848387
0.851214
0.851558
0.85267
0.853302
0.852226
0.85068
1.33648
1.14083
0.927882
0.838669
0.833523
0.844137
0.847787
0.84876
0.850356
0.851179
0.849932
0.848005
1.34929
1.10731
0.896538
0.822068
0.824363
0.836789
0.841247
0.843444
0.846344
0.847997
0.846923
0.844723
1.35622
1.06142
0.870055
0.815596
0.824159
0.835987
0.839155
0.841055
0.844266
0.846232
0.845158
0.84275
1.35877
0.989144
0.819765
0.791224
0.813231
0.830521
0.836093
0.83941
0.843506
0.845923
0.845052
0.842738
0.996011
0.996129
0.99678
0.997312
0.997431
0.997209
0.996913
0.996769
0.996831
0.997011
0.997194
0.99732
0.996454
0.996448
0.996913
0.997313
0.997392
0.997197
0.996941
0.996813
0.996865
0.997027
0.997199
0.997323
0.996928
0.996755
0.996983
0.997232
0.997294
0.997167
0.996982
0.996878
0.996912
0.997045
0.997198
0.997319
0.997249
0.996939
0.996987
0.997146
0.997228
0.99718
0.997057
0.996965
0.99697
0.997067
0.997197
0.997311
0.997416
0.997039
0.996998
0.997121
0.997228
0.997229
0.997138
0.99704
0.997015
0.997078
0.997189
0.997296
0.997509
0.99713
0.997058
0.997159
0.997263
0.997272
0.997187
0.997083
0.997039
0.997082
0.997178
0.997279
0.997598
0.997241
0.997151
0.997216
0.997291
0.99729
0.997209
0.99711
0.997062
0.997092
0.997175
0.997267
0.9977
0.997361
0.997244
0.997266
0.997308
0.997297
0.997225
0.997138
0.99709
0.997107
0.997174
0.997256
0.997796
0.997464
0.99732
0.997304
0.99732
0.997304
0.997242
0.997163
0.997113
0.997118
0.997171
0.997242
0.997872
0.997543
0.997381
0.997338
0.997336
0.997315
0.997256
0.997182
0.99713
0.997126
0.997167
0.997231
0.997924
0.997605
0.997432
0.997372
0.997353
0.997324
0.997266
0.997194
0.997142
0.997133
0.997166
0.997222
0.997962
0.997656
0.997479
0.997403
0.997369
0.997331
0.997272
0.997203
0.997152
0.997139
0.997164
0.997211
0.997993
0.997699
0.997518
0.997429
0.997381
0.997335
0.997276
0.99721
0.99716
0.997143
0.99716
0.997198
0.998018
0.997734
0.99755
0.99745
0.99739
0.997339
0.997279
0.997215
0.997165
0.997144
0.997154
0.997185
0.998036
0.997761
0.997574
0.997465
0.997398
0.997341
0.99728
0.997217
0.997167
0.997142
0.997146
0.997172
0.998048
0.99778
0.997593
0.997478
0.997404
0.997343
0.99728
0.997216
0.997165
0.997137
0.997137
0.997159
0.998053
0.997794
0.997607
0.997487
0.997407
0.997341
0.997276
0.997212
0.99716
0.997131
0.997129
0.997148
0.998056
0.997804
0.997618
0.997494
0.997408
0.997337
0.99727
0.997205
0.997153
0.997124
0.99712
0.997138
0.998055
0.99781
0.997624
0.997496
0.997405
0.997331
0.997261
0.997197
0.997145
0.997117
0.997112
0.997128
0.998053
0.997813
0.997626
0.997495
0.9974
0.997322
0.997252
0.997188
0.997137
0.997109
0.997103
0.997118
0.998047
0.997811
0.997624
0.99749
0.997392
0.997312
0.997241
0.997178
0.997128
0.9971
0.997093
0.997106
0.998039
0.997806
0.997619
0.997483
0.997382
0.997302
0.99723
0.997168
0.997119
0.99709
0.997083
0.997094
0.998027
0.997798
0.997611
0.997474
0.997372
0.99729
0.997219
0.997156
0.997108
0.997079
0.99707
0.997079
0.998013
0.997787
0.997602
0.997464
0.997361
0.997279
0.997207
0.997144
0.997095
0.997066
0.997055
0.997062
0.997997
0.997775
0.997591
0.997453
0.997349
0.997266
0.997194
0.997131
0.997081
0.99705
0.997037
0.997043
0.99798
0.997762
0.99758
0.997441
0.997337
0.997253
0.99718
0.997115
0.997065
0.997032
0.997018
0.997022
0.997962
0.997749
0.997567
0.997429
0.997323
0.997238
0.997163
0.997098
0.997046
0.997012
0.996997
0.997
0.997944
0.997734
0.997554
0.997415
0.997308
0.997221
0.997145
0.997078
0.997025
0.996991
0.996975
0.996977
0.997925
0.997719
0.99754
0.9974
0.997291
0.997202
0.997125
0.997057
0.997003
0.996967
0.996951
0.996953
0.997906
0.997703
0.997524
0.997382
0.997272
0.997181
0.997102
0.997034
0.996979
0.996943
0.996926
0.996928
0.997885
0.997685
0.997506
0.997363
0.99725
0.997158
0.997078
0.997009
0.996954
0.996918
0.9969
0.996902
0.997864
0.997665
0.997486
0.997341
0.997226
0.997133
0.997052
0.996983
0.996927
0.996891
0.996874
0.996876
0.997841
0.997644
0.997464
0.997317
0.9972
0.997106
0.997025
0.996955
0.9969
0.996864
0.996846
0.996849
0.997817
0.997621
0.99744
0.997291
0.997172
0.997078
0.996997
0.996927
0.996872
0.996836
0.996818
0.996821
0.997791
0.997595
0.997413
0.997262
0.997142
0.997047
0.996966
0.996897
0.996842
0.996806
0.996789
0.996793
0.997765
0.997569
0.997385
0.997232
0.997111
0.997016
0.996935
0.996867
0.996812
0.996777
0.99676
0.996764
0.997737
0.99754
0.997355
0.9972
0.997078
0.996982
0.996902
0.996834
0.99678
0.996745
0.99673
0.996735
0.997708
0.997511
0.997324
0.997167
0.997044
0.996948
0.996868
0.996801
0.996748
0.996714
0.996699
0.996705
0.997679
0.99748
0.997291
0.997132
0.997008
0.996912
0.996833
0.996766
0.996714
0.996681
0.996667
0.996674
0.997649
0.997448
0.997256
0.997095
0.99697
0.996875
0.996796
0.996731
0.996679
0.996647
0.996635
0.996643
0.997618
0.997415
0.99722
0.997057
0.996931
0.996836
0.996758
0.996693
0.996643
0.996612
0.996601
0.99661
0.997587
0.99738
0.997183
0.997018
0.996892
0.996796
0.996719
0.996655
0.996606
0.996576
0.996566
0.996576
0.997554
0.997345
0.997145
0.996977
0.99685
0.996755
0.996679
0.996615
0.996567
0.996538
0.996529
0.99654
0.997521
0.997309
0.997106