/*--------------------------------*- C++ -*----------------------------------*\
  =========                 |
  \\      /  F ield         | OpenFOAM: The Open Source CFD Toolbox
   \\    /   O peration     | Website:  https://openfoam.org
    \\  /    A nd           | Version:  6.0
     \\/     M anipulation  |
\*---------------------------------------------------------------------------*/
FoamFile
{
    version     2.0;
    format      ascii;
    class       surfaceScalarField;
    location    "1.6";
    object      phi;
}
// * * * * * * * * * * * * * * * * * * * * * * * * * * * * * * * * * * * * * //

dimensions      [0 3 -1 0 0 0 0];

internalField   nonuniform List<scalar> 
47678
(
2.98125e-05
0.00388593
1.8794e-09
5.98494e-05
0.00381842
8.91152e-05
0.00368582
0.000116964
0.00349015
0.000142855
0.00323481
0.000166313
0.00292427
0.000186916
0.0025639
0.000204296
0.0021599
0.000218146
0.00171927
0.00022822
0.00124953
0.000234337
0.000759531
0.000260916
0.000236972
2.96241e-05
0.00385631
1.94226e-09
5.94707e-05
0.00378857
8.85507e-05
0.00365674
0.000116222
0.00346248
0.000141948
0.00320909
0.000165255
0.00290097
0.000185725
0.00254344
0.000202994
0.00214264
0.000216756
0.00170552
0.000226762
0.00123954
0.000232941
0.000753368
0.000258235
0.00023565
2.94362e-05
0.00382687
1.80216e-09
5.90937e-05
0.00375892
8.79896e-05
0.00362785
0.000115485
0.00343499
0.000141047
0.00318353
0.000164205
0.00287781
0.000184544
0.0025231
0.000201703
0.00212549
0.000215378
0.00169185
0.000225315
0.0012296
0.000231473
0.000747209
0.000255571
0.000234126
2.92494e-05
0.00379762
1.64519e-09
5.8719e-05
0.00372945
8.74321e-05
0.00359914
0.000114753
0.00340767
0.000140152
0.00315814
0.000163162
0.00285481
0.00018337
0.0025029
0.000200419
0.00210844
0.000214008
0.00167827
0.000223881
0.00121974
0.000229987
0.000741117
0.00025303
0.000232555
2.90638e-05
0.00376856
1.23743e-09
5.83469e-05
0.00370017
8.68781e-05
0.00357061
0.000114025
0.00338052
0.000139262
0.0031329
0.000162124
0.00283195
0.000182203
0.00248282
0.000199143
0.00209151
0.000212646
0.00166476
0.000222457
0.00120992
0.000228508
0.000735063
0.000250525
0.000231002
2.88795e-05
0.00373968
7.82899e-10
5.79771e-05
0.00367107
8.63276e-05
0.00354227
0.000113302
0.00335355
0.000138377
0.00310783
0.000161093
0.00280924
0.000181044
0.00246288
0.000197875
0.00207468
0.000211293
0.00165135
0.000221044
0.00120018
0.000227045
0.000729075
0.000248116
0.00022948
2.86964e-05
0.00371098
2.96598e-10
5.76097e-05
0.00364216
8.57805e-05
0.0035141
0.000112583
0.00332675
0.000137498
0.00308292
0.000160069
0.00278667
0.000179892
0.00244305
0.000196616
0.00205796
0.000209949
0.00163802
0.000219642
0.00119049
0.000225598
0.000723114
0.000245725
0.000227981
2.85145e-05
0.00368247
-2.41436e-10
5.72446e-05
0.00361343
8.52366e-05
0.00348611
0.000111868
0.00330012
0.000136624
0.00305817
0.000159051
0.00276424
0.000178748
0.00242336
0.000195365
0.00204135
0.000208614
0.00162478
0.000218249
0.00118086
0.000224165
0.000717212
0.000243418
0.000226497
2.83338e-05
0.00365413
-7.77371e-10
5.68817e-05
0.00358488
8.4696e-05
0.00345829
0.000111158
0.00327366
0.000135756
0.00303357
0.00015804
0.00274196
0.000177611
0.00240379
0.000194122
0.00202483
0.000207288
0.00161161
0.000216866
0.00117128
0.000222741
0.000711331
0.000241125
0.000225028
2.81543e-05
0.00362598
-1.33275e-09
5.65212e-05
0.00355651
8.41586e-05
0.00343066
0.000110452
0.00324737
0.000134893
0.00300913
0.000157035
0.00271982
0.000176481
0.00238435
0.000192888
0.00200843
0.00020597
0.00159854
0.00021549
0.00116177
0.000221328
0.000705505
0.000238905
0.000223573
2.79759e-05
0.00359801
-1.91221e-09
5.61627e-05
0.00352833
8.36244e-05
0.0034032
0.00010975
0.00322124
0.000134035
0.00298485
0.000156036
0.00269782
0.000175358
0.00236503
0.000191661
0.00199213
0.00020466
0.00158553
0.000214124
0.0011523
0.000219924
0.000699699
0.000236688
0.000222133
2.77987e-05
0.00357021
-2.51742e-09
5.58065e-05
0.00350032
8.30934e-05
0.00337591
0.000109053
0.00319529
0.000133183
0.00296072
0.000155043
0.00267596
0.000174243
0.00234583
0.000190442
0.00197593
0.00020336
0.00157262
0.000212766
0.0011429
0.000218529
0.000693947
0.000234535
0.000220705
2.76225e-05
0.00354259
-3.14191e-09
5.54523e-05
0.00347249
8.25655e-05
0.0033488
0.000108359
0.00316949
0.000132336
0.00293674
0.000154057
0.00265424
0.000173135
0.00232675
0.000189231
0.00195984
0.000202067
0.00155979
0.000211416
0.00113355
0.000217143
0.000688214
0.000232379
0.000219289
2.74474e-05
0.00351515
-3.73796e-09
5.51002e-05
0.00344484
8.20407e-05
0.00332186
0.00010767
0.00314387
0.000131494
0.00291292
0.000153077
0.00263266
0.000172034
0.0023078
0.000188028
0.00194385
0.000200783
0.00154704
0.000210075
0.00112427
0.000215766
0.000682534
0.000230281
0.000217884
2.72732e-05
0.00348788
-4.23825e-09
5.47502e-05
0.00341736
8.1519e-05
0.00329509
0.000106985
0.0031184
0.000130658
0.00288925
0.000152104
0.00261121
0.00017094
0.00228897
0.000186833
0.00192795
0.000199508
0.00153436
0.000208743
0.00111503
0.000214398
0.000676872
0.000228174
0.00021649
2.71e-05
0.00346078
-4.54097e-09
5.44021e-05
0.00339006
8.10005e-05
0.00326849
0.000106305
0.0030931
0.000129827
0.00286573
0.000151136
0.00258991
0.000169853
0.00227025
0.000185646
0.00191216
0.000198241
0.00152177
0.000207419
0.00110586
0.000213038
0.000671263
0.000226123
0.000215106
2.69278e-05
0.00343386
-4.53994e-09
5.40561e-05
0.00336293
8.04852e-05
0.00324206
0.000105628
0.00306795
0.000129001
0.00284235
0.000150175
0.00256873
0.000168773
0.00225165
0.000184466
0.00189647
0.000196982
0.00150925
0.000206104
0.00109673
0.000211688
0.000665672
0.00022406
0.000213733
2.67564e-05
0.00340711
-4.14267e-09
5.37122e-05
0.00333598
7.9973e-05
0.0032158
0.000104956
0.00304297
0.00012818
0.00281913
0.00014922
0.0025477
0.0001677
0.00223318
0.000183294
0.00188088
0.000195731
0.00149682
0.000204796
0.00108767
0.000210345
0.000660132
0.00022205
0.000212369
2.6586e-05
0.00338052
-3.28778e-09
5.33702e-05
0.00330919
7.94639e-05
0.00318971
0.000104288
0.00301815
0.000127365
0.00279606
0.000148271
0.00252679
0.000166634
0.00221481
0.00018213
0.00186538
0.000194488
0.00148446
0.000203498
0.00107866
0.000209012
0.000654611
0.000220026
0.000211015
2.64165e-05
0.00335411
-1.96469e-09
5.30303e-05
0.00328258
7.8958e-05
0.00316378
0.000103625
0.00299348
0.000126555
0.00277313
0.000147329
0.00250602
0.000165575
0.00219657
0.000180973
0.00184999
0.000193254
0.00147219
0.000202207
0.00106971
0.000207687
0.000649141
0.000218055
0.00020967
2.62479e-05
0.00332786
-2.14964e-10
5.26923e-05
0.00325614
7.84552e-05
0.00313802
0.000102965
0.00296897
0.00012575
0.00275034
0.000146392
0.00248537
0.000164523
0.00217844
0.000179824
0.00183468
0.000192027
0.00145998
0.000200925
0.00106081
0.00020637
0.000643687
0.000216069
0.000208335
2.60802e-05
0.00330178
1.88152e-09
5.23564e-05
0.00322986
7.79555e-05
0.00311242
0.00010231
0.00294462
0.00012495
0.00272771
0.000145461
0.00246486
0.000163478
0.00216042
0.000178682
0.00181949
0.000190808
0.00144786
0.000199651
0.00105197
0.000205062
0.000638286
0.000214135
0.000207008
2.59134e-05
0.00327586
4.21532e-09
5.20226e-05
0.00320375
7.7459e-05
0.00308698
0.000101659
0.00292042
0.000124155
0.00270521
0.000144537
0.00244448
0.000162439
0.00214252
0.000177547
0.00180437
0.000189597
0.0014358
0.000198385
0.00104318
0.000203762
0.000632901
0.000212184
0.000205691
2.57475e-05
0.00325011
6.68128e-09
5.16907e-05
0.00317781
7.69655e-05
0.00306171
0.000101011
0.00289637
0.000123365
0.00268286
0.000143618
0.00242423
0.000161407
0.00212473
0.00017642
0.00178937
0.000188394
0.00142383
0.000197127
0.00103445
0.00020247
0.000627567
0.000210287
0.000204383
2.55825e-05
0.00322452
9.18775e-09
5.13609e-05
0.00315203
7.64751e-05
0.0030366
0.000100368
0.00287248
0.00012258
0.00266064
0.000142705
0.0024041
0.000160382
0.00210705
0.0001753
0.00177444
0.000187199
0.00141193
0.000195877
0.00102577
0.000201187
0.00062225
0.000208373
0.000203083
2.54184e-05
0.00319909
1.16756e-08
5.1033e-05
0.00312642
7.59877e-05
0.00301164
9.97295e-05
0.00284874
0.000121801
0.00263858
0.000141798
0.00238411
0.000159363
0.00208949
0.000174187
0.00175963
0.000186011
0.00140011
0.000194635
0.00101715
0.000199911
0.000616983
0.000206511
0.000201792
2.52553e-05
0.00317382
1.41159e-08
5.07072e-05
0.00310096
7.55034e-05
0.00298684
9.90946e-05
0.00282515
0.000121026
0.00261664
0.000140896
0.00236424
0.000158351
0.00207203
0.000173081
0.00174489
0.000184831
0.00138836
0.000193401
0.00100857
0.000198644
0.000611731
0.00020463
0.00020051
2.50931e-05
0.00314871
1.65084e-08
5.03833e-05
0.00307567
7.5022e-05
0.00296221
9.84637e-05
0.00280171
0.000120256
0.00259485
0.000140001
0.00234449
0.000157345
0.00205469
0.000171983
0.00173026
0.000183659
0.00137669
0.000192175
0.00100006
0.000197385
0.000606531
0.0002028
0.000199236
2.49318e-05
0.00312376
1.88655e-08
5.00614e-05
0.00305054
7.45437e-05
0.00293772
9.78367e-05
0.00277841
0.000119491
0.0025732
0.000139111
0.00232487
0.000156346
0.00203746
0.000170891
0.00171571
0.000182494
0.00136508
0.000190957
0.000991595
0.000196134
0.000601345
0.000200952
0.00019797
2.47714e-05
0.00309896
2.12068e-08
4.97414e-05
0.00302558
7.40684e-05
0.0029134
9.72137e-05
0.00275527
0.000118731
0.00255168
0.000138227
0.00230538
0.000155353
0.00202033
0.000169807
0.00170126
0.000181336
0.00135356
0.000189746
0.000983192
0.000194891
0.00059621
0.000199153
0.000196713
2.4612e-05
0.00307433
2.35418e-08
4.94235e-05
0.00300076
7.3596e-05
0.00288922
9.65946e-05
0.00273227
0.000117976
0.0025303
0.000137348
0.002286
0.000154366
0.00200331
0.000168729
0.00168689
0.000180186
0.00134209
0.000188543
0.000974828
0.000193655
0.000591089
0.000197336
0.000195464
2.44535e-05
0.00304985
2.58714e-08
4.91075e-05
0.00297611
7.31265e-05
0.00286521
9.59794e-05
0.00270942
0.000117225
0.00250905
0.000136476
0.00226675
0.000153386
0.00198641
0.000167658
0.00167262
0.000179043
0.00133071
0.000187348
0.00096653
0.000192428
0.000586018
0.000195564
0.000194222
2.4296e-05
0.00302552
2.81787e-08
4.87934e-05
0.00295161
7.266e-05
0.00284134
9.53681e-05
0.00268671
0.00011648
0.00248794
0.000135608
0.00224762
0.000152412
0.0019696
0.000166594
0.00165844
0.000177908
0.0013194
0.000186161
0.00095827
0.000191208
0.000580961
0.000193773
0.000192989
2.41394e-05
0.00300135
3.04371e-08
4.84813e-05
0.00292727
7.21965e-05
0.00281762
9.47607e-05
0.00266415
0.000115739
0.00246697
0.000134746
0.00222862
0.000151444
0.0019529
0.000165537
0.00164435
0.00017678
0.00130816
0.000184981
0.000950076
0.000189996
0.000575954
0.000192027
0.000191764
2.39838e-05
0.00297734
3.26089e-08
4.81711e-05
0.00290308
7.17358e-05
0.00279406
9.41571e-05
0.00264172
0.000115002
0.00244612
0.00013389
0.00220973
0.000150483
0.00193631
0.000164487
0.00163034
0.000175659
0.00129698
0.000183808
0.00094192
0.000188792
0.00057096
0.000190261
0.000190546
2.38291e-05
0.00295347
3.46568e-08
4.78629e-05
0.00287905
7.12781e-05
0.00277064
9.35573e-05
0.00261945
0.000114271
0.00242541
0.000133039
0.00219096
0.000149527
0.00191982
0.000163443
0.00161643
0.000174545
0.00128588
0.000182643
0.000933828
0.000187595
0.000566016
0.000188537
0.000189337
2.36754e-05
0.00292976
3.65434e-08
4.75567e-05
0.00285517
7.08232e-05
0.00274738
9.29614e-05
0.00259731
0.000113544
0.00240482
0.000132194
0.00217231
0.000148578
0.00190344
0.000162407
0.00160259
0.000173438
0.00127485
0.000181485
0.000925774
0.000186406
0.000561084
0.000186792
0.000188135
2.35227e-05
0.0029062
3.82435e-08
4.72523e-05
0.00283144
7.03713e-05
0.00272426
9.23693e-05
0.00257531
0.000112822
0.00238437
0.000131354
0.00215378
0.000147635
0.00188716
0.000161376
0.00158886
0.000172339
0.00126389
0.000180335
0.000917783
0.000185225
0.000556202
0.000185089
0.000186942
2.3371e-05
0.00288279
3.97402e-08
4.69499e-05
0.00280786
6.99222e-05
0.00270128
9.17809e-05
0.00255345
0.000112104
0.00236405
0.000130519
0.00213536
0.000146697
0.00187098
0.000160352
0.0015752
0.000171246
0.00125299
0.000179192
0.00090983
0.000184051
0.000551332
0.000183365
0.000185755
2.32203e-05
0.00285953
4.10333e-08
4.66495e-05
0.00278443
6.94761e-05
0.00267846
9.11964e-05
0.00253173
0.000111391
0.00234385
0.00012969
0.00211706
0.000145766
0.0018549
0.000159335
0.00156163
0.00017016
0.00124217
0.000178056
0.000901939
0.000182884
0.000546512
0.000181683
0.000184577
2.30705e-05
0.00283641
4.21307e-08
4.6351e-05
0.00276115
6.90327e-05
0.00265577
9.06155e-05
0.00251015
0.000110682
0.00232378
0.000128866
0.00209887
0.000144841
0.00183893
0.000158324
0.00154814
0.000169081
0.00123141
0.000176928
0.000894086
0.000181725
0.000541703
0.00017998
0.000183406
2.29218e-05
0.00281345
4.3053e-08
4.60544e-05
0.00273802
6.85923e-05
0.00263324
9.00384e-05
0.0024887
0.000109979
0.00230385
0.000128048
0.00208081
0.000143921
0.00182306
0.00015732
0.00153475
0.000168009
0.00122072
0.000175806
0.000886294
0.000180573
0.000536943
0.000178319
0.000182242
2.2774e-05
0.00279063
4.38209e-08
4.57597e-05
0.00271503
6.81547e-05
0.00261084
8.94651e-05
0.00246739
0.000109279
0.00228403
0.000127234
0.00206285
0.000143008
0.00180728
0.000156322
0.00152143
0.000166944
0.0012101
0.000174692
0.000878539
0.000179429
0.000532194
0.000176637
0.000181086
2.26272e-05
0.00276796
4.44582e-08
4.54669e-05
0.00269219
6.77199e-05
0.00258859
8.88954e-05
0.00244621
0.000108584
0.00226434
0.000126426
0.00204501
0.0001421
0.00179161
0.000155331
0.0015082
0.000165886
0.00119955
0.000173585
0.000870845
0.000178292
0.000527494
0.000174998
0.000179938
2.24815e-05
0.00274543
4.49801e-08
4.51761e-05
0.0026695
6.72879e-05
0.00256648
8.83294e-05
0.00242517
0.000107894
0.00224478
0.000125623
0.00202728
0.000141198
0.00177603
0.000154345
0.00149505
0.000164834
0.00118905
0.000172485
0.000863186
0.000177162
0.000522804
0.000173338
0.000178797
2.23367e-05
0.00272305
4.53996e-08
4.48872e-05
0.00264695
6.68588e-05
0.00254451
8.7767e-05
0.00240426
0.000107208
0.00222534
0.000124825
0.00200966
0.000140302
0.00176055
0.000153366
0.00148199
0.000163789
0.00117863
0.000171392
0.000855589
0.000176039
0.000518162
0.000171722
0.000177663
2.2193e-05
0.00270081
4.57201e-08
4.46001e-05
0.00262454
6.64324e-05
0.00252267
8.72083e-05
0.00238349
0.000106526
0.00220602
0.000124032
0.00199215
0.000139412
0.00174517
0.000152394
0.001469
0.000162751
0.00116827
0.000170306
0.000848026
0.000174923
0.000513528
0.000170085
0.000176537
2.20502e-05
0.00267871
4.59465e-08
4.4315e-05
0.00260228
6.60088e-05
0.00250098
8.66531e-05
0.00236284
0.000105849
0.00218682
0.000123244
0.00197476
0.000138527
0.00172989
0.000151427
0.0014561
0.000161719
0.00115798
0.000169226
0.000840523
0.000173815
0.000508941
0.000168493
0.000175417
2.19085e-05
0.00265676
4.60818e-08
4.40317e-05
0.00258015
6.5588e-05
0.00247942
8.61016e-05
0.00234233
0.000105176
0.00216775
0.000122461
0.00195747
0.000137648
0.0017147
0.000150466
0.00144328
0.000160694
0.00114775
0.000168154
0.000833055
0.000172713
0.000504365
0.000166882
0.000174306
2.17677e-05
0.00263494
4.61398e-08
4.37504e-05
0.00255817
6.51699e-05
0.002458
8.55536e-05
0.00232195
0.000104507
0.00214879
0.000121684
0.0019403
0.000136774
0.00169961
0.000149512
0.00143055
0.000159675
0.00113759
0.000167088
0.000825647
0.000171619
0.000499835
0.000165315
0.000173201
2.16279e-05
0.00261327
4.61406e-08
4.34708e-05
0.00253633
6.47545e-05
0.00243672
8.50091e-05
0.00230169
0.000103843
0.00212996
0.000120911
0.00192322
0.000135906
0.00168461
0.000148564
0.00141788
0.000158663
0.00112748
0.000166029
0.000818272
0.000170531
0.000495314
0.000163728
0.000172103
2.14891e-05
0.00259173
4.61192e-08
4.31932e-05
0.00251462
6.43418e-05
0.00241557
8.44682e-05
0.00228156
0.000103183
0.00211124
0.000120143
0.00190627
0.000135043
0.00166971
0.000147622
0.00140531
0.000157657
0.00111745
0.000164977
0.000810956
0.000169451
0.000490839
0.000162185
0.000171013
2.13512e-05
0.00257033
4.61163e-08
4.29173e-05
0.00249306
6.39318e-05
0.00239455
8.39307e-05
0.00226156
0.000102527
0.00209264
0.00011938
0.00188941
0.000134186
0.0016549
0.000146685
0.0013928
0.000156658
0.00110747
0.000163931
0.000803674
0.000168377
0.000486375
0.000160624
0.00016993
2.12143e-05
0.00254907
4.6181e-08
4.26433e-05
0.00247163
6.35244e-05
0.00237367
8.33967e-05
0.00224169
0.000101875
0.00207417
0.000118622
0.00187267
0.000133335
0.00164019
0.000145755
0.00138039
0.000155664
0.00109757
0.000162893
0.00079645
0.000167311
0.000481956
0.000159103
0.000168853
2.10784e-05
0.00252794
4.63568e-08
4.23711e-05
0.00245033
6.31197e-05
0.00235292
8.28661e-05
0.00222194
0.000101228
0.0020558
0.000117868
0.00185602
0.000132489
0.00162557
0.00014483
0.00136804
0.000154678
0.00108772
0.00016186
0.000789258
0.000166251
0.000477549
0.000157563
0.000167783
2.09434e-05
0.00250695
4.66827e-08
4.21007e-05
0.00242918
6.27177e-05
0.00233231
8.23389e-05
0.00220232
0.000100584
0.00203756
0.00011712
0.00183949
0.000131648
0.00161104
0.000143912
0.00135578
0.000153697
0.00107793
0.000160835
0.000782124
0.000165198
0.000473187
0.000156061
0.000166721
2.08093e-05
0.0024861
4.71805e-08
4.18321e-05
0.00240815
6.23182e-05
0.00231182
8.18151e-05
0.00218283
9.99452e-05
0.00201943
0.000116376
0.00182305
0.000130812
0.0015966
0.000142999
0.00134359
0.000152723
0.0010682
0.000159816
0.000775022
0.000164151
0.000468836
0.000154537
0.000165665
2.06761e-05
0.00246537
4.78588e-08
4.15652e-05
0.00238727
6.19213e-05
0.00229146
8.12946e-05
0.00216345
9.93099e-05
0.00200141
0.000115637
0.00180673
0.000129982
0.00158226
0.000142092
0.00133148
0.000151755
0.00105854
0.000158803
0.000767977
0.000163112
0.00046453
0.00015305
0.000164615
2.05438e-05
0.00244478
4.87065e-08
4.13001e-05
0.00236651
6.15269e-05
0.00227123
8.07774e-05
0.0021442
9.86788e-05
0.00198351
0.000114903
0.0017905
0.000129157
0.001568
0.000141191
0.00131944
0.000150793
0.00104893
0.000157797
0.000760963
0.000162079
0.000460234
0.000151543
0.000163573
2.04124e-05
0.00242431
4.97022e-08
4.10367e-05
0.00234589
6.11351e-05
0.00225114
8.02636e-05
0.00212507
9.80516e-05
0.00196572
0.000114173
0.00177438
0.000128338
0.00155384
0.000140296
0.00130748
0.000149837
0.0010394
0.000156798
0.000754006
0.000161052
0.000455982
0.00015007
0.000162537
2.02818e-05
0.00240398
5.08126e-08
4.0775e-05
0.00232539
6.07458e-05
0.00223116
7.9753e-05
0.00210607
9.74284e-05
0.00194804
0.000113448
0.00175836
0.000127523
0.00153976
0.000139406
0.00129559
0.000148888
0.00102991
0.000155804
0.000747079
0.000160032
0.00045174
0.000148577
0.000161508
2.01521e-05
0.00238377
5.20048e-08
4.0515e-05
0.00230503
6.0359e-05
0.00221132
7.92457e-05
0.00208718
9.68092e-05
0.00193048
0.000112727
0.00174244
0.000126714
0.00152577
0.000138522
0.00128379
0.000147944
0.00102049
0.000154818
0.000740208
0.000159019
0.000447541
0.000147119
0.000160485
2.00233e-05
0.00236369
5.32449e-08
4.02567e-05
0.00228479
5.99746e-05
0.0021916
7.87416e-05
0.00206841
9.6194e-05
0.00191303
0.000112012
0.00172662
0.00012591
0.00151187
0.000137644
0.00127205
0.000147007
0.00101112
0.000153837
0.000733367
0.000158012
0.000443353
0.000145641
0.00015947
1.98952e-05
0.00234374
5.45083e-08
4e-05
0.00226469
5.95928e-05
0.00217201
7.82408e-05
0.00204976
9.55826e-05
0.00189569
0.0001113
0.0017109
0.000125111
0.00149806
0.000136771
0.00126039
0.000146075
0.00100181
0.000152863
0.000726581
0.000157012
0.000439204
0.000144201
0.00015846
1.9768e-05
0.00232392
5.57753e-08
3.9745e-05
0.00224471
5.92133e-05
0.00215254
7.77431e-05
0.00203123
9.49751e-05
0.00187845
0.000110594
0.00169528
0.000124317
0.00148433
0.000135904
0.0012488
0.00014515
0.000992559
0.000151895
0.000719825
0.000156019
0.000435065
0.000142739
0.000157458
1.96416e-05
0.00230422
5.70375e-08
3.94916e-05
0.00222486
5.88363e-05
0.0021332
7.72486e-05
0.00201282
9.43715e-05
0.00186133
0.000109891
0.00167976
0.000123528
0.0014707
0.000135042
0.00123729
0.00014423
0.000983373
0.000150934
0.000713124
0.000155031
0.000430966
0.000141319
0.000156462
1.9516e-05
0.00228464
5.82888e-08
3.92399e-05
0.00220514
5.84617e-05
0.00211397
7.67572e-05
0.00199452
9.37718e-05
0.00184431
0.000109193
0.00166434
0.000122745
0.00145714
0.000134186
0.00122584
0.000143317
0.000974234
0.000149978
0.000706451
0.000154051
0.000426877
0.000139878
0.000155473
1.93912e-05
0.00226519
5.95298e-08
3.89897e-05
0.00218554
5.80894e-05
0.00209487
7.62689e-05
0.00197635
9.31758e-05
0.00182741
0.0001085
0.00164902
0.000121966
0.00144368
0.000133336
0.00121447
0.000142409
0.000965162
0.000149029
0.000699833
0.000153076
0.000422827
0.00013848
0.00015449
1.92672e-05
0.00224586
6.07579e-08
3.87412e-05
0.00216607
5.77195e-05
0.00207589
7.57838e-05
0.00195828
9.25837e-05
0.00181061
0.000107811
0.00163378
0.000121192
0.00143029
0.00013249
0.00120317
0.000141507
0.000956137
0.000148086
0.000693243
0.000152108
0.000418786
0.000137059
0.000153514
1.9144e-05
0.00222665
6.19714e-08
3.84942e-05
0.00214672
5.7352e-05
0.00205704
7.53017e-05
0.00194033
9.19953e-05
0.00179391
0.000107127
0.00161865
0.000120424
0.001417
0.000131651
0.00119194
0.000140611
0.000947178
0.000147148
0.000686707
0.000151146
0.000414785
0.000135682
0.000152545
1.90215e-05
0.00220756
6.31622e-08
3.82487e-05
0.00212749
5.69868e-05
0.0020383
7.48227e-05
0.00192249
9.14107e-05
0.00177732
0.000106447
0.00160361
0.00011966
0.00140378
0.000130816
0.00118078
0.000139721
0.000938265
0.000146217
0.000680199
0.000150191
0.000410793
0.000134284
0.000151581
1.88997e-05
0.0021886
6.43213e-08
3.80048e-05
0.00210839
5.66239e-05
0.00201968
7.43467e-05
0.00190477
9.08298e-05
0.00176084
0.000105771
0.00158868
0.000118901
0.00139065
0.000129988
0.00116969
0.000138836
0.000929417
0.000145292
0.000673743
0.000149241
0.000406842
0.000132926
0.000150624
1.87787e-05
0.00216975
6.54341e-08
3.77625e-05
0.0020894
5.62633e-05
0.00200118
7.38737e-05
0.00188716
9.02525e-05
0.00174446
0.000105099
0.00157382
0.000118147
0.0013776
0.000129164
0.00115867
0.000137957
0.000920615
0.000144373
0.000667316
0.000148298
0.0004029
0.000131545
0.000149674
1.86585e-05
0.00215103
6.64884e-08
3.75216e-05
0.00207054
5.59049e-05
0.0019828
7.34038e-05
0.00186966
8.9679e-05
0.00172819
0.000104432
0.00155907
0.000117398
0.00136463
0.000128346
0.00114772
0.000137084
0.000911877
0.00014346
0.000660941
0.000147361
0.000398999
0.000130203
0.000148729
1.85389e-05
0.00213242
6.74698e-08
3.72823e-05
0.0020518
5.55489e-05
0.00196453
7.29368e-05
0.00185227
8.91092e-05
0.00171201
0.000103769
0.00154441
0.000116653
0.00135175
0.000127533
0.00113683
0.000136217
0.000903184
0.000142553
0.000654593
0.000146431
0.000395106
0.000128837
0.000147791
1.84201e-05
0.00211393
6.83703e-08
3.70444e-05
0.00203317
5.51951e-05
0.00194638
7.24729e-05
0.001835
8.8543e-05
0.00169594
0.000103111
0.00152984
0.000115914
0.00133894
0.000126725
0.00112602
0.000135355
0.000894555
0.000141652
0.000648297
0.000145506
0.000391254
0.000127511
0.000146859
1.83021e-05
0.00209555
6.91828e-08
3.68081e-05
0.00201467
5.48435e-05
0.00192834
7.20118e-05
0.00181783
8.79804e-05
0.00167997
0.000102456
0.00151536
0.000115179
0.00132622
0.000125923
0.00111527
0.000134498
0.00088597
0.000140757
0.000642028
0.000144587
0.00038741
0.000126157
0.000145933
1.81847e-05
0.0020773
6.99081e-08
3.65732e-05
0.00199628
5.44941e-05
0.00191042
7.15537e-05
0.00180077
8.74214e-05
0.0016641
0.000101806
0.00150098
0.000114449
0.00131357
0.000125125
0.00110459
0.000133648
0.000877448
0.000139867
0.00063581
0.000143675
0.000383606
0.000124844
0.000145012
1.80681e-05
0.00205916
7.05474e-08
3.63397e-05
0.00197801
5.4147e-05
0.00189261
7.10985e-05
0.00178382
8.6866e-05
0.00164833
0.00010116
0.00148668
0.000113723
0.001301
0.000124333
0.00109398
0.000132802
0.00086897
0.000138984
0.000629619
0.000142768
0.00037981
0.000123503
0.000144098
1.79521e-05
0.00204113
7.11082e-08
3.61078e-05
0.00195985
5.3802e-05
0.00187492
7.06463e-05
0.00176697
8.63141e-05
0.00163267
0.000100518
0.00147248
0.000113003
0.00128852
0.000123546
0.00108343
0.000131963
0.000860554
0.000138106
0.000623478
0.000141867
0.000376054
0.000122204
0.00014319
1.78369e-05
0.00202322
7.15957e-08
3.58773e-05
0.00194181
5.34593e-05
0.00185734
7.01969e-05
0.00175024
8.57658e-05
0.0016171
9.98807e-05
0.00145836
0.000112287
0.00127611
0.000122764
0.00107295
0.000131128
0.000852181
0.000137233
0.000617363
0.000140972
0.000372303
0.000120876
0.000142288
1.77224e-05
0.00200542
7.20185e-08
3.56482e-05
0.00192389
5.31187e-05
0.00183987
6.97504e-05
0.00173361
8.5221e-05
0.00160163
9.92471e-05
0.00144433
0.000111575
0.00126378
0.000121988
0.00106254
0.0001303
0.000843869
0.000136367
0.000611298
0.000140083
0.000368594
0.000119592
0.000141392
1.76085e-05
0.00198774
7.2381e-08
3.54205e-05
0.00190608
5.27802e-05
0.00182251
6.93067e-05
0.00171708
8.46798e-05
0.00158625
9.86177e-05
0.00143039
0.000110869
0.00125152
0.000121216
0.00105218
0.000129476
0.0008356
0.000135506
0.000605258
0.0001392
0.000364889
0.000118276
0.000140502
1.74954e-05
0.00197017
7.26899e-08
3.51943e-05
0.00188838
5.2444e-05
0.00180526
6.88659e-05
0.00170066
8.4142e-05
0.00157098
9.79923e-05
0.00141654
0.000110167
0.00123935
0.000120449
0.0010419
0.000128658
0.000827392
0.000134651
0.000599268
0.000138323
0.000361225
0.000117006
0.000139617
1.7383e-05
0.00195271
7.29488e-08
3.49695e-05
0.00187079
5.21098e-05
0.00178812
6.84279e-05
0.00168434
8.36077e-05
0.0015558
9.73709e-05
0.00140277
0.000109469
0.00122725
0.000119687
0.00103167
0.000127846
0.000819225
0.000133802
0.000593303
0.000137451
0.000357565
0.000115704
0.000138738
1.72712e-05
0.00193537
7.31653e-08
3.47461e-05
0.00185332
5.17778e-05
0.00177109
6.79927e-05
0.00166813
8.30768e-05
0.00154071
9.67536e-05
0.0013891
0.000108776
0.00121523
0.000118931
0.00102152
0.000127038
0.000811119
0.000132958
0.000587387
0.000136585
0.000353947
0.000114449
0.000137865
1.71602e-05
0.00191813
7.33464e-08
3.45241e-05
0.00183596
5.14479e-05
0.00175417
6.75603e-05
0.00165201
8.25494e-05
0.00152572
9.61403e-05
0.0013755
0.000108087
0.00120327
0.000118179
0.00101142
0.000126236
0.000803053
0.000132119
0.000581495
0.000135725
0.000350331
0.00011316
0.000136998
1.70499e-05
0.00190101
7.35061e-08
3.43035e-05
0.0018187
5.11201e-05
0.00173735
6.71307e-05
0.001636
8.20253e-05
0.00151083
9.5531e-05
0.001362
0.000107403
0.0011914
0.000117432
0.00100139
0.00012544
0.000795047
0.000131286
0.000575652
0.00013487
0.000346756
0.00011192
0.000136137
1.69402e-05
0.00188399
7.36591e-08
3.40843e-05
0.00180156
5.07944e-05
0.00172064
6.67039e-05
0.00162009
8.15047e-05
0.00149603
9.49256e-05
0.00134857
0.000106724
0.0011796
0.00011669
0.000991421
0.000124648
0.000787082
0.000130459
0.000569832
0.000134022
0.000343184
0.000110643
0.000135281
1.68312e-05
0.00186708
7.38275e-08
3.38665e-05
0.00178453
5.04708e-05
0.00170404
6.62798e-05
0.00160429
8.09875e-05
0.00148132
9.43242e-05
0.00133524
0.000106049
0.00116787
0.000115953
0.000981517
0.000123862
0.000779174
0.000129637
0.000564061
0.000133178
0.000339653
0.000109418
0.00013443
1.6723e-05
0.00185028
7.40325e-08
3.36501e-05
0.0017676
5.01493e-05
0.00168754
6.58585e-05
0.00158858
8.04736e-05
0.0014667
9.37267e-05
0.00132198
0.000105378
0.00115622
0.000115221
0.000971668
0.000123081
0.000771307
0.00012882
0.000558313
0.00013234
0.000336123
0.000108155
0.000133586
1.66154e-05
0.00183359
7.42988e-08
3.34351e-05
0.00175078
4.98298e-05
0.00167115
6.54399e-05
0.00157297
7.99631e-05
0.00145218
9.31332e-05
0.00130881
0.000104712
0.00114464
0.000114493
0.000961887
0.000122305
0.000763498
0.000128009
0.000552613
0.000131508
0.000332636
0.000106945
0.000132746
1.65085e-05
0.00181701
7.46465e-08
3.32215e-05
0.00173407
4.95124e-05
0.00165486
6.50241e-05
0.00155745
7.94559e-05
0.00143775
9.25435e-05
0.00129572
0.00010405
0.00113313
0.000113771
0.000952161
0.000121534
0.000755728
0.000127203
0.000546935
0.000130681
0.000329148
0.000105695
0.000131913
1.64023e-05
0.00180053
7.50942e-08
3.30092e-05
0.00171746
4.91971e-05
0.00163867
6.46109e-05
0.00154204
7.8952e-05
0.00142341
9.19577e-05
0.00128272
0.000103392
0.00112169
0.000113053
0.000942501
0.000120768
0.000748015
0.000126403
0.000541305
0.00012986
0.000325702
0.000104498
0.000131085
1.62968e-05
0.00178415
7.56519e-08
3.27983e-05
0.00170096
4.88838e-05
0.00162258
6.42004e-05
0.00152673
7.84514e-05
0.00140915
9.13757e-05
0.00126979
0.000102739
0.00111033
0.00011234
0.000932895
0.000120007
0.000740341
0.000125608
0.000535696
0.000129044
0.000322256
0.000103262
0.000130262
1.6192e-05
0.00176788
7.63252e-08
3.25888e-05
0.00168457
4.85725e-05
0.0016066
6.37926e-05
0.00151151
7.79541e-05
0.00139499
9.07975e-05
0.00125695
0.00010209
0.00109903
0.000111631
0.000923355
0.000119251
0.000732723
0.000124818
0.000530136
0.000128234
0.000318853
0.000102079
0.000129445
1.60878e-05
0.00175172
7.71101e-08
3.23807e-05
0.00166828
4.82633e-05
0.00159072
6.33875e-05
0.00149638
7.746e-05
0.00138092
9.02232e-05
0.00124418
0.000101445
0.00108781
0.000110927
0.000913868
0.000118501
0.000725144
0.000124033
0.000524595
0.000127429
0.000315447
0.000100855
0.000128633
1.59844e-05
0.00173565
7.79993e-08
3.21739e-05
0.00165209
4.79561e-05
0.00157494
6.2985e-05
0.00148136
7.69692e-05
0.00136693
8.96526e-05
0.0012315
0.000100805
0.00107666
0.000110228
0.000904446
0.000117755
0.00071762
0.000123254
0.000519103
0.000126629
0.000312085
9.96867e-05
0.000127827
1.58816e-05
0.00171969
7.8978e-08
3.19685e-05
0.001636
4.76509e-05
0.00155926
6.25852e-05
0.00146642
7.64816e-05
0.00135304
8.90858e-05
0.00121889
0.000100169
0.00106557
0.000109534
0.000895076
0.000117014
0.000710134
0.000122479
0.000513629
0.000125834
0.000308719
9.84753e-05
0.000127025
1.57795e-05
0.00170383
8.00317e-08
3.17645e-05
0.00162002
4.73477e-05
0.00154368
6.2188e-05
0.00145158
7.59972e-05
0.00133923
8.85228e-05
0.00120637
9.95368e-05
0.00105456
0.000108844
0.000885771
0.000116278
0.000702702
0.00012171
0.000508204
0.000125045
0.000305398
9.73204e-05
0.00012623
1.56781e-05
0.00168807
8.11425e-08
3.15617e-05
0.00160414
4.70465e-05
0.00152819
6.17934e-05
0.00143684
7.5516e-05
0.0013255
8.79634e-05
0.00119392
9.8909e-05
0.00104361
0.000108158
0.000876517
0.000115547
0.000695308
0.000120946
0.000502797
0.000124261
0.000302072
9.61212e-05
0.000125439
1.55773e-05
0.00167241
8.22956e-08
3.13604e-05
0.00158836
4.67473e-05
0.00151281
6.14014e-05
0.00142218
7.5038e-05
0.00131187
8.74078e-05