/*--------------------------------*- C++ -*----------------------------------*\
  =========                 |
  \\      /  F ield         | OpenFOAM: The Open Source CFD Toolbox
   \\    /   O peration     | Website:  https://openfoam.org
    \\  /    A nd           | Version:  6.0
     \\/     M anipulation  |
\*---------------------------------------------------------------------------*/
FoamFile
{
    version     2.0;
    format      ascii;
    class       volVectorField;
    location    "1.6";
    object      U;
}
// * * * * * * * * * * * * * * * * * * * * * * * * * * * * * * * * * * * * * //

dimensions      [0 1 -1 0 0 0 0];

internalField   nonuniform List<vector> 
34500
(
(0.999996 4.4303e-06 -4.63384e-17)
(0.99997 -8.85673e-06 -8.13611e-18)
(0.99992 -3.37717e-05 1.42221e-16)
(0.999853 -7.69154e-05 -1.07654e-16)
(0.99978 -0.00014096 3.35485e-17)
(0.999711 -0.000225329 -1.01455e-16)
(0.999657 -0.000324236 -1.00967e-16)
(0.999625 -0.000430464 8.6514e-17)
(0.999621 -0.000534152 1.07218e-16)
(0.999643 -0.000628984 -6.82754e-16)
(0.999689 -0.000706404 -1.03961e-15)
(0.999753 -0.000767919 1.26676e-16)
(0.999831 -0.000797986 4.33446e-16)
(0.999979 -0.000860999 -2.0681e-16)
(0.998808 -0.00137781 7.58738e-17)
(0.999992 1.59539e-05 3.2452e-17)
(0.999943 -1.63533e-05 9.76418e-17)
(0.999852 -6.87672e-05 7.17542e-17)
(0.999733 -0.000154586 -3.02174e-16)
(0.999603 -0.000278128 -5.05806e-16)
(0.999483 -0.000437079 -5.50326e-17)
(0.999392 -0.000619886 2.55455e-16)
(0.999343 -0.000812484 -6.77048e-16)
(0.999344 -0.000997802 -1.78556e-16)
(0.999393 -0.0011641 6.81043e-16)
(0.999485 -0.00129614 1.26113e-15)
(0.999612 -0.00139536 -6.28429e-16)
(0.999748 -0.001433 -9.82698e-16)
(1.00008 -0.00148554 -3.93854e-16)
(0.998822 -0.00195655 5.18038e-16)
(0.999989 2.83923e-05 1.04693e-17)
(0.999945 -1.82159e-05 -1.22923e-16)
(0.999866 -8.1183e-05 -1.25163e-16)
(0.999765 -0.000173742 4.55616e-16)
(0.999655 -0.000298881 -2.86112e-17)
(0.999556 -0.000453407 -1.63982e-16)
(0.999485 -0.000625666 9.77947e-17)
(0.999453 -0.000801804 3.8444e-16)
(0.999466 -0.000967073 2.36635e-19)
(0.999522 -0.00111122 -3.92667e-16)
(0.999617 -0.0012216 -7.27342e-16)
(0.999744 -0.00129927 4.13156e-16)
(0.99986 -0.00132047 2.24416e-16)
(1.00022 -0.00132635 1.64058e-16)
(0.999437 -0.00147072 -2.43406e-16)
(0.999984 4.07864e-05 -1.73576e-17)
(0.999948 -2.05995e-05 -9.02421e-18)
(0.999885 -9.40883e-05 4.83193e-17)
(0.999805 -0.000191929 -3.05349e-16)
(0.99972 -0.000315749 3.7215e-16)
(0.999645 -0.000462051 3.29841e-16)
(0.999594 -0.000620162 -3.99327e-16)
(0.999578 -0.00077754 -4.19716e-16)
(0.9996 -0.000922217 4.34714e-16)
(0.999659 -0.00104579 -4.70141e-16)
(0.99975 -0.00113881 -2.44173e-16)
(0.999873 -0.00120285 -3.84814e-16)
(0.999965 -0.00122322 5.41323e-16)
(1.00029 -0.00121187 -4.78989e-17)
(0.999825 -0.00129319 2.13967e-17)
(0.999977 5.31497e-05 -1.70464e-17)
(0.999942 -2.41719e-05 1.53324e-16)
(0.999884 -0.00011226 6.95522e-17)
(0.999811 -0.00022321 1.69735e-16)
(0.999736 -0.000357787 4.67355e-17)
(0.99967 -0.000512065 -1.58197e-16)
(0.999627 -0.000675605 1.02486e-16)
(0.999619 -0.00083602 2.66183e-16)
(0.999649 -0.000981864 -4.17431e-16)
(0.999715 -0.00110443 -2.30791e-16)
(0.999813 -0.00119489 1.00553e-15)
(0.999943 -0.00125438 6.3339e-16)
(1.00004 -0.0012738 -2.89173e-16)
(1.00032 -0.00124502 5.91026e-16)
(1.00005 -0.00129622 -5.86267e-16)
(0.999969 6.55379e-05 1.83551e-17)
(0.999934 -2.77717e-05 -9.48159e-17)
(0.999877 -0.000131446 -1.86335e-16)
(0.999808 -0.00025732 -5.29305e-17)
(0.999738 -0.000405218 1.09408e-16)
(0.999679 -0.000570505 -1.08807e-16)
(0.999644 -0.000742704 1.48118e-16)
(0.999644 -0.000909409 1.31129e-16)
(0.999682 -0.00105901 2.90847e-16)
(0.999759 -0.00118193 -1.00161e-16)
(0.999866 -0.00126888 2.85467e-18)
(1.00001 -0.00131988 -3.88776e-16)
(1.00011 -0.00133023 1.82833e-17)
(1.00036 -0.00127665 -4.67956e-16)
(1.00022 -0.00126332 7.4031e-17)
(0.99996 7.78062e-05 3.25601e-18)
(0.999925 -3.11316e-05 -3.55898e-17)
(0.999872 -0.000149666 -2.90187e-17)
(0.99981 -0.000288807 1.75724e-16)
(0.999749 -0.000447223 -2.20416e-16)
(0.999701 -0.000619432 2.75388e-16)
(0.999677 -0.000795178 -6.19031e-16)
(0.999687 -0.000962559 -3.69688e-16)
(0.999735 -0.00111047 -1.51515e-16)
(0.999821 -0.00122915 6.70897e-16)
(0.999937 -0.00130939 -7.67641e-16)
(1.00009 -0.00135026 2.97735e-16)
(1.0002 -0.00135256 4.55535e-16)
(1.00042 -0.00128179 -9.56984e-17)
(1.00035 -0.00122869 -1.20557e-16)
(0.999949 8.97946e-05 1.51189e-17)
(0.999916 -3.45887e-05 3.22882e-17)
(0.999868 -0.000167688 2.5028e-17)
(0.999813 -0.000319403 -1.50852e-16)
(0.999762 -0.00048726 3.28811e-16)
(0.999726 -0.000664871 -1.39557e-16)
(0.999714 -0.000842373 2.0148e-16)
(0.999736 -0.00100863 -1.46208e-16)
(0.999795 -0.0011536 3.97371e-16)
(0.99989 -0.0012679 1.77644e-16)
(1.00001 -0.00134299 2.44573e-16)
(1.00017 -0.00137713 -5.64618e-17)
(1.00029 -0.00137656 -5.03983e-16)
(1.00048 -0.00129869 1.13671e-15)
(1.00046 -0.00122828 1.86278e-16)
(0.999937 0.000101443 -1.12177e-17)
(0.999905 -3.83239e-05 9.89585e-17)
(0.999861 -0.000186205 1.50793e-16)
(0.999812 -0.000351011 1.11907e-16)
(0.999771 -0.000529287 -4.88589e-16)
(0.999745 -0.000713721 1.40934e-16)
(0.999745 -0.000894733 3.20618e-16)
(0.999778 -0.00106177 7.72209e-16)
(0.999846 -0.00120589 -3.85235e-16)
(0.99995 -0.0013182 8.99976e-17)
(1.00008 -0.00139089 4.48781e-16)
(1.00024 -0.00142121 -3.23477e-16)
(1.00037 -0.00141912 -1.53876e-16)
(1.00056 -0.00133645 -3.80392e-16)
(1.00056 -0.00124576 8.39384e-17)
(0.999924 0.000112735 4.06917e-17)
(0.999892 -4.22861e-05 -8.97393e-17)
(0.999851 -0.000205097 8.85249e-18)
(0.999808 -0.000383475 -1.10169e-16)
(0.999773 -0.000573163 4.10575e-16)
(0.999758 -0.000765963 7.95943e-17)
(0.999767 -0.000952407 2.70173e-16)
(0.999811 -0.00112218 -5.72899e-16)
(0.999889 -0.00126722 4.15725e-17)
(1 -0.00137897 -7.8647e-17)
(1.00014 -0.00145021 -1.39589e-16)
(1.00031 -0.00147694 4.41012e-17)
(1.00046 -0.00147097 5.91757e-16)
(1.00063 -0.00138064 -8.03516e-16)
(1.00067 -0.00126192 -2.69097e-16)
(0.99991 0.000123677 -2.62257e-17)
(0.999878 -4.63794e-05 3.52508e-17)
(0.999839 -0.000223996 -1.47523e-16)
(0.999801 -0.00041593 2.49934e-16)
(0.999774 -0.000617262 -3.6153e-16)
(0.999766 -0.000819044 -3.03034e-16)
(0.999786 -0.0010118 -3.38786e-16)
(0.99984 -0.00118521 3.91032e-17)
(0.999929 -0.00133173 -8.13872e-17)
(1.00005 -0.00144302 -4.24344e-16)
(1.0002 -0.00151228 -7.20796e-16)
(1.00038 -0.00153419 2.85663e-16)
(1.00054 -0.00152127 -3.28143e-16)
(1.00072 -0.00142018 9.06281e-16)
(1.0008 -0.00127181 5.36841e-17)
(0.999894 0.000134276 -2.45571e-17)
(0.999863 -5.05601e-05 -1.04236e-16)
(0.999827 -0.000242712 1.50734e-16)
(0.999794 -0.000447874 -2.34149e-16)
(0.999773 -0.00066057 7.68644e-17)
(0.999775 -0.000871276 4.54143e-16)
(0.999804 -0.0010705 5.53871e-17)
(0.999869 -0.00124776 -6.73385e-17)
(0.999969 -0.00139571 1.81505e-16)
(1.0001 -0.00150606 -1.56866e-16)
(1.00026 -0.00157229 -9.50414e-17)
(1.00045 -0.00158791 -6.67513e-17)
(1.00062 -0.00156565 -2.8697e-16)
(1.00081 -0.00145208 -6.20939e-16)
(1.00092 -0.00127667 1.24101e-17)
(0.999877 0.00014456 -2.17685e-18)
(0.999846 -5.48126e-05 1.405e-16)
(0.999814 -0.000261192 -2.21517e-16)
(0.999786 -0.000479155 8.34057e-17)
(0.999773 -0.000702716 -9.3559e-17)
(0.999784 -0.000921958 -1.54749e-16)
(0.999823 -0.0011274 -3.88911e-17)
(0.999899 -0.00130835 3.65007e-16)
(1.00001 -0.00145743 -6.30153e-16)
(1.00016 -0.00156623 4.20188e-16)
(1.00033 -0.0016284 2.20455e-16)
(1.00053 -0.00163657 1.84008e-16)
(1.00071 -0.00160364 7.49148e-16)
(1.0009 -0.00147742 7.29598e-16)
(1.00105 -0.00127994 5.4826e-16)
(0.999859 0.000154564 8.30405e-18)
(0.999829 -5.91323e-05 5.28779e-17)
(0.9998 -0.000279459 1.76063e-16)
(0.999778 -0.000509798 5.57691e-17)
(0.999774 -0.00074367 1.70637e-16)
(0.999794 -0.000970881 1.68049e-16)
(0.999844 -0.00118203 -1.18467e-17)
(0.999931 -0.00136627 4.92908e-17)
(1.00005 -0.00151603 9.37604e-16)
(1.00021 -0.00162272 -1.13892e-16)
(1.00039 -0.00168014 5.42057e-16)
(1.0006 -0.0016804 -7.3883e-16)
(1.0008 -0.00163673 1.36914e-16)
(1.00099 -0.00149922 -1.34403e-15)
(1.00117 -0.00128569 -6.16083e-16)
(0.99984 0.000164342 9.9407e-18)
(0.99981 -6.35139e-05 -1.17685e-16)
(0.999785 -0.000297562 1.54791e-16)
(0.99977 -0.000539938 -2.24101e-16)
(0.999775 -0.000783653 1.56833e-16)
(0.999805 -0.0010183 2.07164e-17)
(0.999866 -0.00123459 1.95004e-16)
(0.999965 -0.00142168 -2.59984e-16)
(1.0001 -0.00157177 -8.38939e-16)
(1.00027 -0.0016761 2.49229e-16)
(1.00046 -0.00172869 -5.6009e-16)
(1.00068 -0.00172145 1.12801e-16)
(1.00089 -0.00166809 -4.901e-16)
(1.00108 -0.00152162 2.65572e-16)
(1.00128 -0.0012975 -1.08448e-16)
(0.99982 0.000173951 3.32416e-17)
(0.99979 -6.79555e-05 7.18883e-17)
(0.999769 -0.000315592 -3.58956e-16)
(0.999761 -0.000569829 2.88378e-16)
(0.999775 -0.00082316 -2.79946e-16)
(0.999816 -0.00106495 -3.72951e-16)
(0.999889 -0.00128609 -3.82904e-16)
(1 -0.00147581 3.37562e-16)
(1.00015 -0.00162616 7.18771e-16)
(1.00033 -0.00172833 1.62989e-16)
(1.00053 -0.00177659 9.4689e-17)
(1.00076 -0.00176289 7.00736e-17)
(1.00097 -0.00170139 -7.32709e-16)
(1.00118 -0.00154819 6.43717e-17)
(1.00138 -0.00131663 6.32348e-16)
(0.999799 0.000183463 -8.96679e-17)
(0.999769 -7.24439e-05 -9.23984e-17)
(0.999752 -0.000333631 3.42852e-17)
(0.999751 -0.000599744 -2.64333e-16)
(0.999774 -0.000862767 -1.79648e-17)
(0.999826 -0.0011118 4.81615e-16)
(0.999911 -0.00133788 5.50672e-17)
(1.00003 -0.00153039 3.04039e-16)
(1.00019 -0.00168131 -6.02762e-16)
(1.00039 -0.00178184 -3.09606e-16)
(1.0006 -0.0018266 4.4449e-16)
(1.00083 -0.00180764 -1.49021e-16)
(1.00106 -0.00173924 4.8355e-16)
(1.00127 -0.0015805 7.49198e-16)
(1.00148 -0.00134196 -5.98116e-17)
(0.999777 0.000192949 2.80908e-17)
(0.999747 -7.69561e-05 1.14756e-17)
(0.999733 -0.000351736 1.15619e-16)
(0.999739 -0.000629895 2.25883e-18)
(0.999771 -0.000902942 9.8856e-17)
(0.999834 -0.00115965 -2.89606e-16)
(0.999931 -0.00139113 5.98161e-16)
(1.00007 -0.00158692 -1.53461e-16)
(1.00024 -0.00173894 6.52348e-16)
(1.00044 -0.00183849 -3.4125e-16)
(1.00067 -0.00188048 -5.43323e-16)
(1.00091 -0.00185706 5.24349e-16)
(1.00115 -0.00178219 -8.83982e-16)
(1.00137 -0.00161774 -1.30179e-15)
(1.00159 -0.00137064 -3.2936e-16)
(0.999753 0.000202485 3.12761e-18)
(0.999723 -8.14525e-05 1.94987e-17)
(0.999713 -0.000369902 -3.12148e-17)
(0.999725 -0.00066035 1.5866e-16)
(0.999765 -0.00094388 1.08814e-16)
(0.999839 -0.00120887 -4.26672e-17)
(0.999948 -0.00144642 -3.6055e-16)
(1.0001 -0.00164611 -3.47545e-16)
(1.00028 -0.00179981 -2.34902e-16)
(1.0005 -0.00189888 4.3284e-16)
(1.00073 -0.00193845 3.35358e-16)
(1.00098 -0.00191075 -4.93026e-16)
(1.00123 -0.00182899 1.09508e-15)
(1.00146 -0.00165764 1.37172e-15)
(1.00169 -0.00139974 4.63392e-17)
(0.999729 0.000212136 3.57638e-17)
(0.999698 -8.58906e-05 -4.75984e-17)
(0.999691 -0.000388093 2.29433e-16)
(0.999709 -0.000691065 -4.56927e-17)
(0.999757 -0.000985519 -1.74384e-16)
(0.999841 -0.00125939 7.39261e-17)
(0.999962 -0.00150364 -1.29687e-16)
(1.00012 -0.0017078 2.93435e-16)
(1.00032 -0.0018636 7.71305e-17)
(1.00055 -0.00196239 5.39149e-17)
(1.00079 -0.00199945 -2.57194e-16)
(1.00106 -0.00196703 3.41371e-16)
(1.00132 -0.00187743 1.73975e-16)
(1.00156 -0.00169767 1.55393e-16)
(1.0018 -0.00142726 3.93566e-16)
(0.999702 0.000221965 -1.83857e-17)
(0.999671 -9.02251e-05 2.72475e-17)
(0.999667 -0.000406238 -3.7191e-16)
(0.99969 -0.000721901 -2.37932e-16)
(0.999747 -0.0010276 3.29287e-16)
(0.999841 -0.00131078 -8.91404e-17)
(0.999973 -0.0015622 5.20681e-16)
(1.00015 -0.00177118 -1.41355e-16)
(1.00036 -0.00192922 -7.50739e-18)
(1.0006 -0.00202762 -1.49921e-16)
(1.00086 -0.00206173 3.84919e-16)
(1.00113 -0.00202385 -2.42589e-16)
(1.0014 -0.00192543 -7.97346e-16)
(1.00165 -0.00173605 -1.89721e-16)
(1.00191 -0.00145274 -4.49593e-16)
(0.999675 0.000232016 2.47499e-17)
(0.999643 -9.44249e-05 1.12573e-16)
(0.999642 -0.000424284 3.35208e-16)
(0.999671 -0.00075272 2.60144e-16)
(0.999736 -0.00106982 -3.20651e-17)
(0.99984 -0.00136253 -1.30251e-16)
(0.999984 -0.00162131 -5.76413e-16)
(1.00017 -0.0018352 -6.70115e-17)
(1.00039 -0.00199539 -3.42321e-16)
(1.00065 -0.00209308 1.10861e-16)
(1.00092 -0.00212368 -7.05527e-16)
(1.00121 -0.00207964 3.40294e-16)
(1.00149 -0.00197177 1.14867e-15)
(1.00175 -0.00177233 -8.85241e-16)
(1.00202 -0.00147694 5.24088e-16)
(0.999646 0.000242325 -1.99569e-17)
(0.999614 -9.84678e-05 -1.58394e-16)
(0.999616 -0.00044219 -1.91848e-16)
(0.999651 -0.000783414 -9.56807e-17)
(0.999724 -0.00111194 -6.12741e-17)
(0.999838 -0.0014142 8.41162e-17)
(0.999995 -0.00168032 -3.22093e-17)
(1.00019 -0.00189901 -4.42372e-16)
(1.00043 -0.00206112 -1.30192e-16)
(1.0007 -0.00215777 -3.27781e-17)
(1.00099 -0.00218441 6.4217e-16)
(1.00128 -0.00213383 1.07389e-16)
(1.00157 -0.00201645 -9.55023e-16)
(1.00184 -0.00180723 5.06579e-16)
(1.00213 -0.00150135 -1.01453e-16)
(0.999615 0.000252907 1.80277e-17)
(0.999583 -0.000102351 9.31308e-17)
(0.999588 -0.000459962 9.23366e-17)
(0.999629 -0.000813969 1.79565e-16)
(0.999711 -0.00115388 -9.7829e-17)
(0.999836 -0.00146561 -2.75151e-17)
(1.00001 -0.00173895 1.9879e-16)
(1.00022 -0.00196225 2.97024e-16)
(1.00047 -0.00212607 -2.1401e-17)
(1.00075 -0.00222145 -3.58522e-16)
(1.00105 -0.00224397 -2.75555e-16)
(1.00136 -0.00218689 -4.84296e-16)
(1.00166 -0.00206043 2.03165e-17)
(1.00194 -0.00184218 2.62295e-16)
(1.00223 -0.00152735 -1.58592e-16)
(0.999583 0.000263771 -9.6393e-18)
(0.999551 -0.00010608 -5.51125e-17)
(0.99956 -0.000477628 1.4023e-16)
(0.999607 -0.000844436 1.47062e-17)
(0.999698 -0.00119571 -1.24533e-16)
(0.999834 -0.00151685 1.00418e-16)
(1.00002 -0.00179729 -4.79655e-17)
(1.00024 -0.00202507 2.73862e-16)
(1.00051 -0.00219051 5.05959e-16)
(1.0008 -0.0022846 7.85661e-17)
(1.00112 -0.00230314 2.37792e-16)
(1.00144 -0.00223991 2.41992e-16)
(1.00175 -0.00210502 5.9722e-17)
(1.00204 -0.00187853 -5.39794e-16)
(1.00234 -0.0015558 1.30754e-16)
(0.999549 0.00027491 1.2912e-17)
(0.999518 -0.00010967 1.16076e-17)
(0.99953 -0.000495246 -2.86486e-16)
(0.999584 -0.000874935 -1.2515e-16)
(0.999684 -0.00123763 1.7594e-16)
(0.999832 -0.00156821 -2.74622e-17)
(1.00003 -0.00185575 1.83654e-16)
(1.00027 -0.00208803 -2.43909e-16)
(1.00055 -0.00225513 1.39023e-16)
(1.00086 -0.00234813 1.15614e-16)
(1.00118 -0.00236298 1.22015e-16)
(1.00151 -0.00229406 1.5523e-16)
(1.00184 -0.00215134 2.15719e-16)
(1.00214 -0.00191706 3.03475e-17)
(1.00244 -0.00158651 7.69089e-17)
(0.999513 0.000286312 -3.97271e-17)
(0.999484 -0.000113135 1.05114e-16)
(0.999499 -0.000512865 1.64495e-16)
(0.99956 -0.000905584 -1.0529e-16)
(0.999669 -0.00127985 -6.84458e-17)
(0.999828 -0.00162002 3.89543e-17)
(1.00004 -0.00191482 -2.00077e-16)
(1.00029 -0.00215174 -1.30902e-16)
(1.00058 -0.00232071 -1.71923e-16)
(1.00091 -0.00241287 2.7321e-16)
(1.00125 -0.00242438 -3.78959e-16)
(1.00159 -0.00235013 2.95923e-16)
(1.00193 -0.00219988 1.44887e-16)
(1.00223 -0.00195781 5.41941e-16)
(1.00254 -0.00161883 -4.95455e-16)
(0.999476 0.000297955 1.67633e-17)
(0.999448 -0.000116494 -7.91169e-17)
(0.999467 -0.000530539 5.79242e-17)
(0.999534 -0.00093649 1.28105e-16)
(0.999652 -0.00132257 -8.88075e-17)
(0.999822 -0.00167258 -1.50076e-16)
(1.00004 -0.00197488 -7.10493e-17)
(1.00031 -0.0022167 9.79028e-17)
(1.00062 -0.00238779 -4.47775e-16)
(1.00096 -0.00247938 6.6058e-17)
(1.00131 -0.00248776 2.51791e-16)
(1.00167 -0.00240832 -7.03549e-16)
(1.00201 -0.00225048 1.42004e-16)
(1.00233 -0.0020002 2.17357e-17)
(1.00265 -0.00165199 3.65335e-16)
(0.999438 0.000309817 -6.37285e-18)
(0.99941 -0.000119757 9.69658e-17)
(0.999433 -0.000548292 -9.36767e-17)
(0.999506 -0.000967705 -5.81388e-17)
(0.999634 -0.00136587 -9.27179e-17)
(0.999815 -0.00172601 -4.90275e-17)
(1.00005 -0.0020361 -1.05704e-16)
(1.00033 -0.00228307 7.546e-17)
(1.00065 -0.00245651 2.90184e-17)
(1.00101 -0.00254769 -3.10021e-16)
(1.00137 -0.002553 -3.69769e-16)
(1.00174 -0.00246824 4.10087e-16)
(1.0021 -0.00230253 -3.57828e-16)
(1.00243 -0.00204345 -1.13868e-16)
(1.00275 -0.00168516 -1.11915e-17)
(0.999398 0.000321866 -1.9284e-17)
(0.999371 -0.00012294 -4.47935e-17)
(0.999397 -0.000566143 3.16352e-17)
(0.999477 -0.000999246 2.25411e-16)
(0.999613 -0.00140974 3.76407e-16)
(0.999806 -0.00178029 3.07264e-16)
(1.00005 -0.00209842 3.35675e-16)
(1.00035 -0.00235075 -2.14124e-16)
(1.00069 -0.00252668 6.9363e-20)
(1.00105 -0.00261747 2.32171e-16)
(1.00143 -0.00261961 4.57096e-17)
(1.00182 -0.00252927 2.51977e-16)
(1.00219 -0.00235532 2.02408e-16)
(1.00253 -0.0020869 -5.29997e-16)
(1.00286 -0.00171815 -3.4748e-16)
(0.999357 0.000334075 9.92181e-18)
(0.999331 -0.000126052 -8.09604e-17)
(0.99936 -0.000584091 -1.61934e-16)
(0.999446 -0.00103108 -1.58942e-16)
(0.999591 -0.00145412 1.46067e-17)
(0.999796 -0.00183527 -1.73469e-16)
(1.00006 -0.00216162 -3.77658e-16)
(1.00037 -0.00241943 2.8822e-16)
(1.00072 -0.00259787 2.3438e-16)
(1.0011 -0.00268823 -5.16721e-16)
(1.0015 -0.002687 4.2378e-16)
(1.00189 -0.00259081 -3.0885e-16)
(1.00227 -0.00240834 -1.42312e-16)
(1.00262 -0.00213029 -1.24357e-16)
(1.00296 -0.00175106 1.48056e-16)
(0.999314 0.000346412 3.77688e-17)
(0.999289 -0.000129115 1.73718e-17)
(0.999321 -0.000602144 8.75836e-17)
(0.999413 -0.0010632 4.06817e-17)
(0.999568 -0.00149893 4.78583e-17)
(0.999784 -0.00189079 3.00013e-16)
(1.00006 -0.00222545 -1.35543e-16)
(1.00038 -0.00248878 1.48093e-16)
(1.00075 -0.00266971 8.50177e-17)
(1.00115 -0.00275953 5.92409e-17)
(1.00156 -0.0027548 1.97312e-16)
(1.00197 -0.00265257 -4.20559e-17)
(1.00236 -0.00246149 9.34365e-18)
(1.00272 -0.00217379 8.67406e-16)
(1.00307 -0.00178437 2.75466e-18)
(0.99927 0.000358849 -3.666e-17)
(0.999246 -0.000132145 -1.26603e-17)
(0.999281 -0.000620305 5.72616e-17)
(0.99938 -0.00109556 -1.74575e-16)
(0.999544 -0.00154409 -2.79597e-16)
(0.999771 -0.00194675 -2.6787e-16)
(1.00006 -0.00228974 2.26941e-16)
(1.0004 -0.00255858 -8.29916e-17)
(1.00078 -0.00274197 9.67574e-18)
(1.00119 -0.0028312 -5.01049e-18)
(1.00162 -0.00282289 -2.72548e-16)
(1.00204 -0.00271459 -2.46248e-16)
(1.00245 -0.00251502 -1.58734e-16)
(1.00282 -0.00221781 2.40716e-17)
(1.00317 -0.00181853 -5.42387e-17)
(0.999225 0.000371359 -1.8302e-17)
(0.999201 -0.000135172 4.84342e-17)
(0.99924 -0.000638598 4.76499e-17)
(0.999344 -0.00112819 7.75368e-17)
(0.999518 -0.00158961 1.06043e-16)
(0.999757 -0.00200311 1.6756e-18)
(1.00006 -0.00235446 2.26838e-16)
(1.00041 -0.00262881 -5.0574e-16)
(1.00081 -0.00281465 2.57857e-16)
(1.00124 -0.00290331 2.62938e-16)
(1.00168 -0.00289148 -3.76083e-16)
(1.00212 -0.00277722 7.02166e-16)
(1.00253 -0.00256935 3.69488e-16)
(1.00292 -0.00226282 -6.88093e-16)
(1.00328 -0.00185382 -2.04515e-16)
(0.999179 0.000383924 3.78472e-17)
(0.999155 -0.000138219 2.93856e-17)
(0.999197 -0.000657044 4.58849e-18)
(0.999308 -0.0011611 -3.47583e-17)
(0.999491 -0.00163551 2.01609e-17)
(0.999742 -0.00205993 2.84432e-16)
(1.00006 -0.0024197 -4.58424e-17)
(1.00043 -0.0026996 3.24548e-16)
(1.00084 -0.00288797 -4.80187e-17)
(1.00128 -0.00297614 -2.90834e-16)
(1.00174 -0.00296093 6.01658e-16)
(1.00219 -0.00284088 -3.60973e-16)
(1.00262 -0.00262487 -4.885e-16)
(1.00302 -0.0023091 2.06376e-16)
(1.00339 -0.00189023 3.4472e-16)
(0.999131 0.000396524 -3.14733e-17)
(0.999107 -0.000141321 -1.32669e-17)
(0.999152 -0.000675682 -1.72992e-16)
(0.99927 -0.00119434 -8.4537e-17)
(0.999462 -0.00168188 5.20575e-17)
(0.999725 -0.00211733 -2.87142e-16)
(1.00005 -0.00248562 -8.44003e-17)
(1.00044 -0.0027712 2.82857e-16)
(1.00087 -0.00296221 -2.39184e-16)
(1.00133 -0.00305006 7.01307e-17)
(1.0018 -0.00303162 -3.35026e-16)
(1.00226 -0.00290588 1.05357e-17)
(1.00271 -0.00268182 2.64406e-16)
(1.00311 -0.0023567 1.39043e-16)
(1.00349 -0.00192756 -5.41333e-17)
(0.999082 0.00040915 3.00245e-17)
(0.999058 -0.000144499 -9.74071e-17)
(0.999106 -0.000694537 8.17621e-17)
(0.99923 -0.00122796 5.35098e-17)
(0.999432 -0.00172878 -4.03424e-17)
(0.999707 -0.00217542 -1.7248e-16)
(1.00005 -0.00255238 5.22905e-17)
(1.00045 -0.0028438 -1.29681e-16)
(1.0009 -0.00303763 -2.18616e-16)
(1.00137 -0.00312529 -2.73163e-17)
(1.00186 -0.00310373 -4.84157e-16)
(1.00234 -0.00297235 4.95345e-16)
(1.0028 -0.00274016 3.84872e-17)
(1.00321 -0.00240543 -7.9382e-17)
(1.0036 -0.00196549 -7.71646e-18)
(0.999032 0.000421792 -3.68263e-17)
(0.999007 -0.000147783 1.00274e-16)
(0.999059 -0.00071364 -2.30334e-17)
(0.999189 -0.00126199 -2.09808e-16)
(0.999401 -0.00177627 -9.99582e-17)
(0.999688 -0.00223428 1.16108e-16)
(1.00004 -0.00262012 -1.7035e-16)
(1.00046 -0.00291755 -1.90791e-16)
(1.00092 -0.00311434 3.24643e-16)
(1.00141 -0.00320194 1.12944e-16)
(1.00192 -0.00317729 5.08015e-16)
(1.00241 -0.00304019 -3.81994e-16)
(1.00288 -0.00279968 1.37218e-16)
(1.00331 -0.00245499 -1.54415e-16)
(1.0037 -0.00200376 5.14411e-18)
(0.998981 0.00043445 2.27934e-17)
(0.998955 -0.000151189 -5.8027e-17)
(0.99901 -0.000733003 7.20752e-17)
(0.999147 -0.00129644 3.12611e-16)
(0.999368 -0.00182436 1.32648e-16)
(0.999667 -0.00229394 8.22875e-17)
(1.00004 -0.00268883 3.38353e-16)
(1.00047 -0.00299245 1.60772e-16)
(1.00095 -0.00319232 -2.64762e-16)
(1.00146 -0.0032799 4.51041e-16)
(1.00198 -0.00325213 2.50774e-16)
(1.00248 -0.00310917 -2.12188e-16)
(1.00297 -0.0028601 -4.0573e-16)
(1.00341 -0.0025051 -1.57585e-16)
(1.00381 -0.00204224 6.07928e-17)
(0.998928 0.000447118 4.68014e-18)
(0.998901 -0.000154737 -1.23627e-16)
(0.998959 -0.000752646 -9.17407e-17)
(0.999103 -0.00133132 -2.15249e-16)
(0.999333 -0.00187305 3.45728e-17)
(0.999644 -0.00235437 -3.34169e-16)
(1.00003 -0.00275847 -3.59212e-16)
(1.00048 -0.00306841 -1.44472e-16)
(1.00097 -0.00327146 3.07732e-16)
(1.0015 -0.00335903 -3.26818e-16)
(1.00203 -0.00332806 1.15534e-16)
(1.00256 -0.00317906 2.14725e-16)
(1.00306 -0.00292124 3.25874e-16)
(1.00351 -0.0025557 1.98766e-16)
(1.00392 -0.00208104 1.68639e-17)
(0.998874 0.0004598 3.2897e-17)
(0.998846 -0.000158437 2.02057e-16)
(0.998907 -0.00077257 9.40358e-17)
(0.999057 -0.00136663 1.80701e-16)
(0.999297 -0.00192232 1.08259e-16)
(0.99962 -0.00241552 4.56347e-17)
(1.00002 -0.00282897 5.26352e-17)
(1.00048 -0.00314532 -1.20914e-16)
(1.001 -0.00335159 -1.22594e-16)
(1.00154 -0.00343915 1.43638e-17)
(1.00209 -0.0034049 -7.89479e-16)
(1.00263 -0.00324973 -3.08254e-16)
(1.00314 -0.00298305 3.24033e-16)
(1.00361 -0.00260685 -7.22328e-17)
(1.00403 -0.00212036 -1.99911e-16)
(0.998818 0.000472491 -4.42153e-17)
(0.998789 -0.000162301 -1.29483e-16)
(0.998853 -0.000792786 -1.85948e-16)
(0.99901 -0.00140236 6.10825e-17)
(0.999259 -0.00197214 -2.05389e-16)
(0.999595 -0.00247735 3.82561e-17)
(1.00001 -0.00290025 -4.73459e-17)
(1.00049 -0.00322311 -8.64086e-18)
(1.00102 -0.00343264 -1.46491e-16)
(1.00158 -0.00352018 -7.67959e-17)
(1.00215 -0.00348263 2.71917e-17)
(1.00271 -0.00332124 2.677e-16)
(1.00323 -0.00304565 -1.34888e-16)
(1.00371 -0.00265876 2.66162e-16)
(1.00413 -0.00216045 9.40041e-17)
(0.99876 0.000485197 2.36316e-17)
(0.99873 -0.000166335 1.24044e-16)
(0.998798 -0.000813298 2.36242e-16)
(0.998961 -0.00143851 -6.8256e-17)
(0.99922 -0.00202251 -1.65582e-17)
(0.999569 -0.00253985 2.50686e-16)
(0.999998 -0.00297231 2.13136e-16)
(1.0005 -0.00330175 -1.46017e-16)
(1.00104 -0.00351461 3.91128e-16)
(1.00162 -0.00360217 3.54773e-16)
(1.00221 -0.00356133 3.77166e-16)
(1.00278 -0.00339374 -1.74126e-17)
(1.00332 -0.00310926 -2.9903e-16)
(1.00381 -0.00271165 -3.13927e-16)
(1.00424 -0.00220143 -3.0233e-17)
(0.998701 0.000497913 -2.02496e-17)
(0.99867 -0.000170546 -6.55046e-17)
(0.998741 -0.00083412 -1.95808e-16)
(0.998911 -0.0014751 1.26005e-16)
(0.99918 -0.00207347 1.20894e-16)
(0.999541 -0.00260306 -1.6785e-16)
(0.999986 -0.00304521 -8.4728e-17)
(1.0005 -0.00338134 8.37664e-18)
(1.00106 -0.00359762 -1.73827e-16)
(1.00166 -0.00368528 -3.03972e-16)
(1.00226 -0.00364122 -5.60736e-16)
(1.00285 -0.00346746 6.05421e-17)
(1.00341 -0.00317411 3.65089e-16)
(1.00391 -0.00276572 3.3043e-16)
(1.00435 -0.00224338 -6.94612e-17)
(0.99864 0.000510642 -1.61141e-17)
(0.998609 -0.000174933 -1.31762e-17)
(0.998683 -0.000855259 1.71351e-16)
(0.998859 -0.00151216 -1.61663e-16)
(0.999138 -0.00212504 -3.1943e-16)
(0.999512 -0.00266705 1.55005e-16)
(0.999972 -0.00311904 8.79478e-17)
(1.0005 -0.00346201 4.07191e-16)
(1.00109 -0.00368184 5.82089e-17)
(1.0017 -0.00376971 2.83028e-16)
(1.00232 -0.00372251 8.40258e-16)
(1.00293 -0.0035426 -2.3046e-16)
(1.0035 -0.00324034 -9.7787e-17)
(1.00401 -0.00282103 -1.15384e-17)
(1.00446 -0.00228621 -2.76666e-17)
(0.998577 0.000523383 4.5066e-17)
(0.998545 -0.000179501 4.92277e-17)
(0.998623 -0.000876731 -1.4737e-16)
(0.998805 -0.00154972 1.36889e-16)
(0.999095 -0.00217728 -9.21272e-17)
(0.999482 -0.0027319 -2.96575e-16)
(0.999957 -0.00319392 1.30313e-17)
(1.00051 -0.00354391 -3.50244e-17)
(1.00111 -0.00376745 -2.15883e-16)
(1.00174 -0.00385563 1.8194e-16)
(1.00238 -0.00380535 -7.84315e-16)
(1.003 -0.00361928 -1.42707e-17)
(1.00359 -0.00330799 -1.74667e-16)
(1.00411 -0.0028775 3.26087e-17)
(1.00457 -0.00232976 -8.19552e-17)
(0.998512 0.000536138 -1.14999e-17)
(0.998481 -0.00018424 -1.17295e-17)
(0.998561 -0.000898541 2.03922e-17)
(0.99875 -0.00158779 -1.52227e-16)
(0.99905 -0.00223026 -2.7327e-17)
(0.99945 -0.0027977 3.6213e-16)
(0.999941 -0.00326996 -2.63886e-16)
(1.00051 -0.00362716 -3.26802e-16)
(1.00113 -0.00385455 3.49866e-16)
(1.00178 -0.00394315 -3.16489e-16)
(1.00243 -0.00388979 4.00466e-16)
(1.00307 -0.00369747 3.78767e-16)
(1.00367 -0.00337697 2.72723e-16)
(1.00421 -0.00293498 -1.81389e-16)
(1.00468 -0.00237384 -6.17773e-17)
(0.998446 0.000548907 -1.24023e-17)
(0.998414 -0.00018915 -7.19726e-17)
(0.998498 -0.000920699 -9.69085e-17)
(0.998694 -0.00162642 7.1119e-17)
(0.999003 -0.00228399 1.80229e-16)
(0.999417 -0.00286449 6.32087e-17)
(0.999923 -0.00334721 2.45244e-16)
(1.00051 -0.00371182 5.35963e-17)
(1.00114 -0.0039432 -4.59996e-16)
(1.00181 -0.00403227 1.60935e-16)
(1.00249 -0.00397582 -2.27441e-16)
(1.00315 -0.00377711 -1.88863e-16)
(1.00376 -0.00344715 -2.54312e-16)
(1.00432 -0.00299334 4.01698e-17)
(1.00479 -0.00241838 1.49202e-16)
(0.998378 0.000561695 -1.90365e-17)
(0.998346 -0.000194219 3.4281e-17)
(0.998433 -0.000943203 4.13849e-17)
(0.998635 -0.00166559 -1.42546e-16)
(0.998955 -0.00233851 6.95578e-17)
(0.999382 -0.00293229 -2.11023e-16)
(0.999904 -0.0034257 -2.58473e-17)
(1.0005 -0.00379789 3.173e-16)
(1.00116 -0.00403337 -2.02355e-16)
(1.00185 -0.00412294 -2.67445e-16)
(1.00255 -0.00406332 2.29667e-16)
(1.00322 -0.00385806 -6.81585e-17)
(1.00385 -0.00351841 -7.20618e-16)
(1.00442 -0.00305248 7.34968e-17)
(1.0049 -0.0024634 1.07339e-16)
(0.998308 0.000574502 -9.79856e-18)
(0.998276 -0.000199441 3.3438e-17)
(0.998366 -0.000966059 1.25967e-17)
(0.998575 -0.00170533 1.9002e-17)
(0.998905 -0.00239382 1.20033e-16)
(0.999345 -0.00300111 6.66926e-17)
(0.999883 -0.0035054 -2.19633e-16)
(1.0005 -0.00388533 -2.00537e-17)
(1.00118 -0.004125 6.0609e-16)
(1.00189 -0.00421507 -1.94364e-16)
(1.0026 -0.0041522 -5.71417e-18)
(1.0033 -0.00394021 2.87341e-17)
(1.00394 -0.00359068 2.77436e-17)
(1.00452 -0.00311239 -5.08898e-17)
(1.00502 -0.00250897 1.69431e-17)
(0.998236 0.000587336 2.58211e-17)
(0.998204 -0.000204805 -6.82075e-17)
(0.998297 -0.00098926 -7.79044e-17)
(0.998514 -0.00174563 1.49496e-19)
(0.998854 -0.00244991 -1.81247e-16)
(0.999307 -0.00307092 -2.8941e-17)
(0.999862 -0.00358629 4.26468e-17)
(1.0005 -0.00397408 -4.82854e-17)
(1.00119 -0.00421802 -4.10341e-16)
(1.00192 -0.00430858 5.46276e-16)
(1.00266 -0.00424239 -3.11714e-17)
(1.00337 -0.00402356 -5.7067e-17)
(1.00403 -0.00366398 3.36302e-16)
(1.00463 -0.00317314 -3.77031e-16)
(1.00513 -0.00255521 7.95694e-18)
(0.998163 0.000600199 2.73972e-18)
(0.998131 -0.000210308 8.18256e-17)
(0.998227 -0.00101281 2.19891e-16)
(0.99845 -0.00178651 -5.5448e-17)
(0.998801 -0.00250679 1.1779e-16)
(0.999268 -0.00314173 -1.83017e-16)
(0.999839 -0.00366834 -2.19156e-16)
(1.00049 -0.00406414 5.26236e-18)
(1.00121 -0.00431241 2.38916e-16)
(1.00196 -0.00440348 -4.7679e-16)
(1.00271 -0.00433392 1.18745e-16)
(1.00344 -0.00410815 -2.06357e-17)
(1.00412 -0.00373842 2.598e-16)
(1.00473 -0.0032349 8.02577e-17)
(1.00524 -0.00260229 -1.24925e-16)
(0.998088 0.000613102 1.05283e-18)
(0.998056 -0.00021594 -8.88084e-17)
(0.998155 -0.00103672 -1.25499e-16)
(0.998385 -0.00182796 2.0769e-17)
(0.998746 -0.00256446 -2.18835e-17)
(0.999227 -0.00321354 1.66128e-16)
(0.999815 -0.00375157 3.59823e-16)
(1.00049 -0.00415551 -3.19139e-16)
(1.00123 -0.0044082 3.6298e-16)
(1.002 -0.00449981 3.20832e-17)
(1.00277 -0.00442688 7.11889e-17)
(1.00352 -0.00419411 -1.37469e-16)
(1.00422 -0.00381413 2.65361e-16)
(1.00484 -0.00329779 1.50346e-16)
(1.00536 -0.00265031 1.96267e-16)
(0.998011 0.000626048 -8.6107e-18)
(0.997979 -0.000221705 8.47142e-17)
(0.998082 -0.001061 1.54578e-16)
(0.998318 -0.00187002 5.34027e-17)
(0.99869 -0.00262297 1.56183e-16)
(0.999185 -0.00328639 1.19939e-16)
(0.99979 -0.00383604 -3.23128e-16)
(1.00048 -0.00424826 6.47323e-16)
(1.00124 -0.00450549 -2.03603e-16)
(1.00203 -0.00459769 -6.7723e-17)
(1.00283 -0.00452139 -2.45094e-16)
(1.00359 -0.0042816 -1.07619e-16)
(1.00431 -0.00389127 -2.95316e-16)
(1.00494 -0.00336193 -1.08777e-16)
(1.00547 -0.00269932 4.72032e-17)
(0.997933 0.000639052 -3.05791e-17)
(0.9979 -0.000227598 -9.05953e-17)
(0.998006 -0.00108565 -1.08407e-17)
(0.99825 -0.0019127 1.06236e-16)
(0.998632 -0.00268235 -1.42137e-16)
(0.999141 -0.00336034 -1.04364e-16)
(0.999763 -0.0039218 4.04352e-16)
(1.00048 -0.00434249 -1.2076e-16)
(1.00125 -0.00460437 -5.15865e-16)
(1.00207 -0.00469724 7.09904e-17)
(1.00288 -0.0046176 -1.24443e-16)
(1.00367 -0.00437072 2.30204e-16)
(1.0044 -0.00396993 3.68675e-16)
(1.00505 -0.00342736 3.28334e-16)
(1.00559 -0.00274926 -2.75108e-16)
(0.997853 0.000652119 1.8338e-18)
(0.99782 -0.000233628 -1.74753e-17)
(0.997929 -0.00111069 -7.23325e-17)
(0.99818 -0.00195605 4.50834e-17)
(0.998573 -0.00274265 -7.88127e-17)
(0.999096 -0.00343547 1.34408e-16)
(0.999735 -0.00400897 -1.16191e-16)
(1.00047 -0.00443831 3.98689e-17)
(1.00127 -0.00470498 -1.08124e-16)
(1.0021 -0.00479861 2.75061e-16)
(1.00294 -0.00471563 3.36512e-16)
(1.00374 -0.00446158 1.94458e-18)
(1.00449 -0.00405015 -5.86754e-16)
(1.00516 -0.0034941 -3.99215e-16)
(1.00571 -0.00280011 2.72169e-16)
(0.997771 0.000665263 4.09631e-17)