1.45 	0 	0 	-0.305464
2.35 	0 	0 	-0.133604
