/*--------------------------------*- C++ -*----------------------------------*\
  =========                 |
  \\      /  F ield         | OpenFOAM: The Open Source CFD Toolbox
   \\    /   O peration     | Website:  https://openfoam.org
    \\  /    A nd           | Version:  6.0
     \\/     M anipulation  |
\*---------------------------------------------------------------------------*/
FoamFile
{
    version     2.0;
    format      ascii;
    class       volScalarField;
    location    "1.2";
    object      p;
}
// * * * * * * * * * * * * * * * * * * * * * * * * * * * * * * * * * * * * * //

dimensions      [0 2 -2 0 0 0 0];

internalField   nonuniform List<scalar> 
34500
(
1.00582
1.00587
1.00573
1.00542
1.00497
1.00442
1.00381
1.00319
1.00259
1.00202
1.00151
1.00107
1.00068
1.00042
1.00026
1.00583
1.00591
1.00582
1.00559
1.00522
1.00475
1.0042
1.00361
1.00302
1.00243
1.00187
1.00136
1.0009
1.00057
1.00034
1.00583
1.0059
1.00579
1.00553
1.00514
1.00463
1.00406
1.00345
1.00284
1.00226
1.00171
1.00123
1.0008
1.00052
1.00029
1.00583
1.00589
1.00577
1.00549
1.00507
1.00455
1.00396
1.00334
1.00273
1.00215
1.00162
1.00116
1.00076
1.0005
1.0003
1.00584
1.0059
1.00578
1.00551
1.0051
1.00459
1.004
1.00339
1.00279
1.00221
1.00167
1.00121
1.00079
1.00053
1.00032
1.00585
1.00591
1.0058
1.00554
1.00514
1.00464
1.00407
1.00347
1.00286
1.00227
1.00173
1.00125
1.00082
1.00054
1.00032
1.00586
1.00592
1.00582
1.00556
1.00516
1.00466
1.00409
1.00349
1.00288
1.00229
1.00174
1.00125
1.00082
1.00054
1.00032
1.00587
1.00593
1.00583
1.00557
1.00517
1.00467
1.0041
1.00349
1.00288
1.00229
1.00173
1.00125
1.00082
1.00053
1.00031
1.00588
1.00595
1.00584
1.00558
1.00518
1.00468
1.00411
1.0035
1.00289
1.0023
1.00174
1.00125
1.00082
1.00053
1.00031
1.00589
1.00596
1.00586
1.0056
1.0052
1.0047
1.00413
1.00352
1.00291
1.00231
1.00175
1.00126
1.00083
1.00053
1.00031
1.00591
1.00598
1.00588
1.00562
1.00523
1.00473
1.00416
1.00355
1.00293
1.00233
1.00177
1.00127
1.00084
1.00054
1.00031
1.00592
1.00599
1.0059
1.00565
1.00526
1.00476
1.00419
1.00358
1.00296
1.00236
1.00179
1.00129
1.00085
1.00054
1.0003
1.00594
1.00601
1.00592
1.00567
1.00529
1.00479
1.00422
1.00361
1.00299
1.00238
1.00181
1.0013
1.00086
1.00054
1.00029
1.00596
1.00603
1.00594
1.0057
1.00532
1.00483
1.00426
1.00365
1.00302
1.00241
1.00183
1.00132
1.00086
1.00053
1.00028
1.00598
1.00605
1.00596
1.00572
1.00534
1.00486
1.00429
1.00368
1.00305
1.00243
1.00185
1.00132
1.00086
1.00052
1.00026
1.006
1.00608
1.00599
1.00575
1.00537
1.00488
1.00432
1.0037
1.00307
1.00245
1.00186
1.00133
1.00086
1.00051
1.00025
1.00602
1.0061
1.00601
1.00577
1.00539
1.00491
1.00434
1.00372
1.00309
1.00246
1.00186
1.00133
1.00086
1.0005
1.00023
1.00604
1.00613
1.00604
1.0058
1.00542
1.00493
1.00436
1.00374
1.0031
1.00247
1.00187
1.00133
1.00085
1.00049
1.00022
1.00607
1.00615
1.00606
1.00583
1.00544
1.00495
1.00438
1.00376
1.00311
1.00248
1.00187
1.00133
1.00085
1.00048
1.0002
1.0061
1.00618
1.00609
1.00585
1.00547
1.00498
1.00441
1.00378
1.00313
1.00249
1.00188
1.00133
1.00085
1.00047
1.00018
1.00612
1.00621
1.00612
1.00589
1.00551
1.00501
1.00444
1.00381
1.00316
1.00251
1.0019
1.00134
1.00085
1.00046
1.00016
1.00615
1.00624
1.00616
1.00592
1.00554
1.00505
1.00447
1.00384
1.00318
1.00253
1.00191
1.00135
1.00085
1.00045
1.00015
1.00618
1.00627
1.00619
1.00596
1.00558
1.00508
1.0045
1.00387
1.00321
1.00255
1.00192
1.00135
1.00084
1.00044
1.00012
1.00621
1.00631
1.00623
1.00599
1.00562
1.00512
1.00454
1.0039
1.00323
1.00257
1.00193
1.00135
1.00084
1.00042
1.0001
1.00625
1.00634
1.00626
1.00603
1.00565
1.00516
1.00457
1.00393
1.00326
1.00259
1.00194
1.00136
1.00083
1.00041
1.00008
1.00628
1.00638
1.0063
1.00607
1.00569
1.00519
1.00461
1.00396
1.00328
1.0026
1.00195
1.00135
1.00082
1.00039
1.00006
1.00632
1.00642
1.00634
1.00611
1.00573
1.00523
1.00464
1.00399
1.0033
1.00262
1.00196
1.00135
1.00082
1.00037
1.00003
1.00636
1.00646
1.00638
1.00615
1.00577
1.00526
1.00467
1.00401
1.00332
1.00263
1.00196
1.00135
1.00081
1.00036
1.00001
1.0064
1.0065
1.00642
1.00619
1.0058
1.0053
1.0047
1.00404
1.00334
1.00265
1.00197
1.00135
1.0008
1.00034
0.999982
1.00644
1.00654
1.00646
1.00623
1.00585
1.00534
1.00474
1.00407
1.00337
1.00266
1.00198
1.00135
1.00079
1.00032
0.999956
1.00648
1.00658
1.0065
1.00627
1.00589
1.00538
1.00477
1.0041
1.00339
1.00268
1.00198
1.00135
1.00078
1.0003
0.999928
1.00652
1.00662
1.00655
1.00632
1.00593
1.00542
1.00481
1.00413
1.00341
1.00269
1.00199
1.00134
1.00077
1.00028
0.999899
1.00657
1.00667
1.0066
1.00637
1.00598
1.00546
1.00485
1.00416
1.00344
1.00271
1.002
1.00134
1.00075
1.00026
0.999869
1.00661
1.00672
1.00665
1.00642
1.00603
1.00551
1.00489
1.0042
1.00346
1.00272
1.002
1.00134
1.00074
1.00023
0.999839
1.00666
1.00677
1.0067
1.00647
1.00607
1.00555
1.00493
1.00423
1.00349
1.00274
1.00201
1.00133
1.00072
1.00021
0.999807
1.00671
1.00682
1.00675
1.00652
1.00612
1.0056
1.00497
1.00426
1.00351
1.00275
1.00201
1.00132
1.00071
1.00019
0.999774
1.00676
1.00687
1.0068
1.00657
1.00617
1.00564
1.005
1.00429
1.00353
1.00276
1.00201
1.00132
1.00069
1.00016
0.999741
1.00681
1.00692
1.00685
1.00662
1.00622
1.00569
1.00504
1.00432
1.00355
1.00278
1.00202
1.00131
1.00067
1.00013
0.999707
1.00686
1.00698
1.00691
1.00667
1.00627
1.00573
1.00508
1.00435
1.00358
1.00279
1.00202
1.0013
1.00066
1.00011
0.999672
1.00692
1.00703
1.00696
1.00673
1.00632
1.00578
1.00512
1.00439
1.0036
1.0028
1.00202
1.00129
1.00064
1.00008
0.999635
1.00697
1.00709
1.00702
1.00679
1.00638
1.00583
1.00517
1.00442
1.00363
1.00282
1.00202
1.00129
1.00062
1.00005
0.999598
1.00703
1.00715
1.00708
1.00684
1.00643
1.00588
1.00521
1.00446
1.00365
1.00283
1.00203
1.00128
1.0006
1.00002
0.999559
1.00709
1.00721
1.00714
1.0069
1.00649
1.00593
1.00526
1.00449
1.00368
1.00285
1.00203
1.00127
1.00058
0.999987
0.999519
1.00715
1.00728
1.00721
1.00697
1.00655
1.00599
1.0053
1.00453
1.0037
1.00286
1.00203
1.00125
1.00055
0.999954
0.999478
1.00721
1.00734
1.00727
1.00703
1.00661
1.00604
1.00535
1.00457
1.00373
1.00287
1.00203
1.00124
1.00053
0.99992
0.999435
1.00728
1.00741
1.00734
1.00709
1.00667
1.00609
1.00539
1.0046
1.00375
1.00289
1.00203
1.00123
1.0005
0.999886
0.999392
1.00734
1.00747
1.0074
1.00716
1.00673
1.00615
1.00544
1.00464
1.00378
1.0029
1.00203
1.00122
1.00048
0.999849
0.999347
1.00741
1.00754
1.00747
1.00723
1.00679
1.00621
1.00549
1.00468
1.0038
1.00291
1.00203
1.0012
1.00045
0.999812
0.999301
1.00748
1.00761
1.00754
1.0073
1.00686
1.00626
1.00554
1.00472
1.00383
1.00292
1.00203
1.00119
1.00043
0.999774
0.999253
1.00755
1.00769
1.00762
1.00737
1.00692
1.00632
1.00559
1.00475
1.00386
1.00294
1.00203
1.00117
1.0004
0.999734
0.999205
1.00762
1.00776
1.00769
1.00744
1.00699
1.00638
1.00564
1.00479
1.00388
1.00295
1.00202
1.00116
1.00037
0.999693
0.999154
1.0077
1.00784
1.00777
1.00751
1.00706
1.00645
1.00569
1.00483
1.00391
1.00296
1.00202
1.00114
1.00034
0.999651
0.999103
1.00777
1.00792
1.00785
1.00759
1.00713
1.00651
1.00574
1.00488
1.00394
1.00297
1.00202
1.00112
1.0003
0.999607
0.99905
1.00785
1.008
1.00792
1.00767
1.0072
1.00657
1.0058
1.00492
1.00396
1.00298
1.00201
1.0011
1.00027
0.999563
0.998995
1.00793
1.00808
1.00801
1.00774
1.00728
1.00664
1.00585
1.00496
1.00399
1.003
1.00201
1.00108
1.00024
0.999516
0.998939
1.00801
1.00816
1.00809
1.00783
1.00735
1.00671
1.00591
1.005
1.00402
1.00301
1.00201
1.00106
1.0002
0.999469
0.998882
1.0081
1.00825
1.00817
1.00791
1.00743
1.00677
1.00597
1.00504
1.00405
1.00302
1.002
1.00104
1.00017
0.99942
0.998822
1.00818
1.00833
1.00826
1.00799
1.00751
1.00684
1.00602
1.00509
1.00408
1.00303
1.002
1.00102
1.00013
0.99937
0.998762
1.00827
1.00842
1.00835
1.00808
1.00759
1.00691
1.00608
1.00513
1.0041
1.00304
1.00199
1.001
1.00009
0.999318
0.998699
1.00836
1.00852
1.00844
1.00817
1.00767
1.00699
1.00614
1.00518
1.00413
1.00306
1.00198
1.00097
1.00005
0.999265
0.998635
1.00845
1.00861
1.00854
1.00826
1.00775
1.00706
1.00621
1.00523
1.00416
1.00307
1.00198
1.00095
1.00001
0.99921
0.998569
1.00854
1.0087
1.00863
1.00835
1.00784
1.00714
1.00627
1.00527
1.00419
1.00308
1.00197
1.00092
0.999968
0.999153
0.998501
1.00864
1.0088
1.00873
1.00844
1.00792
1.00721
1.00633
1.00532
1.00422
1.00309
1.00196
1.00089
0.999923
0.999095
0.998431
1.00873
1.0089
1.00883
1.00854
1.00801
1.00729
1.0064
1.00537
1.00425
1.0031
1.00195
1.00087
0.999878
0.999035
0.99836
1.00883
1.009
1.00893
1.00864
1.0081
1.00737
1.00646
1.00542
1.00428
1.00311
1.00194
1.00084
0.999831
0.998973
0.998286
1.00893
1.00911
1.00903
1.00874
1.00819
1.00745
1.00653
1.00547
1.00431
1.00312
1.00193
1.00081
0.999783
0.99891
0.998211
1.00904
1.00921
1.00914
1.00884
1.00829
1.00754
1.0066
1.00552
1.00434
1.00313
1.00192
1.00078
0.999733
0.998845
0.998133
1.00914
1.00932
1.00924
1.00894
1.00838
1.00762
1.00667
1.00557
1.00438
1.00314
1.00191
1.00074
0.999682
0.998778
0.998054
1.00925
1.00943
1.00935
1.00905
1.00848
1.00771
1.00674
1.00562
1.00441
1.00315
1.0019
1.00071
0.999629
0.998709
0.997972
1.00936
1.00954
1.00946
1.00915
1.00858
1.00779
1.00681
1.00568
1.00444
1.00316
1.00188
1.00068
0.999575
0.998639
0.997889
1.00947
1.00966
1.00958
1.00926
1.00868
1.00788
1.00688
1.00573
1.00447
1.00317
1.00187
1.00064
0.99952
0.998566
0.997803
1.00959
1.00978
1.00969
1.00938
1.00879
1.00797
1.00696
1.00578
1.0045
1.00318
1.00185
1.0006
0.999462
0.998492
0.997715
1.0097
1.0099
1.00981
1.00949
1.00889
1.00807
1.00703
1.00584
1.00454
1.00319
1.00184
1.00056
0.999403
0.998415
0.997624
1.00982
1.01002
1.00993
1.00961
1.009
1.00816
1.00711
1.0059
1.00457
1.0032
1.00182
1.00053
0.999343
0.998337
0.997532
1.00994
1.01014
1.01006
1.00973
1.00911
1.00826
1.00719
1.00595
1.0046
1.0032
1.00181
1.00048
0.99928
0.998256
0.997436
1.01007
1.01027
1.01019
1.00985
1.00922
1.00836
1.00727
1.00601
1.00464
1.00321
1.00179
1.00044
0.999216
0.998173
0.997339
1.01019
1.0104
1.01031
1.00997
1.00934
1.00846
1.00735
1.00607
1.00467
1.00322
1.00177
1.0004
0.99915
0.998088
0.997239
1.01032
1.01053
1.01045
1.0101
1.00945
1.00856
1.00743
1.00613
1.00471
1.00323
1.00175
1.00035
0.999082
0.998001
0.997136
1.01045
1.01067
1.01058
1.01023
1.00957
1.00866
1.00752
1.00619
1.00474
1.00324
1.00173
1.00031
0.999012
0.997911
0.997031
1.01059
1.0108
1.01072
1.01036
1.00969
1.00877
1.0076
1.00626
1.00478
1.00324
1.00171
1.00026
0.99894
0.997819
0.996923
1.01072
1.01095
1.01086
1.01049
1.00982
1.00888
1.00769
1.00632
1.00481
1.00325
1.00169
1.00021
0.998866
0.997724
0.996812
1.01086
1.01109
1.011
1.01063
1.00994
1.00899
1.00778
1.00638
1.00485
1.00326
1.00167
1.00016
0.99879
0.997628
0.996699
1.01101
1.01123
1.01114
1.01077
1.01007
1.0091
1.00787
1.00645
1.00489
1.00326
1.00164
1.00011
0.998712
0.997528
0.996583
1.01115
1.01138
1.01129
1.01091
1.0102
1.00921
1.00796
1.00651
1.00492
1.00327
1.00162
1.00005
0.998631
0.997426
0.996464
1.0113
1.01154
1.01144
1.01106
1.01034
1.00933
1.00806
1.00658
1.00496
1.00327
1.00159
0.999998
0.998549
0.997321
0.996341
1.01145
1.01169
1.0116
1.01121
1.01047
1.00945
1.00815
1.00665
1.005
1.00328
1.00156
0.999941
0.998464
0.997214
0.996216
1.0116
1.01185
1.01175
1.01136
1.01061
1.00957
1.00825
1.00672
1.00503
1.00328
1.00154
0.999881
0.998377
0.997104
0.996088
1.01176
1.01201
1.01191
1.01151
1.01075
1.00969
1.00835
1.00679
1.00507
1.00329
1.00151
0.99982
0.998287
0.996991
0.995956
1.01192
1.01217
1.01208
1.01167
1.0109
1.00982
1.00845
1.00686
1.00511
1.00329
1.00148
0.999757
0.998195
0.996875
0.995821
1.01208
1.01234
1.01224
1.01183
1.01104
1.00994
1.00855
1.00693
1.00515
1.00329
1.00144
0.999693
0.998101
0.996756
0.995683
1.01225
1.01251
1.01241
1.01199
1.01119
1.01007
1.00866
1.007
1.00519
1.0033
1.00141
0.999626
0.998004
0.996634
0.995542
1.01242
1.01269
1.01258
1.01216
1.01135
1.01021
1.00876
1.00708
1.00523
1.0033
1.00138
0.999557
0.997904
0.996509
0.995397
1.01259
1.01287
1.01276
1.01233
1.0115
1.01034
1.00887
1.00715
1.00527
1.0033
1.00134
0.999486
0.997802
0.99638
0.995248
1.01277
1.01305
1.01294
1.0125
1.01166
1.01048
1.00898
1.00723
1.00531
1.0033
1.0013
0.999413
0.997697
0.996249
0.995096
1.01295
1.01323
1.01312
1.01268
1.01182
1.01062
1.00909
1.00731
1.00535
1.0033
1.00126
0.999337
0.997588
0.996114
0.99494
1.01313
1.01342
1.01331
1.01286
1.01199
1.01076
1.00921
1.00739
1.00539
1.0033
1.00122
0.999259
0.997478
0.995976
0.99478
1.01332
1.01361
1.0135
1.01304
1.01215
1.01091
1.00932
1.00747
1.00543
1.0033
1.00118
0.999179
0.997364
0.995834
0.994616
1.01351
1.01381
1.0137
1.01323
1.01233
1.01106
1.00944
1.00755
1.00547
1.0033
1.00114
0.999097
0.997247
0.995688
0.994449
1.0137
1.01401
1.01389
1.01342
1.0125
1.01121
1.00956
1.00763
1.00551
1.0033
1.00109
0.999012
0.997126
0.995539
0.994277
1.0139
1.01421
1.0141
1.01361
1.01268
1.01136
1.00968
1.00771
1.00555
1.00329
1.00105
0.998925
0.997003
0.995386
0.994101
1.0141
1.01442
1.0143
1.01381
1.01286
1.01152
1.00981
1.0078
1.00559
1.00329
1.001
0.998834
0.996876
0.99523
0.993921
1.01431
1.01463
1.01451
1.01401
1.01304
1.01168
1.00993
1.00788
1.00563
1.00328
1.00095
0.998742
0.996746
0.995069
0.993737
1.01451
1.01484
1.01473
1.01422
1.01323
1.01184
1.01006
1.00797
1.00567
1.00328
1.00089
0.998646
0.996613
0.994904
0.993548
1.01473
1.01506
1.01494
1.01443
1.01343
1.012
1.01019
1.00806
1.00571
1.00327
1.00084
0.998548
0.996476
0.994736
0.993355
1.01494
1.01529
1.01517
1.01464
1.01362
1.01217
1.01032
1.00815
1.00576
1.00326
1.00078
0.998446
0.996335
0.994563
0.993157
1.01517
1.01552
1.01539
1.01486
1.01382
1.01235
1.01046
1.00824
1.0058
1.00325
1.00073
0.998342
0.996191
0.994386
0.992954
1.01539
1.01575
1.01562
1.01509
1.01403
1.01252
1.0106
1.00833
1.00584
1.00324
1.00066
0.998235
0.996042
0.994204
0.992747
1.01562
1.01599
1.01586
1.01531
1.01423
1.0127
1.01073
1.00843
1.00588
1.00323
1.0006
0.998124
0.99589
0.994018
0.992534
1.01586
1.01623
1.0161
1.01554
1.01444
1.01288
1.01088
1.00852
1.00592
1.00322
1.00054
0.99801
0.995733
0.993827
0.992317
1.0161
1.01647
1.01635
1.01578
1.01466
1.01307
1.01102
1.00862
1.00596
1.00321
1.00047
0.997893
0.995573
0.993631
0.992094
1.01634
1.01673
1.0166
1.01602
1.01488
1.01326
1.01117
1.00871
1.00601
1.00319
1.0004
0.997772
0.995408
0.993431
0.991867
1.01659
1.01698
1.01685
1.01627
1.01511
1.01345
1.01132
1.00881
1.00605
1.00317
1.00032
0.997647
0.995239
0.993225
0.991634
1.01684
1.01724
1.01711
1.01652
1.01533
1.01364
1.01147
1.00891
1.00609
1.00316
1.00025
0.997519
0.995065
0.993015
0.991395
1.0171
1.01751
1.01738
1.01677
1.01557
1.01384
1.01162
1.00901
1.00613
1.00314
1.00017
0.997387
0.994887
0.992799
0.991151
1.01736
1.01778
1.01765
1.01703
1.01581
1.01405
1.01178
1.00911
1.00617
1.00311
1.00009
0.997251
0.994703
0.992578
0.990901
1.01763
1.01806
1.01792
1.0173
1.01605
1.01425
1.01194
1.00922
1.00621
1.00309
1
0.997111
0.994516
0.992352
0.990645
1.0179
1.01834
1.01821
1.01757
1.0163
1.01446
1.0121
1.00932
1.00625
1.00307
0.999917
0.996967
0.994323
0.99212
0.990383
1.01818
1.01863
1.01849
1.01785
1.01655
1.01468
1.01227
1.00943
1.00629
1.00304
0.999826
0.996818
0.994125
0.991882
0.990116
1.01847
1.01892
1.01879
1.01813
1.0168
1.0149
1.01244
1.00953
1.00633
1.00301
0.999732
0.996665
0.993921
0.991638
0.989842
1.01876
1.01922
1.01908
1.01842
1.01707
1.01512
1.01261
1.00964
1.00637
1.00298
0.999635
0.996507
0.993712
0.991389
0.989562
1.01905
1.01953
1.01939
1.01871
1.01733
1.01535
1.01278
1.00975
1.00641
1.00295
0.999533
0.996345
0.993498
0.991133
0.989275
1.01935
1.01984
1.0197
1.01901
1.01761
1.01558
1.01296
1.00986
1.00645
1.00291
0.999428
0.996178
0.993278
0.990871
0.988982
1.01966
1.02016
1.02002
1.01932
1.01789
1.01581
1.01313
1.00997
1.00648
1.00287
0.999319
0.996005
0.993052
0.990603
0.988681
1.01997
1.02048
1.02034
1.01963
1.01817
1.01605
1.01332
1.01008
1.00652
1.00283
0.999206
0.995828
0.99282
0.990328
0.988375
1.02029
1.02082
1.02067
1.01995
1.01846
1.0163
1.0135
1.01019
1.00655
1.00279
0.999089
0.995645
0.992582
0.990047
0.988061
1.02062
1.02115
1.02101
1.02027
1.01875
1.01655
1.01369
1.01031
1.00659
1.00274
0.998968
0.995457
0.992338
0.989758
0.98774
1.02095
1.0215
1.02135
1.0206
1.01905
1.0168
1.01388
1.01042
1.00662
1.00269
0.998841
0.995263
0.992087
0.989463
0.987411
1.02129
1.02185
1.0217
1.02094
1.01936
1.01706
1.01407
1.01054
1.00665
1.00264
0.998711
0.995063
0.99183
0.98916
0.987076
1.02163
1.02221
1.02206
1.02128
1.01967
1.01732
1.01427
1.01065
1.00668
1.00259
0.998575
0.994857
0.991565
0.98885
0.986732
1.02199
1.02257
1.02243
1.02164
1.01999
1.01759
1.01447
1.01077
1.00671
1.00253
0.998435
0.994645
0.991294
0.988533
0.986381
1.02234
1.02295
1.0228
1.02199
1.02032
1.01786
1.01467
1.01089
1.00674
1.00246
0.998288
0.994426
0.991015
0.988208
0.986022
1.02271
1.02333
1.02318
1.02236
1.02065
1.01814
1.01487
1.01101
1.00677
1.0024
0.998137
0.994201
0.990729
0.987875
0.985655
1.02309
1.02372
1.02357
1.02274
1.02099
1.01843
1.01508
1.01113
1.00679
1.00233
0.99798
0.993968
0.990435
0.987534
0.98528
1.02347
1.02411
1.02397
1.02312
1.02134
1.01871
1.01529
1.01125
1.00681
1.00225
0.997817
0.993729
0.990134
0.987185
0.984896
1.02386
1.02452
1.02437
1.02351
1.02169
1.01901
1.01551
1.01137
1.00683
1.00217
0.997648
0.993483
0.989824
0.986827
0.984504
1.02425
1.02493
1.02478
1.02391
1.02205
1.01931
1.01573
1.01149
1.00685
1.00209
0.997473
0.993229
0.989506
0.986461
0.984103
1.02466
1.02535
1.02521
1.02431
1.02242
1.01961
1.01595
1.01161
1.00687
1.002
0.997291
0.992966
0.98918
0.986086
0.983693
1.02507
1.02579
1.02564
1.02473
1.02279
1.01992
1.01617
1.01173
1.00688
1.00191
0.997102
0.992697
0.988845
0.985702
0.983275
1.02549
1.02622
1.02608
1.02515
1.02317
1.02024
1.0164
1.01185
1.00689
1.00181
0.996906
0.992418
0.988501
0.985308
0.982847
1.02592
1.02667
1.02653
1.02559
1.02356
1.02056
1.01662
1.01197
1.00689
1.00171
0.996703
0.992132
0.988148
0.984906
0.982409
1.02636
1.02713
1.02699
1.02603
1.02396
1.02089
1.01686
1.01209
1.0069
1.0016
0.996492
0.991836
0.987785
0.984493
0.981962
1.02681
1.0276
1.02746
1.02648
1.02437
1.02122
1.01709
1.01221
1.0069
1.00148
0.996273
0.991531
0.987413
0.984071
0.981506
1.02727
1.02808
1.02794
1.02694
1.02478
1.02156
1.01733
1.01233
1.00689
1.00136
0.996046
0.991217
0.98703
0.983639
0.981039
1.02773
1.02857
1.02843
1.02741
1.02521
1.0219
1.01757
1.01245
1.00689
1.00123
0.99581
0.990893
0.986638
0.983197
0.980562
1.02821
1.02907
1.02893
1.02789
1.02564
1.02226
1.01781
1.01257
1.00687
1.0011
0.995566
0.990559
0.986235
0.982743
0.980075
1.0287
1.02958
1.02944
1.02839
1.02608
1.02261
1.01806
1.01269
1.00686
1.00095
0.995312
0.990215
0.985822
0.98228
0.979578
1.02919
1.0301
1.02996
1.02889
1.02653
1.02298
1.01831
1.0128
1.00683
1.0008
0.995048
0.98986
0.985397
0.981805
0.97907
1.0297
1.03063
1.03049
1.0294
1.02699
1.02335
1.01856
1.01292
1.00681
1.00064
0.994775
0.989494
0.984961
0.981319
0.978551
1.03022
1.03117
1.03104
1.02993
1.02746
1.02373
1.01881
1.01303
1.00677
1.00047
0.99449
0.989116
0.984513
0.980822
0.978021
1.03075
1.03173
1.0316
1.03046
1.02794
1.02411
1.01907
1.01314
1.00674
1.0003
0.994196
0.988727
0.984054
0.980313
0.97748
1.03129
1.03229
1.03217
1.03101
1.02843
1.0245
1.01933
1.01325
1.00669
1.00011
0.993889
0.988326
0.983582
0.979792
0.976927
1.03184
1.03287
1.03275
1.03157
1.02892
1.02489
1.01959
1.01335
1.00664
0.999914
0.993572
0.987913
0.983097
0.979258
0.976363
1.0324
1.03347
1.03335
1.03215
1.02943
1.0253
1.01985
1.01345
1.00658
0.999708
0.993242
0.987486
0.9826
0.978713
0.975787
1.03298
1.03407
1.03396
1.03273
1.02995
1.02571
1.02012
1.01355
1.00651
0.999491
0.992899
0.987046
0.98209
0.978154
0.975199
1.03357
1.03469
1.03458
1.03333
1.03048
1.02612
1.02038
1.01365
1.00644
0.999262
0.992543
0.986592
0.981565
0.977583
0.974599
1.03417
1.03533
1.03522
1.03394
1.03102
1.02655
1.02065
1.01374
1.00635
0.999022
0.992174
0.986125
0.981027
0.976998
0.973986
1.03479
1.03597
1.03588
1.03457
1.03158
1.02698
1.02091
1.01382
1.00626
0.998769
0.991791
0.985642
0.980475
0.9764
0.973361
1.03542
1.03664
1.03655
1.03521
1.03214
1.02741
1.02118
1.01391
1.00616
0.998503
0.991393
0.985145
0.979908
0.975789
0.972724
1.03606
1.03732
1.03723
1.03587
1.03272
1.02786
1.02145
1.01398
1.00604
0.998224
0.99098
0.984632
0.979326
0.975162
0.972073
1.03671
1.03801
1.03793
1.03654
1.0333
1.0283
1.02172
1.01405
1.00592
0.99793
0.990551
0.984103
0.978729
0.974522
0.97141
1.03739
1.03872
1.03865
1.03723
1.0339
1.02876
1.02199
1.01411
1.00578
0.997621
0.990105
0.983557
0.978116
0.973867
0.970733
1.03807
1.03945
1.03938
1.03793
1.03451
1.02922
1.02226
1.01417
1.00563
0.997296
0.989643
0.982995
0.977487
0.973198
0.970043
1.03878
1.04019
1.04013
1.03865
1.03514
1.02969
1.02252
1.01421
1.00547
0.996955
0.989162
0.982415
0.976841
0.972513
0.969339
1.03949
1.04095
1.0409
1.03938
1.03578
1.03017
1.02279
1.01425
1.00529
0.996596
0.988664
0.981817
0.976178
0.971813
0.968621
1.04023
1.04173
1.04169
1.04013
1.03643
1.03065
1.02305
1.01428
1.0051
0.99622
0.988146
0.9812
0.975498
0.971096
0.967888
1.04098
1.04253
1.0425
1.0409
1.03709
1.03113
1.02331
1.01429
1.00489
0.995824
0.987609
0.980564
0.9748
0.970364
0.967142
1.04175
1.04334
1.04332
1.04169
1.03777
1.03163
1.02357
1.0143
1.00467
0.995409
0.987051
0.979909
0.974084
0.969616
0.966381
1.04254
1.04418
1.04417
1.0425
1.03846
1.03212
1.02382
1.01429
1.00442
0.994973
0.986472
0.979233
0.97335
0.968851
0.965605
1.04335
1.04504
1.04504
1.04333
1.03916
1.03263
1.02407
1.01427
1.00416
0.994516
0.985871
0.978536
0.972596
0.968069
0.964813
1.04417
1.04592
1.04593
1.04418
1.03988
1.03313
1.02431
1.01424
1.00388
0.994036
0.985247
0.977819
0.971824
0.967269
0.964007
1.04502
1.04682
1.04684
1.04504
1.04061
1.03365
1.02454
1.01419
1.00358
0.993532
0.9846
0.977078
0.971031
0.966452
0.963185
1.04589
1.04774
1.04778
1.04593
1.04136
1.03416
1.02477
1.01412
1.00325
0.993004
0.983928
0.976316
0.970218
0.965618
0.962348
1.04677
1.04869
1.04874
1.04684
1.04212
1.03468
1.02499
1.01404
1.0029
0.992449
0.983231
0.97553
0.969384
0.964764
0.961494
1.04768
1.04966
1.04973
1.04777
1.0429
1.0352
1.0252
1.01393
1.00253
0.991869
0.982509
0.974721
0.96853
0.963893
0.960624
1.04861
1.05065
1.05074
1.04873
1.04369
1.03572
1.0254
1.01381
1.00213
0.991259
0.981759
0.973886
0.967653
0.963003
0.959738
1.04957
1.05167
1.05178
1.04971
1.04449
1.03625
1.02558
1.01366
1.0017
0.990621
0.980981
0.973027
0.966755
0.962093
0.958835
1.05055
1.05272
1.05284
1.05071
1.04531
1.03677
1.02575
1.01349
1.00124
0.989952
0.980175
0.972142
0.965834
0.961164
0.957915
1.05155
1.05379
1.05394
1.05174
1.04614
1.0373
1.02591
1.01329
1.00075
0.989252
0.979339
0.971231
0.964891
0.960216
0.956979
1.05258
1.0549
1.05506
1.05279
1.04699
1.03782
1.02605
1.01306
1.00023
0.988518
0.978472
0.970293
0.963924
0.959247
0.956025
1.05363
1.05603
1.05621
1.05387
1.04785
1.03834
1.02617
1.01281
0.999672
0.987751
0.977575
0.969328
0.962934
0.958259
0.955053
1.05471
1.05719
1.0574
1.05497
1.04873
1.03885
1.02626
1.01252
0.999079
0.986947
0.976644
0.968333
0.961919
0.957249
0.954064
1.05582
1.05839
1.05862
1.0561
1.04961
1.03936
1.02634
1.0122
0.998449
0.986107
0.97568
0.967311
0.96088
0.956219
0.953058
1.05696
1.05961
1.05987
1.05726
1.05051
1.03986
1.02639
1.01184
0.997777
0.985228
0.974682
0.966258
0.959815
0.955168
0.952033
1.05813
1.06087
1.06116
1.05845
1.05143
1.04035
1.02641
1.01144
0.997064
0.984309
0.973649
0.965175
0.958726
0.954096
0.950991
1.05933
1.06217
1.06248
1.05967
1.05235
1.04083
1.0264
1.011
0.996307
0.983348
0.972578
0.964062
0.957611
0.953001
0.94993
1.06057
1.0635
1.06384
1.06092
1.05328
1.04129
1.02636
1.01052
0.995504
0.982345
0.971472
0.962917
0.956469
0.951886
0.948852
1.06183
1.06488
1.06524
1.0622
1.05422
1.04174
1.02627
1.00999
0.994652
0.981298
0.970326
0.96174
0.955301
0.950748
0.947754
1.06313
1.06629
1.06669
1.06351
1.05518
1.04217
1.02615
1.00941
0.993749
0.980204
0.969141
0.960531
0.954107
0.949589
0.946639
1.06447
1.06774
1.06817
1.06485
1.05613
1.04257
1.02599
1.00877
0.992794
0.979063
0.967916
0.959288
0.952885
0.948406
0.945505
1.06585
1.06924
1.0697
1.06622
1.05709
1.04295
1.02577
1.00808
0.991783
0.977874
0.966651
0.958012
0.951636
0.947202
0.944352
1.06726
1.07078
1.07128
1.06762
1.05806
1.0433
1.02551
1.00733
0.990715
0.976633
0.965343
0.956702
0.95036
0.945975
0.943181
1.06872
1.07236
1.0729
1.06906
1.05902
1.04362
1.02519
1.00652
0.989587
0.975341
0.963992
0.955357
0.949055
0.944726
0.941991
1.07021
1.074
1.07457
1.07053
1.05999
1.0439
1.02481
1.00563
0.988395
0.973996
0.962598
0.953978
0.947723
0.943454
0.940782
1.07175
1.07569
1.07629
1.07203
1.06094
1.04414
1.02436
1.00468
0.98714
0.972595
0.961159
0.952563
0.946363
0.942159
0.939554
1.07334
1.07743
1.07807
1.07356
1.06189
1.04432
1.02384
1.00365
0.985816
0.971138
0.959675
0.951112
0.944974
0.940841
0.938308
1.07497
1.07922
1.0799
1.07512
1.06283
1.04446
1.02325
1.00255
0.984423
0.969624
0.958145
0.949625
0.943556
0.939501
0.937043
1.07666
1.08108
1.08179
1.07671
1.06374
1.04453
1.02257
1.00136
0.982957
0.96805
0.956568
0.948102
0.942111
0.938138
0.935759
1.07839
1.083
1.08374
1.07833
1.06464
1.04454
1.0218
1.00009
0.981417
0.966416
0.954945
0.946543
0.940637
0.936752
0.934457
1.08018
1.08498
1.08576
1.07998
1.06551
1.04447
1.02095
0.998719
0.979799
0.964721
0.953274
0.944947
0.939134
0.935343
0.933135
1.08202
1.08703
1.08783
1.08165
1.06634
1.04432
1.01999
0.997258
0.978102
0.962963
0.951555
0.943314
0.937603
0.933912
0.931796
1.08392
1.08915
1.08997
1.08335
1.06713
1.04408
1.01892
0.995698
0.976323
0.961142
0.949788
0.941645
0.936044
0.932459
0.930438
1.08589
1.09134
1.09218
1.08506
1.06787
1.04374
1.01774
0.994034
0.974462
0.959257
0.947972
0.939939
0.934457
0.930983
0.929061
1.08791
1.09362
1.09446
1.08679
1.06856
1.04329
1.01644
0.992262
0.972514
0.957306
0.946108
0.938197
0.932842
0.929485
0.927667
1.09001
1.09598
1.09681
1.08853
1.06917
1.04272
1.015
0.99038
0.970479
0.95529
0.944196
0.936419
0.931199
0.927965
0.926254
1.09217
1.09842
1.09923
1.09027
1.06971
1.04201
1.01344
0.988381
0.968355
0.953207
0.942235
0.934605
0.929529
0.926424
0.924823
1.09441
1.10096
1.10173
1.09201
1.07015
1.04117
1.01172
0.986264
0.966141
0.951059
0.940226
0.932756
0.927832
0.924862
0.923375
1.09673
1.1036
1.1043
1.09375
1.07049
1.04017
1.00986
0.984025
0.963836
0.948845
0.938169
0.930872
0.926109
0.923278
0.921909
1.09913
1.10634
1.10695
1.09546
1.07071
1.03901
1.00784
0.98166
0.961439
0.946564
0.936065
0.928954
0.924359
0.921673
0.920426
1.10161
1.1092
1.10967
1.09714
1.07079
1.03766
1.00565
0.979166
0.958949
0.944218
0.933914
0.927001
0.922584
0.920049
0.918926
1.10419
1.11216
1.11247
1.09878
1.07072
1.03612
1.00329
0.976543
0.956366
0.941806
0.931718
0.925016
0.920784
0.918404
0.91741
1.10686
1.11525
1.11533
1.10036
1.07048
1.03437
1.00074
0.973786
0.95369
0.93933
0.929478
0.922999
0.91896
0.91674
0.915877
1.10964
1.11848
1.11827
1.10187
1.07005
1.03239
0.998014
0.970896
0.950922
0.936792
0.927193
0.920951
0.917112
0.915056
0.914328
1.11252
1.12183
1.12127
1.10329
1.0694
1.03018
0.995093
0.967871
0.948063
0.934191
0.924867
0.918873
0.915241
0.913354
0.912764
1.11552
1.12534
1.12432
1.10459
1.06852
1.02771
0.991975
0.964712
0.945114
0.93153
0.9225
0.916767
0.913349
0.911635
0.911184
1.11864
1.12899
1.12742
1.10576
1.06737
1.02498
0.988655
0.961419
0.942076
0.92881
0.920094
0.914632
0.911435
0.909897
0.909589
1.1219
1.1328
1.13056
1.10676
1.06593
1.02197
0.985132
0.957993
0.938953
0.926035
0.917651
0.912471
0.909501
0.908143
0.907979
1.1253
1.13678
1.13372
1.10756
1.06417
1.01866
0.981402
0.954436
0.935746
0.923206
0.915172
0.910286
0.907547
0.906373
0.906355
1.12885
1.14094
1.13689
1.10814
1.06207
1.01505
0.977466
0.950751
0.932459
0.920326
0.912661
0.908077
0.905575
0.904587
0.904717
1.13256
1.14527
1.14004
1.10845
1.0596
1.01112
0.973325
0.946943
0.929095
0.917397
0.910118
0.905847
0.903586
0.902786
0.903066
1.13645
1.14979
1.14315
1.10845
1.05672
1.00686
0.96898
0.943016
0.925658
0.914424
0.907548
0.903597
0.901581
0.900971
0.901401
1.14054
1.1545
1.14619
1.10811
1.05341
1.00227
0.964436
0.938975
0.922153
0.91141
0.904952
0.901329
0.899561
0.899142
0.899724
1.14483
1.15939
1.14913
1.10736
1.04963
0.997341
0.959701
0.934827
0.918585
0.908359
0.902333
0.899044
0.897527
0.897301
0.898035
1.14934
1.16448
1.15192
1.10616
1.04537
0.992071
0.954781
0.93058
0.914958
0.905274
0.899695
0.896745
0.89548
0.895448
0.896334
1.15411
1.16975
1.15452
1.10446
1.04058
0.986464
0.949687
0.926241
0.911279
0.902161
0.89704
0.894433
0.893422
0.893583
0.894621
1.15914
1.1752
1.15687
1.1022
1.03525
0.980523
0.944431
0.921819
0.907554
0.899023
0.894371
0.892111
0.891354
0.891707
0.892899
1.16446
1.18082
1.15891
1.09931
1.02935
0.974259
0.939029
0.917323
0.903789
0.895866
0.891691
0.88978
0.889276
0.889822
0.891165
1.17011
1.18658
1.16056
1.09573
1.02287
0.967686
0.933494
0.912764
0.899991
0.892694
0.889005
0.887442
0.88719
0.887928
0.889422
1.1761
1.19246
1.16175
1.0914
1.0158
0.960824
0.927847
0.908152
0.896167
0.889513
0.886314
0.8851
0.885098
0.886025
0.887669
1.18247
1.19842
1.16239
1.08625
1.00814
0.953696
0.922105
0.903497
0.892324
0.886328
0.883623
0.882755
0.883
0.884115
0.885908
1.18926
1.20441
1.16237
1.08023
0.999884
0.946332
0.916289
0.89881
0.88847
0.883144
0.880935
0.880409
0.880898
0.882198
0.884138
1.1965
1.21038
1.16158
1.07328
0.991049
0.938768
0.91042
0.894103
0.884614
0.879968
0.878252
0.878064
0.878793
0.880275
0.882361
1.20423
1.21625
1.15992
1.06533
0.981662
0.931042
0.90452
0.889386
0.880762
0.876804
0.875579
0.875721
0.876686
0.878346
0.880577
1.21249
1.22194
1.15725
1.05635
0.971758
0.923199
0.898609
0.88467
0.876924
0.873657
0.872918
0.873384
0.874578
0.876414
0.878786
1.22131
1.22732
1.15343
1.0463
0.961388
0.915286
0.892709
0.879967
0.873107
0.870535
0.870272
0.871052
0.87247
0.874477
0.87699
1.23074
1.23227
1.14833
1.03516
0.950616
0.907352
0.886839
0.875287
0.869321
0.867441
0.867644
0.868728
0.870363
0.872538
0.875189
1.2408
1.23662
1.14179
1.02293
0.939522
0.899447
0.881016
0.870641
0.865575
0.864381
0.865036
0.866413
0.868259
0.870597
0.873385
1.25153
1.2402
1.13367
1.00963
0.928199
0.89162
0.875257
0.866039
0.861876
0.86136
0.862451
0.864109
0.866158
0.868656
0.871578
1.26293
1.24277
1.12382
0.995313
0.916752
0.88392
0.869576
0.861494
0.858234
0.858382
0.859891
0.861817
0.864062
0.866715
0.86977