/*--------------------------------*- C++ -*----------------------------------*\
  =========                 |
  \\      /  F ield         | OpenFOAM: The Open Source CFD Toolbox
   \\    /   O peration     | Website:  https://openfoam.org
    \\  /    A nd           | Version:  6.0
     \\/     M anipulation  |
\*---------------------------------------------------------------------------*/
FoamFile
{
    version     2.0;
    format      ascii;
    class       surfaceScalarField;
    location    "1.2";
    object      phi;
}
// * * * * * * * * * * * * * * * * * * * * * * * * * * * * * * * * * * * * * //

dimensions      [0 3 -1 0 0 0 0];

internalField   nonuniform List<scalar> 
47678
(
2.98131e-05
0.00388594
9.2039e-10
5.98488e-05
0.00381844
8.91149e-05
0.00368585
0.000116963
0.0034902
0.000142855
0.00323489
0.000166313
0.00292439
0.000186916
0.00256404
0.000204296
0.00216006
0.000218145
0.00171942
0.00022822
0.00124968
0.000234337
0.000759653
0.000260893
0.000236946
2.96244e-05
0.00385631
7.07514e-10
5.94699e-05
0.00378859
8.85504e-05
0.00365678
0.000116222
0.00346254
0.000141948
0.00320918
0.000165255
0.0029011
0.000185725
0.00254358
0.000202994
0.0021428
0.000216756
0.00170567
0.000226761
0.00123969
0.000232934
0.000753497
0.000258242
0.00023561
2.94364e-05
0.00382688
4.61282e-10
5.9093e-05
0.00375894
8.79894e-05
0.00362788
0.000115485
0.00343504
0.000141046
0.00318362
0.000164204
0.00287794
0.000184543
0.00252325
0.000201702
0.00212564
0.000215377
0.001692
0.000225315
0.00122975
0.000231466
0.000747345
0.000255609
0.000234086
2.92496e-05
0.00379763
2.03726e-10
5.87186e-05
0.00372947
8.7432e-05
0.00359918
0.000114752
0.00340773
0.000140151
0.00315823
0.00016316
0.00285494
0.000183369
0.00250305
0.000200418
0.0021086
0.000214007
0.00167842
0.000223881
0.00121989
0.000229981
0.000741258
0.000253095
0.000232517
2.90642e-05
0.00376856
-1.86093e-10
5.83467e-05
0.00370019
8.68782e-05
0.00357065
0.000114024
0.00338058
0.00013926
0.00313299
0.000162123
0.00283208
0.000182202
0.00248297
0.000199142
0.00209166
0.000212645
0.00166491
0.000222457
0.00121007
0.000228503
0.000735208
0.000250617
0.000230967
2.88801e-05
0.00373968
-5.96855e-10
5.79773e-05
0.00367109
8.63278e-05
0.0035423
0.000113301
0.00335361
0.000138375
0.00310793
0.000161091
0.00280937
0.000181042
0.00246303
0.000197874
0.00207484
0.000211292
0.0016515
0.000221044
0.00120033
0.00022704
0.000729224
0.00024823
0.000229448
2.86971e-05
0.00371099
-1.06551e-09
5.76101e-05
0.00364218
8.57807e-05
0.00351413
0.000112582
0.00332681
0.000137496
0.00308301
0.000160067
0.0027868
0.00017989
0.0024432
0.000196615
0.00205811
0.000209948
0.00163817
0.000219642
0.00119063
0.000225594
0.000723268
0.00024586
0.000227952
2.85154e-05
0.00368248
-1.598e-09
5.72451e-05
0.00361345
8.52368e-05
0.00348614
0.000111867
0.00330019
0.000136622
0.00305826
0.000159049
0.00276438
0.000178746
0.00242351
0.000195364
0.0020415
0.000208613
0.00162493
0.000218249
0.001181
0.00022416
0.000717367
0.000243568
0.000226472
2.83349e-05
0.00365414
-2.20032e-09
5.68823e-05
0.0035849
8.4696e-05
0.00345833
0.000111156
0.00327372
0.000135753
0.00303367
0.000158037
0.00274209
0.000177609
0.00240394
0.000194121
0.00202499
0.000207287
0.00161176
0.000216865
0.00117142
0.000222737
0.00071149
0.00024129
0.000225006
2.81554e-05
0.00362599
-2.87441e-09
5.65217e-05
0.00355654
8.41585e-05
0.0034307
0.00011045
0.00324744
0.00013489
0.00300923
0.000157032
0.00271995
0.000176479
0.0023845
0.000192886
0.00200858
0.000205969
0.00159869
0.000215489
0.00116191
0.000221324
0.000705666
0.00023908
0.000223553
2.79771e-05
0.00359802
-3.59817e-09
5.61632e-05
0.00352835
8.3624e-05
0.00340324
0.000109748
0.00322131
0.000134032
0.00298495
0.000156033
0.00269795
0.000175356
0.00236517
0.00019166
0.00199228
0.000204659
0.00158568
0.000214122
0.00115244
0.000219919
0.000699863
0.000236878
0.000222114
2.77998e-05
0.00357022
-4.34121e-09
5.58068e-05
0.00350035
8.30927e-05
0.00337595
0.00010905
0.00319536
0.00013318
0.00296082
0.000155041
0.0026761
0.000174241
0.00234598
0.000190441
0.00197609
0.000203359
0.00157277
0.000212764
0.00114305
0.000218525
0.000694113
0.000234733
0.000220687
2.76236e-05
0.0035426
-5.03484e-09
5.54524e-05
0.00347252
8.25645e-05
0.00334884
0.000108357
0.00316956
0.000132333
0.00293684
0.000154055
0.00265437
0.000173133
0.0023269
0.00018923
0.00195998
0.000202066
0.00155993
0.000211415
0.00113369
0.000217139
0.000688383
0.00023259
0.000219273
2.74483e-05
0.00351516
-5.58934e-09
5.51001e-05
0.00344487
8.20395e-05
0.0033219
0.000107668
0.00314394
0.000131491
0.00291302
0.000153075
0.00263279
0.000172032
0.00230795
0.000188028
0.001944
0.000200783
0.00154719
0.000210074
0.00112441
0.000215762
0.000682704
0.0002305
0.000217868
2.7274e-05
0.00348789
-5.90426e-09
5.47498e-05
0.00341739
8.15176e-05
0.00329513
0.000106983
0.00311847
0.000130655
0.00288935
0.000152101
0.00261134
0.000170938
0.00228911
0.000186833
0.0019281
0.000199507
0.00153451
0.000208741
0.00111517
0.000214393
0.000677046
0.000228407
0.000216474
2.71006e-05
0.0034608
-5.86653e-09
5.44016e-05
0.00339009
8.09989e-05
0.00326854
0.000106302
0.00309317
0.000129824
0.00286583
0.000151134
0.00259004
0.000169852
0.00227039
0.000185645
0.00191231
0.00019824
0.00152192
0.000207418
0.001106
0.000213034
0.000671438
0.000226364
0.000215091
2.69281e-05
0.00343388
-5.39655e-09
5.40554e-05
0.00336297
8.04834e-05
0.00324211
0.000105626
0.00306803
0.000128998
0.00284246
0.000150173
0.00256886
0.000168772
0.00225179
0.000184466
0.00189661
0.000196981
0.0015094
0.000206102
0.00109688
0.000211683
0.000665851
0.000224315
0.000213718
2.67566e-05
0.00340713
-4.4445e-09
5.37113e-05
0.00333601
7.99711e-05
0.00321585
0.000104953
0.00304305
0.000128177
0.00281924
0.000149218
0.00254782
0.000167699
0.00223332
0.000183294
0.00188102
0.000195731
0.00149697
0.000204795
0.00108782
0.000210341
0.000660313
0.000222313
0.000212354
2.65859e-05
0.00338054
-3.01184e-09
5.33691e-05
0.00330923
7.9462e-05
0.00318976
0.000104286
0.00301822
0.000127362
0.00279616
0.000148269
0.00252691
0.000166633
0.00221495
0.000182129
0.00186552
0.000194488
0.00148461
0.000203496
0.0010788
0.000209007
0.000654795
0.000220302
0.000211
2.64162e-05
0.00335413
-1.14982e-09
5.30291e-05
0.00328262
7.8956e-05
0.00316383
0.000103622
0.00299356
0.000126552
0.00277323
0.000147327
0.00250614
0.000165574
0.00219671
0.000180973
0.00185013
0.000193253
0.00147233
0.000202206
0.00106986
0.000207682
0.000649327
0.00021834
0.000209656
2.62474e-05
0.00332788
1.0539e-09
5.2691e-05
0.00325617
7.84532e-05
0.00313807
0.000102963
0.00296905
0.000125747
0.00275045
0.00014639
0.0024855
0.000164522
0.00217857
0.000179823
0.00183483
0.000192027
0.00146012
0.000200923
0.00106096
0.000206365
0.000643878
0.000216365
0.00020832
2.60795e-05
0.0033018
3.49413e-09
5.23551e-05
0.0032299
7.79535e-05
0.00311248
0.000102307
0.0029447
0.000124947
0.00272781
0.00014546
0.00246499
0.000163477
0.00216056
0.000178681
0.00181963
0.000190808
0.001448
0.000199649
0.00105212
0.000205057
0.000638479
0.00021444
0.000206994
2.59125e-05
0.00327588
6.06214e-09
5.20211e-05
0.00320379
7.74569e-05
0.00308704
0.000101656
0.0029205
0.000124153
0.00270531
0.000144535
0.0024446
0.000162438
0.00214265
0.000177547
0.00180451
0.000189597
0.00143595
0.000198383
0.00104333
0.000203757
0.000633098
0.0002125
0.000205676
2.57464e-05
0.00325012
8.67472e-09
5.16892e-05
0.00317785
7.69634e-05
0.00306177
0.000101009
0.00289645
0.000123363
0.00268296
0.000143616
0.00242435
0.000161406
0.00212487
0.00017642
0.00178951
0.000188394
0.00142398
0.000197125
0.00103461
0.000202465
0.000627767
0.00021061
0.000204368
2.55813e-05
0.00322453
1.12708e-08
5.13592e-05
0.00315207
7.6473e-05
0.00303665
0.000100366
0.00287256
0.000122578
0.00266075
0.000142703
0.00240422
0.000160381
0.00210719
0.0001753
0.00177458
0.000187199
0.00141208
0.000195875
0.00102592
0.000201181
0.000622454
0.000208705
0.000203069
2.54171e-05
0.0031991
1.38245e-08
5.10313e-05
0.00312646
7.59856e-05
0.0030117
9.97271e-05
0.00284882
0.000121799
0.00263868
0.000141796
0.00238423
0.000159362
0.00208962
0.000174187
0.00175976
0.000186011
0.00140026
0.000194633
0.00101731
0.000199906
0.00061719
0.000206849
0.000201778
2.52538e-05
0.00317383
1.63305e-08
5.07054e-05
0.003101
7.55012e-05
0.0029869
9.90922e-05
0.00282523
0.000121024
0.00261674
0.000140895
0.00236436
0.00015835
0.00207217
0.000173081
0.00174503
0.000184831
0.00138851
0.000193399
0.00100873
0.000198638
0.000611943
0.000204976
0.000200496
2.50914e-05
0.00314872
1.88002e-08
5.03814e-05
0.00307572
7.50199e-05
0.00296226
9.84613e-05
0.00280179
0.000120254
0.00259495
0.000139999
0.00234461
0.000157344
0.00205482
0.000171983
0.0017304
0.000183658
0.00137684
0.000192173
0.00100023
0.000197379
0.000606746
0.000203152
0.000199222
2.493e-05
0.00312377
2.1244e-08
5.00595e-05
0.00305059
7.45416e-05
0.00293778
9.78344e-05
0.00277849
0.000119489
0.0025733
0.00013911
0.00232499
0.000156345
0.00203759
0.000170891
0.00171585
0.000182493
0.00136523
0.000190954
0.000991759
0.000196128
0.000601564
0.000201311
0.000197957
2.47695e-05
0.00309898
2.36687e-08
4.97395e-05
0.00302562
7.40662e-05
0.00291346
9.72114e-05
0.00275535
0.000118729
0.00255178
0.000138226
0.0023055
0.000155352
0.00202046
0.000169806
0.0017014
0.000181336
0.00135371
0.000189744
0.000983358
0.000194885
0.000596432
0.000199516
0.0001967
2.461e-05
0.00307434
2.60637e-08
4.94214e-05
0.00300081
7.35938e-05
0.00288928
9.65923e-05
0.00273235
0.000117974
0.0025304
0.000137347
0.00228612
0.000154366
0.00200344
0.000168729
0.00168703
0.000180186
0.00134224
0.000188541
0.000974996
0.000193649
0.000591316
0.000197705
0.00019545
2.44514e-05
0.00304986
2.84094e-08
4.91053e-05
0.00297615
7.31243e-05
0.00286527
9.59771e-05
0.0027095
0.000117223
0.00250916
0.000136474
0.00226687
0.000153385
0.00198653
0.000167658
0.00167276
0.000179043
0.00133086
0.000187345
0.0009667
0.000192422
0.000586248
0.000195937
0.000194209
2.42938e-05
0.00302553
3.06705e-08
4.87912e-05
0.00295165
7.26578e-05
0.0028414
9.53659e-05
0.00268679
0.000116478
0.00248804
0.000135607
0.00224774
0.000152412
0.00196973
0.000166594
0.00165857
0.000177907
0.00131955
0.000186158
0.000958444
0.000191202
0.000581195
0.000194153
0.000192976
2.41372e-05
0.00300136
3.28106e-08
4.84791e-05
0.00292731
7.21942e-05
0.00281768
9.47585e-05
0.00266423
0.000115737
0.00246707
0.000134745
0.00222873
0.000151444
0.00195303
0.000165537
0.00164448
0.000176779
0.00130831
0.000184978
0.000950251
0.00018999
0.000576192
0.000192411
0.000191751
2.39815e-05
0.00297735
3.47901e-08
4.81689e-05
0.00290312
7.17336e-05
0.00279412
9.41549e-05
0.0026418
0.000115001
0.00244622
0.000133889
0.00220984
0.000150482
0.00193643
0.000164487
0.00163048
0.000175658
0.00129713
0.000183805
0.000942098
0.000188785
0.000571202
0.000190652
0.000190533
2.38269e-05
0.00295348
3.65814e-08
4.78607e-05
0.00287909
7.12759e-05
0.0027707
9.35552e-05
0.00261953
0.000114269
0.00242551
0.000133038
0.00219108
0.000149527
0.00191995
0.000163443
0.00161656
0.000174544
0.00128604
0.00018264
0.000934009
0.000187588
0.000566262
0.000188933
0.000189324
2.36732e-05
0.00292977
3.81639e-08
4.75544e-05
0.00285521
7.08211e-05
0.00274743
9.29594e-05
0.00259739
0.000113542
0.00240492
0.000132193
0.00217242
0.000148577
0.00190356
0.000162406
0.00160273
0.000173437
0.001275
0.000181482
0.000925958
0.000186399
0.000561334
0.000187195
0.000188122
2.35205e-05
0.00290621
3.95353e-08
4.72501e-05
0.00283148
7.03692e-05
0.00272432
9.23673e-05
0.00257539
0.00011282
0.00238447
0.000131353
0.00215389
0.000147634
0.00188728
0.000161376
0.00158899
0.000172337
0.00126405
0.000180331
0.00091797
0.000185217
0.000556456
0.000185497
0.000186928
2.33688e-05
0.0028828
4.07016e-08
4.69478e-05
0.0028079
6.99202e-05
0.00270134
9.17791e-05
0.00255353
0.000112103
0.00236414
0.000130519
0.00213547
0.000146697
0.0018711
0.000160352
0.00157533
0.000171244
0.00125315
0.000179188
0.000910019
0.000184043
0.000551591
0.000183781
0.000185742
2.32182e-05
0.00285954
4.16831e-08
4.66474e-05
0.00278447
6.94741e-05
0.00267852
9.11946e-05
0.00253181
0.00011139
0.00234395
0.000129689
0.00211717
0.000145766
0.00185503
0.000159335
0.00156177
0.000170158
0.00124233
0.000178052
0.000902132
0.000182876
0.000546774
0.000182105
0.000184563
2.30685e-05
0.00283643
4.25007e-08
4.6349e-05
0.00276119
6.90309e-05
0.00265583
9.06139e-05
0.00251022
0.000110681
0.00232388
0.000128866
0.00209899
0.00014484
0.00183905
0.000158324
0.00154828
0.000169079
0.00123157
0.000176924
0.000894281
0.000181717
0.00054197
0.000180408
0.000183392
2.29199e-05
0.00281347
4.31795e-08
4.60525e-05
0.00273806
6.85906e-05
0.0026333
9.00369e-05
0.00248878
0.000109978
0.00230394
0.000128047
0.00208092
0.000143921
0.00182318
0.000157319
0.00153489
0.000168007
0.00122089
0.000175802
0.000886492
0.000180565
0.000537214
0.000178752
0.000182228
2.27722e-05
0.00279065
4.37357e-08
4.57579e-05
0.00271507
6.81531e-05
0.0026109
8.94637e-05
0.00246747
0.000109278
0.00228412
0.000127234
0.00206296
0.000143007
0.0018074
0.000156321
0.00152157
0.000166942
0.00121026
0.000174688
0.000878739
0.00017942
0.000532469
0.000177076
0.000181072
2.26256e-05
0.00276798
4.4183e-08
4.54653e-05
0.00269223
6.77185e-05
0.00258865
8.88941e-05
0.00244629
0.000108583
0.00226444
0.000126425
0.00204512
0.0001421
0.00179173
0.00015533
0.00150834
0.000165883
0.00119971
0.00017358
0.000871049
0.000178283
0.000527773
0.000175442
0.000179923
2.248e-05
0.00274546
4.4524e-08
4.51746e-05
0.00266954
6.72866e-05
0.00256653
8.83282e-05
0.00242525
0.000107893
0.00224487
0.000125622
0.00202739
0.000141198
0.00177615
0.000154344
0.00149519
0.000164832
0.00118922
0.00017248
0.000863393
0.000177152
0.000523089
0.000173786
0.000178782
2.23354e-05
0.00272308
4.47621e-08
4.48858e-05
0.00264699
6.68576e-05
0.00254456
8.7766e-05
0.00240434
0.000107207
0.00222543
0.000124824
0.00200977
0.000140301
0.00176068
0.000153365
0.00148213
0.000163786
0.0011788
0.000171387
0.000855798
0.000176029
0.00051845
0.000172175
0.000177648
2.21918e-05
0.00270084
4.4897e-08
4.45989e-05
0.00262458
6.64314e-05
0.00252273
8.72074e-05
0.00238356
0.000106526
0.00220611
0.000124031
0.00199226
0.000139411
0.00174529
0.000152392
0.00146914
0.000162748
0.00116844
0.0001703
0.000848238
0.000174914
0.00051382
0.000170541
0.000176522
2.20493e-05
0.00267874
4.49395e-08
4.43139e-05
0.00260232
6.6008e-05
0.00250104
8.66524e-05
0.00236292
0.000105848
0.00218692
0.000123244
0.00197487
0.000138526
0.00173002
0.000151426
0.00145625
0.000161716
0.00115815
0.000169221
0.000840739
0.000173805
0.000509238
0.000168954
0.000175402
2.19077e-05
0.00265679
4.49064e-08
4.40308e-05
0.00258019
6.55873e-05
0.00247948
8.6101e-05
0.0023424
0.000105175
0.00216784
0.000122461
0.00195758
0.000137647
0.00171483
0.000150465
0.00144342
0.00016069
0.00114792
0.000168148
0.000833274
0.000172703
0.000504666
0.000167345
0.000174291
2.17671e-05
0.00263498
4.4832e-08
4.37496e-05
0.00255821
6.51693e-05
0.00245806
8.55531e-05
0.00232202
0.000104507
0.00214889
0.000121683
0.00194041
0.000136773
0.00169974
0.00014951
0.00143069
0.000159672
0.00113777
0.000167082
0.000825869
0.000171608
0.000500139
0.000165784
0.000173186
2.16275e-05
0.0026133
4.4758e-08
4.34703e-05
0.00253637
6.47541e-05
0.00243677
8.50087e-05
0.00230176
0.000103843
0.00213005
0.00012091
0.00192333
0.000135905
0.00168474
0.000148562
0.00141803
0.000158659
0.00112766
0.000166023
0.000818496
0.000170521
0.000495621
0.000164199
0.000172088
2.14888e-05
0.00259177
4.47374e-08
4.31928e-05
0.00251467
6.43416e-05
0.00241563
8.44679e-05
0.00228164
0.000103183
0.00211134
0.000120142
0.00190638
0.000135042
0.00166984
0.00014762
0.00140546
0.000157653
0.00111763
0.000164971
0.000811184
0.00016944
0.00049115
0.000162662
0.000170998
2.13511e-05
0.00257037
4.48201e-08
4.29171e-05
0.0024931
6.39317e-05
0.00239461
8.39305e-05
0.00226164
0.000102527
0.00209274
0.000119379
0.00188952
0.000134185
0.00165503
0.000146683
0.00139295
0.000156654
0.00110766
0.000163925
0.000803903
0.000168366
0.000486687
0.000161103
0.000169914
2.12144e-05
0.00254911
4.50528e-08
4.26432e-05
0.00247167
6.35245e-05
0.00237373
8.33965e-05
0.00224177
0.000101875
0.00207426
0.000118621
0.00187278
0.000133333
0.00164032
0.000145753
0.00138054
0.00015566
0.00109775
0.000162886
0.000796683
0.000167299
0.000482273
0.000159588
0.000168838
2.10786e-05
0.00252799
4.54649e-08
4.23711e-05
0.00245038
6.31199e-05
0.00235298
8.2866e-05
0.00222202
0.000101228
0.00205589
0.000117868
0.00185613
0.000132487
0.0016257
0.000144828
0.00136819
0.000154673
0.0010879
0.000161854
0.000789493
0.000166239
0.000477867
0.000158051
0.000167768
2.09437e-05
0.002507
4.60717e-08
4.21009e-05
0.00242922
6.27179e-05
0.00233236
8.23389e-05
0.0022024
0.000100584
0.00203765
0.000117119
0.0018396
0.000131646
0.00161117
0.000143909
0.00135593
0.000153693
0.00107812
0.000160828
0.000782362
0.000165186
0.00047351
0.000156555
0.000166705
2.08097e-05
0.00248614
4.68657e-08
4.18324e-05
0.0024082
6.23185e-05
0.00231187
8.18151e-05
0.0021829
9.99449e-05
0.00201952
0.000116375
0.00182316
0.000130811
0.00159673
0.000142997
0.00134374
0.000152718
0.00106839
0.000159809
0.000775262
0.00016414
0.00046916
0.000155033
0.000165649
2.06767e-05
0.00246541
4.78271e-08
4.15656e-05
0.00238731
6.19217e-05
0.00229152
8.12947e-05
0.00216353
9.93097e-05
0.0020015
0.000115636
0.00180684
0.00012998
0.00158239
0.000142089
0.00133163
0.00015175
0.00105873
0.000158796
0.00076822
0.0001631
0.000464858
0.000153551
0.0001646
2.05445e-05
0.00244482
4.89207e-08
4.13006e-05
0.00236655
6.15274e-05
0.00227129
8.07776e-05
0.00214428
9.86785e-05
0.0019836
0.000114902
0.00179061
0.000129155
0.00156813
0.000141188
0.0013196
0.000150788
0.00104913
0.00015779
0.000761208
0.000162067
0.000460563
0.000152045
0.000163557
2.04132e-05
0.00242435
5.01101e-08
4.10373e-05
0.00234593
6.11357e-05
0.00225119
8.02638e-05
0.00212515
9.80513e-05
0.00196581
0.000114172
0.00177449
0.000128336
0.00155397
0.000140293
0.00130764
0.000149832
0.00103959
0.00015679
0.000754253
0.00016104
0.000456316
0.000150577
0.000162521
2.02827e-05
0.00240402
5.13563e-08
4.07757e-05
0.00232543
6.07464e-05
0.00223122
7.97532e-05
0.00210614
9.74281e-05
0.00194814
0.000113447
0.00175847
0.000127521
0.00153989
0.000139403
0.00129575
0.000148883
0.0010301
0.000155797
0.000747328
0.000160021
0.000452075
0.000149082
0.000161492
2.01531e-05
0.00238381
5.26306e-08
4.05158e-05
0.00230507
6.03597e-05
0.00221138
7.92459e-05
0.00208726
9.68089e-05
0.00193058
0.000112726
0.00174256
0.000126712
0.00152591
0.000138519
0.00128395
0.000147939
0.00102068
0.00015481
0.00074046
0.000159007
0.00044788
0.000147629
0.00016047
2.00243e-05
0.00236373
5.39089e-08
4.02576e-05
0.00228484
5.99754e-05
0.00219166
7.87418e-05
0.00206849
9.61936e-05
0.00191312
0.00011201
0.00172673
0.000125908
0.00151201
0.00013764
0.00127221
0.000147002
0.00101131
0.00015383
0.00073362
0.000158001
0.000443693
0.000146147
0.000159454
1.98963e-05
0.00234378
5.51806e-08
4.0001e-05
0.00226473
5.95935e-05
0.00217207
7.82409e-05
0.00204984
9.55822e-05
0.00189578
0.000111299
0.00171102
0.000125109
0.0014982
0.000136768
0.00126055
0.00014607
0.00100201
0.000152855
0.000726837
0.000157
0.00043955
0.00014471
0.000158445
1.97691e-05
0.00232395
5.64384e-08
3.9746e-05
0.00224476
5.92141e-05
0.0021526
7.77432e-05
0.00203131
9.49747e-05
0.00187854
0.000110592
0.0016954
0.000124315
0.00148447
0.0001359
0.00124896
0.000145144
0.000992761
0.000151887
0.000720082
0.000156007
0.000435411
0.000143244
0.000157442
1.96427e-05
0.00230425
5.76835e-08
3.94926e-05
0.00222491
5.88371e-05
0.00213325
7.72487e-05
0.0020129
9.4371e-05
0.00186142
0.00010989
0.00167988
0.000123526
0.00147084
0.000135039
0.00123745
0.000144225
0.000983577
0.000150926
0.000713383
0.000155019
0.000431316
0.000141828
0.000156447
1.95172e-05
0.00228467
5.89141e-08
3.92409e-05
0.00220518
5.84624e-05
0.00211403
7.67573e-05
0.0019946
9.37712e-05
0.00184441
0.000109192
0.00166445
0.000122742
0.00145728
0.000134182
0.001226
0.000143311
0.000974438
0.00014997
0.000706711
0.000154038
0.000427227
0.000140384
0.000155457
1.93924e-05
0.00226521
6.01303e-08
3.89908e-05
0.00218558
5.80902e-05
0.00209493
7.6269e-05
0.00197642
9.31752e-05
0.0018275
0.000108499
0.00164913
0.000121964
0.00144382
0.000133332
0.00121464
0.000142403
0.000965368
0.000149021
0.000700095
0.000153064
0.000423181
0.000138991
0.000154475
1.92683e-05
0.00224588
6.13249e-08
3.87422e-05
0.00216611
5.77203e-05
0.00207595
7.57838e-05
0.00195836
9.2583e-05
0.0018107
0.00010781
0.0016339
0.00012119
0.00143043
0.000132487
0.00120333
0.000141501
0.000956343
0.000148078
0.000693506
0.000152096
0.000419139
0.000137567
0.000153499
1.91451e-05
0.00222667
6.249e-08
3.84952e-05
0.00214676
5.73527e-05
0.00205709
7.53017e-05
0.00194041
9.19946e-05
0.00179401
0.000107125
0.00161877
0.000120421
0.00141714
0.000131647
0.00119211
0.000140605
0.000947386
0.000147141
0.000686972
0.000151134
0.000415142
0.000136197
0.000152529
1.90225e-05
0.00220758
6.3611e-08
3.82497e-05
0.00212753
5.69875e-05
0.00203835
7.48226e-05
0.00192257
9.14099e-05
0.00177742
0.000106445
0.00160373
0.000119657
0.00140392
0.000130813
0.00118094
0.000139715
0.000938472
0.00014621
0.000680464
0.000150179
0.000411149
0.000134797
0.000151566
1.89008e-05
0.00218862
6.46752e-08
3.80058e-05
0.00210843
5.66245e-05
0.00201974
7.43466e-05
0.00190485
9.08289e-05
0.00176094
0.000105769
0.00158879
0.000118898
0.00139079
0.000129984
0.00116986
0.00013883
0.000929626
0.000145285
0.000674011
0.00014923
0.000407202
0.000133447
0.000150609
1.87797e-05
0.00216977
6.56673e-08
3.77634e-05
0.00208944
5.62639e-05
0.00200123
7.38736e-05
0.00188724
9.02517e-05
0.00174455
0.000105098
0.00157394
0.000118144
0.00137774
0.00012916
0.00115883
0.000137952
0.000920823
0.000144366
0.000667583
0.000148287
0.000403259
0.000132067
0.000149659
1.86594e-05
0.00215104
6.65785e-08
3.75225e-05
0.00207058
5.59055e-05
0.00198285
7.34037e-05
0.00186974
8.96781e-05
0.00172828
0.000104431
0.00155919
0.000117395
0.00136478
0.000128342
0.00114789
0.000137078
0.000912087
0.000143453
0.000661211
0.00014735
0.000399362
0.000130734
0.000148715
1.85399e-05
0.00213243
6.74006e-08
3.72831e-05
0.00205184
5.55494e-05
0.00196458
7.29367e-05
0.00185235
8.91082e-05
0.0017121
0.000103768
0.00154452
0.00011665
0.00135189
0.000127529
0.001137
0.000136211
0.000903394
0.000142546
0.000654862
0.000146419
0.000395469
0.000129369
0.000147777
1.8421e-05
0.00211394
6.81338e-08
3.70452e-05
0.00203322
5.51955e-05
0.00194644
7.24726e-05
0.00183508
8.8542e-05
0.00169604
0.000103109
0.00152996
0.000115911
0.00133908
0.000126721
0.00112619
0.000135349
0.000894766
0.000141645
0.000648569
0.000145495
0.000391622
0.000128051
0.000146845
1.83029e-05
0.00209557
6.87791e-08
3.68088e-05
0.00201471
5.48439e-05
0.0019284
7.20116e-05
0.0018179
8.79794e-05
0.00168006
0.000102455
0.00151548
0.000115176
0.00132635
0.000125919
0.00111544
0.000134493
0.000886181
0.000140749
0.000642299
0.000144576
0.000387777
0.000126699
0.000145919
1.81855e-05
0.00207731
6.93441e-08
3.65739e-05
0.00199632
5.44945e-05
0.00191048
7.15534e-05
0.00180085
8.74204e-05
0.0016642
0.000101804
0.00150109
0.000114446
0.00131371
0.000125121
0.00110476
0.000133642
0.00087766
0.00013986
0.000636084
0.000143664
0.000383979
0.000125396
0.000144999
1.80688e-05
0.00205917
6.98339e-08
3.63404e-05
0.00197805
5.41473e-05
0.00189267
7.10982e-05
0.00178389
8.68649e-05
0.00164843
0.000101158
0.0014868
0.000113721
0.00130114
0.000124329
0.00109414
0.000132797
0.000869181
0.000138976
0.000629891
0.000142757
0.000380182
0.000124056
0.000144085
1.79528e-05
0.00204115
7.02571e-08
3.61084e-05
0.00195989
5.38023e-05
0.00187498
7.06459e-05
0.00176705
8.63131e-05
0.00163276
0.000100517
0.00147259
0.000113
0.00128866
0.000123542
0.0010836
0.000131958
0.000860767
0.000138099
0.000623753
0.000141857
0.000376431
0.000122767
0.000143178
1.78376e-05
0.00202323
7.06173e-08
3.58778e-05
0.00194185
5.34595e-05
0.00185739
7.01965e-05
0.00175031
8.57647e-05
0.00161719
9.98789e-05
0.00145847
0.000112284
0.00127625
0.000122761
0.00107312
0.000131123
0.000852392
0.000137226
0.000617637
0.000140962
0.00037268
0.00012144
0.000142276
1.7723e-05
0.00200544
7.09203e-08
3.56487e-05
0.00192393
5.31189e-05
0.00183993
6.975e-05
0.00173368
8.522e-05
0.00160172
9.92453e-05
0.00144445
0.000111573
0.00126392
0.000121984
0.0010627
0.000130295
0.000844082
0.00013636
0.000611575
0.000140073
0.000368976
0.000120166
0.00014138
1.76091e-05
0.00198776
7.11671e-08
3.5421e-05
0.00190612
5.27804e-05
0.00182256
6.93063e-05
0.00171715
8.46787e-05
0.00158634
9.86159e-05
0.0014305
0.000110866
0.00125166
0.000121212
0.00105235
0.000129471
0.000835812
0.000135499
0.000605534
0.00013919
0.000365271
0.000118852
0.00014049
1.7496e-05
0.00197019
7.13634e-08
3.51947e-05
0.00188842
5.24441e-05
0.00180532
6.88655e-05
0.00170073
8.41409e-05
0.00157107
9.79905e-05
0.00141665
0.000110164
0.00123949
0.000120446
0.00104207
0.000128653
0.000827605
0.000134644
0.000599547
0.000138313
0.000361613
0.000117592
0.000139606
1.73835e-05
0.00195273
7.15134e-08
3.49698e-05
0.00187083
5.21099e-05
0.00178817
6.84275e-05
0.00168441
8.36066e-05
0.00155589
9.73692e-05
0.00140288
0.000109466
0.00122738
0.000119684
0.00103184
0.000127841
0.000819437
0.000133795
0.000593581
0.000137442
0.000357952
0.000116291
0.000138727
1.72718e-05
0.00193538
7.16293e-08
3.47464e-05
0.00185336
5.17779e-05
0.00177114
6.79923e-05
0.0016682
8.30757e-05
0.0015408
9.67519e-05
0.00138921
0.000108773
0.00121536
0.000118927
0.00102169
0.000127034
0.000811332
0.000132951
0.000587668
0.000136576
0.000354339
0.000115046
0.000137855
1.71607e-05
0.00191815
7.17245e-08
3.45244e-05
0.00183599
5.14479e-05
0.00175422
6.75599e-05
0.00165208
8.25483e-05
0.00152581
9.61386e-05
0.00137561
0.000108085
0.00120341
0.000118176
0.00101159
0.000126232
0.000803265
0.000132113
0.000581775
0.000135716
0.000350723
0.000113758
0.000136988
1.70504e-05
0.00190103
7.18212e-08
3.43038e-05
0.00181874
5.11201e-05
0.0017374
6.71303e-05
0.00163607
8.20243e-05
0.00151092
9.55293e-05
0.00136211
0.000107401
0.00119153
0.000117429
0.00100156
0.000125435
0.00079526
0.00013128
0.000575935
0.000134862
0.000347153
0.000112529
0.000136127
1.69407e-05
0.00188401
7.1942e-08
3.40846e-05
0.0018016
5.07944e-05
0.00172069
6.67035e-05
0.00162016
8.15038e-05
0.00149611
9.4924e-05
0.00134868
0.000106722
0.00117973
0.000116687
0.000991584
0.000124644
0.000787293
0.000130453
0.000570114
0.000134013
0.00034358
0.000111254
0.000135271
1.68318e-05
0.00186711
7.21147e-08
3.38668e-05
0.00178456
5.04708e-05
0.00170409
6.62794e-05
0.00160436
8.09866e-05
0.0014814
9.43227e-05
0.00133534
0.000106047
0.00116801
0.00011595
0.000981682
0.000123858
0.000779387
0.000129631
0.000564346
0.00013317
0.000340054
0.000110039
0.000134421
1.67235e-05
0.00185031
7.23629e-08
3.36504e-05
0.00176764
5.01493e-05
0.00168759
6.58581e-05
0.00158864
8.04727e-05
0.00146679
9.37252e-05
0.00132209
0.000105376
0.00115635
0.000115218
0.000971831
0.000123077
0.000771519
0.000128815
0.000558597
0.000132333
0.000336524
0.000108777
0.000133577
1.66159e-05
0.00183362
7.27098e-08
3.34354e-05
0.00175082
4.98299e-05
0.0016712
6.54396e-05
0.00157303
7.99622e-05
0.00145226
9.31317e-05
0.00130892
0.00010471
0.00114477
0.00011449
0.000962051
0.000122301
0.000763711
0.000128004
0.0005529
0.000131501
0.000333041
0.000107576
0.000132738
1.65091e-05
0.00181703
7.31692e-08
3.32218e-05
0.0017341
4.95125e-05
0.00165491
6.50237e-05
0.00155752
7.94551e-05
0.00143783
9.25421e-05
0.00129582
0.000104048
0.00113326
0.000113768
0.000952323
0.00012153
0.000755939
0.000127198
0.000547221
0.000130674
0.000329553
0.000106327
0.000131905
1.64029e-05
0.00180055
7.37506e-08
3.30096e-05
0.0017175
4.91972e-05
0.00163872
6.46106e-05
0.00154211
7.89513e-05
0.00142349
9.19564e-05
0.00128282
0.00010339
0.00112182
0.00011305
0.000942664
0.000120764
0.000748227
0.000126398
0.000541594
0.000129853
0.000326112
0.000105141
0.000131077
1.62974e-05
0.00178418
7.44523e-08
3.27987e-05
0.001701
4.8884e-05
0.00162263
6.42002e-05
0.00152679
7.84508e-05
0.00140923
9.13745e-05
0.00126989
0.000102737
0.00111045
0.000112337
0.000933056
0.000120004
0.000740552
0.000125603
0.000535984
0.000129038
0.000322665
0.000103904
0.000130255
1.61926e-05
0.00176791
7.52682e-08
3.25893e-05
0.0016846
4.85728e-05
0.00160665
6.37925e-05
0.00151157
7.79535e-05
0.00139507
9.07964e-05
0.00125705
0.000102088
0.00109916
0.000111629
0.000923517
0.000119248
0.000732935
0.000124813
0.000530426
0.000128227
0.000319266
0.000102732
0.000129438
1.60886e-05
0.00175174
7.61837e-08
3.23812e-05
0.00166831
4.82636e-05
0.00159077
6.33874e-05
0.00149644
7.74595e-05
0.001381
9.02221e-05
0.00124428
0.000101444
0.00108793
0.000110925
0.000914028
0.000118497
0.000725354
0.000124028
0.000524884
0.000127423
0.00031586
0.000101508
0.000128627
1.59851e-05
0.00173568
7.71835e-08
3.21745e-05
0.00165212
4.79565e-05
0.00157499
6.2985e-05
0.00148142
7.69688e-05
0.00136701
8.96516e-05
0.00123159
0.000100804
0.00107678
0.000110226
0.000904607
0.000117752
0.000717831
0.000123249
0.000519394
0.000126623
0.000312502
0.000100349
0.000127821
1.58824e-05
0.00171971
7.8248e-08
3.19691e-05
0.00163604
4.76513e-05
0.0015593
6.25852e-05
0.00146648
7.64813e-05
0.00135311
8.90849e-05
0.00121899
0.000100168
0.00106569
0.000109532
0.000895236
0.000117011
0.000710344
0.000122475
0.00051392
0.000125829
0.000309136
9.91367e-05
0.00012702
1.57804e-05
0.00170385
7.93611e-08
3.17651e-05
0.00162006
4.73482e-05
0.00154372
6.21881e-05
0.00145164
7.5997e-05
0.0013393
8.85219e-05
0.00120646
9.95357e-05
0.00105468
0.000108842
0.000885931
0.000116275
0.000702914
0.000121706
0.000508497
0.00012504
0.000305818
9.79905e-05
0.000126225
1.5679e-05
0.00168809
8.05059e-08
3.15625e-05
0.00160417
4.70471e-05
0.00152823
6.17936e-05
0.00143689
7.55159e-05
0.00132558
8.79627e-05
0.00119401
9.8908e-05
0.00104373
0.000108156
0.000876676
0.000115544
0.000695518
0.000120942
0.000503089
0.000124256
0.000302492
9.67905e-05
0.000125435
1.55783e-05
0.00167243
8.16706e-08
3.13612e-05
0.00158839
4.6748e-05
0.00151285
6.14017e-05
0.00142224
7.5038e-05
0.00131194
8.74071e-05
0.00118164
9.82845e-05
0.00103285