/*--------------------------------*- C++ -*----------------------------------*\
  =========                 |
  \\      /  F ield         | OpenFOAM: The Open Source CFD Toolbox
   \\    /   O peration     | Website:  https://openfoam.org
    \\  /    A nd           | Version:  6.0
     \\/     M anipulation  |
\*---------------------------------------------------------------------------*/
FoamFile
{
    version     2.0;
    format      ascii;
    class       volVectorField;
    location    "1.2";
    object      U;
}
// * * * * * * * * * * * * * * * * * * * * * * * * * * * * * * * * * * * * * //

dimensions      [0 1 -1 0 0 0 0];

internalField   nonuniform List<vector> 
24000
(
(0.999994 -4.70398e-06 -7.96008e-17)
(0.999951 -2.33097e-05 1.08373e-16)
(0.999876 -6.42266e-05 -1.90542e-16)
(0.999794 -0.0001333 2.10251e-16)
(0.99973 -0.000220701 -1.03722e-15)
(0.999702 -0.000307416 -6.14848e-16)
(0.999712 -0.000380254 6.29509e-16)
(0.999761 -0.000418007 -1.39482e-15)
(0.999839 -0.000398665 4.37852e-16)
(0.999933 -0.000303717 -3.21921e-16)
(1.00001 -7.87251e-06 -3.11409e-16)
(1.00109 0.00114933 -4.62147e-16)
(0.999989 -1.21789e-05 1.16691e-16)
(0.999913 -5.12529e-05 -1.60363e-16)
(0.999782 -0.000133346 3.56043e-16)
(0.999639 -0.000264197 -8.88981e-17)
(0.999534 -0.000421323 4.61631e-16)
(0.999496 -0.000570771 6.21794e-16)
(0.999525 -0.000691256 -3.50206e-16)
(0.999622 -0.000746106 1.48165e-15)
(0.999771 -0.000695598 -3.10905e-16)
(0.999949 -0.000514337 1.59623e-17)
(1.00005 4.68995e-06 8.13364e-17)
(1.0019 0.00172831 1.53849e-16)
(0.999989 -1.85519e-05 -8.88804e-17)
(0.999924 -6.90395e-05 2.16076e-16)
(0.999811 -0.000161117 -1.23402e-16)
(0.99969 -0.000293607 4.51223e-16)
(0.99961 -0.000439814 2.51407e-16)
(0.999594 -0.000566558 2.31241e-16)
(0.999639 -0.000658222 5.1792e-16)
(0.999745 -0.000683929 -6.5863e-16)
(0.999893 -0.000607326 -3.67558e-16)
(1.00007 -0.000421979 -1.29739e-16)
(1.00011 7.34775e-05 -2.9022e-17)
(1.00199 0.00149866 4.86557e-16)
(0.999989 -2.52893e-05 -3.79514e-17)
(0.999937 -8.80927e-05 -2.0444e-16)
(0.999846 -0.000189414 -3.15676e-16)
(0.999746 -0.00032182 -2.23697e-16)
(0.999685 -0.000458724 -1.31014e-16)
(0.999682 -0.000570882 -9.05128e-16)
(0.999733 -0.000648001 -1.43396e-15)
(0.999837 -0.000665399 1.6384e-16)
(0.999978 -0.00058961 4.6914e-17)
(1.00015 -0.000426199 6.44861e-16)
(1.00015 2.26724e-06 -4.11536e-16)
(1.00185 0.0011477 -5.69086e-16)
(0.999986 -3.2556e-05 6.76108e-17)
(0.999939 -0.00011025 3.30037e-17)
(0.999855 -0.000227135 1.59977e-16)
(0.999758 -0.000371343 -7.5617e-17)
(0.999698 -0.0005179 2.07773e-16)
(0.999694 -0.000640316 1.87004e-16)
(0.999745 -0.000729197 1.45067e-15)
(0.999853 -0.000760706 -9.47799e-17)
(1 -0.000698796 -2.79633e-16)
(1.0002 -0.000544404 7.59922e-17)
(1.0002 -0.000144429 2.84001e-16)
(1.00171 0.000899429 -1.50666e-16)
(0.999983 -4.02736e-05 3.91253e-18)
(0.999937 -0.000133292 -1.89904e-17)
(0.999859 -0.000265667 -2.13519e-17)
(0.999764 -0.000421157 -3.86569e-18)
(0.999707 -0.00057678 -8.62274e-16)
(0.999706 -0.000708055 1.05516e-15)
(0.999762 -0.000804896 2.9286e-17)
(0.999878 -0.000842894 1.46112e-16)
(1.00004 -0.000783439 6.91114e-16)
(1.00026 -0.000616021 -3.40137e-16)
(1.00028 -0.000212174 5.15344e-16)
(1.00164 0.000818662 3.45115e-16)
(0.999979 -4.85291e-05 -3.54067e-18)
(0.999938 -0.000156329 2.04789e-16)
(0.99987 -0.000301103 -2.07676e-16)
(0.999787 -0.000461794 -1.01254e-16)
(0.99974 -0.000617801 4.43129e-16)
(0.999749 -0.000746552 -2.17984e-16)
(0.999816 -0.000837297 -6.03708e-16)
(0.999943 -0.000866169 -3.13202e-16)
(1.00011 -0.000794863 1.22061e-16)
(1.00035 -0.000604762 6.01528e-16)
(1.0004 -0.000192366 -1.21645e-15)
(1.00163 0.000823236 3.16393e-16)
(0.999974 -5.73557e-05 -5.22977e-17)
(0.999939 -0.000179711 7.92817e-17)
(0.999883 -0.000335422 2.39305e-16)
(0.999814 -0.000498882 4.52991e-16)
(0.999781 -0.000652613 2.41149e-16)
(0.999803 -0.000775824 -2.67582e-16)
(0.999882 -0.000856702 -2.90936e-16)
(1.00002 -0.000872305 -1.39448e-16)
(1.0002 -0.00078617 4.81647e-17)
(1.00045 -0.000577303 -1.30321e-16)
(1.00052 -0.000165043 1.04148e-15)
(1.00165 0.000803607 -5.46953e-16)
(0.999968 -6.66501e-05 2.05911e-17)
(0.999938 -0.000203606 -1.94694e-16)
(0.999892 -0.000370461 1.46046e-17)
(0.999836 -0.000537771 -7.22924e-17)
(0.999814 -0.000692023 7.29429e-17)
(0.999846 -0.000814074 -6.10826e-17)
(0.999937 -0.000890435 5.1181e-17)
(1.00009 -0.000898332 5.5841e-16)
(1.00027 -0.000802814 -6.92073e-17)
(1.00054 -0.000583301 -7.89215e-16)
(1.00063 -0.000177902 -8.78544e-16)
(1.00168 0.000728949 9.72953e-16)
(0.999962 -7.62091e-05 7.31817e-17)
(0.999935 -0.00022768 4.86638e-18)
(0.999896 -0.000406024 1.84394e-16)
(0.999851 -0.000578523 -4.83382e-16)
(0.999839 -0.000736079 -1.15357e-16)
(0.999879 -0.000861203 5.22037e-16)
(0.999979 -0.000938775 -4.43427e-16)
(1.00014 -0.000945289 -6.68736e-16)
(1.00034 -0.000846489 2.048e-16)
(1.00061 -0.000621492 2.05332e-16)
(1.00073 -0.000223427 6.53264e-16)
(1.00171 0.000630349 -1.37587e-16)
(0.999954 -8.5825e-05 -1.00375e-16)
(0.999929 -0.000251516 -2.31075e-17)
(0.999897 -0.000441307 -2.19762e-16)
(0.999862 -0.000619458 3.656e-17)
(0.999861 -0.000781042 1.67133e-16)
(0.999909 -0.000910182 -3.60274e-16)
(1.00002 -0.000990872 2.70662e-16)
(1.00019 -0.000998515 7.53494e-16)
(1.0004 -0.00089915 -5.61793e-16)
(1.00068 -0.000669578 2.24056e-16)
(1.00083 -0.000275695 -8.46219e-16)
(1.00176 0.000541393 -9.01387e-16)
(0.999946 -9.52849e-05 6.51639e-18)
(0.999922 -0.000274823 1.91938e-16)
(0.999896 -0.000475911 -1.92483e-16)
(0.999873 -0.000659967 1.48838e-16)
(0.999882 -0.000825339 -4.57356e-16)
(0.999941 -0.000957426 -2.0376e-16)
(1.00006 -0.00104023 6.63441e-17)
(1.00024 -0.00104824 -3.02612e-16)
(1.00046 -0.000947953 -3.93899e-16)
(1.00076 -0.000712621 3.62597e-16)
(1.00094 -0.000319801 2.85268e-16)
(1.00182 0.000470642 1.0046e-17)
(0.999937 -0.000104398 2.45188e-17)
(0.999914 -0.000297434 -1.91797e-17)
(0.999894 -0.000509831 5.30371e-16)
(0.999881 -0.000700491 1.5298e-16)
(0.999903 -0.000869839 2.61429e-16)
(0.999974 -0.00100392 -2.92199e-16)
(1.0001 -0.00108729 -1.47764e-16)
(1.00029 -0.00109401 1.20477e-16)
(1.00053 -0.00099141 4.65229e-16)
(1.00084 -0.000749402 -1.21821e-15)
(1.00104 -0.000356295 -4.8589e-16)
(1.00188 0.000409695 5.40336e-16)
(0.999928 -0.00011298 -7.57253e-17)
(0.999905 -0.00031921 -6.73897e-17)
(0.99989 -0.000543068 -4.19169e-16)
(0.999887 -0.000741471 -3.31182e-16)
(0.999921 -0.000915811 -2.3208e-16)
(1.00001 -0.00105207 3.64745e-16)
(1.00015 -0.00113546 2.50814e-16)
(1.00035 -0.00113998 -2.76296e-16)
(1.00059 -0.00103421 -3.70741e-16)
(1.00092 -0.000785643 -1.32777e-16)
(1.00114 -0.000392046 6.90045e-16)
(1.00195 0.000349379 -4.80071e-16)
(0.999917 -0.000120888 4.0761e-17)
(0.999895 -0.000340056 3.22173e-17)
(0.999886 -0.000575524 4.95129e-17)
(0.999891 -0.000782847 7.89889e-17)
(0.999936 -0.000963605 8.21181e-17)
(1.00003 -0.00110316 -1.48145e-16)
(1.00019 -0.00118708 7.76586e-18)
(1.00041 -0.00118957 -3.8269e-16)
(1.00066 -0.00108054 3.62311e-16)
(1.001 -0.000825914 1.38088e-15)
(1.00124 -0.000431339 -2.0517e-16)
(1.00202 0.000287581 6.68527e-16)
(0.999906 -0.000128001 -3.93577e-17)
(0.999885 -0.000359912 1.48672e-18)
(0.999881 -0.000607036 1.4777e-16)
(0.999893 -0.00082411 2.08937e-16)
(0.999949 -0.00101249 2.31096e-16)
(1.00006 -0.00115661 -1.50136e-16)
(1.00023 -0.00124198 -2.41756e-16)
(1.00046 -0.001243 5.91167e-16)
(1.00073 -0.00113083 1.43145e-16)
(1.00108 -0.000870242 -1.4883e-15)
(1.00134 -0.000473295 2.35193e-16)
(1.00209 0.000227644 2.21571e-17)
(0.999895 -0.000134252 9.0052e-17)
(0.999874 -0.000378795 3.30812e-17)
(0.999876 -0.000637524 -3.19402e-16)
(0.999896 -0.000864699 1.37829e-16)
(0.999962 -0.00106131 -5.60952e-17)
(1.00008 -0.00121076 3.67126e-16)
(1.00027 -0.00129823 6.25027e-16)
(1.00051 -0.00129811 1.05233e-16)
(1.0008 -0.00118265 5.10236e-16)
(1.00116 -0.000915724 1.23729e-15)
(1.00144 -0.000514774 1.43077e-15)
(1.00217 0.000172355 -5.3328e-16)
(0.999882 -0.000139596 3.4612e-17)
(0.999864 -0.000396772 -2.74364e-17)
(0.999871 -0.000667043 3.03799e-16)
(0.999899 -0.000904306 -2.77084e-16)
(0.999976 -0.0011092 3.92181e-16)
(1.00011 -0.00126415 4.03068e-18)
(1.00031 -0.00135386 -4.06334e-16)
(1.00057 -0.00135258 1.28111e-16)
(1.00087 -0.0012335 -4.4179e-16)
(1.00124 -0.000959878 -2.16211e-16)
(1.00154 -0.000553969 -5.73885e-16)
(1.00225 0.000121559 -1.05846e-16)
(0.999868 -0.000144028 -4.15085e-17)
(0.999852 -0.000413963 -2.3103e-16)
(0.999867 -0.0006958 -1.26443e-16)
(0.999904 -0.000943029 1.55176e-16)
(0.999992 -0.00115598 -2.81807e-17)
(1.00014 -0.00131627 -2.61848e-16)
(1.00035 -0.00140814 -5.46065e-17)
(1.00062 -0.00140559 -3.3745e-17)
(1.00094 -0.00128272 -5.30303e-16)
(1.00132 -0.00100254 -3.88972e-16)
(1.00164 -0.000591705 -1.7205e-15)
(1.00234 7.26009e-05 1.01856e-15)
(0.999854 -0.00014755 -3.95499e-17)
(0.999841 -0.000430481 2.40518e-16)
(0.999862 -0.000724057 -1.71673e-16)
(0.999909 -0.000981239 7.66163e-17)
(1.00001 -0.00120211 -1.88081e-16)
(1.00017 -0.0013676 -4.26057e-16)
(1.00039 -0.00146162 5.40522e-17)
(1.00068 -0.00145793 -6.90147e-17)
(1.00101 -0.00133143 2.87075e-16)
(1.0014 -0.0010453 4.46127e-16)
(1.00174 -0.000629998 1.53966e-15)
(1.00242 2.35351e-05 -9.84904e-16)
(0.999838 -0.000150188 2.84475e-17)
(0.999828 -0.000446437 -1.11977e-17)
(0.999857 -0.000752065 2.72259e-17)
(0.999913 -0.00101939 -6.35443e-17)
(1.00002 -0.00124827 -2.3633e-16)
(1.0002 -0.001419 -9.45069e-18)
(1.00044 -0.00151538 -1.25354e-16)
(1.00074 -0.00151092 -6.69628e-16)
(1.00108 -0.00138122 4.03463e-16)
(1.00149 -0.00108979 2.18473e-16)
(1.00184 -0.000670233 6.5132e-17)
(1.00251 -2.62606e-05 2.21414e-16)
(0.999821 -0.000151969 3.25392e-17)
(0.999815 -0.000461898 -2.63872e-16)
(0.999851 -0.000779964 5.16638e-16)
(0.999917 -0.00105779 4.916e-17)
(1.00004 -0.00129499 1.43354e-16)
(1.00023 -0.0014712 8.6903e-16)
(1.00048 -0.00157025 7.14722e-16)
(1.00079 -0.00156544 3.61736e-16)
(1.00115 -0.0014329 -9.58505e-16)
(1.00157 -0.0011365 -2.7951e-16)
(1.00194 -0.00071222 9.24005e-17)
(1.00259 -7.54618e-05 -3.30502e-17)
(0.999802 -0.000152932 -6.09794e-17)
(0.9998 -0.000476912 1.05116e-16)
(0.999843 -0.000807805 -6.96618e-17)
(0.999919 -0.00109657 -8.84612e-17)
(1.00005 -0.00134248 -2.55032e-16)
(1.00025 -0.00152448 -5.04606e-16)
(1.00052 -0.00162647 -2.74282e-16)
(1.00085 -0.00162158 -2.17533e-17)
(1.00122 -0.00148631 2.77796e-16)
(1.00165 -0.00118479 -2.64883e-16)
(1.00204 -0.000754807 -1.56197e-15)
(1.00268 -0.000123006 7.89359e-16)
(0.999782 -0.000153114 4.45233e-17)
(0.999785 -0.000491496 6.34269e-18)
(0.999834 -0.000835544 -1.89569e-16)
(0.99992 -0.00113565 -1.44979e-16)
(1.00007 -0.00139068 -8.04499e-17)
(1.00028 -0.00157875 -1.18917e-16)
(1.00056 -0.00168384 -2.16939e-16)
(1.00091 -0.00167888 -2.31445e-16)
(1.00129 -0.00154067 -6.74607e-17)
(1.00174 -0.00123357 -2.45752e-16)
(1.00213 -0.000796763 9.27411e-17)
(1.00277 -0.00016785 -1.57069e-16)
(0.999761 -0.000152566 1.52615e-17)
(0.999768 -0.000505674 1.4936e-16)
(0.999824 -0.000863129 4.08816e-17)
(0.99992 -0.0011749 -1.56987e-17)
(1.00008 -0.00143938 9.87979e-17)
(1.00031 -0.00163375 2.77643e-16)
(1.0006 -0.00174199 1.06877e-16)
(1.00096 -0.00173681 2.67324e-16)
(1.00136 -0.00159529 3.13384e-16)
(1.00182 -0.0012821 -3.0578e-16)
(1.00223 -0.000837568 1.00312e-15)
(1.00287 -0.000210012 -6.1965e-16)
(0.999738 -0.00015133 -2.0695e-17)
(0.99975 -0.000519461 -1.95413e-17)
(0.999813 -0.000890498 -1.47706e-16)
(0.999919 -0.00121414 -9.72099e-17)
(1.00009 -0.00148832 -3.48448e-17)
(1.00033 -0.00168919 -1.78821e-16)
(1.00065 -0.0018006 1.04074e-17)
(1.00102 -0.00179502 -3.11169e-16)
(1.00144 -0.00164981 -2.70308e-17)
(1.00191 -0.00133011 1.05084e-15)
(1.00233 -0.000877281 4.95382e-16)
(1.00296 -0.000250096 5.28647e-17)
(0.999715 -0.000149464 -9.84609e-18)
(0.999731 -0.000532899 -1.14647e-16)
(0.999802 -0.000917653 -5.05183e-17)
(0.999918 -0.00125329 -7.54742e-17)
(1.0001 -0.0015373 5.5722e-16)
(1.00036 -0.00174486 -1.29099e-16)
(1.00069 -0.0018595 1.53691e-16)
(1.00108 -0.0018534 -1.59686e-16)
(1.00151 -0.00170424 -2.55132e-16)
(1.00199 -0.00137785 -2.6498e-16)
(1.00243 -0.000916435 -1.96187e-17)
(1.00305 -0.000289133 -2.00299e-16)
(0.99969 -0.000147016 3.40933e-17)
(0.999711 -0.000546026 -4.08483e-17)
(0.999789 -0.000944625 1.71581e-16)
(0.999916 -0.00129231 3.46383e-16)
(1.00011 -0.00158623 -5.26887e-16)
(1.00038 -0.00180063 4.98696e-16)
(1.00073 -0.0019186 -2.7579e-16)
(1.00113 -0.00191198 -1.44001e-16)
(1.00158 -0.00175878 -1.93996e-16)
(1.00208 -0.00142568 -3.54767e-16)
(1.00252 -0.000955602 -1.50498e-16)
(1.00315 -0.000327714 -1.20167e-16)
(0.999663 -0.000144047 -5.82341e-18)
(0.99969 -0.000558904 -1.56665e-17)
(0.999776 -0.000971513 -1.57782e-17)
(0.999913 -0.00133131 -3.353e-16)
(1.00012 -0.00163516 -1.43951e-16)
(1.00041 -0.00185654 -1.30452e-17)
(1.00077 -0.00197799 -3.89492e-16)
(1.00119 -0.00197095 7.17899e-16)
(1.00165 -0.00181375 -5.84586e-18)
(1.00216 -0.00147409 2.50617e-16)
(1.00262 -0.000995428 1.77462e-16)
(1.00325 -0.000366395 -5.39408e-18)
(0.999635 -0.000140611 -1.88939e-17)
(0.999668 -0.000571581 1.07871e-16)
(0.999761 -0.000998424 3.21232e-17)
(0.999909 -0.00137045 4.6085e-16)
(1.00013 -0.0016843 2.51499e-16)
(1.00043 -0.00191276 -4.21928e-16)
(1.00081 -0.00203785 1.91599e-16)
(1.00125 -0.00203054 -3.78223e-16)
(1.00173 -0.00186952 1.30956e-15)
(1.00225 -0.00152352 -1.01795e-16)
(1.00272 -0.00103636 2.23682e-17)
(1.00334 -0.000405622 -1.40059e-16)
(0.999607 -0.000136772 -1.97152e-17)
(0.999644 -0.000584118 7.53604e-17)
(0.999744 -0.00102549 -9.05235e-17)
(0.999904 -0.00140997 -4.47273e-16)
(1.00014 -0.00173394 4.63135e-16)
(1.00046 -0.00196964 2.70925e-16)
(1.00085 -0.00209852 3.42681e-16)
(1.00131 -0.00209114 1.53348e-16)
(1.0018 -0.00192647 -1.0879e-16)
(1.00233 -0.00157436 5.46157e-16)
(1.00282 -0.00107879 -9.90143e-16)
(1.00344 -0.000445596 1.11494e-15)
(0.999576 -0.000132589 2.74717e-17)
(0.999619 -0.000596552 -1.44234e-16)
(0.999727 -0.00105281 -8.42071e-17)
(0.999898 -0.00145006 -2.68252e-17)
(1.00015 -0.00178442 -1.77137e-16)
(1.00048 -0.00202754 -5.03185e-18)
(1.00089 -0.00216038 -2.81682e-16)
(1.00136 -0.00215309 -2.13205e-16)
(1.00187 -0.00198494 -1.20283e-15)
(1.00242 -0.00162685 -3.96987e-16)
(1.00291 -0.0011228 -2.55094e-16)
(1.00354 -0.000486306 -2.9898e-17)
(0.999545 -0.000128131 1.05355e-17)
(0.999592 -0.000608922 -1.18585e-17)
(0.999707 -0.00108044 -4.26077e-17)
(0.99989 -0.00149091 3.25394e-16)
(1.00016 -0.00183602 -5.52453e-16)
(1.0005 -0.00208682 -4.09979e-16)
(1.00093 -0.00222378 3.52258e-16)
(1.00142 -0.00221671 -2.33093e-17)
(1.00195 -0.00204515 7.28912e-17)
(1.00251 -0.00168107 4.20715e-16)
(1.00301 -0.00116836 -1.6806e-16)
(1.00363 -0.000527607 3.02196e-16)
(0.999513 -0.000123465 -1.51765e-17)
(0.999564 -0.000621246 1.70073e-16)
(0.999686 -0.00110839 2.88474e-16)
(0.999879 -0.00153258 -9.61052e-17)
(1.00016 -0.0018889 4.35326e-17)
(1.00052 -0.00214768 1.82155e-16)
(1.00097 -0.00228891 -4.20549e-16)
(1.00147 -0.00228209 4.4283e-16)
(1.00202 -0.00210708 3.44318e-16)
(1.00259 -0.00173684 -2.83671e-16)
(1.00311 -0.00121509 3.24068e-18)
(1.00373 -0.000569091 -1.89501e-17)
(0.99948 -0.000118672 -4.29533e-18)
(0.999535 -0.000633555 -2.47074e-16)
(0.999663 -0.00113665 -4.84906e-17)
(0.999868 -0.00157503 5.79196e-17)
(1.00016 -0.00194305 6.5175e-16)
(1.00054 -0.00221012 5.20377e-17)
(1.001 -0.00235574 3.90479e-16)
(1.00153 -0.00234914 -7.23273e-16)
(1.00209 -0.00217052 3.6324e-16)
(1.00267 -0.00179384 -4.36294e-16)
(1.0032 -0.00126261 9.35506e-16)
(1.00383 -0.000610241 -4.63476e-16)
(0.999445 -0.000113824 2.14708e-17)
(0.999505 -0.000645867 1.09541e-16)
(0.999639 -0.00116516 -1.16326e-16)
(0.999855 -0.00161816 4.78827e-17)
(1.00016 -0.00199831 -3.92061e-16)
(1.00056 -0.00227397 -1.38036e-16)
(1.00104 -0.00242405 2.26613e-17)
(1.00158 -0.00241758 5.1828e-16)
(1.00216 -0.0022351 3.12815e-16)
(1.00276 -0.00185162 -2.159e-17)
(1.0033 -0.00131047 1.23253e-15)
(1.00393 -0.000650905 -6.06261e-16)
(0.99941 -0.000109011 1.44347e-18)
(0.999474 -0.000658227 1.19561e-16)
(0.999615 -0.0011939 1.19437e-16)
(0.99984 -0.00166182 -1.43957e-17)
(1.00016 -0.00205447 2.86727e-16)
(1.00058 -0.00233895 3.70763e-16)
(1.00108 -0.00249353 -1.13142e-16)
(1.00164 -0.00248706 5.20624e-16)
(1.00223 -0.00230048 -1.19465e-15)
(1.00284 -0.00190988 -1.32501e-16)
(1.00339 -0.00135844 -1.77422e-15)
(1.00402 -0.000691348 1.39875e-16)
(0.999374 -0.000104311 -6.22731e-17)
(0.999442 -0.000670681 7.43909e-17)
(0.999589 -0.00122283 -2.12563e-17)
(0.999826 -0.0017059 1.55044e-16)
(1.00016 -0.00211129 -2.13487e-16)
(1.00059 -0.00240474 -5.20297e-16)
(1.00111 -0.00256383 -4.00237e-17)
(1.00169 -0.00255724 -3.71092e-16)
(1.0023 -0.00236632 1.27254e-15)
(1.00293 -0.00196834 -4.28567e-17)
(1.00349 -0.00140633 3.80742e-16)
(1.00412 -0.000731488 6.99001e-16)
(0.999338 -9.98127e-05 1.54861e-17)
(0.999409 -0.000683302 -3.18934e-16)
(0.999564 -0.00125201 1.09913e-16)
(0.99981 -0.00175032 -5.09729e-16)
(1.00016 -0.00216858 2.55022e-16)
(1.00061 -0.00247111 8.44351e-16)
(1.00114 -0.0026347 -2.18932e-16)
(1.00174 -0.00262787 -5.18412e-16)
(1.00237 -0.00243248 -4.04967e-16)
(1.00301 -0.00202697 -8.00486e-17)
(1.00359 -0.00145423 3.94608e-16)
(1.00422 -0.000771506 -6.39112e-16)
(0.9993 -9.55907e-05 3.5516e-17)
(0.999376 -0.000696162 9.26606e-17)
(0.999537 -0.00128147 -3.33789e-16)
(0.999795 -0.00179509 4.62263e-16)
(1.00016 -0.00222627 -6.95002e-16)
(1.00063 -0.00253789 -6.94238e-16)
(1.00118 -0.00270595 2.64666e-16)
(1.00179 -0.00269883 9.3076e-16)
(1.00244 -0.00249886 -5.24278e-16)
(1.0031 -0.00208575 2.10935e-16)
(1.00368 -0.00150217 -1.70287e-16)
(1.00432 -0.00081151 5.98641e-17)
(0.999262 -9.17255e-05 -6.04971e-18)
(0.999342 -0.000709352 1.99982e-16)
(0.99951 -0.00131132 2.66311e-16)
(0.999779 -0.00184027 -3.16965e-16)
(1.00016 -0.00228438 1.542e-16)
(1.00064 -0.00260509 4.27655e-16)
(1.00121 -0.00277759 1.43813e-16)
(1.00185 -0.00277015 -9.64764e-17)
(1.00251 -0.00256557 7.34899e-16)
(1.00318 -0.00214484 3.7388e-16)
(1.00378 -0.00155032 7.02545e-17)
(1.00441 -0.000851885 6.31552e-17)
(0.999223 -8.82783e-05 1.36003e-17)
(0.999306 -0.000722946 -2.23093e-16)
(0.999483 -0.00134166 -5.89326e-17)
(0.999762 -0.00188597 1.24134e-16)
(1.00016 -0.002343 7.50407e-16)
(1.00066 -0.00267276 -3.84887e-16)
(1.00125 -0.00284968 -3.2791e-16)
(1.0019 -0.00284189 -7.45236e-17)
(1.00258 -0.0026327 -7.26852e-16)
(1.00327 -0.00220433 4.22512e-16)
(1.00388 -0.0015987 -5.87476e-17)
(1.00451 -0.000892541 3.75628e-16)
(0.999184 -8.53142e-05 -1.07916e-17)
(0.99927 -0.000737026 1.39689e-16)
(0.999454 -0.00137261 -9.6374e-17)
(0.999745 -0.00193233 3.61598e-16)
(1.00016 -0.00240227 -7.04955e-16)
(1.00067 -0.00274106 4.95289e-16)
(1.00128 -0.00292235 -4.81813e-17)
(1.00195 -0.0029142 -5.03418e-17)
(1.00265 -0.00270039 7.52083e-16)
(1.00335 -0.00226437 -2.89882e-16)
(1.00397 -0.00164749 -2.37037e-16)
(1.00461 -0.00093369 -9.48725e-17)
(0.999144 -8.28774e-05 1.51901e-18)
(0.999233 -0.000751649 -2.60361e-17)
(0.999425 -0.00140424 1.17433e-16)
(0.999727 -0.00197945 -4.0108e-16)
(1.00015 -0.00246231 3.48051e-16)
(1.00069 -0.0028101 1.16444e-16)
(1.00131 -0.00299573 1.67718e-16)
(1.00201 -0.00298718 -8.75606e-16)
(1.00272 -0.0027687 -3.67336e-16)
(1.00344 -0.00232496 -1.32078e-15)
(1.00407 -0.00169671 -6.89824e-16)
(1.00471 -0.000975085 -7.05774e-16)
(0.999103 -8.10143e-05 -1.97199e-17)
(0.999195 -0.00076687 1.80485e-17)
(0.999394 -0.00143663 -2.20057e-16)
(0.999708 -0.00202744 1.44658e-17)
(1.00015 -0.00252325 -8.84213e-17)
(1.0007 -0.00288002 5.25287e-18)
(1.00135 -0.00306992 3.09823e-16)
(1.00206 -0.00306092 1.18375e-15)
(1.00279 -0.00283772 1.02896e-16)
(1.00352 -0.00238617 8.2431e-16)
(1.00417 -0.00174625 -1.20819e-16)
(1.00481 -0.001017 1.28074e-15)
(0.999062 -7.97496e-05 1.89733e-17)
(0.999155 -0.00078272 1.09579e-17)
(0.999363 -0.00146982 2.97391e-16)
(0.999688 -0.00207632 -1.73912e-16)
(1.00014 -0.00258512 -2.03623e-16)
(1.00071 -0.00295084 -2.35168e-16)
(1.00138 -0.00314497 -1.42638e-16)
(1.00211 -0.00313545 -4.74623e-16)
(1.00286 -0.00290743 8.54071e-17)
(1.00361 -0.00244798 8.1895e-16)
(1.00426 -0.00179622 7.9421e-16)
(1.00491 -0.00105895 -1.13732e-15)
(0.99902 -7.91101e-05 -1.93707e-17)
(0.999115 -0.00079923 -2.39585e-16)
(0.99933 -0.00150384 -1.2753e-16)
(0.999667 -0.00212614 2.92101e-17)
(1.00014 -0.00264795 5.10455e-16)
(1.00073 -0.00302258 -4.04732e-16)
(1.00141 -0.00322088 -3.61183e-16)
(1.00216 -0.00321077 -4.46449e-16)
(1.00293 -0.00297785 -5.3515e-16)
(1.00369 -0.0025104 -1.76937e-15)
(1.00436 -0.00184707 -5.91075e-16)
(1.00501 -0.00110134 5.76537e-16)
(0.998977 -7.90998e-05 9.6944e-18)
(0.999073 -0.00081641 2.00096e-16)
(0.999296 -0.00153868 6.03405e-17)
(0.999645 -0.00217686 3.7223e-16)
(1.00013 -0.0027117 -5.8917e-16)
(1.00074 -0.00309522 5.74261e-16)
(1.00144 -0.00329761 -6.84262e-18)
(1.00221 -0.00328685 1.05205e-15)
(1.003 -0.00304895 3.79772e-16)
(1.00377 -0.00257342 2.30737e-15)
(1.00445 -0.00189883 3.28685e-16)
(1.00511 -0.00114383 5.37252e-16)
(0.998933 -7.9724e-05 -1.97927e-17)
(0.99903 -0.000834281 4.2984e-17)
(0.999261 -0.00157437 9.3601e-17)
(0.999622 -0.00222851 -1.45572e-16)
(1.00012 -0.00277637 5.03405e-16)
(1.00075 -0.00316873 -6.0587e-16)
(1.00147 -0.00337516 5.53119e-16)
(1.00226 -0.00336372 -1.41977e-16)
(1.00307 -0.00312081 2.31678e-16)
(1.00386 -0.00263719 -1.6826e-15)
(1.00455 -0.00195152 9.98649e-16)
(1.00521 -0.00118639 -1.19884e-15)
(0.998889 -8.0965e-05 2.12891e-17)
(0.998986 -0.00085284 -1.18991e-16)
(0.999224 -0.00161089 -1.72969e-16)
(0.999598 -0.00228105 -1.70981e-16)
(1.00012 -0.00284194 5.21433e-17)
(1.00076 -0.0032431 -1.59501e-16)
(1.0015 -0.00345355 -3.01278e-16)
(1.00231 -0.00344141 -6.68479e-16)
(1.00313 -0.00319348 -2.3938e-16)
(1.00394 -0.00270177 3.93244e-16)
(1.00464 -0.00200527 -9.80942e-16)
(1.00532 -0.00122887 6.93047e-16)
(0.998844 -8.28073e-05 5.12971e-17)
(0.998941 -0.000872096 1.4469e-17)
(0.999187 -0.00164827 -4.60279e-17)
(0.999573 -0.00233452 1.24253e-16)
(1.00011 -0.00290844 -6.87418e-16)
(1.00077 -0.00331838 1.16348e-16)
(1.00153 -0.00353284 5.04107e-16)
(1.00236 -0.00352002 -2.81386e-16)
(1.0032 -0.00326713 9.45081e-17)
(1.00402 -0.00276733 -1.23776e-16)
(1.00474 -0.00206051 2.23895e-16)
(1.00542 -0.00127187 -5.22195e-16)
(0.998798 -8.52139e-05 -3.34859e-17)
(0.998894 -0.00089204 7.35428e-17)
(0.999148 -0.00168648 -1.34551e-16)
(0.999546 -0.00238891 -8.05953e-17)
(1.0001 -0.00297588 5.11389e-16)
(1.00078 -0.00339461 2.11481e-16)
(1.00156 -0.0036131 -2.23201e-16)
(1.00241 -0.00359966 4.57753e-16)
(1.00327 -0.00334184 1.50646e-16)
(1.00411 -0.00283397 2.97099e-16)
(1.00484 -0.00211716 -3.05706e-16)
(1.00552 -0.0013152 -1.09618e-17)
(0.998751 -8.81523e-05 -5.12824e-17)
(0.998846 -0.000912667 -2.66916e-17)
(0.999108 -0.00172553 1.38706e-16)
(0.999518 -0.00244425 1.2259e-16)
(1.00009 -0.00304433 1.59425e-16)
(1.00078 -0.00347189 4.31171e-16)
(1.00159 -0.00369446 -1.9347e-16)
(1.00245 -0.00368045 -8.62673e-17)
(1.00334 -0.00341776 -1.82771e-16)
(1.00419 -0.00290182 -6.67885e-18)
(1.00493 -0.00217524 6.62465e-18)
(1.00563 -0.00135859 3.82173e-16)
(0.998703 -9.15724e-05 8.62757e-17)
(0.998797 -0.000933953 -1.39895e-17)
(0.999067 -0.0017654 1.60333e-16)
(0.999489 -0.00250051 -7.32374e-17)
(1.00007 -0.00311379 -1.40363e-16)
(1.00079 -0.00355025 -5.67662e-16)
(1.00161 -0.00377697 -3.43718e-16)
(1.0025 -0.00376247 2.23758e-16)
(1.0034 -0.00349493 3.52279e-17)
(1.00427 -0.00297088 5.35299e-17)
(1.00503 -0.00223448 8.27339e-17)
(1.00573 -0.00140225 3.41518e-17)
(0.998654 -9.54339e-05 -8.60519e-17)
(0.998747 -0.000955878 1.31674e-16)
(0.999024 -0.00180606 -2.36052e-16)
(0.999459 -0.00255768 1.62412e-16)
(1.00006 -0.00318428 -3.7698e-18)
(1.00079 -0.00362975 3.85369e-16)
(1.00164 -0.00386069 3.35451e-16)
(1.00255 -0.00384576 -2.23973e-16)
(1.00347 -0.00357337 3.68321e-16)
(1.00436 -0.00304113 -2.3855e-16)
(1.00512 -0.00229468 7.11426e-16)
(1.00584 -0.00144595 7.15286e-16)
(0.998604 -9.9683e-05 6.5946e-17)
(0.998696 -0.000978404 -9.53161e-17)
(0.99898 -0.00184745 -4.0048e-17)
(0.999427 -0.0026157 1.209e-16)
(1.00004 -0.00325576 -1.51734e-16)
(1.0008 -0.00371034 -2.35967e-16)
(1.00166 -0.00394559 3.60331e-16)
(1.00259 -0.00393028 -2.1099e-16)
(1.00353 -0.00365302 -4.48491e-16)
(1.00444 -0.00311246 2.41082e-16)
(1.00522 -0.00235558 -4.08331e-16)
(1.00594 -0.00149011 -5.60343e-16)
(0.998553 -0.000104279 2.74162e-17)
(0.998644 -0.0010015 -1.0137e-16)
(0.998935 -0.00188952 4.14215e-16)
(0.999394 -0.00267452 -2.02412e-16)
(1.00003 -0.00332815 8.27105e-17)
(1.0008 -0.00379198 -1.91835e-16)
(1.00169 -0.00403162 -4.73542e-16)
(1.00264 -0.00401597 4.11199e-16)
(1.0036 -0.00373382 4.7365e-16)
(1.00452 -0.00318481 -5.97406e-16)
(1.00531 -0.00241704 -2.32765e-16)
(1.00605 -0.00153516 -1.75654e-16)
(0.9985 -0.000109169 -7.85827e-17)
(0.99859 -0.00102512 3.06161e-17)
(0.998889 -0.0019322 -1.87487e-16)
(0.99936 -0.00273404 2.56506e-17)
(1.00001 -0.00340137 1.14154e-16)
(1.0008 -0.00387456 4.66068e-16)
(1.00171 -0.00411867 5.04037e-18)
(1.00268 -0.0041027 -2.43297e-17)
(1.00366 -0.00381563 -6.51271e-16)
(1.0046 -0.00325803 9.5537e-17)
(1.00541 -0.00247891 -1.34293e-16)
(1.00615 -0.00158113 7.15955e-17)
(0.998446 -0.000114318 -1.26887e-17)
(0.998535 -0.00104923 -2.33568e-17)
(0.998842 -0.00197546 -2.73609e-16)
(0.999325 -0.00279418 -4.99907e-17)
(0.999991 -0.00347532 -1.79667e-16)
(1.0008 -0.00395798 -1.29991e-16)
(1.00173 -0.00420666 -1.3254e-16)
(1.00272 -0.00419041 1.62809e-16)
(1.00373 -0.0038984 1.83168e-16)
(1.00469 -0.0033321 3.13148e-16)
(1.00551 -0.00254105 4.4065e-16)
(1.00626 -0.00162797 -2.26426e-16)
(0.99839 -0.000119679 3.0685e-17)
(0.99848 -0.00107379 1.5947e-17)
(0.998794 -0.00201923 2.61229e-16)
(0.999289 -0.00285489 -5.2477e-17)
(0.999971 -0.00354992 -9.68073e-17)
(1.0008 -0.00404215 -1.49153e-16)
(1.00175 -0.00429547 4.42254e-16)
(1.00277 -0.00427898 -2.96511e-16)
(1.00379 -0.00398206 1.04708e-16)
(1.00477 -0.00340697 4.07842e-16)
(1.00561 -0.00260344 -2.58996e-16)
(1.00636 -0.00167586 -4.02828e-17)
(0.998332 -0.000125217 -4.19558e-17)
(0.998423 -0.00109878 4.34068e-17)
(0.998744 -0.00206349 8.90337e-17)
(0.999252 -0.00291611 1.89669e-16)
(0.999951 -0.00362511 3.41747e-16)
(1.0008 -0.00412703 -2.54341e-16)
(1.00178 -0.00438509 -1.68663e-16)
(1.00281 -0.00436844 1.77786e-17)
(1.00386 -0.00406662 -3.10777e-16)
(1.00485 -0.00348274 -4.46958e-16)
(1.00571 -0.00266622 5.94467e-16)
(1.00647 -0.00172505 2.47496e-16)
(0.998273 -0.000130887 6.75275e-17)
(0.998365 -0.00112415 8.2499e-17)
(0.998694 -0.00210821 -8.45733e-17)
(0.999214 -0.00297784 -1.71996e-16)
(0.999929 -0.00370089 4.47251e-17)
(1.0008 -0.0042126 4.1644e-16)
(1.0018 -0.0044755 -2.97223e-16)
(1.00285 -0.00445879 -1.07357e-17)
(1.00392 -0.00415212 3.96597e-16)
(1.00494 -0.00355945 -3.88427e-16)
(1.00581 -0.00272961 -5.04768e-16)
(1.00658 -0.00177553 -1.2846e-16)
(0.998213 -0.000136658 8.35461e-18)
(0.998305 -0.0011499 8.447e-18)
(0.998642 -0.00215339 -2.78275e-16)
(0.999175 -0.00304009 -2.26953e-16)
(0.999907 -0.00377727 -3.81819e-16)
(1.0008 -0.0042989 5.1994e-17)
(1.00182 -0.00456677 8.52465e-17)
(1.0029 -0.00455011 -5.93003e-17)
(1.00398 -0.00423867 -3.25793e-16)
(1.00502 -0.00363723 7.29512e-16)
(1.00591 -0.00279353 3.77157e-16)
(1.00669 -0.00182779 -1.15563e-16)
(0.99815 -0.000142486 -3.96664e-17)
(0.998244 -0.00117597 -7.73119e-17)
(0.99859 -0.00219903 3.70965e-16)
(0.999135 -0.00310288 3.37844e-16)
(0.999884 -0.0038543 -7.42663e-18)
(1.0008 -0.00438599 7.22641e-17)
(1.00183 -0.00465896 -1.12176e-16)
(1.00294 -0.00464251 8.24063e-17)
(1.00405 -0.00432637 3.4681e-16)
(1.0051 -0.00371616 -1.80119e-16)
(1.00601 -0.00285828 1.28081e-16)
(1.0068 -0.00188111 2.14631e-16)
(0.998086 -0.000148337 -2.48208e-18)
(0.998182 -0.00120237 5.34922e-17)
(0.998536 -0.00224514 -1.62413e-16)
(0.999093 -0.00316625 -3.19304e-16)
(0.99986 -0.00393206 1.93351e-16)
(1.00079 -0.00447397 -4.43369e-16)
(1.00185 -0.00475222 1.30994e-16)
(1.00298 -0.0047361 -1.9449e-16)
(1.00411 -0.00441535 3.07344e-17)
(1.00519 -0.00379639 1.84732e-16)
(1.00611 -0.00292453 -1.58888e-16)
(1.00691 -0.00193575 -4.78261e-16)
(0.99802 -0.00015417 2.29301e-17)
(0.998119 -0.00122905 -1.48524e-16)
(0.99848 -0.0022917 1.66648e-16)
(0.99905 -0.00323023 2.79879e-16)
(0.999834 -0.00401059 -3.59919e-16)
(1.00079 -0.00456293 -3.0452e-17)
(1.00187 -0.00484662 2.19019e-16)
(1.00302 -0.004831 -2.64265e-16)
(1.00418 -0.0045057 -3.20067e-16)
(1.00527 -0.00387796 9.04607e-17)
(1.00621 -0.00299233 -2.76807e-16)
(1.00702 -0.00199111 4.21195e-16)
(0.997952 -0.000159955 1.50687e-17)
(0.998054 -0.00125599 7.82806e-17)
(0.998423 -0.00233874 -7.73227e-17)
(0.999006 -0.00329486 2.3585e-16)
(0.999807 -0.00408999 1.74912e-16)
(1.00078 -0.00465295 1.47277e-16)
(1.00189 -0.00494229 -2.4765e-16)
(1.00306 -0.00492731 3.77317e-16)
(1.00424 -0.00459753 -3.35362e-18)
(1.00536 -0.00396097 -7.17146e-16)
(1.00631 -0.00306163 1.36924e-16)
(1.00714 -0.00204676 -2.65059e-17)
(0.997882 -0.000165655 -2.40216e-17)
(0.997987 -0.00128317 8.08649e-17)
(0.998365 -0.00238623 -2.69374e-16)
(0.998961 -0.00336017 -1.97593e-16)
(0.999779 -0.00417028 4.02178e-17)
(1.00077 -0.0047441 1.54858e-16)
(1.0019 -0.0050393 2.58672e-16)
(1.0031 -0.00502511 3.52936e-17)
(1.00431 -0.00469089 2.79516e-17)
(1.00544 -0.00404544 4.77527e-16)
(1.00642 -0.00313243 1.45042e-16)
(1.00725 -0.00210233 -2.29919e-16)
(0.99781 -0.000171244 -1.89878e-17)
(0.997919 -0.00131055 -2.24383e-17)
(0.998305 -0.00243417 2.85515e-16)
(0.998914 -0.00342618 4.56081e-18)
(0.99975 -0.00425152 2.45938e-16)
(1.00077 -0.00483646 -2.31818e-16)
(1.00192 -0.00513773 -1.51714e-16)
(1.00314 -0.00512448 -4.50576e-17)
(1.00437 -0.00478588 5.42975e-18)
(1.00553 -0.00413143 2.90061e-16)
(1.00652 -0.00320514 -4.51347e-16)
(1.00737 -0.00215833 -2.64337e-16)
(0.997736 -0.000176694 5.17776e-18)
(0.997849 -0.00133809 -7.88246e-17)
(0.998243 -0.00248255 -2.76186e-16)
(0.998865 -0.00349289 4.92327e-17)
(0.999719 -0.00433373 2.29943e-17)
(1.00076 -0.00493005 2.9246e-18)
(1.00193 -0.00523763 -8.01606e-17)
(1.00318 -0.00522548 3.48427e-16)
(1.00443 -0.00488253 3.81865e-16)
(1.00561 -0.00421896 -2.53791e-16)
(1.00662 -0.00327954 6.83659e-16)