1.45 	0 	0 	-0.305624
2.35 	0 	0 	-0.133409
