1.45 	0 	0 	-0.150604
2.35 	0 	0 	-0.00283641
