1.45 	0 	0 	-0.308393
2.35 	0 	0 	-0.121074
