1.45 	0 	0 	-0.00817772 	-0.00256776 	3.7801e-21
2.35 	0 	0 	0.0613222 	-0.00662702 	2.28022e-21
