1.45 	0 	0 	-0.00789008 	-0.00258091 	3.80692e-21
2.35 	0 	0 	0.0618269 	-0.00664727 	2.31978e-21
