1.45 	0 	0 	-0.291374
2.35 	0 	0 	-0.126613
