1.45 	0 	0 	-0.302456
2.35 	0 	0 	-0.134441
