1.45 	0 	0 	-0.00573147 	-0.00273237 	3.92995e-21
2.35 	0 	0 	0.068436 	-0.00683604 	2.44618e-21
