1.45 	0 	0 	-0.00802496 	-0.00257449 	3.7929e-21
2.35 	0 	0 	0.0615161 	-0.00663837 	2.30052e-21
