1.275 	2.15223e-18 	-2.76991e-20 	-0.0289283 	-0.00145496 	-2.05282e-22
1.825 	2.15223e-18 	-1.39322e-20 	0.0451841 	-0.00557805 	1.4405e-21
2.375 	2.15223e-18 	-2.66896e-23 	0.276301 	-0.0070293 	-5.19183e-22
