1.275 	2.15223e-18 	-2.76991e-20 	-0.0341616 	-0.000446952 	-1.97379e-22
1.825 	2.15223e-18 	-1.39322e-20 	-0.00891699 	-0.00276752 	1.7692e-21
2.375 	2.15223e-18 	-2.66896e-23 	0.116868 	-0.00325394 	-7.38563e-22
