/*--------------------------------*- C++ -*----------------------------------*\
  =========                 |
  \\      /  F ield         | OpenFOAM: The Open Source CFD Toolbox
   \\    /   O peration     | Website:  https://openfoam.org
    \\  /    A nd           | Version:  6.0
     \\/     M anipulation  |
\*---------------------------------------------------------------------------*/
FoamFile
{
    version     2.0;
    format      ascii;
    class       volVectorField;
    location    "22";
    object      U;
}
// * * * * * * * * * * * * * * * * * * * * * * * * * * * * * * * * * * * * * //

dimensions      [0 1 -1 0 0 0 0];

internalField   nonuniform List<vector> 
8000
(
(-0.000398489 0.000443108 -1.35937e-21)
(-0.00209829 0.00106756 7.92179e-21)
(-0.00514586 0.00147523 -9.88242e-21)
(-0.00877554 0.00171752 7.68368e-21)
(-0.0125909 0.00183175 3.81436e-21)
(-0.0163657 0.00184692 -1.16387e-20)
(-0.0199373 0.00178667 -1.03964e-21)
(-0.023198 0.00167032 -3.64328e-22)
(-0.0260839 0.00151377 -6.24214e-21)
(-0.0285631 0.00133027 -3.39931e-21)
(-0.0306275 0.00113101 2.58493e-21)
(-0.0322863 0.000925544 9.79512e-21)
(-0.0335621 0.000722059 -7.76407e-22)
(-0.0344869 0.000527568 1.03253e-21)
(-0.0350998 0.000348039 -9.99724e-21)
(-0.035445 0.000188441 6.17981e-21)
(-0.0355698 5.27796e-05 -8.83537e-21)
(-0.0355149 -5.57247e-05 1.34385e-20)
(-0.0353117 -0.000134328 -1.53973e-23)
(-0.0350655 -0.000182257 3.35239e-21)
(-0.000466027 0.0013239 4.51069e-21)
(-0.00225078 0.00318792 -2.51835e-20)
(-0.00533368 0.00440356 -1.78646e-20)
(-0.00896063 0.00512474 -1.23942e-20)
(-0.012743 0.00546315 -1.62371e-20)
(-0.0164602 0.0055055 3.61633e-21)
(-0.0199546 0.00532246 -1.92687e-20)
(-0.0231221 0.00497171 -4.34835e-21)
(-0.0259017 0.0045007 1.4522e-21)
(-0.0282637 0.00394899 1.48559e-20)
(-0.0302016 0.00335005 -1.62902e-20)
(-0.0317261 0.00273241 2.28129e-20)
(-0.0328608 0.0021206 -1.71634e-20)
(-0.0336389 0.00153568 -2.04008e-20)
(-0.0341001 0.000995613 -2.81004e-20)
(-0.0342898 0.000515395 1.82023e-20)
(-0.0342563 0.000107145 -5.77181e-21)
(-0.034041 -0.000219327 -2.1235e-20)
(-0.0336755 -0.000455609 2.01988e-20)
(-0.0332688 -0.000599453 -1.73979e-20)
(-0.000599731 0.00218801 4.4107e-20)
(-0.00255165 0.00526309 2.51363e-20)
(-0.00570255 0.00726443 2.89041e-20)
(-0.00932162 0.00844751 2.47085e-21)
(-0.0130358 0.00899752 1.6604e-20)
(-0.0166363 0.00905805 2.09319e-20)
(-0.0199749 0.00874593 -3.88158e-20)
(-0.0229549 0.00815636 -2.06868e-20)
(-0.0255212 0.0073676 -2.72134e-20)
(-0.0276484 0.00644494 2.93044e-20)
(-0.0293334 0.00544364 -2.25578e-20)
(-0.0305896 0.00441096 -2.91666e-20)
(-0.0314427 0.00338764 -1.07154e-20)
(-0.0319276 0.00240881 1.02179e-20)
(-0.0320862 0.00150459 -2.70165e-21)
(-0.0319656 0.000700271 4.20599e-21)
(-0.0316162 1.64243e-05 4.74256e-20)
(-0.0310809 -0.000530124 -6.90552e-21)
(-0.0303917 -0.000924732 -4.83653e-20)
(-0.0296652 -0.00116391 7.39204e-20)
(-0.000796822 0.00302434 1.55317e-20)
(-0.0029926 0.00726308 -2.37059e-20)
(-0.00623879 0.0100133 -6.18367e-21)
(-0.00983988 0.0116304 1.1787e-20)
(-0.0134465 0.0123717 3.38834e-20)
(-0.0168674 0.0124361 7.52396e-20)
(-0.0199687 0.0119851 7.44833e-20)
(-0.0226651 0.0111501 6.25606e-21)
(-0.0249099 0.0100389 4.6597e-20)
(-0.0266842 0.0087415 7.19116e-20)
(-0.0279899 0.0073341 -5.76045e-20)
(-0.0288442 0.00588218 8.62785e-20)
(-0.0292758 0.00444248 -1.93646e-20)
(-0.0293225 0.00306422 5.11319e-21)
(-0.0290287 0.00178997 2.04163e-20)
(-0.0284444 0.00065576 2.70905e-20)
(-0.0276231 -0.000308815 -4.33152e-20)
(-0.0266097 -0.00107913 -3.60454e-20)
(-0.025437 -0.00163336 -6.36167e-20)
(-0.0242341 -0.00196717 1.0761e-19)
(-0.00105306 0.00382184 -8.02817e-21)
(-0.00356089 0.00915814 -9.08386e-20)
(-0.00692141 0.0126064 -2.75967e-20)
(-0.0104869 0.0146194 -6.85027e-20)
(-0.0139398 0.0155246 2.6464e-20)
(-0.0171128 0.0155742 -4.21238e-20)
(-0.0198912 0.0149724 1.48355e-20)
(-0.0222046 0.0138844 -9.13308e-20)
(-0.0240177 0.0124459 4.88085e-20)
(-0.0253201 0.01077 -5.85127e-20)
(-0.02612 0.00895273 -5.23005e-20)
(-0.0264395 0.00707701 -5.88625e-20)
(-0.0263112 0.0052151 5.36154e-20)
(-0.0257764 0.00343039 -4.83137e-20)
(-0.0248825 0.00177821 6.75997e-20)
(-0.0236834 0.000306033 1.9427e-20)
(-0.0222363 -0.000946681 4.8152e-20)
(-0.0205892 -0.00194633 2.09616e-20)
(-0.0187759 -0.00266243 -8.40869e-20)
(-0.0169433 -0.00309047 1.58522e-19)
(-0.00136265 0.00456946 3.60916e-20)
(-0.00423912 0.0109187 2.73862e-21)
(-0.00772167 0.0150005 1.66703e-20)
(-0.0112235 0.0173622 5.91461e-20)
(-0.0144678 0.0183982 -8.94082e-21)
(-0.017317 0.0184116 9.92452e-20)
(-0.0196807 0.017646 4.47244e-20)
(-0.0215073 0.0162983 3.89154e-21)
(-0.0227756 0.0145292 1.16791e-19)
(-0.0234855 0.0124729 3.83789e-20)
(-0.0236531 0.0102437 1.83964e-20)
(-0.0233059 0.00794061 5.86872e-20)
(-0.0224812 0.00565092 5.39347e-20)
(-0.0212238 0.00345202 9.85006e-20)
(-0.0195851 0.0014125 -8.87169e-20)
(-0.017623 -0.000407915 1.24765e-19)
(-0.0153997 -0.00195864 9.76447e-22)
(-0.0129665 -0.00319543 -1.60135e-19)
(-0.0103592 -0.00407713 2.07657e-19)
(-0.00774889 -0.00459986 9.92187e-20)
(-0.00171806 0.00525602 -2.11388e-20)
(-0.00500472 0.0125154 -4.26812e-20)
(-0.00860239 0.0171536 -9.0641e-20)
(-0.0119993 0.0198085 -2.78769e-21)
(-0.0149681 0.0209381 1.62362e-20)
(-0.0174078 0.0208926 -1.21451e-19)
(-0.0192573 0.0199519 -9.11237e-20)
(-0.0204875 0.0183405 -1.32545e-20)
(-0.0210939 0.0162415 -1.17369e-19)
(-0.0210889 0.0138072 -8.16866e-20)
(-0.020497 0.0111678 -2.39796e-20)
(-0.0193524 0.00843694 -7.76319e-20)
(-0.017697 0.00571585 -1.49444e-21)
(-0.0155794 0.00309566 -1.03802e-19)
(-0.0130549 0.00065863 4.33581e-20)
(-0.0101859 -0.00152215 -4.99971e-20)
(-0.00704008 -0.00338338 3.78225e-20)
(-0.00367267 -0.00486785 -4.92961e-20)
(-0.000122666 -0.00592098 -1.39183e-19)
(0.00340702 -0.0065406 -4.90013e-20)
(-0.00210985 0.00587014 -8.31111e-21)
(-0.00582948 0.0139186 -9.83713e-21)
(-0.00951716 0.0190245 7.63396e-20)
(-0.0127511 0.0219106 -1.27121e-19)
(-0.0153632 0.0230941 1.88899e-20)
(-0.0172955 0.0229683 -7.5904e-20)
(-0.0185213 0.0218446 3.5952e-20)
(-0.0190378 0.0199714 1.63592e-19)
(-0.01886 0.0175499 -1.09973e-20)
(-0.0180145 0.0147472 -1.2391e-19)
(-0.0165356 0.0117065 2.25775e-20)
(-0.014464 0.00855354 4.63549e-21)
(-0.0118463 0.00540194 -2.52933e-20)
(-0.00873489 0.00235596 3.23e-21)
(-0.00518845 -0.000488138 2.26608e-19)
(-0.00127401 -0.00304268 -3.27694e-20)
(0.00293496 -0.00522959 -6.30836e-20)
(0.00737889 -0.00697557 -1.12524e-19)
(0.0120145 -0.00820892 1.15658e-19)
(0.0165974 -0.00893039 5.76977e-20)
(-0.00252634 0.00640009 4.02807e-20)
(-0.00667885 0.015099 -5.80302e-20)
(-0.0104095 0.0205729 8.38924e-20)
(-0.0134027 0.0236231 8.64767e-20)
(-0.0155593 0.0248205 8.08066e-20)
(-0.0168712 0.0245963 1.65441e-19)
(-0.0173513 0.0232885 1.07936e-19)
(-0.0170272 0.0211642 -2.34299e-19)
(-0.0159362 0.0184382 1.20765e-19)
(-0.0141205 0.015288 9.51306e-20)
(-0.0116253 0.0118657 -1.71981e-21)
(-0.00849816 0.00830628 1.07292e-19)
(-0.00479 0.00473319 8.32343e-20)
(-0.000556023 0.00126257 -4.6125e-20)
(0.00414227 -0.00199535 1.54066e-19)
(0.00923386 -0.00493709 -1.9221e-19)
(0.0146395 -0.00746729 7.66681e-20)
(0.0202952 -0.00949248 9.83748e-20)
(0.0261519 -0.0109188 -2.28206e-20)
(0.0319127 -0.0117512 2.29671e-19)
(-0.00295331 0.00683367 8.28062e-20)
(-0.00751135 0.0160266 5.02776e-21)
(-0.0112122 0.0217597 -3.28667e-20)
(-0.0138635 0.0249036 -3.51478e-20)
(-0.0154451 0.0260765 -1.66538e-19)
(-0.0160058 0.0257417 2.45972e-20)
(-0.0156034 0.0242581 6.82039e-20)
(-0.0142996 0.0219059 -3.36553e-20)
(-0.0121569 0.0189078 2.78463e-20)
(-0.00923538 0.0154468 -7.46511e-21)
(-0.00559186 0.011679 -3.64585e-20)
(-0.00128108 0.00774393 3.5058e-20)
(0.00364243 0.00377164 -1.49869e-19)
(0.00912177 -0.00011229 1.45293e-19)
(0.0150942 -0.00378447 -1.24981e-19)
(0.0214859 -0.00712466 3.90913e-20)
(0.0282126 -0.0100174 8.77253e-20)
(0.0352063 -0.0123437 -1.87699e-20)
(0.0424109 -0.013981 -6.08717e-20)
(0.0494633 -0.0149391 -4.80491e-20)
(-0.00337364 0.00715819 -1.04832e-19)
(-0.00827786 0.0166719 -7.55187e-21)
(-0.0118463 0.0225468 2.45878e-20)
(-0.014028 0.0257125 6.3916e-20)
(-0.0148917 0.0268261 -9.16018e-20)
(-0.0145496 0.0263769 -8.0672e-20)
(-0.0131096 0.0247381 1.89438e-19)
(-0.0106719 0.022197 -1.066e-19)
(-0.00732718 0.0189784 -6.89172e-20)
(-0.00315548 0.0152644 -9.89099e-20)
(0.00177321 0.0112094 6.57789e-20)
(0.00739673 0.0069518 -2.39649e-21)
(0.0136575 0.00262292 -1.24017e-19)
(0.0204986 -0.00164612 -2.0119e-19)
(0.0278583 -0.00572104 1.54268e-19)
(0.0356623 -0.00946477 -1.23816e-19)
(0.0438229 -0.0127389 1.76269e-19)
(0.0522695 -0.0153927 -4.99686e-20)
(0.060938 -0.0172653 1.01906e-19)
(0.0693833 -0.0183715 -4.08619e-19)
(-0.00376698 0.00736064 -2.17295e-19)
(-0.00892129 0.0170054 1.54873e-19)
(-0.0122217 0.0228982 2.1064e-20)
(-0.0137762 0.0260134 4.32795e-21)
(-0.0137525 0.0270383 -9.90538e-20)
(-0.0123322 0.0264807 1.47653e-19)
(-0.00967851 0.024722 1.55709e-20)
(-0.00593395 0.0220502 -3.05015e-20)
(-0.00122101 0.0186858 -9.91107e-20)
(0.00435752 0.0148038 1.07681e-19)
(0.0107165 0.0105497 2.72611e-19)
(0.0177855 0.00605335 -6.08799e-20)
(0.0255042 0.00144047 1.36766e-19)
(0.0338173 -0.00315887 -1.60796e-19)
(0.0426669 -0.00760414 -1.53515e-19)
(0.051982 -0.0117434 9.31915e-20)
(0.0616749 -0.0154133 1.5154e-19)
(0.0716752 -0.018424 -4.93077e-19)
(0.081911 -0.0205638 5.92381e-20)
(0.0918367 -0.0218504 9.19537e-20)
(-0.00410954 0.00742796 1.62315e-19)
(-0.00937643 0.0169988 6.07877e-20)
(-0.0122366 0.0227802 3.08492e-19)
(-0.0129744 0.0257736 1.61644e-20)
(-0.0118649 0.0266865 -3.46461e-20)
(-0.0091647 0.0260377 -1.6762e-19)
(-0.00509653 0.0242104 1.44964e-19)
(0.000150424 0.0214871 2.61492e-19)
(0.00641822 0.0180786 1.73437e-19)
(0.0135778 0.0141459 1.26391e-19)
(0.021526 0.00981804 1.08976e-19)
(0.0301817 0.00520816 -1.9581e-19)
(0.0394813 0.000426396 -6.03665e-20)
(0.0493723 -0.00440782 -4.49114e-20)
(0.0598042 -0.00915636 4.81274e-19)
(0.0707137 -0.0136582 -3.24682e-21)
(0.0820191 -0.0177257 -1.18933e-19)
(0.0936559 -0.0211223 -3.51343e-20)
(0.105548 -0.0235692 3.41575e-19)
(0.117027 -0.0250802 5.27515e-20)
(-0.00437411 0.00734765 -6.3216e-21)
(-0.00957051 0.0166264 -1.68064e-19)
(-0.0117798 0.0221628 -2.54281e-19)
(-0.0114777 0.0249651 -7.18204e-20)
(-0.00905348 0.0257486 4.10302e-20)
(-0.00484292 0.0250364 9.23864e-21)
(0.000867916 0.0232072 2.32994e-19)
(0.00783965 0.0205334 -2.91476e-19)
(0.015875 0.0172108 -1.11732e-19)
(0.0248142 0.0133808 -2.24463e-19)
(0.0345318 0.0091495 -1.90765e-19)
(0.0449323 0.00460355 -1.68957e-19)
(0.0559459 -0.000173894 4.26632e-20)
(0.0675223 -0.00508778 -5.50225e-20)
(0.0796208 -0.0100167 2.33291e-19)
(0.0921922 -0.0148028 -1.29691e-19)
(0.105169 -0.0192415 -3.98596e-19)
(0.118503 -0.0230442 -7.73872e-20)
(0.132122 -0.0258437 1.95512e-19)
(0.145213 -0.0276362 -1.98185e-19)
(-0.00453033 0.00710865 -2.52598e-20)
(-0.00942444 0.0158664 2.11733e-19)
(-0.0107325 0.0210219 -2.72798e-19)
(-0.00913307 0.0235654 6.3514e-20)
(-0.00513452 0.0242074 -1.31486e-19)
(0.000846265 0.023468 2.98255e-19)
(0.00845761 0.0217164 -2.13726e-19)
(0.0174072 0.0192114 2.4473e-19)
(0.0274546 0.016131 -2.34614e-19)
(0.0384052 0.0125942 9.89204e-20)
(0.050105 0.00867846 -4.92247e-20)
(0.0624378 0.00443636 -1.22112e-19)
(0.0753217 -8.83217e-05 -1.49653e-19)
(0.0887048 -0.00484197 1.48991e-19)
(0.102556 -0.00974115 -1.24307e-19)
(0.116844 -0.0146544 -2.68538e-19)
(0.131528 -0.0193788 2.79735e-19)
(0.146594 -0.0235779 -3.53876e-19)
(0.161993 -0.0267709 1.58479e-19)
(0.176741 -0.0289118 4.03398e-21)
(-0.00454542 0.00670248 -2.50316e-19)
(-0.00885485 0.0147037 -2.90747e-19)
(-0.0089721 0.0193414 3.33379e-20)
(-0.00578545 0.0215599 -2.8576e-19)
(7.66824e-05 0.0220512 -2.56487e-20)
(0.00811632 0.021325 -2.12625e-19)
(0.017916 0.0197375 -4.92903e-20)
(0.0291295 0.0175323 -1.44292e-19)
(0.0414711 0.0148698 4.49325e-22)
(0.0547064 0.0118467 -6.40027e-20)
(0.0686472 0.00851195 3.05697e-21)
(0.083148 0.00488006 -1.82694e-19)
(0.0981048 0.000946361 1.98553e-19)
(0.113454 -0.00329424 -2.84007e-19)
(0.129167 -0.00782334 9.86893e-20)
(0.145232 -0.012572 2.38296e-21)
(0.161642 -0.0173794 -1.56419e-19)
(0.178446 -0.021887 3.83035e-19)
(0.195664 -0.025483 -9.15775e-20)
(0.212113 -0.0280432 -6.90151e-20)
(-0.00438527 0.00612453 2.85055e-19)
(-0.00777716 0.0131323 1.65346e-19)
(-0.00637719 0.0171165 1.54308e-19)
(-0.00128373 0.0189447 2.27648e-20)
(0.00675714 0.0192758 2.14494e-19)
(0.0171695 0.0186022 3.094e-19)
(0.0294729 0.0172636 2.55184e-19)
(0.0432685 0.0154889 2.09805e-20)
(0.0582255 0.0134242 1.86332e-19)
(0.0740685 0.0111499 2.89339e-19)
(0.0905696 0.0086922 -7.55737e-20)
(0.107546 0.00603298 1.26629e-19)
(0.124858 0.00311938 1.03339e-19)
(0.142415 -0.000121919 1.04143e-19)
(0.160174 -0.00376289 6.02141e-19)
(0.178129 -0.00784456 -2.2622e-19)
(0.196308 -0.0123199 -1.35118e-20)
(0.214853 -0.0168876 2.52513e-19)
(0.233938 -0.0208273 -1.42105e-19)
(0.252179 -0.0238833 8.35777e-20)
(-0.00401601 0.00537545 -2.35322e-19)
(-0.00610921 0.0111578 1.84479e-20)
(-0.0028328 0.0143568 -2.03668e-19)
(0.00451132 0.0157305 -2.50741e-20)
(0.015066 0.0158888 1.51941e-19)
(0.0281835 0.0152992 -4.51655e-19)
(0.043326 0.0142818 3.07066e-21)
(0.0600476 0.0130521 2.11255e-19)
(0.0779768 0.0117477 1.99067e-19)
(0.0967997 0.0104423 -8.81324e-20)
(0.11625 0.00915416 2.83497e-20)
(0.136102 0.00785009 6.76038e-20)
(0.156171 0.00644711 -3.23887e-20)
(0.17632 0.00481615 -3.52536e-19)
(0.196465 0.0027907 9.02728e-20)
(0.216573 0.000180125 2.39607e-19)
(0.236675 -0.00318446 -3.3928e-19)
(0.257015 -0.00721956 1.65833e-19)
(0.278064 -0.0111907 4.22261e-20)
(0.298332 -0.0146435 2.53319e-19)
(-0.00340572 0.00446227 -3.65909e-20)
(-0.00377531 0.00880077 -1.78959e-19)
(0.00176365 0.0110906 8.10767e-20)
(0.0117195 0.0119473 -2.36261e-21)
(0.025134 0.0119151 -3.66878e-19)
(0.041297 0.0114274 5.79954e-20)
(0.0596218 0.0107805 -9.97842e-21)
(0.0796245 0.0101763 7.43833e-20)
(0.100903 0.00974902 -3.42147e-19)
(0.123114 0.00957743 -2.17862e-20)
(0.145964 0.00969148 -7.8325e-20)
(0.169192 0.010073 7.35171e-20)
(0.192571 0.0106516 2.40265e-19)
(0.215905 0.0112969 -3.76722e-20)
(0.239037 0.0118071 1.33498e-20)
(0.261845 0.0118822 9.44745e-20)
(0.284255 0.0111146 -2.2588e-20)
(0.306514 0.00927035 1.73333e-19)
(0.329521 0.00701309 -1.11599e-19)
(0.35206 0.00465097 -1.86213e-19)
(-0.0025263 0.00339926 3.30353e-20)
(-0.000710123 0.00609769 7.41898e-21)
(0.00749724 0.00736749 7.39026e-20)
(0.0204344 0.00764971 1.80927e-19)
(0.0370553 0.00740483 1.01143e-19)
(0.0565977 0.0070214 1.01331e-20)
(0.078437 0.0067641 -1.22415e-19)
(0.102063 0.00681737 3.22455e-20)
(0.127058 0.00731191 1.64752e-19)
(0.153069 0.0083373 -2.81369e-19)
(0.179798 0.00994974 2.12963e-19)
(0.206983 0.0121755 -1.60126e-19)
(0.234394 0.01501 1.35653e-19)
(0.261824 0.0184124 -2.91496e-19)
(0.289082 0.02229 3.17133e-19)
(0.315977 0.02645 -3.40342e-19)
(0.342298 0.0305611 -8.54876e-20)
(0.368111 0.0344604 2.58822e-19)
(0.394411 0.0387646 -9.43106e-20)
(0.420303 0.0417834 3.95379e-20)
(-0.00135494 0.00220803 -2.61353e-20)
(0.00313823 0.00310257 2.58389e-19)
(0.0144317 0.00326153 -3.30644e-21)
(0.0307192 0.00292172 -1.62218e-19)
(0.0508814 0.00244199 -1.08768e-19)
(0.0741148 0.00215258 2.0165e-19)
(0.0997672 0.00227513 -8.07055e-20)
(0.127314 0.00296604 -1.05199e-20)
(0.156335 0.00434249 1.65743e-19)
(0.186491 0.00649483 -2.09639e-19)
(0.217511 0.00949615 2.22251e-20)
(0.249186 0.0134101 -2.72297e-19)
(0.281371 0.0182977 1.43054e-19)
(0.314001 0.0242237 -4.11278e-19)
(0.347122 0.0312554 6.55093e-19)
(0.380957 0.0394454 -1.18834e-19)
(0.41608 0.0488513 1.2465e-19)
(0.4539 0.0596448 -3.29661e-19)
(0.497283 0.0712563 4.68578e-21)
(0.550768 0.077923 4.65209e-19)
(0.000124933 0.000917059 -8.11243e-20)
(0.00780641 -0.000113962 7.38161e-20)
(0.0226079 -0.00112859 -2.68963e-19)
(0.0426057 -0.00211986 4.00246e-19)
(0.0666217 -0.00284806 -2.90396e-19)
(0.0938204 -0.00305588 1.442e-20)
(0.123529 -0.0025791 -3.13442e-19)
(0.155215 -0.00130502 2.25343e-19)
(0.188461 0.000850977 -3.37e-20)
(0.222946 0.00395466 -2.00337e-19)
(0.258433 0.00805941 -1.15815e-19)
(0.29477 0.0132101 1.22521e-19)
(0.331898 0.0194434 8.15498e-20)
(0.369874 0.0267804 -3.66116e-19)
(0.408914 0.0352027 1.33694e-19)
(0.449458 0.0446056 -1.96253e-19)
(0.492318 0.0547648 2.13464e-20)
(0.538881 0.065215 -1.72708e-19)
(0.590781 0.0741214 8.00756e-20)
(0.648703 0.076124 -3.20074e-19)
(0.00192337 -0.000439571 2.28396e-19)
(0.0133155 -0.0034665 -1.45244e-19)
(0.0320442 -0.00568083 1.20326e-19)
(0.0560965 -0.00732567 -1.52008e-19)
(0.0842493 -0.00829602 2.59243e-19)
(0.115641 -0.00842154 -5.67144e-21)
(0.149583 -0.00760959 -3.16165e-20)
(0.185532 -0.00580675 -2.3511e-20)
(0.223072 -0.0029793 1.45084e-19)
(0.261887 0.000891108 2.46045e-19)
(0.301757 0.00580882 -1.48152e-19)
(0.34255 0.0117623 1.42635e-19)
(0.38423 0.0187162 2.61978e-19)
(0.426871 0.0265947 -1.86526e-19)
(0.470673 0.0352458 -3.81177e-19)
(0.51599 0.0443923 7.01309e-19)
(0.563383 0.0535951 -1.27125e-19)
(0.613631 0.062122 -4.27684e-20)
(0.667214 0.0681454 4.63185e-19)
(0.723412 0.068083 -1.18474e-19)
(0.00404441 -0.00182387 -3.76602e-19)
(0.019672 -0.00685846 -2.66659e-19)
(0.0427385 -0.010254 -1.0235e-19)
(0.0711695 -0.0125183 1.98066e-19)
(0.103709 -0.0136936 -4.48461e-19)
(0.139475 -0.0137081 2.31396e-19)
(0.17776 -0.0125525 2.92647e-20)
(0.218011 -0.0102444 2.82651e-20)
(0.259799 -0.00681319 -3.07616e-19)
(0.302802 -0.00230085 -1.09782e-19)
(0.346788 0.00323552 -1.93097e-19)
(0.39161 0.00971801 1.86561e-19)
(0.4372 0.0170373 5.29596e-20)
(0.483572 0.0250342 9.07273e-21)
(0.530818 0.0334703 2.487e-19)
(0.579101 0.0419942 -2.5352e-19)
(0.628665 0.0501301 -1.0906e-20)
(0.679781 0.0571922 5.28289e-21)
(0.732313 0.0617206 3.42202e-20)
(0.785315 0.0613762 2.48978e-19)
(0.00648699 -0.00319587 1.21417e-19)
(0.0268699 -0.0101863 3.31233e-19)
(0.0546715 -0.014694 2.65881e-19)
(0.0877822 -0.0175003 -9.14433e-20)
(0.124924 -0.0188041 3.17469e-19)
(0.165198 -0.0186409 -2.73336e-20)
(0.207882 -0.0170923 -3.82379e-20)
(0.252402 -0.0142542 2.27524e-20)
(0.298312 -0.010225 3.12648e-19)
(0.345269 -0.00511066 1.83566e-19)
(0.393011 0.000970347 5.34909e-20)
(0.441353 0.00787993 3.31203e-21)
(0.490168 0.0154507 -3.61822e-19)
(0.539388 0.023472 3.16204e-19)
(0.588981 0.0316697 5.50784e-20)
(0.638942 0.0396913 -9.07265e-20)
(0.689286 0.047116 -3.9902e-19)
(0.739994 0.0533977 -3.49189e-20)
(0.790684 0.0574172 1.61605e-19)
(0.840514 0.0576083 -3.75942e-20)
(0.00924611 -0.00451535 -3.07662e-19)
(0.0348925 -0.0133437 1.36933e-19)
(0.0678088 -0.0188401 -6.68351e-19)
(0.105875 -0.0220639 2.73817e-19)
(0.147802 -0.0233764 -2.19936e-19)
(0.192679 -0.0229261 1.63129e-19)
(0.239766 -0.0208902 -2.53199e-19)
(0.28847 -0.0174456 2.40341e-20)
(0.338322 -0.0127609 -1.2555e-20)
(0.388949 -0.00700373 6.80952e-20)
(0.440054 -0.00034789 9.9023e-20)
(0.491404 0.00702041 -1.8959e-19)
(0.542814 0.0148951 1.00462e-19)
(0.594134 0.0230409 9.29901e-20)
(0.645237 0.0311826 4.05044e-19)
(0.695998 0.039002 -1.77227e-19)
(0.746298 0.046159 -1.19378e-19)
(0.795977 0.0522427 2.02567e-19)
(0.84458 0.0563808 1.1118e-19)
(0.891425 0.0575117 -2.58316e-19)
(0.0123138 -0.00574312 2.71055e-19)
(0.043714 -0.0162255 2.77021e-19)
(0.0821028 -0.0225318 8.02979e-20)
(0.125372 -0.0260005 3.38153e-19)
(0.172234 -0.0271586 1.64663e-19)
(0.22177 -0.0262704 -3.01587e-19)
(0.273225 -0.0236107 4.57365e-19)
(0.325989 -0.0194378 -2.27016e-19)
(0.379567 -0.0139883 2.26312e-19)
(0.433558 -0.00748731 2.93261e-19)
(0.487629 -0.000155869 -1.68812e-19)
(0.541504 0.00778304 3.23182e-20)
(0.594949 0.0160994 1.80504e-19)
(0.647756 0.0245509 1.27817e-19)
(0.69973 0.0328773 2.96486e-19)
(0.750681 0.0408043 -1.19409e-19)
(0.800416 0.048067 -1.46778e-20)
(0.848717 0.054359 1.91912e-19)
(0.895128 0.0589832 -4.12174e-20)
(0.93911 0.0612315 1.00529e-21)
(0.01568 -0.00684185 -1.41169e-19)
(0.053301 -0.0187303 -5.45909e-19)
(0.0974937 -0.0256141 1.28643e-19)
(0.146184 -0.0291093 -9.90071e-20)
(0.198096 -0.0299098 -2.27105e-19)
(0.25231 -0.028397 -1.61322e-19)
(0.308064 -0.0249431 -9.94102e-20)
(0.364729 -0.0198866 2.46683e-19)
(0.421793 -0.013529 -1.47369e-19)
(0.478827 -0.00614797 -1.5127e-19)
(0.535474 0.00199501 -1.91833e-19)
(0.591424 0.0106488 -3.19454e-20)
(0.646409 0.0195687 -2.21668e-20)
(0.700186 0.0285138 -4.49952e-19)
(0.752525 0.0372435 2.19372e-19)
(0.803201 0.0455244 -2.90865e-19)
(0.852 0.0531518 9.19948e-20)
(0.898683 0.0598948 -7.06083e-19)
(0.942829 0.0651865 2.13867e-19)
(0.984006 0.0685809 3.26645e-19)
(0.0193325 -0.00777642 -3.45664e-20)
(0.0636132 -0.0207628 2.66586e-19)
(0.11391 -0.0279412 1.76249e-20)
(0.168205 -0.0312033 4.11767e-20)
(0.225246 -0.0314091 -8.40491e-20)
(0.284123 -0.0290568 -1.71889e-21)
(0.344068 -0.024615 -1.43197e-21)
(0.404448 -0.0185001 -5.01547e-20)
(0.464734 -0.0110755 1.82988e-19)
(0.524484 -0.00266672 7.11805e-20)
(0.583321 0.00642959 3.22783e-19)
(0.64092 0.0159398 -8.91783e-20)
(0.696994 0.0256099 6.21122e-20)
(0.751287 0.035203 -8.0168e-21)
(0.80356 0.0444979 1.74195e-19)
(0.853583 0.0532949 1.07258e-19)
(0.901142 0.0614348 2.60141e-19)
(0.946009 0.0687408 -4.23495e-19)
(0.987808 0.0747502 5.36801e-19)
(1.0262 0.0792162 -2.05959e-19)
(0.0232573 -0.00851391 -3.22953e-19)
(0.0746025 -0.0222339 -1.05668e-19)
(0.131267 -0.0293794 8.54833e-20)
(0.191311 -0.0321137 5.40531e-20)
(0.253523 -0.0314612 5.55044e-20)
(0.317007 -0.0280358 5.49898e-20)
(0.381005 -0.0224004 -1.41179e-19)
(0.444882 -0.0150468 -5.72912e-20)
(0.508107 -0.00639685 1.89695e-20)
(0.570232 0.00317995 -1.74139e-19)
(0.630876 0.0133559 -7.86853e-20)
(0.689712 0.0238389 4.81223e-19)
(0.746454 0.0343683 -1.25289e-19)
(0.80085 0.0447124 -1.73267e-19)
(0.852671 0.0546667 -8.25574e-20)
(0.901706 0.0640592 5.77855e-20)
(0.94776 0.0727642 7.05956e-20)
(0.99063 0.0806459 -3.4093e-19)
(1.03 0.0873297 4.96224e-19)
(1.0656 0.0927213 -5.19011e-19)
(0.0274379 -0.00902352 -3.57412e-20)
(0.0862134 -0.0230621 1.07492e-20)
(0.149467 -0.0298085 -1.39518e-20)
(0.215365 -0.0316925 2.06921e-19)
(0.282745 -0.0299001 1.14926e-20)
(0.350743 -0.0251587 7.62299e-20)
(0.418618 -0.0181229 -1.61473e-19)
(0.485745 -0.00935661 -5.5751e-21)
(0.551602 0.000663144 2.26061e-19)
(0.61575 0.0115267 3.1383e-20)
(0.677816 0.0228792 -1.99244e-19)
(0.737486 0.034413 -1.75677e-20)
(0.794493 0.0458632 -1.65322e-19)
(0.848606 0.057004 1.66388e-19)
(0.899623 0.0676457 2.32071e-19)
(0.947366 0.0776392 -2.57763e-20)
(0.991674 0.0868854 -3.14304e-20)
(1.03238 0.095281 9.65241e-20)
(1.06924 0.10253 -3.11714e-19)
(1.10204 0.108653 3.31616e-19)
(0.0318548 -0.00927641 3.59601e-20)
(0.0983814 -0.0231733 -2.48585e-19)
(0.168401 -0.0291226 6.81418e-20)
(0.240207 -0.0298136 -2.07236e-19)
(0.31271 -0.0265903 7.27238e-20)
(0.385086 -0.0202899 -2.67567e-19)
(0.456624 -0.0116554 1.08858e-19)
(0.526724 -0.00131908 -3.53247e-20)
(0.594886 0.0101911 -1.42945e-21)
(0.660691 0.0224293 3.60027e-20)
(0.723792 0.0350173 -1.3231e-19)
(0.783903 0.0476357 -1.90277e-19)
(0.840787 0.0600179 -3.91761e-20)
(0.894252 0.0719449 -1.77351e-20)
(0.944139 0.083242 -4.54131e-20)
(0.990313 0.0937806 -1.48738e-20)
(1.03266 0.103484 -4.48007e-20)
(1.07107 0.112278 -3.90518e-20)
(1.10535 0.119939 -1.16455e-19)
(1.13535 0.126569 2.17772e-19)
(0.0364852 -0.00924568 8.63811e-20)
(0.111033 -0.0225009 -1.01079e-19)
(0.187942 -0.0272305 2.17444e-19)
(0.265664 -0.0263739 -9.53921e-20)
(0.343196 -0.0214272 2.56094e-19)
(0.419771 -0.0133333 4.6757e-21)
(0.494724 -0.00291859 1.29838e-19)
(0.567492 0.00912086 -3.57633e-20)
(0.63761 0.0222111 1.47499e-19)
(0.704697 0.0358751 1.0375e-20)
(0.768444 0.049716 3.57039e-19)
(0.828607 0.063407 -2.4876e-19)
(0.884998 0.0766831 3.3893e-20)
(0.937475 0.0893351 6.51546e-20)
(0.985932 0.101204 3.42634e-19)
(1.03029 0.112183 -1.24067e-19)
(1.07049 0.122215 -2.46685e-20)
(1.10648 0.131254 -1.30724e-19)
(1.13813 0.139144 -1.34747e-20)
(1.16535 0.146044 7.77034e-20)
(0.0413019 -0.00890652 -3.93578e-20)
(0.124083 -0.0209865 1.23737e-19)
(0.207951 -0.0240564 -1.28087e-19)
(0.291542 -0.0212929 5.02485e-20)
(0.373962 -0.0143369 -6.18837e-20)
(0.454516 -0.00423058 2.2661e-19)
(0.532599 0.008122 -3.27156e-20)
(0.607703 0.0219675 7.82788e-20)
(0.679412 0.036692 -4.74147e-20)
(0.747397 0.0517933 -1.64391e-21)
(0.811404 0.066862 5.45673e-20)
(0.871246 0.0815692 -4.29562e-20)
(0.926793 0.0956565 1.12311e-19)
(0.977967 0.108928 -5.65681e-20)
(1.02473 0.121245 -2.50495e-19)
(1.06705 0.13252 2.50729e-19)
(1.10496 0.142721 -1.13304e-19)
(1.13844 0.151827 9.09985e-20)
(1.16744 0.159749 1.57867e-19)
(1.19193 0.166679 7.64007e-20)
(0.0462737 -0.0082365 9.83715e-20)
(0.137439 -0.0185804 -2.16889e-19)
(0.228274 -0.0195403 4.0685e-20)
(0.317634 -0.0145138 -3.04421e-20)
(0.404752 -0.00527579 -1.24999e-19)
(0.489024 0.00703956 -9.81089e-20)
(0.569921 0.0214588 -1.98629e-20)
(0.647005 0.0371789 -1.78883e-19)
(0.719928 0.0535538 -1.14154e-20)
(0.788427 0.0700638 -3.41227e-20)
(0.852316 0.0862941 -9.35899e-20)
(0.911478 0.10192 -2.09827e-20)
(0.965857 0.116697 -7.3145e-20)
(1.01544 0.130447 -1.23269e-19)
(1.06027 0.143054 1.27198e-19)
(1.10039 0.154456 1.74011e-20)
(1.13588 0.164644 3.47438e-20)
(1.1668 0.173628 -1.48765e-19)
(1.19318 0.181379 -4.22956e-21)
(1.215 0.188107 -2.68844e-19)
(0.0513645 -0.007216 1.04847e-19)
(0.150995 -0.0152423 7.46085e-20)
(0.248745 -0.0136391 -1.22042e-19)
(0.343717 -0.00600301 1.92067e-19)
(0.435296 0.0057697 -2.16771e-20)
(0.522986 0.0204634 7.30439e-20)
(0.606353 0.037045 2.57979e-20)
(0.685046 0.0546716 9.22896e-20)
(0.758799 0.0726745 -7.33164e-20)
(0.82743 0.0905255 2.49735e-20)
(0.890837 0.107813 -2.40899e-20)
(0.948985 0.124225 -1.06373e-20)
(1.0019 0.139537 2.07363e-20)
(1.04965 0.153595 -3.85204e-20)
(1.09236 0.166311 -1.19173e-20)
(1.13014 0.177653 -3.66553e-20)
(1.16314 0.187637 -5.98073e-20)
(1.19148 0.196305 3.89901e-20)
(1.21527 0.203689 -5.28358e-20)
(1.23453 0.209997 2.68097e-19)
(0.0565338 -0.00582882 -5.10553e-20)
(0.164638 -0.0109426 -1.54956e-19)
(0.269185 -0.00632705 -1.97916e-20)
(0.369559 0.00424865 -6.51699e-21)
(0.465316 0.0187836 -7.14518e-20)
(0.55609 0.0359933 -1.19225e-19)
(0.64156 0.0547973 3.95405e-20)
(0.721478 0.0743247 -5.52105e-20)
(0.795676 0.0938951 -6.28091e-20)
(0.86407 0.112983 3.57611e-20)
(0.926652 0.131189 -2.73378e-20)
(0.98348 0.148224 -5.63555e-20)
(1.03467 0.16389 -2.04518e-21)
(1.08039 0.178066 3.91412e-20)
(1.12081 0.190697 -4.02412e-20)
(1.15616 0.201782 5.63817e-20)
(1.18663 0.211369 1.5429e-20)
(1.21243 0.219534 3.85733e-20)
(1.2337 0.226364 7.45986e-20)
(1.25054 0.232057 -7.43482e-20)
(0.0617367 -0.00406275 4.77289e-20)
(0.178243 -0.00566341 -3.73774e-21)
(0.289405 0.00240253 2.38441e-20)
(0.394915 0.0162258 -3.18099e-20)
(0.494527 0.0337207 3.35181e-21)
(0.588022 0.0535493 1.14177e-19)
(0.675211 0.0745986 -7.56984e-20)
(0.755964 0.0959833 3.31503e-20)
(0.830231 0.117025 3.00026e-20)
(0.898035 0.137212 -8.44983e-20)
(0.959475 0.15617 8.10024e-20)
(1.01471 0.17364 9.37804e-22)
(1.06396 0.189462 -5.88478e-20)
(1.10747 0.203552 7.17114e-20)
(1.14552 0.215895 -2.86355e-20)
(1.17838 0.226528 2.20623e-20)
(1.20634 0.23553 -2.49988e-20)
(1.22965 0.243013 -1.01518e-20)
(1.24852 0.249119 -8.67874e-20)
(1.26307 0.254025 3.07998e-20)
(0.0669245 -0.00191021 -1.52043e-20)
(0.191681 0.000600239 4.52561e-20)
(0.309209 0.0125368 7.38852e-21)
(0.41954 0.0298878 3.00443e-20)
(0.522645 0.0505065 1.47812e-20)
(0.618474 0.0730201 7.06202e-21)
(0.706985 0.0962999 4.04565e-20)
(0.788189 0.119463 -4.76583e-21)
(0.862159 0.141846 1.87858e-20)
(0.929044 0.162966 3.06345e-20)
(0.989058 0.182485 1.51529e-20)
(1.04247 0.200186 1.10908e-20)
(1.0896 0.215953 4.54613e-20)
(1.13079 0.229749 -4.43098e-20)
(1.16639 0.241602 9.62816e-21)
(1.19677 0.251592 -8.99326e-21)
(1.22226 0.259831 1.41688e-20)
(1.24318 0.266469 1.19124e-20)
(1.25977 0.271702 2.46505e-20)
(1.27223 0.275678 1.17121e-21)
(0.0720455 0.000631152 9.24657e-21)
(0.204815 0.00783937 8.74234e-21)
(0.328397 0.0240421 -1.22593e-20)
(0.443184 0.0451685 7.77252e-21)
(0.549389 0.0690383 4.50451e-21)
(0.647146 0.0942648 -1.43264e-20)
(0.736581 0.119724 4.85256e-21)
(0.817856 0.144551 9.68454e-22)
(0.891186 0.168117 8.7638e-21)
(0.956852 0.18998 -2.41786e-20)
(1.01519 0.209852 -1.39681e-22)
(1.06659 0.227567 6.96725e-21)
(1.11146 0.243064 -5.60028e-21)
(1.15026 0.256357 5.79711e-21)
(1.1834 0.267526 1.52482e-20)
(1.21133 0.276692 -8.70247e-21)
(1.23444 0.284007 2.48484e-21)
(1.25309 0.289658 9.5723e-21)
(1.26758 0.29389 -1.57857e-20)
(1.27812 0.29682 8.85268e-21)
(0.0770458 0.00355804 2.38603e-20)
(0.217506 0.0160303 -1.40733e-20)
(0.346766 0.0368637 1.67985e-20)
(0.465602 0.0619763 -1.2708e-20)
(0.574485 0.0891853 -5.87406e-21)
(0.673753 0.117115 1.8464e-21)
(0.763716 0.144665 -6.08512e-21)
(0.844699 0.171014 2.23857e-20)
(0.91707 0.195579 -1.92272e-20)
(0.981251 0.217977 4.66481e-21)
(1.03771 0.237981 -3.47201e-21)
(1.08694 0.25549 -2.35361e-20)
(1.12948 0.270502 2.317e-20)
(1.16585 0.283092 8.94622e-21)
(1.19656 0.293392 -8.99663e-21)
(1.22211 0.30157 2.12093e-20)
(1.24295 0.307817 -3.62509e-22)
(1.25949 0.31236 -2.06296e-20)
(1.27206 0.315489 1.52627e-20)
(1.2809 0.317284 5.40369e-21)
(0.0818698 0.00686112 -8.58048e-21)
(0.229614 0.0251341 2.49686e-20)
(0.364116 0.0509254 2.95191e-20)
(0.486553 0.0801946 -1.44673e-20)
(0.597672 0.110791 2.53351e-20)
(0.698031 0.141375 4.17946e-20)
(0.788134 0.170898 -2.54088e-21)
(0.868482 0.198596 -8.02085e-21)
(0.939607 0.223958 3.89529e-20)
(1.00207 0.246671 1.95913e-20)
(1.05648 0.266581 -3.78461e-21)
(1.10345 0.283662 3.06098e-20)
(1.14361 0.297982 -3.36854e-20)
(1.17756 0.309679 5.27194e-20)
(1.20591 0.318941 -8.91627e-21)
(1.2292 0.325987 2.55267e-20)
(1.24792 0.331045 4.50798e-21)
(1.26253 0.33438 1.8242e-20)
(1.27336 0.336327 -1.74895e-20)
(1.28071 0.336926 4.76372e-21)
(0.0864605 0.0105246 -1.25886e-20)
(0.240999 0.035096 3.03091e-20)
(0.380251 0.0661292 2.26437e-20)
(0.50581 0.0996819 -3.57804e-21)
(0.618708 0.133672 3.8344e-20)
(0.719737 0.166827 -3.1185e-20)
(0.809607 0.198173 -3.1212e-21)
(0.889006 0.227029 2.79621e-20)
(0.958631 0.252968 8.63305e-21)
(1.0192 0.275767 1.35002e-20)