1.275 	2.15223e-18 	-2.76991e-20 	-0.0344889 	-0.000440538 	-1.89895e-22
1.825 	2.15223e-18 	-1.39322e-20 	-0.0095119 	-0.00275955 	1.6728e-21
2.375 	2.15223e-18 	-2.66896e-23 	0.11516 	-0.00323493 	-6.97634e-22
