1.45 	0 	0 	0.151047 	-0.012891 	2.9391e-21
2.35 	0 	0 	0.460677 	-0.013522 	-6.63101e-22
