1.45 	0 	0 	-0.0016369 	-0.00312692 	3.97274e-21
2.35 	0 	0 	0.0856534 	-0.00747427 	2.30045e-21
