1.45 	0 	0 	-0.291459
2.35 	0 	0 	-0.126734
