1.275 	2.15223e-18 	-2.76991e-20 	-0.0342139 	-0.00044956 	-1.96742e-22
1.825 	2.15223e-18 	-1.39322e-20 	-0.0090128 	-0.00276949 	1.76137e-21
2.375 	2.15223e-18 	-2.66896e-23 	0.116595 	-0.00324879 	-7.35289e-22
