1.45 	0 	0 	-0.00808204 	-0.00257166 	3.78726e-21
2.35 	0 	0 	0.0614054 	-0.00663411 	2.29239e-21
