1.45 	0 	0 	-0.00808332 	-0.0025716 	3.78714e-21
2.35 	0 	0 	0.0614033 	-0.00663401 	2.29222e-21
