1.45 	0 	0 	-0.290447
2.35 	0 	0 	-0.1263
