1.45 	0 	0 	-0.00583473 	-0.002725 	3.92744e-21
2.35 	0 	0 	0.0681204 	-0.00682675 	2.44538e-21
