1.275 	2.15223e-18 	-2.76991e-20 	0.00432577 	-0.00390231 	-1.88914e-22
1.825 	2.15223e-18 	-1.39322e-20 	0.170675 	-0.00822801 	8.31056e-22
2.375 	2.15223e-18 	-2.66896e-23 	0.453678 	-0.00816687 	-2.52076e-22
