1.45 	0 	0 	-0.292927
2.35 	0 	0 	-0.128131
