1.45 	0 	0 	-0.00793466 	-0.00257882 	3.80207e-21
2.35 	0 	0 	0.0617227 	-0.00664437 	2.31308e-21
