1.45 	0 	0 	0.274637 	-0.0170442 	2.27182e-21
2.35 	0 	0 	0.603886 	-0.0125871 	-9.88598e-22
