1.275 	2.15223e-18 	-2.76991e-20 	-0.0344444 	-0.000434721 	-1.91589e-22
1.825 	2.15223e-18 	-1.39322e-20 	-0.00942995 	-0.00275896 	1.69502e-21
2.375 	2.15223e-18 	-2.66896e-23 	0.115406 	-0.00324916 	-7.07111e-22
