/*--------------------------------*- C++ -*----------------------------------*\
  =========                 |
  \\      /  F ield         | OpenFOAM: The Open Source CFD Toolbox
   \\    /   O peration     | Website:  https://openfoam.org
    \\  /    A nd           | Version:  6.0
     \\/     M anipulation  |
\*---------------------------------------------------------------------------*/
FoamFile
{
    version     2.0;
    format      ascii;
    class       volScalarField;
    location    "0.3";
    object      p;
}
// * * * * * * * * * * * * * * * * * * * * * * * * * * * * * * * * * * * * * //

dimensions      [0 2 -2 0 0 0 0];

internalField   nonuniform List<scalar> 
200
(
1.5236e-06
-0.0182292
-0.0267184
-0.0194347
0.00218411
0.0355041
0.0779354
0.12738
0.182377
0.242001
0.305621
0.372575
0.441737
0.510994
0.576712
0.633464
0.674517
0.693394
0.686972
0.664348
0.018372
-0.00132566
-0.00680583
0.00226917
0.0229713
0.0536513
0.0927241
0.138661
0.190198
0.246334
0.306211
0.368913
0.433173
0.496998
0.557279
0.609608
0.648722
0.669381
0.666471
0.642008
0.0277155
0.00155622
-0.00385253
0.00685683
0.0281934
0.0585311
0.0966368
0.141212
0.191098
0.245312
0.302989
0.363274
0.425108
0.486914
0.546182
0.599116
0.640823
0.665413
0.663708
0.631615
0.0159947
-0.0159131
-0.0202628
-0.006219
0.0180483
0.0505802
0.0901621
0.135517
0.185524
0.239267
0.296028
0.355231
0.4163
0.478372
0.539785
0.597456
0.646596
0.679857
0.682925
0.645286
-0.0261108
-0.0589999
-0.0571781
-0.0355064
-0.00473465
0.0329678
0.076428
0.124421
0.17593
0.23021
0.28681
0.345586
0.406633
0.470059
0.535442
0.600972
0.662558
0.711688
0.728421
0.693247
-0.111203
-0.134611
-0.116215
-0.079421
-0.036916
0.00956395
0.0592958
0.111457
0.16543
0.220864
0.277747
0.33649
0.397969
0.463435
0.534092
0.6102
0.68963
0.764167
0.80924
0.792931
-0.260492
-0.250022
-0.196034
-0.13293
-0.0720789
-0.0132109
0.044447
0.101348
0.157867
0.2144
0.271559
0.330386
0.392564
0.46055
0.537495
0.62665
0.729619
0.841334
0.937753
0.974155
-0.523004
-0.412213
-0.287311
-0.184156
-0.0991581
-0.0262746
0.0386968
0.0989484
0.156624
0.21317
0.269875
0.328348
0.390965
0.461344
0.544832
0.648675
0.780346
0.943356
1.13179
1.30053
-1.03737
-0.621062
-0.350519
-0.198187
-0.0939932
-0.014294
0.0511575
0.109319
0.164223
0.21802
0.2722
0.328426
0.389228
0.458829
0.54442
0.657735
0.815261
1.04287
1.40699
1.92653
-1.93852
-0.817646
-0.313347
-0.129259
-0.0327595
0.0334884
0.0858208
0.133215
0.179913
0.227408
0.276308
0.327369
0.382212
0.444236
0.520368
0.624467
0.783373
1.06349
1.68559
2.92266
)
;

boundaryField
{
    movingWall
    {
        type            zeroGradient;
    }
    fixedWalls
    {
        type            zeroGradient;
    }
    frontAndBack
    {
        type            empty;
    }
}


// ************************************************************************* //
