/*--------------------------------*- C++ -*----------------------------------*\
  =========                 |
  \\      /  F ield         | OpenFOAM: The Open Source CFD Toolbox
   \\    /   O peration     | Website:  https://openfoam.org
    \\  /    A nd           | Version:  6.0
     \\/     M anipulation  |
\*---------------------------------------------------------------------------*/
FoamFile
{
    version     2.0;
    format      ascii;
    class       volScalarField;
    location    "7.4";
    object      p;
}
// * * * * * * * * * * * * * * * * * * * * * * * * * * * * * * * * * * * * * //

dimensions      [0 2 -2 0 0 0 0];

internalField   nonuniform List<scalar> 
34500
(
1.00567
1.00568
1.0055
1.00517
1.00473
1.00422
1.00366
1.00308
1.00251
1.00196
1.00145
1.00102
1.00064
1.00038
1.00024
1.00568
1.00572
1.00559
1.00533
1.00496
1.00452
1.00401
1.00347
1.0029
1.00233
1.00177
1.00128
1.00081
1.0005
1.00028
1.00568
1.00571
1.00555
1.00526
1.00485
1.00437
1.00382
1.00326
1.00268
1.00211
1.00157
1.0011
1.00068
1.00041
1.00021
1.00568
1.0057
1.00553
1.00521
1.00478
1.00427
1.0037
1.00312
1.00253
1.00197
1.00145
1.001
1.00061
1.00038
1.00021
1.00569
1.00571
1.00555
1.00524
1.00481
1.00431
1.00374
1.00316
1.00257
1.00201
1.00149
1.00104
1.00065
1.00041
1.00023
1.0057
1.00573
1.00557
1.00528
1.00486
1.00437
1.00382
1.00324
1.00265
1.00209
1.00155
1.00109
1.00069
1.00043
1.00024
1.00571
1.00574
1.00559
1.0053
1.0049
1.00441
1.00386
1.00328
1.00269
1.00212
1.00158
1.00111
1.0007
1.00043
1.00023
1.00572
1.00575
1.0056
1.00532
1.00492
1.00443
1.00388
1.0033
1.00271
1.00213
1.00159
1.00111
1.00069
1.00042
1.00022
1.00573
1.00576
1.00562
1.00533
1.00493
1.00445
1.0039
1.00332
1.00272
1.00214
1.00159
1.00111
1.00069
1.00041
1.0002
1.00574
1.00578
1.00563
1.00535
1.00495
1.00447
1.00391
1.00333
1.00273
1.00215
1.0016
1.00111
1.00068
1.0004
1.00019
1.00575
1.00579
1.00565
1.00537
1.00497
1.00448
1.00392
1.00334
1.00274
1.00215
1.00159
1.0011
1.00067
1.00038
1.00017
1.00577
1.00581
1.00566
1.00538
1.00498
1.00449
1.00394
1.00335
1.00274
1.00215
1.00159
1.0011
1.00066
1.00037
1.00015
1.00578
1.00582
1.00568
1.0054
1.005
1.00451
1.00395
1.00336
1.00275
1.00216
1.00159
1.00109
1.00066
1.00036
1.00014
1.0058
1.00584
1.0057
1.00543
1.00503
1.00454
1.00397
1.00338
1.00276
1.00217
1.0016
1.0011
1.00065
1.00035
1.00012
1.00582
1.00586
1.00573
1.00545
1.00505
1.00456
1.004
1.0034
1.00278
1.00218
1.00161
1.0011
1.00065
1.00033
1.0001
1.00584
1.00588
1.00575
1.00548
1.00508
1.00459
1.00403
1.00343
1.00281
1.0022
1.00162
1.0011
1.00065
1.00032
1.00007
1.00586
1.00591
1.00577
1.0055
1.00511
1.00462
1.00406
1.00345
1.00283
1.00221
1.00163
1.0011
1.00064
1.0003
1.00005
1.00588
1.00593
1.0058
1.00553
1.00514
1.00465
1.00408
1.00347
1.00284
1.00222
1.00163
1.0011
1.00063
1.00028
1.00002
1.00591
1.00596
1.00583
1.00556
1.00516
1.00467
1.0041
1.00349
1.00285
1.00223
1.00163
1.00109
1.00062
1.00026
0.999998
1.00593
1.00598
1.00585
1.00558
1.00519
1.00469
1.00412
1.00351
1.00287
1.00223
1.00163
1.00108
1.0006
1.00024
0.999971
1.00596
1.00601
1.00588
1.00561
1.00522
1.00472
1.00414
1.00352
1.00288
1.00224
1.00163
1.00107
1.00059
1.00022
0.999945
1.00599
1.00604
1.00591
1.00564
1.00524
1.00474
1.00417
1.00354
1.00289
1.00224
1.00163
1.00107
1.00058
1.0002
0.999918
1.00601
1.00607
1.00594
1.00567
1.00528
1.00477
1.00419
1.00356
1.0029
1.00225
1.00163
1.00106
1.00057
1.00018
0.999891
1.00604
1.0061
1.00598
1.00571
1.00531
1.00481
1.00422
1.00358
1.00292
1.00226
1.00163
1.00106
1.00055
1.00016
0.999861
1.00608
1.00614
1.00601
1.00574
1.00534
1.00484
1.00425
1.00361
1.00294
1.00227
1.00164
1.00106
1.00054
1.00014
0.999831
1.00611
1.00617
1.00605
1.00578
1.00538
1.00487
1.00428
1.00363
1.00296
1.00228
1.00164
1.00105
1.00053
1.00011
0.999799
1.00614
1.00621
1.00608
1.00582
1.00542
1.00491
1.00431
1.00366
1.00298
1.00229
1.00164
1.00104
1.00051
1.00009
0.999766
1.00618
1.00624
1.00612
1.00586
1.00545
1.00494
1.00434
1.00368
1.00299
1.0023
1.00164
1.00103
1.00049
1.00006
0.999732
1.00622
1.00628
1.00616
1.00589
1.00549
1.00497
1.00437
1.0037
1.003
1.00231
1.00163
1.00102
1.00047
1.00003
0.999697
1.00625
1.00632
1.0062
1.00593
1.00553
1.00501
1.00439
1.00372
1.00302
1.00231
1.00163
1.001
1.00045
1
0.999662
1.00629
1.00636
1.00624
1.00597
1.00556
1.00504
1.00442
1.00374
1.00303
1.00231
1.00162
1.00099
1.00043
0.999976
0.999627
1.00634
1.00641
1.00628
1.00601
1.0056
1.00507
1.00445
1.00376
1.00304
1.00232
1.00162
1.00098
1.00041
0.999946
0.99959
1.00638
1.00645
1.00633
1.00606
1.00564
1.00511
1.00448
1.00379
1.00306
1.00232
1.00162
1.00096
1.00039
0.999917
0.999553
1.00642
1.00649
1.00637
1.0061
1.00568
1.00515
1.00451
1.00381
1.00307
1.00233
1.00161
1.00095
1.00036
0.999886
0.999514
1.00647
1.00654
1.00642
1.00615
1.00573
1.00518
1.00454
1.00383
1.00309
1.00234
1.00161
1.00094
1.00034
0.999853
0.999474
1.00651
1.00659
1.00647
1.00619
1.00577
1.00522
1.00458
1.00386
1.00311
1.00234
1.00161
1.00092
1.00032
0.99982
0.999433
1.00656
1.00664
1.00652
1.00624
1.00582
1.00527
1.00461
1.00389
1.00312
1.00235
1.0016
1.00091
1.00029
0.999785
0.999391
1.00661
1.00669
1.00657
1.00629
1.00587
1.00531
1.00465
1.00391
1.00314
1.00235
1.00159
1.00089
1.00026
0.99975
0.999348
1.00666
1.00675
1.00662
1.00635
1.00591
1.00535
1.00468
1.00394
1.00315
1.00236
1.00159
1.00087
1.00023
0.999713
0.999304
1.00672
1.0068
1.00668
1.0064
1.00596
1.00539
1.00472
1.00396
1.00317
1.00236
1.00158
1.00085
1.00021
0.999675
0.999258
1.00677
1.00686
1.00673
1.00645
1.00601
1.00544
1.00475
1.00399
1.00318
1.00237
1.00157
1.00084
1.00018
0.999637
0.999212
1.00683
1.00691
1.00679
1.00651
1.00606
1.00548
1.00479
1.00402
1.0032
1.00237
1.00156
1.00082
1.00015
0.999597
0.999164
1.00688
1.00697
1.00685
1.00656
1.00612
1.00553
1.00483
1.00405
1.00322
1.00238
1.00156
1.0008
1.00011
0.999556
0.999115
1.00694
1.00703
1.00691
1.00662
1.00617
1.00557
1.00487
1.00407
1.00323
1.00238
1.00155
1.00077
1.00008
0.999514
0.999065
1.007
1.00709
1.00697
1.00668
1.00622
1.00562
1.00491
1.0041
1.00325
1.00238
1.00154
1.00075
1.00005
0.99947
0.999013
1.00707
1.00716
1.00703
1.00674
1.00628
1.00567
1.00494
1.00413
1.00327
1.00239
1.00153
1.00073
1.00001
0.999425
0.99896
1.00713
1.00722
1.0071
1.0068
1.00634
1.00572
1.00499
1.00416
1.00328
1.00239
1.00152
1.00071
0.999978
0.999379
0.998906
1.00719
1.00729
1.00716
1.00686
1.0064
1.00577
1.00503
1.00419
1.0033
1.00239
1.00151
1.00068
0.999941
0.999332
0.998851
1.00726
1.00736
1.00723
1.00693
1.00646
1.00582
1.00507
1.00422
1.00332
1.0024
1.0015
1.00066
0.999903
0.999284
0.998794
1.00733
1.00743
1.0073
1.007
1.00652
1.00588
1.00511
1.00425
1.00333
1.0024
1.00148
1.00063
0.999864
0.999234
0.998736
1.0074
1.0075
1.00737
1.00706
1.00658
1.00593
1.00516
1.00428
1.00335
1.0024
1.00147
1.0006
0.999825
0.999184
0.998676
1.00747
1.00757
1.00744
1.00713
1.00664
1.00599
1.0052
1.00431
1.00337
1.0024
1.00146
1.00058
0.999784
0.999131
0.998614
1.00754
1.00765
1.00752
1.00721
1.00671
1.00604
1.00525
1.00435
1.00339
1.00241
1.00145
1.00055
0.999741
0.999077
0.998551
1.00762
1.00773
1.00759
1.00728
1.00678
1.0061
1.00529
1.00438
1.00341
1.00241
1.00143
1.00052
0.999698
0.999022
0.998486
1.0077
1.00781
1.00767
1.00735
1.00685
1.00616
1.00534
1.00441
1.00342
1.00241
1.00142
1.00049
0.999653
0.998965
0.99842
1.00777
1.00789
1.00775
1.00743
1.00692
1.00622
1.00539
1.00445
1.00344
1.00241
1.0014
1.00046
0.999606
0.998907
0.998352
1.00786
1.00797
1.00783
1.00751
1.00699
1.00628
1.00544
1.00448
1.00346
1.00241
1.00139
1.00042
0.999559
0.998847
0.998282
1.00794
1.00805
1.00792
1.00759
1.00706
1.00635
1.00549
1.00452
1.00348
1.00241
1.00137
1.00039
0.99951
0.998785
0.99821
1.00802
1.00814
1.008
1.00767
1.00713
1.00641
1.00554
1.00456
1.0035
1.00242
1.00135
1.00036
0.999459
0.998722
0.998137
1.00811
1.00823
1.00809
1.00775
1.00721
1.00648
1.00559
1.00459
1.00352
1.00242
1.00133
1.00032
0.999408
0.998657
0.998062
1.0082
1.00832
1.00818
1.00784
1.00729
1.00654
1.00565
1.00463
1.00354
1.00242
1.00132
1.00028
0.999355
0.998591
0.997985
1.00829
1.00841
1.00827
1.00792
1.00737
1.00661
1.0057
1.00467
1.00356
1.00242
1.0013
1.00025
0.9993
0.998523
0.997906
1.00838
1.0085
1.00836
1.00801
1.00745
1.00668
1.00576
1.0047
1.00358
1.00242
1.00128
1.00021
0.999245
0.998453
0.997825
1.00847
1.0086
1.00845
1.0081
1.00753
1.00675
1.00581
1.00474
1.0036
1.00242
1.00126
1.00017
0.999187
0.998381
0.997742
1.00857
1.0087
1.00855
1.00819
1.00761
1.00682
1.00587
1.00478
1.00362
1.00242
1.00123
1.00013
0.999129
0.998308
0.997657
1.00867
1.0088
1.00865
1.00829
1.0077
1.0069
1.00593
1.00482
1.00364
1.00241
1.00121
1.00009
0.999068
0.998232
0.99757
1.00877
1.0089
1.00875
1.00839
1.00779
1.00697
1.00599
1.00487
1.00366
1.00241
1.00119
1.00004
0.999006
0.998155
0.99748
1.00887
1.00901
1.00885
1.00848
1.00788
1.00705
1.00605
1.00491
1.00368
1.00241
1.00117
0.999997
0.998943
0.998076
0.997389
1.00898
1.00911
1.00896
1.00858
1.00797
1.00713
1.00611
1.00495
1.0037
1.00241
1.00114
0.999951
0.998877
0.997994
0.997295
1.00908
1.00922
1.00907
1.00869
1.00806
1.00721
1.00617
1.00499
1.00372
1.00241
1.00112
0.999904
0.99881
0.997911
0.997199
1.00919
1.00934
1.00918
1.00879
1.00816
1.00729
1.00624
1.00504
1.00374
1.00241
1.00109
0.999856
0.998742
0.997826
0.997101
1.0093
1.00945
1.00929
1.0089
1.00825
1.00737
1.0063
1.00508
1.00376
1.0024
1.00106
0.999806
0.998671
0.997738
0.997
1.00942
1.00957
1.0094
1.00901
1.00835
1.00746
1.00637
1.00513
1.00379
1.0024
1.00104
0.999755
0.998599
0.997649
0.996897
1.00953
1.00968
1.00952
1.00912
1.00845
1.00755
1.00644
1.00517
1.00381
1.0024
1.00101
0.999702
0.998525
0.997557
0.996791
1.00965
1.00981
1.00964
1.00923
1.00856
1.00763
1.00651
1.00522
1.00383
1.00239
1.00098
0.999648
0.998449
0.997463
0.996683
1.00977
1.00993
1.00976
1.00935
1.00866
1.00773
1.00658
1.00527
1.00385
1.00239
1.00095
0.999593
0.998371
0.997366
0.996572
1.00989
1.01005
1.00988
1.00947
1.00877
1.00782
1.00665
1.00532
1.00388
1.00239
1.00092
0.999536
0.998291
0.997268
0.996459
1.01002
1.01018
1.01001
1.00959
1.00888
1.00791
1.00673
1.00537
1.0039
1.00238
1.00088
0.999478
0.998209
0.997166
0.996342
1.01015
1.01032
1.01014
1.00971
1.00899
1.00801
1.0068
1.00542
1.00392
1.00238
1.00085
0.999418
0.998125
0.997063
0.996223
1.01028
1.01045
1.01027
1.00983
1.0091
1.0081
1.00688
1.00547
1.00395
1.00237
1.00082
0.999356
0.998039
0.996956
0.996101
1.01041
1.01059
1.0104
1.00996
1.00922
1.0082
1.00696
1.00552
1.00397
1.00237
1.00078
0.999293
0.997951
0.996848
0.995977
1.01055
1.01073
1.01054
1.01009
1.00934
1.00831
1.00703
1.00558
1.00399
1.00236
1.00074
0.999228
0.997861
0.996736
0.995849
1.01069
1.01087
1.01068
1.01023
1.00946
1.00841
1.00712
1.00563
1.00402
1.00235
1.00071
0.999161
0.997768
0.996622
0.995718
1.01083
1.01101
1.01082
1.01036
1.00958
1.00851
1.0072
1.00568
1.00404
1.00235
1.00067
0.999093
0.997673
0.996505
0.995584
1.01097
1.01116
1.01097
1.0105
1.00971
1.00862
1.00728
1.00574
1.00407
1.00234
1.00063
0.999022
0.997575
0.996385
0.995447
1.01112
1.01131
1.01111
1.01064
1.00984
1.00873
1.00737
1.0058
1.00409
1.00233
1.00059
0.99895
0.997475
0.996263
0.995307
1.01127
1.01147
1.01127
1.01079
1.00997
1.00884
1.00745
1.00585
1.00412
1.00232
1.00054
0.998876
0.997373
0.996137
0.995163
1.01142
1.01162
1.01142
1.01094
1.0101
1.00896
1.00754
1.00591
1.00414
1.00231
1.0005
0.9988
0.997268
0.996009
0.995016
1.01158
1.01178
1.01158
1.01109
1.01024
1.00907
1.00763
1.00597
1.00417
1.0023
1.00045
0.998722
0.997161
0.995877
0.994866
1.01174
1.01195
1.01174
1.01124
1.01038
1.00919
1.00772
1.00603
1.00419
1.00229
1.00041
0.998642
0.997051
0.995742
0.994712
1.0119
1.01211
1.0119
1.01139
1.01052
1.00931
1.00782
1.00609
1.00422
1.00228
1.00036
0.998559
0.996938
0.995604
0.994555
1.01207
1.01228
1.01207
1.01155
1.01066
1.00944
1.00791
1.00616
1.00425
1.00227
1.00031
0.998475
0.996823
0.995463
0.994394
1.01224
1.01245
1.01224
1.01172
1.01081
1.00956
1.00801
1.00622
1.00427
1.00225
1.00026
0.998389
0.996704
0.995319
0.994229
1.01241
1.01263
1.01241
1.01188
1.01096
1.00969
1.00811
1.00629
1.0043
1.00224
1.00021
0.9983
0.996583
0.995171
0.994061
1.01258
1.01281
1.01259
1.01205
1.01112
1.00982
1.00821
1.00635
1.00433
1.00223
1.00015
0.998209
0.996459
0.995019
0.993888
1.01276
1.013
1.01277
1.01222
1.01127
1.00995
1.00831
1.00642
1.00435
1.00221
1.0001
0.998115
0.996332
0.994865
0.993712
1.01294
1.01318
1.01295
1.0124
1.01143
1.01009
1.00842
1.00649
1.00438
1.0022
1.00004
0.998019
0.996201
0.994706
0.993531
1.01313
1.01337
1.01314
1.01258
1.0116
1.01023
1.00852
1.00656
1.00441
1.00218
0.999982
0.99792
0.996068
0.994544
0.993347
1.01332
1.01357
1.01333
1.01276
1.01176
1.01037
1.00863
1.00663
1.00443
1.00216
0.999922
0.997819
0.995931
0.994377
0.993158
1.01351
1.01377
1.01353
1.01295
1.01193
1.01051
1.00874
1.0067
1.00446
1.00215
0.999859
0.997715
0.995791
0.994207
0.992965
1.01371
1.01397
1.01373
1.01314
1.0121
1.01066
1.00886
1.00677
1.00449
1.00213
0.999794
0.997609
0.995647
0.994033
0.992767
1.01391
1.01418
1.01393
1.01334
1.01228
1.01081
1.00897
1.00684
1.00452
1.00211
0.999728
0.997499
0.9955
0.993855
0.992565
1.01412
1.01439
1.01414
1.01353
1.01246
1.01096
1.00909
1.00692
1.00454
1.00209
0.999659
0.997387
0.995349
0.993673
0.992359
1.01432
1.0146
1.01435
1.01374
1.01264
1.01112
1.00921
1.00699
1.00457
1.00206
0.999589
0.997272
0.995194
0.993487
0.992148
1.01454
1.01482
1.01457
1.01394
1.01283
1.01128
1.00933
1.00707
1.0046
1.00204
0.999516
0.997153
0.995036
0.993296
0.991932
1.01475
1.01504
1.01479
1.01415
1.01302
1.01144
1.00945
1.00715
1.00463
1.00202
0.999441
0.997032
0.994874
0.993101
0.991711
1.01498
1.01527
1.01501
1.01437
1.01322
1.0116
1.00958
1.00722
1.00465
1.00199
0.999364
0.996907
0.994708
0.992901
0.991485
1.0152
1.0155
1.01524
1.01459
1.01342
1.01177
1.0097
1.0073
1.00468
1.00196
0.999284
0.996779
0.994538
0.992696
0.991255
1.01543
1.01574
1.01548
1.01481
1.01362
1.01194
1.00983
1.00739
1.00471
1.00194
0.999202
0.996648
0.994364
0.992487
0.991019
1.01567
1.01598
1.01571
1.01504
1.01382
1.01212
1.00997
1.00747
1.00473
1.00191
0.999117
0.996513
0.994185
0.992273
0.990778
1.01591
1.01623
1.01596
1.01527
1.01404
1.0123
1.0101
1.00755
1.00476
1.00187
0.99903
0.996374
0.994002
0.992054
0.990532
1.01615
1.01648
1.01621
1.01551
1.01425
1.01248
1.01024
1.00764
1.00479
1.00184
0.99894
0.996232
0.993815
0.99183
0.99028
1.0164
1.01674
1.01646
1.01575
1.01447
1.01266
1.01038
1.00772
1.00481
1.00181
0.998847
0.996086
0.993623
0.991601
0.990022
1.01665
1.017
1.01672
1.016
1.01469
1.01285
1.01052
1.00781
1.00484
1.00177
0.998752
0.995936
0.993426
0.991367
0.989759
1.01691
1.01726
1.01698
1.01625
1.01492
1.01304
1.01066
1.0079
1.00487
1.00173
0.998653
0.995782
0.993225
0.991127
0.98949
1.01717
1.01754
1.01725
1.01651
1.01516
1.01324
1.01081
1.00799
1.00489
1.00169
0.998551
0.995624
0.993019
0.990882
0.989216
1.01744
1.01781
1.01752
1.01677
1.01539
1.01344
1.01096
1.00808
1.00492
1.00165
0.998446
0.995462
0.992807
0.990631
0.988935
1.01772
1.0181
1.01781
1.01704
1.01564
1.01364
1.01111
1.00817
1.00494
1.00161
0.998338
0.995295
0.99259
0.990374
0.988648
1.01799
1.01838
1.01809
1.01732
1.01588
1.01385
1.01127
1.00826
1.00497
1.00156
0.998226
0.995123
0.992368
0.990111
0.988355
1.01828
1.01868
1.01838
1.0176
1.01614
1.01406
1.01143
1.00835
1.00499
1.00152
0.998111
0.994948
0.992141
0.989843
0.988055
1.01857
1.01898
1.01868
1.01788
1.01639
1.01428
1.01159
1.00845
1.00501
1.00147
0.997992
0.994767
0.991907
0.989568
0.987749
1.01887
1.01929
1.01898
1.01817
1.01666
1.0145
1.01175
1.00854
1.00503
1.00141
0.997869
0.994581
0.991669
0.989287
0.987436
1.01917
1.0196
1.01929
1.01847
1.01693
1.01472
1.01192
1.00864
1.00506
1.00136
0.997742
0.99439
0.991424
0.988999
0.987117
1.01948
1.01992
1.01961
1.01877
1.0172
1.01495
1.01209
1.00874
1.00508
1.0013
0.997611
0.994194
0.991173
0.988705
0.98679
1.01979
1.02024
1.01993
1.01908
1.01748
1.01518
1.01226
1.00884
1.0051
1.00124
0.997476
0.993992
0.990915
0.988403
0.986457
1.02011
1.02057
1.02026
1.0194
1.01776
1.01542
1.01243
1.00894
1.00511
1.00118
0.997337
0.993785
0.990652
0.988096
0.986116
1.02044
1.02091
1.0206
1.01972
1.01806
1.01566
1.01261
1.00904
1.00513
1.00111
0.997192
0.993572
0.990382
0.98778
0.985768
1.02077
1.02126
1.02094
1.02005
1.01835
1.01591
1.01279
1.00914
1.00515
1.00104
0.997043
0.993353
0.990105
0.987459
0.985413
1.02111
1.02161
1.02129
1.02039
1.01866
1.01616
1.01297
1.00924
1.00516
1.00097
0.996889
0.993128
0.989821
0.987129
0.985049
1.02146
1.02197
1.02165
1.02073
1.01897
1.01642
1.01316
1.00934
1.00517
1.00089
0.99673
0.992896
0.98953
0.986792
0.984679
1.02182
1.02234
1.02202
1.02108
1.01928
1.01668
1.01335
1.00945
1.00519
1.00081
0.996566
0.992658
0.989232
0.986447
0.9843
1.02218
1.02271
1.02239
1.02144
1.0196
1.01695
1.01354
1.00955
1.0052
1.00073
0.996396
0.992414
0.988926
0.986094
0.983913
1.02255
1.0231
1.02277
1.0218
1.01993
1.01722
1.01374
1.00966
1.0052
1.00064
0.99622
0.992162
0.988613
0.985733
0.983518
1.02292
1.02349
1.02316
1.02218
1.02027
1.0175
1.01393
1.00976
1.00521
1.00055
0.996039
0.991904
0.988292
0.985364
0.983115
1.02331
1.02389
1.02356
1.02256
1.02061
1.01778
1.01413
1.00987
1.00521
1.00045
0.995851
0.991637
0.987962
0.984986
0.982703
1.0237
1.0243
1.02397
1.02295
1.02096
1.01807
1.01434
1.00997
1.00521
1.00035
0.995657
0.991364
0.987625
0.984601
0.982283
1.0241
1.02471
1.02438
1.02335
1.02132
1.01836
1.01455
1.01008
1.00521
1.00025
0.995456
0.991082
0.987278
0.984205
0.981853
1.02451
1.02514
1.02481
1.02375
1.02168
1.01866
1.01476
1.01018
1.00521
1.00014
0.995248
0.990792
0.986923
0.983802
0.981415
1.02492
1.02557
1.02524
1.02417
1.02206
1.01896
1.01497
1.01029
1.0052
1.00002
0.995033
0.990494
0.986559
0.983388
0.980967
1.02535
1.02601
1.02568
1.02459
1.02244
1.01927
1.01518
1.0104
1.00519
0.999898
0.994811
0.990188
0.986186
0.982966
0.98051
1.02578
1.02647
1.02613
1.02503
1.02282
1.01959
1.0154
1.0105
1.00518
0.99977
0.994581
0.989872
0.985803
0.982533
0.980044
1.02622
1.02693
1.0266
1.02547
1.02322
1.01991
1.01562
1.01061
1.00516
0.999636
0.994343
0.989547
0.985411
0.982091
0.979568
1.02668
1.0274
1.02707
1.02592
1.02363
1.02024
1.01585
1.01071
1.00514
0.999495
0.994096
0.989212
0.985008
0.981638
0.979081
1.02714
1.02788
1.02755
1.02638
1.02404
1.02057
1.01608
1.01081
1.00512
0.999348
0.993841
0.988869
0.984596
0.981176
0.978586
1.02761
1.02838
1.02804
1.02686
1.02446
1.02091
1.01631
1.01092
1.00509
0.999193
0.993576
0.988514
0.984172
0.980703
0.978079
1.02809
1.02888
1.02855
1.02734
1.02489
1.02126
1.01654
1.01102
1.00505
0.999031
0.993303
0.988149
0.983738
0.980219
0.977562
1.02858
1.02939
1.02906
1.02783
1.02533
1.02161
1.01677
1.01112
1.00501
0.998861
0.993019
0.987774
0.983292
0.979724
0.977035
1.02909
1.02992
1.02959
1.02834
1.02578
1.02197
1.01701
1.01122
1.00497
0.998683
0.992726
0.987387
0.982836
0.979218
0.976497
1.0296
1.03046
1.03013
1.02886
1.02624
1.02233
1.01725
1.01131
1.00492
0.998497
0.992421
0.986989
0.982367
0.9787
0.975947
1.03012
1.03101
1.03068
1.02938
1.02671
1.0227
1.01749
1.01141
1.00486
0.998301
0.992107
0.986579
0.981887
0.97817
0.975387
1.03066
1.03157
1.03124
1.02992
1.02719
1.02308
1.01774
1.0115
1.0048
0.998096
0.99178
0.986157
0.981394
0.977629
0.974815
1.03121
1.03214
1.03182
1.03048
1.02767
1.02346
1.01799
1.01159
1.00473
0.99788
0.991442
0.985722
0.980888
0.977075
0.974232
1.03177
1.03273
1.03241
1.03104
1.02817
1.02386
1.01823
1.01168
1.00465
0.997655
0.991091
0.985274
0.980369
0.976508
0.973636
1.03234
1.03333
1.03301
1.03162
1.02868
1.02425
1.01848
1.01176
1.00457
0.997418
0.990728
0.984813
0.979837
0.975929
0.973029
1.03292
1.03394
1.03363
1.03221
1.0292
1.02466
1.01873
1.01184
1.00448
0.99717
0.990352
0.984337
0.979291
0.975337
0.97241
1.03352
1.03457
1.03426
1.03281
1.02973
1.02507
1.01899
1.01191
1.00437
0.99691
0.989961
0.983848
0.978732
0.974731
0.971778
1.03413
1.03522
1.03491
1.03343
1.03028
1.02549
1.01924
1.01198
1.00426
0.996637
0.989557
0.983343
0.978157
0.974112
0.971133
1.03475
1.03587
1.03557
1.03406
1.03083
1.02591
1.01949
1.01205
1.00414
0.996351
0.989137
0.982824
0.977568
0.973479
0.970476
1.03539
1.03655
1.03625
1.03471
1.03139
1.02634
1.01975
1.0121
1.00401
0.996051
0.988702
0.982288
0.976964
0.972831
0.969806
1.03604
1.03723
1.03694
1.03537
1.03197
1.02678
1.02
1.01216
1.00386
0.995737
0.988252
0.981737
0.976344
0.972169
0.969123
1.03671
1.03794
1.03765
1.03605
1.03256
1.02722
1.02026
1.0122
1.00371
0.995407
0.987784
0.981169
0.975708
0.971492
0.968425
1.03739
1.03866
1.03838
1.03674
1.03316
1.02767
1.02051
1.01224
1.00354
0.995062
0.9873
0.980583
0.975056
0.970801
0.967715
1.03809
1.0394
1.03912
1.03745
1.03378
1.02813
1.02076
1.01227
1.00336
0.994699
0.986797
0.97998
0.974387
0.970093
0.96699
1.0388
1.04015
1.03988
1.03818
1.0344
1.02859
1.02101
1.01229
1.00316
0.99432
0.986276
0.979359
0.973701
0.96937
0.966252
1.03953
1.04093
1.04066
1.03893
1.03504
1.02906
1.02126
1.0123
1.00295
0.993922
0.985735
0.978718
0.972997
0.968631
0.965498
1.04028
1.04172
1.04147
1.03969
1.0357
1.02953
1.0215
1.0123
1.00272
0.993505
0.985175
0.978059
0.972276
0.967877
0.964731
1.04105
1.04253
1.04229
1.04047
1.03636
1.03001
1.02175
1.01229
1.00248
0.993067
0.984593
0.977379
0.971536
0.967105
0.963949
1.04183
1.04336
1.04313
1.04127
1.03704
1.0305
1.02198
1.01226
1.00222
0.992609
0.983991
0.976679
0.970777
0.966317
0.963153
1.04263
1.04422
1.04399
1.04209
1.03774
1.03099
1.02222
1.01223
1.00193
0.992129
0.983366
0.975957
0.969999
0.965511
0.96234
1.04345
1.04509
1.04487
1.04292
1.03845
1.03148
1.02244
1.01217
1.00163
0.991626
0.982718
0.975214
0.969201
0.964688
0.961514
1.0443
1.04598
1.04578
1.04378
1.03917
1.03198
1.02266
1.01211
1.00131
0.991099
0.982046
0.974449
0.968383
0.963848
0.960671
1.04516
1.0469
1.04671
1.04466
1.0399
1.03248
1.02287
1.01202
1.00096
0.990548
0.981349
0.973661
0.967545
0.962989
0.959814
1.04604
1.04784
1.04766
1.04556
1.04066
1.03299
1.02308
1.01192
1.00059
0.98997
0.980627
0.972848
0.966686
0.962113
0.95894
1.04694
1.04881
1.04864
1.04649
1.04142
1.0335
1.02327
1.01179
1.00019
0.989364
0.979878
0.972012
0.965806
0.961218
0.958051
1.04787
1.0498
1.04965
1.04743
1.0422
1.03401
1.02345
1.01165
0.999769
0.988731
0.979101
0.971151
0.964903
0.960304
0.957145
1.04882
1.05081
1.05068
1.0484
1.04299
1.03452
1.02362
1.01148
0.999318
0.988067
0.978297
0.970265
0.963979
0.959372
0.956224
1.0498
1.05186
1.05174
1.0494
1.0438
1.03503
1.02377
1.01129
0.998837
0.987373
0.977463
0.969352
0.963032
0.95842
0.955285
1.0508
1.05293
1.05282
1.05042
1.04462
1.03554
1.02391
1.01107
0.998324
0.986646
0.9766
0.968413
0.962062
0.957449
0.954331
1.05182
1.05402
1.05394
1.05146
1.04546
1.03604
1.02403
1.01082
0.997778
0.985886
0.975705
0.967446
0.961069
0.956457
0.953359
1.05287
1.05515
1.05509
1.05253
1.04631
1.03655
1.02413
1.01055
0.997197
0.985091
0.974778
0.966452
0.960052
0.955447
0.952371
1.05395
1.05631
1.05627
1.05363
1.04717
1.03705
1.02421
1.01024
0.996579
0.98426
0.973818
0.965429
0.959011
0.954415
0.951365
1.05506
1.0575
1.05748
1.05475
1.04805
1.03754
1.02427
1.00989
0.995923
0.983391
0.972824
0.964377
0.957946
0.953364
0.950343
1.05619
1.05872
1.05872
1.0559
1.04893
1.03803
1.0243
1.00951
0.995226
0.982483
0.971795
0.963295
0.956855
0.952291
0.949303
1.05736
1.05998
1.06001
1.05708
1.04983
1.0385
1.0243
1.00909
0.994486
0.981534
0.970731
0.962183
0.95574
0.951198
0.948246
1.05855
1.06127
1.06132
1.05829
1.05074
1.03896
1.02427
1.00863
0.993701
0.980543
0.969629
0.961039
0.954598
0.950083
0.947171
1.05978
1.0626
1.06268
1.05953
1.05167
1.03941
1.02421
1.00812
0.992869
0.979509
0.96849
0.959864
0.953431
0.948948
0.946079
1.06105
1.06397
1.06407
1.0608
1.0526
1.03984
1.02411
1.00756
0.991989
0.978429
0.967312
0.958657
0.952238
0.94779
0.944968
1.06235
1.06538
1.06551
1.0621
1.05353
1.04026
1.02397
1.00696
0.991056
0.977303
0.966094
0.957418
0.951018
0.946612
0.943841
1.06368
1.06682
1.06699
1.06343
1.05448
1.04065
1.02378
1.0063
0.99007
0.976129
0.964836
0.956145
0.949771
0.945411
0.942694
1.06505
1.06831
1.06851
1.06479
1.05543
1.04101
1.02354
1.00558
0.989028
0.974905
0.963537
0.954838
0.948497
0.944188
0.941531
1.06647
1.06985
1.07008
1.06619
1.05638
1.04134
1.02326
1.0048
0.987928
0.973631
0.962195
0.953497
0.947196
0.942943
0.940349
1.06792
1.07143
1.07169
1.06761
1.05733
1.04164
1.02291
1.00396
0.986766
0.972303
0.96081
0.952122
0.945867
0.941677
0.939149
1.06941
1.07307
1.07336
1.06907
1.05828
1.0419
1.02251
1.00305
0.985541
0.970921
0.95938
0.950712
0.94451
0.940388
0.937931
1.07095
1.07475
1.07508
1.07056
1.05922
1.04212
1.02203
1.00206
0.98425
0.969484
0.957906
0.949266
0.943126
0.939076
0.936695
1.07253
1.07649
1.07685
1.07208
1.06015
1.04229
1.02149
1.001
0.982891
0.96799
0.956387
0.947785
0.941713
0.937743
0.93544
1.07417
1.07828
1.07867
1.07363
1.06107
1.0424
1.02087
0.999866
0.981461
0.966438
0.954821
0.946268
0.940273
0.936387
0.934169
1.07585
1.08013
1.08055
1.07521
1.06197
1.04245
1.02016
0.998645
0.979958
0.964826
0.953209
0.944714
0.938804
0.935009
0.932878
1.07758
1.08204
1.0825
1.07682
1.06285
1.04243
1.01937
0.997335
0.97838
0.963153
0.951549
0.943124
0.937307
0.933609
0.931571
1.07936
1.08402
1.0845
1.07845
1.0637
1.04234
1.01848
0.995934
0.976723
0.961419
0.949842
0.941497
0.935782
0.932187
0.930245
1.0812
1.08606
1.08657
1.08011
1.06452
1.04217
1.01749
0.994436
0.974987
0.959621
0.948086
0.939834
0.934229
0.930743
0.928902
1.08311
1.08818
1.0887
1.08179
1.06529
1.0419
1.0164
0.992839
0.973168
0.957759
0.946282
0.938135
0.932648
0.929277
0.927541
1.08507
1.09037
1.0909
1.08349
1.06601
1.04153
1.01518
0.991137
0.971264
0.955832
0.944429
0.936399
0.93104
0.92779
0.926163
1.08709
1.09264
1.09317
1.08521
1.06667
1.04106
1.01385
0.989326
0.969275
0.95384
0.942527
0.934626
0.929404
0.926281
0.924767
1.08918
1.095
1.09551
1.08693
1.06727
1.04046
1.01238
0.987403
0.967197
0.951782
0.940577
0.932818
0.927741
0.924752
0.923355
1.09135
1.09744
1.09793
1.08866
1.06778
1.03973
1.01078
0.985364
0.965029
0.949657
0.938577
0.930974
0.926051
0.923201
0.921926
1.09358
1.09997
1.10041
1.09038
1.0682
1.03885
1.00903
0.983205
0.962771
0.947465
0.93653
0.929095
0.924335
0.921631
0.920481
1.0959
1.10261
1.10297
1.0921
1.06851
1.03782
1.00712
0.980923
0.960421
0.945207
0.934434
0.927181
0.922593
0.92004
0.919019
1.0983
1.10534
1.10561
1.09379
1.06871
1.03662
1.00506
0.978514
0.957977
0.942881
0.932291
0.925233
0.920825
0.918429
0.917542
1.10078
1.10819
1.10832
1.09545
1.06876
1.03524
1.00283
0.975976
0.95544
0.94049
0.930101
0.923251
0.919033
0.9168
0.916049
1.10335
1.11115
1.1111
1.09707
1.06866
1.03367
1.00043
0.973306
0.95281
0.938032
0.927866
0.921237
0.917217
0.915151
0.914542
1.10602
1.11423
1.11395
1.09863
1.06839
1.03188
0.997847
0.970503
0.950085
0.93551
0.925585
0.919191
0.915377
0.913485
0.913019
1.1088
1.11745
1.11687
1.10011
1.06793
1.02987
0.995075
0.967565
0.947268
0.932923
0.923261
0.917115
0.913515
0.911801
0.911482
1.11168
1.1208
1.11985
1.10151
1.06725
1.02762
0.992109
0.964492
0.944358
0.930274
0.920895
0.915009
0.911631
0.910099
0.909931
1.11467
1.12429
1.12289
1.10278
1.06633
1.02511
0.988946
0.961282
0.941357
0.927564
0.918487
0.912874
0.909727
0.908382
0.908367
1.11779
1.12794
1.12597
1.10392
1.06515
1.02234
0.985581
0.957937
0.938266
0.924795
0.916041
0.910713
0.907802
0.906649
0.906789
1.12105
1.13174
1.12909
1.10489
1.06367
1.01929
0.98201
0.954459
0.935089
0.921969
0.913557
0.908526
0.905859
0.9049
0.905199
1.12444
1.13571
1.13222
1.10567
1.06188
1.01594
0.978232
0.950848
0.931826
0.919088
0.911038
0.906315
0.903897
0.903138
0.903596
1.12798
1.13985
1.13537
1.10621
1.05975
1.01228
0.974246
0.947108
0.928483
0.916155
0.908486
0.904082
0.90192
0.901362
0.901982
1.13169
1.14417
1.1385
1.10649
1.05723
1.00831
0.970053
0.943243
0.92506
0.913173
0.905903
0.901828
0.899927
0.899573
0.900356
1.13558
1.14867
1.14158
1.10646
1.05432
1.004
0.965655
0.939257
0.921564
0.910146
0.903292
0.899555
0.897919
0.897772
0.89872
1.13965
1.15336
1.1446
1.10608
1.05096
0.999364
0.961058
0.935155
0.917998
0.907077
0.900656
0.897266
0.895899
0.895961
0.897073
1.14394
1.15824
1.14751
1.1053
1.04714
0.994386
0.956266
0.930945
0.914367
0.903969
0.897998
0.894962
0.893868
0.894139
0.895416
1.14845
1.16331
1.15027
1.10406
1.04283
0.989067
0.951288
0.926633
0.910675
0.900827
0.89532
0.892644
0.891826
0.892308
0.89375
1.1532
1.16856
1.15283
1.10232
1.038
0.983407
0.946134
0.922227
0.90693
0.897656
0.892626
0.890317
0.889776
0.890468
0.892076
1.15822
1.17399
1.15515
1.10002
1.03262
0.977412
0.940817
0.917736
0.903137
0.89446
0.889919
0.887981
0.887718
0.888622
0.890393
1.16354
1.17958
1.15715
1.09709
1.02668
0.971093
0.935349
0.913169
0.899302
0.891243
0.887203
0.885639
0.885655
0.886768
0.888702
1.16917
1.18531
1.15877
1.09347
1.02016
0.964462
0.929747
0.908536
0.895431
0.888012
0.884481
0.883293
0.883588
0.88491
0.887004
1.17515
1.19116
1.15992
1.08909
1.01304
0.957539
0.924029
0.903847
0.891534
0.884771
0.881757
0.880946
0.881518
0.883047
0.885299
1.18151
1.19709
1.16052
1.08391
1.00532
0.950348
0.918214
0.899111
0.887615
0.881526
0.879034
0.8786
0.879447
0.88118
0.883587
1.18828
1.20306
1.16046
1.07784
0.997012
0.942918
0.91232
0.894342
0.883684
0.878284
0.876317
0.876257
0.877376
0.87931
0.88187
1.1955
1.209
1.15963
1.07083
0.988121
0.935284
0.90637
0.889548
0.879747
0.875049
0.873608
0.87392
0.875307
0.877438
0.880146
1.20321
1.21483
1.15792
1.06284
0.978675
0.927485
0.900385
0.884741
0.875815
0.871827
0.870913
0.871591
0.873242
0.875566
0.878417
1.21145
1.22048
1.15521
1.05381
0.968709
0.919564
0.894384
0.879932
0.871894
0.868626
0.868235
0.869273
0.871181
0.873693
0.876683
1.22024
1.22582
1.15134
1.04371
0.958273
0.911568
0.888389
0.875132
0.867995
0.865452
0.865577
0.866968
0.869126
0.87182
0.874944
1.22964
1.23072
1.14619
1.03251
0.947432
0.903546
0.882418
0.870352
0.864127
0.86231
0.862944
0.864678
0.867079
0.869948
0.873199
1.23968
1.23503
1.13961
1.02023
0.936263
0.895547
0.87649
0.865603
0.860298
0.859206
0.860338
0.862406
0.865041
0.868077
0.871449
1.25037
1.23855
1.13144
1.00687
0.924858
0.88762
0.870619
0.860896
0.856519
0.856148
0.857764
0.860153
0.863012
0.866208
0.869694
1.26174
1.24108
1.12154
0.992493