/*--------------------------------*- C++ -*----------------------------------*\
  =========                 |
  \\      /  F ield         | OpenFOAM: The Open Source CFD Toolbox
   \\    /   O peration     | Website:  https://openfoam.org
    \\  /    A nd           | Version:  6.0
     \\/     M anipulation  |
\*---------------------------------------------------------------------------*/
FoamFile
{
    version     2.0;
    format      ascii;
    class       surfaceScalarField;
    location    "7.4";
    object      phi;
}
// * * * * * * * * * * * * * * * * * * * * * * * * * * * * * * * * * * * * * //

dimensions      [0 3 -1 0 0 0 0];

internalField   nonuniform List<scalar> 
68636
(
3.02279e-05
0.00310561
3.05882e-09
6.08427e-05
0.00307075
9.10916e-05
0.00300254
0.000120481
0.0029015
0.000148623
0.00276867
0.000175172
0.0026055
0.000199814
0.00241379
0.000222266
0.00219564
0.000242269
0.00195348
0.000259597
0.00168997
0.000274051
0.00140802
0.000285471
0.00111068
0.000293732
0.000801278
0.000298727
0.000483005
0.00015799
0.000299782
2.99496e-05
0.00307565
6.83929e-09
6.02864e-05
0.00304041
9.02602e-05
0.00297256
0.000119381
0.00287238
0.000147267
0.00274078
0.000173573
0.00257919
0.000197991
0.00238936
0.000220238
0.00217339
0.000240058
0.00193366
0.000257228
0.00167279
0.000271552
0.00139369
0.000282867
0.00109936
0.000291066
0.000793069
0.000295953
0.000478105
0.000156823
0.000297098
2.96736e-05
0.00304597
1.04147e-08
5.97346e-05
0.00301035
8.94359e-05
0.00294286
0.000118292
0.00284352
0.000145924
0.00271315
0.000171991
0.00255312
0.000196187
0.00236517
0.000218231
0.00215135
0.000237872
0.00191401
0.000254885
0.00165578
0.000269079
0.00137949
0.000280289
0.00108815
0.000288415
0.000784946
0.000293298
0.000473228
0.000155526
0.000294611
2.94001e-05
0.00301655
1.39211e-08
5.9188e-05
0.00298056
8.86193e-05
0.00291343
0.000117213
0.00281492
0.000144594
0.00268576
0.000170424
0.00252729
0.0001944
0.00234119
0.000216244
0.0021295
0.000235705
0.00189455
0.000252563
0.00163892
0.000266628
0.00136543
0.000277734
0.00107704
0.000285781
0.000776894
0.000290642
0.00046836
0.000154123
0.000292034
2.91292e-05
0.00298741
1.73195e-08
5.86463e-05
0.00295104
8.78101e-05
0.00288426
0.000116144
0.00278659
0.000143276
0.00265863
0.000168871
0.00250169
0.000192628
0.00231743
0.000214273
0.00210786
0.000233558
0.00187527
0.000250262
0.00162222
0.000264198
0.00135149
0.000275202
0.00106604
0.000283168
0.000768931
0.000287987
0.000463549
0.000152704
0.000289422
2.88606e-05
0.00295852
2.08208e-08
5.81094e-05
0.00292179
8.70081e-05
0.00285536
0.000115085
0.00275851
0.00014197
0.00263175
0.000167332
0.00247633
0.000190873
0.00229389
0.000212321
0.00208641
0.000231429
0.00185616
0.000247981
0.00160566
0.00026179
0.00133768
0.000272694
0.00105513
0.000280581
0.000761041
0.000285353
0.000458773
0.000151232
0.00028682
2.85944e-05
0.00292991
2.44513e-08
5.75773e-05
0.00289281
8.62133e-05
0.00282673
0.000114035
0.00273069
0.000140675
0.00260511
0.000165807
0.0024512
0.000189133
0.00227056
0.000210386
0.00206516
0.00022932
0.00183722
0.000245721
0.00158927
0.000259405
0.001324
0.00027021
0.00104433
0.00027802
0.000753234
0.000282747
0.000454052
0.000149761
0.000284233
2.83305e-05
0.00290155
2.82573e-08
5.70499e-05
0.00286409
8.54255e-05
0.00279835
0.000112994
0.00270312
0.000139392
0.00257871
0.000164295
0.0024263
0.00018741
0.00224745
0.000208469
0.0020441
0.000227231
0.00181846
0.000243482
0.00157301
0.000257041
0.00131044
0.000267748
0.00103362
0.000275485
0.000745496
0.000280166
0.000449368
0.000148258
0.000281665
2.80689e-05
0.00287345
3.2304e-08
5.65271e-05
0.00283563
8.46449e-05
0.00277023
0.000111963
0.00267581
0.000138121
0.00255255
0.000162798
0.00240162
0.000185702
0.00222454
0.00020657
0.00202323
0.000225161
0.00179987
0.000241264
0.00155691
0.000254699
0.00129701
0.000265309
0.00102302
0.000272973
0.000737835
0.000277612
0.000444734
0.000146766
0.000279118
2.78096e-05
0.0028456
3.6553e-08
5.60091e-05
0.00280743
8.38713e-05
0.00274237
0.000110941
0.00264874
0.000136861
0.00252663
0.000161314
0.00237717
0.00018401
0.00220185
0.000204687
0.00200255
0.000223109
0.00178145
0.000239065
0.00154096
0.000252378
0.00128369
0.000262892
0.0010125
0.000270486
0.00073024
0.000275082
0.000440136
0.000145254
0.00027659
2.75525e-05
0.00281801
4.09981e-08
5.54957e-05
0.00277949
8.31046e-05
0.00271476
0.000109928
0.00262191
0.000135613
0.00250094
0.000159843
0.00235294
0.000182333
0.00217936
0.000202822
0.00198206
0.000221076
0.0017632
0.000236887
0.00152515
0.000250078
0.0012705
0.000260497
0.00100208
0.000268022
0.000722717
0.000272576
0.000435586
0.00014376
0.000274081
2.72976e-05
0.00279066
4.55964e-08
5.49868e-05
0.0027518
8.23447e-05
0.00268741
0.000108925
0.00259533
0.000134376
0.00247549
0.000158386
0.00232893
0.000180671
0.00215707
0.000200974
0.00196176
0.000219062
0.00174511
0.000234729
0.00150948
0.000247799
0.00125743
0.000258124
0.000991757
0.000265581
0.00071526
0.000270093
0.000431072
0.000142259
0.000271592
2.7045e-05
0.00276357
5.02697e-08
5.44825e-05
0.00272436
8.15917e-05
0.0026603
0.00010793
0.002569
0.00013315
0.00245027
0.000156942
0.00230514
0.000179024
0.00213499
0.000199143
0.00194164
0.000217066
0.00172718
0.00023259
0.00149396
0.000245541
0.00124448
0.000255772
0.000981528
0.000263162
0.000707873
0.000267633
0.000426604
0.00014078
0.000269123
2.67946e-05
0.00273672
5.49619e-08
5.39827e-05
0.00269718
8.08455e-05
0.00263343
0.000106944
0.0025429
0.000131935
0.00242528
0.000155511
0.00228156
0.000177393
0.00211311
0.000197328
0.00192171
0.000215088
0.00170942
0.000230471
0.00147857
0.000243304
0.00123165
0.000253442
0.000971389
0.000260765
0.000700549
0.000265196
0.000422171
0.000139296
0.000266677
2.65464e-05
0.00271011
5.96006e-08
5.34874e-05
0.00267024
8.0106e-05
0.00260681
0.000105968
0.00251704
0.000130732
0.00240052
0.000154093
0.0022582
0.000175775
0.00209143
0.000195529
0.00190196
0.000213128
0.00169183
0.000228371
0.00146333
0.000241087
0.00121893
0.000251133
0.000961344
0.00025839
0.000693294
0.000262782
0.000417782
0.000137834
0.000264253
2.63004e-05
0.00268375
6.412e-08
5.29965e-05
0.00264354
7.93731e-05
0.00258044
0.000105
0.00249141
0.000129539
0.00237598
0.000152687
0.00223505
0.000174173
0.00206994
0.000193747
0.00188238
0.000211185
0.00167439
0.00022629
0.00144823
0.00023889
0.00120633
0.000248844
0.000951389
0.000256036
0.000686102
0.000260389
0.000413427
0.000136369
0.000261852
2.60566e-05
0.00265762
6.84765e-08
5.251e-05
0.00261709
7.86468e-05
0.0025543
0.000104041
0.00246602
0.000128356
0.00235166
0.000151295
0.00221212
0.000172585
0.00204865
0.000191981
0.00186299
0.000209261
0.00165711
0.000224227
0.00143326
0.000236713
0.00119385
0.000246577
0.000941526
0.000253704
0.000678977
0.000258019
0.000409114
0.000134923
0.000259473
2.5815e-05
0.00263173
7.26326e-08
5.20278e-05
0.00259087
7.79271e-05
0.0025284
0.00010309
0.00244085
0.000127185
0.00232757
0.000149915
0.00218939
0.000171011
0.00202755
0.000190231
0.00184377
0.000207353
0.00163999
0.000222184
0.00141843
0.000234556
0.00118148
0.00024433
0.00093175
0.000251393
0.000671913
0.00025567
0.000404836
0.000133474
0.000257115
2.55756e-05
0.00260608
7.65667e-08
5.155e-05
0.0025649
7.72138e-05
0.00250274
0.000102148
0.00241592
0.000126024
0.00230369
0.000148547
0.00216686
0.000169452
0.00200665
0.000188497
0.00182472
0.000205463
0.00162302
0.000220159
0.00140373
0.000232418
0.00116922
0.000242104
0.000922066
0.000249103
0.000664916
0.000253342
0.0004006
0.000132047
0.000254777
2.53383e-05
0.00258066
8.02756e-08
5.10766e-05
0.00253916
7.6507e-05
0.00247731
0.000101214
0.00239121
0.000124873
0.00228003
0.000147192
0.00214455
0.000167906
0.00198593
0.000186778
0.00180585
0.00020359
0.00160621
0.000218152
0.00138917
0.0002303
0.00115707
0.000239898
0.000912467
0.000246834
0.000657979
0.000251035
0.000396397
0.00013062
0.00025246
2.51033e-05
0.00255548
8.37619e-08
5.06074e-05
0.00251366
7.58065e-05
0.00245211
0.000100289
0.00236673
0.000123733
0.00225659
0.000145849
0.00212243
0.000166375
0.00196541
0.000185075
0.00178715
0.000201734
0.00158955
0.000216164
0.00137474
0.000228202
0.00114503
0.000237712
0.000902957
0.000244586
0.000651107
0.00024875
0.000392235
0.000129214
0.000250162
2.48704e-05
0.00253052
8.70445e-08
5.01425e-05
0.00248838
7.51124e-05
0.00242714
9.93727e-05
0.00234247
0.000122603
0.00223336
0.000144518
0.00210052
0.000164857
0.00194507
0.000183387
0.00176862
0.000199895
0.00157304
0.000214194
0.00136044
0.000226122
0.00113311
0.000235547
0.000893532
0.000242358
0.000644294
0.000246485
0.000388108
0.000127812
0.000247885
2.46396e-05
0.00250579
9.01489e-08
4.96818e-05
0.00246334
7.44246e-05
0.0024024
9.84642e-05
0.00231843
0.000121484
0.00221034
0.000143199
0.0020788
0.000163354
0.00192491
0.000181715
0.00175026
0.000198073
0.00155668
0.000212242
0.00134627
0.000224062
0.00112129
0.000233401
0.000884194
0.000240151
0.000637545
0.000244241
0.00038402
0.00012643
0.000245629
2.4411e-05
0.00248128
9.31106e-08
4.92253e-05
0.00243853
7.3743e-05
0.00237788
9.7564e-05
0.00229461
0.000120374
0.00218753
0.000141892
0.00205728
0.000161863
0.00190494
0.000180058
0.00173206
0.000196267
0.00154047
0.000210307
0.00133223
0.00022202
0.00110957
0.000231274
0.000874939
0.000237964
0.000630854
0.000242018
0.000379965
0.000125051
0.000243394
2.41846e-05
0.002457
9.59687e-08
4.87729e-05
0.00241394
7.30676e-05
0.00235358
9.66719e-05
0.002271
0.000119274
0.00216493
0.000140596
0.00203596
0.000160386
0.00188515
0.000178416
0.00171404
0.000194478
0.00152441
0.00020839
0.00131832
0.000219997
0.00109797
0.000229167
0.000865769
0.000235797
0.000624225
0.000239815
0.00037595
0.000123691
0.00024118
2.39602e-05
0.00243295
9.87678e-08
4.83247e-05
0.00238957
7.23983e-05
0.00232951
9.57878e-05
0.00224761
0.000118185
0.00214253
0.000139313
0.00201483
0.000158923
0.00186554
0.000176788
0.00169617
0.000192704
0.0015085
0.000206491
0.00130453
0.000217992
0.00108647
0.00022708
0.00085668
0.00023365
0.000617655
0.000237632
0.000371967
0.000122334
0.000238986
2.37379e-05
0.00240911
1.01549e-07
4.78806e-05
0.00236543
7.17351e-05
0.00230566
9.49118e-05
0.00222444
0.000117105
0.00212034
0.000138041
0.0019939
0.000157473
0.00184611
0.000175176
0.00167847
0.000190947
0.00149273
0.000204609
0.00129087
0.000216006
0.00107507
0.000225011
0.000847675
0.000231522
0.000611144
0.000235469
0.000368021
0.000120996
0.000236812
2.35177e-05
0.00238548
1.04355e-07
4.74405e-05
0.00234151
7.10778e-05
0.00228202
9.40437e-05
0.00220147
0.000116035
0.00209834
0.000136781
0.00197315
0.000156036
0.00182685
0.000173578
0.00166093
0.000189206
0.0014771
0.000202743
0.00127734
0.000214037
0.00106377
0.000222961
0.000838751
0.000229414
0.000604691
0.000233326
0.000364109
0.000119661
0.000234658
2.32995e-05
0.00236208
1.07215e-07
4.70045e-05
0.0023178
7.04266e-05
0.0022586
9.31834e-05
0.00217872
0.000114975
0.00207655
0.000135532
0.00195259
0.000154612
0.00180777
0.000171994
0.00164354
0.000187481
0.00146161
0.000200895
0.00126392
0.000212087
0.00105258
0.00022093
0.000829908
0.000227325
0.000598297
0.000231202
0.000360233
0.000118344
0.000232523
2.30833e-05
0.00233888
1.10154e-07
4.65724e-05
0.00229431
6.97813e-05
0.00223539
9.2331e-05
0.00215617
0.000113924
0.00205496
0.000134294
0.00193222
0.000153201
0.00178887
0.000170425
0.00162632
0.000185771
0.00144626
0.000199064
0.00125063
0.000210154
0.00104149
0.000218918
0.000821144
0.000225255
0.000591959
0.000229098
0.00035639
0.000117032
0.000230408
2.28692e-05
0.0023159
1.13184e-07
4.61442e-05
0.00227104
6.91418e-05
0.00221239
9.14863e-05
0.00213382
0.000112883
0.00203356
0.000133068
0.00191204
0.000151802
0.00177013
0.000168871
0.00160925
0.000184077
0.00143106
0.00019725
0.00123746
0.00020824
0.0010305
0.000216924
0.00081246
0.000223204
0.000585679
0.000227013
0.000352582
0.000115737
0.000228311
2.2657e-05
0.00229313
1.16304e-07
4.572e-05
0.00224798
6.85081e-05
0.0021896
9.06492e-05
0.00211168
0.000111851
0.00201236
0.000131852
0.00189204
0.000150417
0.00175157
0.00016733
0.00159234
0.000182399
0.00141599
0.000195452
0.0012244
0.000206342
0.00101961
0.000214948
0.000803854
0.000221172
0.000579455
0.000224947
0.000348807
0.000114448
0.000226234
2.24467e-05
0.00227056
1.195e-07
4.52996e-05
0.00222512
6.78802e-05
0.00216702
8.98197e-05
0.00208974
0.000110829
0.00199135
0.000130648
0.00187222
0.000149044
0.00173317
0.000165804
0.00157558
0.000180736
0.00140106
0.00019367
0.00121147
0.000204462
0.00100882
0.00021299
0.000795326
0.000219159
0.000573287
0.0002229
0.000345067
0.000113176
0.000224175
2.22384e-05
0.0022482
1.22749e-07
4.4883e-05
0.00220248
6.7258e-05
0.00214465
8.89977e-05
0.002068
0.000109816
0.00197053
0.000129455
0.00185258
0.000147683
0.00171494
0.000164291
0.00155897
0.000179087
0.00138626
0.000191905
0.00119865
0.000202599
0.000998126
0.000211051
0.000786874
0.000217163
0.000567173
0.000220871
0.000341359
0.000111909
0.000222136
2.20319e-05
0.00222604
1.26014e-07
4.44703e-05
0.00218004
6.66414e-05
0.00212248
8.81832e-05
0.00204646
0.000108812
0.00194991
0.000128272
0.00183312
0.000146335
0.00169688
0.000162792
0.00154251
0.000177454
0.0013716
0.000190156
0.00118595
0.000200754
0.000987529
0.000209129
0.000778499
0.000215187
0.000561116
0.000218861
0.000337685
0.000110658
0.000220115
2.18274e-05
0.00220409
1.29259e-07
4.40613e-05
0.00215781
6.60304e-05
0.00210051
8.73761e-05
0.00202511
0.000107817
0.00192946
0.0001271
0.00181384
0.000144999
0.00167898
0.000161307
0.0015262
0.000175836
0.00135707
0.000188423
0.00117336
0.000198925
0.000977027
0.000207224
0.0007702
0.000213228
0.000555112
0.00021687
0.000334043
0.000109414
0.000218113
2.16247e-05
0.00218233
1.32441e-07
4.3656e-05
0.00213578
6.5425e-05
0.00207874
8.65763e-05
0.00200396
0.000106831
0.00190921
0.000125939
0.00179473
0.000143676
0.00166124
0.000159835
0.00151004
0.000174233
0.00134267
0.000186706
0.00116089
0.000197112
0.00096662
0.000205337
0.000761975
0.000211287
0.000549162
0.000214897
0.000330433
0.000108184
0.000216129
2.14238e-05
0.00216077
1.35522e-07
4.32544e-05
0.00211394
6.48251e-05
0.00205717
8.57838e-05
0.001983
0.000105854
0.00188914
0.000124789
0.00177579
0.000142364
0.00164367
0.000158377
0.00149403
0.000172644
0.0013284
0.000185004
0.00114853
0.000195317
0.000956307
0.000203467
0.000753824
0.000209364
0.000543265
0.000212941
0.000326856
0.000106961
0.000214163
2.12248e-05
0.00213941
1.38467e-07
4.28564e-05
0.00209231
6.42306e-05
0.00203579
8.49985e-05
0.00196224
0.000104886
0.00186925
0.000123649
0.00175703
0.000141065
0.00162625
0.000156932
0.00147816
0.00017107
0.00131427
0.000183318
0.00113628
0.000193538
0.000946087
0.000201614
0.000745747
0.000207458
0.000537422
0.000211004
0.00032331
0.000105753
0.000212214
2.10276e-05
0.00211824
1.41254e-07
4.2462e-05
0.00207088
6.36415e-05
0.00201461
8.42204e-05
0.00194166
0.000103927
0.00184954
0.000122519
0.00173844
0.000139777
0.001609
0.0001555
0.00146244
0.00016951
0.00130026
0.000181647
0.00112414
0.000191775
0.00093596
0.000199779
0.000737743
0.00020557
0.00053163
0.000209084
0.000319796
0.000104551
0.000210284
2.08321e-05
0.00209726
1.43873e-07
4.20713e-05
0.00204964
6.30578e-05
0.00199363
8.34493e-05
0.00192127
0.000102977
0.00183002
0.0001214
0.00172002
0.000138501
0.00159189
0.000154082
0.00144686
0.000167965
0.00128637
0.000179992
0.00111212
0.000190028
0.000925924
0.00019796
0.000729811
0.000203699
0.000525891
0.000207182
0.000316313
0.000103363
0.000208371
2.06385e-05
0.00207648
1.46326e-07
4.1684e-05
0.00202859
6.24794e-05
0.00197283
8.26852e-05
0.00190106
0.000102035
0.00181067
0.000120291
0.00170176
0.000137236
0.00157495
0.000152676
0.00143142
0.000166433
0.00127262
0.000178352
0.0011002
0.000188297
0.000915978
0.000196157
0.00072195
0.000201845
0.000520203
0.000205297
0.000312861
0.000102183
0.000206476
2.04466e-05
0.00205588
1.4863e-07
4.13003e-05
0.00200774
6.19062e-05
0.00195223
8.19281e-05
0.00188104
0.000101102
0.00179149
0.000119192
0.00168367
0.000135983
0.00155816
0.000151283
0.00141612
0.000164916
0.00125898
0.000176726
0.00108839
0.000186582
0.000906123
0.000194372
0.00071416
0.000200008
0.000514566
0.00020343
0.00030944
0.000101016
0.000204598
2.02564e-05
0.00203547
1.50814e-07
4.09201e-05
0.00198708
6.13383e-05
0.00193181
8.11778e-05
0.0018612
0.000100178
0.00177249
0.000118103
0.00166575
0.000134742
0.00154152
0.000149903
0.00140096
0.000163412
0.00124548
0.000175116
0.00107668
0.000184883
0.000896356
0.000192602
0.00070644
0.000198188
0.00050898
0.000201579
0.00030605
9.98566e-05
0.000202737
2.0068e-05
0.00201525
1.52913e-07
4.05433e-05
0.0019666
6.07755e-05
0.00191157
8.04344e-05
0.00184154
9.92613e-05
0.00175367
0.000117023
0.00164798
0.000133512
0.00152503
0.000148536
0.00138593
0.000161922
0.00123209
0.00017352
0.00106508
0.000183199
0.000886677
0.000190849
0.00069879
0.000196385
0.000503444
0.000199745
0.000302689
9.87088e-05
0.000200894
1.98813e-05
0.00199522
1.54971e-07
4.017e-05
0.00194631
6.02178e-05
0.00189153
7.96978e-05
0.00182206
9.83535e-05
0.00173501
0.000115954
0.00163038
0.000132293
0.00150869
0.00014718
0.00137105
0.000160446
0.00121882
0.000171939
0.00105359
0.00018153
0.000877086
0.000189112
0.000691209
0.000194598
0.000497957
0.000197929
0.000299358
9.75698e-05
0.000199067
1.96963e-05
0.00197536
1.57027e-07
3.98e-05
0.00192621
5.96653e-05
0.00187166
7.89679e-05
0.00180276
9.74539e-05
0.00171652
0.000114895
0.00161294
0.000131085
0.0014925
0.000145838
0.00135629
0.000158983
0.00120568
0.000170373
0.0010422
0.000179877
0.000867581
0.00018739
0.000683695
0.000192827
0.00049252
0.000196129
0.000296057
9.64416e-05
0.000197257
1.95129e-05
0.00195569
1.59119e-07
3.94335e-05
0.00190629
5.91178e-05
0.00185198
7.82447e-05
0.00178363
9.65626e-05
0.00169821
0.000113845
0.00159566
0.000129889
0.00147646
0.000144507
0.00134168
0.000157534
0.00119265
0.00016882
0.00103092
0.000178239
0.000858162
0.000185685
0.00067625
0.000191073
0.000487131
0.000194345
0.000292786
9.53227e-05
0.000195463
1.93313e-05
0.0019362
1.61275e-07
3.90703e-05
0.00188655
5.85752e-05
0.00183247
7.75281e-05
0.00176468
9.56794e-05
0.00168005
0.000112805
0.00157853
0.000128703
0.00146056
0.000143189
0.00132719
0.000156098
0.00117974
0.000167282
0.00101973
0.000176616
0.000848828
0.000183995
0.000668871
0.000189335
0.00048179
0.000192578
0.000289543
9.42139e-05
0.000193686
1.91513e-05
0.00191688
1.63516e-07
3.87103e-05
0.00186699
5.80376e-05
0.00181315
7.6818e-05
0.0017459
9.48042e-05
0.00166207
0.000111774
0.00156156
0.000127528
0.0014448
0.000141883
0.00131283
0.000154675
0.00116695
0.000165758
0.00100865
0.000175008
0.000839578
0.00018232
0.000661559
0.000187613
0.000476498
0.000190826
0.00028633
9.31148e-05
0.000191925
1.89729e-05
0.00189775
1.65848e-07
3.83537e-05
0.00184761
5.7505e-05
0.00179399
7.61144e-05
0.00172729
9.39371e-05
0.00164425
0.000110753
0.00154475
0.000126364
0.00142919
0.000140589
0.00129861
0.000153265
0.00115427
0.000164248
0.000997664
0.000173415
0.000830412
0.000180661
0.000654312
0.000185906
0.000471252
0.000189091
0.000283144
9.2025e-05
0.000190181
1.87962e-05
0.00187878
1.68268e-07
3.80004e-05
0.0018284
5.69772e-05
0.00177502
7.54172e-05
0.00170885
9.30779e-05
0.00162659
0.000109741
0.00152808
0.00012521
0.00141372
0.000139307
0.00128451
0.000151868
0.00114171
0.000162752
0.00098678
0.000171836
0.000821328
0.000179017
0.000647131
0.000184215
0.000466054
0.000187372
0.000279988
9.09453e-05
0.000188452
1.86211e-05
0.00185999
1.70761e-07
3.76503e-05
0.00180938
5.64542e-05
0.00175621
7.47264e-05
0.00169057
9.22266e-05
0.00160909
0.000108738
0.00151157
0.000124067
0.00139839
0.000138036
0.00127054
0.000150484
0.00112926
0.00016127
0.000975994
0.000170272
0.000812326
0.000177388
0.000640014
0.00018254
0.000460902
0.000185669
0.000276859
8.9874e-05
0.000186739
1.84477e-05
0.00184137
1.73306e-07
3.73034e-05
0.00179052
5.5936e-05
0.00173758
7.4042e-05
0.00167247
9.1383e-05
0.00159174
0.000107745
0.00149521
0.000122935
0.0013832
0.000136777
0.0012567
0.000149112
0.00111693
0.000159801
0.000965305
0.000168722
0.000803405
0.000175775
0.000632961
0.00018088
0.000455797
0.000183981
0.000273758
8.88129e-05
0.000185042
1.82758e-05
0.00182292
1.75871e-07
3.69596e-05
0.00177184
5.54226e-05
0.00171912
7.33638e-05
0.00165453
9.05472e-05
0.00157456
0.00010676
0.001479
0.000121813
0.00136815
0.00013553
0.00124299
0.000147753
0.0011047
0.000158346
0.000954713
0.000167186
0.000794564
0.000174175
0.000625971
0.000179235
0.000450736
0.000182309
0.000270684
8.77597e-05
0.000183361
1.81055e-05
0.00180463
1.78426e-07
3.66191e-05
0.00175332
5.49139e-05
0.00170082
7.26918e-05
0.00163675
8.9719e-05
0.00155753
0.000105785
0.00146293
0.000120701
0.00135324
0.000134294
0.00122939
0.000146407
0.00109259
0.000156903
0.000944216
0.000165664
0.000785803
0.000172591
0.000619044
0.000177606
0.000445722
0.000180652
0.000267639
8.67171e-05
0.000181695
1.79367e-05
0.00178652
1.80935e-07
3.62816e-05
0.00173498
5.44098e-05
0.0016827
7.20259e-05
0.00161913
8.88984e-05
0.00154066
0.000104819
0.00144701
0.000119599
0.00133846
0.000133069
0.00121592
0.000145073
0.00108059
0.000155475
0.000933814
0.000164157
0.00077712
0.000171021
0.000612179
0.000175991
0.000440751
0.00017901
0.000264619
8.56816e-05
0.000180044
1.77696e-05
0.00176856
1.83369e-07
3.59473e-05
0.0017168
5.39104e-05
0.00166473
7.13662e-05
0.00160168
8.80853e-05
0.00152394
0.000103861
0.00143123
0.000118508
0.00132381
0.000131856
0.00120258
0.000143751
0.00106869
0.000154059
0.000923506
0.000162663
0.000768516
0.000169466
0.000605376
0.000174391
0.000435826
0.000177384
0.000261627
8.4657e-05
0.000178409
1.76039e-05
0.00175077
1.857e-07
3.5616e-05
0.00169879
5.34155e-05
0.00164693
7.07125e-05
0.00158438
8.72797e-05
0.00150737
0.000102912
0.0014156
0.000117426
0.00130929
0.000130653
0.00118935
0.000142441
0.0010569
0.000152656
0.00091329
0.000161183
0.000759989
0.000167925
0.000598634
0.000172806
0.000430944
0.000175772
0.00025866
8.3639e-05
0.000176789
1.74398e-05
0.00173315
1.87911e-07
3.52878e-05
0.00168094
5.29252e-05
0.0016293
7.00648e-05
0.00156724
8.64815e-05
0.00149096
0.000101972
0.00140011
0.000116355
0.00129491
0.000129462
0.00117624
0.000141144
0.00104522
0.000151267
0.000903167
0.000159717
0.000751539
0.000166398
0.000591952
0.000171236
0.000426106
0.000174176
0.000255721
8.26322e-05
0.000175183
1.72772e-05
0.00171568
1.8999e-07
3.49626e-05
0.00166325
5.24394e-05
0.00161182
6.94231e-05
0.00155026
8.56906e-05
0.00147469
0.000101041
0.00138476
0.000115293
0.00128066
0.000128282
0.00116325
0.000139858
0.00103364
0.00014989
0.000893135
0.000158264
0.000743165
0.000164885
0.00058533
0.00016968
0.000421311
0.000172594
0.000252807
8.16313e-05
0.000173593
1.71162e-05
0.00169837
1.91939e-07
3.46404e-05
0.00164573
5.1958e-05
0.0015945
6.87872e-05
0.00153343
8.49069e-05
0.00145857
0.000100118
0.00136955
0.000114241
0.00126654
0.000127112
0.00115038
0.000138584
0.00102217
0.000148525
0.000883194
0.000156824
0.000734866
0.000163386
0.000578768
0.000168138
0.000416559
0.000171026
0.000249919
8.06419e-05
0.000172017
1.69566e-05
0.00168122
1.93766e-07
3.43211e-05
0.00162836
5.1481e-05
0.00157734
6.81572e-05
0.00151675
8.41304e-05
0.0014426
9.92034e-05
0.00135448
0.000113199
0.00125254
0.000125954
0.00113763
0.000137322
0.0010108
0.000147174
0.000873341
0.000155398
0.000726641
0.000161901
0.000572264
0.000166611
0.000411849
0.000169473
0.000247056
7.96578e-05
0.000170455
1.67985e-05
0.00166423
1.9549e-07
3.40048e-05
0.00161116
5.10085e-05
0.00156034
6.75329e-05
0.00150023
8.33611e-05
0.00142677
9.82974e-05
0.00133954
0.000112166
0.00123867
0.000124806
0.00112499
0.000136071
0.000999539
0.000145834
0.000863578
0.000153985
0.000718491
0.00016043
0.000565819
0.000165097
0.000407182
0.000167934
0.00024422
7.86855e-05
0.000168908
1.66418e-05
0.00164739
1.97134e-07
3.36914e-05
0.00159411
5.05402e-05
0.00154349
6.69144e-05
0.00148385
8.25989e-05
0.00141108
9.73997e-05
0.00132474
0.000111143
0.00122493
0.000123668
0.00111246
0.000134832
0.000988375
0.000144507
0.000853902
0.000152585
0.000710413
0.000158972
0.00055943
0.000163598
0.000402555
0.00016641
0.000241407
7.77177e-05
0.000167375
1.64866e-05
0.0016307
1.98729e-07
3.33808e-05
0.00157721
5.00763e-05
0.00152679
6.63016e-05
0.00146763
8.18436e-05
0.00139554
9.65102e-05
0.00131007
0.000110129
0.00121131
0.000122541
0.00110005
0.000133604
0.000977312
0.000143193
0.000844314
0.000151197
0.000702409
0.000157528
0.0005531
0.000162112
0.000397971
0.0001649
0.000238621
7.6762e-05
0.000165857
1.63328e-05
0.00161417
2.00304e-07
3.30732e-05
0.00156047
4.96166e-05
0.00151025
6.56944e-05
0.00145155
8.10953e-05
0.00138014
9.5629e-05
0.00129554
0.000109124
0.00119782
0.000121424
0.00108775
0.000132388
0.000966348
0.00014189
0.000834811
0.000149823
0.000694475
0.000156097
0.000546826
0.00016064
0.000393426
0.000163403
0.000235857
7.58104e-05
0.000164352
1.61804e-05
0.00159779
2.01889e-07
3.27683e-05
0.00154389
4.91612e-05
0.00149386
6.50928e-05
0.00143562
8.03538e-05
0.00136488
9.47558e-05
0.00128114
0.000108129
0.00118444
0.000120318
0.00107556
0.000131183
0.000955483
0.000140599
0.000825395
0.000148461
0.000686614
0.000154679
0.000540608
0.000159182
0.000388923
0.00016192
0.000233119
7.48711e-05
0.000162861
1.60295e-05
0.00158155
2.03507e-07
3.24662e-05
0.00152745
4.87099e-05
0.00147761
6.44967e-05
0.00141983
7.96192e-05
0.00134976
9.38907e-05
0.00126686
0.000107143
0.00117119
0.000119222
0.00106348
0.000129989
0.000944716
0.000139321
0.000816062
0.000147112
0.000678822
0.000153274
0.000534445
0.000157737
0.000384458
0.000160452
0.000230404
7.39351e-05
0.000161385
1.58799e-05
0.00156547
2.05177e-07
3.2167e-05
0.00151116
4.82628e-05
0.00146152
6.39061e-05
0.00140419
7.88914e-05
0.00133477
9.30335e-05
0.00125272
0.000106166
0.00115806
0.000118136
0.00105151
0.000128806
0.000934046
0.000138054
0.000806814
0.000145775
0.000671101
0.000151882
0.000528338
0.000156306
0.000380035
0.000158996
0.000227715
7.30118e-05
0.000159921
1.57317e-05
0.00154953
2.0691e-07
3.18704e-05
0.00149502
4.78198e-05
0.00144557
6.33209e-05
0.00138869
7.81702e-05
0.00131992
9.21843e-05
0.00123871
0.000105198
0.00114504
0.00011706
0.00103965
0.000127634
0.000923472
0.000136799
0.000797649
0.000144451
0.000663448
0.000150503
0.000522285
0.000154888
0.000375649
0.000157554
0.000225047
7.20913e-05
0.000158472
1.55849e-05
0.00153374
2.08708e-07
3.15766e-05
0.00147903
4.73809e-05
0.00142976
6.27411e-05
0.00137333
7.74557e-05
0.00130521
9.13428e-05
0.00122482
0.000104239
0.00113215
0.000115994
0.00102789
0.000126473
0.000912993
0.000135555
0.000788566
0.000143139
0.000655865
0.000149137
0.000516287
0.000153483
0.000371304
0.000156126
0.000222405
7.11837e-05
0.000157035
1.54394e-05
0.00151809
2.10566e-07
3.12855e-05
0.00146319
4.6946e-05
0.0014141
6.21667e-05
0.0013581
7.67478e-05
0.00129063
9.05092e-05
0.00121106
0.000103289
0.00111937
0.000114938
0.00101624
0.000125322
0.000902608
0.000134323
0.000779565
0.000141839
0.000648348
0.000147784
0.000510341
0.00015209
0.000366996
0.00015471
0.000219783
7.02782e-05
0.000155612
1.52952e-05
0.00150258
2.12475e-07
3.09971e-05
0.00144748
4.65151e-05
0.00139859
6.15975e-05
0.00134302
7.60463e-05
0.00127618
8.96832e-05
0.00119742
0.000102347
0.0011067
0.000113891
0.0010047
0.000124182
0.000892318
0.000133102
0.000770644
0.000140551
0.0006409
0.000146443
0.000504449
0.000150711
0.000362728
0.000153308
0.000217188
6.93859e-05
0.000154203
1.51524e-05
0.00148721
2.14414e-07
3.07113e-05
0.00143192
4.60882e-05
0.00138321
6.10336e-05
0.00132808
7.53514e-05
0.00126186
8.88648e-05
0.00118391
0.000101414
0.00109415
0.000112854
0.00099326
0.000123053
0.000882119
0.000131893
0.000761803
0.000139275
0.000633517
0.000145114
0.000498609
0.000149345
0.000358496
0.000151919
0.000214612
6.84953e-05
0.000152806
1.50109e-05
0.00147199
2.16368e-07
3.04282e-05
0.00141651
4.56652e-05
0.00136797
6.04749e-05
0.00131327
7.46629e-05
0.00124767
8.8054e-05
0.00117052
0.00010049
0.00108172
0.000111827
0.000981923
0.000121934
0.000872012
0.000130695
0.000753043
0.000138011
0.000626202
0.000143798
0.000492822
0.000147991
0.000354303
0.000150543
0.000212062
6.76181e-05
0.000151422
1.48707e-05
0.0014569
2.18311e-07
3.01477e-05
0.00140123
4.52461e-05
0.00135287
5.99213e-05
0.00129859
7.39807e-05
0.00123361
8.72507e-05
0.00115725
9.95747e-05
0.00106939
0.000110809
0.000970688
0.000120825
0.000861996
0.000129508
0.000744359
0.000136758
0.000618951
0.000142494
0.000487085
0.00014665
0.000350146
0.000149179
0.000209531
6.67419e-05
0.000150051
1.47318e-05
0.00144194
2.20226e-07
2.98698e-05
0.00138609
4.48309e-05
0.00133791
5.93728e-05
0.00128405
7.33048e-05
0.00121968
8.64548e-05
0.0011441
9.86676e-05
0.00105718
0.000109801
0.000959555
0.000119727
0.00085207
0.000128332
0.000735755
0.000135517
0.000611766
0.000141202
0.000481401
0.000145321
0.000346027
0.000147828
0.000207025
6.58793e-05
0.000148693
1.45942e-05
0.00142713
2.22092e-07
2.95944e-05
0.00137109
4.44195e-05
0.00132309
5.88294e-05
0.00126964
7.26352e-05
0.00120588
8.56662e-05
0.00113107
9.77689e-05
0.00104508
0.000108802
0.000948521
0.000118639
0.000842233
0.000127166
0.000727227
0.000134288
0.000604643
0.000139922
0.000475766
0.000144005
0.000341943
0.00014649
0.000204538
6.50173e-05
0.000147348
1.44578e-05
0.00141245
2.23892e-07
2.93216e-05
0.00135623
4.40119e-05
0.0013084
5.8291e-05
0.00125536
7.19717e-05
0.0011922
8.4885e-05
0.00111815
9.68784e-05
0.00103309
0.000107812
0.000937587
0.000117561
0.000832485
0.000126012
0.000718776
0.00013307
0.000597586
0.000138654
0.000470182
0.0001427
0.000337896
0.000145164
0.000202076
6.4169e-05
0.000146015
1.43227e-05
0.0013979
2.25615e-07
2.90512e-05
0.0013415
4.3608e-05
0.00129384
5.77576e-05
0.00124121
7.13144e-05
0.00117864
8.41109e-05
0.00110536
9.59963e-05
0.0010212
0.000106832
0.000926751
0.000116493
0.000822823
0.000124868
0.000710399
0.000131863
0.00059059
0.000137397
0.000464647
0.000141408
0.000333884
0.00014385
0.000199632
6.33209e-05
0.000144694
1.41889e-05
0.00138348
2.27254e-07
2.87834e-05
0.0013269
4.32079e-05
0.00127942
5.72291e-05
0.00122719
7.06631e-05
0.0011652
8.33441e-05
0.00109267
9.51223e-05
0.00100942
0.00010586
0.000916013
0.000115435
0.000813249
0.000123735
0.000702099