/*--------------------------------*- C++ -*----------------------------------*\
  =========                 |
  \\      /  F ield         | OpenFOAM: The Open Source CFD Toolbox
   \\    /   O peration     | Website:  https://openfoam.org
    \\  /    A nd           | Version:  6.0
     \\/     M anipulation  |
\*---------------------------------------------------------------------------*/
FoamFile
{
    version     2.0;
    format      ascii;
    class       volVectorField;
    location    "7.4";
    object      U;
}
// * * * * * * * * * * * * * * * * * * * * * * * * * * * * * * * * * * * * * //

dimensions      [0 1 -1 0 0 0 0];

internalField   nonuniform List<vector> 
34500
(
(0.999997 4.20751e-06 -4.63256e-17)
(0.999971 -8.85997e-06 -8.13367e-18)
(0.999924 -3.33046e-05 1.42176e-16)
(0.999863 -7.3517e-05 -1.07618e-16)
(0.999796 -0.000131933 3.35324e-17)
(0.999733 -0.000208579 -1.01417e-16)
(0.999682 -0.000299412 -1.00937e-16)
(0.999651 -0.000399624 8.64735e-17)
(0.999645 -0.000498971 1.07196e-16)
(0.999665 -0.000590096 -6.82602e-16)
(0.999709 -0.000661793 -1.03934e-15)
(0.999771 -0.000717247 1.26632e-16)
(0.999846 -0.000735735 4.33262e-16)
(0.999978 -0.000789717 -2.06686e-16)
(0.998935 -0.00130549 7.58063e-17)
(0.999992 1.19782e-05 3.2443e-17)
(0.999947 -1.81144e-05 9.76139e-17)
(0.999864 -6.82613e-05 7.17308e-17)
(0.999757 -0.000145666 -3.02066e-16)
(0.999641 -0.000254875 -5.05615e-16)
(0.999533 -0.000395923 -5.50063e-17)
(0.999449 -0.000561374 2.55361e-16)
(0.9994 -0.000741727 -6.76836e-16)
(0.999399 -0.000917904 -1.78499e-16)
(0.999444 -0.00107509 6.80843e-16)
(0.999534 -0.00119191 1.26075e-15)
(0.999657 -0.00127355 -6.28215e-16)
(0.999788 -0.00127954 -9.82265e-16)
(1.00009 -0.00130675 -3.93604e-16)
(0.999034 -0.00174288 5.17514e-16)
(0.99999 1.94474e-05 1.04664e-17)
(0.999951 -2.27403e-05 -1.22888e-16)
(0.999882 -8.18779e-05 -1.25122e-16)
(0.999795 -0.000162248 4.55453e-16)
(0.999703 -0.000267533 -2.85989e-17)
(0.99962 -0.0003973 -1.63914e-16)
(0.999561 -0.000545332 9.77515e-17)
(0.999532 -0.000703157 3.84305e-16)
(0.999545 -0.000853841 2.42716e-19)
(0.999599 -0.000983487 -3.92551e-16)
(0.99969 -0.00107167 -7.27103e-16)
(0.999813 -0.00112421 4.13004e-16)
(0.999916 -0.001107 2.24314e-16)
(1.00024 -0.00108524 1.63954e-16)
(0.999615 -0.00118851 -2.43129e-16)
(0.999987 2.65773e-05 -1.73527e-17)
(0.999954 -2.81542e-05 -9.02175e-18)
(0.999901 -9.65549e-05 4.8304e-17)
(0.999836 -0.000179982 -3.05241e-16)
(0.999769 -0.000281262 3.72005e-16)
(0.999713 -0.000399286 3.29708e-16)
(0.999677 -0.000529548 -3.99169e-16)
(0.999667 -0.000664799 -4.19562e-16)
(0.999692 -0.000791832 4.34562e-16)
(0.999749 -0.000898844 -4.69983e-16)
(0.999837 -0.000968597 -2.44089e-16)
(0.999953 -0.00100804 -3.84668e-16)
(1.00003 -0.000996187 5.41067e-16)
(1.00032 -0.000970446 -4.78752e-17)
(0.999917 -0.00105533 2.13801e-17)
(0.999981 3.383e-05 -1.70415e-17)
(0.999949 -3.46202e-05 1.53281e-16)
(0.999899 -0.000116624 6.9531e-17)
(0.999839 -0.000212274 1.69675e-16)
(0.999779 -0.00032429 4.67188e-17)
(0.999731 -0.000450625 -1.58141e-16)
(0.999704 -0.000587258 1.02447e-16)
(0.999704 -0.000726071 2.66084e-16)
(0.999737 -0.000855586 -4.1729e-16)
(0.999803 -0.000964092 -2.30729e-16)
(0.999896 -0.00103598 1.00519e-15)
(1.00002 -0.00107787 6.33154e-16)
(1.00009 -0.00107693 -2.89036e-16)
(1.00035 -0.00105076 5.9067e-16)
(1.00007 -0.00113746 -5.85612e-16)
(0.999975 4.15052e-05 1.83499e-17)
(0.999941 -4.07573e-05 -9.47889e-17)
(0.99989 -0.000137406 -1.86277e-16)
(0.999831 -0.000247808 -5.29135e-17)
(0.999772 -0.000374709 1.09373e-16)
(0.999727 -0.000515087 -1.08777e-16)
(0.999705 -0.000664704 1.48071e-16)
(0.999714 -0.00081378 1.31087e-16)
(0.999757 -0.00095129 2.90756e-16)
(0.999834 -0.00106484 -1.00154e-16)
(0.999937 -0.00113953 2.87782e-18)
(1.00008 -0.00118009 -3.88638e-16)
(1.00015 -0.00117811 1.82754e-17)
(1.00038 -0.00113487 -4.6769e-16)
(1.00022 -0.00114802 7.39459e-17)
(0.999967 4.96467e-05 3.25508e-18)
(0.999933 -4.61466e-05 -3.55798e-17)
(0.999883 -0.000156562 -2.90102e-17)
(0.999828 -0.000280068 1.75668e-16)
(0.999774 -0.000419254 -2.20344e-16)
(0.999736 -0.000570384 2.75294e-16)
(0.999722 -0.000729 -6.18841e-16)
(0.999741 -0.000884007 -3.69583e-16)
(0.999794 -0.00102459 -1.51473e-16)
(0.999882 -0.00113794 6.70711e-16)
(0.999995 -0.00121 -7.6742e-16)
(1.00015 -0.00124325 2.9764e-16)
(1.00024 -0.00123322 4.55347e-16)
(1.00044 -0.00116819 -9.56471e-17)
(1.00035 -0.0011116 -1.20415e-16)
(0.999958 5.82388e-05 1.51145e-17)
(0.999924 -5.10518e-05 3.2279e-17)
(0.999878 -0.000174704 2.50204e-17)
(0.999829 -0.000310169 -1.50804e-16)
(0.999782 -0.000459757 3.28707e-16)
(0.999754 -0.00061928 -1.39515e-16)
(0.99975 -0.000784196 2.01417e-16)
(0.999779 -0.000942553 -1.46174e-16)
(0.999843 -0.00108357 3.97274e-16)
(0.999942 -0.00119425 1.77602e-16)
(1.00006 -0.00126145 2.4451e-16)
(1.00022 -0.00128558 -5.6443e-17)
(1.00033 -0.00126607 -5.03773e-16)
(1.0005 -0.00118193 1.13607e-15)
(1.00049 -0.00108024 1.86048e-16)
(0.999948 6.73086e-05 -1.12145e-17)
(0.999914 -5.56701e-05 9.89303e-17)
(0.999872 -0.00019261 1.50747e-16)
(0.99983 -0.000340001 1.11872e-16)
(0.999792 -0.00049977 -4.88434e-16)
(0.999772 -0.000667404 1.40891e-16)
(0.999779 -0.000838267 3.20526e-16)
(0.999819 -0.000999815 7.72005e-16)
(0.999894 -0.00114107 -3.85141e-16)
(1 -0.00124881 8.9975e-17)
(1.00013 -0.00131061 4.48662e-16)
(1.0003 -0.00132503 -3.23374e-16)
(1.00042 -0.00129505 -1.53809e-16)
(1.00058 -0.00119386 -3.80169e-16)
(1.00062 -0.00105821 8.38275e-17)
(0.999936 7.68855e-05 4.06797e-17)
(0.999903 -6.00049e-05 -8.97136e-17)
(0.999865 -0.000210391 8.84949e-18)
(0.999829 -0.000369849 -1.10134e-16)
(0.9998 -0.000539813 4.10442e-16)
(0.999791 -0.000715402 7.95694e-17)
(0.999808 -0.000891854 2.70089e-16)
(0.999859 -0.00105624 -5.72743e-16)
(0.999945 -0.00119733 4.15621e-17)
(1.00007 -0.00130169 -7.86309e-17)
(1.00021 -0.00135754 -1.39559e-16)
(1.00038 -0.00136187 4.40884e-17)
(1.00051 -0.00132095 5.91493e-16)
(1.00067 -0.001205 -8.03031e-16)
(1.00074 -0.00104346 -2.68738e-16)
(0.999923 8.69775e-05 -2.6218e-17)
(0.999891 -6.40389e-05 3.52406e-17)
(0.999857 -0.000227979 -1.47477e-16)
(0.999828 -0.000399545 2.49851e-16)
(0.999808 -0.00057958 -3.61408e-16)
(0.99981 -0.000762741 -3.02932e-16)
(0.999838 -0.000944092 -3.38682e-16)
(0.999901 -0.00111054 3.90961e-17)
(0.999998 -0.00125079 -8.13644e-17)
(1.00013 -0.00135135 -4.24229e-16)
(1.00028 -0.00140124 -7.20587e-16)
(1.00046 -0.0013962 2.85563e-16)
(1.00061 -0.00134556 -3.27991e-16)
(1.00076 -0.00121872 9.05714e-16)
(1.00085 -0.00104014 5.36082e-17)
(0.999908 9.75658e-05 -2.45499e-17)
(0.999878 -6.7789e-05 -1.04205e-16)
(0.999848 -0.000245433 1.50687e-16)
(0.999826 -0.000429246 -2.34071e-16)
(0.999815 -0.000619449 7.68387e-17)
(0.999828 -0.000810129 4.53988e-16)
(0.999868 -0.00099612 5.53683e-17)
(0.999944 -0.00116433 -6.73145e-17)
(1.00005 -0.00130359 1.81453e-16)
(1.00019 -0.00140062 -1.56818e-16)
(1.00035 -0.00144538 -9.50104e-17)
(1.00054 -0.00143262 -6.67275e-17)
(1.0007 -0.00137414 -2.86834e-16)
(1.00085 -0.00123977 -6.20549e-16)
(1.00095 -0.0010487 1.23907e-17)
(0.999892 0.000108619 -2.1762e-18)
(0.999863 -7.12877e-05 1.40459e-16)
(0.999837 -0.000262852 -2.21447e-16)
(0.999822 -0.000459229 8.33777e-17)
(0.99982 -0.000660041 -9.35267e-17)
(0.999844 -0.000858731 -1.54695e-16)
(0.999896 -0.00104979 -3.88781e-17)
(0.999984 -0.00122017 3.64892e-16)
(1.0001 -0.00135896 -6.29965e-16)
(1.00026 -0.00145323 4.20065e-16)
(1.00042 -0.00149395 2.20386e-16)
(1.00062 -0.00147501 1.83943e-16)
(1.00079 -0.00140966 7.48791e-16)
(1.00094 -0.00126893 7.29139e-16)
(1.00106 -0.00106509 5.47507e-16)
(0.999875 0.000120095 8.30157e-18)
(0.999846 -7.45487e-05 5.28625e-17)
(0.999825 -0.000280269 1.76007e-16)
(0.999815 -0.000489588 5.57509e-17)
(0.999823 -0.000701587 1.70577e-16)
(0.999857 -0.000909027 1.67992e-16)
(0.999921 -0.00110593 -1.18426e-17)
(1.00002 -0.00127924 4.92764e-17)
(1.00015 -0.0014183 9.37327e-16)
(1.00031 -0.00151056 -1.13859e-16)
(1.00049 -0.00154793 5.41894e-16)
(1.0007 -0.00152343 -7.38569e-16)
(1.00088 -0.00145083 1.36859e-16)
(1.00104 -0.00130274 -1.34319e-15)
(1.00117 -0.00108364 -6.15246e-16)
(0.999856 0.000131938 9.93771e-18)
(0.999829 -7.75857e-05 -1.1765e-16)
(0.99981 -0.000297649 1.54743e-16)
(0.999807 -0.000520212 -2.24027e-16)
(0.999822 -0.000743871 1.56781e-16)
(0.999866 -0.000960716 2.07122e-17)
(0.999941 -0.0011642 1.94943e-16)
(1.00005 -0.00134113 -2.59906e-16)
(1.0002 -0.00148102 -8.38702e-16)
(1.00037 -0.00157164 2.49161e-16)
(1.00056 -0.00160571 -5.59924e-16)
(1.00077 -0.00157541 1.12755e-16)
(1.00096 -0.00149425 -4.89864e-16)
(1.00113 -0.0013369 2.65395e-16)
(1.00127 -0.00110069 -1.08299e-16)
(0.999835 0.000144084 3.32316e-17)
(0.999809 -8.04133e-05 7.18672e-17)
(0.999794 -0.000314942 -3.58844e-16)
(0.999797 -0.000550912 2.88284e-16)
(0.99982 -0.00078647 -2.79855e-16)
(0.999874 -0.00101308 -3.72831e-16)
(0.99996 -0.00122356 -3.82787e-16)
(1.00008 -0.0014045 3.37467e-16)
(1.00024 -0.00154546 7.18578e-16)
(1.00042 -0.00163439 1.62951e-16)
(1.00062 -0.00166468 9.4661e-17)
(1.00084 -0.00162777 7.00462e-17)
(1.00104 -0.00153659 -7.32373e-16)
(1.00122 -0.00136833 6.43273e-17)
(1.00139 -0.0011149 6.31452e-16)
(0.999813 0.000156459 -8.9641e-17)
(0.999789 -8.30661e-05 -9.23713e-17)
(0.999777 -0.000332117 3.42742e-17)
(0.999786 -0.00058152 -2.64249e-16)
(0.999817 -0.00082897 -1.79604e-17)
(0.99988 -0.00106536 4.81468e-16)
(0.999978 -0.0012829 5.50493e-17)
(1.00011 -0.00146786 3.03962e-16)
(1.00028 -0.00160977 -6.0261e-16)
(1.00048 -0.00169668 -3.09527e-16)
(1.00069 -0.0017225 4.44371e-16)
(1.00092 -0.00167818 -1.48974e-16)
(1.00113 -0.00157601 4.83323e-16)
(1.00132 -0.00139616 7.48705e-16)
(1.0015 -0.00112748 -5.97222e-17)
(0.99979 0.00016899 2.80824e-17)
(0.999767 -8.55863e-05 1.14723e-17)
(0.999759 -0.000349178 1.15583e-16)
(0.999773 -0.000611954 2.25796e-18)
(0.999813 -0.000871117 9.88248e-17)
(0.999887 -0.00111705 -2.89518e-16)
(0.999996 -0.00134137 5.97994e-16)
(1.00014 -0.00153009 -1.53419e-16)
(1.00032 -0.00167264 6.52189e-16)
(1.00053 -0.00175712 -3.41168e-16)
(1.00075 -0.00177792 -5.43179e-16)
(1.00099 -0.00172573 5.24177e-16)
(1.00122 -0.00161242 -8.8357e-16)
(1.00141 -0.00142149 -1.30093e-15)
(1.00161 -0.00114066 -3.28872e-16)
(0.999765 0.000181599 3.12669e-18)
(0.999743 -8.80315e-05 1.9493e-17)
(0.999739 -0.000366169 -3.12051e-17)
(0.99976 -0.000642235 1.5861e-16)
(0.999809 -0.000912877 1.08781e-16)
(0.999893 -0.001168 -4.26545e-17)
(1.00001 -0.00139871 -3.60449e-16)
(1.00017 -0.0015908 -3.47455e-16)
(1.00037 -0.00173367 -2.34845e-16)
(1.00059 -0.00181547 4.32734e-16)
(1.00082 -0.00183106 3.35268e-16)
(1.00107 -0.00177116 -4.9286e-16)
(1.0013 -0.00164737 1.09456e-15)
(1.00151 -0.00144667 1.37079e-15)
(1.00171 -0.00115689 4.62673e-17)
(0.999739 0.000194219 3.57531e-17)
(0.999718 -9.04565e-05 -4.75844e-17)
(0.999718 -0.000383163 2.29362e-16)
(0.999746 -0.000672478 -4.56783e-17)
(0.999804 -0.000954432 -1.7433e-16)
(0.9999 -0.00121847 7.39039e-17)
(1.00003 -0.00145523 -1.29651e-16)
(1.0002 -0.00165042 2.93358e-16)
(1.00041 -0.00179344 7.71106e-17)
(1.00064 -0.00187259 5.39009e-17)
(1.00089 -0.00188323 -2.57124e-16)
(1.00115 -0.00181627 3.41256e-16)
(1.00139 -0.00168307 1.73892e-16)
(1.0016 -0.00147404 1.5529e-16)
(1.00181 -0.00117733 3.9297e-16)
(0.999712 0.000206788 -1.83802e-17)
(0.999692 -9.2918e-05 2.72395e-17)
(0.999696 -0.000400241 -3.71794e-16)
(0.999731 -0.000702845 -2.37857e-16)
(0.999798 -0.000996089 3.29184e-16)
(0.999905 -0.00126896 -8.91134e-17)
(1.00005 -0.00151165 5.2053e-16)
(1.00024 -0.00170989 -1.41318e-16)
(1.00045 -0.00185316 -7.50638e-18)
(1.0007 -0.00192999 -1.49883e-16)
(1.00096 -0.0019362 3.84812e-16)
(1.00123 -0.00186304 -2.42505e-16)
(1.00148 -0.00172143 -7.96954e-16)
(1.0017 -0.00150504 -1.89584e-16)
(1.00191 -0.00120192 -4.48894e-16)
(0.999683 0.000219258 2.47425e-17)
(0.999665 -9.54559e-05 1.12539e-16)
(0.999673 -0.00041747 3.35103e-16)
(0.999714 -0.000733483 2.60061e-16)
(0.999791 -0.00103815 -3.2055e-17)
(0.999908 -0.00131998 -1.30212e-16)
(1.00007 -0.00156875 -5.76247e-16)
(1.00026 -0.00177025 -6.69936e-17)
(1.00049 -0.00191409 -3.42233e-16)
(1.00075 -0.00198907 1.10833e-16)
(1.00102 -0.00199143 -7.0533e-16)
(1.0013 -0.00191275 3.40176e-16)
(1.00156 -0.00176329 1.14811e-15)
(1.00179 -0.00153963 -8.84625e-16)
(1.00201 -0.00122911 5.23286e-16)
(0.999654 0.000231592 -1.9951e-17)
(0.999636 -9.81025e-05 -1.58347e-16)
(0.999648 -0.00043489 -1.91788e-16)
(0.999695 -0.000764477 -9.56502e-17)
(0.999781 -0.0010808 -6.12546e-17)
(0.99991 -0.00137189 8.40903e-17)
(1.00008 -0.00162709 -3.22003e-17)
(1.00029 -0.00183222 -4.42253e-16)
(1.00053 -0.00197704 -1.3016e-16)
(1.00081 -0.00205063 -3.2769e-17)
(1.00109 -0.00204953 6.4199e-16)
(1.00138 -0.00196562 1.07353e-16)
(1.00165 -0.00180826 -9.5455e-16)
(1.00189 -0.00157668 5.06217e-16)
(1.00211 -0.00125713 -1.01291e-16)
(0.999623 0.000243772 1.80223e-17)
(0.999605 -0.000100872 9.31033e-17)
(0.999621 -0.000452509 9.23079e-17)
(0.999675 -0.000795833 1.79509e-16)
(0.999769 -0.00112408 -9.77985e-17)
(0.999909 -0.00142477 -2.75075e-17)
(1.00009 -0.00168678 1.98734e-16)
(1.00032 -0.00189595 2.96945e-16)
(1.00057 -0.00204214 -2.13986e-17)
(1.00086 -0.00211461 -3.58434e-16)
(1.00115 -0.00211015 -2.7548e-16)
(1.00145 -0.00202085 -4.84135e-16)
(1.00173 -0.00185504 2.03033e-17)
(1.00198 -0.00161449 2.62112e-16)
(1.00222 -0.00128431 -1.58343e-16)
(0.999591 0.000255784 -9.63641e-18)
(0.999574 -0.000103774 -5.50962e-17)
(0.999592 -0.000470308 1.40187e-16)
(0.999652 -0.000827486 1.47024e-17)
(0.999755 -0.00116784 -1.24496e-16)
(0.999906 -0.00147842 1.00388e-16)
(1.0001 -0.00174758 -4.79515e-17)
(1.00034 -0.00196112 2.73794e-16)
(1.00061 -0.00210889 5.05836e-16)
(1.00091 -0.00218031 7.85449e-17)
(1.00121 -0.00217227 2.3773e-16)
(1.00152 -0.00207712 2.4191e-16)
(1.00182 -0.00190219 5.96902e-17)
(1.00208 -0.0016517 -5.39404e-16)
(1.00232 -0.00131019 1.30545e-16)
(0.999558 0.000267633 1.29081e-17)
(0.99954 -0.000106809 1.16042e-17)
(0.999562 -0.000488259 -2.86398e-16)
(0.999628 -0.000859339 -1.25111e-16)
(0.99974 -0.00121191 1.75888e-16)
(0.999901 -0.00153251 -2.74543e-17)
(1.00011 -0.001809 1.83607e-16)
(1.00036 -0.00202705 -2.43848e-16)
(1.00064 -0.00217645 1.38994e-16)
(1.00095 -0.0022467 1.15586e-16)
(1.00127 -0.00223474 1.21986e-16)
(1.0016 -0.00213321 1.5518e-16)
(1.0019 -0.00194861 2.15613e-16)
(1.00218 -0.00168763 3.03241e-17)
(1.00243 -0.00133483 7.67878e-17)
(0.999524 0.000279325 -3.97149e-17)
(0.999506 -0.000109981 1.05083e-16)
(0.999531 -0.000506335 1.64444e-16)
(0.999603 -0.000891299 -1.05258e-16)
(0.999723 -0.00125606 -6.84259e-17)
(0.999895 -0.00158671 3.89437e-17)
(1.00011 -0.00187054 -2.00024e-16)
(1.00038 -0.0020931 -1.30872e-16)
(1.00068 -0.00224405 -1.71883e-16)
(1.001 -0.00231293 2.73149e-16)
(1.00134 -0.00229671 -3.78863e-16)
(1.00167 -0.00218845 2.95828e-16)
(1.00199 -0.00199399 1.44816e-16)
(1.00227 -0.00172254 5.41541e-16)
(1.00254 -0.00135926 -4.94635e-16)
(0.999489 0.00029088 1.67581e-17)
(0.99947 -0.00011329 -7.90935e-17)
(0.999499 -0.000524527 5.79067e-17)
(0.999577 -0.000923314 1.28067e-16)
(0.999706 -0.00130018 -8.87825e-17)
(0.999889 -0.00164077 -1.50036e-16)
(1.00012 -0.00193186 -7.10315e-17)
(1.0004 -0.00215885 9.78799e-17)
(1.00071 -0.00231123 -4.47678e-16)
(1.00105 -0.00237859 6.60445e-17)
(1.0014 -0.00235795 2.51729e-16)
(1.00175 -0.00224287 -7.03323e-16)
(1.00208 -0.00203875 1.41936e-16)
(1.00237 -0.00175722 2.17219e-17)
(1.00264 -0.00138456 3.64734e-16)
(0.999452 0.000302319 -6.37086e-18)
(0.999433 -0.000116742 9.69371e-17)
(0.999465 -0.000542842 -9.36481e-17)
(0.99955 -0.000955387 -5.81215e-17)
(0.999688 -0.00134426 -9.26921e-17)
(0.999882 -0.00169468 -4.90148e-17)
(1.00013 -0.00199293 -1.05678e-16)
(1.00042 -0.00222426 7.54428e-17)
(1.00075 -0.002378 2.90116e-17)
(1.0011 -0.00244384 -3.09952e-16)
(1.00146 -0.00241883 -3.69676e-16)
(1.00183 -0.00229713 4.09953e-16)
(1.00216 -0.0020838 -3.57648e-16)
(1.00247 -0.00179275 -1.13779e-16)
(1.00274 -0.00141149 -1.11712e-17)
(0.999414 0.000313671 -1.92778e-17)
(0.999394 -0.000120337 -4.47803e-17)
(0.99943 -0.000561303 3.16256e-17)
(0.999521 -0.000987569 2.25344e-16)
(0.999669 -0.00138839 3.76302e-16)
(0.999874 -0.00174856 3.07182e-16)
(1.00013 -0.00205393 3.35592e-16)
(1.00044 -0.0022896 -2.14076e-16)
(1.00078 -0.00244478 6.91354e-20)
(1.00115 -0.00250922 2.3212e-16)
(1.00153 -0.00248007 4.56979e-17)
(1.0019 -0.0023521 2.51897e-16)
(1.00225 -0.00213004 2.02307e-16)
(1.00257 -0.0018299 -5.29597e-16)
(1.00285 -0.00144026 -3.46898e-16)
(0.999375 0.000324963 9.91864e-18)
(0.999354 -0.000124077 -8.09363e-17)
(0.999394 -0.000579939 -1.61885e-16)
(0.999492 -0.00101994 -1.58895e-16)
(0.999649 -0.00143272 1.46027e-17)
(0.999866 -0.00180269 -1.73423e-16)
(1.00014 -0.00211523 -3.77565e-16)
(1.00046 -0.00235537 2.88154e-16)
(1.00081 -0.00251216 2.34329e-16)
(1.0012 -0.00257547 -5.16606e-16)
(1.00159 -0.00254248 4.23674e-16)
(1.00198 -0.00240856 -3.08748e-16)
(1.00234 -0.00217811 -1.42239e-16)
(1.00266 -0.001869 -1.24264e-16)
(1.00295 -0.0014707 1.478e-16)
(0.999335 0.000336231 3.77565e-17)
(0.999313 -0.000127954 1.73666e-17)
(0.999357 -0.000598777 8.75569e-17)
(0.999461 -0.00105258 4.06696e-17)
(0.999627 -0.00147743 4.7845e-17)
(0.999856 -0.00185733 2.99933e-16)
(1.00014 -0.00217723 -1.3551e-16)
(1.00048 -0.00242205 1.48059e-16)
(1.00085 -0.00258071 8.49992e-17)
(1.00125 -0.00264315 5.92267e-17)
(1.00165 -0.00260659 1.97264e-16)
(1.00205 -0.00246692 -4.20424e-17)
(1.00243 -0.00222815 9.33885e-18)
(1.00276 -0.00190986 8.66741e-16)
(1.00306 -0.00150219 2.74966e-18)
(0.999292 0.000347502 -3.6648e-17)
(0.99927 -0.000131958 -1.26565e-17)
(0.999317 -0.000617832 5.72441e-17)
(0.999428 -0.00108555 -1.74523e-16)
(0.999604 -0.00152264 -2.79519e-16)
(0.999844 -0.00191268 -2.67799e-16)
(1.00014 -0.0022402 2.26885e-16)
(1.00049 -0.00248998 -8.29719e-17)
(1.00088 -0.00265077 9.67391e-18)
(1.00129 -0.00271258 -5.01082e-18)
(1.00171 -0.00267259 -2.72478e-16)
(1.00213 -0.00252717 -2.46169e-16)
(1.00251 -0.00227992 -1.58654e-16)
(1.00286 -0.00195202 2.40571e-17)
(1.00316 -0.00153424 -5.41442e-17)
(0.999249 0.000358808 -1.82959e-17)
(0.999226 -0.000136069 4.84197e-17)
(0.999277 -0.000637105 4.76354e-17)
(0.999394 -0.00111889 7.75138e-17)
(0.999579 -0.00156842 1.06014e-16)
(0.999831 -0.00196886 1.67519e-18)
(1.00014 -0.00230428 2.26783e-16)
(1.00051 -0.00255927 -5.05628e-16)
(1.00091 -0.00272242 2.57804e-16)
(1.00134 -0.00278372 2.6288e-16)
(1.00177 -0.00274029 -3.75991e-16)
(1.0022 -0.00258895 7.01943e-16)
(1.0026 -0.00233292 3.69302e-16)
(1.00296 -0.0019949 -6.87555e-16)
(1.00327 -0.00156636 -2.04161e-16)
(0.999203 0.000370174 3.78346e-17)
(0.99918 -0.000140266 2.93767e-17)
(0.999234 -0.000656584 4.58711e-18)
(0.999358 -0.00115258 -3.4748e-17)
(0.999553 -0.00161477 2.01556e-17)
(0.999816 -0.00202586 2.84359e-16)
(1.00014 -0.00236942 -4.58308e-17)
(1.00052 -0.00262986 3.24475e-16)
(1.00094 -0.00279549 -4.80068e-17)
(1.00138 -0.00285631 -2.90774e-16)
(1.00183 -0.00280933 6.01514e-16)
(1.00228 -0.00265182 -3.60856e-16)
(1.00269 -0.00238669 -4.88251e-16)
(1.00306 -0.00203815 2.06211e-16)
(1.00337 -0.00159851 3.44101e-16)
(0.999156 0.000381623 -3.14627e-17)
(0.999133 -0.000144524 -1.32629e-17)
(0.999191 -0.000676251 -1.72939e-16)
(0.999321 -0.00118662 -8.45124e-17)
(0.999524 -0.00166165 5.20437e-17)
(0.999799 -0.00208359 -2.87068e-16)
(1.00014 -0.0024355 -8.43802e-17)
(1.00053 -0.00270152 2.82797e-16)
(1.00097 -0.00286971 -2.39134e-16)
(1.00143 -0.00293001 7.01147e-17)
(1.00189 -0.00287932 -3.34945e-16)
(1.00235 -0.0027154 1.0533e-17)
(1.00277 -0.00244094 2.64271e-16)
(1.00315 -0.00208165 1.38933e-16)
(1.00348 -0.00163077 -5.40368e-17)
(0.999107 0.00039317 3.00145e-17)
(0.999084 -0.000148824 -9.73776e-17)
(0.999145 -0.000696085 8.17371e-17)
(0.999281 -0.00122096 5.3494e-17)
(0.999495 -0.001709 -4.03311e-17)
(0.999782 -0.00214196 -1.72437e-16)
(1.00013 -0.00250237 5.22787e-17)
(1.00054 -0.00277408 -1.29652e-16)
(1.00099 -0.00294483 -2.18573e-16)
(1.00147 -0.00300455 -2.73121e-17)
(1.00195 -0.00295005 -4.84043e-16)
(1.00243 -0.00277955 4.9519e-16)
(1.00286 -0.00249569 3.84674e-17)
(1.00325 -0.00212559 -7.93162e-17)
(1.00358 -0.00166356 -7.70245e-18)
(0.999057 0.000404828 -3.68139e-17)
(0.999034 -0.000153144 1.00244e-16)
(0.999098 -0.000716069 -2.30263e-17)
(0.999241 -0.00125558 -2.09747e-16)
(0.999463 -0.00175679 -9.99314e-17)
(0.999762 -0.00220091 1.16079e-16)
(1.00013 -0.00256994 -1.70312e-16)
(1.00055 -0.0028474 -1.90752e-16)
(1.00102 -0.00302074 3.2458e-16)
(1.00152 -0.00307985 1.12921e-16)
(1.00201 -0.00302147 5.07897e-16)
(1.0025 -0.00284436 -3.81872e-16)
(1.00295 -0.0025511 1.37148e-16)
(1.00335 -0.00217023 -1.5429e-16)
(1.00369 -0.00169703 5.13463e-18)
(0.999005 0.000416601 2.27857e-17)
(0.998982 -0.000157473 -5.80093e-17)
(0.99905 -0.000736199 7.20532e-17)
(0.999199 -0.00129049 3.1252e-16)
(0.999431 -0.00180501 1.32613e-16)
(0.999742 -0.00226043 8.22672e-17)
(1.00012 -0.00263818 3.38277e-16)
(1.00056 -0.00292148 1.6074e-16)
(1.00105 -0.00309746 -2.64711e-16)
(1.00156 -0.00315599 4.50952e-16)
(1.00207 -0.00309375 2.50717e-16)
(1.00257 -0.00291005 -2.1212e-16)
(1.00304 -0.00260748 -4.0552e-16)
(1.00345 -0.00221584 -1.57456e-16)
(1.0038 -0.00173139 6.06793e-17)
(0.998951 0.000428496 4.67855e-18)
(0.998929 -0.000161798 -1.23589e-16)
(0.999 -0.000756473 -9.17126e-17)
(0.999155 -0.00132569 -2.15187e-16)
(0.999397 -0.00185367 3.45638e-17)
(0.99972 -0.00232054 -3.34088e-16)
(1.00012 -0.00270716 -3.59132e-16)
(1.00057 -0.00299641 -1.44442e-16)
(1.00107 -0.00317513 3.07673e-16)
(1.0016 -0.00323314 -3.26753e-16)
(1.00213 -0.00316712 1.1551e-16)
(1.00265 -0.00297688 2.14659e-16)
(1.00313 -0.00266501 3.25706e-16)
(1.00355 -0.00226253 1.98601e-16)
(1.0039 -0.00176651 1.68332e-17)
(0.998895 0.00044051 3.28859e-17)
(0.998874 -0.000166119 2.01995e-16)
(0.998948 -0.000776902 9.4007e-17)
(0.999111 -0.00136121 1.80649e-16)
(0.999362 -0.00190283 1.08231e-16)
(0.999698 -0.00238132 4.5623e-17)
(1.00011 -0.00277698 5.26233e-17)
(1.00058 -0.00307233 -1.2089e-16)
(1.0011 -0.00325391 -1.2257e-16)
(1.00164 -0.00331151 1.4361e-17)
(1.00219 -0.00324178 -7.89298e-16)
(1.00272 -0.00304502 -3.08156e-16)
(1.00321 -0.00272381 3.23866e-16)
(1.00365 -0.00231031 -7.21723e-17)
(1.00401 -0.00180236 -1.9953e-16)
(0.998838 0.000452647 -4.42003e-17)
(0.998818 -0.000170434 -1.29443e-16)
(0.998895 -0.000797499 -1.85891e-16)
(0.999064 -0.00139708 6.10649e-17)
(0.999325 -0.00195252 -2.05335e-16)
(0.999674 -0.00244284 3.82463e-17)
(1.0001 -0.00284774 -4.73359e-17)
(1.00059 -0.00314936 -8.63959e-18)
(1.00112 -0.00333394 -1.46464e-16)
(1.00169 -0.00339123 -7.67816e-17)
(1.00225 -0.00331783 2.71839e-17)
(1.0028 -0.00311449 2.67617e-16)
(1.0033 -0.00278383 -1.34815e-16)
(1.00375 -0.00235901 2.6594e-16)
(1.00412 -0.00183866 9.38252e-17)
(0.99878 0.0004649 2.36235e-17)
(0.99876 -0.000174749 1.24006e-16)
(0.998841 -0.000818282 2.36169e-16)
(0.999016 -0.00143333 -6.82363e-17)
(0.999287 -0.00200281 -1.65538e-17)
(0.999648 -0.00250516 2.50626e-16)
(1.00009 -0.0029195 2.1309e-16)
(1.00059 -0.00322757 -1.45989e-16)
(1.00115 -0.00341528 3.91057e-16)
(1.00173 -0.00347233 3.54707e-16)
(1.00231 -0.00339525 3.77081e-16)
(1.00287 -0.00318524 -1.74061e-17)
(1.00339 -0.00284492 -2.98872e-16)
(1.00385 -0.00240851 -3.13657e-16)
(1.00423 -0.00187541 -3.01744e-17)
(0.99872 0.000477273 -2.02427e-17)
(0.9987 -0.000179071 -6.54843e-17)
(0.998785 -0.000839267 -1.95747e-16)
(0.998967 -0.00146998 1.25969e-16)
(0.999248 -0.00205372 1.20863e-16)
(0.999621 -0.00256831 -1.6781e-16)
(1.00008 -0.00299229 -8.47098e-17)
(1.0006 -0.00330697 8.37381e-18)
(1.00117 -0.00349791 -1.73795e-16)
(1.00177 -0.00355476 -3.03915e-16)
(1.00237 -0.00347395 -5.60615e-16)
(1.00295 -0.00325711 6.05248e-17)
(1.00348 -0.00290695 3.649e-16)
(1.00395 -0.00245867 3.30148e-16)
(1.00434 -0.0019125 -6.93276e-17)
(0.998659 0.000489761 -1.61085e-17)
(0.998639 -0.000183414 -1.31721e-17)
(0.998727 -0.000860475 1.71298e-16)
(0.998916 -0.00150706 -1.61616e-16)
(0.999206 -0.00210527 -3.19348e-16)
(0.999593 -0.0026323 1.54968e-16)
(1.00006 -0.00306609 8.79296e-17)
(1.0006 -0.00338752 4.07114e-16)
(1.00119 -0.00358178 5.81995e-17)
(1.00181 -0.00363843 2.82978e-16)
(1.00243 -0.00355384 8.40075e-16)
(1.00302 -0.00333004 -2.30388e-16)
(1.00357 -0.00296988 -9.7733e-17)
(1.00406 -0.00250954 -1.15267e-17)
(1.00445 -0.00195019 -2.76128e-17)
(0.998596 0.000502366 4.50504e-17)
(0.998576 -0.00018779 4.92123e-17)
(0.998668 -0.000881923 -1.47325e-16)
(0.998863 -0.00154459 1.3685e-16)
(0.999164 -0.00215747 -9.21042e-17)
(0.999563 -0.00269713 -2.96506e-16)
(1.00005 -0.0031409 1.3029e-17)
(1.00061 -0.0034692 -3.50175e-17)
(1.00121 -0.00366684 -2.15846e-16)
(1.00185 -0.00372329 1.8191e-16)
(1.00248 -0.00363486 -7.84148e-16)
(1.0031 -0.00340401 -1.42666e-17)
(1.00366 -0.00303375 -1.74574e-16)
(1.00416 -0.00256121 3.2582e-17)
(1.00456 -0.00198853 -8.17948e-17)
(0.998532 0.000515081 -1.14959e-17)
(0.998512 -0.00019222 -1.17258e-17)
(0.998607 -0.000903636 2.03858e-17)
(0.998809 -0.00158259 -1.52183e-16)
(0.99912 -0.00221034 -2.73206e-17)
(0.999532 -0.00276282 3.62046e-16)
(1.00003 -0.00321672 -2.63833e-16)
(1.00061 -0.00355199 -3.26743e-16)
(1.00123 -0.00375308 3.49808e-16)
(1.00189 -0.00380935 -3.16432e-16)
(1.00254 -0.00371707 4.0038e-16)
(1.00317 -0.00347912 3.78651e-16)
(1.00375 -0.00309869 2.72579e-16)
(1.00426 -0.00261387 -1.81226e-16)
(1.00467 -0.00202773 -6.16542e-17)
(0.998467 0.000527909 -1.23979e-17)
(0.998446 -0.000196721 -7.19498e-17)
(0.998544 -0.000925635 -9.68784e-17)
(0.998753 -0.00162109 7.10986e-17)
(0.999074 -0.00226392 1.80183e-16)
(0.9995 -0.0028294 6.31945e-17)
(1.00002 -0.00329358 2.45195e-16)
(1.00061 -0.00363594 5.35859e-17)
(1.00125 -0.00384057 -4.59919e-16)
(1.00193 -0.00389671 1.60909e-16)
(1.0026 -0.00380058 -2.27394e-16)
(1.00325 -0.0035555 -1.88804e-16)
(1.00384 -0.00316486 -2.54175e-16)
(1.00436 -0.00266763 4.01347e-17)
(1.00478 -0.00206777 1.48897e-16)
(0.9984 0.000540841 -1.90297e-17)
(0.998378 -0.000201317 3.42701e-17)
(0.998479 -0.000947947 4.13721e-17)
(0.998695 -0.00166012 -1.42506e-16)
(0.999027 -0.00231825 6.95402e-17)
(0.999466 -0.00289692 -2.10975e-16)
(0.999999 -0.00337156 -2.5842e-17)
(1.00061 -0.00372116 3.17244e-16)
(1.00127 -0.00392942 -2.02323e-16)
(1.00197 -0.0039855 -2.67399e-16)
(1.00266 -0.00388557 2.29618e-16)
(1.00332 -0.00363334 -6.81369e-17)
(1.00393 -0.00323241 -7.20232e-16)
(1.00447 -0.00272262 7.34313e-17)
(1.00489 -0.00210874 1.07114e-16)
(0.998331 0.000553875 -9.79497e-18)
(0.998308 -0.000206027 3.34274e-17)
(0.998413 -0.000970598 1.25927e-17)
(0.998636 -0.00169972 1.89964e-17)
(0.998978 -0.00237338 1.20003e-16)
(0.99943 -0.00296546 6.66776e-17)
(0.99998 -0.00345075 -2.19591e-16)
(1.00061 -0.00380774 -2.00497e-17)
(1.00129 -0.00401976 6.05994e-16)
(1.002 -0.00407586 -1.94333e-16)
(1.00271 -0.00397215 -5.71276e-18)
(1.0034 -0.00371273 2.87261e-17)
(1.00402 -0.0033014 2.77231e-17)
(1.00457 -0.00277879 -5.08424e-17)
(1.005 -0.00215043 1.69075e-17)
(0.998261 0.000567 2.58118e-17)
(0.998237 -0.000210877 -6.81856e-17)
(0.998345 -0.000993613 -7.788e-17)
(0.998575 -0.00173992 1.49364e-19)
(0.998927 -0.00242935 -1.81202e-16)
(0.999394 -0.00303508 -2.89346e-17)
(0.99996 -0.00353123 4.2638e-17)
(1.00061 -0.0038958 -4.82768e-17)
(1.00131 -0.00411172 -4.10276e-16)
(1.00204 -0.00416791 5.46188e-16)
(1.00277 -0.00406043 -3.11646e-17)
(1.00347 -0.00379373 -5.70488e-17)
(1.00411 -0.0033718 3.36115e-16)
(1.00467 -0.00283608 -3.76684e-16)
(1.00511 -0.0021928 7.93964e-18)
(0.998189 0.00058021 2.73873e-18)
(0.998164 -0.000215883 8.17993e-17)
(0.998275 -0.00101701 2.19822e-16)
(0.998512 -0.00178074 -5.54324e-17)
(0.998875 -0.00248621 1.17761e-16)
(0.999355 -0.00310582 -1.82978e-16)
(0.999938 -0.00361307 -2.19116e-16)
(1.0006 -0.0039854 5.26187e-18)
(1.00133 -0.00420533 2.3888e-16)
(1.00208 -0.00426167 -4.76714e-16)
(1.00283 -0.00415038 1.18722e-16)
(1.00355 -0.00387627 -2.0629e-17)
(1.0042 -0.00344353 2.59659e-16)
(1.00478 -0.00289435 8.01816e-17)
(1.00522 -0.00223564 -1.24662e-16)
(0.998115 0.00059349 1.05244e-18)
(0.998089 -0.000221068 -8.87797e-17)
(0.998204 -0.00104082 -1.2546e-16)
(0.998447 -0.0018222 2.07629e-17)
(0.998821 -0.00254396 -2.18781e-17)
(0.999315 -0.00317773 1.66092e-16)
(0.999914 -0.00369629 3.59755e-16)
(1.0006 -0.00407655 -3.19088e-16)
(1.00134 -0.00430062 3.62928e-16)
(1.00211 -0.00435714 3.20775e-17)
(1.00288 -0.00424198 7.11763e-17)
(1.00362 -0.0039603 -1.37428e-16)
(1.00429 -0.00351648 2.65217e-16)
(1.00488 -0.00295353 1.50203e-16)
(1.00534 -0.00227905 1.95839e-16)
(0.998039 0.000606832 -8.60745e-18)
(0.998012 -0.000226444 8.46868e-17)
(0.99813 -0.00106505 1.5453e-16)
(0.998381 -0.00186433 5.33875e-17)
(0.998765 -0.00260264 1.56145e-16)
(0.999273 -0.00325079 1.19914e-16)
(0.99989 -0.00378088 -3.23069e-16)
(1.00059 -0.00416925 6.47221e-16)
(1.00136 -0.00439755 -2.03571e-16)
(1.00215 -0.00445424 -6.77137e-17)
(1.00294 -0.00433514 -2.45046e-16)
(1.0037 -0.0040457 -1.07589e-16)
(1.00438 -0.00359058 -2.95155e-16)
(1.00499 -0.00301355 -1.08676e-16)
(1.00545 -0.00232292 4.71014e-17)
(0.997962 0.000620217 -3.05675e-17)
(0.997934 -0.000232029 -9.05657e-17)
(0.998055 -0.00108971 -1.08373e-17)
(0.998312 -0.00190712 1.06207e-16)
(0.998708 -0.00266222 -1.42103e-16)
(0.99923 -0.003325 -1.04342e-16)
(0.999864 -0.00386683 4.0428e-16)
(1.00059 -0.00426344 -1.20739e-16)
(1.00137 -0.00449605 -5.15793e-16)
(1.00218 -0.00455292 7.09793e-17)
(1.003 -0.00442979 -1.2442e-16)
(1.00377 -0.00413245 2.30135e-16)
(1.00448 -0.00366581 3.68473e-16)
(1.0051 -0.00307446 3.28019e-16)
(1.00557 -0.00236747 -2.74495e-16)
(0.997882 0.000633635 1.83322e-18)
(0.997853 -0.000237833 -1.74695e-17)
(0.997978 -0.00111482 -7.23098e-17)
(0.998242 -0.00195059 4.50709e-17)
(0.998648 -0.00272273 -7.87941e-17)
(0.999185 -0.00340036 1.3438e-16)
(0.999836 -0.00395411 -1.1617e-16)
(1.00058 -0.00435911 3.98647e-17)
(1.00138 -0.00459609 -1.08111e-16)
(1.00222 -0.00465315 2.75023e-16)
(1.00305 -0.00452591 3.3645e-16)
(1.00385 -0.00422053 1.94404e-18)
(1.00457 -0.0037422 -5.86433e-16)
(1.00521 -0.00313631 -3.98835e-16)
(1.00569 -0.00241267 2.71565e-16)