1.45 	0 	0 	-0.00814495 	-0.00256884 	3.7822e-21
2.35 	0 	0 	0.0613349 	-0.00662922 	2.28417e-21
