1.45 	0 	0 	-0.29222
2.35 	0 	0 	-0.127522
