1.45 	0 	0 	0.000988162 	-0.00345406 	3.96905e-21
2.35 	0 	0 	0.0995786 	-0.00798339 	2.12726e-21
