/*--------------------------------*- C++ -*----------------------------------*\
  =========                 |
  \\      /  F ield         | OpenFOAM: The Open Source CFD Toolbox
   \\    /   O peration     | Website:  https://openfoam.org
    \\  /    A nd           | Version:  6.0
     \\/     M anipulation  |
\*---------------------------------------------------------------------------*/
FoamFile
{
    version     2.0;
    format      ascii;
    class       volScalarField;
    location    "61";
    object      p;
}
// * * * * * * * * * * * * * * * * * * * * * * * * * * * * * * * * * * * * * //

dimensions      [0 2 -2 0 0 0 0];

internalField   nonuniform List<scalar> 
2000
(
-0.348042
-0.353948
-0.355637
-0.354968
-0.353108
-0.350431
-0.347216
-0.343755
-0.340334
-0.336638
-0.35076
-0.356247
-0.357595
-0.356624
-0.354477
-0.351525
-0.348047
-0.344325
-0.34065
-0.336835
-0.356216
-0.360843
-0.361501
-0.359921
-0.357192
-0.353685
-0.349671
-0.345413
-0.341209
-0.337149
-0.36445
-0.367738
-0.367333
-0.364827
-0.361217
-0.356864
-0.352026
-0.346924
-0.341873
-0.337423
-0.375522
-0.376927
-0.375062
-0.371303
-0.366509
-0.361013
-0.355044
-0.348743
-0.342444
-0.337401
-0.389497
-0.388398
-0.384647
-0.37931
-0.373036
-0.36611
-0.358692
-0.350787
-0.342712
-0.336752
-0.406408
-0.402108
-0.396029
-0.388805
-0.380794
-0.372195
-0.363065
-0.353174
-0.342675
-0.335218
-0.426199
-0.417957
-0.409116
-0.399729
-0.389766
-0.379311
-0.368276
-0.356034
-0.342091
-0.331648
-0.448658
-0.435774
-0.423793
-0.41204
-0.399994
-0.38755
-0.37431
-0.35875
-0.338665
-0.321353
-0.473352
-0.455292
-0.43996
-0.425885
-0.4121
-0.398403
-0.38404
-0.366375
-0.341335
-0.317358
-0.499592
-0.476087
-0.457348
-0.441178
-0.42645
-0.413538
-0.402783
-0.394826
-0.394964
-0.414497
-0.526555
-0.497581
-0.47534
-0.45681
-0.440473
-0.42679
-0.416238
-0.409873
-0.412829
-0.430101
-0.553518
-0.519316
-0.493663
-0.472661
-0.454297
-0.438935
-0.426942
-0.419037
-0.418328
-0.426146
-0.579833
-0.540821
-0.512004
-0.48856
-0.467924
-0.450281
-0.435789
-0.424704
-0.418501
-0.417164
-0.60475
-0.561427
-0.52974
-0.503863
-0.48065
-0.460085
-0.442126
-0.426651
-0.414081
-0.404455
-0.627281
-0.580202
-0.545925
-0.517562
-0.491419
-0.467346
-0.44522
-0.42473
-0.405709
-0.388921
-0.64614
-0.595935
-0.559329
-0.528375
-0.498944
-0.470893
-0.444185
-0.418514
-0.393462
-0.370809
-0.65977
-0.60717
-0.568491
-0.534818
-0.501794
-0.469468
-0.438054
-0.4074
-0.377055
-0.34988
-0.666406
-0.612271
-0.571788
-0.535298
-0.498496
-0.461816
-0.425866
-0.390725
-0.356024
-0.325636
-0.664184
-0.609496
-0.567526
-0.528205
-0.487617
-0.446766
-0.406733
-0.367848
-0.329856
-0.29749
-0.651247
-0.597105
-0.554036
-0.512009
-0.467866
-0.423313
-0.379926
-0.338246
-0.298102
-0.264905
-0.625861
-0.573456
-0.529779
-0.485372
-0.438184
-0.390698
-0.344941
-0.301581
-0.260474
-0.227513
-0.586552
-0.537142
-0.49348
-0.447255
-0.397833
-0.348472
-0.301549
-0.257759
-0.216908
-0.185177
-0.532224
-0.487103
-0.444225
-0.397009
-0.34646
-0.296535
-0.249831
-0.206961
-0.16761
-0.138038
-0.462272
-0.422741
-0.381569
-0.334435
-0.284118
-0.235139
-0.190163
-0.149636
-0.113054
-0.0865229
-0.376695
-0.344023
-0.305602
-0.259826
-0.21127
-0.164844
-0.123147
-0.0864031
-0.0538767
-0.0312564
-0.276182
-0.251551
-0.217007
-0.173979
-0.128773
-0.0864944
-0.0495531
-0.0179612
0.00920218
0.0269351
-0.162171
-0.146615
-0.117069
-0.0781839
-0.0378627
-0.00122933
0.0295609
0.0545713
0.0746406
0.0860215
-0.0368731
-0.0311872
-0.00763839
0.0258861
0.0600767
0.0898982
0.113337
0.129981
0.139915
0.142286
0.0967569
0.092091
0.108872
0.136201
0.163722
0.186712
0.203199
0.211567
0.210532
0.203803
0.235143
0.219954
0.22936
0.249867
0.270617
0.28773
0.299935
0.305417
0.30437
0.318288
0.37439
0.348756
0.350211
0.36303
0.37605
0.386024
0.392077
0.393319
0.392242
0.405165
0.510555
0.474825
0.468018
0.47257
0.477223
0.479302
0.478239
0.473617
0.467925
0.473028
0.63979
0.594554
0.579488
0.575587
0.571688
0.5657
0.557363
0.54653
0.535272
0.53243
0.758435
0.704501
0.681529
0.66942
0.657254
0.643506
0.628194
0.611358
0.594688
0.584741
0.863103
0.801502
0.77132
0.751675
0.731967
0.71119
0.689604
0.667392
0.645876
0.629721
0.950778
0.882747
0.846374
0.820239
0.794076
0.767326
0.740447
0.713737
0.688161
0.666803
1.01891
0.945869
0.904599
0.873324
0.842078
0.810651
0.779655
0.749468
0.720747
0.695332
1.06548
0.989016
0.944357
0.909525
0.874776
0.840141
0.806332
0.773782
0.742917
0.714716
1.08912
1.01091
0.964523
0.927873
0.891339
0.855072
0.819838
0.786092
0.754141
0.724521
1.08912
1.01091
0.964523
0.927873
0.891339
0.855072
0.819838
0.786092
0.754141
0.724521
1.06548
0.989016
0.944357
0.909525
0.874776
0.840141
0.806332
0.773782
0.742917
0.714716
1.01891
0.945869
0.904599
0.873324
0.842078
0.810651
0.779655
0.749468
0.720747
0.695332
0.950778
0.882747
0.846374
0.820239
0.794076
0.767326
0.740447
0.713737
0.688161
0.666803
0.863102
0.801502
0.77132
0.751675
0.731967
0.71119
0.689604
0.667392
0.645876
0.629721
0.758435
0.704501
0.681529
0.66942
0.657254
0.643506
0.628194
0.611358
0.594688
0.584741
0.63979
0.594554
0.579488
0.575587
0.571688
0.5657
0.557363
0.54653
0.535272
0.53243
0.510555
0.474825
0.468018
0.47257
0.477223
0.479302
0.478239
0.473617
0.467925
0.473028
0.37439
0.348756
0.350211
0.36303
0.37605
0.386024
0.392077
0.393319
0.392242
0.405165
0.235143
0.219954
0.229359
0.249867
0.270617
0.28773
0.299935
0.305417
0.30437
0.318288
0.0967567
0.0920909
0.108872
0.136201
0.163722
0.186712
0.203199
0.211567
0.210532
0.203803
-0.0368733
-0.0311874
-0.00763854
0.025886
0.0600766
0.0898981
0.113337
0.129981
0.139915
0.142286
-0.162171
-0.146616
-0.117069
-0.0781841
-0.0378628
-0.00122944
0.0295608
0.0545712
0.0746405
0.0860215
-0.276182
-0.251552
-0.217007
-0.173979
-0.128773
-0.0864945
-0.0495532
-0.0179613
0.00920212
0.026935
-0.376695
-0.344023
-0.305602
-0.259826
-0.21127
-0.164845
-0.123147
-0.0864032
-0.0538767
-0.0312564
-0.462272
-0.422741
-0.381569
-0.334436
-0.284118
-0.235139
-0.190163
-0.149636
-0.113054
-0.0865229
-0.532224
-0.487103
-0.444225
-0.397009
-0.34646
-0.296535
-0.249831
-0.206961
-0.16761
-0.138038
-0.586552
-0.537142
-0.49348
-0.447255
-0.397833
-0.348472
-0.301549
-0.257759
-0.216908
-0.185177
-0.625861
-0.573456
-0.529779
-0.485372
-0.438184
-0.390698
-0.344941
-0.301581
-0.260474
-0.227513
-0.651247
-0.597105
-0.554036
-0.512009
-0.467866
-0.423313
-0.379926
-0.338246
-0.298102
-0.264905
-0.664184
-0.609496
-0.567526
-0.528205
-0.487617
-0.446766
-0.406733
-0.367848
-0.329856
-0.29749
-0.666406
-0.612271
-0.571788
-0.535298
-0.498496
-0.461816
-0.425866
-0.390725
-0.356024
-0.325636
-0.65977
-0.60717
-0.568491
-0.534818
-0.501794
-0.469468
-0.438054
-0.4074
-0.377055
-0.34988
-0.64614
-0.595935
-0.559329
-0.528375
-0.498944
-0.470893
-0.444185
-0.418514
-0.393462
-0.370809
-0.627281
-0.580202
-0.545925
-0.517562
-0.491419
-0.467346
-0.44522
-0.42473
-0.405709
-0.388921
-0.60475
-0.561427
-0.529739
-0.503863
-0.48065
-0.460085
-0.442126
-0.426651
-0.414081
-0.404455
-0.579833
-0.540821
-0.512004
-0.48856
-0.467924
-0.45028
-0.435789
-0.424704
-0.418501
-0.417164
-0.553518
-0.519316
-0.493663
-0.472661
-0.454297
-0.438935
-0.426942
-0.419037
-0.418328
-0.426146
-0.526555
-0.497581
-0.47534
-0.456809
-0.440473
-0.42679
-0.416237
-0.409873
-0.412829
-0.430101
-0.499592
-0.476087
-0.457348
-0.441178
-0.42645
-0.413538
-0.402783
-0.394826
-0.394964
-0.414497
-0.473352
-0.455292
-0.43996
-0.425885
-0.4121
-0.398403
-0.38404
-0.366374
-0.341335
-0.317358
-0.448658
-0.435774
-0.423793
-0.41204
-0.399994
-0.38755
-0.37431
-0.35875
-0.338664
-0.321353
-0.426199
-0.417957
-0.409116
-0.399729
-0.389766
-0.379311
-0.368276
-0.356034
-0.342091
-0.331648
-0.406408
-0.402108
-0.396029
-0.388805
-0.380794
-0.372194
-0.363065
-0.353174
-0.342675
-0.335218
-0.389497
-0.388398
-0.384647
-0.37931
-0.373036
-0.36611
-0.358692
-0.350787
-0.342712
-0.336752
-0.375522
-0.376927
-0.375062
-0.371303
-0.366508
-0.361013
-0.355044
-0.348743
-0.342444
-0.337401
-0.36445
-0.367738
-0.367333
-0.364827
-0.361217
-0.356864
-0.352026
-0.346924
-0.341873
-0.337423
-0.356215
-0.360843
-0.361501
-0.359921
-0.357192
-0.353685
-0.349671
-0.345412
-0.341209
-0.337149
-0.35076
-0.356247
-0.357595
-0.356624
-0.354477
-0.351525
-0.348047
-0.344325
-0.34065
-0.336835
-0.348042
-0.353948
-0.355637
-0.354968
-0.353108
-0.350431
-0.347216
-0.343755
-0.340334
-0.336638
-0.290429
-0.126294
-0.0812221
-0.0303211
-0.0192163
-0.00778262
-0.00434288
-0.000872606
-0.000455575
0.00217196
-0.291659
-0.126842
-0.0814925
-0.0305197
-0.0192842
-0.00784234
-0.0043725
-0.000893324
-0.000464654
0.00215613
-0.294051
-0.127923
-0.0820278
-0.030918
-0.0194198
-0.00796155
-0.00443167
-0.00093473
-0.000482727
0.00212462
-0.297462
-0.129514
-0.0828169
-0.0315182
-0.0196229
-0.00813977
-0.00452019
-0.000996731
-0.000509681
0.00207776
-0.301647
-0.13157
-0.0838334
-0.0323184
-0.0198912
-0.00837562
-0.00463758
-0.00107913
-0.000545243
0.00201599
-0.306251
-0.134016
-0.0850281
-0.0333049
-0.0202191
-0.00866551
-0.0047826
-0.0011814
-0.000589061
0.00193997
-0.311143
-0.136921
-0.0864062
-0.034473
-0.0206072
-0.00900671
-0.00495473
-0.00130257
-0.000641337
0.00185126
-0.316846
-0.140936
-0.0882306
-0.0359234
-0.0210987
-0.00941264
-0.00516001
-0.00144298
-0.000703606
0.00175264
-0.321622
-0.146442
-0.0906795
-0.0378213
-0.0217444
-0.00991039
-0.0054076
-0.00160802
-0.000774287
0.00164156
-0.313818
-0.148817
-0.0917905
-0.0395227
-0.0222467
-0.0104023
-0.00565232
-0.00179895
-0.000833887
0.00149502
-0.247287
-0.140718
-0.0881703
-0.0427776
-0.0227452
-0.0117342
-0.00636882
-0.00253866
-0.000999564
0.000841861
-0.189192
-0.131709
-0.0821684
-0.0442363
-0.0244785
-0.0141265
-0.00821771
-0.00402232
-0.00176147
-3.63013e-07
-0.147776
-0.113851
-0.0727398
-0.0428059
-0.0259042
-0.0163326
-0.010153
-0.00561409
-0.00269645
-0.000680567
-0.108184
-0.092949
-0.06332
-0.0408371
-0.0269539
-0.0181279
-0.0118279
-0.00704939
-0.00358771
-0.00115181
-0.0789465
-0.0756764
-0.0565197
-0.0395821
-0.0277781
-0.0194734
-0.0131404
-0.00820359
-0.00433539
-0.00145051
-0.0588551
-0.0628293
-0.0515596
-0.0385825
-0.0281895
-0.0203205
-0.0140674
-0.00905806
-0.00491387
-0.0016442
-0.0458298
-0.0535682
-0.0476979
-0.0376124
-0.0282775
-0.020802
-0.0146912
-0.00966633
-0.00534254
-0.00178091
-0.0375856
-0.0471089
-0.0447358
-0.0367594
-0.0282327
-0.0210717
-0.0150995
-0.0100833
-0.00564531
-0.00187975
-0.0327638
-0.0430081
-0.0427283
-0.0361564
-0.0281765
-0.0212182
-0.0153444
-0.0103427
-0.00583829
-0.00194435
-0.0305333
-0.0410065
-0.0417172
-0.0358595
-0.0281527
-0.021283
-0.0154575
-0.0104647
-0.00593266
-0.00197463
-0.218585
-0.246482
-0.272261
-0.296205
-0.318699
-0.340249
-0.361473
-0.383017
-0.405383
-0.429225
-0.0679404
-0.078083
-0.0872476
-0.0956776
-0.10368
-0.111635
-0.120002
-0.129318
-0.140164
-0.154331
-0.0451694
-0.0543513
-0.0631475
-0.0715314
-0.0794654
-0.0869048
-0.0938061
-0.100142
-0.105911
-0.111232
-0.0187464
-0.0244664
-0.0299801
-0.0353064
-0.0404672
-0.0454858
-0.0503853
-0.0551879
-0.0598935
-0.0643814
-0.0130372
-0.0173931
-0.0216245
-0.0257277
-0.0296991
-0.0335347
-0.0372308
-0.0407845
-0.0441764
-0.0473748
-0.00798291
-0.0112002
-0.0143582
-0.0174558
-0.0204924
-0.0234676
-0.0263809
-0.0292307
-0.0320056
-0.0347089
-0.00685937
-0.00939629
-0.0118969
-0.0143572
-0.0167736
-0.0191429
-0.0214628
-0.0237306
-0.0259403
-0.0281053
-0.00605844
-0.00811637
-0.0101578
-0.0121786
-0.0141751
-0.0161438
-0.0180817
-0.0199857
-0.0218525
-0.0236894
-0.00597087
-0.00774557
-0.00951235
-0.0112667
-0.0130044
-0.0147216
-0.0164147
-0.0180806
-0.019717
-0.0213254
-0.00591489
-0.00754089
-0.00916428
-0.0107813
-0.0123885
-0.0139824
-0.01556
-0.0171183
-0.0186561
-0.0201713
0.168014
0.127027
0.0816791
0.0386099
-0.00312849
-0.0440076
-0.0834108
-0.120756
-0.155774
-0.188381
0.117545
0.0916298
0.0648379
0.0419991
0.0218789
0.00320513
-0.0141053
-0.0298413
-0.0439764
-0.0566259
0.0734244
0.0577264
0.0427734
0.0298613
0.0180099
0.00654328
-0.00460968
-0.015361
-0.0256875
-0.0356158
0.0531685
0.0440956
0.0354665
0.0277561
0.0204897
0.0133971
0.00648054
-0.000201402
-0.00662738
-0.0128045
0.0376318
0.0316804
0.0259402
0.0206496
0.0155593
0.0105382
0.00559318
0.000755522
-0.00396224
-0.00855967
0.0273702
0.0234813
0.019636
0.0159983
0.0124557
0.00894036
0.00545361
0.0020122
-0.00137552
-0.00470755
0.0196677
0.0169392
0.014184
0.0115074
0.00886133
0.00621296
0.00356405
0.000925769
-0.00169402
-0.00429048
0.0144872
0.0124922
0.0104469
0.00841378
0.0063763
0.0043208
0.00224968
0.00017045
-0.00191053
-0.00398833
0.0111566
0.00956171
0.00791777
0.00625404
0.00456574
0.00284975
0.00110995
-0.000647515
-0.00241689
-0.00419301
0.00956054
0.00813991
0.00667596
0.0051829
0.00366013
0.00210871
0.000532951
-0.00106197
-0.00267121
-0.00429028
0.335429
0.334729
0.33318
0.330305
0.325321
0.31699
0.303541
0.28258
0.251472
0.206855
0.245531
0.244415
0.241779
0.237195
0.230325
0.220739
0.207868
0.191052
0.169545
0.14279
0.1747
0.173571
0.170905
0.16638
0.15989
0.151326
0.1405
0.127196
0.111008
0.0920213
0.123091
0.122205
0.120103
0.11654
0.111501
0.105009
0.0970597
0.0876614
0.0767366
0.0646203
0.086757
0.0861125
0.0845736
0.0819605
0.0782806
0.0735861
0.0679114
0.0612945
0.0537158
0.045384
0.0615779
0.0611145
0.060006
0.0581238
0.0554813
0.0521296
0.0481105
0.0434678
0.0382192
0.032511
0.0444266
0.0440881
0.0432779
0.0419027
0.0399739
0.0375319
0.0346105
0.0312422
0.0274467
0.0233079
0.0331411
0.0328843
0.0322698
0.0312267
0.0297644
0.0279144
0.0257033
0.0231565
0.0202941
0.0171682
0.0263054
0.0260969
0.0255981
0.0247517
0.023565
0.0220631
0.0202671
0.0181961
0.0158677
0.0133134
0.023085
0.0228984
0.0224532
0.0216981
0.0206393
0.0192989
0.0176955
0.0158454
0.0137654
0.0114782
0.485403
0.487156
0.493489
0.504636
0.520487
0.541347
0.567681
0.600013
0.638881
0.684528
0.483162
0.484889
0.491142
0.502133
0.517735
0.538218
0.563987
0.595482
0.633102
0.676936
0.478732
0.480413
0.486514
0.497201
0.512318
0.532059
0.556718
0.58656
0.62171
0.66196
0.472212
0.473839
0.479728
0.489984
0.5044
0.523066
0.546104
0.573521
0.605028
0.640006
0.463741
0.465318
0.470959
0.480678
0.49421
0.511506
0.532466
0.556755
0.583522
0.611661
0.453489
0.455037
0.460411
0.469512
0.482004
0.497676
0.516164
0.536709
0.557761
0.577662
0.44165
0.443238
0.448366
0.456804
0.468144
0.48199
0.497668
0.513925
0.528423
0.538874
0.428431
0.430246
0.435261
0.443111
0.453326
0.465294
0.477964
0.489444
0.496508
0.496092
0.413901
0.416193
0.421287
0.428673
0.437868
0.448041
0.457692
0.464102
0.462892
0.448812
0.397699
0.400135
0.404802
0.411059
0.418438
0.425989
0.431937
0.43306
0.424595
0.396892
0.397699
0.400135
0.404802
0.411059
0.418438
0.425989
0.431937
0.43306
0.424595
0.396892
0.413901
0.416193
0.421287
0.428673
0.437868
0.448041
0.457692
0.464102
0.462892
0.448812
0.428431
0.430246
0.435261
0.443111
0.453326
0.465294
0.477964
0.489444
0.496508
0.496092
0.44165
0.443238
0.448366
0.456804
0.468144
0.48199
0.497668
0.513925
0.528423
0.538874
0.453489
0.455037
0.460411
0.469512
0.482004
0.497676
0.516164
0.536709
0.557761
0.577662
0.463741
0.465318
0.470959
0.480678
0.49421
0.511506
0.532466
0.556755
0.583522
0.611661
0.472212
0.473839
0.479728
0.489984
0.5044
0.523066
0.546104
0.573521
0.605028
0.640006
0.478732
0.480413
0.486514
0.497201
0.512318
0.532059
0.556718
0.58656
0.62171
0.66196
0.483162
0.484889
0.491142
0.502133
0.517735
0.538218
0.563987
0.595482
0.633102
0.676936
0.485403
0.487156
0.493489
0.504636
0.520487
0.541347
0.567681
0.600013
0.638881
0.684528
0.023085
0.0228984
0.0224532
0.0216981
0.0206394
0.0192989
0.0176955
0.0158454
0.0137654
0.0114782
0.0263054
0.0260969
0.0255981
0.0247517
0.023565
0.0220631
0.0202671
0.0181961
0.0158677
0.0133134
0.0331411
0.0328843
0.0322698
0.0312267
0.0297644
0.0279144
0.0257034
0.0231565
0.0202941
0.0171682
0.0444266
0.0440881
0.0432779
0.0419027
0.0399739
0.0375319
0.0346105
0.0312422
0.0274467
0.0233079
0.0615779
0.0611145
0.060006
0.0581238
0.0554813
0.0521296
0.0481105
0.0434678
0.0382192
0.032511
0.086757
0.0861125
0.0845736
0.0819605
0.0782806
0.0735861
0.0679114
0.0612945
0.0537158
0.0453841
0.123091
0.122205
0.120103
0.11654
0.111501
0.105009
0.0970597
0.0876614
0.0767366
0.0646203
0.1747
0.173571
0.170905
0.16638
0.15989
0.151326
0.1405
0.127196
0.111008
0.0920213
0.245531
0.244415
0.241779
0.237195
0.230325
0.220739
0.207868
0.191052
0.169545
0.14279
0.335429
0.334729
0.33318
0.330305
0.325321
0.31699
0.303541
0.28258
0.251472
0.206855
0.00956055
0.00813992
0.00667596
0.00518291
0.00366014
0.00210872
0.00053296
-0.00106196
-0.00267119
-0.00429027
0.0111567
0.00956172
0.00791777
0.00625404
0.00456574
0.00284976
0.00110996
-0.000647505
-0.00241688
-0.004193
0.0144872
0.0124922
0.0104469
0.00841379
0.0063763
0.00432081
0.00224969
0.000170458
-0.00191052
-0.00398832
0.0196677
0.0169392
0.014184
0.0115074
0.00886133
0.00621297
0.00356405
0.000925774
-0.00169401
-0.00429047
0.0273702
0.0234813
0.019636
0.0159983
0.0124557
0.00894036
0.00545361
0.00201221
-0.00137552
-0.00470754
0.0376318
0.0316804
0.0259402
0.0206496
0.0155593
0.0105382
0.00559318
0.000755522
-0.00396224
-0.00855967
0.0531685
0.0440956
0.0354665
0.0277561
0.0204897
0.0133971
0.00648054
-0.000201405
-0.00662738
-0.0128045
0.0734244
0.0577264
0.0427734
0.0298613
0.0180099
0.00654328
-0.00460968
-0.015361
-0.0256875
-0.0356158
0.117545
0.0916297
0.0648379
0.0419991
0.0218789
0.00320512
-0.0141053
-0.0298413
-0.0439764
-0.0566259
0.168014
0.127027
0.0816791
0.0386099
-0.00312852
-0.0440076
-0.0834109
-0.120756
-0.155774
-0.188381
-0.00591488
-0.00754088
-0.00916427
-0.0107813
-0.0123885
-0.0139824
-0.01556
-0.0171183
-0.0186561
-0.0201713
-0.00597086
-0.00774556
-0.00951234
-0.0112667
-0.0130044
-0.0147216
-0.0164147
-0.0180806
-0.019717
-0.0213254
-0.00605843
-0.00811636
-0.0101578
-0.0121786
-0.0141751
-0.0161438
-0.0180817
-0.0199857
-0.0218525
-0.0236894
-0.00685937
-0.00939629
-0.0118969
-0.0143572
-0.0167736
-0.0191429
-0.0214628
-0.0237306
-0.0259403
-0.0281053
-0.00798291
-0.0112002
-0.0143582
-0.0174558
-0.0204924
-0.0234676
-0.0263809
-0.0292307
-0.0320056
-0.0347089
-0.0130372
-0.0173932
-0.0216245
-0.0257277
-0.0296991
-0.0335347
-0.0372308
-0.0407845
-0.0441764
-0.0473748
-0.0187464
-0.0244664
-0.0299801
-0.0353064
-0.0404672
-0.0454858
-0.0503853
-0.0551879
-0.0598935
-0.0643814
-0.0451694
-0.0543513
-0.0631475
-0.0715314
-0.0794655
-0.0869048
-0.0938061
-0.100142
-0.105911
-0.111232
-0.0679404
-0.078083
-0.0872476
-0.0956776
-0.10368
-0.111635
-0.120002
-0.129318
-0.140164
-0.154331
-0.218585
-0.246482
-0.272261
-0.296205
-0.318699
-0.340249
-0.361473
-0.383017
-0.405383
-0.429225
-0.0305333
-0.0410065
-0.0417172
-0.0358594
-0.0281526
-0.0212829
-0.0154574
-0.0104647
-0.00593273
-0.00197471
-0.0327638
-0.043008
-0.0427282
-0.0361563
-0.0281763
-0.021218
-0.0153443
-0.0103428
-0.00583837
-0.00194444
-0.0375856
-0.0471089
-0.0447357
-0.0367593
-0.0282325
-0.0210715
-0.0150994
-0.0100834
-0.00564542
-0.00187985
-0.0458298
-0.0535682
-0.0476978
-0.0376123
-0.0282773
-0.0208018
-0.0146911
-0.00966639
-0.00534271
-0.00178105
-0.0588551
-0.0628293
-0.0515596
-0.0385824
-0.0281891
-0.0203203
-0.0140673
-0.00905815
-0.00491412
-0.0016444
-0.0789465
-0.0756764
-0.0565197
-0.0395819
-0.0277777
-0.0194731
-0.0131403
-0.00820373
-0.0043358
-0.0014508
-0.108184
-0.0929491
-0.0633201
-0.0408369
-0.0269533
-0.0181275
-0.0118277
-0.0070496
-0.00358835
-0.00115221
-0.147776
-0.113851
-0.0727399
-0.0428056
-0.0259034
-0.0163321
-0.0101527
-0.0056144
-0.00269739
-0.000681114
-0.189192
-0.131709
-0.0821687
-0.044236
-0.0244775
-0.0141257
-0.00821725
-0.00402272
-0.00176274
-1.05812e-06
-0.247287
-0.140719
-0.0881708
-0.0427772
-0.0227441
-0.0117332
-0.00636815
-0.00253911
-0.00100107
0.000841063
-0.313818
-0.148817
-0.091791
-0.0395223
-0.0222457
-0.0104015
-0.00565164
-0.00179939
-0.000835327
0.00149431
-0.321623
-0.146442
-0.09068
-0.037821
-0.0217434
-0.00990959
-0.00540697
-0.00160845
-0.000775634
0.0016409
-0.316846
-0.140937
-0.088231
-0.0359231
-0.0210979
-0.00941193
-0.00515946
-0.00144338
-0.000704794
0.00175206
-0.311143
-0.136921
-0.0864066
-0.0344727
-0.0206064
-0.00900608
-0.00495426
-0.00130293
-0.000642357
0.00185076
-0.306251
-0.134017
-0.0850284
-0.0333046
-0.0202184
-0.00866497
-0.0047822
-0.00118171
-0.000589915
0.00193955
-0.301647
-0.131571
-0.0838337
-0.0323182
-0.0198907
-0.00837517
-0.00463726
-0.00107939
-0.000545925
0.00201565
-0.297462
-0.129514
-0.0828171
-0.031518
-0.0196224
-0.00813943
-0.00451995
-0.000996936
-0.000510187
0.0020775
-0.294051
-0.127923
-0.082028
-0.0309179
-0.0194195
-0.00796131
-0.0044315
-0.000934875
-0.000483053
0.00212444
-0.291659
-0.126842
-0.0814926
-0.0305196
-0.019284
-0.00784221
-0.00437242
-0.000893407
-0.000464807
0.00215603
-0.290429
-0.126294
-0.0812221
-0.0303211
-0.0192162
-0.00778258
-0.00434286
-0.000872631
-0.00045561
0.00217193
)
;

boundaryField
{
    inlet
    {
        type            zeroGradient;
    }
    outlet
    {
        type            fixedValue;
        value           uniform 0;
    }
    cylinder
    {
        type            zeroGradient;
    }
    top
    {
        type            symmetryPlane;
    }
    bottom
    {
        type            symmetryPlane;
    }
    defaultFaces
    {
        type            empty;
    }
}


// ************************************************************************* //
