/*--------------------------------*- C++ -*----------------------------------*\
  =========                 |
  \\      /  F ield         | OpenFOAM: The Open Source CFD Toolbox
   \\    /   O peration     | Website:  https://openfoam.org
    \\  /    A nd           | Version:  6.0
     \\/     M anipulation  |
\*---------------------------------------------------------------------------*/
FoamFile
{
    version     2.0;
    format      ascii;
    class       volVectorField;
    location    "61";
    object      U;
}
// * * * * * * * * * * * * * * * * * * * * * * * * * * * * * * * * * * * * * //

dimensions      [0 1 -1 0 0 0 0];

internalField   nonuniform List<vector> 
2000
(
(-0.00199122 0.00173832 5.72897e-20)
(-0.00762155 0.00330247 6.80425e-20)
(-0.0153301 0.00366169 -6.48677e-20)
(-0.0223323 0.00333734 -1.32364e-19)
(-0.0276803 0.00263967 -9.24634e-20)
(-0.0312213 0.00177182 1.23181e-19)
(-0.0330527 0.000879164 7.17491e-20)
(-0.0334436 6.84183e-05 -2.90248e-20)
(-0.0328262 -0.0005813 -7.24566e-20)
(-0.0314952 -0.0010061 5.28305e-20)
(-0.00248969 0.00512127 -1.42005e-19)
(-0.00837064 0.00968535 1.96035e-19)
(-0.0157251 0.0106973 1.95484e-20)
(-0.022025 0.00969708 -1.13551e-19)
(-0.0264593 0.00759782 5.43355e-19)
(-0.0289517 0.00499633 -2.39137e-19)
(-0.0296475 0.00232092 -2.58715e-19)
(-0.0288424 -0.000110097 3.12043e-19)
(-0.0269847 -0.00205501 -3.07747e-19)
(-0.0244468 -0.00332137 1.55254e-19)
(-0.00343574 0.00822482 2.35846e-20)
(-0.00972805 0.0154094 8.3882e-21)
(-0.0163014 0.0168859 5.87514e-19)
(-0.0211436 0.0151399 2.06094e-19)
(-0.0237175 0.0116329 4.08752e-20)
(-0.0240981 0.00731651 3.3802e-19)
(-0.0225237 0.00287655 -6.42024e-19)
(-0.0193385 -0.00116418 1.39244e-20)
(-0.0150202 -0.0043889 -3.79647e-19)
(-0.0101031 -0.00647402 4.18227e-19)
(-0.00472402 0.0108679 -4.4365e-20)
(-0.0114033 0.0200601 2.55239e-19)
(-0.0166177 0.0217187 -7.43651e-19)
(-0.0191361 0.0191489 -9.61237e-20)
(-0.018832 0.0142672 -5.47352e-19)
(-0.0160035 0.00831129 5.66872e-19)
(-0.0110227 0.00217596 -6.01274e-19)
(-0.00429656 -0.00342977 4.22266e-19)
(0.00366269 -0.00789614 1.77522e-19)
(0.012063 -0.010764 -2.00596e-19)
(-0.00618704 0.0128747 -4.93784e-19)
(-0.0129399 0.0232572 4.45591e-21)
(-0.0159822 0.0247662 9.1607e-19)
(-0.0151343 0.0213425 2.74634e-19)
(-0.0108146 0.0152249 -8.73239e-19)
(-0.00361588 0.00783519 5.42998e-19)
(0.00591809 0.000196218 6.15479e-19)
(0.0173136 -0.00683859 -5.48747e-19)
(0.0300352 -0.0124519 3.91252e-19)
(0.042923 -0.0160462 9.60768e-20)
(-0.00758375 0.0140743 6.7497e-20)
(-0.0136957 0.0246647 1.25187e-20)
(-0.0134291 0.0257004 -1.17119e-18)
(-0.00792071 0.0215113 -6.55218e-19)
(0.00173556 0.014492 7.8162e-19)
(0.0145785 0.0061154 -9.15309e-19)
(0.0298492 -0.00258966 1.04885e-18)
(0.0470084 -0.010714 -9.05979e-20)
(0.0655389 -0.0172483 -2.95075e-19)
(0.0837985 -0.0214696 -8.57616e-19)
(-0.0085878 0.014304 -1.46871e-19)
(-0.0128317 0.0240055 -2.68247e-19)
(-0.00771333 0.0243086 -3.29555e-19)
(0.00407928 0.0196268 7.03031e-19)
(0.0206595 0.0123268 1.30412e-18)
(0.0406175 0.00378469 -2.69543e-19)
(0.0629138 -0.00513204 -6.5602e-19)
(0.0869287 -0.0136318 2.00087e-19)
(0.112249 -0.020614 -1.26006e-18)
(0.136672 -0.0252821 1.38407e-18)
(-0.00878373 0.0134241 8.98269e-19)
(-0.00932803 0.0210859 -4.90318e-19)
(0.00264608 0.0205022 9.57249e-19)
(0.0227355 0.0158174 -1.56395e-18)
(0.0481732 0.00920559 -7.4728e-19)
(0.0770138 0.00182627 -1.03508e-18)
(0.107829 -0.00579393 3.00719e-19)
(0.139842 -0.0132482 -8.37261e-19)
(0.172876 -0.0195726 1.82327e-18)
(0.204272 -0.0240791 5.10389e-19)
(-0.00768223 0.0113475 6.61293e-20)
(-0.00204466 0.015839 7.98689e-19)
(0.0192553 0.0143225 1.58718e-18)
(0.0500645 0.0103001 4.85007e-19)
(0.0867017 0.00565931 1.43555e-18)
(0.126594 0.0013601 7.86848e-20)
(0.167732 -0.00240708 -7.09216e-22)
(0.208919 -0.00569221 5.78752e-19)
(0.250232 -0.00783843 4.68105e-19)
(0.289113 -0.00926202 -1.51927e-18)
(-0.00477046 0.00808577 -5.32098e-19)
(0.0101469 0.00838451 -8.91187e-19)
(0.0436435 0.00593786 -1.29537e-18)
(0.0879959 0.00320911 3.0611e-20)
(0.138749 0.00175691 -6.60369e-19)
(0.192804 0.00254294 1.04082e-18)
(0.247586 0.0058895 -2.86548e-18)
(0.301159 0.0120154 1.28647e-18)
(0.352881 0.0215154 4.83549e-19)
(0.400028 0.0302481 1.51713e-18)
(0.000388681 0.00380852 2.66173e-19)
(0.0281179 -0.000874418 -1.01894e-18)
(0.0768093 -0.00427283 9.09816e-19)
(0.137563 -0.0054614 -3.52977e-19)
(0.205553 -0.00344238 3.83943e-19)
(0.277819 0.0027079 8.35867e-19)
(0.352527 0.0137259 -1.12225e-18)
(0.429273 0.0305533 1.45809e-19)
(0.509035 0.0524535 -5.37766e-19)
(0.594169 0.0694539 1.0911e-18)
(0.00806019 -0.00110794 3.81364e-19)
(0.0522601 -0.0110931 -9.23804e-19)
(0.118756 -0.0153294 1.25868e-18)
(0.197748 -0.0150187 -7.83865e-19)
(0.284048 -0.0102793 -2.87556e-19)
(0.374602 -0.000971782 1.70247e-19)
(0.467604 0.0128154 8.80211e-20)
(0.562487 0.0307703 1.19394e-18)
(0.658901 0.0501773 3.4371e-19)
(0.754557 0.0623404 1.46941e-18)
(0.018352 -0.00610193 -3.40399e-19)
(0.0826125 -0.0209185 1.19443e-18)
(0.169007 -0.0252636 -9.96637e-19)
(0.267054 -0.022831 -1.16885e-18)
(0.371087 -0.0151006 1.63535e-18)
(0.477614 -0.00286559 -1.24343e-18)
(0.584238 0.0129433 3.28446e-19)
(0.689404 0.0312141 -1.94708e-18)
(0.791332 0.0492643 1.45849e-18)
(0.886039 0.0617496 7.28722e-20)
(0.0312702 -0.0105458 -4.43622e-19)
(0.118976 -0.0287937 -4.28431e-19)
(0.226869 -0.0317842 -9.1231e-19)
(0.344062 -0.0258912 1.10583e-18)
(0.464446 -0.0140392 -5.58542e-20)
(0.584059 0.00207635 7.14918e-19)
(0.699967 0.0208543 1.30421e-18)
(0.809928 0.0407968 -4.00789e-19)
(0.911575 0.0598094 -1.4176e-18)
(1.0009 0.0748785 2.81449e-18)
(0.0467452 -0.0138316 -2.29305e-19)
(0.16091 -0.0332167 -2.73515e-19)
(0.291339 -0.03278 4.92212e-19)
(0.427113 -0.0216645 -9.1489e-19)
(0.561883 -0.00426152 1.56304e-19)
(0.691439 0.0168805 1.39095e-19)
(0.812661 0.039613 6.1e-20)
(0.923199 0.0622304 -9.85865e-21)
(1.02086 0.0832295 -1.49426e-19)
(1.10226 0.100992 -2.37938e-18)
(0.0646184 -0.0153976 9.30814e-19)
(0.207682 -0.0328631 -6.49605e-19)
(0.360982 -0.0265371 8.30768e-21)
(0.514052 -0.00833832 -9.89342e-19)
(0.660652 0.0159069 -3.53958e-19)
(0.7967 0.0428758 3.30956e-19)
(0.919359 0.0699943 2.57015e-19)
(1.02673 0.0954718 -9.15863e-19)
(1.11735 0.118343 7.48588e-19)
(1.18885 0.137793 -9.81504e-19)
(0.0846109 -0.0147325 4.01744e-19)
(0.258228 -0.0266431 -3.57043e-19)
(0.433899 -0.0118354 1.48301e-18)
(0.602223 0.015101 1.51203e-19)
(0.757549 0.0470193 3.47494e-19)
(0.89641 0.0799696 1.54879e-18)
(1.01678 0.111131 -2.36812e-19)
(1.11772 0.138798 2.1577e-19)
(1.19888 0.162564 8.93471e-20)
(1.25919 0.182097 -1.09969e-19)
(0.106293 -0.0113861 2.80676e-19)
(0.31114 -0.0137427 6.7481e-19)
(0.507779 0.0120121 -7.22883e-19)
(0.688607 0.0488896 -2.44722e-19)
(0.849157 0.0886661 -3.02307e-19)
(0.987142 0.127018 4.68411e-19)
(1.10185 0.161148 -2.43644e-19)
(1.19374 0.189675 6.55496e-19)
(1.26384 0.212847 2.20581e-19)
(1.31249 0.230667 -3.59616e-19)
(0.129071 -0.00499455 -3.02463e-19)
(0.364701 0.00632851 2.68841e-19)
(0.580014 0.0451371 -5.73656e-19)
(0.770037 0.092543 2.47447e-19)
(0.932157 0.139656 -2.56758e-19)
(1.06583 0.182158 -3.20444e-19)
(1.17213 0.217628 -2.57328e-19)
(1.25319 0.245301 2.8758e-19)
(1.3115 0.266204 -5.42199e-19)
(1.34885 0.280637 3.27669e-19)
(0.152191 0.00468204 -1.07814e-19)
(0.416945 0.0336823 -2.10896e-19)
(0.647852 0.0871017 1.00428e-19)
(0.84343 0.144924 6.1918e-21)
(1.0036 0.198186 8.3329e-20)
(1.13007 0.243068 1.1432e-19)
(1.22601 0.277938 1.05949e-19)
(1.29535 0.302935 -1.40493e-19)
(1.34201 0.31998 1.19606e-19)
(1.36911 0.329676 -1.87177e-19)
(0.174775 0.017719 -6.2409e-20)
(0.465772 0.0680015 -2.34114e-20)
(0.708577 0.1369 9.31611e-20)
(0.906006 0.204326 -4.28881e-20)
(1.0611 0.262007 1.14309e-19)
(1.17821 0.307192 -1.47593e-19)
(1.26274 0.33945 3.42079e-20)
(1.32037 0.360077 3.67045e-20)
(1.35627 0.371952 -1.53843e-20)
(1.37464 0.375987 5.82064e-20)
(0.195856 0.0339917 -6.73276e-20)
(0.509069 0.10851 -3.04676e-19)
(0.759689 0.192985 -2.11022e-20)
(0.955467 0.268575 6.27142e-21)
(1.10299 0.328579 -3.96269e-19)
(1.20943 0.371907 5.23873e-20)
(1.28239 0.399693 -4.46e-20)
(1.3291 0.414557 -1.07575e-19)
(1.35567 0.42033 2.24274e-19)
(1.36714 0.418232 -4.0892e-19)
(0.214444 0.0531504 -3.25169e-20)
(0.54485 0.15397 6.17055e-19)
(0.799063 0.253335 9.94241e-20)
(0.990133 0.335148 -5.43236e-19)
(1.12837 0.395217 -4.40512e-20)
(1.22372 0.434653 -5.20568e-19)
(1.28574 0.456425 3.81585e-19)
(1.32289 0.464538 -1.38445e-19)
(1.34191 0.463703 2.45594e-19)
(1.34841 0.45542 -1.79439e-19)
(0.229586 0.0746121 -2.0505e-19)
(0.571392 0.202718 1.95837e-19)
(0.825092 0.315541 -1.41351e-19)
(1.00902 0.401307 1.06544e-18)
(1.13708 0.459222 5.25825e-19)
(1.22172 0.493027 -1.21913e-19)
(1.27409 0.507671 4.10712e-19)
(1.30345 0.508499 -2.7025e-19)
(1.31688 0.500956 -7.52864e-20)
(1.32028 0.486799 4.93966e-19)
(0.240435 0.0975683 -3.54914e-19)
(0.587355 0.252731 4.51646e-19)
(0.836772 0.376931 -8.88608e-19)
(1.01185 0.464233 1.24791e-19)
(1.12966 0.51799 2.78861e-19)
(1.20468 0.544843 -4.27647e-19)
(1.24914 0.551725 -4.97907e-19)
(1.27272 0.545172 2.18553e-19)
(1.28252 0.531184 -2.63162e-19)
(1.28453 0.511755 3.15937e-19)
(0.246311 0.121012 -8.96743e-20)
(0.591872 0.301725 -4.59564e-19)
(0.833754 0.434707 2.5425e-19)
(0.999029 0.521159 4.26361e-19)
(1.10725 0.569097 -2.564e-19)
(1.17428 0.588156 -1.91024e-19)
(1.21287 0.587119 -1.04298e-19)
(1.23273 0.573484 -5.15615e-20)
(1.24077 0.553598 1.07858e-20)
(1.24291 0.52972 1.07507e-19)
(0.246758 0.143785 6.5818e-20)
(0.584617 0.347278 -3.85616e-19)
(0.816339 0.486098 6.43162e-19)
(0.971581 0.569494 -3.81066e-19)
(1.07145 0.610386 1.06475e-19)
(1.13247 0.621291 -1.51051e-19)
(1.16741 0.612602 1.62613e-19)
(1.18559 0.592496 3.11453e-20)
(1.19356 0.567431 -7.80191e-20)
(1.19711 0.540022 1.51532e-19)
(0.241593 0.164635 -1.73025e-19)
(0.565832 0.386974 3.38031e-19)
(0.785448 0.528508 -1.52033e-20)
(0.931025 0.60695 -7.32218e-20)
(1.02419 0.640033 -2.01308e-19)
(1.08145 0.642882 2.48047e-20)
(1.11501 0.627183 6.15373e-20)
(1.1335 0.601458 -1.51526e-19)
(1.14302 0.571983 1.76974e-19)
(1.1492 0.541879 1.5033e-19)
(0.230935 0.18231 3.84255e-20)
(0.536325 0.418561 -8.09269e-20)
(0.742531 0.559669 2.42483e-20)
(0.879238 0.631621 1.24393e-20)
(0.967553 0.656554 7.79803e-20)
(1.02334 0.651785 -1.4407e-19)
(1.05788 0.629967 -3.01356e-19)
(1.07891 0.599657 -1.22932e-19)
(1.09213 0.566623 -1.57126e-19)
(1.10255 0.534701 1.3313e-19)
(0.21523 0.195653 1.1079e-19)
(0.497429 0.44013 -1.71725e-19)
(0.689467 0.577805 1.6575e-19)
(0.818262 0.64211 -3.14837e-19)
(0.903421 0.658818 7.63862e-20)
(0.959695 0.646834 5.16206e-19)
(0.997277 0.619363 -1.58295e-19)
(1.02316 0.584703 1.88173e-19)
(1.04271 0.548005 2.75481e-19)
(1.05903 0.515028 1.002e-18)
(0.195249 0.203726 6.80466e-19)
(0.450967 0.450295 -4.63022e-19)
(0.628513 0.581864 1.12683e-18)
(0.750268 0.637905 -1.92984e-19)
(0.833389 0.646758 9.66777e-19)
(0.891057 0.628052 6.06548e-19)
(0.93231 0.594737 -1.42499e-18)
(0.96357 0.55388 2.16352e-18)
(0.989456 0.507899 -4.57216e-19)
(1.00632 0.461007 8.99681e-19)
(0.17205 0.205874 -3.75361e-19)
(0.399204 0.448254 -2.67608e-19)
(0.562391 0.571529 2.58805e-19)
(0.677928 0.619481 -6.41015e-19)
(0.759661 0.622009 -2.00217e-18)
(0.818699 0.598991 -8.05201e-19)
(0.862692 0.563188 -7.25751e-19)
(0.897113 0.521741 3.51223e-19)
(0.925116 0.478159 2.92727e-18)
(0.942605 0.437392 -6.08909e-19)
(0.146894 0.201721 1.97538e-19)
(0.344727 0.433649 -7.99431e-19)
(0.494241 0.546774 1.75834e-19)
(0.604666 0.587133 -1.28048e-18)
(0.686058 0.585016 2.80349e-18)
(0.747292 0.559929 -3.24926e-19)
(0.794583 0.52408 1.52765e-18)
(0.832423 0.484256 -2.18835e-18)
(0.863341 0.443962 6.8654e-19)
(0.884648 0.407477 1.06207e-19)
(0.121118 0.191156 1.4562e-19)
(0.290163 0.40655 8.8173e-19)
(0.427119 0.507894 -2.58996e-18)
(0.533587 0.541229 1.26029e-18)
(0.615632 0.535982 -4.16092e-21)
(0.679887 0.510616 -4.25288e-19)
(0.731204 0.476429 5.35228e-19)
(0.773235 0.439624 -5.31935e-19)
(0.808164 0.403351 -1.82851e-18)
(0.834247 0.370865 -5.01007e-19)
(0.0960486 0.174334 4.76481e-19)
(0.238033 0.367474 5.34623e-19)
(0.363854 0.455615 2.20822e-18)
(0.467419 0.482513 -1.22844e-18)
(0.550831 0.4755 2.53214e-18)
(0.618565 0.451352 -5.45426e-19)
(0.674213 0.420139 -5.76535e-19)
(0.720699 0.387299 6.81307e-19)
(0.759931 0.355514 4.4421e-19)
(0.790869 0.327125 1.6106e-18)
(0.0729448 0.15167 -4.8356e-19)
(0.190664 0.317376 1.57842e-19)
(0.306988 0.391111 4.26869e-20)
(0.408535 0.412151 1.25235e-18)
(0.493702 0.404588 -3.12607e-18)
(0.56499 0.382953 5.31054e-19)
(0.624864 0.35582 1.17263e-18)
(0.675617 0.327751 -1.41765e-18)
(0.718933 0.30091 4.99431e-19)
(0.754394 0.276898 -2.31789e-18)
(0.0529468 0.123826 1.0305e-19)
(0.150114 0.257626 5.55921e-19)
(0.258722 0.315974 2.16216e-19)
(0.358945 0.331692 2.93022e-19)
(0.445941 0.324635 5.61475e-19)
(0.520504 0.306609 1.67169e-18)
(0.584154 0.284488 -2.04677e-18)
(0.638655 0.261882 -1.1528e-18)
(0.685522 0.240441 1.9104e-19)
(0.724903 0.221195 1.50298e-18)
(0.0370318 0.0916908 -6.23151e-19)
(0.118111 0.189953 -7.41314e-20)
(0.220874 0.23216 -6.20981e-19)
(0.320288 0.243022 8.84369e-20)
(0.408909 0.237333 -5.31594e-19)
(0.486184 0.2238 -6.0691e-19)
(0.55289 0.207442 -9.04451e-19)
(0.610384 0.190868 2.43725e-18)
(0.660066 0.175233 4.20486e-19)
(0.702561 0.161149 -6.40957e-19)
(0.0259729 0.0563424 3.35847e-19)
(0.0960029 0.116392 4.43912e-19)
(0.194847 0.141927 1.74894e-19)
(0.293812 0.148292 -9.43904e-19)
(0.38364 0.144613 -4.3943e-19)
(0.462844 0.136226 -9.4624e-20)
(0.531693 0.126185 1.84898e-19)
(0.591264 0.116066 1.48465e-19)
(0.642892 0.106552 -1.14804e-18)
(0.687548 0.0979586 6.58768e-19)
(0.0203063 0.0190052 -1.74895e-19)
(0.084714 0.0392055 -1.98972e-19)
(0.181592 0.0477519 1.58584e-19)
(0.280361 0.0498476 1.40795e-19)
(0.37083 0.0485767 1.44295e-19)
(0.451036 0.045736 2.20675e-19)
(0.520987 0.0423507 -1.16023e-20)
(0.581621 0.0389482 -2.89467e-19)
(0.634242 0.0357541 2.74962e-19)
(0.680003 0.0328652 -4.13692e-19)
(0.0203063 -0.0190052 -1.76045e-19)
(0.084714 -0.0392057 -1.89616e-19)
(0.181592 -0.0477521 1.74745e-19)
(0.280362 -0.0498478 3.42135e-19)
(0.370831 -0.0485769 2.27968e-19)
(0.451036 -0.0457362 -3.00378e-19)
(0.520987 -0.0423509 -1.63223e-19)
(0.581621 -0.0389484 7.11807e-20)
(0.634242 -0.0357543 1.60033e-19)
(0.680003 -0.0328653 -9.52972e-20)
(0.0259729 -0.0563424 4.20122e-19)
(0.0960029 -0.116392 -5.3393e-19)
(0.194847 -0.141927 -4.44096e-20)
(0.293812 -0.148292 2.95834e-19)
(0.38364 -0.144614 -1.33752e-18)
(0.462844 -0.136227 5.71508e-19)
(0.531693 -0.126185 5.8996e-19)
(0.591264 -0.116066 -6.96475e-19)
(0.642892 -0.106552 6.65299e-19)
(0.687548 -0.0979587 -2.92006e-19)
(0.0370318 -0.0916908 -7.26359e-20)
(0.118111 -0.189953 -9.26705e-21)
(0.220874 -0.23216 -1.44218e-18)
(0.320288 -0.243022 -4.58787e-19)
(0.408909 -0.237333 -4.83722e-20)
(0.486184 -0.2238 -7.54747e-19)
(0.55289 -0.207442 1.40629e-18)
(0.610384 -0.190868 -4.94209e-20)
(0.660066 -0.175233 8.03023e-19)
(0.702561 -0.161149 -7.06085e-19)
(0.0529469 -0.123826 1.22673e-19)
(0.150114 -0.257626 -5.67947e-19)
(0.258722 -0.315974 1.74758e-18)
(0.358945 -0.331692 2.47299e-19)
(0.445941 -0.324635 1.21578e-18)
(0.520504 -0.306609 -1.18859e-18)
(0.584154 -0.284488 1.24778e-18)
(0.638655 -0.261882 -8.99614e-19)
(0.685522 -0.240441 -3.95066e-19)
(0.724903 -0.221195 3.35615e-19)
(0.0729448 -0.15167 1.09541e-18)
(0.190664 -0.317377 2.80495e-21)
(0.306988 -0.391112 -1.84178e-18)
(0.408535 -0.412151 -5.34359e-19)
(0.493702 -0.404589 1.77429e-18)
(0.56499 -0.382954 -1.03984e-18)
(0.624864 -0.355821 -1.2038e-18)
(0.675617 -0.327751 1.08311e-18)
(0.718933 -0.300911 -7.37382e-19)
(0.754394 -0.276898 -1.58974e-19)
(0.0960486 -0.174334 -1.63517e-19)
(0.238033 -0.367474 -7.75591e-21)
(0.363854 -0.455615 1.99878e-18)
(0.467419 -0.482513 1.14608e-18)
(0.550831 -0.4755 -1.35151e-18)
(0.618565 -0.451352 1.63639e-18)
(0.674213 -0.420139 -1.77566e-18)
(0.720699 -0.387299 1.76701e-19)
(0.759931 -0.355515 5.2888e-19)
(0.790869 -0.327125 1.22377e-18)
(0.121118 -0.191156 1.87439e-19)
(0.290163 -0.40655 3.01847e-19)
(0.427119 -0.507894 3.2834e-19)
(0.533587 -0.541229 -1.05559e-18)
(0.615632 -0.535983 -1.8803e-18)
(0.679887 -0.510616 3.95966e-19)
(0.731204 -0.47643 1.14585e-18)
(0.773236 -0.439624 -3.27996e-19)
(0.808165 -0.403351 1.97471e-18)
(0.834247 -0.370865 -1.92479e-18)
(0.146894 -0.201721 -1.06107e-18)
(0.344727 -0.433649 4.07729e-19)
(0.494241 -0.546774 -1.10093e-18)
(0.604666 -0.587133 1.77982e-18)
(0.686058 -0.585016 8.89983e-19)
(0.747292 -0.559929 1.25656e-18)
(0.794583 -0.52408 -2.90795e-19)
(0.832423 -0.484257 1.14574e-18)
(0.863341 -0.443962 -2.42576e-18)
(0.884648 -0.407477 -6.32411e-19)
(0.17205 -0.205874 6.24626e-20)
(0.399204 -0.448254 -7.12843e-19)
(0.562391 -0.571529 -1.14141e-18)
(0.677928 -0.619481 -4.83607e-19)
(0.759661 -0.622009 -1.36659e-18)
(0.818699 -0.598991 -1.38992e-19)
(0.862692 -0.563188 1.18832e-19)
(0.897113 -0.521741 -5.3402e-19)
(0.925116 -0.478159 -5.968e-19)
(0.942605 -0.437392 1.57391e-18)
(0.195249 -0.203726 3.3542e-19)
(0.450967 -0.450295 4.68417e-19)
(0.628513 -0.581864 8.39157e-19)
(0.750268 -0.637905 3.72162e-20)
(0.833389 -0.646759 5.59894e-19)
(0.891057 -0.628052 -7.66693e-19)
(0.93231 -0.594737 2.34079e-18)
(0.96357 -0.553881 -1.03351e-18)
(0.989456 -0.507899 -5.07573e-19)
(1.00632 -0.461007 -1.53054e-18)
(0.21523 -0.195653 -1.32115e-19)
(0.49743 -0.44013 2.33405e-19)
(0.689467 -0.577805 -2.39181e-19)
(0.818263 -0.64211 1.28947e-19)
(0.903421 -0.658818 -1.52379e-19)
(0.959695 -0.646834 -3.90805e-19)
(0.997278 -0.619363 5.14084e-19)
(1.02316 -0.584703 -1.68155e-19)
(1.04271 -0.548005 2.60874e-19)
(1.05903 -0.515028 -5.69261e-19)
(0.230935 -0.18231 -7.39293e-21)
(0.536325 -0.418562 -1.06459e-19)
(0.742531 -0.559669 2.11689e-20)
(0.879239 -0.631621 1.44576e-19)
(0.967553 -0.656554 -6.53306e-20)
(1.02334 -0.651785 1.75392e-20)
(1.05788 -0.629967 -1.71898e-20)
(1.07891 -0.599657 -3.8337e-19)
(1.09213 -0.566623 -1.77961e-19)
(1.10255 -0.534701 -5.59994e-19)
(0.241593 -0.164635 -9.6128e-20)
(0.565832 -0.386974 3.39232e-19)
(0.785448 -0.528508 -2.10752e-19)
(0.931025 -0.60695 -7.59509e-20)
(1.02419 -0.640034 3.3908e-20)
(1.08145 -0.642882 7.15254e-20)
(1.11501 -0.627184 -7.02396e-21)
(1.1335 -0.601458 2.92468e-19)
(1.14302 -0.571983 -2.52729e-19)
(1.1492 -0.541879 -3.58086e-21)
(0.246759 -0.143785 -2.36704e-19)
(0.584617 -0.347278 -1.48237e-19)
(0.816339 -0.486098 -3.68094e-19)
(0.971581 -0.569494 4.18719e-19)
(1.07145 -0.610386 -3.0702e-20)
(1.13247 -0.621291 1.36099e-19)
(1.16741 -0.612602 1.53587e-19)
(1.18559 -0.592496 -5.58709e-20)
(1.19356 -0.567431 5.05039e-20)
(1.19711 -0.540022 -1.599e-19)
(0.246311 -0.121012 -1.61017e-19)
(0.591872 -0.301725 -2.06832e-19)
(0.833754 -0.434707 3.11655e-19)
(0.999029 -0.521159 -4.68253e-19)
(1.10725 -0.569097 8.2257e-20)
(1.17428 -0.588156 4.15732e-20)
(1.21287 -0.587119 9.19865e-20)
(1.23273 -0.573485 -6.04728e-20)
(1.24077 -0.553598 -7.24202e-20)
(1.24291 -0.52972 -2.35864e-19)
(0.240435 -0.0975683 6.71295e-19)
(0.587355 -0.252731 -5.25369e-19)
(0.836772 -0.376931 2.45462e-20)
(1.01185 -0.464233 -6.73194e-19)
(1.12966 -0.51799 -1.95425e-19)
(1.20468 -0.544843 1.56343e-19)
(1.24914 -0.551725 1.14543e-19)
(1.27272 -0.545172 -3.8206e-19)
(1.28252 -0.531184 1.67682e-19)
(1.28453 -0.511755 -3.02424e-19)
(0.229586 -0.0746121 3.33147e-19)
(0.571392 -0.202718 -3.29717e-19)
(0.825092 -0.315541 1.18316e-18)
(1.00902 -0.401307 9.43458e-20)
(1.13708 -0.459223 2.68321e-19)
(1.22172 -0.493028 9.57147e-19)
(1.27409 -0.507671 -1.98961e-19)
(1.30345 -0.508499 4.83136e-20)
(1.31688 -0.500956 -2.8439e-20)
(1.32028 -0.486799 -4.95283e-20)
(0.214444 -0.0531504 2.56805e-19)
(0.54485 -0.15397 5.83527e-19)
(0.799063 -0.253335 -5.94775e-19)
(0.990133 -0.335148 -1.80661e-19)
(1.12837 -0.395217 -1.91267e-19)
(1.22372 -0.434653 3.76543e-19)
(1.28574 -0.456425 -1.77681e-19)
(1.32289 -0.464539 4.18931e-19)
(1.34191 -0.463703 1.00803e-19)
(1.34841 -0.455421 -1.77283e-19)
(0.195856 -0.0339917 -2.77401e-19)
(0.509069 -0.10851 2.57422e-19)
(0.759689 -0.192986 -5.28491e-19)
(0.955467 -0.268575 2.21265e-19)
(1.10299 -0.328579 -2.21762e-19)
(1.20943 -0.371907 -2.63695e-19)
(1.28239 -0.399693 -2.04601e-19)
(1.3291 -0.414557 2.25738e-19)
(1.35567 -0.42033 -3.92356e-19)
(1.36714 -0.418232 2.48386e-19)
(0.174775 -0.017719 -1.03925e-19)
(0.465772 -0.0680015 -2.03935e-19)
(0.708577 -0.1369 9.59353e-20)
(0.906006 -0.204326 7.08307e-21)
(1.0611 -0.262007 7.63529e-20)
(1.17821 -0.307193 1.09396e-19)
(1.26274 -0.339451 9.31489e-20)
(1.32037 -0.360077 -1.2603e-19)
(1.35627 -0.371952 1.02735e-19)
(1.37464 -0.375987 -1.62285e-19)
(0.152191 -0.00468204 -6.54857e-20)
(0.416945 -0.0336823 -2.63952e-20)
(0.647852 -0.0871018 9.83492e-20)
(0.84343 -0.144924 -4.43695e-20)
(1.0036 -0.198186 1.2417e-19)
(1.13007 -0.243068 -1.56951e-19)
(1.22601 -0.277938 4.03216e-20)
(1.29535 -0.302935 3.46031e-20)
(1.34201 -0.31998 -1.23614e-20)
(1.36911 -0.329676 5.67346e-20)
(0.129071 0.00499455 -7.85608e-20)
(0.364701 -0.00632851 -3.33061e-19)
(0.580014 -0.0451371 -2.68241e-20)
(0.770037 -0.092543 1.07068e-20)
(0.932157 -0.139656 -4.61989e-19)
(1.06583 -0.182158 4.87855e-20)
(1.17213 -0.217628 -5.16874e-20)
(1.25319 -0.245301 -1.40585e-19)
(1.3115 -0.266204 3.11069e-19)
(1.34885 -0.280637 -5.6593e-19)
(0.106293 0.0113861 -4.45383e-20)
(0.31114 0.0137427 7.14363e-19)
(0.507779 -0.0120121 9.5279e-20)
(0.688607 -0.0488896 -6.45309e-19)
(0.849157 -0.0886661 -7.72718e-20)
(0.987142 -0.127018 -7.27702e-19)
(1.10185 -0.161148 5.65835e-19)
(1.19374 -0.189675 -2.29656e-19)
(1.26384 -0.212847 4.35298e-19)
(1.31249 -0.230667 -3.84018e-19)
(0.0846109 0.0147325 -2.51896e-19)
(0.258228 0.0266431 2.93296e-19)
(0.433899 0.0118353 -2.04868e-19)
(0.602223 -0.015101 1.41611e-18)
(0.757549 -0.0470193 7.49593e-19)
(0.89641 -0.0799696 -1.96286e-19)
(1.01678 -0.111131 7.6324e-19)
(1.11772 -0.138798 -4.99033e-19)
(1.19888 -0.162564 -1.60482e-19)
(1.25919 -0.182097 1.15951e-18)
(0.0646184 0.0153976 -4.65666e-19)
(0.207682 0.0328631 6.95266e-19)
(0.360982 0.0265371 -1.31852e-18)
(0.514052 0.0083383 2.28231e-19)
(0.660652 -0.0159069 5.69047e-19)
(0.7967 -0.0428758 -7.15098e-19)
(0.919359 -0.0699943 -1.26652e-18)
(1.02673 -0.0954718 6.78961e-19)
(1.11735 -0.118343 -8.83001e-19)
(1.18885 -0.137793 1.41308e-18)
(0.0467451 0.0138316 -1.15116e-19)
(0.16091 0.0332167 -6.99805e-19)
(0.291339 0.03278 3.45452e-19)
(0.427113 0.0216645 8.64152e-19)
(0.561883 0.00426149 -4.6418e-19)
(0.691439 -0.0168806 -4.58077e-19)
(0.812661 -0.0396131 -7.76647e-19)
(0.923199 -0.0622304 -3.55877e-19)
(1.02086 -0.0832296 -8.54664e-20)
(1.10226 -0.100992 1.4122e-18)
(0.0312702 0.0105458 1.93283e-19)
(0.118976 0.0287937 -9.50652e-19)
(0.226869 0.0317842 1.62604e-18)
(0.344062 0.0258912 -9.05439e-19)
(0.464446 0.0140392 5.86632e-19)
(0.584059 -0.00207638 -7.29947e-19)
(0.699967 -0.0208544 8.12985e-19)
(0.809928 -0.0407969 7.10027e-19)
(0.911575 -0.0598094 1.55132e-18)
(1.0009 -0.0748786 -2.56469e-18)
(0.018352 0.00610193 -6.00579e-19)
(0.0826125 0.0209185 1.20597e-18)
(0.169007 0.0252636 1.60936e-20)
(0.267054 0.0228309 -4.34377e-19)
(0.371087 0.0151006 -2.30674e-19)
(0.477614 0.00286555 1.84367e-19)
(0.584238 -0.0129434 -1.30891e-18)
(0.689404 -0.0312141 1.01127e-18)
(0.791332 -0.0492644 -1.30332e-18)
(0.886039 -0.0617497 -5.94913e-19)
(0.00806018 0.00110793 1.03348e-18)
(0.05226 0.011093 -3.22396e-19)
(0.118756 0.0153294 -6.04768e-19)
(0.197748 0.0150186 1.64253e-18)
(0.284048 0.0102792 -1.61348e-18)
(0.374602 0.000971727 9.01467e-19)
(0.467604 -0.0128154 9.60102e-19)
(0.562487 -0.0307704 2.62725e-19)
(0.658901 -0.0501773 2.7325e-19)
(0.754557 -0.0623405 -3.87624e-19)
(0.000388668 -0.00380853 -9.88386e-19)
(0.0281179 0.000874389 9.39446e-19)
(0.0768093 0.00427279 -8.31375e-19)
(0.137563 0.00546134 1.04308e-18)
(0.205553 0.00344231 -3.11633e-19)
(0.277819 -0.00270798 -1.0823e-18)
(0.352527 -0.013726 3.10374e-19)
(0.429273 -0.0305534 -5.1209e-19)
(0.509035 -0.0524535 -6.06526e-19)
(0.594169 -0.069454 -1.8922e-18)
(-0.00477047 -0.00808578 -1.23468e-18)
(0.0101469 -0.00838455 9.81591e-19)
(0.0436435 -0.00593792 -1.92323e-18)
(0.0879959 -0.00320919 3.43907e-19)
(0.138749 -0.001757 -1.33239e-18)
(0.192804 -0.00254304 -7.99099e-19)
(0.247586 -0.00588961 1.91234e-18)
(0.301159 -0.0120155 -2.61443e-18)
(0.352881 -0.0215155 5.03224e-19)
(0.400028 -0.0302483 -8.28662e-19)
(-0.00768224 -0.0113475 6.08184e-19)
(-0.00204469 -0.015839 2.5733e-19)
(0.0192553 -0.0143225 -7.6539e-20)
(0.0500644 -0.0103002 7.30846e-19)
(0.0867017 -0.00565943 2.14607e-18)
(0.126594 -0.00136023 7.40702e-19)
(0.167732 0.00240694 7.65348e-19)
(0.208919 0.00569206 -2.64639e-19)
(0.250232 0.00783825 -2.46851e-18)
(0.289113 0.00926182 6.26041e-19)
(-0.00878374 -0.0134242 -1.71696e-19)
(-0.00932806 -0.0210859 5.46474e-19)
(0.00264604 -0.0205023 -1.43157e-19)
(0.0227355 -0.0158175 1.0108e-18)
(0.0481732 -0.00920574 -2.33706e-18)
(0.0770138 -0.00182644 1.98369e-19)
(0.107829 0.00579376 -1.11226e-18)
(0.139842 0.013248 1.63666e-18)
(0.172876 0.0195723 -4.78384e-19)
(0.204272 0.0240789 -6.83586e-20)
(-0.00858781 -0.014304 -1.16885e-19)
(-0.0128318 -0.0240056 -6.57199e-19)
(-0.00771336 -0.0243087 1.65281e-18)
(0.00407925 -0.0196269 -8.71448e-19)
(0.0206595 -0.012327 6.12484e-20)
(0.0406175 -0.00378489 2.79662e-19)
(0.0629138 0.00513182 -2.55578e-19)
(0.0869287 0.0136316 3.32159e-19)
(0.112249 0.0206138 1.15098e-18)
(0.136672 0.0252818 3.01187e-19)
(-0.00758376 -0.0140743 -2.62164e-19)
(-0.0136957 -0.0246648 -2.916e-19)
(-0.0134291 -0.0257005 -1.29432e-18)
(-0.00792074 -0.0215115 6.89178e-19)
(0.00173554 -0.0144922 -1.4215e-18)
(0.0145785 -0.00611564 3.22935e-19)
(0.0298492 0.0025894 3.63117e-19)
(0.0470084 0.0107138 -3.8374e-19)
(0.065539 0.017248 -2.48272e-19)
(0.0837986 0.0214692 -1.1158e-18)
(-0.00618705 -0.0128748 2.04799e-19)
(-0.0129399 -0.0232573 -4.81727e-20)
(-0.0159822 -0.0247663 9.78713e-22)
(-0.0151343 -0.0213427 -6.21997e-19)
(-0.0108146 -0.0152251 1.57456e-18)
(-0.00361589 -0.00783546 -2.45593e-19)
(0.0059181 -0.000196512 -6.12886e-19)
(0.0173136 0.00683827 7.50145e-19)
(0.0300352 0.0124516 -2.63614e-19)
(0.0429231 0.0160458 1.45709e-18)
(-0.00472403 -0.010868 -3.84395e-20)
(-0.0114033 -0.0200602 -2.25368e-19)
(-0.0166177 -0.0217189 -8.89466e-20)
(-0.0191361 -0.0191491 -1.13633e-19)
(-0.018832 -0.0142674 -2.44308e-19)
(-0.0160035 -0.00831159 -7.67216e-19)
(-0.0110227 -0.00217628 9.59693e-19)
(-0.00429653 0.00342942 5.60607e-19)
(0.00366273 0.00789576 -1.00427e-19)
(0.012063 0.0107636 -8.93744e-19)
(-0.00343575 -0.00822487 2.18285e-19)
(-0.00972807 -0.0154095 3.81455e-20)
(-0.0163015 -0.016886 2.582e-19)
(-0.0211436 -0.0151402 -2.9552e-20)
(-0.0237175 -0.0116332 2.3511e-19)
(-0.0240981 -0.00731683 2.65259e-19)
(-0.0225237 -0.0028769 3.97676e-19)
(-0.0193385 0.00116381 -1.12655e-18)
(-0.0150202 0.0043885 -2.07925e-19)
(-0.010103 0.00647359 3.72645e-19)
(-0.00248969 -0.00512132 -1.10222e-19)
(-0.00837065 -0.00968548 -1.56659e-19)
(-0.0157252 -0.0106975 -7.53632e-20)
(-0.022025 -0.00969734 3.6861e-19)
(-0.0264593 -0.00759813 1.78924e-19)
(-0.0289517 -0.00499667 3.66934e-20)
(-0.0296475 -0.00232129 -7.95543e-20)
(-0.0288423 0.000109708 -6.17121e-20)
(-0.0269846 0.0020546 5.29712e-19)
(-0.0244467 0.00332093 -3.60774e-19)
(-0.00199122 -0.00173837 5.61899e-20)
(-0.00762156 -0.00330261 6.99162e-20)
(-0.0153301 -0.0036619 -5.96169e-20)
(-0.0223323 -0.0033376 -5.45289e-20)
(-0.0276804 -0.00263998 -5.65382e-20)
(-0.0312213 -0.00177216 -9.02156e-20)
(-0.0330527 -0.000879537 2.89767e-21)
(-0.0334436 -6.88152e-05 1.25173e-19)
(-0.0328262 0.000580878 -1.25683e-19)
(-0.0314952 0.00100566 2.2867e-19)
(-0.00813522 -0.00258597 1.65342e-20)
(0.0621205 -0.00662731 9.88734e-21)
(0.277545 -0.00670963 1.33753e-21)
(0.376953 -0.00438732 -9.02388e-22)
(0.479665 -0.00368165 -6.3541e-23)
(0.553544 -0.00263872 1.48038e-22)
(0.60604 -0.00218563 1.66305e-22)
(0.660333 -0.00158262 -3.39892e-23)
(0.683567 -0.00146262 -2.49097e-24)
(0.73379 -0.00100802 2.43901e-22)
(0.00866431 -0.00806071 2.62204e-20)
(0.0773745 -0.0197194 1.25331e-21)
(0.289036 -0.0199758 -1.74798e-20)
(0.38571 -0.0130626 1.40441e-20)
(0.486374 -0.0109682 8.8713e-22)
(0.558779 -0.00786304 -5.9403e-22)
(0.610311 -0.00651387 6.88647e-22)
(0.663692 -0.00471534 6.96576e-23)
(0.686499 -0.00436582 1.39974e-22)
(0.736013 -0.00301377 -2.23512e-22)
(0.0419688 -0.0144158 2.68567e-20)
(0.107409 -0.0323304 -3.61024e-20)
(0.311589 -0.0327829 1.78689e-20)
(0.402911 -0.0214372 -1.16342e-20)
(0.499557 -0.0180275 8.28207e-22)
(0.569083 -0.0129358 -6.45413e-22)
(0.618728 -0.0107271 -2.56766e-22)
(0.670324 -0.00776837 8.14607e-25)
(0.692296 -0.00720319 -1.07193e-22)
(0.740418 -0.00497998 -3.2633e-22)
(0.0911765 -0.0221294 -4.16265e-20)
(0.151301 -0.0441612 -5.01134e-20)
(0.344375 -0.044846 -2.31228e-20)
(0.427949 -0.0293275 1.21275e-20)
(0.518763 -0.0247198 -1.45358e-20)
(0.58413 -0.0177637 3.84416e-21)
(0.631048 -0.0147537 -2.08834e-22)
(0.680058 -0.0106919 1.20724e-22)
(0.700826 -0.00993314 -1.2879e-22)
(0.746924 -0.00688131 1.21108e-22)
(0.155356 -0.0314743 1.15127e-19)
(0.207725 -0.0549242 7.22382e-20)
(0.386206 -0.0559014 2.59797e-20)
(0.459959 -0.0365713 -2.35672e-20)
(0.543346 -0.030921 1.19317e-20)
(0.603455 -0.0222639 3.16012e-21)
(0.646919 -0.0185295 2.20903e-21)
(0.692647 -0.013441 2.39082e-22)
(0.711896 -0.0125175 2.86008e-22)
(0.755412 -0.00869402 -6.42705e-22)
(0.233227 -0.042378 -5.08262e-20)
(0.275004 -0.0643043 3.90005e-20)
(0.435603 -0.0656958 4.82045e-21)
(0.497858 -0.0430254 2.6283e-20)
(0.572504 -0.0365244 -5.94616e-21)
(0.626479 -0.026366 -3.68277e-21)
(0.665902 -0.0219993 -2.28184e-21)
(0.707782 -0.0159769 -1.47292e-22)
(0.725263 -0.0149223 -1.5533e-22)
(0.765727 -0.0103965 6.89538e-22)
(0.32316 -0.0545604 -3.86775e-20)
(0.351167 -0.0720369 -1.00778e-19)
(0.490866 -0.0740262 -1.70463e-20)
(0.54041 -0.0485739 -1.46382e-20)
(0.605323 -0.0414473 6.97178e-21)
(0.652535 -0.0300144 -1.94181e-21)
(0.687491 -0.0251188 2.45494e-21)
(0.725098 -0.0182678 4.49292e-22)
(0.740641 -0.0171194 -4.65208e-23)