1.45 	0 	0 	-0.2995
2.35 	0 	0 	-0.133079
