1.45 	0 	0 	-0.307714
2.35 	0 	0 	-0.128084
