/*--------------------------------*- C++ -*----------------------------------*\
  =========                 |
  \\      /  F ield         | OpenFOAM: The Open Source CFD Toolbox
   \\    /   O peration     | Website:  https://openfoam.org
    \\  /    A nd           | Version:  6.0
     \\/     M anipulation  |
\*---------------------------------------------------------------------------*/
FoamFile
{
    version     2.0;
    format      ascii;
    class       volScalarField;
    location    "250";
    object      nuTilda;
}
// * * * * * * * * * * * * * * * * * * * * * * * * * * * * * * * * * * * * * //

dimensions      [0 2 -1 0 0 0 0];

internalField   nonuniform List<scalar> 
9800
(
0.14002
0.140006
0.140007
0.140007
0.140007
0.140007
0.140008
0.140008
0.140009
0.14001
0.140011
0.140011
0.140012
0.140013
0.140015
0.140017
0.140019
0.14002
0.14002
0.140018
0.140015
0.140012
0.140004
0.140005
0.140013
0.140016
0.140019
0.140021
0.140021
0.140021
0.140019
0.140017
0.140015
0.140014
0.140013
0.140012
0.140011
0.140011
0.14001
0.140009
0.140008
0.140007
0.140006
0.140005
0.140003
0.140002
0.14
0.139997
0.139994
0.139985
0.139975
0.139968
0.139971
0.139979
0.139987
0.139994
0.14
0.140005
0.140011
0.140017
0.140023
0.140031
0.140041
0.140053
0.140067
0.140085
0.140108
0.140136
0.140172
0.140218
0.140279
0.140361
0.140474
0.140648
0.140873
0.141407
0.141951
0.142886
0.143782
0.144117
0.144149
0.144146
0.144091
0.144025
0.143959
0.143902
0.14386
0.143833
0.143824
0.143832
0.143853
0.143884
0.143916
0.143942
0.143954
0.143949
0.1439
0.143842
0.143983
0.14609
0.140063
0.140053
0.140047
0.140043
0.140041
0.14004
0.140039
0.140037
0.140035
0.140034
0.140033
0.140032
0.140031
0.140028
0.140024
0.140013
0.139998
0.139994
0.139993
0.140001
0.140017
0.140016
0.139998
0.14
0.140019
0.140021
0.140011
0.139999
0.139998
0.14
0.140014
0.140025
0.14003
0.140032
0.140033
0.140035
0.140036
0.140037
0.140038
0.140038
0.140038
0.140039
0.140039
0.14004
0.140041
0.140042
0.140042
0.140043
0.140044
0.140042
0.140038
0.140033
0.140031
0.140036
0.140045
0.140058
0.140074
0.14009
0.140108
0.140127
0.140148
0.14017
0.140195
0.140223
0.140256
0.140293
0.140336
0.140386
0.140443
0.14051
0.140588
0.140681
0.140792
0.14093
0.141089
0.141313
0.141538
0.141679
0.141756
0.141805
0.141838
0.141861
0.141876
0.141887
0.141899
0.141914
0.141931
0.14195
0.141971
0.141993
0.142019
0.142051
0.142091
0.14214
0.142197
0.142262
0.142331
0.142399
0.142464
0.14253
0.140079
0.14007
0.14006
0.140051
0.140041
0.14003
0.140016
0.140004
0.140001
0.139999
0.139996
0.139993
0.139988
0.139982
0.139973
0.13996
0.13995
0.139954
0.139978
0.139999
0.140017
0.140016
0.13999
0.139978
0.140015
0.14002
0.140004
0.13997
0.139953
0.139952
0.139965
0.13998
0.139991
0.139997
0.14
0.140002
0.140006
0.140012
0.14002
0.140027
0.140033
0.140038
0.140042
0.140045
0.140048
0.140051
0.140054
0.140057
0.140059
0.140061
0.140062
0.140061
0.140059
0.140057
0.140058
0.140062
0.14007
0.14008
0.140093
0.140107
0.140123
0.140139
0.140156
0.140173
0.140182
0.140194
0.140208
0.140239
0.14028
0.140327
0.14038
0.140438
0.140504
0.140577
0.140658
0.140749
0.140848
0.140955
0.141067
0.141186
0.141309
0.141435
0.141562
0.141691
0.141822
0.141954
0.142085
0.142213
0.142339
0.142462
0.142579
0.142691
0.142798
0.142899
0.142995
0.143085
0.14317
0.143249
0.143326
0.143422
0.14005
0.140029
0.140001
0.13999
0.139978
0.139967
0.139957
0.139951
0.139949
0.139947
0.139947
0.139949
0.139952
0.139952
0.139947
0.13994
0.13994
0.139955
0.139983
0.140007
0.140021
0.140015
0.139981
0.139949
0.140004
0.140018
0.140004
0.139972
0.139944
0.139925
0.139916
0.139922
0.139932
0.13994
0.139946
0.139949
0.139951
0.139955
0.13996
0.139966
0.139972
0.139979
0.139984
0.139988
0.139992
0.139994
0.139997
0.139999
0.140001
0.140007
0.140015
0.140024
0.140032
0.140038
0.140042
0.140047
0.140052
0.140058
0.140066
0.140076
0.140087
0.140099
0.140113
0.140127
0.140139
0.14015
0.140161
0.140173
0.14019
0.14021
0.140235
0.140262
0.140292
0.140323
0.140356
0.140389
0.140423
0.140459
0.140499
0.140543
0.140589
0.140637
0.140685
0.14073
0.140774
0.140814
0.14085
0.140881
0.140908
0.140931
0.140951
0.140969
0.140986
0.141002
0.141018
0.141035
0.141052
0.141072
0.141089
0.141092
0.140004
0.139974
0.139939
0.139914
0.139901
0.139893
0.139888
0.139886
0.139886
0.139888
0.139891
0.139895
0.139898
0.139898
0.139899
0.139908
0.13993
0.139958
0.139988
0.140011
0.140022
0.140007
0.139959
0.139917
0.139983
0.140008
0.139998
0.139965
0.139918
0.139886
0.139866
0.13986
0.139863
0.13987
0.139877
0.139882
0.139885
0.139888
0.139891
0.139895
0.1399
0.139908
0.13992
0.139934
0.139947
0.139958
0.139967
0.139975
0.139982
0.139988
0.139995
0.140003
0.140012
0.14002
0.140029
0.140036
0.140043
0.14005
0.140057
0.140064
0.140073
0.140082
0.140092
0.140103
0.140114
0.140126
0.140137
0.140148
0.140159
0.14017
0.140181
0.140193
0.140206
0.140219
0.140233
0.140246
0.140258
0.140271
0.140283
0.140297
0.140312
0.14033
0.140348
0.140368
0.140388
0.140408
0.140428
0.140447
0.140465
0.140483
0.1405
0.140518
0.140535
0.140553
0.140572
0.14059
0.140608
0.140627
0.140645
0.140654
0.139882
0.139858
0.139835
0.139821
0.139815
0.139812
0.139812
0.139813
0.139816
0.139818
0.139821
0.139824
0.139826
0.139831
0.139844
0.139873
0.139917
0.139956
0.139989
0.140011
0.140014
0.139987
0.139914
0.139881
0.139951
0.139987
0.139984
0.139949
0.139886
0.139838
0.139808
0.139793
0.139789
0.139791
0.139795
0.139801
0.139805
0.139808
0.139811
0.139814
0.139817
0.139821
0.139828
0.139837
0.139848
0.13986
0.139872
0.139884
0.139898
0.139912
0.139926
0.139939
0.139953
0.139966
0.139979
0.139992
0.140003
0.140014
0.140024
0.140034
0.140043
0.140052
0.14006
0.140069
0.140077
0.140086
0.140095
0.140104
0.140113
0.140122
0.14013
0.140139
0.140147
0.140155
0.140164
0.140172
0.140181
0.140189
0.140198
0.140208
0.140217
0.140227
0.140239
0.140251
0.140264
0.140278
0.140293
0.140308
0.140324
0.14034
0.140357
0.140373
0.140391
0.140408
0.140426
0.140444
0.140462
0.140482
0.1405
0.140508
0.139751
0.139737
0.139729
0.139726
0.139725
0.139726
0.139728
0.139731
0.139734
0.13974
0.139748
0.13976
0.139777
0.139802
0.139836
0.139878
0.139924
0.139963
0.139992
0.140007
0.139999
0.139954
0.13986
0.139837
0.139911
0.13996
0.139968
0.139941
0.139884
0.13982
0.139765
0.139729
0.139711
0.139705
0.139706
0.139709
0.139712
0.139715
0.139717
0.139719
0.13972
0.139722
0.139724
0.139727
0.139732
0.139739
0.139747
0.139756
0.139767
0.139778
0.13979
0.139802
0.139815
0.139827
0.139839
0.139851
0.139863
0.139875
0.139888
0.139903
0.139921
0.139939
0.139958
0.139975
0.139992
0.140007
0.140021
0.140034
0.140046
0.140057
0.140068
0.140078
0.140087
0.140096
0.140104
0.140113
0.140121
0.14013
0.140138
0.140147
0.140155
0.140164
0.140173
0.140182
0.140192
0.140203
0.140213
0.140225
0.140236
0.140249
0.140261
0.140274
0.140287
0.140301
0.140315
0.140329
0.140344
0.140359
0.140374
0.140377
0.139645
0.139623
0.139624
0.139627
0.139631
0.139638
0.139647
0.13966
0.139676
0.139697
0.139724
0.139748
0.139778
0.139814
0.139855
0.139898
0.139939
0.139972
0.139994
0.139998
0.139974
0.139908
0.139802
0.139783
0.139857
0.139923
0.139946
0.139932
0.13989
0.13983
0.139766
0.139703
0.139656
0.139628
0.139613
0.139608
0.139608
0.13961
0.139611
0.139613
0.139613
0.139613
0.139613
0.139613
0.139613
0.139614
0.139616
0.139619
0.139623
0.139629
0.139636
0.139644
0.139652
0.139661
0.13967
0.139679
0.139688
0.139697
0.139707
0.139716
0.139727
0.139739
0.139752
0.139765
0.13978
0.139796
0.139817
0.139839
0.139861
0.139883
0.139904
0.139924
0.139942
0.139959
0.139974
0.139988
0.140001
0.140013
0.140024
0.140035
0.140045
0.140055
0.140065
0.140074
0.140084
0.140094
0.140103
0.140113
0.140123
0.140133
0.140143
0.140154
0.140164
0.140174
0.140185
0.140195
0.140205
0.140216
0.140226
0.140227
0.139534
0.139509
0.139521
0.139536
0.139554
0.139576
0.139601
0.139629
0.139659
0.139691
0.139728
0.13976
0.139797
0.139837
0.139878
0.139917
0.139951
0.139976
0.139987
0.139975
0.139932
0.139847
0.139735
0.139715
0.139778
0.139868
0.139911
0.139915
0.139889
0.139841
0.139782
0.139713
0.139647
0.139589
0.139545
0.139517
0.139501
0.139494
0.139491
0.139491
0.139491
0.13949
0.139489
0.139488
0.139486
0.139483
0.139481
0.139479
0.139478
0.139477
0.139478
0.139479
0.139481
0.139484
0.139487
0.13949
0.139494
0.139499
0.139503
0.139508
0.139512
0.139517
0.139522
0.139528
0.139534
0.13954
0.139548
0.139558
0.139569
0.139581
0.139592
0.139604
0.139618
0.139636
0.139658
0.139683
0.139707
0.13973
0.139752
0.139772
0.139791
0.139808
0.139824
0.139838
0.139852
0.139865
0.139878
0.13989
0.139901
0.139912
0.139923
0.139933
0.139943
0.139953
0.139961
0.13997
0.139978
0.139985
0.139992
0.13999
0.139474
0.139466
0.13949
0.139516
0.139545
0.139576
0.139609
0.139642
0.139677
0.139714
0.139752
0.139789
0.139827
0.139865
0.139902
0.139934
0.139959
0.139972
0.139968
0.139937
0.139873
0.139768
0.139653
0.139627
0.13968
0.139787
0.139855
0.139881
0.139873
0.139842
0.139795
0.139733
0.139667
0.139599
0.139534
0.139476
0.13943
0.139396
0.139374
0.139359
0.139351
0.139346
0.139343
0.13934
0.139338
0.139334
0.13933
0.139326
0.139321
0.139317
0.139312
0.139308
0.139305
0.139302
0.139299
0.139296
0.139293
0.139291
0.139289
0.139287
0.139285
0.139282
0.13928
0.139278
0.139276
0.139275
0.139273
0.139272
0.139272
0.139272
0.139272
0.139272
0.139272
0.139274
0.139276
0.13928
0.139286
0.139297
0.139314
0.139336
0.139359
0.139382
0.139405
0.139426
0.139446
0.139465
0.139482
0.139497
0.139512
0.139525
0.139538
0.139549
0.139559
0.139567
0.139575
0.139582
0.139587
0.139591
0.139594
0.139578
0.139423
0.139424
0.13946
0.139498
0.139537
0.139576
0.139615
0.139653
0.139692
0.139732
0.139773
0.139811
0.139848
0.139883
0.139913
0.139936
0.139949
0.139946
0.139921
0.139866
0.139775
0.139646
0.139543
0.139516
0.139566
0.139684
0.139778
0.139828
0.139843
0.13983
0.139799
0.139751
0.139693
0.139629
0.139563
0.139496
0.139433
0.139375
0.139324
0.139281
0.139246
0.139219
0.139199
0.139185
0.139174
0.139165
0.139158
0.139151
0.139144
0.139137
0.139129
0.139122
0.139114
0.139106
0.139098
0.139091
0.139083
0.139075
0.139068
0.13906
0.139051
0.139043
0.139034
0.139025
0.139016
0.139007
0.138998
0.138988
0.138979
0.138969
0.13896
0.138952
0.138943
0.138934
0.138925
0.138916
0.138907
0.138899
0.138892
0.138886
0.138883
0.138887
0.138899
0.138915
0.138934
0.138953
0.138971
0.138989
0.139005
0.13902
0.139034
0.139046
0.139057
0.139066
0.139074
0.139081
0.139086
0.13909
0.139093
0.139078
0.139466
0.139481
0.139515
0.139551
0.139588
0.139625
0.139663
0.1397
0.139738
0.139776
0.139815
0.139849
0.13988
0.139906
0.139925
0.139935
0.13993
0.139908
0.13986
0.139781
0.139664
0.139515
0.139407
0.139373
0.139413
0.139511
0.139632
0.139715
0.139758
0.13977
0.139759
0.139728
0.139684
0.139629
0.139566
0.139499
0.139429
0.139356
0.139285
0.139217
0.139155
0.139098
0.139049
0.13901
0.13898
0.138958
0.138941
0.138927
0.138916
0.138906
0.138896
0.138887
0.138877
0.138868
0.138858
0.138848
0.138838
0.138827
0.138816
0.138804
0.138792
0.138779
0.138766
0.138752
0.138738
0.138724
0.138709
0.138693
0.138677
0.138661
0.138645
0.138629
0.138614
0.138598
0.138583
0.138566
0.13855
0.138534
0.138517
0.1385
0.138482
0.138466
0.13845
0.138435
0.138423
0.138418
0.13842
0.138426
0.138434
0.138443
0.138453
0.138461
0.138468
0.138474
0.138479
0.138482
0.138484
0.138484
0.138484
0.138448
0.139357
0.139349
0.139391
0.139443
0.139497
0.139549
0.139598
0.139644
0.139687
0.139728
0.139773
0.139805
0.13983
0.139846
0.139851
0.139842
0.139813
0.13976
0.139675
0.139553
0.139405
0.139281
0.139202
0.139182
0.13923
0.139341
0.139486
0.1396
0.139674
0.139712
0.139724
0.139713
0.139685
0.139644
0.139594
0.139536
0.139472
0.139403
0.13933
0.139255
0.13918
0.139105
0.139032
0.138965
0.138903
0.138848
0.1388
0.138759
0.138723
0.138693
0.138667
0.138645
0.138626
0.138608
0.138591
0.138576
0.138561
0.138546
0.138531
0.138515
0.138499
0.138483
0.138466
0.138449
0.138431
0.138413
0.138393
0.138374
0.138353
0.138332
0.13831
0.138288
0.138266
0.138243
0.13822
0.138198
0.138175
0.138152
0.138129
0.138106
0.138082
0.138058
0.138034
0.138009
0.137983
0.137958
0.137934
0.137914
0.137903
0.137898
0.137898
0.1379
0.137904
0.137907
0.13791
0.137913
0.137916
0.137917
0.137918
0.137882
0.139491
0.139511
0.139551
0.139596
0.139641
0.139685
0.139726
0.139764
0.139799
0.139832
0.139859
0.139875
0.139882
0.139876
0.139857
0.139819
0.139761
0.139676
0.139563
0.139422
0.139261
0.1391
0.138975
0.138924
0.138935
0.138998
0.139089
0.139181
0.139267
0.139343
0.139404
0.139428
0.139425
0.139399
0.139355
0.139298
0.139232
0.139161
0.139087
0.139013
0.138939
0.138865
0.138792
0.138721
0.138653
0.138589
0.138529
0.138474
0.138424
0.138379
0.138339
0.138303
0.138271
0.138242
0.138215
0.138191
0.138169
0.138148
0.138127
0.138106
0.138085
0.138065
0.138044
0.138023
0.138002
0.13798
0.137959
0.137936
0.137912
0.137888
0.137862
0.137837
0.137811
0.137786
0.13776
0.137734
0.137708
0.137681
0.137655
0.137628
0.1376
0.137572
0.137543
0.137513
0.137483
0.137452
0.13742
0.137387
0.137354
0.137321
0.137289
0.137256
0.137223
0.13719
0.137159
0.137129
0.137102
0.137075
0.137053
0.137008
0.139111
0.139119
0.13915
0.139186
0.13922
0.139252
0.139279
0.139302
0.13932
0.139332
0.139336
0.13933
0.139314
0.139285
0.139242
0.139185
0.13911
0.139019
0.138914
0.138799
0.138684
0.138584
0.138523
0.138517
0.138572
0.138696
0.138845
0.138979
0.139094
0.139192
0.139271
0.139324
0.139352
0.139358
0.139344
0.139314
0.139271
0.139219
0.13916
0.139098
0.139032
0.138963
0.138894
0.138823
0.138752
0.138681
0.138609
0.138538
0.138467
0.138397
0.138327
0.138259
0.13819
0.138121
0.138053
0.137988
0.137926
0.137867
0.137813
0.137763
0.137716
0.137674
0.137634
0.137596
0.13756
0.137525
0.13749
0.137457
0.137424
0.137391
0.137357
0.137324
0.13729
0.137256
0.137222
0.137187
0.137152
0.137116
0.13708
0.137043
0.137006
0.136969
0.136932
0.136894
0.136856
0.136817
0.136778
0.136738
0.136697
0.136655
0.136613
0.13657
0.136525
0.136481
0.136441
0.136408
0.136384
0.136365
0.136352
0.136304
0.139204
0.139206
0.139219
0.139234
0.139248
0.139258
0.139264
0.139265
0.13926
0.139247
0.139226
0.139196
0.139153
0.139099
0.139034
0.138957
0.138871
0.138775
0.138673
0.138568
0.138463
0.138361
0.138265
0.138172
0.138087
0.138055
0.13808
0.138132
0.138194
0.138256
0.138315
0.138365
0.138402
0.138425
0.138434
0.138431
0.138416
0.13839
0.138356
0.138314
0.138267
0.138215
0.138159
0.1381
0.138038
0.137974
0.137908
0.137841
0.137773
0.137704
0.137635
0.137565
0.137495
0.137424
0.137353
0.137283
0.137214
0.137147
0.137083
0.137021
0.136962
0.136905
0.136851
0.136799
0.13675
0.136702
0.136656
0.136611
0.136568
0.136526
0.136485
0.136445
0.136405
0.136366
0.136327
0.136287
0.136248
0.136209
0.136169
0.136128
0.136087
0.136046
0.136003
0.13596
0.135916
0.135871
0.135825
0.135777
0.135729
0.135679
0.135628
0.135576
0.135522
0.135466
0.135408
0.135348
0.135286
0.135222
0.135158
0.135095
0.138653
0.138765
0.138799
0.138796
0.138777
0.138753
0.138726
0.138697
0.138662
0.138615
0.138556
0.138497
0.138436
0.138372
0.138306
0.13824
0.138176
0.138117
0.138064
0.138016
0.137975
0.137941
0.137912
0.137891
0.137879
0.137883
0.137906
0.137941
0.137985
0.138032
0.138079
0.138121
0.138158
0.138189
0.138213
0.138228
0.138235
0.138234
0.138225
0.138208
0.138185
0.138157
0.138123
0.138085
0.138042
0.137997
0.137948
0.137898
0.137845
0.13779
0.137733
0.137675
0.137615
0.137554
0.137491
0.137427
0.137361
0.137295
0.137227
0.137159
0.137092
0.137026
0.136959
0.13689
0.136819
0.136743
0.136663
0.136577
0.136484
0.136384
0.136278
0.136169
0.136061
0.135957
0.135856
0.135758
0.135665
0.135573
0.135484
0.135397
0.135311
0.135227
0.135143
0.13506
0.134977
0.134893
0.13481
0.134726
0.134642
0.134557
0.134472
0.134388
0.134304
0.13422
0.134135
0.134047
0.133959
0.133869
0.133778
0.133693
0.138812
0.138799
0.138768
0.138728
0.138685
0.13864
0.138595
0.13855
0.138503
0.138455
0.138407
0.138361
0.138312
0.138263
0.138213
0.138164
0.138118
0.138073
0.138031
0.137992
0.137955
0.13792
0.137886
0.137854
0.137823
0.137792
0.137761
0.13773
0.137699
0.137666
0.137632
0.137603
0.137582
0.137565
0.137549
0.137534
0.137516
0.137494
0.13747
0.137444
0.137416
0.137383
0.137347
0.137307
0.137263
0.137216
0.137167
0.137117
0.137063
0.137006
0.136946
0.136884
0.136819
0.136751
0.136682
0.13661
0.136536
0.136461
0.136383
0.136303
0.136219
0.136134
0.136048
0.135964
0.135881
0.135795
0.135707
0.135619
0.13553
0.135441
0.135349
0.135255
0.135164
0.135071
0.134976
0.13488
0.134785
0.134691
0.134596
0.1345
0.134405
0.134307
0.134207
0.134104
0.133997
0.133887
0.133774
0.133658
0.133538
0.133415
0.133289
0.13316
0.133029
0.132895
0.132758
0.132618
0.132471
0.132321
0.132169
0.132021
0.139761
0.139985
0.140127
0.140207
0.140243
0.140252
0.140241
0.140214
0.140172
0.140115
0.140058
0.140004
0.139952
0.139901
0.139853
0.139808
0.139765
0.139726
0.139689
0.139656
0.139625
0.139597
0.139571
0.139548
0.139526
0.139506
0.139485
0.139464
0.139439
0.139408
0.13937
0.139343
0.139313
0.139284
0.139256
0.139229
0.139203
0.139177
0.139151
0.139123
0.139094
0.139064
0.139034
0.139002
0.138969
0.138934
0.138896
0.138856
0.138814
0.138769
0.13872
0.138666
0.138609
0.138548
0.138483
0.138413
0.138339
0.138262
0.138182
0.1381
0.138011
0.137919
0.137833
0.137733
0.137629
0.137518
0.1374
0.137277
0.137146
0.137006
0.136858
0.136697
0.136522
0.136333
0.136127
0.135901
0.135657
0.135389
0.135099
0.134792
0.134477
0.134162
0.133849
0.133537
0.133229
0.132923
0.13262
0.132317
0.132015
0.131714
0.131412
0.131109
0.130805
0.130497
0.130186
0.129872
0.129556
0.12924
0.128938
0.128674
0.135025
0.133947
0.133631
0.133654
0.133739
0.133742
0.13364
0.133438
0.133148
0.132822
0.132875
0.132226
0.131644
0.131182
0.130791
0.130442
0.130114
0.129794
0.129476
0.129153
0.128824
0.128486
0.12814
0.127785
0.127422
0.127054
0.126683
0.126312
0.125946
0.125601
0.125427
0.125878
0.12571
0.125477
0.125187
0.12485
0.124473
0.124062
0.123621
0.123155
0.122666
0.122157
0.12163
0.121088
0.120532
0.119966
0.119392
0.118811
0.118227
0.117642
0.117059
0.11648
0.115907
0.115342
0.11479
0.114254
0.113735
0.113229
0.112734
0.112245
0.111756
0.111458
0.111542
0.111217
0.110876
0.110529
0.110177
0.109819
0.109457
0.109089
0.108716
0.108338
0.107955
0.107566
0.107172
0.106774
0.106371
0.105963
0.105551
0.105136
0.104718
0.104298
0.103877
0.103455
0.103032
0.102609
0.102185
0.101761
0.101337
0.100914
0.100494
0.100079
0.099673
0.0992832
0.0989215
0.0986091
0.0983827
0.0983065
0.0984923
0.0991384
0.228124
0.245701
0.262579
0.278432
0.293378
0.307528
0.320976
0.333795
0.346049
0.357791
0.369064
0.379906
0.390346
0.400415
0.410134
0.419528
0.428632
0.43742
0.445929
0.454182
0.462191
0.469969
0.477523
0.484864
0.492
0.498937
0.505683
0.512243
0.518624
0.52483
0.530868
0.53674
0.542368
0.547736
0.553134
0.558391
0.563508
0.568487
0.573334
0.578053
0.58265
0.587129
0.591498
0.595763
0.599931
0.604011
0.608012
0.611718
0.615261
0.619113
0.62294
0.62675
0.630558
0.634382
0.638239
0.642151
0.646138
0.650224
0.654434
0.658296
0.662369
0.66724
0.672343
0.677694
0.683317
0.689236
0.695476
0.700682
0.708478
0.715726
0.142811
0.14293
0.143079
0.143256
0.143464
0.143702
0.143971
0.144269
0.144592
0.144937
0.145302
0.145688
0.146097
0.146531
0.14699
0.147477
0.147997
0.14854
0.149112
0.149715
0.15035
0.151016
0.151715
0.152445
0.153206
0.153998
0.154821
0.155673
0.156555
0.157465
0.158404
0.159372
0.16034
0.1613
0.162344
0.16342
0.164521
0.165648
0.166799
0.167974
0.169172
0.170393
0.171635
0.172899
0.174185
0.175492
0.176822
0.178086
0.179331
0.180743
0.182187
0.183653
0.185139
0.186646
0.188175
0.189729
0.191309
0.192921
0.19457
0.196037
0.197575
0.199457
0.201425
0.203478
0.205642
0.207956
0.210473
0.212564
0.216205
0.219862
0.143333
0.143296
0.143259
0.143226
0.143196
0.143169
0.143143
0.143118
0.143093
0.143068
0.143041
0.143012
0.14298
0.142944
0.142904
0.14286
0.142812
0.142759
0.142702
0.14264
0.142574
0.142504
0.142431
0.142354
0.142274
0.142192
0.142107
0.14202
0.141932
0.141841
0.141749
0.141655
0.141557
0.141454
0.141353
0.14125
0.141146
0.14104
0.140934
0.140827
0.140718
0.140609
0.140498
0.140387
0.140274
0.140161
0.140045
0.139919
0.139784
0.139658
0.139533
0.139408
0.139283
0.139158
0.139034
0.138909
0.138784
0.13866
0.138535
0.138381
0.138223
0.138095
0.137975
0.13786
0.137754
0.137657
0.137577
0.137417
0.13745
0.137502
0.141099
0.1411
0.141097
0.14109
0.141081
0.14107
0.141058
0.141046
0.141035
0.141025
0.141017
0.141009
0.141003
0.140997
0.14099
0.140984
0.140977
0.140969
0.14096
0.14095
0.14094
0.140928
0.140916
0.140903
0.140889
0.140875
0.140861
0.140846
0.140831
0.140817
0.140802
0.140788
0.140774
0.14076
0.140747
0.140733
0.14072
0.140708
0.140695
0.140683
0.140671
0.140659
0.140647
0.140635
0.140623
0.14061
0.140597
0.140583
0.140568
0.140553
0.140536
0.140519
0.140501
0.140483
0.140463
0.140443
0.140422
0.140399
0.140375
0.140349
0.14032
0.140289
0.140257
0.140224
0.140191
0.140156
0.14012
0.140083
0.140041
0.140003
0.140649
0.140644
0.140638
0.14063
0.140621
0.140609
0.140597
0.140584
0.140571
0.140559
0.140547
0.140535
0.140524
0.140514
0.140504
0.140495
0.140487
0.140479
0.14047
0.140461
0.140451
0.140441
0.14043
0.140418
0.140406
0.140394
0.140382
0.140369
0.140357
0.140345
0.140333
0.140322
0.140311
0.1403
0.140291
0.140282
0.140274
0.140267
0.140262
0.140259
0.140256
0.140255
0.140255
0.140256
0.140258
0.140261
0.140264
0.140268
0.140272
0.140277
0.140282
0.140288
0.140295
0.140302
0.14031
0.140318
0.140327
0.140336
0.140345
0.140355
0.140366
0.140378
0.14039
0.140402
0.140415
0.140427
0.140438
0.140448
0.140455
0.140458
0.140501
0.140495
0.140488
0.140479
0.140468
0.140456
0.140443
0.140429
0.140415
0.140401
0.140387
0.140374
0.140362
0.14035
0.140338
0.140328
0.140318
0.140308
0.140299
0.140289
0.140278
0.140267
0.140255
0.140243
0.14023
0.140217
0.140204
0.14019
0.140177
0.140163
0.14015
0.140137
0.140125
0.140114
0.140104
0.140095
0.140087
0.140079
0.140071
0.140064
0.140057
0.14005
0.140043
0.140038
0.140034
0.140031
0.14003
0.14003
0.140031
0.140034
0.140038
0.140042
0.140046
0.140052
0.140058
0.140064
0.140072
0.140079
0.140087
0.140096
0.140106
0.140117
0.140128
0.140141
0.140154
0.140166
0.140178
0.140188
0.140197
0.140202
0.140363
0.140356
0.140346
0.140335
0.140323
0.14031
0.140295
0.14028
0.140264
0.140249
0.140233
0.140218
0.140204
0.14019
0.140176
0.140163
0.140152
0.140141
0.14013
0.140118
0.140106
0.140093
0.14008
0.140066
0.140051
0.140036
0.14002
0.140005
0.139989
0.139974
0.139959
0.139944
0.13993
0.139916
0.139904
0.139893
0.139884
0.139876
0.139869
0.139864
0.139859
0.139857
0.139855
0.139856
0.139857
0.139859
0.139862
0.139866
0.139869
0.139874
0.139879
0.139885
0.139891
0.139899
0.139906
0.139915
0.139924
0.139934
0.139944
0.139954
0.139966
0.139979
0.139993
0.140007
0.140022
0.140037
0.14005
0.140063
0.140073
0.140079
0.140202
0.140191
0.140177
0.140162
0.140146
0.140129
0.140111
0.140092
0.140074
0.140055
0.140036
0.140018
0.14
0.139983
0.139966
0.139951
0.139936
0.139923
0.13991
0.139896
0.139882
0.139867
0.139852
0.139836
0.13982
0.139803
0.139786
0.139769
0.139752
0.139735
0.139718
0.139703
0.139688
0.139675
0.139663
0.139652
0.139643
0.139636
0.13963
0.139626
0.139623
0.139621
0.139621
0.139623
0.139626
0.13963
0.139635
0.13964
0.139646
0.139653
0.13966
0.139668
0.139676
0.139685
0.139695
0.139705
0.139716
0.139727
0.139739
0.139751
0.139764
0.139779
0.139794
0.139811
0.139827
0.139843
0.139858
0.139872
0.139884
0.139891
0.139952
0.139935
0.139916
0.139896
0.139876
0.139856
0.139835
0.139814
0.139792
0.139771
0.13975
0.139729
0.13971
0.139692
0.139675
0.139659
0.139645
0.139631
0.139618
0.139605
0.139591
0.139577
0.139562
0.139547
0.139531
0.139516
0.1395
0.139484
0.139468
0.139453
0.139438
0.139424
0.139412
0.139401
0.139391
0.139384
0.139377
0.139373
0.13937
0.139369
0.13937
0.139372
0.139376
0.139381
0.139388
0.139394
0.139402
0.139409
0.139417
0.139425
0.139435
0.139444
0.139455
0.139466
0.139477
0.139489
0.139502
0.139515
0.139528
0.139541
0.139555
0.139571
0.139588
0.139605
0.139623
0.13964
0.139656
0.13967
0.139684
0.13969
0.139538
0.139521
0.139501
0.13948
0.139459
0.139439
0.139419
0.139398
0.139378
0.139357
0.139337
0.139319
0.139302
0.139286
0.139272
0.139259
0.139248
0.139236
0.139226
0.139216
0.139205
0.139194
0.139183
0.13917
0.139158
0.139145
0.139131
0.139118
0.139105
0.139093
0.139082
0.139072
0.139064
0.139057
0.139051
0.139047
0.139045
0.139044
0.139044
0.139046
0.139049
0.139054
0.139061
0.139069
0.139078
0.139089
0.1391
0.139111
0.139123
0.139135
0.139147
0.13916
0.139173
0.139187
0.139201
0.139215
0.139229
0.139244
0.139258
0.139272
0.139287
0.139304
0.139322
0.139341
0.139359
0.139377
0.139393
0.139408
0.139422
0.139429
0.139041
0.139027
0.13901
0.138993
0.138976
0.138961
0.138945
0.138929
0.138913
0.138897
0.138883
0.13887
0.138859
0.138849
0.138839
0.13883
0.138822
0.138814
0.138806
0.138798
0.13879
0.138782
0.138774
0.138766
0.138758
0.13875
0.138742
0.138735
0.138729
0.138722
0.138717
0.138712
0.138708
0.138705
0.138703
0.138701
0.138701
0.138701
0.138703
0.138706
0.138711
0.138717
0.138724
0.138732
0.138742
0.138753
0.138765
0.138778
0.138792
0.138808
0.138825
0.138843
0.138861
0.138878
0.138896
0.138914
0.138931
0.138948
0.138964
0.13898
0.138996
0.139015
0.139033
0.139053
0.139072
0.13909
0.139106
0.139121
0.139135
0.139142
0.13842
0.138412
0.138403
0.138392
0.13838
0.138368
0.138357
0.138347
0.138338
0.13833
0.138323
0.138316
0.138311
0.138306
0.138302
0.138298
0.138294
0.138291
0.138287
0.138283
0.138279
0.138275
0.138271
0.138267
0.138263
0.138259
0.138255
0.138251
0.138248
0.138245
0.138242
0.13824
0.138238
0.138236
0.138236
0.138236
0.138236
0.138238
0.13824
0.138244
0.138248
0.138254
0.138261
0.138269
0.138279
0.138289
0.138301
0.138312
0.138325
0.138341
0.138357
0.138376
0.138396
0.138418
0.138441
0.138465
0.138488
0.138511
0.138533
0.138552
0.138573
0.138595
0.138617
0.138639
0.138661
0.138682
0.1387
0.138715
0.138732
0.13874
0.137863
0.137861
0.137857
0.13785
0.137845
0.137839
0.137834
0.13783
0.137826
0.137823
0.137821
0.137819
0.137818
0.137818
0.137817
0.137817
0.137818
0.137818
0.137818
0.137819
0.137819
0.13782
0.13782
0.137821
0.137822
0.137822
0.137823
0.137824
0.137824
0.137825
0.137825
0.137825
0.137825
0.137825
0.137824
0.137824
0.137824
0.137824
0.137823
0.137824
0.137824
0.137825
0.137827
0.137829
0.137831
0.137835
0.137838
0.137842
0.137846
0.137852
0.137859
0.137868
0.137879
0.137891
0.137905
0.13792
0.137937
0.137955
0.137974
0.137991
0.138011
0.138035
0.138062
0.138091
0.138122
0.138152
0.13818
0.138203
0.138227
0.138237
0.136979
0.136976
0.136972
0.136968
0.136966
0.136964
0.136964
0.136964
0.136964
0.136966
0.136967
0.136969
0.136971
0.136973
0.136975
0.136978
0.13698
0.136982
0.136984
0.136986
0.136988
0.13699
0.136992
0.136994
0.136997
0.136999
0.137001
0.137004
0.137006
0.137009
0.137012
0.137014
0.137017
0.137019
0.137021
0.137023
0.137025
0.137027
0.137029
0.137032
0.137035
0.137037
0.137041
0.137044
0.137047
0.137051
0.137055
0.137058
0.137061
0.137065
0.13707
0.137076
0.137083
0.13709
0.137099
0.137109
0.13712
0.137131
0.137143
0.137153
0.137165
0.13718
0.137198
0.137219
0.137241
0.137264
0.137284
0.137301
0.137322
0.137333
0.136268
0.136265
0.136264
0.136264
0.136263
0.136264
0.136265
0.136266
0.136269
0.136271
0.136274
0.136278
0.136282
0.136286
0.136291
0.136297
0.136302
0.136309
0.136315
0.136323
0.13633
0.136338
0.136347
0.136357
0.136367
0.136379
0.13639
0.136403
0.136417
0.136431
0.136445
0.13646
0.136474
0.136488
0.136502
0.136517
0.136532
0.136547
0.136563
0.136579
0.136595
0.136611
0.136627
0.136643
0.136658
0.136672
0.136684
0.136693
0.1367
0.136707
0.136713
0.136719
0.136725
0.136731
0.136736
0.136742
0.136746
0.136748
0.136747
0.136743
0.136737
0.136732
0.136729
0.136727
0.136726
0.136724
0.136719
0.13671
0.136704
0.136696
0.135046
0.135043
0.135042
0.135041
0.13504
0.135039
0.135038
0.135038
0.135038
0.135038
0.135038
0.135039
0.13504
0.135041
0.135042
0.135044
0.135046
0.135048
0.135051
0.135053
0.135057
0.13506
0.135065
0.135069
0.135075
0.13508
0.135087
0.135094
0.135101
0.135109
0.135117
0.135126
0.135134
0.135142
0.13515
0.135159
0.135169
0.135179
0.13519
0.135201
0.135213
0.135226
0.135239
0.135253
0.135266
0.13528
0.135293
0.135304
0.135315
0.135326
0.135339
0.135352
0.135366
0.13538
0.135395
0.13541
0.135424
0.135438
0.13545
0.135458
0.135466
0.135476
0.135487
0.135499
0.135511
0.135522
0.135529
0.135529
0.13553
0.135525
0.13361
0.133594
0.133581
0.133569
0.133557
0.133546
0.133536
0.133526
0.133516
0.133506
0.133498
0.13349
0.133482
0.133475
0.133468
0.133463
0.133458
0.133453
0.133449
0.133445
0.133442
0.13344
0.133438
0.133438
0.133439
0.13344
0.133444
0.133448
0.133454
0.133462
0.13347
0.13348
0.133489
0.133499
0.13351
0.133524
0.133539
0.133556
0.133576
0.133597
0.133621
0.133648
0.133676
0.133707
0.133739
0.133773
0.133805
0.133833
0.133862
0.133895
0.133931
0.13397
0.134011
0.134056
0.134103
0.134153
0.134204
0.134254
0.134298
0.134334
0.134371
0.134417
0.13447
0.134529
0.13459
0.134644
0.134682
0.134703
0.134729
0.13473
0.131814
0.131742
0.131676
0.131612
0.131549
0.131488
0.131428
0.131369
0.131312
0.131256
0.131202
0.131149
0.131097
0.131047
0.130999
0.130951
0.130905
0.13086
0.130817
0.130774
0.130733
0.130693
0.130655
0.130618
0.130583
0.130549
0.130517
0.130486
0.130457
0.130429
0.130402
0.130377
0.130351
0.130324
0.130298
0.130275
0.130253
0.130232
0.130214
0.130197
0.130182
0.130169
0.130158
0.130149
0.130142
0.130136
0.13013
0.130121
0.130109
0.130101
0.130096
0.130095
0.130097
0.130103
0.130112
0.130124
0.130138
0.130153
0.130166
0.130169
0.130172
0.130186
0.130208
0.130235
0.130267
0.130298
0.130323
0.13032
0.130342
0.130341
0.1276
0.127329
0.127117
0.126913
0.126711
0.12651
0.126312
0.126116
0.125923
0.125733
0.125546
0.125363
0.125183
0.125006
0.124833
0.124663
0.124498
0.124336
0.124177
0.124022
0.12387
0.123722
0.123577
0.123437
0.123299
0.123165
0.123033
0.122906
0.122782
0.122663
0.122549
0.122439
0.122329
0.122212