1.45 	0 	0 	-0.254105
2.35 	0 	0 	-0.0182036
