/*--------------------------------*- C++ -*----------------------------------*\
  =========                 |
  \\      /  F ield         | OpenFOAM: The Open Source CFD Toolbox
   \\    /   O peration     | Website:  https://openfoam.org
    \\  /    A nd           | Version:  6.0
     \\/     M anipulation  |
\*---------------------------------------------------------------------------*/
FoamFile
{
    version     2.0;
    format      ascii;
    class       surfaceScalarField;
    location    "44";
    object      phi;
}
// * * * * * * * * * * * * * * * * * * * * * * * * * * * * * * * * * * * * * //

dimensions      [0 3 -1 0 0 0 0];

internalField   nonuniform List<scalar> 
3880
(
-1.79762e-05
1.79764e-05
-2.26049e-10
-5.34944e-05
3.55188e-05
-6.31454e-10
-9.53872e-05
4.18939e-05
-9.96062e-10
-0.00013659
4.12039e-05
-1.3114e-09
-0.000172742
3.61535e-05
-1.5882e-09
-0.000201432
2.86919e-05
-1.84502e-09
-0.000221727
2.02976e-05
-2.10111e-09
-0.000233866
1.21411e-05
-2.37875e-09
-0.000239055
5.19181e-06
-2.70077e-09
2.24201e-07
-3.08457e-09
-0.000239276
-1.72976e-05
3.52741e-05
-5.08457e-05
6.90669e-05
-8.96154e-05
8.06636e-05
-0.000126654
7.82429e-05
-0.000157643
6.71425e-05
-0.000180138
5.11862e-05
-0.000193118
3.32774e-05
-0.000196721
1.57447e-05
-0.0001921
5.71134e-07
-1.06056e-05
-0.000181271
-1.59051e-05
5.11792e-05
-4.54318e-05
9.85936e-05
-7.78684e-05
0.0001131
-0.000106532
0.000106906
-0.000127228
8.78391e-05
-0.000137482
6.14402e-05
-0.000136117
3.19117e-05
-0.000123062
2.69034e-06
-9.93341e-05
-2.3157e-05
-4.294e-05
-6.69997e-05
-1.37115e-05
6.48908e-05
-3.69708e-05
0.000121853
-5.96375e-05
0.000135767
-7.55362e-05
0.000122805
-8.07736e-05
9.30765e-05
-7.29289e-05
5.35956e-05
-5.06515e-05
9.63424e-06
-1.35563e-05
-3.44048e-05
3.76105e-05
-7.43237e-05
-0.000106088
0.000100759
-1.05535e-05
7.54443e-05
-2.49449e-05
0.000136244
-3.3953e-05
0.000144775
-3.22496e-05
0.000121102
-1.65489e-05
7.73758e-05
1.52757e-05
2.1771e-05
6.46341e-05
-3.97242e-05
0.000132289
-0.00010206
0.00021796
-0.000159995
-0.000207781
0.000319653
-6.17973e-06
8.1624e-05
-8.56565e-06
0.00013863
7.22013e-07
0.000135487
2.57484e-05
9.60753e-05
6.87402e-05
3.4384e-05
0.000131061
-4.055e-05
0.000213796
-0.000122459
0.000317953
-0.000206216
0.000443954
-0.000285997
-0.000353897
0.00059007
-2.78486e-07
8.19025e-05
1.31423e-05
0.000125209
4.63798e-05
0.00010225
0.000101848
4.06069e-05
0.000180195
-4.39627e-05
0.000281306
-0.000141661
0.000405098
-0.00024625
0.000552125
-0.000353244
0.000723472
-0.000457343
-0.000548664
0.000918238
7.43391e-06
7.44686e-05
4.10616e-05
9.15816e-05
0.000104946
3.83661e-05
0.000199679
-5.4127e-05
0.000323971
-0.000168254
0.000475446
-0.000293137
0.00065149
-0.000422294
0.000850397
-0.000552151
0.00107264
-0.000679582
-0.000797602
0.00132157
1.70654e-05
5.74031e-05
7.5506e-05
3.3141e-05
0.000177311
-6.34385e-05
0.000321565
-0.000198382
0.000505321
-0.00035201
0.000723813
-0.000511628
0.000970766
-0.000669247
0.00123937
-0.000820753
0.00152586
-0.000966072
-0.0011159
0.00184416
2.83503e-05
2.90528e-05
0.000115561
-5.40692e-05
0.000261835
-0.000209713
0.000465772
-0.000402319
0.000724581
-0.000610819
0.0010338
-0.000820844
0.00138663
-0.00102208
0.00177227
-0.0012064
0.00217503
-0.00136883
-0.00151336
0.00257248
4.04748e-05
-1.1422e-05
0.000158374
-0.000171969
0.000352087
-0.000403426
0.00062035
-0.000670582
0.000962546
-0.000953015
0.00137937
-0.00123767
0.00187407
-0.00151678
0.00245575
-0.00178808
0.00314735
-0.00206043
-0.00237219
0.00400618
5.23592e-05
-6.37812e-05
0.000199954
-0.000319563
0.000438005
-0.000641477
0.000763
-0.000995577
0.00117226
-0.00136227
0.00166392
-0.00172933
0.00223691
-0.00208977
0.00289038
-0.00244155
0.00361882
-0.00278887
-0.00314079
0.00438742
6.34848e-05
-0.000127266
0.00023825
-0.000494329
0.000514863
-0.000918089
0.000885312
-0.00136603
0.00134184
-0.0018188
0.0018763
-0.0022638
0.00247952
-0.00269298
0.00313969
-0.00310172
0.00383825
-0.00348743
-0.00384399
0.00454145
7.38714e-05
-0.000201137
0.000272988
-0.000693446
0.000582121
-0.00122722
0.000987487
-0.00177139
0.00147521
-0.00230653
0.0020307
-0.00281928
0.00263815
-0.00330044
0.00327987
-0.00374343
0.00393458
-0.00414214
-0.00448537
0.00457596
8.36627e-05
-0.0002848
0.000304313
-0.000914096
0.000640048
-0.00156296
0.00107069
-0.00220204
0.00157622
-0.00281206
0.00213646
-0.00337952
0.00273121
-0.00389519
0.00334036
-0.00435259
0.0039438
-0.00474558
-0.00506326
0.00452169
9.28482e-05
-0.000377648
0.000331966
-0.00115321
0.000688072
-0.00191906
0.00113437
-0.00264834
0.00164514
-0.00332282
0.00219582
-0.00393021
0.00276372
-0.00446309
0.00332854
-0.00491741
0.00387285
-0.00528989
-0.00557323
0.00438282
0.000101184
-0.000478833
0.000355067
-0.0014071
0.000724484
-0.00228848
0.00117614
-0.00309999
0.00167935
-0.00382604
0.00220662
-0.00445747
0.00273444
-0.0049909
0.00324398
-0.00542695
0.00372141
-0.00576733
-0.00601042
0.00415861
0.000108242
-0.000587074
0.000372269
-0.00167112
0.000746863
-0.00266307
0.0011927
-0.00354583
0.00167529
-0.00430863
0.00216569
-0.00494787
0.00264125
-0.00546646
0.0030859
-0.0058716
0.00349006
-0.00617149
-0.00637124
0.00385088
0.000113496
-0.00070057
0.00038206
-0.00193969
0.000752695
-0.00303371
0.00118098
-0.00397412
0.00163007
-0.00475772
0.00207123
-0.00538903
0.00248414
-0.00587937
0.00285648
-0.00624393
0.00318316
-0.00649818
-0.00665404
0.00346597
0.000116416
-0.000816986
0.000383026
-0.0022063
0.000739894
-0.00339058
0.0011389
-0.00437313
0.00154253
-0.00516134
0.00192389
-0.0057704
0.00226619
-0.00622167
0.00256142
-0.00653916
0.00280887
-0.00674563
-0.00685928
0.00301411
0.000116537
-0.000933522
0.00037406
-0.00246382
0.000707144
-0.00372366
0.00106576
-0.00473175
0.00141354
-0.00550912
0.00172689
-0.00608374
0.00199335
-0.00648812
0.00220937
-0.00675518
0.00237812
-0.00691438
-0.00698915
0.00250799
0.000113457
-0.00104698
0.000354398
-0.00270476
0.000653935
-0.0040232
0.000962216
-0.00504003
0.00124578
-0.00579268
0.00148545
-0.00632342
0.00167351
-0.00667619
0.0018106
-0.00689227
0.00190303
-0.00700681
-0.00704716
0.00196104
0.000106917
-0.0011539
0.000323755
-0.0029216
0.000580684
-0.00428013
0.000830231
-0.00528957
0.00104342
-0.00600587
0.00120625
-0.00648625
0.0013157
-0.00678563
0.001376
-0.00695257
0.00139579
-0.0070266
-0.0070376
0.00138623
9.67702e-05
-0.00125067
0.000282254
-0.00310708
0.000488542
-0.00448641
0.00067271
-0.00547374
0.000811534
-0.0061447
0.000896521
-0.00657123
0.000928981
-0.00681809
0.000915975
-0.00693956
0.000867559
-0.00697819
-0.00696517
0.000795124
8.29982e-05
-0.00133366
0.000230411
-0.0032545
0.000379272
-0.00463528
0.000493177
-0.00558765
0.000555543
-0.00620706
0.000563391
-0.00657908
0.000521773
-0.00677647
0.000439699
-0.00685749
0.000327816
-0.0068663
-0.0068346
0.000197243
6.57186e-05
-0.00139938
0.00016911
-0.00335789
0.000255133
-0.0047213
0.000295519
-0.00562803
0.000280839
-0.00619238
0.000213371
-0.00651161
0.000101237
-0.00666434
-4.54396e-05
-0.00671081
-0.000216167
-0.00669558
-0.00665045
-0.000400309
4.52017e-05
-0.00144459
9.96135e-05
-0.0034123
0.000118829
-0.00474051
8.38896e-05
-0.00559309
-7.36931e-06
-0.00610113
-0.000147837
-0.00637115
-0.000326936
-0.00648524
-0.000534095
-0.00650365
-0.000759591
-0.00647008
-0.00641654
-0.000993507
2.18975e-05
-0.00146648
2.35911e-05
-0.00341399
-2.64513e-05
-0.00469047
-0.000137248
-0.0054823
-0.000303967
-0.00593441
-0.000515215
-0.0061599
-0.00075842
-0.00624203
-0.00102295
-0.00623912
-0.00130036
-0.00619267
-0.00613332
-0.00158358
-3.5239e-06
-0.00146296
-5.67998e-05
-0.00336072
-0.000176919
-0.00457035
-0.000362962
-0.00529626
-0.00060385
-0.00569352
-0.000884695
-0.00587905
-0.00119127
-0.00593546
-0.00151273
-0.00591766
-0.00184204
-0.00586335
-0.00579383
-0.00218153
-3.01077e-05
-0.00143285
-0.000138738
-0.00325209
-0.000327727
-0.00438136
-0.000586878
-0.00503711
-0.000900371
-0.00538002
-0.0012516
-0.00552782
-0.00162603
-0.00556103
-0.00201327
-0.00553043
-0.00240933
-0.00546729
-0.00540647
-0.00279669
-5.66203e-05
-0.00137623
-0.000218705
-0.00309
-0.000472466
-0.0041276
-0.00079908
-0.00471049
-0.00117942
-0.00499968
-0.00159758
-0.00510967
-0.00204225
-0.00511636
-0.00250616
-0.00506651
-0.00298843
-0.00498502
-0.00486994
-0.00352497
-8.19861e-05
-0.00129424
-0.000293656
-0.00287833
-0.000605384
-0.00381587
-0.000989449
-0.00432643
-0.00142231
-0.00456682
-0.00188592
-0.00464606
-0.00236727
-0.004635
-0.00285739
-0.00457639
-0.00335011
-0.00449231
-0.00439084
-0.00382921
-0.000105567
-0.00118868
-0.00036221
-0.00262169
-0.000725122
-0.00345296
-0.0011583
-0.00389325
-0.00163423
-0.00409089
-0.00213319
-0.0041471
-0.00264174
-0.00412645
-0.0031509
-0.00406724
-0.00365346
-0.00398975
-0.00390446
-0.00413984
-0.000127019
-0.00106166
-0.00042378
-0.00232493
-0.000831571
-0.00304517
-0.00130721
-0.00341761
-0.00182015
-0.00357795
-0.00234994
-0.00361731
-0.00288351
-0.00359288
-0.00341269
-0.00353806
-0.00393191
-0.00347053
-0.00339976
-0.0044366
-0.000146081
-0.000915577
-0.00047793
-0.00199308
-0.00092455
-0.00259855
-0.00143676
-0.0029054
-0.0019818
-0.0030329
-0.00253907
-0.00306004
-0.00309627
-0.00303569
-0.00364639
-0.00298793
-0.00418547
-0.00293145
-0.00287403
-0.0047112
-0.000162504
-0.000753072
-0.000524205
-0.00163138
-0.00100363
-0.00211913
-0.00154671
-0.00236232
-0.00211914
-0.00246047
-0.00270043
-0.00247876
-0.00327912
-0.00245699
-0.00384931
-0.00241775
-0.00440816
-0.00237259
-0.00232762
-0.00495457
-0.000176039
-0.000577034
-0.000562094
-0.00124532
-0.00106815
-0.00161308
-0.00163633
-0.00179414
-0.00223122
-0.00186558
-0.00283257
-0.00187741
-0.00342968
-0.00185989
-0.00401747
-0.00182996
-0.00459391
-0.00179615
-0.00176296
-0.00515857
-0.000186443
-0.000390591
-0.000591077
-0.00084069
-0.00111738
-0.00108677
-0.00170467
-0.00120685
-0.00231678
-0.00125346
-0.0029337
-0.00126049
-0.00354531
-0.00124828
-0.00414715
-0.00122812
-0.00473767
-0.00120563
-0.00118375
-0.00531689
-0.000193509
-0.000197082
-0.000610691
-0.000423508
-0.00115064
-0.000546822
-0.00175082
-0.000606672
-0.0023746
-0.000629679
-0.00300215
-0.000632942
-0.00362375
-0.000626684
-0.00423532
-0.000616548
-0.00483563
-0.000605316
-0.000594448
-0.00542493
-0.000197082
-3.75248e-10
-0.000620589
-8.02439e-10
-0.00116741
-1.03962e-09
-0.00177408
-1.15127e-09
-0.00240376
-1.18236e-09
-0.0030367
-1.16343e-09
-0.00366338
-1.11335e-09
-0.00427993
-1.04286e-09
-0.00488524
-9.59167e-10
-8.7334e-10
-0.00547969
-0.000197082
0.000197081
-0.000620589
0.000423506
-0.00116741
0.00054682
-0.00177408
0.00060667
-0.00240376
0.000629676
-0.0030367
0.000632939
-0.00366338
0.000626682
-0.00427993
0.000616546
-0.00488524
0.000605314
0.000594446
-0.00547969
-0.000193509
0.00039059
-0.000610691
0.000840688
-0.00115064
0.00108677
-0.00175082
0.00120685
-0.0023746
0.00125346
-0.00300215
0.00126049
-0.00362375
0.00124828
-0.00423532
0.00122812
-0.00483563
0.00120563
0.00118374
-0.00542493
-0.000186443
0.000577033
-0.000591077
0.00124532
-0.00111738
0.00161307
-0.00170467
0.00179414
-0.00231678
0.00186558
-0.0029337
0.00187741
-0.00354531
0.00185988
-0.00414715
0.00182995
-0.00473767
0.00179615
0.00176296
-0.00531689
-0.000176039
0.000753072
-0.000562094
0.00163138
-0.00106815
0.00211913
-0.00163633
0.00236232
-0.00223122
0.00246047
-0.00283257
0.00247875
-0.00342968
0.00245699
-0.00401747
0.00241775
-0.00459391
0.00237259
0.00232762
-0.00515857
-0.000162504
0.000915576
-0.000524205
0.00199308
-0.00100363
0.00259855
-0.00154671
0.0029054
-0.00211914
0.0030329
-0.00270043
0.00306004
-0.00327912
0.00303569
-0.00384931
0.00298793
-0.00440816
0.00293144
0.00287403
-0.00495457
-0.000146081
0.00106166
-0.00047793
0.00232493
-0.000924551
0.00304517
-0.00143676
0.0034176
-0.0019818
0.00357795
-0.00253907
0.00361731
-0.00309627
0.00359288
-0.00364639
0.00353806
-0.00418547
0.00347052
0.00339976
-0.00471121
-0.00012702
0.00118868
-0.00042378
0.00262169
-0.000831571
0.00345296
-0.00130721
0.00389325
-0.00182015
0.00409089
-0.00234994
0.0041471
-0.00288351
0.00412645
-0.00341269
0.00406724
-0.00393191
0.00398974
0.00390445
-0.0044366
-0.000105567
0.00129424
-0.00036221
0.00287833
-0.000725122
0.00381587
-0.0011583
0.00432642
-0.00163423
0.00456682
-0.00213319
0.00464606
-0.00264174
0.004635
-0.0031509
0.00457639
-0.00365346
0.00449231
0.00439084
-0.00413984
-8.19862e-05
0.00137623
-0.000293656
0.00309
-0.000605384
0.0041276
-0.000989449
0.00471049
-0.00142231
0.00499968
-0.00188592
0.00510967
-0.00236727
0.00511636
-0.0028574
0.00506651
-0.00335011
0.00498502
0.00486994
-0.00382921
-5.66204e-05
0.00143285
-0.000218705
0.00325209
-0.000472466
0.00438136
-0.000799081
0.0050371
-0.00117942
0.00538002
-0.00159758
0.00552782
-0.00204225
0.00556103
-0.00250616
0.00553043
-0.00298843
0.00546728
0.00540647
-0.00352497
-3.01077e-05
0.00146296
-0.000138738
0.00336072
-0.000327727
0.00457035
-0.000586878
0.00529625
-0.000900371
0.00569351
-0.0012516
0.00587905
-0.00162603
0.00593546
-0.00201327
0.00591766
-0.00240933
0.00586335
0.00579383
-0.00279669
-3.52396e-06
0.00146648
-5.67999e-05
0.00341399
-0.000176919
0.00469047
-0.000362962
0.0054823
-0.000603851
0.0059344
-0.000884695
0.0061599
-0.00119127
0.00624203
-0.00151273
0.00623912
-0.00184204
0.00619267
0.00613332
-0.00218153
2.18974e-05
0.00144458
2.35909e-05
0.0034123
-2.64516e-05
0.00474051
-0.000137248
0.00559309
-0.000303968
0.00610112
-0.000515215
0.00637114
-0.000758421
0.00648524
-0.00102295
0.00650365
-0.00130036
0.00647008
0.00641654
-0.00158358
4.52017e-05
0.00139938
9.96133e-05
0.00335789
0.000118828
0.0047213
8.38892e-05
0.00562803
-7.36982e-06
0.00619238
-0.000147838
0.00651161
-0.000326937
0.00666434
-0.000534096
0.00671081
-0.000759592
0.00669557
0.00665045
-0.000993508
6.57185e-05
0.00133366
0.00016911
0.0032545
0.000255132
0.00463528
0.000295519
0.00558765
0.000280838
0.00620706
0.00021337
0.00657908
0.000101236
0.00677647
-4.54403e-05
0.00685749
-0.000216168
0.0068663
0.00683459
-0.00040031
8.29982e-05
0.00125067
0.00023041
0.00310708
0.000379272
0.00448641
0.000493176
0.00547374
0.000555542
0.0061447
0.00056339
0.00657123
0.000521772
0.00681809
0.000439698
0.00693956
0.000327816
0.00697818
0.00696517
0.000197242
9.67702e-05
0.0011539
0.000282254
0.0029216
0.000488541
0.00428013
0.00067271
0.00528957
0.000811534
0.00600587
0.000896521
0.00648625
0.000928981
0.00678563
0.000915974
0.00695257
0.000867558
0.0070266
0.0070376
0.000795123
0.000106917
0.00104698
0.000323755
0.00270476
0.000580684
0.0040232
0.000830231
0.00504003
0.00104342
0.00579268
0.00120625
0.00632342
0.0013157
0.00667618
0.001376
0.00689227
0.00139579
0.00700681
0.00704716
0.00138623
0.000113457
0.000933522
0.000354398
0.00246382
0.000653935
0.00372366
0.000962216
0.00473175
0.00124578
0.00550912
0.00148545
0.00608374
0.00167351
0.00648812
0.0018106
0.00675518
0.00190303
0.00691438
0.00698915
0.00196103
0.000116537
0.000816986
0.00037406
0.0022063
0.000707144
0.00339058
0.00106576
0.00437313
0.00141354
0.00516134
0.00172689
0.0057704
0.00199335
0.00622167
0.00220937
0.00653916
0.00237812
0.00674563
0.00685928
0.00250799
0.000116416
0.00070057
0.000383025
0.00193969
0.000739894
0.00303371
0.0011389
0.00397412
0.00154253
0.00475772
0.00192389
0.00538903
0.00226619
0.00587937
0.00256142
0.00624393
0.00280887
0.00649817
0.00665404
0.00301411
0.000113496
0.000587074
0.00038206
0.00167112
0.000752694
0.00266307
0.00118098
0.00354583
0.00163007
0.00430863
0.00207123
0.00494787
0.00248414
0.00546646
0.00285647
0.0058716
0.00318316
0.00617149
0.00637124
0.00346597
0.000108241
0.000478833
0.000372269
0.0014071
0.000746862
0.00228848
0.0011927
0.00309999
0.00167529
0.00382604
0.00216569
0.00445747
0.00264125
0.0049909
0.0030859
0.00542695
0.00349006
0.00576733
0.00601042
0.00385088
0.000101184
0.000377648
0.000355066
0.00115321
0.000724484
0.00191906
0.00117614
0.00264834
0.00167935
0.00332282
0.00220662
0.00393021
0.00273444
0.00446308
0.00324398
0.00491741
0.00372141
0.00528989
0.00557323
0.0041586
9.28482e-05
0.0002848
0.000331966
0.000914097
0.000688072
0.00156296
0.00113437
0.00220204
0.00164514
0.00281206
0.00219582
0.00337952
0.00276372
0.00389519
0.00332854
0.00435259
0.00387285
0.00474558
0.00506326
0.00438282
8.36627e-05
0.000201138
0.000304313
0.000693446
0.000640047
0.00122722
0.00107069
0.00177139
0.00157622
0.00230653
0.00213646
0.00281928
0.00273121
0.00330044
0.00334036
0.00374343
0.0039438
0.00414214
0.00448537
0.00452169
7.38714e-05
0.000127266
0.000272988
0.000494329
0.000582121
0.00091809
0.000987487
0.00136603
0.00147521
0.0018188
0.0020307
0.0022638
0.00263815
0.00269298
0.00327987
0.00310172
0.00393458
0.00348743
0.00384399
0.00457596
6.34848e-05
6.37815e-05
0.00023825
0.000319564
0.000514863
0.000641477
0.000885312
0.000995578
0.00134184
0.00136228
0.0018763
0.00172933
0.00247952
0.00208977
0.00313969
0.00244155
0.00383825
0.00278887
0.00314079
0.00454145
5.23592e-05
1.14222e-05
0.000199954
0.000171969
0.000438005
0.000403427
0.000763
0.000670582
0.00117226
0.000953015
0.00166392
0.00123767
0.00223691
0.00151678
0.00289038
0.00178808
0.00361882
0.00206043
0.00237219
0.00438742
4.04748e-05
-2.90526e-05
0.000158374
5.40697e-05
0.000352087
0.000209714
0.00062035
0.000402319
0.000962546
0.00061082
0.00137937
0.000820845
0.00187407
0.00102208
0.00245575
0.0012064
0.00314735
0.00136883
0.00151336
0.00400618
2.83504e-05
-5.74029e-05
0.000115561
-3.31405e-05
0.000261835
6.34392e-05
0.000465772
0.000198382
0.000724581
0.000352011
0.0010338
0.000511629
0.00138662
0.000669248
0.00177227
0.000820754
0.00217502
0.000966073
0.00111591
0.00257248
1.70654e-05
-7.44684e-05
7.5506e-05
-9.15811e-05
0.00017731
-3.83653e-05
0.000321565
5.4128e-05
0.00050532
0.000168255
0.000723812
0.000293138
0.000970765
0.000422295
0.00123937
0.000552153
0.00152586
0.000679584
0.000797604
0.00184416
7.4339e-06
-8.19023e-05
4.10616e-05
-0.000125209
0.000104945
-0.000102249
0.000199679
-4.06057e-05
0.00032397
4.39641e-05
0.000475445
0.000141663
0.000651488
0.000246252
0.000850395
0.000353246
0.00107263
0.000457345
0.000548666
0.00132157
-2.78511e-07
-8.16237e-05
1.31422e-05
-0.000138629
4.63795e-05
-0.000135486
0.000101848
-9.60739e-05
0.000180194
-3.43823e-05
0.000281305
4.05519e-05
0.000405096
0.000122461
0.000552123
0.000206219
0.000723469
0.000286
0.0003539
0.000918235
-6.17977e-06
-7.5444e-05
-8.5658e-06
-0.000136243
7.21677e-07
-0.000144774
2.57478e-05
-0.0001211
6.87392e-05
-7.73737e-05
0.00013106
-2.17686e-05
0.000213794
3.97269e-05
0.00031795
0.000102063
0.000443951
0.000159999
0.000207785
0.000590066
-1.05535e-05
-6.48904e-05
-2.4945e-05
-0.000121852
-3.39534e-05
-0.000135765
-3.22503e-05
-0.000122803
-1.65498e-05
-9.30741e-05
1.52743e-05
-5.35928e-05
6.46323e-05
-9.63107e-06
0.000132286
3.44084e-05
0.000217957
7.43279e-05
0.000106093
0.000319649
-1.37116e-05
-5.11788e-05
-3.69709e-05
-9.85926e-05
-5.96378e-05
-0.000113099
-7.55368e-05
-0.000106904
-8.07745e-05
-8.78364e-05
-7.29302e-05
-6.14371e-05
-5.06531e-05
-3.19081e-05
-1.35584e-05
-2.68626e-06
3.76078e-05
2.31617e-05
4.29453e-05
0.000100755
-1.59052e-05
-3.52736e-05
-4.54319e-05
-6.90658e-05
-7.78687e-05
-8.06618e-05
-0.000106532
-7.82405e-05
-0.000127229
-6.71395e-05
-0.000137483
-5.11828e-05
-0.000136118
-3.32735e-05
-0.000123064
-1.57403e-05
-9.93362e-05
-5.66074e-07
1.06114e-05
-6.70023e-05
-1.72976e-05
-1.7976e-05
-5.08458e-05
-3.55176e-05
-8.96156e-05
-4.18919e-05
-0.000126655
-4.12013e-05
-0.000157644
-3.61504e-05
-0.000180138
-2.86883e-05
-0.000193118
-2.02934e-05
-0.000196722
-1.21364e-05
-0.000192102
-5.1865e-06
-2.1813e-07
-0.000181272
-1.79762e-05
-5.34944e-05
-9.53873e-05
-0.00013659
-0.000172742
-0.000201432
-0.000221727
-0.000233866
-0.000239055
-0.000239277
0.000183726
-0.000422866
-1.36057e-07
0.00132175
-0.00113796
-6.26279e-08
0.0024855
-0.00116415
3.99823e-07
0.00323255
-0.000747548
5.02162e-07
0.00385228
-0.000619717
-1.53563e-08
0.0042806
-0.000427966
-3.52352e-07
0.0046246
-0.000343131
-8.7575e-07
0.0048565
-0.000231015
-8.79158e-07
0.00506586
-0.000209743
3.8166e-07
-0.000124969
6.414e-07
0.000295407
-0.000899543
0.00140416
-0.00224671
0.00254161
-0.0023016
0.00327209
-0.00147803
0.00388028
-0.00122791
0.00430196
-0.000849645
0.00464182
-0.00068299
0.00487194
-0.000461137
0.00508052
-0.000418329
-0.000250342
0.000511607
-0.00147815
0.0015633
-0.0032984
0.00264963
-0.00338793
0.00334822
-0.00217662
0.00393423
-0.00181391
0.00434326
-0.00125867
0.00467527
-0.001015
0.00490215
-0.000688024
0.00510943
-0.000625602
-0.000377944
0.000818468
-0.00219586
0.00178827
-0.00426821
0.0028015
-0.00440115
0.00345526
-0.00283039
0.00401016
-0.00236881
0.00440172
-0.00165024
0.00472305
-0.00133633
0.00494584
-0.00091082
0.00515173
-0.000831485
-0.00050922
0.00119642
-0.00307262
0.00206381
-0.0051356
0.00298593
-0.00532328
0.00358522
-0.00342968
0.0041025
-0.00288609
0.00447345
-0.00202118
0.00478247
-0.00164535
0.00500116
-0.00112951
0.00520622
-0.00103654
-0.000645983
0.00162139
-0.00410395
0.00237131
-0.00588552
0.00318928
-0.00614124
0.00372842
-0.00396883
0.00420446
-0.00336213
0.00455364
-0.00237036
0.00485019
-0.0019419
0.00506578
-0.00134509
0.00527136
-0.00124212
-0.000790496
0.00206534
-0.00525105
0.00268962
-0.00650979
0.00339633
-0.00684795
0.00387412
-0.00444661
0.00430848
-0.00379649
0.00463692
-0.0026988
0.00492243
-0.00222741
0.00513704
-0.0015597
0.00534536
-0.00145045
-0.000945526
0.00249794
-0.00642742
0.00299566
-0.00700751
0.00359113
-0.00744342
0.00401112
-0.00486661
0.0044067
-0.00419207
0.00471764
-0.00300975
0.00499516
-0.00250493
0.00521206
-0.00177659
0.00542623
-0.00166463
-0.00111435
0.0029016
-0.00748486
0.00327051
-0.00737642
0.0037596
-0.00793251
0.00412897
-0.00523597
0.00449162
-0.00455472
0.00479028
-0.00330841
0.00506436
-0.00277901
0.00528788
-0.00200011
0.00551188
-0.00188863
-0.00130076
0.00328109
-0.00819347
0.00351249
-0.00760781
0.00389091
-0.00831092
0.00422036
-0.00556543
0.00455652
-0.00489087
0.00484989
-0.00360178
0.00512601
-0.00305513
0.00536177
-0.00223587
0.00559982
-0.00212667
-0.00150949
0.0432805
-0.000915339
-0.0505587
0.0390644
-0.00339163
0.0369861
-0.00623269
0.0368
-0.0053793
0.036653
-0.00474388
0.0368185
-0.0037673
0.0370089
-0.0032455
0.0372626
-0.00248959
0.0374729
-0.002337
-0.0017981
0.0523393
0.00331302
-0.0565676
0.0501431
-0.00119552
0.0475496
-0.00363915
0.0460087
-0.00383839
0.0448013
-0.0035365
0.0439753
-0.00294127
0.0433281
-0.00259836
0.0429104
-0.00207183
0.0425088
-0.00193545
-0.00160534
0.0539041
0.00452409
-0.0551151
0.0526219
8.66248e-05
0.0510055
-0.00202278
0.049696
-0.00252888
0.0485975
-0.00243797
0.0477378
-0.00208158
0.0469855
-0.00184607
0.0464232
-0.00150946
0.0458667
-0.00137901
-0.00122332
0.0520606
0.00437441
-0.051911
0.0516517
0.000495606
0.0508182
-0.00118935
0.0499787
-0.0016893
0.0492355
-0.00169478
0.0486344
-0.00148052
0.0480833
-0.00129499
0.0476472
-0.00107331
0.0472087
-0.000940553
-0.00087336
0.0500074
0.00369111
-0.0493241
0.0498799
0.000623099
0.0494568
-0.000766263
0.0489538
-0.0011863
0.0484823
-0.00122323
0.0480977
-0.00109599
0.0477478
-0.000945047
0.047463
-0.000788501
0.0471853
-0.000662883
-0.000624175
0.0483082
0.0028905
-0.0475076
0.0483334
0.000597947
0.0480819
-0.000514762
0.0477504
-0.000854825
0.0474256
-0.00089842
0.047156
-0.000826378
0.046922
-0.00071108
0.0467298
-0.000596309
0.0465572
-0.000490271
-0.000456742
0.0470996
0.00210086
-0.0463099
0.0471933
0.00050415
0.0470186
-0.000340062
0.0467669
-0.000603093
0.046511
-0.000642483
0.0462892
-0.000604581
0.0461029
-0.000524756
0.0459491
-0.00044255
0.0458217
-0.000362827
-0.000332002
0.0462851
0.00136195
-0.0455462
0.0464293
0.000359974
0.0462957
-0.000206533
0.0460797
-0.000387065
0.0458535
-0.000416275
0.0456479
-0.000398981
0.0454738
-0.000350678
0.0453288
-0.000297555
0.0452113
-0.000245286
-0.000221468
0.0457885
0.000668584
-0.0450951
0.0459647
0.000183798
0.045857
-9.8854e-05
0.0456575
-0.000187617
0.0454438
-0.000202575
0.045243
-0.000198172
0.0450686
-0.000176224
0.0449217
-0.000150699
0.0448008
-0.000124317
-0.000111969
0.0455539
-0.0448853
0.0457377
0.0456389
0.0454512
0.0452487
0.0450505
0.0448743
0.0447236
0.0445993
0.0567753
0.00230158
-0.0560628
0.0573297
0.00291154
0.0576775
0.00350308
0.057769
0.00406717
0.0575572
0.00459457
0.0570024
0.00507647
0.0560732
0.00550516
0.0547402
0.00587451
0.052948
0.00617965
0.00639546
0.0513979
0.00169289
-0.0507892
0.0520516
0.00225784
0.0527363
0.00281842
0.0534339
0.00336954
0.054123
0.00390549
0.0547794
0.00442006
0.0553778
0.00490678
0.055893
0.00535931
0.0563008
0.00577188
0.0061286
0.0480918
0.00121799
-0.0476169
0.0486477
0.00170196
0.0492813
0.00218476
0.0499873
0.00266352
0.0507578
0.00313507
0.0515819
0.00359595
0.0524463
0.00404233
0.0533356
0.00447003
0.0542329
0.00487454
0.00524642
0.0454945
0.000891383
-0.0451679
0.0459013
0.0012952
0.0463888
0.00169728
0.0469569
0.00209538
0.0476048
0.00248722
0.0483302
0.00287048
0.0491298
0.00324276
0.0499983
0.00360154
0.0509288
0.00394403
0.00426424
0.0439058
0.000651551
-0.043666
0.0442197
0.000981271
0.0446079
0.00130911
0.0450701
0.00163321
0.0456056
0.00195169
0.0462134
0.0022627
0.0468918
0.00256436
0.0476385
0.00285479
0.0484507
0.0031319
0.0033908
0.0428101
0.000469378
-0.0426279
0.0430622
0.000729116
0.0433842
0.000987085
0.0437757
0.00124177
0.0442357
0.00149166
0.0447631
0.00173526
0.0453564
0.00197111
0.0460135
0.00219773
0.0467319
0.00241351
0.00261507
0.0421162
0.000324607
-0.0419714
0.0423279
0.000517446
0.0426061
0.00070887
0.0429501
0.000897729
0.0433589
0.00108288
0.043831
0.00126318
0.0443646
0.00143753
0.0449575
0.00160481
0.0456072
0.00176384
0.00191231
0.0416643
0.000203996
-0.0415437
0.04185
0.000331705
0.0421004
0.000458457
0.0424147
0.00058348
0.0427915
0.000706004
0.0432295
0.000825271
0.0437265
0.000940534
0.0442802
0.00105105
0.044888
0.00115604
0.00125414
0.0413996
9.81586e-05
-0.0412938
0.0415695
0.000161806
0.041803
0.000224994
0.0420991
0.000287332
0.0424567
0.000348436
0.0428741
0.00040792
0.0433492
0.000465409
0.0438797
0.00052053
0.0444628
0.000572892
0.000621854
0.0412742
-0.041176
0.041436
0.041661
0.0419483
0.0422967
0.0427046
0.0431701
0.0436906
0.0442635
0.0481094
-0.00335375
-0.0475524
0.0488228
-0.0028949
0.0496454
-0.00240623
0.0505376
-0.00188566
0.0514714
-0.00133414
0.0524283
-0.000759603
0.0533899
-0.000166534
0.0543348
0.00044137
0.0552365
0.00105937
0.00168167
0.0479852
-0.00340684
-0.0479321
0.0480815
-0.0029912
0.0482205
-0.00254526
0.0484082
-0.0020733
0.0486505
-0.00157646
0.0489517
-0.00106081
0.0493152
-0.000530097
0.0497433
1.33499e-05
0.0502356
0.000567045
0.00112802
0.046897
-0.0031475
-0.0471564
0.0466931
-0.00278731
0.0465499
-0.00240198
0.0464725
-0.00199592
0.0464672
-0.00157119
0.0465376
-0.00113121
0.046686
-0.000678488
0.0469144
-0.000215042
0.0472244
0.00025705
0.000735525
0.0455818
-0.00277138
-0.0459579
0.0452636
-0.00246906
0.0450067
-0.0021451
0.0448147
-0.00180393
0.0446909
-0.00144742
0.0446377
-0.00107801
0.044657
-0.000697777
0.0447507
-0.000308672
0.0449204
8.7293e-05
0.000488028
0.0446599
-0.0023496
-0.0450817
0.0442919
-0.00210111
0.0439823
-0.00183549
0.0437342
-0.00155579
0.0435504
-0.00126363
0.0434332
-0.000960854
0.0433847
-0.000649203
0.0434064
-0.000330371
0.0434998
-6.1005e-06
0.000321818
0.0439897
-0.00190031
-0.0444389
0.0435923
-0.0017038
0.0432508
-0.00149398
0.0429681
-0.0012731
0.0427469
-0.00104239
0.0425893
-0.000803274
0.0424972
-0.000557126
0.0424722
-0.000305341
0.0425155
-4.93467e-05
0.000209392
0.043559
-0.00143593
-0.0440234
0.043145
-0.00128981
0.042785
-0.00113398
0.0424818
-0.000969931
0.042238
-0.000798574
0.0420557
-0.000620929
0.0419366
-0.000438031
0.0418822
-0.000250932
0.0418935
-6.07165e-05
0.000131508
0.0432802
-0.000961461
-0.0437546
0.0428551
-0.000864767
0.0424828
-0.000761685
0.042166
-0.000653145
0.0419072
-0.000539753
0.0417085
-0.000422169
0.0415715
-0.000301078
0.0414978
-0.000177183
0.0414883
-5.12086e-05
7.61042e-05
0.0431192
-0.000481537
-0.0435992
0.042688
-0.000433515
0.0423086
-0.000382323
0.0419839
-0.0003284
0.0417162
-0.000272044
0.0415076
-0.00021358
0.0413599
-0.000153345
0.0412744
-9.16874e-05
0.0412521
-2.89689e-05
3.44397e-05
0.0430454
-0.043527
0.0426119
0.0422296
0.0419012
0.0416291
0.0414156
0.0412622
0.0411705
0.0411416
0.0429475
0.00017463
-0.000193168
0.0429914
0.000521276
-0.000565199
0.0430658
0.000872671
-0.000947118
0.0431884
0.001237
-0.00135953
0.043389
0.00161961
-0.00182026
0.0437114
0.00202475
-0.0023471
0.0442143
0.00245452
-0.0029574
0.0449695
0.00291137
-0.00366664
0.0460712
0.00337131
-0.00447302
0.00392367
-0.0054048
0.0429657
0.000137881
0.0430729
0.000414036
0.043254
0.000691548
0.0435194
0.000971603
0.043884
0.00125501
0.0443668
0.00154202
0.0449896
0.00183167
0.0457769
0.00212406
0.0467446
0.00240364
0.00273618
0.0429665
0.000100273
0.0430779
0.000302717
0.0432627
0.000506705
0.0435251
0.000709227
0.0438707
0.000909384
0.0443068
0.00110588
0.0448419
0.00129663
0.045486
0.00147993
0.0462438
0.00164581
0.00182363
0.0429586
7.05594e-05
0.0430476
0.000213751
0.043196
0.000358307
0.0434046
0.000500637
0.0436744
0.000639535
0.0440066
0.000773707
0.0444017
0.000901582
0.0448597
0.00102195
0.0453756
0.00112982
0.00124133
0.0429506
4.88961e-05
0.0430161
0.000148279
0.0431258
0.000248593
0.0432795
0.000346945
0.0434767
0.000442274
0.0437169
0.000533532
0.0439989
0.000619576
0.0443214
0.000699477
0.0446808
0.000770444
0.000840425
0.0429445
3.3308e-05
0.0429918
0.00010102
0.043071
0.000169335
0.0431818
0.000236201
0.0433232
0.000300843
0.0434942
0.000362521
0.0436933
0.000420494
0.0439186
0.000474168
0.044167
0.000522069
0.000568466
0.0429403
2.19175e-05
0.0429749
6.6464e-05
0.0430328
0.000111388
0.0431137
0.000155331
0.0432168
0.000197771
0.0433411
0.000238218
0.0434854
0.000276194
0.0436482
0.000311312
0.0438276
0.000342741
0.000372647
0.0429376
1.3277e-05
0.0429638
4.02495e-05
0.0430077
6.74378e-05
0.043069
9.40329e-05
0.0431471
0.00011972
0.0432411
0.00014421
0.0433501
0.000167224
0.0434728
0.000188537
0.0436079
0.000207716
0.000225864
0.0429359
6.26135e-06
0.0429572
1.89822e-05
0.0429929
3.17942e-05
0.0430426
4.43273e-05
0.0431058
5.64353e-05
0.0431821