/*--------------------------------*- C++ -*----------------------------------*\
  =========                 |
  \\      /  F ield         | OpenFOAM: The Open Source CFD Toolbox
   \\    /   O peration     | Website:  https://openfoam.org
    \\  /    A nd           | Version:  6.0
     \\/     M anipulation  |
\*---------------------------------------------------------------------------*/
FoamFile
{
    version     2.0;
    format      ascii;
    class       volVectorField;
    location    "44";
    object      U;
}
// * * * * * * * * * * * * * * * * * * * * * * * * * * * * * * * * * * * * * //

dimensions      [0 1 -1 0 0 0 0];

internalField   nonuniform List<vector> 
2000
(
(-0.00199126 0.00173842 5.72915e-20)
(-0.00762169 0.00330272 6.80447e-20)
(-0.0153303 0.00366206 -6.48698e-20)
(-0.0223327 0.00333779 -1.32368e-19)
(-0.0276808 0.00264018 -9.24664e-20)
(-0.0312218 0.00177236 1.23185e-19)
(-0.0330531 0.000879745 7.17515e-20)
(-0.0334439 6.90275e-05 -2.90257e-20)
(-0.0328264 -0.000580657 -7.2459e-20)
(-0.0314953 -0.00100542 5.28323e-20)
(-0.00248974 0.00512143 -1.4201e-19)
(-0.00837079 0.0096857 1.96042e-19)
(-0.0157254 0.0106977 1.9549e-20)
(-0.0220253 0.00969762 -1.13555e-19)
(-0.0264597 0.00759838 5.43372e-19)
(-0.028952 0.00499687 -2.39145e-19)
(-0.0296478 0.00232143 -2.58724e-19)
(-0.0288425 -0.000109633 3.12053e-19)
(-0.0269847 -0.0020546 -3.07758e-19)
(-0.0244466 -0.00332101 1.55259e-19)
(-0.0034358 0.00822503 2.35854e-20)
(-0.00972821 0.0154098 8.38845e-21)
(-0.0163017 0.0168864 5.87532e-19)
(-0.0211438 0.0151405 2.06101e-19)
(-0.0237178 0.0116335 4.08766e-20)
(-0.0240983 0.00731703 3.38031e-19)
(-0.0225238 0.00287697 -6.42045e-19)
(-0.0193384 -0.00116388 1.39248e-20)
(-0.0150199 -0.00438873 -3.7966e-19)
(-0.0101024 -0.00647398 4.18241e-19)
(-0.0047241 0.0108682 -4.43664e-20)
(-0.0114035 0.0200606 2.55247e-19)
(-0.0166179 0.0217192 -7.43674e-19)
(-0.0191363 0.0191495 -9.61268e-20)
(-0.0188321 0.0142677 -5.47369e-19)
(-0.0160034 0.00831174 5.6689e-19)
(-0.0110225 0.00217626 -6.01293e-19)
(-0.00429604 -0.00342964 4.22279e-19)
(0.00366352 -0.00789621 1.77527e-19)
(0.0120642 -0.0107643 -2.00602e-19)
(-0.00618713 0.012875 -4.938e-19)
(-0.0129401 0.0232576 4.45602e-21)
(-0.0159823 0.0247667 9.16099e-19)
(-0.0151343 0.021343 2.74643e-19)
(-0.0108144 0.0152254 -8.73267e-19)
(-0.0036155 0.00783555 5.43016e-19)
(0.00591875 0.000196389 6.15499e-19)
(0.0173146 -0.00683865 -5.48765e-19)
(0.0300366 -0.0124522 3.91265e-19)
(0.0429249 -0.0160468 9.60799e-20)
(-0.00758383 0.0140745 6.74992e-20)
(-0.0136958 0.0246652 1.25191e-20)
(-0.0134291 0.0257009 -1.17123e-18)
(-0.00792054 0.0215117 -6.55239e-19)
(0.00173598 0.0144923 7.81645e-19)
(0.0145793 0.00611563 -9.15339e-19)
(0.0298503 -0.00258965 1.04888e-18)
(0.0470099 -0.0107143 -9.06007e-20)
(0.065541 -0.0172489 -2.95084e-19)
(0.0838011 -0.0214705 -8.57645e-19)
(-0.00858788 0.0143042 -1.46875e-19)
(-0.0128318 0.0240058 -2.68255e-19)
(-0.00771322 0.024309 -3.29565e-19)
(0.00407966 0.0196271 7.03052e-19)
(0.0206602 0.012327 1.30416e-18)
(0.0406186 0.00378475 -2.69552e-19)
(0.0629154 -0.00513221 -6.56041e-19)
(0.0869308 -0.0136323 2.00094e-19)
(0.112251 -0.0206148 -1.26011e-18)
(0.136676 -0.0252832 1.38411e-18)
(-0.00878378 0.0134243 8.98296e-19)
(-0.009328 0.0210861 -4.90333e-19)
(0.00264634 0.0205024 9.57278e-19)
(0.0227361 0.0158176 -1.564e-18)
(0.0481743 0.00920562 -7.47303e-19)
(0.0770153 0.00182613 -1.03511e-18)
(0.107831 -0.0057943 3.00729e-19)
(0.139845 -0.0132489 -8.3729e-19)
(0.172879 -0.0195735 1.82333e-18)
(0.204276 -0.0240804 5.10408e-19)
(-0.00768225 0.0113476 6.61307e-20)
(-0.00204453 0.0158391 7.98712e-19)
(0.0192557 0.0143225 1.58722e-18)
(0.0500653 0.0103001 4.85022e-19)
(0.0867031 0.00565913 1.43559e-18)
(0.126596 0.00135974 7.86873e-20)
(0.167735 -0.00240766 -7.09873e-22)
(0.208922 -0.00569305 5.78772e-19)
(0.250235 -0.00783955 4.68123e-19)
(0.289118 -0.00926352 -1.51932e-18)
(-0.00477043 0.00808579 -5.32113e-19)
(0.0101471 0.00838447 -8.91213e-19)
(0.0436441 0.00593774 -1.29541e-18)
(0.087997 0.00320887 3.06113e-20)
(0.138751 0.00175651 -6.60389e-19)
(0.192806 0.00254235 1.04085e-18)
(0.247589 0.00588868 -2.86558e-18)
(0.301163 0.0120143 1.28651e-18)
(0.352885 0.021514 4.83567e-19)
(0.400032 0.0302464 1.51719e-18)
(0.000388752 0.00380849 2.66181e-19)
(0.0281183 -0.000874558 -1.01897e-18)
(0.0768101 -0.0042731 9.09841e-19)
(0.137564 -0.00546181 -3.52988e-19)
(0.205555 -0.00344297 3.83954e-19)
(0.277822 0.00270709 8.35893e-19)
(0.35253 0.0137249 -1.12228e-18)
(0.429276 0.030552 1.45814e-19)
(0.509039 0.0524519 -5.37784e-19)
(0.594173 0.0694522 1.09113e-18)
(0.00806031 -0.001108 3.81374e-19)
(0.0522605 -0.0110933 -9.23829e-19)
(0.118757 -0.0153298 1.25871e-18)
(0.19775 -0.0150192 -7.83888e-19)
(0.28405 -0.01028 -2.87565e-19)
(0.374605 -0.000972731 1.70252e-19)
(0.467608 0.0128142 8.80237e-20)
(0.56249 0.0307689 1.19398e-18)
(0.658905 0.0501756 3.43721e-19)
(0.754561 0.0623386 1.46945e-18)
(0.0183521 -0.00610202 -3.40407e-19)
(0.0826131 -0.0209188 1.19446e-18)
(0.169008 -0.0252641 -9.96665e-19)
(0.267056 -0.0228316 -1.16888e-18)
(0.371089 -0.0151014 1.63539e-18)
(0.477617 -0.00286658 -1.24346e-18)
(0.584241 0.0129421 3.28456e-19)
(0.689407 0.0312127 -1.94714e-18)
(0.791335 0.0492627 1.45854e-18)
(0.886043 0.0617478 7.28745e-20)
(0.0312704 -0.0105459 -4.43632e-19)
(0.118977 -0.028794 -4.28442e-19)
(0.22687 -0.0317846 -9.12334e-19)
(0.344064 -0.0258918 1.10586e-18)
(0.464448 -0.01404 -5.5856e-20)
(0.584062 0.00207539 7.14939e-19)
(0.69997 0.0208532 1.30425e-18)
(0.809931 0.0407955 -4.00801e-19)
(0.911579 0.0598078 -1.41765e-18)
(1.00091 0.0748769 2.81457e-18)
(0.0467454 -0.0138317 -2.2931e-19)
(0.160911 -0.033217 -2.73521e-19)
(0.29134 -0.0327804 4.92225e-19)
(0.427115 -0.0216651 -9.14915e-19)
(0.561885 -0.00426223 1.56308e-19)
(0.691442 0.0168797 1.39099e-19)
(0.812665 0.039612 6.10019e-20)
(0.923202 0.0622291 -9.85867e-21)
(1.02086 0.0832281 -1.49431e-19)
(1.10226 0.100991 -2.37946e-18)
(0.0646187 -0.0153977 9.30836e-19)
(0.207683 -0.0328634 -6.4962e-19)
(0.360983 -0.0265375 8.30787e-21)
(0.514054 -0.00833882 -9.89368e-19)
(0.660655 0.0159063 -3.53969e-19)
(0.796703 0.042875 3.30965e-19)
(0.919362 0.0699934 2.57023e-19)
(1.02673 0.0954707 -9.15891e-19)
(1.11735 0.118342 7.48612e-19)
(1.18885 0.137792 -9.81536e-19)
(0.0846113 -0.0147326 4.01753e-19)
(0.258229 -0.0266433 -3.57052e-19)
(0.4339 -0.0118357 1.48304e-18)
(0.602225 0.0151006 1.51207e-19)
(0.757551 0.0470188 3.47503e-19)
(0.896413 0.0799689 1.54884e-18)
(1.01678 0.11113 -2.36818e-19)
(1.11772 0.138797 2.15777e-19)
(1.19888 0.162563 8.93504e-20)
(1.25919 0.182096 -1.09972e-19)
(0.106294 -0.0113861 2.80682e-19)
(0.311141 -0.0137429 6.74826e-19)
(0.507781 0.0120119 -7.22901e-19)
(0.688609 0.0488893 -2.44729e-19)
(0.84916 0.0886657 -3.02316e-19)
(0.987144 0.127018 4.68424e-19)
(1.10185 0.161147 -2.43652e-19)
(1.19374 0.189674 6.55517e-19)
(1.26384 0.212845 2.20589e-19)
(1.3125 0.230665 -3.59629e-19)
(0.129071 -0.00499459 -3.0247e-19)
(0.364702 0.00632842 2.68848e-19)
(0.580016 0.045137 -5.7367e-19)
(0.77004 0.0925428 2.47453e-19)
(0.93216 0.139655 -2.56765e-19)
(1.06584 0.182157 -3.20453e-19)
(1.17214 0.217627 -2.57336e-19)
(1.25319 0.2453 2.8759e-19)
(1.3115 0.266203 -5.42219e-19)
(1.34885 0.280636 3.27681e-19)
(0.152192 0.00468203 -1.07816e-19)
(0.416946 0.0336823 -2.10901e-19)
(0.647854 0.0871017 1.0043e-19)
(0.843433 0.144924 6.19186e-21)
(1.0036 0.198186 8.33312e-20)
(1.13007 0.243068 1.14323e-19)
(1.22601 0.277937 1.05952e-19)
(1.29535 0.302934 -1.40498e-19)
(1.34201 0.31998 1.1961e-19)
(1.36911 0.329675 -1.87185e-19)
(0.174775 0.017719 -6.24104e-20)
(0.465773 0.0680015 -2.3412e-20)
(0.708579 0.1369 9.31636e-20)
(0.906008 0.204326 -4.28892e-20)
(1.0611 0.262007 1.14312e-19)
(1.17821 0.307192 -1.47597e-19)
(1.26274 0.33945 3.42089e-20)
(1.32037 0.360077 3.67056e-20)
(1.35627 0.371951 -1.53851e-20)
(1.37465 0.375986 5.82088e-20)
(0.195857 0.0339917 -6.73292e-20)
(0.509071 0.10851 -3.04683e-19)
(0.75969 0.192986 -2.1103e-20)
(0.955469 0.268575 6.27171e-21)
(1.10299 0.328579 -3.96282e-19)
(1.20944 0.371907 5.23887e-20)
(1.2824 0.399693 -4.46014e-20)
(1.3291 0.414556 -1.0758e-19)
(1.35567 0.420329 2.24286e-19)
(1.36715 0.418231 -4.08942e-19)
(0.214445 0.0531505 -3.25178e-20)
(0.544851 0.15397 6.17072e-19)
(0.799064 0.253335 9.94268e-20)
(0.990135 0.335148 -5.43252e-19)
(1.12837 0.395217 -4.40527e-20)
(1.22372 0.434653 -5.20589e-19)
(1.28574 0.456424 3.81602e-19)
(1.32289 0.464538 -1.38452e-19)
(1.34192 0.463703 2.45608e-19)
(1.34842 0.45542 -1.79453e-19)
(0.229587 0.0746122 -2.05056e-19)
(0.571393 0.202718 1.95844e-19)
(0.825093 0.315541 -1.41357e-19)
(1.00902 0.401307 1.06547e-18)
(1.13708 0.459223 5.25845e-19)
(1.22173 0.493027 -1.21918e-19)
(1.27409 0.507671 4.10735e-19)
(1.30345 0.508498 -2.70266e-19)
(1.31688 0.500956 -7.52927e-20)
(1.32028 0.486798 4.94007e-19)
(0.240436 0.0975685 -3.54925e-19)
(0.587356 0.252731 4.51663e-19)
(0.836774 0.376931 -8.88641e-19)
(1.01185 0.464234 1.24797e-19)
(1.12967 0.51799 2.78877e-19)
(1.20469 0.544843 -4.27667e-19)
(1.24914 0.551725 -4.97944e-19)
(1.27272 0.545172 2.18573e-19)
(1.28252 0.531183 -2.6319e-19)
(1.28453 0.511754 3.15986e-19)
(0.246312 0.121013 -8.96768e-20)
(0.591873 0.301725 -4.59581e-19)
(0.833755 0.434708 2.54259e-19)
(0.999031 0.521159 4.26384e-19)
(1.10725 0.569097 -2.56413e-19)
(1.17428 0.588156 -1.91036e-19)
(1.21287 0.587119 -1.04321e-19)
(1.23273 0.573484 -5.15725e-20)
(1.24078 0.553598 1.07828e-20)
(1.24291 0.529719 1.07555e-19)
(0.246759 0.143785 6.58226e-20)
(0.584618 0.347278 -3.8564e-19)
(0.81634 0.486098 6.43205e-19)
(0.971582 0.569494 -3.8109e-19)
(1.07145 0.610386 1.06492e-19)
(1.13248 0.621291 -1.51072e-19)
(1.16741 0.612602 1.62636e-19)
(1.18559 0.592496 3.11662e-20)
(1.19356 0.567431 -7.79728e-20)
(1.19711 0.540021 1.51447e-19)
(0.241593 0.164636 -1.73039e-19)
(0.565833 0.386974 3.38062e-19)
(0.785449 0.528508 -1.52026e-20)
(0.931026 0.60695 -7.32333e-20)
(1.02419 0.640034 -2.01313e-19)
(1.08145 0.642882 2.48101e-20)
(1.11501 0.627183 6.14986e-20)
(1.1335 0.601458 -1.51495e-19)
(1.14303 0.571983 1.76935e-19)
(1.1492 0.541879 1.5031e-19)
(0.230935 0.18231 3.84513e-20)
(0.536326 0.418562 -8.0935e-20)
(0.742532 0.559669 2.42316e-20)
(0.879239 0.631621 1.24854e-20)
(0.967554 0.656554 7.7934e-20)
(1.02334 0.651785 -1.44044e-19)
(1.05788 0.629967 -3.01326e-19)
(1.07891 0.599657 -1.22923e-19)
(1.09214 0.566623 -1.57118e-19)
(1.10255 0.534701 1.33117e-19)
(0.215231 0.195654 1.10764e-19)
(0.49743 0.440131 -1.717e-19)
(0.689468 0.577805 1.65727e-19)
(0.818263 0.64211 -3.14807e-19)
(0.903422 0.658818 7.63772e-20)
(0.959696 0.646834 5.16173e-19)
(0.997278 0.619363 -1.58286e-19)
(1.02317 0.584703 1.88158e-19)
(1.04271 0.548005 2.75463e-19)
(1.05903 0.515028 1.00193e-18)
(0.195249 0.203726 6.80432e-19)
(0.450967 0.450296 -4.62994e-19)
(0.628514 0.581864 1.12678e-18)
(0.750269 0.637906 -1.92974e-19)
(0.83339 0.646759 9.66737e-19)
(0.891058 0.628052 6.06523e-19)
(0.932311 0.594737 -1.42493e-18)
(0.963571 0.553881 2.16344e-18)
(0.989457 0.507899 -4.57199e-19)
(1.00632 0.461007 8.99651e-19)
(0.17205 0.205874 -3.75345e-19)
(0.399205 0.448255 -2.676e-19)
(0.562391 0.57153 2.58802e-19)
(0.677928 0.619482 -6.40993e-19)
(0.759662 0.622009 -2.0021e-18)
(0.8187 0.598991 -8.05177e-19)
(0.862693 0.563188 -7.25726e-19)
(0.897113 0.521741 3.51214e-19)
(0.925117 0.478159 2.92718e-18)
(0.942606 0.437392 -6.08889e-19)
(0.146894 0.201721 1.97533e-19)
(0.344727 0.433649 -7.99414e-19)
(0.494241 0.546775 1.75829e-19)
(0.604666 0.587134 -1.28044e-18)
(0.686058 0.585017 2.80342e-18)
(0.747293 0.559929 -3.24919e-19)
(0.794584 0.52408 1.52761e-18)
(0.832423 0.484257 -2.1883e-18)
(0.863342 0.443962 6.86523e-19)
(0.884648 0.407477 1.06205e-19)
(0.121118 0.191156 1.45616e-19)
(0.290163 0.40655 8.8171e-19)
(0.427119 0.507894 -2.58991e-18)
(0.533587 0.541229 1.26026e-18)
(0.615632 0.535983 -4.15926e-21)
(0.679887 0.510616 -4.25279e-19)
(0.731204 0.47643 5.35219e-19)
(0.773236 0.439624 -5.31923e-19)
(0.808165 0.403352 -1.82847e-18)
(0.834247 0.370865 -5.00997e-19)
(0.0960487 0.174334 4.76472e-19)
(0.238033 0.367474 5.34614e-19)
(0.363854 0.455616 2.20818e-18)
(0.467419 0.482513 -1.22842e-18)
(0.550831 0.4755 2.53209e-18)
(0.618566 0.451352 -5.45416e-19)
(0.674213 0.420139 -5.76523e-19)
(0.720699 0.387299 6.81294e-19)
(0.759931 0.355515 4.44201e-19)
(0.790869 0.327125 1.61056e-18)
(0.0729449 0.15167 -4.83554e-19)
(0.190664 0.317377 1.57841e-19)
(0.306988 0.391112 4.26868e-20)
(0.408535 0.412151 1.25233e-18)
(0.493703 0.404589 -3.12602e-18)
(0.56499 0.382954 5.31045e-19)
(0.624864 0.355821 1.17261e-18)
(0.675617 0.327751 -1.41763e-18)
(0.718933 0.300911 4.99421e-19)
(0.754394 0.276898 -2.31784e-18)
(0.0529469 0.123826 1.03048e-19)
(0.150114 0.257626 5.55913e-19)
(0.258722 0.315974 2.16213e-19)
(0.358945 0.331692 2.93018e-19)
(0.445941 0.324635 5.61466e-19)
(0.520504 0.306609 1.67166e-18)
(0.584154 0.284488 -2.04674e-18)
(0.638655 0.261882 -1.15278e-18)
(0.685522 0.240441 1.91036e-19)
(0.724903 0.221195 1.50296e-18)
(0.0370318 0.0916909 -6.23144e-19)
(0.118111 0.189953 -7.41301e-20)
(0.220875 0.23216 -6.20972e-19)
(0.320288 0.243022 8.84358e-20)
(0.408909 0.237333 -5.31586e-19)
(0.486184 0.2238 -6.06901e-19)
(0.552891 0.207443 -9.04437e-19)
(0.610384 0.190868 2.43721e-18)
(0.660066 0.175233 4.20479e-19)
(0.702562 0.161149 -6.40946e-19)
(0.0259729 0.0563425 3.35843e-19)
(0.0960029 0.116392 4.43907e-19)
(0.194847 0.141927 1.74891e-19)
(0.293812 0.148292 -9.43891e-19)
(0.38364 0.144614 -4.39423e-19)
(0.462844 0.136227 -9.46227e-20)
(0.531693 0.126185 1.84895e-19)
(0.591265 0.116066 1.48462e-19)
(0.642892 0.106552 -1.14802e-18)
(0.687548 0.0979588 6.58757e-19)
(0.0203063 0.0190053 -1.74893e-19)
(0.084714 0.0392058 -1.9897e-19)
(0.181592 0.0477523 1.58582e-19)
(0.280362 0.0498479 1.40793e-19)
(0.370831 0.048577 1.44293e-19)
(0.451036 0.0457363 2.20672e-19)
(0.520987 0.042351 -1.16023e-20)
(0.581621 0.0389485 -2.89463e-19)
(0.634242 0.0357544 2.74958e-19)
(0.680003 0.0328654 -4.13686e-19)
(0.0203063 -0.0190051 -1.76043e-19)
(0.084714 -0.0392054 -1.89614e-19)
(0.181592 -0.0477518 1.74743e-19)
(0.280362 -0.0498475 3.4213e-19)
(0.370831 -0.0485765 2.27965e-19)
(0.451036 -0.0457358 -3.00374e-19)
(0.520987 -0.0423506 -1.6322e-19)
(0.581621 -0.0389481 7.11797e-20)
(0.634242 -0.035754 1.6003e-19)
(0.680003 -0.032865 -9.52956e-20)
(0.0259729 -0.0563423 4.20117e-19)
(0.0960029 -0.116392 -5.33924e-19)
(0.194847 -0.141927 -4.44089e-20)
(0.293812 -0.148292 2.9583e-19)
(0.38364 -0.144613 -1.3375e-18)
(0.462844 -0.136226 5.715e-19)
(0.531693 -0.126185 5.89951e-19)
(0.591264 -0.116066 -6.96464e-19)
(0.642892 -0.106552 6.65289e-19)
(0.687548 -0.0979585 -2.92002e-19)
(0.0370318 -0.0916908 -7.26351e-20)
(0.118111 -0.189953 -9.26684e-21)
(0.220874 -0.23216 -1.44217e-18)
(0.320288 -0.243022 -4.5878e-19)
(0.408909 -0.237333 -4.83709e-20)
(0.486184 -0.2238 -7.54736e-19)
(0.55289 -0.207442 1.40627e-18)
(0.610384 -0.190868 -4.94205e-20)
(0.660066 -0.175232 8.0301e-19)
(0.702562 -0.161149 -7.06072e-19)
(0.0529469 -0.123826 1.22672e-19)
(0.150114 -0.257626 -5.67939e-19)
(0.258722 -0.315974 1.74755e-18)
(0.358945 -0.331692 2.47296e-19)
(0.445941 -0.324635 1.21576e-18)
(0.520504 -0.306609 -1.18857e-18)
(0.584154 -0.284488 1.24776e-18)
(0.638655 -0.261882 -8.996e-19)
(0.685522 -0.240441 -3.9506e-19)
(0.724903 -0.221195 3.35609e-19)
(0.0729448 -0.15167 1.0954e-18)
(0.190664 -0.317377 2.80496e-21)
(0.306988 -0.391111 -1.84176e-18)
(0.408535 -0.412151 -5.3435e-19)
(0.493703 -0.404588 1.77426e-18)
(0.56499 -0.382953 -1.03982e-18)
(0.624864 -0.35582 -1.20378e-18)
(0.675617 -0.327751 1.0831e-18)
(0.718933 -0.30091 -7.37369e-19)
(0.754394 -0.276897 -1.58972e-19)
(0.0960486 -0.174334 -1.63515e-19)
(0.238033 -0.367474 -7.75554e-21)
(0.363854 -0.455615 1.99875e-18)
(0.467419 -0.482513 1.14606e-18)
(0.550831 -0.4755 -1.35148e-18)
(0.618565 -0.451352 1.63636e-18)
(0.674213 -0.420139 -1.77563e-18)
(0.720699 -0.387299 1.76698e-19)
(0.759931 -0.355514 5.2887e-19)
(0.790869 -0.327124 1.22375e-18)
(0.121118 -0.191156 1.87435e-19)
(0.290163 -0.40655 3.01839e-19)
(0.427119 -0.507894 3.28331e-19)
(0.533587 -0.541229 -1.05556e-18)
(0.615632 -0.535982 -1.88026e-18)
(0.679887 -0.510615 3.95958e-19)
(0.731204 -0.476429 1.14583e-18)
(0.773236 -0.439624 -3.2799e-19)
(0.808165 -0.403351 1.97466e-18)
(0.834247 -0.370865 -1.92475e-18)
(0.146894 -0.201721 -1.06104e-18)
(0.344727 -0.433649 4.07716e-19)
(0.494241 -0.546774 -1.10091e-18)
(0.604666 -0.587133 1.77977e-18)
(0.686058 -0.585016 8.89961e-19)
(0.747292 -0.559929 1.25653e-18)
(0.794584 -0.52408 -2.90786e-19)
(0.832423 -0.484256 1.14571e-18)
(0.863342 -0.443962 -2.4257e-18)
(0.884648 -0.407477 -6.32395e-19)
(0.17205 -0.205874 6.24637e-20)
(0.399204 -0.448254 -7.12821e-19)
(0.562391 -0.571529 -1.14137e-18)
(0.677928 -0.619481 -4.83593e-19)
(0.759661 -0.622009 -1.36655e-18)
(0.818699 -0.598991 -1.3899e-19)
(0.862692 -0.563188 1.18832e-19)
(0.897113 -0.521741 -5.34002e-19)
(0.925117 -0.478159 -5.96783e-19)
(0.942605 -0.437392 1.57386e-18)
(0.195249 -0.203726 3.35406e-19)
(0.450967 -0.450296 4.68394e-19)
(0.628514 -0.581864 8.39121e-19)
(0.750268 -0.637905 3.72165e-20)
(0.833389 -0.646758 5.59875e-19)
(0.891057 -0.628052 -7.66663e-19)
(0.932311 -0.594737 2.3407e-18)
(0.963571 -0.55388 -1.03347e-18)
(0.989457 -0.507899 -5.07556e-19)
(1.00632 -0.461006 -1.53049e-18)
(0.215231 -0.195653 -1.32108e-19)
(0.49743 -0.44013 2.3338e-19)
(0.689467 -0.577805 -2.39158e-19)
(0.818263 -0.64211 1.28938e-19)
(0.903422 -0.658818 -1.52369e-19)
(0.959696 -0.646834 -3.90782e-19)
(0.997278 -0.619363 5.14052e-19)
(1.02316 -0.584702 -1.6815e-19)
(1.04271 -0.548005 2.60858e-19)
(1.05903 -0.515027 -5.69228e-19)
(0.230935 -0.18231 -7.38417e-21)
(0.536326 -0.418562 -1.06482e-19)
(0.742532 -0.559669 2.12006e-20)
(0.879239 -0.631621 1.44555e-19)
(0.967553 -0.656554 -6.53382e-20)
(1.02334 -0.651785 1.75437e-20)
(1.05788 -0.629967 -1.71874e-20)
(1.07891 -0.599657 -3.83336e-19)
(1.09214 -0.566623 -1.77951e-19)
(1.10255 -0.534701 -5.59949e-19)
(0.241593 -0.164636 -9.61354e-20)
(0.565833 -0.386974 3.3926e-19)
(0.785449 -0.528508 -2.10776e-19)
(0.931026 -0.60695 -7.59814e-20)
(1.02419 -0.640034 3.39508e-20)
(1.08145 -0.642882 7.14916e-20)
(1.11501 -0.627183 -7.01513e-21)
(1.1335 -0.601457 2.92414e-19)
(1.14303 -0.571983 -2.52688e-19)
(1.1492 -0.541878 -3.57852e-21)
(0.246759 -0.143785 -2.36713e-19)
(0.584617 -0.347278 -1.48247e-19)
(0.81634 -0.486098 -3.68116e-19)
(0.971582 -0.569494 4.18746e-19)
(1.07145 -0.610386 -3.07035e-20)
(1.13247 -0.62129 1.36118e-19)
(1.16741 -0.612602 1.53622e-19)
(1.18559 -0.592495 -5.58819e-20)
(1.19356 -0.567431 5.04645e-20)
(1.19711 -0.540021 -1.59813e-19)
(0.246312 -0.121013 -1.61021e-19)
(0.591873 -0.301725 -2.06837e-19)
(0.833755 -0.434708 3.11666e-19)
(0.99903 -0.521159 -4.68275e-19)
(1.10725 -0.569097 8.22606e-20)
(1.17428 -0.588156 4.15768e-20)
(1.21287 -0.587119 9.19883e-20)
(1.23273 -0.573484 -6.04727e-20)
(1.24077 -0.553598 -7.24242e-20)
(1.24291 -0.529719 -2.3594e-19)
(0.240436 -0.0975685 6.71314e-19)
(0.587356 -0.252731 -5.25382e-19)
(0.836774 -0.376931 2.45464e-20)
(1.01185 -0.464234 -6.73217e-19)
(1.12967 -0.51799 -1.95434e-19)
(1.20469 -0.544843 1.56351e-19)
(1.24914 -0.551725 1.1455e-19)
(1.27272 -0.545171 -3.82085e-19)
(1.28252 -0.531183 1.67704e-19)
(1.28453 -0.511754 -3.02457e-19)
(0.229587 -0.0746122 3.33155e-19)
(0.571393 -0.202718 -3.29725e-19)
(0.825093 -0.315541 1.18319e-18)
(1.00902 -0.401307 9.43497e-20)
(1.13708 -0.459222 2.6833e-19)
(1.22173 -0.493027 9.57188e-19)
(1.27409 -0.507671 -1.98967e-19)
(1.30345 -0.508498 4.83204e-20)
(1.31688 -0.500956 -2.84359e-20)
(1.32028 -0.486798 -4.95312e-20)
(0.214445 -0.0531505 2.5681e-19)
(0.544851 -0.15397 5.83541e-19)
(0.799064 -0.253335 -5.94791e-19)
(0.990134 -0.335148 -1.80667e-19)
(1.12837 -0.395217 -1.91274e-19)
(1.22372 -0.434653 3.76555e-19)
(1.28574 -0.456424 -1.77689e-19)
(1.32289 -0.464538 4.1895e-19)
(1.34192 -0.463703 1.00811e-19)
(1.34841 -0.45542 -1.77296e-19)
(0.195857 -0.0339917 -2.77407e-19)
(0.509071 -0.10851 2.57428e-19)
(0.75969 -0.192986 -5.28504e-19)
(0.955469 -0.268575 2.21271e-19)
(1.10299 -0.328579 -2.21768e-19)
(1.20943 -0.371907 -2.63704e-19)
(1.2824 -0.399693 -2.04609e-19)
(1.3291 -0.414556 2.25747e-19)
(1.35567 -0.420329 -3.92375e-19)
(1.36715 -0.418231 2.48398e-19)
(0.174775 -0.017719 -1.03927e-19)
(0.465773 -0.0680015 -2.0394e-19)
(0.708579 -0.1369 9.59375e-20)
(0.906008 -0.204326 7.08313e-21)
(1.0611 -0.262007 7.63549e-20)
(1.17821 -0.307192 1.09399e-19)
(1.26274 -0.33945 9.31523e-20)
(1.32037 -0.360076 -1.26034e-19)
(1.35627 -0.371951 1.0274e-19)
(1.37465 -0.375985 -1.62292e-19)
(0.152192 -0.00468203 -6.54871e-20)
(0.416946 -0.0336823 -2.63957e-20)
(0.647854 -0.0871017 9.83516e-20)
(0.843433 -0.144924 -4.43705e-20)
(1.0036 -0.198185 1.24173e-19)
(1.13007 -0.243068 -1.56955e-19)
(1.22601 -0.277937 4.03226e-20)
(1.29535 -0.302934 3.46042e-20)
(1.34201 -0.319979 -1.23621e-20)
(1.36911 -0.329675 5.67369e-20)
(0.129071 0.00499459 -7.85623e-20)
(0.364702 -0.00632841 -3.33068e-19)
(0.580016 -0.045137 -2.68249e-20)
(0.770039 -0.0925427 1.07071e-20)
(0.93216 -0.139655 -4.62001e-19)
(1.06584 -0.182157 4.87869e-20)
(1.17214 -0.217627 -5.16888e-20)
(1.25319 -0.2453 -1.40589e-19)
(1.3115 -0.266203 3.1108e-19)
(1.34885 -0.280636 -5.65951e-19)
(0.106294 0.0113862 -4.45392e-20)
(0.311142 0.0137429 7.14379e-19)
(0.507781 -0.0120119 9.52815e-20)
(0.688609 -0.0488892 -6.45325e-19)
(0.84916 -0.0886657 -7.72734e-20)
(0.987144 -0.127018 -7.27722e-19)
(1.10185 -0.161147 5.65852e-19)
(1.19374 -0.189674 -2.29664e-19)
(1.26384 -0.212845 4.35312e-19)
(1.3125 -0.230665 -3.84032e-19)
(0.0846113 0.0147326 -2.51901e-19)
(0.258229 0.0266434 2.93303e-19)
(0.4339 0.0118357 -2.04874e-19)
(0.602225 -0.0151005 1.41615e-18)
(0.757551 -0.0470187 7.49614e-19)
(0.896413 -0.0799689 -1.96291e-19)
(1.01678 -0.11113 7.63262e-19)
(1.11772 -0.138797 -4.99049e-19)
(1.19888 -0.162563 -1.60488e-19)
(1.25919 -0.182096 1.15954e-18)
(0.0646187 0.0153977 -4.65676e-19)
(0.207683 0.0328634 6.95282e-19)
(0.360983 0.0265375 -1.31855e-18)
(0.514054 0.00833887 2.28237e-19)
(0.660655 -0.0159062 5.69063e-19)
(0.796703 -0.042875 -7.15117e-19)
(0.919362 -0.0699933 -1.26656e-18)
(1.02673 -0.0954706 6.78981e-19)
(1.11735 -0.118342 -8.83029e-19)
(1.18885 -0.137792 1.41313e-18)
(0.0467455 0.0138317 -1.15118e-19)
(0.160911 0.033217 -6.99821e-19)
(0.29134 0.0327805 3.4546e-19)
(0.427115 0.0216651 8.64175e-19)
(0.561885 0.00426229 -4.64192e-19)
(0.691442 -0.0168796 -4.5809e-19)
(0.812665 -0.0396119 -7.76671e-19)
(0.923202 -0.0622291 -3.55888e-19)
(1.02086 -0.083228 -8.54692e-20)
(1.10226 -0.10099 1.41225e-18)
(0.0312705 0.0105459 1.93288e-19)
(0.118977 0.028794 -9.50676e-19)
(0.22687 0.0317847 1.62608e-18)
(0.344064 0.0258919 -9.05463e-19)
(0.464448 0.0140401 5.86649e-19)
(0.584062 -0.00207532 -7.29968e-19)
(0.69997 -0.0208531 8.13009e-19)
(0.809931 -0.0407954 7.10049e-19)
(0.911579 -0.0598077 1.55137e-18)
(1.00091 -0.0748767 -2.56477e-18)
(0.0183522 0.00610205 -6.00594e-19)
(0.0826132 0.0209188 1.206e-18)
(0.169008 0.0252641 1.60944e-20)
(0.267056 0.0228316 -4.34389e-19)
(0.37109 0.0151015 -2.3068e-19)
(0.477617 0.00286666 1.84372e-19)
(0.584241 -0.012942 -1.30895e-18)
(0.689407 -0.0312126 1.0113e-18)
(0.791335 -0.0492626 -1.30337e-18)
(0.886043 -0.0617477 -5.94931e-19)
(0.00806035 0.00110803 1.0335e-18)
(0.0522606 0.0110933 -3.22404e-19)
(0.118757 0.0153299 -6.04785e-19)
(0.19775 0.0150193 1.64257e-18)
(0.28405 0.0102801 -1.61352e-18)
(0.374605 0.000972829 9.01494e-19)
(0.467608 -0.0128141 9.60132e-19)
(0.56249 -0.0307688 2.62734e-19)
(0.658905 -0.0501754 2.73259e-19)
(0.754561 -0.0623384 -3.87635e-19)
(0.000388788 -0.00380846 -9.88412e-19)
(0.0281184 0.000874621 9.39472e-19)
(0.0768102 0.00427318 -8.31398e-19)
(0.137564 0.00546191 1.04311e-18)
(0.205555 0.00344309 -3.11642e-19)
(0.277822 -0.00270697 -1.08234e-18)
(0.35253 -0.0137247 3.10384e-19)
(0.429276 -0.0305518 -5.12106e-19)
(0.509039 -0.0524517 -6.06545e-19)
(0.594173 -0.0694519 -1.89226e-18)
(-0.0047704 -0.00808575 -1.23471e-18)
(0.0101472 -0.0083844 9.81619e-19)
(0.0436442 -0.00593764 -1.92329e-18)
(0.0879971 -0.00320875 3.43917e-19)
(0.138751 -0.00175636 -1.33243e-18)
(0.192806 -0.00254218 -7.99125e-19)
(0.247589 -0.00588849 1.9124e-18)
(0.301163 -0.0120141 -2.61453e-18)
(0.352885 -0.0215137 5.03242e-19)
(0.400032 -0.030246 -8.28698e-19)
(-0.00768222 -0.0113475 6.08201e-19)
(-0.00204447 -0.015839 2.57337e-19)
(0.0192558 -0.0143224 -7.65419e-20)
(0.0500654 -0.0102999 7.30869e-19)
(0.0867031 -0.00565893 2.14614e-18)
(0.126596 -0.00135951 7.40726e-19)
(0.167735 0.00240792 7.65374e-19)
(0.208922 0.00569337 -2.64648e-19)
(0.250235 0.00783996 -2.46861e-18)
(0.289118 0.00926404 6.26064e-19)
(-0.00878375 -0.0134242 -1.71701e-19)
(-0.00932794 -0.021086 5.46491e-19)
(0.00264642 -0.0205023 -1.43162e-19)
(0.0227362 -0.0158174 1.01083e-18)
(0.0481743 -0.00920537 -2.33713e-18)
(0.0770154 -0.00182583 1.98376e-19)
(0.107831 0.00579465 -1.1123e-18)
(0.139845 0.0132493 1.63672e-18)
(0.172879 0.019574 -4.78401e-19)
(0.204276 0.0240811 -6.83611e-20)
(-0.00858785 -0.0143041 -1.16888e-19)
(-0.0128317 -0.0240057 -6.57219e-19)
(-0.00771315 -0.0243088 1.65286e-18)
(0.00407972 -0.0196268 -8.71476e-19)
(0.0206603 -0.0123267 6.12501e-20)
(0.0406186 -0.00378436 2.79671e-19)
(0.0629154 0.00513266 -2.55587e-19)
(0.0869307 0.0136328 3.32171e-19)
(0.112251 0.0206154 1.15102e-18)
(0.136676 0.025284 3.01198e-19)
(-0.00758381 -0.0140744 -2.62172e-19)
(-0.0136958 -0.024665 -2.91609e-19)
(-0.0134291 -0.0257006 -1.29436e-18)
(-0.00792049 -0.0215114 6.892e-19)
(0.00173602 -0.0144919 -1.42155e-18)
(0.0145793 -0.00611516 3.22945e-19)
(0.0298503 0.00259019 3.63129e-19)
(0.0470099 0.0107149 -3.83754e-19)
(0.0655409 0.0172496 -2.48282e-19)
(0.083801 0.0214714 -1.11584e-18)
(-0.00618711 -0.0128749 2.04805e-19)
(-0.01294 -0.0232574 -4.81743e-20)
(-0.0159823 -0.0247664 9.78658e-22)
(-0.0151342 -0.0213426 -6.22018e-19)
(-0.0108144 -0.0152249 1.57461e-18)
(-0.0036155 -0.007835 -2.45601e-19)
(0.00591872 -0.000195752 -6.12907e-19)
(0.0173146 0.00683938 7.5017e-19)
(0.0300365 0.0124531 -2.63623e-19)
(0.0429248 0.0160478 1.45714e-18)
(-0.00472408 -0.0108681 -3.84407e-20)
(-0.0114034 -0.0200604 -2.25376e-19)
(-0.0166178 -0.0217189 -8.89495e-20)
(-0.0191362 -0.019149 -1.13637e-19)
(-0.018832 -0.0142672 -2.44316e-19)
(-0.0160034 -0.00831112 -7.67242e-19)
(-0.0110225 -0.00217555 9.59725e-19)
(-0.0042961 0.00343046 5.60626e-19)
(0.00366344 0.00789716 -1.0043e-19)
(0.0120641 0.0107654 -8.93775e-19)
(-0.00343579 -0.00822495 2.18292e-19)
(-0.00972818 -0.0154096 3.81467e-20)
(-0.0163016 -0.016886 2.58209e-19)
(-0.0211438 -0.01514 -2.9553e-20)
(-0.0237178 -0.0116329 2.35118e-19)
(-0.0240983 -0.00731635 2.65268e-19)
(-0.0225238 -0.00287619 3.97689e-19)
(-0.0193384 0.00116476 -1.12659e-18)
(-0.0150199 0.00438974 -2.07932e-19)
(-0.0101025 0.00647515 3.72658e-19)
(-0.00248973 -0.00512135 -1.10225e-19)
(-0.00837077 -0.00968546 -1.56664e-19)
(-0.0157254 -0.0106973 -7.53657e-20)
(-0.0220253 -0.00969711 3.68622e-19)
(-0.0264597 -0.00759776 1.7893e-19)
(-0.028952 -0.00499616 3.66946e-20)
(-0.0296478 -0.00232062 -7.95569e-20)
(-0.0288426 0.000110562 -6.17142e-20)
(-0.0269847 0.00205566 5.2973e-19)
(-0.0244466 0.00332222 -3.60786e-19)
(-0.00199126 -0.00173834 5.61917e-20)
(-0.00762168 -0.00330247 6.99185e-20)
(-0.0153303 -0.00366166 -5.96188e-20)
(-0.0223327 -0.00333726 -5.45306e-20)
(-0.0276808 -0.00263954 -5.65401e-20)
(-0.0312218 -0.00177163 -9.02185e-20)
(-0.0330531 -0.000878904 2.89776e-21)
(-0.033444 -6.8076e-05 1.25177e-19)
(-0.0328264 0.000581737 -1.25687e-19)
(-0.0314953 0.00100665 2.28678e-19)
(-0.00813356 -0.00258473 1.65348e-20)
(0.0621501 -0.00662638 9.88762e-21)
(0.277532 -0.00671522 1.33798e-21)
(0.37699 -0.0043945 -9.02544e-22)
(0.479664 -0.00368166 -6.35622e-23)
(0.553584 -0.00263426 1.48124e-22)
(0.606057 -0.00217414 1.66576e-22)
(0.660389 -0.00157057 -3.41107e-23)
(0.68361 -0.0014675 -2.47694e-24)
(0.733875 -0.00101748 2.43766e-22)
(0.00866648 -0.0080608 2.62214e-20)
(0.0774041 -0.0197179 1.25327e-21)
(0.289024 -0.0199815 -1.7483e-20)
(0.385746 -0.0130703 1.40473e-20)
(0.486371 -0.0109684 8.87431e-22)
(0.558819 -0.00785935 -5.94745e-22)
(0.610327 -0.00650307 6.89638e-22)
(0.663749 -0.00470438 7.00806e-23)
(0.686543 -0.00437179 1.41402e-22)
(0.736098 -0.00302488 -2.23397e-22)
(0.0419719 -0.0144172 2.68577e-20)
(0.107438 -0.0323284 -3.61033e-20)
(0.311579 -0.0327889 1.78716e-20)
(0.402946 -0.0214453 -1.16371e-20)
(0.499554 -0.0180278 8.28589e-22)
(0.569121 -0.0129329 -6.45752e-22)
(0.618744 -0.010717 -2.57161e-22)
(0.670381 -0.00775851 1.04087e-24)
(0.692341 -0.00721018 -1.08269e-22)
(0.740502 -0.00499266 -3.26121e-22)
(0.0911809 -0.022132 -4.16283e-20)
(0.151328 -0.0441587 -5.01136e-20)
(0.344367 -0.0448521 -2.31243e-20)
(0.427984 -0.0293359 1.213e-20)
(0.518759 -0.0247203 -1.45412e-20)
(0.584167 -0.0177617 3.84721e-21)
(0.631063 -0.0147445 -2.09147e-22)
(0.680115 -0.0106832 1.2164e-22)
(0.70087 -0.00994111 -1.3015e-22)
(0.747006 -0.0068955 1.21039e-22)
(0.155362 -0.0314781 1.15131e-19)
(0.207751 -0.0549212 7.22389e-20)
(0.3862 -0.0559076 2.59825e-20)
(0.459993 -0.03658 -2.35723e-20)
(0.543343 -0.0309217 1.19359e-20)
(0.603491 -0.0222627 3.16235e-21)
(0.646934 -0.0185211 2.21199e-21)
(0.692704 -0.0134334 2.4062e-22)
(0.71194 -0.0125263 2.89793e-22)
(0.755491 -0.00870962 -6.42151e-22)
(0.233235 -0.0423829 -5.08274e-20)
(0.275028 -0.0643008 3.90018e-20)
(0.435598 -0.0657021 4.82012e-21)
(0.49789 -0.0430343 2.62893e-20)
(0.572501 -0.0365252 -5.94799e-21)
(0.626514 -0.0263655 -3.68612e-21)
(0.665917 -0.0219917 -2.28501e-21)
(0.707837 -0.0159703 -1.49148e-22)
(0.725307 -0.0149319 -1.56856e-22)
(0.765804 -0.0104134 6.88805e-22)
(0.323169 -0.0545661 -3.86795e-20)
(0.351189 -0.0720331 -1.00782e-19)
(0.490863 -0.0740326 -1.70501e-20)
(0.540441 -0.0485829 -1.46412e-20)
(0.605319 -0.0414483 6.97421e-21)
(0.652568 -0.0300147 -1.94277e-21)
(0.687506 -0.0251121 2.45733e-21)
(0.725152 -0.0182623 4.51266e-22)
(0.740685 -0.0171298 -4.69894e-23)
(0.777761 -0.0119872 2.65212e-22)