1.45 	0 	0 	-0.00777587 	-0.0026279 	1.66597e-20
2.35 	0 	0 	0.0627808 	-0.00664839 	1.00785e-20
