/*--------------------------------*- C++ -*----------------------------------*\
  =========                 |
  \\      /  F ield         | OpenFOAM: The Open Source CFD Toolbox
   \\    /   O peration     | Website:  https://openfoam.org
    \\  /    A nd           | Version:  6.0
     \\/     M anipulation  |
\*---------------------------------------------------------------------------*/
FoamFile
{
    version     2.0;
    format      ascii;
    class       surfaceScalarField;
    location    "86";
    object      phi;
}
// * * * * * * * * * * * * * * * * * * * * * * * * * * * * * * * * * * * * * //

dimensions      [0 3 -1 0 0 0 0];

internalField   nonuniform List<scalar> 
68636
(
3.02251e-05
0.0031056
7.16432e-09
6.08391e-05
0.00307071
9.10889e-05
0.00300243
0.000120479
0.00290126
0.000148623
0.00276824
0.000175173
0.00260484
0.000199817
0.00241288
0.000222269
0.00219448
0.000242273
0.00195206
0.000259601
0.00168828
0.000274055
0.00140603
0.000285476
0.00110832
0.000293752
0.00079845
0.000298734
0.000479405
0.000150587
0.000298757
2.99409e-05
0.00307565
1.78778e-08
6.02781e-05
0.00304038
9.02543e-05
0.00297246
0.000119378
0.00287214
0.000147267
0.00274035
0.000173576
0.00257853
0.000197995
0.00238846
0.000220242
0.00217224
0.000240063
0.00193224
0.000257232
0.00167111
0.000271556
0.0013917
0.000282869
0.00109701
0.000291098
0.00079022
0.00029586
0.000474644
0.00015033
0.000296119
2.96597e-05
0.00304596
2.78347e-08
5.97224e-05
0.00301031
8.94277e-05
0.00294276
0.000118288
0.00284328
0.000145925
0.00271272
0.000171995
0.00255246
0.000196192
0.00236426
0.000218237
0.00215019
0.000237877
0.0019126
0.000254889
0.0016541
0.000269082
0.00137751
0.000280287
0.0010858
0.000288441
0.000782067
0.000293254
0.000469833
0.000149681
0.000293905
2.93816e-05
0.00301654
3.71145e-08
5.91724e-05
0.00298052
8.8609e-05
0.00291332
0.000117209
0.00281468
0.000144595
0.00268534
0.000170428
0.00252663
0.000194405
0.00234029
0.00021625
0.00212835
0.000235711
0.00189314
0.000252567
0.00163724
0.00026663
0.00136345
0.000277729
0.0010747
0.000285793
0.000774003
0.000290615
0.000465013
0.000148789
0.000291512
2.91065e-05
0.00298739
4.56923e-08
5.86278e-05
0.002951
8.7798e-05
0.00288415
0.000116139
0.00278634
0.000143276
0.0026582
0.000168875
0.00250103
0.000192634
0.00231653
0.000214279
0.0021067
0.000233563
0.00187386
0.000250265
0.00162054
0.0002642
0.00134951
0.000275194
0.00106371
0.000283165
0.000766033
0.000287956
0.000460224
0.000147707
0.000289038
2.88344e-05
0.0029585
5.36586e-08
5.80883e-05
0.00292175
8.69944e-05
0.00285525
0.000115078
0.00275826
0.00014197
0.00263131
0.000167336
0.00247567
0.000190879
0.00229299
0.000212327
0.00208526
0.000231434
0.00185475
0.000247984
0.00160399
0.000261791
0.00133571
0.000272684
0.00105282
0.000280565
0.000758153
0.000285314
0.000455477
0.000146505
0.000286522
2.85651e-05
0.00292987
6.08887e-08
5.75539e-05
0.00289276
8.6198e-05
0.0028266
0.000114027
0.00273043
0.000140674
0.00260466
0.00016581
0.00245053
0.000189139
0.00226966
0.000210392
0.002064
0.000229325
0.00183582
0.000245723
0.0015876
0.000259404
0.00132203
0.000270199
0.00104202
0.000277994
0.000750359
0.000282695
0.000450777
0.000145229
0.000283972
2.82986e-05
0.00290151
6.74308e-08
5.70246e-05
0.00286403
8.54088e-05
0.00279822
0.000112985
0.00270285
0.000139391
0.00257826
0.000164298
0.00242563
0.000187415
0.00224654
0.000208474
0.00204295
0.000227235
0.00181706
0.000243483
0.00157135
0.000257039
0.00130847
0.000267737
0.00103133
0.000275453
0.000742644
0.000280104
0.000446128
0.000143915
0.000281424
2.80349e-05
0.0028734
7.33167e-08
5.65002e-05
0.00283557
8.46269e-05
0.00277009
0.000111953
0.00267552
0.000138119
0.00255209
0.0001628
0.00240094
0.000185707
0.00222364
0.000206574
0.00202208
0.000225163
0.00179847
0.000241263
0.00155525
0.000254695
0.00129504
0.000265297
0.00102073
0.000272938
0.000735004
0.000277542
0.000441525
0.000142561
0.000278896
2.77739e-05
0.00284555
7.86155e-08
5.59808e-05
0.00280736
8.38521e-05
0.00274222
0.00011093
0.00264845
0.000136858
0.00252617
0.000161315
0.00237649
0.000184013
0.00220094
0.000204691
0.0020014
0.000223111
0.00178005
0.000239063
0.0015393
0.000252372
0.00128173
0.000262879
0.00101022
0.000270449
0.000727436
0.000275009
0.000436966
0.000141191
0.000276387
2.75156e-05
0.00281795
8.34313e-08
5.54662e-05
0.00277941
8.30843e-05
0.00271461
0.000109916
0.00262161
0.000135609
0.00250047
0.000159843
0.00235225
0.000182335
0.00217845
0.000202824
0.00198091
0.000221076
0.0017618
0.000236884
0.00152349
0.00025007
0.00126855
0.000260483
0.00099981
0.000267984
0.000719935
0.000272503
0.000432448
0.000139798
0.000273895
2.72599e-05
0.0027906
8.78078e-08
5.49564e-05
0.00275171
8.23235e-05
0.00268724
0.000108912
0.00259503
0.000134371
0.00247502
0.000158385
0.00232824
0.000180672
0.00215616
0.000200975
0.00196061
0.000219061
0.00174372
0.000234724
0.00150783
0.00024779
0.00125548
0.000258109
0.000989493
0.000265543
0.000712503
0.000270021
0.000427972
0.000138404
0.000271423
2.70067e-05
0.0027635
9.1819e-08
5.44514e-05
0.00272427
8.15696e-05
0.00266012
0.000107916
0.00256868
0.000133144
0.00244979
0.00015694
0.00230445
0.000179024
0.00213408
0.000199142
0.0019405
0.000217063
0.0017258
0.000232583
0.00149231
0.00024553
0.00124254
0.000255755
0.000979267
0.000263123
0.000705135
0.000267564
0.000423531
0.000136994
0.000268972
2.6756e-05
0.00273665
9.55598e-08
5.3951e-05
0.00269708
8.08226e-05
0.00263325
0.00010693
0.00254257
0.000131928
0.00242479
0.000155507
0.00228087
0.000177391
0.0021122
0.000197326
0.00192056
0.000215084
0.00170804
0.000230462
0.00147693
0.00024329
0.00122971
0.000253423
0.000969137
0.000260726
0.000697834
0.000265129
0.000419131
0.000135589
0.000266541
2.65077e-05
0.00271004
9.91179e-08
5.34553e-05
0.00267013
8.00824e-05
0.00260662
0.000105952
0.0025167
0.000130723
0.00240002
0.000154088
0.0022575
0.000175773
0.00209051
0.000195526
0.00190081
0.000213122
0.00169044
0.000228361
0.00146169
0.000241071
0.001217
0.000251112
0.000959096
0.00025835
0.000690595
0.000262716
0.000414765
0.000134172
0.000264131
2.62617e-05
0.00268368
1.02566e-07
5.29641e-05
0.00264343
7.93488e-05
0.00258024
0.000104983
0.00249107
0.000129529
0.00237548
0.000152681
0.00223435
0.000174169
0.00206902
0.000193742
0.00188124
0.000211178
0.00167301
0.000226278
0.00144659
0.000238872
0.00120441
0.000248822
0.000949148
0.000255996
0.000683422
0.000260325
0.000410438
0.000132764
0.000261741
2.60181e-05
0.00265756
1.05951e-07
5.24774e-05
0.00261697
7.8622e-05
0.00255409
0.000104023
0.00246567
0.000128345
0.00235115
0.000151287
0.00221141
0.000172579
0.00204773
0.000191974
0.00186184
0.000209251
0.00165573
0.000224214
0.00143163
0.000236694
0.00119193
0.000246553
0.000939289
0.000253663
0.000676311
0.000257956
0.000406145
0.000131348
0.00025937
2.57767e-05
0.00263167
1.09322e-07
5.19952e-05
0.00259075
7.79017e-05
0.00252819
0.000103072
0.0024405
0.000127172
0.00232705
0.000149906
0.00218867
0.000171004
0.00202663
0.000190222
0.00184262
0.000207342
0.00163861
0.000222169
0.00141681
0.000234535
0.00117956
0.000244304
0.000929522
0.000251352
0.000669265
0.000255608
0.00040189
0.000129944
0.000257019
2.55375e-05
0.00260602
1.12717e-07
5.15173e-05
0.00256477
7.71879e-05
0.00250252
0.000102129
0.00241556
0.00012601
0.00230317
0.000148537
0.00216615
0.000169443
0.00200573
0.000188486
0.00182358
0.000205451
0.00162165
0.000220143
0.00140211
0.000232396
0.00116731
0.000242076
0.000919841
0.000249061
0.000662279
0.000253282
0.000397668
0.000128535
0.000254689
2.53004e-05
0.0025806
1.16162e-07
5.10436e-05
0.00253902
7.64806e-05
0.00247708
0.000101194
0.00239084
0.000124859
0.00227951
0.00014718
0.00214383
0.000167896
0.00198501
0.000186766
0.00180471
0.000203576
0.00160484
0.000218134
0.00138756
0.000230276
0.00115517
0.000239869
0.000910251
0.000246791
0.000655358
0.000250977
0.000393485
0.00012714
0.000252379
2.50655e-05
0.00255542
1.1967e-07
5.05743e-05
0.00251352
7.57796e-05
0.00245188
0.000100268
0.00236635
0.000123717
0.00225606
0.000145835
0.00212171
0.000166363
0.00196449
0.000185061
0.00178601
0.000201718
0.00158818
0.000216144
0.00137313
0.000228176
0.00114313
0.000237681
0.000900745
0.000244543
0.000648496
0.000248692
0.000389334
0.00012574
0.000250089
2.48326e-05
0.00253046
1.23248e-07
5.01091e-05
0.00248824
7.50848e-05
0.0024269
9.93505e-05
0.00234209
0.000122586
0.00223282
0.000144503
0.00209979
0.000164843
0.00194415
0.000183372
0.00176748
0.000199877
0.00157168
0.000214172
0.00135883
0.000226095
0.00113121
0.000235514
0.000891329
0.000242314
0.000641697
0.000246429
0.000385222
0.000124358
0.000247818
2.46017e-05
0.00250573
1.26898e-07
4.9648e-05
0.00246319
7.43963e-05
0.00240215
9.8441e-05
0.00231804
0.000121465
0.0022098
0.000143182
0.00207807
0.000163337
0.00192399
0.000181697
0.00174912
0.000198053
0.00155532
0.000212218
0.00134467
0.000224033
0.0011194
0.000233367
0.000881994
0.000240107
0.000634956
0.000244186
0.000381142
0.000122973
0.000245568
2.43728e-05
0.00248123
1.30622e-07
4.9191e-05
0.00243837
7.37138e-05
0.00237763
9.75396e-05
0.00229422
0.000120354
0.00218699
0.000141873
0.00205656
0.000161845
0.00190402
0.000180038
0.00173093
0.000196245
0.00153911
0.000210282
0.00133063
0.000221989
0.00110769
0.000231239
0.000872746
0.000237919
0.000628277
0.000241963
0.000377099
0.000121606
0.000243337
2.41459e-05
0.00245695
1.34416e-07
4.8738e-05
0.00241378
7.30375e-05
0.00235333
9.66462e-05
0.00227061
0.000119253
0.00216438
0.000140576
0.00203523
0.000160366
0.00188423
0.000178394
0.0017129
0.000194453
0.00152305
0.000208363
0.00131672
0.000219965
0.00109609
0.000229131
0.000863579
0.000235752
0.000621655
0.000239761
0.000373088
0.000120239
0.000241125
2.3921e-05
0.00243289
1.38283e-07
4.8289e-05
0.00238941
7.23671e-05
0.00232925
9.57608e-05
0.00224722
0.000118161
0.00214198
0.000139291
0.0020141
0.000158901
0.00186462
0.000176764
0.00169504
0.000192678
0.00150714
0.000206461
0.00130294
0.000217958
0.00108459
0.000227042
0.000854498
0.000233604
0.000615094
0.000237579
0.000369114
0.000118891
0.000238934
2.36979e-05
0.00240905
1.42226e-07
4.78439e-05
0.00236527
7.17027e-05
0.00230539
9.48832e-05
0.00222403
0.00011708
0.00211978
0.000138017
0.00199316
0.000157448
0.00184519
0.00017515
0.00167734
0.000190918
0.00149137
0.000204577
0.00128928
0.00021597
0.0010732
0.000224972
0.000845495
0.000231476
0.000608588
0.000235417
0.000365172
0.000117544
0.000236762
2.34767e-05
0.00238543
1.46253e-07
4.74027e-05
0.00234134
7.10441e-05
0.00228175
9.40134e-05
0.00220107
0.000116008
0.00209779
0.000136754
0.00197242
0.000156009
0.00182593
0.000173549
0.0016598
0.000189175
0.00147575
0.00020271
0.00127575
0.000214
0.00106191
0.000222921
0.000836576
0.000229368
0.000602142
0.000233275
0.000361266
0.000116216
0.00023461
2.32574e-05
0.00236202
1.50379e-07
4.69654e-05
0.00231763
7.03913e-05
0.00225832
9.31514e-05
0.00217831
0.000114945
0.00207599
0.000135503
0.00195186
0.000154583
0.00180685
0.000171963
0.00164242
0.000187447
0.00146026
0.000200859
0.00126233
0.000212047
0.00105072
0.000220888
0.000827735
0.000227278
0.00059575
0.000231153
0.000357389
0.000114887
0.000232478
2.30399e-05
0.00233882
1.54619e-07
4.65319e-05
0.00229414
6.97443e-05
0.00223511
9.22969e-05
0.00215575
0.000113892
0.0020544
0.000134263
0.00193149
0.000153169
0.00178795
0.000170392
0.0016252
0.000185735
0.00144492
0.000199026
0.00124904
0.000210113
0.00103963
0.000218874
0.000818975
0.000225208
0.000589417
0.00022905
0.000353549
0.000113576
0.000230366
2.28242e-05
0.00231584
1.58993e-07
4.61021e-05
0.00227086
6.91029e-05
0.00221211
9.14501e-05
0.00213341
0.000112849
0.002033
0.000133034
0.0019113
0.000151768
0.00176921
0.000168834
0.00160813
0.000184038
0.00142972
0.000197209
0.00123587
0.000208196
0.00102865
0.000216878
0.000810291
0.000223156
0.000583138
0.000226966
0.000349738
0.000112264
0.000228274
2.26103e-05
0.00229307
1.63522e-07
4.5676e-05
0.0022478
6.84672e-05
0.00218932
9.06107e-05
0.00211126
0.000111814
0.0020118
0.000131816
0.0018913
0.00015038
0.00175065
0.000167291
0.00159122
0.000182357
0.00141465
0.000195408
0.00122282
0.000206296
0.00101776
0.000214901
0.000801689
0.000221123
0.000576916
0.0002249
0.000345963
0.00011097
0.000226201
2.23981e-05
0.0022705
1.68225e-07
4.52536e-05
0.00222494
6.7837e-05
0.00216674
8.97787e-05
0.00208932
0.000110789
0.00199078
0.000130609
0.00187148
0.000149004
0.00173225
0.000165761
0.00157446
0.000180691
0.00139972
0.000193624
0.00120989
0.000204414
0.00100697
0.000212941
0.00079316
0.000219109
0.000570747
0.000222854
0.000342216
0.000109674
0.000224146
2.21877e-05
0.00224814
1.73121e-07
4.48348e-05
0.0022023
6.72124e-05
0.00214436
8.89542e-05
0.00206758
0.000109773
0.00196997
0.000129412
0.00185185
0.00014764
0.00171403
0.000164246
0.00155785
0.00017904
0.00138493
0.000191856
0.00119708
0.000202548
0.000996276
0.000211
0.000784711
0.000217113
0.000564635
0.000220826
0.000338504
0.000108396
0.00022211
2.19789e-05
0.00222598
1.78223e-07
4.44196e-05
0.00217986
6.65932e-05
0.00212218
8.81369e-05
0.00204603
0.000108766
0.00194934
0.000128227
0.00183238
0.000146289
0.00169596
0.000162744
0.0015414
0.000177404
0.00137027
0.000190104
0.00118437
0.0002007
0.000985679
0.000209076
0.000776334
0.000215135
0.000558574
0.000218816
0.00033482
0.000107118
0.000220091
2.17719e-05
0.00220403
1.83541e-07
4.40079e-05
0.00215762
6.59795e-05
0.00210021
8.73268e-05
0.00202469
0.000107769
0.00192889
0.000127052
0.0018131
0.00014495
0.00167807
0.000161255
0.00152509
0.000175782
0.00135574
0.000188368
0.00117179
0.000198869
0.000975179
0.000207169
0.000768035
0.000213175
0.000552569
0.000216825
0.000331172
0.000105859
0.00021809
2.15665e-05
0.00218227
1.8908e-07
4.35998e-05
0.00213559
6.53711e-05
0.00207844
8.65239e-05
0.00200353
0.000106779
0.00190864
0.000125887
0.00179399
0.000143622
0.00166033
0.00015978
0.00150894
0.000174176
0.00134134
0.000186647
0.00115932
0.000197054
0.000964771
0.00020528
0.000759808
0.000211233
0.000546614
0.000214852
0.000327551
0.0001046
0.000216107
2.13628e-05
0.00216071
1.9484e-07
4.31953e-05
0.00211375
6.4768e-05
0.00205687
8.57281e-05
0.00198257
0.000105799
0.00188857
0.000124733
0.00177506
0.000142307
0.00164276
0.000158319
0.00149293
0.000172584
0.00132708
0.000184943
0.00114696
0.000195256
0.00095446
0.000203408
0.000751657
0.000209309
0.000540715
0.000212896
0.000323965
0.000103362
0.000214141
2.11607e-05
0.00213935
2.00819e-07
4.27941e-05
0.00209212
6.41703e-05
0.00203549
8.49394e-05
0.0019618
0.000104828
0.00186868
0.00012359
0.0017563
0.000141004
0.00162534
0.00015687
0.00147706
0.000171006
0.00131294
0.000183253
0.00113471
0.000193474
0.000944238
0.000201553
0.000743576
0.000207402
0.000534864
0.000210958
0.000320407
0.000102124
0.000212193
2.09603e-05
0.00211819
2.07007e-07
4.23965e-05
0.00207068
6.35777e-05
0.00201431
8.41576e-05
0.00194123
0.000103865
0.00184897
0.000122456
0.00173771
0.000139712
0.00160809
0.000155435
0.00146134
0.000169443
0.00129893
0.00018158
0.00112258
0.000191708
0.000934111
0.000199716
0.00073557
0.000205513
0.000529069
0.000209038
0.000316882
0.000100906
0.000210263
2.07615e-05
0.00209721
2.13395e-07
4.20023e-05
0.00204944
6.29904e-05
0.00199332
8.33828e-05
0.00192083
0.000102911
0.00182944
0.000121333
0.00171928
0.000138433
0.00159099
0.000154012
0.00144576
0.000167894
0.00128505
0.000179921
0.00111055
0.000189958
0.000924073
0.000197894
0.000727633
0.00020364
0.000523321
0.000207136
0.000313384
9.96877e-05
0.00020835
2.05643e-05
0.00207643
2.19968e-07
4.16114e-05
0.0020284
6.24083e-05
0.00197253
8.26149e-05
0.00190063
0.000101965
0.00181009
0.00012022
0.00170103
0.000137164
0.00157404
0.000152603
0.00143032
0.000166359
0.0012713
0.000178277
0.00109863
0.000188225
0.000914127
0.00019609
0.000719769
0.000201785
0.000517627
0.00020525
0.000309921
9.84897e-05
0.000206454
2.03687e-05
0.00205583
2.26712e-07
4.1224e-05
0.00200754
6.18312e-05
0.00195192
8.18538e-05
0.0018806
0.000101028
0.00179092
0.000119117
0.00168294
0.000135907
0.00155725
0.000151206
0.00141502
0.000164838
0.00125766
0.000176649
0.00108682
0.000186507
0.000904268
0.000194302
0.000711973
0.000199947
0.000511979
0.000203382
0.000306483
9.72914e-05
0.000204576
2.01747e-05
0.00203542
2.3361e-07
4.08398e-05
0.00198688
6.12593e-05
0.0019315
8.10995e-05
0.00186076
0.000100099
0.00177192
0.000118024
0.00166502
0.000134662
0.00154061
0.000149822
0.00139986
0.00016333
0.00124416
0.000175035
0.00107511
0.000184804
0.0008945
0.00019253
0.000704249
0.000198125
0.000506385
0.000201531
0.000303078
9.61126e-05
0.000202716
1.99823e-05
0.0020152
2.40647e-07
4.04591e-05
0.0019664
6.06924e-05
0.00191127
8.03519e-05
0.0018411
9.91786e-05
0.00175309
0.00011694
0.00164726
0.000133427
0.00152413
0.00014845
0.00138484
0.000161837
0.00123077
0.000173436
0.00106351
0.000183117
0.000884817
0.000190774
0.000696592
0.00019632
0.000500837
0.000199697
0.000299699
9.49326e-05
0.000200873
1.97914e-05
0.00199516
2.47802e-07
4.00816e-05
0.00194611
6.01305e-05
0.00189122
7.96109e-05
0.00182162
9.82664e-05
0.00173444
0.000115867
0.00162966
0.000132204
0.00150779
0.000147091
0.00136995
0.000160357
0.0012175
0.000171851
0.00105202
0.000181446
0.000875223
0.000189034
0.000689005
0.000194531
0.000495341
0.000197879
0.000296352
9.37712e-05
0.000199047
1.96021e-05
0.0019753
2.55061e-07
3.97074e-05
0.001926
5.95736e-05
0.00187135
7.88766e-05
0.00180232
9.73623e-05
0.00171595
0.000114803
0.00161221
0.000130992
0.0014916
0.000145744
0.0013552
0.00015889
0.00120436
0.000170281
0.00104063
0.00017979
0.000865714
0.00018731
0.000681484
0.000192759
0.00048989
0.000196078
0.00029303
9.26077e-05
0.000197237
1.94144e-05
0.00195563
2.62406e-07
3.93364e-05
0.00190608
5.90216e-05
0.00185167
7.81488e-05
0.00178319
9.64664e-05
0.00169763
0.000113748
0.00159493
0.000129791
0.00147556
0.00014441
0.00134058
0.000157437
0.00119133
0.000168725
0.00102934
0.000178149
0.000856291
0.000185602
0.000674032
0.000191002
0.000484491
0.000194293
0.000289741
9.14622e-05
0.000195445
1.92282e-05
0.00193613
2.69823e-07
3.89687e-05
0.00188634
5.84745e-05
0.00183216
7.74276e-05
0.00176424
9.55786e-05
0.00167948
0.000112704
0.00157781
0.000128601
0.00145966
0.000143087
0.00132609
0.000155997
0.00117842
0.000167184
0.00101815
0.000176522
0.000846952
0.000183909
0.000666644
0.000189262
0.000479136
0.000192525
0.000286475
9.03143e-05
0.000193668
1.90436e-05
0.00191681
2.77296e-07
3.86042e-05
0.00186678
5.79323e-05
0.00181283
7.67128e-05
0.00174546
9.46988e-05
0.0016615
0.000111668
0.00156084
0.000127421
0.0014439
0.000141777
0.00131174
0.00015457
0.00116563
0.000165656
0.00100707
0.000174911
0.000837698
0.000182232
0.000659325
0.000187538
0.000473832
0.000190772
0.000283243
8.9185e-05
0.000191908
1.88605e-05
0.00189766
2.84811e-07
3.82428e-05
0.0018474
5.73948e-05
0.00179368
7.60044e-05
0.00172685
9.38268e-05
0.00164367
0.000110642
0.00154402
0.000126253
0.00142829
0.000140478
0.00129751
0.000153156
0.00115295
0.000164142
0.000996079
0.000173315
0.000828524
0.00018057
0.000652068
0.000185829
0.000468571
0.000189036
0.000280033
8.80542e-05
0.000190162
1.8679e-05
0.00187869
2.92353e-07
3.78847e-05
0.00182819
5.68622e-05
0.0017747
7.53024e-05
0.00170841
9.29628e-05
0.00162601
0.000109626
0.00152736
0.000125095
0.00141282
0.000139192
0.00128342
0.000151755
0.00114039
0.000162643
0.000985192
0.000171733
0.000819436
0.000178924
0.000644879
0.000184136
0.00046336
0.000187315
0.000276856
8.69432e-05
0.000188432
1.8499e-05
0.00185989
2.99911e-07
3.75297e-05
0.00180916
5.63343e-05
0.0017559
7.46067e-05
0.00169014
9.21066e-05
0.00160851
0.000108618
0.00151085
0.000123947
0.0013975
0.000137917
0.00126945
0.000150367
0.00112794
0.000161156
0.000974401
0.000170165
0.000810426
0.000177292
0.000637751
0.000182459
0.000458192
0.00018561
0.000273702
8.58318e-05
0.000186717
1.83206e-05
0.00184126
3.0747e-07
3.71779e-05
0.00179031
5.58112e-05
0.00173726
7.39173e-05
0.00167203
9.12581e-05
0.00159117
0.00010762
0.00149449
0.00012281
0.00138231
0.000136653
0.0012556
0.000148991
0.0011156
0.000159684
0.000963709
0.000168612
0.000801499
0.000175676
0.000630688
0.000180796
0.000453072
0.00018392
0.00027058
8.47405e-05
0.000185017
1.81437e-05
0.0018228
3.1502e-07
3.68292e-05
0.00177162
5.52928e-05
0.0017188
7.32341e-05
0.00165409
9.04174e-05
0.00157399
0.000106631
0.00147827
0.000121683
0.00136725
0.000135402
0.00124188
0.000147628
0.00110337
0.000158225
0.000953111
0.000167073
0.00079265
0.000174074
0.000623687
0.000179149
0.000447994
0.000182246
0.00026748
8.36492e-05
0.000183333
1.79683e-05
0.00180451
3.22549e-07
3.64836e-05
0.0017531
5.4779e-05
0.0017005
7.25571e-05
0.00163631
8.95843e-05
0.00155696
0.000105651
0.00146221
0.000120567
0.00135234
0.000134161
0.00122829
0.000146278
0.00109126
0.000156779
0.00094261
0.000165548
0.000783882
0.000172486
0.00061675
0.000177517
0.000442965
0.000180586
0.000264412
8.25771e-05
0.000181664
1.77945e-05
0.00178639
3.30047e-07
3.61412e-05
0.00173476
5.427e-05
0.00168237
7.18863e-05
0.00161869
8.87589e-05
0.00154009
0.00010468
0.00144629
0.000119461
0.00133755
0.000132932
0.00121482
0.00014494
0.00107925
0.000155347
0.000932202
0.000164037
0.000775191
0.000170914
0.000609872
0.0001759
0.000437976
0.000178943
0.000261366
8.15044e-05
0.000180011
1.76222e-05
0.00176843
3.37502e-07
3.58018e-05
0.00171658
5.37655e-05
0.00166441
7.12217e-05
0.00160124
8.79409e-05
0.00152337
0.000103717
0.00143051
0.000118365
0.00132291
0.000131715
0.00120147
0.000143614
0.00106735
0.000153928
0.000921889
0.00016254
0.000766579
0.000169355
0.000603058
0.000174298
0.000433035
0.000177314
0.000258352
8.04499e-05
0.000178374
1.74515e-05
0.00175063
3.44907e-07
3.54655e-05
0.00169856
5.32657e-05
0.00164661
7.0563e-05
0.00158394
8.71305e-05
0.0015068
0.000102764
0.00141488
0.000117279
0.00130839
0.000130508
0.00118824
0.0001423
0.00105556
0.000152521
0.000911667
0.000161056
0.000758043
0.000167811
0.000596302
0.00017271
0.000428134
0.0001757
0.000255358
7.93943e-05
0.000176751
1.72823e-05
0.001733
3.5225e-07
3.51322e-05
0.00168071
5.27703e-05
0.00162897
6.99104e-05
0.0015668
8.63274e-05
0.00149039
0.000101819
0.00139939
0.000116203
0.00129401
0.000129313
0.00117513
0.000140998
0.00104387
0.000151128
0.000901538
0.000159587
0.000749585
0.000166281
0.000589609
0.000171136
0.000423279
0.0001741
0.000252396
7.83567e-05
0.000175143
1.71146e-05
0.00171552
3.59524e-07
3.4802e-05
0.00166303
5.22795e-05
0.00161149
6.92637e-05
0.00154982
8.55317e-05
0.00147412
0.000100883
0.00138403
0.000115137
0.00127975
0.000128128
0.00116214
0.000139708
0.00103229
0.000149747
0.000891499
0.00015813
0.0007412
0.000164765
0.000582973
0.000169577
0.000418465
0.000172516
0.000249455
7.73185e-05
0.00017355
1.69485e-05
0.00169821
3.66716e-07
3.44747e-05
0.0016455
5.17932e-05
0.00159418
6.8623e-05
0.00153299
8.47432e-05
0.001458
9.99553e-05
0.00136882
0.00011408
0.00126563
0.000126954
0.00114926
0.00013843
0.00102081
0.000148379
0.000881551
0.000156687
0.000732893
0.000163263
0.000576399
0.000168033
0.000413696
0.000170945
0.000246544
7.62988e-05
0.00017197
1.67838e-05
0.00168105
3.7382e-07
3.41505e-05
0.00162813
5.13113e-05
0.00157701
6.79881e-05
0.00151631
8.3962e-05
0.00144202
9.90362e-05
0.00135375
0.000113033
0.00125163
0.000125791
0.00113651
0.000137164
0.00100944
0.000147023
0.000871691
0.000155257
0.000724658
0.000161774
0.00056988
0.000166502
0.000408966
0.000169389
0.000243653
7.5279e-05
0.000170405
1.66207e-05
0.00166405
3.80825e-07
3.38292e-05
0.00161093
5.08338e-05
0.00156001
6.7359e-05
0.00149978
8.31879e-05
0.0014262
9.81256e-05
0.00133881
0.000111996
0.00123776
0.000124639
0.00112386
0.00013591
0.00099817
0.00014568
0.000861922
0.00015384
0.000716498
0.000160299
0.000563422
0.000164986
0.000404281
0.000167847
0.000240793
7.4278e-05
0.000168854
1.64591e-05
0.0016472
3.87727e-07
3.35109e-05
0.00159387
5.03607e-05
0.00154316
6.67356e-05
0.00148341
8.24209e-05
0.00141051
9.72233e-05
0.00132401
0.000110968
0.00122402
0.000123497
0.00111133
0.000134666
0.000987
0.000144349
0.000852238
0.000152436
0.00070841
0.000158838
0.00055702
0.000163483
0.000399634
0.00016632
0.000237953
7.32767e-05
0.000167317
1.62989e-05
0.00163051
3.94517e-07
3.31955e-05
0.00157698
4.9892e-05
0.00152646
6.61181e-05
0.00146718
8.1661e-05
0.00139497
9.63293e-05
0.00130934
0.00010995
0.0012104
0.000122366
0.00109892
0.000133435
0.000975932
0.00014303
0.000842643
0.000151046
0.000700396
0.00015739
0.000550676
0.000161994
0.000395031
0.000164806
0.000235143
7.22933e-05
0.000165795
1.61403e-05
0.00161396
4.01196e-07
3.2883e-05
0.00156023
4.94275e-05
0.00150992
6.55062e-05
0.0014511
8.09081e-05
0.00137956
9.54436e-05
0.0012948
0.000108941
0.0011969
0.000121245
0.00108661
0.000132214
0.000964962
0.000141724
0.000833132
0.000149667
0.000692452
0.000155956
0.000544387
0.000160519
0.000390466
0.000163306
0.000232352
7.13084e-05
0.000164287
1.59832e-05
0.00159757
4.07758e-07
3.25734e-05
0.00154365
4.89674e-05
0.00149353
6.48999e-05
0.00143517
8.01621e-05
0.0013643
9.4566e-05
0.0012804
0.000107942
0.00118352
0.000120135
0.00107442
0.000131005
0.000954092
0.000140429
0.000823709
0.000148302
0.00068458
0.000154534
0.000538156
0.000159057
0.000385945
0.00016182
0.00022959
7.03402e-05
0.000162794
1.58275e-05
0.00158133
4.14205e-07
3.22667e-05
0.00152721
4.85115e-05
0.00147728
6.42993e-05
0.00141938
7.9423e-05
0.00134918
9.36965e-05
0.00126613
0.000106951
0.00117027
0.000119035
0.00106234
0.000129807
0.000943319
0.000139147
0.000814368
0.000146949
0.000676778
0.000153125
0.000531978
0.000157608
0.00038146
0.000160348
0.000226846
6.93688e-05
0.000161315
1.56733e-05
0.00156524
4.20537e-07
3.19628e-05
0.00151092
4.80598e-05
0.00146118
6.37042e-05
0.00140374
7.86907e-05
0.00133419
9.2835e-05
0.00125198
0.00010597
0.00115713
0.000117944
0.00105036
0.00012862
0.000932644
0.000137876
0.000805113
0.000145608
0.000669046
0.00015173
0.000525858
0.000156173
0.000377018
0.000158889
0.000224132
6.84132e-05
0.00015985
1.55205e-05
0.00154929
4.26757e-07
3.16617e-05
0.00149477
4.76123e-05
0.00144523
6.31145e-05
0.00138824
7.79652e-05
0.00131934
9.19814e-05
0.00123797
0.000104998
0.00114411
0.000116864
0.0010385
0.000127444
0.000922064
0.000136617
0.000795939
0.00014428
0.000661383
0.000150347
0.00051979
0.000154751
0.000372612
0.000157444
0.000221435
6.74537e-05
0.000158399
1.53692e-05
0.00153349
4.32864e-07
3.13634e-05
0.00147878
4.71689e-05
0.00142943
6.25303e-05
0.00137288
7.72463e-05
0.00130463
9.11357e-05
0.00122408
0.000104035
0.00113122
0.000115794
0.00102674
0.000126278
0.00091158
0.000135369
0.000786849
0.000142964
0.000653789
0.000148977
0.000513778
0.000153342
0.000368249
0.000156011
0.000218767
6.65105e-05
0.00015696
1.52193e-05
0.00151783
4.38862e-07
3.10679e-05
0.00146293
4.67296e-05
0.00141376
6.19515e-05
0.00135765
7.6534e-05
0.00129004
9.02977e-05
0.00121031
0.00010308
0.00111843
0.000114733
0.00101509
0.000125124
0.000901189
0.000134133
0.000777839
0.00014166
0.000646262
0.000147619
0.000507817
0.000151946
0.00036392
0.000154592
0.000216117
6.55639e-05
0.000155534
1.50708e-05
0.00150232
4.4475e-07
3.07751e-05
0.00144723
4.62944e-05
0.00139825
6.1378e-05
0.00134257
7.58283e-05
0.00127559
8.94674e-05
0.00119667
0.000102134
0.00110577
0.000113683
0.00100354
0.00012398
0.000890893
0.000132908
0.000768912
0.000140368
0.000638803
0.000146274
0.000501912
0.000150562
0.000359634
0.000153186
0.000213495
6.46347e-05
0.000154121
1.49237e-05
0.00148694
4.50529e-07
3.04851e-05
0.00143167
4.58632e-05
0.00138287
6.08098e-05
0.00132762
7.51291e-05
0.00126127
8.86448e-05
0.00118316
0.000101197
0.00109321
0.000112642
0.000992093
0.000122846
0.000880688
0.000131695
0.000760062
0.000139088
0.000631409
0.000144942
0.000496057
0.000149192
0.000355381
0.000151793
0.000210891
6.37038e-05
0.000152719
1.47781e-05
0.00147171
4.56198e-07
3.01978e-05
0.00141625
4.5436e-05
0.00136763
6.02468e-05
0.00131281
7.44363e-05
0.00124708
8.78297e-05
0.00116977
0.000100269
0.00108077
0.00011161
0.000980753
0.000121723
0.000870576
0.000130492
0.000751294
0.000137819
0.000624084
0.000143622
0.000490256
0.000147834
0.00035117
0.000150412
0.000208315
6.27915e-05
0.000151329
1.46338e-05
0.00145661
4.61757e-07
2.99131e-05
0.00140097
4.50127e-05
0.00135253
5.96891e-05
0.00129814
7.37499e-05
0.00123302
8.70222e-05
0.00115649
9.93494e-05
0.00106845
0.000110589
0.000969513
0.000120611
0.000860553
0.000129301
0.000742602
0.000136563
0.000616821
0.000142314
0.000484504
0.000146489
0.000346992
0.000149044
0.000205756
6.1879e-05
0.000149952
1.4491e-05
0.00144165
4.67203e-07
2.96312e-05
0.00138583
4.45934e-05
0.00133757
5.91365e-05
0.00128359
7.30699e-05
0.00121909
8.62222e-05
0.00114334
9.84382e-05
0.00105623
0.000109576
0.000958376
0.000119508
0.000850622
0.000128121
0.00073399
0.000135318
0.000609625
0.000141018
0.000478805
0.000145157
0.000342855
0.000147689
0.000203225
6.09852e-05
0.000148587
1.43495e-05
0.00142683
4.72537e-07
2.93519e-05
0.00137083
4.41781e-05
0.00132274
5.85891e-05
0.00126918
7.23963e-05
0.00120528
8.54297e-05
0.00113031
9.75354e-05
0.00104413
0.000108573
0.000947337
0.000118416
0.000840778
0.000126952
0.000725453
0.000134085
0.000602491
0.000139734
0.000473155
0.000143836
0.00033875
0.000146346
0.000200712
6.00919e-05
0.000147235
1.42094e-05
0.00141214
4.77756e-07
2.90753e-05
0.00135596
4.37666e-05
0.00130805
5.80468e-05
0.0012549
7.17289e-05
0.0011916
8.46445e-05
0.00111739
9.66411e-05
0.00103213
0.00010758
0.000936399
0.000117334
0.000831024
0.000125794
0.000716994
0.000132863
0.000595423
0.000138462
0.000467557
0.000142528
0.000334685
0.000145016
0.000198225
5.92166e-05
0.000145895
1.40707e-05
0.00139759
4.82863e-07
2.88012e-05
0.00134123
4.3359e-05
0.00129349
5.75096e-05
0.00124075
7.10678e-05
0.00117804
8.38666e-05
0.00110459
9.57551e-05
0.00102024
0.000106595
0.000925558
0.000116262
0.000821356
0.000124646
0.000708609
0.000131653
0.000588416
0.000137202
0.000462006
0.000141232
0.000330652
0.000143698
0.000195756
5.83413e-05
0.000144568
1.39333e-05
0.00138317
4.87856e-07
2.85298e-05
0.00132663
4.29553e-05
0.00127907
5.69775e-05
0.00122673
7.04129e-05
0.00116461
8.30961e-05
0.00109191
9.48774e-05
0.00100846
0.00010562
0.000914816
0.000115201
0.000811776
0.00012351
0.0007003
0.000130453