/*--------------------------------*- C++ -*----------------------------------*\
  =========                 |
  \\      /  F ield         | OpenFOAM: The Open Source CFD Toolbox
   \\    /   O peration     | Website:  https://openfoam.org
    \\  /    A nd           | Version:  6.0
     \\/     M anipulation  |
\*---------------------------------------------------------------------------*/
FoamFile
{
    version     2.0;
    format      ascii;
    class       surfaceScalarField;
    location    "25";
    object      phi;
}
// * * * * * * * * * * * * * * * * * * * * * * * * * * * * * * * * * * * * * //

dimensions      [0 3 -1 0 0 0 0];

internalField   nonuniform List<scalar> 
3880
(
-1.79833e-05
1.79833e-05
1.99736e-11
-5.35325e-05
3.55492e-05
1.61994e-11
-9.54691e-05
4.19366e-05
-2.1353e-11
-0.000136723
4.12535e-05
-8.05219e-11
-0.000172928
3.62059e-05
-1.52771e-10
-0.000201673
2.87448e-05
-2.3068e-10
-0.000222024
2.03513e-05
-3.10058e-10
-0.000234223
1.21997e-05
-3.86909e-10
-0.000239481
5.25811e-06
-4.58359e-10
2.92537e-07
-5.22018e-10
-0.000239773
-1.73082e-05
3.52915e-05
-5.08946e-05
6.91357e-05
-8.97177e-05
8.07597e-05
-0.000126819
7.83544e-05
-0.000157873
6.72604e-05
-0.000180433
5.13047e-05
-0.000193478
3.33965e-05
-0.00019715
1.58714e-05
-0.000192603
7.10929e-07
-1.04638e-05
-0.000181846
-1.59223e-05
5.12138e-05
-4.55013e-05
9.87147e-05
-7.80096e-05
0.000113268
-0.000106756
0.000107101
-0.000127542
8.80457e-05
-0.000137884
6.16472e-05
-0.000136604
3.21167e-05
-0.000123635
2.9017e-06
-9.99913e-05
-2.29324e-05
-4.27187e-05
-6.77365e-05
-1.37377e-05
6.49515e-05
-3.70682e-05
0.000122045
-5.98322e-05
0.000136032
-7.58453e-05
0.000123114
-8.12062e-05
9.34065e-05
-7.34859e-05
5.3927e-05
-5.13281e-05
9.95882e-06
-1.43459e-05
-3.40804e-05
3.67154e-05
-7.39937e-05
-0.000105776
9.97726e-05
-1.05898e-05
7.55413e-05
-2.50737e-05
0.000136529
-3.42088e-05
0.000145167
-3.26577e-05
0.000121563
-1.71252e-05
7.78741e-05
1.45258e-05
2.2276e-05
6.37153e-05
-3.92307e-05
0.000131213
-0.000101578
0.000216745
-0.000159526
-0.000207358
0.000318327
-6.2254e-06
8.17667e-05
-8.72333e-06
0.000139027
4.08725e-07
0.000136035
2.52437e-05
9.67283e-05
6.80166e-05
3.51011e-05
0.000130103
-3.98108e-05
0.000212603
-0.000121731
0.00031654
-0.000205514
0.000442353
-0.000285339
-0.000353332
0.000588326
-3.30376e-07
8.20971e-05
1.29661e-05
0.000125731
4.60281e-05
0.000102973
0.000101274
4.14827e-05
0.000179355
-4.298e-05
0.000280168
-0.000140624
0.000403645
-0.000245208
0.000550367
-0.000352237
0.000721453
-0.000456425
-0.000547916
0.000916037
7.38144e-06
7.47156e-05
4.08857e-05
9.22263e-05
0.000104592
3.92667e-05
0.000199093
-5.30184e-05
0.000323094
-0.00016698
0.000474221
-0.000291751
0.000649871
-0.000420858
0.000848367
-0.000550732
0.00107022
-0.000678281
-0.000796645
0.00131895
1.70199e-05
5.76957e-05
7.53559e-05
3.38903e-05
0.000177008
-6.23858e-05
0.000321058
-0.000197068
0.000504544
-0.000350466
0.000722688
-0.000509896
0.000969212
-0.000667381
0.00123734
-0.000818856
0.00152335
-0.000964298
-0.00111466
0.00184136
2.832e-05
2.93757e-05
0.000115464
-5.32541e-05
0.000261646
-0.000208567
0.000465457
-0.000400879
0.000724095
-0.000609105
0.00103307
-0.000818873
0.00138557
-0.00101988
0.00177083
-0.00120411
0.00217322
-0.00136669
-0.00151126
0.00256982
4.04659e-05
-1.10902e-05
0.000158353
-0.000171141
0.00035206
-0.000402274
0.000620327
-0.000669146
0.000962539
-0.000951317
0.00137939
-0.00123573
0.00187415
-0.00151463
0.00245584
-0.00178581
0.00314722
-0.00205806
-0.00236953
0.00400549
5.23708e-05
-6.3461e-05
0.000200008
-0.000318779
0.000438141
-0.000640407
0.000763271
-0.000994276
0.00117273
-0.00136078
0.00166468
-0.00172768
0.00223806
-0.00208801
0.00289201
-0.00243976
0.00362108
-0.00278713
-0.00313944
0.00439099
6.35133e-05
-0.000126974
0.000238369
-0.000493634
0.000515138
-0.000917176
0.000885821
-0.00136496
0.00134267
-0.00181763
0.00187757
-0.00226257
0.00248132
-0.00269177
0.00314214
-0.00310058
0.00384147
-0.00348646
-0.00384353
0.00454556
7.39139e-05
-0.000200888
0.00027316
-0.00069288
0.000582507
-0.00122652
0.000988177
-0.00177063
0.0014763
-0.00230575
0.00203228
-0.00281855
0.00264032
-0.00329981
0.00328268
-0.00374294
0.00393808
-0.00414186
-0.00448558
0.00458013
8.37177e-05
-0.000284606
0.00030453
-0.000913692
0.000640524
-0.00156252
0.00107152
-0.00220163
0.0015775
-0.00281173
0.00213826
-0.00337931
0.00273358
-0.00389513
0.00334334
-0.0043527
0.00394738
-0.0047459
-0.00506398
0.00452578
9.29157e-05
-0.000377522
0.000332225
-0.001153
0.000688627
-0.00191892
0.00113532
-0.00264832
0.00164655
-0.00332296
0.00219777
-0.00393053
0.00276623
-0.00446359
0.00333161
-0.00491808
0.00387644
-0.00529072
-0.00557436
0.00438682
0.000101265
-0.000478786
0.000355364
-0.0014071
0.000725108
-0.00228866
0.00117718
-0.00310039
0.00168087
-0.00382666
0.00220866
-0.00445832
0.00273701
-0.00499194
0.00324706
-0.00542813
0.00372495
-0.00576862
-0.0060119
0.00416249
0.000108334
-0.000587121
0.000372601
-0.00167137
0.000747539
-0.0026636
0.0011938
-0.00354665
0.00167686
-0.00430973
0.00216776
-0.00494921
0.00264381
-0.00546799
0.00308891
-0.00587324
0.00349348
-0.00617318
-0.00637301
0.00385459
0.000113599
-0.00070072
0.000382418
-0.00194019
0.000753404
-0.00303459
0.00118211
-0.00397535
0.00163164
-0.00475926
0.00207325
-0.00539082
0.00248659
-0.00588132
0.00285932
-0.00624597
0.00318635
-0.00650022
-0.00665608
0.00346942
0.000116527
-0.000817247
0.000383397
-0.00220705
0.000740609
-0.0033918
0.00114001
-0.00437475
0.00154403
-0.00516328
0.00192578
-0.00577257
0.00226843
-0.00622398
0.00256399
-0.00654153
0.00281174
-0.00674796
-0.00686155
0.00301721
0.000116652
-0.000933899
0.000374429
-0.00246483
0.000707832
-0.0037252
0.00106679
-0.00473371
0.0014149
-0.00551139
0.00172856
-0.00608622
0.00199529
-0.00649072
0.00221156
-0.0067578
0.00238055
-0.00691695
-0.00699163
0.00251063
0.000113569
-0.00104747
0.000354746
-0.00270601
0.000654561
-0.00402502
0.00096312
-0.00504227
0.00124694
-0.00579521
0.00148683
-0.00632611
0.00167507
-0.00667896
0.00181232
-0.00689505
0.00190493
-0.00700956
-0.0070498
0.0019631
0.000107021
-0.00115449
0.000324064
-0.00292305
0.000581215
-0.00428217
0.000830965
-0.00529202
0.00104432
-0.00600857
0.00120727
-0.00648907
0.00131681
-0.0067885
0.00137719
-0.00695543
0.00139708
-0.00702944
-0.00704037
0.00138765
9.68584e-05
-0.00125135
0.000282505
-0.0031087
0.000488949
-0.00448861
0.000673238
-0.00547631
0.000812135
-0.00614746
0.00089715
-0.00657408
0.000929607
-0.00682095
0.000916594
-0.00694242
0.0008682
-0.00698105
-0.006968
0.000795828
8.30648e-05
-0.00133441
0.000230588
-0.00325622
0.000379533
-0.00463756
0.000493473
-0.00559025
0.000555823
-0.00620981
0.00056361
-0.00658187
0.000521903
-0.00677925
0.000439737
-0.00686025
0.000327791
-0.0068691
-0.00683741
0.000197205
6.57584e-05
-0.00140017
0.000169202
-0.00335967
0.00025523
-0.00472359
0.000295569
-0.00563059
0.00028079
-0.00619503
0.000213183
-0.00651426
0.000100884
-0.00666695
-4.59626e-05
-0.00671341
-0.000216843
-0.00669822
-0.00665316
-0.000401091
4.52109e-05
-0.00144538
9.96111e-05
-0.00341407
0.000118755
-0.00474273
8.36885e-05
-0.00559552
-7.74347e-06
-0.0061036
-0.000148418
-0.00637359
-0.000327745
-0.00648762
-0.000535143
-0.00650601
-0.000760888
-0.00647248
-0.006419
-0.000995046
2.18743e-05
-0.00146726
2.34929e-05
-0.00341568
-2.66942e-05
-0.00469254
-0.000137693
-0.00548452
-0.000304657
-0.00593664
-0.000516176
-0.00616207
-0.00075967
-0.00624413
-0.00102451
-0.00624117
-0.0013023
-0.00619469
-0.00613533
-0.00158598
-3.5782e-06
-0.00146368
-5.69873e-05
-0.00336228
-0.000177316
-0.00457222
-0.000363628
-0.00529821
-0.000604829
-0.00569544
-0.000886015
-0.00588088
-0.00119295
-0.00593719
-0.00151484
-0.00591928
-0.00184483
-0.0058647
-0.00579539
-0.00218477
-3.01887e-05
-0.00143349
-0.000138998
-0.00325347
-0.000328245
-0.00438297
-0.000587714
-0.00503874
-0.000901571
-0.00538158
-0.0012532
-0.00552925
-0.00162806
-0.00556233
-0.00201573
-0.00553161
-0.0024125
-0.00546793
-0.00540436
-0.00280353
-5.67194e-05
-0.00137677
-0.000219011
-0.00309117
-0.000473053
-0.00412893
-0.000800005
-0.00471179
-0.00118073
-0.00500086
-0.00159929
-0.00511068
-0.00204444
-0.00511719
-0.00250898
-0.00506707
-0.00299169
-0.00498522
-0.00487047
-0.00352557
-8.20908e-05
-0.00129468
-0.000293972
-0.00287929
-0.000605974
-0.00381692
-0.000990352
-0.00432741
-0.00142356
-0.00456766
-0.00188753
-0.00464671
-0.0023693
-0.00463542
-0.00285982
-0.00457655
-0.00335277
-0.00449226
-0.00439065
-0.00383259
-0.000105667
-0.00118901
-0.000362507
-0.00262245
-0.000725661
-0.00345377
-0.0011591
-0.00389397
-0.00163529
-0.00409147
-0.00213452
-0.00414748
-0.00264332
-0.00412661
-0.00315269
-0.00406719
-0.0036554
-0.00398954
-0.00390409
-0.00414197
-0.000127106
-0.00106191
-0.00042404
-0.00232552
-0.000832033
-0.00304578
-0.00130788
-0.00341813
-0.00182101
-0.00357833
-0.00235097
-0.00361752
-0.00288467
-0.00359291
-0.00341393
-0.00353792
-0.00393319
-0.00347029
-0.00339938
-0.00443789
-0.000146152
-0.000915753
-0.000478148
-0.00199352
-0.00092493
-0.002599
-0.00143729
-0.00290577
-0.00198247
-0.00303315
-0.00253983
-0.00306016
-0.00309708
-0.00303566
-0.00364722
-0.00298779
-0.00418626
-0.00293124
-0.00287371
-0.00471193
-0.00016256
-0.000753193
-0.000524382
-0.0016317
-0.00100393
-0.00211945
-0.00154713
-0.00236257
-0.00211964
-0.00246064
-0.00270098
-0.00247882
-0.00327969
-0.00245695
-0.00384985
-0.00241763
-0.00440865
-0.00237245
-0.00232739
-0.00495497
-0.000176081
-0.000577112
-0.000562236
-0.00124555
-0.00106839
-0.00161329
-0.00163666
-0.00179431
-0.00223161
-0.00186568
-0.00283299
-0.00187744
-0.00343009
-0.00185985
-0.00401785
-0.00182987
-0.00459423
-0.00179607
-0.00176282
-0.00515881
-0.000186475
-0.000390637
-0.000591192
-0.00084083
-0.00111758
-0.00108691
-0.00170493
-0.00120695
-0.00231709
-0.00125353
-0.00293402
-0.00126051
-0.00354562
-0.00124825
-0.00414742
-0.00122807
-0.00473791
-0.00120558
-0.00118366
-0.00531706
-0.000193534
-0.000197103
-0.000610789
-0.000423575
-0.00115081
-0.000546885
-0.00175104
-0.00060672
-0.00237486
-0.000629708
-0.00300242
-0.000632949
-0.003624
-0.000626672
-0.00423555
-0.000616524
-0.00483583
-0.000605296
-0.000594411
-0.00542508
-0.000197103
2.00451e-11
-0.000620678
3.28236e-11
-0.00116756
4.30924e-11
-0.00177428
5.21184e-11
-0.00240399
6.1574e-11
-0.00303694
7.22026e-11
-0.00366361
8.38306e-11
-0.00428014
9.60182e-11
-0.00488543
1.07931e-10
1.2063e-10
-0.00547984
-0.000197103
0.000197103
-0.000620678
0.000423575
-0.00116756
0.000546885
-0.00177428
0.00060672
-0.00240399
0.000629708
-0.00303694
0.000632949
-0.00366361
0.000626672
-0.00428014
0.000616524
-0.00488543
0.000605296
0.000594411
-0.00547984
-0.000193534
0.000390637
-0.000610789
0.00084083
-0.00115081
0.00108691
-0.00175104
0.00120695
-0.00237486
0.00125353
-0.00300242
0.00126051
-0.003624
0.00124825
-0.00423555
0.00122807
-0.00483583
0.00120558
0.00118366
-0.00542508
-0.000186475
0.000577112
-0.000591192
0.00124555
-0.00111758
0.00161329
-0.00170493
0.00179431
-0.00231709
0.00186568
-0.00293402
0.00187744
-0.00354562
0.00185985
-0.00414742
0.00182987
-0.00473791
0.00179607
0.00176282
-0.00531706
-0.000176081
0.000753193
-0.000562236
0.0016317
-0.00106839
0.00211945
-0.00163666
0.00236257
-0.00223161
0.00246064
-0.00283299
0.00247882
-0.00343009
0.00245695
-0.00401785
0.00241763
-0.00459423
0.00237245
0.0023274
-0.00515881
-0.00016256
0.000915753
-0.000524382
0.00199352
-0.00100393
0.002599
-0.00154713
0.00290577
-0.00211964
0.00303315
-0.00270098
0.00306016
-0.00327969
0.00303566
-0.00384985
0.00298779
-0.00440865
0.00293124
0.00287371
-0.00495497
-0.000146152
0.00106191
-0.000478148
0.00232552
-0.00092493
0.00304578
-0.00143729
0.00341813
-0.00198247
0.00357833
-0.00253983
0.00361753
-0.00309708
0.00359291
-0.00364722
0.00353792
-0.00418626
0.00347029
0.00339938
-0.00471193
-0.000127106
0.00118901
-0.00042404
0.00262245
-0.000832033
0.00345377
-0.00130788
0.00389397
-0.00182101
0.00409147
-0.00235097
0.00414748
-0.00288467
0.00412661
-0.00341393
0.00406719
-0.00393319
0.00398955
0.00390409
-0.00443789
-0.000105667
0.00129468
-0.000362507
0.00287929
-0.000725661
0.00381692
-0.0011591
0.00432741
-0.00163529
0.00456766
-0.00213452
0.00464671
-0.00264332
0.00463542
-0.00315269
0.00457655
-0.0036554
0.00449226
0.00439066
-0.00414197
-8.20908e-05
0.00137677
-0.000293972
0.00309117
-0.000605974
0.00412893
-0.000990352
0.00471179
-0.00142356
0.00500086
-0.00188753
0.00511068
-0.0023693
0.00511719
-0.00285982
0.00506707
-0.00335277
0.00498522
0.00487047
-0.00383259
-5.67194e-05
0.00143349
-0.000219011
0.00325347
-0.000473053
0.00438297
-0.000800005
0.00503874
-0.00118073
0.00538158
-0.00159929
0.00552925
-0.00204444
0.00556233
-0.00250898
0.00553161
-0.00299169
0.00546793
0.00540436
-0.00352557
-3.01887e-05
0.00146368
-0.000138999
0.00336228
-0.000328246
0.00457222
-0.000587714
0.00529821
-0.000901571
0.00569544
-0.0012532
0.00588088
-0.00162806
0.00593719
-0.00201573
0.00591928
-0.0024125
0.0058647
0.00579539
-0.00280353
-3.5782e-06
0.00146726
-5.69874e-05
0.00341568
-0.000177316
0.00469254
-0.000363628
0.00548452
-0.000604829
0.00593664
-0.000886015
0.00616207
-0.00119295
0.00624413
-0.00151484
0.00624117
-0.00184483
0.00619469
0.00613533
-0.00218477
2.18743e-05
0.00144538
2.34929e-05
0.00341407
-2.66943e-05
0.00474273
-0.000137693
0.00559552
-0.000304657
0.0061036
-0.000516176
0.00637359
-0.00075967
0.00648762
-0.00102451
0.00650601
-0.0013023
0.00647248
0.006419
-0.00158598
4.52109e-05
0.00140017
9.96111e-05
0.00335967
0.000118755
0.00472359
8.36884e-05
0.00563059
-7.74362e-06
0.00619503
-0.000148418
0.00651426
-0.000327745
0.00666695
-0.000535144
0.00671341
-0.000760888
0.00669822
0.00665316
-0.000995046
6.57584e-05
0.00133441
0.000169202
0.00325622
0.00025523
0.00463756
0.000295569
0.00559025
0.00028079
0.00620981
0.000213183
0.00658187
0.000100884
0.00677925
-4.59629e-05
0.00686025
-0.000216844
0.0068691
0.00683741
-0.000401091
8.30648e-05
0.00125135
0.000230588
0.0031087
0.000379533
0.00448861
0.000493473
0.00547631
0.000555823
0.00614746
0.00056361
0.00657408
0.000521903
0.00682095
0.000439736
0.00694242
0.00032779
0.00698105
0.006968
0.000197204
9.68583e-05
0.00115449
0.000282505
0.00292305
0.000488949
0.00428217
0.000673238
0.00529202
0.000812135
0.00600857
0.00089715
0.00648907
0.000929607
0.0067885
0.000916594
0.00695543
0.000868199
0.00702945
0.00704037
0.000795827
0.000107021
0.00104747
0.000324064
0.00270601
0.000581215
0.00402502
0.000830965
0.00504227
0.00104432
0.00579521
0.00120727
0.00632612
0.00131681
0.00667896
0.00137719
0.00689505
0.00139708
0.00700956
0.0070498
0.00138765
0.000113569
0.000933899
0.000354746
0.00246483
0.000654561
0.0037252
0.00096312
0.00473371
0.00124694
0.00551139
0.00148683
0.00608622
0.00167507
0.00649072
0.00181232
0.0067578
0.00190493
0.00691695
0.00699163
0.0019631
0.000116651
0.000817248
0.000374429
0.00220706
0.000707832
0.0033918
0.00106679
0.00437475
0.0014149
0.00516328
0.00172856
0.00577257
0.00199529
0.00622398
0.00221156
0.00654153
0.00238055
0.00674796
0.00686155
0.00251063
0.000116527
0.00070072
0.000383397
0.00194019
0.000740608
0.00303459
0.00114001
0.00397535
0.00154403
0.00475926
0.00192578
0.00539082
0.00226843
0.00588133
0.00256399
0.00624597
0.00281174
0.00650022
0.00665608
0.00301721
0.000113599
0.000587121
0.000382418
0.00167137
0.000753404
0.0026636
0.00118211
0.00354665
0.00163164
0.00430973
0.00207325
0.00494921
0.00248659
0.00546799
0.00285932
0.00587324
0.00318635
0.00617318
0.00637301
0.00346942
0.000108334
0.000478786
0.000372601
0.0014071
0.000747539
0.00228866
0.0011938
0.00310039
0.00167686
0.00382666
0.00216776
0.00445832
0.0026438
0.00499194
0.00308891
0.00542813
0.00349348
0.00576862
0.0060119
0.00385459
0.000101265
0.000377522
0.000355364
0.001153
0.000725108
0.00191892
0.00117718
0.00264832
0.00168087
0.00332296
0.00220866
0.00393053
0.00273701
0.00446359
0.00324706
0.00491808
0.00372495
0.00529072
0.00557436
0.00416249
9.29157e-05
0.000284606
0.000332225
0.000913693
0.000688627
0.00156252
0.00113532
0.00220163
0.00164655
0.00281173
0.00219777
0.00337931
0.00276623
0.00389513
0.00333161
0.0043527
0.00387644
0.0047459
0.00506398
0.00438682
8.37177e-05
0.000200888
0.00030453
0.000692881
0.000640524
0.00122652
0.00107152
0.00177063
0.0015775
0.00230575
0.00213826
0.00281855
0.00273358
0.00329981
0.00334334
0.00374294
0.00394738
0.00414187
0.00448558
0.00452578
7.39139e-05
0.000126974
0.00027316
0.000493635
0.000582507
0.000917176
0.000988177
0.00136496
0.0014763
0.00181763
0.00203228
0.00226257
0.00264032
0.00269177
0.00328268
0.00310058
0.00393808
0.00348647
0.00384353
0.00458012
6.35133e-05
6.34611e-05
0.000238369
0.000318779
0.000515138
0.000640408
0.000885822
0.000994276
0.00134267
0.00136078
0.00187757
0.00172768
0.00248132
0.00208802
0.00314214
0.00243976
0.00384147
0.00278713
0.00313944
0.00454556
5.23708e-05
1.10903e-05
0.000200008
0.000171142
0.000438142
0.000402274
0.000763271
0.000669147
0.00117273
0.000951317
0.00166468
0.00123573
0.00223806
0.00151464
0.00289201
0.00178581
0.00362108
0.00205806
0.00236953
0.00439099
4.04659e-05
-2.93756e-05
0.000158353
5.32544e-05
0.00035206
0.000208567
0.000620327
0.000400879
0.000962539
0.000609105
0.00137939
0.000818874
0.00187415
0.00101988
0.00245584
0.00120411
0.00314722
0.00136669
0.00151126
0.00400549
2.83201e-05
-5.76957e-05
0.000115464
-3.38901e-05
0.000261646
6.23862e-05
0.000465457
0.000197068
0.000724095
0.000350467
0.00103307
0.000509896
0.00138557
0.000667383
0.00177083
0.000818857
0.00217322
0.000964299
0.00111466
0.00256982
1.70199e-05
-7.47156e-05
7.5356e-05
-9.22261e-05
0.000177009
-3.92664e-05
0.000321058
5.30189e-05
0.000504544
0.000166981
0.000722689
0.000291752
0.000969212
0.000420859
0.00123734
0.000550734
0.00152335
0.000678283
0.000796646
0.00184136
7.38146e-06
-8.2097e-05
4.08858e-05
-0.00012573
0.000104592
-0.000102973
0.000199094
-4.14823e-05
0.000323094
4.29807e-05
0.000474221
0.000140625
0.000649871
0.000245209
0.000848367
0.000352238
0.00107022
0.000456426
0.000547917
0.00131895
-3.30358e-07
-8.17667e-05
1.29662e-05
-0.000139027
4.60282e-05
-0.000136035
0.000101274
-9.67279e-05
0.000179355
-3.51006e-05
0.000280168
3.98115e-05
0.000403645
0.000121731
0.000550368
0.000205515
0.000721454
0.00028534
0.000353333
0.000916038
-6.22538e-06
-7.55413e-05
-8.72328e-06
-0.000136529
4.08832e-07
-0.000145167
2.52438e-05
-0.000121563
6.80168e-05
-7.78736e-05
0.000130104
-2.22754e-05
0.000212604
3.92315e-05
0.00031654
0.000101579
0.000442353
0.000159527
0.000207359
0.000588327
-1.05898e-05
-6.49515e-05
-2.50736e-05
-0.000122045
-3.42087e-05
-0.000136032
-3.26575e-05
-0.000123114
-1.7125e-05
-9.34061e-05
1.4526e-05
-5.39264e-05
6.37156e-05
-9.95808e-06
0.000131213
3.40813e-05
0.000216746
7.39947e-05
0.000105777
0.000318328
-1.37377e-05
-5.12138e-05
-3.70681e-05
-9.87147e-05
-5.98321e-05
-0.000113268
-7.58452e-05
-0.000107101
-8.1206e-05
-8.80453e-05
-7.34857e-05
-6.16467e-05
-5.13278e-05
-3.2116e-05
-1.43456e-05
-2.90085e-06
3.67157e-05
2.29334e-05
4.27198e-05
9.9773e-05
-1.59223e-05
-3.52915e-05
-4.55012e-05
-6.91358e-05
-7.80095e-05
-8.07596e-05
-0.000106756
-7.83542e-05
-0.000127542
-6.726e-05
-0.000137884
-5.13042e-05
-0.000136604
-3.33958e-05
-0.000123634
-1.58706e-05
-9.99911e-05
-7.09979e-07
1.04649e-05
-6.77362e-05
-1.73082e-05
-1.79833e-05
-5.08946e-05
-3.55493e-05
-8.97176e-05
-4.19366e-05
-0.000126818
-4.12533e-05
-0.000157873
-3.62056e-05
-0.000180433
-2.87443e-05
-0.000193478
-2.03507e-05
-0.00019715
-1.21989e-05
-0.000192602
-5.25719e-06
-2.91483e-07
-0.000181846
-1.79833e-05
-5.35325e-05
-9.54691e-05
-0.000136723
-0.000172928
-0.000201673
-0.000222024
-0.000234223
-0.000239481
-0.000239773
0.000179924
-0.000419677
-1.99617e-08
0.0013178
-0.00113785
-2.6938e-08
0.00248662
-0.00116886
4.20195e-08
0.003233
-0.00074646
7.86687e-08
0.00385494
-0.000621931
-1.26866e-08
0.00428573
-0.000430708
-7.66274e-08
0.00463146
-0.000345599
-1.28739e-07
0.00486613
-0.000234594
-8.3578e-08
0.00507896
-0.000212936
1.13868e-07
-0.000129963
1.09465e-07
0.000291662
-0.000893185
0.0014003
-0.00224649
0.00254277
-0.00231133
0.00327257
-0.00147626
0.00388295
-0.00123231
0.00430708
-0.000854834
0.00464866
-0.000687179
0.00488156
-0.000467493
0.0050936
-0.000424979
-0.000260862
0.000507974
-0.0014689
0.00155963
-0.00329814
0.00265087
-0.00340257
0.00334875
-0.00217415
0.00393691
-0.00182047
0.00434835
-0.00126627
0.00468209
-0.00102092
0.00491174
-0.000697149
0.00512246
-0.000635701
-0.00039399
0.000815002
-0.00218412
0.00178485
-0.00426799
0.00280283
-0.00442054
0.00345585
-0.00282717
0.00401285
-0.00237747
0.00440677
-0.00166018
0.00472983
-0.00134398
0.00495538
-0.000922699
0.0051647
-0.000845017
-0.000530787
0.00119315
-0.00305895
0.00206068
-0.00513552
0.00298736
-0.00534722
0.00358588
-0.00342569
0.00410518
-0.00289678
0.00447842
-0.00203342
0.00478919
-0.00165476
0.00501062
-0.00114413
0.00521909
-0.00105349
-0.000673067
0.00161834
-0.00408896
0.00236848
-0.00588566
0.00319078
-0.00616953
0.00372914
-0.00396405
0.0042071
-0.00337473
0.0045585
-0.00238481
0.00485682
-0.00195309
0.00507513
-0.00136243
0.00528409
-0.00126245
-0.000823088
0.00206259
-0.00523551
0.00268711
-0.00651019
0.0033979
-0.00688032
0.0038749
-0.00444105
0.00431105
-0.00381088
0.00464163
-0.0027154
0.00492893
-0.00224039
0.00514624
-0.00157973
0.00535791
-0.00147412
-0.00098361
0.00249592
-0.00641248
0.00299364
-0.0070079
0.00359278
-0.00747946
0.00401197
-0.00486024
0.00440915
-0.00420806
0.00472216
-0.0030284
0.00500149
-0.00251972
0.00522106
-0.0017993
0.00543854
-0.0016916
-0.00115791
0.00289993
-0.00747105
0.0032688
-0.00737677
0.00376126
-0.00797192
0.00412986
-0.00522885
0.0044939
-0.0045721
0.00479455
-0.00332905
0.00507046
-0.00279563
0.00529663
-0.00202548
0.00552388
-0.00191884
-0.00134974
0.00327883
-0.00818005
0.00351095
-0.00760889
0.00389228
-0.00835326
0.0042213
-0.00555787
0.00455855
-0.00490935
0.00485388
-0.00362438
0.00513183
-0.00307358
0.00537023
-0.00226388
0.00561142
-0.00216003
-0.0015637
0.0433784
-0.000928898
-0.0506296
0.0390817
-0.00331219
0.0369833
-0.00625484
0.0368171
-0.0053917
0.0366636
-0.00475579
0.0368468
-0.00380757
0.0370456
-0.00327244
0.0373142
-0.00253241
0.0375363
-0.00238221
-0.0018771
0.0523112
0.00330314
-0.0565432
0.050155
-0.00115605
0.0475473
-0.00364708
0.046021
-0.00386539
0.0448054
-0.0035402
0.0439882
-0.0029904
0.0433495
-0.00263378
0.0429413
-0.00212417
0.0425463
-0.00198721
-0.00169975
0.0538845
0.00451301
-0.0550944
0.0526249
0.000103589
0.0510021
-0.00202427
0.0497009
-0.00256424
0.0485952
-0.00243446
0.0477348
-0.00213002
0.0469882
-0.00188722
0.0464301
-0.00156607
0.0458731
-0.00143021
-0.00132212
0.052037
0.00436944
-0.0518935
0.0516514
0.000489187
0.0508166
-0.00118949
0.0499794
-0.00172699
0.0492309
-0.00168592
0.0486224
-0.00152158
0.0480726
-0.00133742
0.0476359
-0.00112937
0.0471909
-0.000985146
-0.00096659
0.0499962
0.00368997
-0.0493167
0.0498778
0.000607494
0.0494555
-0.000767135
0.0489512
-0.00122265
0.048477
-0.00121174
0.0480826
-0.00112723
0.0477303
-0.000985042
0.0474411
-0.000840166
0.0471538
-0.000697903
-0.000704944
0.0483043
0.00289185
-0.0475062
0.0483321
0.000579687
0.0480811
-0.00051616
0.0477454
-0.00088693
0.0474202
-0.000886526
0.0471413
-0.000848307
0.0469022
-0.00074598
0.0467027
-0.000640614
0.0465203
-0.000515509
-0.000521614
0.0471014
0.0021028
-0.0463124
0.0471928
0.000488269
0.0470182
-0.000341484
0.0467601
-0.000628865
0.0465055
-0.000631947
0.0462762
-0.000618967
0.0460829
-0.000552662
0.0459196
-0.000477347
0.0457837
-0.000379579
-0.000380051
0.0462896
0.0013636
-0.0455504
0.0464294
0.000348486
0.0462954
-0.000207507
0.0460715
-0.000404992
0.045848
-0.000408396
0.0456366
-0.000407627
0.0454541
-0.000370135
0.0452982
-0.000321443
0.0451739
-0.000255227
-0.000253002
0.0457943
0.000669414
-0.0451001
0.0459651
0.000177705
0.0458566
-9.90588e-05
0.0456484
-0.000196797
0.0454382
-0.000198201
0.045233
-0.000202419
0.045049
-0.000186132
0.0448905
-0.000162956
0.0447641
-0.000128774
-0.000127594
0.0455598
-0.0448904
0.0457375
0.0456384
0.0454416
0.0452434
0.045041
0.0448549
0.0446919
0.0445631
0.0567842
0.00229998
-0.0560669
0.0573442
0.00290937
0.0576985
0.00350033
0.0577971
0.00406387
0.0575931
0.00459079
0.0570466
0.00507234
0.0561258
0.00550087
0.0548011
0.00587031
0.0530162
0.00617583
0.00639216
0.0513874
0.0016923
-0.0507798
0.0520397
0.00225715
0.0527224
0.00281759
0.0534178
0.0033685
0.0541044
0.00390415
0.0547584
0.00441832
0.0553548
0.00490456
0.0558686
0.00535651
0.0562759
0.00576844
0.00612487
0.0480848
0.00121801
-0.0476105
0.04864
0.00170194
0.0492729
0.00218468
0.049978
0.00266335
0.0507474
0.00313481
0.0515701
0.00359558
0.0524329
0.00404181
0.05332
0.00446934
0.0542148
0.00487362
0.00524533
0.0454859
0.000891886
-0.0451598
0.0458921
0.00129573
0.046379
0.00169783
0.0469464
0.00209595
0.0475934
0.0024878
0.0483179
0.00287105
0.0491164
0.00324331
0.0499837
0.00360205
0.0509128
0.00394449
0.0042647
0.0439031
0.000652282
-0.0436634
0.0442167
0.000982067
0.0446046
0.00130997
0.0450664
0.00163414
0.0456015
0.00195269
0.0462088
0.00226376
0.0468866
0.00256548
0.0476327
0.00285597
0.0484441
0.00313313
0.00339207
0.0428086
0.000470094
-0.0426264
0.0430608
0.000729892
0.0433828
0.000987923
0.0437743
0.00124267
0.0442344
0.00149263
0.0447618
0.0017363
0.0453551
0.00197222
0.0460121
0.00219891
0.0467305
0.00241476
0.00261639
0.0421171
0.000325196
-0.0419722
0.0423289
0.000518084
0.0426072
0.000709561
0.0429514
0.000898475
0.0433604
0.00108368
0.0438327
0.00126405
0.0443664
0.00143846
0.0449595
0.0016058
0.0456094
0.00176489
0.00191341
0.0416659
0.0002044
-0.0415451
0.0418519
0.00033214
0.0421025
0.000458926
0.042417
0.000583984
0.0427941
0.000706546
0.0432323
0.000825852
0.0437296
0.000941154
0.0442837
0.00105171
0.0448919
0.00115674
0.00125488
0.0414019
9.83607e-05
-0.0412959
0.0415721
0.000162023
0.0418058
0.000225227
0.0421022
0.000287582
0.04246
0.000348703
0.0428776
0.000408207
0.0433531
0.000465715
0.0438839
0.000520857
0.0444674
0.000573239
0.000622218
0.0412766
-0.0411782
0.0414386
0.0416638
0.0419514
0.0423001
0.0427083
0.043174
0.0436949
0.0442681
0.0481176
-0.0033534
-0.0475678
0.0488273
-0.00289441
0.0496465
-0.00240523
0.0505358
-0.00188435
0.0514679
-0.00133312
0.052424
-0.000758989
0.0533862
-0.000166293
0.0543326
0.000441225
0.0552369
0.00105879
0.0016806
0.0479681
-0.00340721
-0.0479143
0.0480657
-0.00299202
0.0482063
-0.00254586
0.0483957
-0.00207366
0.0486394
-0.00157685
0.0489417
-0.00106128
0.049306
-0.000530603
0.0497344
1.28391e-05
0.0502266
0.000566528
0.00112748
0.0468956
-0.00314781
-0.047155
0.0466912
-0.0027876
0.0465474
-0.0024021
0.0464696
-0.00199586
0.0464638
-0.00157108
0.0465337
-0.00113109
0.0466814
-0.000678376
0.0469092
-0.000214934
0.0472186
0.000257141
0.000735589
0.0455765
-0.00277124
-0.0459531
0.0452578
-0.00246893
0.0450006
-0.00214488
0.0448084
-0.00180363
0.0446844
-0.00144709
0.0446309
-0.00107765
0.04465
-0.000697396
0.0447433
-0.000308262
0.0449127
8.77348e-05
0.000488502
0.0446583
-0.00234942
-0.0450801
0.0442903
-0.0021009
0.0439806
-0.0018352
0.0437324
-0.00155544
0.0435486
-0.00126323
0.0434313
-0.00096041
0.0433826
-0.000648709
0.0434042
-0.000329822
0.0434974
-5.49275e-06
0.000322486
0.0439884
-0.00190005
-0.0444378
0.043591
-0.00170351
0.0432495
-0.00149364
0.0429667
-0.00127271
0.0427455
-0.00104197
0.0425879
-0.000802809
0.0424958
-0.000556617
0.0424707
-0.000304785
0.042514
-4.87402e-05
0.000210052
0.043559
-0.00143571
-0.0440234
0.0431451
-0.00128956
0.0427851
-0.0011337
0.042482
-0.000969612
0.0422383
-0.000798223
0.042056
-0.000620545
0.041937
-0.000437611
0.0418827
-0.000250474
0.0418942
-6.02176e-05
0.000132051
0.0432806
-0.000961287
-0.0437551
0.0428557
-0.000864578
0.0424834
-0.000761474
0.0421667
-0.000652913
0.041908
-0.0005395
0.0417094
-0.000421895
0.0415725
-0.000300781
0.0414989
-0.000176862
0.0414896
-5.08616e-05
7.64789e-05
0.0431201
-0.000481445
-0.0436
0.042689
-0.000433415
0.0423097
-0.000382212
0.0419851
-0.000328278
0.0417175
-0.000271914
0.041509
-0.000213439
0.0413615
-0.000153193
0.0412761
-9.15244e-05
0.0412541
-2.87938e-05
3.46279e-05
0.0430464
-0.0435278
0.042613
0.0422307
0.0419025
0.0416306
0.0414171
0.0412639
0.0411724
0.0411436
0.0429487
0.000174227
-0.000193992
0.0429948
0.000520179
-0.000566252
0.043072
0.000871453
-0.00094871
0.0431978
0.00123564
-0.00136139
0.0434017
0.00161801
-0.00182199
0.0437272
0.00202276
-0.00234819
0.0442324
0.00245197
-0.00295721
0.0449887
0.00290806
-0.00366438
0.0460899
0.003367
-0.00446815
0.00391685
-0.00539473
0.0429654
0.000137712
0.043072
0.000413601
0.0432526
0.000690899
0.0435174
0.000970776
0.0438814
0.00125403
0.0443633
0.00154093
0.0449847
0.00183053
0.0457697
0.00212303
0.0467339
0.00240287
0.00273642
0.0429664
0.000100214
0.0430774
0.000302605
0.0432619
0.000506471
0.0435238
0.000708865
0.0438689
0.000908906
0.0443045
0.0011053
0.0448391
0.00129594
0.045483
0.00147912
0.0462411
0.00164482
0.00182248
0.0429586
7.05266e-05
0.0430475
0.000213733
0.0431957
0.000358266
0.043404
0.000500552
0.0436735
0.000639414
0.0440052
0.000773568
0.0443997
0.000901444
0.044857
0.00102185
0.045372
0.00112977
0.00124146
0.0429506
4.88886e-05
0.043016
0.000148319
0.0431256
0.000248657
0.0432791
0.000347011
0.0434762
0.000442343
0.0437162
0.000533613
0.0439979
0.00061968
0.0443202
0.000699611
0.0446793
0.000770611
0.000840646
0.0429445
3.33161e-05
0.0429917
0.000101087
0.0430709
0.000169444
0.0431816
0.000236338
0.043323
0.000301008
0.0434938
0.000362723
0.0436928
0.000420743
0.0439179
0.000474474
0.0441661
0.000522445
0.000568943
0.0429403
2.19304e-05
0.0429749
6.65311e-05
0.0430328
0.000111498
0.0431137
0.000155475
0.0432167
0.000197948
0.043341
0.000238433
0.0434853
0.000276454
0.0436482
0.000311621
0.0438275
0.000343104
0.000373078
0.0429376
1.32872e-05
0.0429638
4.02987e-05
0.0430078
6.75218e-05
0.0430691
9.4146e-05
0.0431472
0.000119863
0.0432412
0.000144384
0.0433503
0.000167434
0.0434731
0.000188788
0.0436082
0.000208011
0.000226214
0.042936
6.26675e-06
0.0429572
1.9002e-05
0.0429929