1.45 	0 	0 	-0.0074438 	-0.0026077 	3.85405e-21
2.35 	0 	0 	0.0630282 	-0.00668823 	2.38225e-21
