1.45 	0 	0 	-0.291641
2.35 	0 	0 	-0.126956
