/*--------------------------------*- C++ -*----------------------------------*\
  =========                 |
  \\      /  F ield         | OpenFOAM: The Open Source CFD Toolbox
   \\    /   O peration     | Website:  https://openfoam.org
    \\  /    A nd           | Version:  6.0
     \\/     M anipulation  |
\*---------------------------------------------------------------------------*/
FoamFile
{
    version     2.0;
    format      ascii;
    class       volVectorField;
    location    "0.7";
    object      U;
}
// * * * * * * * * * * * * * * * * * * * * * * * * * * * * * * * * * * * * * //

dimensions      [0 1 -1 0 0 0 0];

internalField   nonuniform List<vector> 
1600
(
(6.044e-05 -6.06118e-05 0)
(0.000155832 -5.71898e-05 0)
(0.000156877 -6.99173e-06 0)
(6.6176e-06 5.25963e-05 0)
(-0.000303369 0.000108215 0)
(-0.000756679 0.000155156 0)
(-0.00132883 0.000192053 0)
(-0.00199285 0.000218948 0)
(-0.0027215 0.000236413 0)
(-0.00348849 0.000245194 0)
(-0.00426908 0.000246083 0)
(-0.0050404 0.000239866 0)
(-0.00578157 0.000227306 0)
(-0.00647385 0.000209138 0)
(-0.00710058 0.000186073 0)
(-0.00764728 0.000158805 0)
(-0.00810161 0.000128015 0)
(-0.00845343 9.43844e-05 0)
(-0.00869481 5.86058e-05 0)
(-0.00882012 2.13888e-05 0)
(-0.00882606 -1.65301e-05 0)
(-0.00871178 -5.43821e-05 0)
(-0.00847896 -9.13629e-05 0)
(-0.00813191 -0.000126632 0)
(-0.00767764 -0.000159316 0)
(-0.00712593 -0.000188514 0)
(-0.00648936 -0.000213313 0)
(-0.00578327 -0.000232793 0)
(-0.0050257 -0.000246056 0)
(-0.00423726 -0.000252232 0)
(-0.00344088 -0.000250508 0)
(-0.00266149 -0.000240144 0)
(-0.00192563 -0.000220503 0)
(-0.0012608 -0.000191104 0)
(-0.000694569 -0.00015175 0)
(-0.000253193 -0.000102867 0)
(4.08215e-05 -4.63377e-05 0)
(0.000174334 1.25962e-05 0)
(0.000160354 6.01979e-05 0)
(6.02719e-05 6.00355e-05 0)
(5.86214e-05 -0.000157117 0)
(7.24827e-05 -6.9623e-05 0)
(-0.000178472 0.000182363 0)
(-0.000772812 0.000477156 0)
(-0.00172504 0.000761387 0)
(-0.00300859 0.00100991 0)
(-0.00457489 0.00121141 0)
(-0.00636451 0.00136199 0)
(-0.00831368 0.00146154 0)
(-0.0103581 0.00151197 0)
(-0.0124356 0.00151626 0)
(-0.0144871 0.00147795 0)
(-0.0164582 0.00140094 0)
(-0.0182993 0.00128927 0)
(-0.0199659 0.00114708 0)
(-0.0214194 0.00097857 0)
(-0.0226266 0.000788011 0)
(-0.0235605 0.000579732 0)
(-0.0241998 0.000358171 0)
(-0.0245296 0.000127892 0)
(-0.0245416 -0.000106386 0)
(-0.0242337 -0.000339774 0)
(-0.023611 -0.000567208 0)
(-0.0226854 -0.000783467 0)
(-0.0214762 -0.000983202 0)
(-0.0200098 -0.00116099 0)
(-0.0183198 -0.00131143 0)
(-0.016447 -0.00142921 0)
(-0.0144389 -0.00150927 0)
(-0.0123491 -0.00154697 0)
(-0.0102367 -0.0015382 0)
(-0.0081651 -0.0014797 0)
(-0.00620044 -0.00136929 0)
(-0.00440947 -0.00120641 0)
(-0.00285661 -0.000992982 0)
(-0.00159962 -0.000735048 0)
(-0.000682963 -0.000446172 0)
(-0.000126828 -0.000153527 0)
(9.20204e-05 8.84257e-05 0)
(6.17516e-05 0.000160752 0)
(1.13561e-05 -0.000162889 0)
(-0.000172053 0.000178291 0)
(-0.000804179 0.000813946 0)
(-0.0019314 0.00153659 0)
(-0.00355455 0.00223916 0)
(-0.00563764 0.00286218 0)
(-0.00811586 0.00337403 0)
(-0.0109077 0.00376033 0)
(-0.0139236 0.00401692 0)
(-0.0170716 0.00414575 0)
(-0.0202608 0.00415249 0)
(-0.0234044 0.00404515 0)
(-0.0264211 0.00383316 0)
(-0.0292364 0.00352684 0)
(-0.0317833 0.0031371 0)
(-0.0340032 0.00267525 0)
(-0.0358458 0.00215294 0)
(-0.0372699 0.00158213 0)
(-0.0382435 0.000975103 0)
(-0.0387442 0.000344531 0)
(-0.0387592 -0.000296509 0)
(-0.0382862 -0.000934518 0)
(-0.037333 -0.00155558 0)
(-0.0359182 -0.00214544 0)
(-0.0340713 -0.00268958 0)
(-0.0318324 -0.00317344 0)
(-0.0292526 -0.0035826 0)
(-0.0263933 -0.00390312 0)
(-0.0233256 -0.00412193 0)
(-0.0201296 -0.00422726 0)
(-0.0168926 -0.00420923 0)
(-0.0137076 -0.00406057 0)
(-0.0106704 -0.0037776 0)
(-0.00787655 -0.00336157 0)
(-0.00541649 -0.00282095 0)
(-0.00336976 -0.00217506 0)
(-0.00179601 -0.00146057 0)
(-0.000723191 -0.000741259 0)
(-0.000138949 -0.000126366 0)
(1.76087e-05 0.000180097 0)
(-4.5594e-05 -2.20629e-05 0)
(-0.00046466 0.000767993 0)
(-0.00153574 0.0019417 0)
(-0.00324254 0.0032273 0)
(-0.00555583 0.0044691 0)
(-0.00842458 0.00557219 0)
(-0.0117678 0.00648156 0)
(-0.0154855 0.00716908 0)
(-0.019468 0.00762412 0)
(-0.0236017 0.00784738 0)
(-0.0277738 0.00784699 0)
(-0.0318755 0.00763598 0)
(-0.0358042 0.0072306 0)
(-0.0394657 0.00664927 0)
(-0.0427747 0.00591187 0)
(-0.0456564 0.00503931 0)
(-0.0480466 0.00405337 0)
(-0.0498926 0.0029765 0)
(-0.0511537 0.00183191 0)
(-0.0518011 0.000643527 0)
(-0.0518189 -0.000563982 0)
(-0.0512042 -0.00176518 0)
(-0.0499673 -0.00293395 0)
(-0.0481322 -0.0040436 0)
(-0.0457367 -0.00506711 0)
(-0.0428323 -0.00597748 0)
(-0.039484 -0.00674819 0)
(-0.0357697 -0.00735379 0)
(-0.0317795 -0.00777066 0)
(-0.0276144 -0.0079779 0)
(-0.023384 -0.0079585 0)
(-0.0192043 -0.00770067 0)
(-0.0151945 -0.00719969 0)
(-0.0114724 -0.00646036 0)
(-0.00814929 -0.00550055 0)
(-0.00532317 -0.00435677 0)
(-0.00306949 -0.00309256 0)
(-0.00143014 -0.00181015 0)
(-0.000420281 -0.00066954 0)
(-3.68461e-05 5.98333e-05 0)
(-0.000100771 0.000278623 0)
(-0.000761652 0.0017294 0)
(-0.00229039 0.0035927 0)
(-0.00459473 0.00555728 0)
(-0.00760493 0.00743036 0)
(-0.0112489 0.0090868 0)
(-0.0154269 0.0104496 0)
(-0.0200208 0.0114768 0)
(-0.0249029 0.0121504 0)
(-0.0299419 0.0124693 0)
(-0.0350068 0.0124439 0)
(-0.0399713 0.0120927 0)
(-0.0447158 0.0114395 0)
(-0.04913 0.0105121 0)
(-0.0531142 0.00934087 0)
(-0.0565804 0.0079583 0)
(-0.0594534 0.00639824 0)
(-0.0616713 0.00469592 0)
(-0.0631859 0.00288776 0)
(-0.0639637 0.00101138 0)
(-0.063986 -0.000894449 0)
(-0.0632494 -0.00278982 0)
(-0.0617661 -0.00463382 0)
(-0.0595644 -0.00638476 0)
(-0.0566886 -0.00800058 0)
(-0.0531991 -0.00943939 0)
(-0.049172 -0.0106602 0)
(-0.0446985 -0.011624 0)
(-0.0398839 -0.0122947 0)
(-0.0348456 -0.0126409 0)
(-0.0297114 -0.0126374 0)
(-0.0246161 -0.0122676 0)
(-0.019698 -0.0115259 0)
(-0.0150939 -0.0104214 0)
(-0.010934 -0.00898249 0)
(-0.00733502 -0.00726351 0)
(-0.004391 -0.00535408 0)
(-0.00216411 -0.0033906 0)
(-0.000707638 -0.00157355 0)
(-8.98789e-05 -0.000214718 0)
(-0.000151118 0.000732792 0)
(-0.00104655 0.00306327 0)
(-0.00303046 0.00577425 0)
(-0.00593219 0.00853386 0)
(-0.00963629 0.0111239 0)
(-0.0140448 0.013396 0)
(-0.0190364 0.0152551 0)
(-0.0244733 0.0166469 0)
(-0.0302107 0.017547 0)
(-0.0361005 0.0179531 0)
(-0.0419965 0.0178781 0)
(-0.0477573 0.0173465 0)
(-0.0532495 0.0163907 0)
(-0.0583498 0.0150489 0)
(-0.0629468 0.0133634 0)
(-0.0669421 0.0113795 0)
(-0.0702515 0.009145 0)
(-0.0728056 0.0067096 0)
(-0.0745506 0.00412483 0)
(-0.0754488 0.00144393 0)
(-0.0754792 -0.00127822 0)
(-0.0746378 -0.00398521 0)
(-0.0729381 -0.00661928 0)
(-0.0704116 -0.00912166 0)
(-0.0671075 -0.0114332 0)
(-0.063093 -0.0134951 0)
(-0.0584529 -0.01525 0)
(-0.053289 -0.0166434 0)
(-0.0477184 -0.0176252 0)
(-0.0418725 -0.0181522 0)
(-0.035894 -0.0181899 0)
(-0.0299338 -0.017716 0)
(-0.0241471 -0.0167237 0)
(-0.0186889 -0.015226 0)
(-0.013708 -0.0132612 0)
(-0.00934139 -0.0109003 0)
(-0.00570539 -0.00825585 0)
(-0.00288742 -0.00549249 0)
(-0.000984236 -0.00284087 0)
(-0.000138259 -0.000637881 0)
(-0.000196531 0.00133011 0)
(-0.00131498 0.00475818 0)
(-0.00374212 0.00847867 0)
(-0.00723169 0.0121514 0)
(-0.011621 0.0155426 0)
(-0.0167831 0.0184876 0)
(-0.0225722 0.0208783 0)
(-0.0288297 0.0226512 0)
(-0.0353926 0.0237777 0)
(-0.042097 0.0242552 0)
(-0.0487822 0.0241007 0)
(-0.0552938 0.0233456 0)
(-0.0614865 0.0220319 0)
(-0.0672264 0.0202092 0)
(-0.0723924 0.0179331 0)
(-0.0768778 0.0152629 0)
(-0.0805913 0.0122617 0)
(-0.0834575 0.00899505 0)
(-0.085418 0.00553109 0)
(-0.0864318 0.00194016 0)
(-0.0864757 -0.00170525 0)
(-0.085545 -0.00533062 0)
(-0.0836538 -0.00885975 0)
(-0.0808356 -0.0122152 0)
(-0.0771431 -0.015319 0)
(-0.0726487 -0.0180938 0)
(-0.0674438 -0.0204641 0)
(-0.0616382 -0.0223584 0)
(-0.0553591 -0.0237112 0)
(-0.0487492 -0.0244655 0)
(-0.0419644 -0.0245764 0)
(-0.0351702 -0.0240147 0)
(-0.0285381 -0.022771 0)
(-0.0222409 -0.0208608 0)
(-0.0164473 -0.0183307 0)
(-0.0113171 -0.0152656 0)
(-0.00699165 -0.0117969 0)
(-0.00358719 -0.0081116 0)
(-0.00124591 -0.0044622 0)
(-0.000181864 -0.00119996 0)
(-0.000237938 0.00206087 0)
(-0.00156815 0.00679956 0)
(-0.00442428 0.0116925 0)
(-0.00848903 0.0163984 0)
(-0.0135527 0.0206752 0)
(-0.0194578 0.0243487 0)
(-0.0260322 0.0273024 0)
(-0.0330945 0.029468 0)
(-0.0404629 0.0308152 0)
(-0.0479575 0.0313436 0)
(-0.0554037 0.0310758 0)
(-0.062635 0.0300517 0)
(-0.0694957 0.0283241 0)
(-0.0758429 0.0259555 0)
(-0.0815475 0.0230155 0)
(-0.0864962 0.019579 0)
(-0.0905919 0.0157252 0)
(-0.0937547 0.0115368 0)
(-0.0959223 0.00709951 0)
(-0.0970509 0.00250185 0)
(-0.0971153 -0.00216493 0)
(-0.0961099 -0.00680709 0)
(-0.0940487 -0.0113288 0)
(-0.0909662 -0.0156326 0)
(-0.0869173 -0.0196205 0)
(-0.0819778 -0.023195 0)
(-0.0762439 -0.0262612 0)
(-0.0698318 -0.0287289 0)
(-0.0628769 -0.0305151 0)
(-0.0555318 -0.031548 0)
(-0.047964 -0.0317701 0)
(-0.0403533 -0.0311434 0)
(-0.0328873 -0.0296539 0)
(-0.0257574 -0.0273176 0)
(-0.019154 -0.0241864 0)
(-0.0132614 -0.0203558 0)
(-0.00824907 -0.0159721 0)
(-0.00426417 -0.0112393 0)
(-0.00149449 -0.00642582 0)
(-0.000221705 -0.00189207 0)
(-0.000276475 0.00291727 0)
(-0.0018094 0.00917404 0)
(-0.00508188 0.0154022 0)
(-0.00970987 0.021263 0)
(-0.0154378 0.0265112 0)
(-0.0220768 0.0309686 0)
(-0.0294269 0.0345156 0)
(-0.037283 0.0370826 0)
(-0.0454432 0.0386414 0)
(-0.0537112 0.0391968 0)
(-0.0618988 0.038779 0)
(-0.0698281 0.0374385 0)
(-0.077334 0.0352405 0)
(-0.0842655 0.0322617 0)
(-0.0904873 0.0285871 0)
(-0.0958806 0.0243079 0)
(-0.100344 0.0195207 0)
(-0.103794 0.014326 0)
(-0.106165 0.00882768 0)
(-0.10741 0.00313343 0)
(-0.107504 -0.0026461 0)
(-0.106438 -0.0083972 0)
(-0.104227 -0.0140035 0)
(-0.100904 -0.0193468 0)
(-0.0965261 -0.0243077 0)
(-0.09117 -0.0287677 0)
(-0.0849356 -0.0326107 0)
(-0.0779439 -0.0357262 0)
(-0.0703368 -0.0380122 0)
(-0.0622755 -0.0393794 0)
(-0.0539388 -0.039756 0)
(-0.04552 -0.0390925 0)
(-0.0372237 -0.0373677 0)
(-0.0292608 -0.0345949 0)
(-0.021845 -0.0308283 0)
(-0.0151876 -0.0261703 0)
(-0.00948788 -0.020778 0)
(-0.00492577 -0.0148683 0)
(-0.00173424 -0.00872228 0)
(-0.00025908 -0.00270768 0)
(-0.000313198 0.0038938 0)
(-0.00204261 0.0118713 0)
(-0.00572219 0.0195968 0)
(-0.0109044 0.026735 0)
(-0.0172889 0.0330419 0)
(-0.0246549 0.0383394 0)
(-0.0327737 0.042509 0)
(-0.0414154 0.0454847 0)
(-0.0503574 0.047244 0)
(-0.0593867 0.0477998 0)
(-0.0683011 0.0471933 0)
(-0.0769119 0.0454875 0)
(-0.0850454 0.0427621 0)
(-0.0925438 0.0391094 0)
(-0.0992665 0.0346311 0)
(-0.105091 0.0294361 0)
(-0.109911 0.0236387 0)
(-0.113642 0.0173578 0)
(-0.116215 0.0107165 0)
(-0.117582 0.00384144 0)
(-0.117715 -0.00313671 0)
(-0.116605 -0.0100839 0)
(-0.114263 -0.0168628 0)
(-0.110723 -0.0233335 0)
(-0.106041 -0.0293549 0)
(-0.100294 -0.0347858 0)
(-0.0935844 -0.0394879 0)
(-0.0860356 -0.0433284 0)
(-0.077795 -0.0461844 0)
(-0.0690316 -0.0479468 0)
(-0.0599347 -0.0485265 0)
(-0.0507112 -0.0478594 0)
(-0.0415827 -0.0459139 0)
(-0.0327814 -0.042697 0)
(-0.0245458 -0.0382615 0)
(-0.0171161 -0.0327129 0)
(-0.0107237 -0.0262155 0)
(-0.0055823 -0.0189962 0)
(-0.00197023 -0.0113466 0)
(-0.000295249 -0.00364307 0)
(-0.000349009 0.00498717 0)
(-0.00227157 0.0148847 0)
(-0.00635308 0.0242688 0)
(-0.0120844 0.032808 0)
(-0.0191209 0.0402614 0)
(-0.0272095 0.0464552 0)
(-0.0360922 0.0512765 0)
(-0.0455134 0.0546667 0)
(-0.0552291 0.0566132 0)
(-0.0650089 0.0571409 0)
(-0.0746373 0.0563048 0)
(-0.0839151 0.0541834 0)
(-0.0926605 0.0508729 0)
(-0.10071 0.0464833 0)
(-0.107919 0.0411342 0)
(-0.114162 0.0349529 0)
(-0.119331 0.0280723 0)
(-0.123338 0.0206302 0)
(-0.126114 0.0127687 0)
(-0.127609 0.004634 0)
(-0.127792 -0.00362353 0)
(-0.126653 -0.0118494 0)
(-0.124202 -0.019885 0)
(-0.120469 -0.0275688 0)
(-0.115509 -0.0347368 0)
(-0.109398 -0.0412245 0)
(-0.102237 -0.0468698 0)
(-0.0941539 -0.0515161 0)
(-0.085298 -0.0550168 0)
(-0.0758453 -0.0572406 0)
(-0.0659948 -0.0580773 0)
(-0.0559672 -0.0574453 0)
(-0.0460018 -0.0552982 0)
(-0.0363529 -0.0516326 0)
(-0.0272854 -0.0464958 0)
(-0.0190708 -0.0399925 0)
(-0.0119742 -0.0322911 0)
(-0.00624503 -0.0236261 0)
(-0.00220756 -0.0142991 0)
(-0.000331356 -0.00469742 0)
(-0.000384659 0.00619607 0)
(-0.00249969 0.0182117 0)
(-0.00698211 0.0294153 0)
(-0.0132615 0.0394789 0)
(-0.0209489 0.0481669 0)
(-0.0297584 0.0553127 0)
(-0.0394018 0.0608132 0)
(-0.0495969 0.0646218 0)
(-0.0600781 0.06674 0)
(-0.0705975 0.0672085 0)
(-0.0809261 0.0660999 0)
(-0.0908549 0.0635111 0)
(-0.100195 0.0595575 0)
(-0.108779 0.0543685 0)
(-0.116458 0.0480831 0)
(-0.123106 0.0408479 0)
(-0.128614 0.0328152 0)
(-0.132893 0.0241415 0)
(-0.135872 0.0149881 0)
(-0.137502 0.00552032 0)
(-0.137748 -0.00409205 0)
(-0.136598 -0.0136743 0)
(-0.13406 -0.0230471 0)
(-0.13016 -0.0320268 0)
(-0.124951 -0.0404263 0)
(-0.118505 -0.0480571 0)
(-0.110923 -0.0547319 0)
(-0.10233 -0.0602683 0)
(-0.0928794 -0.0644936 0)
(-0.0827522 -0.0672508 0)
(-0.0721562 -0.0684054 0)
(-0.0613253 -0.0678533 0)
(-0.050517 -0.065529 0)
(-0.0400087 -0.0614142 0)
(-0.0300936 -0.055546 0)
(-0.021076 -0.0480243 0)
(-0.0132576 -0.0390182 0)
(-0.00692522 -0.0287681 0)
(-0.00245112 -0.0175858 0)
(-0.000368418 -0.00587258 0)
(-0.000420775 0.00752091 0)
(-0.00273004 0.0218529 0)
(-0.00761625 0.0350373 0)
(-0.0144467 0.0467486 0)
(-0.0227872 0.0567583 0)
(-0.032318 0.0649104 0)
(-0.0427196 0.0711153 0)
(-0.0536827 0.0753432 0)
(-0.0649194 0.0776141 0)
(-0.0761644 0.0779893 0)
(-0.0871759 0.0765625 0)
(-0.0977356 0.0734528 0)
(-0.107649 0.0687973 0)
(-0.116745 0.0627469 0)
(-0.124875 0.0554618 0)
(-0.131911 0.0471086 0)
(-0.137744 0.0378591 0)
(-0.142287 0.0278891 0)
(-0.14547 0.0173781 0)
(-0.147239 0.00651004 0)
(-0.147562 -0.0045264 0)
(-0.146421 -0.0155373 0)
(-0.143822 -0.0263228 0)
(-0.139786 -0.0366779 0)
(-0.134361 -0.0463922 0)
(-0.127616 -0.0552525 0)
(-0.119646 -0.0630451 0)
(-0.110576 -0.0695598 0)
(-0.100558 -0.074595 0)
(-0.0897764 -0.0779644 0)
(-0.0784472 -0.079505 0)
(-0.0668168 -0.0790854 0)
(-0.0551607 -0.0766157 0)
(-0.0437803 -0.072057 0)
(-0.0329987 -0.0654312 0)
(-0.0231557 -0.0568289 0)
(-0.0145915 -0.0464166 0)
(-0.0076337 -0.0344388 0)
(-0.00270552 -0.021218 0)
(-0.000407348 -0.00717295 0)
(-0.000457891 0.00896362 0)
(-0.0029653 0.0258125 0)
(-0.0082618 0.0411396 0)
(-0.0156501 0.0546215 0)
(-0.0246488 0.0660382 0)
(-0.0349026 0.0752476 0)
(-0.0460597 0.0821783 0)
(-0.0577829 0.0868218 0)
(-0.0697615 0.089222 0)
(-0.0817131 0.0894653 0)
(-0.0933837 0.0876713 0)
(-0.104547 0.0839847 0)
(-0.115005 0.0785676 0)
(-0.124585 0.0715948 0)
(-0.133137 0.0632487 0)
(-0.140537 0.0537173 0)
(-0.146678 0.043192 0)
(-0.151473 0.0318672 0)
(-0.154854 0.0199402 0)
(-0.156768 0.00761263 0)
(-0.15718 -0.00490949 0)
(-0.156071 -0.017414 0)
(-0.15344 -0.0296819 0)
(-0.149305 -0.041487 0)
(-0.143705 -0.0525966 0)
(-0.136704 -0.0627721 0)
(-0.12839 -0.0717723 0)
(-0.118884 -0.0793573 0)
(-0.108334 -0.0852936 0)
(-0.0969275 -0.089362 0)
(-0.084885 -0.0913658 0)
(-0.0724645 -0.0911407 0)
(-0.0599593 -0.0885664 0)
(-0.0476953 -0.0835773 0)
(-0.0360271 -0.0761738 0)
(-0.025332 -0.0664322 0)
(-0.0159927 -0.0545125 0)
(-0.00838077 -0.0406613 0)
(-0.00297507 -0.0252124 0)
(-0.000448985 -0.00860527 0)
(-0.000496481 0.0105275 0)
(-0.00320793 0.0300976 0)
(-0.00892454 0.0477306 0)
(-0.0168807 0.0631048 0)
(-0.0265449 0.0760109 0)
(-0.0375242 0.0863241 0)
(-0.0494329 0.0939961 0)
(-0.0619045 0.0990451 0)
(-0.0746056 0.101545 0)
(-0.0872373 0.101612 0)
(-0.0995342 0.0993968 0)
(-0.111264 0.0950743 0)
(-0.122227 0.0888349 0)
(-0.132249 0.0808792 0)
(-0.141187 0.0714141 0)
(-0.148917 0.0606491 0)
(-0.155338 0.0487955 0)
(-0.160367 0.0360655 0)
(-0.163938 0.0226734 0)
(-0.165998 0.00883645 0)
(-0.166512 -0.00522325 0)
(-0.165458 -0.0192772 0)
(-0.16283 -0.0330887 0)
(-0.158638 -0.0464123 0)
(-0.152913 -0.0589929 0)
(-0.14571 -0.0705671 0)
(-0.137109 -0.0808655 0)
(-0.12722 -0.0896163 0)
(-0.116188 -0.0965514 0)
(-0.104198 -0.101414 0)
(-0.0914734 -0.103969 0)
(-0.0782814 -0.104012 0)
(-0.0649322 -0.101386 0)
(-0.0517765 -0.0959906 0)
(-0.0392017 -0.0877982 0)
(-0.0276256 -0.0768642 0)
(-0.017477 -0.0633376 0)
(-0.00917618 -0.0474648 0)
(-0.00326387 -0.0295904 0)
(-0.000494123 -0.0101784 0)
(-0.000537 0.0122169 0)
(-0.0034603 0.0347179 0)
(-0.00961 0.0548218 0)
(-0.0181472 0.0722086 0)
(-0.0284859 0.0866818 0)
(-0.0401929 0.0981386 0)
(-0.0528462 0.106559 0)
(-0.066049 0.111995 0)
(-0.0794452 0.114555 0)
(-0.0927197 0.114394 0)
(-0.105598 0.111698 0)
(-0.117843 0.106677 0)
(-0.129256 0.0995528 0)
(-0.139668 0.0905551 0)
(-0.148939 0.0799163 0)
(-0.156953 0.0678685 0)
(-0.163616 0.0546422 0)
(-0.168851 0.0404669 0)
(-0.172596 0.0255716 0)
(-0.174801 0.0101878 0)
(-0.175429 -0.00544902 0)
(-0.174456 -0.0210963 0)
(-0.171868 -0.0365021 0)
(-0.16767 -0.0514031 0)
(-0.161881 -0.0655239 0)
(-0.154543 -0.0785765 0)
(-0.145725 -0.0902628 0)
(-0.135524 -0.100278 0)
(-0.124077 -0.108316 0)
(-0.111561 -0.114078 0)
(-0.0981997 -0.117283 0)
(-0.0842677 -0.117683 0)
(-0.0700897 -0.115072 0)
(-0.0560405 -0.109309 0)
(-0.0425418 -0.100329 0)
(-0.0300549 -0.0881581 0)
(-0.0190591 -0.0729289 0)
(-0.0100293 -0.054884 0)
(-0.00357593 -0.0343784 0)
(-0.000543544 -0.0119035 0)
(-0.000579921 0.0140377 0)
(-0.00372487 0.039686 0)
(-0.0103239 0.062428 0)
(-0.019458 0.081945 0)
(-0.0304816 0.0980569 0)
(-0.0429171 0.110688 0)
(-0.0563035 0.119853 0)
(-0.0702126 0.125644 0)
(-0.0842652 0.128215 0)
(-0.0981316 0.127764 0)
(-0.11153 0.12452 0)
(-0.124223 0.118733 0)
(-0.136014 0.110659 0)
(-0.146742 0.100562 0)
(-0.156277 0.0886992 0)
(-0.164514 0.0753268 0)
(-0.171368 0.0606938 0)
(-0.176769 0.0450451 0)
(-0.180663 0.0286229 0)
(-0.183004 0.0116697 0)
(-0.183756 -0.00556824 0)
(-0.18289 -0.0228375 0)
(-0.180388 -0.0398739 0)
(-0.176243 -0.0563992 0)
(-0.170461 -0.0721193 0)
(-0.163071 -0.0867235 0)
(-0.154124 -0.099885 0)
(-0.143702 -0.111264 0)
(-0.131926 -0.120515 0)
(-0.118963 -0.127292 0)
(-0.105032 -0.131262 0)
(-0.0904094 -0.132123 0)
(-0.0754316 -0.129614 0)
(-0.0604972 -0.12354 0)
(-0.0460628 -0.113789 0)
(-0.0326363 -0.100348 0)
(-0.0207529 -0.0833272 0)
(-0.0109494 -0.0629588 0)
(-0.00391528 -0.0396072 0)
(-0.000598055 -0.0137936 0)
(-0.000625784 0.0159969 0)
(-0.00400439 0.0450174 0)
(-0.0110725 0.0705666 0)
(-0.0208223 0.0923281 0)
(-0.0325419 0.110141 0)
(-0.0457041 0.123964 0)
(-0.0598058 0.133855 0)
(-0.0743856 0.139956 0)
(-0.0890418 0.142474 0)
(-0.103432 0.141658 0)
(-0.117269 0.137789 0)
(-0.130319 0.131161 0)
(-0.142394 0.122072 0)
(-0.153345 0.110818 0)
(-0.163054 0.097688 0)
(-0.171432 0.0829586 0)
(-0.178407 0.0668973 0)
(-0.183921 0.0497626 0)
(-0.187929 0.0318068 0)
(-0.190391 0.0132805 0)
(-0.191272 -0.00556331 0)
(-0.190541 -0.0244641 0)
(-0.188172 -0.0431492 0)
(-0.184148 -0.0613292 0)
(-0.178461 -0.0786946 0)
(-0.171119 -0.0949137 0)
(-0.162152 -0.109632 0)
(-0.151623 -0.122476 0)
(-0.139631 -0.133054 0)
(-0.126327 -0.140972 0)
(-0.111917 -0.145838 0)
(-0.0966746 -0.147285 0)
(-0.0809455 -0.144986 0)
(-0.0651485 -0.13868 0)
(-0.0497755 -0.128195 0)
(-0.0353844 -0.11347 0)
(-0.0225721 -0.0945766 0)
(-0.0119459 -0.071734 0)
(-0.00428616 -0.0453121 0)
(-0.000658529 -0.0158638 0)
(-0.000675258 0.018103 0)
(-0.00430225 0.0507307 0)
(-0.0118633 0.0792589 0)
(-0.022251 0.103374 0)
(-0.0346779 0.122939 0)
(-0.0485612 0.137956 0)
(-0.0633515 0.148535 0)
(-0.0785529 0.15488 0)
(-0.0937414 0.157261 0)
(-0.108564 0.155991 0)
(-0.122734 0.151407 0)
(-0.136026 0.143857 0)
(-0.148263 0.133684 0)
(-0.159315 0.121221 0)
(-0.169084 0.106786 0)
(-0.177498 0.0906786 0)
(-0.184504 0.0731827 0)
(-0.190061 0.0545677 0)
(-0.194134 0.0350927 0)
(-0.196692 0.0150121 0)
(-0.197702 -0.00541862 0)
(-0.197133 -0.0259367 0)
(-0.194952 -0.0462659 0)
(-0.191127 -0.0661101 0)
(-0.185634 -0.0851485 0)
(-0.178459 -0.103032 0)
(-0.169607 -0.119381 0)
(-0.159112 -0.133785 0)
(-0.147048 -0.145811 0)
(-0.133538 -0.155006 0)
(-0.118771 -0.160915 0)
(-0.103011 -0.163096 0)
(-0.0866042 -0.161142 0)
(-0.0699869 -0.154713 0)
(-0.0536858 -0.143559 0)
(-0.0383116 -0.127554 0)
(-0.02453 -0.106723 0)
(-0.0130285 -0.0812589 0)
(-0.0046932 -0.051533 0)
(-0.000725951 -0.0181319 0)
(-0.000729217 0.0203666 0)
(-0.00462278 0.056849 0)
(-0.012706 0.08853 0)
(-0.0237576 0.115099 0)
(-0.0369031 0.136452 0)
(-0.0514963 0.152642 0)
(-0.0669369 0.163847 0)
(-0.0826927 0.170346 0)
(-0.0983192 0.172485 0)
(-0.113457 0.170651 0)
(-0.127824 0.16525 0)
(-0.141208 0.156689 0)
(-0.153455 0.14536 0)
(-0.164456 0.131638 0)
(-0.17414 0.11587 0)
(-0.182459 0.098378 0)
(-0.189384 0.0794598 0)
(-0.194892 0.0593922 0)
(-0.198966 0.0384372 0)
(-0.201583 0.0168483 0)
(-0.202717 -0.00512198 0)
(-0.202335 -0.0272144 0)
(-0.200398 -0.0491549 0)
(-0.19686 -0.0706464 0)
(-0.191677 -0.0913623 0)
(-0.184809 -0.11094 0)
(-0.176232 -0.128979 0)
(-0.165945 -0.145035 0)
(-0.153985 -0.158628 0)
(-0.140445 -0.169248 0)
(-0.125483 -0.176366 0)
(-0.109342 -0.179453 0)
(-0.092363 -0.178012 0)
(-0.0749941 -0.171601 0)
(-0.0577942 -0.159877 0)
(-0.0414291 -0.142628 0)
(-0.0266403 -0.119814 0)
(-0.0142081 -0.0915871 0)
(-0.00514167 -0.0583151 0)
(-0.000801489 -0.0206179 0)
(-0.000788853 0.0228009 0)
(-0.0049718 0.0634004 0)
(-0.0136132 0.0984101 0)
(-0.0253594 0.127524 0)
(-0.0392345 0.150679 0)
(-0.054519 0.167994 0)
(-0.0705561 0.179732 0)
(-0.0867765 0.186262 0)
(-0.102717 0.188025 0)
(-0.118018 0.185495 0)
(-0.13241 0.179158 0)
(-0.145701 0.169487 0)
(-0.157766 0.15693 0)
(-0.168528 0.141904 0)
(-0.177949 0.124787 0)
(-0.186012 0.105921 0)
(-0.192715 0.0856148 0)
(-0.198062 0.0641486 0)
(-0.202052 0.0417824 0)
(-0.204679 0.0187631 0)
(-0.205923 -0.00466609 0)
(-0.205751 -0.0282557 0)
(-0.204117 -0.0517408 0)
(-0.200962 -0.0748303 0)
(-0.19622 -0.0971985 0)
(-0.189823 -0.118476 0)
(-0.181709 -0.138245 0)
(-0.171837 -0.156031 0)
(-0.160202 -0.17131 0)
(-0.146849 -0.183509 0)
(-0.131898 -0.192019 0)
(-0.115559 -0.196217 0)
(-0.0981552 -0.195492 0)
(-0.0801382 -0.189285 0)
(-0.0620943 -0.177131 0)
(-0.0447458 -0.158711 0)
(-0.0289179 -0.133894 0)
(-0.0154974 -0.102776 0)
(-0.00563794 -0.0657089 0)
(-0.000886579 -0.023345 0)
(-0.000855818 0.0254224 0)
(-0.00535724 0.0704204 0)
(-0.0146019 0.108936 0)
(-0.0270797 0.140671 0)
(-0.0416941 0.165614 0)
(-0.0576407 0.183969 0)
(-0.0742004 0.196105 0)
(-0.090766 0.202507 0)
(-0.106861 0.203726 0)
(-0.122132 0.200342 0)
(-0.136331 0.192931 0)
(-0.149299 0.182043 0)
(-0.160947 0.168186 0)
(-0.171242 0.151819 0)
(-0.180184 0.133351 0)
(-0.187796 0.113143 0)
(-0.194109 0.0915085 0)
(-0.199157 0.0687283 0)
(-0.202961 0.0450535 0)
(-0.205532 0.0207182 0)
(-0.206861 -0.0040503 0)
(-0.206917 -0.0290202 0)
(-0.205647 -0.0539431 0)
(-0.202979 -0.0785424 0)
(-0.198824 -0.102501 0)
(-0.193081 -0.125451 0)
(-0.185649 -0.146963 0)
(-0.176439 -0.166541 0)
(-0.165392 -0.183616 0)
(-0.152496 -0.197552 0)
(-0.137816 -0.207657 0)
(-0.121516 -0.213197 0)
(-0.103888 -0.213434 0)
(-0.0853705 -0.207666 0)
(-0.0665719 -0.195278 0)
(-0.0482694 -0.175809 0)
(-0.0313793 -0.149007 0)
(-0.0169113 -0.114889 0)
(-0.0061899 -0.0737717 0)
(-0.000983062 -0.0263401 0)
(-0.000932441 0.0282526 0)
(-0.00579006 0.0779542 0)
(-0.0156954 0.120154 0)
(-0.0289492 0.154563 0)
(-0.0443106 0.181242 0)
(-0.0608754 0.200506 0)
(-0.0778563 0.212857 0)
(-0.09461 0.218922 0)
(-0.110654 0.219389 0)
(-0.125651 0.214962 0)
(-0.139387 0.206322 0)
(-0.151749 0.194101 0)
(-0.162699 0.178872 0)
(-0.172253 0.161139 0)
(-0.18046 0.141339 0)
(-0.18739 0.119844 0)
(-0.193115 0.0969738 0)
(-0.197699 0.0729991 0)
(-0.201194 0.0481572 0)
(-0.203628 0.0226622 0)
(-0.205005 -0.00328236 0)
(-0.205299 -0.0294701 0)
(-0.204453 -0.055678 0)
(-0.202381 -0.0816528 0)
(-0.19897 -0.107096 0)
(-0.194087 -0.13165 0)
(-0.187586 -0.154885 0)
(-0.179324 -0.176287 0)
(-0.169176 -0.195252 0)
(-0.157064 -0.211084 0)
(-0.14298 -0.222999 0)
(-0.127023 -0.230146 0)
(-0.109432 -0.231639 0)
(-0.0906206 -0.226604 0)
(-0.0712021 -0.214242 0)
(-0.0520053 -0.193909 0)
(-0.0340439 -0.165193 0)
(-0.0184687 -0.127992 0)
(-0.00680778 -0.0825688 0)
(-0.00109337 -0.0296349 0)
(-0.00102203 0.0313197 0)
(-0.00628549 0.0860599 0)
(-0.016925 0.132121 0)
(-0.031009 0.16923 0)
(-0.0471202 0.197542 0)
(-0.0642381 0.217521 0)
(-0.0815021 0.22984 0)
(-0.0982372 0.235303 0)
(-0.113966 0.234764 0)
(-0.128383 0.229072 0)
(-0.141326 0.219026 0)
(-0.152741 0.205351 0)
(-0.162655 0.188686 0)
(-0.171145 0.169577 0)
(-0.178321 0.148486 0)
(-0.184303 0.125794 0)
(-0.189209 0.101815 0)
(-0.193141 0.0768056 0)
(-0.196181 0.0509814 0)
(-0.198381 0.0245288 0)
(-0.199757 -0.00238006 0)
(-0.200291 -0.0295728 0)
(-0.199924 -0.056861 0)
(-0.198559 -0.0840243 0)
(-0.19606 -0.110794 0)
(-0.192259 -0.136833 0)
(-0.186965 -0.161725 0)
(-0.179975 -0.184948 0)
(-0.17109 -0.205873 0)
(-0.160151 -0.223747 0)
(-0.147059 -0.237696 0)
(-0.131827 -0.246744 0)
(-0.114616 -0.249838 0)
(-0.0957888 -0.245899 0)
(-0.0759456 -0.233905 0)
(-0.055956 -0.212973 0)
(-0.0369348 -0.18248 0)
(-0.020194 -0.142156 0)
(-0.00750519 -0.092176 0)
(-0.00122082 -0.0332671 0)
(-0.00112937 0.0346612 0)
(-0.00686486 0.0948137 0)
(-0.0183336 0.144909 0)
(-0.0333126 0.184699 0)
(-0.0501673 0.214475 0)
(-0.0677422 0.234895 0)
(-0.0851003 0.246856 0)
(-0.101545 0.251383 0)
(-0.116622 0.249532 0)
(-0.130079 0.242318 0)
(-0.141826 0.230675 0)
(-0.151887 0.215425 0)
(-0.160369 0.197272 0)
(-0.167424 0.176802 0)
(-0.17323 0.154493 0)
(-0.177964 0.130729 0)
(-0.181794 0.105809 0)
(-0.184863 0.0799698 0)
(-0.187285 0.0533953 0)
(-0.189135 0.026237 0)
(-0.190448 -0.0013726 0)
(-0.191214 -0.0293032 0)
(-0.191375 -0.0574101 0)
(-0.190825 -0.0855164 0)
(-0.189408 -0.113394 0)
(-0.186925 -0.140742 0)
(-0.183137 -0.167167 0)
(-0.177777 -0.192159 0)
(-0.17057 -0.215073 0)
(-0.161257 -0.235112 0)
(-0.149634 -0.25132 0)
(-0.135599 -0.262588 0)
(-0.119207 -0.267677 0)
(-0.100735 -0.265278 0)
(-0.0807424 -0.254087 0)
(-0.0601196 -0.232927 0)
(-0.0400805 -0.200885 0)
(-0.0221194 -0.157459 0)
(-0.0083008 -0.102682 0)
(-0.00137007 -0.0372833 0)
(-0.00126141 0.0383281 0)
(-0.0075582 0.104316 0)
(-0.0199794 0.158607 0)
(-0.0359291 0.200999 0)
(-0.0535037 0.231976 0)
(-0.0713924 0.252461 0)
(-0.0885853 0.263641 0)
(-0.104383 0.26682 0)
(-0.11838 0.263293 0)
(-0.130407 0.25427 0)
(-0.140472 0.240828 0)
(-0.148701 0.223889 0)
(-0.155297 0.204218 0)
(-0.160499 0.182434 0)
(-0.164558 0.159022 0)
(-0.167715 0.134355 0)
(-0.17019 0.108711 0)
(-0.172167 0.0822944 0)
(-0.173792 0.0552518 0)
(-0.175167 0.0276914 0)
(-0.176343 -0.000301231 0)
(-0.177321 -0.0286459 0)
(-0.178047 -0.0572502 0)
(-0.178412 -0.0859907 0)
(-0.178244 -0.114692 0)
(-0.177316 -0.143102 0)
(-0.175346 -0.170869 0)
(-0.172005 -0.197511 0)
(-0.166933 -0.222389 0)
(-0.159766 -0.244678 0)
(-0.150174 -0.263351 0)
(-0.137911 -0.277169 0)
(-0.122891 -0.2847 0)
(-0.105263 -0.284367 0)
(-0.0855009 -0.274533 0)
(-0.0644849 -0.253644 0)
(-0.0435157 -0.220405 0)
(-0.0242884 -0.173982 0)
(-0.0092208 -0.114195 0)
(-0.00154787 -0.0417415 0)
(-0.00142856 0.0423903 0)
(-0.00840831 0.114701 0)
(-0.0219413 0.173327 0)
(-0.038946 0.218154 0)
(-0.0571839 0.249942 0)
(-0.075172 0.269983 0)
(-0.0918413 0.279843 0)
(-0.106521 0.281171 0)
(-0.118896 0.275549 0)
(-0.128919 0.264403 0)
(-0.136726 0.248962 0)
(-0.142571 0.230243 0)
(-0.14677 0.209063 0)
(-0.149658 0.186057 0)
(-0.151568 0.161706 0)
(-0.152803 0.136358 0)
(-0.153632 0.110258 0)
(-0.154281 0.0835699 0)
(-0.154925 0.0563931 0)
(-0.155688 0.028786 0)
(-0.156643 0.000781011 0)
(-0.157801 -0.0275981 0)
(-0.159117 -0.0563185 0)
(-0.160481 -0.0853186 0)
(-0.161714 -0.114487 0)
(-0.16257 -0.143636 0)
(-0.16273 -0.172474 0)
(-0.161809 -0.200567 0)
(-0.159365 -0.227306 0)
(-0.154921 -0.251865 0)
(-0.148006 -0.273169 0)
(-0.138204 -0.289865 0)
(-0.125244 -0.300322 0)
(-0.109092 -0.302669 0)
(-0.0900804 -0.294878 0)
(-0.0690241 -0.274922 0)
(-0.0472814 -0.241 0)
(-0.0267597 -0.191811 0)
(-0.0103027 -0.126845 0)
(-0.00176429 -0.046717 0)
(-0.00164672 0.0469453 0)
(-0.00947692 0.126145 0)
(-0.024326 0.189205 0)
(-0.0424696 0.236166 0)
(-0.0612546 0.268206 0)
(-0.0790182 0.287123 0)
(-0.094666 0.294984 0)
(-0.10761 0.293865 0)
(-0.11768 0.28568 0)
(-0.125001 0.272089 0)
(-0.129879 0.254471 0)
(-0.132719 0.233924 0)
(-0.133965 0.211298 0)
(-0.134055 0.187226 0)
(-0.133401 0.162162 0)
(-0.132367 0.136416 0)
(-0.131266 0.110186 0)
(-0.130356 0.0835847 0)
(-0.129839 0.056658 0)
(-0.129858 0.0294085 0)
(-0.130502 0.00181107 0)
(-0.131796 -0.0261712 0)
(-0.133707 -0.0545695 0)
(-0.136131 -0.0833914 0)
(-0.138892 -0.112599 0)
(-0.141734 -0.142082 0)
(-0.144317 -0.171625 0)
(-0.146209 -0.20087 0)
(-0.146897 -0.229269 0)
(-0.145796 -0.256028 0)
(-0.142281 -0.280058 0)
(-0.135746 -0.299921 0)
(-0.125685 -0.313805 0)
(-0.111821 -0.319528 0)
(-0.0942614 -0.314613 0)
(-0.0736765 -0.296452 0)
(-0.0514229 -0.262579 0)
(-0.0296136 -0.211034 0)
(-0.0116017 -0.140797 0)
(-0.00203486 -0.0523096 0)
(-0.00194103 0.0521315 0)
(-0.0108546 0.138887 0)
(-0.0272766 0.206398 0)
(-0.0466214 0.254997 0)
(-0.0657308 0.286493 0)
(-0.0827784 0.303396 0)
(-0.0967115 0.308423 0)
(-0.107108 0.30417 0)
(-0.114024 0.292925 0)
(-0.117815 0.276587 0)
(-0.119 0.256667 0)
(-0.118158 0.234319 0)
(-0.115871 0.210391 0)
(-0.112678 0.185487 0)
(-0.109062 0.160012 0)
(-0.105437 0.134219 0)
(-0.102148 0.108245 0)
(-0.0994771 0.082141 0)
(-0.09764 0.0558944 0)
(-0.0967947 0.0294487 0)
(-0.0970404 0.0027194 0)
(-0.0984181 -0.0243919 0)
(-0.100907 -0.0519822 0)
(-0.104419 -0.080131 0)
(-0.108792 -0.10888 0)
(-0.113776 -0.138207 0)
(-0.119025 -0.167992 0)
(-0.124087 -0.197978 0)
(-0.128394 -0.227709 0)
(-0.131266 -0.256469 0)
(-0.131932 -0.283206 0)
(-0.129575 -0.306447 0)
(-0.123418 -0.324233 0)
(-0.112865 -0.334084 0)
(-0.0976966 -0.333031 0)
(-0.0783185 -0.317768 0)
(-0.0559809 -0.284961 0)
(-0.0329586 -0.231727 0)
(-0.0131998 -0.15626 0)
(-0.00238448 -0.0586569 0)
(-0.0023527 0.0581497 0)
(-0.0126768 0.153243 0)
(-0.0309825 0.225074 0)
(-0.0515229 0.274521 0)
(-0.0705475 0.304359 0)
(-0.0861324 0.318099 0)
(-0.0973881 0.319294 0)