1.45 	0 	0 	-0.00419538 	-0.00285409 	3.95622e-21
2.35 	0 	0 	0.073698 	-0.00701878 	2.42824e-21
