1.45 	0 	0 	-0.00809734 	-0.00257092 	3.78591e-21
2.35 	0 	0 	0.0613824 	-0.00663292 	2.29033e-21
