/*--------------------------------*- C++ -*----------------------------------*\
  =========                 |
  \\      /  F ield         | OpenFOAM: The Open Source CFD Toolbox
   \\    /   O peration     | Website:  https://openfoam.org
    \\  /    A nd           | Version:  6.0
     \\/     M anipulation  |
\*---------------------------------------------------------------------------*/
FoamFile
{
    version     2.0;
    format      ascii;
    class       volVectorField;
    location    "1";
    object      U;
}
// * * * * * * * * * * * * * * * * * * * * * * * * * * * * * * * * * * * * * //

dimensions      [0 1 -1 0 0 0 0];

internalField   nonuniform List<vector> 
8000
(
(-0.000434645 0.000365436 -1.46954e-21)
(-0.001604 0.000574084 8.55294e-21)
(-0.00285657 0.000374907 -1.0555e-20)
(-0.00322987 -0.000135404 8.135e-21)
(-0.00219247 -0.000885076 3.91179e-21)
(0.000548602 -0.00181766 -1.19271e-20)
(0.00516416 -0.00288691 -1.01233e-21)
(0.0117303 -0.00405386 -2.79884e-22)
(0.0202496 -0.00528449 -5.86637e-21)
(0.0306683 -0.00654807 -3.05288e-21)
(0.0428887 -0.00781582 2.45043e-21)
(0.0567769 -0.00906008 8.5393e-21)
(0.0721688 -0.0102537 -8.54393e-22)
(0.0888733 -0.0113696 7.26632e-22)
(0.106676 -0.0123808 -8.0404e-21)
(0.125347 -0.0132603 4.84522e-21)
(0.144644 -0.0139813 -6.59264e-21)
(0.164262 -0.0145188 9.93927e-21)
(0.183737 -0.0148507 -1.24858e-23)
(0.203102 -0.0149474 2.25273e-21)
(-0.000484583 0.00108195 4.89095e-21)
(-0.00165168 0.00168606 -2.73672e-20)
(-0.0028065 0.00107589 -1.91594e-20)
(-0.0030152 -0.00045916 -1.29828e-20)
(-0.00176514 -0.00270467 -1.66983e-20)
(0.00122296 -0.0054925 3.87453e-21)
(0.00610883 -0.00868501 -1.91527e-20)
(0.0129595 -0.0121663 -3.99393e-21)
(0.0217702 -0.0158355 1.76262e-21)
(0.0324809 -0.0196012 1.401e-20)
(0.0449888 -0.0233783 -1.47595e-20)
(0.0591557 -0.0270845 2.02105e-20)
(0.0748134 -0.0306393 -1.47651e-20)
(0.0917675 -0.0339627 -1.68956e-20)
(0.1098 -0.0369743 -2.21555e-20)
(0.128679 -0.0395937 1.48219e-20)
(0.148158 -0.0417413 -4.09949e-21)
(0.167931 -0.0433418 -1.53696e-20)
(0.187535 -0.0443302 1.45728e-20)
(0.20698 -0.0446186 -1.20799e-20)
(-0.000580943 0.00176717 4.84522e-20)
(-0.00173828 0.00272563 2.72578e-20)
(-0.00269323 0.00168379 3.10747e-20)
(-0.00256968 -0.000880846 2.61108e-21)
(-0.000892325 -0.00461467 1.75496e-20)
(0.0025909 -0.00924033 2.11369e-20)
(0.00801754 -0.014531 -3.97564e-20)
(0.0154366 -0.0202959 -2.01309e-20)
(0.0248284 -0.0263689 -2.5744e-20)
(0.0361209 -0.0325998 2.73716e-20)
(0.049201 -0.0388484 -2.06115e-20)
(0.0639216 -0.0449795 -2.57801e-20)
(0.0801069 -0.0508605 -9.45935e-21)
(0.0975559 -0.0563593 8.73288e-21)
(0.116045 -0.0613434 -1.59989e-21)
(0.135333 -0.0656801 3.71203e-21)
(0.155173 -0.0692371 3.57918e-20)
(0.175253 -0.0718895 -5.91912e-21)
(0.195108 -0.0735284 -3.48151e-20)
(0.214714 -0.0740103 5.06437e-20)
(-0.000717831 0.00240038 1.72643e-20)
(-0.00184892 0.00364513 -2.56575e-20)
(-0.0024962 0.00213773 -6.39047e-21)
(-0.00186938 -0.00146427 1.32063e-20)
(0.000451219 -0.00667352 3.60887e-20)
(0.00467722 -0.0131077 7.79629e-20)
(0.0109131 -0.0204545 7.56563e-20)
(0.0191812 -0.0284514 6.04366e-21)
(0.0294398 -0.0368702 4.51851e-20)
(0.0415989 -0.0455044 6.82279e-20)
(0.0555301 -0.0541613 -5.21112e-20)
(0.0710736 -0.0626551 7.86561e-20)
(0.0880422 -0.0708034 -1.60338e-20)
(0.106225 -0.0784241 5.02164e-21)
(0.125389 -0.0853343 1.61636e-20)
(0.145286 -0.0913502 2.04844e-20)
(0.165659 -0.0962883 -3.43003e-20)
(0.186192 -0.099974 -2.72985e-20)
(0.206418 -0.102254 -4.60671e-20)
(0.22626 -0.102933 7.48075e-20)
(-0.000886285 0.00296171 -8.99641e-21)
(-0.00196161 0.0043989 -1.00499e-19)
(-0.00218464 0.0023796 -2.9883e-20)
(-0.000878336 -0.00226987 -7.34852e-20)
(0.00230371 -0.00893596 2.90301e-20)
(0.00751989 -0.0171372 -4.37521e-20)
(0.0148313 -0.026481 1.56725e-20)
(0.0242247 -0.0366377 -9.15286e-20)
(0.0356299 -0.0473207 4.87358e-20)
(0.0489332 -0.0582714 -5.64746e-20)
(0.0639863 -0.0692479 -4.8887e-20)
(0.0806126 -0.0800174 -5.35719e-20)
(0.0986105 -0.0903505 4.72371e-20)
(0.117757 -0.100018 -4.15998e-20)
(0.137806 -0.108789 5.69766e-20)
(0.1585 -0.116431 1.53159e-20)
(0.17957 -0.122711 3.69889e-20)
(0.200696 -0.127404 1.48741e-20)
(0.221406 -0.130313 -6.22939e-20)
(0.241553 -0.131193 1.09872e-19)
(-0.00107443 0.00343233 4.11379e-20)
(-0.00204699 0.00494394 2.75441e-21)
(-0.00171769 0.00235501 1.8647e-20)
(0.000451104 -0.00335362 6.47646e-20)
(0.00471567 -0.0114518 -8.76241e-21)
(0.0111689 -0.0213665 1.05798e-19)
(0.0198184 -0.0326309 4.70187e-20)
(0.0306077 -0.0448541 4.34967e-21)
(0.0434312 -0.0576965 1.16774e-19)
(0.0581462 -0.0708517 3.66874e-20)
(0.0745804 -0.0840336 1.75503e-20)
(0.0925368 -0.0969664 5.46477e-20)
(0.111797 -0.109378 4.86266e-20)
(0.132121 -0.120996 8.5303e-20)
(0.153253 -0.131544 -7.65443e-20)
(0.174919 -0.140744 1.01399e-19)
(0.196838 -0.148314 -1.36347e-21)
(0.218685 -0.153981 -1.24263e-19)
(0.239982 -0.157502 1.57343e-19)
(0.260496 -0.15859 6.87294e-20)
(-0.00126763 0.00379476 -2.41683e-20)
(-0.00206899 0.00524061 -4.88926e-20)
(-0.00104506 0.00201437 -1.01262e-19)
(0.0021776 -0.00476575 -2.80505e-21)
(0.00774926 -0.0142646 1.79768e-20)
(0.0156858 -0.0258261 -1.30765e-19)
(0.0259319 -0.0389174 -9.60944e-20)
(0.0383802 -0.0530928 -1.41373e-20)
(0.0528837 -0.0679659 -1.1898e-19)
(0.0692658 -0.0831886 -8.0326e-20)
(0.0873262 -0.0984358 -2.31688e-20)
(0.106845 -0.113394 -7.34616e-20)
(0.127583 -0.127754 -2.29576e-21)
(0.149285 -0.141204 -9.33516e-20)
(0.171678 -0.153427 3.61589e-20)
(0.194475 -0.164101 -4.22521e-20)
(0.21738 -0.1729 2.94646e-20)
(0.240063 -0.179501 -4.11194e-20)
(0.262038 -0.183613 -1.08059e-19)
(0.28297 -0.184918 -3.58433e-20)
(-0.00144859 0.00403319 -1.00662e-20)
(-0.00198485 0.00525337 -1.17724e-20)
(-0.000107138 0.0013139 8.59259e-20)
(0.00437079 -0.00654953 -1.42975e-19)
(0.0114785 -0.0174101 2.12587e-20)
(0.0211441 -0.0305389 -8.3762e-20)
(0.0332408 -0.0453457 3.83569e-20)
(0.0476031 -0.0613378 1.71973e-19)
(0.0640371 -0.0780891 -1.29814e-20)
(0.0823276 -0.0952166 -1.25638e-19)
(0.102243 -0.112363 2.20461e-20)
(0.123537 -0.129183 5.36769e-21)
(0.145949 -0.145336 -2.23297e-20)
(0.169207 -0.160477 4.99939e-21)
(0.19302 -0.174253 2.00322e-19)
(0.217088 -0.186303 -2.93787e-20)
(0.241098 -0.196257 -5.31984e-20)
(0.264714 -0.203745 -9.04625e-20)
(0.287443 -0.208426 9.29698e-20)
(0.308834 -0.209958 4.29029e-20)
(-0.00159742 0.00413365 4.64666e-20)
(-0.00174549 0.00495137 -6.73631e-20)
(0.00116455 0.000216513 9.73627e-20)
(0.00711077 -0.00874032 9.97556e-20)
(0.0159886 -0.0209155 9.21213e-20)
(0.027629 -0.0355187 1.84231e-19)
(0.0418255 -0.0519117 1.17563e-19)
(0.0583481 -0.0695637 -2.5171e-19)
(0.0769505 -0.0880169 1.27592e-19)
(0.0973752 -0.106861 9.79023e-20)
(0.119356 -0.125713 -3.16802e-21)
(0.142618 -0.144205 1.05538e-19)
(0.166879 -0.16197 7.76627e-20)
(0.191847 -0.178637 -4.42552e-20)
(0.217216 -0.193824 1.38019e-19)
(0.24267 -0.207136 -1.7087e-19)
(0.267882 -0.218162 6.578e-20)
(0.292509 -0.226483 8.10724e-20)
(0.316052 -0.231709 -1.7179e-20)
(0.337928 -0.233482 1.74847e-19)
(-0.00169185 0.00408422 9.88981e-20)
(-0.00129598 0.00430902 5.9485e-21)
(0.00284664 -0.00130747 -3.84489e-20)
(0.0104872 -0.0113647 -4.01388e-20)
(0.0213754 -0.0247986 -1.89365e-19)
(0.0352364 -0.0407694 2.95307e-20)
(0.0517771 -0.0586018 7.50746e-20)
(0.0706971 -0.0777358 -3.80939e-20)
(0.0916931 -0.0976905 3.07771e-20)
(0.114461 -0.118036 -8.09767e-21)
(0.138698 -0.138373 -3.79307e-20)
(0.164099 -0.158318 3.72103e-20)
(0.190358 -0.177488 -1.44455e-19)
(0.217164 -0.195493 1.41768e-19)
(0.244198 -0.211927 -1.15481e-19)
(0.271127 -0.226368 3.63553e-20)
(0.297613 -0.23837 7.70882e-20)
(0.323305 -0.247465 -1.66037e-20)
(0.347702 -0.253211 -5.03149e-20)
(0.370073 -0.25524 -3.80935e-20)
(-0.00170738 0.00387529 -1.26958e-19)
(-0.00057606 0.00330658 -8.32152e-21)
(0.00502298 -0.00327944 2.95399e-20)
(0.0145982 -0.0144396 7.4672e-20)
(0.0277437 -0.0290669 -1.06865e-19)
(0.0440715 -0.0462853 -9.24085e-20)
(0.0631961 -0.0653928 2.12538e-19)
(0.0847415 -0.0858104 -1.2077e-19)
(0.108343 -0.107042 -7.61485e-20)
(0.133648 -0.128649 -1.06265e-19)
(0.160311 -0.150222 6.95013e-20)
(0.187997 -0.171372 -3.85072e-21)
(0.216377 -0.19171 -1.273e-19)
(0.245121 -0.210835 -1.96326e-19)
(0.273898 -0.228329 1.49853e-19)
(0.302362 -0.243749 -1.14357e-19)
(0.330163 -0.256617 1.60422e-19)
(0.356949 -0.26642 -4.54849e-20)
(0.382217 -0.272657 8.29617e-20)
(0.40508 -0.274964 -3.35778e-19)
(-0.00161755 0.00349977 -2.69279e-19)
(0.000479034 0.00193086 1.90366e-19)
(0.00778339 -0.00571175 2.52573e-20)
(0.0195485 -0.0179716 5.41686e-21)
(0.0352052 -0.0337175 -1.16846e-19)
(0.054247 -0.0520501 1.73364e-19)
(0.0761908 -0.0722524 1.65458e-20)
(0.100581 -0.0937354 -3.43021e-20)
(0.126988 -0.115998 -1.11841e-19)
(0.155004 -0.138598 1.19579e-19)
(0.184245 -0.16113 2.94721e-19)
(0.21434 -0.183207 -6.55459e-20)
(0.244937 -0.204442 1.43309e-19)
(0.275689 -0.22444 -1.61959e-19)
(0.306254 -0.242777 -1.49961e-19)
(0.336279 -0.259 9.02208e-20)
(0.365406 -0.272609 1.36859e-19)
(0.393285 -0.283046 -4.45644e-19)
(0.419418 -0.289746 5.48523e-20)
(0.44275 -0.292355 7.88633e-20)
(-0.00139424 0.00295348 2.02852e-19)
(0.00193755 0.000175943 7.85483e-20)
(0.0112219 -0.00860673 3.79581e-19)
(0.0254474 -0.0219561 1.96822e-20)
(0.0438763 -0.0387362 -4.10294e-20)
(0.0658798 -0.0580378 -1.98164e-19)
(0.0908737 -0.07914 1.71879e-19)
(0.118319 -0.101453 3.06609e-19)
(0.147718 -0.124479 1.96981e-19)
(0.178608 -0.147781 1.4397e-19)
(0.210558 -0.170965 1.22176e-19)
(0.243165 -0.193656 -2.12304e-19)
(0.276048 -0.215486 -6.07328e-20)
(0.308848 -0.23607 -4.70531e-20)
(0.341214 -0.254999 4.84467e-19)
(0.372792 -0.271821 -6.43911e-21)
(0.403221 -0.286023 -1.13002e-19)
(0.43216 -0.297007 -2.72948e-20)
(0.459124 -0.304139 3.13334e-19)
(0.482887 -0.307077 5.09448e-20)
(-0.00100821 0.00223552 -6.37463e-21)
(0.00386986 -0.00195593 -2.09111e-19)
(0.0154345 -0.0119558 -3.13942e-19)
(0.0324055 -0.0263766 -8.80435e-20)
(0.0538741 -0.0440973 5.14021e-20)
(0.0790872 -0.0642126 1.19234e-20)
(0.107358 -0.0860079 2.78959e-19)
(0.138061 -0.108902 -3.46105e-19)
(0.170629 -0.132405 -1.3178e-19)
(0.204541 -0.156097 -2.58602e-19)
(0.239317 -0.1796 -2.1438e-19)
(0.274518 -0.202562 -1.87556e-19)
(0.309737 -0.22464 4.75827e-20)
(0.344598 -0.245483 -6.00898e-20)
(0.378748 -0.264706 2.4206e-19)
(0.411834 -0.28188 -1.34104e-19)
(0.443502 -0.296496 -3.9226e-19)
(0.473433 -0.307922 -6.86217e-20)
(0.501171 -0.315447 1.85543e-19)
(0.525312 -0.318743 -1.77113e-19)
(-0.000429655 0.00134871 -3.09286e-20)
(0.00634671 -0.00445343 2.69806e-19)
(0.0205167 -0.0157384 -3.44289e-19)
(0.0405314 -0.0312037 7.92086e-20)
(0.065312 -0.0497632 -1.62146e-19)
(0.0939815 -0.0705292 3.69328e-19)
(0.12575 -0.0928031 -2.61129e-19)
(0.159906 -0.116019 2.94167e-19)
(0.195811 -0.139705 -2.82475e-19)
(0.232882 -0.163458 1.14676e-19)
(0.270591 -0.186923 -5.82918e-20)
(0.308457 -0.20978 -1.40939e-19)
(0.346046 -0.231724 -1.68003e-19)
(0.382965 -0.252444 1.62881e-19)
(0.418855 -0.271607 -1.33195e-19)
(0.453373 -0.288825 -2.76373e-19)
(0.486184 -0.303622 2.82701e-19)
(0.517002 -0.315351 -3.50233e-19)
(0.545428 -0.323214 1.49673e-19)
(0.569882 -0.32689 -4.05717e-21)
(0.000370955 0.000300096 -3.26101e-19)
(0.00943716 -0.00729511 -3.74968e-19)
(0.02656 -0.0199208 4.21318e-20)
(0.0499274 -0.0363938 -3.63585e-19)
(0.0782947 -0.0556835 -3.29708e-20)
(0.110664 -0.0769325 -2.65813e-19)
(0.146144 -0.0994682 -6.16249e-20)
(0.183939 -0.122747 -1.78597e-19)
(0.223339 -0.146316 -1.97884e-21)
(0.2637 -0.169795 -7.90181e-20)
(0.304443 -0.192855 6.61835e-22)
(0.345044 -0.215209 -2.14875e-19)
(0.385035 -0.236594 2.23494e-19)
(0.424003 -0.256757 -3.22273e-19)
(0.461583 -0.275429 1.05768e-19)
(0.49744 -0.292298 1.75207e-23)
(0.531266 -0.306957 -1.65732e-19)
(0.562835 -0.318779 3.85584e-19)
(0.59184 -0.326888 -9.56653e-20)
(0.616543 -0.330954 -6.41075e-20)
(0.00142194 -0.00089857 3.74012e-19)
(0.0132062 -0.0104485 2.14991e-19)
(0.0336482 -0.0244548 1.98633e-19)
(0.0606847 -0.0418882 2.85992e-20)
(0.0929122 -0.0617939 2.7497e-19)
(0.129217 -0.0833575 3.9269e-19)
(0.168612 -0.105942 3.23552e-19)
(0.210221 -0.12903 2.31315e-20)
(0.253264 -0.152194 2.29503e-19)
(0.29704 -0.175073 3.54471e-19)
(0.340918 -0.197364 -9.31869e-20)
(0.384331 -0.21881 1.52174e-19)
(0.426773 -0.239189 1.24415e-19)
(0.467804 -0.258307 1.2126e-19)
(0.507044 -0.275975 6.76455e-19)
(0.544165 -0.291986 -2.51773e-19)
(0.578882 -0.306054 -1.59322e-20)
(0.61105 -0.317645 2.62737e-19)
(0.640528 -0.325837 -1.44809e-19)
(0.665449 -0.330274 8.04819e-20)
(0.00274931 -0.00223047 -3.1175e-19)
(0.0177119 -0.0138693 2.59598e-20)
(0.0418541 -0.0292768 -2.6725e-19)
(0.0728783 -0.0476117 -3.17151e-20)
(0.109233 -0.0680142 1.98585e-19)
(0.149698 -0.0897266 -5.8319e-19)
(0.193196 -0.112155 7.93009e-21)
(0.238775 -0.134818 2.68022e-19)
(0.285595 -0.15731 2.52019e-19)
(0.332901 -0.179294 -1.09843e-19)
(0.380016 -0.200481 3.42116e-20)
(0.426333 -0.220637 8.35199e-20)
(0.471308 -0.23957 -3.95739e-20)
(0.514467 -0.257131 -4.1453e-19)
(0.555405 -0.273204 1.06951e-19)
(0.593779 -0.287702 2.66459e-19)
(0.629313 -0.300521 -3.71184e-19)
(0.661947 -0.311325 1.81929e-19)
(0.69181 -0.319225 4.51564e-20)
(0.71702 -0.323832 2.48013e-19)
(0.00437568 -0.00367353 -4.95635e-20)
(0.0230034 -0.0175009 -2.37115e-19)
(0.0512356 -0.0343073 1.05661e-19)
(0.086563 -0.0534709 -5.14857e-21)
(0.1273 -0.0742467 -4.8155e-19)
(0.172129 -0.0959468 7.54975e-20)
(0.219892 -0.118032 -1.21906e-20)
(0.269573 -0.140059 9.58623e-20)
(0.320278 -0.161654 -4.38102e-19)
(0.371211 -0.182495 -2.46285e-20)
(0.421661 -0.202308 -9.50597e-20)
(0.470989 -0.220864 9.40696e-20)
(0.518625 -0.237974 2.91502e-19)
(0.564062 -0.253498 -4.62796e-20)
(0.606857 -0.26735 1.44833e-20)
(0.646621 -0.279515 1.09597e-19)
(0.683021 -0.290059 -2.49894e-20)
(0.716013 -0.29888 1.86566e-19)
(0.746086 -0.305174 -1.23144e-19)
(0.771645 -0.308833 -1.96653e-19)
(0.00631927 -0.0052005 4.42172e-20)
(0.029118 -0.0212747 8.95313e-21)
(0.0618327 -0.0394501 9.85004e-20)
(0.101769 -0.0593533 2.40208e-19)
(0.147124 -0.0803732 1.33304e-19)
(0.196494 -0.101905 1.33419e-20)
(0.248651 -0.123476 -1.61426e-19)
(0.302525 -0.144692 4.25449e-20)
(0.357182 -0.165212 2.12779e-19)
(0.411801 -0.184738 -3.62402e-19)
(0.465655 -0.203007 2.71993e-19)
(0.518103 -0.219785 -2.01498e-19)
(0.568579 -0.234864 1.67215e-19)
(0.616586 -0.248065 -3.53012e-19)
(0.661684 -0.259241 3.74747e-19)
(0.70347 -0.268317 -3.9787e-19)
(0.741557 -0.27531 -9.62526e-20)
(0.775809 -0.280082 2.86254e-19)
(0.806799 -0.281916 -1.0568e-19)
(0.833298 -0.282129 3.82843e-20)
(0.00859316 -0.00677946 -3.55024e-20)
(0.0360801 -0.0251108 3.48478e-19)
(0.0736654 -0.0445934 -4.97206e-21)
(0.118501 -0.0651275 -2.17608e-19)
(0.168682 -0.0862537 -1.46607e-19)
(0.222733 -0.107465 2.70342e-19)
(0.279367 -0.128367 -1.08357e-19)
(0.337471 -0.148625 -1.44342e-20)
(0.396083 -0.167947 2.17092e-19)
(0.454371 -0.186069 -2.76657e-19)
(0.511617 -0.20275 2.75423e-20)
(0.567211 -0.217768 -3.4895e-19)
(0.620648 -0.230907 1.78464e-19)
(0.67153 -0.241955 -5.0513e-19)
(0.719581 -0.2507 7.83276e-19)
(0.764673 -0.25694 -1.42402e-19)
(0.80692 -0.260461 1.33807e-19)
(0.846988 -0.260923 -3.61167e-19)
(0.886474 -0.258411 1.29404e-20)
(0.927605 -0.256729 4.49551e-19)
(0.0112047 -0.00837443 -1.10918e-19)
(0.0438995 -0.0289196 1.01255e-19)
(0.0867331 -0.0496108 -3.65721e-19)
(0.136735 -0.0706434 5.43823e-19)
(0.19192 -0.0917252 -3.94607e-19)
(0.250749 -0.112461 1.87149e-20)
(0.311887 -0.132547 -4.23871e-19)
(0.374187 -0.151723 3.03276e-19)
(0.436668 -0.169758 -4.6905e-20)
(0.498493 -0.186441 -2.66817e-19)
(0.55896 -0.201582 -1.499e-19)
(0.617492 -0.215003 1.58367e-19)
(0.673641 -0.22654 1.01972e-19)
(0.727093 -0.236043 -4.51699e-19)
(0.777683 -0.243388 1.67484e-19)
(0.825423 -0.248499 -2.30839e-19)
(0.870578 -0.251353 2.17522e-20)
(0.913775 -0.252027 -1.88258e-19)
(0.955761 -0.251472 7.35571e-20)
(0.996606 -0.253058 -3.23796e-19)
(0.0141554 -0.00994631 3.11686e-19)
(0.0525719 -0.0326033 -1.97195e-19)
(0.101014 -0.0543641 1.63308e-19)
(0.156424 -0.0757349 -2.06372e-19)
(0.216751 -0.0966041 3.5419e-19)
(0.280409 -0.1167 -9.72652e-21)
(0.346023 -0.135821 -4.36496e-20)
(0.412416 -0.153793 -3.26037e-20)
(0.478592 -0.170458 1.95949e-19)
(0.543711 -0.185674 3.27572e-19)
(0.60708 -0.199313 -1.98475e-19)
(0.668143 -0.211263 1.85894e-19)
(0.726478 -0.221435 3.32714e-19)
(0.781799 -0.229763 -2.39094e-19)
(0.833955 -0.236227 -4.62185e-19)
(0.882935 -0.240871 8.30923e-19)
(0.928893 -0.243808 -1.5358e-19)
(0.972138 -0.245304 -4.96345e-20)
(1.01276 -0.24638 4.77351e-19)
(1.05019 -0.249174 -1.33026e-19)
(0.0174413 -0.0114544 -5.15583e-19)
(0.0620789 -0.0360601 -3.65531e-19)
(0.116467 -0.0587079 -1.40987e-19)
(0.177495 -0.0802256 2.72934e-19)
(0.243066 -0.100693 -6.172e-19)
(0.311558 -0.119971 3.17653e-19)
(0.381563 -0.137968 3.99271e-20)
(0.451885 -0.154605 3.68459e-20)
(0.521513 -0.169805 -4.20428e-19)
(0.589605 -0.183499 -1.50026e-19)
(0.655472 -0.19563 -2.58739e-19)
(0.718566 -0.206153 2.45459e-19)
(0.778476 -0.215048 6.53791e-20)
(0.834915 -0.222321 5.16472e-21)
(0.88771 -0.22802 2.98569e-19)
(0.936791 -0.232249 -3.09458e-19)
(0.982191 -0.235155 -1.18259e-20)
(1.02399 -0.237004 1.11771e-20)
(1.06196 -0.238639 4.47107e-20)
(1.09553 -0.241336 2.58552e-19)
(0.0210532 -0.0128576 1.66283e-19)
(0.0723894 -0.0391861 4.55033e-19)
(0.133034 -0.0624934 3.6681e-19)
(0.199855 -0.0839347 -1.26315e-19)
(0.270733 -0.103787 4.38774e-19)
(0.344019 -0.122052 -3.68162e-20)
(0.418286 -0.138755 -5.31943e-20)
(0.492322 -0.153914 3.08848e-20)
(0.565109 -0.167538 4.29724e-19)
(0.635806 -0.179631 2.49475e-19)
(0.703729 -0.190203 7.18277e-20)
(0.768341 -0.199273 5.33605e-21)
(0.829234 -0.206876 -4.69078e-19)
(0.886123 -0.213068 4.0701e-19)
(0.938819 -0.217935 6.70801e-20)
(0.987219 -0.221595 -1.13935e-19)
(1.03129 -0.22418 -4.66812e-19)
(1.07101 -0.225899 -3.29893e-20)
(1.10609 -0.227415 1.78051e-19)
(1.13607 -0.22947 -3.64816e-20)
(0.0249776 -0.0141154 -4.23016e-19)
(0.0834603 -0.0418788 1.89124e-19)
(0.150638 -0.0655737 -9.24609e-19)
(0.223393 -0.0866832 3.79751e-19)
(0.299601 -0.105686 -3.05782e-19)
(0.377601 -0.122728 2.28112e-19)
(0.455959 -0.137954 -3.52842e-19)
(0.533456 -0.151483 3.3399e-20)
(0.609077 -0.163407 -1.68498e-20)
(0.68199 -0.173802 9.24261e-20)
(0.751523 -0.18274 1.32916e-19)
(0.817155 -0.190294 -2.54645e-19)
(0.878496 -0.196541 1.33471e-19)
(0.935273 -0.201569 1.20092e-19)
(0.987306 -0.205481 5.01652e-19)
(1.03449 -0.208388 -2.23946e-19)
(1.07678 -0.210393 -1.40667e-19)
(1.11415 -0.211644 2.31019e-19)
(1.14631 -0.212676 1.14319e-19)
(1.17298 -0.21388 -2.84766e-19)
(0.0291969 -0.0151887 3.72797e-19)
(0.0952377 -0.0440397 3.82928e-19)
(0.169188 -0.0678074 1.10723e-19)
(0.247979 -0.0883001 4.70674e-19)
(0.3295 -0.106199 2.3084e-19)
(0.412097 -0.121796 -4.21256e-19)
(0.494339 -0.135357 6.40057e-19)
(0.575015 -0.147099 -3.17561e-19)
(0.653126 -0.157197 3.14594e-19)
(0.727857 -0.165795 4.03878e-19)
(0.798563 -0.17302 -2.30977e-19)
(0.864751 -0.178988 4.45158e-20)
(0.926066 -0.183811 2.3953e-19)
(0.982264 -0.187594 1.65904e-19)
(1.0332 -0.190445 3.71311e-19)
(1.07879 -0.192465 -1.54584e-19)
(1.11903 -0.193723 -2.33557e-20)
(1.1539 -0.194328 2.18363e-19)
(1.1832 -0.194712 -4.89932e-20)
(1.20678 -0.195033 -1.06816e-21)
(0.0336897 -0.0160408 -1.93913e-19)
(0.107658 -0.0455759 -7.54545e-19)
(0.188579 -0.0690624 1.78727e-19)
(0.273466 -0.0886273 -1.37745e-19)
(0.360246 -0.105153 -3.18121e-19)
(0.447285 -0.119076 -2.26285e-19)
(0.533174 -0.130782 -1.3951e-19)
(0.616725 -0.140585 3.45916e-19)
(0.696966 -0.148739 -2.06348e-19)
(0.773118 -0.155449 -2.10038e-19)
(0.844576 -0.160894 -2.63239e-19)
(0.910893 -0.165224 -4.4256e-20)
(0.971761 -0.168574 -3.3057e-20)
(1.02699 -0.171064 -5.86031e-19)
(1.07647 -0.1728 2.74376e-19)
(1.1202 -0.173867 -3.66849e-19)
(1.1582 -0.174312 1.0699e-19)
(1.19052 -0.174211 -8.18099e-19)
(1.21702 -0.173919 2.50592e-19)
(1.23769 -0.173426 3.58024e-19)
(0.0384313 -0.0166374 -4.78991e-20)
(0.120648 -0.0464021 3.68129e-19)
(0.208692 -0.0692189 2.42902e-20)
(0.299692 -0.0875236 5.75316e-20)
(0.391636 -0.102396 -1.17953e-19)
(0.482929 -0.114415 -2.22492e-21)
(0.5722 -0.124082 -1.86666e-21)
(0.658302 -0.131806 -7.00978e-20)
(0.740308 -0.137913 2.56214e-19)
(0.817488 -0.142667 9.93514e-20)
(0.889296 -0.146287 4.41727e-19)
(0.955345 -0.148955 -1.22894e-19)
(1.01539 -0.150822 8.25059e-20)
(1.06931 -0.152015 -8.84081e-21)
(1.11707 -0.152634 2.22909e-19)
(1.15872 -0.152751 1.33004e-19)
(1.19436 -0.152396 3.1044e-19)
(1.22408 -0.151617 -4.96222e-19)
(1.24787 -0.150706 6.12683e-19)
(1.26579 -0.149531 -2.31968e-19)
(0.0433938 -0.0169473 -4.4363e-19)
(0.134125 -0.0464412 -1.46967e-19)
(0.229396 -0.0681707 1.18095e-19)
(0.326482 -0.0848675 7.5144e-20)
(0.423454 -0.0978018 7.78526e-20)
(0.51878 -0.107691 7.75201e-20)
(0.611144 -0.115149 -1.98776e-19)
(0.699458 -0.120671 -8.00166e-20)
(0.782857 -0.124653 2.71168e-20)
(0.860681 -0.127408 -2.41332e-19)
(0.932454 -0.129191 -1.06323e-19)
(0.99787 -0.130208 6.51608e-19)
(1.05676 -0.130621 -1.69676e-19)
(1.10909 -0.130557 -2.27425e-19)
(1.1549 -0.13011 -1.02983e-19)
(1.19431 -0.12934 7.48872e-20)
(1.22749 -0.128256 8.43159e-20)
(1.25462 -0.126888 -4.00184e-19)
(1.27576 -0.12547 5.68512e-19)
(1.29107 -0.123781 -5.85569e-19)
(0.0485461 -0.0169421 -4.86014e-20)
(0.148001 -0.0456258 1.45975e-20)
(0.250548 -0.0658276 -1.96753e-20)
(0.353645 -0.0805592 2.89169e-19)
(0.455471 -0.0912723 1.64447e-20)
(0.554576 -0.0988169 1.07287e-19)
(0.649721 -0.103911 -2.27362e-19)
(0.739896 -0.107133 -7.64205e-21)
(0.824317 -0.108938 3.16233e-19)
(0.902408 -0.109683 4.28014e-20)
(0.973785 -0.109652 -2.74048e-19)
(1.03823 -0.109066 -2.33444e-20)
(1.09568 -0.108093 -2.17817e-19)
(1.14616 -0.106856 2.2237e-19)
(1.18983 -0.10544 2.98614e-19)
(1.22688 -0.103886 -3.30374e-20)
(1.25756 -0.102191 -3.68501e-20)
(1.28211 -0.100365 1.15242e-19)
(1.30068 -0.0985835 -3.55965e-19)
(1.31351 -0.0965677 3.81394e-19)
(0.0538539 -0.016597 4.98759e-20)
(0.162177 -0.0438983 -3.42708e-19)
(0.271995 -0.0621159 9.36287e-20)
(0.38098 -0.0745215 -2.89692e-19)
(0.487446 -0.0827377 1.01843e-19)
(0.590047 -0.0877381 -3.7604e-19)
(0.687642 -0.0903375 1.53024e-19)
(0.779317 -0.0911878 -4.96655e-20)
(0.86439 -0.0907949 -2.01976e-21)
(0.942386 -0.0895525 4.93951e-20)
(1.01303 -0.0877642 -1.81645e-19)
(1.0762 -0.0856593 -2.56557e-19)
(1.13193 -0.083405 -5.06912e-20)
(1.18037 -0.0811156 -2.2724e-20)
(1.22174 -0.0788605 -5.8229e-20)
(1.25634 -0.0766643 -1.85447e-20)
(1.28449 -0.0745055 -5.51514e-20)
(1.3065 -0.0723742 -4.72154e-20)
(1.32261 -0.0703928 -1.34719e-19)
(1.33309 -0.0682436 2.46984e-19)
(0.0592799 -0.0158906 1.17693e-19)
(0.176549 -0.0412121 -1.38987e-19)
(0.293574 -0.0569791 3.01156e-19)
(0.408276 -0.0667012 -1.32918e-19)
(0.51913 -0.0721577 3.57925e-19)
(0.624916 -0.074435 6.8758e-21)
(0.724612 -0.0744345 1.82095e-19)
(0.817422 -0.0728708 -5.03037e-20)
(0.902781 -0.0702923 2.05146e-19)
(0.980334 -0.067118 1.35662e-20)
(1.04992 -0.0636629 4.86747e-19)
(1.11154 -0.0601565 -3.37126e-19)
(1.16533 -0.0567572 4.71185e-20)
(1.21155 -0.0535646 8.81391e-20)
(1.25052 -0.0506286 4.39209e-19)
(1.28262 -0.0479529 -1.58437e-19)
(1.30824 -0.0454972 -3.04185e-20)
(1.32777 -0.0432291 -1.54449e-19)
(1.34151 -0.0412182 -1.36213e-20)
(1.34979 -0.0391265 8.93032e-20)
(0.0647838 -0.0148055 -5.31749e-20)
(0.191004 -0.0375313 1.68984e-19)
(0.315113 -0.0503792 -1.77501e-19)
(0.435314 -0.0570694 6.91155e-20)
(0.550267 -0.0595212 -8.6735e-20)
(0.658902 -0.0589211 3.16797e-19)
(0.760337 -0.0562444 -4.60893e-20)
(0.853915 -0.0522564 1.08725e-19)
(0.939205 -0.0475366 -6.61422e-20)
(1.01598 -0.0425181 -2.2112e-21)
(1.08422 -0.0375175 7.41305e-20)
(1.14405 -0.0327552 -5.73643e-20)
(1.19571 -0.0283732 1.49203e-19)
(1.23958 -0.0244496 -7.49277e-20)
(1.27607 -0.0210097 -3.19786e-19)
(1.30564 -0.0180329 3.16459e-19)
(1.32876 -0.0154571 -1.38798e-19)
(1.34589 -0.0132252 1.10926e-19)
(1.35738 -0.0113545 1.8633e-19)
(1.3636 -0.00950226 8.86768e-20)
(0.0703225 -0.0133279 1.33289e-19)
(0.205426 -0.032832 -2.95473e-19)
(0.336436 -0.0422966 5.55681e-20)
(0.461869 -0.0456215 -4.19633e-20)
(0.580598 -0.0448465 -1.74027e-19)
(0.691723 -0.0412427 -1.36952e-19)
(0.794527 -0.0358444 -2.7902e-20)
(0.888508 -0.0294539 -2.48799e-19)
(0.973386 -0.0226684 -1.56997e-20)
(1.04908 -0.0159234 -4.70158e-20)
(1.11571 -0.00952571 -1.27633e-19)
(1.17353 -0.00367711 -2.89238e-20)
(1.22291 0.00150521 -9.7926e-20)
(1.26432 0.00597168 -1.60737e-19)
(1.29829 0.00972646 1.62792e-19)
(1.32534 0.0128188 2.00945e-20)
(1.34603 0.0153351 3.98492e-20)
(1.36085 0.0173599 -1.81796e-19)
(1.37023 0.0189273 -6.37187e-21)
(1.37456 0.020372 -3.1401e-19)
(0.0758501 -0.0114489 1.40908e-19)
(0.219693 -0.0271029 1.01302e-19)
(0.35736 -0.0327309 -1.67758e-19)
(0.487713 -0.0323778 2.64482e-19)
(0.609862 -0.0281806 -3.01655e-20)
(0.723103 -0.0214771 1.01419e-19)
(0.8269 -0.013344 3.58454e-20)
(0.920925 -0.00460446 1.27641e-19)
(1.00506 0.00414124 -1.01395e-19)
(1.0794 0.0124683 3.40326e-20)
(1.14418 0.0200915 -3.27343e-20)
(1.19982 0.026838 -1.38511e-20)
(1.2468 0.0326239 2.73756e-20)
(1.2857 0.037435 -4.98329e-20)
(1.31713 0.0413104 -1.46018e-20)
(1.34171 0.0443316 -4.55079e-20)
(1.36003 0.0466121 -7.29059e-20)
(1.37267 0.0482662 4.79813e-20)
(1.38008 0.0493787 -6.18186e-20)
(1.38268 0.0502647 3.14018e-19)
(0.0813188 -0.00916396 -6.82552e-20)
(0.233677 -0.020345 -2.09865e-19)
(0.377698 -0.0217012 -2.72576e-20)
(0.512617 -0.0173828 -9.23042e-21)
(0.637804 -0.00959852 -9.84217e-20)
(0.752771 0.000268037 -1.64829e-19)
(0.857185 0.011117 5.45813e-20)
(0.950906 0.0221218 -7.62117e-20)
(1.034 0.0326947 -8.60796e-20)
(1.10671 0.0424361 4.86034e-20)
(1.16946 0.0510947 -3.69189e-20)
(1.22277 0.0585369 -7.47232e-20)
(1.26726 0.0647208 -1.64741e-21)
(1.30362 0.0696741 5.1555e-20)
(1.33254 0.0734759 -5.10002e-20)
(1.35472 0.0762436 7.15347e-20)
(1.37079 0.0781201 2.0077e-20)
(1.38138 0.0792515 4.76256e-20)
(1.38698 0.0797718 8.87319e-20)
(1.38803 0.0799672 -8.75363e-20)
(0.0866788 -0.00647353 6.37455e-20)
(0.24725 -0.0125729 -4.4326e-21)
(0.397264 -0.0092463 3.27139e-20)
(0.536354 -0.000705664 -4.34543e-20)
(0.664172 0.0107977 4.75985e-21)
(0.780468 0.0238572 1.57361e-19)
(0.885126 0.0373712 -1.04209e-19)
(0.978211 0.0505286 4.55518e-20)
(1.05998 0.0627716 4.10143e-20)
(1.13084 0.0737403 -1.14542e-19)
(1.19138 0.08323 1.08871e-19)
(1.24226 0.091157 1.22425e-21)
(1.28423 0.0975296 -7.68525e-20)
(1.31806 0.102424 9.30315e-20)
(1.34453 0.105963 -3.64288e-20)
(1.36439 0.108303 2.77614e-20)
(1.37834 0.109619 -3.16459e-20)
(1.38703 0.11009 -1.31443e-20)
(1.391 0.109898 -1.0389e-19)
(1.39067 0.109291 3.67581e-20)
(0.0918791 -0.00338341 -2.00666e-20)
(0.260284 -0.0038149 6.06567e-20)
(0.415874 0.00457539 1.00445e-20)
(0.558702 0.017561 4.08888e-20)
(0.688726 0.0328799 2.03218e-20)
(0.805948 0.0491285 9.73048e-21)
(0.910486 0.0652258 5.54403e-20)
(1.00262 0.0803971 -6.51386e-21)
(1.0828 0.0941321 2.55425e-20)
(1.15163 0.106126 4.132e-20)
(1.20984 0.116233 2.01343e-20)
(1.25822 0.12443 1.45562e-20)
(1.29765 0.130783 5.91366e-20)
(1.32898 0.135422 -5.75386e-20)
(1.35308 0.138519 1.23151e-20)
(1.37075 0.14027 -1.11773e-20)
(1.38274 0.140884 1.7803e-20)
(1.3897 0.140574 1.47917e-20)
(1.3922 0.139566 2.97304e-20)
(1.39069 0.138066 1.23185e-21)
(0.0968681 9.51845e-05 1.21804e-20)
(0.272648 0.00588708 1.16323e-20)
(0.433345 0.0196858 -1.64775e-20)
(0.579449 0.0373013 1.04853e-20)
(0.711237 0.0564957 6.14196e-21)
(0.828983 0.0758956 -1.95395e-20)
(0.93305 0.0944656 6.60194e-21)
(1.02394 0.111489 1.36745e-21)
(1.10232 0.126521 1.1821e-20)
(1.16895 0.139327 -3.25139e-20)
(1.22472 0.149834 -1.25025e-22)
(1.27058 0.158086 9.12531e-21)
(1.30749 0.164217 -7.34272e-21)
(1.33641 0.168413 7.56133e-21)
(1.35825 0.1709 1.9415e-20)
(1.37387 0.171917 -1.09212e-20)
(1.38405 0.171704 3.21897e-21)
(1.38946 0.170508 1.1719e-20)
(1.39069 0.168601 -1.90599e-20)
(1.38818 0.166138 1.0748e-20)
(0.101595 0.00394547 3.11929e-20)
(0.284217 0.0164772 -1.86447e-20)
(0.449503 0.0359879 2.24785e-20)
(0.598391 0.0583775 -1.70905e-20)
(0.731494 0.0814696 -7.96718e-21)
(0.849366 0.10395 2.51338e-21)
(0.952629 0.124856 -8.24277e-21)
(1.04202 0.143549 3.02355e-20)
(1.11839 0.15967 -2.58604e-20)
(1.1827 0.173069 6.26552e-21)
(1.23599 0.183756 -4.66537e-21)
(1.27932 0.191855 -3.09021e-20)
(1.31377 0.197569 3.02049e-20)
(1.34036 0.20115 1.14508e-20)
(1.36008 0.202875 -1.14479e-20)
(1.37381 0.203027 2.66692e-20)
(1.38236 0.20188 -5.69493e-22)
(1.38642 0.199715 -2.53315e-20)
(1.38656 0.196842 1.85109e-20)
(1.38324 0.193367 6.40611e-21)
(0.106009 0.00814517 -1.11894e-20)
(0.29487 0.0278864 3.29069e-20)
(0.464181 0.0533661 3.92957e-20)
(0.61534 0.0806312 -1.94219e-20)
(0.749303 0.107605 3.40467e-20)
(0.866915 0.133065 5.64022e-20)
(0.969059 0.156145 -3.46035e-21)
(1.0567 0.17631 -1.07968e-20)
(1.13091 0.193303 5.22325e-20)
(1.19281 0.207073 2.61382e-20)
(1.24359 0.217726 -4.90326e-21)
(1.28443 0.22547 4.02656e-20)
(1.3165 0.230587 -4.35202e-20)
(1.3409 0.233393 6.80705e-20)
(1.35865 0.234221 -1.13795e-20)
(1.37068 0.233397 3.21028e-20)
(1.37779 0.231229 5.46354e-21)
(1.38068 0.228028 2.23206e-20)
(1.37993 0.224144 -2.13754e-20)
(1.376 0.219625 5.92425e-21)
(0.110061 0.0126663 -1.66091e-20)
(0.304488 0.0400318 3.92612e-20)
(0.477225 0.0716875 2.97621e-20)
(0.630124 0.103885 -4.81129e-21)
(0.764492 0.134688 5.13482e-20)
(0.88147 0.162996 -4.20908e-20)
(0.982206 0.188069 -4.1691e-21)
(1.0679 0.209495 3.74866e-20)
(1.13981 0.227137 1.15283e-20)
(1.19925 0.241059 1.79254e-20)
(1.24753 0.251469 -2.72928e-20)
(1.28595 0.258671 7.13547e-20)
(1.31575 0.263023 1.33828e-20)
(1.33811 0.264913 -6.45363e-20)
(1.35406 0.264728 9.38002e-20)
(1.36456 0.262837 -1.10403e-19)
(1.37043 0.259579 -4.96092e-20)
(1.37236 0.255295 8.91778e-21)
(1.37091 0.25037 4.76358e-20)
(1.36655 0.244796 -1.01993e-19)
(0.113703 0.0174752 -3.45841e-20)
(0.312963 0.0528182 -8.8088e-20)
(0.488491 0.0908024 -7.95449e-20)
(0.642588 0.127943 -1.09507e-19)
(0.776912 0.162486 -6.62221e-20)
(0.892901 0.193484 -1.41676e-19)
(0.991966 0.22035 1.85342e-20)
(1.07553 0.242818 -8.18979e-20)