/*--------------------------------*- C++ -*----------------------------------*\
  =========                 |
  \\      /  F ield         | OpenFOAM: The Open Source CFD Toolbox
   \\    /   O peration     | Website:  https://openfoam.org
    \\  /    A nd           | Version:  6.0
     \\/     M anipulation  |
\*---------------------------------------------------------------------------*/
FoamFile
{
    version     2.0;
    format      ascii;
    class       surfaceScalarField;
    location    "11";
    object      phi;
}
// * * * * * * * * * * * * * * * * * * * * * * * * * * * * * * * * * * * * * //

dimensions      [0 3 -1 0 0 0 0];

internalField   nonuniform List<scalar> 
123526
(
8.863e-06
0.000514724
-4.63226e-08
1.77618e-05
0.000514272
2.67527e-05
0.000513444
3.58148e-05
0.000512272
4.49102e-05
0.000510777
5.40162e-05
0.000508949
6.31138e-05
0.000506787
7.21882e-05
0.000504291
8.12279e-05
0.000501459
9.02247e-05
0.000498293
9.91719e-05
0.000494791
0.000108064
0.000490953
0.000116899
0.000486779
0.000125673
0.000482267
0.000134378
0.000477427
0.000143007
0.000472257
0.000151559
0.000466756
0.00016002
0.000460938
0.000168386
0.000454799
0.000176648
0.000448347
0.000184795
0.000441591
0.000192824
0.000434528
0.00020072
0.000427173
0.000208482
0.000419522
0.000216099
0.000411585
0.000223567
0.000403363
0.000230879
0.000394863
0.00023803
0.000386085
0.000245016
0.000377037
0.000251832
0.000367719
0.000258474
0.00035814
0.000264938
0.000348302
0.00027122
0.000338213
0.000277317
0.000327877
0.000283223
0.000317304
0.000288936
0.000306498
0.000294452
0.000295471
0.000299766
0.00028423
0.000304875
0.000272785
0.000309774
0.000261144
0.000314461
0.000249319
0.00031893
0.000237319
0.000323179
0.000225153
0.000327204
0.000212832
0.000331001
0.000200365
0.000334569
0.000187762
0.000337902
0.000175032
0.000341
0.000162184
0.000343858
0.000149226
0.000346475
0.000136168
0.000348847
0.000123017
0.000350972
0.00010978
0.000352846
9.64643e-05
0.000354466
8.3076e-05
0.000355826
6.96202e-05
0.00035692
5.60983e-05
0.000357721
4.25161e-05
0.000358205
2.88451e-05
0.000357789
1.53931e-05
2.59229e-06
0.000354734
8.66404e-06
0.000506125
-6.22681e-08
1.73451e-05
0.000505593
2.61176e-05
0.000504674
3.49633e-05
0.000503429
4.38471e-05
0.000501897
5.27489e-05
0.000500051
6.16518e-05
0.000497888
7.05425e-05
0.000495404
7.94104e-05
0.000492596
8.8247e-05
0.000489461
9.70451e-05
0.000485998
0.000105798
0.000482205
0.0001145
0.000478082
0.000123147
0.000473626
0.000131727
0.000468854
0.000140233
0.000463759
0.000148659
0.000458337
0.000156993
0.000452612
0.000165227
0.000446574
0.000173354
0.000440231
0.000181361
0.000433594
0.000189247
0.000426653
0.000196999
0.000419432
0.000204615
0.000411917
0.000212087
0.000404125
0.000219412
0.00039605
0.000226583
0.000387703
0.0002336
0.000379081
0.000240456
0.000370193
0.000247149
0.000361038
0.000253674
0.000351627
0.00026003
0.000341958
0.00026621
0.000332044
0.000272213
0.000321885
0.000278033
0.000311495
0.000283666
0.000300874
0.000289108
0.000290039
0.000294355
0.000278992
0.000299403
0.000267747
0.000304246
0.00025631
0.000308881
0.000244692
0.000313304
0.000232904
0.000317511
0.000220953
0.000321498
0.000208852
0.000325263
0.000196608
0.000328801
0.00018423
0.00033211
0.000171729
0.000335187
0.000159112
0.00033803
0.000146389
0.000340637
0.000133567
0.000343005
0.000120654
0.000345132
0.000107658
0.000347017
9.45849e-05
0.000348656
8.14418e-05
0.000350046
6.82353e-05
0.000351179
5.49713e-05
0.000352041
4.16589e-05
0.000352569
2.83227e-05
0.000352879
1.50862e-05
1.73898e-06
0.000353741
8.43507e-06
0.000497732
-4.03676e-08
1.6911e-05
0.00049712
2.54827e-05
0.000496104
3.41344e-05
0.00049478
4.28334e-05
0.0004932
5.15607e-05
0.000491326
6.03001e-05
0.000489151
6.90377e-05
0.000486669
7.7762e-05
0.000483875
8.64625e-05
0.000480764
9.513e-05
0.000477334
0.000103755
0.000473584
0.000112331
0.000469511
0.00012085
0.000465111
0.000129299
0.000460409
0.00013767
0.000455394
0.000145957
0.000450055
0.000154147
0.000444428
0.000162234
0.000438493
0.00017021
0.000432261
0.000178067
0.000425744
0.000185801
0.000418925
0.000193404
0.000411836
0.000200874
0.000404454
0.000208205
0.000396803
0.000215394
0.000388869
0.000222437
0.000380668
0.000229331
0.000372194
0.000236072
0.00036346
0.000242657
0.000354461
0.000249082
0.00034521
0.000255343
0.000335704
0.000261436
0.000325959
0.000267357
0.000315971
0.000273099
0.000305759
0.000278661
0.000295319
0.000284035
0.000284671
0.000289218
0.000273815
0.000294205
0.000262766
0.00029899
0.00025153
0.000303571
0.000240117
0.000307941
0.000228539
0.000312099
0.0002168
0.000316039
0.000204917
0.000319758
0.000192893
0.000323252
0.000180739
0.00032652
0.000168466
0.000329558
0.000156078
0.000332362
0.000143588
0.000334932
0.000131001
0.000337263
0.000118326
0.000339352
0.000105571
0.000341197
9.27432e-05
0.000342791
7.98503e-05
0.000344128
6.69009e-05
0.000345196
5.39061e-05
0.000345979
4.08784e-05
0.000346471
2.78328e-05
0.000346613
1.49487e-05
2.22099e-06
0.00034613
8.24041e-06
0.000489511
-1.59296e-08
1.65484e-05
0.000488814
2.49554e-05
0.0004877
3.34465e-05
0.000486292
4.19897e-05
0.00048466
5.05662e-05
0.000482753
5.91591e-05
0.000480562
6.77538e-05
0.000478078
7.63373e-05
0.000475295
8.48979e-05
0.000472207
9.34249e-05
0.000468811
0.000101908
0.000465105
0.000110338
0.000461085
0.000118708
0.000456745
0.000127005
0.000452117
0.000135221
0.000447183
0.00014335
0.00044193
0.000151381
0.000436402
0.000159309
0.000430571
0.000167127
0.000424448
0.000174828
0.000418049
0.000182411
0.000411348
0.000189868
0.000404386
0.000197197
0.000397131
0.000204394
0.000389612
0.000211456
0.000381813
0.000218378
0.000373752
0.000225159
0.00036542
0.000231794
0.000356832
0.000238279
0.000347982
0.000244609
0.000338885
0.000250782
0.000329537
0.00025679
0.000319957
0.000262631
0.000310136
0.000268297
0.000300099
0.000273785
0.000289837
0.000279088
0.000279373
0.000284203
0.000268706
0.000289123
0.000257851
0.000293844
0.000246814
0.000298362
0.000235604
0.000302671
0.000224234
0.000306769
0.000212707
0.000310651
0.000201039
0.000314314
0.000189234
0.000317754
0.000177303
0.000320967
0.000165256
0.000323952
0.000153097
0.000326706
0.000140838
0.000329224
0.000128486
0.000331505
0.000116049
0.000333545
0.000103535
0.000335339
9.09515e-05
0.000336885
7.83079e-05
0.000338176
6.56135e-05
0.000339205
5.28801e-05
0.000339965
4.01216e-05
0.000340455
2.73454e-05
0.000340699
1.47061e-05
2.25141e-06
0.000340675
8.07598e-06
0.000481438
-9.16016e-10
1.62359e-05
0.000480656
2.44953e-05
0.000479443
3.28397e-05
0.000477949
4.1237e-05
0.000476265
4.96683e-05
0.000474324
5.81159e-05
0.000472117
6.65647e-05
0.000469632
7.50009e-05
0.000466862
8.34122e-05
0.000463799
9.17873e-05
0.000460439
0.000100116
0.00045678
0.000108389
0.000452816
0.0001166
0.000448538
0.000124736
0.000443984
0.000132789
0.000439133
0.000140758
0.000433966
0.000148629
0.000428535
0.0001564
0.000422805
0.000164065
0.000416787
0.000171618
0.000410501
0.000179059
0.000403912
0.000186379
0.00039707
0.000193579
0.000389935
0.000200652
0.000382543
0.000207598
0.000374872
0.00021441
0.000366944
0.000221087
0.000358748
0.000227623
0.0003503
0.000234014
0.000341595
0.000240255
0.000332649
0.000246342
0.000323455
0.000252267
0.000314035
0.000258028
0.000304379
0.000263617
0.000294514
0.000269031
0.000284427
0.000274261
0.000274146
0.000279304
0.000263666
0.000284155
0.000253003
0.000288808
0.000242164
0.000293259
0.000231155
0.000297504
0.000219992
0.000301538
0.000208675
0.000305359
0.000197222
0.000308961
0.000185634
0.000312342
0.000173924
0.0003155
0.000162101
0.00031843
0.000150168
0.00032113
0.00013814
0.000323598
0.00012602
0.000325831
0.000113818
0.000327825
0.000101542
0.000329578
8.92003e-05
0.000331085
7.68018e-05
0.000332344
6.43564e-05
0.000333349
5.18759e-05
0.000334099
3.93731e-05
0.000334593
2.68523e-05
0.000334873
1.44293e-05
2.13437e-06
0.000334988
7.92712e-06
0.000473509
4.34164e-09
1.5945e-05
0.000472641
2.40614e-05
0.000471329
3.22616e-05
0.000469752
4.05137e-05
0.000468016
4.87984e-05
0.000466043
5.70979e-05
0.00046382
6.53966e-05
0.000461337
7.36808e-05
0.000458581
8.19379e-05
0.000455545
9.0157e-05
0.000452224
9.83278e-05
0.000448613
0.000106442
0.000444705
0.000114494
0.000440489
0.000122472
0.000436011
0.000130369
0.000431241
0.000138183
0.000426156
0.000145903
0.000420819
0.000153528
0.000415185
0.000161052
0.000409267
0.000168469
0.000403088
0.00017578
0.000396605
0.000182977
0.000389878
0.000190059
0.000382858
0.000197021
0.000375587
0.00020386
0.000368038
0.000210571
0.000360238
0.00021715
0.000352173
0.000223593
0.000343863
0.000229894
0.000335298
0.000236048
0.0003265
0.000242051
0.000317457
0.000247894
0.000308196
0.000253575
0.000298703
0.000259085
0.000289008
0.00026442
0.000279096
0.000269575
0.000268996
0.000274543
0.000258702
0.00027932
0.00024823
0.000283901
0.000237587
0.000288281
0.000226779
0.000292456
0.000215821
0.000296423
0.000204712
0.000300176
0.000193471
0.000303714
0.0001821
0.000307033
0.000170609
0.000310129
0.000159007
0.000313001
0.000147299
0.000315645
0.000135498
0.000318059
0.000123609
0.00032024
0.00011164
0.000322185
9.95999e-05
0.000323891
8.74963e-05
0.000325356
7.53397e-05
0.000326575
6.31392e-05
0.000327546
5.09067e-05
0.000328269
3.86532e-05
0.000328743
2.638e-05
0.00032899
1.4182e-05
2.08884e-06
0.000329042
7.78623e-06
0.000465714
1.10378e-08
1.56644e-05
0.000464764
2.36388e-05
0.000463356
3.16948e-05
0.000461698
3.98009e-05
0.000459912
4.79377e-05
0.000457908
5.60876e-05
0.000455673
6.42349e-05
0.000453192
7.23661e-05
0.000450453
8.04692e-05
0.000447445
8.85335e-05
0.000444162
9.65493e-05
0.0004406
0.000104509
0.000436748
0.000112408
0.000432594
0.000120235
0.000428187
0.000127985
0.000423495
0.000135655
0.000418489
0.000143236
0.000413241
0.000150726
0.000407699
0.00015812
0.000401876
0.000165414
0.000395799
0.000172606
0.000389417
0.000179689
0.000382799
0.000186663
0.000375888
0.000193521
0.000368733
0.00020026
0.000361303
0.000206874
0.000353627
0.00021336
0.000345691
0.000219711
0.000337515
0.000225924
0.000329089
0.00023199
0.000320437
0.000237906
0.000311545
0.000243665
0.000302441
0.000249261
0.00029311
0.000254688
0.000283584
0.000259941
0.000273846
0.000265014
0.000263927
0.000269902
0.000253817
0.000274599
0.000243535
0.000279102
0.000233087
0.000283405
0.000222478
0.000287504
0.000211724
0.000291397
0.000200821
0.000295079
0.000189792
0.000298546
0.000178634
0.000301797
0.00016736
0.000304827
0.000155978
0.000307635
0.000144493
0.000310218
0.000132917
0.000312572
0.000121255
0.000314697
0.000109516
0.000316589
9.77092e-05
0.000318245
8.5841e-05
0.000319663
7.39223e-05
0.000320841
6.19624e-05
0.000321776
4.99721e-05
0.000322469
3.79611e-05
0.00032292
2.59286e-05
0.000323139
1.39656e-05
2.09241e-06
0.000323133
7.65081e-06
0.000458053
1.29676e-08
1.53901e-05
0.000457028
2.32229e-05
0.000455526
3.11348e-05
0.000453789
3.90949e-05
0.000451955
4.70839e-05
0.000449922
5.50845e-05
0.000447676
6.30816e-05
0.000445198
7.10618e-05
0.000442476
7.90138e-05
0.000439496
8.69275e-05
0.000436252
9.47939e-05
0.000432738
0.000102606
0.00042894
0.00011036
0.000424843
0.000118045
0.000420506
0.000125657
0.000415888
0.000133193
0.000410957
0.000140645
0.000405794
0.00014801
0.000400338
0.000155285
0.000394605
0.000162463
0.000388625
0.000169544
0.000382339
0.000176521
0.000375827
0.000183391
0.000369022
0.000190148
0.00036198
0.00019679
0.000354666
0.000203309
0.000347113
0.000209701
0.000339303
0.00021596
0.00033126
0.000222081
0.000322972
0.000228056
0.000314465
0.000233882
0.000305723
0.000239551
0.000296777
0.000245058
0.000287607
0.000250397
0.00027825
0.000255562
0.000268684
0.000260547
0.000258945
0.000265349
0.000249019
0.000269961
0.000238927
0.000274379
0.000228672
0.0002786
0.00021826
0.000282619
0.000207708
0.000286433
0.00019701
0.000290038
0.000186189
0.000293431
0.000175243
0.00029661
0.000164184
0.000299571
0.000153019
0.000302312
0.000141754
0.000304831
0.0001304
0.000307126
0.000118963
0.000309194
0.00010745
0.000311032
9.58724e-05
0.00031264
8.42351e-05
0.000314015
7.25496e-05
0.000315154
6.08244e-05
0.000316058
4.907e-05
0.000316726
3.72948e-05
0.00031716
2.54971e-05
0.000317359
1.37656e-05
2.1277e-06
0.000317329
7.51974e-06
0.00045053
5.90758e-09
1.51201e-05
0.000449429
2.28117e-05
0.000447836
3.05803e-05
0.000446022
3.83954e-05
0.000444142
4.62381e-05
0.000442082
5.40917e-05
0.000439824
6.19413e-05
0.000437351
6.97744e-05
0.000434645
7.75801e-05
0.000431693
8.53488e-05
0.000428486
9.30724e-05
0.000425017
0.000100744
0.000421271
0.000108361
0.00041723
0.000115913
0.000412957
0.000123394
0.000408409
0.000130805
0.000403549
0.000138135
0.000398467
0.000145383
0.000393093
0.000152544
0.000387447
0.000159613
0.00038156
0.000166588
0.000375368
0.000173461
0.000368958
0.00018023
0.000362256
0.000186888
0.000355325
0.000193431
0.000348126
0.000199853
0.000340694
0.000206149
0.00033301
0.000212312
0.0003251
0.000218338
0.00031695
0.000224219
0.000308587
0.00022995
0.000299995
0.000235524
0.000291205
0.000240937
0.000282196
0.000246182
0.000273008
0.000251254
0.000263615
0.000256147
0.000254054
0.000260858
0.000244311
0.00026538
0.000234406
0.000269711
0.000224343
0.000273846
0.000214127
0.000277781
0.000203774
0.000281514
0.000193279
0.00028504
0.000182665
0.000288358
0.000171927
0.000291463
0.000161079
0.000294355
0.000150129
0.00029703
0.000139079
0.000299487
0.000127944
0.000301723
0.000116727
0.000303737
0.000105437
0.000305526
9.40836e-05
0.000307089
8.26724e-05
0.000308425
7.12145e-05
0.000309532
5.97181e-05
0.000310409
4.81932e-05
0.000311056
3.66475e-05
0.000311474
2.50789e-05
0.000311664
1.35775e-05
2.1646e-06
0.000311625
7.39094e-06
0.000443146
-5.07706e-09
1.48534e-05
0.000441969
2.24051e-05
0.000440287
3.00321e-05
0.000438398
3.77044e-05
0.000436472
4.54037e-05
0.000434385
5.31136e-05
0.000432118
6.082e-05
0.000429648
6.85108e-05
0.000426958
7.61756e-05
0.000424032
8.38056e-05
0.00042086
9.13928e-05
0.000417433
9.89315e-05
0.000413735
0.000106418
0.000409747
0.000113843
0.000405536
0.000121201
0.000401055
0.000128492
0.000396262
0.000135707
0.000391256
0.000142842
0.000385962
0.000149894
0.000380399
0.000156855
0.000374602
0.000163725
0.000368502
0.000170495
0.000362192
0.000177162
0.000355593
0.000183719
0.000348772
0.000190163
0.000341686
0.000196485
0.000334376
0.000202682
0.000326817
0.000208745
0.00031904
0.000214672
0.000311028
0.000220453
0.000302809
0.000226085
0.000294366
0.000231561
0.000285733
0.000236875
0.000276885
0.000242023
0.000267864
0.000246998
0.000258642
0.000251797
0.000249259
0.000256414
0.000239697
0.000260845
0.000229978
0.000265086
0.000220105
0.000269134
0.000210082
0.000272985
0.000199926
0.000276636
0.000189631
0.000280083
0.000179219
0.000283326
0.000168687
0.00028636
0.000158047
0.000289184
0.000147307
0.000291796
0.000136469
0.000294193
0.000125549
0.000296374
0.000114548
0.000298337
0.000103476
0.00030008
9.23416e-05
0.000301603
8.11512e-05
0.000302903
6.99154e-05
0.000303981
5.86421e-05
0.000304835
4.73408e-05
0.000305465
3.60188e-05
0.000305871
2.46739e-05
0.000306054
1.3394e-05
2.20821e-06
0.000306015
7.26337e-06
0.000435899
-1.38358e-08
1.45899e-05
0.000434644
2.2004e-05
0.000432874
2.94921e-05
0.000430911
3.70249e-05
0.000428941
4.45845e-05
0.000426828
5.21551e-05
0.000424549
5.9723e-05
0.000422082
6.72768e-05
0.000419406
7.48064e-05
0.000416505
8.23035e-05
0.000413365
8.97604e-05
0.000409979
9.71717e-05
0.000406327
0.000104534
0.000402387
0.000111837
0.000398235
0.000119077
0.000393817
0.000126253
0.000389089
0.000133355
0.000384157
0.000140379
0.00037894
0.000147323
0.000373459
0.000154178
0.00036775
0.000160943
0.00036174
0.000167608
0.000355529
0.000174172
0.000349032
0.000180626
0.000342321
0.000186966
0.000335349
0.000193186
0.000328159
0.00019928
0.000320726
0.000205241
0.000313082
0.000211064
0.000305207
0.000216743
0.000297133
0.000222273
0.000288839
0.000227646
0.000280362
0.00023286
0.000271674
0.000237908
0.000262819
0.000242785
0.000253767
0.000247487
0.000244559
0.000252009
0.000235176
0.000256348
0.00022564
0.0002605
0.000215955
0.000264461
0.000206122
0.000268228
0.00019616
0.000271799
0.000186061
0.00027517
0.000175849
0.000278339
0.000165519
0.000281305
0.000155082
0.000284063
0.000144549
0.000286614
0.000133919
0.000288955
0.000123208
0.000291084
0.000112419
0.000293
0.00010156
0.000294702
9.06402e-05
0.000296188
7.96654e-05
0.000297457
6.86463e-05
0.000298508
5.75906e-05
0.000299342
4.65073e-05
0.000299957
3.54034e-05
0.000300354
2.42765e-05
0.000300535
1.32148e-05
2.24246e-06
0.000300497
7.13636e-06
0.000428784
-1.92533e-08
1.433e-05
0.000427452
2.16099e-05
0.000425597
2.89627e-05
0.000423561
3.63598e-05
0.000421547
4.37841e-05
0.000419406
5.122e-05
0.000417116
5.86545e-05
0.000414651
6.60763e-05
0.000411988
7.3476e-05
0.000409108
8.08454e-05
0.000405999
8.81771e-05
0.00040265
9.54657e-05
0.000399042
0.000102708
0.000395149
0.000109893
0.000391053
0.000117018
0.000386696
0.000124081
0.00038203
0.000131071
0.00037717
0.000137986
0.000372028
0.000144822
0.000366627
0.000151569
0.000361006
0.000158227
0.000355085
0.000164787
0.000348974
0.000171245
0.000342578
0.000177593
0.000335976
0.000183828
0.000329118
0.000189941
0.000322049
0.000195929
0.000314742
0.000201785
0.00030723
0.000207502
0.000299493
0.000213076
0.000291563
0.000218502
0.000283417
0.000223772
0.000275095
0.000228884
0.000266565
0.000233831
0.000257875
0.000238609
0.000248991
0.000243215
0.000239956
0.000247643
0.00023075
0.000251891
0.000221395
0.000255954
0.000211894
0.00025983
0.000202248
0.000263516
0.000192477
0.000267008
0.000182571
0.000270305
0.000172554
0.000273404
0.000162422
0.000276303
0.000152185
0.000279
0.000141853
0.000281493
0.000131427
0.000283781
0.000120922
0.000285862
0.000110339
0.000287734
9.96885e-05
0.000289397
8.89785e-05
0.000290849
7.82143e-05
0.000292089
6.74068e-05
0.000293118
5.65634e-05
0.000293933
4.56928e-05
0.000294536
3.48018e-05
0.000294926
2.38875e-05
0.000295104
1.30356e-05
2.2784e-06
0.000295073
7.01063e-06
0.000421799
-2.36115e-08
1.40746e-05
0.00042039
2.12239e-05
0.000418449
2.84454e-05
0.000416341
3.57112e-05
0.000414283
4.30046e-05
0.000412114
5.03105e-05
0.000409812
5.76162e-05
0.000407347
6.49109e-05
0.000404695
7.21852e-05
0.000401836
7.94312e-05
0.000398755
8.66416e-05
0.000395442
9.3811e-05
0.000391874
0.000100936
0.000388027
0.000108006
0.000383985
0.000115017
0.000379687
0.000121968
0.000375083
0.000128847
0.000370293
0.000135653
0.000365226
0.000142379
0.000359903
0.000149018
0.00035437
0.000155568
0.000348538
0.000162019
0.000342525
0.000168369
0.000336231
0.000174609
0.000329739
0.000180735
0.000322994
0.000186741
0.000316046
0.000192621
0.000308864
0.000198368
0.000301484
0.000203979
0.000293884
0.000209447
0.000286097
0.000214767
0.000278099
0.000219933
0.00026993
0.000224943
0.000261557
0.00022979
0.00025303
0.00023447
0.000244312
0.00023898
0.000235448
0.000243316
0.000226416
0.000247474
0.000217239
0.000251451
0.000207918
0.000255244
0.000198456
0.00025885
0.000188872
0.000262268
0.000179154
0.000265493
0.000169329
0.000268525
0.00015939
0.00027136
0.00014935
0.000273998
0.000139216
0.000276437
0.000128988
0.000278675
0.000118684
0.000280711
0.000108304
0.000282542
9.78564e-05
0.000284169
8.73512e-05
0.00028559
7.67927e-05
0.000286805
6.61919e-05
0.000287812
5.55558e-05
0.000288612
4.48927e-05
0.000289204
3.42094e-05
0.000289588
2.35025e-05
0.000289767
1.28577e-05
2.30297e-06
0.000289739
6.88581e-06
0.00041494
-2.47789e-08
1.38241e-05
0.000413454
2.08469e-05
0.000411428
2.79412e-05
0.000409249
3.50801e-05
0.000407146
4.22468e-05
0.00040495
4.94271e-05
0.000402635
5.66082e-05
0.000400169
6.37798e-05
0.000397526
7.09325e-05
0.000394686
7.80585e-05
0.000391632
8.51506e-05
0.000388353
9.22032e-05
0.000384825
9.92125e-05
0.000381021
0.000106169
0.000377031
0.000113067
0.000372792
0.000119906
0.000368248
0.000126674
0.000363528
0.000133369
0.000358534
0.000139984
0.000353291
0.000146513
0.000347844
0.000152953
0.000342102
0.000159294
0.000336187
0.000165534
0.000329994
0.000171664
0.000323612
0.00017768
0.000316981
0.000183576
0.000310153
0.000189347
0.000303097
0.000194986
0.000295848
0.000200489
0.000288384
0.00020585
0.000280739
0.000211065
0.000272887
0.000216129
0.00026487
0.000221037
0.000256652
0.000225785
0.000248285
0.000230369
0.00023973
0.000234785
0.000231034
0.00023903
0.000222173
0.000243101
0.00021317
0.000246994
0.000204027
0.000250707
0.000194745
0.000254237
0.000185344
0.000257582
0.000175811
0.000260739
0.000166174
0.000263706
0.000156425
0.000266482
0.000146575
0.000269064
0.000136635
0.000271451
0.000126602
0.000273642
0.000116494
0.000275635
0.000106311
0.000277429
9.60633e-05
0.000279023
8.57583e-05
0.000280415
7.54008e-05
0.000281606
6.5002e-05
0.000282594
5.45682e-05
0.000283379
4.41079e-05
0.000283962
3.36276e-05
0.000284342
2.31233e-05
0.000284521
1.26781e-05
2.32811e-06
0.000284499
6.76241e-06
0.0004082
-2.11032e-08
1.35789e-05
0.000406638
2.04791e-05
0.000404529
2.74505e-05
0.000402279
3.44662e-05
0.000400132
4.15104e-05
0.000397908
4.85687e-05
0.000395578
5.5629e-05
0.00039311
6.26807e-05
0.000390476
6.97148e-05
0.000387654
7.67234e-05
0.000384626
8.36993e-05
0.000381379
9.06367e-05
0.00037789
9.75317e-05
0.000374128
0.000104375
0.00037019
0.00011116
0.000366008
0.000117886
0.000361524
0.000124543
0.000356874
0.000131126
0.000351954
0.00013763
0.000346789
0.000144047
0.000341429
0.000150375
0.000335776
0.000156605
0.00032996
0.000162733
0.000323868
0.000168752
0.000317595
0.000174658
0.000311077
0.000180443
0.00030437
0.000186104
0.000297438
0.000191635
0.00029032
0.000197031
0.00028299
0.000202286
0.000275486
0.000207397
0.000267777
0.000212358
0.00025991
0.000217167
0.000251845
0.000221818
0.000243636
0.000226308
0.000235241
0.000230633
0.00022671
0.00023479
0.000218016
0.000238776
0.000209185
0.000242588
0.000200215
0.000246224
0.00019111
0.00024968
0.000181888
0.000252956
0.000172536
0.000256047
0.000163083
0.000258953
0.000153519
0.000261671
0.000143857
0.000264201
0.000134105
0.000266539
0.000124263
0.000268686
0.000114347
0.000270639
0.000104358
0.000272397
9.43044e-05
0.000273959
8.41952e-05
0.000275325
7.40342e-05
0.000276494
6.38327e-05
0.000277464
5.35968e-05
0.000278237
4.33347e-05
0.000278811
3.30525e-05
0.000279187
2.27462e-05
0.000279367
1.24985e-05
2.34175e-06
0.00027935
6.64039e-06
0.000401576
-1.43009e-08
1.3339e-05
0.000399942
2.01206e-05
0.00039775
2.69726e-05
0.00039543
3.3869e-05
0.000393238
4.0794e-05
0.000390985
4.77336e-05
0.000388641
5.46759e-05
0.000386171
6.16104e-05
0.000383545
6.85281e-05
0.000380739
7.54211e-05
0.000377736
8.22822e-05
0.000374521
8.91054e-05
0.000371069
9.58867e-05
0.000367349
0.000102617
0.000363464
0.000109289
0.000359339
0.000115903
0.000354914
0.000122446
0.000350333
0.000128917
0.000345486
0.000135308
0.000340401
0.000141613
0.000335128
0.000147829
0.000329563
0.000153946
0.000323845
0.000159962
0.000317855
0.000165869
0.000311691
0.000171664
0.000305286
0.000177339
0.000298697
0.000182891
0.000291889
0.000188314
0.0002849
0.000193604
0.000277703
0.000198754
0.000270337
0.000203763
0.000262771
0.000208624
0.000255051
0.000213335
0.000247136
0.000217891
0.000239082
0.00022229
0.000230845
0.000226526
0.000222476
0.000230598
0.000213946
0.000234503
0.000205282
0.000238237
0.000196483
0.000241798
0.00018755
0.000245184
0.000178504
0.000248392
0.000169329
0.000251421
0.000160055
0.000254268
0.000150672
0.000256932
0.000141193
0.000259411
0.000131627
0.000261704
0.000121971
0.000263808
0.000112244
0.000265723
0.000102443
0.000267448
9.25801e-05
0.000268981
8.26624e-05
0.000270322
7.26936e-05
0.000271469
6.26851e-05
0.000272424
5.26428e-05
0.000273184
4.25745e-05
0.000273751
3.24863e-05
0.000274124
2.23736e-05
0.000274304
1.23168e-05
2.35583e-06
0.000274294
6.52063e-06
0.000395063
-6.29046e-09
1.31047e-05
0.000393358
1.97709e-05
0.000391084
2.65068e-05
0.000388694
3.32868e-05
0.000386459
4.00955e-05
0.000384178
4.69192e-05
0.000381818
5.37458e-05
0.000379345
6.05651e-05
0.000376727
6.73681e-05
0.000373937
7.41468e-05
0.000370958
8.08939e-05
0.000367776
8.76036e-05
0.000364361
9.42715e-05
0.000360683
0.000100888
0.000356849
0.000107448
0.000352781
0.000113948
0.000348415
0.000120378
0.000343904
0.000126736
0.000339131
0.000133014
0.000334124
0.000139206
0.000328938
0.000145309
0.000323462
0.000151313
0.000317842
0.000157218
0.000311953
0.000163014
0.000305896
0.000168698
0.000299604
0.000174264
0.000293133
0.000179708
0.000286447
0.000185024
0.000279585
0.000190209
0.00027252
0.000195257
0.000265291
0.000200165
0.000257864
0.000204929
0.000250289
0.000209545
0.000242521
0.000214009
0.00023462
0.000218318
0.000226537
0.000222469
0.000218326
0.000226459
0.000209957
0.000230284
0.000201457
0.000233943
0.000192825
0.000237433
0.00018406
0.000240751
0.000175186
0.000243896
0.000166184
0.000246864
0.000157086
0.000249656
0.000147881
0.000252267
0.000138581
0.000254698
0.000129196
0.000256946
0.000119722
0.00025901
0.000110178
0.00026089
0.000100563
0.000262582
9.08864e-05
0.000264088
8.1156e-05
0.000265405
7.13753e-05
0.000266533
6.15556e-05
0.000267472
5.17027e-05
0.000268222
4.1824e-05
0.000268781
3.19256e-05
0.000269151
2.20024e-05
0.000269334
1.21348e-05
2.3588e-06
0.000269327
6.40281e-06
0.000388659
2.24561e-09
1.28755e-05
0.000386888
1.94292e-05
0.000384533
2.60519e-05
0.000382074
3.27182e-05
0.000379795
3.9413e-05
0.000377485
4.61226e-05
0.000375111
5.28354e-05
0.000372635
5.9541e-05
0.000370024
6.62305e-05
0.000367251
7.28959e-05
0.000364296
7.95297e-05
0.000361145
8.61262e-05
0.000357768
9.26808e-05
0.000354131
9.91842e-05
0.000350348
0.000105631
0.000346337
0.000112017
0.000342032
0.000118335
0.00033759
0.000124578
0.00033289
0.000130744
0.000327962
0.000136822
0.000322862
0.000142813
0.000317475
0.000148705
0.000311952
0.000154498
0.000306163
0.000160184
0.000300214
0.000165759
0.000294031
0.000171217
0.000287677
0.000176554
0.000281112
0.000181766
0.000274376
0.000186848
0.00026744
0.000191796
0.000260345
0.000196607
0.000253056
0.000201275
0.000245623
0.000205799
0.000237999
0.000210174
0.000230247
0.000214397
0.000222315
0.000218465
0.00021426
0.000222375
0.000206049
0.000226124
0.000197709
0.000229711
0.00018924
0.000233132
0.000180641
0.000236384
0.000171934
0.000239468
0.000163102
0.000242379
0.000154176
0.000245116
0.000145144
0.000247678
0.00013602
0.000250063
0.000126812
0.000252269
0.000117516
0.000254295
0.000108153
0.000256139
9.87188e-05
0.000257802
8.92241e-05
0.00025928
7.96772e-05
0.000260575
7.00806e-05
0.000261685
6.04458e-05
0.000262609
5.07783e-05
0.000263348
4.10852e-05
0.000263901
3.13727e-05
0.000264268
2.16352e-05
0.000264451
1.19507e-05
2.36239e-06
0.00026445
6.28745e-06
0.000382362
1.16147e-08
1.26511e-05
0.000380524
1.90949e-05
0.000378089
2.56065e-05
0.000375563
3.21612e-05
0.000373241
3.8744e-05
0.000370903
4.53414e-05
0.000368515
5.19418e-05
0.000366036
5.85349e-05
0.000363432
6.51118e-05
0.000360675
7.16645e-05
0.000357744
7.81856e-05
0.000354625
8.46692e-05
0.000351285
9.11108e-05
0.000347691
9.75011e-05
0.000343959
0.000103834
0.000340006
0.000110108
0.000335759
0.000116312
0.000331387
0.000122443
0.00032676
0.000128495
0.000321911
0.000134462
0.000316897
0.00014034
0.000311598
0.000146122
0.000306172
0.000151804
0.000300482
0.000157381
0.000294638
0.000162848
0.000288566
0.0001682
0.000282327
0.000173433
0.000275879
0.000178542
0.000269268
0.000183525
0.000262459
0.000188375
0.000255496
0.00019309
0.000248341
0.000197666
0.000241047
0.0002021
0.000233566
0.000206388
0.00022596
0.000210528
0.000218176
0.000214516
0.000210272
0.000218349
0.000202215
0.000222025
0.000194033
0.000225542
0.000185723
0.000228896
0.000177286
0.000232087
0.000168743
0.000235111
0.000160077
0.000237967
0.000151319
0.000240652
0.000142458
0.000243166
0.000133505
0.000245506
0.00012447
0.000247672
0.00011535
0.000249661
0.000106162
0.000251472
9.69059e-05
0.000253105
8.75897e-05
0.000254559
7.82224e-05
0.000255832
6.88061e-05
0.000256924
5.93524e-05
0.000257834
4.98665e-05
0.000258563
4.03553e-05
0.000259109
3.08248e-05
0.000259474
2.12692e-05
0.000259659
1.17662e-05
2.35549e-06
0.000259661
6.17405e-06
0.000376168
2.04403e-08
1.24312e-05
0.000374269
1.8767e-05
0.000371756
2.51696e-05
0.000369163
3.16144e-05
0.000366798
3.80867e-05
0.000364433
4.45732e-05
0.000362031
5.10623e-05
0.000359549
5.75438e-05
0.000356953
6.40089e-05
0.000354212
7.04495e-05
0.000351306
7.68584e-05
0.000348218
8.32296e-05
0.000344917
8.95586e-05
0.000341365
9.58361e-05
0.000337684
0.000102056
0.000333788
0.000108217
0.000329601
0.000114309
0.000325298
0.000120327
0.000320745
0.000126267
0.000315973
0.000132123
0.000311044
0.00013789
0.000305833
0.000143562
0.000300502
0.000149136
0.00029491
0.000154606
0.000289172
0.000159967
0.000283207
0.000165215
0.000277081
0.000170346
0.000270751
0.000175356
0.00026426
0.00018024
0.000257576
0.000184996
0.000250743
0.000189618
0.00024372
0.000194105
0.000236563
0.000198452
0.00022922
0.000202656
0.000221757
0.000206715
0.000214119
0.000210625
0.000206364
0.000214384
0.000198458
0.00021799
0.000190429
0.000221439
0.000182275
0.000224729
0.000173996
0.000227859
0.000165615
0.000230826
0.000157111
0.000233628
0.000148518
0.000236264
0.000139822
0.000238731
0.000131038
0.000241029
0.000122173
0.000243155
0.000113223
0.000245109
0.000104209
0.000246889
9.51259e-05
0.000248494
8.59846e-05
0.000249922
7.67932e-05
0.000251175
6.75536e-05
0.000252249
5.82773e-05
0.000253146
4.89693e-05
0.000253865
3.96363e-05
0.000254405
3.02843e-05
0.000254767
2.0907e-05
0.000254952
1.15799e-05
2.34954e-06
0.00025496
6.06311e-06
0.000370078
2.84165e-08
1.22153e-05
0.000368117
1.84449e-05
0.000365526
2.47399e-05
0.000362868
3.10762e-05
0.000360462
3.74393e-05
0.000358071
4.3816e-05
0.000355654
5.01948e-05
0.000353171
5.65656e-05
0.000350583
6.29195e-05
0.000347859
6.92488e-05
0.000344978
7.5546e-05
0.000341922
8.18053e-05
0.000338658
8.80222e-05
0.000335149
9.41876e-05
0.00033152
0.000100296
0.00032768
0.000106345
0.000323554
0.000112324
0.00031932
0.000118231
0.000314838
0.000124061
0.000310145
0.000129806
0.0003053