/*--------------------------------*- C++ -*----------------------------------*\
  =========                 |
  \\      /  F ield         | OpenFOAM: The Open Source CFD Toolbox
   \\    /   O peration     | Website:  https://openfoam.org
    \\  /    A nd           | Version:  6.0
     \\/     M anipulation  |
\*---------------------------------------------------------------------------*/
FoamFile
{
    version     2.0;
    format      ascii;
    class       surfaceScalarField;
    location    "11";
    object      phi;
}
// * * * * * * * * * * * * * * * * * * * * * * * * * * * * * * * * * * * * * //

dimensions      [0 3 -1 0 0 0 0];

internalField   nonuniform List<scalar> 
93586
(
2.34343e-05
0.00154673
-9.94578e-08
4.70555e-05
0.00154218
7.08029e-05
0.00153353
9.45271e-05
0.00152078
0.000118118
0.00150389
0.0001415
0.00148283
0.000164591
0.00145762
0.000187307
0.00142834
0.000209555
0.00139511
0.000231246
0.00135808
0.000252295
0.00131738
0.000272638
0.00127313
0.000292214
0.00122543
0.000310978
0.00117436
0.000328881
0.00112002
0.000345882
0.00106253
0.000361935
0.00100202
0.000376998
0.000938665
0.000391024
0.000872648
0.000403976
0.000804171
0.000415813
0.000733448
0.000426501
0.000660687
0.000436007
0.000586102
0.000444304
0.000509893
0.000451369
0.000432251
0.000457183
0.000353362
0.000461704
0.000273338
0.000465218
0.000192066
0.000466562
0.000110551
2.34721e-05
0.000457442
2.29695e-05
0.00152383
-6.34612e-08
4.61754e-05
0.00151898
6.95374e-05
0.00151017
9.29122e-05
0.00149742
0.000116185
0.00148063
0.000139266
0.00145976
0.000162057
0.00143484
0.000184463
0.00140595
0.000206383
0.00137321
0.000227734
0.00133675
0.000248435
0.00129669
0.000268436
0.00125314
0.000287683
0.00120619
0.000306137
0.00115592
0.000323753
0.00110242
0.000340491
0.0010458
0.000356303
0.000986217
0.000371147
0.000923826
0.000384973
0.000858823
0.000397744
0.000791401
0.000409416
0.000721773
0.000419956
0.000650143
0.00042933
0.000576721
0.000437514
0.000501702
0.000444476
0.000425277
0.000450209
0.000347617
0.000454651
0.000268882
0.000457784
0.000188916
0.000459154
0.000109162
2.62335e-05
0.000456369
2.25568e-05
0.00150128
-1.30511e-08
4.54119e-05
0.00149612
6.84399e-05
0.00148714
9.1495e-05
0.00147436
0.000114454
0.00145767
0.000137214
0.001437
0.00015967
0.00141238
0.000181725
0.0013839
0.000203283
0.00135165
0.000224271
0.00131576
0.000244618
0.00127635
0.000264281
0.00123348
0.000283212
0.00118726
0.000301375
0.00113776
0.000318722
0.00108507
0.000335214
0.00102931
0.000350799
0.000970632
0.000365433
0.000909194
0.000379065
0.00084519
0.000391656
0.000778811
0.000403163
0.000710267
0.000413554
0.000639755
0.000422793
0.000567484
0.000430856
0.000493643
0.000437711
0.000418425
0.000443344
0.000341989
0.000447708
0.000264523
0.000450661
0.000185971
0.000452055
0.000107775
2.76677e-05
0.00045063
2.21976e-05
0.00147906
2.51611e-08
4.47342e-05
0.00147358
6.74452e-05
0.00146443
9.01798e-05
0.00145163
0.000112808
0.00143504
0.000135223
0.0014146
0.00015732
0.00139029
0.000179005
0.00136223
0.000200194
0.00133047
0.00022082
0.00129515
0.000240823
0.00125635
0.000260164
0.00121415
0.000278795
0.00116863
0.000296682
0.00111988
0.000313774
0.00106798
0.000330028
0.00101306
0.000345392
0.000955269
0.000359819
0.000894769
0.000373259
0.000831748
0.000385671
0.000766398
0.000397012
0.00069892
0.000407251
0.000629512
0.000416351
0.000558375
0.00042429
0.000485696
0.000431034
0.00041167
0.000436559
0.000336452
0.000440827
0.000260241
0.000443713
0.000183069
0.000445099
0.00010637
2.86206e-05
0.000444118
2.18655e-05
0.00145714
4.75729e-08
4.40895e-05
0.00145136
6.64814e-05
0.00144204
8.88863e-05
0.00142923
0.000111171
0.00141275
0.00013323
0.00139254
0.00015496
0.00136856
0.000176277
0.00134091
0.000197103
0.00130964
0.000217382
0.00127487
0.000237056
0.00123667
0.00025609
0.00119512
0.000274437
0.00115028
0.00029206
0.00110225
0.000308904
0.00105113
0.000324928
0.000997038
0.000340073
0.000940121
0.000354297
0.000880547
0.000367544
0.0008185
0.000379778
0.000754167
0.000390953
0.000687746
0.00040104
0.000619429
0.000410001
0.000549416
0.000417815
0.000477889
0.000424448
0.000405042
0.000429872
0.000331037
0.000434047
0.000256074
0.000436877
0.00018025
0.000438334
0.000104924
2.90739e-05
0.000437894
2.15439e-05
0.00143554
5.85736e-08
4.34513e-05
0.00142945
6.55172e-05
0.00141997
8.75843e-05
0.00140717
0.00010952
0.00139082
0.00013122
0.00137085
0.000152587
0.0013472
0.000173546
0.00131996
0.000194024
0.00128916
0.000213972
0.00125493
0.000233335
0.00121731
0.000252078
0.00117638
0.000270153
0.00113221
0.00028752
0.00108489
0.000304125
0.00103453
0.000319921
0.000981244
0.000334852
0.000925189
0.000348873
0.000866527
0.00036193
0.000805439
0.000373985
0.000742109
0.000384995
0.000676731
0.00039493
0.00060949
0.000403754
0.000540583
0.000411444
0.000470192
0.000417969
0.000398507
0.000423297
0.000325697
0.000427391
0.000251967
0.00043017
0.000177456
0.000431678
0.000103397
2.90614e-05
0.000431662
2.12262e-05
0.00141424
7.10249e-08
4.28119e-05
0.00140786
6.45459e-05
0.00139823
8.62713e-05
0.00138544
0.000107857
0.00136923
0.000129202
0.0013495
0.000150217
0.00132618
0.00017083
0.00129935
0.000190977
0.00126901
0.00021061
0.00123529
0.000229677
0.00119824
0.000248143
0.00115791
0.000265956
0.00111439
0.000283075
0.00106777
0.000299444
0.00101816
0.000315017
0.000965672
0.000329735
0.00091047
0.000343553
0.00085271
0.000356419
0.000792573
0.000368297
0.000730236
0.000379141
0.000665888
0.000388925
0.000599712
0.000397612
0.000531901
0.000405179
0.000462633
0.000411595
0.000392098
0.000416831
0.000320472
0.00042085
0.000247958
0.000423586
0.000174733
0.000425109
0.000101888
2.88573e-05
0.000425332
2.09101e-05
0.00139326
7.37615e-08
4.21701e-05
0.00138661
6.35693e-05
0.00137684
8.49525e-05
0.00136406
0.000106191
0.00134799
0.00012719
0.00132851
0.000147863
0.00130551
0.000168146
0.00127907
0.000187977
0.00124918
0.00020731
0.00121597
0.000226094
0.00117945
0.000244292
0.00113972
0.000261851
0.00109684
0.000278728
0.0010509
0.000294864
0.00100202
0.000310215
0.000950324
0.00032472
0.000895963
0.000338336
0.000839094
0.000351011
0.000779893
0.00036271
0.000718535
0.000373389
0.000655203
0.000383021
0.000590076
0.000391569
0.000523344
0.000399013
0.000455182
0.000405321
0.00038578
0.000410466
0.000315316
0.000414413
0.000243998
0.000417111
0.000172021
0.000418626
0.000100356
2.84971e-05
0.000418958
2.05952e-05
0.00137259
6.53116e-08
4.15273e-05
0.00136567
6.25916e-05
0.00135577
8.36351e-05
0.00134301
0.000104533
0.00132709
0.000125195
0.00130784
0.000145539
0.00128516
0.000165505
0.0012591
0.000185033
0.00122965
0.000204079
0.00119692
0.00022259
0.00116094
0.000240528
0.00112178
0.000257837
0.00107952
0.000274475
0.00103426
0.00029038
0.000986109
0.000305509
0.000935196
0.000319801
0.000881669
0.000333215
0.000825683
0.000345698
0.00076741
0.000357218
0.00070702
0.00036773
0.000644693
0.000377209
0.000580604
0.00038562
0.000514939
0.000392941
0.000447871
0.00039914
0.000379589
0.000404195
0.000310274
0.000408072
0.000240134
0.000410733
0.000169375
0.000412231
9.88738e-05
2.8154e-05
0.000412597
2.02815e-05
0.00135226
5.18687e-08
4.08862e-05
0.00134507
6.16178e-05
0.00133504
8.23267e-05
0.00132231
0.000102892
0.00130653
0.000123227
0.00128751
0.000143254
0.00126513
0.000162915
0.00123945
0.000182151
0.00121041
0.00020092
0.00117815
0.000219165
0.00114269
0.000236847
0.0011041
0.000253911
0.00106246
0.00027031
0.00101786
0.000285986
0.000970433
0.000300892
0.000920292
0.000314971
0.000867587
0.000328181
0.000812473
0.000340472
0.000755114
0.000351812
0.000695679
0.000362158
0.000634342
0.000371485
0.000571273
0.000379757
0.000506658
0.000386955
0.000440667
0.000393048
0.000373486
0.000398013
0.000305299
0.000401822
0.000236312
0.000404446
0.000166738
0.000405922
9.73812e-05
2.77606e-05
0.000406287
1.99699e-05
0.00133225
4.00361e-08
4.02499e-05
0.00132478
6.06534e-05
0.00131463
8.10344e-05
0.00130193
0.000101276
0.00128628
0.000121294
0.00126749
0.000141014
0.00124541
0.00016038
0.00122008
0.000179334
0.00119145
0.000197831
0.00115965
0.000215815
0.0011247
0.000233246
0.00108667
0.000250065
0.00104563
0.000266227
0.0010017
0.000281672
0.000954984
0.000296356
0.000905609
0.000310221
0.000853721
0.000323228
0.000799469
0.000335327
0.000743016
0.000346487
0.000684524
0.000356666
0.000624166
0.000365841
0.000562107
0.000373976
0.000498529
0.000381052
0.000433601
0.000387039
0.000367508
0.000391917
0.000300435
0.00039566
0.000232583
0.000398245
0.000164169
0.000399698
9.59467e-05
2.74357e-05
0.000400049
1.96612e-05
0.00131256
3.01229e-08
3.96211e-05
0.00130483
5.97028e-05
0.00129455
7.97635e-05
0.00128187
9.96899e-05
0.00126636
0.0001194
0.00124779
0.000138823
0.00122599
0.000157902
0.00120101
0.00017658
0.00117278
0.000194811
0.00114143
0.000212538
0.00110698
0.000229718
0.00106949
0.000246293
0.00102906
0.000262218
0.00098578
0.000277432
0.000939768
0.000291894
0.00089115
0.000305545
0.000840067
0.000318349
0.000786665
0.000330255
0.000731104
0.000341236
0.000673542
0.000351249
0.000614146
0.000360273
0.00055308
0.000368272
0.000490522
0.000375228
0.000426639
0.000381112
0.000361615
0.000385905
0.000295633
0.000389583
0.000228893
0.000392129
0.00016161
0.000393558
9.4502e-05
2.70745e-05
0.000393892
1.93567e-05
0.00129318
2.01499e-08
3.90024e-05
0.00128517
5.87693e-05
0.00127478
7.85177e-05
0.00126212
9.81373e-05
0.00124673
0.000117549
0.00122838
0.000136681
0.00120685
0.00015548
0.0011822
0.000173887
0.00115436
0.000191855
0.00112346
0.000209326
0.0010895
0.000226257
0.00105256
0.000242589
0.00101272
0.000258277
0.000970092
0.00027326
0.00092478
0.000287499
0.000876913
0.000300936
0.000826628
0.000313537
0.000774068
0.000325253
0.000719389
0.000336056
0.000662745
0.000345905
0.000604301
0.00035478
0.000544214
0.000362644
0.000482664
0.000369482
0.000419813
0.000375265
0.000355843
0.000379975
0.000290939
0.000383589
0.000225294
0.000386096
0.000159121
0.000387502
9.31162e-05
2.67847e-05
0.000387821
1.90569e-05
0.00127411
1.34299e-08
3.83951e-05
0.00126584
5.78547e-05
0.00125532
7.72987e-05
0.00124268
9.66194e-05
0.00122741
0.000115739
0.00120926
0.000134588
0.001188
0.000153111
0.00116369
0.000171251
0.00113623
0.000188958
0.00110575
0.000206175
0.00107228
0.000222857
0.00103588
0.000238945
0.000996633
0.000254396
0.000954644
0.000269149
0.000910025
0.000283166
0.000862898
0.000296391
0.0008134
0.000308791
0.000761669
0.000320317
0.000707858
0.000330944
0.000652118
0.000340631
0.000594607
0.000349358
0.000535484
0.000357091
0.000474923
0.000363813
0.000413086
0.000369496
0.000350151
0.000374125
0.000286301
0.000377679
0.000221728
0.000380146
0.000156642
0.000381529
9.17174e-05
2.64515e-05
0.000381836
1.87623e-05
0.00125533
1.18653e-08
3.78002e-05
0.0012468
5.696e-05
0.00123616
7.6107e-05
0.00122353
9.51357e-05
0.00120838
0.00011397
0.00119042
0.00013254
0.00116942
0.000150792
0.00114543
0.000168667
0.00111834
0.000186115
0.0010883
0.000203078
0.00105531
0.000219512
0.00101944
0.000235358
0.000980782
0.000250572
0.00093943
0.000265095
0.000895497
0.000278891
0.000849104
0.000291905
0.000800384
0.000304105
0.000749474
0.000315444
0.00069652
0.000325897
0.000641671
0.000335424
0.000585084
0.000344006
0.000526912
0.00035161
0.000467327
0.000358219
0.00040649
0.000363805
0.000344576
0.000368356
0.000281767
0.00037185
0.00021825
0.000374278
0.000154233
0.000375641
9.03764e-05
2.61845e-05
0.000375939
1.84731e-05
0.00123684
1.42126e-08
3.72178e-05
0.00122805
5.60849e-05
0.00121729
7.49418e-05
0.00120467
9.36848e-05
0.00118964
0.000112239
0.00117188
0.000130535
0.00115113
0.000148519
0.00112745
0.00016613
0.00110073
0.000183321
0.00107112
0.000200031
0.0010386
0.000216218
0.00100326
0.000231821
0.000965179
0.000246799
0.000924455
0.000261095
0.000881199
0.000274671
0.00083553
0.000287476
0.000787576
0.000299479
0.000737472
0.000310633
0.000685361
0.000320915
0.000631389
0.000330285
0.000575708
0.000338725
0.000518469
0.000346201
0.000459843
0.0003527
0.000399987
0.000358192
0.000339074
0.000362667
0.000277285
0.000366103
0.000214803
0.000368494
0.000151831
0.000369836
8.90193e-05
2.58663e-05
0.000370129
1.81894e-05
0.00121863
1.79374e-08
3.66476e-05
0.00120959
5.52286e-05
0.0011987
7.38015e-05
0.0011861
9.22642e-05
0.00117117
0.000110542
0.00115359
0.000128568
0.0011331
0.000146286
0.00110973
0.000163636
0.00108338
0.000180571
0.00105418
0.000197029
0.00102214
0.000212969
0.000987318
0.000228331
0.000949811
0.000243075
0.00090971
0.000257145
0.000867126
0.000270505
0.000822172
0.000283103
0.000774976
0.000294911
0.000725669
0.000305883
0.000674391
0.000315996
0.000621283
0.000325212
0.000566497
0.000333513
0.000510179
0.000340865
0.000452499
0.000347255
0.00039361
0.000352656
0.000333685
0.000357057
0.000272902
0.000360438
0.000211439
0.000362792
0.000149498
0.000364115
8.77185e-05
2.56102e-05
0.000364405
1.7911e-05
0.0012007
2.2993e-08
3.60891e-05
0.00119141
5.43899e-05
0.00118041
7.26842e-05
0.00116781
9.08713e-05
0.00115299
0.000108878
0.00113559
0.000126636
0.00111534
0.00014409
0.00109228
0.000161181
0.00106629
0.000177861
0.0010375
0.000194069
0.00100593
0.000209763
0.000971627
0.000224886
0.000934687
0.000239398
0.000895202
0.000253244
0.000853278
0.000266389
0.000809029
0.000278784
0.000762578
0.000290401
0.000714054
0.000301193
0.000663593
0.000311141
0.000611335
0.000320205
0.000557426
0.00032837
0.000502012
0.000335601
0.00044526
0.000341886
0.00038732
0.000347198
0.000328364
0.000351528
0.000268566
0.000354854
0.000208102
0.000357172
0.000147169
0.000358478
8.63987e-05
2.52979e-05
0.000358766
1.76377e-05
0.00118302
2.92673e-08
3.55415e-05
0.0011735
5.35674e-05
0.00116237
7.15879e-05
0.00114978
8.95035e-05
0.00113506
0.000107241
0.00111785
0.000124734
0.00109784
0.000141927
0.00107509
0.000158761
0.00104945
0.000175187
0.00102107
0.000191147
0.000989961
0.000206598
0.000956173
0.000221483
0.000919795
0.000235766
0.000880919
0.00024939
0.000839649
0.000262324
0.000796096
0.000274519
0.000750382
0.000285947
0.00070263
0.000296564
0.000652977
0.00030635
0.000601557
0.000315266
0.000548515
0.000323297
0.000493992
0.00033041
0.000438155
0.000336593
0.000381152
0.000341818
0.000323151
0.000346078
0.000264325
0.000349352
0.000204845
0.000351635
0.000144907
0.000352924
8.51341e-05
2.50455e-05
0.000353212
1.73692e-05
0.00116562
3.55361e-08
3.5004e-05
0.00115587
5.27596e-05
0.00114462
7.05106e-05
0.00113204
8.81583e-05
0.00111742
0.000105631
0.00110039
0.000122861
0.00108061
0.000139795
0.00105816
0.000156373
0.00103287
0.000172548
0.0010049
0.000188261
0.000974248
0.000203471
0.000940967
0.000218122
0.000905143
0.000232178
0.000866867
0.000245584
0.000826241
0.00025831
0.000783373
0.000270307
0.000738382
0.00028155
0.000691389
0.000291995
0.000642528
0.000301622
0.00059193
0.000310393
0.000539737
0.000318294
0.00048609
0.000325291
0.000431151
0.000331374
0.000375066
0.000336515
0.000318001
0.000340707
0.000260127
0.00034393
0.000201612
0.000346181
0.000142647
0.000347453
8.38482e-05
2.4734e-05
0.000347741
1.71053e-05
0.00114847
4.06518e-08
3.44756e-05
0.00113849
5.19652e-05
0.00112712
6.94504e-05
0.00111454
8.68335e-05
0.00110003
0.000104044
0.00108317
0.000121014
0.00106364
0.000137691
0.00104148
0.000154016
0.00101654
0.000169942
0.000988974
0.00018541
0.000958772
0.000200382
0.000925992
0.000214801
0.000890717
0.000228633
0.000853035
0.000241824
0.000813045
0.000254346
0.000770853
0.000266149
0.000726576
0.000277211
0.000680333
0.000287486
0.000632253
0.000296958
0.000582466
0.000305587
0.000531112
0.000313361
0.000478328
0.000320245
0.000424275
0.000326231
0.000369096
0.00033129
0.000312955
0.000335416
0.00025602
0.00033859
0.000198456
0.000340808
0.000140452
0.000342065
8.26167e-05
2.44818e-05
0.000342354
1.68456e-05
0.00113158
4.47027e-08
3.39556e-05
0.00112139
5.1183e-05
0.0011099
6.84057e-05
0.00109733
8.55274e-05
0.00108291
0.000102478
0.00106623
0.000119191
0.00104693
0.000135614
0.00102506
0.000151687
0.00100046
0.000167367
0.000973299
0.000182593
0.000943545
0.000197329
0.00091126
0.00021152
0.000876525
0.000225131
0.000839427
0.000238111
0.000800062
0.000250432
0.000758535
0.000262045
0.000714959
0.000272929
0.000669451
0.000283039
0.000622138
0.000292358
0.000573147
0.000300849
0.000522616
0.000308498
0.000470678
0.000315272
0.000417493
0.000321163
0.000363203
0.000326142
0.000307967
0.000330204
0.000251952
0.00033333
0.00019532
0.000335516
0.000138256
0.000336758
8.13622e-05
2.41688e-05
0.000337048
1.65899e-05
0.00111494
4.79058e-08
3.34433e-05
0.00110453
5.04119e-05
0.00109292
6.73754e-05
0.00108036
8.42385e-05
0.00106604
0.000100932
0.00104953
0.00011739
0.00103046
0.000133561
0.00100889
0.000149386
0.000984629
0.000164822
0.00095786
0.000179809
0.000928548
0.000194313
0.000896753
0.000208279
0.000862553
0.000221674
0.000826031
0.000234446
0.000787285
0.000246569
0.000746414
0.000257996
0.00070353
0.000268705
0.000658748
0.000278653
0.000612191
0.000287823
0.000563985
0.000296178
0.000514265
0.000303705
0.000463163
0.000310372
0.000410835
0.000316169
0.000357421
0.000321071
0.000303079
0.00032507
0.000247972
0.000328149
0.00019226
0.000330305
0.000136124
0.000331532
8.01616e-05
2.39152e-05
0.000331824
1.63377e-05
0.00109855
5.01929e-08
3.29381e-05
0.00108793
4.96511e-05
0.00107622
6.63585e-05
0.00106366
8.29659e-05
0.00104944
9.94051e-05
0.0010331
0.000115611
0.00101426
0.000131533
0.000992972
0.000147113
0.000969051
0.000162307
0.000942671
0.000177059
0.000913796
0.000191334
0.000882483
0.000205078
0.000848808
0.00021826
0.000812854
0.000230827
0.000774714
0.000242757
0.000734487
0.000254001
0.000692283
0.00026454
0.000648212
0.000274328
0.000602398
0.000283352
0.000554962
0.000291574
0.000506038
0.000298983
0.000455754
0.000305544
0.000404267
0.00031125
0.000351712
0.000316076
0.000298246
0.000320015
0.000244029
0.000323048
0.000189216
0.000325174
0.000133989
0.000326387
7.89367e-05
2.36001e-05
0.00032668
1.60892e-05
0.0010824
5.1485e-08
3.24397e-05
0.00107157
4.89001e-05
0.00105974
6.53541e-05
0.00104719
8.17087e-05
0.00103307
9.78965e-05
0.0010169
0.000113853
0.000998291
0.000129529
0.000977291
0.000144866
0.000953704
0.000159823
0.000927709
0.000174343
0.000899266
0.000188392
0.00086843
0.000201918
0.000835275
0.00021489
0.000799881
0.000227257
0.000762341
0.000238997
0.00072275
0.000250062
0.000681215
0.000260432
0.000637847
0.000270065
0.000592765
0.000278946
0.000546089
0.000287038
0.00049795
0.00029433
0.000448475
0.000300788
0.000397817
0.000306406
0.00034611
0.000311157
0.000293509
0.000315036
0.00024017
0.000318025
0.000186247
0.000320122
0.000131917
0.00032132
7.77653e-05
2.33448e-05
0.000321615
1.58439e-05
0.00106651
5.21811e-08
3.19476e-05
0.00105547
4.81584e-05
0.00104354
6.4362e-05
0.001031
8.04666e-05
0.00101697
9.64058e-05
0.00100097
0.000112116
0.000982584
0.000127549
0.000961866
0.000142647
0.000938608
0.000157369
0.000912992
0.00017166
0.000884974
0.000185487
0.000854607
0.000198798
0.000821963
0.000211565
0.000787119
0.000223736
0.000750167
0.000235289
0.0007112
0.000246178
0.000670323
0.000256384
0.000627644
0.000265864
0.00058328
0.000274605
0.000537349
0.000282569
0.00048998
0.000289747
0.000441297
0.000296104
0.000391453
0.000301635
0.000340577
0.000306313
0.000288823
0.000310134
0.000236344
0.000313079
0.000183292
0.000315148
0.00012984
0.000316333
7.65688e-05
2.30277e-05
0.000316628
1.56019e-05
0.00105085
5.25006e-08
3.14616e-05
0.0010396
4.74258e-05
0.00102756
6.33818e-05
0.00101503
7.92393e-05
0.00100111
9.49329e-05
0.00098527
0.0001104
0.000967107
0.000125592
0.000946668
0.000140454
0.000923736
0.000154946
0.000898496
0.000169012
0.000870898
0.000182621
0.000840994
0.000195721
0.000808854
0.000208285
0.000774554
0.000220262
0.000738183
0.000231633
0.000699832
0.000242349
0.000659604
0.000252394
0.000617605
0.000261724
0.00057395
0.000270328
0.000528754
0.000278167
0.000482146
0.000285233
0.000434245
0.000291492
0.000385203
0.000296937
0.000335148
0.000301544
0.000284231
0.000305308
0.000232602
0.00030821
0.000180409
0.000310251
0.000127826
0.000311422
7.54255e-05
2.27709e-05
0.000311719
1.53629e-05
0.00103544
5.25934e-08
3.09816e-05
0.00102399
4.6702e-05
0.00101185
6.24134e-05
0.000999327
7.80268e-05
0.000985497
9.34779e-05
0.000969826
0.000108705
0.000951883
0.00012366
0.000931719
0.00013829
0.000909109
0.000152553
0.000884238
0.000166398
0.000857054
0.000179792
0.000827605
0.000192685
0.00079596
0.00020505
0.000762194
0.000216838
0.000726392
0.000228029
0.000688645
0.000238576
0.000649054
0.000248463
0.000607721
0.000257646
0.000564761
0.000266115
0.000520287
0.000273832
0.000474423
0.000280788
0.000427289
0.00028695
0.000379034
0.000292312
0.000329784
0.000296849
0.000279686
0.000300557
0.000228889
0.000303417
0.000177539
0.00030543
0.000125805
0.000306588
7.42565e-05
2.24523e-05
0.000306886
1.51271e-05
0.00102025
5.24729e-08
3.05075e-05
0.0010086
4.5987e-05
0.000996359
6.14568e-05
0.000983848
7.68291e-05
0.000970114
9.20407e-05
0.000954607
0.000107031
0.000936883
0.000121753
0.000916991
0.000136153
0.000894698
0.000150193
0.000870192
0.000163819
0.000843416
0.000177002
0.000814417
0.000189691
0.000783262
0.000201861
0.000750022
0.000213463
0.000714783
0.000224477
0.000677633
0.000234858
0.00063867
0.00024459
0.000597995
0.000253629
0.000555721
0.000261966
0.000511959
0.000269563
0.000466831
0.000276411
0.000420454
0.000282478
0.000372976
0.000287758
0.000324521
0.000292226
0.000275232
0.00029588
0.000225258
0.000298699
0.00017474
0.000300685
0.000123847
0.000301829
7.31407e-05
2.21947e-05
0.000302128
1.48942e-05
0.0010053
5.23137e-08
3.00393e-05
0.000993456
4.52809e-05
0.000981123
6.0512e-05
0.000968624
7.56463e-05
0.000954985
9.06217e-05
0.00093964
0.000105378
0.00092213
0.00011987
0.000902506
0.000134044
0.000880525
0.000147863
0.000856379
0.000161275
0.000830004
0.000174251
0.000801447
0.00018674
0.000770771
0.000198718
0.000738049
0.000210137
0.000703362
0.000220978
0.000666796
0.000231196
0.000628449
0.000240775
0.00058842
0.000249673
0.000546818
0.000257881
0.000503754
0.000265359
0.000459347
0.000272102
0.000413712
0.000278075
0.000366996
0.000283275
0.000319319
0.000287676
0.000270824
0.000291276
0.000221655
0.000294054
0.000171952
0.000296013
0.00012188
0.000297145
7.19985e-05
2.18753e-05
0.000297444
1.46644e-05
0.000990577
5.21306e-08
2.9577e-05
0.000978532
4.45836e-05
0.000966104
5.95792e-05
0.000953619
7.44786e-05
0.000940074
8.92209e-05
0.00092489
0.000103747
0.000907593
0.000118012
0.000888234
0.000131964
0.000866562
0.000145566
0.00084277
0.000158767
0.000816792
0.000171538
0.000788671
0.000183831
0.000758469
0.000195621
0.000726257
0.00020686
0.000692115
0.000217531
0.000656126
0.000227589
0.000618388
0.000237019
0.000578996
0.000245778
0.000538059
0.000253858
0.000495683
0.00026122
0.000451989
0.000267859
0.000407087
0.000273741
0.000361123
0.000278862
0.000314215
0.000283197
0.000266504
0.000286743
0.000218131
0.000289482
0.000169234
0.000291415
0.000119975
0.000292533
7.09095e-05
2.16174e-05
0.000292834
1.44376e-05
0.000976092
5.19577e-08
2.91207e-05
0.000963854
4.38953e-05
0.000951335
5.86584e-05
0.000938863
7.33261e-05
0.000925411
8.78388e-05
0.000910385
0.000102138
0.000893298
0.00011618
0.0008742
0.000129913
0.000852831
0.000143302
0.000829387
0.000156294
0.000803799
0.000168865
0.000776105
0.000180964
0.000746369
0.00019257
0.000714657
0.000203632
0.000681049
0.000214137
0.000645627
0.000224036
0.000608484
0.00023332
0.000569717
0.000241942
0.000529431
0.000249897
0.000487731
0.000257146
0.000444734
0.000263683
0.000400551
0.000269475
0.000355325
0.000274519
0.00030917
0.000278788
0.000262227
0.000282283
0.000214633
0.000284982
0.000166525
0.000286889
0.000118062
0.000287994
6.97938e-05
2.1298e-05
0.000288294
1.4214e-05
0.000961815
5.17511e-08
2.86703e-05
0.000949385
4.3216e-05
0.000936777
5.77498e-05
0.000924319
7.21891e-05
0.00091096
8.64753e-05
0.00089609
0.000100551
0.000879211
0.000114373
0.00086037
0.000127891
0.000839301
0.000141069
0.000816202
0.000153858
0.000790997
0.000166231
0.000763726
0.00017814
0.00073445
0.000189564
0.000703232
0.000200453
0.000670151
0.000210793
0.000635288
0.000220538
0.000598735
0.000229677
0.000560584
0.000238166
0.000520941
0.000245998
0.000479908
0.000253135
0.000437602
0.000259572
0.000394128
0.000265275
0.00034963
0.000270243
0.00030422
0.000274448
0.000258036
0.000277892
0.000211213
0.000280553
0.000163885
0.000282434
0.000116209
0.000283526
6.87312e-05
2.10407e-05
0.000283827
1.39933e-05
0.000947775
5.15426e-08
2.82259e-05
0.000935158
4.25458e-05
0.000922463
5.68535e-05
0.000910019
7.10676e-05
0.000896751
8.51308e-05
0.000882035
9.89862e-05
0.00086536
0.000112592
0.000846772
0.000125897
0.000825998
0.000138869
0.000803236
0.000151457
0.000778409
0.000163637
0.000751553
0.000175359
0.000722726
0.000186604
0.000691993
0.000197322
0.000659429
0.000207501
0.000625114
0.000217095
0.000589138
0.000226092
0.000551592
0.000234448
0.000512579
0.00024216
0.0004722
0.000249187
0.000430569
0.000255525
0.000387791
0.000261141
0.000344007
0.000266034
0.000299327
0.000270177
0.000253886
0.00027357
0.000207818
0.000276193
0.000161253
0.000278049
0.000114347
0.000279128
6.76415e-05
2.0722e-05
0.000279428
1.37758e-05
0.000933936
5.12964e-08
2.77876e-05
0.000921133
4.18849e-05
0.000908352
5.59696e-05
0.000895923
6.99619e-05
0.000882746
8.38053e-05
0.000868183
9.74437e-05
0.000851709
0.000110836
0.000833372
0.000123933
0.000812888
0.000136702
0.00079046
0.000149092
0.000766005
0.000161081
0.000739558
0.00017262
0.000711176
0.000183689
0.000680922
0.00019424
0.000648869
0.00020426
0.000615095
0.000213704
0.00057969
0.000222562
0.00054274
0.000230789
0.00050435
0.000238382
0.000464618
0.0002453
0.000423654
0.000251542
0.000381564
0.000257073
0.000338485
0.000261892
0.000294526
0.000265973
0.000249819
0.000269316
0.000204498
0.000271902
0.000158689
0.000273733
0.000112545
0.000274799
6.66049e-05
2.04658e-05
0.0002751
1.35613e-05
0.000920329
5.10126e-08
2.73554e-05
0.000907344
4.12332e-05
0.000894481
5.50983e-05
0.000882066
6.88719e-05
0.000868978
8.24988e-05
0.000854564
9.59238e-05
0.000838289
0.000109107
0.000820197
0.000121998
0.000799999
0.000134567
0.000777898
0.000146763
0.000753808
0.000158564
0.000727763
0.000169922
0.000699817
0.000180818
0.000670031
0.000191205
0.00063848
0.00020107
0.000605236
0.000210366
0.000570389
0.000219087
0.000534025
0.000227187
0.000496245
0.000234663
0.000457145
0.000241475
0.000416836
0.000247622
0.000375419
0.000253068
0.000333031
0.000257815
0.000289779
0.000261835
0.000245792
0.00026513
0.000201201
0.000267678
0.000156131
0.000269484
0.000110733
0.000270539
6.55409e-05
2.01484e-05
0.000270838
1.335e-05
0.000906916
5.06661e-08
2.69294e-05
0.00089375
4.05908e-05
0.000880805
5.42394e-05
0.000868405
6.77977e-05
0.000855407
8.12115e-05
0.000841141
9.44263e-05
0.000825061
0.000107403
0.000807212
0.000120092
0.000787295
0.000132464
0.000765518
0.000144469
0.000741789
0.000156086
0.00071614
0.000167266
0.000688625
0.000177993
0.000659303
0.000188217
0.000628246
0.000197928
0.000595526
0.000207081
0.000561231
0.000215667
0.000525446
0.000223641
0.000488268
0.000231002
0.000449794
0.00023771
0.000410132
0.000243763
0.000369381
0.000249127
0.000327676
0.000253803
0.000285122
0.000257763
0.000241847
0.000261009
0.000197978
0.000263521
0.00015364
0.000265303
0.000108981
0.000266344
6.453e-05
1.98938e-05
0.000266644
1.31418e-05
0.000893728
5.02604e-08
2.65096e-05
0.000880389
3.99578e-05
0.000867363
5.33932e-05
0.000854978
6.67394e-05
0.000842066
7.99433e-05
0.000827946
9.29511e-05
0.000812058
0.000105725
0.000794446
0.000118215
0.000774807
0.000130394
0.000753346
0.000142211
0.000729971
0.000153646
0.000704711
0.000164651
0.000677618
0.000175211
0.00064875
0.000185276
0.000618177
0.000194837
0.000585971
0.000203847
0.000552217
0.0002123
0.000516998
0.000220152
0.000480411
0.0002274
0.00044255
0.000234005
0.000403521
0.000239966
0.000363422
0.000245248
0.000322387
0.000249854
0.000280517
0.000253754
0.000237939
0.000256954
0.000194778
0.00025943
0.000151155
0.000261187
0.000107218
0.000262217
6.34913e-05
1.95783e-05
0.000262514
1.29367e-05
0.000880729
4.97876e-08
2.60959e-05
0.000867214
3.93341e-05
0.00085411
5.25594e-05
0.00084174
6.56968e-05
0.000828914
7.86942e-05
0.000814938
9.14983e-05
0.00079924
0.000104072
0.000781864
0.000116367
0.000762497
0.000128355
0.00074135
0.000139987
0.000718324
0.000151244
0.000693447
0.000162077
0.000666772
0.000172473
0.000638352
0.000182381
0.000608259
0.000191793
0.00057656
0.000200664
0.00054334
0.000208987
0.000508681
0.000216717
0.000472679
0.000223854
0.000435424
0.000230358
0.000397021
0.000236228
0.000357567
0.00024143
0.000317193
0.000245967
0.000276
0.00024981
0.000234111
0.000252962
0.00019165
0.000255403
0.000148736
0.000257137
0.000105514
0.000258153
6.25055e-05
1.93258e-05
0.000258451
1.27347e-05
0.00086795
4.92438e-08
2.56884e-05
0.000854266
3.87197e-05
0.000841085
5.17382e-05
0.000828729
6.467e-05
0.000815988
7.74641e-05
0.000802153
9.00677e-05
0.000786641
0.000102444
0.000769495
0.000114547
0.000750396
0.000126348
0.000729556
0.000137798
0.000706873
0.000148879
0.000682373
0.000159544
0.000656105
0.000169777
0.000628125
0.000179531
0.000598501
0.000188798
0.000567299
0.000197531
0.000534603
0.000205726
0.000500493
0.000213337
0.000465062
0.000220364
0.0004284
0.000226768
0.000390611
0.00023255
0.000351789
0.000237673
0.000312063
0.000242142
0.000271532
0.000245927
0.000230318
0.000249034
0.000188542
0.000251439
0.000146321
0.00025315
0.000103798
0.000254154
6.14917e-05
1.90126e-05
0.00025445
1.25359e-05
0.000855352
4.86379e-08
2.52871e-05
0.000841499
3.81146e-05
0.000828242
5.09295e-05
0.000815901
6.36589e-05
0.000803244
7.62527e-05
0.000789548
8.86591e-05
0.00077422
0.000100842
0.000757302
0.000112756
0.000738468
0.000124372
0.000717931
0.000135643
0.000695586
0.000146551
0.000671457
0.00015705
0.000645594
0.000167124
0.000618048
0.000176726
0.000588888
0.00018585
0.000558177
0.000194448
0.000525999
0.000202516
0.000492431
0.00021001
0.000457566
0.00021693
0.000421491
0.000223236
0.000384309
0.00022893
0.00034611
0.000233975
0.000307026
0.000238377
0.00026715
0.000242106
0.000226603
0.000245167