/*--------------------------------*- C++ -*----------------------------------*\
  =========                 |
  \\      /  F ield         | OpenFOAM: The Open Source CFD Toolbox
   \\    /   O peration     | Website:  https://openfoam.org
    \\  /    A nd           | Version:  6.0
     \\/     M anipulation  |
\*---------------------------------------------------------------------------*/
FoamFile
{
    version     2.0;
    format      ascii;
    class       volVectorField;
    location    "11";
    object      U;
}
// * * * * * * * * * * * * * * * * * * * * * * * * * * * * * * * * * * * * * //

dimensions      [0 1 -1 0 0 0 0];

internalField   nonuniform List<vector> 
47000
(
(0.999978 -9.75934e-05 -2.75559e-20)
(0.999975 -0.000148221 1.34987e-19)
(0.999962 -0.000156677 -6.92574e-20)
(0.999935 -0.000126826 5.27993e-19)
(0.99989 -7.86825e-05 -3.23508e-19)
(0.999824 -4.02505e-05 -9.71219e-19)
(0.99974 -3.48979e-05 -4.91013e-19)
(0.999645 -7.46603e-05 -6.52306e-19)
(0.999545 -0.000156862 -1.37218e-18)
(0.999443 -0.000270266 1.18859e-18)
(0.99934 -0.000401785 2.81624e-19)
(0.999234 -0.000544696 -1.99918e-19)
(0.999119 -0.000701098 -2.0662e-18)
(0.998992 -0.000881416 -3.51631e-19)
(0.998852 -0.00109989 8.39203e-20)
(0.998703 -0.00137033 -8.88762e-19)
(0.998552 -0.00170183 -1.55505e-18)
(0.998409 -0.00209842 -1.58454e-18)
(0.998286 -0.0025579 -1.45105e-18)
(0.99819 -0.0030764 -2.12899e-18)
(0.998128 -0.00364817 -2.39025e-18)
(0.998105 -0.00427238 5.29956e-19)
(0.998121 -0.004953 -6.41364e-19)
(0.998175 -0.00570678 1.17229e-18)
(0.998264 -0.00656845 -1.67551e-19)
(0.998375 -0.00759725 -3.40052e-19)
(0.998542 -0.00893376 9.9125e-19)
(0.99849 -0.0108247 -7.92926e-19)
(0.999587 -0.0132949 -3.15544e-19)
(0.989417 -0.020791 7.30782e-20)
(0.999997 2.87851e-05 -5.97343e-20)
(0.999995 0.00024921 1.35433e-20)
(0.999968 0.000459692 1.6458e-19)
(0.999909 0.00061499 -1.39214e-19)
(0.999815 0.000673193 -2.87085e-19)
(0.999697 0.000611938 3.213e-19)
(0.999567 0.000441129 4.09846e-19)
(0.99944 0.000196199 7.63018e-19)
(0.999322 -7.37799e-05 2.64329e-19)
(0.999212 -0.000327498 -2.68877e-18)
(0.999098 -0.000545274 1.5406e-18)
(0.998965 -0.000735112 -5.05777e-19)
(0.998801 -0.000927707 9.0821e-19)
(0.998604 -0.00116391 1.35012e-18)
(0.998378 -0.00148296 -2.21582e-18)
(0.998141 -0.00191046 3.04253e-18)
(0.997913 -0.0024561 1.13299e-18)
(0.99772 -0.00311142 2.55453e-19)
(0.997579 -0.00385676 1.12667e-18)
(0.997508 -0.00466427 1.71002e-18)
(0.997517 -0.00550598 1.09153e-18)
(0.997608 -0.00635642 -1.17139e-18)
(0.99778 -0.00719696 3.29553e-19)
(0.998026 -0.00801652 -7.77118e-19)
(0.998342 -0.00881416 5.04378e-19)
(0.998694 -0.00958832 1.77444e-19)
(0.999141 -0.010364 -5.31853e-20)
(0.999441 -0.0111962 5.8773e-19)
(0.99963 -0.011679 2.08182e-19)
(0.998917 -0.0115818 4.31552e-20)
(1.0001 0.000214999 9.14303e-20)
(1.0001 0.000606725 -2.6841e-20)
(1.00007 0.000916082 -1.65443e-19)
(1.00002 0.00108064 3.01408e-19)
(0.999945 0.00106788 -3.6676e-19)
(0.999868 0.000887938 5.98231e-19)
(0.999807 0.000595861 3.36581e-19)
(0.999774 0.000269308 -3.53599e-19)
(0.999771 -1.44712e-05 1.1858e-18)
(0.999786 -0.000205998 2.06153e-18)
(0.999796 -0.000295159 -1.39866e-18)
(0.999782 -0.000311162 -1.23879e-19)
(0.999727 -0.000309005 1.13874e-18)
(0.999627 -0.000350983 -1.38487e-18)
(0.99949 -0.000490745 -3.22808e-19)
(0.999333 -0.000760648 -1.28737e-18)
(0.999178 -0.00117048 1.6351e-18)
(0.999051 -0.00170712 4.29011e-20)
(0.998971 -0.00234377 -5.64933e-19)
(0.998954 -0.00304432 -4.51444e-19)
(0.999006 -0.00377274 2.40399e-18)
(0.999132 -0.00449575 1.3993e-18)
(0.999327 -0.00518763 -3.09229e-20)
(0.999583 -0.00583037 3.31581e-19)
(0.999892 -0.00641584 4.43212e-19)
(1.00021 -0.00694311 -1.71796e-19)
(1.00056 -0.00742916 -1.04291e-18)
(1.0008 -0.0079625 5.68162e-19)
(1.00075 -0.00810379 -1.72838e-19)
(0.999009 -0.00822602 -1.30127e-20)
(1.00023 0.000326515 -4.40734e-20)
(1.00023 0.000728524 -1.31533e-19)
(1.00019 0.00100728 1.03324e-19)
(1.00013 0.00110349 -7.47354e-19)
(1.00005 0.00100098 1.08377e-18)
(0.999978 0.000733481 7.23568e-20)
(0.999931 0.000379114 4.24313e-19)
(0.999922 3.06083e-05 -7.96451e-19)
(0.999951 -0.000230491 -8.55467e-19)
(1 -0.000360699 -6.69917e-19)
(1.00006 -0.000361737 -3.19849e-19)
(1.0001 -0.000276656 2.05658e-18)
(1.00011 -0.000172064 -2.92183e-18)
(1.00009 -0.000118806 1.71527e-19)
(1.00003 -0.000175099 -4.04524e-19)
(0.999949 -0.000375563 -2.0752e-18)
(0.999871 -0.00073033 -1.8408e-18)
(0.999813 -0.00122653 -1.40524e-18)
(0.999791 -0.00183739 2.44913e-18)
(0.999817 -0.00252788 5.27754e-20)
(0.999896 -0.00326354 -9.00436e-19)
(1.00003 -0.00401395 5.52565e-19)
(1.00022 -0.00475742 2.44074e-19)
(1.00045 -0.0054821 1.36193e-19)
(1.00072 -0.00618723 -3.96792e-19)
(1.00098 -0.00688643 -1.57578e-19)
(1.00122 -0.00761037 -1.18176e-19)
(1.00135 -0.0084412 -3.83775e-20)
(1.00134 -0.00884719 5.74137e-20)
(0.999817 -0.00930776 -1.32128e-19)
(1.00036 0.000372158 1.04626e-19)
(1.00034 0.000718656 -1.57631e-19)
(1.00027 0.000927488 -2.32977e-19)
(1.00016 0.000947737 7.01677e-19)
(1.00002 0.000773702 1.73429e-19)
(0.999878 0.00044759 -3.06552e-19)
(0.999754 5.07917e-05 -1.42195e-18)
(0.999661 -0.000327223 9.74061e-21)
(0.999606 -0.000612679 9.22493e-19)
(0.999584 -0.000771421 -2.16676e-19)
(0.999581 -0.000812301 -9.72327e-19)
(0.999584 -0.000781728 -2.92406e-18)
(0.999582 -0.000745296 1.71465e-18)
(0.999573 -0.000769995 4.75506e-19)
(0.999557 -0.000908772 1.30952e-18)
(0.999547 -0.00119142 7.63632e-19)
(0.999552 -0.0016245 1.59951e-18)
(0.999586 -0.00219331 1.08054e-18)
(0.999659 -0.00287076 3.49205e-19)
(0.99978 -0.00362247 -1.63708e-18)
(0.99995 -0.00441508 -7.25049e-19)
(1.00017 -0.0052188 1.30087e-19)
(1.00044 -0.00601149 -7.58612e-19)
(1.00074 -0.0067786 -8.52871e-19)
(1.00107 -0.00751191 2.57747e-19)
(1.00139 -0.00820989 -1.79524e-19)
(1.00169 -0.00887696 3.9028e-19)
(1.00187 -0.00952959 -2.47127e-19)
(1.00192 -0.00954895 9.366e-20)
(1.00161 -0.00888135 4.92472e-20)
(1.00047 0.000384003 1.29964e-21)
(1.00043 0.000673151 1.37264e-19)
(1.00032 0.000825319 2.80065e-19)
(1.00016 0.000797892 -3.98398e-19)
(0.999956 0.000589442 -3.09571e-20)
(0.99973 0.000240665 -8.33065e-19)
(0.999507 -0.000174686 6.23079e-19)
(0.999305 -0.000579032 2.05317e-19)
(0.999137 -0.000910777 -3.76504e-19)
(0.999008 -0.00114436 1.67931e-18)
(0.998916 -0.0012909 -3.33051e-21)
(0.998856 -0.00139248 2.23526e-18)
(0.998826 -0.00150514 -5.03112e-19)
(0.998825 -0.00168389 -2.15768e-19)
(0.998854 -0.00196965 1.87931e-18)
(0.99892 -0.00238228 1.383e-18)
(0.999027 -0.00292123 2.43079e-19)
(0.999182 -0.00356768 1.50968e-18)
(0.999389 -0.00429258 -3.21159e-18)
(0.999649 -0.00506104 9.69677e-19)
(0.99996 -0.00583937 9.89618e-19)
(1.00032 -0.00659678 -8.87947e-19)
(1.00072 -0.00730836 2.89315e-19)
(1.00115 -0.00795431 9.13463e-19)
(1.00159 -0.00851734 9.6115e-20)
(1.00202 -0.00898105 3.12126e-19)
(1.00242 -0.00933377 5.10343e-19)
(1.00271 -0.00957405 -1.09398e-19)
(1.00275 -0.00910545 2.5389e-20)
(1.00319 -0.0076805 1.62351e-20)
(1.00057 0.000377841 -4.90649e-20)
(1.00051 0.000625733 2.995e-19)
(1.0004 0.000747372 2.99097e-19)
(1.00021 0.000707753 5.54519e-21)
(0.99998 0.000505896 -1.29703e-18)
(0.999712 0.00017556 4.05826e-19)
(0.999433 -0.000222499 -8.91859e-20)
(0.999164 -0.000626292 -1.45757e-19)
(0.998924 -0.000987801 2.6752e-19)
(0.998724 -0.00128886 -1.3276e-18)
(0.998573 -0.00153995 1.12217e-18)
(0.998477 -0.001775 7.80622e-19)
(0.998438 -0.00203666 2.88925e-19)
(0.998459 -0.00236456 5.79511e-19)
(0.998543 -0.00278513 -1.62644e-18)
(0.998692 -0.00330668 3.69012e-19)
(0.998905 -0.0039207 -6.49393e-19)
(0.999183 -0.00460412 -6.12716e-19)
(0.999522 -0.00532637 1.31407e-19)
(0.999918 -0.00605292 5.12189e-19)
(1.00036 -0.00675129 -1.0359e-18)
(1.00085 -0.00739205 4.31448e-19)
(1.00137 -0.00795118 3.11682e-19)
(1.0019 -0.00840945 -4.2442e-19)
(1.00243 -0.00875033 -3.94007e-19)
(1.00293 -0.00895813 -1.86602e-19)
(1.00337 -0.00902817 -3.83626e-19)
(1.0037 -0.00897713 9.82752e-20)
(1.00368 -0.00827518 -8.22338e-21)
(1.00435 -0.0066303 3.474e-21)
(1.00065 0.000360786 5.92254e-20)
(1.00061 0.000583418 -2.04232e-19)
(1.00051 0.000697518 -5.28597e-19)
(1.00034 0.000674042 4.58722e-20)
(1.00013 0.000510211 7.21796e-19)
(0.999875 0.00023026 4.93239e-19)
(0.999602 -0.000120142 7.15144e-19)
(0.999326 -0.000495425 4.63911e-19)
(0.999072 -0.000860933 -2.90625e-19)
(0.998855 -0.00120462 8.79279e-19)
(0.998692 -0.00153498 5.86801e-19)
(0.998595 -0.00187659 -2.04066e-18)
(0.998572 -0.00225812 3.61736e-19)
(0.998631 -0.00270387 4.5901e-20)
(0.998772 -0.00322631 2.02435e-20)
(0.998996 -0.00382309 -1.33563e-18)
(0.999298 -0.00447894 -1.0771e-19)
(0.999673 -0.00516789 7.85159e-19)
(1.00011 -0.00585939 1.43427e-18)
(1.00061 -0.00652123 -1.60624e-19)
(1.00114 -0.00712443 1.99887e-19)
(1.00171 -0.00764405 3.52658e-19)
(1.00229 -0.00806093 -5.72724e-19)
(1.00288 -0.00836152 -2.05561e-19)
(1.00343 -0.00853644 3.00754e-19)
(1.00393 -0.00857805 -1.26996e-19)
(1.00436 -0.00849386 1.27351e-19)
(1.00466 -0.00831619 2.94548e-20)
(1.00457 -0.00756562 1.73043e-20)
(1.00519 -0.00593451 1.26594e-21)
(1.00072 0.000337736 -1.31141e-19)
(1.00071 0.00054596 -8.61274e-20)
(1.00065 0.000667274 4.70526e-19)
(1.00054 0.000675348 -3.72707e-19)
(1.00038 0.000564448 2.9944e-19)
(1.00018 0.00034865 1.71692e-20)
(0.999956 5.87713e-05 2.46891e-21)
(0.999723 -0.000274871 -1.23085e-19)
(0.999502 -0.00062946 8.77944e-19)
(0.999311 -0.00099759 -3.70042e-19)
(0.999173 -0.00138508 -1.41245e-18)
(0.999104 -0.00180738 9.98596e-20)
(0.999116 -0.00228036 -1.31455e-18)
(0.999217 -0.00281473 -2.07541e-19)
(0.99941 -0.00341106 -6.58039e-19)
(0.999693 -0.00405842 -4.89264e-19)
(1.00006 -0.00473667 -1.16444e-18)
(1.0005 -0.00541861 -7.58915e-19)
(1.001 -0.00607521 2.83151e-19)
(1.00155 -0.0066779 3.34104e-19)
(1.00213 -0.00720261 7.54541e-19)
(1.00273 -0.00763018 -4.59227e-19)
(1.00332 -0.00794763 3.81337e-19)
(1.0039 -0.00814801 4.40743e-20)
(1.00444 -0.00822906 -1.76734e-19)
(1.0049 -0.00818944 5.04761e-20)
(1.00526 -0.00804323 -2.04471e-19)
(1.00552 -0.00782611 1.40132e-19)
(1.00536 -0.00708787 -1.04179e-19)
(1.00584 -0.00552143 -6.35389e-21)
(1.0008 0.000312655 -6.0749e-20)
(1.00082 0.000510229 -1.66698e-19)
(1.0008 0.000643585 -1.4686e-19)
(1.00075 0.000685172 8.73198e-19)
(1.00067 0.000625745 -3.12809e-19)
(1.00055 0.000469944 4.22608e-19)
(1.0004 0.000235488 -3.88482e-19)
(1.00024 -6.00911e-05 -7.05492e-19)
(1.00008 -0.00040349 -1.00985e-18)
(0.999941 -0.000790264 -8.77103e-19)
(0.99985 -0.00122316 3.78424e-19)
(0.999824 -0.00170933 8.99425e-19)
(0.999879 -0.00225372 7.60973e-19)
(1.00002 -0.00285584 1.14176e-19)
(1.00026 -0.00350692 6.2634e-19)
(1.00058 -0.00418971 6.25501e-19)
(1.00099 -0.00488106 1.17304e-18)
(1.00146 -0.00555386 -9.91241e-20)
(1.00199 -0.00618146 -1.683e-20)
(1.00256 -0.00673941 -2.62169e-19)
(1.00315 -0.00720854 -3.20867e-19)
(1.00374 -0.00757515 -1.19348e-19)
(1.00432 -0.00783152 4.81956e-20)
(1.00486 -0.00797557 6.40508e-20)
(1.00535 -0.00800931 -3.93083e-20)
(1.00575 -0.00793355 8.40092e-20)
(1.00605 -0.00776317 2.33765e-19)
(1.00626 -0.00753062 -3.62395e-19)
(1.00604 -0.00680304 1.56277e-19)
(1.00636 -0.00528429 1.53704e-20)
(1.00089 0.000287801 8.48124e-20)
(1.00093 0.00047211 5.10312e-19)
(1.00096 0.00061329 -6.45677e-20)
(1.00097 0.000679617 -5.2375e-19)
(1.00096 0.00065809 -1.11999e-19)
(1.00092 0.000545411 -2.81896e-19)
(1.00086 0.000348828 -4.74362e-19)
(1.00077 7.61021e-05 3.66744e-19)
(1.00068 -0.000266301 9.93816e-20)
(1.00061 -0.000675249 5.71224e-19)
(1.00057 -0.00115015 1.86661e-19)
(1.0006 -0.00169092 -1.60645e-19)
(1.0007 -0.00229356 1.04719e-19)
(1.00089 -0.00294887 -3.85865e-19)
(1.00116 -0.00364117 1.48872e-19)
(1.00151 -0.00434899 -4.61652e-19)
(1.00194 -0.00504765 3.34568e-20)
(1.00243 -0.00571103 -1.74761e-19)
(1.00296 -0.00631517 -2.09218e-19)
(1.00353 -0.00683947 -7.43441e-20)
(1.0041 -0.00726901 -4.08753e-20)
(1.00467 -0.00759433 3.37243e-20)
(1.00521 -0.00781133 1.23475e-20)
(1.00571 -0.0079206 4.75517e-20)
(1.00614 -0.00792566 9.69727e-20)
(1.00649 -0.00782656 -1.92472e-19)
(1.00673 -0.0076364 -1.64232e-19)
(1.00688 -0.00738318 1.75371e-19)
(1.00662 -0.00664555 -2.58204e-20)
(1.00681 -0.00513995 5.29903e-21)
(1.00097 0.000264122 -3.90371e-20)
(1.00103 0.000427875 -8.62726e-20)
(1.0011 0.000566032 1.29737e-19)
(1.00117 0.000641504 -4.17191e-19)
(1.00123 0.000637438 5.50461e-19)
(1.00126 0.0005445 9.57225e-20)
(1.00126 0.000362348 -7.22703e-20)
(1.00125 9.20697e-05 1.33066e-19)
(1.00123 -0.000264147 8.47516e-19)
(1.00122 -0.000703032 -3.66605e-19)
(1.00125 -0.00122055 1.34271e-19)
(1.00133 -0.00181045 1.87082e-19)
(1.00147 -0.00246173 -4.56271e-20)
(1.0017 -0.00315872 -3.17249e-19)
(1.002 -0.00388098 9.78181e-20)
(1.00237 -0.00460452 -3.45305e-20)
(1.00281 -0.0053043 -2.10738e-19)
(1.00331 -0.00595572 -1.55436e-19)
(1.00384 -0.00653749 1.65929e-19)
(1.00439 -0.00703234 -6.80763e-20)
(1.00494 -0.0074287 -2.30573e-21)
(1.00547 -0.00772012 -2.65698e-20)
(1.00597 -0.00790462 1.61186e-20)
(1.00643 -0.00798383 7.28061e-20)
(1.00681 -0.00796114 1.64774e-19)
(1.0071 -0.00783468 5.8025e-19)
(1.00729 -0.00761543 1.4006e-20)
(1.0074 -0.00732807 3.6001e-20)
(1.00712 -0.00655882 -5.17659e-20)
(1.00721 -0.00503412 1.20345e-20)
(1.00105 0.000241483 1.14975e-19)
(1.00112 0.000374846 -7.31423e-20)
(1.00123 0.000495349 -2.87552e-19)
(1.00134 0.000561247 9.23449e-19)
(1.00144 0.000551958 -3.72679e-19)
(1.00153 0.00045403 -1.84353e-20)
(1.0016 0.000262342 5.03824e-19)
(1.00165 -2.59313e-05 -2.98133e-21)
(1.00169 -0.000410662 -2.17851e-19)
(1.00174 -0.00088734 2.19972e-19)
(1.00182 -0.00144855 -1.49183e-19)
(1.00195 -0.00208294 1.1642e-19)
(1.00214 -0.00277427 -2.35649e-19)
(1.0024 -0.00350232 1.63806e-19)
(1.00273 -0.00424369 -1.36028e-19)
(1.00312 -0.00497324 2.25012e-19)
(1.00357 -0.00566644 1.73515e-19)
(1.00407 -0.00630049 7.56513e-20)
(1.00459 -0.00685664 -7.88491e-20)
(1.00512 -0.00732043 -9.30977e-20)
(1.00564 -0.00768285 7.0012e-20)
(1.00615 -0.00793947 1.14354e-21)
(1.00661 -0.00808946 -1.54179e-19)
(1.00703 -0.00813457 7.19118e-20)
(1.00737 -0.0080774 -1.6947e-19)
(1.00762 -0.00791409 -5.14394e-19)
(1.00777 -0.00765418 -4.7352e-20)
(1.00785 -0.00732031 2.5004e-19)
(1.00754 -0.00650354 -2.75438e-19)
(1.00756 -0.00493573 -4.963e-20)
(1.00114 0.000219348 -1.80283e-20)
(1.0012 0.000311694 -5.17648e-20)
(1.00132 0.000398435 -1.53184e-19)
(1.00146 0.000435827 -5.1371e-19)
(1.0016 0.000399744 1.1509e-19)
(1.00173 0.000274354 2.39142e-19)
(1.00185 5.21756e-05 -2.15152e-19)
(1.00195 -0.000271235 5.51333e-19)
(1.00205 -0.000696129 -3.8109e-20)
(1.00215 -0.00121603 -1.47689e-19)
(1.00229 -0.0018204 1.00557e-19)
(1.00246 -0.00249385 -3.25568e-19)
(1.00269 -0.00321642 1.59599e-19)
(1.00298 -0.00396497 1.09983e-19)
(1.00334 -0.00471461 -9.52419e-21)
(1.00375 -0.0054401 5.34884e-20)
(1.0042 -0.00611802 -5.64065e-20)
(1.0047 -0.00672758 1.91125e-20)
(1.00521 -0.00725237 5.10818e-20)
(1.00572 -0.00768031 1.39683e-19)
(1.00623 -0.00800437 -3.30077e-19)
(1.00671 -0.00822152 -8.94865e-21)
(1.00714 -0.00833152 -2.74215e-20)
(1.00752 -0.00833584 -9.38144e-20)
(1.00783 -0.0082362 -2.79527e-20)
(1.00805 -0.00802721 -2.03595e-19)
(1.00817 -0.00771761 -4.14462e-19)
(1.00823 -0.0073291 -3.27896e-19)
(1.00791 -0.00645512 3.16759e-19)
(1.00789 -0.00482898 1.3521e-19)
(1.00121 0.000196968 4.11906e-21)
(1.00126 0.000238291 -3.17208e-19)
(1.00139 0.000275594 2.95441e-19)
(1.00155 0.000267326 -4.86437e-20)
(1.00171 0.000186084 -2.49659e-19)
(1.00187 1.49994e-05 -2.2874e-19)
(1.00202 -0.000253796 3.60442e-19)
(1.00216 -0.000624678 -1.17585e-19)
(1.0023 -0.0010971 4.28971e-20)
(1.00246 -0.00166231 2.82098e-19)
(1.00264 -0.00230703 -1.12351e-19)
(1.00285 -0.00301286 2.47251e-20)
(1.00312 -0.00375745 8.81973e-20)
(1.00345 -0.00451608 -5.40514e-21)
(1.00383 -0.0052635 -4.70655e-20)
(1.00425 -0.00597515 -5.56893e-20)
(1.00472 -0.00662921 -6.83843e-20)
(1.00521 -0.00720694 7.42519e-20)
(1.00572 -0.00769414 -1.37351e-20)
(1.00622 -0.00808076 -1.80084e-19)
(1.00671 -0.00836135 5.12672e-19)
(1.00717 -0.00853389 1.02842e-19)
(1.00758 -0.00859846 -6.26135e-20)
(1.00794 -0.00855617 4.83116e-20)
(1.00822 -0.00840804 -2.93172e-19)
(1.00842 -0.00814753 -1.94271e-20)
(1.00851 -0.0077832 1.09159e-18)
(1.00855 -0.00733628 1.34873e-19)
(1.00823 -0.00640093 2.76761e-19)
(1.00818 -0.00470845 -1.4664e-19)
(1.00126 0.000173592 9.42822e-21)
(1.0013 0.00015523 3.83812e-19)
(1.00143 0.00012928 -3.5001e-19)
(1.0016 6.11899e-05 1.21438e-19)
(1.00177 -7.93613e-05 3.37582e-19)
(1.00195 -0.000309303 -4.38207e-19)
(1.00213 -0.000635492 -1.4505e-19)
(1.0023 -0.00106105 -6.99884e-19)
(1.00248 -0.00158402 -7.66576e-20)
(1.00267 -0.0021933 5.67812e-20)
(1.00289 -0.00287348 2.00328e-19)
(1.00315 -0.00360405 -5.44033e-20)
(1.00345 -0.00436138 1.61008e-20)
(1.00381 -0.00512027 2.58007e-20)
(1.00421 -0.00585596 8.82326e-20)
(1.00465 -0.00654517 -6.71655e-21)
(1.00513 -0.0071679 4.35822e-20)
(1.00562 -0.00770752 -1.15918e-19)
(1.00613 -0.00815188 2.81083e-20)
(1.00662 -0.00849268 2.36307e-19)
(1.0071 -0.00872578 3.03332e-19)
(1.00754 -0.00884996 3.41406e-19)
(1.00794 -0.00886546 -2.98871e-19)
(1.00828 -0.00877308 -1.47664e-19)
(1.00855 -0.00857328 3.11029e-19)
(1.00872 -0.00825877 1.26146e-18)
(1.00881 -0.00783816 -6.68814e-19)
(1.00884 -0.00733248 -1.07715e-20)
(1.00852 -0.00633515 -7.29875e-19)
(1.00846 -0.00457331 7.75461e-20)
(1.00129 0.000148728 -5.04254e-20)
(1.00132 6.36903e-05 -3.50063e-19)
(1.00145 -3.65079e-05 5.29661e-19)
(1.00161 -0.000175077 -3.00228e-19)
(1.00179 -0.000384636 -1.86377e-19)
(1.00198 -0.00068164 1.65659e-19)
(1.00218 -0.00107098 3.15083e-19)
(1.00237 -0.0015539 2.14482e-19)
(1.00258 -0.00212672 -4.61233e-19)
(1.00281 -0.00277626 -1.21486e-19)
(1.00307 -0.00348555 -7.95197e-20)
(1.00336 -0.00423284 1.60613e-19)
(1.0037 -0.00499417 -1.1598e-19)
(1.00408 -0.00574462 1.01399e-19)
(1.00451 -0.0064606 -2.36826e-20)
(1.00497 -0.00712045 -4.17785e-20)
(1.00545 -0.00770618 1.13205e-19)
(1.00595 -0.0082032 7.09219e-20)
(1.00645 -0.00860124 6.9426e-20)
(1.00695 -0.00889354 -4.46736e-19)
(1.00741 -0.00907707 -8.27381e-19)
(1.00785 -0.0091512 -1.26236e-19)
(1.00823 -0.00911629 4.57013e-19)
(1.00856 -0.00897286 -8.70893e-21)
(1.00882 -0.00872098 -4.56029e-19)
(1.00899 -0.00835275 -1.70106e-18)
(1.00906 -0.00787703 1.06871e-18)
(1.00909 -0.00731457 5.28155e-19)
(1.00877 -0.00625722 2.58565e-19)
(1.00871 -0.00442647 -1.52174e-19)
(1.00129 0.00012218 7.15071e-20)
(1.00131 -3.47631e-05 2.55791e-19)
(1.00143 -0.00021707 -2.53525e-19)
(1.00159 -0.000433206 2.06594e-19)
(1.00177 -0.000717306 8.89475e-20)
(1.00197 -0.00108513 -3.69211e-19)
(1.00218 -0.00153915 -2.18176e-19)
(1.0024 -0.0020784 -2.20036e-19)
(1.00264 -0.00269761 1.6863e-19)
(1.0029 -0.00338185 2.25776e-19)
(1.00319 -0.00411323 1.13169e-19)
(1.00351 -0.00486949 2.84203e-20)
(1.00388 -0.00562704 1.42502e-19)
(1.00429 -0.00636193 -2.00763e-20)
(1.00473 -0.00705206 -5.10073e-20)
(1.00521 -0.00767769 -1.54683e-20)
(1.0057 -0.00822281 -1.93979e-20)
(1.00621 -0.00867479 -7.69191e-20)
(1.00671 -0.00902507 -5.89823e-19)
(1.0072 -0.0092682 2.90031e-19)
(1.00767 -0.00940206 3.8565e-19)
(1.0081 -0.00942653 3.75692e-19)
(1.00848 -0.00934198 -4.46008e-19)
(1.0088 -0.00914867 8.87166e-20)
(1.00905 -0.00884635 5.9792e-19)
(1.00921 -0.00842663 3.33989e-19)
(1.00928 -0.00789853 -1.23892e-19)
(1.00931 -0.00728254 -2.02411e-19)
(1.009 -0.00616819 -1.10952e-19)
(1.00895 -0.00427071 1.33689e-19)
(1.00126 9.41819e-05 -7.6174e-20)
(1.00128 -0.000138231 2.40675e-19)
(1.00139 -0.000407343 1.98247e-19)
(1.00155 -0.000704851 4.88691e-19)
(1.00173 -0.00106543 -2.86904e-19)
(1.00193 -0.00150425 3.86543e-19)
(1.00215 -0.00202122 -2.24423e-19)
(1.00239 -0.00261321 8.95804e-19)
(1.00265 -0.00327355 2.88863e-19)
(1.00294 -0.00398608 -5.66097e-19)
(1.00325 -0.00473254 1.17012e-19)
(1.00361 -0.00549078 -1.67505e-19)
(1.004 -0.00623817 -9.27675e-21)
(1.00443 -0.00695206 3.3054e-20)
(1.0049 -0.00761218 5.14779e-20)
(1.00539 -0.00820072 2.0487e-19)
(1.0059 -0.00870364 -3.13646e-20)
(1.00641 -0.00911011 4.53684e-20)
(1.00692 -0.00941306 4.36974e-19)
(1.00741 -0.00960816 6.34833e-19)
(1.00787 -0.00969404 -2.92076e-19)
(1.0083 -0.0096709 -9.38947e-19)
(1.00867 -0.0095391 9.03721e-19)
(1.00899 -0.00929862 -4.12666e-19)
(1.00924 -0.00894889 3.66351e-21)
(1.0094 -0.00848105 7.71716e-20)
(1.00948 -0.00790429 -3.95662e-20)
(1.00951 -0.00723866 -7.1045e-19)
(1.00921 -0.00607109 1.36371e-19)
(1.00917 -0.00411033 1.58177e-20)
(1.00121 6.51466e-05 9.51136e-20)
(1.00123 -0.000244863 -1.47603e-19)
(1.00133 -0.000602544 -3.63845e-19)
(1.00148 -0.000982359 -8.14134e-20)
(1.00166 -0.00141846 2.3719e-19)
(1.00187 -0.00192569 -3.51092e-19)
(1.0021 -0.00250157 3.91608e-19)
(1.00235 -0.00314097 -2.79328e-19)
(1.00263 -0.00383628 -2.67372e-19)
(1.00294 -0.00457051 6.54242e-19)
(1.00328 -0.00532558 1.23609e-19)
(1.00366 -0.00607992 -3.03004e-20)
(1.00408 -0.00681224 -3.92688e-20)
(1.00453 -0.00750149 -1.85602e-21)
(1.00502 -0.00812929 1.03944e-19)
(1.00552 -0.00867975 -1.92803e-19)
(1.00604 -0.00914068 -7.48403e-21)
(1.00656 -0.00950284 3.37082e-19)
(1.00707 -0.00976045 1.23578e-19)
(1.00757 -0.00991009 1.76547e-19)
(1.00803 -0.00995094 6.52531e-19)
(1.00846 -0.00988345 3.7771e-19)
(1.00883 -0.00970786 -3.06861e-19)
(1.00915 -0.00942381 1.88674e-19)
(1.0094 -0.00903042 -9.7392e-20)
(1.00957 -0.00851836 -8.09414e-19)
(1.00965 -0.00789686 -1.48924e-18)
(1.00969 -0.00718555 2.08259e-19)
(1.00941 -0.00596834 3.18059e-19)
(1.00939 -0.00394776 2.91198e-20)
(1.00112 3.58061e-05 -5.567e-20)
(1.00114 -0.000352756 -4.16559e-20)
(1.00124 -0.000798189 9.79366e-20)
(1.00138 -0.00125894 -8.42972e-19)
(1.00156 -0.00176743 1.68096e-19)
(1.00178 -0.0023386 -1.63068e-19)
(1.00202 -0.00296791 -5.15933e-19)
(1.00228 -0.00364858 -1.3863e-19)
(1.00258 -0.00437246 1.00502e-18)
(1.00291 -0.00512218 -3.85233e-19)
(1.00328 -0.00588027 -4.08978e-19)
(1.00368 -0.0066261 -1.23144e-19)
(1.00412 -0.00733997 -4.51701e-20)
(1.00459 -0.00800254 -1.17854e-20)
(1.00509 -0.00859734 -1.72334e-19)
(1.00561 -0.00911028 9.4901e-20)
(1.00614 -0.00953084 -6.69507e-20)
(1.00667 -0.00985117 -4.82375e-19)
(1.00718 -0.0100666 -9.91171e-19)
(1.00768 -0.0101743 -7.65043e-19)
(1.00815 -0.010174 8.88137e-20)
(1.00858 -0.0100661 9.34457e-19)
(1.00896 -0.00985072 3.08634e-19)
(1.00928 -0.00952714 4.91642e-19)
(1.00954 -0.00909415 1.33679e-18)
(1.00971 -0.00854188 1.32047e-18)
(1.0098 -0.0078796 2.43561e-18)
(1.00985 -0.00712643 6.2501e-19)
(1.00959 -0.00586328 -4.60258e-20)
(1.00959 -0.00378674 -2.12688e-19)
(1.00101 6.84185e-06 -1.65259e-20)
(1.00104 -0.000460203 6.59731e-20)
(1.00112 -0.000990548 4.67378e-20)
(1.00126 -0.00152906 8.75019e-19)
(1.00145 -0.00210528 -5.25574e-19)
(1.00166 -0.00273471 2.72349e-19)
(1.00192 -0.0034112 6.6268e-19)
(1.0022 -0.00412672 8.73333e-20)
(1.00251 -0.004873 -9.32158e-19)
(1.00286 -0.00563271 2.21103e-19)
(1.00325 -0.00638927 3.8132e-19)
(1.00367 -0.00712328 2.23348e-19)
(1.00413 -0.00781672 1.61768e-20)
(1.00462 -0.00845201 1.66139e-20)
(1.00513 -0.00901446 1.84325e-19)
(1.00566 -0.00949167 2.03564e-20)
(1.0062 -0.00987457 4.15237e-19)
(1.00674 -0.0101565 -4.19367e-19)
(1.00726 -0.0103335 1.38254e-18)
(1.00777 -0.0104034 -4.66056e-19)
(1.00824 -0.0103662 -4.74772e-19)
(1.00868 -0.0102222 -6.08617e-19)
(1.00906 -0.00997128 -1.84618e-19)
(1.00939 -0.00961229 -2.27826e-19)
(1.00966 -0.00914365 -2.73911e-18)
(1.00984 -0.00855499 -1.38786e-18)
(1.00994 -0.00785552 -2.5017e-18)
(1.01 -0.00706392 6.79652e-20)
(1.00977 -0.00575784 -3.34751e-19)
(1.00979 -0.00362847 2.03532e-19)
(1.00087 -2.09186e-05 -1.46191e-20)
(1.0009 -0.000565532 -3.1837e-19)
(1.00098 -0.00117644 2.99483e-19)
(1.00112 -0.00178829 -5.54848e-19)
(1.00131 -0.00242666 5.32407e-19)
(1.00153 -0.00310808 3.22047e-19)
(1.0018 -0.00382531 -5.52472e-19)
(1.00209 -0.00456949 -4.5383e-19)
(1.00242 -0.00533262 3.18971e-19)
(1.00279 -0.00609768 -1.34118e-20)
(1.00319 -0.00684928 -4.24755e-19)
(1.00364 -0.00756933 -3.09636e-19)
(1.00411 -0.00824158 -2.15564e-20)
(1.00461 -0.0088501 -4.21069e-20)
(1.00514 -0.0093819 -5.72511e-20)
(1.00568 -0.00982603 3.31137e-19)
(1.00623 -0.0101747 -1.11689e-19)
(1.00677 -0.010422 1.90639e-19)
(1.00731 -0.010565 -1.87704e-19)
(1.00782 -0.0106015 1.26669e-18)
(1.0083 -0.0105317 -3.51e-19)
(1.00875 -0.010356 -6.37462e-19)
(1.00914 -0.0100736 -9.37465e-19)
(1.00948 -0.00968315 6.00546e-19)
(1.00976 -0.00918261 3.97749e-19)
(1.00995 -0.00856107 1.21294e-18)
(1.01007 -0.00782774 1.7275e-18)
(1.01015 -0.0070008 -1.2448e-18)
(1.00994 -0.00565477 3.52072e-19)
(1.00999 -0.00347598 -1.29318e-19)
(1.0007 -4.69414e-05 5.66096e-20)
(1.00075 -0.000667476 7.11075e-19)
(1.00082 -0.00135358 -5.34756e-19)
(1.00096 -0.0020335 -5.09617e-19)
(1.00115 -0.00272795 -1.49514e-19)
(1.00139 -0.00345491 4.52729e-19)
(1.00166 -0.0042066 1.74254e-19)
(1.00197 -0.00497369 4.58869e-19)
(1.00231 -0.00574883 -4.42192e-20)
(1.0027 -0.00651556 -2.65858e-19)
(1.00312 -0.00725978 -3.46792e-20)
(1.00357 -0.00796482 7.05228e-20)
(1.00406 -0.00861611 -3.95633e-20)
(1.00458 -0.00919932 4.99908e-20)
(1.00512 -0.0097029 -1.27205e-19)
(1.00567 -0.0101172 -2.28513e-19)
(1.00623 -0.0104354 -7.43438e-21)
(1.00678 -0.0106524 -1.63284e-20)
(1.00733 -0.0107656 4.69855e-19)
(1.00785 -0.0107732 5.02456e-19)
(1.00834 -0.0106752 2.01486e-19)
(1.00879 -0.0104717 -5.15787e-19)
(1.0092 -0.0101618 -4.05689e-20)
(1.00955 -0.00974349 -7.2572e-19)
(1.00984 -0.00921438 1.69959e-18)
(1.01005 -0.00856307 -3.54725e-19)
(1.01019 -0.00779865 -2.23693e-18)
(1.01028 -0.00693895 3.94232e-19)
(1.0101 -0.00555521 -1.5372e-19)
(1.01019 -0.00332926 1.36202e-19)
(1.00052 -7.06203e-05 -3.0437e-21)
(1.00057 -0.00076488 -3.09048e-19)
(1.00064 -0.0015202 1.40367e-19)
(1.00079 -0.00226253 1.43259e-18)
(1.00098 -0.0030069 3.16825e-19)
(1.00122 -0.00377316 -2.36105e-19)
(1.0015 -0.00455348 -1.66707e-19)
(1.00182 -0.00533844 -1.53043e-20)
(1.00218 -0.00612159 1.67487e-19)
(1.00258 -0.00688719 -2.20839e-20)
(1.00302 -0.00762257 5.88751e-19)
(1.00349 -0.00831239 -9.38744e-20)
(1.00399 -0.00894374 8.75475e-20)
(1.00452 -0.00950366 2.34346e-20)
(1.00507 -0.00998193 -2.03961e-20)
(1.00563 -0.0103699 -1.47796e-19)
(1.0062 -0.0106617 2.95553e-19)
(1.00677 -0.0108526 6.4285e-19)
(1.00732 -0.0109403 -1.21154e-18)
(1.00786 -0.0109231 -5.45946e-19)
(1.00836 -0.0108009 -2.61625e-20)
(1.00882 -0.0105735 1.35034e-18)
(1.00924 -0.0102397 9.88217e-19)
(1.00961 -0.00979671 -5.79442e-19)
(1.00992 -0.00924202 -2.27312e-18)
(1.01015 -0.00856362 7.79995e-19)
(1.0103 -0.00777063 1.03722e-18)
(1.01042 -0.00688048 6.58009e-19)
(1.01027 -0.00546124 -2.85653e-19)
(1.01038 -0.00319093 -1.26106e-19)
(1.00031 -9.18044e-05 -3.36829e-20)
(1.00037 -0.000857045 -1.91251e-20)
(1.00044 -0.0016754 3.22376e-19)
(1.00059 -0.00247429 -4.79863e-19)
(1.00079 -0.00326259 -9.32577e-19)
(1.00104 -0.00406226 -4.41052e-19)
(1.00133 -0.00486593 8.66685e-20)
(1.00167 -0.0056644 2.54439e-19)
(1.00204 -0.00645236 -1.76242e-19)
(1.00245 -0.00721488 6.20606e-19)
(1.0029 -0.00794071 1.33433e-19)
(1.00338 -0.00861583 4.49866e-19)
(1.0039 -0.00922881 -3.68394e-20)
(1.00444 -0.00976794 -6.94621e-20)
(1.005 -0.0102241 -3.70576e-20)
(1.00558 -0.0105895 -3.87426e-19)
(1.00616 -0.0108587 -1.02858e-18)
(1.00673 -0.0110276 -9.77831e-19)
(1.0073 -0.011094 5.72071e-19)
(1.00784 -0.0110559 -1.44006e-18)
(1.00836 -0.0109132 -2.39842e-19)
(1.00884 -0.0106654 -5.32171e-19)
(1.00928 -0.0103106 -7.45396e-19)
(1.00966 -0.00984589 1.86282e-19)
(1.00998 -0.00926816 3.56456e-18)
(1.01024 -0.00856495 -1.92001e-18)
(1.01041 -0.00774535 1.19877e-18)
(1.01055 -0.00682656 -1.34084e-18)
(1.01043 -0.00537332 8.12823e-19)
(1.01057 -0.00306001 -6.18801e-20)
(1.00009 -0.000110212 1.17494e-20)
(1.00016 -0.000943359 -4.02769e-19)
(1.00022 -0.00181862 -3.30397e-19)
(1.00038 -0.00266839 -2.20036e-19)
(1.00059 -0.00349498 4.49293e-19)
(1.00085 -0.00432276 1.55149e-19)
(1.00115 -0.00514519 1.07057e-19)
(1.00149 -0.00595358 -3.48475e-19)
(1.00188 -0.0067439 -4.66814e-19)
(1.0023 -0.00750209 -8.3339e-19)
(1.00276 -0.0082183 -7.98128e-19)
(1.00326 -0.00887974 -3.26331e-20)
(1.00378 -0.0094763 9.24824e-20)
(1.00434 -0.00999734 -1.14035e-19)
(1.00491 -0.0104346 3.97579e-19)
(1.0055 -0.010781 4.9352e-19)
(1.00609 -0.0110316 -6.02759e-20)
(1.00668 -0.0111823 2.80908e-19)
(1.00725 -0.0112311 -7.80475e-19)
(1.00781 -0.0111758 1.34421e-18)
(1.00835 -0.0110158 1.20821e-19)
(1.00884 -0.0107506 1.24176e-20)
(1.0093 -0.0103777 -6.08947e-19)
(1.0097 -0.00989359 -5.44067e-19)
(1.01005 -0.009295 -3.03422e-18)
(1.01032 -0.00856892 1.80818e-19)
(1.01052 -0.00772451 -1.78434e-18)
(1.01068 -0.0067787 -3.9765e-19)
(1.0106 -0.00529304 -4.72115e-19)
(1.01077 -0.00293904 1.23529e-19)
(0.999852 -0.00012612 -5.11284e-20)
(0.999921 -0.00102371 4.37727e-19)
(0.999991 -0.00194999 1.89264e-20)
(1.00015 -0.00284518 3.97592e-19)
(1.00037 -0.00370491 4.64418e-19)
(1.00064 -0.00455605 -6.20727e-21)
(1.00095 -0.0053933 -3.78677e-19)
(1.0013 -0.00620867 2.67408e-19)
(1.0017 -0.00699955 6.54176e-19)
(1.00213 -0.00775278 6.00079e-20)
(1.00261 -0.0084598 2.52578e-19)
(1.00311 -0.00910895 -1.22306e-19)
(1.00365 -0.00969128 -1.30765e-19)
(1.00422 -0.0101971 1.19317e-19)
(1.0048 -0.0106187 -3.09283e-19)
(1.0054 -0.0109496 1.77581e-19)
(1.006 -0.0111851 1.29048e-18)
(1.0066 -0.0113213 -1.70456e-19)
(1.0072 -0.0113558 1.0922e-18)
(1.00777 -0.0112864 -2.84973e-19)
(1.00832 -0.0111123 2.75237e-19)
(1.00884 -0.0108322 5.15467e-19)
(1.00931 -0.0104435 3.48583e-19)
(1.00974 -0.00994212 3.18107e-19)
(1.0101 -0.00932446 -2.02874e-18)
(1.0104 -0.00857709 1.71127e-20)
(1.01062 -0.00770919 3.4775e-18)
(1.01082 -0.00673757 2.53251e-18)
(1.01076 -0.00522044 6.4608e-19)
(1.01097 -0.00282628 6.5307e-20)
(0.999599 -0.000139487 3.49602e-20)
(0.999669 -0.001098 -1.13359e-19)
(0.999743 -0.00206988 -1.7862e-19)
(0.999909 -0.00300546 -5.24847e-19)
(1.00014 -0.00389373 -6.29322e-19)
(1.00041 -0.00476415 2.78437e-19)
(1.00074 -0.00561293 -4.02078e-19)
(1.0011 -0.006433 1.1772e-20)
(1.00151 -0.00722323 -9.36766e-20)
(1.00195 -0.0079713 2.35336e-19)
(1.00244 -0.00866992 1.59785e-19)
(1.00296 -0.00930838 -3.90221e-19)