/*--------------------------------*- C++ -*----------------------------------*\
  =========                 |
  \\      /  F ield         | OpenFOAM: The Open Source CFD Toolbox
   \\    /   O peration     | Website:  https://openfoam.org
    \\  /    A nd           | Version:  6.0
     \\/     M anipulation  |
\*---------------------------------------------------------------------------*/
FoamFile
{
    version     2.0;
    format      ascii;
    class       volVectorField;
    location    "11";
    object      U;
}
// * * * * * * * * * * * * * * * * * * * * * * * * * * * * * * * * * * * * * //

dimensions      [0 1 -1 0 0 0 0];

internalField   nonuniform List<vector> 
34500
(
(0.999997 5.90859e-05 2.60893e-17)
(0.999954 0.000141237 5.61367e-17)
(0.999858 8.7805e-05 1.90614e-16)
(0.999742 -9.47842e-05 1.73092e-16)
(0.99966 -0.000285126 -9.82923e-17)
(0.999608 -0.000393537 2.74798e-16)
(0.999536 -0.000474981 -2.07049e-16)
(0.999423 -0.000632747 -7.44388e-16)
(0.999292 -0.000923908 1.8835e-16)
(0.999203 -0.00132269 -5.25411e-17)
(0.999185 -0.00177801 -2.73057e-16)
(0.999247 -0.00228171 -6.46541e-16)
(0.999366 -0.00278368 -2.95276e-16)
(1.00024 -0.00345559 -2.48923e-16)
(0.990286 -0.00859298 5.42904e-17)
(1.00002 0.000182587 -3.4183e-17)
(0.999893 0.000233664 3.83701e-17)
(0.999689 -5.48125e-05 -1.32918e-17)
(0.999513 -0.0004763 -8.77657e-17)
(0.999445 -0.000727636 -1.41761e-16)
(0.999409 -0.000731339 2.0003e-16)
(0.999266 -0.000755608 -2.34531e-16)
(0.999036 -0.00102335 8.70216e-16)
(0.99876 -0.00162116 -4.6678e-16)
(0.998591 -0.00243357 -3.73395e-16)
(0.998564 -0.00334036 -5.1821e-16)
(0.998709 -0.00430707 4.31497e-16)
(0.998891 -0.00523166 4.269e-16)
(1.00009 -0.00624082 -1.40461e-16)
(0.992403 -0.0116496 -1.68051e-16)
(1.00004 0.000206485 2.42058e-17)
(0.99989 0.000102619 -6.1026e-17)
(0.999675 -0.000368627 -2.46512e-16)
(0.999544 -0.000837521 -1.94818e-16)
(0.999576 -0.000946379 4.20528e-16)
(0.999652 -0.000693573 -6.90248e-17)
(0.999599 -0.000486542 4.93069e-16)
(0.999426 -0.000617767 -3.68244e-16)
(0.999164 -0.00116995 7.67145e-16)
(0.998988 -0.00200067 5.26236e-16)
(0.998933 -0.00295237 5.72509e-16)
(0.999062 -0.00398109 9.52455e-17)
(0.999128 -0.0049544 -4.00827e-16)
(1.00003 -0.00578473 -7.25888e-17)
(0.995657 -0.00970475 3.71012e-16)
(1.00005 0.00016325 -1.34044e-17)
(0.99987 -0.000120643 5.66313e-17)
(0.999624 -0.000717193 8.7156e-17)
(0.999471 -0.00117794 -5.45071e-17)
(0.999521 -0.00116829 -3.57756e-16)
(0.999656 -0.000755512 -3.18048e-16)
(0.999702 -0.00040364 -3.44438e-16)
(0.999626 -0.000438007 -9.66233e-18)
(0.99944 -0.000927393 -2.47462e-16)
(0.9993 -0.00173918 -1.09085e-15)
(0.999237 -0.0027052 7.08694e-18)
(0.999352 -0.00379003 7.74486e-17)
(0.999328 -0.00486567 3.10236e-16)
(0.999908 -0.00566444 -2.58658e-16)
(0.99676 -0.00950792 7.47331e-17)
(1.00004 0.000102044 -3.25321e-17)
(0.999812 -0.000323243 5.72957e-18)
(0.999486 -0.000994796 -7.17908e-17)
(0.999223 -0.00145463 9.62134e-17)
(0.999176 -0.00142643 -2.78289e-16)
(0.999265 -0.00102358 3.30156e-16)
(0.999344 -0.000704052 2.50899e-16)
(0.999341 -0.000788823 -2.27181e-16)
(0.99925 -0.00131788 -2.63017e-16)
(0.99919 -0.0021767 6.78169e-16)
(0.999183 -0.00319782 -6.82589e-16)
(0.99935 -0.00435682 -1.95558e-16)
(0.999356 -0.0055276 2.93067e-16)
(0.999772 -0.00631512 1.2519e-16)
(0.997542 -0.00991514 -7.90489e-16)
(1.00001 4.85941e-05 4.10878e-17)
(0.999741 -0.000458007 -3.25217e-17)
(0.999329 -0.00115224 2.03529e-16)
(0.998929 -0.00161123 5.91036e-17)
(0.998737 -0.00163053 3.06472e-16)
(0.998723 -0.00134948 -6.00034e-16)
(0.998785 -0.00118069 -1.96087e-16)
(0.998832 -0.00140941 -2.43798e-16)
(0.998842 -0.00203718 5.008e-16)
(0.998895 -0.00296254 -3.03157e-16)
(0.99899 -0.00402244 2.83529e-17)
(0.999259 -0.00519649 2.74174e-16)
(0.999377 -0.00634936 -2.90784e-16)
(0.999738 -0.00699441 3.04695e-16)
(0.998546 -0.00996056 4.30041e-16)
(0.999968 1.07433e-05 -2.46557e-17)
(0.999687 -0.000520212 -1.8687e-17)
(0.999224 -0.00118715 6.16689e-17)
(0.998722 -0.00162727 -2.16917e-16)
(0.998401 -0.00171049 2.96469e-16)
(0.998282 -0.00158805 5.62263e-16)
(0.998314 -0.00160876 1.08042e-16)
(0.998399 -0.00200272 4.47797e-16)
(0.998504 -0.00273183 -6.37042e-16)
(0.998673 -0.00370091 1.93617e-16)
(0.998884 -0.00475381 4.68765e-16)
(0.999262 -0.00587063 -1.05895e-16)
(0.999502 -0.00690944 -1.41127e-16)
(0.999836 -0.00733001 -4.80727e-17)
(0.999577 -0.00965322 1.34444e-16)
(0.999928 -1.09305e-05 -3.94769e-17)
(0.999661 -0.000521831 -3.79959e-17)
(0.999196 -0.00112374 -1.88019e-16)
(0.99865 -0.00152388 1.30038e-16)
(0.99825 -0.00166155 -2.26929e-16)
(0.998056 -0.00169064 1.12104e-16)
(0.998064 -0.00189153 4.12483e-18)
(0.99818 -0.00243268 -1.40507e-17)
(0.998365 -0.00324018 2.7953e-16)
(0.998634 -0.00422204 3.1115e-16)
(0.998944 -0.00523161 -1.79969e-16)
(0.999409 -0.00625192 7.6668e-17)
(0.999742 -0.00714573 5.12783e-16)
(1.00003 -0.0073526 -3.28335e-17)
(1.00046 -0.00919846 -3.4956e-17)
(0.999891 -1.83494e-05 -7.933e-18)
(0.999661 -0.000480554 -3.56965e-17)
(0.999233 -0.000997278 -4.41511e-17)
(0.998697 -0.00134555 -1.37602e-16)
(0.998271 -0.00152367 -2.19728e-16)
(0.998043 -0.00168163 -3.52912e-16)
(0.998041 -0.00203469 4.83897e-18)
(0.998184 -0.00269241 5.10303e-16)
(0.99843 -0.0035516 -1.69107e-16)
(0.998773 -0.00452364 -3.76952e-16)
(0.999153 -0.00547395 3.1565e-16)
(0.999673 -0.00639267 1.77555e-16)
(1.00006 -0.00715666 -9.54605e-16)
(1.00028 -0.00720682 3.9221e-16)
(1.00114 -0.00874094 2.72806e-17)
(0.999862 -1.48238e-05 8.84363e-17)
(0.999677 -0.000415474 1.25085e-16)
(0.999311 -0.000843944 -8.81424e-19)
(0.998823 -0.00114106 2.943e-17)
(0.998414 -0.00135079 1.29257e-16)
(0.998185 -0.00161421 8.4307e-17)
(0.998189 -0.00208861 -5.54374e-18)
(0.998357 -0.00283277 -7.84342e-16)
(0.998646 -0.00372162 6.35602e-16)
(0.999038 -0.00467168 2.13045e-16)
(0.99946 -0.00556216 -1.12223e-16)
(1 -0.00639317 -6.18446e-16)
(1.00041 -0.00705908 7.72267e-16)
(1.00055 -0.00701067 -2.53023e-16)
(1.00165 -0.00835135 -1.12843e-16)
(0.999842 -3.94089e-06 -5.20346e-17)
(0.999701 -0.000343412 -1.58045e-16)
(0.999405 -0.000693855 5.56969e-17)
(0.998985 -0.000951036 3.17674e-16)
(0.998622 -0.00119053 -1.82689e-16)
(0.998416 -0.00154072 -3.44625e-16)
(0.99844 -0.00210938 -6.05925e-17)
(0.998631 -0.00291475 5.08859e-16)
(0.998949 -0.00381707 -2.67782e-16)
(0.99937 -0.00474006 2.84259e-17)
(0.999812 -0.0055773 -7.80187e-17)
(1.00036 -0.00633955 8.50023e-17)
(1.00076 -0.00693712 -4.37099e-16)
(1.00082 -0.00683225 -3.06353e-16)
(1.00203 -0.00805682 -2.74069e-16)
(0.999829 1.06867e-05 7.21448e-19)
(0.999725 -0.000277285 -8.3592e-19)
(0.999497 -0.000568567 1.15301e-16)
(0.999152 -0.00080346 -6.43994e-17)
(0.998848 -0.0010762 2.64861e-16)
(0.998682 -0.00149986 4.17446e-17)
(0.998734 -0.00214101 5.50802e-16)
(0.998947 -0.00298777 -9.0126e-17)
(0.999286 -0.00389209 -2.55387e-16)
(0.999722 -0.00478646 -2.3944e-16)
(1.00017 -0.00557841 8.65594e-17)
(1.00071 -0.00628841 1.46932e-16)
(1.00109 -0.00683881 4.15737e-16)
(1.00107 -0.00670116 1.88772e-17)
(1.00232 -0.00785229 2.50266e-16)
(0.999821 2.6056e-05 -2.10451e-17)
(0.999744 -0.000225669 2.20246e-16)
(0.999575 -0.000480761 -2.94563e-17)
(0.999301 -0.000713397 -1.2883e-16)
(0.999062 -0.00102558 6.67943e-18)
(0.998944 -0.00151347 6.70327e-17)
(0.99903 -0.00221023 -3.16051e-16)
(0.999265 -0.00308303 -2.10255e-16)
(0.999619 -0.00398096 1.12044e-16)
(1.00006 -0.00484616 -8.40516e-17)
(1.0005 -0.00559906 -2.14981e-16)
(1.00103 -0.00626815 -2.06002e-16)
(1.0014 -0.00678338 -6.56236e-16)
(1.00131 -0.00662355 -6.92899e-18)
(1.00255 -0.00772378 3.50458e-16)
(0.999817 3.97872e-05 3.52545e-17)
(0.999755 -0.00019355 -1.21977e-16)
(0.999632 -0.000435946 4.57209e-17)
(0.999422 -0.000685577 -1.48418e-16)
(0.999247 -0.00104374 1.22021e-16)
(0.99918 -0.00158908 -1.5482e-16)
(0.999302 -0.00232834 -1.40483e-16)
(0.99956 -0.00321523 -2.42147e-16)
(0.999926 -0.00410044 4.74682e-16)
(1.00037 -0.00493588 3.04738e-16)
(1.0008 -0.00565362 4.24765e-16)
(1.00131 -0.00628828 6.4114e-16)
(1.00166 -0.00677374 3.26733e-16)
(1.00153 -0.00659359 1.0455e-15)
(1.00274 -0.00765102 -2.02382e-16)
(0.999811 5.03689e-05 -1.9106e-17)
(0.999756 -0.000182672 8.76553e-17)
(0.999668 -0.000433986 -7.37877e-17)
(0.999512 -0.000717081 1.37733e-16)
(0.999396 -0.00112651 -8.7943e-17)
(0.999379 -0.0017237 1.89264e-16)
(0.999537 -0.00249503 1.78241e-16)
(0.999817 -0.00338663 6.90905e-16)
(1.00019 -0.00425412 -8.65421e-16)
(1.00064 -0.00505889 -1.1251e-16)
(1.00107 -0.00574326 -5.36248e-17)
(1.00156 -0.00634638 -6.74756e-16)
(1.00189 -0.00680329 3.33537e-16)
(1.00172 -0.00660085 -3.04276e-16)
(1.0029 -0.00761875 -1.24605e-16)
(0.999802 5.67748e-05 1.63017e-17)
(0.999747 -0.000192542 -6.36402e-17)
(0.999684 -0.000471169 2.89572e-17)
(0.999573 -0.000800429 4.3672e-17)
(0.999508 -0.00126433 3.4337e-17)
(0.999538 -0.00190816 -2.33038e-16)
(0.999732 -0.00270307 6.62419e-17)
(1.00003 -0.00359201 -5.40342e-16)
(1.00042 -0.00443789 3.14209e-16)
(1.00087 -0.00521099 -2.28204e-16)
(1.00129 -0.00586254 -4.42049e-16)
(1.00177 -0.00643501 3.2154e-16)
(1.00209 -0.00686278 -2.64632e-16)
(1.00189 -0.00663418 -1.8868e-17)
(1.00305 -0.00761087 -8.58878e-17)
(0.999785 5.86287e-05 -1.80637e-17)
(0.999728 -0.000220996 8.4169e-17)
(0.999682 -0.000541438 -1.78106e-17)
(0.999608 -0.000925553 -1.65633e-17)
(0.999589 -0.00144486 -1.07684e-16)
(0.999661 -0.00213009 1.27411e-16)
(0.999888 -0.00294152 -1.86904e-16)
(1.00021 -0.00382203 5.0731e-17)
(1.00061 -0.00464337 -2.24001e-16)
(1.00106 -0.00538394 1.84308e-16)
(1.00147 -0.00600264 4.24114e-16)
(1.00194 -0.0065444 -1.56201e-16)
(1.00226 -0.00694177 2.49019e-16)
(1.00205 -0.00668349 -3.66186e-16)
(1.00319 -0.00761766 3.01492e-16)
(0.99976 5.59191e-05 7.75914e-19)
(0.999699 -0.000265117 -1.3748e-16)
(0.999665 -0.000637874 3.65499e-17)
(0.99962 -0.00108181 6.68511e-17)
(0.99964 -0.0016554 3.79284e-17)
(0.999752 -0.00237672 1.44614e-16)
(1.00001 -0.00319881 2.58787e-16)
(1.00035 -0.00406654 3.57045e-16)
(1.00076 -0.00486144 2.67486e-16)
(1.00121 -0.00556908 -6.53751e-17)
(1.00163 -0.00615499 1.06388e-17)
(1.00209 -0.00666595 3.78458e-16)
(1.00241 -0.00703209 -1.4008e-16)
(1.00218 -0.00674119 1.6841e-16)
(1.00332 -0.00763049 -2.50732e-16)
(0.999724 4.91084e-05 1.74948e-17)
(0.999661 -0.000321447 8.59413e-17)
(0.999634 -0.000753286 -1.23926e-17)
(0.999614 -0.00125884 1.36867e-17)
(0.999669 -0.00188396 -8.92926e-17)
(0.999814 -0.00263609 -1.059e-16)
(1.0001 -0.00346405 -4.56643e-16)
(1.00046 -0.00431593 -4.17877e-17)
(1.00088 -0.00508343 -3.05508e-18)
(1.00134 -0.00575835 6.49466e-17)
(1.00175 -0.00631192 1.4445e-16)
(1.00222 -0.00679234 -2.52438e-16)
(1.00253 -0.00712699 -3.72481e-16)
(1.00229 -0.0068019 -2.10048e-16)
(1.00344 -0.00764644 2.05694e-16)
(0.999678 3.87811e-05 -1.54942e-17)
(0.999614 -0.000386569 -3.59985e-17)
(0.999592 -0.000881043 -5.05821e-18)
(0.999593 -0.00144754 1.16528e-16)
(0.999677 -0.0021203 8.11248e-17)
(0.999853 -0.00289822 -1.95469e-17)
(1.00016 -0.00372823 3.77787e-16)
(1.00054 -0.00456238 -4.11528e-16)
(1.00098 -0.00530246 -2.53169e-16)
(1.00143 -0.00594562 -2.75389e-16)
(1.00185 -0.00646788 -7.70159e-16)
(1.00232 -0.00691864 3.69687e-16)
(1.00264 -0.00722241 3.39476e-16)
(1.00239 -0.00686225 8.33491e-17)
(1.00356 -0.00766136 -1.18133e-16)
(0.999621 2.57679e-05 4.04071e-18)
(0.999558 -0.000457154 -4.93461e-17)
(0.99954 -0.00101515 8.23948e-17)
(0.99956 -0.00164007 -2.06204e-16)
(0.99967 -0.00235593 -5.46175e-17)
(0.999873 -0.003155 2.69412e-16)
(1.0002 -0.00398417 -2.82823e-16)
(1.0006 -0.00479968 1.07728e-16)
(1.00104 -0.00551311 -1.21091e-16)
(1.00151 -0.00612602 -2.87163e-17)
(1.00193 -0.00661851 2.47702e-16)
(1.0024 -0.00704096 -3.97605e-16)
(1.00272 -0.0073149 -2.2974e-16)
(1.00248 -0.00691991 4.50469e-16)
(1.00367 -0.00767447 -1.41904e-16)
(0.999553 1.08759e-05 1.41183e-17)
(0.999494 -0.000530353 4.68027e-17)
(0.999479 -0.00115065 -1.87353e-16)
(0.999516 -0.0018303 -1.44434e-16)
(0.999648 -0.00258448 1.90967e-16)
(0.999875 -0.0034006 -1.83882e-17)
(1.00023 -0.00422689 7.67493e-17)
(1.00064 -0.00502374 1.7219e-16)
(1.00109 -0.00571197 1.08741e-16)
(1.00156 -0.00629673 1.12055e-16)
(1.00199 -0.00676148 8.4143e-17)
(1.00247 -0.00715745 -3.53156e-16)
(1.0028 -0.00740324 1.12882e-16)
(1.00255 -0.00697399 -5.96815e-16)
(1.00377 -0.00768455 1.96603e-16)
(0.999475 -5.00508e-06 -4.10407e-18)
(0.999421 -0.000603646 4.98859e-18)
(0.99941 -0.00128351 -1.31785e-18)
(0.999462 -0.00201344 3.3742e-16)
(0.999615 -0.00280125 -3.60672e-16)
(0.999863 -0.00363092 1.35963e-16)
(1.00023 -0.00445308 1.59852e-16)
(1.00066 -0.00523196 -9.44011e-17)
(1.00112 -0.00589696 -6.87343e-17)
(1.0016 -0.00645605 2.31164e-16)
(1.00204 -0.00689543 -6.22396e-17)
(1.00252 -0.00726703 5.57603e-16)
(1.00286 -0.00748658 1.89306e-16)
(1.00262 -0.00702433 1.0343e-16)
(1.00387 -0.00769309 1.30148e-17)
(0.999388 -2.1142e-05 -2.5604e-17)
(0.999341 -0.000675086 9.28961e-17)
(0.999333 -0.00141072 1.50318e-16)
(0.9994 -0.00218624 -2.66491e-16)
(0.99957 -0.00300328 1.4139e-16)
(0.999837 -0.00384368 -2.10091e-16)
(1.00022 -0.00466113 -9.73774e-17)
(1.00066 -0.00542334 1.50152e-16)
(1.00113 -0.00606749 6.356e-17)
(1.00162 -0.0066037 -4.39107e-16)
(1.00207 -0.00702036 4.85431e-16)
(1.00256 -0.00736997 9.43558e-17)
(1.00291 -0.00756545 -1.27422e-16)
(1.00268 -0.00707141 -2.13974e-16)
(1.00396 -0.00769974 7.91054e-17)
(0.999294 -3.68209e-05 2.61293e-18)
(0.999254 -0.000743078 -1.16966e-18)
(0.999249 -0.00153005 -1.30416e-16)
(0.999329 -0.00234644 7.00188e-17)
(0.999516 -0.00318875 1.63007e-16)
(0.9998 -0.00403769 -2.82733e-16)
(1.0002 -0.00485041 1.45937e-16)
(1.00065 -0.00559761 -4.60854e-16)
(1.00113 -0.00622351 1.28769e-16)
(1.00163 -0.00673972 -3.0759e-17)
(1.00209 -0.00713632 -2.67713e-16)
(1.00259 -0.00746628 -1.58341e-16)
(1.00295 -0.00763976 1.13098e-16)
(1.00273 -0.00711544 2.39822e-16)
(1.00405 -0.00770521 -3.5689e-16)
(0.999192 -5.15296e-05 3.58058e-19)
(0.999159 -0.000806557 -2.36952e-16)
(0.999158 -0.00164012 1.4636e-17)
(0.99925 -0.00249287 -3.33289e-17)
(0.999452 -0.00335703 -2.50014e-16)
(0.999751 -0.00421291 3.82282e-16)
(1.00016 -0.00502132 -1.24664e-16)
(1.00062 -0.0057555 5.18725e-16)
(1.00112 -0.00636588 -4.03571e-17)
(1.00163 -0.00686503 4.45943e-16)
(1.00209 -0.00724427 -1.20782e-16)
(1.00261 -0.00755693 -1.17047e-16)
(1.00298 -0.00771052 -4.04502e-16)
(1.00277 -0.0071572 -1.58149e-16)
(1.00414 -0.00770988 4.80044e-17)
(0.999085 -6.4814e-05 1.94303e-17)
(0.999058 -0.000864746 4.82382e-17)
(0.999061 -0.00174011 5.00627e-17)
(0.999164 -0.00262504 -1.05628e-16)
(0.999379 -0.00350814 -9.53052e-18)
(0.999692 -0.00436988 -3.21034e-16)
(1.00011 -0.00517478 -1.49532e-16)
(1.00059 -0.0058981 -2.46366e-16)
(1.00109 -0.00649569 9.60368e-17)
(1.00161 -0.00698064 3.46011e-16)
(1.00209 -0.0073451 2.17978e-17)
(1.00262 -0.00764268 5.07542e-17)
(1.00301 -0.00777827 4.4767e-16)
(1.00282 -0.00719744 8.50484e-17)
(1.00422 -0.00771514 3.34984e-16)
(0.998972 -7.64245e-05 -1.64115e-17)
(0.99895 -0.000917289 2.865e-17)
(0.998957 -0.00182979 -1.30662e-16)
(0.999071 -0.00274318 1.20429e-16)
(0.999298 -0.00364286 2.47631e-16)
(0.999624 -0.00450986 2.14362e-16)
(1.00006 -0.00531231 -1.19667e-16)
(1.00054 -0.00602701 3.89286e-16)
(1.00106 -0.00661454 6.6532e-17)
(1.00159 -0.00708807 -5.84371e-16)
(1.00208 -0.00744026 -4.03956e-16)
(1.00262 -0.00772488 -7.32862e-17)
(1.00303 -0.00784434 2.67146e-16)
(1.00285 -0.00723714 -4.46876e-17)
(1.0043 -0.0077214 3.38118e-17)
(0.998854 -8.61594e-05 4.31891e-17)
(0.998837 -0.000963996 5.92756e-17)
(0.998847 -0.00190924 1.20612e-16)
(0.998972 -0.00284781 -7.28646e-17)
(0.999209 -0.00376218 -1.47861e-16)
(0.999546 -0.0046342 -1.82081e-16)
(0.999989 -0.00543541 2.36895e-16)
(1.00048 -0.00614373 -5.02213e-16)
(1.00101 -0.00672376 -3.1058e-16)
(1.00156 -0.00718842 1.14951e-16)
(1.00206 -0.00753058 5.43508e-16)
(1.00262 -0.0078041 -4.03482e-17)
(1.00305 -0.00790896 -5.13075e-16)
(1.00289 -0.0072766 4.54329e-16)
(1.00438 -0.00772857 -9.55291e-17)
(0.998732 -9.39879e-05 -5.43268e-17)
(0.998719 -0.00100498 -2.87727e-17)
(0.998733 -0.00197893 -1.73027e-17)
(0.998866 -0.00293987 2.19098e-17)
(0.999113 -0.00386749 -1.17e-16)
(0.999461 -0.00474459 2.61617e-16)
(0.999913 -0.00554588 -7.01697e-17)
(1.00042 -0.00625001 5.02135e-16)
(1.00096 -0.00682498 6.59293e-16)
(1.00152 -0.00728317 5.38365e-17)
(1.00204 -0.00761738 -6.81536e-17)
(1.00261 -0.00788152 1.86559e-16)
(1.00306 -0.00797324 3.32184e-16)
(1.00292 -0.00731654 -4.64287e-17)
(1.00446 -0.00773745 -4.00797e-16)
(0.998607 -9.9903e-05 5.01196e-17)
(0.998596 -0.00104045 2.81802e-17)
(0.998613 -0.00203945 1.29321e-16)
(0.998754 -0.00302037 6.34023e-17)
(0.99901 -0.00396017 5.36454e-17)
(0.999369 -0.00484264 -4.53001e-16)
(0.99983 -0.00564539 2.04599e-16)
(1.00035 -0.00634742 -5.35504e-16)
(1.0009 -0.00691957 -5.77431e-16)
(1.00147 -0.00737343 -2.74782e-16)
(1.00201 -0.00770155 9.04946e-17)
(1.0026 -0.00795778 -2.36006e-16)
(1.00307 -0.00803755 -3.35793e-16)
(1.00296 -0.00735744 -8.34212e-17)
(1.00454 -0.00774844 2.35486e-16)
(0.998478 -0.000104025 -2.01157e-17)
(0.998468 -0.00107079 -4.32274e-17)
(0.998488 -0.00209162 -1.38684e-16)
(0.998637 -0.00309057 9.53981e-19)
(0.998902 -0.00404183 -5.90674e-17)
(0.999269 -0.00493016 3.45911e-16)
(0.99974 -0.00573574 1.92748e-16)
(1.00027 -0.00643769 -1.81013e-16)
(1.00084 -0.00700911 1.38705e-17)
(1.00142 -0.00746063 2.66904e-17)
(1.00198 -0.00778436 -1.39748e-16)
(1.00259 -0.00803406 1.49871e-17)
(1.00308 -0.00810305 -4.27957e-16)
(1.00299 -0.00740013 -1.29106e-16)
(1.00461 -0.00776242 -1.41347e-17)
(0.998347 -0.000106463 -3.48146e-17)
(0.998337 -0.00109638 -2.91418e-17)
(0.998359 -0.00213624 -3.42107e-17)
(0.998515 -0.00315162 -1.86271e-17)
(0.998787 -0.00411387 2.74642e-16)
(0.999164 -0.00500865 -2.34208e-16)
(0.999644 -0.00581841 -1.9547e-16)
(1.00018 -0.00652212 4.25537e-16)
(1.00077 -0.00709467 2.94503e-17)
(1.00137 -0.00754559 3.79857e-16)
(1.00194 -0.00786635 2.08965e-17)
(1.00258 -0.00811062 -4.10981e-17)
(1.00309 -0.00816967 3.79158e-16)
(1.00302 -0.00744453 3.82735e-17)
(1.00469 -0.00777831 2.64282e-16)
(0.998213 -0.000107413 1.47401e-17)
(0.998202 -0.00111775 1.52466e-17)
(0.998227 -0.00217423 1.42495e-16)
(0.998389 -0.00320478 -7.26696e-18)
(0.998668 -0.00417778 -5.76873e-17)
(0.999053 -0.0050797 4.96289e-16)
(0.999543 -0.00589494 -1.48657e-16)
(1.00009 -0.00660211 2.89167e-16)
(1.00069 -0.0071775 1.10476e-16)
(1.00131 -0.00762938 1.09895e-16)
(1.0019 -0.00794848 2.14209e-16)
(1.00256 -0.00818832 1.04307e-16)
(1.0031 -0.00823824 1.97237e-16)
(1.00306 -0.00749119 -2.53108e-16)
(1.00477 -0.0077974 -1.78329e-16)
(0.998077 -0.000107041 1.65988e-17)
(0.998064 -0.00113535 8.2395e-18)
(0.998091 -0.0022064 -1.73604e-16)
(0.998259 -0.00325113 -4.73045e-17)
(0.998544 -0.00423481 -3.61268e-17)
(0.998938 -0.0051446 -4.4035e-16)
(0.999437 -0.00596657 -1.14502e-16)
(1 -0.00667877 -4.69642e-16)
(1.00061 -0.0072585 2.51314e-16)
(1.00125 -0.0077127 -1.69036e-16)
(1.00186 -0.00803123 -1.61888e-16)
(1.00254 -0.00826744 -2.38098e-17)
(1.00311 -0.00830883 5.82124e-17)
(1.00309 -0.00754028 2.71586e-16)
(1.00485 -0.00781909 1.72499e-16)
(0.997939 -0.000105572 3.61689e-17)
(0.997923 -0.0011497 2.77308e-17)
(0.997953 -0.00223366 -5.59257e-18)
(0.998125 -0.00329185 2.10679e-16)
(0.998416 -0.00428631 -5.72456e-18)
(0.998818 -0.00520475 1.20554e-16)
(0.999326 -0.00603461 -1.3725e-16)
(0.999902 -0.0067533 1.892e-16)
(1.00053 -0.00733877 -3.08519e-16)
(1.00119 -0.00779655 -3.16267e-16)
(1.00182 -0.00811553 1.00429e-16)
(1.00252 -0.00834887 -1.69432e-16)
(1.00312 -0.00838237 -8.51839e-17)
(1.00313 -0.00759252 -2.33106e-16)
(1.00493 -0.00784494 -3.44916e-16)
(0.997799 -0.000103178 -6.4194e-17)
(0.997779 -0.00116125 -3.12564e-17)
(0.997811 -0.00225673 -3.44732e-17)
(0.997988 -0.00332786 -2.62297e-16)
(0.998285 -0.00433328 -6.17558e-17)
(0.998694 -0.00526114 1.06587e-16)
(0.999212 -0.00610001 2.39966e-16)
(0.999801 -0.00682648 -2.70132e-16)
(1.00045 -0.0074189 -2.82935e-16)
(1.00112 -0.00788131 4.0146e-16)
(1.00178 -0.00820154 -4.93176e-17)
(1.00251 -0.00843257 1.53457e-16)
(1.00313 -0.00845851 1.26736e-17)
(1.00317 -0.00764757 -1.69492e-16)
(1.00502 -0.00787296 5.67448e-17)
(0.997657 -0.000100069 4.46189e-17)
(0.997634 -0.00117048 1.00969e-16)
(0.997667 -0.0022764 2.07618e-16)
(0.997848 -0.00336011 5.39109e-17)
(0.998151 -0.00437678 -8.05922e-17)
(0.998568 -0.00531484 -9.13031e-17)
(0.999095 -0.00616375 -6.98185e-17)
(0.999698 -0.00689921 3.454e-16)
(1.00036 -0.00749969 2.2019e-16)
(1.00106 -0.00796768 9.00227e-18)
(1.00174 -0.0082899 -3.16918e-17)
(1.00249 -0.00851913 -1.4618e-16)
(1.00315 -0.00853793 -8.46616e-17)
(1.00321 -0.00770584 3.26999e-16)
(1.0051 -0.00790511 8.72108e-17)
(0.997514 -9.64021e-05 -3.12346e-17)
(0.997486 -0.00117774 2.79004e-17)
(0.997521 -0.00229325 -1.5999e-17)
(0.997706 -0.00338935 1.2141e-16)
(0.998014 -0.0044176 3.22374e-16)
(0.998438 -0.00536662 -2.73127e-17)
(0.998976 -0.00622653 1.01469e-16)
(0.999592 -0.00697206 -2.20351e-16)
(1.00027 -0.00758158 2.41576e-16)
(1.00099 -0.00805596 -1.27346e-17)
(1.0017 -0.00838078 -6.83296e-17)
(1.00247 -0.0086086 2.34903e-17)
(1.00316 -0.00862045 -1.0065e-16)
(1.00326 -0.00776736 4.09587e-17)
(1.00519 -0.00793968 -8.11767e-17)
(0.99737 -9.23551e-05 1.83093e-17)
(0.997336 -0.00118348 -1.00334e-16)
(0.997373 -0.00230795 -2.35728e-16)
(0.997561 -0.00341636 -5.0698e-17)
(0.997874 -0.00445661 -1.6558e-16)
(0.998306 -0.00541736 -7.05879e-17)
(0.998854 -0.00628919 2.02419e-18)
(0.999485 -0.00704583 1.98552e-16)
(1.00018 -0.0076653 -6.35112e-17)
(1.00092 -0.00814687 -5.44388e-17)
(1.00165 -0.00847487 1.68259e-16)
(1.00246 -0.00870167 3.02645e-16)
(1.00318 -0.00870693 8.26413e-17)
(1.00331 -0.00783279 2.33369e-16)
(1.00528 -0.00797887 1.09104e-16)
(0.997224 -8.8051e-05 3.44299e-17)
(0.997185 -0.00118798 9.80278e-18)
(0.997223 -0.00232098 2.99868e-16)
(0.997414 -0.00344171 -3.76196e-17)
(0.997732 -0.00449439 3.70288e-17)
(0.998172 -0.0054676 -5.90197e-17)
(0.99873 -0.0063522 8.35829e-17)
(0.999375 -0.00712086 -1.36524e-16)
(1.00009 -0.00775108 6.8522e-19)
(1.00086 -0.00824048 -2.44086e-16)
(1.00161 -0.0085721 -2.24618e-17)
(1.00245 -0.0087981 9.9769e-17)
(1.0032 -0.00879684 -3.0049e-16)
(1.00336 -0.00790146 -6.70749e-17)
(1.00538 -0.00802086 3.2964e-18)
(0.997078 -8.36266e-05 -1.68016e-17)
(0.997032 -0.00119157 9.80206e-17)
(0.997071 -0.00233281 -1.49715e-16)
(0.997266 -0.00346598 4.29163e-17)
(0.997588 -0.00453155 -2.13211e-16)
(0.998035 -0.00551795 3.65334e-17)
(0.998604 -0.00641615 -1.20477e-16)
(0.999265 -0.00719769 -9.21161e-17)
(1 -0.00783942 2.10456e-16)
(1.00079 -0.00833726 2.64901e-16)
(1.00157 -0.00867292 -1.8812e-17)
(1.00244 -0.00889837 2.11619e-16)
(1.00322 -0.00889074 1.28525e-16)
(1.00341 -0.00797424 -1.37323e-16)
(1.00547 -0.00806495 -7.52743e-18)
(0.99693 -7.91751e-05 -2.11662e-17)
(0.996877 -0.00119446 -2.01489e-18)
(0.996918 -0.00234381 1.19933e-16)
(0.997115 -0.00348958 -8.05464e-17)
(0.997442 -0.00456853 9.07554e-17)
(0.997897 -0.0055688 2.10399e-16)
(0.998477 -0.00648135 1.26037e-17)
(0.999153 -0.00727657 -1.06637e-16)
(0.99991 -0.00793048 -2.14726e-16)
(1.00072 -0.00843729 -7.02736e-17)
(1.00153 -0.00877733 -5.4802e-17)
(1.00243 -0.00900235 -4.54051e-16)
(1.00324 -0.00898835 -3.91103e-17)
(1.00347 -0.00805037 -2.05715e-16)
(1.00557 -0.00811376 -4.68254e-17)
(0.99678 -7.47981e-05 -5.8805e-18)
(0.996721 -0.00119694 -1.16732e-16)
(0.996763 -0.00235436 -2.02464e-16)
(0.996963 -0.00351297 5.5616e-17)
(0.997294 -0.00460581 1.79126e-16)
(0.997757 -0.00562066 -6.68618e-17)
(0.998348 -0.00654833 -9.60346e-17)
(0.999041 -0.00735802 2.58085e-16)
(0.999819 -0.0080248 -6.95079e-17)
(1.00066 -0.00854111 -5.81755e-17)
(1.00149 -0.00888589 -3.28466e-16)
(1.00242 -0.0091107 3.79238e-18)
(1.00327 -0.00909048 6.45e-16)
(1.00353 -0.0081307 -1.50648e-16)
(1.00568 -0.00816819 -1.26011e-17)
(0.99663 -7.05577e-05 -2.16663e-17)
(0.996564 -0.00119914 5.19663e-17)
(0.996606 -0.00236473 3.08405e-17)
(0.996809 -0.00353644 1.4351e-16)
(0.997145 -0.00464369 -1.17777e-16)
(0.997615 -0.00567378 -7.58959e-17)
(0.998218 -0.00661728 -5.05899e-17)
(0.998927 -0.00744215 -1.51403e-16)
(0.999727 -0.00812237 1.41483e-16)
(1.00059 -0.00864863 3.89173e-17)
(1.00146 -0.00899839 4.1679e-16)
(1.00241 -0.00922304 2.47859e-16)
(1.0033 -0.00919639 -8.54991e-16)
(1.0036 -0.00821484 6.04872e-16)
(1.00578 -0.00822139 -1.02595e-17)
(0.996479 -6.65208e-05 1.25572e-17)
(0.996406 -0.00120127 -3.2946e-17)
(0.996448 -0.00237519 1.09231e-16)
(0.996653 -0.00356032 -1.36292e-16)
(0.996994 -0.0046825 1.10845e-16)
(0.997472 -0.00572851 2.19679e-16)
(0.998087 -0.00668853 1.43264e-16)
(0.998813 -0.0075293 -6.05846e-17)
(0.999635 -0.00822356 9.4675e-17)
(1.00052 -0.0087602 5.4377e-18)
(1.00142 -0.00911522 -4.29826e-16)
(1.00241 -0.00933982 -1.57361e-17)
(1.00333 -0.00930669 3.99216e-16)
(1.00366 -0.00830307 -3.81346e-16)
(1.00589 -0.00828259 1.47023e-16)
(0.996326 -6.27291e-05 -2.01844e-17)
(0.996246 -0.00120343 -6.51368e-17)
(0.996289 -0.00238591 -7.23453e-17)
(0.996496 -0.00358479 -1.03889e-16)
(0.996841 -0.00472243 -7.15967e-17)
(0.997328 -0.00578499 -1.51988e-16)
(0.997955 -0.00676222 1.12282e-16)
(0.998699 -0.00761953 1.2057e-16)
(0.999544 -0.00832838 -9.29929e-17)
(1.00046 -0.00887579 7.3524e-17)
(1.00139 -0.00923626 1.22198e-16)
(1.00241 -0.00946083 -2.17051e-16)
(1.00337 -0.00942095 3.78954e-16)
(1.00374 -0.0083948 1.71191e-16)
(1.00599 -0.00834576 -4.21009e-17)
(0.996172 -5.92263e-05 1.29842e-17)
(0.996084 -0.00120577 5.84289e-17)
(0.996128 -0.00239712 9.67378e-18)
(0.996337 -0.00361012 8.17807e-17)
(0.996687 -0.00476378 1.33308e-16)
(0.997182 -0.00584356 -1.60457e-16)
(0.997821 -0.00683869 -2.26076e-16)
(0.998583 -0.00771324 2.3888e-16)
(0.999452 -0.00843724 -1.8969e-16)
(1.0004 -0.00899586 -2.88743e-16)
(1.00136 -0.00936203 1.12529e-16)
(1.00241 -0.0095867 1.144e-16)
(1.00341 -0.00954006 2.74387e-17)
(1.00382 -0.00849105 -3.93222e-16)
(1.0061 -0.00841432 5.57133e-17)
(0.996017 -5.60348e-05 1.1014e-17)
(0.995922 -0.00120837 4.65035e-17)
(0.995966 -0.00240892 -2.89521e-17)
(0.996177 -0.00363644 7.96106e-18)
(0.996531 -0.00480666 2.60709e-17)
(0.997034 -0.00590429 2.67243e-16)
(0.997687 -0.00691798 2.75656e-16)
(0.998467 -0.0078104 8.61599e-18)
(0.99936 -0.00855008 9.85165e-17)
(1.00033 -0.00912024 1.39258e-16)
(1.00133 -0.00949226 2.23697e-16)
(1.00242 -0.00971697 -9.45042e-18)
(1.00345 -0.00966327 -9.24755e-17)
(1.0039 -0.00859077 -1.63572e-17)
(1.00622 -0.00848347 -9.19617e-17)
(0.99586 -5.31755e-05 -3.82488e-17)
(0.995758 -0.00121133 -6.99245e-17)
(0.995803 -0.00242147 -4.74696e-17)
(0.996015 -0.00366393 -8.36262e-17)
(0.996374 -0.00485126 -2.65123e-16)
(0.996885 -0.00596741 -1.65142e-17)
(0.997551 -0.00700032 5.75361e-18)
(0.998351 -0.00791126 -3.6502e-16)
(0.999269 -0.00866714 -8.82596e-17)
(1.00027 -0.00924924 1.09647e-16)
(1.0013 -0.00962731 -1.63763e-16)
(1.00242 -0.00985211 5.79981e-17)
(1.0035 -0.00979125 -8.26069e-16)
(1.00398 -0.00869475 5.25053e-16)
(1.00634 -0.00855727 1.9026e-17)
(0.995703 -5.06639e-05 3.95606e-17)
(0.995592 -0.00121468 5.05898e-18)
(0.995637 -0.00243484 1.07083e-16)
(0.995852 -0.00369264 1.52016e-16)
(0.996216 -0.00489764 6.02245e-17)
(0.996735 -0.00603293 8.65711e-17)
(0.997415 -0.00708573 -6.67997e-17)
(0.998234 -0.00801583 2.64114e-16)
(0.999178 -0.0087884 2.13866e-16)
(1.00021 -0.00938275 2.01572e-16)
(1.00127 -0.00976699 -6.29637e-17)
(1.00243 -0.00999181 -1.24419e-16)
(1.00355 -0.00992348 7.80143e-16)
(1.00407 -0.00880234 -5.33581e-16)
(1.00647 -0.00863168 -5.59461e-17)
(0.995543 -4.85101e-05 -7.91936e-18)
(0.995425 -0.00121852 1.26162e-16)
(0.995471 -0.00244915 -7.27933e-17)
(0.995687 -0.00372275 -1.1532e-16)
(0.996055 -0.00494601 2.49362e-17)
(0.996583 -0.00610111 -1.58309e-16)
(0.997277 -0.00717449 8.61553e-17)
(0.998117 -0.0081244 -1.06808e-16)
(0.999087 -0.00891423 -2.57667e-16)
(1.00015 -0.00952123 -5.46414e-17)
(1.00125 -0.00991184 4.21817e-16)
(1.00245 -0.0101367 2.09186e-16)
(1.0036 -0.0100609 -4.86562e-16)
(1.00417 -0.00891472 5.34418e-16)
(1.0066 -0.00871144 -9.25648e-17)
(0.995382 -4.67232e-05 2.80583e-17)
(0.995257 -0.00122288 -2.45504e-17)
(0.995302 -0.00246445 2.16107e-17)
(0.99552 -0.00375431 9.07515e-17)
(0.995893 -0.0049964 2.97046e-17)
(0.99643 -0.00617195 1.61087e-17)
(0.997138 -0.00726658 -2.33313e-16)
(0.997998 -0.00823693 4.0024e-17)
(0.998996 -0.0090445 -1.261e-16)
(1.00009 -0.00966446 -5.09799e-16)
(1.00122 -0.0100615 -3.00736e-18)
(1.00246 -0.0102864 -1.39107e-16)
(1.00366 -0.0102026 -2.27058e-16)
(1.00427 -0.00903071 1.24643e-16)
(1.00674 -0.00879128 9.24329e-17)
(0.99522 -4.52998e-05 -1.684e-20)
(0.995087 -0.0012278 -8.2723e-17)
(0.995132 -0.00248083 -1.23025e-17)
(0.995352 -0.00378742 -1.49593e-16)
(0.995729 -0.00504893 -3.20064e-17)
(0.996276 -0.00624561 -2.17635e-16)
(0.996998 -0.00736219 6.60181e-17)
(0.99788 -0.00835362 -2.51145e-17)
(0.998905 -0.00917948 3.75862e-16)
(1.00004 -0.00981275 4.44221e-16)
(1.0012 -0.0102164 -1.59908e-16)
(1.00248 -0.0104412 2.23699e-16)
(1.00372 -0.0103494 6.15257e-16)
(1.00437 -0.00915119 -2.44213e-16)
(1.00687 -0.00887622 3.31371e-17)
(0.995056 -4.42507e-05 -3.07461e-17)
(0.994915 -0.00123331 -1.52081e-17)
(0.99496 -0.00249831 1.5256e-16)
(0.995181 -0.0038221 1.17019e-16)
(0.995564 -0.00510362 8.25302e-17)
(0.996119 -0.00632207 9.80729e-17)
(0.996857 -0.00746128 -2.14794e-17)
(0.997761 -0.00847444 -5.47034e-18)
(0.998814 -0.00931907 1.23223e-16)
(0.999981 -0.00996595 -1.43187e-16)
(1.00119 -0.0103763 -3.08314e-16)
(1.0025 -0.0106009 -3.67155e-16)
(1.00378 -0.0105007 1.13525e-17)
(1.00448 -0.00927535 2.03569e-17)
(1.00702 -0.00896136 1.01826e-17)
(0.99489 -4.35693e-05 3.34862e-17)
(0.994741 -0.00123947 9.02564e-17)
(0.994786 -0.00251697 -4.36243e-17)
(0.995009 -0.00385847 -7.19014e-17)
(0.995396 -0.00516062 -1.89817e-16)
(0.995961 -0.00640155 -4.03823e-17)
(0.996714 -0.00756411 1.15938e-16)
(0.997641 -0.00859969 -7.65718e-17)
(0.998724 -0.00946365 -3.94506e-16)
(0.999926 -0.0101245 1.30775e-16)
(1.00117 -0.0105418 1.34992e-16)
(1.00253 -0.0107662 1.98603e-16)
(1.00385 -0.0106574 4.10516e-17)
(1.00459 -0.00940457 -1.3746e-16)
(1.00717 -0.00905244 1.97546e-17)