/*--------------------------------*- C++ -*----------------------------------*\
  =========                 |
  \\      /  F ield         | OpenFOAM: The Open Source CFD Toolbox
   \\    /   O peration     | Website:  https://openfoam.org
    \\  /    A nd           | Version:  6.0
     \\/     M anipulation  |
\*---------------------------------------------------------------------------*/
FoamFile
{
    version     2.0;
    format      ascii;
    class       volVectorField;
    location    "11";
    object      U;
}
// * * * * * * * * * * * * * * * * * * * * * * * * * * * * * * * * * * * * * //

dimensions      [0 1 -1 0 0 0 0];

internalField   nonuniform List<vector> 
47000
(
(1 -2.02104e-05 3.0723e-18)
(1 6.86886e-05 5.8031e-18)
(0.999999 0.000160329 -4.23687e-17)
(0.99998 0.000235329 -7.72974e-17)
(0.999945 0.000271383 5.86485e-17)
(0.999892 0.000252942 -3.70166e-17)
(0.999827 0.000179131 1.62528e-16)
(0.99976 6.44897e-05 -1.92338e-18)
(0.999698 -6.67623e-05 2.34155e-17)
(0.999643 -0.000191534 -2.69132e-16)
(0.999594 -0.000296316 1.89808e-16)
(0.999542 -0.000382031 7.58833e-17)
(0.999482 -0.000460942 1.26033e-16)
(0.999408 -0.000551942 1.65745e-16)
(0.999321 -0.00067231 -1.60546e-16)
(0.999224 -0.000834875 -1.00492e-16)
(0.999127 -0.00104336 -8.55702e-18)
(0.999037 -0.00129596 -1.25877e-16)
(0.998964 -0.00158442 -7.90861e-17)
(0.998914 -0.00190068 -4.64624e-18)
(0.998892 -0.00223532 -3.84786e-16)
(0.998898 -0.00258383 -1.88608e-16)
(0.998934 -0.00294455 -1.67707e-16)
(0.998996 -0.00332382 -4.38198e-18)
(0.999084 -0.00373894 1.83049e-16)
(0.999186 -0.00421075 -8.90594e-17)
(0.999354 -0.00483839 2.15499e-16)
(0.999189 -0.00569711 -1.77528e-16)
(1.00101 -0.00678529 7.99274e-17)
(0.98592 -0.0142694 -3.67223e-17)
(1.00005 0.000150069 -6.61199e-18)
(1.00004 0.000393285 -2.00782e-17)
(1 0.000570634 -8.49092e-19)
(0.999928 0.000635719 9.82018e-17)
(0.999829 0.000563397 -4.86678e-17)
(0.999714 0.00036545 1.31021e-16)
(0.999603 8.89986e-05 -1.045e-16)
(0.999511 -0.000201869 2.84126e-17)
(0.999442 -0.000446513 -1.83852e-16)
(0.99939 -0.000612343 -1.10193e-17)
(0.999337 -0.000700673 -3.73043e-17)
(0.999266 -0.000745104 6.61988e-17)
(0.999161 -0.000794776 -1.58193e-16)
(0.999019 -0.000900062 9.18079e-18)
(0.998846 -0.00109669 6.30148e-17)
(0.998657 -0.00140238 -2.18986e-17)
(0.998473 -0.00181395 1.37706e-16)
(0.998313 -0.00231589 -8.56833e-17)
(0.998193 -0.00288312 -2.37394e-16)
(0.998122 -0.00349178 3.24093e-16)
(0.998109 -0.00411959 1.41514e-16)
(0.998151 -0.00475311 4.20664e-17)
(0.998248 -0.00538627 1.232e-16)
(0.998392 -0.0060234 1.2494e-16)
(0.998583 -0.00668599 -7.53433e-17)
(0.998781 -0.00739157 -6.81179e-18)
(0.999103 -0.00823736 -7.43134e-17)
(0.998982 -0.00935845 -1.42955e-16)
(0.999789 -0.0104141 1.42099e-16)
(0.993999 -0.0140982 4.78454e-17)
(1.00013 0.000290842 7.71546e-18)
(1.00011 0.000542229 1.77882e-18)
(1.00005 0.000678923 -2.4959e-18)
(0.999958 0.000652882 -1.6978e-16)
(0.999845 0.000457144 1.55351e-17)
(0.999733 0.000134977 -1.1337e-16)
(0.999643 -0.00023046 1.02498e-16)
(0.99959 -0.000550377 -8.55678e-17)
(0.999575 -0.000754499 1.76661e-16)
(0.999585 -0.000819379 1.15928e-16)
(0.999596 -0.000766612 -4.86388e-17)
(0.999585 -0.000654711 -4.08411e-17)
(0.999535 -0.00055485 2.44121e-16)
(0.999441 -0.000532823 -7.72297e-17)
(0.99931 -0.000631701 5.5788e-17)
(0.999157 -0.00086974 3.58222e-17)
(0.999002 -0.00123996 -1.39879e-16)
(0.998865 -0.00172047 2.11624e-16)
(0.998763 -0.00227947 1.3567e-16)
(0.998704 -0.00288642 -1.28224e-17)
(0.998697 -0.00351383 2.7777e-16)
(0.99874 -0.00414339 2.79488e-16)
(0.998831 -0.00476516 2.2318e-16)
(0.998964 -0.00537874 6.35485e-17)
(0.99914 -0.00599845 -1.03162e-16)
(0.999302 -0.00664132 2.51239e-17)
(0.999554 -0.00735644 -1.7906e-16)
(0.99947 -0.00829143 1.8754e-16)
(0.999531 -0.0088834 -4.92771e-17)
(0.99618 -0.0107383 -6.42486e-17)
(1.00021 0.000360824 -1.08216e-17)
(1.00017 0.000539432 4.58928e-18)
(1.00009 0.000585561 4.25754e-17)
(0.99998 0.000460432 1.27289e-16)
(0.999847 0.000173964 1.14849e-17)
(0.999716 -0.000213843 1.52194e-17)
(0.999611 -0.000606601 -1.14247e-16)
(0.999549 -0.000912425 -4.93191e-18)
(0.999533 -0.00106601 -9.25537e-17)
(0.99955 -0.00105542 -3.49091e-17)
(0.999581 -0.000915304 5.24062e-17)
(0.999604 -0.000715231 -3.38195e-17)
(0.9996 -0.000534167 -1.02738e-16)
(0.999562 -0.000441737 6.47002e-17)
(0.999492 -0.000482486 4.29745e-18)
(0.9994 -0.000673982 1.72894e-16)
(0.999303 -0.00100875 -5.05958e-17)
(0.999215 -0.00146371 -9.64175e-17)
(0.99915 -0.00200687 -1.3598e-16)
(0.999117 -0.00260704 -3.98087e-16)
(0.999122 -0.0032371 -8.887e-17)
(0.999166 -0.00387857 -2.55587e-16)
(0.999247 -0.00452205 -2.3934e-16)
(0.999359 -0.00516755 -1.98791e-16)
(0.999503 -0.00582696 2.79974e-16)
(0.999625 -0.00652547 -1.70982e-16)
(0.999781 -0.00729484 1.06815e-16)
(0.999688 -0.00825788 1.25121e-16)
(0.999555 -0.00877447 -1.24606e-16)
(0.997204 -0.01033 3.54632e-17)
(1.00026 0.00038592 2.0276e-18)
(1.0002 0.000479018 -5.56075e-18)
(1.0001 0.000440548 -4.11258e-18)
(0.999954 0.000241799 -2.50014e-18)
(0.999774 -9.79881e-05 -6.87885e-17)
(0.999587 -0.000515517 1.67989e-17)
(0.999417 -0.000916707 -3.69953e-17)
(0.999285 -0.00121822 -5.81049e-17)
(0.999199 -0.00136516 1.18003e-16)
(0.999157 -0.00135486 -3.14305e-17)
(0.999144 -0.00122717 1.29909e-16)
(0.999144 -0.00105202 1.38426e-16)
(0.999142 -0.000905524 -1.23208e-16)
(0.999128 -0.000852512 -1.27153e-16)
(0.999102 -0.00093333 -1.98074e-16)
(0.999067 -0.00116216 -1.72003e-16)
(0.999033 -0.00153039 3.6482e-17)
(0.99901 -0.00201473 -6.49917e-17)
(0.999007 -0.00258445 3.5302e-16)
(0.999031 -0.00320943 8.37404e-17)
(0.999086 -0.00386398 -2.8906e-16)
(0.999173 -0.00453006 -1.00844e-16)
(0.999291 -0.00519796 6.03023e-17)
(0.999432 -0.00586623 8.88767e-17)
(0.999598 -0.00654044 -1.8607e-16)
(0.999741 -0.0072405 1.5084e-16)
(0.999887 -0.00798087 4.75322e-17)
(0.999826 -0.00882467 -2.37735e-16)
(0.999639 -0.0091091 5.65459e-17)
(0.998532 -0.00984738 1.01461e-17)
(1.00029 0.000389588 -2.24375e-18)
(1.00022 0.000414521 8.54489e-18)
(1.0001 0.000319517 -6.95713e-17)
(0.999917 8.34784e-05 -2.79983e-17)
(0.999695 -0.000271332 4.35387e-17)
(0.99945 -0.000686563 1.25947e-16)
(0.99921 -0.00107883 1.30355e-16)
(0.998996 -0.00137866 8.81082e-18)
(0.998824 -0.0015432 1.63502e-17)
(0.998701 -0.00157637 1.16483e-16)
(0.998621 -0.00151781 -1.02381e-16)
(0.998576 -0.00143107 -1.64489e-16)
(0.998555 -0.00138266 4.93916e-17)
(0.99855 -0.00142709 2.06777e-16)
(0.998557 -0.00159643 4.29e-16)
(0.998576 -0.00189904 -1.14021e-18)
(0.99861 -0.00232384 7.19429e-17)
(0.998663 -0.00284687 2.71041e-16)
(0.99874 -0.00343858 -2.89561e-16)
(0.998844 -0.00407003 2.01477e-16)
(0.998976 -0.00471672 2.67766e-16)
(0.999136 -0.00536052 1.62955e-16)
(0.999322 -0.00599032 1.28933e-16)
(0.999526 -0.00660155 -1.2175e-17)
(0.999747 -0.00719252 -4.67279e-17)
(0.999942 -0.00777257 1.69672e-16)
(1.00012 -0.00834358 7.93347e-17)
(1.00012 -0.00892941 1.19915e-16)
(0.999879 -0.00889411 5.56458e-17)
(0.999642 -0.00896214 -4.51779e-17)
(1.00029 0.000383748 3.22062e-18)
(1.00023 0.000363223 1.5109e-17)
(1.0001 0.000241946 3.63089e-17)
(0.999913 2.97415e-06 3.42634e-17)
(0.999675 -0.000332454 1.0854e-16)
(0.999404 -0.000715305 -7.45447e-17)
(0.999123 -0.00107678 -9.88537e-17)
(0.998856 -0.0013632 6.26374e-17)
(0.998623 -0.00154361 -1.18139e-16)
(0.998438 -0.00162647 -4.38169e-17)
(0.998305 -0.00164814 -2.38678e-16)
(0.998223 -0.00166238 1.63684e-16)
(0.998187 -0.0017231 8.29126e-17)
(0.99819 -0.00187205 1.1738e-17)
(0.998228 -0.00213143 -2.44357e-16)
(0.998296 -0.00250281 4.12538e-17)
(0.998393 -0.00297222 -8.36437e-17)
(0.998519 -0.00351505 -3.26566e-16)
(0.998674 -0.0041031 -4.73214e-18)
(0.998855 -0.00470904 -3.10514e-16)
(0.999063 -0.00531016 -3.04927e-16)
(0.999294 -0.00588919 -1.35067e-16)
(0.999544 -0.00643501 -1.08902e-16)
(0.999804 -0.00694213 -1.21447e-16)
(1.00007 -0.00740637 -6.76957e-17)
(1.0003 -0.00783229 -3.97027e-16)
(1.0005 -0.00822119 1.44927e-17)
(1.00053 -0.00858583 1.43974e-16)
(1.00024 -0.00834687 1.60708e-17)
(1.00041 -0.00812023 4.52462e-17)
(1.00029 0.000373617 1.23983e-17)
(1.00023 0.000327691 -2.99777e-17)
(1.00012 0.000204847 -4.35809e-17)
(0.999954 -1.14041e-05 -2.71767e-17)
(0.999732 -0.000303166 -3.14959e-17)
(0.999471 -0.000632509 -4.00601e-17)
(0.999188 -0.000946282 7.27693e-17)
(0.998908 -0.00120624 -1.62203e-16)
(0.998652 -0.00139225 -6.652e-17)
(0.998439 -0.00151562 1.32347e-16)
(0.99828 -0.00160796 1.98756e-16)
(0.998181 -0.00171224 -8.87477e-17)
(0.998141 -0.00186927 -2.42446e-16)
(0.998156 -0.00210805 -1.02048e-16)
(0.99822 -0.00244113 5.36277e-18)
(0.998329 -0.00286381 9.76188e-18)
(0.998477 -0.00335965 3.87754e-17)
(0.99866 -0.00390399 -5.14269e-17)
(0.998873 -0.00447058 2.47725e-16)
(0.999112 -0.00503456 2.09047e-16)
(0.999373 -0.00557613 1.94961e-16)
(0.999651 -0.00608045 5.46427e-17)
(0.99994 -0.00653856 -1.21335e-16)
(1.00023 -0.00694701 -6.29891e-17)
(1.00051 -0.00730366 1.48892e-16)
(1.00075 -0.00761352 2.58477e-16)
(1.00093 -0.00788321 -2.53015e-16)
(1.00097 -0.00812337 -2.25624e-16)
(1.00064 -0.00780766 3.31569e-17)
(1.00092 -0.00751429 -2.30129e-17)
(1.00028 0.000362074 3.62863e-19)
(1.00024 0.000305862 1.15597e-17)
(1.00016 0.000197939 5.17563e-17)
(1.00003 1.89564e-05 -8.71254e-19)
(0.999846 -0.000217724 -4.89936e-17)
(0.999622 -0.00048534 -6.06085e-18)
(0.999369 -0.000745494 -5.75447e-17)
(0.999109 -0.000973628 8.68915e-17)
(0.998862 -0.00115858 1.12798e-17)
(0.998651 -0.00131304 -1.37467e-16)
(0.998492 -0.00146333 -2.20111e-16)
(0.998393 -0.00164196 -1.16778e-16)
(0.998359 -0.00187766 2.05986e-16)
(0.998389 -0.00218802 1.67656e-16)
(0.998475 -0.00257729 -1.21882e-16)
(0.998613 -0.00303568 -2.79738e-16)
(0.998796 -0.00354521 4.09914e-17)
(0.999015 -0.00408191 2.44407e-16)
(0.999263 -0.00462213 -2.52796e-16)
(0.999535 -0.00514417 1.58158e-16)
(0.999823 -0.00563187 -1.49262e-16)
(1.00012 -0.00607379 -2.82416e-17)
(1.00042 -0.00646431 9.44429e-17)
(1.00071 -0.00680317 1.48136e-16)
(1.00098 -0.00709162 -2.73037e-17)
(1.00119 -0.00733589 -1.62203e-16)
(1.00135 -0.00754681 -3.33172e-17)
(1.00138 -0.00773088 7.25559e-18)
(1.00101 -0.00740014 -8.15081e-18)
(1.00128 -0.0071238 -1.18493e-17)
(1.00027 0.0003511 -2.67394e-18)
(1.00026 0.000293619 6.97759e-18)
(1.00021 0.000208458 -1.75349e-17)
(1.00012 7.07787e-05 -7.94021e-18)
(0.999987 -0.000111129 -5.42217e-17)
(0.999813 -0.000320626 -1.54843e-17)
(0.999608 -0.000532051 7.96738e-18)
(0.999387 -0.000731974 -6.3663e-17)
(0.999171 -0.000916032 -3.45764e-17)
(0.998984 -0.00109698 2.27995e-17)
(0.998841 -0.00129581 5.20563e-17)
(0.998757 -0.00153556 1.16681e-16)
(0.998736 -0.00183459 7.94426e-18)
(0.99878 -0.00220101 -3.3041e-16)
(0.998884 -0.00263249 -6.59983e-17)
(0.999041 -0.00311558 4.29164e-17)
(0.999243 -0.00363172 1.68976e-16)
(0.99948 -0.00415831 -6.44783e-17)
(0.999744 -0.00467459 1.37214e-16)
(1.00003 -0.00516229 1.76402e-16)
(1.00032 -0.00560895 1.07117e-16)
(1.00061 -0.00600661 -6.03081e-17)
(1.0009 -0.00635284 -1.33508e-16)
(1.00118 -0.00665016 1.15485e-16)
(1.00142 -0.00690227 -1.07131e-16)
(1.0016 -0.00711515 2.95592e-16)
(1.00172 -0.00730073 -3.64391e-17)
(1.00172 -0.00745934 2.67713e-17)
(1.00134 -0.00712927 -9.48727e-17)
(1.00155 -0.00688856 1.23669e-17)
(1.00027 0.000341578 -1.22221e-17)
(1.00027 0.000286266 -5.13504e-18)
(1.00026 0.00022426 -2.39413e-18)
(1.00021 0.000123785 3.65853e-17)
(1.00013 -1.21e-05 8.85457e-17)
(1.00001 -0.000175252 1.06414e-16)
(0.999855 -0.000350192 9.4417e-17)
(0.999682 -0.000531826 2.04442e-19)
(0.999508 -0.000720385 1.19978e-16)
(0.999354 -0.000927611 -3.18258e-17)
(0.999238 -0.00116932 -2.24923e-18)
(0.999175 -0.00146041 1.76354e-16)
(0.999173 -0.00181071 2.04067e-16)
(0.999232 -0.0022209 4.96059e-17)
(0.999349 -0.00268382 1.41627e-16)
(0.999517 -0.00318369 2.69944e-17)
(0.999727 -0.0037022 -9.29143e-17)
(0.999969 -0.00421848 1.55443e-16)
(1.00023 -0.00471474 5.39107e-17)
(1.00051 -0.00517594 -3.78495e-16)
(1.0008 -0.00559293 6.3589e-17)
(1.00108 -0.00596065 9.24367e-17)
(1.00135 -0.0062791 1.34819e-17)
(1.00159 -0.00655241 -1.80411e-16)
(1.0018 -0.00678523 7.60777e-17)
(1.00194 -0.00698173 -2.4947e-16)
(1.00202 -0.00715289 1.39773e-16)
(1.00201 -0.00729304 -7.32069e-17)
(1.00163 -0.00695909 -2.90632e-17)
(1.00178 -0.00674403 1.67546e-18)
(1.00028 0.000333007 8.77316e-18)
(1.00029 0.000279497 -1.22085e-17)
(1.0003 0.000235611 2.86419e-17)
(1.00029 0.000162971 -2.38387e-17)
(1.00025 5.95175e-05 -8.55799e-17)
(1.00018 -7.32491e-05 -4.17766e-17)
(1.00008 -0.000227395 -1.89785e-16)
(0.999952 -0.0004035 1.00442e-16)
(0.999821 -0.000604412 -1.39889e-17)
(0.999705 -0.000840019 1.18153e-17)
(0.99962 -0.00112132 3.02482e-17)
(0.999583 -0.00145641 -2.37506e-16)
(0.999601 -0.00184837 -1.7183e-16)
(0.999675 -0.00229237 2.04431e-16)
(0.999802 -0.00277793 2.9384e-17)
(0.999976 -0.00328811 8.43421e-17)
(1.00019 -0.0038054 -1.73272e-16)
(1.00043 -0.0043109 -1.32349e-16)
(1.00069 -0.00478961 1.00033e-16)
(1.00095 -0.00522929 1.20972e-16)
(1.00122 -0.00562353 -1.61674e-16)
(1.00148 -0.00596939 -9.00963e-17)
(1.00172 -0.00626838 1.30382e-16)
(1.00194 -0.00652518 6.00515e-17)
(1.00212 -0.00674426 8.98074e-17)
(1.00223 -0.00692721 4.51181e-17)
(1.00228 -0.00708346 4.07215e-17)
(1.00226 -0.00720293 1.74091e-16)
(1.00187 -0.00685591 -5.21522e-17)
(1.00197 -0.00665244 -2.33612e-17)
(1.00029 0.000324265 -2.62869e-18)
(1.0003 0.000269993 3.93093e-17)
(1.00033 0.000235848 2.65215e-17)
(1.00035 0.000179031 -2.55608e-18)
(1.00035 9.26742e-05 -6.47115e-18)
(1.00032 -2.65583e-05 6.33552e-17)
(1.00026 -0.000175828 7.73576e-17)
(1.00018 -0.000359088 -7.09029e-17)
(1.00008 -0.000580179 -8.09666e-17)
(1.00001 -0.000846584 -3.02159e-17)
(0.999954 -0.00116495 -1.37995e-17)
(0.999943 -0.00153783 1.55097e-16)
(0.999981 -0.00196321 -2.78452e-16)
(1.00007 -0.00243232 -4.45853e-17)
(1.00021 -0.0029327 -4.50571e-17)
(1.00038 -0.00344714 6.98968e-17)
(1.00059 -0.00395931 1.69415e-16)
(1.00083 -0.00445235 2.77417e-16)
(1.00108 -0.00491375 -3.52019e-16)
(1.00133 -0.00533364 2.26158e-17)
(1.00158 -0.0057077 1.87934e-16)
(1.00182 -0.00603446 1.37968e-16)
(1.00204 -0.00631617 2.58628e-18)
(1.00222 -0.00655734 5.00753e-17)
(1.00237 -0.00676163 1.65761e-16)
(1.00246 -0.006928 1.3081e-16)
(1.00249 -0.00706451 2.39786e-16)
(1.00245 -0.00715839 -1.65445e-17)
(1.00208 -0.00678957 8.62422e-17)
(1.00215 -0.00658218 2.00963e-17)
(1.0003 0.000314718 -4.41387e-18)
(1.00031 0.000255588 -2.23295e-17)
(1.00036 0.000221169 -3.82279e-17)
(1.0004 0.000167537 4.11066e-18)
(1.00042 8.34061e-05 6.01112e-17)
(1.00042 -3.77911e-05 2.62617e-17)
(1.00039 -0.000196228 -6.14882e-18)
(1.00034 -0.00039738 3.747e-17)
(1.00029 -0.000644883 6.74096e-17)
(1.00025 -0.000943541 3.76348e-17)
(1.00022 -0.00129619 4.07871e-17)
(1.00024 -0.00170101 -3.41501e-19)
(1.0003 -0.00215226 8.21685e-17)
(1.0004 -0.00263862 4.42707e-17)
(1.00054 -0.00314666 9.50867e-17)
(1.00072 -0.00365953 -6.04728e-17)
(1.00093 -0.00416238 1.71043e-18)
(1.00116 -0.00464033 -1.26085e-16)
(1.0014 -0.00508304 -7.11809e-17)
(1.00164 -0.00548263 -4.10089e-18)
(1.00187 -0.00583634 5.5503e-17)
(1.00209 -0.00614362 -1.29137e-16)
(1.00229 -0.00640698 -4.76447e-17)
(1.00245 -0.00663043 -7.00925e-17)
(1.00258 -0.00681657 -1.5235e-16)
(1.00264 -0.00696214 -6.27737e-17)
(1.00266 -0.00707432 -3.69041e-16)
(1.00262 -0.0071391 -1.55919e-16)
(1.00225 -0.00674302 -2.00978e-17)
(1.00231 -0.00652222 2.58499e-17)
(1.00031 0.000304002 -3.48583e-18)
(1.00032 0.000235149 -1.94021e-17)
(1.00037 0.000190216 -2.9184e-18)
(1.00042 0.00012794 -4.74503e-17)
(1.00046 3.30409e-05 4.87747e-18)
(1.00048 -0.000102978 -6.44788e-18)
(1.00048 -0.00028163 1.69354e-17)
(1.00046 -0.000508547 3.73861e-17)
(1.00044 -0.000786358 -6.2006e-17)
(1.00043 -0.00111716 3.18488e-17)
(1.00043 -0.00150056 6.35196e-17)
(1.00047 -0.00193142 -4.47088e-17)
(1.00055 -0.00240144 1.59477e-16)
(1.00066 -0.00289784 -1.47662e-17)
(1.00082 -0.00340695 -2.24284e-16)
(1.001 -0.00391281 -1.37628e-16)
(1.00121 -0.00440214 -5.90928e-17)
(1.00143 -0.00486197 -6.54048e-17)
(1.00166 -0.00528385 1.85037e-16)
(1.00189 -0.00566153 -1.23904e-17)
(1.0021 -0.0059934 -2.16357e-16)
(1.00231 -0.00627951 1.85182e-16)
(1.00249 -0.00652232 1.84387e-16)
(1.00264 -0.00672519 7.3872e-17)
(1.00275 -0.00688973 -9.31513e-17)
(1.0028 -0.00701089 -7.58838e-18)
(1.0028 -0.00709544 2.94396e-16)
(1.00276 -0.00712903 2.05734e-16)
(1.0024 -0.00670252 -1.70447e-17)
(1.00246 -0.00646013 -2.58105e-17)
(1.00031 0.000291777 4.49874e-18)
(1.00032 0.000208293 3.41772e-17)
(1.00037 0.000143441 -2.10965e-17)
(1.00043 6.23415e-05 3.97977e-17)
(1.00048 -5.37548e-05 -1.4052e-17)
(1.00051 -0.000214298 -1.21695e-16)
(1.00053 -0.000420902 2.01456e-17)
(1.00054 -0.000678422 -1.15359e-16)
(1.00054 -0.000988044 -3.88142e-17)
(1.00055 -0.00134932 -6.699e-17)
(1.00058 -0.00175923 -1.53558e-16)
(1.00064 -0.00221025 -3.60351e-17)
(1.00074 -0.00269245 3.23977e-17)
(1.00087 -0.00319241 -4.34582e-17)
(1.00103 -0.00369684 3.2064e-16)
(1.00122 -0.00419095 2.5001e-17)
(1.00142 -0.00466309 4.00729e-17)
(1.00164 -0.00510204 9.26217e-17)
(1.00186 -0.00550105 -2.8775e-17)
(1.00208 -0.00585516 1.61394e-16)
(1.00229 -0.00616365 7.34271e-17)
(1.00248 -0.00642692 7.88099e-17)
(1.00264 -0.00664728 -1.88722e-16)
(1.00278 -0.00682741 3.45987e-17)
(1.00288 -0.00696808 2.59279e-17)
(1.00292 -0.00706293 -1.5042e-16)
(1.00291 -0.00711865 -7.42003e-17)
(1.00288 -0.00712116 -4.32942e-17)
(1.00253 -0.00666371 3.87431e-17)
(1.00259 -0.006397 -1.97911e-18)
(1.00031 0.000277797 -6.28637e-18)
(1.00031 0.000175249 -1.17767e-17)
(1.00037 8.25985e-05 5.32722e-17)
(1.00042 -2.54061e-05 -6.05812e-17)
(1.00047 -0.000170347 -2.27173e-17)
(1.00052 -0.000361965 6.2858e-17)
(1.00055 -0.000601116 -7.29231e-17)
(1.00057 -0.000891327 1.02287e-16)
(1.0006 -0.00123217 1.33474e-16)
(1.00063 -0.00162096 1.11474e-17)
(1.00069 -0.00205264 1.0763e-16)
(1.00077 -0.00251808 -8.36346e-17)
(1.00088 -0.00300649 -1.21557e-16)
(1.00102 -0.00350444 -5.33327e-17)
(1.00119 -0.0039994 -4.51724e-17)
(1.00138 -0.00447793 1.67175e-16)
(1.00159 -0.00492998 -6.64691e-17)
(1.0018 -0.00534598 -1.72794e-16)
(1.00202 -0.0057206 3.90903e-17)
(1.00223 -0.00604998 -2.67172e-16)
(1.00243 -0.00633407 4.13267e-18)
(1.00261 -0.00657347 -2.58199e-16)
(1.00277 -0.00677024 2.17158e-16)
(1.00289 -0.0069265 -1.223e-16)
(1.00298 -0.00704227 -4.13549e-17)
(1.00302 -0.00711025 6.90912e-17)
(1.00301 -0.00713724 -3.05896e-17)
(1.00298 -0.00710959 -1.24038e-16)
(1.00264 -0.0066216 1.33143e-17)
(1.00271 -0.00632764 5.05296e-18)
(1.0003 0.00026235 4.84894e-18)
(1.0003 0.000136725 -1.54624e-17)
(1.00035 1.02018e-05 1.8013e-19)
(1.0004 -0.000130615 9.89354e-17)
(1.00045 -0.000309415 6.3959e-17)
(1.0005 -0.000535836 -5.50213e-18)
(1.00054 -0.000809465 1.7315e-16)
(1.00058 -0.00113223 -5.86573e-17)
(1.00063 -0.00150214 -1.15384e-16)
(1.00068 -0.00191464 -4.13303e-17)
(1.00076 -0.00236323 -6.6021e-17)
(1.00085 -0.00283779 -7.79957e-17)
(1.00098 -0.00332727 9.1659e-17)
(1.00113 -0.00381867 1.62374e-16)
(1.00131 -0.00430048 -3.2182e-17)
(1.0015 -0.00476069 2.2827e-17)
(1.00171 -0.00519079 -4.57501e-17)
(1.00192 -0.00558268 1.13144e-16)
(1.00214 -0.00593226 -1.00404e-16)
(1.00234 -0.00623658 1.32662e-16)
(1.00253 -0.0064961 -3.91233e-17)
(1.00271 -0.00671152 -1.56752e-17)
(1.00286 -0.00688465 -6.37831e-17)
(1.00298 -0.00701707 8.81174e-17)
(1.00306 -0.00710823 6.99745e-17)
(1.00309 -0.00715013 6.73721e-17)
(1.00309 -0.00714983 -3.41606e-17)
(1.00306 -0.00709419 7.27356e-17)
(1.00274 -0.00657743 2.45941e-17)
(1.00282 -0.00625714 5.98399e-18)
(1.00028 0.000245868 -4.43165e-18)
(1.00027 9.37281e-05 -1.17183e-17)
(1.00032 -7.08311e-05 -1.64455e-17)
(1.00037 -0.000248279 -5.36304e-17)
(1.00042 -0.000463622 -2.60348e-18)
(1.00047 -0.000726234 6.43893e-17)
(1.00052 -0.00103417 -1.23843e-16)
(1.00057 -0.00138771 3.25182e-17)
(1.00063 -0.00178351 7.81609e-17)
(1.0007 -0.00221551 7.19603e-17)
(1.00079 -0.00267628 6.37553e-17)
(1.00091 -0.00315526 -3.08553e-18)
(1.00105 -0.00364157 1.98582e-17)
(1.00121 -0.00412294 -1.59117e-16)
(1.00139 -0.00458901 1.77111e-16)
(1.00159 -0.00502922 -7.24701e-17)
(1.0018 -0.00543649 -7.1331e-18)
(1.00201 -0.00580401 -6.20745e-17)
(1.00222 -0.00612873 8.52922e-17)
(1.00242 -0.00640845 -1.03226e-16)
(1.00261 -0.006644 -9.59779e-17)
(1.00278 -0.00683612 7.1839e-17)
(1.00293 -0.00698634 -2.05384e-16)
(1.00304 -0.00709577 -1.38078e-16)
(1.00313 -0.00716338 6.01303e-17)
(1.00316 -0.00718062 -1.20643e-16)
(1.00316 -0.00715485 -4.44873e-17)
(1.00314 -0.00707331 1.32124e-17)
(1.00283 -0.00652936 -4.46602e-18)
(1.00293 -0.00618212 -2.68815e-17)
(1.00025 0.000228843 1.41086e-18)
(1.00024 4.73998e-05 2.38771e-17)
(1.00027 -0.000157537 -4.56572e-17)
(1.00032 -0.000373606 4.91595e-17)
(1.00037 -0.000626276 -1.40237e-17)
(1.00043 -0.000924655 -1.24245e-16)
(1.00048 -0.00126522 4.11566e-17)
(1.00055 -0.0016467 -2.72551e-17)
(1.00062 -0.00206464 -3.42454e-17)
(1.0007 -0.00251193 -3.14979e-17)
(1.00081 -0.00298059 3.37178e-17)
(1.00094 -0.00346007 1.4311e-16)
(1.00109 -0.00393993 -7.9998e-17)
(1.00126 -0.00440886 9.50567e-17)
(1.00145 -0.00485769 -1.72538e-16)
(1.00165 -0.00527724 -7.13524e-17)
(1.00186 -0.00566171 1.05161e-16)
(1.00207 -0.00600546 9.16127e-17)
(1.00228 -0.00630629 -5.5913e-17)
(1.00248 -0.00656262 2.55263e-16)
(1.00267 -0.00677553 2.57293e-16)
(1.00283 -0.00694574 -1.24438e-16)
(1.00298 -0.00707449 1.70519e-16)
(1.00309 -0.00716249 6.95793e-17)
(1.00317 -0.00720829 -1.31444e-16)
(1.00321 -0.00720291 9.33172e-17)
(1.00321 -0.00715401 1.82883e-16)
(1.0032 -0.00704922 3.71123e-17)
(1.00291 -0.00648032 -2.38867e-17)
(1.00302 -0.00610837 1.88438e-17)
(1.0002 0.000211648 1.207e-17)
(1.00019 -1.08583e-06 3.31265e-18)
(1.00022 -0.000247087 3.37479e-17)
(1.00027 -0.000502212 -4.532e-17)
(1.00032 -0.000791501 2.86247e-17)
(1.00037 -0.00112391 -1.68872e-17)
(1.00043 -0.00149444 6.87492e-17)
(1.00051 -0.00190043 -2.42929e-17)
(1.00059 -0.00233663 -3.31689e-17)
(1.00069 -0.00279522 -4.06615e-17)
(1.0008 -0.00326806 -1.30136e-16)
(1.00094 -0.00374488 4.39555e-17)
(1.0011 -0.00421595 2.57268e-17)
(1.00128 -0.00467097 4.5854e-17)
(1.00148 -0.00510195 -1.98113e-17)
(1.00168 -0.00550099 6.81373e-17)
(1.0019 -0.00586345 -1.53649e-16)
(1.00211 -0.00618466 -1.69152e-16)
(1.00232 -0.00646314 2.61196e-18)
(1.00252 -0.00669776 -1.69664e-16)
(1.0027 -0.00688978 3.39763e-18)
(1.00287 -0.00703987 1.16919e-16)
(1.00301 -0.00714894 -8.33265e-17)
(1.00312 -0.00721733 8.90126e-18)
(1.00321 -0.00724321 5.89944e-17)
(1.00325 -0.00721724 -3.30483e-17)
(1.00326 -0.00714737 -1.89944e-16)
(1.00326 -0.00702141 -9.38939e-17)
(1.00298 -0.00642915 2.69698e-17)
(1.00312 -0.0060325 2.05672e-17)
(1.00014 0.000194824 -8.62647e-18)
(1.00014 -5.05516e-05 9.32969e-18)
(1.00016 -0.00033697 -1.29493e-17)
(1.0002 -0.000630375 2.98427e-17)
(1.00025 -0.000954509 -3.62793e-17)
(1.00031 -0.00131836 -2.30366e-17)
(1.00038 -0.00171561 -9.22655e-17)
(1.00045 -0.00214247 1.04805e-16)
(1.00055 -0.00259319 1.46124e-16)
(1.00066 -0.00305955 3.45371e-17)
(1.00079 -0.00353353 2.48545e-17)
(1.00093 -0.00400538 -1.65657e-17)
(1.0011 -0.00446617 2.17215e-17)
(1.00129 -0.00490664 -7.23968e-18)
(1.00149 -0.00531994 1.14172e-16)
(1.0017 -0.00569933 4.61532e-17)
(1.00191 -0.00604117 5.85436e-17)
(1.00213 -0.00634159 9.85583e-18)
(1.00234 -0.00659967 1.37855e-16)
(1.00253 -0.00681466 8.50426e-17)
(1.00272 -0.0069879 -1.27766e-16)
(1.00289 -0.00711994 -9.30295e-17)
(1.00303 -0.00721139 6.67345e-17)
(1.00315 -0.00726223 1.58276e-17)
(1.00323 -0.0072703 1.27508e-17)
(1.00328 -0.00722597 -1.20229e-17)
(1.00329 -0.00713741 1.08456e-16)
(1.00331 -0.00699264 4.83245e-17)
(1.00305 -0.00637902 -1.25417e-16)
(1.0032 -0.00596017 -2.87465e-18)
(1.00007 0.00017873 3.94699e-18)
(1.00008 -9.99267e-05 3.50832e-18)
(1.00009 -0.000425044 2.89224e-17)
(1.00013 -0.000755023 -1.41404e-17)
(1.00018 -0.00111149 -5.59836e-17)
(1.00024 -0.00150368 5.74957e-18)
(1.00031 -0.00192419 -9.68729e-17)
(1.00039 -0.00236835 2.42599e-17)
(1.0005 -0.00283017 -1.09292e-16)
(1.00061 -0.00330129 -3.52737e-17)
(1.00075 -0.00377404 -2.53653e-17)
(1.00091 -0.00423931 3.77635e-17)
(1.00109 -0.00468905 -2.79551e-17)
(1.00128 -0.00511501 5.10938e-18)
(1.00148 -0.00551137 -2.94565e-17)
(1.0017 -0.00587244 -1.14491e-16)
(1.00191 -0.0061954 -1.01411e-17)
(1.00213 -0.00647706 8.27616e-17)
(1.00234 -0.00671692 -9.55867e-17)
(1.00254 -0.00691449 6.99763e-17)
(1.00272 -0.00707112 -1.72204e-16)
(1.00289 -0.00718722 9.92389e-17)
(1.00304 -0.00726308 -1.40304e-16)
(1.00316 -0.00729835 4.83235e-17)
(1.00325 -0.00729053 -4.01463e-17)
(1.0033 -0.00722973 8.52611e-19)
(1.00333 -0.00712432 -6.3282e-17)
(1.00335 -0.0069624 -6.27793e-17)
(1.00311 -0.00632861 6.17724e-17)
(1.00328 -0.00588749 6.3156e-18)
(0.999992 0.000163722 -1.03348e-17)
(1 -0.000148258 -3.75014e-17)
(1.00001 -0.000509607 -3.0413e-17)
(1.00005 -0.000873826 1.35382e-17)
(1.00009 -0.00125971 1.60006e-17)
(1.00016 -0.00167691 8.99918e-17)
(1.00023 -0.00211725 1.49203e-16)
(1.00033 -0.00257538 -1.72755e-16)
(1.00043 -0.00304532 2.63326e-17)
(1.00056 -0.00351877 -2.01537e-17)
(1.00071 -0.00398856 1.71505e-16)
(1.00087 -0.00444631 -6.41358e-17)
(1.00106 -0.00488485 -1.84576e-17)
(1.00125 -0.00529689 1.24528e-17)
(1.00146 -0.00567751 -1.46843e-16)
(1.00168 -0.00602194 4.42416e-17)
(1.0019 -0.00632803 3.21775e-17)
(1.00211 -0.00659314 2.16698e-17)
(1.00232 -0.00681707 3.54382e-17)
(1.00253 -0.0069995 -4.06732e-17)
(1.00271 -0.00714175 4.80392e-17)
(1.00288 -0.00724404 -8.3744e-17)
(1.00303 -0.00730634 1.21416e-16)
(1.00316 -0.00732799 1.09508e-16)
(1.00326 -0.0073062 1.47546e-16)
(1.00332 -0.00723084 -8.21066e-18)
(1.00335 -0.00711048 2.35489e-17)
(1.00339 -0.00693327 8.32056e-18)
(1.00317 -0.00628088 -2.25249e-17)
(1.00336 -0.00581981 -1.61852e-17)
(0.999903 0.0001499 8.80303e-18)
(0.999917 -0.000194788 2.32567e-17)
(0.999925 -0.000589364 -3.19813e-18)
(0.999958 -0.000985068 8.64435e-18)
(1.00001 -0.00139724 -3.09849e-18)
(1.00007 -0.00183613 -5.85229e-17)
(1.00015 -0.00229303 -2.88876e-18)
(1.00025 -0.00276217 6.63984e-17)
(1.00037 -0.00323771 8.99191e-17)
(1.0005 -0.00371162 1.63546e-16)
(1.00065 -0.00417728 5.45452e-17)
(1.00082 -0.0046271 5.61873e-17)
(1.00101 -0.00505473 -5.21714e-17)
(1.00121 -0.00545379 -8.5789e-17)
(1.00143 -0.00582013 2.20592e-16)
(1.00164 -0.00614977 1.08729e-16)
(1.00187 -0.00644109 -2.01839e-16)
(1.00208 -0.00669187 -1.1186e-16)
(1.0023 -0.00690212 -2.0013e-16)
(1.0025 -0.0070716 -8.71666e-17)
(1.00269 -0.00720155 9.84923e-17)
(1.00287 -0.00729199 1.63167e-16)
(1.00302 -0.00734255 -2.34008e-16)
(1.00316 -0.00735229 -4.5212e-17)
(1.00326 -0.00731813 -1.24803e-16)
(1.00333 -0.0072297 3.98699e-17)
(1.00338 -0.00709576 -8.04418e-17)
(1.00343 -0.00690443 -7.51433e-17)
(1.00322 -0.00623417 2.77273e-17)
(1.00344 -0.00575277 -1.00162e-17)
(0.999806 0.000137452 1.4261e-18)
(0.999823 -0.000238887 1.65724e-17)
(0.999829 -0.000663432 2.0947e-17)
(0.99986 -0.00108767 -3.58428e-17)
(0.99991 -0.001523 2.1756e-17)
(0.999977 -0.00198041 3.24696e-17)
(1.00006 -0.00245091 -4.93366e-17)
(1.00017 -0.00292846 4.92097e-17)
(1.00029 -0.00340759 7.79011e-18)
(1.00043 -0.00388058 -1.80264e-16)
(1.00059 -0.00434145 -7.21036e-17)
(1.00077 -0.00478336 -8.57441e-17)
(1.00096 -0.00520077 1.29286e-17)
(1.00116 -0.00558806 6.62803e-17)
(1.00138 -0.00594178 -1.22082e-16)
(1.0016 -0.00625857 -5.54363e-17)
(1.00182 -0.00653726 1.78993e-16)
(1.00205 -0.00677591 1.84863e-16)
(1.00226 -0.00697466 2.8397e-17)
(1.00247 -0.0071333 1.45093e-16)
(1.00267 -0.00725292 -7.92857e-17)
(1.00285 -0.00733336 7.80283e-18)
(1.00301 -0.00737391 3.36424e-16)
(1.00315 -0.00737335 -1.20414e-16)
(1.00326 -0.00732836 -2.67378e-17)
(1.00334 -0.00722835 -5.05449e-17)
(1.0034 -0.00708226 -1.03247e-17)
(1.00347 -0.0068782 1.97812e-16)
(1.00328 -0.00619126 3.42867e-17)
(1.00351 -0.0056916 1.81745e-17)
(0.999701 0.000126317 -2.5009e-18)
(0.999721 -0.000280146 -2.4586e-17)
(0.999725 -0.000731274 8.69262e-20)
(0.999756 -0.00118103 -1.28348e-17)
(0.999807 -0.00163648 -1.44061e-17)
(0.999878 -0.00210946 -4.19281e-17)
(0.999967 -0.00259093 -6.98228e-18)
(1.00008 -0.00307474 -7.36155e-17)
(1.0002 -0.00355588 -1.30577e-16)
(1.00035 -0.00402701 9.95366e-17)
(1.00051 -0.00448279 -2.0075e-16)
(1.0007 -0.00491714 2.60729e-17)
(1.00089 -0.00532523 2.19908e-17)
(1.0011 -0.00570211 5.38813e-17)
(1.00132 -0.00604491 -4.28861e-17)
(1.00154 -0.00635078 -1.76975e-17)
(1.00177 -0.00661886 2.03765e-17)
(1.002 -0.00684744 -1.88787e-16)
(1.00222 -0.00703667 1.263e-16)
(1.00243 -0.00718636 -1.60485e-17)
(1.00263 -0.00729742 5.32591e-17)
(1.00282 -0.00736946 1.37671e-16)
(1.00299 -0.00740146 -2.18292e-16)
(1.00313 -0.00739192 1.08922e-17)
(1.00326 -0.00733729 4.00331e-17)
(1.00335 -0.00722679 -4.5234e-17)
(1.00342 -0.00706949 1.96826e-16)
(1.0035 -0.00685345 8.3917e-19)
(1.00333 -0.0061502 -3.1989e-17)
(1.00359 -0.00563156 -9.66522e-18)
(0.999589 0.000116518 -6.01605e-18)
(0.999611 -0.000318265 3.1499e-19)
(0.999614 -0.000792663 1.3348e-17)
(0.999645 -0.00126498 -7.60226e-18)
(0.999698 -0.00173774 -2.74614e-18)
(0.999772 -0.00222366 -2.73341e-17)
(0.999865 -0.00271382 3.62792e-17)
(0.999978 -0.00320214 4.05704e-17)
(1.00011 -0.0036841 -4.75034e-17)
(1.00026 -0.0041528 3.61064e-17)
(1.00043 -0.00460354 2.74155e-16)
(1.00062 -0.00503092 6.37213e-17)
(1.00082 -0.00543076 -1.46045e-16)
(1.00103 -0.00579868 -4.21104e-17)
(1.00125 -0.00613226 8.95748e-17)
(1.00148 -0.00642909 3.02369e-17)
(1.00171 -0.00668852 9.49491e-17)
(1.00194 -0.00690895 1.27879e-16)
(1.00217 -0.00709054 1.0093e-16)
(1.00238 -0.00723301 -1.06914e-16)
(1.00259 -0.00733712 -1.33258e-16)
(1.00278 -0.00740223 -1.93257e-16)
(1.00296 -0.00742701 1.62019e-17)
(1.00312 -0.00740974 9.55596e-17)
(1.00325 -0.00734664 1.08622e-16)
(1.00336 -0.00722674 4.77901e-18)
(1.00344 -0.00705927 1.02336e-17)
(1.00353 -0.00683227 1.5423e-17)
(1.00338 -0.00611359 -6.93593e-18)
(1.00366 -0.00557779 4.97961e-18)
(0.999471 0.000107843 9.11306e-18)
(0.999494 -0.00035316 -9.54647e-18)
(0.999496 -0.000847623 -2.59103e-19)
(0.999528 -0.00133969 3.59815e-17)
(0.999583 -0.00182717 2.63916e-17)
(0.99966 -0.00232369 6.78407e-17)