1.275 	2.15223e-18 	-2.76991e-20 	-0.0344817 	-0.00043973 	-1.90207e-22
1.825 	2.15223e-18 	-1.39322e-20 	-0.00950081 	-0.00275599 	1.67694e-21
2.375 	2.15223e-18 	-2.66896e-23 	0.115195 	-0.00323077 	-6.99406e-22
