/*--------------------------------*- C++ -*----------------------------------*\
  =========                 |
  \\      /  F ield         | OpenFOAM: The Open Source CFD Toolbox
   \\    /   O peration     | Website:  https://openfoam.org
    \\  /    A nd           | Version:  6.0
     \\/     M anipulation  |
\*---------------------------------------------------------------------------*/
FoamFile
{
    version     2.0;
    format      ascii;
    class       volScalarField;
    location    "25";
    object      p;
}
// * * * * * * * * * * * * * * * * * * * * * * * * * * * * * * * * * * * * * //

dimensions      [0 2 -2 0 0 0 0];

internalField   nonuniform List<scalar> 
2000
(
-0.348572
-0.354478
-0.356165
-0.355495
-0.353633
-0.350954
-0.347736
-0.344272
-0.34085
-0.337149
-0.35129
-0.356776
-0.358123
-0.357151
-0.355001
-0.352048
-0.348567
-0.344842
-0.341166
-0.337346
-0.356746
-0.361373
-0.362029
-0.360448
-0.357717
-0.354208
-0.350192
-0.34593
-0.341725
-0.33766
-0.364982
-0.368269
-0.367863
-0.365355
-0.361743
-0.357387
-0.352547
-0.347442
-0.342389
-0.337935
-0.376056
-0.37746
-0.375593
-0.371833
-0.367036
-0.361538
-0.355567
-0.349263
-0.342961
-0.337914
-0.390034
-0.388933
-0.38518
-0.379841
-0.373565
-0.366637
-0.359216
-0.351309
-0.343231
-0.337267
-0.406947
-0.402645
-0.396564
-0.389339
-0.381325
-0.372724
-0.363591
-0.353697
-0.343196
-0.335736
-0.426741
-0.418497
-0.409654
-0.400265
-0.3903
-0.379842
-0.368805
-0.35656
-0.342614
-0.332168
-0.449203
-0.436316
-0.424333
-0.412578
-0.40053
-0.388084
-0.374842
-0.359278
-0.33919
-0.321876
-0.473899
-0.455837
-0.440503
-0.426426
-0.412638
-0.39894
-0.384574
-0.366906
-0.341864
-0.317884
-0.500142
-0.476635
-0.457893
-0.441721
-0.426991
-0.414076
-0.403318
-0.395357
-0.39549
-0.415016
-0.527108
-0.498131
-0.475888
-0.457355
-0.441016
-0.427331
-0.416774
-0.410406
-0.413355
-0.430619
-0.554073
-0.519869
-0.494214
-0.47321
-0.454843
-0.439478
-0.427481
-0.41957
-0.418855
-0.426665
-0.58039
-0.541375
-0.512557
-0.489111
-0.468472
-0.450825
-0.436329
-0.425238
-0.419029
-0.417684
-0.605308
-0.561983
-0.530294
-0.504415
-0.481199
-0.46063
-0.442667
-0.427186
-0.414609
-0.404974
-0.62784
-0.580759
-0.54648
-0.518116
-0.491969
-0.467892
-0.44576
-0.425264
-0.406236
-0.38944
-0.646699
-0.596492
-0.559885
-0.528928
-0.499493
-0.471438
-0.444724
-0.419047
-0.393988
-0.371328
-0.660328
-0.607728
-0.569046
-0.535371
-0.502343
-0.470011
-0.438592
-0.407931
-0.377579
-0.350398
-0.666964
-0.612827
-0.572343
-0.53585
-0.499043
-0.462358
-0.426401
-0.391253
-0.356546
-0.326153
-0.664739
-0.61005
-0.568078
-0.528753
-0.488161
-0.447305
-0.407265
-0.368374
-0.330376
-0.298005
-0.651799
-0.597656
-0.554585
-0.512554
-0.468407
-0.423848
-0.380455
-0.338769
-0.29862
-0.265418
-0.626409
-0.574003
-0.530325
-0.485913
-0.43872
-0.391229
-0.345466
-0.302101
-0.260989
-0.228024
-0.587095
-0.537685
-0.494021
-0.447793
-0.398366
-0.348999
-0.302071
-0.258276
-0.217421
-0.185685
-0.532761
-0.487641
-0.444762
-0.397542
-0.346987
-0.297057
-0.250349
-0.207475
-0.16812
-0.138545
-0.462804
-0.423274
-0.3821
-0.334963
-0.284641
-0.235657
-0.190678
-0.150147
-0.113562
-0.0870278
-0.377222
-0.34455
-0.306128
-0.260348
-0.211789
-0.165359
-0.123658
-0.0869111
-0.0543819
-0.0317594
-0.276703
-0.252074
-0.217528
-0.174496
-0.129287
-0.0870053
-0.0500611
-0.0184666
0.00869909
0.0264338
-0.162687
-0.147132
-0.117585
-0.0786969
-0.0383728
-0.00173676
0.0290558
0.0540684
0.0741395
0.0855218
-0.037384
-0.0316992
-0.00814926
0.0253774
0.0595703
0.0893939
0.112834
0.12948
0.139416
0.141788
0.0962506
0.0915836
0.108366
0.135696
0.163219
0.186211
0.202699
0.211068
0.210034
0.203306
0.234641
0.219451
0.228857
0.249366
0.270117
0.287231
0.299437
0.30492
0.303874
0.317792
0.373892
0.348256
0.349712
0.362532
0.375553
0.385527
0.391581
0.392824
0.391747
0.404671
0.510059
0.474329
0.467521
0.472074
0.476727
0.478807
0.477744
0.473123
0.467431
0.472535
0.639297
0.594059
0.578994
0.575093
0.571194
0.565206
0.55687
0.546037
0.534779
0.531937
0.757943
0.704009
0.681036
0.668927
0.656762
0.643014
0.627702
0.610865
0.594195
0.584249
0.862613
0.801011
0.770828
0.751184
0.731476
0.710699
0.689112
0.6669
0.645384
0.629229
0.950289
0.882257
0.845884
0.819748
0.793585
0.766835
0.739956
0.713245
0.687669
0.666311
1.01842
0.94538
0.904109
0.872834
0.841587
0.810161
0.779164
0.748977
0.720256
0.69484
1.06499
0.988527
0.943868
0.909035
0.874286
0.83965
0.805841
0.773291
0.742425
0.714224
1.08863
1.01043
0.964034
0.927384
0.890849
0.854582
0.819347
0.785601
0.753649
0.72403
1.08863
1.01043
0.964034
0.927384
0.890849
0.854581
0.819347
0.785601
0.753649
0.72403
1.06499
0.988527
0.943867
0.909035
0.874286
0.83965
0.805841
0.77329
0.742425
0.714224
1.01842
0.945379
0.904108
0.872833
0.841586
0.81016
0.779163
0.748976
0.720255
0.69484
0.950287
0.882256
0.845883
0.819747
0.793584
0.766834
0.739955
0.713244
0.687668
0.66631
0.862611
0.801009
0.770827
0.751182
0.731474
0.710697
0.68911
0.666898
0.645383
0.629227
0.757941
0.704007
0.681034
0.668925
0.65676
0.643012
0.6277
0.610864
0.594194
0.584247
0.639294
0.594057
0.578991
0.57509
0.571192
0.565204
0.556868
0.546035
0.534777
0.531935
0.510056
0.474326
0.467518
0.472071
0.476725
0.478804
0.477742
0.473121
0.467429
0.472532
0.373888
0.348253
0.349708
0.362528
0.37555
0.385525
0.391578
0.392821
0.391744
0.404668
0.234637
0.219447
0.228853
0.249362
0.270114
0.287228
0.299434
0.304917
0.303871
0.31779
0.0962464
0.0915795
0.108362
0.135692
0.163215
0.186207
0.202696
0.211065
0.210031
0.203303
-0.0373886
-0.0317037
-0.00815373
0.025373
0.0595662
0.08939
0.112831
0.129477
0.139412
0.141784
-0.162692
-0.147137
-0.11759
-0.0787017
-0.0383774
-0.0017411
0.0290517
0.0540645
0.0741358
0.0855182
-0.276709
-0.252079
-0.217533
-0.174501
-0.129292
-0.0870101
-0.0500656
-0.0184709
0.00869499
0.0264298
-0.377228
-0.344556
-0.306134
-0.260354
-0.211794
-0.165364
-0.123663
-0.0869157
-0.0543864
-0.0317637
-0.46281
-0.423281
-0.382106
-0.334969
-0.284647
-0.235663
-0.190683
-0.150152
-0.113567
-0.0870323
-0.532768
-0.487648
-0.444768
-0.397548
-0.346993
-0.297063
-0.250355
-0.20748
-0.168125
-0.13855
-0.587102
-0.537692
-0.494028
-0.447799
-0.398372
-0.349005
-0.302077
-0.258282
-0.217427
-0.185691
-0.626416
-0.574011
-0.530332
-0.485921
-0.438727
-0.391236
-0.345472
-0.302107
-0.260995
-0.228029
-0.651807
-0.597664
-0.554593
-0.512562
-0.468414
-0.423855
-0.380462
-0.338776
-0.298626
-0.265424
-0.664747
-0.610059
-0.568087
-0.528761
-0.488169
-0.447312
-0.407272
-0.368381
-0.330382
-0.298011
-0.666972
-0.612835
-0.572351
-0.535858
-0.499051
-0.462365
-0.426408
-0.391261
-0.356553
-0.326159
-0.660337
-0.607736
-0.569055
-0.535379
-0.502352
-0.47002
-0.4386
-0.407939
-0.377586
-0.350405
-0.646709
-0.596501
-0.559894
-0.528937
-0.499502
-0.471446
-0.444732
-0.419055
-0.393995
-0.371335
-0.627849
-0.580768
-0.546489
-0.518125
-0.491978
-0.4679
-0.445769
-0.425272
-0.406244
-0.389448
-0.605318
-0.561993
-0.530303
-0.504424
-0.481208
-0.460639
-0.442676
-0.427195
-0.414617
-0.404982
-0.580399
-0.541385
-0.512566
-0.48912
-0.468481
-0.450834
-0.436338
-0.425247
-0.419037
-0.417692
-0.554083
-0.519878
-0.494223
-0.473219
-0.454852
-0.439487
-0.42749
-0.41958
-0.418864
-0.426674
-0.527117
-0.49814
-0.475897
-0.457365
-0.441026
-0.42734
-0.416784
-0.410415
-0.413364
-0.430628
-0.500151
-0.476644
-0.457902
-0.44173
-0.427
-0.414086
-0.403328
-0.395367
-0.395499
-0.415025
-0.473908
-0.455846
-0.440511
-0.426435
-0.412647
-0.398949
-0.384583
-0.366916
-0.341874
-0.317895
-0.449212
-0.436324
-0.424341
-0.412586
-0.400539
-0.388093
-0.374851
-0.359288
-0.339201
-0.321886
-0.426749
-0.418505
-0.409661
-0.400273
-0.390308
-0.37985
-0.368814
-0.356569
-0.342624
-0.332178
-0.406955
-0.402652
-0.396571
-0.389346
-0.381332
-0.372731
-0.363599
-0.353706
-0.343205
-0.335745
-0.39004
-0.38894
-0.385186
-0.379848
-0.373572
-0.366644
-0.359224
-0.351316
-0.343239
-0.337275
-0.376062
-0.377466
-0.375599
-0.371838
-0.367042
-0.361544
-0.355573
-0.349269
-0.342968
-0.337921
-0.364986
-0.368273
-0.367867
-0.365359
-0.361747
-0.357392
-0.352552
-0.347447
-0.342395
-0.337941
-0.356749
-0.361376
-0.362033
-0.360451
-0.35772
-0.354211
-0.350195
-0.345934
-0.341729
-0.337665
-0.351292
-0.356778
-0.358125
-0.357153
-0.355003
-0.35205
-0.348569
-0.344845
-0.341168
-0.337348
-0.348573
-0.354478
-0.356166
-0.355495
-0.353634
-0.350955
-0.347737
-0.344273
-0.340851
-0.33715
-0.290848
-0.126729
-0.0816789
-0.0305882
-0.0196493
-0.00803837
-0.00463346
-0.00108008
-0.000609177
0.00217822
-0.292079
-0.127278
-0.0819523
-0.0307875
-0.0197171
-0.00809783
-0.00466292
-0.00110182
-0.000619927
0.002161
-0.294471
-0.12836
-0.0824922
-0.0311868
-0.0198533
-0.00821757
-0.00472247
-0.00114512
-0.000640447
0.00212726
-0.297884
-0.129951
-0.0832871
-0.0317883
-0.0200576
-0.00839719
-0.00481197
-0.00120986
-0.000670477
0.00207733
-0.302071
-0.132008
-0.0843104
-0.0325902
-0.0203278
-0.00863523
-0.00493077
-0.00129573
-0.000709692
0.00201172
-0.306678
-0.134454
-0.0855124
-0.0335789
-0.0206576
-0.00892812
-0.00507754
-0.00140209
-0.000757596
0.00193115
-0.311575
-0.137358
-0.0868981
-0.0347495
-0.0210477
-0.00927294
-0.00525163
-0.00152783
-0.000814306
0.00183726
-0.317283
-0.141373
-0.0887307
-0.0362028
-0.0215415
-0.00968298
-0.00545912
-0.00167321
-0.000881388
0.00173286
-0.322066
-0.146877
-0.0911884
-0.0381045
-0.0221891
-0.0101859
-0.005709
-0.00184369
-0.00095709
0.00161543
-0.314267
-0.149251
-0.0923038
-0.0398133
-0.0226897
-0.0106859
-0.0059547
-0.002041
-0.00102073
0.00146195
-0.247744
-0.141152
-0.0886756
-0.043105
-0.0231656
-0.0120535
-0.00666663
-0.00280416
-0.00119486
0.000784204
-0.189635
-0.132121
-0.0826511
-0.0445835
-0.024872
-0.0144609
-0.00850533
-0.00429177
-0.00195548
-7.17154e-05
-0.148193
-0.114243
-0.073191
-0.0431625
-0.0262712
-0.0166573
-0.0104246
-0.00586482
-0.00287334
-0.000749743
-0.108574
-0.0933289
-0.0637435
-0.0411999
-0.0272975
-0.0184335
-0.0120802
-0.00727362
-0.00374025
-0.00121187
-0.0793134
-0.076049
-0.0569233
-0.0399472
-0.0281041
-0.0197605
-0.0133751
-0.00840475
-0.00446638
-0.00150298
-0.0592025
-0.0631969
-0.0519496
-0.0389468
-0.0285034
-0.0205938
-0.0142887
-0.00924318
-0.00503025
-0.00169309
-0.0461629
-0.0539324
-0.0480789
-0.0379745
-0.0285838
-0.0210664
-0.0149035
-0.00984156
-0.00545045
-0.00182885
-0.0379095
-0.0474707
-0.0451111
-0.0371192
-0.0285343
-0.0213309
-0.0153061
-0.0102528
-0.00574867
-0.00192769
-0.0330828
-0.0433683
-0.0431001
-0.0365144
-0.0284757
-0.0214744
-0.0155477
-0.0105087
-0.00593947
-0.00199235
-0.0308509
-0.0413655
-0.0420876
-0.0362161
-0.0284513
-0.0215376
-0.0156597
-0.0106287
-0.00603326
-0.00202238
-0.219077
-0.246974
-0.272754
-0.296698
-0.319193
-0.340743
-0.361969
-0.383514
-0.405881
-0.429723
-0.0684171
-0.0785586
-0.087722
-0.0961507
-0.104152
-0.112106
-0.12047
-0.129786
-0.14063
-0.154796
-0.0456373
-0.0548176
-0.0636121
-0.0719942
-0.0799263
-0.0873636
-0.0942627
-0.100597
-0.106362
-0.111681
-0.0192106
-0.0249294
-0.0304418
-0.0357667
-0.040926
-0.045943
-0.0508409
-0.0556416
-0.0603452
-0.0648305
-0.0135009
-0.017856
-0.0220865
-0.0261889
-0.0301595
-0.0339941
-0.0376893
-0.041242
-0.0446329
-0.0478292
-0.00844617
-0.011663
-0.0148204
-0.0179176
-0.0209538
-0.0239285
-0.0268413
-0.0296909
-0.0324656
-0.0351672
-0.00732214
-0.00985869
-0.0123589
-0.0148189
-0.017235
-0.0196041
-0.0219237
-0.0241913
-0.0264012
-0.0285646
-0.00652027
-0.00857781
-0.0106188
-0.0126393
-0.0146354
-0.0166038
-0.0185413
-0.0204451
-0.0223121
-0.0241472
-0.00643176
-0.00820603
-0.00997235
-0.0117262
-0.0134635
-0.0151802
-0.0168728
-0.0185382
-0.0201746
-0.021781
-0.00637513
-0.00800064
-0.00962351
-0.01124
-0.0128466
-0.0144399
-0.0160168
-0.0175746
-0.0191121
-0.0206252
0.167519
0.126532
0.0811842
0.0381155
-0.00362264
-0.0445014
-0.0839043
-0.121249
-0.156267
-0.188873
0.117058
0.0911439
0.0643532
0.0415155
0.0213962
0.00272332
-0.0145861
-0.0303212
-0.0444553
-0.0571037
0.0729451
0.0572477
0.0422958
0.0293848
0.0175345
0.00606892
-0.0050829
-0.015833
-0.0261582
-0.0360851
0.0526945
0.0436222
0.0349942
0.0272847
0.0200192
0.0129276
0.00601194
-0.000668979
-0.00709389
-0.0132699
0.0371612
0.0312104
0.0254709
0.0201809
0.0150913
0.0100709
0.00512655
0.000289602
-0.00442743
-0.00902412
0.026902
0.0230135
0.0191688
0.0155315
0.0119895
0.00847459
0.00498834
0.00154744
-0.00183978
-0.00517131
0.0192011
0.016473
0.0137181
0.0110419
0.00839624
0.00574826
0.00309974
0.000461853
-0.00215754
-0.00475362
0.0140219
0.0120271
0.00998216
0.0079494
0.00591225
0.00385712
0.00178636
-0.000292506
-0.00237311
-0.00445055
0.0106922
0.00909756
0.00745391
0.0057905
0.00410253
0.0023869
0.000647461
-0.00110962
-0.00287861
-0.00465432
0.00909665
0.0076763
0.00621264
0.00471989
0.00319745
0.00164639
7.10047e-05
-0.00152352
-0.00313234
-0.00475099
0.334941
0.334241
0.332691
0.329816
0.324832
0.3165
0.303051
0.282089
0.250981
0.206362
0.245047
0.24393
0.241295
0.23671
0.229839
0.220254
0.207382
0.190567
0.169059
0.142304
0.17422
0.173091
0.170424
0.165899
0.159409
0.150846
0.14002
0.126716
0.110528
0.0915418
0.122614
0.121728
0.119626
0.116063
0.111024
0.104533
0.0965837
0.0871858
0.0762615
0.0641458
0.0862833
0.0856388
0.0841
0.0814871
0.0778073
0.0731132
0.0674388
0.0608223
0.0532441
0.0449129
0.0611068
0.0606434
0.059535
0.057653
0.0550107
0.0516593
0.0476405
0.0429982
0.03775
0.0320423
0.0439576
0.0436191
0.042809
0.0414338
0.0395052
0.0370635
0.0341423
0.0307744
0.0269793
0.0228409
0.0326735
0.0324167
0.0318023
0.0307593
0.0292972
0.0274474
0.0252366
0.02269
0.019828
0.0167025
0.0258387
0.0256303
0.0251316
0.0242853
0.0230988
0.021597
0.0198013
0.0177306
0.0154026
0.0128486
0.0226188
0.0224323
0.0219872
0.0212322
0.0201736
0.0188333
0.0172302
0.0153804
0.0133007
0.011014
0.484912
0.486665
0.492998
0.504144
0.519995
0.540855
0.567189
0.599521
0.638389
0.684036
0.482671
0.484398
0.490651
0.501641
0.517244
0.537726
0.563496
0.59499
0.63261
0.676444
0.47824
0.479922
0.486022
0.49671
0.511826
0.531568
0.556226
0.586068
0.621218
0.661468
0.471721
0.473348
0.479237
0.489493
0.503909
0.522575
0.545612
0.573029
0.604536
0.639514
0.463251
0.464827
0.470468
0.480187
0.493718
0.511014
0.531974
0.556263
0.58303
0.611169
0.452998
0.454547
0.459921
0.469021
0.481512
0.497185
0.515672
0.536218
0.557269
0.57717
0.441159
0.442748
0.447875
0.456313
0.467653
0.481499
0.497176
0.513433
0.527931
0.538382
0.42794
0.429756
0.434771
0.44262
0.452835
0.464803
0.477472
0.488952
0.496016
0.4956
0.413411
0.415703
0.420797
0.428182
0.437377
0.44755
0.4572
0.463611
0.462399
0.44832
0.397209
0.399645
0.404312
0.410568
0.417947
0.425498
0.431445
0.432568
0.424102
0.396398
0.397209
0.399645
0.404311
0.410568
0.417947
0.425497
0.431444
0.432567
0.4241
0.396396
0.413411
0.415702
0.420796
0.428182
0.437377
0.447549
0.457199
0.463609
0.462398
0.448318
0.42794
0.429755
0.43477
0.44262
0.452834
0.464802
0.477472
0.488951
0.496015
0.495598
0.441159
0.442747
0.447875
0.456313
0.467653
0.481498
0.497176
0.513432
0.52793
0.53838
0.452998
0.454547
0.45992
0.469021
0.481512
0.497185
0.515672
0.536217
0.557268
0.577168
0.46325
0.464827
0.470468
0.480187
0.493718
0.511014
0.531974
0.556263
0.583029
0.611168
0.471721
0.473348
0.479237
0.489493
0.503909
0.522574
0.545612
0.573029
0.604536
0.639513
0.47824
0.479922
0.486022
0.496709
0.511826
0.531567
0.556226
0.586067
0.621217
0.661467
0.482671
0.484398
0.490651
0.501641
0.517244
0.537726
0.563495
0.59499
0.632609
0.676444
0.484912
0.486665
0.492998
0.504144
0.519995
0.540855
0.567189
0.599521
0.638388
0.684036
0.0226188
0.0224323
0.0219871
0.0212322
0.0201735
0.0188333
0.0172302
0.0153803
0.0133007
0.011014
0.0258387
0.0256302
0.0251315
0.0242852
0.0230987
0.0215969
0.0198013
0.0177305
0.0154025
0.0128485
0.0326733
0.0324166
0.0318021
0.0307591
0.029297
0.0274472
0.0252364
0.0226899
0.0198279
0.0167024
0.0439572
0.0436187
0.0428086
0.0414335
0.0395049
0.0370631
0.034142
0.0307741
0.0269789
0.0228406
0.0611063
0.0606429
0.0595345
0.0576525
0.0550101
0.0516587
0.0476399
0.0429976
0.0377495
0.0320418
0.0862825
0.0856381
0.0840992
0.0814863
0.0778065
0.0731124
0.067438
0.0608215
0.0532433
0.0449121
0.122613
0.121727
0.119625
0.116062
0.111023
0.104532
0.0965826
0.0871847
0.0762604
0.0641447
0.174219
0.17309
0.170423
0.165898
0.159408
0.150845
0.140018
0.126715
0.110527
0.0915403
0.245046
0.243929
0.241294
0.236709
0.229838
0.220253
0.207381
0.190565
0.169057
0.142302
0.33494
0.33424
0.332691
0.329816
0.324831
0.316499
0.303049
0.282087
0.250979
0.20636
0.00909665
0.00767629
0.0062126
0.00471984
0.00319737
0.00164627
7.08611e-05
-0.00152369
-0.00313255
-0.00475123
0.0106922
0.0090975
0.00745383
0.00579039
0.00410239
0.00238672
0.000647251
-0.00110986
-0.00287888
-0.00465461
0.0140218
0.012027
0.00998199
0.0079492
0.00591202
0.00385685
0.00178605
-0.000292844
-0.00237348
-0.00445094
0.0192007
0.0164726
0.0137178
0.0110415
0.00839583
0.00574782
0.00309927
0.00046136
-0.00215806
-0.00475416
0.0269014
0.0230129
0.0191682
0.0155309
0.0119888
0.00847391
0.00498763
0.00154671
-0.00184054
-0.00517209
0.0371604
0.0312096
0.02547
0.0201801
0.0150904
0.01007
0.00512561
0.000288646
-0.0044284
-0.00902511
0.0526933
0.043621
0.0349929
0.0272834
0.0200179
0.0129262
0.00601055
-0.000670393
-0.00709533
-0.0132714
0.0729434
0.057246
0.042294
0.029383
0.0175327
0.00606702
-0.00508483
-0.015835
-0.0261602
-0.0360872
0.117056
0.0911417
0.0643508
0.041513
0.0213937
0.00272069
-0.0145888
-0.030324
-0.0444581
-0.0571066
0.167517
0.126529
0.0811809
0.038112
-0.00362633
-0.0445052
-0.0839083
-0.121253
-0.156271
-0.188878
-0.00637542
-0.00800096
-0.00962389
-0.0112404
-0.012847
-0.0144404
-0.0160174
-0.0175752
-0.0191128
-0.0206259
-0.00643209
-0.00820638
-0.00997275
-0.0117267
-0.0134639
-0.0151807
-0.0168733
-0.0185388
-0.0201753
-0.0217817
-0.00652071
-0.00857829
-0.0106194
-0.0126398
-0.014636
-0.0166044
-0.018542
-0.0204458
-0.0223128
-0.0241479
-0.00732271
-0.00985928
-0.0123596
-0.0148195
-0.0172356
-0.0196047
-0.0219244
-0.024192
-0.026402
-0.0285654
-0.00844698
-0.0116638
-0.0148213
-0.0179185
-0.0209547
-0.0239294
-0.0268423
-0.0296918
-0.0324666
-0.0351682
-0.0135019
-0.0178571
-0.0220876
-0.0261901
-0.0301606
-0.0339952
-0.0376904
-0.0412432
-0.0446341
-0.0478304
-0.0192121
-0.0249309
-0.0304433
-0.0357682
-0.0409275
-0.0459445
-0.0508424
-0.0556431
-0.0603467
-0.064832
-0.0456393
-0.0548196
-0.0636141
-0.0719962
-0.0799284
-0.0873657
-0.0942648
-0.100599
-0.106364
-0.111683
-0.0684201
-0.0785616
-0.0877252
-0.0961539
-0.104155
-0.112109
-0.120474
-0.129789
-0.140634
-0.154799
-0.219082
-0.246979
-0.272759
-0.296703
-0.319198
-0.340749
-0.361975
-0.383521
-0.405888
-0.42973
-0.0308524
-0.0413664
-0.0420877
-0.0362167
-0.028453
-0.0215399
-0.0156612
-0.0106289
-0.00603296
-0.00202154
-0.0330843
-0.0433691
-0.0431001
-0.0365149
-0.0284775
-0.0214769
-0.0155494
-0.0105089
-0.00593905
-0.00199138
-0.037911
-0.0474714
-0.0451108
-0.0371196
-0.0285364
-0.0213337
-0.0153079
-0.0102529
-0.00574795
-0.00192646
-0.0461644
-0.0539328
-0.0480782
-0.0379747
-0.0285864
-0.0210698
-0.0149056
-0.00984152
-0.00544915
-0.00182718
-0.0592039
-0.0631969
-0.0519482
-0.0389466
-0.0285069
-0.0205983
-0.0142913
-0.00924281
-0.00502784
-0.00169072
-0.0793147
-0.0760484
-0.0569207
-0.0399465
-0.028109
-0.0197665
-0.0133785
-0.00840374
-0.00446203
-0.0014996
-0.108575
-0.0933272
-0.0637391
-0.0411988
-0.0273049
-0.018442
-0.0120849
-0.00727159
-0.00373281
-0.00120707
-0.148194
-0.114239
-0.0731832
-0.0431606
-0.0262825
-0.0166695
-0.0104315
-0.00586168
-0.0028618
-0.000743085
-0.189637
-0.132114
-0.0826378
-0.0445791
-0.024887
-0.0144776
-0.00851541
-0.00428841
-0.00194011
-6.30729e-05
-0.247749
-0.141144
-0.0886573
-0.0430971
-0.0231809
-0.0120722
-0.00667944
-0.00280192
-0.00117841
0.000793772
-0.314274
-0.149244
-0.0922868
-0.0398056
-0.0227024
-0.010701
-0.00596618
-0.00203961
-0.00100685
0.00146977
-0.322073
-0.14687
-0.0911719
-0.0380972
-0.0222011
-0.0102
-0.0057198
-0.00184243
-0.000944161
0.00162262
-0.317288
-0.141366
-0.0887151
-0.0361963
-0.0215529
-0.00969598
-0.00546897
-0.001672
-0.000869631
0.00173932
-0.311579
-0.137352
-0.0868838
-0.0347437
-0.0210582
-0.00928471
-0.00526051
-0.00152679
-0.000803889
0.00184287
-0.306682
-0.134448
-0.0854995
-0.0335738
-0.0206669
-0.00893845
-0.00508528
-0.00140114
-0.000748526
0.00193602
-0.302075
-0.132003
-0.0842993
-0.0325859
-0.0203357
-0.00864397
-0.0049373
-0.00129494
-0.000702092
0.00201578
-0.297886
-0.129947
-0.0832781
-0.0317849
-0.020064
-0.00840417
-0.00481718
-0.00120924
-0.000664448
0.00208053
-0.294473
-0.128357
-0.0824856
-0.0311843
-0.019858
-0.00822267
-0.00472629
-0.0011447
-0.000636083
0.00212955
-0.29208
-0.127276
-0.0819483
-0.030786
-0.0197199
-0.00810094
-0.00466523
-0.00110156
-0.000617264
0.00216241
-0.290848
-0.126728
-0.0816775
-0.0305877
-0.0196503
-0.0080394
-0.00463426
-0.00108004
-0.000608311
0.00217864
)
;

boundaryField
{
    inlet
    {
        type            zeroGradient;
    }
    outlet
    {
        type            fixedValue;
        value           uniform 0;
    }
    cylinder
    {
        type            zeroGradient;
    }
    top
    {
        type            symmetryPlane;
    }
    bottom
    {
        type            symmetryPlane;
    }
    defaultFaces
    {
        type            empty;
    }
}


// ************************************************************************* //
