/*--------------------------------*- C++ -*----------------------------------*\
  =========                 |
  \\      /  F ield         | OpenFOAM: The Open Source CFD Toolbox
   \\    /   O peration     | Website:  https://openfoam.org
    \\  /    A nd           | Version:  6.0
     \\/     M anipulation  |
\*---------------------------------------------------------------------------*/
FoamFile
{
    version     2.0;
    format      ascii;
    class       surfaceScalarField;
    location    "25";
    object      phi;
}
// * * * * * * * * * * * * * * * * * * * * * * * * * * * * * * * * * * * * * //

dimensions      [0 3 -1 0 0 0 0];

internalField   nonuniform List<scalar> 
3880
(
-1.79774e-05
1.79744e-05
3.02226e-09
-5.34953e-05
3.55128e-05
5.05819e-09
-9.53843e-05
4.18842e-05
4.76818e-09
-0.000136578
4.11906e-05
3.10992e-09
-0.000172715
3.61365e-05
6.22661e-10
-0.000201384
2.86711e-05
-2.3791e-09
-0.000221651
2.02727e-05
-5.71787e-09
-0.000233754
1.21122e-05
-9.30094e-09
-0.0002389
5.159e-06
-1.30723e-08
1.8794e-07
-1.71083e-08
-0.000239071
-1.72985e-05
3.52729e-05
-5.08458e-05
6.90601e-05
-8.96108e-05
8.06492e-05
-0.00012664
7.82198e-05
-0.000157613
6.71095e-05
-0.000180085
5.11426e-05
-0.000193034
3.32224e-05
-0.0001966
1.56781e-05
-0.000191934
4.9303e-07
-1.06945e-05
-0.000181052
-1.59055e-05
5.11784e-05
-4.54301e-05
9.85846e-05
-7.78602e-05
0.000113079
-0.000106512
0.000106871
-0.00012719
8.77876e-05
-0.000137418
6.13709e-05
-0.000136019
3.18234e-05
-0.000122923
2.58245e-06
-9.9146e-05
-2.32844e-05
-4.30861e-05
-6.67544e-05
-1.37111e-05
6.48895e-05
-3.69664e-05
0.00012184
-5.96242e-05
0.000135737
-7.55078e-05
0.000122755
-8.07232e-05
9.3003e-05
-7.28491e-05
5.34967e-05
-5.05341e-05
9.50838e-06
-1.3393e-05
-3.45586e-05
3.78282e-05
-7.45056e-05
-0.000106297
0.000101039
-1.05521e-05
7.54415e-05
-2.49374e-05
0.000136225
-3.39336e-05
0.000144733
-3.22116e-05
0.000121033
-1.64847e-05
7.72762e-05
1.53739e-05
2.16381e-05
6.47746e-05
-3.98924e-05
0.00013248
-0.000102264
0.000218211
-0.000160237
-0.000208058
0.000319972
-6.17725e-06
8.16188e-05
-8.55484e-06
0.000138603
7.47893e-07
0.000135431
2.57968e-05
9.59838e-05
6.8819e-05
3.42539e-05
0.000131179
-4.07215e-05
0.00021396
-0.000122674
0.000318172
-0.000206476
0.000444237
-0.000286302
-0.000354246
0.000590425
-2.75033e-07
8.18938e-05
1.31563e-05
0.000125172
4.64117e-05
0.000102175
0.000101906
4.04894e-05
0.000180287
-4.41271e-05
0.000281441
-0.000141876
0.000405283
-0.000246516
0.00055237
-0.000353563
0.000723782
-0.000457714
-0.000549085
0.000918621
7.43815e-06
7.44557e-05
4.10781e-05
9.15317e-05
0.000104982
3.82709e-05
0.000199745
-5.42733e-05
0.000324074
-0.000168456
0.000475594
-0.000293396
0.000651691
-0.000422613
0.000850658
-0.000552529
0.00107296
-0.000680018
-0.000798092
0.00132197
1.70702e-05
5.73855e-05
7.5524e-05
3.30778e-05
0.00017735
-6.35551e-05
0.000321634
-0.000198558
0.000505428
-0.000352249
0.000723966
-0.000511934
0.000970972
-0.000669619
0.00123963
-0.00082119
0.00152618
-0.000966569
-0.00111645
0.00184455
2.83553e-05
2.90302e-05
0.000115579
-5.41459e-05
0.000261875
-0.000209851
0.00046584
-0.000402523
0.000724685
-0.000611094
0.00103394
-0.00082119
0.00138681
-0.00102249
0.00177251
-0.00120688
0.00217531
-0.00136937
-0.00151396
0.00257281
4.04797e-05
-1.14495e-05
0.000158392
-0.000172058
0.000352125
-0.000403584
0.000620413
-0.000670811
0.000962637
-0.000953318
0.00137949
-0.00123804
0.00187422
-0.00151722
0.00245592
-0.00178858
0.00314753
-0.00206098
-0.00237276
0.00400633
5.2364e-05
-6.38135e-05
0.000199971
-0.000319665
0.00043804
-0.000641652
0.000763056
-0.000995828
0.00117234
-0.0013626
0.00166402
-0.00172972
0.00223702
-0.00209022
0.00289049
-0.00244205
0.00361892
-0.00278941
-0.00314133
0.00438749
6.34896e-05
-0.000127303
0.000238267
-0.000494443
0.000514895
-0.00091828
0.000885361
-0.00136629
0.0013419
-0.00181914
0.00187638
-0.0022642
0.00247959
-0.00269344
0.00313975
-0.00310221
0.00383829
-0.00348794
-0.0038445
0.00454146
7.38762e-05
-0.000201179
0.000273004
-0.00069357
0.00058215
-0.00122743
0.00098753
-0.00177167
0.00147527
-0.00230687
0.00203075
-0.00281968
0.0026382
-0.00330089
0.00327989
-0.00374391
0.00393458
-0.00414263
-0.00448584
0.00457591
8.36675e-05
-0.000284847
0.000304328
-0.000914231
0.000640074
-0.00156317
0.00107073
-0.00220233
0.00157626
-0.00281241
0.00213649
-0.00337992
0.00273122
-0.00389562
0.00334035
-0.00435303
0.00394375
-0.00474603
-0.00506369
0.0045216
9.28527e-05
-0.0003777
0.00033198
-0.00115336
0.000688094
-0.00191929
0.0011344
-0.00264863
0.00164516
-0.00332317
0.00219584
-0.00393059
0.00276371
-0.00446349
0.0033285
-0.00491782
0.00387277
-0.00529029
-0.00557361
0.00438269
0.000101189
-0.000478888
0.000355077
-0.00140725
0.0007245
-0.00228871
0.00117615
-0.00310028
0.00167936
-0.00382638
0.00220661
-0.00445784
0.0027344
-0.00499128
0.0032439
-0.00542732
0.00372129
-0.00576768
-0.00601076
0.00415844
0.000108245
-0.000587133
0.000372277
-0.00167128
0.000746872
-0.0026633
0.0011927
-0.00354612
0.00167528
-0.00430896
0.00216566
-0.00494822
0.00264118
-0.00546681
0.00308579
-0.00587193
0.00348991
-0.00617181
-0.00637152
0.00385068
0.000113498
-0.000700631
0.000382065
-0.00193985
0.000752697
-0.00303394
0.00118098
-0.0039744
0.00163005
-0.00475802
0.00207118
-0.00538935
0.00248405
-0.00587968
0.00285635
-0.00624423
0.00318299
-0.00649845
-0.00665429
0.00346575
0.000116417
-0.000817048
0.000383026
-0.00220645
0.000739889
-0.0033908
0.00113888
-0.00437339
0.00154249
-0.00516163
0.00192382
-0.00577068
0.00226608
-0.00622194
0.00256127
-0.00653942
0.00280868
-0.00674586
-0.00685948
0.00301388
0.000116537
-0.000933585
0.000374057
-0.00246397
0.000707132
-0.00372387
0.00106573
-0.00473199
0.00141349
-0.00550938
0.0017268
-0.006084
0.00199322
-0.00648836
0.00220921
-0.0067554
0.00237792
-0.00691457
-0.00698932
0.00250776
0.000113456
-0.00104704
0.000354391
-0.00270491
0.000653916
-0.0040234
0.000962177
-0.00504025
0.00124571
-0.00579292
0.00148536
-0.00632364
0.00167338
-0.00667639
0.00181043
-0.00689245
0.00190283
-0.00700697
-0.00704729
0.00196081
0.000106915
-0.00115396
0.000323745
-0.00292174
0.000580659
-0.00428031
0.000830185
-0.00528978
0.00104335
-0.00600608
0.00120615
-0.00648644
0.00131556
-0.00678581
0.00137583
-0.00695272
0.00139559
-0.00702673
-0.00703771
0.00138601
9.67674e-05
-0.00125072
0.000282242
-0.00310721
0.000488513
-0.00448658
0.000672659
-0.00547393
0.000811457
-0.00614488
0.000896416
-0.0065714
0.000928848
-0.00681824
0.000915814
-0.00693969
0.000867374
-0.00697829
-0.00696525
0.000794917
8.29946e-05
-0.00133372
0.000230396
-0.00325462
0.000379241
-0.00463543
0.000493123
-0.00558781
0.000555464
-0.00620722
0.000563286
-0.00657922
0.000521644
-0.00677659
0.000439546
-0.00685759
0.000327643
-0.00686639
-0.00683466
0.000197051
6.57143e-05
-0.00139943
0.000169094
-0.003358
0.000255099
-0.00472143
0.000295465
-0.00562817
0.000280761
-0.00619252
0.00021327
-0.00651173
0.000101114
-0.00666444
-4.55817e-05
-0.00671089
-0.000216326
-0.00669564
-0.00665051
-0.000400484
4.5197e-05
-0.00144463
9.95969e-05
-0.0034124
0.000118795
-0.00474063
8.3836e-05
-0.00559321
-7.44381e-06
-0.00610124
-0.000147932
-0.00637124
-0.00032705
-0.00648532
-0.000534226
-0.00650372
-0.000759736
-0.00647013
-0.00641658
-0.000993665
2.18926e-05
-0.00146652
2.35743e-05
-0.00341408
-2.64843e-05
-0.00469057
-0.000137299
-0.0054824
-0.000304037
-0.0059345
-0.000515302
-0.00615998
-0.000758524
-0.0062421
-0.00102307
-0.00623918
-0.00130049
-0.00619271
-0.00613335
-0.00158372
-3.52887e-06
-0.00146299
-5.68162e-05
-0.00336079
-0.00017695
-0.00457044
-0.00036301
-0.00529634
-0.000603915
-0.00569359
-0.000884774
-0.00587912
-0.00119136
-0.00593551
-0.00151283
-0.0059177
-0.00184216
-0.00586338
-0.00579385
-0.00218165
-3.01125e-05
-0.00143288
-0.000138754
-0.00325215
-0.000327757
-0.00438144
-0.000586922
-0.00503718
-0.000900429
-0.00538009
-0.00125167
-0.00552788
-0.00162612
-0.00556107
-0.00201336
-0.00553046
-0.00240943
-0.00546731
-0.00540649
-0.0027968
-5.6625e-05
-0.00137626
-0.00021872
-0.00309005
-0.000472493
-0.00412766
-0.00079912
-0.00471055
-0.00117947
-0.00499973
-0.00159764
-0.00510971
-0.00204232
-0.00511639
-0.00250624
-0.00506654
-0.00298851
-0.00498503
-0.00486995
-0.00352505
-8.19905e-05
-0.00129427
-0.000293669
-0.00287837
-0.000605408
-0.00381592
-0.000989485
-0.00432647
-0.00142236
-0.00456686
-0.00188597
-0.00464609
-0.00236733
-0.00463503
-0.00285746
-0.00457641
-0.00335018
-0.00449232
-0.00439084
-0.00382928
-0.000105571
-0.00118869
-0.000362222
-0.00262172
-0.000725144
-0.003453
-0.00115833
-0.00389328
-0.00163427
-0.00409092
-0.00213324
-0.00414712
-0.0026418
-0.00412647
-0.00315096
-0.00406725
-0.00365352
-0.00398975
-0.00390446
-0.00413991
-0.000127023
-0.00106167
-0.00042379
-0.00232496
-0.00083159
-0.0030452
-0.00130724
-0.00341764
-0.00182019
-0.00357797
-0.00234998
-0.00361733
-0.00288355
-0.0035929
-0.00341274
-0.00353807
-0.00393196
-0.00347053
-0.00339976
-0.00443666
-0.000146084
-0.000915587
-0.00047794
-0.0019931
-0.000924567
-0.00259857
-0.00143678
-0.00290542
-0.00198183
-0.00303292
-0.00253911
-0.00306006
-0.00309631
-0.0030357
-0.00364643
-0.00298794
-0.00418551
-0.00293145
-0.00287403
-0.00471125
-0.000162507
-0.00075308
-0.000524214
-0.00163139
-0.00100364
-0.00211915
-0.00154673
-0.00236234
-0.00211917
-0.00246048
-0.00270046
-0.00247876
-0.00327916
-0.002457
-0.00384934
-0.00241775
-0.0044082
-0.00237259
-0.00232762
-0.00495461
-0.000176041
-0.000577039
-0.000562102
-0.00124533
-0.00106816
-0.00161309
-0.00163635
-0.00179415
-0.00223125
-0.00186558
-0.0028326
-0.00187741
-0.00342971
-0.00185989
-0.0040175
-0.00182996
-0.00459394
-0.00179615
-0.00176296
-0.0051586
-0.000186445
-0.000390594
-0.000591084
-0.000840695
-0.00111739
-0.00108678
-0.00170469
-0.00120685
-0.00231681
-0.00125347
-0.00293373
-0.00126049
-0.00354534
-0.00124828
-0.00414717
-0.00122812
-0.0047377
-0.00120562
-0.00118374
-0.00531692
-0.000193511
-0.000197083
-0.000610697
-0.000423509
-0.00115065
-0.000546823
-0.00175083
-0.000606672
-0.00237462
-0.000629678
-0.00300217
-0.00063294
-0.00362377
-0.000626682
-0.00423534
-0.000616545
-0.00483566
-0.000605312
-0.000594444
-0.00542496
-0.000197084
1.08177e-09
-0.000620595
2.03527e-09
-0.00116742
2.43302e-09
-0.0017741
2.64395e-09
-0.00240378
2.82183e-09
-0.00303672
3.01552e-09
-0.0036634
3.22186e-09
-0.00427995
3.42092e-09
-0.00488527
3.60424e-09
3.76721e-09
-0.00547972
-0.000197084
0.000197085
-0.000620595
0.000423513
-0.00116742
0.000546828
-0.0017741
0.000606678
-0.00240378
0.000629684
-0.00303672
0.000632946
-0.0036634
0.000626688
-0.00427995
0.000616551
-0.00488527
0.00060532
0.000594451
-0.00547972
-0.000193511
0.000390596
-0.000610697
0.000840699
-0.00115065
0.00108678
-0.00175083
0.00120686
-0.00237462
0.00125347
-0.00300217
0.0012605
-0.00362377
0.00124829
-0.00423534
0.00122812
-0.00483566
0.00120563
0.00118375
-0.00542496
-0.000186445
0.000577041
-0.000591084
0.00124534
-0.00111739
0.00161309
-0.00170469
0.00179415
-0.00231681
0.00186559
-0.00293373
0.00187742
-0.00354534
0.00185989
-0.00414717
0.00182996
-0.0047377
0.00179616
0.00176297
-0.00531692
-0.000176041
0.000753082
-0.000562102
0.0016314
-0.00106816
0.00211915
-0.00163635
0.00236234
-0.00223125
0.00246049
-0.0028326
0.00247877
-0.00342971
0.002457
-0.0040175
0.00241776
-0.00459394
0.0023726
0.00232763
-0.0051586
-0.000162507
0.000915589
-0.000524214
0.00199311
-0.00100364
0.00259858
-0.00154673
0.00290543
-0.00211917
0.00303293
-0.00270046
0.00306006
-0.00327916
0.0030357
-0.00384934
0.00298794
-0.0044082
0.00293145
0.00287403
-0.00495461
-0.000146084
0.00106167
-0.00047794
0.00232496
-0.000924568
0.00304521
-0.00143678
0.00341764
-0.00198183
0.00357798
-0.00253911
0.00361734
-0.00309631
0.0035929
-0.00364643
0.00353807
-0.00418551
0.00347054
0.00339977
-0.00471125
-0.000127023
0.0011887
-0.00042379
0.00262173
-0.000831591
0.00345301
-0.00130724
0.00389329
-0.00182019
0.00409093
-0.00234998
0.00414713
-0.00288356
0.00412647
-0.00341274
0.00406726
-0.00393196
0.00398976
0.00390446
-0.00443666
-0.000105571
0.00129427
-0.000362222
0.00287838
-0.000725144
0.00381593
-0.00115833
0.00432648
-0.00163427
0.00456687
-0.00213324
0.0046461
-0.0026418
0.00463503
-0.00315096
0.00457641
-0.00365352
0.00449233
0.00439085
-0.00413991
-8.19906e-05
0.00137626
-0.00029367
0.00309006
-0.000605409
0.00412767
-0.000989486
0.00471055
-0.00142236
0.00499974
-0.00188597
0.00510971
-0.00236734
0.0051164
-0.00285746
0.00506654
-0.00335018
0.00498504
0.00486995
-0.00382928
-5.66251e-05
0.00143288
-0.00021872
0.00325215
-0.000472494
0.00438144
-0.000799121
0.00503718
-0.00117948
0.00538009
-0.00159764
0.00552788
-0.00204232
0.00556108
-0.00250625
0.00553047
-0.00298852
0.00546731
0.00540649
-0.00352506
-3.01127e-05
0.001463
-0.000138754
0.0033608
-0.000327757
0.00457044
-0.000586923
0.00529635
-0.000900431
0.0056936
-0.00125167
0.00587913
-0.00162612
0.00593552
-0.00201336
0.00591771
-0.00240944
0.00586339
0.00579385
-0.0027968
-3.52904e-06
0.00146653
-5.68168e-05
0.00341408
-0.000176952
0.00469058
-0.000363011
0.00548241
-0.000603917
0.00593451
-0.000884777
0.00615998
-0.00119136
0.00624211
-0.00151283
0.00623918
-0.00184216
0.00619271
0.00613335
-0.00218166
2.18924e-05
0.00144463
2.35737e-05
0.0034124
-2.64856e-05
0.00474064
-0.000137301
0.00559322
-0.00030404
0.00610124
-0.000515305
0.00637125
-0.000758527
0.00648533
-0.00102307
0.00650372
-0.0013005
0.00647014
0.00641658
-0.00158373
4.51968e-05
0.00139944
9.95962e-05
0.003358
0.000118794
0.00472144
8.38338e-05
0.00562818
-7.44665e-06
0.00619252
-0.000147935
0.00651174
-0.000327054
0.00666445
-0.00053423
0.0067109
-0.00075974
0.00669565
0.00665051
-0.000993669
6.57141e-05
0.00133372
0.000169094
0.00325462
0.000255098
0.00463544
0.000295462
0.00558782
0.000280758
0.00620723
0.000213266
0.00657923
0.00010111
0.0067766
-4.55865e-05
0.0068576
-0.000216331
0.00686639
0.00683467
-0.000400489
8.29944e-05
0.00125073
0.000230395
0.00310722
0.000379239
0.00448659
0.00049312
0.00547394
0.00055546
0.00614489
0.000563282
0.00657141
0.000521639
0.00681825
0.000439541
0.00693969
0.000327637
0.0069783
0.00696526
0.000197045
9.67672e-05
0.00115396
0.000282241
0.00292175
0.000488511
0.00428032
0.000672656
0.00528979
0.000811453
0.00600609
0.000896411
0.00648645
0.000928842
0.00678581
0.000915808
0.00695273
0.000867367
0.00702674
0.00703772
0.000794909
0.000106915
0.00104705
0.000323745
0.00270492
0.000580658
0.00402341
0.000830182
0.00504027
0.00104335
0.00579293
0.00120614
0.00632365
0.00131556
0.0066764
0.00137583
0.00689246
0.00139559
0.00700698
0.0070473
0.001386
0.000113456
0.000933589
0.000354391
0.00246398
0.000653915
0.00372389
0.000962174
0.00473201
0.00124571
0.00550939
0.00148535
0.00608401
0.00167338
0.00648838
0.00181042
0.00675541
0.00190282
0.00691458
0.00698933
0.0019608
0.000116537
0.000817052
0.000374057
0.00220646
0.00070713
0.00339081
0.00106573
0.00437341
0.00141348
0.00516164
0.0017268
0.0057707
0.00199322
0.00622196
0.0022092
0.00653943
0.00237791
0.00674587
0.00685949
0.00250775
0.000116417
0.000700635
0.000383026
0.00193986
0.000739888
0.00303395
0.00113888
0.00397441
0.00154248
0.00475804
0.00192381
0.00538937
0.00226607
0.0058797
0.00256126
0.00624424
0.00280867
0.00649846
0.0066543
0.00301387
0.000113498
0.000587137
0.000382064
0.00167129
0.000752696
0.00266332
0.00118098
0.00354613
0.00163004
0.00430897
0.00207117
0.00494824
0.00248404
0.00546683
0.00285634
0.00587195
0.00318297
0.00617182
0.00637154
0.00346574
0.000108245
0.000478892
0.000372277
0.00140726
0.000746872
0.00228872
0.0011927
0.0031003
0.00167528
0.0038264
0.00216565
0.00445786
0.00264118
0.0049913
0.00308578
0.00542734
0.0034899
0.0057677
0.00601077
0.00385067
0.000101189
0.000377703
0.000355078
0.00115337
0.000724501
0.0019193
0.00117615
0.00264865
0.00167936
0.00332319
0.00220661
0.00393061
0.0027344
0.00446351
0.00324389
0.00491784
0.00372128
0.00529031
0.00557363
0.00415842
9.2853e-05
0.00028485
0.00033198
0.00091424
0.000688095
0.00156319
0.0011344
0.00220234
0.00164516
0.00281243
0.00219583
0.00337994
0.00276371
0.00389564
0.0033285
0.00435306
0.00387276
0.00474605
0.00506371
0.00438268
8.36678e-05
0.000201183
0.000304329
0.000693579
0.000640076
0.00122744
0.00107073
0.00177169
0.00157626
0.0023069
0.00213649
0.00281971
0.00273122
0.00330091
0.00334035
0.00374393
0.00394375
0.00414265
0.00448586
0.00452159
7.38767e-05
0.000127306
0.000273005
0.000494451
0.000582153
0.000918293
0.000987533
0.00136631
0.00147527
0.00181916
0.00203075
0.00226422
0.0026382
0.00269346
0.00327989
0.00310224
0.00393457
0.00348797
0.00384453
0.00457591
6.34902e-05
6.38157e-05
0.000238269
0.000319672
0.000514898
0.000641664
0.000885366
0.000995843
0.00134191
0.00136262
0.00187638
0.00172975
0.0024796
0.00209025
0.00313975
0.00244208
0.00383829
0.00278944
0.00314137
0.00454145
5.23648e-05
1.1451e-05
0.000199973
0.000172063
0.000438044
0.000403593
0.000763062
0.000670825
0.00117234
0.000953336
0.00166402
0.00123807
0.00223702
0.00151725
0.00289049
0.00178861
0.00361892
0.00206101
0.0023728
0.00438749
4.04806e-05
-2.90296e-05
0.000158395
5.41492e-05
0.00035213
0.000209858
0.00062042
0.000402535
0.000962647
0.00061111
0.0013795
0.000821212
0.00187423
0.00102252
0.00245593
0.00120691
0.00314754
0.00136941
0.001514
0.00400634
2.83563e-05
-5.73859e-05
0.000115582
-3.30766e-05
0.000261881
6.35596e-05
0.000465849
0.000198566
0.000724696
0.000352263
0.00103396
0.000511952
0.00138683
0.000669643
0.00177252
0.000821219
0.00217533
0.000966604
0.0011165
0.00257283
1.70712e-05
-7.44571e-05
7.55272e-05
-9.15326e-05
0.000177356
-3.82693e-05
0.000321643
5.42789e-05
0.00050544
0.000168466
0.000723981
0.000293412
0.000970989
0.000422634
0.00123965
0.000552556
0.0015262
0.000680051
0.000798133
0.00184457
7.43918e-06
-8.18963e-05
4.10812e-05
-0.000125175
0.000104988
-0.000102176
0.000199754
-4.04867e-05
0.000324085
4.41345e-05
0.000475608
0.000141888
0.000651708
0.000246535
0.000850677
0.000353588
0.00107298
0.000457746
0.000549125
0.00132199
-2.74092e-07
-8.16222e-05
1.31591e-05
-0.000138608
4.64169e-05
-0.000135434
0.000101914
-9.59837e-05
0.000180298
-3.42491e-05
0.000281454
4.07319e-05
0.000405298
0.00012269
0.000552386
0.0002065
0.0007238
0.000286332
0.000354285
0.00091864
-6.17644e-06
-7.54458e-05
-8.5524e-06
-0.000136232
7.5232e-07
-0.000144739
2.58033e-05
-0.000121035
6.88276e-05
-7.72734e-05
0.000131189
-2.16297e-05
0.000213972
3.99071e-05
0.000318186
0.000102286
0.000444252
0.000160266
0.000208096
0.000590442
-1.05514e-05
-6.48944e-05
-2.49354e-05
-0.000121848
-3.393e-05
-0.000135744
-3.22064e-05
-0.000122758
-1.6478e-05
-9.30018e-05
1.53821e-05
-5.34897e-05
6.47841e-05
-9.49492e-06
0.000132491
3.45792e-05
0.000218223
7.45338e-05
0.000106333
0.000319985
-1.37106e-05
-5.11838e-05
-3.69649e-05
-9.85935e-05
-5.96216e-05
-0.000113088
-7.5504e-05
-0.000106876
-8.07183e-05
-8.77875e-05
-7.28431e-05
-6.13649e-05
-5.05272e-05
-3.18109e-05
-1.33852e-05
-2.5628e-06
3.78369e-05
2.33117e-05
4.31216e-05
0.000101049
-1.59051e-05
-3.52787e-05
-4.5429e-05
-6.90696e-05
-7.78584e-05
-8.06582e-05
-0.000106509
-7.82254e-05
-0.000127186
-6.71102e-05
-0.000137414
-5.11373e-05
-0.000136014
-3.32105e-05
-0.000122918
-1.5659e-05
-9.91401e-05
-4.66403e-07
1.07293e-05
-6.67479e-05
-1.72983e-05
-1.79803e-05
-5.08452e-05
-3.55228e-05
-8.96097e-05
-4.18936e-05
-0.000126638
-4.11967e-05
-0.000157611
-3.61376e-05
-0.000180082
-2.86662e-05
-0.000193032
-2.02611e-05
-0.000196597
-1.20934e-05
-0.000191931
-5.13275e-06
-1.53601e-07
-0.000181048
-1.79773e-05
-5.34951e-05
-9.5384e-05
-0.000136578
-0.000172715
-0.000201383
-0.00022165
-0.000233753
-0.000238899
-0.000239069
0.00018514
-0.00042313
-1.08086e-06
0.00132275
-0.0011364
-1.20759e-06
0.00248979
-0.00116749
4.51774e-07
0.0032364
-0.00075018
3.5725e-06
0.00385893
-0.000625238
2.70272e-06
0.00428947
-0.000430048
-4.88577e-07
0.00463586
-0.00034359
-2.79926e-06
0.00487232
-0.000230737
-5.71733e-06
0.00508606
-0.000211401
-2.34501e-06
-0.000133252
1.58178e-06
0.000296838
-0.000901019
0.00140521
-0.00224478
0.00254593
-0.00230821
0.00327594
-0.00148019
0.0038869
-0.0012362
0.00431078
-0.000853927
0.00465303
-0.000685841
0.00488773
-0.000465432
0.00510072
-0.00042439
-0.000265968
0.000513056
-0.00148083
0.00156443
-0.00329615
0.00265396
-0.00339773
0.00335206
-0.0021783
0.00394078
-0.00182492
0.00435197
-0.00126512
0.00468638
-0.00102025
0.00491782
-0.000696878
0.00512951
-0.000636074
-0.000400886
0.000819934
-0.00219972
0.00178949
-0.00426571
0.00280581
-0.00441405
0.00345906
-0.00283155
0.00401662
-0.00238247
0.0044103
-0.0016588
0.00473403
-0.00134398
0.00496136
-0.000924205
0.00517166
-0.000846373
-0.000539453
0.00119789
-0.00307764
0.00206509
-0.00513291
0.00299019
-0.00533914
0.00358896
-0.00343033
0.00410883
-0.00290234
0.00448185
-0.00203181
0.00479327
-0.0016554
0.00501645
-0.00114738
0.00522592
-0.00105584
-0.000683469
0.00162285
-0.00411007
0.00237264
-0.0058827
0.00319343
-0.00615994
0.00373207
-0.00396897
0.00421061
-0.00338089
0.00456181
-0.00238301
0.00486076
-0.00195436
0.00508078
-0.0013674
0.00529077
-0.00126583
-0.000835192
0.00206676
-0.0052582
0.00269093
-0.00650687
0.00340032
-0.00686932
0.00387763
-0.00444629
0.00431439
-0.00381765
0.0046448
-0.00271341
0.00493271
-0.00224227
0.00515167
-0.00158636
0.00536438
-0.00147854
-0.000997374
0.00249928
-0.00643551
0.0029969
-0.0070045
0.00359487
-0.00746728
0.00401445
-0.00486587
0.0044123
-0.00421551
0.00472517
-0.00302628
0.00500507
-0.00252217
0.00522624
-0.00180753
0.00544477
-0.00169707
-0.00117329
0.00290282
-0.00749379
0.00327162
-0.0073733
0.00376303
-0.00795869
0.00413206
-0.0052349
0.00449684
-0.00458029
0.00479738
-0.00332681
0.00507381
-0.0027986
0.00530151
-0.00203523
0.00552982
-0.00192538
-0.00136668
0.00328217
-0.00820315
0.00351345
-0.00760457
0.00389393
-0.00833917
0.00422321
-0.00556418
0.00456127
-0.00491835
0.00485653
-0.00362207
0.00513494
-0.00307701
0.00537478
-0.00227507
0.00561706
-0.00216766
-0.00158231
0.0432888
-0.000930199
-0.0505618
0.0390768
-0.0033925
0.0370007
-0.00626308
0.0368273
-0.0053908
0.0366782
-0.0047693
0.0368629
-0.00380677
0.0370608
-0.00327491
0.0373378
-0.00255202
0.0375671
-0.00239701
-0.0019035
0.0523422
0.00329566
-0.0565681
0.0501497
-0.00119998
0.0475524
-0.0036658
0.0460239
-0.00386226
0.0448106
-0.00355606
0.0439982
-0.00299435
0.0433566
-0.00263333
0.0429525
-0.0021479
0.0425636
-0.00200807
-0.00172979
0.0539032
0.00450672
-0.0551142
0.0526233
7.98738e-05
0.0510005
-0.00204298
0.0496981
-0.00255982
0.0485931
-0.00245112
0.0477377
-0.00213896
0.0469881
-0.00188368
0.046429
-0.00158881
0.0458757
-0.0014548
-0.00135299
0.0520578
0.00435869
-0.0519097
0.0516502
0.000487444
0.0508102
-0.00120299
0.0499725
-0.00172206
0.0492236
-0.00170231
0.0486192
-0.00153456
0.0480672
-0.00133163
0.0476261
-0.00114776
0.047182
-0.00101061
-0.000996115
0.0500039
0.00367786
-0.0493231
0.0498769
0.000614409
0.0494485
-0.000774591
0.0489436
-0.00121709
0.0484679
-0.00122666
0.0480757
-0.00114231
0.0477221
-0.00097802
0.0474273
-0.000853028
0.0471386
-0.000721836
-0.000731516
0.0483047
0.00287997
-0.0475068
0.0483294
0.000589708
0.0480742
-0.000519362
0.0477384
-0.000881309
0.047411
-0.000899304
0.0471321
-0.00086333
0.0468928
-0.000738728
0.0466883
-0.000648539
0.0465027
-0.000536251
-0.000544046
0.0470962
0.00209306
-0.0463093
0.0471887
0.000497234
0.0470116
-0.000342324
0.0467542
-0.000623868
0.0464969
-0.000642067
0.0462656
-0.000631943
0.0460729
-0.000546125
0.0459061
-0.000481694
0.0457659
-0.000396041
-0.000397504
0.0462817
0.00135685
-0.0455455
0.046424
0.000354989
0.0462891
-0.000207473
0.0460666
-0.000401343
0.04584
-0.000415438
0.0456251
-0.00041704
0.0454441
-0.000365168
0.045286
-0.000323564
0.0451566
-0.000266646
-0.000264917
0.0457851
0.000666179
-0.0450944
0.045959
0.000181069
0.0458506
-9.90977e-05
0.0456443
-0.000195015
0.0454307
-0.000201811
0.0452209
-0.000207296
0.0450391
-0.000183394
0.0448794
-0.000163815
0.0447474
-0.00013461
-0.000133639
0.0455507
-0.0448845
0.0457318
0.0456327
0.0454377
0.0452358
0.0450286
0.0448452
0.0446813
0.0445467
0.056776
0.00230126
-0.0560634
0.0573306
0.00291119
0.0576785
0.00350273
0.0577702
0.0040668
0.0575586
0.00459419
0.0570042
0.0050761
0.0560753
0.0055048
0.0547425
0.00587418
0.0529507
0.00617936
0.00639521
0.0513978
0.00169259
-0.0507892
0.0520515
0.00225751
0.0527362
0.00281807
0.0534338
0.00336917
0.0541229
0.0039051
0.0547793
0.00441965
0.0553778
0.00490636
0.0558931
0.00535887
0.056301
0.00577144
0.00612816
0.0480913
0.00121774
-0.0476165
0.0486472
0.0017017
0.0492808
0.00218448
0.0499867
0.00266321
0.0507571
0.00313474
0.0515811
0.0035956
0.0524455
0.00404196
0.0533347
0.00446965
0.054232
0.00487414
0.00524599
0.045494
0.000891194
-0.0451675
0.0459007
0.001295
0.0463881
0.00169706
0.0469562
0.00209514
0.047604
0.00248697
0.0483294
0.00287021
0.0491288
0.00324248
0.0499972
0.00360124
0.0509277
0.00394372
0.0042639
0.0439054
0.000651405
-0.0436656
0.0442192
0.000981114
0.0446074
0.00130894
0.0450695
0.00163303
0.0456049
0.0019515
0.0462127
0.00226249
0.046891
0.00256415
0.0476377
0.00285457
0.0484497
0.00313166
0.00339055
0.0428097
0.000469263
-0.0426275
0.0430618
0.000728993
0.0433838
0.000986953
0.0437752
0.00124163
0.0442352
0.00149151
0.0447626
0.0017351
0.0453558
0.00197094
0.0460128
0.00219755
0.0467311
0.00241332
0.00261486
0.0421159
0.000324519
-0.0419711
0.0423275
0.000517351
0.0426057
0.000708768
0.0429497
0.000897619
0.0433584
0.00108276
0.0438305
0.00126306
0.044364
0.0014374
0.0449569
0.00160467
0.0456066
0.00176368
0.00191214
0.0416639
0.000203935
-0.0415434
0.0418497
0.000331639
0.0421
0.000458386
0.0424142
0.000583402
0.0427911
0.000705921
0.043229
0.000825181
0.0437259
0.000940436
0.0442796
0.00105095
0.0448874
0.00115592
0.00125401
0.0413993
9.81277e-05
-0.0412935
0.0415691
0.000161772
0.0418026
0.000224957
0.0420987
0.000287292
0.0424562
0.000348392
0.0428735
0.000407872
0.0433486
0.000465357
0.0438791
0.000520473
0.0444622
0.000572829
0.000621785
0.0412738
-0.0411757
0.0414356
0.0416605
0.0419478
0.0422962
0.0427041
0.0431694
0.0436899
0.0442627
0.0481098
-0.00335386
-0.0475527
0.0488231
-0.00289504
0.0496458
-0.00240638
0.050538
-0.00188583
0.0514718
-0.00133434
0.0524287
-0.000759817
0.0533904
-0.00016677
0.0543353
0.000441111
0.055237
0.00105908
0.00168137
0.0479853
-0.00340695
-0.0479322
0.0480816
-0.00299133
0.0482206
-0.00254541
0.0484082
-0.00207346
0.0486505
-0.00157663
0.0489517
-0.001061
0.0493152
-0.00053031
0.0497432
1.31164e-05
0.0502355
0.00056679
0.00112774
0.046897
-0.00314759
-0.0471563
0.0466931
-0.00278742
0.0465498
-0.0024021
0.0464723
-0.00199605
0.046467
-0.00157133
0.0465374
-0.00113137
0.0466858
-0.000678663
0.0469141
-0.000215232
0.0472241
0.000256842
0.0007353
0.0455817
-0.00277146
-0.0459578
0.0452634
-0.00246915
0.0450065
-0.0021452
0.0448145
-0.00180403
0.0446907
-0.00144754
0.0446375
-0.00107814
0.0446567
-0.000697914
0.0447503
-0.000308822
0.04492
8.71311e-05
0.000487853
0.0446597
-0.00234967
-0.0450815
0.0442918
-0.00210118
0.0439821
-0.00183556
0.043734
-0.00155588
0.0435502
-0.00126372
0.043433
-0.000960954
0.0433844
-0.000649311
0.043406
-0.000330488
0.0434994
-6.22684e-06
0.000321682
0.0439895
-0.00190036
-0.0444388
0.0435922
-0.00170385
0.0432506
-0.00149404
0.0429679
-0.00127316
0.0427467
-0.00104247
0.0425891
-0.000803352
0.042497
-0.000557211
0.0424719
-0.000305433
0.0425151
-4.94454e-05
0.000209286
0.0435589
-0.00143597
-0.0440232
0.0431448
-0.00128985
0.0427848
-0.00113403
0.0424817
-0.000969981
0.0422378
-0.000798629
0.0420555
-0.000620988
0.0419363
-0.000438095
0.0418819
-0.000251002
0.0418933
-6.07914e-05
0.000131427
0.04328
-0.000961488
-0.0437545
0.042855
-0.000864796
0.0424827
-0.000761716
0.0421659
-0.00065318
0.041907
-0.00053979
0.0417083
-0.000422209
0.0415713
-0.000301122
0.0414975
-0.000177231
0.041488
-5.12599e-05
7.60486e-05
0.0431191
-0.000481551
-0.0435991
0.0426878
-0.00043353
0.0423085
-0.000382339
0.0419837
-0.000328417
0.041716
-0.000272063
0.0415074
-0.000213601
0.0413596
-0.000153367
0.0412741
-9.17115e-05
0.0412518
-2.89951e-05
3.44113e-05
0.0430453
-0.0435268
0.0426118
0.0422294
0.041901
0.0416289
0.0414153
0.041262
0.0411703
0.0411413
0.0429475
0.000174624
-0.000193164
0.0429914
0.000521255
-0.000565184
0.0430659
0.000872634
-0.000947092
0.0431884
0.00123694
-0.00135949
0.0433891
0.00161954
-0.00182021
0.0437115
0.00202466
-0.00234704
0.0442144
0.00245441
-0.00295733
0.0449697
0.00291124
-0.00366656
0.0460715
0.00337115
-0.00447293
0.00392348
-0.0054047
0.0429657
0.000137873
0.0430729
0.000414012
0.043254
0.000691508
0.0435194
0.000971544
0.0438841
0.00125493
0.0443668
0.00154192
0.0449897
0.00183154
0.045777
0.00212392
0.0467447
0.00240346
0.00273597
0.0429665
0.000100266
0.0430779
0.000302694
0.0432627
0.000506666
0.0435251
0.00070917
0.0438707
0.000909309
0.0443068
0.00110579
0.0448419
0.00129652
0.045486
0.00147979
0.0462438
0.00164564
0.00182344
0.0429586
7.05533e-05
0.0430476
0.000213732
0.043196
0.000358273
0.0434046
0.000500588
0.0436744
0.00063947
0.0440066
0.000773625
0.0444016
0.000901481
0.0448596
0.00102183
0.0453755
0.00112968
0.00124116
0.0429506
4.88912e-05
0.0430161
0.000148263
0.0431258
0.000248565
0.0432795
0.000346904
0.0434767
0.000442221
0.0437169
0.000533464
0.0439988
0.000619493
0.0443213
0.000699378
0.0446807
0.000770328
0.00084029
0.0429445
3.33043e-05
0.0429918
0.000101007
0.043071
0.000169313
0.0431818
0.00023617
0.0433232
0.000300801
0.0434942
0.000362469
0.0436932
0.00042043
0.0439185
0.000474091
0.0441669
0.000521979
0.000568362
0.0429403
2.19148e-05
0.0429749
6.6455e-05
0.0430328
0.000111372
0.0431137
0.000155308
0.0432167
0.00019774
0.043341
0.000238179
0.0434853
0.000276147
0.0436481
0.000311255
0.0438274
0.000342674
0.000372569
0.0429376
1.32752e-05
0.0429638
4.02436e-05
0.0430077
6.74274e-05
0.043069
9.40177e-05
0.0431471
0.0001197
0.0432411
0.000144184
0.04335
0.000167192
0.0434728
0.000188499
0.0436078
0.000207671
0.000225812
0.0429359
6.26045e-06
0.0429572
1.89792e-05
0.0429928
3.1789e-05
0.0430425
4.43198e-05
0.0431058
5.64251e-05
0.043182