1.45 	0 	0 	-0.291357
2.35 	0 	0 	-0.126587
