1.45 	0 	0 	-0.0050439 	-0.00278345 	3.94389e-21
2.35 	0 	0 	0.0706281 	-0.006907 	2.44502e-21
