/*--------------------------------*- C++ -*----------------------------------*\
  =========                 |
  \\      /  F ield         | OpenFOAM: The Open Source CFD Toolbox
   \\    /   O peration     | Website:  https://openfoam.org
    \\  /    A nd           | Version:  6.0
     \\/     M anipulation  |
\*---------------------------------------------------------------------------*/
FoamFile
{
    version     2.0;
    format      ascii;
    class       volVectorField;
    location    "0.4";
    object      U;
}
// * * * * * * * * * * * * * * * * * * * * * * * * * * * * * * * * * * * * * //

dimensions      [0 1 -1 0 0 0 0];

internalField   nonuniform List<vector> 
200
(
(0.000492647 -0.000576522 0)
(0.000291909 7.80089e-05 0)
(-0.00181389 0.000624016 0)
(-0.00492203 0.000865057 0)
(-0.00855193 0.00103349 0)
(-0.0128211 0.0013034 0)
(-0.0181905 0.00179635 0)
(-0.0253677 0.00264753 0)
(-0.0352947 0.00403754 0)
(-0.0490609 0.00614608 0)
(-0.0675469 0.00896165 0)
(-0.0906175 0.0119436 0)
(-0.115907 0.0137523 0)
(-0.137838 0.0124968 0)
(-0.148251 0.00676354 0)
(-0.13953 -0.00301846 0)
(-0.109094 -0.0136322 0)
(-0.0630772 -0.0190358 0)
(-0.0183876 -0.013125 0)
(0.000514183 0.000210189 0)
(-0.000557641 -0.000202747 0)
(-0.00442976 0.00322672 0)
(-0.012538 0.00573241 0)
(-0.0227931 0.00712699 0)
(-0.0344401 0.00836209 0)
(-0.0479253 0.0101785 0)
(-0.064279 0.0130969 0)
(-0.0848629 0.0175424 0)
(-0.11107 0.0237822 0)
(-0.143724 0.0315504 0)
(-0.182072 0.0393857 0)
(-0.222663 0.0441445 0)
(-0.258954 0.04152 0)
(-0.282386 0.0278277 0)
(-0.284664 0.0021529 0)
(-0.260197 -0.0320363 0)
(-0.20806 -0.0654363 0)
(-0.13406 -0.0816181 0)
(-0.0553339 -0.0614497 0)
(-0.00785582 -0.0104234 0)
(-0.00230511 0.00375842 0)
(-0.01129 0.0128662 0)
(-0.0264598 0.0185615 0)
(-0.0439696 0.0218952 0)
(-0.0627963 0.0250813 0)
(-0.0835959 0.0296908 0)
(-0.107481 0.0366744 0)
(-0.13562 0.0464165 0)
(-0.168741 0.0584235 0)
(-0.206417 0.0707324 0)
(-0.246399 0.0794832 0)
(-0.284419 0.0793377 0)
(-0.314866 0.0650162 0)
(-0.332065 0.0332721 0)
(-0.331216 -0.01565 0)
(-0.308373 -0.0767512 0)
(-0.260305 -0.137521 0)
(-0.186334 -0.173354 0)
(-0.0950981 -0.147574 0)
(-0.0200593 -0.0441549 0)
(-0.00435252 0.0120325 0)
(-0.0188992 0.029427 0)
(-0.0409626 0.0384478 0)
(-0.0643712 0.0432241 0)
(-0.0876534 0.0477869 0)
(-0.111411 0.0545229 0)
(-0.136411 0.0645659 0)
(-0.163284 0.0779023 0)
(-0.192176 0.0930276 0)
(-0.222352 0.106548 0)
(-0.252013 0.113278 0)
(-0.278554 0.107251 0)
(-0.299299 0.0834029 0)
(-0.312138 0.0389398 0)
(-0.315081 -0.0261646 0)
(-0.304676 -0.108339 0)
(-0.274825 -0.196576 0)
(-0.218483 -0.263794 0)
(-0.13399 -0.255935 0)
(-0.0372272 -0.105121 0)
(-0.00671603 0.0249513 0)
(-0.0268565 0.0525209 0)
(-0.0546555 0.0637399 0)
(-0.0813386 0.0680578 0)
(-0.105081 0.0718499 0)
(-0.126415 0.0782117 0)
(-0.145732 0.0883363 0)
(-0.163346 0.101904 0)
(-0.179451 0.116857 0)
(-0.194007 0.129252 0)
(-0.206726 0.133698 0)
(-0.217296 0.12452 0)
(-0.225807 0.0971439 0)
(-0.232904 0.0487444 0)
(-0.238913 -0.0220697 0)
(-0.241823 -0.115099 0)
(-0.235289 -0.224842 0)
(-0.20877 -0.329034 0)
(-0.150732 -0.364142 0)
(-0.0522241 -0.197989 0)
(-0.00980725 0.0430806 0)
(-0.0356836 0.0814088 0)
(-0.0673611 0.0920701 0)
(-0.0936845 0.0927614 0)
(-0.113376 0.0925988 0)
(-0.127417 0.0951962 0)
(-0.136126 0.101795 0)
(-0.139808 0.112071 0)
(-0.139017 0.124008 0)
(-0.134639 0.133868 0)
(-0.127934 0.136714 0)
(-0.120541 0.127499 0)
(-0.114557 0.102116 0)
(-0.112451 0.0575991 0)
(-0.116456 -0.00867461 0)
(-0.127011 -0.0997891 0)
(-0.140583 -0.217466 0)
(-0.147269 -0.351433 0)
(-0.128363 -0.443747 0)
(-0.0505586 -0.311957 0)
(-0.0148041 0.0682583 0)
(-0.0471018 0.11515 0)
(-0.0793469 0.120071 0)
(-0.0993728 0.112927 0)
(-0.109227 0.105499 0)
(-0.111492 0.101375 0)
(-0.106806 0.101596 0)
(-0.0955395 0.105921 0)
(-0.078359 0.11273 0)
(-0.0565437 0.118957 0)
(-0.0321656 0.120502 0)
(-0.00803531 0.113062 0)
(0.0124631 0.0929405 0)
(0.0256771 0.0571145 0)
(0.027989 0.00248727 0)
(0.016816 -0.0755836 0)
(-0.00863996 -0.184056 0)
(-0.0434556 -0.327606 0)
(-0.0675173 -0.470298 0)
(-0.0223451 -0.412253 0)
(-0.0248419 0.105824 0)
(-0.0640057 0.150764 0)
(-0.0855978 0.139025 0)
(-0.0842184 0.11888 0)
(-0.0730587 0.102781 0)
(-0.0567393 0.0916 0)
(-0.0357909 0.0852218 0)
(-0.0101723 0.0832299 0)
(0.0200435 0.0844144 0)
(0.054213 0.0865975 0)
(0.0906896 0.0868291 0)
(0.126758 0.0818335 0)
(0.158636 0.0685988 0)
(0.182053 0.0443605 0)
(0.191934 0.00625663 0)
(0.183973 -0.0503371 0)
(0.152635 -0.133587 0)
(0.0961525 -0.259633 0)
(0.0281957 -0.424039 0)
(0.0357601 -0.449822 0)
(-0.0575383 0.181426 0)
(-0.0730593 0.170054 0)
(-0.0244409 0.120979 0)
(0.0273122 0.093334 0)
(0.0732413 0.0754079 0)
(0.114345 0.062409 0)
(0.152764 0.0534565 0)
(0.190163 0.0481354 0)
(0.227834 0.0456569 0)
(0.266564 0.0447841 0)
(0.306014 0.0439249 0)
(0.344749 0.0411926 0)
(0.379479 0.0347931 0)
(0.406469 0.0228407 0)
(0.419147 0.00361506 0)
(0.412335 -0.026177 0)
(0.374365 -0.0717711 0)
(0.299998 -0.150603 0)
(0.183648 -0.288393 0)
(0.142543 -0.368925 0)
(0.231696 0.124988 0)
(0.280514 0.110342 0)
(0.378465 0.0778345 0)
(0.461223 0.0563188 0)
(0.520688 0.042286 0)
(0.565206 0.0323504 0)
(0.601122 0.025191 0)
(0.631927 0.0201917 0)
(0.659758 0.0168641 0)
(0.686127 0.0146988 0)
(0.711385 0.0131711 0)
(0.735298 0.0116778 0)
(0.755445 0.00963662 0)
(0.77004 0.006445 0)
(0.772657 0.00143178 0)
(0.761535 -0.00604073 0)
(0.720504 -0.0183357 0)
(0.651544 -0.037818 0)
(0.502738 -0.081109 0)
(0.378844 -0.133804 0)
)
;

boundaryField
{
    movingWall
    {
        type            fixedValue;
        value           uniform (1 0 0);
    }
    fixedWalls
    {
        type            noSlip;
    }
    frontAndBack
    {
        type            empty;
    }
}


// ************************************************************************* //
