1.275 	2.15223e-18 	-2.76991e-20 	-0.311477
1.825 	2.15223e-18 	-1.39322e-20 	-0.199009
2.375 	2.15223e-18 	-2.66896e-23 	-0.170107
