1.45 	0 	0 	-0.00678602 	-0.00265717 	3.89573e-21
2.35 	0 	0 	0.065193 	-0.00675001 	2.42441e-21
