1.45 	0 	0 	-0.299797
2.35 	0 	0 	-0.133243
