/*--------------------------------*- C++ -*----------------------------------*\
  =========                 |
  \\      /  F ield         | OpenFOAM: The Open Source CFD Toolbox
   \\    /   O peration     | Website:  https://openfoam.org
    \\  /    A nd           | Version:  6.0
     \\/     M anipulation  |
\*---------------------------------------------------------------------------*/
FoamFile
{
    version     2.0;
    format      ascii;
    class       volScalarField;
    location    "2.5";
    object      T;
}
// * * * * * * * * * * * * * * * * * * * * * * * * * * * * * * * * * * * * * //

dimensions      [0 0 0 1 0 0 0];

internalField   nonuniform List<scalar> 
3000
(
0.874681
0.834089
0.821365
0.816872
0.825259
0.890812
1.3619
2.31242
2.60869
2.61122
0.874658
0.834093
0.821318
0.816866
0.825108
0.892256
1.3605
2.328
2.56985
2.48371
0.874773
0.83389
0.821323
0.816702
0.824904
0.889601
1.37315
2.27119
2.59049
2.47681
0.874985
0.833557
0.821322
0.816457
0.824484
0.88688
1.37101
2.25041
2.62245
2.50237
0.875245
0.833112
0.821302
0.816125
0.823849
0.884164
1.36562
2.2458
2.6133
2.51023
0.875639
0.832474
0.821277
0.815655
0.822908
0.880911
1.3489
2.22978
2.60339
2.50783
0.87612
0.831644
0.821198
0.815005
0.821628
0.87682
1.32768
2.1931
2.59407
2.4998
0.876585
0.830651
0.82096
0.814083
0.820515
0.866007
1.34076
2.10891
2.56645
2.47691
0.876752
0.829829
0.820345
0.813249
0.818897
0.863813
1.27349
2.10476
2.53614
2.44412
0.877036
0.82868
0.819632
0.812078
0.817005
0.85676
1.217
2.06219
2.4905
2.37208
1.00229
1.00312
1.00569
1.01958
1.06567
1.18618
1.56851
3.07013
2.83255
2.58767
1.00227
1.0031
1.00563
1.01945
1.0651
1.18614
1.56739
3.05915
2.87642
2.74217
1.00224
1.00304
1.00554
1.01919
1.06458
1.18449
1.56172
3.04869
2.88201
2.7403
1.00218
1.00295
1.00541
1.01881
1.06381
1.18221
1.55393
3.04251
2.87935
2.73367
1.0021
1.00281
1.00521
1.01825
1.0625
1.17922
1.54377
3.02848
2.87381
2.72532
1.00198
1.00262
1.00493
1.01748
1.0607
1.17499
1.53013
3.01342
2.86211
2.70553
1.00181
1.00231
1.00456
1.01643
1.0582
1.16925
1.51203
2.9903
2.85019
2.68551
1.00144
1.0018
1.00396
1.01496
1.0553
1.15975
1.48089
2.93307
2.83132
2.64391
1.0008
1.00101
1.00305
1.01306
1.05048
1.14962
1.45013
2.86098
2.80064
2.60004
1.00001
1.00004
1.00193
1.01072
1.04474
1.13556
1.40197
2.74524
2.73816
2.52733
1.03178
1.04314
1.05086
1.07491
1.13423
1.27845
1.68709
2.95385
2.76198
2.79692
1.03177
1.0431
1.05079
1.07476
1.13388
1.27786
1.68504
2.95103
2.76098
2.7924
1.03174
1.04304
1.05064
1.07445
1.13323
1.27643
1.68043
2.94722
2.75684
2.78455
1.03169
1.04292
1.05041
1.07397
1.13219
1.27411
1.67262
2.93908
2.74663
2.77258
1.03162
1.04275
1.05006
1.07325
1.13062
1.27066
1.66122
2.92382
2.73929
2.7563
1.0315
1.04247
1.04956
1.07225
1.12845
1.26578
1.64511
2.90245
2.72836
2.73605
1.03131
1.04209
1.04893
1.07094
1.12553
1.25909
1.62392
2.87145
2.7187
2.70673
1.03103
1.04162
1.04836
1.0694
1.12196
1.25049
1.59681
2.83127
2.69902
2.67021
1.03062
1.04101
1.04771
1.06748
1.11721
1.23926
1.56257
2.76877
2.67558
2.61748
1.03011
1.04028
1.04694
1.06513
1.1113
1.2248
1.51632
2.68223
2.62824
2.54986
1.02838
1.04861
1.06704
1.10307
1.17957
1.35012
1.80665
2.9842
2.69722
2.77525
1.02837
1.04858
1.06696
1.10291
1.17921
1.34936
1.8046
2.98231
2.6985
2.77887
1.02835
1.04853
1.06683
1.10258
1.17847
1.34772
1.80001
2.97521
2.69934
2.77442
1.0283
1.04845
1.06663
1.10208
1.1773
1.34513
1.79198
2.96481
2.70283
2.76417
1.02823
1.04831
1.06634
1.10135
1.17559
1.34128
1.77958
2.95177
2.70241
2.74419
1.0281
1.04811
1.06595
1.10034
1.17322
1.33584
1.76201
2.93346
2.70097
2.72618
1.02788
1.04784
1.06547
1.09904
1.17006
1.32842
1.73864
2.90812
2.69569
2.69466
1.02756
1.04753
1.06503
1.09745
1.16595
1.31877
1.70916
2.87379
2.68318
2.66085
1.02711
1.04715
1.06454
1.09546
1.16068
1.3062
1.672
2.82377
2.66576
2.60668
1.02657
1.04672
1.06397
1.09301
1.15412
1.29037
1.62428
2.75007
2.62869
2.5453
1.01671
1.03654
1.05822
1.10178
1.18773
1.37353
1.85771
3.03684
2.65971
2.75785
1.0167
1.03653
1.05817
1.10162
1.18739
1.37271
1.85677
3.03381
2.66238
2.76506
1.01666
1.03652
1.05807
1.10131
1.18666
1.37092
1.85416
3.02597
2.66504
2.76137
1.01659
1.0365
1.05791
1.10083
1.18547
1.36811
1.84799
3.01258
2.66596
2.75233
1.01646
1.03649
1.0577
1.10014
1.18373
1.36412
1.8357
2.99307
2.66858
2.73218
1.01632
1.03639
1.0575
1.09921
1.18134
1.35855
1.81828
2.96776
2.66849
2.71564
1.01612
1.03625
1.05732
1.09802
1.17815
1.35099
1.79519
2.93271
2.66856
2.67952
1.01581
1.0361
1.05719
1.09656
1.17404
1.34117
1.76486
2.90035
2.66183
2.65018
1.01541
1.03593
1.0571
1.09473
1.16879
1.32853
1.7267
2.85685
2.64838
2.58728
1.01494
1.03576
1.05702
1.09248
1.16226
1.31265
1.67872
2.79302
2.61517
2.53005
1.01671
1.03655
1.05823
1.10178
1.18774
1.37352
1.85766
3.03685
2.65965
2.75769
1.0167
1.03653
1.05817
1.10163
1.18739
1.37269
1.85672
3.0338
2.66239
2.7649
1.01666
1.03652
1.05807
1.10131
1.18665
1.3709
1.85411
3.02595
2.66504
2.76121
1.01659
1.03651
1.05792
1.10083
1.18547
1.36809
1.8479
3.01258
2.66595
2.75219
1.01646
1.03649
1.0577
1.10014
1.18373
1.36411
1.83564
2.99309
2.66855
2.73207
1.01632
1.0364
1.0575
1.09922
1.18134
1.35855
1.81825
2.96779
2.66847
2.71554
1.01612
1.03626
1.05732
1.09803
1.17816
1.351
1.79518
2.93274
2.66855
2.67944
1.01582
1.0361
1.05719
1.09656
1.17405
1.34118
1.76487
2.90038
2.66183
2.6501
1.01542
1.03593
1.0571
1.09473
1.1688
1.32854
1.72672
2.85688
2.64839
2.58722
1.01494
1.03576
1.05702
1.09248
1.16226
1.31266
1.67874
2.79305
2.61518
2.53
1.02839
1.04862
1.06705
1.10309
1.17959
1.35013
1.80644
2.98403
2.6975
2.77487
1.02838
1.0486
1.06698
1.10293
1.17922
1.34935
1.8043
2.98194
2.69879
2.77842
1.02835
1.04854
1.06684
1.1026
1.17847
1.3477
1.79965
2.97487
2.69959
2.77398
1.02831
1.04846
1.06664
1.10209
1.1773
1.3451
1.79169
2.96465
2.70297
2.7637
1.02823
1.04832
1.06635
1.10136
1.17559
1.34127
1.7794
2.95169
2.7025
2.74377
1.0281
1.04812
1.06596
1.10035
1.17323
1.33584
1.76193
2.93347
2.70101
2.72586
1.02789
1.04784
1.06548
1.09905
1.17007
1.32844
1.73864
2.90818
2.69572
2.6944
1.02756
1.04753
1.06504
1.09746
1.16597
1.3188
1.70922
2.87388
2.68321
2.66064
1.02712
1.04716
1.06455
1.09547
1.16069
1.30624
1.67207
2.82387
2.66578
2.60652
1.02658
1.04673
1.06398
1.09302
1.15414
1.2904
1.62433
2.75015
2.62872
2.54515
1.03179
1.04316
1.05088
1.07494
1.13425
1.27861
1.687
2.95291
2.76013
2.7954
1.03178
1.04312
1.05081
1.07479
1.13393
1.27795
1.6845
2.95045
2.75865
2.79111
1.03175
1.04306
1.05067
1.07448
1.13326
1.2765
1.67962
2.94585
2.7547
2.78284
1.0317
1.04294
1.05043
1.07399
1.13219
1.27415
1.67213
2.93787
2.74568
2.77138
1.03163
1.04276
1.05008
1.07326
1.13062
1.27072
1.66102
2.92308
2.73865
2.75524
1.03151
1.04249
1.04958
1.07226
1.12846
1.26584
1.6451
2.9023
2.72815
2.73521
1.03132
1.0421
1.04894
1.07095
1.12554
1.25915
1.62404
2.87139
2.71864
2.706
1.03104
1.04163
1.04837
1.06942
1.12197
1.25057
1.59711
2.83164
2.69914
2.6696
1.03063
1.04102
1.04772
1.0675
1.11724
1.23932
1.56271
2.76888
2.67568
2.61701
1.03012
1.04029
1.04695
1.06514
1.11132
1.22485
1.51641
2.68225
2.62831
2.54946
1.0023
1.00315
1.00569
1.01962
1.06551
1.18714
1.57053
3.06198
2.82211
2.57532
1.00228
1.00313
1.00564
1.01949
1.06524
1.1865
1.56689
3.04939
2.86693
2.7506
1.00225
1.00307
1.00555
1.01924
1.06468
1.1851
1.56199
3.0454
2.87303
2.75091
1.00219
1.00297
1.00542
1.01885
1.06377
1.18283
1.55531
3.03891
2.8732
2.74511
1.00211
1.00283
1.00521
1.01828
1.06241
1.17983
1.54605
3.02924
2.86904
2.73501
1.00199
1.00263
1.00494
1.0175
1.06066
1.17535
1.53165
3.01281
2.85973
2.71217
1.00182
1.00232
1.00457
1.01645
1.05815
1.16956
1.51331
2.99041
2.84851
2.69123
1.00145
1.00181
1.00397
1.01498
1.05523
1.16008
1.48216
2.93293
2.82984
2.64874
1.00081
1.00102
1.00306
1.01308
1.0505
1.14977
1.45056
2.86097
2.79937
2.60348
1.00002
1.00004
1.00194
1.01073
1.04476
1.13568
1.40224
2.7452
2.73726
2.5304
0.874543
0.834285
0.821329
0.817003
0.825432
0.893299
1.36607
2.34689
2.60772
2.60132
0.874593
0.834199
0.821325
0.816943
0.825357
0.892669
1.36542
2.35461
2.59467
2.53239
0.874711
0.834004
0.821319
0.816801
0.825089
0.891313
1.3618
2.33071
2.60364
2.51176
0.87491
0.833684
0.821306
0.816559
0.824616
0.889212
1.35585
2.2946
2.6097
2.50812
0.875176
0.833238
0.821281
0.816226
0.823925
0.886831
1.34783
2.27337
2.6092
2.50658
0.875588
0.83257
0.821267
0.815726
0.822981
0.882475
1.34101
2.23465
2.6037
2.50304
0.876074
0.831723
0.821188
0.815061
0.821674
0.878103
1.3209
2.19972
2.59514
2.49498
0.876535
0.830724
0.820949
0.814129
0.820543
0.866956
1.3408
2.10323
2.5668
2.47299
0.876732
0.829863
0.820347
0.813269
0.818939
0.864062
1.27394
2.10495
2.5367
2.44092
0.877022
0.828706
0.819636
0.812094
0.817038
0.856921
1.21708
2.06497
2.4913
2.37024
0.878405
0.824344
0.817643
0.807929
0.80957
0.83105
1.02111
1.77439
2.24705
2.23498
0.877575
0.821169
0.812201
0.801326
0.799981
0.810368
0.871048
1.40647
1.83712
2.00226
0.868737
0.82477
0.798374
0.795869
0.789631
0.791306
0.800162
0.990659
1.37708
1.62903
0.873315
0.818238
0.796951
0.77622
0.774372
0.768562
0.769012
0.786492
0.95849
1.28608
0.871452
0.819584
0.795364
0.775101
0.763739
0.759896
0.756497
0.759179
0.776934
0.963226
0.869424
0.821879
0.793602
0.775772
0.759051
0.757534
0.753241
0.753479
0.760362
0.812419
0.871139
0.819775
0.795375
0.773899
0.757096
0.747363
0.745976
0.742586
0.745994
0.746394
0.871735
0.818856
0.796684
0.772593
0.757805
0.743093
0.742286
0.738341
0.73605
0.718943
0.870982
0.819159
0.795329
0.772654
0.75764
0.744416
0.738301
0.736762
0.721198
0.789095
0.870403
0.818869
0.794735
0.773784
0.758483
0.745767
0.738713
0.736438
0.717734
0.787431
0.99799
0.996735
0.998478
1.00386
1.02832
1.09291
1.28332
2.08776
2.52255
2.42126
0.996129
0.991132
0.992046
0.994891
1.00934
1.05487
1.16167
1.61898
2.12187
2.19454
0.990942
0.98242
0.981153
0.982497
0.985579
1.00099
1.03687
1.19952
1.63096
1.84556
0.989432
0.981796
0.973116
0.967025
0.967394
0.968105
0.973708
0.991727
1.1391
1.2265
0.989316
0.980949
0.973541
0.962535
0.958823
0.959435
0.962019
0.973212
1.00455
1.12041
0.988987
0.980908
0.973317
0.961095
0.955621
0.956459
0.957815
0.965717
0.986923
1.06249
0.988623
0.981018
0.972791
0.961708
0.951271
0.948655
0.949454
0.950859
0.959875
0.972155
0.988546
0.980969
0.973
0.96153
0.950923
0.946216
0.946895
0.947568
0.952599
0.959478
0.989188
0.980657
0.972223
0.961305
0.950532
0.945612
0.944105
0.945149
0.947449
0.9646
0.989485
0.97957
0.972334
0.96134
0.950507
0.946066
0.944398
0.944739
0.945988
0.967841
1.02865
1.03809
1.04448
1.05791
1.09348
1.17991
1.39005
2.21134
2.47932
2.41846
1.02772
1.03452
1.04037
1.04828
1.07241
1.13284
1.27348
1.81133
2.18786
2.24261
1.02453
1.03058
1.0333
1.0361
1.04403
1.06727
1.1217
1.30001
1.56275
1.84904
1.02216
1.0302
1.02951
1.02895
1.02756
1.03047
1.03827
1.06442
1.1004
1.2019
1.02188
1.03027
1.02913
1.02608
1.02421
1.02424
1.0295
1.04636
1.08227
1.22012
1.02188
1.03025
1.02895
1.02545
1.02318
1.02218
1.02613
1.0391
1.06815
1.16428
1.02168
1.03016
1.02878
1.02519
1.0205
1.01979
1.02002
1.02382
1.03478
1.05792
1.02165
1.03013
1.02875
1.02494
1.02002
1.01904
1.0193
1.02127
1.02883
1.04302
1.0218
1.0301
1.02863
1.02457
1.01979
1.01888
1.0191
1.02078
1.02783
1.0435
1.0218
1.03003
1.02854
1.02459
1.0199
1.01896
1.01912
1.0209
1.02801
1.04738
1.02505
1.04543
1.06206
1.08539
1.13397
1.24022
1.48331
2.34179
2.53667
2.44684
1.02382
1.04352
1.05812
1.07504
1.11011
1.18617
1.35305
1.96462
2.28
2.31948
1.02212
1.04136
1.05304
1.06433
1.0793
1.11173
1.18028
1.39471
1.67971
1.9522
1.0195
1.0406
1.05625
1.05961
1.06293
1.0746
1.08941
1.12342
1.15707
1.27585
1.01892
1.04244
1.05494
1.0567
1.06011
1.0708
1.08174
1.10563
1.14449
1.29862
1.0189
1.04264
1.05475
1.05622
1.05941
1.06956
1.07845
1.09707
1.12916
1.24304
1.01879
1.04293
1.05442
1.05545
1.05846
1.06801
1.07542
1.08088
1.0934
1.11989
1.01882
1.04316
1.05393
1.05495
1.05835
1.06823
1.07459
1.07842
1.08733
1.10273
1.01893
1.04312
1.05365
1.05475
1.05845
1.06835
1.07433
1.07804
1.08686
1.10222
1.01888
1.04311
1.05367
1.05483
1.05852
1.06821
1.07406
1.07801
1.08737
1.10694
1.01375
1.03512
1.05657
1.0852
1.14169
1.26111
1.52844
2.43265
2.55267
2.44558
1.01306
1.03432
1.0543
1.07518
1.11709
1.20434
1.3907
2.05228
2.33078
2.35004
1.01316
1.03365
1.05123
1.06648
1.08563
1.12446
1.20334
1.44585
1.74895
2.0065
1.00991
1.03263
1.05947
1.06525
1.07032
1.08772
1.10704
1.14725
1.18231
1.30899
1.0092
1.03542
1.05814
1.062
1.06797
1.08584
1.10052
1.12983
1.17039
1.33329
1.00914
1.03572
1.05791
1.0616
1.06759
1.08523
1.09842
1.12126
1.15467
1.27544
1.00905
1.03615
1.05765
1.06091
1.06686
1.08523
1.09747
1.10427
1.11759
1.14557
1.00908
1.03663
1.05701
1.06016
1.06681
1.0858
1.09731
1.10208
1.11092
1.12699
1.00922
1.03669
1.05663
1.0598
1.06692
1.08621
1.09693
1.1016
1.11047
1.12714
1.00914
1.03665
1.05675
1.05997
1.06697
1.08612
1.09637
1.10152
1.11137
1.13202
1.01375
1.03513
1.05657
1.0852
1.1417
1.26112
1.52846
2.43268
2.55268
2.44557
1.01306
1.03432
1.0543
1.07518
1.11709
1.20434
1.3907
2.05231
2.3308
2.35004
1.01316
1.03365
1.05123
1.06648
1.08563
1.12446
1.20333
1.44584
1.74891
2.0065
1.00991
1.03263
1.05947
1.06525
1.07032
1.08772
1.10704
1.14724
1.1823
1.30895
1.0092
1.03542
1.05814
1.062
1.06797
1.08584
1.10052
1.12981
1.17038
1.33315
1.00914
1.03572
1.05792
1.0616
1.06759
1.08522
1.09841
1.12125
1.15465
1.27552
1.00904
1.03615
1.05765
1.06091
1.06686
1.08523
1.09746
1.10426
1.11757
1.14549
1.00908
1.03663
1.05699
1.06015
1.06681
1.08581
1.0973
1.10206
1.11088
1.12685
1.00923
1.03668
1.05662
1.05978
1.06692
1.08621
1.09685
1.10146
1.11024
1.12677
1.00913
1.0366
1.0568
1.06
1.06697
1.08611
1.0963
1.10144
1.1112
1.13169
1.02505
1.04543
1.06206
1.08539
1.13398
1.24024
1.48335
2.3419
2.53669
2.44683
1.02382
1.04352
1.05812
1.07504
1.11011
1.18618
1.35305
1.96469
2.28004
2.31945
1.02212
1.04136
1.05304
1.06433
1.07929
1.11172
1.18025
1.39481
1.67934
1.95236
1.0195
1.0406
1.05625
1.05961
1.06293
1.07461
1.08941
1.1234
1.15704
1.27567
1.01892
1.04244
1.05495
1.0567
1.06011
1.07079
1.08173
1.10563
1.14443
1.29889
1.0189
1.04264
1.05475
1.05622
1.0594
1.06954
1.07842
1.09701
1.12914
1.24279
1.01879
1.04293
1.05442
1.05545
1.05846
1.06801
1.0754
1.08084
1.09333
1.1195
1.01883
1.04316
1.0539
1.05493
1.05834
1.06823
1.07455
1.07836
1.08718
1.10251
1.01893
1.04309
1.05362
1.05473
1.05847
1.06835
1.07416
1.07782
1.08657
1.10215
1.01885
1.04307
1.05375
1.05485
1.05847
1.06824
1.07399
1.07797
1.08734
1.10722
1.02866
1.0381
1.04449
1.05792
1.09349
1.17994
1.39011
2.21153
2.47926
2.41823
1.02772
1.03452
1.04037
1.04829
1.07241
1.13285
1.27349
1.81141
2.18799
2.24244
1.02453
1.03058
1.0333
1.0361
1.04402
1.06726
1.12167
1.30002
1.5624
1.84908
1.02216
1.0302
1.02951
1.02895
1.02755
1.03047
1.03826
1.06439
1.10033
1.20161
1.02188
1.03027
1.02913
1.02607
1.0242
1.02424
1.02949
1.04634
1.0822
1.22039
1.02188
1.03025
1.02895
1.02545
1.02316
1.02217
1.0261
1.03901
1.0681
1.16275
1.02168
1.03015
1.02877
1.02519
1.0205
1.01978
1.02001
1.02379
1.03471
1.05742
1.02169
1.03014
1.02873
1.02488
1.01999
1.01902
1.01929
1.02129
1.02886
1.0434
1.0218
1.03004
1.02856
1.02455
1.01983
1.01895
1.01922
1.02112
1.02836
1.04379
1.02179
1.03005
1.02855
1.02454
1.01995
1.01912
1.01933
1.02148
1.02922
1.04987
0.997995
0.996741
0.998484
1.00387
1.02834
1.09297
1.28337
2.08877
2.52189
2.4227
0.996133
0.991137
0.992053
0.994896
1.00935
1.05489
1.16171
1.61927
2.12194
2.19475
0.990942
0.982421
0.981153
0.982497
0.985578
1.00099
1.03684
1.19958
1.63087
1.8461
0.989429
0.981795
0.973114
0.967023
0.967386
0.968093
0.973687
0.991683
1.13911
1.22616
0.989314
0.980946
0.973547
0.962527
0.95881
0.959423
0.962005
0.97318
1.00448
1.12036
0.988965
0.980914
0.973304
0.961077
0.955567
0.956448
0.957785
0.965619
0.98671
1.06139
0.98863
0.981037
0.972722
0.961769
0.951342
0.948639
0.949421
0.95081
0.959848
0.972264
0.988795
0.981039
0.972766
0.961533
0.950985
0.946144
0.9471
0.94779
0.954728
0.961809
0.989266
0.979852
0.972381
0.961529
0.950834
0.946042
0.946443
0.947552
0.950156
0.964999
0.98937
0.979628
0.972627
0.96098
0.95125
0.946543
0.94661
0.947274
0.948544
0.971026
0.8784
0.824356
0.817644
0.807936
0.809585
0.831114
1.02129
1.77639
2.24839
2.23568
0.877589
0.821158
0.812216
0.801325
0.799985
0.810383
0.871123
1.40738
1.83853
2.003
0.868739
0.82477
0.798375
0.795869
0.78963
0.79131
0.800148
0.991065
1.37787
1.62941
0.873313
0.818234
0.796955
0.776218
0.774364
0.768552
0.768996
0.78646
0.958892
1.28587
0.871428
0.819604
0.795376
0.775119
0.763708
0.759885
0.756486
0.759155
0.776921
0.962856
0.869368
0.821946
0.793562
0.775811
0.758988
0.75749
0.7532
0.753396
0.760163
0.811231
0.871257
0.819662
0.795294
0.774071
0.757108
0.747357
0.745875
0.742463
0.745688
0.746736
0.872152
0.818459
0.796333
0.772885
0.757872
0.742837
0.742332
0.739089
0.739781
0.730782
0.870265
0.818805
0.795382
0.775828
0.758569
0.743085
0.741556
0.74009
0.733905
0.738791
0.868934
0.820121
0.795966
0.775842
0.758034
0.744162
0.742001
0.738973
0.719282
0.748673
2.11696
2.02507
2.04031
2.16363
2.35747
2.32218
2.30704
2.23676
2.25777
2.14241
2.02324
1.97983
2.25068
2.23337
2.37144
2.35278
2.3856
2.42261
2.32174
2.22219
1.88402
1.84041
1.93981
1.92179
1.97793
1.92226
2.15294
2.24106
2.1565
1.89597
1.74012
1.79603
1.78451
1.76858
1.80786
1.74961
1.77861
1.78762
1.75508
1.74016
1.36807
1.67594
1.72998
1.72118
1.76571
1.7589
1.65411
1.67094
1.66556
1.68723
1.30429
1.41311
1.56025
1.59945
1.70627
1.72773
1.77467
1.73293
1.67661
1.58465
1.11981
1.28598
1.41945
1.47822
1.57527
1.68859
1.7465
1.68732
1.54552
1.46575
0.869601
1.35458
1.5268
1.53653
1.58169
1.59904
1.56084
1.53491
1.45361
1.41735
0.521431
1.27103
1.49143
1.64091
1.67939
1.64143
1.58187
1.5286
1.46231
1.42109
0.537165
1.39067
1.54561
1.57372
1.60677
1.6017
1.56014
1.50408
1.42537
1.35331
2.31441
2.26238
2.30433
2.53213
2.52996
2.54068
2.55592
2.49924
2.57356
2.5073
2.23022
2.22921
2.39948
2.48768
2.47968
2.45047
2.46314
2.57315
2.56372
2.27467
2.05047
2.13735
2.25211
2.20899
2.22656
2.22387
2.31597
2.27254
2.20428
2.01943
1.91155
1.98536
1.98632
1.99293
2.03994
2.0518
2.07689
2.0085
1.94677
1.8782
1.67508
1.86461
1.91229
1.9304
1.97664
1.96955
1.92923
1.88413
1.84782
1.80348
1.5311
1.67207
1.79164
1.83962
1.88367
1.92092
1.915
1.82994
1.72898
1.69241
1.3256
1.56815
1.68418
1.77199
1.83404
1.89841
1.86209
1.7835
1.66339
1.6008
1.1625
1.51095
1.68769
1.75541
1.80665
1.7952
1.75232
1.67657
1.57642
1.52707
1.00384
1.37589
1.61002
1.69704
1.74312
1.72418
1.68075
1.59712
1.52841
1.49092
0.984317
1.30945
1.69655
1.75517
1.76971
1.7522
1.6303
1.51964
1.47333
1.43982
2.32287
2.28771
2.34985
2.61034
2.61457
2.63259
2.6908
2.70758
2.79529
2.69883
2.24119
2.25844
2.43641
2.52403
2.49984
2.45482
2.49238
2.63807
2.68567
2.31213
2.05419
2.19956
2.30926
2.2808
2.29044
2.30922
2.38685
2.30751
2.24518
2.06788
1.93712
2.00982
2.01216
2.0257
2.08204
2.13154
2.20616
2.09234
2.01145
1.91941
1.77247
1.9261
1.94541
1.97049
2.02367
2.06236
2.03152
1.95947
1.89356
1.83276
1.62255
1.74393
1.88121
1.92115
1.9367
1.9842
1.97491
1.87628
1.76687
1.74995
1.42495
1.67112
1.79718
1.9047
1.94811
1.99373
1.93585
1.8245
1.71692
1.66603
1.29382
1.60956
1.73852
1.85291
1.90847
1.88473
1.82764
1.73717
1.65404
1.6078
1.29018
1.46469
1.6814
1.79471
1.84264
1.82922
1.78002
1.67297
1.59342
1.55794
1.20402
1.37054
1.73648
1.84289
1.86817
1.84885
1.70464
1.55949
1.49823
1.47377
2.35898
2.34078
2.41928
2.73488
2.64945
2.66157
2.69234
2.76063
2.90354
2.82404
2.29155
2.32243
2.51599
2.57563
2.55866
2.53201
2.55187
2.66538
2.66517
2.38863
2.13637
2.2866
2.39971
2.37226
2.38083
2.40157
2.48601
2.35611
2.28847
2.11365
2.03441
2.10654
2.09875
2.12146
2.1703
2.25496
2.3284
2.17624
2.08904
1.99081
1.89542
2.03765
2.0517
2.07856
2.12538
2.19313
2.13147
2.02847
1.98322
1.92171
1.7284
1.87127
2.0066
2.05718
2.07007
2.12299
2.09443
1.97338
1.88034
1.8554
1.54698
1.79149
1.94311
2.04816
2.10718
2.12011
2.06127
1.92044
1.82746
1.76767
1.42222
1.72686
1.86097
1.98558
2.06217
2.02672
1.93993
1.83301
1.77696
1.71743
1.42837
1.59959
1.81085
1.92806
1.97009
1.95261
1.87729
1.7578
1.69548
1.65893
1.35722
1.51465
1.85081
1.95246
1.97124
1.94794
1.78701
1.63038
1.57271
1.55677
2.36943
2.36724
2.45288
2.82375
2.67501
2.68912
2.72774
2.82406
2.97024
2.48236
2.31606
2.35941
2.56625
2.60505
2.5945
2.57632
2.60106
2.75152
2.65869
2.3416
2.17696
2.34077
2.46309
2.43788
2.44858
2.47374
2.56508
2.40111
2.30425
2.1438
2.08288
2.15605
2.15143
2.19217
2.25305
2.36533
2.39925
2.22969
2.13068
2.03652
1.96073
2.09415
2.11469
2.15989
2.2076
2.2858
2.1961
2.06688
2.02625
1.97521
1.79458
1.94729
2.07112
2.13827
2.15389
2.20293
2.15634
2.02712
1.94878
1.91698
1.6166
1.8566
2.01411
2.13593
2.20431
2.18408
2.10975
1.9712
1.90477
1.83974
1.4883
1.79451
1.92036
2.05969
2.14556
2.1031
1.98886
1.88812
1.85677
1.79189
1.4907
1.68291
1.90884
1.9982
2.03192
2.019
1.92056
1.79913
1.74851
1.72073
1.43097
1.58493
1.90736
2.01323
2.03355
2.01393
1.85327
1.71073
1.65921
1.64019
2.3694
2.3672
2.45282
2.82367
2.67528
2.68931
2.72822
2.82404
2.97049
2.4727
2.31602
2.35932
2.56603
2.60519
2.5945
2.57617
2.60059
2.75202
2.66572
2.34027
2.17684
2.34071
2.46294
2.43797
2.44872
2.47344
2.56258
2.40542
2.30539
2.14205
2.08298
2.15581
2.1508
2.19182
2.25279
2.36772
2.39707
2.2274
2.13011
2.03822
1.96096
2.09389
2.11432
2.15985
2.20743
2.28682
2.19698
2.06815
2.02765
1.97668
1.79395
1.94771
2.07267
2.13941
2.15499
2.20337
2.1578
2.02686
1.94866
1.91333
1.61731
1.85745
2.01346
2.13649
2.20509
2.18414
2.11077
1.96966
1.90005
1.83821
1.48832
1.79132
1.92329
2.05994
2.14368
2.10234
1.99028
1.88797
1.85276
1.79072
1.49007
1.68848
1.90168
1.98972
2.02868
2.01811
1.92916
1.8033
1.74699
1.71972
1.43013
1.58656
1.90565
2.00686
2.03095
2.01668
1.8623
1.71189
1.65547
1.63939
2.35876
2.34056
2.4193
2.73527
2.64957
2.66106
2.69145
2.7618
2.9045
2.80392
2.29143
2.3219
2.51592
2.57659
2.55941
2.53247
2.55227
2.67251
2.65949
2.40184
2.13493
2.2865
2.39995
2.37293
2.38151
2.40107
2.47889
2.35884
2.28419
2.10819
2.0362
2.10626
2.0958
2.11934
2.17014
2.25909
2.32191
2.17698
2.09507
1.99735
1.89406
2.03715
2.05245
2.07943
2.12449
2.1953
2.13942
2.0343
1.98945
1.92502
1.72812
1.8759
2.01068
2.05948
2.0729
2.12791
2.09814
1.97367
1.88349
1.84907
1.5532
1.78777
1.93947
2.04986
2.11031
2.11799
2.06175
1.9177
1.8172
1.76591
1.42026
1.72194
1.87354
1.98735
2.05936
2.02009
1.93208
1.82631
1.76115
1.71266
1.42662
1.61956
1.79623
1.90889
1.95314
1.94129
1.87836
1.75543
1.68832
1.65609
1.3536
1.52486
1.86775
1.9486
1.96813
1.95232
1.80316
1.6331
1.56768
1.55739
2.32282
2.28763
2.34985
2.611
2.61326
2.62937
2.69061
2.70777
2.80226
2.65933
2.24116
2.25814
2.43657
2.52482
2.50119
2.45464
2.49065
2.64047
2.68642
2.25925
2.05253
2.19969
2.30955
2.28149
2.29118
2.30959
2.37853
2.31191
2.24398
2.06052
1.93993
2.009
2.00964
2.02476
2.08223
2.13715
2.19236
2.0894
2.01418
1.91962
1.77006
1.92591
1.95057
1.97335
2.02266
2.06187
2.03853
1.96823
1.89808
1.83502
1.62559
1.75213
1.87977
1.91911
1.93864
1.98852
1.97891
1.88179
1.76727
1.74714
1.43445
1.65424
1.78814
1.90832
1.95124
2.00077
1.94417
1.82943
1.71539
1.66936
1.28816
1.61325
1.76006
1.85518
1.90748
1.88238
1.82737
1.73448
1.6393
1.60659
1.29334
1.49727
1.6751
1.76728
1.81957
1.81202
1.7722
1.66347
1.58065
1.55538
1.20382
1.39093
1.75776
1.82732
1.84715
1.83438
1.69563
1.54558
1.49015
1.48016
2.31638
2.26375
2.30577
2.53219
2.52937
2.53477
2.55833
2.50671
2.56359
2.4836
2.23185
2.23059
2.40018
2.4894
2.48099
2.45064
2.46215
2.57649
2.53142
2.27591
2.04931
2.13956
2.25278
2.2091
2.22619
2.22676
2.30863
2.26419
2.2025
2.01349
1.91541
1.98447
1.98384
1.99024
2.03833
2.05272
2.06485
2.0002
1.95316
1.87528
1.67289
1.86862
1.91819
1.93329
1.9762
1.96586
1.94804
1.90617
1.85703
1.80213
1.53546
1.67398
1.78436
1.8393
1.89409
1.92648
1.91855
1.84031
1.72107
1.68602
1.33497
1.56351
1.68801
1.77838
1.83856
1.89484
1.86072
1.79452
1.66556
1.59593
1.17514
1.51014
1.69466
1.75192
1.80099
1.79237
1.75418
1.68958
1.57415
1.53287
1.11534
1.41345
1.64213
1.69796
1.7289
1.72318
1.68902
1.59618
1.51079
1.48788
1.00799
1.33285
1.7114
1.74611
1.75845
1.74784
1.63851
1.51082
1.46005
1.44302
2.11775
2.02486
2.04028
2.16364
2.35673
2.30916
2.30499
2.27038
2.2124
2.11812
2.02409
1.98
2.24968
2.23661
2.37088
2.35312
2.3813
2.4606
2.28104
2.1751
1.88409
1.84043
1.94086
1.92164
1.97488
1.92803
2.12953
2.25468
2.13447
1.87969
1.73922
1.79598
1.78536
1.76756
1.80855
1.76299
1.76477
1.75618
1.75437
1.73629
1.36661
1.67658
1.73218
1.72262
1.76985
1.74579
1.69338
1.71716
1.69499
1.68601
1.31381
1.40531
1.5548
1.59766
1.71413
1.73676
1.77996
1.74639
1.65443
1.56628
1.11292
1.32577
1.4416
1.49595
1.58153
1.67263
1.73042
1.68203
1.56125
1.46798
0.835709
1.32109
1.5268
1.57444
1.60197
1.60517
1.56546
1.54415
1.47824
1.4314
0.744542
1.44071
1.55022
1.54909
1.57692
1.59139
1.57502
1.5539
1.48037
1.42444
0.509467
1.47105
1.54266
1.51932
1.57361
1.61856
1.60803
1.54952
1.40921
1.32931
)
;

boundaryField
{
    inlet
    {
        type            fixedValue;
        value           uniform 1;
    }
    outlet
    {
        type            inletOutlet;
        inletValue      uniform 1;
        value           nonuniform List<scalar> 
100
(
2.14245
2.22218
1.89595
1.74013
1.68728
1.58474
1.46579
1.41735
1.42109
1.35332
2.50733
2.27465
2.01942
1.8782
1.80345
1.69251
1.60079
1.52706
1.49091
1.43981
2.69884
2.31214
2.06787
1.9194
1.83273
1.75007
1.66601
1.60779
1.55793
1.47376
2.82406
2.38866
2.11363
1.9908
1.92163
1.85555
1.76765
1.71742
1.65892
1.55676
2.48236
2.34163
2.14379
2.03651
1.97509
1.91714
1.8397
1.79187
1.72072
1.64018
2.47269
2.3403
2.14204
2.0382
1.97658
1.91343
1.83817
1.79071
1.71971
1.63938
2.80393
2.40186
2.10818
1.99735
1.92497
1.84913
1.7659
1.71265
1.65608
1.55738
2.65934
2.25925
2.06052
1.91962
1.83499
1.74719
1.66935
1.60658
1.55537
1.48016
2.48363
2.27588
2.01348
1.87526
1.80208
1.6861
1.59592
1.53286
1.48787
1.44302
2.11823
2.17509
1.87964
1.73626
1.68598
1.56642
1.46798
1.4314
1.42444
1.32932
)
;
    }
    top
    {
        type            symmetryPlane;
    }
    bottom
    {
        type            symmetryPlane;
    }
    step
    {
        type            zeroGradient;
    }
    defaultFaces
    {
        type            empty;
    }
}


// ************************************************************************* //
