/*--------------------------------*- C++ -*----------------------------------*\
  =========                 |
  \\      /  F ield         | OpenFOAM: The Open Source CFD Toolbox
   \\    /   O peration     | Website:  https://openfoam.org
    \\  /    A nd           | Version:  6.0
     \\/     M anipulation  |
\*---------------------------------------------------------------------------*/
FoamFile
{
    version     2.0;
    format      ascii;
    class       volVectorField;
    location    "2.5";
    object      U;
}
// * * * * * * * * * * * * * * * * * * * * * * * * * * * * * * * * * * * * * //

dimensions      [0 1 -1 0 0 0 0];

internalField   nonuniform List<vector> 
3000
(
(3.0925 5.46662e-06 -0.076246)
(3.11486 1.76939e-05 -0.0830408)
(3.11855 6.71971e-05 -0.0851206)
(3.11423 0.000123592 -0.0864915)
(3.09426 0.000188445 -0.091092)
(3.00217 7.36759e-05 -0.103989)
(2.56565 0.00186454 -0.158515)
(1.5698 0.0018149 -0.280178)
(0.235904 0.0317513 -0.319519)
(0.252081 0.0534632 -0.31152)
(3.09251 3.62577e-05 -0.076244)
(3.11487 6.40908e-05 -0.08304)
(3.11858 0.00024952 -0.0851164)
(3.11427 0.000485634 -0.0864822)
(3.09423 0.000907085 -0.0910498)
(3.00216 0.00185737 -0.104064)
(2.5687 0.00766666 -0.158336)
(1.56629 0.0210273 -0.281274)
(0.329882 0.0620846 -0.315603)
(0.319372 0.0906727 -0.298614)
(3.09252 8.65181e-05 -0.0762542)
(3.11491 0.000125721 -0.0830141)
(3.11867 0.000479983 -0.0851238)
(3.11441 0.00094938 -0.0864558)
(3.09463 0.00187494 -0.0910023)
(3.00364 0.00461995 -0.103742)
(2.57571 0.0143776 -0.1597)
(1.58426 0.0395818 -0.275096)
(0.296729 0.082337 -0.317232)
(0.309548 0.119415 -0.296701)
(3.09255 0.000134534 -0.0762734)
(3.11497 0.000194149 -0.0829709)
(3.11881 0.000728442 -0.0851349)
(3.11465 0.0014324 -0.0864174)
(3.09524 0.00277983 -0.0909215)
(3.00575 0.00652025 -0.103408)
(2.58292 0.0201332 -0.159376)
(1.60031 0.047016 -0.272842)
(0.26299 0.128096 -0.31828)
(0.293166 0.178275 -0.296569)
(3.09258 0.000193971 -0.0762975)
(3.11505 0.000279748 -0.0829121)
(3.11901 0.00105077 -0.0851479)
(3.11497 0.0020591 -0.0863623)
(3.09601 0.00393962 -0.0907971)
(3.00822 0.00888144 -0.103026)
(2.59209 0.0277603 -0.158668)
(1.61498 0.0619416 -0.271496)
(0.279669 0.193842 -0.314526)
(0.296366 0.260888 -0.29378)
(3.09263 0.000279369 -0.0763332)
(3.11517 0.000407816 -0.0828264)
(3.1193 0.00151255 -0.0851663)
(3.11543 0.00293709 -0.0862849)
(3.09708 0.00553133 -0.0906186)
(3.01168 0.0122311 -0.102541)
(2.60529 0.0382331 -0.156602)
(1.6474 0.0864117 -0.268623)
(0.300624 0.272493 -0.310608)
(0.306021 0.357501 -0.289735)
(3.09271 0.000406398 -0.0763751)
(3.11535 0.00064537 -0.0827116)
(3.1197 0.00220587 -0.0851899)
(3.11605 0.00415785 -0.0861846)
(3.0985 0.00762688 -0.0903809)
(3.01636 0.01695 -0.101915)
(2.62405 0.0518474 -0.153959)
(1.69701 0.121243 -0.26348)
(0.333151 0.365013 -0.306291)
(0.321054 0.468995 -0.284874)
(3.09283 0.000558864 -0.0764011)
(3.11562 0.00101723 -0.0825649)
(3.12027 0.00304907 -0.0852199)
(3.11688 0.00549104 -0.0860694)
(3.10052 0.00957548 -0.0901448)
(3.02333 0.0200309 -0.10056)
(2.65046 0.065724 -0.155247)
(1.75511 0.146865 -0.253515)
(0.377461 0.471592 -0.29983)
(0.340179 0.599397 -0.278257)
(3.09301 0.000728554 -0.0763806)
(3.11599 0.00140844 -0.0824224)
(3.12095 0.00395447 -0.0852191)
(3.11779 0.0069571 -0.0859562)
(3.10237 0.0118086 -0.0897773)
(3.03052 0.0236934 -0.0998297)
(2.68539 0.0821653 -0.147325)
(1.82187 0.181301 -0.250366)
(0.440179 0.604 -0.292635)
(0.364291 0.76214 -0.270704)
(3.09324 0.000951287 -0.0763626)
(3.11645 0.00180486 -0.0822352)
(3.12181 0.00507664 -0.085231)
(3.11897 0.00895865 -0.0858118)
(3.10492 0.0153609 -0.0893473)
(3.04054 0.0313543 -0.0984953)
(2.73429 0.102291 -0.14063)
(1.91716 0.23476 -0.242437)
(0.520306 0.763112 -0.283571)
(0.381479 0.966112 -0.259438)
(3.00389 8.04848e-06 -0.0133158)
(3.01122 3.07006e-05 -0.0199174)
(3.01107 8.84773e-05 -0.0219587)
(3.00253 0.000217421 -0.0240827)
(2.96829 0.000484154 -0.0277332)
(2.8658 0.00107507 -0.0342052)
(2.51039 0.00269765 -0.048862)
(0.75497 0.0106729 -0.104261)
(-0.403677 0.0210515 -0.100278)
(0.4985 -0.0895259 -0.0907382)
(3.0039 4.27868e-05 -0.013316)
(3.01125 0.000118694 -0.0199168)
(3.01112 0.000300501 -0.0219578)
(3.00265 0.000701159 -0.0240771)
(2.96866 0.00154043 -0.0277096)
(2.8659 0.0033584 -0.0341873)
(2.5113 0.00815275 -0.0488093)
(0.766743 0.0289548 -0.103745)
(-0.467283 0.0713213 -0.101829)
(0.0494046 0.0407485 -0.0942627)
(3.00392 9.67429e-05 -0.0133187)
(3.01132 0.000238981 -0.0199142)
(3.0112 0.000562201 -0.0219593)
(3.00285 0.00126087 -0.0240707)
(2.96911 0.00271769 -0.0276921)
(2.86734 0.00580589 -0.034135)
(2.51567 0.0135864 -0.0486417)
(0.806804 0.0467161 -0.103435)
(-0.453371 0.128707 -0.101762)
(0.0458892 0.165208 -0.0931708)
(3.00395 0.000149904 -0.0133238)
(3.01143 0.000370549 -0.0199091)
(3.01133 0.000865803 -0.0219614)
(3.00316 0.00192075 -0.0240611)
(2.96977 0.00408526 -0.0276644)
(2.86941 0.00863216 -0.0340546)
(2.5224 0.0199235 -0.0483733)
(0.818063 0.0688238 -0.103144)
(-0.439157 0.194539 -0.10066)
(0.044757 0.284991 -0.0912948)
(3.004 0.000219286 -0.013331)
(3.01159 0.000546944 -0.0199)
(3.01153 0.00127465 -0.0219631)
(3.00362 0.00279714 -0.0240461)
(2.97085 0.00586984 -0.0276154)
(2.8721 0.0122961 -0.0339358)
(2.53102 0.0282586 -0.0479836)
(0.850615 0.0958614 -0.102288)
(-0.407718 0.270656 -0.0992845)
(0.0452677 0.40012 -0.0893025)
(3.00407 0.000335774 -0.0133415)
(3.01182 0.00082459 -0.0198841)
(3.01181 0.00186161 -0.0219651)
(3.00427 0.00397068 -0.024027)
(2.97234 0.00817251 -0.0275507)
(2.87588 0.0169725 -0.0337713)
(2.54312 0.0388511 -0.0474628)
(0.893969 0.129021 -0.101298)
(-0.365234 0.356699 -0.0977184)
(0.0517617 0.51674 -0.0870087)
(3.00419 0.000610144 -0.0133557)
(3.01215 0.00138894 -0.0198574)
(3.0122 0.00278329 -0.0219755)
(3.00516 0.0055022 -0.0240078)
(2.97439 0.011 -0.027466)
(2.88095 0.0226605 -0.0335516)
(2.55922 0.0523048 -0.0467882)
(0.955193 0.170388 -0.0999933)
(-0.310184 0.455078 -0.0960685)
(0.0590995 0.642038 -0.0846349)
(3.00445 0.00105733 -0.013374)
(3.01261 0.00227182 -0.0198165)
(3.01275 0.00406829 -0.0220216)
(3.00629 0.00739206 -0.0239934)
(2.97683 0.0142893 -0.0273662)
(2.88916 0.0293429 -0.0332044)
(2.58418 0.0684653 -0.0457105)
(1.08445 0.217971 -0.0975648)
(-0.219997 0.567321 -0.0942167)
(0.0667302 0.779439 -0.0817553)
(3.00491 0.00147586 -0.0133943)
(3.01323 0.00311107 -0.0197659)
(3.0135 0.0053622 -0.022082)
(3.00775 0.00941646 -0.0239668)
(2.98048 0.0179384 -0.027179)
(2.89778 0.0371807 -0.0327715)
(2.61213 0.0883243 -0.0445862)
(1.20769 0.281605 -0.0942773)
(-0.117181 0.70535 -0.0921461)
(0.0731424 0.937116 -0.0790111)
(3.00548 0.00183599 -0.0134206)
(3.014 0.00384611 -0.0197067)
(3.01441 0.00660933 -0.0221653)
(3.00954 0.0115442 -0.0239416)
(2.98489 0.0218522 -0.0269649)
(2.90983 0.0451062 -0.0322156)
(2.65242 0.105945 -0.0429902)
(1.41869 0.327512 -0.0897162)
(0.02394 0.857653 -0.0896821)
(0.0820033 1.11768 -0.0763141)
(2.97276 3.89332e-06 0.000723075)
(2.96465 2.68918e-05 -0.00226131)
(2.95793 8.54059e-05 -0.00343748)
(2.93803 0.000215357 -0.0051513)
(2.88811 0.000499623 -0.00770929)
(2.75999 0.00114685 -0.0118615)
(2.36559 0.00277946 -0.0204954)
(0.799379 0.00899378 -0.0442089)
(-0.413966 0.024685 -0.045955)
(-0.304339 0.0430693 -0.0455424)
(2.97277 1.7259e-05 0.000722397)
(2.96468 9.78732e-05 -0.00226175)
(2.95799 0.000278578 -0.00343806)
(2.93816 0.000668013 -0.00515149)
(2.8884 0.00151485 -0.00770766)
(2.76056 0.00343516 -0.0118617)
(2.36735 0.00828127 -0.0204771)
(0.805174 0.0254762 -0.0442722)
(-0.416682 0.0699992 -0.0459989)
(-0.24405 0.114141 -0.0439264)
(2.97279 3.57727e-05 0.000719314)
(2.96474 0.000197557 -0.00226262)
(2.95811 0.000518154 -0.00344165)
(2.93842 0.00118624 -0.00515274)
(2.88896 0.0026301 -0.00770379)
(2.7619 0.00590115 -0.0118445)
(2.37139 0.014208 -0.0204218)
(0.81689 0.0437766 -0.044161)
(-0.407703 0.13275 -0.0457641)
(-0.226346 0.223897 -0.0427778)
(2.97283 5.29578e-05 0.000713814)
(2.96483 0.000325265 -0.00226278)
(2.95831 0.000824457 -0.00344991)
(2.93884 0.00183518 -0.00515484)
(2.88986 0.00400302 -0.00769402)
(2.7641 0.00892183 -0.011807)
(2.37842 0.0214749 -0.0202909)
(0.843485 0.0665537 -0.0439201)
(-0.381935 0.205923 -0.0451534)
(-0.209297 0.34264 -0.0415338)
(2.97289 7.71731e-05 0.000705944)
(2.96498 0.000516628 -0.00226092)
(2.9586 0.00125792 -0.00346232)
(2.93945 0.00270065 -0.00515842)
(2.89119 0.00575755 -0.00767941)
(2.76733 0.0127057 -0.0117523)
(2.38878 0.0305108 -0.0200912)
(0.884887 0.0936157 -0.043512)
(-0.342368 0.283712 -0.0444487)
(-0.188799 0.455311 -0.0402325)
(2.97298 0.000128691 0.000694383)
(2.96521 0.000834143 -0.00225516)
(2.95903 0.00183313 -0.00348177)
(2.9403 0.00376677 -0.00516651)
(2.89305 0.00788236 -0.0076624)
(2.77189 0.0173103 -0.0116794)
(2.40337 0.0415276 -0.0198138)
(0.941992 0.125186 -0.0429347)
(-0.290128 0.367086 -0.0437362)
(-0.164353 0.568165 -0.0389759)
(2.97314 0.000267936 0.000676787)
(2.96554 0.00140572 -0.00224319)
(2.95957 0.00240447 -0.00351663)
(2.94141 0.00478922 -0.00518426)
(2.89555 0.0101872 -0.00764436)
(2.77806 0.0227441 -0.0115857)
(2.42272 0.0549781 -0.0194611)
(1.01538 0.162552 -0.0421329)
(-0.225382 0.459668 -0.0430764)
(-0.13469 0.685999 -0.037556)
(2.97341 0.000506494 0.000640977)
(2.9659 0.00220031 -0.00222852)
(2.96008 0.00313284 -0.0035832)
(2.94273 0.00602429 -0.00521907)
(2.89863 0.0129803 -0.00762877)
(2.78597 0.0294451 -0.0114621)
(2.44726 0.0716722 -0.0190478)
(1.10647 0.208455 -0.0411819)
(-0.147519 0.565274 -0.0423649)
(-0.101364 0.812954 -0.0362271)
(2.97381 0.000732972 0.000582727)
(2.96635 0.00293563 -0.00221671)
(2.96068 0.00399234 -0.00367902)
(2.94438 0.00752938 -0.00526523)
(2.90268 0.0162331 -0.00760578)
(2.79613 0.0371322 -0.0113333)
(2.47851 0.0912241 -0.0185724)
(1.2239 0.263295 -0.0401307)
(-0.0536859 0.689653 -0.0418353)
(-0.0650973 0.954951 -0.0347839)
(2.97431 0.000911911 0.000509603)
(2.96689 0.00353988 -0.00220574)
(2.96138 0.00484758 -0.00380274)
(2.94639 0.00913509 -0.00532512)
(2.90771 0.019635 -0.00757936)
(2.80923 0.0447925 -0.0111753)
(2.51986 0.109498 -0.0180282)
(1.38609 0.310134 -0.0390862)
(0.0651332 0.833436 -0.0416827)
(-0.0270406 1.11673 -0.0338802)
(2.97614 1.36213e-06 0.00241091)
(2.95969 2.15002e-05 0.00255444)
(2.94438 7.37595e-05 0.00200873)
(2.91361 0.000195642 0.0010653)
(2.84749 0.000474955 -0.000535263)
(2.69242 0.00111463 -0.00319925)
(2.24732 0.00270805 -0.0082767)
(0.603144 0.00803734 -0.0205547)
(-0.619104 0.0218155 -0.0220645)
(-0.406816 0.060269 -0.0208774)
(2.97615 4.14837e-06 0.00241092)
(2.95972 7.64179e-05 0.00255395)
(2.94443 0.000216773 0.00200501)
(2.91375 0.000582002 0.00106231)
(2.84781 0.00144077 -0.000537378)
(2.69314 0.00342228 -0.0032)
(2.24925 0.00838188 -0.00827606)
(0.605532 0.0248994 -0.0205978)
(-0.621223 0.068912 -0.0220766)
(-0.383545 0.149687 -0.0204388)
(2.97617 6.51201e-06 0.00241075)
(2.95976 0.000159694 0.00255293)
(2.94454 0.000363602 0.00199484)
(2.91402 0.000987761 0.00105595)
(2.84845 0.0024991 -0.000538397)
(2.69467 0.00601054 -0.00319201)
(2.2537 0.0148906 -0.00825135)
(0.617584 0.0453021 -0.0205417)
(-0.609317 0.135518 -0.0219678)
(-0.354649 0.268066 -0.019677)
(2.97621 8.65872e-06 0.0024108)
(2.95983 0.000282954 0.00255192)
(2.94471 0.000570013 0.00197532)
(2.91445 0.00150555 0.00104448)
(2.84945 0.00379171 -0.000538748)
(2.69713 0.00912242 -0.00317463)
(2.26128 0.0227232 -0.00819211)
(0.644827 0.069968 -0.0204007)
(-0.580544 0.213268 -0.0217731)
(-0.326773 0.390365 -0.0189391)
(2.97627 1.39056e-05 0.00241155)
(2.95995 0.000477967 0.00255142)
(2.94495 0.000884009 0.00194433)
(2.91507 0.00219536 0.00102553)
(2.85093 0.00540073 -0.000541265)
(2.7008 0.0129118 -0.00315227)
(2.27278 0.0322116 -0.0080997)
(0.687373 0.0987437 -0.0202062)
(-0.537863 0.294565 -0.0215107)
(-0.296523 0.506108 -0.018143)
(2.97637 3.02566e-05 0.00241317)
(2.96013 0.000795768 0.00255192)
(2.94528 0.0012733 0.00189516)
(2.91592 0.00297924 0.000994927)
(2.85297 0.0072582 -0.000547045)
(2.70596 0.0174092 -0.00312172)
(2.28901 0.0435989 -0.00797016)
(0.745199 0.131986 -0.0199342)
(-0.483202 0.379059 -0.0212748)
(-0.264044 0.621059 -0.0174387)
(2.97654 7.29414e-05 0.00241494)
(2.96037 0.00128904 0.00255267)
(2.94567 0.0015987 0.00182383)
(2.91701 0.00359122 0.000949546)
(2.85569 0.00908653 -0.000558391)
(2.71293 0.0224783 -0.00308443)
(2.31056 0.0570586 -0.00780494)
(0.819336 0.170417 -0.0195761)
(-0.416741 0.471296 -0.021096)
(-0.229585 0.739659 -0.0166091)
(2.97682 0.000145415 0.00241221)
(2.96063 0.00189524 0.00254853)
(2.94603 0.00194374 0.00174848)
(2.91836 0.00424157 0.000894972)
(2.85923 0.011192 -0.000579256)
(2.72194 0.0285237 -0.0030504)
(2.33772 0.0732333 -0.00762573)
(0.91166 0.215277 -0.0191779)
(-0.337406 0.574553 -0.0209344)
(-0.193548 0.866185 -0.0159214)
(2.97719 0.000216945 0.00240213)
(2.96095 0.00244339 0.00253793)
(2.94643 0.00234497 0.00165014)
(2.92004 0.00510947 0.000822621)
(2.86376 0.0137703 -0.000611256)
(2.73355 0.0355794 -0.00302296)
(2.37203 0.0919478 -0.00744853)
(1.02702 0.267364 -0.0188143)
(-0.243178 0.692575 -0.0208682)
(-0.156595 1.00359 -0.0150051)
(2.97765 0.000266154 0.00238739)
(2.96131 0.00286088 0.00252214)
(2.94689 0.0027844 0.0015291)
(2.9221 0.006202 0.000734908)
(2.86938 0.0167933 -0.000648241)
(2.74812 0.043383 -0.00299113)
(2.41572 0.111647 -0.00726928)
(1.18039 0.318866 -0.0185644)
(-0.129098 0.837001 -0.0213053)
(-0.118457 1.15477 -0.0144455)
(2.98597 3.40049e-06 0.00102743)
(2.96967 2.12603e-05 0.00165193)
(2.95062 4.18036e-05 0.00142023)
(2.91417 0.000144873 0.00104786)
(2.83995 0.000411126 0.000469415)
(2.67068 0.00104468 -0.000441684)
(2.19209 0.00259719 -0.0021314)
(0.475316 0.00758696 -0.00614549)
(-0.756682 0.0205033 -0.00666554)
(-0.505195 0.0739582 -0.00611227)
(2.98598 1.21453e-05 0.00102765)
(2.96969 7.63363e-05 0.00165177)
(2.95067 0.00011327 0.00141713)
(2.9143 0.000417007 0.00104598)
(2.84025 0.00124446 0.000468628)
(2.67138 0.00324533 -0.000441122)
(2.19398 0.00821095 -0.00213267)
(0.47729 0.024463 -0.00615439)
(-0.754787 0.0687864 -0.00667093)
(-0.469991 0.170119 -0.00601839)
(2.986 2.61473e-05 0.00102829)
(2.96971 0.000164835 0.00165139)
(2.95075 0.000176157 0.00141019)
(2.91456 0.000678566 0.00104175)
(2.8409 0.00213713 0.00046763)
(2.67293 0.00572373 -0.00043765)
(2.1985 0.0148282 -0.00212804)
(0.489138 0.04596 -0.00614036)
(-0.740327 0.137298 -0.00664143)
(-0.435688 0.29474 -0.00577077)
(2.98604 4.82169e-05 0.00102972)
(2.96974 0.000303767 0.00165081)
(2.95085 0.000278298 0.0013988)
(2.91497 0.00100537 0.00103405)
(2.84194 0.00319408 0.000465156)
(2.67548 0.00862519 -0.00043267)
(2.20643 0.0227307 -0.00211434)
(0.517702 0.0718264 -0.00608997)
(-0.70866 0.216886 -0.00657112)
(-0.404341 0.420617 -0.00551453)
(2.9861 8.31396e-05 0.00103233)
(2.96979 0.000525065 0.00165014)
(2.951 0.000435368 0.00138066)
(2.91556 0.00141189 0.00102134)
(2.84345 0.00445673 0.000460065)
(2.67927 0.0120935 -0.000428003)
(2.21844 0.0321858 -0.00208843)
(0.562396 0.101503 -0.00601654)
(-0.662645 0.298968 -0.00651275)
(-0.368744 0.539482 -0.0052416)
(2.98621 0.000136286 0.00103676)
(2.96986 0.000862563 0.00164926)
(2.95118 0.000607313 0.00135196)
(2.91636 0.00181303 0.00100127)
(2.84553 0.00584815 0.000452027)
(2.68456 0.016161 -0.000421348)
(2.23525 0.0434134 -0.0020518)
(0.62212 0.135434 -0.00591903)
(-0.604955 0.383043 -0.00645488)
(-0.331433 0.656542 -0.0050024)
(2.98639 0.000207441 0.00104324)
(2.96996 0.00131551 0.00164704)
(2.95136 0.000742219 0.00131166)
(2.91737 0.00212217 0.000972784)
(2.8483 0.00727831 0.000440101)
(2.6917 0.0207802 -0.000413416)
(2.25754 0.0565293 -0.00200493)
(0.697611 0.174001 -0.0057919)
(-0.53578 0.47429 -0.00644831)
(-0.290508 0.777789 -0.00470034)
(2.98665 0.00028628 0.00105112)
(2.97005 0.00181835 0.00164028)
(2.9515 0.00083056 0.00126976)
(2.91863 0.00239658 0.000943486)
(2.85185 0.00889182 0.000426232)
(2.70095 0.0262198 -0.000409216)
(2.28574 0.07202 -0.00195848)
(0.790305 0.218217 -0.00568526)
(-0.455252 0.576606 -0.00643884)
(-0.249695 0.905945 -0.00447761)
(2.98699 0.00035584 0.00105935)
(2.97015 0.00226095 0.00162902)
(2.95161 0.00087227 0.00121681)
(2.92019 0.00272418 0.000906136)
(2.85639 0.010826 0.000407281)
(2.71277 0.0326056 -0.0004083)
(2.32105 0.0900054 -0.00191571)
(0.905926 0.26883 -0.00559313)
(-0.359747 0.690816 -0.00644539)
(-0.207998 1.04486 -0.00407983)
(2.9874 0.00040424 0.00106806)
(2.97024 0.002575 0.00161387)
(2.95173 0.000985 0.00115272)
(2.9221 0.00336586 0.00086155)
(2.86203 0.0134384 0.000385823)
(2.72752 0.0403572 -0.000406382)
(2.36518 0.110687 -0.00187464)
(1.05276 0.323646 -0.00556601)
(-0.244853 0.837346 -0.00668881)
(-0.161149 1.20749 -0.00377201)
(2.98597 3.47855e-06 -0.00102787)
(2.96967 2.18639e-05 -0.00165419)
(2.95062 4.28281e-05 -0.00142265)
(2.91417 0.000146571 -0.00105037)
(2.83995 0.000413864 -0.000471859)
(2.6707 0.00104965 0.000439646)
(2.19218 0.00260684 0.00213254)
(0.475522 0.00759998 0.00616703)
(-0.756557 0.0204158 0.00667817)
(-0.504961 0.0740478 0.00610867)
(2.98598 1.23655e-05 -0.00102804)
(2.96968 7.78954e-05 -0.00165384)
(2.95066 0.000114896 -0.00141941)
(2.91429 0.000420037 -0.00104835)
(2.84025 0.00125095 -0.000470853)
(2.6714 0.00325931 0.000439742)
(2.19407 0.00824064 0.00213571)
(0.477474 0.0244989 0.00618156)
(-0.754693 0.0686455 0.00668142)
(-0.469919 0.170114 0.00601507)
(2.986 2.64181e-05 -0.00102861)
(2.9697 0.000166619 -0.00165322)
(2.95074 0.00017832 -0.00141251)
(2.91456 0.000682341 -0.0010438)
(2.8409 0.00214437 -0.00046898)
(2.67295 0.00573669 0.000438192)
(2.19859 0.0148501 0.00213584)
(0.489259 0.0459592 0.006178)
(-0.740304 0.137105 0.00664735)
(-0.435687 0.29466 0.00576516)
(2.98603 4.84398e-05 -0.00102998)
(2.96973 0.000305244 -0.00165243)
(2.95085 0.000281378 -0.00140087)
(2.91497 0.00100966 -0.00103571)
(2.84194 0.00319869 -0.000465932)
(2.67549 0.00862684 0.000433995)
(2.2065 0.0227181 0.00212288)
(0.517754 0.0717439 0.00612469)
(-0.708697 0.216667 0.00656841)
(-0.404388 0.42049 0.00550218)
(2.9861 8.32905e-05 -0.00103257)
(2.96979 0.000526169 -0.00165159)
(2.95099 0.000438039 -0.00138247)
(2.91556 0.00141476 -0.00102288)
(2.84345 0.00445728 -0.000461007)
(2.67928 0.0120856 0.000428392)
(2.2185 0.0321496 0.00209347)
(0.562401 0.101374 0.00603711)
(-0.662712 0.298773 0.00650354)
(-0.368822 0.539345 0.00522432)
(2.98621 0.000136371 -0.00103698)
(2.96986 0.000863261 -0.00165055)
(2.95117 0.000609441 -0.00135356)
(2.91635 0.00181504 -0.00100283)
(2.84553 0.00584728 -0.000453508)
(2.68457 0.0161509 0.000420067)
(2.23528 0.0433746 0.00205172)
(0.622105 0.135307 0.00592339)
(-0.605032 0.382891 0.0064435)
(-0.331494 0.656447 0.00498528)
(2.98639 0.000207485 -0.00104344)
(2.96995 0.0013159 -0.00164821)
(2.95135 0.000743945 -0.00131298)
(2.91737 0.00212376 -0.000974278)
(2.84829 0.00727757 -0.000441901)
(2.6917 0.020772 0.000410984)
(2.25754 0.0564986 0.00200142)
(0.69759 0.173903 0.00578579)
(-0.535849 0.474175 0.00643613)
(-0.290554 0.777731 0.00468482)
(2.98665 0.000286313 -0.00105133)
(2.97005 0.00181872 -0.00164135)
(2.95149 0.000831905 -0.00127085)
(2.91862 0.00239805 -0.000944866)
(2.85185 0.00889208 -0.000428208)
(2.70094 0.0262159 0.000405947)
(2.28573 0.0720029 0.00195238)
(0.79028 0.218155 0.00567183)
(-0.455312 0.576527 0.00642607)
(-0.24972 0.905923 0.00446389)
(2.98699 0.000355898 -0.00105956)
(2.97015 0.00226147 -0.00162998)
(2.95161 0.00087343 -0.00121775)
(2.92018 0.00272591 -0.000907419)
(2.85639 0.0108279 -0.000409246)
(2.71276 0.032607 0.000404944)
(2.32103 0.0900025 0.00190932)
(0.905893 0.268804 0.0055785)
(-0.359803 0.69077 0.00643331)
(-0.208026 1.04483 0.0040675)
(2.9874 0.000404336 -0.00106825)
(2.97024 0.00257569 -0.00161472)
(2.95173 0.000986218 -0.00115356)
(2.9221 0.00336781 -0.000862704)
(2.86203 0.0134412 -0.000387599)
(2.72751 0.0403609 0.000403369)
(2.36516 0.110691 0.00186902)
(1.05272 0.323643 0.00555317)
(-0.244909 0.837322 0.00667871)
(-0.161186 1.20746 0.00376059)
(2.97614 2.05784e-06 -0.00241209)
(2.95968 2.42998e-05 -0.00255654)
(2.94436 7.81926e-05 -0.00201118)
(2.9136 0.000200873 -0.0010687)
(2.84749 0.000480243 0.000530035)
(2.69243 0.00112089 0.00319068)
(2.24751 0.00272222 0.00826086)
(0.604105 0.0080969 0.0205544)
(-0.619063 0.02167 0.0220758)
(-0.405846 0.060593 0.0208634)
(2.97614 5.4977e-06 -0.00241183)
(2.9597 8.21614e-05 -0.00255578)
(2.94442 0.000224637 -0.00200731)
(2.91373 0.000593718 -0.00106578)
(2.8478 0.00145939 0.00053166)
(2.69316 0.00345703 0.00319017)
(2.24952 0.00846619 0.00825958)
(0.606603 0.0251328 0.0206057)
(-0.620469 0.0686418 0.0220942)
(-0.38308 0.149714 0.0204223)
(2.97616 7.63134e-06 -0.00241153)
(2.95975 0.000164936 -0.0025546)
(2.94453 0.000371949 -0.00199683)
(2.91401 0.00100327 -0.00105908)
(2.84844 0.00252819 0.000533263)
(2.69471 0.00606649 0.0031836)
(2.25402 0.0149998 0.00823934)
(0.618476 0.0454158 0.0205815)
(-0.608785 0.135024 0.0219823)
(-0.354408 0.267835 0.019659)
(2.9762 9.54417e-06 -0.00241154)
(2.95982 0.00028745 -0.00255345)
(2.9447 0.000579688 -0.00197699)
(2.91444 0.00152156 -0.00104695)
(2.84945 0.00381556 0.000535038)
(2.69717 0.00915494 0.00316932)
(2.26154 0.0227431 0.0081856)
(0.645329 0.0697367 0.0204355)
(-0.58035 0.212667 0.0217719)
(-0.326689 0.38994 0.0189108)
(2.97626 1.45829e-05 -0.00241221)
(2.95994 0.000481958 -0.00255279)
(2.94494 0.000892448 -0.00194578)
(2.91506 0.00220662 -0.00102756)
(2.85093 0.00541086 0.000538361)
(2.70082 0.0129094 0.00314831)
(2.27294 0.0321463 0.00809385)
(0.687615 0.0983398 0.0202184)
(-0.537832 0.294032 0.0215054)
(-0.296468 0.505693 0.0181101)
(2.97637 3.05548e-05 -0.00241374)
(2.96012 0.000798523 -0.0025531)
(2.94527 0.00127985 -0.00189646)
(2.91591 0.00298711 -0.000996738)
(2.85296 0.00726244 0.000544372)
(2.70596 0.0173974 0.00311771)
(2.28908 0.0435232 0.00796278)
(0.745319 0.131621 0.0199231)
(-0.483232 0.378661 0.0212652)
(-0.264004 0.620749 0.0174089)
(2.97654 7.28333e-05 -0.00241545)
(2.96036 0.00129045 -0.0025537)
(2.94566 0.00160344 -0.00182491)
(2.91701 0.00359764 -0.000951099)
(2.85568 0.00909065 0.000556024)
(2.71292 0.0224701 0.00308066)
(2.31056 0.0570013 0.00779739)
(0.819364 0.170149 0.0195596)
(-0.416792 0.471008 0.0210844)
(-0.229569 0.739445 0.0165821)
(2.97681 0.000145222 -0.00241272)
(2.96062 0.00189657 -0.00254945)
(2.94603 0.00194753 -0.00174939)
(2.91835 0.0042468 -0.00089628)
(2.85921 0.0111962 0.000577204)
(2.72192 0.0285207 0.00304691)
(2.33767 0.0732018 0.00761764)
(0.911635 0.215122 0.019151)
(-0.337453 0.574355 0.0209215)
(-0.193556 0.866035 0.015898)
(2.97719 0.000217033 -0.00240259)
(2.96094 0.00244539 -0.00253872)
(2.94643 0.00234877 -0.00165093)
(2.92003 0.00511472 -0.000823835)
(2.86374 0.0137767 0.000609208)
(2.73352 0.0355866 0.00301921)
(2.37197 0.0919523 0.00744066)
(1.02697 0.267329 0.0187934)
(-0.243226 0.692458 0.0208552)
(-0.156619 1.00349 0.0149871)
(2.97765 0.000266512 -0.0023878)
(2.96131 0.00286324 -0.00252282)
(2.94689 0.00278837 -0.00152979)
(2.9221 0.00620804 -0.000735982)
(2.86937 0.0168025 0.000646414)
(2.7481 0.0433975 0.00298778)
(2.41567 0.111669 0.00726269)
(1.18031 0.318885 0.018549)
(-0.129158 0.836935 0.0212932)
(-0.118511 1.15472 0.0144305)
(2.97275 7.65732e-06 -0.000726049)
(2.96463 3.46358e-05 0.00225968)
(2.95791 9.55263e-05 0.00343469)
(2.93801 0.000225501 0.00514601)
(2.88809 0.000506064 0.00769856)
(2.75988 0.00113951 0.0118453)
(2.36561 0.00276767 0.0204452)
(0.802424 0.00916935 0.0441397)
(-0.40908 0.0255937 0.0459056)
(-0.300255 0.044068 0.0454852)
(2.97276 2.31183e-05 -0.000724554)
(2.96466 0.000110967 0.00226045)
(2.95797 0.000297494 0.00343545)
(2.93814 0.000691307 0.00514628)
(2.88836 0.00154202 0.00769716)
(2.76052 0.00346685 0.0118393)
(2.36784 0.00836462 0.0204199)
(0.809442 0.026227 0.0442139)
(-0.411267 0.0703668 0.0459797)
(-0.244594 0.113897 0.0438437)
(2.97278 3.8712e-05 -0.000721224)
(2.96472 0.000206188 0.00226143)
(2.95809 0.000534605 0.00343928)
(2.9384 0.00121542 0.00514751)
(2.88893 0.00268491 0.00769284)
(2.76189 0.00601967 0.0118226)
(2.37218 0.0144666 0.0203556)
(0.822609 0.0442078 0.0441504)
(-0.402595 0.132099 0.0457501)
(-0.227365 0.223302 0.0426956)
(2.97282 5.51283e-05 -0.000715718)
(2.96482 0.000332804 0.00226166)
(2.95829 0.000840467 0.0034478)
(2.93882 0.00186562 0.00515023)
(2.88985 0.00406127 0.0076846)
(2.76408 0.00904327 0.0117917)
(2.37888 0.0216848 0.0202426)
(0.847183 0.066115 0.0438951)
(-0.378622 0.204844 0.0451383)
(-0.209326 0.341849 0.0414453)
(2.97288 7.99177e-05 -0.000707709)
(2.96497 0.000525013 0.00225992)
(2.95859 0.00127332 0.00346049)
(2.93943 0.00272543 0.00515461)
(2.89119 0.00579565 0.00767191)
(2.76729 0.0127636 0.0117429)
(2.38895 0.030556 0.0200575)
(0.887019 0.0928648 0.0434683)
(-0.340179 0.282753 0.044447)
(-0.188321 0.454699 0.0401556)
(2.97297 0.000130666 -0.000695847)
(2.9652 0.000840357 0.00225436)
(2.95901 0.00184491 0.00348029)
(2.94028 0.00378479 0.00516357)
(2.89304 0.00790763 0.00765689)
(2.77185 0.0173413 0.0116724)
(2.40337 0.0415361 0.019793)
(0.942911 0.124657 0.0428785)
(-0.288709 0.366366 0.0437239)
(-0.163781 0.567787 0.0389181)
(2.97313 0.000268317 -0.000678057)
(2.96553 0.00140837 0.00224254)
(2.95956 0.00241163 0.0035154)
(2.9414 0.00480154 0.00518201)
(2.89554 0.010206 0.00764025)
(2.77801 0.0227701 0.011581)
(2.42263 0.0549894 0.0194472)
(1.01579 0.162198 0.042092)
(-0.224431 0.45916 0.0430602)
(-0.134275 0.68579 0.0375077)
(2.97341 0.000507003 -0.000642186)
(2.96589 0.00220306 0.00222794)
(2.96007 0.00313897 0.00358221)
(2.94272 0.0060339 0.00521744)
(2.89862 0.012993 0.00762592)
(2.78589 0.0294578 0.01146)
(2.447 0.0716783 0.0190422)
(1.10611 0.208343 0.0411361)
(-0.146943 0.564951 0.0423478)
(-0.101084 0.812839 0.0361895)
(2.97381 0.00073443 -0.000583699)
(2.96634 0.00294009 0.00221621)
(2.96067 0.00399962 0.00367823)
(2.94436 0.00753986 0.00526399)
(2.90265 0.0162473 0.0076036)
(2.79608 0.0371494 0.0113297)
(2.47839 0.0912562 0.0185641)
(1.22381 0.263381 0.0401033)
(-0.0532185 0.689478 0.0418155)
(-0.0648833 0.954831 0.0347609)
(2.97431 0.0009135 -0.000510406)
(2.96689 0.00354445 0.00220533)
(2.96138 0.0048548 0.00380211)
(2.94638 0.00914641 0.00532412)
(2.90769 0.0196533 0.00757754)
(2.80919 0.0448244 0.0111719)
(2.51979 0.109558 0.0180201)
(1.38617 0.310227 0.0390668)
(0.0655517 0.833328 0.04166)
(-0.0268223 1.11656 0.0338638)
(3.00388 1.76375e-05 0.013313)
(3.01119 4.45949e-05 0.0199184)
(3.01106 0.000105581 0.0219536)
(3.00251 0.000238968 0.0240757)
(2.96834 0.000521047 0.0277114)
(2.865 0.00112417 0.0341913)
(2.50812 0.00275512 0.0488421)
(0.758993 0.0116134 0.103606)
(-0.392469 0.0228092 0.099808)
(0.502365 -0.0909581 0.0901624)
(3.00389 5.62426e-05 0.0133142)
(3.01122 0.000140105 0.0199174)
(3.0111 0.000328607 0.0219536)
(3.00262 0.000737531 0.0240713)
(2.96856 0.00159628 0.0276996)
(2.86564 0.00343885 0.0341637)
(2.51101 0.00817429 0.0487158)
(0.781574 0.0303546 0.103038)
(-0.452685 0.0733307 0.101319)
(0.0272885 0.0351659 0.094333)
(3.00391 0.000101387 0.013317)
(3.01129 0.000250104 0.0199149)
(3.01119 0.000582576 0.0219548)
(3.00282 0.00129697 0.0240644)
(2.96902 0.00278427 0.027679)
(2.86691 0.00597906 0.034114)
(2.51528 0.0139661 0.048554)
(0.797848 0.0476547 0.10287)
(-0.456239 0.128717 0.101345)
(0.0146444 0.164863 0.0933509)
(3.00394 0.000153078 0.013322)
(3.0114 0.000380094 0.0199098)
(3.01132 0.000887472 0.0219568)
(3.00314 0.00196617 0.0240545)
(2.96977 0.00418091 0.0276471)
(2.86891 0.00889316 0.0340349)
(2.52142 0.0205866 0.0483297)
(0.823245 0.0689211 0.10257)
(-0.433851 0.193736 0.100449)
(0.018774 0.285856 0.0915539)
(3.00399 0.000225234 0.0133294)
(3.01156 0.00055953 0.0199007)
(3.01152 0.00129934 0.0219589)
(3.00361 0.00284485 0.0240401)
(2.97088 0.00596463 0.0275983)
(2.87157 0.0125211 0.0339217)
(2.5297 0.0287683 0.0479885)
(0.849368 0.0961961 0.101989)
(-0.40501 0.269991 0.0991523)
(0.0266164 0.401749 0.08956)
(3.00406 0.000341008 0.0133403)
(3.0118 0.000834651 0.0198846)
(3.0118 0.0018817 0.0219622)
(3.00427 0.00401105 0.0240226)
(2.97235 0.00825331 0.0275393)
(2.87556 0.0171419 0.0337601)
(2.54219 0.0392339 0.047469)
(0.896208 0.12955 0.101094)
(-0.362381 0.355954 0.0976198)
(0.0380671 0.518511 0.0871815)
(3.00418 0.000611914 0.0133547)
(3.01213 0.0013931 0.0198578)
(3.0122 0.00279512 0.0219732)
(3.00516 0.005531 0.0240046)
(2.9744 0.0110597 0.0274572)
(2.88068 0.0227922 0.0335447)
(2.55842 0.0526048 0.0467998)
(0.954559 0.170973 0.0998735)
(-0.308492 0.454626 0.0959846)
(0.0485773 0.643665 0.0847852)
(3.00445 0.00105998 0.0133731)
(3.01259 0.0022764 0.019817)
(3.01274 0.00407921 0.0220199)
(3.00629 0.00741675 0.0239912)
(2.97686 0.0143381 0.0273588)
(2.88886 0.029445 0.0332036)
(2.58318 0.0686692 0.0457353)
(1.08564 0.218426 0.0975127)
(-0.218391 0.566959 0.0941405)
(0.0582088 0.781111 0.0818837)
(3.0049 0.00148031 0.0133937)
(3.01321 0.00311834 0.0197662)
(3.01349 0.00537487 0.0220809)
(3.00774 0.00943947 0.0239657)
(2.98046 0.017981 0.0271768)
(2.89765 0.0372506 0.0327699)
(2.61169 0.0884326 0.0445896)
(1.20728 0.282254 0.0942432)
(-0.116391 0.705165 0.0920755)
(0.0659425 0.938868 0.0791061)
(3.00548 0.0018395 0.0134202)
(3.01399 0.00385277 0.0197068)
(3.01441 0.00662059 0.0221645)
(3.00953 0.0115636 0.0239408)
(2.98487 0.021887 0.0269637)
(2.90973 0.0451761 0.0322148)
(2.65214 0.106085 0.0429883)
(1.41795 0.327971 0.0896766)
(0.0241205 0.857561 0.0896185)
(0.0755099 1.11947 0.0764014)
(3.09249 1.48517e-05 0.0762335)
(3.11484 2.39645e-05 0.0830639)
(3.11849 8.51687e-05 0.0851079)
(3.11412 0.00016529 0.0864979)
(3.09383 0.000316051 0.0910916)
(3.0008 0.000737514 0.104167)
(2.56398 0.00261681 0.158997)
(1.53875 0.00407451 0.283106)
(0.240158 0.0268693 0.319324)
(0.263009 0.0384939 0.309866)
(3.0925 4.85464e-05 0.0762379)
(3.11485 7.55834e-05 0.0830527)
(3.11853 0.000273385 0.0851093)
(3.11418 0.000534216 0.0864849)
(3.09399 0.00103586 0.091065)
(3.00139 0.00247094 0.104063)
(2.56658 0.00820581 0.158926)
(1.53348 0.0189165 0.28333)
(0.288454 0.0610878 0.317876)
(0.286102 0.0874848 0.304076)
(3.09251 8.95345e-05 0.0762485)
(3.11489 0.000134328 0.0830274)
(3.11862 0.00049319 0.085115)
(3.11432 0.000967573 0.0864599)