1.45 	0 	0 	0.0623082 	-0.00850444 	3.49233e-21
2.35 	0 	0 	0.298353 	-0.0125299 	2.07391e-22
