1.45 	0 	0 	-0.294977
2.35 	0 	0 	-0.129885
