1.45 	0 	0 	-0.00553713 	-0.00274641 	3.93434e-21
2.35 	0 	0 	0.069037 	-0.00685442 	2.447e-21
