1.45 	0 	0 	-0.00244617 	-0.00303239 	3.97024e-21
2.35 	0 	0 	0.0815322 	-0.00731831 	2.34949e-21
