1.275 	2.15223e-18 	-2.76991e-20 	-0.0344815 	-0.000439664 	-1.9022e-22
1.825 	2.15223e-18 	-1.39322e-20 	-0.00950039 	-0.00275585 	1.67711e-21
2.375 	2.15223e-18 	-2.66896e-23 	0.115196 	-0.00323068 	-6.9948e-22
