1.45 	0 	0 	-0.29823
2.35 	0 	0 	-0.132318
