1.45 	0 	0 	-0.30332
2.35 	0 	0 	-0.134607
