1.45 	0 	0 	-0.305368
2.35 	0 	0 	-0.109056
