1.45 	0 	0 	0.00874362 	-0.00419953 	1.71293e-20
2.35 	0 	0 	0.131997 	-0.00897729 	7.55009e-21
