1.45 	0 	0 	-0.296357
2.35 	0 	0 	-0.130999
