1.45 	0 	0 	-0.300347
2.35 	0 	0 	-0.133535
