1.45 	0 	0 	-0.00803001 	-0.00257424 	3.79237e-21
2.35 	0 	0 	0.0615052 	-0.00663801 	2.29978e-21
