1.45 	0 	0 	-0.0277322
2.35 	0 	0 	-0.110318
