/*--------------------------------*- C++ -*----------------------------------*\
  =========                 |
  \\      /  F ield         | OpenFOAM: The Open Source CFD Toolbox
   \\    /   O peration     | Website:  https://openfoam.org
    \\  /    A nd           | Version:  6.0
     \\/     M anipulation  |
\*---------------------------------------------------------------------------*/
FoamFile
{
    version     2.0;
    format      ascii;
    class       volVectorField;
    location    "0.3";
    object      U;
}
// * * * * * * * * * * * * * * * * * * * * * * * * * * * * * * * * * * * * * //

dimensions      [0 1 -1 0 0 0 0];

internalField   nonuniform List<vector> 
800
(
(0.000143537 -0.000146828 0)
(0.000340429 -0.000116127 0)
(0.000286847 -1.42924e-06 0)
(-5.21012e-05 9.55869e-05 0)
(-0.000606275 0.000156257 0)
(-0.00128882 0.000187117 0)
(-0.00203886 0.000200476 0)
(-0.00282465 0.000207194 0)
(-0.0036373 0.000214456 0)
(-0.00448248 0.000226199 0)
(-0.00537459 0.000244504 0)
(-0.00633386 0.000270839 0)
(-0.00738577 0.000306856 0)
(-0.00856209 0.00035481 0)
(-0.00990234 0.000417726 0)
(-0.0114555 0.00049944 0)
(-0.0132814 0.000604586 0)
(-0.0154512 0.000738535 0)
(-0.0180472 0.000907192 0)
(-0.0211609 0.00111643 0)
(-0.0248863 0.00137083 0)
(-0.0293094 0.0016712 0)
(-0.0344877 0.00201048 0)
(-0.0404194 0.00236776 0)
(-0.0470005 0.00270119 0)
(-0.0539749 0.00294213 0)
(-0.0608869 0.0029948 0)
(-0.0670596 0.00274741 0)
(-0.0716222 0.00209909 0)
(-0.0736126 0.00100161 0)
(-0.072161 -0.000494252 0)
(-0.0667334 -0.00220622 0)
(-0.0573798 -0.00382416 0)
(-0.0449077 -0.0049667 0)
(-0.0308878 -0.00529346 0)
(-0.0174177 -0.00464877 0)
(-0.00662823 -0.00317229 0)
(-3.4433e-05 -0.00129477 0)
(0.0020894 0.000367839 0)
(0.00104712 0.000963628 0)
(0.000114805 -0.000351639 0)
(4.15354e-05 -6.49877e-05 0)
(-0.000681 0.000475009 0)
(-0.00202691 0.000942424 0)
(-0.00384516 0.00126256 0)
(-0.00597576 0.00145284 0)
(-0.00829648 0.00155934 0)
(-0.0107358 0.00162768 0)
(-0.0132672 0.00169185 0)
(-0.0158976 0.0017739 0)
(-0.0186566 0.00188819 0)
(-0.0215914 0.00204608 0)
(-0.0247652 0.00225928 0)
(-0.0282591 0.00254173 0)
(-0.0321739 0.00291019 0)
(-0.0366327 0.00338401 0)
(-0.0417818 0.00398417 0)
(-0.0477883 0.00473149 0)
(-0.0548339 0.0056434 0)
(-0.063101 0.00672845 0)
(-0.0727487 0.00797725 0)
(-0.0838743 0.00934884 0)
(-0.0964573 0.0107526 0)
(-0.110288 0.0120282 0)
(-0.12489 0.0129308 0)
(-0.139455 0.0131334 0)
(-0.152824 0.0122592 0)
(-0.16354 0.00995682 0)
(-0.169997 0.0060101 0)
(-0.170678 0.000463539 0)
(-0.164443 -0.00627584 0)
(-0.150823 -0.0133985 0)
(-0.130274 -0.0197491 0)
(-0.104333 -0.0240096 0)
(-0.0756259 -0.0250268 0)
(-0.0476283 -0.0222565 0)
(-0.0240545 -0.0161756 0)
(-0.0078541 -0.00838034 0)
(-6.51035e-05 -0.00125464 0)
(0.000873758 0.00219965 0)
(-3.2697e-05 -0.000272723 0)
(-0.000681343 0.000709034 0)
(-0.0024199 0.00202949 0)
(-0.00503403 0.00315203 0)
(-0.00827406 0.00394395 0)
(-0.0119326 0.004442 0)
(-0.0158535 0.00474321 0)
(-0.0199434 0.00494799 0)
(-0.024166 0.00513567 0)
(-0.0285287 0.00536201 0)
(-0.0330712 0.00566682 0)
(-0.0378595 0.00608328 0)
(-0.0429851 0.00664495 0)
(-0.0485658 0.00738965 0)
(-0.0547484 0.00836026 0)
(-0.0617097 0.00960304 0)
(-0.0696539 0.0111636 0)
(-0.0788055 0.0130799 0)
(-0.0893934 0.0153706 0)
(-0.101624 0.0180181 0)
(-0.115637 0.0209436 0)
(-0.131449 0.0239754 0)
(-0.148875 0.0268156 0)
(-0.167452 0.0290161 0)
(-0.186371 0.0299815 0)
(-0.20446 0.0290196 0)
(-0.220226 0.02545 0)
(-0.231984 0.0187636 0)
(-0.238041 0.00880472 0)
(-0.236916 -0.0040687 0)
(-0.227562 -0.0188808 0)
(-0.209562 -0.0340174 0)
(-0.183326 -0.0473143 0)
(-0.150285 -0.0563073 0)
(-0.113056 -0.058726 0)
(-0.0754476 -0.0532813 0)
(-0.0420739 -0.0405916 0)
(-0.0172511 -0.0237 0)
(-0.00336593 -0.00756719 0)
(0.000354537 0.00190662 0)
(-0.000217843 0.000252822 0)
(-0.00157149 0.00244571 0)
(-0.0045101 0.00484842 0)
(-0.00854588 0.00680382 0)
(-0.0132961 0.00817237 0)
(-0.0185048 0.00904056 0)
(-0.0239913 0.00957508 0)
(-0.0296499 0.00994329 0)
(-0.0354407 0.0102789 0)
(-0.0413734 0.0106793 0)
(-0.047495 0.0112173 0)
(-0.053885 0.0119557 0)
(-0.0606538 0.0129581 0)
(-0.067945 0.0142938 0)
(-0.0759356 0.0160381 0)
(-0.0848353 0.0182676 0)
(-0.0948799 0.0210509 0)
(-0.106317 0.0244327 0)
(-0.119384 0.028411 0)
(-0.134266 0.0329045 0)
(-0.151046 0.0377117 0)
(-0.16964 0.0424653 0)
(-0.189723 0.0465966 0)
(-0.210672 0.0493274 0)
(-0.231538 0.0497145 0)
(-0.251067 0.0467609 0)
(-0.267781 0.0395892 0)
(-0.280104 0.0276484 0)
(-0.286496 0.0109111 0)
(-0.285583 -0.00997294 0)
(-0.276267 -0.0335809 0)
(-0.257847 -0.0576781 0)
(-0.230196 -0.0792543 0)
(-0.194042 -0.0947143 0)
(-0.151361 -0.100398 0)
(-0.105779 -0.0936448 0)
(-0.062643 -0.0744231 0)
(-0.0281194 -0.0468136 0)
(-0.00698212 -0.0188024 0)
(-0.000102775 -5.73401e-05 0)
(-0.000412712 0.00128175 0)
(-0.00251914 0.00525434 0)
(-0.00673264 0.00902715 0)
(-0.0122426 0.0119403 0)
(-0.0185078 0.013924 0)
(-0.0252177 0.0151604 0)
(-0.0321682 0.0159102 0)
(-0.0392456 0.0164191 0)
(-0.0464098 0.0168807 0)
(-0.0536729 0.0174374 0)
(-0.0610871 0.0181992 0)
(-0.0687393 0.0192626 0)
(-0.0767509 0.0207257 0)
(-0.0852785 0.0226928 0)
(-0.0945141 0.0252733 0)
(-0.10468 0.0285719 0)
(-0.116021 0.0326725 0)
(-0.128781 0.0376123 0)
(-0.143181 0.0433466 0)
(-0.159372 0.0497027 0)
(-0.177385 0.0563279 0)
(-0.197075 0.0626406 0)
(-0.218068 0.0678054 0)
(-0.23973 0.0707535 0)
(-0.261167 0.0702691 0)
(-0.28126 0.0651444 0)
(-0.298736 0.0543817 0)
(-0.312244 0.0374045 0)
(-0.320413 0.0142402 0)
(-0.321906 -0.01434 0)
(-0.315449 -0.0467135 0)
(-0.299896 -0.08031 0)
(-0.27437 -0.11153 0)
(-0.238564 -0.135761 0)
(-0.193304 -0.147734 0)
(-0.141368 -0.142653 0)
(-0.0882785 -0.118524 0)
(-0.0422086 -0.0792663 0)
(-0.0116673 -0.0360587 0)
(-0.000652851 -0.00388951 0)
(-0.000607966 0.00282486 0)
(-0.00347409 0.00916426 0)
(-0.00896801 0.0145884 0)
(-0.0159314 0.0185542 0)
(-0.0236496 0.0211484 0)
(-0.0317521 0.0227035 0)
(-0.0400114 0.0236032 0)
(-0.0483074 0.0241845 0)
(-0.0566004 0.0247051 0)
(-0.0649045 0.0253543 0)
(-0.0732736 0.0262797 0)
(-0.0817961 0.0276138 0)
(-0.0905951 0.0294899 0)
(-0.0998284 0.0320479 0)
(-0.109687 0.035429 0)
(-0.120389 0.0397616 0)
(-0.132167 0.0451364 0)
(-0.145249 0.0515723 0)
(-0.159828 0.0589698 0)
(-0.176027 0.067057 0)
(-0.193856 0.0753323 0)
(-0.213168 0.0830214 0)
(-0.233632 0.0890675 0)
(-0.254715 0.0921776 0)
(-0.275692 0.0909367 0)
(-0.295672 0.0839815 0)
(-0.313631 0.0702045 0)
(-0.328447 0.048954 0)
(-0.338919 0.0202018 0)
(-0.343779 -0.015322 0)
(-0.341681 -0.0560117 0)
(-0.331187 -0.0992445 0)
(-0.31078 -0.141175 0)
(-0.279052 -0.176497 0)
(-0.235276 -0.198409 0)
(-0.180521 -0.19942 0)
(-0.119255 -0.173962 0)
(-0.0607801 -0.123468 0)
(-0.0183116 -0.0613943 0)
(-0.00152614 -0.0102524 0)
(-0.000801415 0.00487711 0)
(-0.00441766 0.0141628 0)
(-0.0111625 0.0214984 0)
(-0.0195158 0.0265779 0)
(-0.0285815 0.0297369 0)
(-0.0379272 0.0315177 0)
(-0.0473034 0.0324588 0)
(-0.0565848 0.0330014 0)
(-0.0657327 0.0334708 0)
(-0.0747617 0.0341026 0)
(-0.0837237 0.0350813 0)
(-0.0927023 0.0365733 0)
(-0.101813 0.038746 0)
(-0.111202 0.0417718 0)
(-0.121046 0.0458202 0)
(-0.131542 0.0510377 0)
(-0.142898 0.0575166 0)
(-0.155314 0.0652529 0)
(-0.168956 0.0740935 0)
(-0.183931 0.0836769 0)
(-0.200252 0.0933779 0)
(-0.217815 0.102271 0)
(-0.236379 0.109133 0)
(-0.255559 0.112507 0)
(-0.274826 0.110829 0)
(-0.293518 0.102602 0)
(-0.31085 0.0866018 0)
(-0.32594 0.0620714 0)
(-0.337824 0.0288833 0)
(-0.345476 -0.0123446 0)
(-0.347757 -0.060165 0)
(-0.34328 -0.112181 0)
(-0.330229 -0.164766 0)
(-0.306301 -0.212531 0)
(-0.269092 -0.247712 0)
(-0.217247 -0.260146 0)
(-0.152661 -0.239354 0)
(-0.0836841 -0.180935 0)
(-0.0276067 -0.097291 0)
(-0.00296056 -0.020232 0)
(-0.000995717 0.00743178 0)
(-0.00535461 0.020224 0)
(-0.0133148 0.0296989 0)
(-0.0229784 0.0359116 0)
(-0.0332638 0.039546 0)
(-0.0436797 0.0414172 0)
(-0.0539584 0.0422509 0)
(-0.0639732 0.0426047 0)
(-0.073688 0.0428733 0)
(-0.0831172 0.0433361 0)
(-0.092307 0.0442106 0)
(-0.10133 0.045693 0)
(-0.110286 0.0479801 0)
(-0.119298 0.051272 0)
(-0.128512 0.0557615 0)
(-0.138094 0.0616087 0)
(-0.148214 0.0689052 0)
(-0.159036 0.0776267 0)
(-0.170698 0.0875758 0)
(-0.183294 0.0983225 0)
(-0.196854 0.10915 0)
(-0.211328 0.119027 0)
(-0.226575 0.126613 0)
(-0.242353 0.130335 0)
(-0.258317 0.128511 0)
(-0.274017 0.119539 0)
(-0.288913 0.102099 0)
(-0.302403 0.0753632 0)
(-0.313875 0.039149 0)
(-0.322728 -0.00601606 0)
(-0.328289 -0.0589078 0)
(-0.329568 -0.117592 0)
(-0.324876 -0.179154 0)
(-0.311467 -0.238926 0)
(-0.285564 -0.289205 0)
(-0.243227 -0.318024 0)
(-0.182661 -0.309664 0)
(-0.108746 -0.250638 0)
(-0.0398564 -0.14591 0)
(-0.00522263 -0.0352109 0)
(-0.00119871 0.0104915 0)
(-0.00631226 0.0273325 0)
(-0.0154702 0.0391332 0)
(-0.0263699 0.0464476 0)
(-0.0377402 0.0504179 0)
(-0.049039 0.0522 0)
(-0.0599909 0.0527392 0)
(-0.0704753 0.0527196 0)
(-0.0804629 0.0526045 0)
(-0.0899687 0.0527117 0)
(-0.0990319 0.0532851 0)
(-0.107709 0.0545439 0)
(-0.116075 0.0567068 0)
(-0.124221 0.0599948 0)
(-0.132252 0.0646178 0)
(-0.140288 0.0707461 0)
(-0.14845 0.0784708 0)
(-0.15686 0.0877532 0)
(-0.165621 0.0983661 0)
(-0.174813 0.109834 0)
(-0.18448 0.121385 0)
(-0.194621 0.131916 0)
(-0.205189 0.140019 0)
(-0.216077 0.144043 0)
(-0.227116 0.142232 0)
(-0.238079 0.132918 0)
(-0.248695 0.114748 0)
(-0.258701 0.0868967 0)
(-0.267899 0.049211 0)
(-0.276185 0.00219776 0)
(-0.283448 -0.0531305 0)
(-0.289278 -0.115418 0)
(-0.292461 -0.182811 0)
(-0.29038 -0.252099 0)
(-0.278592 -0.316874 0)
(-0.251115 -0.364973 0)
(-0.20228 -0.376624 0)
(-0.131741 -0.327711 0)
(-0.0546226 -0.207943 0)
(-0.0086018 -0.0567327 0)
(-0.00142567 0.0140814 0)
(-0.007345 0.0355061 0)
(-0.0177234 0.0497673 0)
(-0.029804 0.0580836 0)
(-0.0421217 0.0621879 0)
(-0.0541015 0.0636517 0)
(-0.0654789 0.0636711 0)
(-0.076153 0.0630634 0)
(-0.08611 0.0623556 0)
(-0.09537 0.0618955 0)
(-0.103966 0.0619436 0)
(-0.111936 0.0627319 0)
(-0.119326 0.0644911 0)
(-0.126186 0.0674544 0)
(-0.132573 0.0718415 0)
(-0.138549 0.0778294 0)
(-0.144181 0.0855102 0)
(-0.149534 0.0948386 0)
(-0.154675 0.105574 0)
(-0.159662 0.11722 0)
(-0.164549 0.128979 0)
(-0.169384 0.139724 0)
(-0.17421 0.148015 0)
(-0.179061 0.152176 0)
(-0.183963 0.150429 0)
(-0.188942 0.141102 0)
(-0.194038 0.122869 0)
(-0.199348 0.0949731 0)
(-0.205081 0.0573509 0)
(-0.211561 0.0105468 0)
(-0.219145 -0.0445782 0)
(-0.227955 -0.107203 0)
(-0.237392 -0.176608 0)
(-0.245437 -0.251426 0)
(-0.247851 -0.327573 0)
(-0.237696 -0.39459 0)
(-0.206257 -0.431174 0)
(-0.147664 -0.403811 0)
(-0.0703473 -0.28119 0)
(-0.0133295 -0.0862787 0)
(-0.00170437 0.0182669 0)
(-0.00854571 0.0448209 0)
(-0.0202286 0.0616043 0)
(-0.0334582 0.0707269 0)
(-0.0465738 0.0746799 0)
(-0.0590012 0.075536 0)
(-0.0705184 0.0747707 0)
(-0.0810669 0.0733348 0)
(-0.0906623 0.0718088 0)
(-0.0993389 0.0705577 0)
(-0.107128 0.0698452 0)
(-0.114053 0.0699033 0)
(-0.120129 0.0709627 0)
(-0.125365 0.073257 0)
(-0.129764 0.0770076 0)
(-0.133325 0.0823938 0)
(-0.136053 0.0895101 0)
(-0.137954 0.0983143 0)
(-0.139047 0.108569 0)
(-0.13937 0.119784 0)
(-0.138984 0.131171 0)
(-0.137988 0.141619 0)
(-0.136523 0.149712 0)
(-0.134783 0.153804 0)
(-0.133013 0.15216 0)
(-0.131522 0.143159 0)
(-0.130682 0.12555 0)
(-0.130947 0.0986649 0)
(-0.132863 0.062526 0)
(-0.137053 0.0177136 0)
(-0.144143 -0.0350149 0)
(-0.154575 -0.0952355 0)
(-0.168255 -0.16316 0)
(-0.18395 -0.239187 0)
(-0.198338 -0.321996 0)
(-0.204799 -0.404395 0)
(-0.193081 -0.466648 0)
(-0.152823 -0.469589 0)
(-0.0844367 -0.359863 0)
(-0.0193959 -0.124915 0)
(-0.00208536 0.0231836 0)
(-0.010069 0.0554418 0)
(-0.0232216 0.0746945 0)
(-0.0375802 0.0842821 0)
(-0.0512998 0.0876826 0)
(-0.0638692 0.0875668 0)
(-0.0751603 0.0857101 0)
(-0.0851899 0.0831862 0)
(-0.0940243 0.0806112 0)
(-0.101726 0.0783494 0)
(-0.108336 0.0766516 0)
(-0.113871 0.0757345 0)
(-0.118324 0.0758139 0)
(-0.121665 0.0771111 0)
(-0.123848 0.0798385 0)
(-0.124812 0.0841718 0)
(-0.124497 0.0902086 0)
(-0.122848 0.0979182 0)
(-0.119834 0.107085 0)
(-0.115466 0.117253 0)
(-0.109813 0.127682 0)
(-0.103022 0.137325 0)
(-0.0953398 0.144845 0)
(-0.0871226 0.148692 0)
(-0.0788466 0.147232 0)
(-0.0711031 0.138952 0)
(-0.064586 0.122691 0)
(-0.0600663 0.0978532 0)
(-0.0583554 0.0644855 0)
(-0.060253 0.0231349 0)
(-0.0664747 -0.0255599 0)
(-0.0775509 -0.0814474 0)
(-0.0936528 -0.145348 0)
(-0.114231 -0.218971 0)
(-0.137203 -0.303513 0)
(-0.157339 -0.395792 0)
(-0.164608 -0.480399 0)
(-0.145937 -0.517598 0)
(-0.0940714 -0.435823 0)
(-0.026318 -0.172867 0)
(-0.00266395 0.0290901 0)
(-0.0121768 0.0676649 0)
(-0.0270607 0.0891312 0)
(-0.0424981 0.0986143 0)
(-0.0565107 0.100897 0)
(-0.0687642 0.0993517 0)
(-0.0793027 0.0960522 0)
(-0.0882634 0.0921673 0)
(-0.0957914 0.08832 0)
(-0.101998 0.0848507 0)
(-0.10695 0.0819789 0)
(-0.110675 0.079889 0)
(-0.113158 0.0787663 0)
(-0.114346 0.0788046 0)
(-0.114157 0.0801951 0)
(-0.112482 0.0831011 0)
(-0.1092 0.0876208 0)
(-0.1042 0.0937411 0)
(-0.0974003 0.101284 0)
(-0.0887756 0.109855 0)
(-0.0783905 0.1188 0)
(-0.066429 0.127184 0)
(-0.053222 0.133809 0)
(-0.0392683 0.137276 0)
(-0.0252412 0.136111 0)
(-0.0119766 0.128944 0)
(-0.000435949 0.114717 0)
(0.00835445 0.0928655 0)
(0.0133857 0.0633806 0)
(0.0137554 0.0266737 0)
(0.00874333 -0.0168045 0)
(-0.00214246 -0.0671248 0)
(-0.0191417 -0.125432 0)
(-0.0421505 -0.194154 0)
(-0.0702627 -0.276255 0)
(-0.100234 -0.372356 0)
(-0.123846 -0.473161 0)
(-0.127385 -0.543569 0)
(-0.0970651 -0.501019 0)
(-0.033002 -0.228982 0)
(-0.00362693 0.0364696 0)
(-0.0153268 0.0819768 0)
(-0.032291 0.105017 0)
(-0.0486158 0.11346 0)
(-0.0623414 0.113833 0)
(-0.0735144 0.110286 0)
(-0.082465 0.105147 0)
(-0.0895074 0.0996232 0)
(-0.0948997 0.0943024 0)
(-0.0988284 0.0894731 0)
(-0.101412 0.0853028 0)
(-0.102708 0.0819266 0)
(-0.102718 0.0794831 0)
(-0.101392 0.0781236 0)
(-0.0986317 0.0780035 0)
(-0.0943 0.0792618 0)
(-0.0882375 0.0819901 0)
(-0.0802835 0.0861917 0)
(-0.0703056 0.091735 0)
(-0.0582357 0.0983053 0)
(-0.0441108 0.105366 0)
(-0.0281143 0.112135 0)
(-0.0106138 0.117599 0)
(0.00781309 0.120563 0)
(0.0263714 0.119756 0)
(0.0440685 0.113981 0)
(0.0597669 0.102284 0)
(0.0722712 0.0841033 0)
(0.080438 0.0593121 0)
(0.0832885 0.0281021 0)
(0.0800897 -0.00933763 0)
(0.07037 -0.0533028 0)
(0.0538573 -0.105092 0)
(0.0303827 -0.167349 0)
(-4.8419e-05 -0.243889 0)
(-0.0362176 -0.338157 0)
(-0.0728121 -0.447488 0)
(-0.0975989 -0.545923 0)
(-0.0918553 -0.549027 0)
(-0.037759 -0.290281 0)
(-0.00535042 0.0462379 0)
(-0.0203364 0.0991243 0)
(-0.0397243 0.122343 0)
(-0.0563188 0.128229 0)
(-0.0685793 0.125599 0)
(-0.0772906 0.119351 0)
(-0.0832223 0.11194 0)
(-0.0869334 0.104513 0)
(-0.0888382 0.0975639 0)
(-0.0892307 0.0912963 0)
(-0.0883067 0.0858035 0)
(-0.0861806 0.0811536 0)
(-0.0828941 0.077423 0)
(-0.0784212 0.0747053 0)
(-0.0726752 0.0731053 0)
(-0.065517 0.0727236 0)
(-0.0567706 0.0736324 0)
(-0.0462451 0.0758423 0)
(-0.0337657 0.0792636 0)
(-0.019214 0.0836661 0)
(-0.00257331 0.0886424 0)
(0.0160212 0.093587 0)
(0.0362376 0.0976993 0)
(0.0575141 0.100021 0)
(0.0790476 0.0995165 0)
(0.0998135 0.095182 0)
(0.118623 0.08618 0)
(0.134215 0.0719446 0)
(0.145378 0.0522146 0)
(0.151058 0.0269373 0)
(0.150443 -0.00398082 0)
(0.142958 -0.0410551 0)
(0.128176 -0.0856484 0)
(0.105648 -0.140328 0)
(0.0747325 -0.209002 0)
(0.0350216 -0.296627 0)
(-0.0114338 -0.406378 0)
(-0.0558476 -0.524668 0)
(-0.0767418 -0.57518 0)
(-0.0382344 -0.352287 0)
(-0.00859728 0.0602141 0)
(-0.0286558 0.120165 0)
(-0.0504041 0.140671 0)
(-0.065447 0.141596 0)
(-0.0736929 0.134506 0)
(-0.077276 0.12475 0)
(-0.0775968 0.114639 0)
(-0.075539 0.10511 0)
(-0.071721 0.0964889 0)
(-0.0665718 0.0888477 0)
(-0.0603773 0.0821759 0)
(-0.0533137 0.0764536 0)
(-0.0454658 0.071679 0)
(-0.0368389 0.0678741 0)
(-0.0273669 0.0650802 0)
(-0.0169224 0.0633462 0)
(-0.00533005 0.06271 0)
(0.00761386 0.063174 0)
(0.0221134 0.0646752 0)
(0.0383358 0.0670538 0)
(0.0563664 0.0700229 0)
(0.0761577 0.0731486 0)
(0.0974805 0.0758465 0)
(0.119885 0.077404 0)
(0.142679 0.0770308 0)
(0.164941 0.0739366 0)
(0.185565 0.06742 0)
(0.20334 0.0569413 0)
(0.217051 0.0421437 0)
(0.225579 0.022782 0)
(0.227959 -0.00145654 0)
(0.22337 -0.0312364 0)
(0.211033 -0.0679004 0)
(0.190062 -0.113799 0)
(0.15923 -0.172539 0)
(0.117042 -0.249451 0)
(0.0627223 -0.351802 0)
(0.0001878 -0.479828 0)
(-0.049161 -0.575428 0)
(-0.0310238 -0.409792 0)
(-0.0148919 0.0823335 0)
(-0.0426187 0.146232 0)
(-0.0645719 0.158177 0)
(-0.072691 0.150385 0)
(-0.0711096 0.136988 0)
(-0.0642646 0.122949 0)
(-0.0543264 0.109931 0)
(-0.0425158 0.0984167 0)
(-0.0296273 0.0884281 0)
(-0.0161675 0.0798281 0)
(-0.00244313 0.0724575 0)
(0.0113758 0.0661833 0)
(0.0252199 0.0609111 0)
(0.0391006 0.0565834 0)
(0.0530973 0.0531723 0)
(0.0673482 0.0506687 0)
(0.0820382 0.0490675 0)
(0.0973845 0.0483496 0)
(0.113615 0.0484604 0)
(0.130938 0.0492876 0)
(0.149505 0.0506383 0)
(0.169366 0.0522231 0)
(0.190424 0.0536495 0)
(0.212392 0.0544318 0)
(0.234768 0.0540189 0)
(0.256827 0.0518402 0)
(0.277648 0.0473595 0)
(0.296164 0.0401193 0)
(0.311231 0.0297533 0)
(0.321697 0.0159389 0)
(0.326422 -0.00171745 0)
(0.324275 -0.0238814 0)
(0.313987 -0.0517235 0)
(0.294075 -0.0872416 0)
(0.262547 -0.133563 0)
(0.217111 -0.195775 0)
(0.154964 -0.283153 0)
(0.074786 -0.409041 0)
(-0.00511785 -0.542609 0)
(-0.0109497 -0.45396 0)
(-0.0270457 0.121257 0)
(-0.0639766 0.175314 0)
(-0.0734428 0.165527 0)
(-0.0589295 0.144103 0)
(-0.0353211 0.123811 0)
(-0.00911404 0.10628 0)
(0.0175837 0.0915825 0)
(0.0437807 0.0794469 0)
(0.0689388 0.0694436 0)
(0.0928229 0.0611575 0)
(0.115379 0.0542609 0)
(0.136651 0.0485128 0)
(0.156742 0.0437405 0)
(0.1758 0.039823 0)
(0.194008 0.0366788 0)
(0.211578 0.0342536 0)
(0.22875 0.0325073 0)
(0.24578 0.0314009 0)
(0.262928 0.0308813 0)
(0.28044 0.0308668 0)
(0.298517 0.031233 0)
(0.317284 0.031801 0)
(0.336752 0.0323325 0)
(0.356781 0.0325328 0)
(0.377049 0.0320638 0)
(0.397041 0.0305674 0)
(0.416044 0.0276943 0)
(0.433181 0.0231255 0)
(0.447427 0.0165817 0)
(0.457667 0.00779136 0)
(0.462657 -0.00356596 0)
(0.461048 -0.0179932 0)
(0.451141 -0.0363019 0)
(0.430919 -0.059912 0)
(0.39745 -0.0911447 0)
(0.347465 -0.134377 0)
(0.276232 -0.198658 0)
(0.177782 -0.306906 0)
(0.0642568 -0.460987 0)
(0.0318023 -0.460485 0)
(-0.0465124 0.194773 0)
(-0.0636206 0.187998 0)
(-0.00575635 0.136501 0)
(0.0587463 0.105682 0)
(0.116179 0.0849125 0)
(0.166451 0.0689327 0)
(0.210804 0.0564658 0)
(0.25001 0.0468332 0)
(0.284695 0.0393511 0)
(0.315484 0.0334547 0)
(0.342958 0.0287463 0)
(0.367619 0.0249565 0)
(0.389901 0.021899 0)
(0.410186 0.0194433 0)
(0.428828 0.0174979 0)
(0.446158 0.0159989 0)
(0.462492 0.0148987 0)
(0.478133 0.0141573 0)
(0.493367 0.0137328 0)
(0.508453 0.0135733 0)
(0.523607 0.0136094 0)
(0.538975 0.013748 0)
(0.554612 0.01387 0)
(0.57045 0.0138308 0)
(0.586276 0.0134664 0)
(0.601714 0.0126029 0)
(0.616217 0.0110698 0)
(0.629082 0.00870749 0)
(0.639442 0.00537408 0)
(0.646317 0.000925266 0)
(0.648526 -0.00480085 0)
(0.644783 -0.0120661 0)
(0.633311 -0.0212523 0)
(0.612118 -0.0330954 0)
(0.577723 -0.048723 0)
(0.5262 -0.0709494 0)
(0.449646 -0.105448 0)
(0.338676 -0.174691 0)
(0.190398 -0.309634 0)
(0.125362 -0.376226 0)
(0.244617 0.127774 0)
(0.296672 0.112597 0)
(0.403558 0.0776003 0)
(0.49376 0.0548885 0)
(0.55795 0.0404016 0)
(0.605419 0.0302599 0)
(0.642631 0.0229066 0)
(0.672628 0.0175652 0)
(0.697149 0.01367 0)
(0.71746 0.0107979 0)
(0.734525 0.00865368 0)
(0.749057 0.00703669 0)
(0.761596 0.00580959 0)
(0.772563 0.00487729 0)
(0.7823 0.00417362 0)
(0.791098 0.00365229 0)
(0.799208 0.00328018 0)
(0.80685 0.0030321 0)
(0.814219 0.00288657 0)
(0.821477 0.00282235 0)
(0.828746 0.00281559 0)
(0.8361 0.00283766 0)
(0.843545 0.00285409 0)
(0.851009 0.00282456 0)
(0.858326 0.00270443 0)
(0.865232 0.00244693 0)
(0.87136 0.00200692 0)
(0.876254 0.00134233 0)
(0.879361 0.000417542 0)
(0.880078 -0.000803784 0)
(0.87766 -0.00235876 0)
(0.871368 -0.00431227 0)
(0.860046 -0.00675624 0)
(0.842711 -0.00986042 0)
(0.816756 -0.0139323 0)
(0.780389 -0.0195388 0)
(0.724062 -0.028861 0)
(0.642772 -0.0458119 0)
(0.490247 -0.092725 0)
(0.367898 -0.142353 0)
)
;

boundaryField
{
    movingWall
    {
        type            fixedValue;
        value           uniform (1 0 0);
    }
    fixedWalls
    {
        type            noSlip;
    }
    frontAndBack
    {
        type            empty;
    }
}


// ************************************************************************* //
