/*--------------------------------*- C++ -*----------------------------------*\
  =========                 |
  \\      /  F ield         | OpenFOAM: The Open Source CFD Toolbox
   \\    /   O peration     | Website:  https://openfoam.org
    \\  /    A nd           | Version:  6.0
     \\/     M anipulation  |
\*---------------------------------------------------------------------------*/
FoamFile
{
    version     2.0;
    format      ascii;
    class       volScalarField;
    location    "7";
    object      p;
}
// * * * * * * * * * * * * * * * * * * * * * * * * * * * * * * * * * * * * * //

dimensions      [0 2 -2 0 0 0 0];

internalField   nonuniform List<scalar> 
62000
(
-0.059327
-0.0612907
-0.0632539
-0.0651417
-0.0669762
-0.0687452
-0.0704592
-0.0721012
-0.0736825
-0.0751868
-0.0766257
-0.0779842
-0.0792733
-0.0804818
-0.0816207
-0.0826826
-0.0836787
-0.0846053
-0.0854734
-0.0862819
-0.0870405
-0.0877481
-0.0884112
-0.0890251
-0.0895898
-0.090092
-0.090519
-0.0908434
-0.0910363
-0.0910522
-0.0908519
-0.0903719
-0.0895511
-0.0883235
-0.086631
-0.084437
-0.0817427
-0.0786066
-0.0751637
-0.0716292
-0.0682842
-0.0654151
-0.063249
-0.0617704
-0.0603566
-0.0573656
-0.0501986
-0.035688
-0.0115265
0.0222616
0.0617045
0.0995347
0.127695
0.140754
0.137967
0.122276
0.0990183
0.072505
0.0459774
0.0896912
-0.0765795
-0.0789733
-0.0813164
-0.083533
-0.0856124
-0.0875542
-0.0893544
-0.0910032
-0.0925075
-0.0938604
-0.0950739
-0.0961443
-0.0970866
-0.0978991
-0.0985977
-0.0991823
-0.0996679
-0.100056
-0.100359
-0.100579
-0.100725
-0.100799
-0.100805
-0.100742
-0.100608
-0.100393
-0.100081
-0.0996479
-0.099062
-0.0982857
-0.0972748
-0.095983
-0.0943506
-0.0923207
-0.0898447
-0.086899
-0.0835004
-0.0797271
-0.0757353
-0.071766
-0.0681251
-0.0651277
-0.0630424
-0.0619212
-0.0612144
-0.0593398
-0.0536861
-0.0408988
-0.0182115
0.0150998
0.0558664
0.0972723
0.130912
0.150137
0.152573
0.139607
0.115797
0.0870403
0.0613271
0.0303146
-0.0853651
-0.0877419
-0.0901212
-0.0924678
-0.0947586
-0.0969919
-0.0991535
-0.101223
-0.103192
-0.105038
-0.106758
-0.108331
-0.109756
-0.111018
-0.112118
-0.113047
-0.11381
-0.1144
-0.114825
-0.115082
-0.115176
-0.115107
-0.114878
-0.114487
-0.113931
-0.113203
-0.112287
-0.111163
-0.109799
-0.108163
-0.106225
-0.103944
-0.101279
-0.0981873
-0.0946398
-0.0906351
-0.0862174
-0.0814966
-0.0766663
-0.0720105
-0.0678846
-0.0646628
-0.0627091
-0.0622095
-0.0627735
-0.0630226
-0.0605484
-0.0520881
-0.034709
-0.00712574
0.0283864
0.0659918
0.0978892
0.117355
0.121429
0.11068
0.0894136
0.0662279
0.0485527
0.0362774
-0.0860039
-0.0881191
-0.090277
-0.092467
-0.0946621
-0.0968701
-0.0990764
-0.101269
-0.103438
-0.105566
-0.107642
-0.109646
-0.111564
-0.113374
-0.115063
-0.116608
-0.117996
-0.119206
-0.120227
-0.121041
-0.12164
-0.122008
-0.122137
-0.122014
-0.121629
-0.120966
-0.120008
-0.118728
-0.117094
-0.115078
-0.11265
-0.109785
-0.106454
-0.102629
-0.0983011
-0.0934914
-0.088271
-0.0827805
-0.0772493
-0.0720029
-0.0674444
-0.0640086
-0.0621609
-0.0622212
-0.0639527
-0.0662035
-0.0668424
-0.0628208
-0.0512111
-0.0303302
-0.00163239
0.0301379
0.0581359
0.0760788
0.0809208
0.0728379
0.0560748
0.0411758
0.0339968
0.0346467
-0.0858716
-0.0875889
-0.0893403
-0.0911341
-0.0929489
-0.0948001
-0.0966808
-0.0985863
-0.100514
-0.102454
-0.104402
-0.106343
-0.108269
-0.11016
-0.112002
-0.113772
-0.115451
-0.117013
-0.118433
-0.119684
-0.12074
-0.121574
-0.122162
-0.122474
-0.122488
-0.122175
-0.121505
-0.120443
-0.11895
-0.11699
-0.114538
-0.111568
-0.108058
-0.103994
-0.0993763
-0.0942412
-0.0886766
-0.082841
-0.0769829
-0.0714493
-0.0666669
-0.0631031
-0.0612933
-0.061648
-0.0640333
-0.0674882
-0.0701615
-0.0692755
-0.0620403
-0.0465669
-0.0236961
0.00278106
0.0269918
0.0432732
0.048733
0.0433784
0.0313462
0.0240854
0.0253337
0.0358353
-0.0848314
-0.0862748
-0.0877494
-0.0892671
-0.0908006
-0.0923673
-0.0939577
-0.0955724
-0.0972091
-0.098866
-0.10054
-0.102228
-0.103925
-0.105622
-0.107309
-0.108972
-0.110595
-0.112156
-0.113633
-0.114998
-0.11622
-0.117269
-0.118109
-0.118706
-0.119023
-0.119023
-0.118664
-0.1179
-0.116682
-0.11497
-0.112727
-0.109933
-0.106562
-0.102606
-0.0980692
-0.092993
-0.0874699
-0.0816617
-0.0758177
-0.0702832
-0.0654803
-0.0618771
-0.0600393
-0.0604209
-0.0629435
-0.0667917
-0.0703788
-0.07122
-0.066757
-0.0550554
-0.0365524
-0.0142838
0.00675321
0.0215566
0.0274778
0.0244527
0.0163876
0.0149545
0.0217101
0.0379259
-0.0843614
-0.0855246
-0.086705
-0.087923
-0.0891529
-0.0904138
-0.0916973
-0.0930043
-0.0943334
-0.0956829
-0.0970518
-0.0984377
-0.0998383
-0.101249
-0.102665
-0.104077
-0.105475
-0.106844
-0.108165
-0.109417
-0.110572
-0.111602
-0.112472
-0.113145
-0.113584
-0.113745
-0.11358
-0.113039
-0.112064
-0.110608
-0.108633
-0.106109
-0.103013
-0.0993337
-0.095077
-0.0902805
-0.0850332
-0.0794889
-0.0738831
-0.0685425
-0.0638623
-0.0602868
-0.0583784
-0.0585986
-0.0608904
-0.0645505
-0.0682296
-0.0697388
-0.0667973
-0.0575357
-0.0421521
-0.0231057
-0.00464891
0.00884047
0.014987
0.0136851
0.00854347
0.0110641
0.0211101
0.0402213
-0.0832243
-0.0841782
-0.0851513
-0.0861643
-0.087187
-0.0882382
-0.0893055
-0.0903915
-0.0914913
-0.0926062
-0.0937321
-0.0948702
-0.0960169
-0.0971713
-0.0983283
-0.0994841
-0.10063
-0.101757
-0.102852
-0.103898
-0.104874
-0.105756
-0.106516
-0.10712
-0.107534
-0.107715
-0.107616
-0.107185
-0.106363
-0.105102
-0.103355
-0.101095
-0.0982944
-0.0949403
-0.0910356
-0.0866116
-0.0817482
-0.0765842
-0.0713329
-0.0662909
-0.0618134
-0.0583053
-0.0563032
-0.0562507
-0.0580955
-0.0612163
-0.0644787
-0.0659688
-0.0637042
-0.0559404
-0.0427523
-0.0261709
-0.00982844
0.00246513
0.00859214
0.00842092
0.00523875
0.0102415
0.0222254
0.0423533
-0.0825758
-0.0833084
-0.0840482
-0.084823
-0.0856047
-0.086414
-0.0872394
-0.0880841
-0.0889435
-0.0898181
-0.0907038
-0.0916013
-0.0925058
-0.0934172
-0.0943296
-0.0952414
-0.0961438
-0.0970309
-0.0978902
-0.0987107
-0.0994739
-0.100162
-0.10075
-0.101211
-0.101515
-0.101625
-0.101498
-0.101085
-0.100329
-0.0991811
-0.0975997
-0.0955504
-0.0930098
-0.0899615
-0.0864049
-0.0823645
-0.0779086
-0.073158
-0.0683001
-0.0635963
-0.0593555
-0.0559366
-0.0538355
-0.0534652
-0.0547665
-0.0571856
-0.0597719
-0.0608684
-0.0587781
-0.0519153
-0.0403059
-0.0256608
-0.0111028
5.66842e-05
0.00594438
0.00640561
0.00444957
0.0109045
0.0239871
0.0438759
-0.0814258
-0.0819769
-0.0825388
-0.0831388
-0.0837457
-0.0843794
-0.0850255
-0.0856885
-0.0863611
-0.0870461
-0.0877369
-0.0884367
-0.0891392
-0.089846
-0.09055
-0.0912512
-0.0919402
-0.0926131
-0.0932578
-0.0938666
-0.0944227
-0.0949121
-0.0953145
-0.0956078
-0.0957662
-0.0957598
-0.095551
-0.0950943
-0.09434
-0.0932423
-0.0917582
-0.0898605
-0.0875238
-0.0847324
-0.0814828
-0.0777929
-0.0737188
-0.0693642
-0.0648885
-0.0605188
-0.0565151
-0.0531913
-0.0509937
-0.050301
-0.0510409
-0.0527187
-0.0545378
-0.055076
-0.0528956
-0.0465867
-0.0361642
-0.0231012
-0.0100968
-2.44723e-05
0.00546043
0.00619256
0.00495253
0.0122239
0.0259389
0.0448178
-0.0806962
-0.0810648
-0.081432
-0.0818315
-0.0822338
-0.0826611
-0.0831002
-0.0835563
-0.0840227
-0.0845023
-0.0849888
-0.0854851
-0.0859842
-0.0864887
-0.0869904
-0.0874906
-0.087979
-0.0884529
-0.0888997
-0.0893132
-0.0896772
-0.08998
-0.0902032
-0.0903286
-0.0903342
-0.0901952
-0.089879
-0.0893466
-0.0885532
-0.0874565
-0.086022
-0.0842198
-0.0820311
-0.0794403
-0.0764427
-0.07305
-0.0693092
-0.065306
-0.0611761
-0.057112
-0.0533298
-0.0500988
-0.0478174
-0.046825
-0.0470395
-0.0480161
-0.0490888
-0.0490466
-0.0466767
-0.0407492
-0.0312885
-0.0195829
-0.00797938
0.00102942
0.0059938
0.00674184
0.00590374
0.0136078
0.0276611
0.0451464
-0.0795477
-0.0797549
-0.0799653
-0.0802114
-0.0804611
-0.0807359
-0.0810195
-0.0813182
-0.0816229
-0.0819384
-0.0822561
-0.0825815
-0.0829065
-0.0832353
-0.0835592
-0.0838809
-0.0841895
-0.0844838
-0.0847513
-0.084987
-0.0851752
-0.0853061
-0.0853625
-0.085329
-0.0851863
-0.0849134
-0.0844825
-0.0838588
-0.0830036
-0.0818808
-0.0804553
-0.0787071
-0.0766179
-0.0741752
-0.0713742
-0.0682221
-0.0647575
-0.0610511
-0.0572175
-0.0534179
-0.0498301
-0.046683
-0.0443295
-0.0430715
-0.0428188
-0.0431718
-0.0435737
-0.0430012
-0.0404341
-0.0348161
-0.0261895
-0.015696
-0.00538239
0.00259525
0.00697112
0.00758033
0.00695712
0.0148908
0.0290785
0.0452805
-0.0787507
-0.078802
-0.0788444
-0.0789164
-0.0789875
-0.0790814
-0.0791829
-0.0792994
-0.0794222
-0.0795563
-0.0796931
-0.0798384
-0.0799833
-0.080133
-0.0802781
-0.0804228
-0.0805556
-0.0806766
-0.0807726
-0.0808404
-0.0808636
-0.0808339
-0.0807347
-0.0805522
-0.0802688
-0.0798666
-0.0793206
-0.0786009
-0.0776728
-0.0765028
-0.0750647
-0.0733371
-0.0713086
-0.0689698
-0.066315
-0.0633502
-0.0601056
-0.0566415
-0.0530524
-0.0494751
-0.0460525
-0.0429808
-0.0405696
-0.039088
-0.0384397
-0.038268
-0.0381055
-0.0370979
-0.0343824
-0.029067
-0.0212156
-0.0118456
-0.00274743
0.00421917
0.00796457
0.00833452
0.00783119
0.0158707
0.0299221
0.0452956
-0.0775819
-0.077486
-0.0773865
-0.0773204
-0.0772552
-0.0772135
-0.0771772
-0.0771544
-0.077134
-0.0771225
-0.0771095
-0.0771026
-0.077092
-0.0770844
-0.07707
-0.0770543
-0.0770256
-0.0769856
-0.0769213
-0.0768308
-0.0766982
-0.0765167
-0.0762702
-0.0759465
-0.0755293
-0.0750027
-0.0743444
-0.0735268
-0.0725196
-0.071294
-0.0698231
-0.0680939
-0.0660967
-0.0638252
-0.0612751
-0.0584502
-0.0553756
-0.0521018
-0.0487081
-0.0453098
-0.0420223
-0.0390136
-0.036556
-0.0348888
-0.0339136
-0.0333134
-0.0326949
-0.0313554
-0.0285566
-0.023563
-0.0164569
-0.00814822
-0.000203105
0.00578563
0.00888705
0.00896944
0.00853288
0.0166274
0.0303939
0.0454077
-0.076684
-0.0764552
-0.0762106
-0.0759926
-0.0757703
-0.0755685
-0.0753701
-0.0751846
-0.0750012
-0.0748268
-0.074651
-0.0744815
-0.0743079
-0.0741377
-0.0739605
-0.0737832
-0.0735935
-0.0733946
-0.0731732
-0.0729289
-0.0726456
-0.0723177
-0.0719296
-0.0714701
-0.070924
-0.0702769
-0.069508
-0.068593
-0.0675034
-0.0662123
-0.0646998
-0.0629505
-0.060962
-0.0587289
-0.056249
-0.0535238
-0.0505757
-0.047447
-0.0442056
-0.0409485
-0.0377701
-0.0348145
-0.0323232
-0.0305083
-0.0292738
-0.028339
-0.0273739
-0.0258094
-0.0230038
-0.0183689
-0.0120022
-0.00471628
0.00211936
0.00715087
0.00960146
0.00936303
0.00897192
0.017083
0.030543
0.0454824
-0.0754347
-0.0750709
-0.0746969
-0.0743543
-0.0740095
-0.0736865
-0.0733653
-0.0730558
-0.0727448
-0.0724406
-0.0721306
-0.0718245
-0.0715107
-0.0711981
-0.0708757
-0.0705518
-0.0702139
-0.0698663
-0.0694964
-0.069105
-0.0686767
-0.0682073
-0.0676819
-0.0670903
-0.0664184
-0.0656528
-0.0647748
-0.063761
-0.062586
-0.0612265
-0.05966
-0.0578796
-0.0558813
-0.0536641
-0.0512255
-0.0485673
-0.045708
-0.0426856
-0.039557
-0.0364072
-0.0333118
-0.0303987
-0.0278796
-0.0259484
-0.024509
-0.0233212
-0.0221007
-0.0204062
-0.0176615
-0.0134186
-0.00778647
-0.00148946
0.00427997
0.00838634
0.0101936
0.00962563
0.00926534
0.0173914
0.0306406
0.0456598
-0.0744059
-0.073924
-0.07342
-0.0729404
-0.0724534
-0.0719854
-0.0715172
-0.0710601
-0.0706012
-0.0701492
-0.0696916
-0.069238
-0.0687759
-0.0683152
-0.067844
-0.0673719
-0.0668856
-0.0663911
-0.065875
-0.0653399
-0.06477
-0.0641626
-0.0635029
-0.0627818
-0.0619858
-0.061103
-0.0601155
-0.0590024
-0.0577397
-0.0563044
-0.0546801
-0.0528562
-0.0508341
-0.0486133
-0.0461923
-0.0435727
-0.0407711
-0.037822
-0.0347743
-0.0317033
-0.0286712
-0.0257919
-0.0232541
-0.0212348
-0.0196426
-0.018274
-0.016885
-0.0151468
-0.0125311
-0.00871646
-0.00382272
0.00150732
0.00624046
0.00943941
0.0106067
0.00969715
0.0093638
0.0174943
0.030601
0.0457332
-0.073035
-0.0724272
-0.0718036
-0.0712096
-0.0706111
-0.0700335
-0.0694545
-0.0688857
-0.0683119
-0.0677429
-0.0671638
-0.0665863
-0.0659966
-0.0654061
-0.0648019
-0.0641951
-0.063572
-0.0629399
-0.0622855
-0.0616128
-0.0609062
-0.0601646
-0.0593734
-0.0585248
-0.0576061
-0.0566064
-0.0555095
-0.0542952
-0.0529417
-0.0514286
-0.0497369
-0.0478612
-0.0458023
-0.0435609
-0.0411373
-0.0385323
-0.0357619
-0.0328572
-0.0298622
-0.0268438
-0.0238557
-0.0209999
-0.0184466
-0.0163596
-0.0146544
-0.0131621
-0.011673
-0.0099605
-0.00752809
-0.00416656
-7.63164e-06
0.00438008
0.00811104
0.0104302
0.0109693
0.0097197
0.00940631
0.0175551
0.0305865
0.0458205
-0.0718355
-0.0711283
-0.0703927
-0.069679
-0.0689541
-0.068246
-0.0675332
-0.0668292
-0.0661189
-0.065413
-0.0646968
-0.0639823
-0.0632548
-0.0625267
-0.0617844
-0.0610401
-0.0602791
-0.0595102
-0.0587195
-0.057912
-0.0570718
-0.0561988
-0.0552786
-0.0543042
-0.0532638
-0.0521477
-0.0509407
-0.0496242
-0.0481772
-0.0465796
-0.0448161
-0.0428782
-0.04077
-0.0384931
-0.0360486
-0.0334377
-0.0306756
-0.027792
-0.0248265
-0.0218407
-0.0188817
-0.0160429
-0.0134795
-0.0113445
-0.00956333
-0.00799846
-0.00647266
-0.00484757
-0.00265042
0.000231658
0.00365358
0.00711472
0.00986529
0.0113173
0.0112316
0.0096339
0.00933808
0.0174974
0.0304701
0.0457032
-0.0704425
-0.0696053
-0.0687449
-0.0679112
-0.0670698
-0.0662479
-0.0654217
-0.064605
-0.0637808
-0.0629605
-0.0621275
-0.061295
-0.0604474
-0.0595978
-0.0587318
-0.0578626
-0.0569748
-0.0560781
-0.0551584
-0.054222
-0.0532527
-0.0522519
-0.0512052
-0.0501071
-0.0489462
-0.0477139
-0.0463961
-0.0449749
-0.0434306
-0.0417451
-0.0399002
-0.0378918
-0.0357229
-0.0333968
-0.0309156
-0.0282808
-0.0255073
-0.0226237
-0.0196666
-0.0166941
-0.0137494
-0.0109186
-0.00834539
-0.00617485
-0.00434388
-0.00274461
-0.00122954
0.000262066
0.00218482
0.00457241
0.00726317
0.00981837
0.0116158
0.012223
0.0115225
0.00957967
0.00929472
0.0174751
0.0304083
0.0455067
-0.0691314
-0.0681823
-0.0672015
-0.0662435
-0.0652751
-0.0643255
-0.0633715
-0.062428
-0.0614775
-0.060532
-0.0595739
-0.0586169
-0.0576439
-0.0566692
-0.0556769
-0.0546817
-0.0536669
-0.0526436
-0.0515967
-0.0505337
-0.049438
-0.0483117
-0.0471408
-0.0459202
-0.0446394
-0.0432906
-0.0418604
-0.0403321
-0.0386869
-0.0369062
-0.0349754
-0.032887
-0.030647
-0.0282594
-0.0257275
-0.023053
-0.0202512
-0.0173506
-0.0143853
-0.0114114
-0.00847026
-0.00564231
-0.00306221
-0.000869623
0.000985558
0.00258363
0.0040438
0.00535883
0.00696931
0.00884322
0.0108018
0.0124628
0.0133218
0.0130918
0.0117768
0.00948119
0.00920405
0.0173876
0.0302728
0.0450121
-0.0673964
-0.0663687
-0.0653068
-0.064266
-0.0632108
-0.0621719
-0.0611236
-0.0600829
-0.0590309
-0.0579817
-0.0569165
-0.0558509
-0.0547669
-0.0536798
-0.0525731
-0.0514618
-0.050329
-0.0491861
-0.0480179
-0.0468326
-0.0456137
-0.0443643
-0.0430704
-0.0417281
-0.0403272
-0.038861
-0.0373168
-0.0356784
-0.0339284
-0.0320498
-0.030025
-0.0278499
-0.0255294
-0.0230694
-0.0204742
-0.0177462
-0.014901
-0.0119673
-0.00897784
-0.00598797
-0.0030384
-0.000205455
0.00238329
0.00459083
0.00645377
0.00802564
0.00939972
0.0105075
0.011779
0.0131298
0.0143623
0.0151463
0.0150881
0.0140383
0.0121155
0.00947096
0.00919592
0.0173813
0.0302292
0.0443555
-0.0656212
-0.0645062
-0.0633553
-0.0622259
-0.0610817
-0.0599534
-0.0588143
-0.0576816
-0.0565348
-0.0553883
-0.0542221
-0.0530527
-0.0518607
-0.050663
-0.0494423
-0.0482156
-0.0469647
-0.0457027
-0.0444139
-0.0431074
-0.0417663
-0.0403946
-0.0389785
-0.0375146
-0.0359934
-0.0344088
-0.0327489
-0.0309987
-0.0291411
-0.0271588
-0.0250365
-0.0227668
-0.0203575
-0.0178152
-0.0151457
-0.012352
-0.0094507
-0.00647103
-0.003445
-0.000428314
0.00253755
0.00537967
0.00797544
0.0101888
0.0120416
0.0135624
0.0148193
0.0156894
0.0165946
0.0174073
0.0179119
0.0178266
0.0168598
0.0149931
0.0124601
0.00945961
0.00918518
0.0173384
0.0301538
0.0433185
-0.063832
-0.0626203
-0.0613718
-0.0601454
-0.0589037
-0.0576787
-0.0564413
-0.0552106
-0.0539642
-0.0527181
-0.0514504
-0.0501787
-0.0488825
-0.0475793
-0.0462508
-0.0449141
-0.0435506
-0.0421739
-0.0407679
-0.0393427
-0.0378811
-0.0363883
-0.0348505
-0.0332653
-0.0316237
-0.0299201
-0.0281434
-0.0262789
-0.0243105
-0.0222218
-0.0199949
-0.017625
-0.0151193
-0.0124861
-0.00973257
-0.00686232
-0.00389295
-0.000854818
0.0022203
0.00527555
0.00826764
0.011126
0.0137318
0.0159474
0.0177802
0.0192337
0.020353
0.0209653
0.0214861
0.0217545
0.0215362
0.0205945
0.0187351
0.0160642
0.0129256
0.00957413
0.00929874
0.0174023
0.030226
0.0420502
-0.0621098
-0.0607968
-0.0594438
-0.0581118
-0.0567641
-0.055433
-0.0540896
-0.0527531
-0.0514003
-0.0500474
-0.0486715
-0.0472909
-0.0458836
-0.0444683
-0.0430253
-0.0415736
-0.0400931
-0.0385988
-0.0370738
-0.0355291
-0.0339469
-0.0323333
-0.0306743
-0.0289679
-0.0272056
-0.0253822
-0.023487
-0.0215062
-0.0194239
-0.0172236
-0.0148888
-0.0124124
-0.00980353
-0.00707177
-0.00422552
-0.0012692
0.00177812
0.00488467
0.00801834
0.0111204
0.0141448
0.0170229
0.0196378
0.0218492
0.023649
0.0250172
0.0259765
0.0263085
0.0264241
0.0261346
0.0251896
0.0233944
0.0206457
0.0171692
0.0134204
0.00971264
0.00943998
0.01744
0.0303325
0.0403424
-0.0603188
-0.0589048
-0.0574483
-0.0560124
-0.0545592
-0.0531225
-0.0516715
-0.0502274
-0.0487658
-0.0473043
-0.0458187
-0.0443285
-0.0428107
-0.0412845
-0.0397296
-0.0381651
-0.0365701
-0.03496
-0.0333176
-0.0316545
-0.0299525
-0.0282186
-0.0264385
-0.0246109
-0.0227271
-0.0207827
-0.0187673
-0.0166675
-0.0144684
-0.0121542
-0.00970604
-0.00711847
-0.00440052
-0.00156312
0.00138387
0.00443511
0.00757006
0.0107552
0.0139578
0.0171165
0.0201818
0.0230862
0.025714
0.0279201
0.0296812
0.0309536
0.0317395
0.0317768
0.031475
0.0306219
0.0289532
0.0263129
0.0226862
0.0184125
0.0140569
0.00999932
0.00973541
0.0175916
0.030682
0.0383664
-0.0584781
-0.0569672
-0.0554099
-0.0538715
-0.0523142
-0.0507727
-0.0492158
-0.0476652
-0.0460956
-0.0445251
-0.0429286
-0.0413266
-0.0396945
-0.0380533
-0.0363813
-0.0346995
-0.0329858
-0.031257
-0.029495
-0.0277122
-0.0258898
-0.0240351
-0.0221336
-0.0201839
-0.0181778
-0.0161111
-0.0139738
-0.0117532
-0.00943484
-0.00700245
-0.00443786
-0.0017337
0.0010993
0.00404892
0.00710386
0.0102578
0.0134884
0.0167602
0.0200392
0.0232611
0.0263722
0.0293058
0.0319459
0.034142
0.0358548
0.0370179
0.037613
0.0373381
0.0366023
0.0351728
0.0327742
0.029287
0.0247808
0.0197046
0.0147363
0.0103253
0.0100819
0.0177149
0.0311811
0.0360279
-0.0564993
-0.0548926
-0.053237
-0.0515999
-0.0499421
-0.0482995
-0.0466393
-0.0449847
-0.0433091
-0.0416324
-0.0399279
-0.0382172
-0.0364753
-0.0347235
-0.0329397
-0.031145
-0.0293167
-0.0274723
-0.025593
-0.0236918
-0.0217496
-0.0197743
-0.017751
-0.0156788
-0.0135496
-0.0113593
-0.00909855
-0.00675466
-0.00431401
-0.00176058
0.000925739
0.003751
0.00670447
0.00977233
0.012942
0.0162061
0.0195406
0.0229078
0.0262723
0.0295662
0.0327309
0.0357
0.0383568
0.0405434
0.0422047
0.0432518
0.043647
0.04305
0.041871
0.0398601
0.036732
0.0324024
0.0270233
0.0211497
0.0155702
0.0108142
0.0106069
0.0179441
0.0320667
0.0336613
-0.0544393
-0.0527386
-0.0509852
-0.0492485
-0.0474899
-0.045746
-0.0439834
-0.042226
-0.0404464
-0.0386645
-0.0368529
-0.0350341
-0.0331813
-0.0313177
-0.0294196
-0.0275102
-0.0255654
-0.0236041
-0.0216066
-0.0195867
-0.0175245
-0.0154284
-0.013283
-0.0110877
-0.00883438
-0.00651913
-0.0041326
-0.00166321
0.000902851
0.00358165
0.00639285
0.00934412
0.0124231
0.0156149
0.0189055
0.0222865
0.0257317
0.029201
0.0326573
0.0360287
0.0392512
0.0422584
0.0449316
0.0471052
0.0487076
0.0496279
0.0498095
0.0488754
0.0472385
0.0446332
0.0407665
0.0355884
0.0293302
0.0226508
0.0164524
0.0113493
0.0111999
0.0181248
0.0332431
0.0312112
-0.0522043
-0.0504114
-0.0485636
-0.0467323
-0.0448775
-0.043037
-0.0411758
-0.0393193
-0.0374386
-0.0355553
-0.0336405
-0.0317178
-0.0297598
-0.0277899
-0.0257839
-0.0237653
-0.0217092
-0.0196348
-0.0175222
-0.0153855
-0.0132044
-0.0109879
-0.00872039
-0.00640132
-0.00402265
-0.00158071
0.000933207
0.00353087
0.00622497
0.00903143
0.0119716
0.0150528
0.018262
0.0215832
0.025001
0.0285057
0.0320691
0.0356487
0.039205
0.042662
0.0459499
0.0490015
0.0516959
0.0538582
0.0554004
0.0561896
0.0561513
0.054872
0.0527699
0.0495651
0.0449571
0.0389314
0.031796
0.0243129
0.0174952
0.0120541
0.0119889
0.0183549
0.0350429
0.0290014
-0.0498353
-0.0479556
-0.0460174
-0.0440943
-0.0421463
-0.0402121
-0.0382558
-0.0363037
-0.0343257
-0.0323439
-0.0303283
-0.0283034
-0.0262402
-0.0241637
-0.0220484
-0.0199193
-0.0177505
-0.0155623
-0.013334
-0.0110804
-0.00878041
-0.00644346
-0.00405341
-0.00160994
0.000894872
0.00346443
0.00610737
0.00883447
0.0116586
0.0145959
0.0176683
0.0208836
0.0242281
0.0276842
0.0312349
0.0348695
0.0385573
0.042253
0.0459152
0.0494627
0.0528199
0.0559183
0.0586339
0.0607822
0.0622583
0.0629076
0.0626375
0.061
0.0584186
0.0546014
0.0492403
0.0423569
0.0343336
0.0260355
0.0185891
0.0128079
0.012856
0.0184728
0.0371823
0.0267144
-0.0472938
-0.0453268
-0.0432993
-0.0412871
-0.0392485
-0.0372235
-0.0351744
-0.0331289
-0.0310555
-0.0289778
-0.0268643
-0.0247407
-0.022577
-0.0203988
-0.0181799
-0.0159455
-0.0136688
-0.0113705
-0.00902944
-0.00666088
-0.00424316
-0.00178643
0.000725835
0.00329356
0.0059246
0.00862233
0.0113949
0.0142534
0.0172098
0.0202808
0.0234893
0.026843
0.0303276
0.0339237
0.0376132
0.0413842
0.0452037
0.0490234
0.0527993
0.0564455
0.0598794
0.0630312
0.0657732
0.0679102
0.0693203
0.0698272
0.0693208
0.0673184
0.0642512
0.0598162
0.053697
0.0459528
0.0370398
0.0279253
0.0198479
0.013735
0.0139229
0.0186756
0.0391776
0.024351
-0.0446517
-0.0425983
-0.0404807
-0.0383772
-0.0362462
-0.0341285
-0.0319859
-0.0298467
-0.0276784
-0.0255049
-0.0232936
-0.021071
-0.0188055
-0.0165241
-0.0141991
-0.0118574
-0.00947077
-0.00706127
-0.00460672
-0.00212309
0.000412078
0.00298815
0.00562214
0.00831391
0.0110714
0.0138979
0.0168016
0.019793
0.0228846
0.0260926
0.0294407
0.0329371
0.0365663
0.0403078
0.0441417
0.0480549
0.0520119
0.0559613
0.0598565
0.0636061
0.0671206
0.0703283
0.0730971
0.0752209
0.0765602
0.0769171
0.0761639
0.0737841
0.070217
0.0651499
0.0582585
0.0496393
0.0398221
0.0298766
0.0211573
0.0147094
0.0150566
0.0189405
0.0403881
0.0216769
-0.0418444
-0.0397045
-0.0374985
-0.0353066
-0.033086
-0.0308786
-0.0286443
-0.0264131
-0.0241509
-0.0218829
-0.0195754
-0.0172557
-0.0148914
-0.01251
-0.010083
-0.00763747
-0.0051445
-0.00262634
-6.04227e-05
0.00253689
0.00518855
0.0078834
0.010639
0.013455
0.0163396
0.0192962
0.0223326
0.0254595
0.0286885
0.0320365
0.0355275
0.0391708
0.0429492
0.0468413
0.0508257
0.0548878
0.0589896
0.0630766
0.0670992
0.0709604
0.0745633
0.0778337
0.0806352
0.0827494
0.0840191
0.0842246
0.0832215
0.0804576
0.0763843
0.0706782
0.0630073
0.0535061
0.0427795
0.031998
0.0226329
0.0158569
0.0163783
0.0194648
0.0413299
0.0190914
-0.0389128
-0.0366913
-0.0344001
-0.0321218
-0.0298134
-0.0275175
-0.0251936
-0.0228722
-0.0205181
-0.0181571
-0.0157539
-0.0133371
-0.0108725
-0.00838908
-0.00585702
-0.003305
-0.000702775
0.00192608
0.00460501
0.00731709
0.0100861
0.0129004
0.0157784
0.0187198
0.0217328
0.0248208
0.0279919
0.0312561
0.0346254
0.0381162
0.0417547
0.0455488
0.0494818
0.05353
0.0576704
0.0618872
0.0661396
0.07037
0.0745256
0.0785033
0.0821987
0.0855347
0.0883697
0.0904731
0.0916691
0.0917167
0.0904537
0.0872936
0.0826995
0.0763388
0.0678721
0.057471
0.045817
0.0341817
0.0241578
0.0170496
0.0177577
0.0201637
0.0421423
0.0165098
-0.0358482
-0.0335431
-0.0311661
-0.0288021
-0.0264065
-0.0240234
-0.0216099
-0.0191982
-0.0167516
-0.0142973
-0.0117986
-0.00928504
-0.00672174
-0.00413796
-0.00150344
0.00115299
0.00386229
0.00660058
0.00939176
0.0122186
0.0151053
0.0180401
0.0210416
0.0241097
0.0272525
0.0304738
0.0337815
0.037186
0.0406986
0.0443368
0.0481261
0.0520763
0.0561686
0.0603782
0.0646808
0.0690592
0.0734698
0.0778517
0.0821489
0.0862519
0.0900481
0.0934572
0.0963322
0.0984293
0.0995538
0.0994429
0.0979175
0.0943552
0.0892332
0.0822097
0.0729376
0.0616266
0.0490362
0.036539
0.0258499
0.0184155
0.0193249
0.0212014
0.043219
0.0142604
-0.03271
-0.0303216
-0.0278573
-0.0254046
-0.0229186
-0.0204444
-0.0179388
-0.0154348
-0.0128942
-0.0103449
-0.00774898
-0.00513688
-0.00247187
0.000215252
0.0029562
0.00572054
0.00854055
0.0113912
0.0142971
0.0172406
0.0202468
0.0233035
0.0264301
0.0296264
0.0329011
0.0362581
0.0397055
0.0432533
0.0469132
0.0507019
0.0546474
0.0587577
0.0630144
0.0673908
0.0718613
0.0764072
0.0809822
0.0855218
0.0899664
0.0942
0.0981015
0.101587
0.104504
0.106594
0.107643
0.107368
0.105571
0.101594
0.0959281
0.0882244
0.0781278
0.0658861
0.0523373
0.0389575
0.0275879
0.019823
0.0209498
0.0224737
0.0444746
0.0122096
-0.0294406
-0.0269677
-0.0244161
-0.0218759
-0.0193006
-0.0167368
-0.0141392
-0.0115423
-0.00890662
-0.00626139
-0.00356742
-0.000856058
0.00191007
0.00469984
0.00754544
0.0104163
0.0133456
0.0163078
0.0193282
0.0223887
0.0255151
0.0286949
0.031948
0.0352746
0.0386835
0.042179
0.0457687
0.0494632
0.0532733
0.0572169
0.061321
0.0655965
0.0700223
0.0745713
0.0792163
0.0839372
0.0886848
0.0933909
0.0979923
0.102366
0.106382
0.109952
0.112918
0.115006
0.115984
0.115544
0.113473
0.109074
0.102857
0.0944633
0.0835296
0.0703444
0.0558244
0.0415509
0.0294914
0.0214019
0.0227665
0.0241286
0.0462098
0.0106791
-0.0260448
-0.0234915
-0.0208552
-0.0182283
-0.0155643
-0.0129108
-0.0102219
-0.00753293
-0.00480332
-0.00206291
0.000728898
0.00353955
0.00640827
0.00930234
0.0122554
0.0152353
0.0182765
0.0213523
0.0244889
0.0276679
0.0309157
0.0342198
0.037601
0.0410597
0.0446047
0.0482405
0.0519751
0.0558183
0.0597817
0.0638824
0.068151
0.0725955
0.0771963
0.0819238
0.0867496
0.0916519
0.0965787
0.101458
0.106223
0.110742
0.114878
0.118537
0.121553
0.123641
0.124543
0.123934
0.12158
0.116746
0.10996
0.100857
0.0890651
0.0749126
0.0593958
0.0442047
0.0314372
0.0230182
0.0246422
0.0260515
0.0483146
0.0095504
-0.0224873
-0.0198508
-0.0171285
-0.0144155
-0.0116636
-0.00892178
-0.00614219
-0.00336165
-0.000538278
0.00229695
0.00518571
0.00809466
0.0110636
0.0140595
0.0171166
0.0202025
0.0233524
0.0265395
0.0297904
0.0330866
0.0364554
0.0398839
0.0433936
0.0469849
0.0506669
0.0544445
0.0583253
0.06232
0.0664393
0.0707025
0.075138
0.0797578
0.0845389
0.0894512
0.0944649
0.099557
0.104672
0.109735
0.114673
0.119349
0.123614
0.127371
0.130447
0.132539
0.13337
0.132591
0.129953
0.124678
0.117313
0.10749
0.0948242
0.0796883
0.0631587
0.047035
0.0335474
0.0248036
0.0267124
0.0283786
0.0510655
0.00916548
-0.0187724
-0.0160535
-0.0132451
-0.0104449
-0.00760455
-0.00477398
-0.00190474
0.000965511
0.00388026
0.00680778
0.00979137
0.0127965
0.0158649
0.0189619
0.0221231
0.0253147
0.0285732
0.031871
0.0352354
0.038648
0.0421369
0.045689
0.0493268
0.0530509
0.0568706
0.0607912
0.0648206
0.068969
0.0732484
0.0776764
0.082286
0.0870853
0.0920529
0.0971566
0.102365
0.107655
0.112966
0.118219
0.123338
0.128177
0.132578
0.136437
0.139577
0.141674
0.142431
0.141478
0.138545
0.132814
0.124852
0.114288
0.100725
0.0845782
0.0670068
0.0499229
0.0356942
0.0266193
0.0288378
0.0309834
0.0543543
0.00944398
-0.0147916
-0.0119955
-0.00910923
-0.00623245
-0.00331483
-0.000406919
0.00254241
0.00549422
0.00849354
0.0115078
0.0145815
0.0176786
0.0208414
0.0240344
0.0272938
0.0305856
0.0339474
0.0373514
0.0408258
0.0443521
0.0479593
0.051634
0.0553996
0.0592568
0.0632153
0.0672807
0.0714607
0.0757663
0.0802087
0.0848076
0.0895933
0.0945791
0.0997396
0.105042
0.110455
0.115951
0.121468
0.126923
0.132235
0.137249
0.141796
0.145767
0.14898
0.15109
0.151778
0.150649
0.147423
0.141226
0.132657
0.121337
0.106859
0.0896822
0.0710501
0.0529868
0.038002
0.0285984
0.0311526
0.0339871
0.058449
0.0107761
-0.0107255
-0.00785478
-0.00489266
-0.00193884
0.00105952
0.00404991
0.00708406
0.0101228
0.0132137
0.0163209
0.0194901
0.0226831
0.0259438
0.0292353
0.0325953
0.0359887
0.0394551
0.0429659
0.0465507
0.0501908
0.0539164
0.0577142
0.0616083
0.0655999
0.0696988
0.0739109
0.0782444
0.08271
0.0873198
0.0920922
0.0970633
0.10224
0.107602
0.113111
0.118736
0.124446
0.130179
0.135844
0.141357
0.146554
0.151254
0.155344
0.158633
0.160757
0.161373
0.160066
0.156534
0.149858
0.140661
0.128561
0.113142
0.0949054
0.0751801
0.056106
0.0403401
0.0305986
0.0335101
0.0372517
0.0632474
0.0131547
-0.00674161
-0.00375755
-0.000681357
0.0023842
0.00549198
0.00858878
0.0117271
0.0148676
0.018059
0.0212653
0.0245328
0.0278233
0.0311812
0.03457
0.0380286
0.0415221
0.0450915
0.0487084
0.0524032
0.0561574
0.0600021
0.063924
0.0679482
0.0720758
0.076317
0.0806785
0.0851684
0.0897984
0.09458
0.0995345
0.104694
0.110071
0.115641
0.121366
0.127212
0.133148
0.139108
0.144996
0.150723
0.156115
0.160981
0.1652
0.168577
0.170721
0.171274
0.169786
0.165949
0.158783
0.148946
0.136051
0.11967
0.100351
0.0795099
0.0594016
0.0428351
0.0327546
0.0360439
0.0408789
0.0689945
0.0170636
-0.00236488
0.000661824
0.00378952
0.00691282
0.0100866
0.0132553
0.0164735
0.0196989
0.0229812
0.0262817
0.0296478
0.0330384
0.0364996
0.0399925
0.0435572
0.0471575
0.050836
0.0545638
0.0583726
0.062244
0.0662105
0.0702588
0.074415
0.0786811
0.0830676
0.087582
0.0922328
0.0970318
0.101992
0.107132
0.112489
0.118073
0.123859
0.129808
0.135885
0.142058
0.148254
0.154375
0.160325
0.165922
0.170963
0.175317
0.178784
0.180952
0.181441
0.179767
0.175612
0.167942
0.157443
0.143726
0.126354
0.10592
0.0839266
0.0627485
0.0453515
0.0349187
0.0385992
0.0447106
0.0756056
0.0225625
0.00207612
0.00519923
0.00842097
0.0116337
0.0148934
0.0181448
0.0214439
0.024749
0.0281118
0.0314942
0.0349447
0.0384223
0.0419737
0.0455599
0.0492216
0.0529223
0.0567056
0.0605419
0.0644637
0.0684526
0.0725418
0.0767182
0.0810089
0.0854163
0.0899515
0.0946229
0.0994388
0.104412
0.109555
0.114889
0.120448
0.126247
0.132257
0.138441
0.14476
0.151181
0.157626
0.163996
0.170184
0.176002
0.181227
0.185732
0.189297
0.191502
0.191929
0.190076
0.18559
0.177415
0.166239
0.151678
0.133292
0.111718
0.0885459
0.0662707
0.0480183
0.0372276
0.0413103
0.048821
0.0833167
0.0301799
0.00677335
0.00994314
0.013219
0.0164901
0.0198146
0.0231344
0.0265075
0.0298897
0.0333343
0.0368006
0.0403393
0.0439072
0.047553
0.0512359
0.0549983
0.0588021
0.0626925
0.0666393
0.0706758
0.0747838
0.0789976
0.0833041
0.0877317
0.0922833
0.0969705
0.101802
0.106788
0.111939
0.11727
0.122801
0.128573
0.134593
0.140838
0.147266
0.153838
0.160518
0.167225
0.173853
0.180291
0.186338
0.191761
0.196422
0.200089
0.202335
0.202702
0.200663
0.195829
0.187139
0.175263
0.159827