/*--------------------------------*- C++ -*----------------------------------*\
  =========                 |
  \\      /  F ield         | OpenFOAM: The Open Source CFD Toolbox
   \\    /   O peration     | Website:  https://openfoam.org
    \\  /    A nd           | Version:  6.0
     \\/     M anipulation  |
\*---------------------------------------------------------------------------*/
FoamFile
{
    version     2.0;
    format      ascii;
    class       volVectorField;
    location    "7";
    object      U;
}
// * * * * * * * * * * * * * * * * * * * * * * * * * * * * * * * * * * * * * //

dimensions      [0 1 -1 0 0 0 0];

internalField   nonuniform List<vector> 
62000
(
(0.999212 -0.00355172 7.02689e-19)
(0.999965 -0.00299965 3.34592e-18)
(1.00024 -0.00352409 -4.37202e-19)
(1.00063 -0.00389563 3.47413e-20)
(1.00099 -0.00425948 -3.83046e-18)
(1.00134 -0.00461092 3.56496e-19)
(1.00168 -0.00492945 2.61576e-18)
(1.00199 -0.00521051 -2.73421e-18)
(1.00228 -0.00544848 3.37034e-18)
(1.00255 -0.00563837 2.34664e-18)
(1.0028 -0.00577869 -1.41996e-18)
(1.00302 -0.00586707 -3.9159e-18)
(1.00322 -0.00590611 2.50065e-18)
(1.0034 -0.00589616 -2.59461e-18)
(1.00356 -0.00584189 2.74021e-18)
(1.00369 -0.00574501 -4.14538e-18)
(1.00381 -0.00561052 5.29238e-18)
(1.0039 -0.00544058 -1.31128e-18)
(1.00397 -0.00523913 -4.90026e-19)
(1.00402 -0.00500757 -2.80756e-19)
(1.00405 -0.00474816 3.73072e-18)
(1.00406 -0.00446131 -2.01228e-18)
(1.00404 -0.00414756 1.4477e-19)
(1.00401 -0.00380628 -5.90316e-19)
(1.00394 -0.00343695 7.05293e-19)
(1.00385 -0.00303842 2.74379e-18)
(1.00374 -0.00261021 -2.96814e-18)
(1.0036 -0.00215246 -2.4099e-19)
(1.00342 -0.00166633 -2.93423e-19)
(1.00322 -0.00115766 2.49143e-18)
(1.00298 -0.00063241 -1.58927e-18)
(1.00271 -9.98441e-05 3.76183e-18)
(1.00242 0.000425233 8.45106e-19)
(1.0021 0.000925651 -2.95297e-19)
(1.00175 0.00137655 -5.45156e-19)
(1.0014 0.00174695 2.55802e-18)
(1.00103 0.00200059 -5.60726e-19)
(1.00068 0.00209848 -4.08121e-19)
(1.00035 0.00200513 -4.75748e-19)
(1.00006 0.00169662 6.48419e-19)
(0.999854 0.00117277 4.56696e-19)
(0.99974 0.000464631 -1.2532e-20)
(0.999752 -0.00034191 3.31571e-19)
(0.99992 -0.0010158 -6.19794e-19)
(1.00025 -0.00131908 -9.46739e-19)
(1.00073 -0.00100517 1.60134e-18)
(1.00125 8.31497e-05 -2.64544e-18)
(1.00164 0.00187737 -2.68411e-18)
(1.00159 0.00397366 5.61428e-19)
(1.00075 0.00560597 2.20236e-18)
(0.998822 0.00580416 8.97514e-18)
(0.995709 0.00371526 2.29107e-17)
(0.991697 -0.00108377 6.07899e-18)
(0.987446 -0.00839716 1.1969e-17)
(0.983834 -0.0175741 2.13324e-17)
(0.981729 -0.0276772 4.89499e-17)
(0.98158 -0.0382631 6.987e-18)
(0.98273 -0.0546959 6.81147e-17)
(1.00671 -0.0136359 -2.93597e-17)
(0.551418 -0.516646 7.0824e-17)
(1.00454 0.00942805 2.38378e-19)
(1.00534 0.00992923 -1.59496e-18)
(1.0056 0.00906466 6.96955e-19)
(1.00601 0.00822281 -8.54965e-19)
(1.00645 0.00731284 -2.07506e-18)
(1.00689 0.00627967 2.65546e-19)
(1.00732 0.0051731 2.3695e-18)
(1.00774 0.00399798 1.2424e-19)
(1.00814 0.0027739 -2.01897e-18)
(1.00851 0.00151996 3.43643e-18)
(1.00883 0.000255806 1.26768e-18)
(1.0091 -0.000998547 -4.43007e-18)
(1.00932 -0.00222557 3.25977e-18)
(1.00949 -0.00340795 -2.20893e-18)
(1.00961 -0.00453258 3.07742e-18)
(1.00967 -0.00558656 -1.68662e-18)
(1.00968 -0.00656154 6.91084e-19)
(1.00965 -0.0074503 5.19973e-19)
(1.00957 -0.00824869 -5.19958e-19)
(1.00946 -0.00895281 7.29819e-20)
(1.00931 -0.00956158 -1.01669e-18)
(1.00913 -0.0100731 1.12948e-18)
(1.00892 -0.0104862 8.50442e-19)
(1.00868 -0.0107994 -9.83934e-19)
(1.00842 -0.0110095 2.69565e-18)
(1.00814 -0.0111138 3.68276e-19)
(1.00782 -0.0111081 -5.00153e-18)
(1.00748 -0.0109891 2.03629e-18)
(1.0071 -0.0107525 -4.14857e-18)
(1.00668 -0.0103931 4.40837e-19)
(1.00622 -0.00990646 2.35742e-18)
(1.00571 -0.0092912 -7.44486e-19)
(1.00516 -0.00854875 -1.68483e-19)
(1.00456 -0.00768592 -1.05462e-18)
(1.00391 -0.00671467 2.17315e-18)
(1.00321 -0.00565525 -5.76927e-19)
(1.00248 -0.00453444 -7.05222e-19)
(1.00175 -0.00338435 3.20883e-19)
(1.00105 -0.00223545 -1.95218e-19)
(1.00044 -0.00110771 -8.86399e-20)
(0.999979 1.81503e-06 -5.88212e-19)
(0.999739 0.00111963 7.85e-20)
(0.999826 0.00234881 -2.88488e-19)
(1.0003 0.00405328 -2.95794e-19)
(1.00111 0.00647075 1.79165e-18)
(1.0021 0.00969909 -1.2159e-18)
(1.00295 0.0135746 3.91058e-18)
(1.00319 0.0174753 1.57473e-18)
(1.00218 0.0202744 1.10169e-18)
(0.999356 0.0204629 -1.21131e-19)
(0.994438 0.0165484 -9.45439e-18)
(0.987685 0.00768659 -2.05625e-17)
(0.980023 -0.00592087 1.46102e-18)
(0.972928 -0.0230415 -3.07506e-18)
(0.968074 -0.0417943 -2.13027e-17)
(0.966931 -0.0601467 3.73146e-18)
(0.970426 -0.0767566 7.26872e-18)
(0.979762 -0.0928574 -1.57274e-17)
(0.998802 -0.0724835 4.74342e-17)
(1.08664 0.180636 -5.13822e-17)
(1.00849 0.0206767 -2.39517e-18)
(1.00888 0.0212943 7.26993e-19)
(1.00891 0.0207863 3.98898e-19)
(1.0091 0.0202126 1.89662e-19)
(1.00939 0.0195365 -5.70246e-18)
(1.00974 0.0186665 4.73677e-18)
(1.01017 0.0176447 1.82209e-18)
(1.01065 0.0164603 -1.21218e-18)
(1.01117 0.0151221 -3.26202e-18)
(1.01172 0.0136404 -1.38957e-18)
(1.01228 0.0120305 5.63456e-18)
(1.01282 0.010312 2.72364e-18)
(1.01334 0.00850547 -2.59176e-18)
(1.01381 0.00663606 1.00344e-18)
(1.01422 0.00472788 -2.46147e-19)
(1.01456 0.00280786 -4.50166e-18)
(1.01482 0.000900515 4.44374e-18)
(1.01499 -0.000969908 -4.35025e-18)
(1.01507 -0.00278238 5.58101e-19)
(1.01507 -0.0045167 -2.88171e-18)
(1.01498 -0.00615686 1.39303e-18)
(1.01481 -0.00768783 2.27382e-18)
(1.01456 -0.00909728 -7.86742e-19)
(1.01423 -0.0103742 -2.84672e-18)
(1.01384 -0.0115071 1.89338e-18)
(1.01339 -0.0124863 -2.73731e-18)
(1.01288 -0.0133017 2.44261e-19)
(1.01231 -0.0139429 1.37613e-18)
(1.01167 -0.0143986 2.92526e-18)
(1.01098 -0.0146537 -2.85939e-18)
(1.01024 -0.0146913 -3.56332e-19)
(1.00943 -0.0144927 -5.21449e-19)
(1.00857 -0.014043 1.7362e-18)
(1.00765 -0.0133274 -1.95542e-18)
(1.00667 -0.0123338 1.47564e-19)
(1.00565 -0.0110555 -1.21116e-18)
(1.0046 -0.00948908 6.52292e-20)
(1.00356 -0.00763669 -2.87822e-19)
(1.00257 -0.00550227 5.97424e-19)
(1.00171 -0.00308636 -1.2892e-19)
(1.00107 -0.00038332 4.36575e-19)
(1.00073 0.00260842 -1.73943e-20)
(1.00089 0.0059745 4.75351e-19)
(1.00163 0.0099873 1.27136e-18)
(1.00288 0.0147569 -8.32052e-19)
(1.00447 0.0201507 2.15684e-19)
(1.00605 0.0257218 -1.49044e-19)
(1.00711 0.0305478 2.15739e-18)
(1.00699 0.0332778 1.17659e-18)
(1.00511 0.0323467 -3.78467e-20)
(1.00122 0.0264379 -2.16676e-18)
(0.995621 0.0151449 -1.04274e-18)
(0.989262 -0.000703892 8.74291e-18)
(0.983629 -0.0192798 1.70972e-17)
(0.980409 -0.038182 1.785e-17)
(0.981139 -0.0549709 -6.96111e-17)
(0.986489 -0.0677041 1.46521e-17)
(0.998988 -0.0763313 -2.95549e-17)
(1.01506 -0.0586689 -5.71417e-17)
(0.948455 -0.0190076 2.45387e-17)
(1.01024 0.0261266 -1.6621e-18)
(1.01028 0.026881 1.13469e-18)
(1.01005 0.0267692 -7.66626e-19)
(1.00995 0.026614 -1.12891e-18)
(1.00997 0.0263935 2.34222e-18)
(1.01007 0.0259996 2.34696e-18)
(1.01028 0.0254602 -1.83782e-18)
(1.0106 0.024747 -3.11083e-19)
(1.01101 0.023852 -6.39598e-19)
(1.01152 0.0227683 2.51463e-18)
(1.01211 0.0214946 7.23884e-19)
(1.01277 0.0200345 -5.49457e-19)
(1.01347 0.0183967 -1.63149e-18)
(1.01419 0.0165959 -1.92016e-19)
(1.01492 0.0146504 -2.50183e-18)
(1.01562 0.0125839 4.7164e-18)
(1.01627 0.0104231 -1.9006e-18)
(1.01686 0.00819725 -2.07466e-18)
(1.01736 0.00593592 5.03006e-18)
(1.01777 0.00367032 -5.14277e-18)
(1.01806 0.00143019 6.4789e-19)
(1.01823 -0.000755761 4.78764e-18)
(1.01828 -0.00286103 1.15197e-18)
(1.01821 -0.00486009 -1.82211e-18)
(1.01801 -0.00672894 -7.41136e-20)
(1.0177 -0.00844606 2.51389e-18)
(1.01726 -0.0099905 -3.52353e-18)
(1.01671 -0.0113428 1.73605e-18)
(1.01604 -0.0124824 -2.98588e-19)
(1.01527 -0.0133828 -5.42597e-19)
(1.01439 -0.0140178 -2.54332e-19)
(1.01342 -0.0143565 -5.82479e-19)
(1.01235 -0.0143692 -2.04718e-19)
(1.01119 -0.0140253 1.14128e-18)
(1.00996 -0.0132933 3.93361e-19)
(1.00866 -0.0121456 -3.13921e-19)
(1.00733 -0.010554 2.1409e-18)
(1.00601 -0.00849677 5.64248e-20)
(1.00476 -0.00595531 -3.10374e-19)
(1.00368 -0.00291261 9.25026e-19)
(1.00287 0.000640376 1.42028e-19)
(1.00247 0.00468642 5.58105e-20)
(1.00269 0.00931723 -8.73884e-19)
(1.0037 0.014645 -2.2444e-19)
(1.00542 0.0206653 -1.66705e-18)
(1.00772 0.0271043 5.90715e-19)
(1.01031 0.033374 -2.27676e-18)
(1.01271 0.0384622 1.13726e-19)
(1.01432 0.0410381 -7.57681e-18)
(1.01454 0.0396959 1.0454e-18)
(1.01307 0.0334021 9.88466e-19)
(1.01005 0.0221017 9.97091e-18)
(1.00622 0.00697626 -1.27587e-17)
(1.00284 -0.00990843 8.39824e-18)
(1.00139 -0.0260177 1.52192e-17)
(1.00331 -0.0388626 2.7939e-17)
(1.0087 -0.046394 -5.47761e-18)
(1.02099 -0.0494115 4.83321e-18)
(1.03435 -0.0276841 4.29826e-17)
(0.973457 0.0357584 -3.05193e-17)
(1.01169 0.0288737 1.5355e-18)
(1.01154 0.0296646 2.98273e-18)
(1.01114 0.0297444 -4.41573e-20)
(1.01082 0.0298162 -4.97748e-19)
(1.01059 0.029875 2.38187e-18)
(1.01042 0.0298118 -4.15441e-18)
(1.01034 0.0296527 4.3689e-19)
(1.01036 0.0293631 -2.29121e-18)
(1.01049 0.0289261 -9.9013e-19)
(1.01074 0.0283232 5.4272e-18)
(1.0111 0.0275395 -2.50785e-18)
(1.01158 0.0265634 2.06373e-19)
(1.01216 0.0253873 4.13596e-20)
(1.01283 0.0240099 -3.17543e-18)
(1.01357 0.0224344 3.05107e-18)
(1.01436 0.0206713 -6.16163e-19)
(1.01517 0.0187368 7.30818e-19)
(1.01598 0.0166523 -9.61298e-19)
(1.01675 0.014443 1.44935e-18)
(1.01748 0.012139 -2.37111e-18)
(1.01812 0.00977313 2.5263e-18)
(1.01866 0.00737887 -2.17713e-18)
(1.01908 0.00499042 -3.1853e-18)
(1.01937 0.0026437 3.25881e-18)
(1.01952 0.000372074 8.82294e-19)
(1.01951 -0.00179157 -4.18983e-18)
(1.01935 -0.00381588 3.89982e-18)
(1.01903 -0.0056717 -1.23618e-18)
(1.01856 -0.00732816 3.0839e-18)
(1.01792 -0.00875081 -4.08782e-18)
(1.01714 -0.00990233 1.65769e-18)
(1.01622 -0.0107416 2.03998e-18)
(1.01516 -0.0112293 3.92068e-18)
(1.01398 -0.0113211 -1.12588e-18)
(1.01268 -0.010972 -2.65899e-19)
(1.0113 -0.0101388 3.20021e-19)
(1.00986 -0.00877599 -2.00962e-18)
(1.00843 -0.00684451 -1.63533e-18)
(1.00707 -0.0043097 3.30724e-19)
(1.00589 -0.00114139 -5.38032e-19)
(1.00501 0.00267179 1.56825e-19)
(1.00458 0.00710006 9.27444e-20)
(1.00487 0.0122541 7.61437e-19)
(1.00605 0.0180844 1.46393e-18)
(1.00808 0.0244855 9.09728e-19)
(1.01086 0.0311103 1.45239e-18)
(1.01415 0.0373106 6.40366e-19)
(1.01756 0.0420801 -1.42692e-18)
(1.02055 0.0441912 -1.51492e-18)
(1.02253 0.0424371 2.55538e-18)
(1.02314 0.0360355 -1.39277e-18)
(1.02237 0.0251684 -2.16533e-18)
(1.02072 0.0111825 6.80344e-19)
(1.0192 -0.00382142 -9.43005e-18)
(1.01905 -0.0173867 -2.98532e-18)
(1.02155 -0.0271962 -7.47274e-19)
(1.02626 -0.0314088 -8.86133e-18)
(1.03743 -0.0312128 -2.17017e-18)
(1.04854 -0.00640141 1.29711e-17)
(0.971854 0.047131 1.34114e-17)
(1.01295 0.0302424 9.56403e-19)
(1.01272 0.0309802 -1.15627e-18)
(1.01227 0.0311371 -1.92444e-18)
(1.01187 0.0313173 1.87798e-19)
(1.01152 0.0315259 1.24625e-18)
(1.01119 0.0316574 1.41495e-18)
(1.01092 0.0317398 5.1363e-19)
(1.01072 0.0317391 2.47775e-18)
(1.01061 0.0316378 -3.35024e-18)
(1.01059 0.0314144 -3.03967e-18)
(1.01068 0.031049 3.74477e-18)
(1.01088 0.0305219 -2.11311e-18)
(1.01121 0.0298165 7.08112e-19)
(1.01165 0.0289194 -1.71759e-18)
(1.0122 0.0278212 3.2492e-19)
(1.01284 0.0265183 8.58086e-19)
(1.01357 0.0250136 4.37007e-18)
(1.01435 0.0233154 -6.59377e-18)
(1.01516 0.0214376 3.20004e-18)
(1.01598 0.019401 -2.04399e-18)
(1.01678 0.0172325 3.09138e-18)
(1.01752 0.0149614 -2.25825e-18)
(1.01819 0.0126213 2.00898e-18)
(1.01874 0.0102505 1.22275e-18)
(1.01918 0.00788532 -8.9348e-20)
(1.01947 0.00556476 -8.01635e-20)
(1.0196 0.00332669 -1.79382e-18)
(1.01956 0.00120628 -3.09672e-18)
(1.01935 -0.000757873 9.67708e-19)
(1.01897 -0.00252393 -1.15035e-18)
(1.0184 -0.00404777 8.68109e-19)
(1.01767 -0.00528125 -1.38428e-19)
(1.01678 -0.00617577 -4.61959e-18)
(1.01573 -0.00667863 2.97466e-19)
(1.01455 -0.00673422 -2.57414e-18)
(1.01325 -0.00628769 1.47575e-18)
(1.01189 -0.00528088 3.12473e-18)
(1.01052 -0.00366208 1.55936e-18)
(1.00921 -0.00138441 2.44968e-19)
(1.00806 0.00159248 -4.45711e-20)
(1.00721 0.00528111 -1.50286e-19)
(1.00683 0.00964371 -3.46184e-21)
(1.00716 0.0148104 9.41716e-20)
(1.00839 0.0205903 -1.28084e-18)
(1.01051 0.0267817 1.26363e-18)
(1.01345 0.0330059 -1.79102e-18)
(1.01703 0.0385977 4.28293e-19)
(1.02095 0.0426024 3.09914e-18)
(1.02473 0.0439279 5.25218e-18)
(1.02783 0.0415691 -5.69489e-18)
(1.02988 0.0349572 3.32221e-18)
(1.03076 0.024434 -1.84068e-18)
(1.03075 0.0114003 6.32209e-19)
(1.03062 -0.0021216 -8.07514e-19)
(1.03138 -0.0138602 -2.30148e-17)
(1.03414 -0.0217511 6.20341e-18)
(1.03809 -0.0242165 -6.52625e-18)
(1.04815 -0.0224851 1.87825e-18)
(1.05794 0.00473211 1.82927e-18)
(0.971715 0.0569141 -1.23401e-17)
(1.01416 0.0313162 5.66713e-18)
(1.01392 0.031981 -3.25602e-18)
(1.01347 0.0321346 -1.32295e-18)
(1.01305 0.0323226 -1.09279e-18)
(1.01265 0.032561 2.59574e-18)
(1.01225 0.0327519 2.91704e-18)
(1.01188 0.0329298 -6.26805e-18)
(1.01154 0.0330654 8.74978e-19)
(1.01127 0.0331449 -7.35337e-19)
(1.01106 0.033149 5.27063e-18)
(1.01093 0.0330581 -3.57789e-18)
(1.0109 0.0328512 1.97817e-18)
(1.01098 0.0325075 2.62572e-18)
(1.01117 0.0320076 -5.38488e-18)
(1.01147 0.0313343 9.8281e-19)
(1.01189 0.0304745 1.96704e-18)
(1.01241 0.0294199 2.31718e-18)
(1.01303 0.0281669 -7.30835e-18)
(1.01373 0.0267175 3.46799e-18)
(1.01448 0.0250805 3.33778e-18)
(1.01525 0.0232723 -3.76613e-18)
(1.01603 0.0213131 3.30719e-19)
(1.01678 0.0192294 4.74622e-20)
(1.01746 0.0170551 1.39766e-18)
(1.01807 0.0148236 -6.36642e-19)
(1.01855 0.0125738 2.56204e-18)
(1.01891 0.0103445 2.13354e-18)
(1.01911 0.00817294 -7.57378e-19)
(1.01915 0.00610152 -2.34178e-18)
(1.019 0.00417384 -1.49793e-18)
(1.01869 0.0024399 -1.36903e-18)
(1.01819 0.000950927 1.27374e-18)
(1.01752 -0.000240737 -3.80153e-19)
(1.01669 -0.00107609 -1.06326e-18)
(1.01571 -0.00149363 1.87332e-18)
(1.01461 -0.00143087 3.24035e-20)
(1.01343 -0.000821366 1.10157e-19)
(1.01222 0.000395151 -1.06413e-18)
(1.01106 0.00227435 1.18537e-19)
(1.01005 0.00486429 -4.09953e-19)
(1.00931 0.00817736 -2.61642e-20)
(1.00901 0.0121723 6.27331e-20)
(1.00938 0.0169948 -5.33828e-19)
(1.01058 0.0223446 2.8472e-19)
(1.01262 0.0279319 -1.53065e-18)
(1.01548 0.0333777 2.61518e-20)
(1.01904 0.0380288 -5.64517e-18)
(1.02307 0.0410073 -3.65809e-18)
(1.02719 0.0413679 8.15139e-20)
(1.03092 0.0382946 7.74984e-18)
(1.03388 0.0313948 -7.72809e-19)
(1.03589 0.0211124 2.17568e-18)
(1.03705 0.008835 -1.02701e-18)
(1.03795 -0.00354718 1.2174e-19)
(1.03937 -0.0139785 6.45289e-18)
(1.04228 -0.0206308 -2.75771e-18)
(1.04566 -0.0221031 -7.55249e-19)
(1.05499 -0.0193923 -4.84044e-18)
(1.06435 0.0106272 -1.92699e-17)
(0.970868 0.0644598 2.2497e-17)
(1.01509 0.0319424 -2.08295e-18)
(1.01485 0.0325171 -3.98531e-18)
(1.01443 0.0326598 2.19897e-18)
(1.01404 0.0328452 2.82083e-18)
(1.01366 0.0330933 8.29386e-19)
(1.01325 0.0333107 -3.32481e-18)
(1.01286 0.0335353 -1.33933e-18)
(1.01248 0.033742 -1.2154e-18)
(1.01213 0.0339218 1.63978e-18)
(1.01182 0.0340597 -1.16319e-18)
(1.01156 0.0341401 2.02686e-18)
(1.01138 0.0341441 3.63813e-18)
(1.01127 0.0340529 -4.67691e-18)
(1.01126 0.0338461 1.69937e-18)
(1.01135 0.0335044 1.25936e-19)
(1.01155 0.0330099 4.19684e-18)
(1.01186 0.0323482 -2.69291e-18)
(1.01227 0.0315069 -1.1025e-18)
(1.01279 0.0304791 2.0881e-18)
(1.01338 0.0292628 -6.30298e-18)
(1.01404 0.0278641 2.42982e-18)
(1.01474 0.0262927 5.01599e-18)
(1.01546 0.0245654 -4.89641e-18)
(1.01616 0.0227084 5.54859e-18)
(1.01682 0.020748 -1.32422e-18)
(1.0174 0.0187181 -3.05768e-18)
(1.01789 0.0166545 -1.85923e-19)
(1.01825 0.0145918 1.8691e-18)
(1.01847 0.012572 -1.03754e-18)
(1.01853 0.0106388 9.46145e-20)
(1.01843 0.00884158 2.35051e-18)
(1.01816 0.00723145 6.0144e-19)
(1.01772 0.00586244 1.16417e-18)
(1.01712 0.00479433 1.57299e-18)
(1.01637 0.00409097 9.12171e-19)
(1.0155 0.00381817 -2.06447e-18)
(1.01455 0.00404619 6.51648e-21)
(1.01356 0.0048396 8.2281e-19)
(1.01261 0.00625935 -1.21755e-18)
(1.01178 0.00835832 5.02318e-19)
(1.01119 0.0111475 -2.16861e-20)
(1.01101 0.0145856 9.73376e-20)
(1.0114 0.018829 1.12133e-18)
(1.01252 0.0235043 -3.24896e-19)
(1.01438 0.0282471 -5.9449e-19)
(1.01702 0.032702 -8.49698e-19)
(1.02038 0.0362475 2.68049e-18)
(1.02429 0.0380953 -2.59802e-18)
(1.02845 0.0374449 8.40166e-18)
(1.03245 0.0336491 -2.07815e-18)
(1.03594 0.0264546 -2.41574e-18)
(1.03868 0.0163653 1.45091e-18)
(1.04067 0.00471685 1.52953e-18)
(1.04231 -0.00675111 3.09521e-19)
(1.04424 -0.0161918 1.04676e-18)
(1.04727 -0.0219609 -2.48106e-18)
(1.05031 -0.022738 -5.58703e-19)
(1.05927 -0.0191209 4.60935e-18)
(1.06858 0.0134712 1.78212e-17)
(0.969942 0.0698388 -2.10245e-17)
(1.01598 0.0326233 4.29046e-18)
(1.01575 0.0331217 -5.0579e-18)
(1.01537 0.0332297 2.81815e-18)
(1.015 0.0333784 3.39866e-19)
(1.01464 0.0335923 -1.58482e-18)
(1.01424 0.0337839 8.17577e-19)
(1.01385 0.0339956 -3.01408e-18)
(1.01346 0.0342064 -1.43164e-18)
(1.01308 0.0344116 2.2539e-18)
(1.01272 0.0346006 4.33883e-18)
(1.01239 0.0347617 -4.90682e-18)
(1.01211 0.0348802 -3.19432e-19)
(1.01189 0.0349394 2.98715e-19)
(1.01173 0.0349213 6.17099e-19)
(1.01166 0.0348074 -2.88034e-18)
(1.01168 0.0345789 3.82679e-18)
(1.0118 0.0342193 -4.01068e-18)
(1.01202 0.0337117 6.42899e-18)
(1.01235 0.0330435 -2.57783e-18)
(1.01277 0.0322053 1.16561e-18)
(1.01327 0.0311946 -5.83594e-20)
(1.01384 0.0300114 2.47555e-18)
(1.01445 0.0286633 -6.2547e-18)
(1.01509 0.027167 1.70774e-18)
(1.01573 0.0255402 -1.58419e-18)
(1.01633 0.0238091 2.32393e-18)
(1.01687 0.0220033 2.53274e-18)
(1.01732 0.0201523 -2.56003e-18)
(1.01766 0.0182943 6.79364e-19)
(1.01786 0.0164684 4.25902e-19)
(1.01793 0.0147228 -5.87608e-19)
(1.01784 0.0131047 -1.43456e-18)
(1.0176 0.0116648 3.52092e-20)
(1.01722 0.0104618 -2.61369e-18)
(1.01669 0.00955774 1.87374e-18)
(1.01606 0.00901783 -1.0806e-18)
(1.01534 0.00891211 -4.44971e-19)
(1.01458 0.0093054 -5.12836e-19)
(1.01384 0.0102606 3.51779e-19)
(1.01321 0.0118325 -5.99775e-20)
(1.01279 0.014029 -2.35671e-19)
(1.01274 0.0168119 -5.12045e-20)
(1.01316 0.0203422 -5.26722e-19)
(1.01416 0.0242079 2.45766e-20)
(1.0158 0.0279871 7.75957e-19)
(1.01816 0.0313641 4.77143e-20)
(1.02122 0.0337612 2.64712e-18)
(1.02488 0.0344845 2.52393e-18)
(1.0289 0.032868 -8.3154e-18)
(1.03295 0.0284101 5.38782e-19)
(1.0367 0.0209644 1.92537e-20)
(1.0399 0.0110642 5.68465e-19)
(1.04246 -2.78376e-05 -6.84266e-19)
(1.04465 -0.0107205 -9.30068e-20)
(1.04697 -0.0193524 -3.76676e-19)
(1.05014 -0.0244066 3.1922e-18)
(1.05304 -0.0245661 1.76759e-19)
(1.06191 -0.0199802 3.56205e-18)
(1.07146 0.0151132 -3.61661e-18)
(0.968557 0.0755185 3.84689e-17)
(1.01666 0.0330301 2.09393e-19)
(1.01643 0.0334498 3.83231e-18)
(1.01609 0.0335399 -1.76851e-18)
(1.01576 0.0336721 2.12902e-18)
(1.01544 0.0338702 -2.27635e-18)
(1.01508 0.0340495 1.06707e-18)
(1.01472 0.0342533 -4.24492e-18)
(1.01434 0.0344627 2.6467e-18)
(1.01397 0.0346761 -3.30331e-18)
(1.01361 0.0348868 1.61012e-18)
(1.01325 0.0350872 4.2667e-19)
(1.01293 0.0352665 -1.28346e-18)
(1.01264 0.0354127 3.99323e-18)
(1.0124 0.0355112 -7.01111e-18)
(1.01222 0.0355465 -2.7316e-19)
(1.01211 0.0355016 1.70727e-19)
(1.01209 0.0353605 4.87089e-18)
(1.01215 0.0351053 -3.33054e-18)
(1.01231 0.034721 4.20099e-18)
(1.01256 0.0341939 -2.76162e-18)
(1.01291 0.033516 -3.84695e-19)
(1.01333 0.0326803 -1.85679e-18)
(1.01382 0.0316867 1.91104e-18)
(1.01435 0.0305431 3.07687e-18)
(1.01491 0.029259 -2.28471e-18)
(1.01547 0.0278519 -1.84316e-18)
(1.016 0.026344 2.04451e-18)
(1.01648 0.0247575 -2.60126e-19)
(1.01687 0.0231247 -9.98915e-19)
(1.01717 0.02148 3.02222e-18)
(1.01735 0.0198648 -6.33278e-19)
(1.01741 0.0183211 -1.40498e-19)
(1.01733 0.0168952 3.51683e-19)
(1.01712 0.0156407 5.78321e-19)
(1.01679 0.0146152 5.49809e-19)
(1.01635 0.0138802 1.63679e-19)
(1.01585 0.0135022 2.53646e-22)
(1.0153 0.0135427 3.04375e-19)
(1.01477 0.0140634 -8.90882e-19)
(1.01434 0.0151185 1.9436e-19)
(1.01409 0.016711 7.9251e-20)
(1.01416 0.0188076 -1.31355e-19)
(1.01461 0.0215685 -5.89572e-19)
(1.01548 0.0245725 -4.53345e-19)
(1.01688 0.0273577 7.85319e-19)
(1.01894 0.0296581 -9.20182e-19)
(1.02168 0.0309464 6.80698e-19)
(1.02503 0.0306215 2.9685e-18)
(1.02883 0.0281382 4.23079e-18)
(1.0328 0.0231167 -5.43821e-18)
(1.03665 0.0154912 3.6506e-18)
(1.04012 0.00580264 -1.37475e-18)
(1.04306 -0.00476782 1.89276e-18)
(1.04566 -0.0147686 -9.785e-20)
(1.0483 -0.0226967 -5.32856e-19)
(1.05161 -0.0271184 1.39697e-19)
(1.05452 -0.0266859 9.67935e-19)
(1.06343 -0.0210701 -3.57204e-18)
(1.07328 0.0159965 -7.83023e-18)
(0.966783 0.0795499 -5.28104e-17)
(1.01735 0.0335799 7.86344e-19)
(1.01712 0.0339385 -7.8916e-19)
(1.01681 0.0339978 -1.64137e-18)
(1.01651 0.034094 -1.50083e-18)
(1.01621 0.0342526 2.75861e-18)
(1.01588 0.0343931 1.12604e-18)
(1.01554 0.0345611 -2.76329e-18)
(1.01519 0.0347395 -1.71128e-18)
(1.01483 0.0349292 3.54808e-18)
(1.01447 0.0351259 -4.14089e-18)
(1.01411 0.0353251 2.41999e-18)
(1.01377 0.0355192 3.70586e-18)
(1.01345 0.0356994 -2.85936e-18)
(1.01316 0.0358544 -2.81997e-19)
(1.01291 0.0359721 4.52098e-18)
(1.01272 0.0360385 -3.10774e-18)
(1.01259 0.0360399 -1.05217e-18)
(1.01253 0.0359592 4.6279e-19)
(1.01256 0.0357817 -6.55803e-19)
(1.01267 0.0354918 -2.18978e-18)
(1.01287 0.0350786 4.73375e-18)
(1.01315 0.0345306 -2.56587e-18)
(1.01351 0.033842 7.71843e-19)
(1.01392 0.0330135 -4.84284e-18)
(1.01438 0.0320475 3.83561e-18)
(1.01486 0.0309534 -1.16126e-18)
(1.01534 0.0297456 2.81896e-18)
(1.0158 0.0284392 -1.84165e-18)
(1.01621 0.0270591 7.05913e-19)
(1.01655 0.0256322 -2.30366e-18)
(1.0168 0.0241944 -9.72332e-19)
(1.01694 0.02278 2.47666e-18)
(1.01698 0.0214277 -1.31708e-18)
(1.0169 0.0201859 3.2304e-20)
(1.01673 0.019105 7.5002e-19)
(1.01647 0.0182407 -1.08388e-18)
(1.01614 0.0176532 -1.23624e-19)
(1.01578 0.0173982 -3.02094e-19)
(1.01544 0.0175333 7.72414e-19)
(1.01517 0.01811 -2.65783e-19)
(1.01508 0.0191249 1.52632e-19)
(1.01527 0.0205507 4.01983e-21)
(1.01574 0.0225417 3.77658e-19)
(1.01648 0.0246906 9.08921e-20)
(1.01765 0.0265126 1.28594e-19)
(1.01943 0.0277947 1.09237e-18)
(1.02184 0.0280635 4.07904e-19)
(1.02489 0.026805 -3.05091e-18)
(1.02843 0.0235806 -4.82518e-18)
(1.03225 0.018109 2.23241e-18)
(1.03609 0.0103845 -2.48537e-18)
(1.03971 0.000940635 -1.23973e-18)
(1.04292 -0.0091249 -1.21938e-18)
(1.04582 -0.0184863 3.54984e-19)
(1.04872 -0.0257727 1.23507e-18)
(1.05218 -0.0295988 -2.81841e-19)
(1.0552 -0.0285668 -3.57968e-18)
(1.06424 -0.0218677 -2.11747e-18)
(1.07446 0.0168849 -1.16626e-18)
(0.964344 0.0835786 4.30983e-17)
(1.01786 0.033911 -2.30844e-18)
(1.01764 0.0342055 2.39667e-18)
(1.01736 0.0342531 8.70786e-19)
(1.01709 0.0343378 -5.12158e-18)
(1.01683 0.0344828 3.88893e-18)
(1.01653 0.0346094 1.91324e-18)
(1.01623 0.0347622 -3.89098e-18)
(1.01591 0.0349248 4.18726e-18)
(1.01558 0.0350993 -3.99481e-18)
(1.01525 0.0352835 -1.4084e-18)
(1.01491 0.0354752 1.59258e-18)
(1.01457 0.0356695 2.50841e-18)
(1.01424 0.0358611 -1.98215e-18)
(1.01393 0.0360421 1.48851e-18)
(1.01365 0.0362038 -4.18814e-19)
(1.0134 0.0363355 7.13694e-19)
(1.0132 0.0364263 -1.7857e-18)
(1.01307 0.0364615 -2.31275e-18)
(1.01299 0.0364277 6.44012e-18)
(1.01299 0.0363098 -4.16794e-18)
(1.01307 0.0360962 2.54489e-18)
(1.01323 0.0357732 2.16098e-18)
(1.01346 0.0353314 -2.68585e-18)
(1.01375 0.034767 1.16572e-19)
(1.0141 0.0340768 1.34432e-18)
(1.01449 0.0332631 -3.03905e-19)
(1.0149 0.0323339 -2.76418e-18)
(1.01531 0.0312966 -4.17109e-19)
(1.01569 0.0301691 1.80364e-18)
(1.01603 0.028972 -1.22344e-18)
(1.01631 0.0277319 1.67198e-18)
(1.0165 0.0264759 -1.82437e-18)
(1.01661 0.0252352 -1.08147e-18)
(1.01664 0.0240505 -4.72343e-19)
(1.01657 0.0229648 1.30226e-20)
(1.01644 0.0220258 -3.4629e-19)
(1.01626 0.0212864 8.179e-19)
(1.01605 0.0207939 8.27089e-19)
(1.01586 0.0206003 -2.42444e-19)
(1.01574 0.0207522 -2.10722e-19)
(1.01578 0.0212388 -8.00572e-20)
(1.01607 0.0220386 -1.02801e-20)
(1.01656 0.023297 7.25485e-19)
(1.01719 0.0246365 2.30551e-19)
(1.01814 0.0255639 -3.9374e-19)
(1.01965 0.02592 -4.07531e-19)
(1.02177 0.0252844 -2.66128e-18)
(1.02453 0.0232228 2.93696e-19)
(1.02781 0.0193886 -8.27313e-19)
(1.03145 0.0135794 -4.03833e-18)
(1.03524 0.00583265 3.31802e-19)
(1.03892 -0.00333467 6.30457e-19)
(1.0423 -0.0129061 -5.20336e-19)
(1.04543 -0.0216683 4.07815e-19)
(1.04856 -0.0283609 6.52021e-19)
(1.05215 -0.0316246 2.32312e-18)
(1.05534 -0.0300184 2.98231e-18)
(1.06448 -0.0222738 7.82948e-19)
(1.07513 0.0180563 1.18965e-17)
(0.961639 0.0862148 8.07106e-18)
(1.01842 0.034403 3.30939e-18)
(1.0182 0.0346484 -2.39532e-18)
(1.01794 0.0346721 -2.71465e-18)
(1.01769 0.0347284 1.02277e-18)
(1.01745 0.0348406 3.16278e-18)
(1.01717 0.0349332 -6.2384e-18)
(1.01689 0.0350525 7.53827e-18)
(1.0166 0.0351824 -2.61056e-18)
(1.01629 0.0353259 -1.35088e-18)
(1.01597 0.0354818 -2.54963e-18)
(1.01565 0.0356494 3.6198e-18)
(1.01533 0.0358253 1.10614e-19)
(1.015 0.036006 9.9477e-19)
(1.01469 0.036186 -5.55203e-18)
(1.01439 0.0363594 3.01062e-18)
(1.01412 0.0365185 -1.72029e-18)
(1.01387 0.0366554 2.27486e-18)
(1.01368 0.0367579 -2.92037e-19)
(1.01353 0.0368151 -2.73131e-18)
(1.01345 0.0368131 1.61802e-18)
(1.01343 0.0367409 1.15681e-18)
(1.01348 0.0365843 7.45131e-19)
(1.0136 0.0363323 -2.39342e-18)
(1.01378 0.0359779 1.40286e-18)
(1.01403 0.0355142 -7.45179e-19)
(1.01432 0.0349382 1.28465e-18)
(1.01465 0.0342524 -1.03795e-18)
(1.01499 0.0334581 1.35001e-18)
(1.01532 0.0325663 -8.54907e-20)
(1.01563 0.0315901 1.10344e-18)
(1.0159 0.0305493 -6.76863e-20)
(1.01612 0.0294625 -1.8269e-20)
(1.01626 0.0283521 9.48274e-20)
(1.01634 0.0272521 -2.61088e-19)
(1.01636 0.0261966 2.34845e-19)
(1.01632 0.0252251 -7.28677e-19)
(1.01623 0.0243821 3.8178e-19)
(1.01614 0.0237052 -1.98171e-19)
(1.01607 0.0232398 -1.57826e-19)
(1.01607 0.0230259 1.91755e-19)
(1.01621 0.0230448 -6.03983e-21)
(1.01658 0.0232803 1.14888e-20)
(1.01709 0.0238662 -8.60515e-19)
(1.01761 0.0244654 -4.30218e-19)
(1.01837 0.0245884 -2.85181e-19)
(1.01965 0.0241266 -5.94627e-19)
(1.02151 0.0227105 9.08871e-19)
(1.024 0.0199776 2.02284e-18)
(1.02705 0.0156589 1.68301e-18)
(1.03051 0.00961419 2.10113e-18)
(1.0342 0.0019114 5.82791e-19)
(1.03791 -0.0069545 8.20004e-19)
(1.0414 -0.016044 -2.1578e-19)
(1.0447 -0.0242422 -1.17118e-18)
(1.04801 -0.0303804 -8.5792e-19)
(1.05174 -0.0331082 -2.21347e-18)
(1.05513 -0.0309474 -1.92604e-18)
(1.06439 -0.0222018 -5.92922e-18)
(1.07557 0.020171 -2.79996e-18)
(0.958594 0.0895294 6.44685e-18)
(1.01885 0.0346964 -3.8895e-18)
(1.01861 0.0348893 -3.73739e-18)
(1.01838 0.0349077 5.14747e-18)
(1.01816 0.0349594 -1.50838e-18)
(1.01794 0.0350649 -5.06015e-19)
(1.0177 0.0351501 -3.25052e-18)
(1.01745 0.0352596 -2.36837e-19)
(1.01718 0.0353771 4.46765e-18)
(1.0169 0.035506 -1.66357e-18)
(1.01662 0.0356457 -1.35146e-18)
(1.01632 0.0357967 1.79077e-19)
(1.01601 0.0359567 -1.32128e-18)
(1.0157 0.0361246 -4.29232e-19)
(1.0154 0.0362965 3.72534e-18)
(1.0151 0.0364692 -9.29278e-19)
(1.01481 0.0366374 -1.71732e-18)
(1.01455 0.036796 6.70756e-19)
(1.01432 0.0369351 3.65247e-18)
(1.01412 0.0370466 -3.68288e-18)
(1.01398 0.0371185 7.9543e-19)
(1.01388 0.0371415 1.51889e-18)
(1.01385 0.0371021 -5.84431e-19)
(1.01388 0.0369891 3.36771e-19)
(1.01396 0.0367941 -3.77547e-19)
(1.01411 0.0365083 1.77557e-18)
(1.01431 0.0361247 -3.22174e-19)
(1.01454 0.0356421 1.52554e-18)
(1.01481 0.0350561 -1.02289e-18)
(1.01508 0.0343724 -1.19068e-18)
(1.01534 0.0335983 -1.78584e-19)
(1.01558 0.0327444 1.1816e-18)
(1.01579 0.031823 8.5739e-19)
(1.01594 0.030848 -7.77284e-19)
(1.01604 0.0298458 -1.16837e-18)
(1.0161 0.0288424 1.33307e-18)
(1.01612 0.0278688 -4.29828e-19)
(1.0161 0.0269606 -6.24379e-19)
(1.01609 0.0261455 -4.71903e-19)
(1.0161 0.0254608 -2.183e-19)
(1.01619 0.0249399 -1.83032e-19)
(1.01641 0.0245553 -8.66585e-20)
(1.01684 0.0242953 3.61396e-20)
(1.01735 0.0242809 -1.24253e-19)
(1.01778 0.0242206 5.03241e-19)
(1.01838 0.0236386 1.09053e-19)
(1.01945 0.022471 1.76662e-18)
(1.02109 0.0203967 -1.5503e-18)
(1.02335 0.0171163 -3.28449e-18)
(1.02618 0.0124255 1.53978e-18)
(1.02946 0.006232 2.50776e-18)
(1.03306 -0.00137468 1.49396e-18)
(1.03674 -0.0099242 -1.45104e-18)
(1.0403 -0.0185482 4.17106e-19)
(1.04374 -0.0262188 5.3465e-19)
(1.0472 -0.0318441 5.97383e-19)
(1.05103 -0.034074 -1.53492e-18)
(1.05465 -0.0314086 5.02536e-19)
(1.06403 -0.0217765 9.46736e-19)
(1.07572 0.0227016 8.61251e-18)
(0.955347 0.091931 -6.39405e-17)
(1.01933 0.0351717 4.23201e-18)
(1.01909 0.0353259 -6.21766e-18)
(1.01887 0.0353261 8.52666e-19)
(1.01867 0.0353559 3.56331e-18)
(1.01846 0.0354353 -5.3919e-18)
(1.01823 0.035493 4.26432e-18)
(1.018 0.035575 -1.86658e-18)
(1.01775 0.0356649 1.16592e-18)
(1.01749 0.0357663 1.01198e-18)
(1.01722 0.0358789 -3.25144e-18)
(1.01694 0.0360036 -1.56193e-18)
(1.01666 0.0361387 4.25478e-18)
(1.01636 0.0362836 -2.51471e-19)
(1.01606 0.0364356 1.31605e-18)
(1.01577 0.0365931 -1.36708e-18)
(1.01548 0.0367528 -7.36212e-19)
(1.0152 0.0369118 -1.00558e-18)
(1.01495 0.0370626 2.04983e-18)
(1.01473 0.0371993 -1.70153e-18)
(1.01453 0.037312 1.22964e-18)
(1.01439 0.0373934 -9.29437e-20)
(1.01429 0.0374311 -2.22858e-18)
(1.01424 0.0374145 2.02392e-18)
(1.01424 0.0373351 -2.4745e-18)
(1.0143 0.037183 9.4891e-19)
(1.01441 0.0369488 -1.36358e-18)
(1.01456 0.0366287 -6.37105e-19)
(1.01474 0.0362147 4.70779e-19)
(1.01494 0.0357073 2.84563e-19)
(1.01515 0.0351079 9.7032e-19)
(1.01534 0.0344219 -1.82325e-18)
(1.01551 0.0336534 5.38765e-19)
(1.01565 0.0328083 -4.11375e-19)
(1.01575 0.0319067 7.96588e-19)
(1.01582 0.0309666 4.61617e-19)
(1.01586 0.0300105 7.21306e-19)
(1.01589 0.0290658 -2.21538e-19)
(1.01592 0.0281498 -2.54804e-19)
(1.01599 0.0272919 -1.72552e-19)
(1.01613 0.026518 1.34334e-19)
(1.0164 0.0257923 6.79539e-20)
(1.01688 0.0251064 3.2406e-20)
(1.01739 0.024568 9.96315e-20)
(1.01774 0.0239329 -4.23008e-19)
(1.01818 0.0227453 -7.8996e-19)
(1.01908 0.0209807 6.35739e-19)
(1.02053 0.0183619 1.35029e-18)
(1.0226 0.0146452 2.35884e-18)
(1.02523 0.00967979 -8.98152e-19)
(1.02835 0.00340841 8.78575e-20)
(1.03183 -0.00406341 -2.15022e-18)
(1.03548 -0.0122906 6.84976e-19)
(1.03908 -0.0204698 2.11825e-19)
(1.04261 -0.0276483 -9.3904e-19)