/*--------------------------------*- C++ -*----------------------------------*\
  =========                 |
  \\      /  F ield         | OpenFOAM: The Open Source CFD Toolbox
   \\    /   O peration     | Website:  https://openfoam.org
    \\  /    A nd           | Version:  6.0
     \\/     M anipulation  |
\*---------------------------------------------------------------------------*/
FoamFile
{
    version     2.0;
    format      ascii;
    class       volScalarField;
    location    "17";
    object      p;
}
// * * * * * * * * * * * * * * * * * * * * * * * * * * * * * * * * * * * * * //

dimensions      [0 2 -2 0 0 0 0];

internalField   nonuniform List<scalar> 
2000
(
-0.352159
-0.358055
-0.359753
-0.359079
-0.357213
-0.354531
-0.351311
-0.347842
-0.344395
-0.340694
-0.354876
-0.360355
-0.361713
-0.360737
-0.358582
-0.355625
-0.352142
-0.348413
-0.344714
-0.340889
-0.360331
-0.364957
-0.365622
-0.364036
-0.3613
-0.357786
-0.353767
-0.349501
-0.345279
-0.341199
-0.368565
-0.37186
-0.371459
-0.368946
-0.365329
-0.360967
-0.356122
-0.351013
-0.345953
-0.341465
-0.379639
-0.381062
-0.379195
-0.37543
-0.370627
-0.365121
-0.35914
-0.352834
-0.346536
-0.341429
-0.393619
-0.39255
-0.388791
-0.383446
-0.377164
-0.370224
-0.36279
-0.35488
-0.346819
-0.340759
-0.410539
-0.406283
-0.400188
-0.392955
-0.384934
-0.376318
-0.367165
-0.35727
-0.346804
-0.339197
-0.430345
-0.422163
-0.413293
-0.403896
-0.393923
-0.383447
-0.372382
-0.360137
-0.346253
-0.335567
-0.452826
-0.440015
-0.427992
-0.416227
-0.404171
-0.391703
-0.378425
-0.362871
-0.342868
-0.325089
-0.477546
-0.459575
-0.444185
-0.430097
-0.416301
-0.40258
-0.388183
-0.370532
-0.345522
-0.320876
-0.503819
-0.480416
-0.461601
-0.445418
-0.430683
-0.417757
-0.406996
-0.399037
-0.399017
-0.418131
-0.530815
-0.501956
-0.479622
-0.461076
-0.444737
-0.431049
-0.420507
-0.414147
-0.416981
-0.434268
-0.557812
-0.523737
-0.497973
-0.476953
-0.458587
-0.443222
-0.431239
-0.423336
-0.422537
-0.430431
-0.584159
-0.545286
-0.516341
-0.492876
-0.472238
-0.454589
-0.440103
-0.429017
-0.422755
-0.42148
-0.609108
-0.565934
-0.534102
-0.508202
-0.484986
-0.464412
-0.446451
-0.430973
-0.418373
-0.408776
-0.631666
-0.584747
-0.550312
-0.521924
-0.495775
-0.471688
-0.44955
-0.429053
-0.41003
-0.393235
-0.65055
-0.600513
-0.563738
-0.532755
-0.503314
-0.475244
-0.448515
-0.422834
-0.397807
-0.375109
-0.664197
-0.611774
-0.572916
-0.539211
-0.506174
-0.473821
-0.442379
-0.411714
-0.381419
-0.354161
-0.670841
-0.616891
-0.576223
-0.539697
-0.502877
-0.466164
-0.430177
-0.395027
-0.360404
-0.329891
-0.668613
-0.614119
-0.571959
-0.532598
-0.491988
-0.451099
-0.411024
-0.372134
-0.334245
-0.301708
-0.655656
-0.601715
-0.558455
-0.516385
-0.472215
-0.42762
-0.384187
-0.342509
-0.302492
-0.26907
-0.630231
-0.578035
-0.534171
-0.489716
-0.442498
-0.394967
-0.349162
-0.305814
-0.264853
-0.231605
-0.590866
-0.541669
-0.497827
-0.451553
-0.402098
-0.352689
-0.30572
-0.261953
-0.221264
-0.189173
-0.536461
-0.491558
-0.448512
-0.401245
-0.35066
-0.300689
-0.253941
-0.211107
-0.171927
-0.14192
-0.466415
-0.427103
-0.385779
-0.338594
-0.288242
-0.239218
-0.194204
-0.153726
-0.117318
-0.0902778
-0.380729
-0.348271
-0.309721
-0.263895
-0.215305
-0.16884
-0.127111
-0.0904325
-0.0580784
-0.0348821
-0.280096
-0.25567
-0.221023
-0.177946
-0.132709
-0.0903983
-0.0534392
-0.0219319
0.00506385
0.0234314
-0.16596
-0.150592
-0.120972
-0.0820421
-0.0416917
-0.00503495
0.025755
0.0506622
0.070586
0.0826223
-0.0405361
-0.0350154
-0.0114235
0.0221434
0.0563628
0.0861995
0.109624
0.126179
0.136044
0.138977
0.0932124
0.088412
0.105205
0.132576
0.160127
0.183127
0.199608
0.207966
0.20694
0.200509
0.231704
0.216417
0.225804
0.246354
0.267136
0.284259
0.296497
0.302128
0.301014
0.31353
0.371037
0.345349
0.346756
0.359614
0.372668
0.382657
0.388764
0.390159
0.388972
0.400803
0.507266
0.471533
0.464646
0.469232
0.473917
0.476012
0.475
0.470496
0.46468
0.468936
0.636545
0.591357
0.576185
0.572311
0.56844
0.562465
0.554171
0.543425
0.532056
0.528553
0.755217
0.701383
0.678279
0.66619
0.654049
0.640308
0.625027
0.608254
0.591498
0.581057
0.8599
0.798446
0.76811
0.74848
0.728792
0.708018
0.68645
0.66428
0.642712
0.626222
0.947582
0.879739
0.843194
0.817068
0.790923
0.764172
0.737301
0.710615
0.685022
0.663476
1.01571
0.942895
0.90144
0.87017
0.838939
0.807509
0.776512
0.746337
0.717631
0.69215
1.06229
0.986064
0.941211
0.906382
0.871647
0.837006
0.803191
0.770644
0.739818
0.711638
1.08592
1.00797
0.961383
0.924736
0.888215
0.851942
0.816697
0.782951
0.751051
0.721499
1.08592
1.00797
0.961383
0.924736
0.888215
0.851942
0.816697
0.782951
0.751052
0.721499
1.06229
0.986064
0.941211
0.906382
0.871647
0.837007
0.803191
0.770644
0.739818
0.711638
1.01571
0.942895
0.90144
0.87017
0.83894
0.80751
0.776512
0.746337
0.717631
0.69215
0.947582
0.879739
0.843194
0.817069
0.790923
0.764172
0.737301
0.710615
0.685023
0.663476
0.859901
0.798446
0.76811
0.74848
0.728793
0.708019
0.68645
0.664281
0.642713
0.626222
0.755218
0.701384
0.678279
0.666191
0.654049
0.640309
0.625027
0.608254
0.591498
0.581057
0.636546
0.591358
0.576185
0.572311
0.568441
0.562465
0.554171
0.543426
0.532056
0.528553
0.507266
0.471533
0.464647
0.469233
0.473918
0.476012
0.475001
0.470496
0.46468
0.468937
0.371037
0.34535
0.346756
0.359614
0.372669
0.382658
0.388765
0.39016
0.388973
0.400803
0.231704
0.216418
0.225805
0.246354
0.267137
0.284259
0.296498
0.302128
0.301015
0.31353
0.0932131
0.0884126
0.105206
0.132576
0.160128
0.183128
0.199609
0.207967
0.20694
0.20051
-0.0405354
-0.0350147
-0.0114229
0.0221441
0.0563635
0.0862001
0.109624
0.126179
0.136045
0.138977
-0.165959
-0.150592
-0.120971
-0.0820415
-0.041691
-0.00503427
0.0257556
0.0506629
0.0705866
0.0826229
-0.280096
-0.25567
-0.221022
-0.177946
-0.132708
-0.0903975
-0.0534385
-0.0219312
0.00506452
0.023432
-0.380729
-0.34827
-0.30972
-0.263894
-0.215304
-0.168839
-0.127111
-0.0904318
-0.0580777
-0.0348814
-0.466414
-0.427102
-0.385778
-0.338594
-0.288241
-0.239217
-0.194203
-0.153725
-0.117317
-0.0902771
-0.53646
-0.491557
-0.448511
-0.401244
-0.350659
-0.300688
-0.25394
-0.211106
-0.171926
-0.141919
-0.590865
-0.541669
-0.497826
-0.451553
-0.402097
-0.352688
-0.305719
-0.261952
-0.221263
-0.189173
-0.630231
-0.578034
-0.53417
-0.489716
-0.442497
-0.394966
-0.349161
-0.305813
-0.264853
-0.231604
-0.655655
-0.601714
-0.558454
-0.516384
-0.472214
-0.427619
-0.384187
-0.342509
-0.302491
-0.269069
-0.668613
-0.614118
-0.571959
-0.532597
-0.491987
-0.451098
-0.411023
-0.372133
-0.334244
-0.301707
-0.67084
-0.61689
-0.576222
-0.539696
-0.502876
-0.466163
-0.430176
-0.395026
-0.360403
-0.329891
-0.664196
-0.611774
-0.572916
-0.53921
-0.506173
-0.473821
-0.442378
-0.411713
-0.381419
-0.35416
-0.650549
-0.600512
-0.563738
-0.532754
-0.503314
-0.475243
-0.448514
-0.422834
-0.397806
-0.375109
-0.631666
-0.584746
-0.550312
-0.521923
-0.495774
-0.471687
-0.44955
-0.429053
-0.410029
-0.393235
-0.609107
-0.565933
-0.534102
-0.508202
-0.484985
-0.464412
-0.446451
-0.430973
-0.418372
-0.408776
-0.584159
-0.545285
-0.51634
-0.492876
-0.472237
-0.454589
-0.440102
-0.429017
-0.422755
-0.42148
-0.557812
-0.523737
-0.497972
-0.476952
-0.458586
-0.443221
-0.431238
-0.423335
-0.422537
-0.43043
-0.530815
-0.501956
-0.479621
-0.461076
-0.444736
-0.431049
-0.420507
-0.414147
-0.416981
-0.434268
-0.503818
-0.480415
-0.461601
-0.445417
-0.430683
-0.417757
-0.406995
-0.399037
-0.399017
-0.41813
-0.477546
-0.459575
-0.444184
-0.430097
-0.416301
-0.40258
-0.388183
-0.370532
-0.345521
-0.320876
-0.452825
-0.440015
-0.427992
-0.416227
-0.404171
-0.391703
-0.378425
-0.362871
-0.342868
-0.325089
-0.430345
-0.422163
-0.413293
-0.403896
-0.393923
-0.383447
-0.372382
-0.360137
-0.346253
-0.335567
-0.410538
-0.406283
-0.400187
-0.392955
-0.384934
-0.376318
-0.367165
-0.35727
-0.346804
-0.339197
-0.393618
-0.39255
-0.388791
-0.383446
-0.377163
-0.370224
-0.36279
-0.35488
-0.346819
-0.340759
-0.379639
-0.381061
-0.379195
-0.37543
-0.370627
-0.365121
-0.35914
-0.352834
-0.346536
-0.341429
-0.368565
-0.37186
-0.371459
-0.368946
-0.365329
-0.360967
-0.356122
-0.351013
-0.345953
-0.341465
-0.360331
-0.364957
-0.365621
-0.364036
-0.3613
-0.357786
-0.353767
-0.349501
-0.345279
-0.341199
-0.354876
-0.360355
-0.361713
-0.360737
-0.358582
-0.355625
-0.352142
-0.348413
-0.344714
-0.340889
-0.352159
-0.358055
-0.359753
-0.359079
-0.357213
-0.354531
-0.351311
-0.347842
-0.344395
-0.340694
-0.294672
-0.129627
-0.0843992
-0.0330826
-0.0217275
-0.00979013
-0.00647663
-0.00212011
-0.00175625
0.00275498
-0.295907
-0.130181
-0.084676
-0.0332873
-0.0218019
-0.00985445
-0.00651277
-0.00214838
-0.00177292
0.00273044
-0.298308
-0.131274
-0.0852236
-0.0336978
-0.0219503
-0.00998263
-0.00658465
-0.00220459
-0.00180575
0.00268171
-0.30173
-0.13288
-0.0860298
-0.0343154
-0.0221718
-0.010174
-0.00669142
-0.00228813
-0.00185392
0.00260937
-0.305932
-0.134956
-0.0870683
-0.0351378
-0.0224636
-0.0104267
-0.00683164
-0.0023981
-0.00191614
0.0025142
-0.310567
-0.137431
-0.0882908
-0.0361512
-0.0228189
-0.0107367
-0.00700289
-0.00253305
-0.00199078
0.0023973
-0.315495
-0.140365
-0.0896983
-0.0373491
-0.0232367
-0.0111
-0.00720322
-0.00269046
-0.00207676
0.00226107
-0.321109
-0.144352
-0.0915246
-0.0388202
-0.0237553
-0.0115276
-0.00743762
-0.00286885
-0.00217505
0.00210944
-0.325645
-0.14975
-0.0939355
-0.0407185
-0.0244265
-0.0120477
-0.0077161
-0.00307558
-0.00228336
0.00193882
-0.318603
-0.152443
-0.0951993
-0.042482
-0.0249893
-0.0125812
-0.0079945
-0.0033228
-0.00237438
0.00171849
-0.250821
-0.144091
-0.0915912
-0.0458748
-0.0255571
-0.0140452
-0.00875741
-0.00431157
-0.00257809
0.000718237
-0.192807
-0.135504
-0.0855604
-0.0472539
-0.0272532
-0.016475
-0.0105665
-0.00587935
-0.00331437
-0.000382875
-0.151795
-0.117777
-0.0759362
-0.045595
-0.0285225
-0.0186221
-0.0123351
-0.00737358
-0.00406607
-0.00113397
-0.112161
-0.096763
-0.0663215
-0.0434259
-0.0293976
-0.020318
-0.0138089
-0.00864613
-0.00470319
-0.00158261
-0.0827695
-0.0793318
-0.0594239
-0.0420629
-0.0300876
-0.0215648
-0.0149535
-0.00965182
-0.00523624
-0.0018441
-0.0624952
-0.0663459
-0.054425
-0.0410153
-0.0304044
-0.0223295
-0.0157576
-0.0103996
-0.00567957
-0.00201476
-0.0493265
-0.0569752
-0.0505469
-0.0400264
-0.0304295
-0.0227489
-0.0162962
-0.0109399
-0.00603965
-0.00214239
-0.0409772
-0.0504339
-0.0475752
-0.0391678
-0.0303454
-0.0229758
-0.0166477
-0.0113158
-0.00631391
-0.0022395
-0.0360893
-0.0462788
-0.0455633
-0.0385654
-0.0302678
-0.0230962
-0.0168581
-0.0115511
-0.0064983
-0.00230401
-0.0338206
-0.0442458
-0.0445501
-0.0382704
-0.0302352
-0.0231483
-0.0169561
-0.0116605
-0.00659335
-0.00233245
-0.22267
-0.250719
-0.276712
-0.300925
-0.323736
-0.345633
-0.367218
-0.389114
-0.411795
-0.435782
-0.0705703
-0.0806555
-0.089739
-0.0980639
-0.10594
-0.113756
-0.121979
-0.131164
-0.141914
-0.155979
-0.0485504
-0.0577131
-0.0664881
-0.074848
-0.0827541
-0.0901592
-0.0970167
-0.103296
-0.108988
-0.114201
-0.0217248
-0.0274219
-0.0329118
-0.0382132
-0.043348
-0.0483394
-0.0532107
-0.0579838
-0.062655
-0.0670911
-0.0162423
-0.0205904
-0.0248127
-0.0289058
-0.0328655
-0.0366879
-0.0403693
-0.0439065
-0.0472763
-0.0504369
-0.0111372
-0.0143486
-0.017501
-0.0205935
-0.0236254
-0.0265964
-0.0295058
-0.0323525
-0.035122
-0.037809
-0.010073
-0.0126085
-0.0151077
-0.0175666
-0.0199817
-0.0223498
-0.0246685
-0.0269354
-0.0291427
-0.031298
-0.00927074
-0.0113278
-0.0133686
-0.015389
-0.0173854
-0.0193544
-0.0212929
-0.023198
-0.0250651
-0.0268977
-0.00919728
-0.0109719
-0.0127387
-0.0144932
-0.0162312
-0.0179488
-0.0196425
-0.0213091
-0.0229459
-0.0245514
-0.00914091
-0.0107667
-0.0123899
-0.0140069
-0.0156141
-0.0172081
-0.0187859
-0.0203445
-0.0218821
-0.0233948
0.163315
0.122285
0.0773641
0.0344519
-0.00725512
-0.0480857
-0.087424
-0.124722
-0.15973
-0.192374
0.114453
0.0885958
0.0620929
0.0393408
0.0191978
0.000502797
-0.0168092
-0.0325389
-0.0466632
-0.0592923
0.0698992
0.0541969
0.0393405
0.0264543
0.0145871
0.00310783
-0.00804411
-0.0187863
-0.0291003
-0.0390138
0.049885
0.0408572
0.0323051
0.0246323
0.0173838
0.0103087
0.00341315
-0.00324644
-0.00965021
-0.0158053
0.0343402
0.0284046
0.0226967
0.0174172
0.0123276
0.0073075
0.00236571
-0.00246741
-0.00717997
-0.0117715
0.0241256
0.0202491
0.0164269
0.0128002
0.00926307
0.00575321
0.00227303
-0.00116147
-0.00454246
-0.00786803
0.0164215
0.0136986
0.0109557
0.0082839
0.00563892
0.00299155
0.000344193
-0.00229239
-0.00491058
-0.00750554
0.0112485
0.00925834
0.00722164
0.00519211
0.00315582
0.00110154
-0.000968011
-0.00304563
-0.00512516
-0.0072017
0.00791605
0.00632525
0.00468706
0.00302518
0.00133709
-0.000378623
-0.0021179
-0.00387484
-0.0056438
-0.00741962
0.00632098
0.00490485
0.00344589
0.00195434
0.000431755
-0.00111938
-0.00269463
-0.00428903
-0.00589784
-0.00751658
0.331722
0.331035
0.329399
0.326412
0.321308
0.312845
0.299253
0.278156
0.246928
0.202359
0.241986
0.240965
0.238312
0.233716
0.226865
0.217318
0.204498
0.187756
0.166347
0.139757
0.171278
0.170242
0.167545
0.162995
0.156509
0.147961
0.137148
0.123853
0.10766
0.0886689
0.119732
0.118918
0.116788
0.113202
0.108164
0.101685
0.0937499
0.0843673
0.0734604
0.0613776
0.0834453
0.0828531
0.0812944
0.0786643
0.0749851
0.0702992
0.0646333
0.0580244
0.0504519
0.0421297
0.0582971
0.0578714
0.0567486
0.054854
0.0522118
0.0488664
0.044854
0.0402182
0.0349766
0.0292792
0.0411646
0.0408535
0.0400327
0.0386481
0.0367191
0.0342811
0.0313637
0.0279992
0.0242069
0.0200726
0.0298902
0.0296542
0.0290314
0.027981
0.0265183
0.024671
0.0224628
0.0199185
0.0170586
0.0139363
0.0230612
0.0228695
0.022364
0.0215113
0.020324
0.0188238
0.0170296
0.01496
0.0126327
0.0100799
0.0198413
0.01967
0.0192189
0.0184584
0.0173992
0.0160604
0.0144587
0.0126098
0.0105308
0.00824512
0.482298
0.48398
0.490364
0.501525
0.517378
0.538241
0.564576
0.596906
0.63576
0.681371
0.480055
0.481712
0.488016
0.499022
0.514627
0.535113
0.560885
0.592379
0.629983
0.67381
0.475621
0.477235
0.483386
0.494089
0.50921
0.528958
0.553621
0.583464
0.618594
0.658895
0.469095
0.470657
0.476598
0.486872
0.501294
0.519969
0.543014
0.570437
0.601917
0.637031
0.460616
0.462132
0.467826
0.477565
0.491107
0.508416
0.529387
0.553688
0.580418
0.6088
0.450351
0.451846
0.457275
0.466399
0.478906
0.494599
0.513103
0.533669
0.554671
0.574934
0.438495
0.440037
0.445222
0.453688
0.46505
0.478924
0.494626
0.510911
0.525349
0.536288
0.42525
0.427023
0.432094
0.439973
0.450215
0.462217
0.474918
0.486435
0.493436
0.493622
0.410695
0.412947
0.418099
0.425521
0.434757
0.444984
0.454691
0.461168
0.459932
0.44648
0.394506
0.396963
0.401738
0.408098
0.415604
0.423303
0.4294
0.430655
0.422215
0.394809
0.394506
0.396963
0.401738
0.408098
0.415604
0.423304
0.429401
0.430655
0.422215
0.394809
0.410695
0.412948
0.418099
0.425521
0.434758
0.444984
0.454692
0.461169
0.459933
0.44648
0.425251
0.427023
0.432095
0.439973
0.450215
0.462217
0.474918
0.486435
0.493436
0.493622
0.438495
0.440037
0.445222
0.453688
0.46505
0.478924
0.494626
0.510911
0.525349
0.536288
0.450352
0.451846
0.457275
0.466399
0.478906
0.494599
0.513104
0.533669
0.554672
0.574935
0.460616
0.462132
0.467826
0.477565
0.491107
0.508417
0.529387
0.553689
0.580419
0.6088
0.469095
0.470657
0.476599
0.486872
0.501294
0.51997
0.543014
0.570437
0.601918
0.637031
0.475621
0.477235
0.483386
0.49409
0.50921
0.528958
0.553621
0.583464
0.618594
0.658895
0.480055
0.481713
0.488016
0.499022
0.514627
0.535113
0.560885
0.592379
0.629983
0.67381
0.482298
0.48398
0.490364
0.501525
0.517378
0.538241
0.564576
0.596906
0.63576
0.681371
0.0198422
0.0196709
0.0192198
0.0184594
0.0174001
0.0160613
0.0144596
0.0126107
0.0105317
0.00824604
0.0230621
0.0228704
0.0223649
0.0215122
0.0203249
0.0188247
0.0170305
0.0149608
0.0126335
0.0100807
0.0298911
0.0296551
0.0290323
0.0279819
0.0265192
0.0246718
0.0224637
0.0199194
0.0170595
0.0139371
0.0411654
0.0408544
0.0400336
0.0386489
0.03672
0.0342819
0.0313646
0.028
0.0242077
0.0200735
0.0582979
0.0578722
0.0567494
0.0548548
0.0522126
0.0488672
0.0448548
0.0402189
0.0349774
0.02928
0.0834461
0.0828539
0.0812952
0.0786651
0.0749859
0.0703
0.0646341
0.0580252
0.0504527
0.0421304
0.119733
0.118919
0.116789
0.113203
0.108165
0.101686
0.0937506
0.084368
0.0734611
0.0613783
0.171279
0.170242
0.167546
0.162996
0.15651
0.147962
0.137149
0.123854
0.10766
0.0886695
0.241986
0.240966
0.238313
0.233717
0.226866
0.217318
0.204499
0.187756
0.166347
0.139757
0.331722
0.331036
0.3294
0.326413
0.321309
0.312846
0.299253
0.278156
0.246929
0.202359
0.0063219
0.00490578
0.00344682
0.00195527
0.000432675
-0.00111846
-0.00269371
-0.00428812
-0.00589694
-0.00751568
0.00791691
0.00632612
0.00468793
0.00302607
0.00133798
-0.000377722
-0.002117
-0.00387393
-0.00564289
-0.00741871
0.0112493
0.00925919
0.0072225
0.00519298
0.00315669
0.00110242
-0.000967124
-0.00304474
-0.00512427
-0.00720082
0.0164223
0.0136994
0.0109565
0.00828475
0.00563978
0.00299241
0.000345052
-0.00229153
-0.00490972
-0.00750469
0.0241264
0.0202499
0.0164277
0.012801
0.00926387
0.00575402
0.00227385
-0.00116065
-0.00454163
-0.00786719
0.0343409
0.0284053
0.0226975
0.0174179
0.0123283
0.00730825
0.00236647
-0.00246665
-0.00717922
-0.0117708
0.0498857
0.0408579
0.0323058
0.024633
0.0173845
0.0103095
0.00341387
-0.00324572
-0.00964948
-0.0158046
0.0698999
0.0541976
0.0393412
0.0264549
0.0145877
0.00310848
-0.00804346
-0.0187857
-0.0290996
-0.0390132
0.114454
0.0885964
0.0620935
0.0393414
0.0191985
0.000503446
-0.0168085
-0.0325382
-0.0466625
-0.0592916
0.163316
0.122286
0.0773647
0.0344525
-0.0072545
-0.0480851
-0.0874234
-0.124721
-0.159729
-0.192373
-0.00914004
-0.0107658
-0.0123891
-0.0140061
-0.0156133
-0.0172073
-0.0187851
-0.0203438
-0.0218814
-0.0233941
-0.00919639
-0.010971
-0.0127378
-0.0144924
-0.0162304
-0.017948
-0.0196418
-0.0213084
-0.0229452
-0.0245508
-0.00926986
-0.0113269
-0.0133677
-0.0153882
-0.0173847
-0.0193536
-0.0212922
-0.0231973
-0.0250644
-0.0268971
-0.0100721
-0.0126077
-0.0151069
-0.0175659
-0.0199809
-0.0223491
-0.0246678
-0.0269347
-0.0291421
-0.0312973
-0.0111364
-0.0143478
-0.0175002
-0.0205927
-0.0236247
-0.0265956
-0.0295051
-0.0323518
-0.0351213
-0.0378084
-0.0162415
-0.0205897
-0.024812
-0.028905
-0.0328648
-0.0366872
-0.0403686
-0.0439058
-0.0472757
-0.0504363
-0.0217241
-0.0274212
-0.0329111
-0.0382126
-0.0433474
-0.0483388
-0.05321
-0.0579831
-0.0626543
-0.0670905
-0.0485498
-0.0577125
-0.0664874
-0.0748474
-0.0827535
-0.0901586
-0.0970161
-0.103295
-0.108988
-0.114201
-0.0705696
-0.0806548
-0.0897384
-0.0980633
-0.10594
-0.113755
-0.121979
-0.131164
-0.141913
-0.155979
-0.222669
-0.250719
-0.276711
-0.300925
-0.323735
-0.345632
-0.367217
-0.389114
-0.411795
-0.435782
-0.0338201
-0.0442454
-0.0445499
-0.0382703
-0.0302352
-0.0231483
-0.0169562
-0.0116605
-0.00659327
-0.00233242
-0.0360888
-0.0462785
-0.045563
-0.0385653
-0.0302678
-0.0230962
-0.0168582
-0.0115511
-0.00649821
-0.00230397
-0.0409767
-0.0504335
-0.0475749
-0.0391676
-0.0303454
-0.0229758
-0.0166477
-0.0113157
-0.00631379
-0.00223944
-0.0493259
-0.0569747
-0.0505465
-0.0400262
-0.0304295
-0.0227488
-0.0162961
-0.0109398
-0.00603948
-0.0021423
-0.0624947
-0.0663454
-0.0544246
-0.0410151
-0.0304044
-0.0223294
-0.0157575
-0.0103994
-0.00567933
-0.00201463
-0.082769
-0.0793313
-0.0594236
-0.0420628
-0.0300877
-0.0215648
-0.0149534
-0.00965157
-0.00523592
-0.00184394
-0.112161
-0.0967625
-0.0663211
-0.0434258
-0.0293979
-0.0203181
-0.0138087
-0.00864578
-0.00470275
-0.00158241
-0.151795
-0.117776
-0.0759358
-0.0455951
-0.028523
-0.0186224
-0.0123348
-0.00737307
-0.00406549
-0.00113372
-0.192806
-0.135503
-0.0855598
-0.0472541
-0.027254
-0.0164754
-0.0105663
-0.00587873
-0.00331368
-0.00038258
-0.250821
-0.14409
-0.0915904
-0.0458749
-0.0255581
-0.0140458
-0.00875733
-0.00431097
-0.00257738
0.000718526
-0.318603
-0.152442
-0.0951985
-0.0424821
-0.0249902
-0.0125817
-0.00799449
-0.00332233
-0.00237381
0.0017187
-0.325645
-0.149749
-0.0939348
-0.0407186
-0.0244273
-0.0120481
-0.0077161
-0.00307514
-0.00228282
0.00193901
-0.321109
-0.144351
-0.0915239
-0.0388203
-0.023756
-0.011528
-0.00743764
-0.00286844
-0.00217454
0.00210962
-0.315495
-0.140365
-0.0896977
-0.0373492
-0.0232374
-0.0111003
-0.00720324
-0.00269009
-0.0020763
0.00226123
-0.310567
-0.13743
-0.0882903
-0.0361513
-0.0228195
-0.010737
-0.00700292
-0.00253272
-0.00199037
0.00239744
-0.305932
-0.134956
-0.0870678
-0.0351379
-0.0224641
-0.0104269
-0.00683168
-0.00239783
-0.00191579
0.00251432
-0.30173
-0.13288
-0.0860294
-0.0343155
-0.0221722
-0.0101741
-0.00669147
-0.00228792
-0.00185363
0.00260947
-0.298308
-0.131274
-0.0852233
-0.0336979
-0.0219506
-0.00998269
-0.0065847
-0.00220445
-0.00180553
0.00268179
-0.295907
-0.130181
-0.0846758
-0.0332874
-0.0218021
-0.00985443
-0.00651282
-0.0021483
-0.00177277
0.0027305
-0.294672
-0.129627
-0.0843991
-0.0330826
-0.0217276
-0.00979009
-0.00647666
-0.00212008
-0.00175621
0.00275501
)
;

boundaryField
{
    inlet
    {
        type            zeroGradient;
    }
    outlet
    {
        type            fixedValue;
        value           uniform 0;
    }
    cylinder
    {
        type            zeroGradient;
    }
    top
    {
        type            symmetryPlane;
    }
    bottom
    {
        type            symmetryPlane;
    }
    defaultFaces
    {
        type            empty;
    }
}


// ************************************************************************* //
