1.275 	2.15223e-18 	-2.76991e-20 	-0.0341716 	-0.00044746 	-1.97266e-22
1.825 	2.15223e-18 	-1.39322e-20 	-0.00893529 	-0.00276771 	1.76782e-21
2.375 	2.15223e-18 	-2.66896e-23 	0.116816 	-0.00325262 	-7.37989e-22
