1.45 	0 	0 	-0.00806032 	-0.00257273 	3.7893e-21
2.35 	0 	0 	0.0614436 	-0.00663577 	2.29541e-21
