1.45 	0 	0 	-0.305406
2.35 	0 	0 	-0.13367
