/*--------------------------------*- C++ -*----------------------------------*\
  =========                 |
  \\      /  F ield         | OpenFOAM: The Open Source CFD Toolbox
   \\    /   O peration     | Website:  https://openfoam.org
    \\  /    A nd           | Version:  6.0
     \\/     M anipulation  |
\*---------------------------------------------------------------------------*/
FoamFile
{
    version     2.0;
    format      ascii;
    class       surfaceScalarField;
    location    "31";
    object      phi;
}
// * * * * * * * * * * * * * * * * * * * * * * * * * * * * * * * * * * * * * //

dimensions      [0 3 -1 0 0 0 0];

internalField   nonuniform List<scalar> 
68636
(
3.02336e-05
0.00310559
1.42946e-08
6.08646e-05
0.00307067
9.11135e-05
0.00300248
0.000120482
0.00290156
0.000148616
0.00276877
0.000175165
0.00260548
0.000199813
0.00241358
0.000222266
0.00219529
0.00024227
0.00195301
0.000259597
0.00168937
0.00027405
0.00140722
0.00028547
0.00110956
0.000293739
0.00079973
0.000298746
0.000480357
0.000150928
0.000298791
2.99589e-05
0.00307561
1.38967e-08
6.03053e-05
0.00304032
9.02719e-05
0.00297253
0.000119371
0.00287248
0.000147252
0.00274092
0.000173563
0.0025792
0.000197989
0.00238919
0.000220238
0.00217307
0.000240059
0.00193323
0.000257227
0.00167225
0.00027155
0.00139295
0.000282862
0.00109831
0.000291086
0.000791573
0.000295895
0.000475644
0.000150831
0.000296154
2.96824e-05
0.00304592
1.25962e-08
5.97437e-05
0.00301026
8.94335e-05
0.00294285
0.000118271
0.00284365
0.000145905
0.00271329
0.000171981
0.00255313
0.000196187
0.00236499
0.000218233
0.00215103
0.000237873
0.0019136
0.000254884
0.00165523
0.000269078
0.00137876
0.00028028
0.0010871
0.000288434
0.00078341
0.000293294
0.000470768
0.000150094
0.000293973
2.94058e-05
0.0030165
1.22978e-08
5.91856e-05
0.00298048
8.86041e-05
0.00291345
0.000117186
0.00281508
0.000144575
0.00268592
0.000170417
0.00252731
0.000194402
0.00234103
0.000216247
0.00212921
0.000235707
0.00189416
0.000252563
0.00163841
0.000266627
0.00136473
0.000277722
0.00107605
0.000285788
0.000775396
0.000290654
0.000465977
0.000149279
0.00029159
2.91302e-05
0.00298736
1.21185e-08
5.86334e-05
0.00295098
8.77853e-05
0.0028843
0.000116113
0.00278675
0.000143258
0.00265878
0.000168867
0.0025017
0.000192633
0.00231727
0.000214277
0.00210756
0.00023356
0.00187488
0.000250262
0.0016217
0.000264198
0.00135079
0.000275189
0.00106504
0.00028316
0.00076741
0.000287983
0.000461132
0.000148104
0.00028909
2.88565e-05
0.00295849
1.49535e-08
5.8088e-05
0.00292175
8.69772e-05
0.00285542
0.000115054
0.00275868
0.000141955
0.00263189
0.000167331
0.00247634
0.00019088
0.00229374
0.000212325
0.00208614
0.000231432
0.0018558
0.00024798
0.00160518
0.00026179
0.00133701
0.000272681
0.00105419
0.00028056
0.000759573
0.000285325
0.000456429
0.000146988
0.000286541
2.85854e-05
0.00292988
2.03947e-08
5.75501e-05
0.00289278
8.61796e-05
0.00282679
0.000114006
0.00273086
0.000140665
0.00260524
0.00016581
0.0024512
0.000189142
0.00227041
0.000210391
0.00206488
0.000229322
0.00183686
0.00024572
0.00158877
0.000259404
0.00132331
0.000270197
0.00104338
0.00027799
0.000751762
0.000282695
0.000451697
0.00014564
0.00028397
2.83175e-05
0.00290154
2.85778e-08
5.70196e-05
0.00286408
8.53921e-05
0.00279843
0.000112969
0.00270329
0.000139386
0.00257883
0.000164301
0.00242629
0.00018742
0.0022473
0.000208474
0.00204385
0.000227232
0.00181812
0.00024348
0.00157255
0.000257039
0.00130978
0.000267735
0.00103272
0.000275448
0.000744086
0.000280095
0.000447106
0.000144415
0.000281407
2.8053e-05
0.00287344
3.92313e-08
5.64962e-05
0.00283563
8.46138e-05
0.00277031
0.000111942
0.00267596
0.000138118
0.00255265
0.000162805
0.0024016
0.000185712
0.00222439
0.000206574
0.00202298
0.000225161
0.00179953
0.000241261
0.00155644
0.000254696
0.00129633
0.000265297
0.0010221
0.000272934
0.000736429
0.000277526
0.000442485
0.000143006
0.000278861
2.7792e-05
0.0028456
5.0308e-08
5.59794e-05
0.00280745
8.38438e-05
0.00274245
0.000110925
0.00264888
0.000136861
0.00252673
0.000161322
0.00237716
0.000184019
0.00220171
0.000204691
0.00200232
0.000223108
0.00178113
0.000239062
0.0015405
0.000252373
0.00128304
0.00026288
0.00101162
0.000270445
0.000728896
0.000274988
0.000437991
0.000141743
0.000276328
2.75346e-05
0.00281801
6.05836e-08
5.54686e-05
0.00277951
8.30814e-05
0.00271484
0.000109916
0.00262205
0.000135615
0.00250103
0.00015985
0.00235291
0.00018234
0.00217922
0.000202823
0.00198183
0.000221074
0.00176287
0.000236882
0.00152468
0.000250072
0.00126984
0.000260485
0.00100119
0.000267981
0.000721379
0.000272476
0.000433466
0.000140334
0.000273812
2.72804e-05
0.00279066
6.81897e-08
5.49631e-05
0.00275184
8.23258e-05
0.00268748
0.000108916
0.00259546
0.000134379
0.00247557
0.000158392
0.00232891
0.000180675
0.00215694
0.000200972
0.00196154
0.000219057
0.0017448
0.000234722
0.00150904
0.000247791
0.00125679
0.000258111
0.000990896
0.000265539
0.00071398
0.000269991
0.000429058
0.000139074
0.000271322
2.70293e-05
0.00276356
7.17542e-08
5.44622e-05
0.0027244
8.15765e-05
0.00266037
0.000107924
0.00256911
0.000133153
0.00245034
0.000156946
0.00230511
0.000179026
0.00213486
0.000199138
0.00194142
0.000217058
0.00172687
0.000232581
0.0014935
0.000245531
0.00124383
0.000255757
0.000980654
0.000263119
0.000706596
0.000267531
0.000424616
0.000137669
0.000268863
2.6781e-05
0.00273671
7.13176e-08
5.39656e-05
0.00269722
8.08331e-05
0.00263351
0.00010694
0.00254301
0.000131938
0.00242535
0.000155513
0.00228155
0.000177391
0.00211299
0.00019732
0.00192151
0.000215078
0.00170912
0.00023046
0.00147814
0.000243291
0.00123101
0.000253424
0.000970543
0.000260721
0.000699326
0.000265094
0.000420284
0.000136399
0.000266431
2.65352e-05
0.00271011
6.74099e-08
5.34731e-05
0.00267028
8.00956e-05
0.00260688
0.000105964
0.00251714
0.000130734
0.00240058
0.000154094
0.00225818
0.000175772
0.00209131
0.00019552
0.00190175
0.000213116
0.00169152
0.000228358
0.00146288
0.000241072
0.00121828
0.000251113
0.000960486
0.000258344
0.000692073
0.00026268
0.000415917
0.00013499
0.000264017
2.62919e-05
0.00268376
6.18655e-08
5.29846e-05
0.00264359
7.93638e-05
0.00258051
0.000104996
0.00249151
0.00012954
0.00237604
0.000152687
0.00223505
0.000174168
0.00206984
0.000193737
0.00188219
0.000211173
0.0016741
0.000226276
0.0014478
0.000238874
0.0012057
0.000248823
0.000950559
0.000255989
0.000684932
0.000260288
0.000411658
0.000133725
0.000261618
2.60507e-05
0.00265765
5.70154e-08
5.25002e-05
0.00261714
7.86381e-05
0.00255437
0.000104036
0.00246611
0.000128356
0.00235172
0.000151293
0.0022121
0.000172579
0.00204855
0.00019197
0.00186279
0.000209248
0.00165681
0.000224214
0.00143282
0.000236696
0.00119321
0.000246553
0.000940686
0.000253655
0.000677808
0.000257917
0.000407366
0.000132338
0.000259234
2.58117e-05
0.00263179
5.49108e-08
5.20199e-05
0.00259094
7.79188e-05
0.00252848
0.000103085
0.00244095
0.000127183
0.00232763
0.000149911
0.00218938
0.000171004
0.00202746
0.000190219
0.00184359
0.00020734
0.0016397
0.00022217
0.001418
0.000234538
0.00118086
0.000244305
0.000930939
0.000251343
0.000670794
0.000255569
0.000403178
0.000131097
0.000256873
2.55746e-05
0.00260615
5.70933e-08
5.15439e-05
0.00256497
7.72059e-05
0.00250282
0.000102142
0.00241602
0.00012602
0.00230375
0.000148542
0.00216686
0.000169443
0.00200656
0.000188485
0.00182454
0.00020545
0.00162273
0.000220145
0.0014033
0.000232399
0.00116859
0.000242076
0.000921247
0.000249051
0.000663797
0.000253243
0.000398957
0.00012973
0.000254541
2.53394e-05
0.00258075
6.37339e-08
5.10722e-05
0.00253924
7.64996e-05
0.00247739
0.000101208
0.00239132
0.000124868
0.00228009
0.000147185
0.00214455
0.000167897
0.00198585
0.000186766
0.00180568
0.000203577
0.00160593
0.000218138
0.00138875
0.000230279
0.00115647
0.000239867
0.00091168
0.00024678
0.000656909
0.000250939
0.000394835
0.00012849
0.000252242
2.51061e-05
0.00255557
7.36658e-08
5.06047e-05
0.00251374
7.57999e-05
0.0024522
0.000100282
0.00236683
0.000123727
0.00225665
0.000145841
0.00212243
0.000166364
0.00196533
0.000185062
0.00178698
0.000201721
0.00158926
0.000216149
0.00137432
0.000228179
0.00114442
0.000237678
0.000902166
0.000244528
0.000650037
0.000248657
0.000390676
0.000127107
0.000249972
2.48746e-05
0.00253062
8.47365e-08
5.01414e-05
0.00248848
7.51068e-05
0.00242724
9.93656e-05
0.00234258
0.000122596
0.00223342
0.000144509
0.00210053
0.000164846
0.001945
0.000183374
0.00176846
0.000199881
0.00157277
0.000214178
0.00136003
0.000226097
0.00113252
0.000235508
0.000892776
0.000242297
0.000643273
0.000246395
0.000386614
0.000125836
0.000247729
2.4645e-05
0.00250588
9.42336e-08
4.96821e-05
0.00246344
7.44201e-05
0.0024025
9.84577e-05
0.00231854
0.000121476
0.0022104
0.000143189
0.00207881
0.000163342
0.00192484
0.000181702
0.0017501
0.000198058
0.0015564
0.000212224
0.00134586
0.000224034
0.0011207
0.000233359
0.000883435
0.000240085
0.000636525
0.000244153
0.000382515
0.000124418
0.000245505
2.44173e-05
0.00248136
9.99048e-08
4.92268e-05
0.00243864
7.37397e-05
0.00237799
9.75583e-05
0.00229473
0.000120367
0.0021876
0.000141882
0.00205731
0.000161852
0.00190488
0.000180045
0.00173191
0.000196253
0.00154021
0.000210289
0.00133184
0.00022199
0.00110901
0.000231229
0.000874218
0.000237894
0.000629884
0.000241931
0.000378514
0.000123114
0.000243297
2.41917e-05
0.00245707
1.0051e-07
4.87754e-05
0.00241405
7.30654e-05
0.0023537
9.66673e-05
0.00227112
0.000119268
0.002165
0.000140588
0.00203598
0.000160376
0.00188509
0.000178404
0.00171388
0.000194463
0.00152414
0.000208371
0.00131792
0.000219965
0.0010974
0.000229119
0.000865048
0.000235724
0.000623257
0.000239728
0.000374479
0.000121677
0.0002411
2.39682e-05
0.00243301
9.62459e-08
4.83281e-05
0.0023897
7.23973e-05
0.00232964
9.57845e-05
0.00224774
0.000118179
0.00214261
0.000139306
0.00201487
0.000158914
0.00186549
0.000176778
0.00169603
0.000192691
0.00150824
0.000206471
0.00130416
0.000217959
0.00108593
0.000227029
0.000855999
0.000233574
0.000616737
0.000237543
0.000370545
0.000120367
0.000238913
2.3747e-05
0.00240917
8.86835e-08
4.78848e-05
0.00236556
7.17352e-05
0.00230578
9.49097e-05
0.00222457
0.000117101
0.00212042
0.000138036
0.00199393
0.000157466
0.00184605
0.000175167
0.00167832
0.000190934
0.00149246
0.000204588
0.00129049
0.000215971
0.00107454
0.000224958
0.000846995
0.000231444
0.000610228
0.000235377
0.00036658
0.000118941
0.000236738
2.35279e-05
0.00238557
8.02522e-08
4.74456e-05
0.00234165
7.10791e-05
0.00228216
9.40429e-05
0.00220161
0.000116033
0.00209844
0.000136777
0.00197319
0.000156031
0.00182681
0.000173571
0.00166079
0.000189193
0.00147685
0.000202722
0.00127698
0.000214
0.00106327
0.000222907
0.000838109
0.000229334
0.000603823
0.000233231
0.000362717
0.000117653
0.000234576
2.33111e-05
0.00236218
7.35113e-08
4.70106e-05
0.00231795
7.0429e-05
0.00225873
9.3184e-05
0.00217885
0.000114974
0.00207664
0.00013553
0.00195263
0.000154609
0.00180772
0.000171988
0.0016434
0.000187468
0.00146136
0.000200873
0.00126356
0.000212048
0.00105208
0.000220874
0.000829266
0.000227244
0.000597428
0.000231104
0.000358825
0.000116262
0.000232431
2.30965e-05
0.00233902
7.04585e-08
4.65798e-05
0.00229447
6.9785e-05
0.00223553
9.2333e-05
0.00215631
0.000113925
0.00205506
0.000134294
0.00193227
0.000153199
0.00178883
0.00017042
0.00162619
0.000185758
0.00144604
0.00019904
0.0012503
0.000210113
0.00104103
0.000218859
0.00082054
0.000225173
0.000591135
0.000228997
0.000355033
0.00011501
0.000230304
2.2884e-05
0.00231606
7.1965e-08
4.61531e-05
0.00227119
6.91468e-05
0.00221254
9.14896e-05
0.00213396
0.000112885
0.00203366
0.000133069
0.00191208
0.000151802
0.00177009
0.000168865
0.00160912
0.000184062
0.00143083
0.000197223
0.00123712
0.000208195
0.00103004
0.000216862
0.000811855
0.000223121
0.000584851
0.000226909
0.000351212
0.000113657
0.000228199
2.26736e-05
0.00229331
7.76979e-08
4.57305e-05
0.00224814
6.85146e-05
0.00218976
9.0654e-05
0.00211183
0.000111855
0.00201246
0.000131855
0.00189209
0.000150416
0.00175154
0.000167324
0.00159222
0.000182382
0.00141578
0.000195422
0.0012241
0.000206294
0.00101918
0.000214883
0.000803285
0.000221088
0.000578667
0.000224842
0.000347487
0.000112436
0.000226115
2.24652e-05
0.00227076
8.62642e-08
4.53119e-05
0.00222529
6.78883e-05
0.00216718
8.98259e-05
0.00208989
0.000110834
0.00199145
0.000130651
0.00187226
0.000149043
0.00173314
0.000165796
0.00157546
0.000180716
0.00140085
0.000193637
0.00121116
0.000204411
0.00100839
0.000212922
0.000794754
0.000219073
0.000572492
0.000222794
0.000343733
0.000111113
0.000224055
2.22587e-05
0.00224841
9.57029e-08
4.48973e-05
0.00220266
6.72677e-05
0.00214481
8.90053e-05
0.00206815
0.000109821
0.00197064
0.000129458
0.00185263
0.000147682
0.00171492
0.000164282
0.00155887
0.000179065
0.00138608
0.000191868
0.00119837
0.000202544
0.000997726
0.00021098
0.000786335
0.000217076
0.000566414
0.000220767
0.000340071
0.000109914
0.000222018
2.20543e-05
0.00222624
1.04e-07
4.44865e-05
0.00218022
6.66527e-05
0.00212264
8.8192e-05
0.00204661
0.000108818
0.00195001
0.000128276
0.00183317
0.000146333
0.00169685
0.00016278
0.00154241
0.000177428
0.00137142
0.000190114
0.00118567
0.000200694
0.00098713
0.000209055
0.000777957
0.000215098
0.000560345
0.000218758
0.000336378
0.000108608
0.000220002
2.18517e-05
0.00220429
1.09574e-07
4.40795e-05
0.002158
6.60434e-05
0.00210068
8.73861e-05
0.00202527
0.000107824
0.00192957
0.000127104
0.00181389
0.000144995
0.00167897
0.000161292
0.00152613
0.000175806
0.00135691
0.000188377
0.00117311
0.000198862
0.000976658
0.000207147
0.000769687
0.000213139
0.000554371
0.000216769
0.000332775
0.000107418
0.000218009
2.1651e-05
0.00218252
1.1156e-07
4.3676e-05
0.00213597
6.54394e-05
0.00207891
8.65873e-05
0.00200412
0.000106838
0.00190931
0.000125942
0.00179478
0.000143669
0.00166123
0.000159817
0.00150997
0.000174199
0.00134252
0.000186656
0.00116064
0.000197046
0.000966251
0.000205258
0.000761456
0.000211198
0.000548407
0.0002148
0.000329141
0.000106122
0.000216036
2.14521e-05
0.00216096
1.09914e-07
4.32762e-05
0.00211415
6.48409e-05
0.00205735
8.57955e-05
0.00198316
0.000105861
0.00188925
0.00012479
0.00177586
0.000142356
0.00164367
0.000158356
0.00149397
0.000172607
0.00132827
0.000184951
0.00114831
0.000195248
0.000955966
0.000203388
0.000753332
0.000209276
0.000542536
0.000212849
0.000325593
0.000104936
0.000214084
2.12551e-05
0.0021396
1.05286e-07
4.28799e-05
0.00209252
6.42476e-05
0.00203598
8.50108e-05
0.0019624
0.000104893
0.00186936
0.000123649
0.0017571
0.000141053
0.00162626
0.000156908
0.00147811
0.000171029
0.00131414
0.000183262
0.00113606
0.000193467
0.000945745
0.000201535
0.000745246
0.000207372
0.000536674
0.000210918
0.000322016
0.000103645
0.00021215
2.10599e-05
0.00211844
9.88094e-08
4.2487e-05
0.00207109
6.36596e-05
0.00201481
8.4233e-05
0.00194183
0.000103934
0.00184967
0.000122517
0.00173852
0.000139763
0.00160902
0.000155473
0.00146241
0.000169467
0.00130015
0.000181589
0.00112395
0.000191703
0.000935642
0.0001997
0.000737264
0.000205487
0.000530903
0.000209005
0.000318524
0.000102462
0.000210235
2.08664e-05
0.00209748
9.17996e-08
4.20975e-05
0.00204986
6.30767e-05
0.00199382
8.3462e-05
0.00192143
0.000102982
0.00183014
0.000121396
0.0017201
0.000138484
0.00159192
0.000154051
0.00144683
0.000167919
0.00128627
0.000179933
0.00111193
0.000189957
0.000925602
0.000197883
0.00072932
0.000203621
0.000525142
0.00020711
0.000315003
0.000101179
0.000208337
2.06747e-05
0.00207672
8.54977e-08
4.17115e-05
0.00202883
6.2499e-05
0.00197304
8.26979e-05
0.00190124
0.00010204
0.0018108
0.000120285
0.00170186
0.000137218
0.00157499
0.000152644
0.00143141
0.000166386
0.00127254
0.000178292
0.00110003
0.000188227
0.000915678
0.000196084
0.000721478
0.000201772
0.000519471
0.000205234
0.000311566
0.000100002
0.000206457
2.04847e-05
0.00205615
8.0854e-08
4.13289e-05
0.00200798
6.19264e-05
0.00195244
8.19407e-05
0.00188122
0.000101106
0.00179163
0.000119185
0.00168377
0.000135963
0.00155821
0.000151249
0.00141612
0.000164868
0.00125891
0.000176668
0.00108822
0.000186515
0.000905815
0.000194303
0.000713673
0.000199942
0.000513808
0.000203376
0.000308102
9.87293e-05
0.000204594
2.02964e-05
0.00203578
7.84325e-08
4.09496e-05
0.00198733
6.13589e-05
0.00193203
8.11902e-05
0.00186139
0.00010018
0.00177265
0.000118094
0.00166586
0.00013472
0.00154159
0.000149868
0.00140098
0.000163365
0.00124542
0.00017506
0.00107653
0.00018482
0.000896066
0.00019254
0.000705968
0.00019813
0.000508235
0.000201536
0.000304721
9.75638e-05
0.000202748
2.01096e-05
0.00201559
7.83773e-08
4.05738e-05
0.00196686
6.07965e-05
0.0019118
8.04467e-05
0.00184174
9.92634e-05
0.00175382
0.000117014
0.00164811
0.00013349
0.0015251
0.000148501
0.00138596
0.000161877
0.00123203
0.000173468
0.00106493
0.000183142
0.000886376
0.000190794
0.000698299
0.000196336
0.00050267
0.000199714
0.000301312
9.63057e-05
0.000200918
1.99246e-05
0.00199559
8.04871e-08
4.02014e-05
0.00194659
6.02393e-05
0.00189177
7.97099e-05
0.00182227
9.83551e-05
0.00173518
0.000115945
0.00163052
0.000132271
0.00150878
0.000147147
0.00137109
0.000160403
0.00121879
0.000171891
0.00105345
0.00018148
0.000876798
0.000189065
0.000690728
0.000194559
0.000497193
0.000197909
0.000297988
9.51552e-05
0.000199104
1.97411e-05
0.00197576
8.43023e-08
3.98324e-05
0.00192649
5.96872e-05
0.00187191
7.89801e-05
0.00180297
9.74554e-05
0.0017167
0.000114885
0.00161309
0.000131064
0.0014926
0.000145807
0.00135634
0.000158944
0.00120564
0.000170331
0.00104205
0.000179835
0.000867279
0.000187354
0.000683192
0.0001928
0.000491723
0.000196121
0.000294636
9.39157e-05
0.000197307
1.95593e-05
0.00195612
8.92483e-08
3.94669e-05
0.00190659
5.91403e-05
0.00185224
7.82572e-05
0.00178386
9.65644e-05
0.0016984
0.000113836
0.00159582
0.000129869
0.00147657
0.00014448
0.00134173
0.0001575
0.00119262
0.000168786
0.00103078
0.000178206
0.00085787
0.000185659
0.000675754
0.000191057
0.000486341
0.00019435
0.000291368
9.27839e-05
0.000195526
1.93791e-05
0.00193664
9.47274e-08
3.91048e-05
0.00188686
5.85986e-05
0.00183274
7.75413e-05
0.00176491
9.56821e-05
0.00168025
0.000112798
0.0015787
0.000128686
0.00146067
0.000143166
0.00132724
0.00015607
0.00117971
0.000167256
0.00101958
0.000176593
0.000848518
0.00018398
0.00066835
0.000189332
0.000480967
0.000192596
0.000288075
9.15665e-05
0.000193761
1.92006e-05
0.00191734
1.00228e-07
3.87461e-05
0.00186732
5.8062e-05
0.00181343
7.68323e-05
0.00174615
9.48084e-05
0.00166228
0.000111769
0.00156174
0.000127515
0.00144493
0.000141865
0.0013129
0.000154655
0.00116693
0.000165741
0.0010085
0.000174996
0.000839274
0.000182318
0.000661043
0.000187623
0.000475679
0.000190858
0.000284863
9.04561e-05
0.000192011
1.90237e-05
0.00189821
1.05351e-07
3.83909e-05
0.00184795
5.75307e-05
0.00179429
7.61302e-05
0.00172754
9.39434e-05
0.00164446
0.000110751
0.00154493
0.000126356
0.00142932
0.000140578
0.00129867
0.000153254
0.00115424
0.000164241
0.000997504
0.000173414
0.000830086
0.000180672
0.000653768
0.000185929
0.000470398
0.000189136
0.000281628
8.92629e-05
0.000190277
1.88485e-05
0.00187925
1.09856e-07
3.80391e-05
0.00182876
5.70046e-05
0.00177533
7.54351e-05
0.00170912
9.30871e-05
0.00162682
0.000109744
0.00152828
0.000125208
0.00141386
0.000139303
0.00128458
0.000151866
0.00114169
0.000162756
0.000986624
0.000171848
0.000821005
0.000179041
0.000646589
0.000184252
0.000465203
0.000187429
0.000278474
8.81761e-05
0.000188559
1.8675e-05
0.00186046
1.13623e-07
3.76908e-05
0.00180974
5.64837e-05
0.00175653
7.47469e-05
0.00169085
9.22393e-05
0.00160932
0.000108746
0.00151176
0.000124071
0.00139853
0.000138041
0.00127061
0.000150492
0.00112922
0.000161286
0.000975819
0.000170296
0.000811979
0.000177426
0.000639443
0.00018259
0.000460016
0.000185739
0.000275296
8.7009e-05
0.000186855
1.85031e-05
0.00184184
1.16651e-07
3.73459e-05
0.0017909
5.5968e-05
0.00173791
7.40656e-05
0.00167276
9.14e-05
0.00159199
0.000107758
0.00149541
0.000122947
0.00138335
0.000136791
0.00125677
0.000149131
0.00111689
0.000159829
0.000965132
0.00016876
0.000803059
0.000175825
0.000632392
0.000180944
0.000454913
0.000184063
0.000272199
8.59469e-05
0.000185167
1.83329e-05
0.00182339
1.19002e-07
3.70044e-05
0.00177223
5.54574e-05
0.00171945
7.33911e-05
0.00165482
9.05691e-05
0.0015748
0.00010678
0.00147919
0.000121833
0.00136829
0.000135554
0.00124304
0.000147784
0.00110465
0.000158386
0.000954518
0.000167237
0.000794193
0.00017424
0.000625373
0.000179312
0.000449818
0.000182403
0.000269079
8.48067e-05
0.000183493
1.81644e-05
0.00180511
1.20788e-07
3.66663e-05
0.00175373
5.49519e-05
0.00170117
7.27233e-05
0.00163705
8.97465e-05
0.00155779
0.000105812
0.00146314
0.00012073
0.00135338
0.000134328
0.00122945
0.000146449
0.00109254
0.000156957
0.00094402
0.000165729
0.000785432
0.000172669
0.000618447
0.000177695
0.000444808
0.000180757
0.00026604
8.37702e-05
0.000181834
1.79975e-05
0.00178698
1.22126e-07
3.63316e-05
0.00173539
5.44514e-05
0.00168305
7.20623e-05
0.00161944
8.89321e-05
0.00154091
0.000104853
0.00144721
0.000119638
0.00133858
0.000133114
0.00121596
0.000145128
0.00108051
0.000155541
0.000933594
0.000164234
0.000776723
0.000171112
0.000611553
0.000176092
0.000439804
0.000179125
0.000262978
8.26578e-05
0.000180189
1.78322e-05
0.00176903
1.23136e-07
3.60002e-05
0.00171723
5.3956e-05
0.0016651
7.14078e-05
0.00160199
8.81257e-05
0.0015242
0.000103904
0.00143143
0.000118556
0.00132394
0.000131912
0.00120261
0.000143818
0.00106861
0.000154138
0.000923284
0.000162754
0.000768118
0.000169569
0.000604751
0.000174504
0.000434884
0.000177508
0.000259995
8.16472e-05
0.000178558
1.76686e-05
0.00175123
1.23908e-07
3.5672e-05
0.00169922
5.34654e-05
0.0016473
7.07598e-05
0.00158469
8.73273e-05
0.00150762
0.000102964
0.00141579
0.000117485
0.00130941
0.000130721
0.00118937
0.00014252
0.0010568
0.000152748
0.000913044
0.000161286
0.000759565
0.00016804
0.000597981
0.00017293
0.000429971
0.000175905
0.000256991
8.05623e-05
0.000176942
1.75065e-05
0.00173361
1.24523e-07
3.53471e-05
0.00168138
5.29797e-05
0.00162967
7.01181e-05
0.00156755
8.65366e-05
0.00149121
0.000102033
0.0014003
0.000116424
0.00129502
0.000129542
0.00117626
0.000141235
0.00104512
0.000151371
0.000902918
0.000159831
0.000751114
0.000166524
0.000591302
0.000171369
0.000425141
0.000174316
0.000254065
7.95777e-05
0.000175339
1.73461e-05
0.00171613
1.25032e-07
3.50254e-05
0.0016637
5.24988e-05
0.00161219
6.94827e-05
0.00155057
8.57535e-05
0.00147493
0.000101111
0.00138494
0.000115372
0.00128075
0.000128373
0.00116325
0.000139961
0.00103352
0.000150005
0.000892861
0.00015839
0.000742714
0.000165021
0.000584653
0.000169822
0.000420318
0.000172741
0.000251118
7.85204e-05
0.00017375
1.71871e-05
0.00169882
1.25477e-07
3.47068e-05
0.00164618
5.20225e-05
0.00159488
6.88534e-05
0.00153374
8.49778e-05
0.00145881
0.000100197
0.00136972
0.000114331
0.00126663
0.000127214
0.00115037
0.000138698
0.00102204
0.000148652
0.000882916
0.000156961
0.000734416
0.000163532
0.000578095
0.000168288
0.000415576
0.000171179
0.000248248
7.75611e-05
0.000172175
1.70298e-05
0.00168166
1.25875e-07
3.43913e-05
0.00162882
5.15508e-05
0.00157771
6.823e-05
0.00151705
8.42095e-05
0.00144283
9.92922e-05
0.00135463
0.000113298
0.00125261
0.000126066
0.00113759
0.000137447
0.00101065
0.000147311
0.00087304
0.000155544
0.000726167
0.000162055
0.000571568
0.000166768
0.000410841
0.00016963
0.000245356
7.65305e-05
0.000170614
1.68739e-05
0.00166467
1.26245e-07
3.40787e-05
0.00161161
5.10835e-05
0.00156071
6.76125e-05
0.00150053
8.34482e-05
0.001427
9.83953e-05
0.00133969
0.000112276
0.00123874
0.000124929
0.00112495
0.000136207
0.000999378
0.000145982
0.000863274
0.00015414
0.000718018
0.000160592
0.000565129
0.00016526
0.000406186
0.000168095
0.000242542
7.5596e-05
0.000169066
1.67195e-05
0.00164782
1.26593e-07
3.37692e-05
0.00159456
5.06207e-05
0.00154386
6.70008e-05
0.00148414
8.26939e-05
0.0014113
9.75065e-05
0.00132487
0.000111262
0.00122497
0.000123801
0.0011124
0.000134977
0.000988191
0.000144663
0.000853575
0.000152748
0.000709919
0.00015914
0.00055872
0.000163766
0.000401539
0.000166573
0.000239706
7.45914e-05
0.000167532
1.65665e-05
0.00163113
1.26926e-07
3.34625e-05
0.00157767
5.01621e-05
0.00152716
6.63947e-05
0.00146792
8.19465e-05
0.00139575
9.66257e-05
0.0013102
0.000110257
0.00121135
0.000122683
0.00109998
0.000133758
0.000977123
0.000143357
0.000843986
0.000151367
0.000701918
0.000157702
0.000552398
0.000162284
0.00039697
0.000165065
0.000236946
7.36806e-05
0.000166011
1.6415e-05
0.00161458
1.27245e-07
3.31586e-05
0.00156092
4.97077e-05
0.00151061
6.5794e-05
0.00145182
8.12057e-05
0.00138033
9.57527e-05
0.00129564
0.000109261
0.00119783
0.000121575
0.00108766
0.00013255
0.000966136
0.000142061
0.000834462
0.000149999
0.000693965
0.000156275
0.000546106
0.000160815
0.000392408
0.000163569
0.000234164
7.27008e-05
0.000164503
1.62649e-05
0.00159819
1.27556e-07
3.28575e-05
0.00154433
4.92574e-05
0.00149421
6.51987e-05
0.00143589
8.04715e-05
0.00136506
9.48873e-05
0.00128123
0.000108274
0.00118445
0.000120476
0.00107546
0.000131352
0.000955268
0.000140777
0.000825046
0.000148642
0.000686108
0.000154861
0.0005399
0.000159359
0.000387924
0.000162086
0.000231457
7.18128e-05
0.000163008
1.61161e-05
0.00158194
1.27858e-07
3.25591e-05
0.00152788
4.88112e-05
0.00147795
6.46088e-05
0.00142008
7.97437e-05
0.00134992
9.40294e-05
0.00126694
0.000107295
0.00117117
0.000119387
0.00106336
0.000130164
0.000944479
0.000139504
0.000815694
0.000147297
0.000678299
0.000153459
0.000533722
0.000157915
0.000383446
0.000160616
0.000228729
7.08567e-05
0.000161527
1.59687e-05
0.00156585
1.28157e-07
3.22634e-05
0.00151159
4.83689e-05
0.00146185
6.40239e-05
0.00140443
7.90223e-05
0.00133493
9.3179e-05
0.00125279
0.000106325
0.00115803
0.000118307
0.00105138
0.000128987
0.000933807
0.000138241
0.000806448
0.000145964
0.000670586
0.000152069
0.000527629
0.000156483
0.000379045
0.000159158
0.000226073
6.999e-05
0.000160059
1.58225e-05
0.00154989
1.28452e-07
3.19703e-05
0.00149544
4.79305e-05
0.00144588
6.34442e-05
0.00138891
7.83071e-05
0.00132006
9.23358e-05
0.00123875
0.000105363
0.001145
0.000117237
0.0010395
0.000127819
0.000923213
0.00013699
0.000797265
0.000144642
0.000662918
0.000150691
0.000521563
0.000155065
0.000374649
0.000157714
0.000223397
6.90562e-05
0.000158603
1.56777e-05
0.00153409
1.28749e-07
3.16798e-05
0.00147944
4.74959e-05
0.00143007
6.28695e-05
0.00137354
7.75981e-05
0.00130533
9.14999e-05
0.00122486
0.000104409
0.00113209
0.000116175
0.00102774
0.000126662
0.000912733
0.000135749
0.000788186
0.000143331
0.000655345
0.000149325
0.000515582
0.000153658
0.000370329
0.000156282
0.000220792
6.82098e-05
0.000157161
1.55342e-05
0.00151842
1.29047e-07
3.13918e-05
0.00146358
4.7065e-05
0.00141439
6.22997e-05
0.0013583
7.68951e-05
0.00129073
9.06711e-05
0.00121107
0.000103463
0.00111929
0.000115123
0.00101607
0.000125514
0.000902331
0.000134518
0.00077917
0.000142032
0.000647816
0.00014797
0.000509627
0.000152264
0.000366014
0.000154862
0.000218166
6.72972e-05
0.000155732
1.53919e-05
0.0015029
1.2935e-07
3.11063e-05
0.00144787
4.66379e-05
0.00139887
6.17348e-05
0.00134321
7.61981e-05
0.00127627
8.98494e-05
0.00119743
0.000102526
0.00110662
0.00011408
0.00100452
0.000124376
0.000892041
0.000133299
0.000770255
0.000140744
0.00064038
0.000146628
0.000503754
0.000150882
0.000361773
0.000153456
0.000215611
6.64698e-05
0.000154315
1.52508e-05
0.00148752
1.29657e-07
3.08233e-05
0.00143229
4.62144e-05
0.00138347
6.11748e-05
0.00132824
7.55071e-05
0.00126193
8.90347e-05
0.00118389
0.000101596
0.00109405
0.000113045
0.000993064
0.000123248
0.000881826
0.00013209
0.000761402
0.000139467
0.000632988
0.000145297
0.000497907
0.000149512
0.000357538
0.000152061
0.000213035
6.55769e-05
0.000152911
1.5111e-05
0.00147228
1.29973e-07
3.05427e-05
0.00141686
4.57945e-05
0.00136822
6.06195e-05
0.00131342
7.4822e-05
0.00124773
8.82269e-05
0.00117049
0.000100674
0.00108161
0.00011202
0.000981725
0.00012213
0.000871722
0.000130891
0.000752649
0.000138201
0.000625687
0.000143978
0.000492142
0.000148154
0.000353375
0.00015068
0.000210528
6.47674e-05
0.000151521
1.49724e-05
0.00145717
1.30294e-07
3.02645e-05
0.00140157
4.53782e-05
0.0013531
6.00689e-05
0.00129872
7.41426e-05
0.00123365
8.7426e-05
0.0011572
9.97605e-05
0.00106927
0.000111003
0.000970473
0.000121021
0.000861692
0.000129703
0.000743955
0.000136946
0.000618428
0.000142671
0.000486401
0.000146808
0.000349216
0.00014931
0.000207999
6.38932e-05
0.000150142
1.4835e-05
0.00144221
1.30625e-07
2.99886e-05
0.00138642
4.49655e-05
0.00133813
5.9523e-05
0.00128417
7.34691e-05
0.00121971
8.6632e-05
0.00114404
9.88545e-05
0.00105705
0.000109995
0.000959339
0.000119923
0.00085177
0.000128525
0.00073536
0.000135703
0.000611259
0.000141375
0.00048074
0.000145474
0.000345129
0.000147953
0.000205539
6.31004e-05
0.000148777
1.46987e-05
0.00142738
1.30962e-07
2.97151e-05
0.0013714
4.45562e-05
0.00132328
5.89817e-05
0.00126974
7.28013e-05
0.00120588
8.58448e-05
0.00113099
9.79564e-05
0.00104493
0.000108996
0.00094829
0.000118833
0.000841921
0.000127358
0.000726824
0.00013447
0.000604132
0.000140091
0.000475103
0.000144153
0.000341046
0.000146608
0.000203057
6.22438e-05
0.000147424
1.45636e-05
0.00141269
1.31309e-07
2.9444e-05
0.00135652
4.41505e-05
0.00130858
5.84451e-05
0.00125545
7.21393e-05
0.00119219
8.50644e-05
0.00111807
9.70661e-05
0.00103293
0.000108005
0.000937357
0.000117754
0.000832179
0.000126201
0.000718384
0.000133249
0.000597092
0.000138818
0.000469544
0.000142843
0.000337034
0.000145276
0.000200642
6.14669e-05
0.000146083
1.44297e-05
0.00139812
1.3166e-07
2.91752e-05
0.00134177
4.37482e-05
0.001294
5.79131e-05
0.00124128
7.1483e-05
0.00117862
8.42907e-05
0.00110526
9.61835e-05
0.00102103
0.000107023
0.000926508
0.000116683
0.000822507
0.000125054
0.000710002
0.000132038
0.000590094
0.000137557
0.000464009
0.000141545
0.000333025
0.000143956
0.000198205
6.06268e-05
0.000144755
1.4297e-05
0.00138369
1.32019e-07
2.89087e-05
0.00132716
4.33494e-05
0.00127956
5.73856e-05
0.00122725
7.08323e-05
0.00116517
8.35238e-05
0.00109257
9.53087e-05
0.00100925
0.00010605
0.000915772
0.000115623
0.000812941