1.45 	0 	0 	-0.00789105 	-0.00258086 	3.80691e-21
2.35 	0 	0 	0.0618246 	-0.00664721 	2.31977e-21
