1.45 	0 	0 	-0.301869
2.35 	0 	0 	-0.0894627
