1.45 	0 	0 	-0.189915
2.35 	0 	0 	0.0141016
