1.275 	2.15223e-18 	-2.76991e-20 	-0.0327064 	-0.000483989 	-2.05849e-22
1.825 	2.15223e-18 	-1.39322e-20 	-0.00572216 	-0.00326777 	1.78749e-21
2.375 	2.15223e-18 	-2.66896e-23 	0.148575 	-0.00442054 	-7.25733e-22
