1.45 	0 	0 	-0.298561
2.35 	0 	0 	-0.132526
