1.275 	2.15223e-18 	-2.76991e-20 	-0.315554
1.825 	2.15223e-18 	-1.39322e-20 	-0.202003
2.375 	2.15223e-18 	-2.66896e-23 	-0.1723
