1.45 	0 	0 	-0.0806535
2.35 	0 	0 	0.0321363
