1.275 	2.15223e-18 	-2.76991e-20 	-0.0339761 	-0.000441604 	-1.98949e-22
1.825 	2.15223e-18 	-1.39322e-20 	-0.00857924 	-0.00277849 	1.78763e-21
2.375 	2.15223e-18 	-2.66896e-23 	0.117815 	-0.00329385 	-7.46156e-22
