1.45 	0 	0 	-0.00328913 	-0.0029412 	3.96513e-21
2.35 	0 	0 	0.0775257 	-0.00716491 	2.39354e-21
