1.45 	0 	0 	-0.268887
2.35 	0 	0 	-0.0327479
