1.275 	2.15223e-18 	-2.76991e-20 	-0.011344 	-0.00297696 	-1.96399e-22
1.825 	2.15223e-18 	-1.39322e-20 	0.122866 	-0.00742576 	1.04169e-21
2.375 	2.15223e-18 	-2.66896e-23 	0.393857 	-0.00799916 	-3.35061e-22
