/*--------------------------------*- C++ -*----------------------------------*\
  =========                 |
  \\      /  F ield         | OpenFOAM: The Open Source CFD Toolbox
   \\    /   O peration     | Website:  https://openfoam.org
    \\  /    A nd           | Version:  6.0
     \\/     M anipulation  |
\*---------------------------------------------------------------------------*/
FoamFile
{
    version     2.0;
    format      ascii;
    class       volScalarField;
    location    "0.2";
    object      p;
}
// * * * * * * * * * * * * * * * * * * * * * * * * * * * * * * * * * * * * * //

dimensions      [0 2 -2 0 0 0 0];

internalField   nonuniform List<scalar> 
200
(
5.72158e-06
-0.0385296
-0.0546785
-0.035085
0.0167508
0.0940911
0.19008
0.299047
0.416955
0.541166
0.669888
0.801478
0.933638
1.06252
1.18188
1.28271
1.354
1.3852
1.37113
1.3282
0.0386755
-0.00296501
-0.0128949
0.0101961
0.0596338
0.130805
0.219088
0.320142
0.430461
0.54735
0.668617
0.79213
0.915273
1.03433
1.14392
1.23679
1.30465
1.33932
1.33196
1.28556
0.0575903
0.00246711
-0.00698372
0.0201577
0.0715594
0.142442
0.228892
0.327154
0.434107
0.547243
0.664457
0.783738
0.902767
1.01841
1.12616
1.21971
1.29149
1.33248
1.3267
1.26565
0.0324836
-0.0341586
-0.0401865
-0.00435851
0.0547712
0.131328
0.221406
0.321494
0.428838
0.541329
0.657311
0.77535
0.893918
1.01093
1.12304
1.22486
1.30889
1.36388
1.36518
1.29279
-0.0554894
-0.122836
-0.113693
-0.0593131
0.0154811
0.103956
0.20242
0.307865
0.418182
0.531963
0.648306
0.766679
0.886718
1.00785
1.12851
1.24503
1.35074
1.43251
1.45642
1.38671
-0.233274
-0.278038
-0.231101
-0.142123
-0.0408733
0.0665413
0.177763
0.291202
0.406075
0.522144
0.639595
0.75906
0.881618
1.00863
1.1411
1.27848
1.41687
1.54359
1.617
1.57914
-0.546762
-0.516086
-0.391476
-0.244959
-0.104165
0.0289407
0.155763
0.278012
0.397377
0.515388
0.633611
0.753982
0.879145
1.0127
1.15913
1.32293
1.50622
1.70149
1.86833
1.92463
-1.1002
-0.854687
-0.579178
-0.347374
-0.155821
0.00589085
0.147028
0.275451
0.396682
0.514436
0.631648
0.751373
0.877637
1.01634
1.17624
1.36927
1.60795
1.89989
2.23881
2.54202
-2.178
-1.30002
-0.719664
-0.383025
-0.150466
0.0256434
0.168029
0.29251
0.408371
0.520658
0.632631
0.747394
0.869243
1.0053
1.16801
1.37802
1.66431
2.07653
2.75043
3.73146
-4.01869
-1.72863
-0.669413
-0.260295
-0.0397627
0.110577
0.227842
0.331993
0.432412
0.532645
0.634095
0.737976
0.846698
0.965699
1.10701
1.29549
1.57878
2.08414
3.26102
5.66694
)
;

boundaryField
{
    movingWall
    {
        type            zeroGradient;
    }
    fixedWalls
    {
        type            zeroGradient;
    }
    frontAndBack
    {
        type            empty;
    }
}


// ************************************************************************* //
