1.45 	0 	0 	-0.00784104 	-0.00258327 	3.81245e-21
2.35 	0 	0 	0.0619427 	-0.00665064 	2.32744e-21
