/*--------------------------------*- C++ -*----------------------------------*\
  =========                 |
  \\      /  F ield         | OpenFOAM: The Open Source CFD Toolbox
   \\    /   O peration     | Website:  https://openfoam.org
    \\  /    A nd           | Version:  6.0
     \\/     M anipulation  |
\*---------------------------------------------------------------------------*/
FoamFile
{
    version     2.0;
    format      ascii;
    class       surfaceScalarField;
    location    "17";
    object      phi;
}
// * * * * * * * * * * * * * * * * * * * * * * * * * * * * * * * * * * * * * //

dimensions      [0 3 -1 0 0 0 0];

internalField   nonuniform List<scalar> 
3880
(
-1.79752e-05
1.79751e-05
5.93097e-11
-5.349e-05
3.55148e-05
7.63871e-11
-9.53607e-05
4.18706e-05
1.5192e-11
-0.000136514
4.11531e-05
-9.13175e-11
-0.000172583
3.60698e-05
-2.28725e-10
-0.000201156
2.85731e-05
-3.89315e-10
-0.000221301
2.01457e-05
-5.68414e-10
-0.000233263
1.19629e-05
-7.61999e-10
-0.000238257
4.9947e-06
-9.65526e-10
8.25651e-09
-1.18694e-09
-0.000238264
-1.72991e-05
3.52742e-05
-5.0849e-05
6.90647e-05
-8.96027e-05
8.06243e-05
-0.000126599
7.8149e-05
-0.000157511
6.69823e-05
-0.000179892
5.0954e-05
-0.000192722
3.29759e-05
-0.000196146
1.53867e-05
-0.000191322
1.70527e-07
-1.10483e-05
-0.000180265
-1.59114e-05
5.11856e-05
-4.54495e-05
9.86028e-05
-7.78822e-05
0.000113057
-0.000106516
0.000106782
-0.000127148
8.76149e-05
-0.000137298
6.1104e-05
-0.000135787
3.14648e-05
-0.000122549
2.14895e-06
-9.86053e-05
-2.37735e-05
-4.36309e-05
-6.60227e-05
-1.37243e-05
6.491e-05
-3.70081e-05
0.000121887
-5.96876e-05
0.000135737
-7.55757e-05
0.00012267
-8.07691e-05
9.28083e-05
-7.28385e-05
5.31734e-05
-5.04278e-05
9.05409e-06
-1.31521e-05
-3.51267e-05
3.82398e-05
-7.51654e-05
-0.00010705
0.000101659
-1.05735e-05
7.54834e-05
-2.50036e-05
0.000136317
-3.40439e-05
0.000144777
-3.23541e-05
0.000120981
-1.66373e-05
7.70915e-05
1.52442e-05
2.12919e-05
6.47102e-05
-4.04119e-05
0.000132528
-0.000102945
0.000218422
-0.000161059
-0.000209028
0.0003204
-6.20593e-06
8.16893e-05
-8.64279e-06
0.000138754
5.95045e-07
0.000135539
2.55829e-05
9.59927e-05
6.85575e-05
3.41169e-05
0.000130895
-4.10457e-05
0.000213694
-0.000123211
0.000317976
-0.000207226
0.000444175
-0.000287259
-0.000355424
0.000590571
-3.0789e-07
8.19972e-05
1.30567e-05
0.000125389
4.62345e-05
0.000102361
0.000101646
4.05812e-05
0.000179944
-4.41813e-05
0.000281026
-0.000142127
0.00040482
-0.000247006
0.000551906
-0.000354312
0.000723395
-0.000458747
-0.000550442
0.000918414
7.40646e-06
7.45908e-05
4.09844e-05
9.18111e-05
0.000104815
3.8531e-05
0.000199491
-5.40949e-05
0.000323718
-0.000168409
0.000475124
-0.000293533
0.000651102
-0.000422984
0.00084997
-0.00055318
0.00107223
-0.000681011
-0.000799601
0.00132139
1.70467e-05
5.75441e-05
7.54598e-05
3.3398e-05
0.000177239
-6.32486e-05
0.000321466
-0.000198321
0.000505179
-0.000352122
0.000723599
-0.000511953
0.000970444
-0.000669829
0.00123893
-0.000821666
0.00152534
-0.000967421
-0.00111801
0.00184375
2.83478e-05
2.91963e-05
0.00011557
-5.38243e-05
0.000261876
-0.000209555
0.000465856
-0.000402301
0.000724704
-0.000610969
0.00103393
-0.000821177
0.00138671
-0.00102261
0.00177227
-0.00120723
0.00217499
-0.00137014
-0.00151495
0.00257193
4.04941e-05
-1.12977e-05
0.000158458
-0.000171788
0.000352282
-0.000403379
0.000620699
-0.000670718
0.000963084
-0.000953354
0.00138012
-0.00123821
0.00187505
-0.00151754
0.00245689
-0.00178907
0.00314836
-0.00206161
-0.0023732
0.00400661
5.23997e-05
-6.36974e-05
0.000200112
-0.0003195
0.000438354
-0.000641621
0.000763612
-0.000995977
0.00117321
-0.00136295
0.00166527
-0.00173028
0.00223874
-0.002091
0.00289272
-0.00244306
0.00362176
-0.00279064
-0.00314302
0.00439157
6.35435e-05
-0.000127241
0.000238472
-0.000494429
0.000515341
-0.00091849
0.000886134
-0.00136677
0.00134308
-0.0018199
0.00187805
-0.00226525
0.00248182
-0.00269478
0.0031426
-0.00310383
0.00384182
-0.00348986
-0.00384694
0.00454575
7.39453e-05
-0.000201186
0.000273262
-0.000693746
0.0005827
-0.00122793
0.00098846
-0.00177253
0.00147666
-0.00230809
0.00203266
-0.00282125
0.00264066
-0.00330278
0.00328292
-0.0037461
0.00393816
-0.0041451
-0.00448877
0.00457999
8.37496e-05
-0.000284936
0.000304629
-0.000914625
0.000640701
-0.001564
0.00107177
-0.00220359
0.00157777
-0.0028141
0.00213852
-0.00338199
0.00273376
-0.00389803
0.00334337
-0.0043557
0.00394719
-0.00474892
-0.00506692
0.00452533
9.29466e-05
-0.000377882
0.000332315
-0.00115399
0.000688779
-0.00192046
0.00113551
-0.00265033
0.00164674
-0.00332533
0.00219789
-0.00393315
0.00276622
-0.00446635
0.00333141
-0.00492089
0.00387599
-0.00529349
-0.00557701
0.00438607
0.000101293
-0.000479175
0.00035544
-0.00140814
0.000725223
-0.00229025
0.0011773
-0.0031024
0.00168095
-0.00382898
0.00220863
-0.00446083
0.00273681
-0.00499453
0.00324663
-0.00543071
0.00372424
-0.00577111
-0.00601424
0.00416147
0.000108358
-0.000587533
0.000372657
-0.00167244
0.00074761
-0.0026652
0.00119384
-0.00354863
0.00167682
-0.00431196
0.00216757
-0.00495158
0.00264342
-0.00547038
0.00308827
-0.00587556
0.00349255
-0.00617539
-0.00637504
0.00385336
0.000113617
-0.00070115
0.000382451
-0.00194127
0.000753425
-0.00303617
0.00118207
-0.00397728
0.00163148
-0.00476138
0.00207292
-0.00539301
0.00248603
-0.00588349
0.0028585
-0.00624803
0.00318525
-0.00650213
-0.00665782
0.00346802
0.000116538
-0.000817688
0.000383405
-0.00220814
0.000740578
-0.00339335
0.00113988
-0.00437658
0.00154376
-0.00516526
0.00192531
-0.00577456
0.00226774
-0.00622591
0.00256303
-0.00654333
0.00281051
-0.00674961
-0.00686302
0.00301571
0.000116654
-0.000934342
0.000374411
-0.0024659
0.000707751
-0.00372669
0.0010666
-0.00473543
0.00141454
-0.0055132
0.00172799
-0.00608801
0.00199449
-0.00649241
0.00221051
-0.00675935
0.00237925
-0.00691834
-0.00699286
0.00250908
0.000113564
-0.00104791
0.000354704
-0.00270704
0.000654435
-0.00402642
0.000962861
-0.00504386
0.0012465
-0.00579684
0.00148618
-0.00632769
0.0016742
-0.00668043
0.00181122
-0.00689637
0.0019036
-0.00701072
-0.00705082
0.00196156
0.000107008
-0.00115491
0.000323999
-0.00292403
0.000581051
-0.00428347
0.000830657
-0.00529346
0.00104383
-0.00601002
0.00120658
-0.00649044
0.00131591
-0.00678975
0.00137608
-0.00695654
0.00139577
-0.00703041
-0.0070412
0.00138615
9.68394e-05
-0.00125175
0.000282422
-0.00310961
0.000488756
-0.0044898
0.000672895
-0.0054776
0.000811615
-0.00614874
0.000896439
-0.00657527
0.000928703
-0.00682201
0.000915505
-0.00694335
0.000866937
-0.00698184
-0.00696867
0.000794407
8.30402e-05
-0.00133479
0.00023049
-0.00325706
0.000379319
-0.00463863
0.000493109
-0.00559139
0.00055529
-0.00621092
0.000562902
-0.00658288
0.000521022
-0.00678014
0.000438694
-0.00686102
0.000326599
-0.00686975
-0.00683795
0.000195879
6.57294e-05
-0.00140052
0.000169094
-0.00336043
0.000255004
-0.00472454
0.000295197
-0.00563158
0.000280261
-0.00619598
0.000212496
-0.00651511
0.000100045
-0.00666769
-4.69415e-05
-0.00671403
-0.000217948
-0.00669874
-0.00665359
-0.000402309
4.51788e-05
-0.0014457
9.94975e-05
-0.00341475
0.000118525
-0.00474357
8.33212e-05
-0.00559638
-8.25465e-06
-0.00610441
-0.00014907
-0.0063743
-0.000328529
-0.00648823
-0.000536047
-0.00650651
-0.000761898
-0.00647289
-0.00641934
-0.00099615
2.18405e-05
-0.00146754
2.33776e-05
-0.00341628
-2.69214e-05
-0.00469327
-0.000138047
-0.00548525
-0.000305139
-0.00593731
-0.000516782
-0.00616266
-0.000760389
-0.00624462
-0.00102533
-0.00624157
-0.00130321
-0.00619501
-0.00613558
-0.00158697
-3.61259e-06
-0.00146393
-5.71008e-05
-0.00336279
-0.000177534
-0.00457284
-0.000363961
-0.00529883
-0.000605276
-0.005696
-0.000886568
-0.00588136
-0.0011936
-0.00593759
-0.00151558
-0.00591959
-0.00184564
-0.00586495
-0.00579557
-0.00218565
-3.02225e-05
-0.00143371
-0.000139107
-0.00325391
-0.00032845
-0.00438349
-0.000588022
-0.00503926
-0.000901977
-0.00538204
-0.0012537
-0.00552964
-0.00162863
-0.00556265
-0.00201638
-0.00553185
-0.00241321
-0.00546811
-0.00540449
-0.0028043
-5.67518e-05
-0.00137696
-0.000219113
-0.00309155
-0.000473242
-0.00412936
-0.000800283
-0.00471221
-0.00118109
-0.00500124
-0.00159973
-0.005111
-0.00204494
-0.00511744
-0.00250953
-0.00506726
-0.00299229
-0.00498536
-0.00487056
-0.00352621
-8.2121e-05
-0.00129483
-0.000294065
-0.0028796
-0.000606144
-0.00381729
-0.000990601
-0.00432776
-0.00142388
-0.00456796
-0.00188792
-0.00464696
-0.00236974
-0.00463562
-0.0028603
-0.0045767
-0.00335329
-0.00449237
-0.00439072
-0.00383313
-0.000105694
-0.00118914
-0.000362591
-0.00262271
-0.000725813
-0.00345406
-0.00115932
-0.00389425
-0.00163557
-0.00409171
-0.00213485
-0.00414768
-0.0026437
-0.00412677
-0.0031531
-0.0040673
-0.00365585
-0.00398962
-0.00390414
-0.00414243
-0.000127131
-0.00106201
-0.000424115
-0.00232572
-0.000832167
-0.00304601
-0.00130807
-0.00341835
-0.00182126
-0.00357852
-0.00235125
-0.00361768
-0.00288499
-0.00359303
-0.00341428
-0.00353801
-0.00393356
-0.00347034
-0.00339942
-0.00443828
-0.000146175
-0.000915835
-0.000478214
-0.00199368
-0.000925048
-0.00259918
-0.00143746
-0.00290594
-0.00198268
-0.0030333
-0.00254008
-0.00306028
-0.00309736
-0.00303575
-0.00364752
-0.00298785
-0.00418658
-0.00293128
-0.00287373
-0.00471226
-0.00016258
-0.000753255
-0.00052444
-0.00163182
-0.00100403
-0.00211959
-0.00154727
-0.0023627
-0.00211983
-0.00246075
-0.0027012
-0.00247891
-0.00327993
-0.00245702
-0.00385011
-0.00241767
-0.00440892
-0.00237247
-0.00232741
-0.00495524
-0.000176098
-0.000577156
-0.000562288
-0.00124563
-0.00106848
-0.00161339
-0.00163679
-0.0017944
-0.00223177
-0.00186576
-0.00283317
-0.0018775
-0.0034303
-0.0018599
-0.00401807
-0.0018299
-0.00459446
-0.00179608
-0.00176282
-0.00515904
-0.000186491
-0.000390666
-0.000591239
-0.000840886
-0.00111766
-0.00108697
-0.00170505
-0.00120701
-0.00231723
-0.00125358
-0.00293419
-0.00126055
-0.0035458
-0.00124828
-0.00414762
-0.00122809
-0.00473811
-0.00120559
-0.00118367
-0.00531727
-0.000193548
-0.000197117
-0.000610832
-0.000423603
-0.00115089
-0.000546916
-0.00175115
-0.00060675
-0.00237499
-0.000629732
-0.00300257
-0.000632968
-0.00362417
-0.000626686
-0.00423572
-0.000616533
-0.00483601
-0.000605301
-0.000594412
-0.00542527
-0.000197117
-2.4945e-11
-0.00062072
-4.8142e-11
-0.00116764
-6.71914e-11
-0.00177439
-7.91869e-11
-0.00240412
-8.47172e-11
-0.00303709
-8.51655e-11
-0.00366377
-8.19986e-11
-0.0042803
-7.65327e-11
-0.00488561
-6.97557e-11
-6.42833e-11
-0.00548002
-0.000197117
0.000197117
-0.00062072
0.000423602
-0.00116764
0.000546916
-0.00177439
0.000606749
-0.00240412
0.000629732
-0.00303709
0.000632968
-0.00366377
0.000626685
-0.0042803
0.000616533
-0.00488561
0.000605301
0.000594412
-0.00548002
-0.000193548
0.000390666
-0.000610832
0.000840886
-0.00115089
0.00108697
-0.00175115
0.00120701
-0.00237499
0.00125358
-0.00300257
0.00126055
-0.00362417
0.00124828
-0.00423572
0.00122809
-0.00483601
0.00120559
0.00118367
-0.00542527
-0.000186491
0.000577156
-0.000591239
0.00124563
-0.00111766
0.00161339
-0.00170505
0.0017944
-0.00231723
0.00186576
-0.00293419
0.0018775
-0.0035458
0.0018599
-0.00414762
0.0018299
-0.00473811
0.00179608
0.00176282
-0.00531727
-0.000176099
0.000753255
-0.000562288
0.00163182
-0.00106848
0.00211959
-0.00163679
0.0023627
-0.00223177
0.00246075
-0.00283317
0.00247891
-0.0034303
0.00245702
-0.00401807
0.00241767
-0.00459446
0.00237247
0.00232741
-0.00515904
-0.00016258
0.000915835
-0.00052444
0.00199368
-0.00100403
0.00259918
-0.00154727
0.00290594
-0.00211983
0.0030333
-0.0027012
0.00306028
-0.00327993
0.00303575
-0.00385011
0.00298785
-0.00440892
0.00293128
0.00287373
-0.00495524
-0.000146175
0.00106201
-0.000478214
0.00232572
-0.000925048
0.00304601
-0.00143746
0.00341835
-0.00198268
0.00357852
-0.00254008
0.00361768
-0.00309736
0.00359303
-0.00364752
0.00353801
-0.00418658
0.00347034
0.00339942
-0.00471226
-0.000127131
0.00118914
-0.000424115
0.00262271
-0.000832167
0.00345406
-0.00130807
0.00389425
-0.00182126
0.00409171
-0.00235126
0.00414768
-0.00288499
0.00412677
-0.00341428
0.0040673
-0.00393356
0.00398962
0.00390414
-0.00443828
-0.000105694
0.00129483
-0.000362591
0.0028796
-0.000725813
0.00381729
-0.00115932
0.00432776
-0.00163557
0.00456796
-0.00213485
0.00464696
-0.0026437
0.00463562
-0.0031531
0.0045767
-0.00365585
0.00449237
0.00439072
-0.00414243
-8.2121e-05
0.00137696
-0.000294065
0.00309155
-0.000606144
0.00412936
-0.000990601
0.00471221
-0.00142388
0.00500124
-0.00188792
0.005111
-0.00236974
0.00511744
-0.0028603
0.00506726
-0.00335329
0.00498536
0.00487056
-0.00383313
-5.67518e-05
0.00143371
-0.000219113
0.00325391
-0.000473242
0.00438349
-0.000800283
0.00503926
-0.00118109
0.00538204
-0.00159973
0.00552964
-0.00204494
0.00556265
-0.00250953
0.00553185
-0.00299229
0.00546811
0.00540449
-0.00352621
-3.02225e-05
0.00146393
-0.000139107
0.00336279
-0.00032845
0.00457284
-0.000588022
0.00529883
-0.000901977
0.005696
-0.0012537
0.00588136
-0.00162863
0.00593759
-0.00201638
0.00591959
-0.00241321
0.00586495
0.00579557
-0.0028043
-3.6126e-06
0.00146754
-5.71009e-05
0.00341628
-0.000177534
0.00469327
-0.000363961
0.00548525
-0.000605276
0.00593731
-0.000886568
0.00616266
-0.0011936
0.00624462
-0.00151558
0.00624157
-0.00184564
0.00619501
0.00613558
-0.00218565
2.18404e-05
0.0014457
2.33775e-05
0.00341475
-2.69215e-05
0.00474357
-0.000138047
0.00559638
-0.00030514
0.00610441
-0.000516782
0.0063743
-0.000760389
0.00648823
-0.00102533
0.00650651
-0.00130321
0.00647289
0.00641934
-0.00158697
4.51788e-05
0.00140052
9.94975e-05
0.00336043
0.000118525
0.00472454
8.33211e-05
0.00563158
-8.25482e-06
0.00619598
-0.00014907
0.00651511
-0.000328529
0.00666769
-0.000536047
0.00671403
-0.000761898
0.00669874
0.00665359
-0.00099615
6.57294e-05
0.00133479
0.000169094
0.00325706
0.000255004
0.00463863
0.000295197
0.00559139
0.000280261
0.00621092
0.000212495
0.00658288
0.000100045
0.00678014
-4.69418e-05
0.00686102
-0.000217949
0.00686975
0.00683795
-0.000402309
8.30402e-05
0.00125175
0.00023049
0.00310961
0.000379319
0.0044898
0.000493109
0.0054776
0.00055529
0.00614874
0.000562901
0.00657527
0.000521022
0.00682201
0.000438694
0.00694335
0.000326599
0.00698184
0.00696867
0.000195879
9.68393e-05
0.00115491
0.000282422
0.00292403
0.000488756
0.00428347
0.000672894
0.00529346
0.000811615
0.00601002
0.000896438
0.00649044
0.000928703
0.00678975
0.000915504
0.00695654
0.000866937
0.00703041
0.0070412
0.000794406
0.000107008
0.00104791
0.000323999
0.00270704
0.000581051
0.00402642
0.000830657
0.00504386
0.00104383
0.00579684
0.00120658
0.00632769
0.00131591
0.00668043
0.00137608
0.00689637
0.00139577
0.00701072
0.00705082
0.00138615
0.000113564
0.000934342
0.000354704
0.0024659
0.000654435
0.00372669
0.000962861
0.00473543
0.0012465
0.0055132
0.00148618
0.00608801
0.0016742
0.00649241
0.00181122
0.00675935
0.0019036
0.00691834
0.00699286
0.00196156
0.000116654
0.000817688
0.000374411
0.00220814
0.000707751
0.00339335
0.0010666
0.00437658
0.00141454
0.00516526
0.00172799
0.00577457
0.00199449
0.00622591
0.00221051
0.00654333
0.00237925
0.00674961
0.00686302
0.00250908
0.000116538
0.00070115
0.000383405
0.00194127
0.000740578
0.00303617
0.00113988
0.00397728
0.00154376
0.00476138
0.00192531
0.00539301
0.00226774
0.00588349
0.00256303
0.00624803
0.00281051
0.00650213
0.00665782
0.00301571
0.000113617
0.000587533
0.000382451
0.00167244
0.000753425
0.0026652
0.00118207
0.00354863
0.00163148
0.00431196
0.00207292
0.00495158
0.00248603
0.00547038
0.0028585
0.00587556
0.00318525
0.00617539
0.00637504
0.00346802
0.000108358
0.000479175
0.000372657
0.00140814
0.00074761
0.00229025
0.00119384
0.0031024
0.00167682
0.00382898
0.00216757
0.00446083
0.00264342
0.00499453
0.00308827
0.00543071
0.00349255
0.00577111
0.00601424
0.00385336
0.000101293
0.000377883
0.00035544
0.00115399
0.000725223
0.00192046
0.0011773
0.00265033
0.00168095
0.00332533
0.00220863
0.00393315
0.00273681
0.00446636
0.00324663
0.00492089
0.00372424
0.00529349
0.00557701
0.00416147
9.29466e-05
0.000284936
0.000332315
0.000914625
0.000688779
0.001564
0.00113551
0.0022036
0.00164674
0.0028141
0.00219789
0.00338199
0.00276622
0.00389803
0.00333141
0.00435571
0.00387599
0.00474892
0.00506692
0.00438607
8.37496e-05
0.000201186
0.000304629
0.000693746
0.000640701
0.00122793
0.00107177
0.00177253
0.00157777
0.00230809
0.00213852
0.00282125
0.00273376
0.00330278
0.00334337
0.0037461
0.00394719
0.0041451
0.00448877
0.00452533
7.39453e-05
0.000127241
0.000273262
0.000494429
0.0005827
0.00091849
0.00098846
0.00136677
0.00147666
0.0018199
0.00203266
0.00226525
0.00264066
0.00269478
0.00328292
0.00310384
0.00393816
0.00348986
0.00384694
0.00457998
6.35435e-05
6.36976e-05
0.000238473
0.0003195
0.000515341
0.000641622
0.000886135
0.000995978
0.00134308
0.00136295
0.00187805
0.00173028
0.00248182
0.002091
0.0031426
0.00244306
0.00384182
0.00279064
0.00314302
0.00454575
5.23997e-05
1.12978e-05
0.000200112
0.000171788
0.000438354
0.00040338
0.000763613
0.000670719
0.00117321
0.000953355
0.00166527
0.00123821
0.00223874
0.00151754
0.00289272
0.00178907
0.00362176
0.00206161
0.0023732
0.00439157
4.04941e-05
-2.91963e-05
0.000158458
5.38246e-05
0.000352282
0.000209555
0.0006207
0.000402302
0.000963084
0.00061097
0.00138012
0.000821178
0.00187505
0.00102261
0.00245689
0.00120723
0.00314836
0.00137014
0.00151496
0.00400661
2.83478e-05
-5.7544e-05
0.00011557
-3.33978e-05
0.000261876
6.3249e-05
0.000465856
0.000198322
0.000724704
0.000352122
0.00103393
0.000511954
0.00138671
0.00066983
0.00177227
0.000821667
0.00217499
0.000967423
0.00111802
0.00257193
1.70467e-05
-7.45907e-05
7.54599e-05
-9.18109e-05
0.00017724
-3.85307e-05
0.000321466
5.40953e-05
0.000505179
0.000168409
0.000723599
0.000293534
0.000970445
0.000422985
0.00123893
0.000553181
0.00152534
0.000681013
0.000799603
0.00184375
7.40649e-06
-8.19972e-05
4.09845e-05
-0.000125389
0.000104815
-0.000102361
0.000199491
-4.05809e-05
0.000323718
4.41819e-05
0.000475124
0.000142128
0.000651103
0.000247007
0.000849971
0.000354313
0.00107223
0.000458749
0.000550444
0.00132139
-3.07857e-07
-8.16894e-05
1.30568e-05
-0.000138754
4.62347e-05
-0.000135539
0.000101646
-9.59924e-05
0.000179945
-3.41164e-05
0.000281026
4.10465e-05
0.000404821
0.000123212
0.000551906
0.000207228
0.000723395
0.00028726
0.000355426
0.000918414
-6.20591e-06
-7.54835e-05
-8.64271e-06
-0.000136317
5.95182e-07
-0.000144777
2.55831e-05
-0.00012098
6.85577e-05
-7.7091e-05
0.000130895
-2.12912e-05
0.000213694
4.04129e-05
0.000317976
0.000102946
0.000444175
0.000161061
0.00020903
0.000590571
-1.05734e-05
-6.491e-05
-2.50036e-05
-0.000121887
-3.40438e-05
-0.000135736
-3.2354e-05
-0.00012267
-1.66371e-05
-9.28078e-05
1.52444e-05
-5.31727e-05
6.47103e-05
-9.05305e-06
0.000132528
3.51281e-05
0.000218422
7.51671e-05
0.000107052
0.000320399
-1.37243e-05
-5.11857e-05
-3.7008e-05
-9.86029e-05
-5.96876e-05
-0.000113057
-7.55756e-05
-0.000106782
-8.0769e-05
-8.76144e-05
-7.28384e-05
-6.11033e-05
-5.04277e-05
-3.14637e-05
-1.31521e-05
-2.14752e-06
3.82397e-05
2.37753e-05
4.36332e-05
0.000101659
-1.59114e-05
-3.52743e-05
-4.54495e-05
-6.90648e-05
-7.78821e-05
-8.06243e-05
-0.000106515
-7.81488e-05
-0.000127148
-6.69819e-05
-0.000137298
-5.09532e-05
-0.000135787
-3.29748e-05
-0.000122549
-1.53852e-05
-9.86054e-05
-1.68654e-07
1.10506e-05
-6.60228e-05
-1.72991e-05
-1.79752e-05
-5.08489e-05
-3.55149e-05
-8.96026e-05
-4.18706e-05
-0.000126599
-4.11529e-05
-0.000157511
-3.60694e-05
-0.000179892
-2.85723e-05
-0.000192722
-2.01446e-05
-0.000196146
-1.19614e-05
-0.000191322
-4.99279e-06
-5.90192e-09
-0.000180265
-1.79752e-05
-5.349e-05
-9.53607e-05
-0.000136514
-0.000172583
-0.000201156
-0.000221301
-0.000233263
-0.000238257
-0.000238264
0.000185429
-0.000423633
-6.0706e-08
0.00132926
-0.00114381
-2.0891e-08
0.0025056
-0.00117645
1.03751e-07
0.00326093
-0.000755507
1.7675e-07
0.00390365
-0.000642752
3.68546e-08
0.00434279
-0.000438985
-1.53324e-07
0.00471815
-0.000375161
-2.03789e-07
0.0049766
-0.000258234
-2.16509e-07
0.00523981
-0.00026323
1.98348e-08
-0.000191595
1.32698e-07
0.000297348
-0.000901246
0.00141189
-0.00225836
0.00256178
-0.00232633
0.00330053
-0.00149426
0.00393153
-0.00127375
0.00436406
-0.000871512
0.00473515
-0.000746252
0.00499174
-0.000514824
0.00525409
-0.000525587
-0.000383952
0.000513979
-0.00148125
0.00157144
-0.00331582
0.0026699
-0.0034248
0.00337673
-0.00220108
0.0039852
-0.00188221
0.00440513
-0.00129144
0.00476812
-0.00110925
0.00502131
-0.00076801
0.00528219
-0.00078647
-0.000578237
0.000821387
-0.00220098
0.00179691
-0.00429134
0.00282182
-0.00444971
0.00348376
-0.00286302
0.00406063
-0.00245909
0.00446318
-0.00169399
0.00481514
-0.00146121
0.00506398
-0.00101686
0.00532323
-0.00104572
-0.000775752
0.00119989
-0.00308046
0.0020729
-0.00516435
0.00300616
-0.00538298
0.00361354
-0.0034704
0.00415217
-0.00299772
0.00453422
-0.00207604
0.00487341
-0.0018004
0.00511784
-0.00126128
0.00537592
-0.0013038
-0.000978176
0.00162528
-0.00411518
0.0023807
-0.00591977
0.00320918
-0.00621146
0.00375627
-0.00401749
0.00425295
-0.0034944
0.00461337
-0.00243646
0.00493953
-0.00212655
0.00518048
-0.00150222
0.00543864
-0.00156196
-0.00118765
0.00206952
-0.00526628
0.00269909
-0.00654934
0.0034156
-0.00692796
0.00390114
-0.00450303
0.00435533
-0.0039486
0.00469518
-0.00277631
0.00500965
-0.00244102
0.00524918
-0.00174175
0.00550953
-0.00182232
-0.0014068
0.00250256
-0.00644745
0.00300508
-0.00705186
0.00360946
-0.00753233
0.0040369
-0.00493048
0.00445142
-0.00436312
0.00477394
-0.00309882
0.00507967
-0.00274675
0.005321
-0.00198308
0.00558651
-0.00208782
-0.0016388
0.00290595
-0.00750965
0.00327938
-0.00742529
0.00377659
-0.00802954
0.00415305
-0.00530694
0.00453369
-0.00474377
0.00484408
-0.0034092
0.00514556
-0.00304823
0.00539296
-0.00223048
0.00566743
-0.00236229
-0.00188728
0.00328397
-0.00822169
0.00352034
-0.00766166
0.00390601
-0.00841522
0.00424227
-0.0056432
0.00459535
-0.00509685
0.00490074
-0.00371459
0.00520317
-0.00335067
0.00546242
-0.00248973
0.00574956
-0.00264942
-0.00215689
0.043423
-0.000992377
-0.0506523
0.0391535
-0.00339216
0.0370983
-0.00636
0.0369662
-0.00551109
0.0369057
-0.00503643
0.0371676
-0.00397645
0.037468
-0.00365108
0.0378718
-0.00289355
0.0382824
-0.00305997
-0.00274116
0.0523228
0.00323543
-0.0565506
0.0501794
-0.00124878
0.0475988
-0.00377934
0.0460831
-0.00399545
0.0449193
-0.00387256
0.0441699
-0.00322713
0.0435827
-0.00306387
0.0432424
-0.00255323
0.0429515
-0.00276906
-0.0027109
0.0538776
0.00445127
-0.0550934
0.0526146
1.41836e-05
0.0509945
-0.00215926
0.0496839
-0.00268484
0.0485817
-0.00277032
0.0477571
-0.00240255
0.0470157
-0.00232249
0.0464482
-0.00198573
0.0458986
-0.00221944
-0.0023604
0.052023
0.00431674
-0.0518885
0.0516272
0.000410008
0.0507779
-0.00130996
0.0499213
-0.00182824
0.0491419
-0.0019909
0.0485352
-0.00179591
0.0479535
-0.00174077
0.0474532
-0.00148541
0.0469363
-0.00170256
-0.00193578
0.0499799
0.00364684
-0.04931
0.0498498
0.000540085
0.049405
-0.000865125
0.0488803
-0.00130351
0.0483587
-0.00146928
0.0479415
-0.00137872
0.0475332
-0.00133255
0.0471595
-0.00111168
0.0467569
-0.00129994
-0.00154294
0.0482876
0.00285805
-0.0474988
0.0483033
0.000524412
0.0480284
-0.000590264
0.0476746
-0.000949637
0.0472971
-0.00109181
0.0469799
-0.00106149
0.046673
-0.00102563
0.0463925
-0.000831218
0.0460813
-0.000988761
-0.00119785
0.0470849
0.00207794
-0.0463048
0.0471635
0.000445772
0.0469668
-0.000393534
0.0466926
-0.000675435
0.0463858
-0.000784974
0.0461089
-0.000784592
0.0458439
-0.000760643
0.0456142
-0.000601548
0.0453518
-0.000726307
-0.000884878
0.0462735
0.00134726
-0.0455428
0.0463996
0.000319583
0.0462463
-0.000240226
0.0460071
-0.000436159
0.0457321
-0.000510037
0.0454679
-0.00052034
0.0452142
-0.000506954
0.0450074
-0.000394739
0.0447629
-0.000481852
-0.000586825
0.0457785
0.000661201
-0.0450925
0.045935
0.000163083
0.0458096
-0.000114765
0.0455858
-0.000212387
0.0453248
-0.000249009
0.0450638
-0.000259363
0.0448105
-0.000253672
0.0446127
-0.000196957
0.0443712
-0.000240321
-0.000293678
0.0455439
-0.0448827
0.045707
0.0455922
0.0453799
0.0451308
0.0448715
0.0446178
0.0444209
0.0441805
0.0567908
0.00229767
-0.0560727
0.0573518
0.00290696
0.0577073
0.00349787
0.0578074
0.00406138
0.0576052
0.00458834
0.0570605
0.00506999
0.0561418
0.00549869
0.0548192
0.00586835
0.0530366
0.00617418
0.00639089
0.0513888
0.00168995
-0.0507811
0.0520411
0.00225466
0.052724
0.00281495
0.0534197
0.00336573
0.0541067
0.00390128
0.0547614
0.00441539
0.0553584
0.0049016
0.0558732
0.00535357
0.0562818
0.00576557
0.00612212
0.0480837
0.00121586
-0.0476096
0.0486387
0.00169963
0.0492714
0.00218222
0.0499764
0.00266075
0.0507456
0.00313207
0.0515683
0.0035927
0.0524311
0.00403882
0.0533184
0.00446626
0.0542135
0.00487049
0.00524215
0.0454834
0.000890023
-0.0451576
0.0458893
0.00129374
0.0463759
0.0016957
0.046943
0.00209367
0.0475896
0.00248538
0.0483138
0.0028685
0.0491121
0.00324062
0.0499791
0.00359924
0.050908
0.00394157
0.00426167
0.0438999
0.000650733
-0.0436607
0.0442133
0.000980405
0.0446008
0.0013082
0.0450622
0.00163224
0.0455969
0.00195067
0.0462038
0.00226161
0.0468812
0.00256322
0.0476269
0.00285358
0.0484378
0.00313063
0.00338945
0.0428051
0.000468866
-0.0426232
0.0430569
0.000728575
0.0433786
0.000986513
0.0437697
0.00124117
0.0442293
0.00149102
0.0447564
0.0017346
0.0453492
0.00197041
0.0460058
0.002197
0.0467236
0.00241274
0.00261426
0.0421134
0.000324286
-0.0419688
0.0423249
0.000517108
0.0426029
0.000708516
0.0429467
0.000897357
0.0433552
0.00108249
0.043827
0.00126277
0.0443603
0.0014371
0.044953
0.00160437
0.0456023
0.00176337
0.0019118
0.0416622
0.0002038
-0.0415417
0.0418478
0.000331497
0.0420981
0.000458237
0.0424122
0.000583246
0.0427889
0.000705756
0.0432267
0.000825008
0.0437235
0.000940254
0.0442771
0.00105076
0.0448848
0.00115572
0.0012538
0.0413981
9.80648e-05
-0.0412924
0.0415679
0.000161706
0.0418013
0.000224886
0.0420973
0.000287217
0.0424548
0.000348312
0.042872
0.000407787
0.043347
0.000465266
0.0438773
0.000520376
0.0444603
0.000572726
0.00062167
0.0412728
-0.0411747
0.0414345
0.0416594
0.0419466
0.0422949
0.0427027
0.043168
0.0436883
0.0442611
0.0481205
-0.0033543
-0.0475705
0.0488303
-0.00289545
0.0496498
-0.00240641
0.0505393
-0.00188565
0.0514715
-0.00133457
0.052428
-0.000760581
0.0533904
-0.000168037
0.0543373
0.000439328
0.0552421
0.00105674
0.00167842
0.0479695
-0.00340814
-0.0479157
0.0480671
-0.00299309
0.0482078
-0.00254704
0.0483971
-0.00207497
0.0486408
-0.00157829
0.0489431
-0.00106286
0.0493074
-0.000532326
0.0497357
1.09644e-05
0.050228
0.000564497
0.00112529
0.0468959
-0.00314869
-0.0471554
0.0466914
-0.00278859
0.0465476
-0.00240319
0.0464697
-0.00199706
0.0464638
-0.00157239
0.0465335
-0.00113253
0.0466811
-0.000679947
0.0469087
-0.000216643
0.0472179
0.00025529
0.000733591
0.045576
-0.00277203
-0.0459526
0.0452572
-0.00246981
0.0449999
-0.00214584
0.0448075
-0.00180468
0.0446833
-0.00144824
0.0446297
-0.00107891
0.0446485
-0.000698764
0.0447416
-0.000309746
0.0449108
8.61299e-05
0.00048677
0.0446574
-0.00235011
-0.0450793
0.0442892
-0.00210165
0.0439794
-0.00183603
0.043731
-0.00155634
0.043547
-0.00126421
0.0434296
-0.000961468
0.0433807
-0.000649854
0.043402
-0.000331061
0.0434949
-6.83028e-06
0.000321045
0.0439872
-0.00190062
-0.0444367
0.0435896
-0.00170413
0.0432479
-0.00149431
0.042965
-0.00127344
0.0427436
-0.00104275
0.0425858
-0.000803656
0.0424934
-0.000557532
0.0424681
-0.000305771
0.0425111
-4.98027e-05
0.000208909
0.0435576
-0.00143615
-0.0440221
0.0431435
-0.00129003
0.0427834
-0.0011342
0.0424801
-0.000970159
0.0422362
-0.000798813
0.0420537
-0.00062118
0.0419345
-0.000438294
0.0418799
-0.000251209
0.0418911
-6.1007e-05
0.000131203
0.0432791
-0.000961586
-0.0437537
0.042854
-0.000864898
0.0424816
-0.000761817
0.0421647
-0.00065328
0.0419058
-0.000539893
0.0417069
-0.000422317
0.0415699
-0.000301234
0.041496
-0.000177348
0.0414864
-5.13825e-05
7.59201e-05
0.0431186
-0.000481598
-0.0435986
0.0426873
-0.000433578
0.0423078
-0.000382385
0.041983
-0.000328463
0.0417152
-0.000272111
0.0415066
-0.00021365
0.0413588
-0.000153418
0.0412732
-9.1765e-05
0.0412508
-2.90513e-05
3.43519e-05
0.0430448
-0.0435264
0.0426112
0.0422288
0.0419004
0.0416282
0.0414146
0.0412612
0.0411694
0.0411404
0.0429487
0.000174176
-0.00019396
0.0429948
0.000520022
-0.000566155
0.0430722
0.000871186
-0.000948545
0.0431981
0.00123526
-0.00136115
0.0434023
0.0016175
-0.00182168
0.043728
0.00202212
-0.00234781
0.0442335
0.00245118
-0.00295675
0.0449903
0.00290711
-0.00366384
0.046092
0.00336586
-0.00446755
0.00391554
-0.00539411
0.0429655
0.000137649
0.0430721
0.000413408
0.0432527
0.000690572
0.0435176
0.000970307
0.0438817
0.00125341
0.0443637
0.00154014
0.0449853
0.00182957
0.0457706
0.00212187
0.0467349
0.00240149
0.00273482
0.0429664
0.000100147
0.0430774
0.000302401
0.0432619
0.000506126
0.0435238
0.00070837
0.043869
0.000908251
0.0443047
0.00110447
0.0448393
0.00129493
0.0454833
0.0014779
0.0462414
0.00164339
0.0018208
0.0429586
7.04629e-05
0.0430475
0.000213538
0.0431957
0.000357935
0.043404
0.000500078
0.0436734
0.000638788
0.0440051
0.000772779
0.0443996
0.000900482
0.0448568
0.0010207
0.0453717
0.00112842
0.00123989
0.0429506
4.88317e-05
0.043016
0.000148145
0.0431255
0.00024836
0.043279
0.000346587
0.043476
0.000441784
0.0437159
0.000532911
0.0439975
0.000618826
0.0443196
0.000698595
0.0446787
0.000769422
0.000839266
0.0429445
3.32685e-05
0.0429917
0.000100941
0.0430709
0.000169196
0.0431815
0.000235984
0.0433227
0.000300542
0.0434935
0.000362139
0.0436923
0.000420033
0.0439172
0.000473633
0.0441652
0.000521463
0.000567808
0.0429403
2.18938e-05
0.0429748
6.64187e-05
0.0430327
0.000111308
0.0431135
0.000155202
0.0432164
0.000197589
0.0433406
0.000237984
0.0434847
0.00027591
0.0436474
0.000310976
0.0438265
0.000342354
0.000372212
0.0429376
1.32624e-05
0.0429638
4.02226e-05
0.0430077
6.73925e-05
0.0430689
9.39613e-05
0.0431469
0.00011962
0.0432408
0.000144081
0.0433496
0.000167067
0.0434723
0.000188353
0.0436071
0.000207506
0.000225632
0.0429359
6.25422e-06
0.0429572
1.89636e-05
0.0429928
3.17689e-05
0.0430425
4.42912e-05
0.0431057