/*--------------------------------*- C++ -*----------------------------------*\
  =========                 |
  \\      /  F ield         | OpenFOAM: The Open Source CFD Toolbox
   \\    /   O peration     | Website:  https://openfoam.org
    \\  /    A nd           | Version:  6.0
     \\/     M anipulation  |
\*---------------------------------------------------------------------------*/
FoamFile
{
    version     2.0;
    format      ascii;
    class       surfaceScalarField;
    location    "1.7";
    object      phi;
}
// * * * * * * * * * * * * * * * * * * * * * * * * * * * * * * * * * * * * * //

dimensions      [0 3 -1 0 0 0 0];

internalField   nonuniform List<scalar> 
47678
(
2.98122e-05
0.00388593
1.9575e-09
5.98491e-05
0.00381842
8.91149e-05
0.00368581
0.000116964
0.00349012
0.000142855
0.00323476
0.000166314
0.00292421
0.000186916
0.00256382
0.000204296
0.00215981
0.000218146
0.00171916
0.000228221
0.00124939
0.000234338
0.000759346
0.000260553
0.000236952
2.96236e-05
0.00385631
2.1992e-09
5.94704e-05
0.00378857
8.85506e-05
0.00365673
0.000116222
0.00346245
0.000141948
0.00320904
0.000165255
0.00290091
0.000185725
0.00254336
0.000202995
0.00214254
0.000216756
0.0017054
0.000226762
0.0012394
0.000232938
0.000753184
0.000257891
0.000235624
2.94357e-05
0.00382687
2.22698e-09
5.90935e-05
0.00375891
8.79896e-05
0.00362784
0.000115485
0.00343496
0.000141047
0.00318348
0.000164206
0.00287775
0.000184544
0.00252302
0.000201703
0.00212539
0.000215378
0.00169173
0.000225316
0.00122946
0.00023147
0.000747029
0.000255251
0.000234101
2.92489e-05
0.00379762
2.23034e-09
5.87189e-05
0.00372944
8.74321e-05
0.00359913
0.000114753
0.00340764
0.000140152
0.00315809
0.000163162
0.00285474
0.000183371
0.00250282
0.000200419
0.00210834
0.000214008
0.00167815
0.000223881
0.00121959
0.000229984
0.000740938
0.000252725
0.000232533
2.90633e-05
0.00376855
2.00587e-09
5.83468e-05
0.00370016
8.68783e-05
0.00357059
0.000114026
0.00338049
0.000139262
0.00313285
0.000162125
0.00283188
0.000182204
0.00248274
0.000199143
0.00209141
0.000212646
0.00166465
0.000222457
0.00120978
0.000228506
0.000734888
0.000250237
0.000230984
2.8879e-05
0.00373967
1.7384e-09
5.79771e-05
0.00367106
8.63278e-05
0.00354225
0.000113302
0.00335352
0.000138378
0.00310778
0.000161094
0.00280917
0.000181044
0.00246279
0.000197875
0.00207458
0.000211293
0.00165124
0.000221045
0.00120004
0.000227043
0.0007289
0.000247837
0.000229465
2.86958e-05
0.00371098
1.42644e-09
5.76097e-05
0.00364215
8.57807e-05
0.00351408
0.000112584
0.00332672
0.000137498
0.00308286
0.00016007
0.0027866
0.000179893
0.00244297
0.000196616
0.00205786
0.000209949
0.0016379
0.000219642
0.00119034
0.000225597
0.000722942
0.000245459
0.000227968
2.85139e-05
0.00368246
1.04351e-09
5.72446e-05
0.00361342
8.52369e-05
0.00348609
0.000111869
0.00330009
0.000136625
0.00305811
0.000159052
0.00276417
0.000178748
0.00242328
0.000195365
0.00204124
0.000208614
0.00162466
0.000218249
0.00118072
0.000224163
0.00071704
0.000243159
0.000226486
2.83331e-05
0.00365413
6.17139e-10
5.68818e-05
0.00358487
8.46963e-05
0.00345827
0.000111159
0.00327363
0.000135756
0.00303351
0.00015804
0.00274189
0.000177611
0.00240371
0.000194123
0.00202473
0.000207288
0.00161149
0.000216865
0.00117114
0.00022274
0.000711161
0.000240876
0.000225018
2.81536e-05
0.00362598
1.20497e-10
5.65212e-05
0.00355651
8.41589e-05
0.00343064
0.000110453
0.00324733
0.000134893
0.00300908
0.000157035
0.00271975
0.000176481
0.00238427
0.000192888
0.00200833
0.00020597
0.00159842
0.00021549
0.00116162
0.000221327
0.000705335
0.000238661
0.000223564
2.79752e-05
0.003598
-4.49447e-10
5.61627e-05
0.00352832
8.36247e-05
0.00340317
0.000109751
0.00322121
0.000134036
0.00298479
0.000156036
0.00269775
0.000175359
0.00236494
0.000191661
0.00199203
0.00020466
0.00158542
0.000214123
0.00115216
0.000219922
0.000699531
0.000236452
0.000222125
2.77979e-05
0.0035702
-1.08912e-09
5.58064e-05
0.00350031
8.30936e-05
0.00337589
0.000109053
0.00319525
0.000133183
0.00296066
0.000155044
0.00267589
0.000174243
0.00234575
0.000190442
0.00197583
0.000203359
0.00157251
0.000212765
0.00114276
0.000218527
0.000693779
0.000234302
0.000220698
2.76217e-05
0.00354258
-1.77119e-09
5.54522e-05
0.00347248
8.25657e-05
0.00334877
0.00010836
0.00316946
0.000132336
0.00293669
0.000154058
0.00265417
0.000173135
0.00232667
0.000189231
0.00195974
0.000202067
0.00155967
0.000211416
0.00113341
0.000217142
0.000688048
0.000232153
0.000219283
2.74465e-05
0.00351514
-2.43442e-09
5.51001e-05
0.00344483
8.20409e-05
0.00332184
0.000107671
0.00314383
0.000131495
0.00291287
0.000153078
0.00263259
0.000172034
0.00230772
0.000188028
0.00194375
0.000200783
0.00154692
0.000210075
0.00112412
0.000215765
0.000682367
0.000230057
0.000217879
2.72723e-05
0.00348787
-3.00038e-09
5.475e-05
0.00341735
8.15192e-05
0.00329507
0.000106986
0.00311836
0.000130658
0.00288919
0.000152104
0.00261114
0.00017094
0.00228888
0.000186833
0.00192785
0.000199507
0.00153424
0.000208742
0.00111488
0.000214396
0.000676707
0.000227955
0.000216485
2.70991e-05
0.00346077
-3.36127e-09
5.44019e-05
0.00339005
8.10007e-05
0.00326847
0.000106305
0.00309306
0.000129827
0.00286567
0.000151137
0.00258984
0.000169853
0.00227017
0.000185646
0.00191206
0.00019824
0.00152165
0.000207418
0.00110571
0.000213037
0.000671098
0.000225906
0.000215102
2.69269e-05
0.00343385
-3.41503e-09
5.40559e-05
0.00336292
8.04853e-05
0.00324204
0.000105629
0.00306791
0.000129001
0.0028423
0.000150176
0.00256866
0.000168773
0.00225157
0.000184466
0.00189637
0.000196981
0.00150914
0.000206103
0.00109659
0.000211686
0.000665508
0.000223848
0.000213729
2.67555e-05
0.0034071
-3.0737e-09
5.37119e-05
0.00333596
7.99731e-05
0.00321578
0.000104957
0.00304293
0.000128181
0.00281908
0.000149221
0.00254763
0.0001677
0.00223309
0.000183294
0.00188078
0.00019573
0.00149671
0.000204795
0.00108753
0.000210344
0.000659968
0.000221839
0.000212366
2.65851e-05
0.00338052
-2.28138e-09
5.33699e-05
0.00330918
7.9464e-05
0.00318968
0.000104289
0.00301811
0.000127365
0.002796
0.000148272
0.00252672
0.000166634
0.00221473
0.000182129
0.00186528
0.000194488
0.00148434
0.000203497
0.00107852
0.000209011
0.000654447
0.00021982
0.000211012
2.64156e-05
0.0033541
-1.03025e-09
5.303e-05
0.00328257
7.89581e-05
0.00316376
0.000103625
0.00299344
0.000126555
0.00277307
0.000147329
0.00250595
0.000165575
0.00219649
0.000180973
0.00184989
0.000193253
0.00147207
0.000202206
0.00106957
0.000207686
0.000648977
0.000217849
0.000209667
2.6247e-05
0.00332785
6.41454e-10
5.26921e-05
0.00325612
7.84553e-05
0.00313799
0.000102966
0.00296893
0.00012575
0.00275029
0.000146392
0.0024853
0.000164523
0.00217835
0.000179823
0.00183459
0.000192026
0.00145986
0.000200924
0.00106067
0.000206369
0.000643525
0.000215867
0.000208332
2.60794e-05
0.00330177
2.66005e-09
5.23562e-05
0.00322984
7.79556e-05
0.00311239
0.00010231
0.00294458
0.00012495
0.00272765
0.000145461
0.00246479
0.000163478
0.00216034
0.000178681
0.00181939
0.000190807
0.00144774
0.00019965
0.00105183
0.000205061
0.000638123
0.000213933
0.000207006
2.59126e-05
0.00327585
4.92519e-09
5.20223e-05
0.00320373
7.7459e-05
0.00308696
0.000101659
0.00292038
0.000124155
0.00270515
0.000144537
0.00244441
0.000162439
0.00214244
0.000177547
0.00180428
0.000189596
0.00143569
0.000198384
0.00104304
0.000203761
0.000632739
0.000211986
0.000205689
2.57467e-05
0.0032501
7.33959e-09
5.16905e-05
0.00317779
7.69655e-05
0.00306168
0.000101012
0.00289633
0.000123365
0.0026828
0.000143618
0.00242416
0.000161407
0.00212465
0.000176419
0.00178927
0.000188393
0.00142372
0.000197126
0.00103431
0.000202469
0.000627405
0.000210089
0.000204381
2.55818e-05
0.00322451
9.8164e-09
5.13606e-05
0.00315201
7.64751e-05
0.00303657
0.000100369
0.00287244
0.000122581
0.00266059
0.000142705
0.00240403
0.000160382
0.00210697
0.000175299
0.00177435
0.000187198
0.00141182
0.000195876
0.00102563
0.000201186
0.000622088
0.000208177
0.000203082
2.54177e-05
0.00319908
1.2297e-08
5.10328e-05
0.0031264
7.59877e-05
0.00301161
9.97297e-05
0.0028487
0.000121801
0.00263852
0.000141798
0.00238404
0.000159363
0.00208941
0.000174186
0.00175953
0.00018601
0.0014
0.000194634
0.00101701
0.00019991
0.00061682
0.000206314
0.000201791
2.52546e-05
0.00317381
1.47492e-08
5.0707e-05
0.00310095
7.55034e-05
0.00298682
9.90948e-05
0.00282511
0.000121026
0.00261659
0.000140896
0.00236417
0.00015835
0.00207195
0.000173081
0.00174479
0.00018483
0.00138824
0.0001934
0.00100844
0.000198643
0.00061157
0.000204435
0.000200509
2.50924e-05
0.0031487
1.71669e-08
5.03831e-05
0.00307566
7.5022e-05
0.00296218
9.84638e-05
0.00280167
0.000120256
0.0025948
0.000140001
0.00234443
0.000157345
0.00205461
0.000171982
0.00173016
0.000183658
0.00137657
0.000192174
0.000999925
0.000197384
0.000606369
0.000202604
0.000199235
2.49312e-05
0.00312375
1.95567e-08
5.00612e-05
0.00305052
7.45437e-05
0.00293769
9.78368e-05
0.00277837
0.000119491
0.00257314
0.000139111
0.0023248
0.000156345
0.00203738
0.00017089
0.00171561
0.000182493
0.00136497
0.000190956
0.000991457
0.000196133
0.000601184
0.000200758
0.00019797
2.47708e-05
0.00309895
2.19331e-08
4.97412e-05
0.00302556
7.40683e-05
0.00291337
9.72138e-05
0.00275523
0.000118731
0.00255163
0.000138227
0.00230531
0.000155352
0.00202025
0.000169806
0.00170116
0.000181335
0.00135344
0.000189745
0.000983053
0.00019489
0.000596047
0.000198957
0.000196712
2.46114e-05
0.00307432
2.43029e-08
4.94233e-05
0.00300074
7.35959e-05
0.00288919
9.65947e-05
0.00273223
0.000117976
0.00253024
0.000137348
0.00228594
0.000154366
0.00200323
0.000168728
0.0016868
0.000180185
0.00134198
0.000188542
0.00097469
0.000193655
0.000590927
0.00019714
0.000195463
2.44529e-05
0.00304984
2.66657e-08
4.91073e-05
0.00297609
7.31265e-05
0.00286518
9.59794e-05
0.00270938
0.000117225
0.002509
0.000136475
0.00226669
0.000153385
0.00198633
0.000167657
0.00167253
0.000179043
0.0013306
0.000187347
0.000966391
0.000192427
0.000585855
0.000195367
0.000194222
2.42954e-05
0.00302551
2.90049e-08
4.87932e-05
0.00295159
7.266e-05
0.00284131
9.53681e-05
0.00268667
0.000116479
0.00248789
0.000135608
0.00224756
0.000152411
0.00196952
0.000166594
0.00165834
0.000177907
0.00131928
0.00018616
0.000958132
0.000191207
0.000580799
0.000193577
0.000192989
2.41388e-05
0.00300134
3.12954e-08
4.84811e-05
0.00292725
7.21963e-05
0.00281759
9.47606e-05
0.0026641
0.000115738
0.00246691
0.000134746
0.00222855
0.000151444
0.00195282
0.000165536
0.00164425
0.000176779
0.00130805
0.00018498
0.000949937
0.000189996
0.000575791
0.000191829
0.000191764
2.39832e-05
0.00297733
3.35011e-08
4.81709e-05
0.00290306
7.17357e-05
0.00279403
9.4157e-05
0.00264168
0.000115002
0.00244606
0.00013389
0.00220966
0.000150482
0.00193623
0.000164486
0.00163024
0.000175658
0.00129687
0.000183807
0.000941782
0.000188791
0.000570798
0.000190063
0.000190546
2.38285e-05
0.00295346
3.55869e-08
4.78626e-05
0.00287903
7.12779e-05
0.00277061
9.35572e-05
0.0026194
0.00011427
0.00242535
0.000133039
0.00219089
0.000149526
0.00191974
0.000163443
0.00161633
0.000174544
0.00128577
0.000182642
0.000933689
0.000187595
0.000565852
0.000188337
0.000189337
2.36748e-05
0.00292975
3.75176e-08
4.75563e-05
0.00285515
7.0823e-05
0.00274735
9.29612e-05
0.00259726
0.000113543
0.00240477
0.000132193
0.00217224
0.000148577
0.00190336
0.000162406
0.0016025
0.000173437
0.00127474
0.000181484
0.000925636
0.000186406
0.000560921
0.000186592
0.000188136
2.35221e-05
0.00290619
3.92702e-08
4.7252e-05
0.00283142
7.0371e-05
0.00272423
9.2369e-05
0.00257527
0.000112821
0.00238432
0.000131353
0.00215371
0.000147634
0.00188708
0.000161375
0.00158876
0.000172338
0.00126378
0.000180334
0.000917645
0.000185224
0.000556038
0.000184888
0.000186942
2.33703e-05
0.00288277
4.08293e-08
4.69495e-05
0.00280784
6.99219e-05
0.00270125
9.17806e-05
0.00255341
0.000112103
0.00236399
0.000130519
0.00213529
0.000146696
0.0018709
0.000160351
0.0015751
0.000171245
0.00125288
0.000179191
0.000909692
0.00018405
0.000551169
0.000183165
0.000185756
2.32195e-05
0.00285951
4.21956e-08
4.6649e-05
0.00278441
6.94757e-05
0.00267843
9.1196e-05
0.00253169
0.00011139
0.0023438
0.000129689
0.002117
0.000145765
0.00185483
0.000159334
0.00156154
0.000170159
0.00124206
0.000178055
0.000901801
0.000182884
0.000546347
0.000181481
0.000184577
2.30697e-05
0.0028364
4.33766e-08
4.63504e-05
0.00276113
6.90323e-05
0.00265574
9.06151e-05
0.0025101
0.000110682
0.00232373
0.000128865
0.00209881
0.00014484
0.00183885
0.000158323
0.00154805
0.00016908
0.0012313
0.000176927
0.000893948
0.000181725
0.000541539
0.000179779
0.000183407
2.29209e-05
0.00281343
4.43909e-08
4.60538e-05
0.00273799
6.85917e-05
0.00263321
9.00379e-05
0.00248866
0.000109978
0.00230379
0.000128047
0.00208074
0.00014392
0.00182298
0.000157319
0.00153465
0.000168008
0.00122061
0.000175806
0.000886156
0.000180573
0.000536778
0.000178116
0.000182243
2.27731e-05
0.00279061
4.52559e-08
4.5759e-05
0.00271501
6.81541e-05
0.00261081
8.94645e-05
0.00246735
0.000109278
0.00228398
0.000127233
0.00206278
0.000143007
0.0018072
0.000156321
0.00152133
0.000166943
0.00120998
0.000174691
0.0008784
0.000179429
0.000532029
0.000176436
0.000181087
2.26263e-05
0.00276794
4.59912e-08
4.54662e-05
0.00269217
6.77192e-05
0.00258856
8.88947e-05
0.00244617
0.000108583
0.00226429
0.000126425
0.00204495
0.000142099
0.00179153
0.00015533
0.00150811
0.000165885
0.00119943
0.000173584
0.000870706
0.000178292
0.000527327
0.000174795
0.000179939
2.24805e-05
0.00274541
4.66076e-08
4.51753e-05
0.00266947
6.72872e-05
0.00256644
8.83286e-05
0.00242513
0.000107893
0.00224472
0.000125622
0.00202721
0.000141197
0.00177595
0.000154344
0.00149496
0.000164833
0.00118894
0.000172484
0.000863048
0.000177162
0.000522638
0.000173137
0.000178798
2.23357e-05
0.00272303
4.7114e-08
4.48863e-05
0.00264692
6.68579e-05
0.00254447
8.77662e-05
0.00240422
0.000107207
0.00222528
0.000124824
0.0020096
0.000140301
0.00176048
0.000153365
0.00148189
0.000163788
0.00117852
0.000171391
0.00085545
0.000176039
0.000517994
0.000171519
0.000177664
2.21919e-05
0.00270079
4.75103e-08
4.45992e-05
0.00262451
6.64315e-05
0.00252264
8.72074e-05
0.00238345
0.000106525
0.00220596
0.000124031
0.00199209
0.000139411
0.00174509
0.000152393
0.00146891
0.00016275
0.00116816
0.000170305
0.000847887
0.000174923
0.000513362
0.000169884
0.000176538
2.2049e-05
0.00267869
4.77985e-08
4.4314e-05
0.00260225
6.60078e-05
0.00250095
8.66522e-05
0.0023628
0.000105848
0.00218677
0.000123243
0.0019747
0.000138526
0.00172981
0.000151426
0.00145601
0.000161718
0.00115787
0.000169226
0.000840384
0.000173815
0.000508774
0.000168289
0.000175419
2.19072e-05
0.00265674
4.798e-08
4.40307e-05
0.00258013
6.55869e-05
0.00247939
8.61006e-05
0.00234229
0.000105175
0.00216769
0.00012246
0.00195741
0.000137646
0.00171462
0.000150465
0.00144319
0.000160693
0.00114764
0.000168153
0.000832916
0.000172714
0.000504198
0.00016668
0.000174307
2.17664e-05
0.00263492
4.80671e-08
4.37492e-05
0.00255814
6.51688e-05
0.00245797
8.55526e-05
0.00232191
0.000104506
0.00214874
0.000121683
0.00194023
0.000136773
0.00169953
0.000149511
0.00143045
0.000159674
0.00113748
0.000167088
0.000825507
0.000171619
0.000499667
0.00016511
0.000173202
2.16265e-05
0.00261325
4.80791e-08
4.34696e-05
0.0025363
6.47533e-05
0.00243668
8.5008e-05
0.00230165
0.000103842
0.00212991
0.00012091
0.00192316
0.000135905
0.00168454
0.000148563
0.00141779
0.000158662
0.00112737
0.000166029
0.000818133
0.000170532
0.000495147
0.000163525
0.000172105
2.14876e-05
0.00259171
4.80507e-08
4.31919e-05
0.0025146
6.43406e-05
0.00241554
8.4467e-05
0.00228152
0.000103182
0.00211119
0.000120142
0.0019062
0.000135042
0.00166964
0.000147621
0.00140521
0.000157656
0.00111734
0.000164977
0.000810817
0.000169451
0.000490671
0.000161979
0.000171015
2.13497e-05
0.00257031
4.80231e-08
4.2916e-05
0.00249303
6.39305e-05
0.00239452
8.39295e-05
0.00226152
0.000102526
0.00209259
0.000119379
0.00188935
0.000134185
0.00165483
0.000146684
0.00139271
0.000156657
0.00110736
0.000163931
0.000803534
0.000168378
0.000486207
0.000160418
0.000169931
2.12128e-05
0.00254905
4.80469e-08
4.26419e-05
0.0024716
6.35231e-05
0.00237364
8.33954e-05
0.00224165
0.000101874
0.00207412
0.000118621
0.0018726
0.000133334
0.00164012
0.000145754
0.00138029
0.000155664
0.00109745
0.000162892
0.000796309
0.000167311
0.000481788
0.000158894
0.000168855
2.10768e-05
0.00252792
4.81685e-08
4.23697e-05
0.00245031
6.31183e-05
0.00235289
8.28648e-05
0.0022219
0.000101227
0.00205575
0.000117867
0.00185596
0.000132487
0.00162549
0.000144829
0.00136795
0.000154677
0.0010876
0.00016186
0.000789118
0.000166251
0.000477381
0.000157355
0.000167785
2.09417e-05
0.00250693
4.84316e-08
4.20992e-05
0.00242915
6.27162e-05
0.00233227
8.23375e-05
0.00220228
0.000100583
0.00203751
0.000117119
0.00183943
0.000131647
0.00161097
0.000143911
0.00135568
0.000153697
0.00107782
0.000160834
0.000781983
0.000165198
0.000473018
0.000155849
0.000166722
2.08075e-05
0.00248607
4.88636e-08
4.18305e-05
0.00240813
6.23167e-05
0.00231179
8.18137e-05
0.00218279
9.99439e-05
0.00201938
0.000116375
0.00182299
0.000130811
0.00159653
0.000142998
0.00134349
0.000152722
0.00106809
0.000159815
0.000774882
0.000164152
0.000468667
0.000154326
0.000165666
2.06743e-05
0.00246535
4.94801e-08
4.15636e-05
0.00238724
6.19197e-05
0.00229143
8.12932e-05
0.00216341
9.93086e-05
0.00200136
0.000115636
0.00180667
0.000129981
0.00158218
0.000142091
0.00133138
0.000151754
0.00105843
0.000158803
0.000767836
0.000163112
0.00046436
0.000152837
0.000164617
2.0542e-05
0.00244475
5.02762e-08
4.12984e-05
0.00236648
6.15253e-05
0.0022712
8.0776e-05
0.00214416
9.86774e-05
0.00198346
0.000114901
0.00179044
0.000129156
0.00156792
0.00014119
0.00131934
0.000150792
0.00104882
0.000157797
0.000760823
0.000162079
0.000460065
0.000151331
0.000163574
2.04105e-05
0.00242429
5.1236e-08
4.10349e-05
0.00234586
6.11335e-05
0.0022511
8.02621e-05
0.00212503
9.80502e-05
0.00196567
0.000114172
0.00177432
0.000128336
0.00155376
0.000140295
0.00130739
0.000149837
0.00103928
0.000156797
0.000753865
0.000161053
0.000455811
0.000149856
0.000162539
2.02799e-05
0.00240396
5.23298e-08
4.07732e-05
0.00232536
6.07441e-05
0.00223113
7.97515e-05
0.00210602
9.7427e-05
0.00194799
0.000113447
0.0017583
0.000127522
0.00153968
0.000139405
0.0012955
0.000148887
0.00102979
0.000155804
0.000746939
0.000160033
0.00045157
0.000148365
0.000161509
2.01502e-05
0.00238375
5.35261e-08
4.05132e-05
0.002305
6.03573e-05
0.00221129
7.92442e-05
0.00208714
9.68078e-05
0.00193043
0.000112726
0.00174238
0.000126713
0.0015257
0.000138521
0.00128369
0.000147944
0.00102037
0.000154817
0.000740067
0.00015902
0.000447369
0.000146906
0.000160487
2.00213e-05
0.00236367
5.47902e-08
4.02548e-05
0.00228477
5.99729e-05
0.00219157
7.87401e-05
0.00206837
9.61925e-05
0.00191298
0.00011201
0.00172656
0.000125909
0.00151179
0.000137643
0.00127196
0.000147006
0.001011
0.000153837
0.000733227
0.000158013
0.000443182
0.00014543
0.000159471
1.98932e-05
0.00234372
5.60947e-08
3.99981e-05
0.00226466
5.9591e-05
0.00217198
7.82392e-05
0.00204972
9.55811e-05
0.00189564
0.000111299
0.00171084
0.00012511
0.00149799
0.00013677
0.0012603
0.000146075
0.0010017
0.000152863
0.000726441
0.000157013
0.000439033
0.000143988
0.000158462
1.9766e-05
0.0023239
5.74157e-08
3.97431e-05
0.00224469
5.92115e-05
0.00215251
7.77415e-05
0.00203119
9.49737e-05
0.0018784
0.000110592
0.00169522
0.000124316
0.00148426
0.000135903
0.0012487
0.000145149
0.000992445
0.000151895
0.000719686
0.000156019
0.000434894
0.00014253
0.000157459
1.96396e-05
0.0023042
5.87399e-08
3.94897e-05
0.00222484
5.88345e-05
0.00213316
7.72469e-05
0.00201278
9.43701e-05
0.00186128
0.00010989
0.0016797
0.000123527
0.00147062
0.000135041
0.00123719
0.000144229
0.000983258
0.000150933
0.000712983
0.000155032
0.000430795
0.000141108
0.000156464
1.9514e-05
0.00228462
6.00566e-08
3.92379e-05
0.00220511
5.84598e-05
0.00211394
7.67555e-05
0.00199448
9.37703e-05
0.00184426
0.000109192
0.00166428
0.000122743
0.00145707
0.000134185
0.00122574
0.000143316
0.00097412
0.000149978
0.000706312
0.000154051
0.000426707
0.00013967
0.000155474
1.93892e-05
0.00226517
6.13617e-08
3.89877e-05
0.00218552
5.80876e-05
0.00209484
7.62672e-05
0.00197631
9.31743e-05
0.00182736
0.000108499
0.00164895
0.000121965
0.0014436
0.000133334
0.00121438
0.000142408
0.000965047
0.000149028
0.000699693
0.000153076
0.000422656
0.000138269
0.000154492
1.92651e-05
0.00224584
6.26493e-08
3.87391e-05
0.00216604
5.77177e-05
0.00207586
7.57821e-05
0.00195824
9.25821e-05
0.00181055
0.00010781
0.00163372
0.000121191
0.00143022
0.000132489
0.00120307
0.000141506
0.000956023
0.000148085
0.000693104
0.000152108
0.000418616
0.000136852
0.000153516
1.91419e-05
0.00222663
6.39154e-08
3.84921e-05
0.00214669
5.73501e-05
0.002057
7.53e-05
0.00194029
9.19937e-05
0.00179386
0.000107125
0.00161859
0.000120422
0.00141692
0.00013165
0.00119185
0.00014061
0.000947063
0.000147148
0.000686567
0.000151146
0.000414614
0.000135472
0.000152546
1.90194e-05
0.00220755
6.51504e-08
3.82467e-05
0.00212746
5.69849e-05
0.00203827
7.48209e-05
0.00192245
9.14091e-05
0.00177727
0.000106445
0.00160355
0.000119658
0.0014037
0.000130815
0.00118068
0.00013972
0.000938151
0.000146217
0.00068006
0.000150191
0.000410624
0.000134075
0.000151582
1.88976e-05
0.00218858
6.6345e-08
3.80028e-05
0.00210836
5.6622e-05
0.00201965
7.43449e-05
0.00190473
9.08282e-05
0.00176079
0.000105769
0.00158861
0.000118899
0.00139057
0.000129986
0.0011696
0.000138835
0.000929303
0.000145292
0.000673604
0.000149242
0.000406671
0.000132714
0.000150625
1.87766e-05
0.00216973
6.74852e-08
3.77604e-05
0.00208938
5.62613e-05
0.00200115
7.3872e-05
0.00188712
9.02509e-05
0.00174441
0.000105098
0.00157376
0.000118145
0.00137752
0.000129163
0.00115857
0.000137956
0.000920501
0.000144373
0.000667178
0.000148298
0.000402731
0.000131334
0.000149675
1.86564e-05
0.00215101
6.85599e-08
3.75195e-05
0.00207051
5.5903e-05
0.00198276
7.3402e-05
0.00186962
8.96774e-05
0.00172813
0.000104431
0.00155901
0.000117396
0.00136456
0.000128344
0.00114763
0.000137083
0.000911763
0.00014346
0.000660802
0.000147361
0.000398828
0.000129989
0.00014873
1.85368e-05
0.0021324
6.95568e-08
3.72802e-05
0.00205177
5.55469e-05
0.0019645
7.2935e-05
0.00185223
8.91075e-05
0.00171196
0.000103768
0.00154435
0.000116652
0.00135167
0.000127531
0.00113674
0.000136215
0.000903071
0.000142552
0.000654455
0.00014643
0.000394937
0.000128625
0.000147791
1.8418e-05
0.00211391
7.04697e-08
3.70423e-05
0.00203315
5.51931e-05
0.00194635
7.2471e-05
0.00183496
8.85413e-05
0.00169589
0.000103109
0.00152978
0.000115912
0.00133887
0.000126724
0.00112593
0.000135353
0.000894441
0.000141651
0.000648158
0.000145506
0.000391083
0.000127294
0.000146859
1.82999e-05
0.00209554
7.12936e-08
3.6806e-05
0.00201464
5.48415e-05
0.00192831
7.201e-05
0.00181779
8.79786e-05
0.00167992
0.000102455
0.0015153
0.000115177
0.00132614
0.000125921
0.00111518
0.000134497
0.000885858
0.000140756
0.000641891
0.000144587
0.00038724
0.000125942
0.000145933
1.81826e-05
0.00207728
7.20308e-08
3.65711e-05
0.00199625
5.44921e-05
0.00191039
7.15519e-05
0.00180073
8.74196e-05
0.00166405
0.000101805
0.00150092
0.000114447
0.0013135
0.000125124
0.0011045
0.000133646
0.000877335
0.000139866
0.000635672
0.000143674
0.000383435
0.000124626
0.000145013
1.80659e-05
0.00205914
7.2684e-08
3.63376e-05
0.00197798
5.4145e-05
0.00189258
7.10967e-05
0.00178378
8.68642e-05
0.00164828
0.000101159
0.00148662
0.000113722
0.00130093
0.000124332
0.00109389
0.000132801
0.000868858
0.000138982
0.000629481
0.000142767
0.000379639
0.000123287
0.000144099
1.795e-05
0.00204111
7.3261e-08
3.61057e-05
0.00195983
5.38e-05
0.00187489
7.06443e-05
0.00176693
8.63123e-05
0.00163262
0.000100517
0.00147241
0.000113001
0.00128845
0.000123545
0.00108334
0.000131961
0.000860441
0.000138105
0.000623339
0.000141866
0.000375882
0.000121985
0.00014319
1.78347e-05
0.0020232
7.3767e-08
3.58751e-05
0.00194179
5.34572e-05
0.00185731
7.01949e-05
0.00175019
8.5764e-05
0.00161705
9.98789e-05
0.0014583
0.000112285
0.00127603
0.000122763
0.00107286
0.000131127
0.00085207
0.000137232
0.000617226
0.000140972
0.000372133
0.000120658
0.000142288
1.77202e-05
0.00200541
7.42097e-08
3.5646e-05
0.00192386
5.31166e-05
0.00183984
6.97484e-05
0.00173356
8.52191e-05
0.00160158
9.92453e-05
0.00144427
0.000111574
0.00126371
0.000121986
0.00106245
0.000130298
0.000843758
0.000136366
0.00061116
0.000140082
0.000368421
0.000119371
0.000141392
1.76064e-05
0.00198772
7.45924e-08
3.54184e-05
0.00190605
5.27781e-05
0.00182248
6.93047e-05
0.00171704
8.46778e-05
0.0015862
9.86158e-05
0.00143033
0.000110867
0.00125145
0.000121214
0.00105209
0.000129475
0.00083549
0.000135505
0.000605121
0.000139199
0.000364718
0.000118057
0.000140501
1.74932e-05
0.00197015
7.49209e-08
3.51921e-05
0.00188835
5.24418e-05
0.00180523
6.88638e-05
0.00170062
8.414e-05
0.00157093
9.79903e-05
0.00141648
0.000110165
0.00123928
0.000120447
0.00104181
0.000128657
0.000827281
0.00013465
0.000599131
0.000138322
0.000361052
0.000116784
0.000139616
1.73808e-05
0.0019527
7.51973e-08
3.49673e-05
0.00187077
5.21077e-05
0.00178809
6.84258e-05
0.0016843
8.36056e-05
0.00155575
9.73689e-05
0.00140271
0.000109467
0.00122717
0.000119685
0.00103159
0.000127844
0.000819115
0.0001338
0.000593166
0.00013745
0.000357394
0.000115484
0.000138738
1.7269e-05
0.00193535
7.54293e-08
3.47439e-05
0.00185329
5.17756e-05
0.00177106
6.79906e-05
0.00166808
8.30747e-05
0.00154066
9.67516e-05
0.00138904
0.000108774
0.00121515
0.000118929
0.00102143
0.000127037
0.000811008
0.000132956
0.00058725
0.000136584
0.000353773
0.000114226
0.000137864
1.71579e-05
0.00191811
7.56241e-08
3.45219e-05
0.00183593
5.14457e-05
0.00175413
6.75582e-05
0.00165197
8.25473e-05
0.00152567
9.61382e-05
0.00137544
0.000108085
0.0012032
0.000118177
0.00101133
0.000126234
0.000802944
0.000132117
0.000581359
0.000135724
0.000350159
0.000112939
0.000136997
1.70476e-05
0.00190099
7.57966e-08
3.43012e-05
0.00181868
5.11178e-05
0.00173732
6.71285e-05
0.00163596
8.20232e-05
0.00151078
9.55288e-05
0.00136194
0.000107401
0.00119133
0.00011743
0.0010013
0.000125438
0.000794937
0.000131284
0.000575515
0.000134869
0.000346583
0.000111695
0.000136135
1.69379e-05
0.00188397
7.59635e-08
3.4082e-05
0.00180153
5.07921e-05
0.00172061
6.67017e-05
0.00162005
8.15025e-05
0.00149598
9.49234e-05
0.00134851
0.000106722
0.00117953
0.000116688
0.000991333
0.000124646
0.000786973
0.000130457
0.000569696
0.00013402
0.000343012
0.000110422
0.000135279
1.68289e-05
0.00186707
7.61486e-08
3.38642e-05
0.0017845
5.04685e-05
0.00170401
6.62775e-05
0.00160425
8.09852e-05
0.00148127
9.43219e-05
0.00133518
0.000106046
0.0011678
0.000115951
0.000981429
0.00012386
0.000779065
0.000129635
0.000563924
0.000133176
0.000339479
0.000109193
0.000134429
1.67206e-05
0.00185027
7.63753e-08
3.36478e-05
0.00176757
5.01469e-05
0.00168751
6.58562e-05
0.00158854
8.04713e-05
0.00146665
9.37244e-05
0.00132192
0.000105376
0.00115615
0.000115218
0.000971581
0.000123078
0.000771199
0.000128818
0.000558177
0.000132339
0.000335951
0.000107932
0.000133584
1.6613e-05
0.00183358
7.66702e-08
3.34327e-05
0.00175076
4.98274e-05
0.00167111
6.54375e-05
0.00157293
7.99607e-05
0.00145213
9.31308e-05
0.00130875
0.000104709
0.00114457
0.000114491
0.0009618
0.000122302
0.000763389
0.000128007
0.000552476
0.000131506
0.000332461
0.000106718
0.000132745
1.65061e-05
0.00181699
7.70544e-08
3.3219e-05
0.00173404
4.951e-05
0.00165482
6.50216e-05
0.00155742
7.94534e-05
0.0014377
9.2541e-05
0.00129566
0.000104047
0.00113306
0.000113768
0.000952074
0.000121531
0.00075562
0.000127201
0.000546799
0.000130679
0.000328975
0.000105471
0.000131911
1.63998e-05
0.00180051
7.7547e-08
3.30067e-05
0.00171744
4.91946e-05
0.00163864
6.46084e-05
0.001542
7.89495e-05
0.00142336
9.19551e-05
0.00128266
0.00010339
0.00112162
0.00011305
0.000942414
0.000120765
0.000747907
0.000126401
0.000541169
0.000129858
0.000325528
0.000104271
0.000131083
1.62943e-05
0.00178414
7.81573e-08
3.27958e-05
0.00170094
4.88812e-05
0.00162255
6.41979e-05
0.00152669
7.84488e-05
0.00140911
9.13731e-05
0.00126973
0.000102736
0.00111026
0.000112337
0.000932809
0.000120004
0.000740234
0.000125605
0.000535561
0.000129042
0.000322083
0.000103037
0.00013026
1.61894e-05
0.00176787
7.88899e-08
3.25862e-05
0.00168454
4.85699e-05
0.00160657
6.379e-05
0.00151147
7.79514e-05
0.00139495
9.07949e-05
0.00125689
0.000102087
0.00109896
0.000111628
0.000923269
0.000119249
0.000732615
0.000124815
0.000529999
0.000128231
0.000318678
0.000101851
0.000129442
1.60852e-05
0.0017517
7.97391e-08
3.23781e-05
0.00166825
4.82606e-05
0.00159069
6.33849e-05
0.00149634
7.74573e-05
0.00138087
9.02204e-05
0.00124412
0.000101443
0.00108774
0.000110924
0.000913783
0.000118498
0.000725037
0.00012403
0.00052446
0.000127426
0.000315274
0.00010063
0.00012863
1.59817e-05
0.00173564
8.06957e-08
3.21712e-05
0.00165207
4.79534e-05
0.00157491
6.29823e-05
0.00148132
7.69664e-05
0.00136689
8.96498e-05
0.00123144
0.000100802
0.00107659
0.000110225
0.00090436
0.000117752
0.000717512
0.000123251
0.000518966
0.000126626
0.00031191
9.9458e-05
0.000127824
1.58789e-05
0.00171967
8.17432e-08
3.19658e-05
0.00163598
4.76481e-05
0.00155923
6.25824e-05
0.00146638
7.64787e-05
0.00135299
8.90829e-05
0.00121883
0.000100166
0.0010655
0.000109531
0.000894992
0.000117011
0.000710027
0.000122476
0.000513494
0.000125831
0.000308546
9.82491e-05
0.000127023
1.57767e-05
0.00170381
8.28656e-08
3.17616e-05
0.00162
4.73449e-05
0.00154365
6.21852e-05
0.00145155
7.59943e-05
0.00133918
8.85198e-05
0.00120631
9.95337e-05
0.00105449
0.000108841
0.000885686
0.000116275
0.000702595
0.000121707
0.000508068
0.000125042
0.000305223
9.70909e-05
0.000126227
1.56753e-05
0.00168805
8.40437e-08
3.15589e-05
0.00160412
4.70436e-05
0.00152816
6.17905e-05
0.0014368
7.5513e-05
0.00132546
8.79604e-05
0.00119386
9.89058e-05
0.00104354
0.000108155
0.000876433
0.000115544
0.000695202
0.000120943
0.000502662
0.000124258
0.000301899
9.58944e-05
0.000125436
1.55745e-05
0.00167239
8.52622e-08
3.13574e-05
0.00158834
4.67443e-05
0.00151278
6.13984e-05
0.00142215
7.50349e-05
0.00131182
8.74046e-05
0.00118149