/*--------------------------------*- C++ -*----------------------------------*\
  =========                 |
  \\      /  F ield         | OpenFOAM: The Open Source CFD Toolbox
   \\    /   O peration     | Website:  https://openfoam.org
    \\  /    A nd           | Version:  6.0
     \\/     M anipulation  |
\*---------------------------------------------------------------------------*/
FoamFile
{
    version     2.0;
    format      ascii;
    class       volScalarField;
    location    "14";
    object      p;
}
// * * * * * * * * * * * * * * * * * * * * * * * * * * * * * * * * * * * * * //

dimensions      [0 2 -2 0 0 0 0];

internalField   nonuniform List<scalar> 
62000
(
0.0195054
0.0197177
0.0199286
0.0201187
0.02027
0.0203668
0.0203953
0.0203454
0.0202103
0.0199877
0.0196798
0.0192926
0.0188357
0.0183211
0.017762
0.0171721
0.0165643
0.0159503
0.0153399
0.0147412
0.0141604
0.013602
0.0130699
0.0125666
0.0120945
0.0116555
0.0112514
0.0108838
0.0105542
0.0102633
0.0100115
0.00979819
0.00962231
0.0094815
0.00937281
0.00929236
0.00923577
0.00919815
0.00917448
0.00915963
0.00914883
0.00913751
0.00912188
0.00909852
0.00906502
0.00901958
0.00896129
0.0088901
0.00880662
0.00871244
0.00860988
0.00850207
0.00839337
0.00828902
0.00819726
0.00812762
0.00810936
0.00816819
0.00869236
0.0104842
0.0194935
0.0197218
0.0199536
0.0201708
0.0203559
0.0204924
0.0205661
0.0205655
0.0204829
0.0203142
0.0200599
0.0197244
0.0193157
0.0188443
0.0183223
0.0177623
0.0171766
0.0165763
0.015971
0.0153685
0.014775
0.014195
0.0136322
0.0130893
0.0125689
0.0120732
0.0116044
0.0111648
0.0107564
0.0103811
0.0100403
0.00973453
0.00946375
0.00922686
0.00902179
0.00884556
0.00869436
0.00856372
0.00844868
0.00834407
0.00824467
0.00814541
0.00804166
0.00792924
0.00780465
0.0076651
0.00750861
0.00733402
0.00714099
0.00693002
0.00670245
0.00646051
0.00620753
0.00594818
0.00568993
0.00544423
0.00523557
0.00510809
0.00509241
0.00483144
0.0194747
0.0197184
0.0199609
0.0201874
0.0203814
0.0205274
0.0206115
0.0206223
0.0205515
0.0203947
0.0201516
0.0198259
0.0194247
0.0189577
0.0184364
0.0178731
0.0172796
0.0166669
0.0160446
0.0154204
0.0148004
0.014189
0.0135896
0.0130048
0.0124365
0.0118868
0.0113575
0.0108508
0.0103689
0.00991406
0.00948838
0.00909344
0.0087306
0.00840012
0.00810197
0.00783478
0.00759696
0.00738574
0.00719819
0.00703078
0.00687985
0.00674184
0.00661312
0.00649082
0.0063722
0.0062554
0.00613932
0.00602358
0.0059091
0.00579753
0.00569194
0.00559676
0.00551812
0.00546465
0.00544829
0.0054857
0.00560174
0.00581805
0.00617184
0.00671131
0.019454
0.0197211
0.0199842
0.0202322
0.0204502
0.0206237
0.0207396
0.0207868
0.020757
0.0206454
0.0204512
0.0201774
0.0198305
0.0194197
0.0189559
0.018451
0.0179168
0.0173643
0.0168028
0.0162402
0.0156823
0.0151332
0.0145959
0.0140719
0.0135625
0.0130683
0.0125902
0.0121292
0.0116865
0.0112634
0.0108615
0.0104823
0.0101271
0.0097967
0.00949178
0.00921203
0.00895694
0.00872513
0.00851497
0.00832432
0.00815077
0.00799192
0.00784517
0.00770844
0.00757963
0.0074573
0.00734052
0.00722892
0.00712302
0.0070239
0.00693357
0.00685491
0.00679176
0.00674921
0.00673369
0.00675277
0.00681495
0.00692435
0.00707453
0.00723265
0.019436
0.0197324
0.0200237
0.0203018
0.0205526
0.0207626
0.0209194
0.0210117
0.021031
0.0209719
0.020833
0.0206165
0.0203281
0.0199763
0.0195717
0.0191261
0.0186513
0.0181581
0.0176566
0.0171546
0.0166585
0.0161722
0.0156985
0.0152385
0.0147926
0.0143605
0.0139418
0.0135359
0.0131429
0.0127626
0.0123955
0.0120421
0.0117029
0.0113786
0.0110695
0.0107758
0.0104973
0.0102335
0.00998361
0.0097466
0.00952119
0.00930603
0.00909978
0.00890128
0.00870952
0.00852392
0.00834431
0.00817104
0.00800514
0.00784813
0.00770234
0.00757085
0.0074576
0.00736764
0.00730705
0.00728301
0.0073023
0.00737298
0.00747748
0.0075867
0.0194251
0.0197482
0.0200627
0.0203615
0.0206314
0.0208597
0.0210343
0.0211439
0.0211796
0.0211358
0.0210103
0.0208047
0.0205241
0.0201767
0.0197729
0.0193247
0.0188442
0.0183432
0.0178326
0.0173215
0.0168171
0.0163246
0.0158473
0.015387
0.0149443
0.0145187
0.0141094
0.0137153
0.0133353
0.0129686
0.0126146
0.0122728
0.0119433
0.0116259
0.0113208
0.0110281
0.0107478
0.0104797
0.0102236
0.00997926
0.00974621
0.0095241
0.00931245
0.00911124
0.0089203
0.00874003
0.0085711
0.00841457
0.00827222
0.00814601
0.00803867
0.00795344
0.00789404
0.007865
0.00787101
0.00791721
0.00800621
0.0081424
0.00830925
0.0085128
0.0194218
0.0197676
0.0200963
0.0204027
0.0206748
0.0209008
0.0210693
0.0211696
0.0211927
0.0211329
0.0209875
0.0207579
0.0204487
0.0200678
0.0196258
0.0191348
0.0186078
0.0180576
0.0174965
0.016935
0.0163821
0.0158446
0.0153276
0.014834
0.0143654
0.0139223
0.0135041
0.0131097
0.012738
0.0123875
0.012057
0.0117454
0.011452
0.0111758
0.0109165
0.0106734
0.0104463
0.0102345
0.0100379
0.00985582
0.00968781
0.00953353
0.00939231
0.00926423
0.00914879
0.00904614
0.00895653
0.00888031
0.00881848
0.0087718
0.0087415
0.00872894
0.00873542
0.00876247
0.00881104
0.00888193
0.00897293
0.00908445
0.0092087
0.00935103
0.0194249
0.0197938
0.0201341
0.0204455
0.0207176
0.0209404
0.0211036
0.0211973
0.0212129
0.0211445
0.0209892
0.0207477
0.0204241
0.0200259
0.0195631
0.0190479
0.0184934
0.0179135
0.017321
0.016728
0.0161449
0.0155801
0.0150404
0.01453
0.0140521
0.0136077
0.0131974
0.0128201
0.0124749
0.01216
0.0118737
0.0116141
0.0113796
0.0111684
0.0109792
0.01081
0.0106601
0.0105274
0.0104109
0.0103092
0.0102207
0.0101445
0.0100787
0.0100226
0.00997459
0.00993388
0.00989954
0.00987069
0.00984704
0.00982797
0.0098133
0.00980293
0.00979679
0.00979511
0.00979794
0.00980584
0.00981756
0.00983664
0.00986143
0.00990262
0.0194374
0.0198333
0.0201904
0.0205162
0.0208022
0.0210405
0.0212223
0.0213383
0.0213802
0.0213416
0.0212191
0.0210122
0.0207237
0.0203599
0.0199299
0.0194447
0.0189169
0.0183602
0.0177875
0.0172115
0.0166434
0.0160924
0.0155667
0.0150715
0.014611
0.0141873
0.0138015
0.0134529
0.0131409
0.0128633
0.0126184
0.0124034
0.0122162
0.0120538
0.0119142
0.0117943
0.0116923
0.0116051
0.0115308
0.0114668
0.0114108
0.0113608
0.0113143
0.0112698
0.011225
0.0111784
0.0111287
0.0110747
0.0110157
0.0109514
0.0108816
0.0108069
0.0107282
0.0106471
0.0105657
0.010487
0.0104133
0.0103516
0.0103039
0.010274
0.0194663
0.0198906
0.0202738
0.0206284
0.0209485
0.0212282
0.0214597
0.0216341
0.0217426
0.0217781
0.0217359
0.0216137
0.0214125
0.0211364
0.0207928
0.0203907
0.0199414
0.0194573
0.0189507
0.0184338
0.017918
0.0174127
0.0169267
0.0164658
0.0160353
0.0156376
0.0152747
0.0149465
0.0146524
0.0143907
0.0141594
0.0139557
0.0137771
0.0136201
0.0134824
0.0133602
0.0132512
0.0131518
0.0130596
0.0129717
0.0128854
0.0127985
0.0127085
0.0126137
0.0125122
0.0124028
0.0122847
0.0121574
0.0120213
0.0118769
0.0117257
0.0115698
0.0114119
0.0112555
0.0111045
0.0109641
0.010838
0.0107338
0.0106509
0.0105968
0.0195125
0.019968
0.0203853
0.0207812
0.0211521
0.0214936
0.0217988
0.022058
0.0222618
0.0224017
0.0224712
0.0224659
0.0223845
0.0222285
0.0220028
0.0217142
0.0213718
0.0209864
0.0205688
0.0201306
0.0196824
0.0192335
0.018793
0.018367
0.0179614
0.0175793
0.0172233
0.0168941
0.0165917
0.016315
0.0160623
0.0158313
0.0156196
0.0154241
0.0152425
0.0150712
0.0149078
0.0147493
0.0145932
0.014437
0.0142784
0.0141156
0.0139467
0.0137707
0.0135865
0.0133937
0.0131927
0.0129839
0.0127691
0.0125499
0.0123292
0.0121102
0.0118967
0.0116931
0.0115039
0.0113344
0.0111877
0.0110703
0.0109801
0.0109204
0.0195761
0.0200635
0.0205189
0.0209621
0.0213912
0.0218035
0.0221917
0.0225455
0.022854
0.0231073
0.0232968
0.0234161
0.0234614
0.0234315
0.0233288
0.023158
0.0229256
0.0226408
0.0223127
0.0219517
0.0215678
0.0211699
0.0207669
0.0203654
0.0199716
0.0195894
0.0192223
0.0188716
0.0185385
0.0182224
0.0179229
0.0176381
0.0173666
0.0171059
0.0168542
0.0166089
0.0163682
0.0161295
0.0158912
0.0156515
0.0154088
0.0151621
0.0149103
0.0146534
0.014391
0.0141238
0.0138529
0.0135798
0.0133067
0.0130364
0.012772
0.0125171
0.0122756
0.0120518
0.0118495
0.0116731
0.0115246
0.0114091
0.0113217
0.0112719
0.0196559
0.0201737
0.0206663
0.0211554
0.0216405
0.0221202
0.022587
0.0230291
0.0234343
0.023791
0.0240891
0.0243203
0.0244786
0.0245606
0.0245664
0.0244988
0.0243621
0.0241636
0.0239114
0.0236143
0.0232819
0.0229224
0.0225447
0.0221555
0.0217616
0.0213676
0.0209776
0.0205943
0.0202194
0.0198538
0.0194977
0.0191506
0.0188118
0.0184801
0.0181544
0.017833
0.017515
0.0171987
0.0168833
0.0165678
0.0162514
0.0159339
0.015615
0.015295
0.0149746
0.0146549
0.0143375
0.0140242
0.0137175
0.0134203
0.0131355
0.0128665
0.0126167
0.0123896
0.0121882
0.0120156
0.011873
0.0117644
0.0116854
0.0116427
0.0197509
0.0202935
0.0208177
0.0213452
0.0218766
0.0224116
0.0229424
0.0234556
0.0239377
0.0243761
0.0247594
0.025078
0.0253243
0.0254932
0.025583
0.0255951
0.0255321
0.0253999
0.0252051
0.0249559
0.0246609
0.0243281
0.023966
0.0235817
0.0231821
0.0227726
0.0223581
0.021942
0.0215271
0.0211151
0.0207075
0.0203047
0.0199071
0.0195142
0.0191262
0.0187421
0.0183618
0.0179846
0.0176102
0.0172382
0.0168687
0.0165019
0.0161379
0.0157776
0.0154218
0.0150719
0.0147296
0.0143967
0.0140756
0.0137688
0.0134789
0.0132086
0.0129608
0.0127381
0.0125428
0.0123774
0.0122421
0.0121407
0.0120679
0.0120362
0.0198551
0.020418
0.0209657
0.021521
0.0220848
0.0226585
0.0232338
0.023796
0.0243307
0.0248245
0.0252656
0.0256435
0.0259499
0.0261784
0.0263263
0.0263939
0.0263827
0.0262973
0.0261436
0.0259287
0.0256607
0.0253471
0.0249963
0.0246152
0.0242113
0.02379
0.0233571
0.0229164
0.0224718
0.0220257
0.0215804
0.0211371
0.0206973
0.0202612
0.0198297
0.0194026
0.0189804
0.0185631
0.0181508
0.0177437
0.0173422
0.0169468
0.0165579
0.0161766
0.0158036
0.0154404
0.0150884
0.0147494
0.0144254
0.0141184
0.0138308
0.0135648
0.0133225
0.0131061
0.0129173
0.0127582
0.0126288
0.0125328
0.0124661
0.0124383
0.0199638
0.0205412
0.0211037
0.0216752
0.0222567
0.0228517
0.0234516
0.0240409
0.0246043
0.0251286
0.0256018
0.0260134
0.0263548
0.026619
0.0268029
0.0269061
0.0269292
0.026876
0.0267516
0.0265625
0.0263161
0.0260195
0.0256807
0.0253065
0.0249043
0.0244801
0.0240395
0.0235872
0.0231273
0.0226629
0.0221969
0.0217313
0.021268
0.0208079
0.0203523
0.0199018
0.0194571
0.0190187
0.0185871
0.0181628
0.0177462
0.017338
0.0169389
0.0165497
0.0161712
0.0158048
0.0154518
0.0151135
0.0147918
0.0144884
0.0142053
0.0139443
0.0137072
0.0134959
0.0133119
0.0131571
0.0130314
0.0129387
0.0128744
0.0128527
0.020072
0.0206601
0.0212288
0.0218058
0.0223918
0.0229927
0.0236003
0.0241979
0.0247704
0.0253049
0.0257898
0.0262151
0.0265723
0.0268545
0.0270582
0.0271828
0.0272285
0.0271983
0.0270968
0.0269296
0.0267037
0.0264255
0.0261027
0.0257417
0.0253498
0.0249328
0.0244966
0.0240458
0.023585
0.0231177
0.022647
0.0221752
0.0217048
0.0212369
0.0207734
0.020315
0.0198629
0.0194176
0.01898
0.0185506
0.0181301
0.0177192
0.0173184
0.0169288
0.0165509
0.016186
0.0158352
0.0154999
0.0151816
0.0148819
0.0146025
0.0143451
0.0141114
0.013903
0.0137214
0.0135685
0.0134443
0.0133528
0.0132906
0.0132683
0.0201804
0.0207718
0.0213389
0.0219123
0.0224924
0.0230874
0.0236895
0.0242817
0.024849
0.0253792
0.0258618
0.0262873
0.0266479
0.0269367
0.0271505
0.0272885
0.0273505
0.027339
0.0272581
0.0271126
0.026909
0.0266529
0.0263516
0.0260109
0.0256378
0.0252378
0.0248167
0.0243792
0.0239297
0.0234718
0.023009
0.0225437
0.0220785
0.0216149
0.0211549
0.0206993
0.0202497
0.0198067
0.0193712
0.018944
0.0185257
0.0181171
0.0177187
0.0173315
0.0169562
0.016594
0.0162458
0.015913
0.015597
0.0152994
0.0150218
0.0147658
0.0145331
0.0143253
0.0141439
0.0139909
0.0138664
0.0137745
0.0137113
0.0136912
0.0202849
0.0208757
0.0214348
0.0219979
0.0225649
0.0231459
0.0237342
0.0243123
0.0248657
0.0253833
0.0258555
0.0262739
0.0266311
0.026921
0.0271402
0.0272882
0.0273643
0.0273708
0.0273109
0.0271889
0.0270106
0.0267808
0.0265062
0.026192
0.0258447
0.0254694
0.0250716
0.0246557
0.0242262
0.0237865
0.0233401
0.0228894
0.0224373
0.0219853
0.0215355
0.0210889
0.0206472
0.020211
0.0197816
0.0193596
0.0189458
0.018541
0.0181459
0.0177614
0.0173883
0.0170278
0.0166809
0.0163488
0.0160333
0.0157356
0.0154575
0.0152008
0.0149669
0.0147578
0.0145748
0.01442
0.0142939
0.0142002
0.0141362
0.0141125
0.0203853
0.0209698
0.0215161
0.0220646
0.0226143
0.023177
0.0237471
0.024307
0.0248426
0.025344
0.0258027
0.0262114
0.0265634
0.0268529
0.027077
0.0272349
0.0273258
0.0273515
0.0273146
0.0272187
0.027069
0.0268693
0.0266257
0.0263427
0.0260262
0.0256809
0.0253119
0.0249231
0.0245189
0.0241026
0.0236775
0.0232462
0.0228114
0.0223747
0.0219384
0.0215035
0.0210718
0.0206441
0.0202217
0.0198054
0.0193962
0.0189948
0.0186021
0.0182192
0.0178469
0.0174863
0.0171387
0.0168055
0.0164882
0.0161885
0.015908
0.0156485
0.0154118
0.0151997
0.0150138
0.014856
0.014727
0.0146307
0.0145635
0.0145394
0.0204793
0.0210545
0.021585
0.0221168
0.0226476
0.0231906
0.0237414
0.0242824
0.0248
0.0252854
0.0257312
0.026131
0.026479
0.0267696
0.0270002
0.0271699
0.0272777
0.0273248
0.0273133
0.0272461
0.0271275
0.0269606
0.0267508
0.026502
0.0262192
0.0259068
0.0255692
0.0252102
0.0248338
0.0244431
0.0240413
0.023631
0.0232148
0.0227945
0.0223722
0.0219493
0.0215276
0.021108
0.020692
0.0202804
0.0198744
0.0194751
0.0190832
0.0187
0.0183265
0.017964
0.0176138
0.0172775
0.0169567
0.0166531
0.0163686
0.0161049
0.015864
0.0156477
0.0154577
0.015296
0.0151633
0.0150634
0.0149935
0.0149641
0.0205679
0.0211287
0.0216417
0.0221561
0.0226681
0.0231922
0.0237252
0.0242491
0.0247509
0.0252229
0.0256587
0.0260528
0.0263998
0.0266946
0.0269347
0.0271192
0.0272465
0.0273175
0.0273337
0.0272972
0.0272116
0.0270794
0.026905
0.0266916
0.0264439
0.0261653
0.0258601
0.0255316
0.0251835
0.0248188
0.0244405
0.0240511
0.0236532
0.0232487
0.0228399
0.022428
0.0220151
0.0216024
0.0211912
0.0207829
0.0203785
0.0199794
0.0195866
0.0192014
0.0188249
0.0184588
0.0181044
0.0177634
0.0174376
0.0171288
0.0168389
0.01657
0.0163238
0.0161024
0.0159074
0.015741
0.0156039
0.0154998
0.0154253
0.015394
0.0206469
0.0211933
0.0216884
0.0221857
0.0226807
0.0231882
0.0237061
0.0242162
0.0247061
0.0251687
0.0255987
0.0259911
0.0263413
0.0266441
0.0268971
0.0270994
0.0272488
0.027346
0.0273917
0.0273873
0.0273358
0.0272388
0.0271002
0.0269224
0.0267095
0.0264645
0.0261912
0.0258925
0.0255718
0.025232
0.024876
0.0245062
0.0241254
0.0237352
0.0233382
0.0229358
0.0225301
0.0221225
0.0217145
0.0213076
0.0209031
0.0205026
0.0201071
0.0197183
0.0193374
0.0189662
0.0186062
0.0182592
0.0179272
0.0176121
0.017316
0.0170408
0.0167885
0.0165612
0.0163606
0.0161889
0.0160468
0.0159378
0.0158593
0.0158216
0.0207153
0.021246
0.0217239
0.0222056
0.0226861
0.0231801
0.0236865
0.0241871
0.0246693
0.0251272
0.0255561
0.0259515
0.026309
0.0266238
0.0268933
0.0271162
0.0272903
0.0274155
0.0274921
0.0275208
0.0275038
0.0274421
0.0273389
0.0271962
0.0270173
0.0268048
0.0265621
0.0262919
0.0259973
0.0256809
0.0253457
0.024994
0.0246285
0.0242511
0.0238643
0.0234697
0.0230695
0.0226653
0.022259
0.021852
0.021446
0.0210426
0.0206431
0.0202494
0.0198629
0.0194855
0.0191188
0.0187649
0.0184259
0.0181036
0.0178004
0.0175183
0.0172593
0.0170255
0.0168188
0.0166411
0.0164935
0.0163792
0.0162949
0.0162541
0.0207704
0.0212877
0.02175
0.0222179
0.0226868
0.0231707
0.0236697
0.0241649
0.0246443
0.0251021
0.0255344
0.0259373
0.0263064
0.0266367
0.0269258
0.0271721
0.0273728
0.0275275
0.0276358
0.0276978
0.0277152
0.0276884
0.0276199
0.0275111
0.0273649
0.0271835
0.0269698
0.0267264
0.0264561
0.0261614
0.0258451
0.0255097
0.0251577
0.0247913
0.024413
0.0240246
0.0236284
0.0232262
0.02282
0.0224117
0.0220028
0.0215953
0.0211908
0.0207912
0.0203981
0.0200135
0.0196394
0.0192778
0.0189309
0.0186008
0.0182899
0.0180002
0.0177339
0.0174932
0.0172797
0.0170957
0.016942
0.0168219
0.0167325
0.0166844
0.0208167
0.0213179
0.0217654
0.0222212
0.0226813
0.0231588
0.0236541
0.0241483
0.0246291
0.0250913
0.0255315
0.0259459
0.0263303
0.0266796
0.0269911
0.027263
0.0274921
0.0276774
0.0278181
0.0279137
0.0279653
0.0279728
0.027938
0.027862
0.0277472
0.0275954
0.0274093
0.0271911
0.0269435
0.0266688
0.02637
0.0260493
0.0257095
0.0253526
0.0249815
0.024598
0.0242046
0.0238033
0.0233962
0.0229854
0.0225727
0.0221603
0.0217499
0.0213436
0.0209431
0.0205507
0.0201685
0.0197986
0.0194433
0.0191049
0.0187857
0.018488
0.018214
0.0179657
0.0177451
0.0175543
0.0173941
0.0172675
0.0171716
0.0171194
0.0208527
0.0213383
0.0217716
0.0222169
0.022671
0.0231452
0.0236405
0.0241374
0.0246237
0.0250944
0.0255463
0.0259759
0.026379
0.0267501
0.0270863
0.0273857
0.0276446
0.0278613
0.0280348
0.0281639
0.0282494
0.0282904
0.0282884
0.0282441
0.0281594
0.0280359
0.0278758
0.0276813
0.0274549
0.0271989
0.0269161
0.0266087
0.0262797
0.0259312
0.025566
0.0251863
0.0247946
0.0243931
0.0239843
0.0235701
0.0231529
0.0227348
0.0223178
0.0219041
0.0214957
0.0210949
0.0207039
0.0203252
0.019961
0.0196137
0.0192858
0.0189796
0.0186973
0.0184411
0.0182129
0.0180147
0.0178476
0.0177143
0.0176123
0.017552
0.0208812
0.0213468
0.0217661
0.0222025
0.0226532
0.0231271
0.0236255
0.0241287
0.0246239
0.0251066
0.0255738
0.0260218
0.0264464
0.0268419
0.027205
0.0275336
0.0278235
0.0280724
0.0282792
0.028442
0.028561
0.0286352
0.0286652
0.0286517
0.0285961
0.0284998
0.0283648
0.0281929
0.0279866
0.0277481
0.0274802
0.0271853
0.0268661
0.0265251
0.0261651
0.0257883
0.0253976
0.0249953
0.024584
0.024166
0.0237436
0.0233193
0.0228951
0.0224735
0.0220566
0.021647
0.0212469
0.0208588
0.0204852
0.0201286
0.0197916
0.0194764
0.0191854
0.0189209
0.0186846
0.0184788
0.0183043
0.0181638
0.0180545
0.017989
0.0209
0.0213443
0.0217503
0.0221791
0.0226285
0.0231046
0.0236091
0.0241214
0.0246287
0.0251265
0.0256117
0.026081
0.0265296
0.0269516
0.0273434
0.0277027
0.0280246
0.0283066
0.028547
0.0287435
0.0288959
0.0290028
0.0290644
0.029081
0.0290537
0.0289837
0.0288727
0.0287225
0.0285354
0.0283136
0.0280598
0.0277764
0.0274663
0.0271319
0.0267763
0.0264018
0.0260115
0.0256078
0.0251934
0.0247709
0.0243428
0.0239116
0.0234798
0.0230498
0.022624
0.022205
0.0217952
0.0213973
0.021014
0.0206476
0.0203009
0.0199763
0.0196762
0.0194029
0.0191583
0.0189444
0.0187621
0.0186141
0.0184978
0.0184234
0.0209104
0.0213288
0.0217215
0.0221439
0.0225937
0.0230743
0.0235872
0.0241112
0.0246333
0.0251488
0.0256549
0.0261478
0.0266227
0.0270733
0.0274955
0.0278868
0.0282419
0.0285577
0.0288322
0.0290628
0.0292487
0.0293882
0.0294812
0.0295275
0.0295281
0.029484
0.0293966
0.0292675
0.0290991
0.0288934
0.0286531
0.0283807
0.0280792
0.027751
0.0273993
0.0270267
0.0266363
0.0262307
0.0258128
0.0253854
0.0249512
0.0245129
0.024073
0.0236342
0.023199
0.0227702
0.0223504
0.0219423
0.0215486
0.0211721
0.0208153
0.020481
0.0201714
0.0198889
0.0196354
0.0194131
0.0192228
0.0190668
0.0189423
0.018862
0.020906
0.0213004
0.0216804
0.0220974
0.0225493
0.0230363
0.0235597
0.0240977
0.0246369
0.0251725
0.0257015
0.0262202
0.0267234
0.0272043
0.0276585
0.0280832
0.0284725
0.028823
0.0291322
0.0293971
0.0296168
0.029789
0.0299132
0.0299891
0.0300174
0.0299987
0.0299345
0.0298262
0.0296759
0.0294859
0.0292587
0.0289969
0.0287034
0.028381
0.0280328
0.0276616
0.0272706
0.0268626
0.0264408
0.026008
0.0255672
0.0251213
0.0246728
0.0242247
0.0237797
0.0233406
0.0229103
0.0224915
0.0220871
0.0216999
0.0213326
0.020988
0.0206685
0.0203765
0.0201138
0.0198827
0.019684
0.0195198
0.0193877
0.0192977
0.0208846
0.0212546
0.0216234
0.0220362
0.0224918
0.022987
0.0235227
0.0240767
0.024635
0.0251928
0.0257469
0.0262934
0.0268268
0.0273397
0.0278274
0.0282869
0.0287116
0.0290977
0.0294425
0.0297424
0.0299963
0.0302016
0.0303572
0.0304629
0.0305189
0.0305257
0.0304846
0.0303969
0.0302648
0.0300902
0.0298759
0.0296244
0.0293388
0.0290219
0.0286769
0.0283068
0.0279149
0.0275042
0.0270781
0.0266397
0.0261919
0.0257378
0.0252804
0.0248227
0.0243674
0.0239176
0.0234763
0.0230463
0.0226308
0.0222325
0.0218543
0.0214991
0.0211692
0.0208673
0.0205952
0.020355
0.0201476
0.0199749
0.0198341
0.0197374
0.0208417
0.0211912
0.0215507
0.0219609
0.0224215
0.0229266
0.0234765
0.0240482
0.0246275
0.0252093
0.0257904
0.0263665
0.0269318
0.0274783
0.0280009
0.0284964
0.0289578
0.0293805
0.0297617
0.0300974
0.0303861
0.0306249
0.0308124
0.030948
0.0310318
0.0310642
0.0310462
0.0309792
0.030865
0.0307057
0.0305041
0.0302626
0.0299846
0.0296728
0.0293306
0.0289612
0.028568
0.0281543
0.0277234
0.0272787
0.0268235
0.0263609
0.025894
0.0254261
0.02496
0.024499
0.0240462
0.0236046
0.0231775
0.0227676
0.0223781
0.0220117
0.0216712
0.021359
0.021077
0.0208275
0.0206112
0.0204299
0.0202811
0.0201742
0.0207808
0.021108
0.0214589
0.0218676
0.0223349
0.0228516
0.0234173
0.0240085
0.0246105
0.0252181
0.0258279
0.0264353
0.0270342
0.027616
0.0281752
0.0287082
0.0292074
0.0296679
0.0300867
0.0304592
0.0307835
0.0310565
0.0312764
0.0314426
0.0315546
0.0316129
0.0316183
0.031572
0.0314758
0.0313319
0.0311429
0.0309115
0.0306409
0.030334
0.0299945
0.0296255
0.0292307
0.0288135
0.0283775
0.0279263
0.0274631
0.0269916
0.0265148
0.0260362
0.0255589
0.0250863
0.0246215
0.0241678
0.0237285
0.0233067
0.0229054
0.0225275
0.0221759
0.0218531
0.0215611
0.021302
0.0210767
0.0208866
0.020729
0.020615
0.0206989
0.0210056
0.0213486
0.0217571
0.0222328
0.0227628
0.0233459
0.0239582
0.0245845
0.0252195
0.0258596
0.0265
0.0271341
0.0277527
0.0283499
0.0289218
0.0294603
0.0299598
0.0304172
0.0308274
0.0311883
0.0314962
0.0317493
0.0319464
0.0320872
0.0321717
0.0322007
0.0321752
0.0320972
0.0319686
0.0317921
0.0315705
0.0313071
0.0310048
0.0306676
0.0302986
0.0299018
0.0294807
0.0290391
0.0285807
0.0281091
0.027628
0.0271408
0.026651
0.0261619
0.025677
0.0251998
0.0247335
0.0242816
0.0238473
0.0234337
0.023044
0.0226809
0.0223471
0.0220447
0.0217758
0.0215413
0.0213425
0.0211769
0.0210527
0.0205981
0.0208803
0.021216
0.0216261
0.0221119
0.0226567
0.0232589
0.0238938
0.024546
0.0252101
0.0258821
0.0265571
0.0272281
0.0278852
0.0285219
0.0291343
0.0297135
0.0302535
0.0307509
0.0311999
0.0315985
0.0319424
0.0322294
0.0324583
0.0326285
0.0327397
0.0327927
0.0327885
0.0327287
0.0326155
0.0324517
0.0322398
0.0319834
0.0316857
0.0313505
0.0309812
0.030582
0.0301565
0.0297089
0.0292429
0.0287625
0.0282714
0.0277732
0.0272717
0.0267703
0.0262727
0.0257825
0.0253031
0.0248382
0.0243909
0.0239647
0.0235626
0.0231877
0.0228426
0.0225295
0.0222506
0.0220068
0.0217994
0.0216254
0.0214946
0.0204743
0.020732
0.021062
0.0214757
0.0219735
0.0225349
0.0231576
0.0238166
0.0244961
0.0251907
0.0258962
0.0266074
0.0273168
0.028014
0.0286919
0.0293462
0.0299676
0.0305495
0.031088
0.0315772
0.0320145
0.0323953
0.0327172
0.0329786
0.0331787
0.0333172
0.0333945
0.0334117
0.0333704
0.0332726
0.0331213
0.032919
0.0326694
0.0323758
0.0320422
0.0316722
0.0312701
0.0308398
0.0303855
0.0299114
0.0294214
0.0289197
0.0284099
0.0278961
0.0273818
0.0268709
0.0263671
0.0258741
0.0253956
0.0249349
0.0244956
0.0240808
0.0236936
0.0233369
0.0230127
0.0227236
0.0224703
0.0222544
0.0220729
0.0219323
0.0203271
0.0205577
0.0208836
0.021303
0.0218145
0.0223942
0.023039
0.0237235
0.0244318
0.0251584
0.0258989
0.0266479
0.0273975
0.0281363
0.028857
0.029555
0.0302202
0.0308455
0.0314267
0.0319575
0.0324347
0.0328537
0.0332114
0.0335062
0.033737
0.0339033
0.0340056
0.0340446
0.034022
0.0339398
0.0338009
0.0336082
0.0333653
0.0330755
0.0327433
0.0323721
0.0319667
0.0315311
0.0310697
0.0305869
0.0300869
0.0295739
0.029052
0.0285254
0.0279976
0.0274729
0.0269551
0.026448
0.0259554
0.0254808
0.025028
0.0246
0.0242003
0.0238316
0.0234961
0.0231964
0.0229336
0.0227088
0.0225193
0.0223743
0.0201464
0.0203571
0.0206823
0.02111
0.0216371
0.0222366
0.0229048
0.0236161
0.0243546
0.0251145
0.0258915
0.0266798
0.0274711
0.0282532
0.0290184
0.0297617
0.0304723
0.0311425
0.0317679
0.0323414
0.03286
0.0333181
0.0337127
0.0340418
0.0343039
0.0344987
0.0346262
0.0346872
0.0346835
0.0346169
0.0344904
0.0343069
0.0340704
0.0337841
0.0334527
0.0330799
0.0326706
0.032229
0.0317599
0.0312677
0.0307569
0.0302321
0.0296974
0.0291572
0.0286154
0.0280762
0.0275438
0.027022
0.0265148
0.0260259
0.025559
0.0251175
0.0247047
0.0243237
0.0239766
0.0236661
0.0233933
0.0231596
0.0229629
0.022807
0.0199289
0.0201255
0.0204551
0.0208941
0.0214386
0.0220593
0.0227523
0.0234918
0.0242617
0.0250563
0.0258713
0.0267005
0.0275351
0.0283623
0.0291736
0.0299639
0.0307216
0.0314384
0.0321096
0.0327275
0.0332887
0.0337873
0.0342199
0.0345842
0.0348786
0.0351024
0.0352558
0.0353393
0.0353546
0.0353037
0.0351897
0.0350154
0.034785
0.0345019
0.0341709
0.0337961
0.0333823
0.0329342
0.0324567
0.0319546
0.0314325
0.0308952
0.0303471
0.0297927
0.0292362
0.0286821
0.0281345
0.0275975
0.0270753
0.0265716
0.0260903
0.0256349
0.0252087
0.024815
0.024456
0.0241343
0.0238513
0.0236081
0.023402
0.0232413
0.0196682
0.0198644
0.0202051
0.0206583
0.0212219
0.021865
0.0225839
0.0233525
0.0241549
0.0249856
0.0258398
0.0267114
0.0275909
0.0284648
0.029324
0.030163
0.0309695
0.0317345
0.032453
0.0331167
0.0337219
0.0342622
0.0347339
0.0351343
0.0354617
0.0357152
0.0358948
0.036001
0.0360355
0.0360002
0.0358984
0.035733
0.0355083
0.035228
0.0348969
0.0345193
0.0341005
0.0336451
0.0331586
0.0326457
0.0321115
0.031561
0.0309986
0.0304295
0.0298577
0.0292879
0.0287245
0.0281717
0.027634
0.0271149
0.0266188
0.026149
0.0257091
0.0253024
0.0249311
0.0245978
0.0243041
0.024051
0.0238364
0.0236636
0.0193666
0.0195747
0.0199317
0.0204009
0.0209847
0.0216514
0.022397
0.0231957
0.0240318
0.0248996
0.0257946
0.02671
0.0276361
0.0285584
0.0294673
0.0303569
0.0312139
0.0320289
0.0327964
0.0335076
0.0341582
0.0347416
0.0352535
0.0356911
0.0360523
0.0363362
0.0365425
0.0366718
0.0367257
0.0367062
0.0366166
0.0364599
0.0362406
0.0359625
0.0356309
0.03525
0.0348255
0.0343623
0.033866
0.0333417
0.0327947
0.0322303
0.0316532
0.0310686
0.0304808
0.0298948
0.0293151
0.0287461
0.0281923
0.0276576
0.0271462
0.0266617
0.0262078
0.0257877
0.0254038
0.0250588
0.0247541
0.0244908
0.0242657
0.024089
0.0190261
0.0192669
0.0196414
0.0201264
0.0207307
0.0214215
0.0221944
0.0230239
0.0238944
0.0248006
0.0257375
0.0266983
0.0276725
0.0286449
0.0296051
0.030547
0.0314564
0.0323231
0.0331412
0.0339013
0.0345989
0.0352265
0.0357797
0.0362554
0.0366512
0.036966
0.0371995
0.037352
0.0374254
0.0374215
0.0373438
0.0371954
0.036981
0.0367047
0.0363717
0.0359869
0.0355559
0.035084
0.0345771
0.0340406
0.03348
0.0329008
0.0323081
0.0317073
0.0311028
0.0305
0.0299033
0.0293175
0.0287472
0.0281963
0.0276692
0.0271696
0.0267013
0.0262676
0.0258708
0.0255137
0.0251978
0.0249241
0.0246908
0.024502
0.0186735
0.0189477
0.0193341
0.0198334
0.0204582
0.0211731
0.0219737
0.0228345
0.0237403
0.0246858
0.025666
0.0266736
0.0276976
0.0287218
0.0297352
0.0307313
0.0316949
0.0326151
0.0334857
0.0342964
0.0350424
0.0357157
0.0363115
0.0368263
0.0372576
0.0376039
0.0378651
0.0380412
0.0381341
0.0381458
0.0380798
0.0379395
0.0377297
0.0374545
0.0371197
0.0367302
0.0362921
0.0358108
0.0352925
0.034743
0.0341681
0.0335735
0.0329644
0.0323467
0.031725
0.0311047
0.0304906
0.0298875
0.0293002
0.0287327
0.0281896
0.0276747
0.0271917
0.026744
0.0263342
0.0259649
0.0256378
0.0253536
0.02511
0.0249178
0.0183516
0.0186245
0.0190148
0.0195267
0.0201714
0.02091
0.021738
0.0226304
0.0235721
0.0245578
0.0255824
0.0266381
0.0277135
0.0287912
0.0298596
0.0309116
0.0319312
0.0329068
0.0338314
0.0346943
0.0354902
0.0362105
0.0368499
0.0374047
0.0378721
0.0382506
0.0385397
0.0387395
0.038852
0.038879
0.0388244
0.0386916
0.0384857
0.038211
0.0378736
0.0374785
0.0370324
0.0365407
0.0360102
0.0354468
0.0348565
0.0342456
0.0336194
0.032984
0.0323442
0.0317058
0.0310736
0.0304526
0.0298478
0.0292633
0.0287038
0.0281732
0.0276752
0.0272134
0.0267902
0.0264086
0.02607
0.0257756
0.0255237
0.0253205
0.0180573
0.0182919
0.0186816
0.0192049
0.0198684
0.0206297
0.0214849
0.022409
0.0233871
0.0244139
0.025484
0.0265894
0.0277177
0.0288507
0.0299759
0.0310859
0.0321634
0.0331962
0.0341767
0.0350935
0.0359408
0.0367095
0.0373938
0.0379896
0.0384941
0.0389052
0.0392227
0.0394465
0.0395785
0.0396208
0.0395773
0.0394516
0.0392491
0.0389742
0.0386335
0.0382321
0.0377771
0.0372743
0.0367306
0.0361524
0.0355461
0.034918
0.034274
0.0336202
0.0329618
0.0323046
0.0316538
0.0310145
0.0303919
0.02979
0.0292138
0.0286671
0.0281539
0.0276778
0.0272412
0.0268471
0.0264972
0.0261924
0.0259306
0.025725
0.0177602
0.0179569
0.0183419
0.0188738
0.0195536
0.0203362
0.0212177
0.0221734
0.0231883
0.0242569
0.0253736
0.0265299
0.0277127
0.0289026
0.0300864
0.0312562
0.0323935
0.0334852
0.0345234
0.0354957
0.0363959
0.0372142
0.0379444
0.0385822
0.0391242
0.0395686
0.0399146
0.0401623
0.0403137
0.0403709
0.040338
0.0402188
0.0400189
0.039743
0.039398
0.0389893
0.0385244
0.0380094
0.0374515
0.0368576
0.0362341
0.035588
0.0349252
0.0342522
0.0335743
0.0328977
0.0322277
0.0315696
0.0309285
0.0303089
0.0297156
0.0291526
0.028624
0.0281334
0.0276832
0.0272765
0.0269151
0.0266002
0.0263308
0.0261139
0.0174405
0.0176187
0.0179944
0.0185308
0.0192243
0.0200266
0.0209338
0.0219209
0.022973
0.0240842
0.0252485
0.026457
0.027696
0.0289447
0.030189
0.0314204
0.0326196
0.0337722
0.0348699
0.0358994
0.036854
0.0377233
0.0385007
0.0391813
0.0397618
0.0402398
0.0406147
0.0408865
0.0410572
0.041129
0.0411063
0.0409929
0.040795
0.0405173
0.0401671
0.0397503
0.0392746
0.0387464
0.0381734
0.0375627
0.0369213
0.0362563
0.0355739
0.034881
0.0341831
0.0334865
0.0327968
0.0321193
0.0314596
0.0308219
0.0302113
0.0296318
0.0290875
0.0285822
0.0281184
0.0276992
0.0273265
0.0270013
0.0267223
0.0265027
0.0171133
0.0172756
0.0176412
0.0181796
0.0188844
0.0197048
0.0206368
0.0216551
0.0227443
0.0238986
0.0251116
0.0263736
0.0276702
0.0289793
0.0302859
0.031581
0.0328438
0.0340592
0.0352182
0.0363064
0.037317
0.0382385
0.039064
0.0397883
0.0404077
0.0409197
0.0413235
0.0416193
0.0418089
0.0418949
0.0418817
0.0417734
0.0415764
0.0412959
0.0409395
0.0405134
0.0400256
0.0394831
0.0388939
0.0382653
0.0376049
0.0369199
0.036217
0.0355033
0.0347845
0.0340673
0.0333572
0.03266
0.0319811
0.0313249
0.0306967
0.0301004
0.0295403
0.0290202
0.0285426
0.0281108
0.0277266
0.0273914
0.0271046
0.0268741
0.0167766
0.0169133
0.0172742
0.0178155