/*--------------------------------*- C++ -*----------------------------------*\
  =========                 |
  \\      /  F ield         | OpenFOAM: The Open Source CFD Toolbox
   \\    /   O peration     | Website:  https://openfoam.org
    \\  /    A nd           | Version:  6.0
     \\/     M anipulation  |
\*---------------------------------------------------------------------------*/
FoamFile
{
    version     2.0;
    format      ascii;
    class       volVectorField;
    location    "14";
    object      U;
}
// * * * * * * * * * * * * * * * * * * * * * * * * * * * * * * * * * * * * * //

dimensions      [0 1 -1 0 0 0 0];

internalField   nonuniform List<vector> 
34500
(
(0.999998 -6.5654e-05 -4.62626e-17)
(0.999992 -7.33108e-05 -8.11074e-18)
(0.999973 -6.02228e-06 1.41847e-16)
(0.999905 1.60061e-05 -1.07525e-16)
(0.999806 -7.66023e-05 3.35333e-17)
(0.999754 -0.000191146 -1.01417e-16)
(0.999727 -0.000261713 -1.00919e-16)
(0.999678 -0.000342723 8.64399e-17)
(0.999586 -0.000518192 1.07254e-16)
(0.999507 -0.00078538 -6.83471e-16)
(0.999479 -0.00109053 -1.04159e-15)
(0.999514 -0.00141617 1.27106e-16)
(0.9996 -0.00165369 4.35093e-16)
(1.00011 -0.00224521 -2.08053e-16)
(0.994824 -0.00470317 7.80473e-17)
(0.999999 -0.000134654 3.23991e-17)
(1.00001 3.94902e-05 9.73541e-17)
(0.999968 0.000214889 7.15427e-17)
(0.999811 0.000115691 -3.01729e-16)
(0.999659 -0.000187667 -5.05664e-16)
(0.999642 -0.000369379 -5.49769e-17)
(0.999643 -0.000382452 2.55228e-16)
(0.999551 -0.000457181 -6.76627e-16)
(0.999364 -0.000776227 -1.78509e-16)
(0.999206 -0.00130191 6.81614e-16)
(0.999162 -0.00188441 1.26347e-15)
(0.999257 -0.00246814 -6.30172e-16)
(0.999355 -0.00283785 -9.86348e-16)
(1.00088 -0.00351714 -3.96273e-16)
(0.994414 -0.00551672 5.29905e-16)
(1.00001 -0.000123603 1.04521e-17)
(1.00006 0.000223988 -1.22552e-16)
(1.00003 0.000425917 -1.24804e-16)
(0.999861 0.000180415 4.54924e-16)
(0.999738 -0.000255024 -2.85746e-17)
(0.999805 -0.000389163 -1.63887e-16)
(0.999917 -0.000211662 9.76572e-17)
(0.999917 -8.17532e-05 3.84039e-16)
(0.999786 -0.000251943 3.46413e-19)
(0.99965 -0.000692024 -3.93033e-16)
(0.999598 -0.00121438 -7.28433e-16)
(0.999687 -0.00173261 4.14185e-16)
(0.999649 -0.00204629 2.25336e-16)
(1.00138 -0.0024323 1.64987e-16)
(0.997232 -0.00247363 -2.4715e-16)
(1.00004 -7.5136e-05 -1.73283e-17)
(1.0001 0.000383267 -8.9956e-18)
(1.00008 0.000548145 4.81683e-17)
(0.999897 0.000157789 -3.04826e-16)
(0.999742 -0.000388754 3.72e-16)
(0.999799 -0.000513803 3.29639e-16)
(0.999965 -0.000225499 -3.98891e-16)
(1.00006 5.16521e-05 -4.19207e-16)
(1.00004 2.64202e-05 4.34358e-16)
(0.999976 -0.000294137 -4.70113e-16)
(0.999955 -0.000719006 -2.44323e-16)
(1.00005 -0.00115135 -3.85509e-16)
(0.99991 -0.00145341 5.43076e-16)
(1.00144 -0.00168013 -4.80874e-17)
(0.998897 -0.00112712 2.16166e-17)
(1.00007 -2.33968e-05 -1.70187e-17)
(1.00015 0.000483928 1.52851e-16)
(1.00014 0.000585745 6.93159e-17)
(0.99992 8.3588e-05 1.69435e-16)
(0.999667 -0.000549362 4.671e-17)
(0.999608 -0.000725191 -1.58162e-16)
(0.999724 -0.000459325 1.02402e-16)
(0.999856 -0.000183676 2.65841e-16)
(0.999919 -0.000183808 -4.17112e-16)
(0.999955 -0.000464223 -2.30814e-16)
(1.00001 -0.00083956 1.00623e-15)
(1.00017 -0.00121699 6.34448e-16)
(1.00002 -0.00151159 -2.90078e-16)
(1.00129 -0.00162767 5.93531e-16)
(0.999668 -0.000768782 -5.90127e-16)
(1.0001 1.54374e-05 1.83243e-17)
(1.00021 0.000524711 -9.45215e-17)
(1.00025 0.000571396 -1.8571e-16)
(1.00004 2.83381e-05 -5.2798e-17)
(0.999701 -0.000618533 1.09276e-16)
(0.9995 -0.000834296 -1.08694e-16)
(0.99951 -0.000645265 1.48024e-16)
(0.999619 -0.000451275 1.31022e-16)
(0.999737 -0.000496473 2.90675e-16)
(0.999862 -0.000777971 -1.00167e-16)
(1.00001 -0.00111399 2.8159e-18)
(1.00025 -0.00141881 -3.89415e-16)
(1.00015 -0.00164258 1.834e-17)
(1.00118 -0.00158903 -4.69922e-16)
(1.00026 -0.000219712 7.43545e-17)
(1.00013 3.59267e-05 3.25073e-18)
(1.00029 0.000514899 -3.54799e-17)
(1.00042 0.000528568 -2.88977e-17)
(1.00029 2.39587e-05 1.75226e-16)
(0.999935 -0.000544387 -2.20131e-16)
(0.999634 -0.000738155 2.75267e-16)
(0.999542 -0.000606711 -6.18415e-16)
(0.999603 -0.00049969 -3.69296e-16)
(0.99974 -0.000601109 -1.51418e-16)
(0.999924 -0.000886721 6.70889e-16)
(1.00013 -0.00117493 -7.68113e-16)
(1.00044 -0.0013876 2.98122e-16)
(1.00038 -0.00150784 4.56788e-16)
(1.00118 -0.00127589 -9.6022e-17)
(1.00072 0.00050127 -1.20717e-16)
(1.00015 3.79514e-05 1.50958e-17)
(1.00037 0.000465357 3.21857e-17)
(1.00061 0.00046513 2.49448e-17)
(1.0006 5.58347e-05 -1.50376e-16)
(1.00031 -0.000364391 3.28003e-16)
(0.999969 -0.000476034 -1.39213e-16)
(0.999807 -0.000362599 2.01424e-16)
(0.99982 -0.000320391 -1.45774e-16)
(0.999952 -0.000469091 3.96881e-16)
(1.00016 -0.000757157 1.77517e-16)
(1.00039 -0.00100244 2.44619e-16)
(1.00072 -0.00113568 -5.65898e-17)
(1.00068 -0.00117938 -5.05383e-16)
(1.00125 -0.00083912 1.14094e-15)
(1.00099 0.00108877 1.86336e-16)
(1.00016 2.42123e-05 -1.12e-17)
(1.00043 0.000387886 9.86662e-17)
(1.00076 0.000383319 1.50214e-16)
(1.00089 9.25301e-05 1.11484e-16)
(1.00069 -0.000152195 -4.87154e-16)
(1.00037 -0.000152999 1.4068e-16)
(1.00018 -3.17772e-05 3.19944e-16)
(1.00016 -3.58577e-05 7.70669e-16)
(1.00027 -0.000225274 -3.84716e-16)
(1.00048 -0.000521847 8.98055e-17)
(1.00071 -0.000744233 4.48554e-16)
(1.00102 -0.000832724 -3.23708e-16)
(1.00099 -0.000851195 -1.54215e-16)
(1.00136 -0.000489402 -3.81753e-16)
(1.00107 0.00142043 8.38299e-17)
(1.00015 -6.17789e-07 4.06377e-17)
(1.00045 0.00029546 -8.94838e-17)
(1.00085 0.000288243 8.83601e-18)
(1.00109 0.000110567 -1.0974e-16)
(1.00098 3.03517e-05 4.09164e-16)
(1.00071 0.000135165 7.93542e-17)
(1.00052 0.000268308 2.69272e-16)
(1.00049 0.000224794 -5.7143e-16)
(1.00059 -4.72377e-06 4.14938e-17)
(1.00079 -0.000319838 -7.86258e-17)
(1.00101 -0.000541969 -1.39654e-16)
(1.0013 -0.000619642 4.41455e-17)
(1.00126 -0.000651802 5.93063e-16)
(1.00148 -0.00032258 -8.0632e-16)
(1.00105 0.00151669 -2.68707e-16)
(1.00013 -3.1378e-05 -2.61875e-17)
(1.00043 0.000200597 3.51607e-17)
(1.00085 0.000188539 -1.47004e-16)
(1.00115 0.000101459 2.49e-16)
(1.00113 0.000150436 -3.60214e-16)
(1.00092 0.00033269 -3.01953e-16)
(1.00076 0.000465911 -3.37709e-16)
(1.00074 0.00038132 3.90375e-17)
(1.00085 0.000110068 -8.11954e-17)
(1.00105 -0.000230984 -4.23705e-16)
(1.00125 -0.000467818 -7.20336e-16)
(1.00151 -0.000554286 2.85767e-16)
(1.00149 -0.000613223 -3.28808e-16)
(1.00162 -0.000328599 9.09306e-16)
(1.00101 0.00145967 5.35245e-17)
(1.00011 -6.32357e-05 -2.45276e-17)
(1.00038 0.000113598 -1.04016e-16)
(1.00078 9.40436e-05 1.50282e-16)
(1.00111 6.84972e-05 -2.33287e-16)
(1.00114 0.000201418 7.65506e-17)
(1.00099 0.000422912 4.52543e-16)
(1.00088 0.00053713 5.52053e-17)
(1.00089 0.000406693 -6.71503e-17)
(1.00102 9.35446e-05 1.81085e-16)
(1.00123 -0.000274819 -1.5665e-16)
(1.00143 -0.000530342 -9.50097e-17)
(1.00168 -0.000629168 -6.67636e-17)
(1.00167 -0.00070652 -2.8759e-16)
(1.00175 -0.000450806 -6.23064e-16)
(1.00101 0.00132858 1.2353e-17)
(1.00008 -9.25714e-05 -2.17509e-18)
(1.00032 4.11317e-05 1.40226e-16)
(1.00067 1.25018e-05 -2.20954e-16)
(1.00099 2.01643e-05 8.317e-17)
(1.00105 0.00019235 -9.33466e-17)
(1.00096 0.000415035 -1.54211e-16)
(1.00091 0.000490993 -3.87513e-17)
(1.00096 0.00031091 3.63953e-16)
(1.00112 -4.11242e-05 -6.28824e-16)
(1.00135 -0.000432018 4.19581e-16)
(1.00156 -0.000701024 2.20301e-16)
(1.00181 -0.000804177 1.84141e-16)
(1.00182 -0.000880326 7.50766e-16)
(1.00189 -0.000626958 7.32084e-16)
(1.00106 0.00118818 5.46564e-16)
(1.00005 -0.000116984 8.29669e-18)
(1.00025 -1.37629e-05 5.28203e-17)
(1.00054 -5.1709e-05 1.75677e-16)
(1.00082 -3.47593e-05 5.56953e-17)
(1.00089 0.00013864 1.70128e-16)
(1.00085 0.000330537 1.6764e-16)
(1.00086 0.00035308 -1.18017e-17)
(1.00096 0.000122472 4.9211e-17)
(1.00117 -0.000262242 9.35838e-16)
(1.00143 -0.000666651 -1.13774e-16)
(1.00167 -0.00093844 5.41963e-16)
(1.00192 -0.00103247 -7.39384e-16)
(1.00196 -0.00108566 1.37332e-16)
(1.00204 -0.000809364 -1.34871e-15)
(1.00116 0.0010734 -6.14197e-16)
(1.00002 -0.000135468 9.9342e-18)
(1.00018 -5.13955e-05 -1.17523e-16)
(1.0004 -9.82083e-05 1.54605e-16)
(1.00064 -9.02772e-05 -2.23683e-16)
(1.00071 5.53246e-05 1.56553e-16)
(1.00072 0.000193137 2.07867e-17)
(1.00078 0.00015291 1.94624e-16)
(1.00094 -0.000125724 -2.59455e-16)
(1.0012 -0.000534673 -8.37685e-16)
(1.00149 -0.000941581 2.49051e-16)
(1.00176 -0.00120362 -5.60058e-16)
(1.00202 -0.00127439 1.12822e-16)
(1.0021 -0.00128622 -4.91146e-16)
(1.0022 -0.000968172 2.66389e-16)
(1.00131 0.00100302 -1.08049e-16)
(1 -0.000147962 3.32237e-17)
(1.00012 -7.43554e-05 7.18236e-17)
(1.00029 -0.000129634 -3.58535e-16)
(1.00048 -0.000143772 2.88034e-16)
(1.00055 -4.58567e-05 -2.79562e-16)
(1.00058 2.33838e-05 -3.72326e-16)
(1.0007 -8.31294e-05 -3.82229e-16)
(1.00092 -0.000404466 3.37056e-16)
(1.00122 -0.000828144 7.17959e-16)
(1.00156 -0.00122653 1.62995e-16)
(1.00186 -0.00146704 9.46885e-17)
(1.00213 -0.00150275 7.00982e-17)
(1.00225 -0.00146045 -7.34484e-16)
(1.00236 -0.00108961 6.45542e-17)
(1.0015 0.000977751 6.29793e-16)
(0.99999 -0.000155271 -8.9618e-17)
(1.00007 -8.67383e-05 -9.23258e-17)
(1.00019 -0.000150863 3.42088e-17)
(1.00034 -0.000195818 -2.64094e-16)
(1.00041 -0.000157567 -1.80292e-17)
(1.00048 -0.000163646 4.81114e-16)
(1.00065 -0.000335087 5.49345e-17)
(1.00092 -0.000691836 3.03838e-16)
(1.00127 -0.00112076 -6.02321e-16)
(1.00164 -0.00150081 -3.09505e-16)
(1.00197 -0.00171027 4.44722e-16)
(1.00226 -0.00170253 -1.4924e-16)
(1.0024 -0.00159904 4.84654e-16)
(1.00252 -0.00117088 7.51529e-16)
(1.0017 0.000994019 -5.95036e-17)
(0.999982 -0.000158571 2.80746e-17)
(1.00004 -9.30783e-05 1.14644e-17)
(1.00012 -0.000167514 1.15545e-16)
(1.00024 -0.000248879 2.23107e-18)
(1.00031 -0.000276011 9.87634e-17)
(1.00041 -0.000358163 -2.89341e-16)
(1.00062 -0.000589545 5.97751e-16)
(1.00095 -0.000973426 -1.53207e-16)
(1.00133 -0.00139883 6.52081e-16)
(1.00174 -0.00175266 -3.41305e-16)
(1.00209 -0.00192424 -5.43659e-16)
(1.00239 -0.0018682 5.25016e-16)
(1.00255 -0.00170112 -8.8612e-16)
(1.00269 -0.00121582 -1.30582e-15)
(1.00191 0.00104142 -3.2765e-16)
(0.999978 -0.000159329 3.12494e-18)
(1.00002 -9.78434e-05 1.94897e-17)
(1.00008 -0.000185252 -3.1213e-17)
(1.00018 -0.00030641 1.58644e-16)
(1.00025 -0.000400079 1.08797e-16)
(1.00037 -0.000554753 -4.26498e-17)
(1.00063 -0.00083878 -3.60294e-16)
(1.001 -0.00124128 -3.4735e-16)
(1.00142 -0.00165559 -2.34818e-16)
(1.00186 -0.00197733 4.32938e-16)
(1.00223 -0.00210679 3.35605e-16)
(1.00254 -0.0020005 -4.93677e-16)
(1.00271 -0.00177071 1.09755e-15)
(1.00286 -0.00123122 1.37555e-15)
(1.00211 0.00111212 4.60488e-17)
(0.999976 -0.000158925 3.57535e-17)
(1.00001 -0.000104802 -4.75902e-17)
(1.00005 -0.000208791 2.29433e-16)
(1.00014 -0.000371654 -4.56851e-17)
(1.00022 -0.000529897 -1.74427e-16)
(1.00038 -0.000750826 7.39336e-17)
(1.00068 -0.00107897 -1.29651e-16)
(1.00108 -0.00149196 2.9342e-16)
(1.00153 -0.00188893 7.71545e-17)
(1.00199 -0.00217463 5.39525e-17)
(1.00238 -0.00225988 -2.57407e-16)
(1.00269 -0.00210355 3.41828e-16)
(1.00287 -0.00181388 1.74372e-16)
(1.00302 -0.00122446 1.55821e-16)
(1.0023 0.0011965 3.91041e-16)
(0.999975 -0.000158665 -1.83802e-17)
(1 -0.000116945 2.72397e-17)
(1.00005 -0.000241791 -3.7194e-16)
(1.00014 -0.000447268 -2.38012e-16)
(1.00023 -0.00066618 3.29408e-16)
(1.00042 -0.000945567 -8.91536e-17)
(1.00075 -0.00130899 5.20748e-16)
(1.00118 -0.00172507 -1.41325e-16)
(1.00166 -0.00209983 -7.48991e-18)
(1.00214 -0.00234713 -1.49986e-16)
(1.00253 -0.00238774 3.85248e-16)
(1.00284 -0.00218293 -2.42906e-16)
(1.00303 -0.00183723 -7.99024e-16)
(1.00318 -0.00120249 -1.90178e-16)
(1.00247 0.00128949 -4.46242e-16)
(0.999971 -0.000159544 2.47477e-17)
(1 -0.000136221 1.12574e-16)
(1.00005 -0.000286413 3.35273e-16)
(1.00015 -0.00053472 2.60245e-16)
(1.00027 -0.000809299 -3.20612e-17)
(1.00048 -0.00113879 -1.30311e-16)
(1.00084 -0.00152892 -5.76513e-16)
(1.00129 -0.00194167 -6.70093e-17)
(1.00179 -0.00229058 -3.42419e-16)
(1.00228 -0.00249842 1.10927e-16)
(1.00269 -0.00249507 -7.06152e-16)
(1.003 -0.00224417 3.40739e-16)
(1.00318 -0.00184654 1.15104e-15)
(1.00332 -0.00117085 -8.87296e-16)
(1.00263 0.00138488 5.20075e-16)
(0.999965 -0.000162345 -1.99536e-17)
(1.00001 -0.000163743 -1.58404e-16)
(1.00007 -0.000343653 -1.91899e-16)
(1.00018 -0.000634462 -9.57284e-17)
(1.00032 -0.000959211 -6.13004e-17)
(1.00056 -0.00133051 8.41486e-17)
(1.00094 -0.00173946 -3.22268e-17)
(1.00142 -0.00214353 -4.42506e-16)
(1.00193 -0.00246405 -1.30249e-16)
(1.00243 -0.00263234 -3.27936e-17)
(1.00284 -0.00258647 6.4272e-16)
(1.00314 -0.00229215 1.07519e-16)
(1.00333 -0.00184657 -9.56832e-16)
(1.00347 -0.00113376 5.07583e-16)
(1.00277 0.00148086 -1.00573e-16)
(0.999955 -0.000167497 1.80296e-17)
(1.00001 -0.000199736 9.31446e-17)
(1.00008 -0.000413246 9.23735e-17)
(1.00021 -0.000745779 1.79679e-16)
(1.00037 -0.00111511 -9.7895e-17)
(1.00064 -0.00152041 -2.75371e-17)
(1.00105 -0.00194119 1.98882e-16)
(1.00155 -0.00233229 2.9713e-16)
(1.00207 -0.00262285 -2.14209e-17)
(1.00257 -0.00275221 -3.58747e-16)
(1.00298 -0.00266563 -2.75795e-16)
(1.00328 -0.00233066 -4.84881e-16)
(1.00347 -0.00184076 2.03575e-17)
(1.0036 -0.00109401 2.6279e-16)
(1.0029 0.00157424 -1.57183e-16)
(0.999941 -0.000175235 -9.63802e-18)
(1.00001 -0.000243863 -5.5127e-17)
(1.0001 -0.000494187 1.4031e-16)
(1.00025 -0.000867262 1.47287e-17)
(1.00044 -0.00127575 -1.24636e-16)
(1.00073 -0.00170797 1.00485e-16)
(1.00116 -0.00213464 -4.7986e-17)
(1.00167 -0.00250949 2.73994e-16)
(1.0022 -0.00276931 5.06193e-16)
(1.00271 -0.00286084 7.8613e-17)
(1.00312 -0.00273563 2.37987e-16)
(1.00341 -0.00236265 2.42265e-16)
(1.00359 -0.00183163 5.98244e-17)
(1.00372 -0.00105355 -5.40628e-16)
(1.00301 0.00166535 1.29459e-16)
(0.999922 -0.000185503 1.2917e-17)
(1.00001 -0.000295227 1.16095e-17)
(1.00011 -0.000584723 -2.86648e-16)
(1.00028 -0.000996806 -1.25239e-16)
(1.0005 -0.00143935 1.7609e-16)
(1.00082 -0.00189227 -2.7484e-17)
(1.00127 -0.00231993 1.83781e-16)
(1.00179 -0.00267616 -2.44035e-16)
(1.00233 -0.00290512 1.39104e-16)
(1.00284 -0.00296028 1.15689e-16)
(1.00325 -0.00279858 1.22114e-16)
(1.00354 -0.00239006 1.554e-16)
(1.00371 -0.00182071 2.16067e-16)
(1.00383 -0.00101343 3.03942e-17)
(1.00312 0.00175251 7.61313e-17)
(0.999898 -0.000198138 -3.97375e-17)
(1 -0.00035269 1.05167e-16)
(1.00012 -0.000682853 1.64605e-16)
(1.00031 -0.0011321 -1.05382e-16)
(1.00056 -0.00160403 -6.85099e-17)
(1.00091 -0.00207229 3.89881e-17)
(1.00137 -0.00249705 -2.00211e-16)
(1.0019 -0.00283312 -1.30985e-16)
(1.00244 -0.00303161 -1.72012e-16)
(1.00296 -0.00305209 2.73386e-16)
(1.00337 -0.00285603 -3.79255e-16)
(1.00365 -0.00241424 2.96213e-16)
(1.00382 -0.00180898 1.45092e-16)
(1.00394 -0.000974293 5.42539e-16)
(1.00321 0.0018375 -4.8995e-16)
(0.99987 -0.000212784 1.67701e-17)
(0.999989 -0.00041486 -7.91574e-17)
(1.00013 -0.000786296 5.79815e-17)
(1.00034 -0.00127061 1.28228e-16)
(1.00061 -0.00176768 -8.89059e-17)
(1.00098 -0.00224682 -1.50225e-16)
(1.00146 -0.00266568 -7.11053e-17)
(1.002 -0.00298076 9.7966e-17)
(1.00255 -0.00314959 -4.48051e-16)
(1.00306 -0.00313722 6.61052e-17)
(1.00347 -0.00290889 2.51988e-16)
(1.00375 -0.00243587 -7.04232e-16)
(1.00392 -0.00179681 1.42197e-16)
(1.00403 -0.000936086 2.17539e-17)
(1.0033 0.00191906 3.61205e-16)
(0.999837 -0.000229077 -6.37557e-18)
(0.999972 -0.000480377 9.70412e-17)
(1.00013 -0.000892922 -9.37526e-17)
(1.00036 -0.00141001 -5.81981e-17)
(1.00065 -0.00192846 -9.28381e-17)
(1.00105 -0.00241483 -4.90914e-17)
(1.00154 -0.00282562 -1.05802e-16)
(1.00209 -0.00311947 7.55166e-17)
(1.00265 -0.00325978 2.9028e-17)
(1.00316 -0.00321645 -3.10226e-16)
(1.00357 -0.00295788 -3.70039e-16)
(1.00384 -0.0024555 4.10445e-16)
(1.00401 -0.00178451 -3.58252e-16)
(1.00412 -0.000898914 -1.13946e-16)
(1.00338 0.00199909 -1.10546e-17)
(0.9998 -0.000246551 -1.92972e-17)
(0.999949 -0.00054784 -4.48201e-17)
(1.00012 -0.00100062 3.16752e-17)
(1.00037 -0.00154807 2.25694e-16)
(1.00069 -0.00208461 3.76879e-16)
(1.0011 -0.0025753 3.07621e-16)
(1.00161 -0.00297656 3.36011e-16)
(1.00217 -0.0032494 -2.14305e-16)
(1.00273 -0.00336257 5.97606e-20)
(1.00325 -0.00329024 2.32334e-16)
(1.00365 -0.00300335 4.57423e-17)
(1.00392 -0.00247334 2.52191e-16)
(1.0041 -0.0017721 2.02638e-16)
(1.0042 -0.000862553 -5.30302e-16)
(1.00345 0.00207635 -3.43146e-16)
(0.999759 -0.000264799 9.928e-18)
(0.999921 -0.00061603 -8.10354e-17)
(1.0001 -0.00110764 -1.62129e-16)
(1.00038 -0.001683 -1.59134e-16)
(1.00072 -0.00223477 1.46458e-17)
(1.00115 -0.00272751 -1.73686e-16)
(1.00167 -0.00311839 -3.78064e-16)
(1.00224 -0.00337085 2.88477e-16)
(1.0028 -0.00345841 2.34546e-16)
(1.00332 -0.00335901 -5.17081e-16)
(1.00373 -0.00304563 4.24074e-16)
(1.004 -0.00248955 -3.09084e-16)
(1.00417 -0.00175957 -1.42447e-16)
(1.00428 -0.000826881 -1.24384e-16)
(1.00352 0.00215274 1.46063e-16)
(0.999714 -0.000283377 3.78044e-17)
(0.999888 -0.000683798 1.739e-17)
(1.00008 -0.00121239 8.76942e-17)
(1.00037 -0.0018132 4.07534e-17)
(1.00073 -0.00237776 4.7955e-17)
(1.00119 -0.00287086 3.00446e-16)
(1.00172 -0.00325098 -1.35725e-16)
(1.0023 -0.00348397 1.48254e-16)
(1.00286 -0.00354756 8.50867e-17)
(1.00338 -0.003423 5.9277e-17)
(1.0038 -0.00308484 1.97455e-16)
(1.00406 -0.00250414 -4.20869e-17)
(1.00424 -0.00174677 9.35204e-18)
(1.00435 -0.000791596 8.67531e-16)
(1.00358 0.00222711 2.71744e-18)
(0.999666 -0.000301944 -3.66965e-17)
(0.99985 -0.000750254 -1.26769e-17)
(1.00006 -0.00131368 5.73506e-17)
(1.00036 -0.00193757 -1.74853e-16)
(1.00074 -0.00251286 -2.80044e-16)
(1.00121 -0.00300514 -2.68262e-16)
(1.00176 -0.00337452 2.27217e-16)
(1.00235 -0.00358916 -8.30633e-17)
(1.00291 -0.00363048 9.68638e-18)
(1.00344 -0.00348259 -5.02238e-18)
(1.00386 -0.00312128 -2.72724e-16)
(1.00412 -0.00251728 -2.46408e-16)
(1.0043 -0.00173376 -1.58849e-16)
(1.00441 -0.000756749 2.40641e-17)
(1.00364 0.00230115 -5.34474e-17)
(0.999614 -0.00032015 -1.83257e-17)
(0.999806 -0.000814613 4.85042e-17)
(1.00003 -0.00141055 4.77403e-17)
(1.00035 -0.00205524 7.76717e-17)
(1.00074 -0.00263957 1.06235e-16)
(1.00123 -0.00313023 1.67815e-18)
(1.00179 -0.0034892 2.27165e-16)
(1.00238 -0.00368676 -5.06341e-16)
(1.00296 -0.00370751 2.58107e-16)
(1.00349 -0.00353806 2.6314e-16)
(1.00391 -0.00315509 -3.76339e-16)
(1.00418 -0.00252902 7.02613e-16)
(1.00436 -0.00172048 3.69737e-16)
(1.00448 -0.000722207 -6.87894e-16)
(1.0037 0.00237335 -2.01494e-16)
(0.99956 -0.000337764 3.78969e-17)
(0.999758 -0.000876344 2.94389e-17)
(0.999988 -0.0015024 4.61245e-18)
(1.00032 -0.00216577 -3.4826e-17)
(1.00074 -0.00275776 2.02101e-17)
(1.00124 -0.00324635 2.84962e-16)
(1.00181 -0.00359547 -4.58989e-17)
(1.00241 -0.00377729 3.24945e-16)
(1.00299 -0.00377915 -4.80463e-17)
(1.00353 -0.0035898 -2.91072e-16)
(1.00395 -0.00318659 6.02052e-16)
(1.00422 -0.00253954 -3.61168e-16)
(1.00441 -0.00170699 -4.88741e-16)
(1.00453 -0.000687983 2.06246e-16)
(1.00375 0.00244538 3.39295e-16)
(0.999502 -0.000354552 -3.15204e-17)
(0.999706 -0.000935005 -1.3281e-17)
(0.999945 -0.00158877 -1.73337e-16)
(1.00029 -0.00226888 -8.47255e-17)
(1.00072 -0.00286742 5.21827e-17)
(1.00124 -0.00335375 -2.87685e-16)
(1.00182 -0.00369373 -8.45354e-17)
(1.00243 -0.00386121 2.8326e-16)
(1.00302 -0.00384579 -2.39427e-16)
(1.00356 -0.00363811 7.01787e-17)
(1.00399 -0.00321592 -3.35245e-16)
(1.00427 -0.00254888 1.05419e-17)
(1.00446 -0.00169324 2.64525e-16)
(1.00459 -0.000653915 1.38943e-16)
(1.0038 0.00251573 -5.32729e-17)
(0.999441 -0.000370403 3.00734e-17)
(0.999649 -0.00099039 -9.7591e-17)
(0.999898 -0.00166955 8.19369e-17)
(1.00026 -0.00236464 5.36196e-17)
(1.0007 -0.00296889 -4.0417e-17)
(1.00123 -0.00345298 -1.72854e-16)
(1.00183 -0.00378467 5.23893e-17)
(1.00244 -0.00393917 -1.2985e-16)
(1.00304 -0.00390802 -2.18865e-16)
(1.00359 -0.00368344 -2.73513e-17)
(1.00402 -0.00324345 -4.84469e-16)
(1.00431 -0.00255732 4.95569e-16)
(1.00451 -0.00167938 3.84979e-17)
(1.00464 -0.000620192 -7.92965e-17)
(1.00385 0.00258605 -7.58653e-18)
(0.999378 -0.000385191 -3.68938e-17)
(0.999589 -0.00104234 1.00483e-16)
(0.999846 -0.0017447 -2.30875e-17)
(1.00022 -0.00245321 -2.10353e-16)
(1.00068 -0.00306253 -1.00196e-16)
(1.00122 -0.00354458 1.16355e-16)
(1.00183 -0.00386886 -1.70683e-16)
(1.00245 -0.00401173 -1.91088e-16)
(1.00306 -0.00396631 3.25034e-16)
(1.00361 -0.00372616 1.13039e-16)
(1.00405 -0.00326942 5.0835e-16)
(1.00434 -0.00256501 -3.82156e-16)
(1.00455 -0.0016655 1.3725e-16)
(1.00469 -0.000586803 -1.54237e-16)
(1.0039 0.00265464 5.05658e-18)
(0.999312 -0.000398902 2.28362e-17)
(0.999525 -0.0010909 -5.81525e-17)
(0.99979 -0.00181443 7.22645e-17)
(1.00017 -0.002535 3.13422e-16)
(1.00064 -0.00314893 1.33004e-16)
(1.0012 -0.00362925 8.24843e-17)
(1.00182 -0.00394705 3.39064e-16)
(1.00245 -0.00407959 1.6105e-16)
(1.00307 -0.00402124 -2.65097e-16)
(1.00363 -0.00376672 4.51469e-16)
(1.00408 -0.00329419 2.50941e-16)
(1.00438 -0.00257219 -2.1226e-16)
(1.00459 -0.00165173 -4.0575e-16)
(1.00474 -0.000553862 -1.57349e-16)
(1.00395 0.0027232 5.97008e-17)
(0.999244 -0.000411496 4.69002e-18)
(0.999459 -0.00113608 -1.23936e-16)
(0.99973 -0.00187893 -9.19903e-17)
(1.00012 -0.0026104 -2.15872e-16)
(1.00061 -0.00322863 3.46926e-17)
(1.00118 -0.00370763 -3.35055e-16)
(1.0018 -0.00401986 -3.60002e-16)
(1.00245 -0.00414328 -1.44726e-16)
(1.00307 -0.00407323 3.08153e-16)
(1.00364 -0.00380543 -3.27138e-16)
(1.00411 -0.00331792 1.15626e-16)
(1.00441 -0.00257896 2.14801e-16)
(1.00463 -0.00163808 3.25877e-16)
(1.00478 -0.000521274 1.98453e-16)
(1.004 0.00279007 1.6559e-17)
(0.999173 -0.000423034 3.29755e-17)
(0.999389 -0.0011781 2.02578e-16)
(0.999667 -0.00193862 9.43157e-17)
(1.00007 -0.00268001 1.81236e-16)
(1.00057 -0.00330237 1.08616e-16)
(1.00115 -0.0037805 4.57159e-17)
(1.00179 -0.00408807 5.27478e-17)
(1.00244 -0.00420351 -1.21154e-16)
(1.00307 -0.00412289 -1.22759e-16)
(1.00366 -0.00384277 1.4378e-17)
(1.00413 -0.00334103 -7.89975e-16)
(1.00444 -0.00258564 -3.08331e-16)
(1.00467 -0.00162477 3.23981e-16)
(1.00483 -0.000489291 -7.20938e-17)
(1.00405 0.00285692 -1.96102e-16)
(0.999101 -0.000433532 -4.43227e-17)
(0.999316 -0.0012171 -1.29841e-16)
(0.999601 -0.00199383 -1.86537e-16)
(1.00001 -0.00274435 6.12877e-17)
(1.00052 -0.00337076 -2.06012e-16)
(1.00111 -0.00384852 3.83295e-17)
(1.00176 -0.00415229 -4.74775e-17)
(1.00243 -0.00426079 -8.67552e-18)
(1.00307 -0.00417062 -1.46716e-16)
(1.00366 -0.00387905 -7.68824e-17)
(1.00415 -0.00336371 2.72004e-17)
(1.00447 -0.00259235 2.67769e-16)
(1.00471 -0.0016119 -1.34856e-16)
(1.00488 -0.000457929 2.65631e-16)
(1.0041 0.00292192 9.21999e-17)
(0.999026 -0.000443094 2.36944e-17)
(0.999241 -0.00125336 1.24413e-16)
(0.999532 -0.00204506 2.37029e-16)
(0.999954 -0.00280406 -6.84818e-17)
(1.00047 -0.00343454 -1.66045e-17)
(1.00108 -0.00391244 2.51444e-16)
(1.00174 -0.00421323 2.13701e-16)
(1.00242 -0.00431576 -1.46357e-16)
(1.00307 -0.00421695 3.91762e-16)
(1.00367 -0.00391469 3.55174e-16)
(1.00416 -0.0033863 3.77405e-16)
(1.00449 -0.00259933 -1.7412e-17)
(1.00475 -0.00159961 -2.98914e-16)
(1.00492 -0.000427302 -3.13189e-16)
(1.00415 0.00298683 -2.9624e-17)
(0.998949 -0.000451769 -2.0306e-17)
(0.999164 -0.00128709 -6.57043e-17)
(0.99946 -0.00209269 -1.96496e-16)
(0.999891 -0.00285967 1.26475e-16)
(1.00042 -0.00349429 1.21342e-16)
(1.00104 -0.00397285 -1.68409e-16)
(1.00171 -0.00427142 -8.49595e-17)
(1.0024 -0.00436884 8.35947e-18)
(1.00306 -0.00426219 -1.74102e-16)
(1.00368 -0.00394988 -3.04323e-16)
(1.00418 -0.00340892 -5.61122e-16)
(1.00452 -0.00260664 6.05567e-17)
(1.00478 -0.00158791 3.64937e-16)
(1.00497 -0.000397316 3.29629e-16)
(1.00421 0.00304991 -6.80547e-17)
(0.998871 -0.000459684 -1.61646e-17)
(0.999085 -0.0013186 -1.32199e-17)
(0.999386 -0.00213723 1.71991e-16)
(0.999826 -0.00291181 -1.6227e-16)
(1.00037 -0.00355072 -3.20621e-16)
(1.00099 -0.00403044 1.55528e-16)
(1.00168 -0.00432752 8.8217e-17)
(1.00238 -0.0044206 4.08161e-16)
(1.00305 -0.00430683 5.83293e-17)
(1.00368 -0.00398504 2.83379e-16)
(1.0042 -0.00343189 8.40809e-16)
(1.00455 -0.00261454 -2.30477e-16)
(1.00482 -0.001577 -9.77244e-17)
(1.00501 -0.000368212 -1.1505e-17)
(1.00426 0.0031129 -2.7081e-17)
(0.998791 -0.0004669 4.52093e-17)
(0.999003 -0.0013481 4.94049e-17)
(0.99931 -0.00217905 -1.47947e-16)
(0.999759 -0.00296099 1.3745e-16)
(1.00031 -0.00360435 -9.25259e-17)
(1.00095 -0.00408574 -2.97677e-16)
(1.00164 -0.00438196 1.30877e-17)
(1.00236 -0.00447141 -3.51001e-17)
(1.00305 -0.00435117 -2.16279e-16)
(1.00368 -0.00402037 1.822e-16)
(1.00421 -0.00345537 -7.84858e-16)
(1.00457 -0.00262314 -1.42735e-17)
(1.00486 -0.00156695 -1.74554e-16)
(1.00506 -0.000339999 3.25178e-17)
(1.00432 0.00317391 -8.02098e-17)
(0.998709 -0.000473547 -1.15359e-17)
(0.99892 -0.00137591 -1.17664e-17)
(0.999232 -0.00221861 2.04684e-17)
(0.99969 -0.00300776 -1.52863e-16)
(1.00025 -0.00365578 -2.74885e-17)
(1.0009 -0.00413933 3.6349e-16)
(1.00161 -0.00443531 -2.64756e-16)
(1.00233 -0.00452175 -3.27683e-16)
(1.00303 -0.00439557 3.50568e-16)
(1.00369 -0.00405619 -3.16884e-16)
(1.00423 -0.00347959 4.00728e-16)
(1.0046 -0.00263262 3.78774e-16)
(1.0049 -0.00155786 2.72507e-16)
(1.00511 -0.000312774 -1.8081e-16)
(1.00437 0.00323479 -6.04067e-17)
(0.998626 -0.000479683 -1.24455e-17)
(0.998835 -0.00140223 -7.22549e-17)
(0.999152 -0.00225625 -9.73446e-17)
(0.999618 -0.00305254 7.14354e-17)
(1.00019 -0.00370545 1.80975e-16)
(1.00085 -0.0041916 6.3479e-17)
(1.00157 -0.00448789 2.46087e-16)
(1.00231 -0.00457187 5.37191e-17)
(1.00302 -0.00444022 -4.60935e-16)
(1.00369 -0.00409259 1.61176e-16)
(1.00424 -0.00350459 -2.27608e-16)
(1.00463 -0.00264296 -1.88858e-16)
(1.00493 -0.00154969 -2.54094e-16)
(1.00516 -0.000286417 4.00396e-17)
(1.00443 0.00329375 1.45862e-16)
(0.998541 -0.000485435 -1.91092e-17)
(0.998749 -0.00142732 3.44174e-17)
(0.99907 -0.00229238 4.15517e-17)
(0.999545 -0.00309583 -1.43215e-16)
(1.00013 -0.00375387 6.98603e-17)
(1.0008 -0.00424308 -2.11902e-16)
(1.00153 -0.00454017 -2.59265e-17)
(1.00228 -0.00462218 3.18228e-16)
(1.00301 -0.00448548 -2.02814e-16)
(1.00369 -0.00412988 -2.67816e-16)
(1.00426 -0.00353065 2.29822e-16)
(1.00466 -0.00265441 -6.81486e-17)
(1.00497 -0.00154263 -7.19893e-16)
(1.00521 -0.000261158 7.32341e-17)
(1.00449 0.0033526 1.04839e-16)
(0.998455 -0.00049085 -9.84109e-18)
(0.998661 -0.00145139 3.35839e-17)
(0.998987 -0.00232727 1.26404e-17)
(0.999471 -0.00313796 1.90752e-17)
(1.00006 -0.00380139 1.20608e-16)
(1.00075 -0.00429407 6.69763e-17)
(1.00149 -0.00459242 -2.20475e-16)
(1.00226 -0.00467291 -2.00979e-17)
(1.003 -0.00453151 6.07463e-16)
(1.00369 -0.00416818 -1.94665e-16)
(1.00428 -0.00355783 -5.71546e-18)
(1.00469 -0.00266699 2.87367e-17)
(1.00502 -0.00153672 2.76991e-17)
(1.00526 -0.00023698 -5.07007e-17)
(1.00455 0.00340938 1.65468e-17)
(0.998367 -0.000496041 2.59239e-17)
(0.998571 -0.00147466 -6.85152e-17)
(0.998903 -0.00236127 -7.83134e-17)
(0.999394 -0.00317934 1.32811e-19)
(0.999995 -0.00384844 -1.82145e-16)
(1.00069 -0.004345 -2.90786e-17)
(1.00145 -0.00464503 4.27933e-17)
(1.00223 -0.00472437 -4.84253e-17)
(1.00299 -0.00457859 -4.11298e-16)
(1.00369 -0.00420771 5.47132e-16)
(1.00429 -0.00358631 -3.11947e-17)
(1.00472 -0.00268086 -5.70566e-17)
(1.00506 -0.00153202 3.3588e-16)
(1.00531 -0.000213947 -3.75524e-16)
(1.00462 0.00346602 7.7637e-18)
(0.998278 -0.00050104 2.75088e-18)
(0.99848 -0.00149727 8.22104e-17)
(0.998817 -0.00239459 2.21019e-16)
(0.999317 -0.00322022 -5.57653e-17)
(0.999927 -0.00389526 1.18392e-16)
(1.00064 -0.00439607 -1.83918e-16)
(1.00141 -0.00469815 -2.20102e-16)
(1.0022 -0.00477669 5.29177e-18)
(1.00297 -0.00462677 2.39506e-16)
(1.0037 -0.00424849 -4.7756e-16)
(1.00431 -0.00361609 1.18842e-16)
(1.00475 -0.00269594 -2.06319e-17)
(1.0051 -0.00152849 2.59473e-16)
(1.00536 -0.000191918 7.99268e-17)
(1.00468 0.00352069 -1.21877e-16)
(0.998187 -0.000505949 1.05725e-18)
(0.998388 -0.00151943 -8.92438e-17)
(0.998729 -0.00242752 -1.26174e-16)
(0.999238 -0.00326093 2.08551e-17)
(0.999859 -0.0039422 -2.19989e-17)
(1.00058 -0.00444762 1.66926e-16)
(1.00137 -0.00475212 3.61345e-16)
(1.00217 -0.00483016 -3.2027e-16)
(1.00296 -0.00467633 3.63949e-16)
(1.0037 -0.00429074 3.21286e-17)
(1.00433 -0.00364736 7.12552e-17)
(1.00478 -0.00271245 -1.37443e-16)
(1.00514 -0.00152627 2.64988e-16)
(1.00542 -0.000171103 1.49681e-16)
(1.00475 0.00357526 1.91298e-16)
(0.998095 -0.000510786 -8.65172e-18)
(0.998294 -0.00154126 8.51454e-17)
(0.99864 -0.00246021 1.55447e-16)
(0.999158 -0.00330168 5.36881e-17)
(0.999789 -0.00398946 1.57074e-16)
(1.00052 -0.00449984 1.20561e-16)
(1.00132 -0.00480708 -3.24609e-16)
(1.00215 -0.00488488 6.4971e-16)
(1.00295 -0.00472734 -2.04106e-16)
(1.0037 -0.00433453 -6.78536e-17)
(1.00435 -0.00368016 -2.45289e-16)
(1.00481 -0.00273039 -1.07606e-16)
(1.00519 -0.00152539 -2.94888e-16)
(1.00548 -0.000151483 -1.08295e-16)
(1.00482 0.0036277 4.60037e-17)
(0.998002 -0.000515636 -3.07316e-17)
(0.9982 -0.00156292 -9.10771e-17)
(0.998551 -0.00249292 -1.08861e-17)
(0.999077 -0.00334272 1.06864e-16)
(0.999718 -0.00403731 -1.42946e-16)
(1.00046 -0.00455298 -1.04924e-16)
(1.00128 -0.00486328 4.06226e-16)
(1.00212 -0.00494108 -1.21162e-16)
(1.00294 -0.00478 -5.17307e-16)
(1.00371 -0.00438003 7.11074e-17)
(1.00437 -0.00371463 -1.24553e-16)
(1.00485 -0.00274987 2.30138e-16)
(1.00524 -0.00152588 3.68086e-16)
(1.00553 -0.000133107 3.26758e-16)
(1.00489 0.00368008 -2.67869e-16)
(0.997908 -0.000520504 1.83599e-18)
(0.998104 -0.00158449 -1.75838e-17)
(0.99846 -0.00252573 -7.27592e-17)
(0.998994 -0.00338418 4.53744e-17)
(0.999646 -0.00408587 -7.92953e-17)
(1.0004 -0.00460715 1.35167e-16)
(1.00123 -0.00492077 -1.16751e-16)
(1.00209 -0.0049988 4.00803e-17)
(1.00292 -0.00483431 -1.08481e-16)
(1.00371 -0.00442719 2.75595e-16)
(1.00439 -0.00375071 3.36805e-16)
(1.00488 -0.00277082 1.94573e-18)
(1.00529 -0.00152769 -5.85796e-16)
(1.00559 -0.000115825 -3.97279e-16)
(1.00496 0.00373045 2.64976e-16)
(0.997812 -0.000525462 4.11739e-17)
(0.998006 -0.00160611 7.43417e-17)
(0.998367 -0.00255884 -8.26173e-17)
(0.998911 -0.00342627 -1.29765e-16)
(0.999573 -0.00413537 1.22999e-16)
(1.00034 -0.00466257 -1.16947e-16)
(1.00119 -0.0049798 -1.01909e-16)