1.45 	0 	0 	-0.301627
2.35 	0 	0 	-0.13414
