1.45 	0 	0 	-0.29553
2.35 	0 	0 	-0.130343
