/*--------------------------------*- C++ -*----------------------------------*\
  =========                 |
  \\      /  F ield         | OpenFOAM: The Open Source CFD Toolbox
   \\    /   O peration     | Website:  https://openfoam.org
    \\  /    A nd           | Version:  6.0
     \\/     M anipulation  |
\*---------------------------------------------------------------------------*/
FoamFile
{
    version     2.0;
    format      ascii;
    class       volVectorField;
    location    "0.2";
    object      U;
}
// * * * * * * * * * * * * * * * * * * * * * * * * * * * * * * * * * * * * * //

dimensions      [0 1 -1 0 0 0 0];

internalField   nonuniform List<vector> 
800
(
(0.000181174 -0.000190052 0)
(0.000345513 -9.17392e-05 0)
(3.49536e-05 0.000106184 0)
(-0.000742503 0.000263026 0)
(-0.00186473 0.000362218 0)
(-0.0031957 0.000415302 0)
(-0.00463795 0.000439391 0)
(-0.00613364 0.000449475 0)
(-0.00765613 0.000455818 0)
(-0.00919934 0.000464288 0)
(-0.0107692 0.000477756 0)
(-0.0123784 0.000497563 0)
(-0.0140433 0.000524569 0)
(-0.0157836 0.000559696 0)
(-0.0176219 0.000604109 0)
(-0.0195839 0.000659145 0)
(-0.0216981 0.000726062 0)
(-0.0239942 0.000805688 0)
(-0.026501 0.000897966 0)
(-0.029242 0.00100137 0)
(-0.0322302 0.00111216 0)
(-0.0354605 0.00122341 0)
(-0.0388993 0.00132393 0)
(-0.0424737 0.00139713 0)
(-0.0460575 0.0014203 0)
(-0.0494606 0.00136487 0)
(-0.0524207 0.00119849 0)
(-0.0546066 0.000889923 0)
(-0.0556371 0.000417426 0)
(-0.0551225 -0.000219792 0)
(-0.0527309 -0.000989079 0)
(-0.0482773 -0.00181516 0)
(-0.0418173 -0.00258009 0)
(-0.0337231 -0.0031381 0)
(-0.0247052 -0.0033473 0)
(-0.0157508 -0.00311309 0)
(-0.00796463 -0.00242854 0)
(-0.00234151 -0.00139214 0)
(0.000484654 -0.000223376 0)
(0.000575061 0.000535706 0)
(8.38844e-05 -0.000357354 0)
(-0.000301592 0.000267544 0)
(-0.00180738 0.00117358 0)
(-0.00431647 0.00192452 0)
(-0.00757587 0.00243978 0)
(-0.011334 0.00274941 0)
(-0.0153886 0.00291622 0)
(-0.0196042 0.0030022 0)
(-0.0239062 0.00305448 0)
(-0.0282649 0.00310369 0)
(-0.0326806 0.00316797 0)
(-0.0371729 0.00325806 0)
(-0.0417739 0.0033813 0)
(-0.0465251 0.00354396 0)
(-0.0514761 0.00375203 0)
(-0.0566827 0.00401082 0)
(-0.0622043 0.00432366 0)
(-0.0680994 0.00469004 0)
(-0.0744175 0.00510312 0)
(-0.0811892 0.00554683 0)
(-0.0884114 0.00599236 0)
(-0.0960295 0.00639445 0)
(-0.103917 0.00668789 0)
(-0.111851 0.00678527 0)
(-0.119498 0.00657773 0)
(-0.12639 0.00594112 0)
(-0.131939 0.00475009 0)
(-0.135448 0.00290243 0)
(-0.136175 0.000353565 0)
(-0.13342 -0.00284224 0)
(-0.126648 -0.0064928 0)
(-0.115637 -0.0102455 0)
(-0.100624 -0.0135986 0)
(-0.0824102 -0.015964 0)
(-0.0623901 -0.0167858 0)
(-0.0424449 -0.0157024 0)
(-0.0246733 -0.0127068 0)
(-0.0109727 -0.00823551 0)
(-0.00264475 -0.00321043 0)
(2.94653e-05 0.000564237 0)
(-0.000146616 -1.64551e-05 0)
(-0.00141342 0.00183642 0)
(-0.00445516 0.00400068 0)
(-0.00887823 0.00579114 0)
(-0.0142882 0.00705474 0)
(-0.0203596 0.00784666 0)
(-0.0268284 0.00829556 0)
(-0.0335106 0.0085357 0)
(-0.0402982 0.0086751 0)
(-0.0471417 0.00878887 0)
(-0.054032 0.00892533 0)
(-0.0609881 0.00911549 0)
(-0.0680482 0.00938116 0)
(-0.0752651 0.00973974 0)
(-0.0827027 0.0102058 0)
(-0.090433 0.0107901 0)
(-0.0985304 0.0114959 0)
(-0.107064 0.0123146 0)
(-0.116085 0.0132197 0)
(-0.125614 0.0141597 0)
(-0.135618 0.015051 0)
(-0.14599 0.0157705 0)
(-0.156522 0.0161512 0)
(-0.166883 0.0159815 0)
(-0.176602 0.0150134 0)
(-0.185056 0.0129825 0)
(-0.191489 0.0096444 0)
(-0.195047 0.00482785 0)
(-0.194848 -0.00149627 0)
(-0.190083 -0.00914043 0)
(-0.180153 -0.0176351 0)
(-0.164816 -0.0261963 0)
(-0.144345 -0.0337539 0)
(-0.119665 -0.0390711 0)
(-0.0924103 -0.0409723 0)
(-0.0648644 -0.0386684 0)
(-0.0396835 -0.0321057 0)
(-0.0194006 -0.0221996 0)
(-0.00602166 -0.01089 0)
(-0.000636737 -0.00138681 0)
(-0.000403097 0.000979393 0)
(-0.00265268 0.00480099 0)
(-0.00737546 0.00866233 0)
(-0.0138021 0.011759 0)
(-0.0213529 0.0139316 0)
(-0.0296276 0.0152958 0)
(-0.0383143 0.016068 0)
(-0.0471967 0.0164698 0)
(-0.056146 0.0166815 0)
(-0.0650996 0.0168318 0)
(-0.0740412 0.017007 0)
(-0.0829871 0.0172647 0)
(-0.0919772 0.0176461 0)
(-0.101069 0.0181834 0)
(-0.110334 0.0189016 0)
(-0.119851 0.0198163 0)
(-0.129701 0.020928 0)
(-0.139956 0.0222138 0)
(-0.150664 0.0236175 0)
(-0.161835 0.0250388 0)
(-0.173415 0.0263222 0)
(-0.185266 0.027248 0)
(-0.197141 0.0275282 0)
(-0.208664 0.0268112 0)
(-0.219311 0.0246997 0)
(-0.228418 0.020787 0)
(-0.235187 0.0147153 0)
(-0.238725 0.00625603 0)
(-0.23811 -0.0045934 0)
(-0.23247 -0.0175059 0)
(-0.221106 -0.031734 0)
(-0.203631 -0.0460578 0)
(-0.180142 -0.0588112 0)
(-0.151402 -0.0680288 0)
(-0.118997 -0.0717639 0)
(-0.0853851 -0.0685875 0)
(-0.0536995 -0.0581911 0)
(-0.0272271 -0.0418606 0)
(-0.00896901 -0.0225871 0)
(-0.00112639 -0.00499635 0)
(-0.000655457 0.00265005 0)
(-0.00389945 0.0092177 0)
(-0.0103304 0.0151816 0)
(-0.0187533 0.0197698 0)
(-0.0283713 0.022913 0)
(-0.0386979 0.0248443 0)
(-0.0493761 0.025899 0)
(-0.060165 0.0264012 0)
(-0.0709239 0.0266114 0)
(-0.0815832 0.0267168 0)
(-0.0921226 0.0268447 0)
(-0.102557 0.0270826 0)
(-0.112925 0.0274937 0)
(-0.123287 0.0281269 0)
(-0.133718 0.0290184 0)
(-0.144299 0.0301884 0)
(-0.155115 0.0316326 0)
(-0.16624 0.0333106 0)
(-0.177723 0.0351325 0)
(-0.189573 0.0369448 0)
(-0.201739 0.0385165 0)
(-0.214088 0.0395303 0)
(-0.226384 0.0395797 0)
(-0.23827 0.0381793 0)
(-0.249258 0.0347919 0)
(-0.258725 0.0288778 0)
(-0.265918 0.0199686 0)
(-0.269977 0.00776516 0)
(-0.26997 -0.00774393 0)
(-0.264949 -0.0261541 0)
(-0.254039 -0.0465215 0)
(-0.236563 -0.0672717 0)
(-0.212236 -0.0861835 0)
(-0.181409 -0.100516 0)
(-0.145358 -0.107365 0)
(-0.106522 -0.104332 0)
(-0.0684775 -0.0904459 0)
(-0.0354818 -0.0670543 0)
(-0.0119509 -0.0381533 0)
(-0.00155906 -0.0100181 0)
(-0.000897237 0.00497961 0)
(-0.00511094 0.0150745 0)
(-0.0132104 0.0235345 0)
(-0.0235542 0.0297592 0)
(-0.0351083 0.0338751 0)
(-0.047291 0.0363019 0)
(-0.0596996 0.0375329 0)
(-0.0720739 0.0380147 0)
(-0.084267 0.0380962 0)
(-0.0962082 0.038026 0)
(-0.107877 0.0379744 0)
(-0.119288 0.0380595 0)
(-0.130481 0.0383678 0)
(-0.141518 0.0389657 0)
(-0.152473 0.0399013 0)
(-0.163433 0.0411998 0)
(-0.174482 0.0428524 0)
(-0.185701 0.0448025 0)
(-0.19715 0.0469287 0)
(-0.208852 0.049029 0)
(-0.220784 0.050805 0)
(-0.232851 0.0518529 0)
(-0.244875 0.0516624 0)
(-0.256577 0.049631 0)
(-0.267564 0.0450956 0)
(-0.277318 0.0373883 0)
(-0.285189 0.0259176 0)
(-0.290391 0.0102757 0)
(-0.292006 -0.00962968 0)
(-0.289003 -0.033422 0)
(-0.280292 -0.060092 0)
(-0.264825 -0.0878438 0)
(-0.241787 -0.113994 0)
(-0.2109 -0.135015 0)
(-0.172848 -0.146854 0)
(-0.12975 -0.145706 0)
(-0.0854419 -0.129315 0)
(-0.045267 -0.0985105 0)
(-0.0155608 -0.0581373 0)
(-0.00209412 -0.0165803 0)
(-0.00112958 0.00794113 0)
(-0.00627998 0.0223215 0)
(-0.0159813 0.0336418 0)
(-0.0281331 0.0416034 0)
(-0.0414528 0.0466377 0)
(-0.0552588 0.0494279 0)
(-0.0691049 0.0506707 0)
(-0.082717 0.0509575 0)
(-0.0959486 0.0507346 0)
(-0.108734 0.0503149 0)
(-0.121057 0.0499115 0)
(-0.132935 0.049673 0)
(-0.144412 0.0497088 0)
(-0.15555 0.0501026 0)
(-0.166424 0.0509153 0)
(-0.177122 0.052178 0)
(-0.187735 0.0538805 0)
(-0.19835 0.0559547 0)
(-0.209044 0.0582564 0)
(-0.219871 0.0605463 0)
(-0.230848 0.0624749 0)
(-0.241949 0.0635715 0)
(-0.253083 0.0632444 0)
(-0.264083 0.0607945 0)
(-0.27469 0.0554477 0)
(-0.284532 0.0464101 0)
(-0.293101 0.0329481 0)
(-0.299728 0.0144971 0)
(-0.303551 -0.0091984 0)
(-0.303505 -0.0379113 0)
(-0.298324 -0.0707239 0)
(-0.286606 -0.105798 0)
(-0.266967 -0.140157 0)
(-0.23835 -0.169577 0)
(-0.200545 -0.188753 0)
(-0.15491 -0.192043 0)
(-0.105077 -0.175079 0)
(-0.057294 -0.137184 0)
(-0.0202788 -0.0835367 0)
(-0.00286756 -0.0251322 0)
(-0.00135863 0.0115136 0)
(-0.00742417 0.0309052 0)
(-0.0186641 0.0454057 0)
(-0.0324993 0.0551466 0)
(-0.0473893 0.0609824 0)
(-0.0625547 0.0639426 0)
(-0.0775131 0.0649767 0)
(-0.091986 0.0648449 0)
(-0.105837 0.0641002 0)
(-0.119011 0.0631212 0)
(-0.131506 0.0621628 0)
(-0.143347 0.0614017 0)
(-0.154581 0.0609686 0)
(-0.165273 0.0609637 0)
(-0.1755 0.06146 0)
(-0.185351 0.0624966 0)
(-0.19492 0.0640659 0)
(-0.204303 0.0660957 0)
(-0.213595 0.06843 0)
(-0.222881 0.0708089 0)
(-0.232233 0.0728515 0)
(-0.241694 0.0740443 0)
(-0.251275 0.0737392 0)
(-0.260936 0.0711645 0)
(-0.270565 0.0654529 0)
(-0.27996 0.0556902 0)
(-0.288786 0.0409894 0)
(-0.296538 0.0205938 0)
(-0.302487 -0.00598308 0)
(-0.305634 -0.0387708 0)
(-0.304668 -0.077101 0)
(-0.297963 -0.119306 0)
(-0.283655 -0.162375 0)
(-0.259881 -0.201636 0)
(-0.2253 -0.230637 0)
(-0.179984 -0.241627 0)
(-0.126607 -0.227232 0)
(-0.0716689 -0.183791 0)
(-0.026418 -0.115562 0)
(-0.00399511 -0.0363498 0)
(-0.00159608 0.0156931 0)
(-0.00858525 0.0407941 0)
(-0.021329 0.0587366 0)
(-0.0367285 0.0702239 0)
(-0.0529753 0.076667 0)
(-0.0692016 0.079535 0)
(-0.0849053 0.0800826 0)
(-0.0998197 0.0792633 0)
(-0.113832 0.0777442 0)
(-0.126914 0.0759694 0)
(-0.13908 0.074232 0)
(-0.15037 0.0727334 0)
(-0.160843 0.0716215 0)
(-0.170567 0.0710101 0)
(-0.17962 0.0709828 0)
(-0.188088 0.0715876 0)
(-0.196067 0.0728231 0)
(-0.203658 0.0746205 0)
(-0.210968 0.0768241 0)
(-0.218108 0.0791696 0)
(-0.225194 0.0812661 0)
(-0.232337 0.0825817 0)
(-0.239637 0.0824388 0)
(-0.247174 0.0800192 0)
(-0.254987 0.0743859 0)
(-0.263044 0.0645225 0)
(-0.271209 0.0493966 0)
(-0.279192 0.0280527 0)
(-0.286484 -0.000256214 0)
(-0.292287 -0.0358849 0)
(-0.295429 -0.0785434 0)
(-0.294288 -0.126953 0)
(-0.286743 -0.178398 0)
(-0.270269 -0.228175 0)
(-0.242326 -0.269085 0)
(-0.201264 -0.291355 0)
(-0.147884 -0.283904 0)
(-0.0877507 -0.238236 0)
(-0.0341051 -0.155322 0)
(-0.00558709 -0.0510493 0)
(-0.00186255 0.0205065 0)
(-0.0098369 0.0520027 0)
(-0.0241005 0.0735717 0)
(-0.0409592 0.0866666 0)
(-0.0583228 0.0934203 0)
(-0.0752579 0.0958493 0)
(-0.0912727 0.0955694 0)
(-0.10614 0.0937493 0)
(-0.119792 0.0911744 0)
(-0.132241 0.0883504 0)
(-0.143536 0.0856028 0)
(-0.153739 0.0831503 0)
(-0.162923 0.081152 0)
(-0.171165 0.0797294 0)
(-0.178543 0.0789735 0)
(-0.185142 0.0789391 0)
(-0.191049 0.0796327 0)
(-0.196364 0.0809948 0)
(-0.201195 0.0828792 0)
(-0.205665 0.0850321 0)
(-0.209917 0.0870714 0)
(-0.214107 0.0884705 0)
(-0.218408 0.0885486 0)
(-0.222996 0.0864708 0)
(-0.228042 0.0812614 0)
(-0.23368 0.0718343 0)
(-0.239983 0.0570441 0)
(-0.246909 0.0357657 0)
(-0.254243 0.00700847 0)
(-0.261513 -0.029919 0)
(-0.26788 -0.0751758 0)
(-0.271982 -0.12805 0)
(-0.271772 -0.186457 0)
(-0.264392 -0.246207 0)
(-0.246304 -0.300045 0)
(-0.213975 -0.336771 0)
(-0.16553 -0.341463 0)
(-0.104052 -0.298985 0)
(-0.0432434 -0.203414 0)
(-0.00776099 -0.0701114 0)
(-0.00219533 0.0260347 0)
(-0.0113032 0.0646204 0)
(-0.0271763 0.089887 0)
(-0.045396 0.104294 0)
(-0.0635794 0.110918 0)
(-0.0807745 0.112452 0)
(-0.0965515 0.110931 0)
(-0.110764 0.107753 0)
(-0.123423 0.10382 0)
(-0.134603 0.0996897 0)
(-0.144402 0.0957089 0)
(-0.152919 0.0921036 0)
(-0.160251 0.0890336 0)
(-0.166484 0.0866201 0)
(-0.171701 0.084954 0)
(-0.17598 0.0840926 0)
(-0.179399 0.0840483 0)
(-0.182042 0.0847722 0)
(-0.184008 0.0861341 0)
(-0.185415 0.0879009 0)
(-0.186407 0.0897149 0)
(-0.187162 0.0910752 0)
(-0.187894 0.0913237 0)
(-0.188848 0.0896402 0)
(-0.190297 0.0850482 0)
(-0.192523 0.0764362 0)
(-0.195792 0.0625982 0)
(-0.200322 0.0422975 0)
(-0.206225 0.0143604 0)
(-0.213431 -0.0221938 0)
(-0.221564 -0.0679655 0)
(-0.22976 -0.122893 0)
(-0.236388 -0.185782 0)
(-0.238733 -0.253497 0)
(-0.232752 -0.319623 0)
(-0.213298 -0.37266 0)
(-0.175432 -0.394588 0)
(-0.11825 -0.362584 0)
(-0.0534388 -0.259442 0)
(-0.0106432 -0.0944105 0)
(-0.00266414 0.0324523 0)
(-0.0131941 0.0788503 0)
(-0.0308588 0.1077 0)
(-0.0503153 0.122882 0)
(-0.068897 0.128732 0)
(-0.0857256 0.128774 0)
(-0.100519 0.125512 0)
(-0.113275 0.12058 0)
(-0.124124 0.114978 0)
(-0.133238 0.109299 0)
(-0.140784 0.103893 0)
(-0.146911 0.0989776 0)
(-0.151748 0.0947 0)
(-0.155401 0.0911687 0)
(-0.157957 0.0884641 0)
(-0.159488 0.0866377 0)
(-0.160059 0.085702 0)
(-0.159733 0.0856163 0)
(-0.158583 0.0862675 0)
(-0.156706 0.0874485 0)
(-0.154228 0.0888369 0)
(-0.151319 0.0899741 0)
(-0.148203 0.0902482 0)
(-0.145161 0.0888846 0)
(-0.142534 0.0849459 0)
(-0.140714 0.0773455 0)
(-0.140136 0.064878 0)
(-0.141247 0.0462692 0)
(-0.144472 0.0202471 0)
(-0.150146 -0.0143649 0)
(-0.158406 -0.0585234 0)
(-0.169008 -0.112777 0)
(-0.181024 -0.176914 0)
(-0.192367 -0.249235 0)
(-0.199202 -0.325052 0)
(-0.195502 -0.394077 0)
(-0.173522 -0.436941 0)
(-0.127411 -0.423572 0)
(-0.0639104 -0.321508 0)
(-0.0143546 -0.124736 0)
(-0.00340344 0.0401038 0)
(-0.0158711 0.0950624 0)
(-0.0356041 0.127047 0)
(-0.0560567 0.142086 0)
(-0.0743533 0.146228 0)
(-0.0898669 0.144004 0)
(-0.1026 0.138414 0)
(-0.112784 0.131303 0)
(-0.120729 0.123737 0)
(-0.126737 0.11631 0)
(-0.131068 0.109349 0)
(-0.133939 0.103041 0)
(-0.135519 0.0975042 0)
(-0.135939 0.0928168 0)
(-0.135293 0.0890359 0)
(-0.133649 0.0861956 0)
(-0.131052 0.0842997 0)
(-0.127543 0.0833087 0)
(-0.123162 0.0831232 0)
(-0.117969 0.0835629 0)
(-0.112054 0.084346 0)
(-0.105557 0.0850675 0)
(-0.0986842 0.0851809 0)
(-0.0917163 0.0839844 0)
(-0.0850234 0.080617 0)
(-0.0790673 0.074065 0)
(-0.0743993 0.0631838 0)
(-0.071648 0.0467356 0)
(-0.0714929 0.0234402 0)
(-0.0746174 -0.00796385 0)
(-0.0816272 -0.0486528 0)
(-0.0929055 -0.0996331 0)
(-0.108347 -0.161565 0)
(-0.126866 -0.23427 0)
(-0.145577 -0.315405 0)
(-0.158655 -0.397446 0)
(-0.156539 -0.462265 0)
(-0.128397 -0.474924 0)
(-0.0734088 -0.385766 0)
(-0.0189683 -0.161664 0)
(-0.00467775 0.0496497 0)
(-0.0199612 0.113858 0)
(-0.0420694 0.147903 0)
(-0.0629382 0.161277 0)
(-0.0797333 0.162383 0)
(-0.0924085 0.156912 0)
(-0.101461 0.148335 0)
(-0.107475 0.138633 0)
(-0.111009 0.128869 0)
(-0.112533 0.119588 0)
(-0.112423 0.111055 0)
(-0.110966 0.103398 0)
(-0.108379 0.0966781 0)
(-0.104813 0.0909288 0)
(-0.100371 0.0861671 0)
(-0.0951091 0.0823966 0)
(-0.0890564 0.0796012 0)
(-0.0822216 0.0777341 0)
(-0.0746086 0.0767023 0)
(-0.0662323 0.0763487 0)
(-0.057137 0.0764324 0)
(-0.0474154 0.0766076 0)
(-0.0372299 0.076405 0)
(-0.0268327 0.0752169 0)
(-0.0165842 0.0722885 0)
(-0.00696683 0.0667196 0)
(0.00140655 0.0574784 0)
(0.00779426 0.0434277 0)
(0.0113389 0.0233597 0)
(0.0110975 -0.00396659 0)
(0.00609473 -0.0398003 0)
(-0.00458318 -0.0853955 0)
(-0.0216093 -0.142007 0)
(-0.0450334 -0.210731 0)
(-0.073466 -0.291681 0)
(-0.102458 -0.381261 0)
(-0.122254 -0.46552 0)
(-0.118134 -0.508946 0)
(-0.0800844 -0.446227 0)
(-0.0243869 -0.205284 0)
(-0.00700334 0.0623475 0)
(-0.0265249 0.136112 0)
(-0.051067 0.169933 0)
(-0.0708939 0.179189 0)
(-0.0838966 0.17544 0)
(-0.0911963 0.165565 0)
(-0.0940784 0.153347 0)
(-0.0936212 0.140748 0)
(-0.090694 0.128717 0)
(-0.0859578 0.117664 0)
(-0.0798981 0.107738 0)
(-0.0728636 0.0989678 0)
(-0.065096 0.0913331 0)
(-0.0567523 0.0847994 0)
(-0.0479224 0.0793293 0)
(-0.0386434 0.0748839 0)
(-0.0289134 0.0714172 0)
(-0.0187048 0.068866 0)
(-0.00797867 0.0671369 0)
(0.00329845 0.0660897 0)
(0.0151359 0.0655207 0)
(0.0274972 0.0651434 0)
(0.0402768 0.0645708 0)
(0.0532748 0.0633007 0)
(0.0661727 0.0607046 0)
(0.0785107 0.0560256 0)
(0.0896709 0.0483849 0)
(0.0988668 0.0367978 0)
(0.105144 0.0201958 0)
(0.107396 -0.00255308 0)
(0.104388 -0.0326426 0)
(0.0948133 -0.0713709 0)
(0.0773764 -0.120251 0)
(0.0510065 -0.181163 0)
(0.0154288 -0.256225 0)
(-0.0272011 -0.346112 0)
(-0.068895 -0.443619 0)
(-0.0933202 -0.518341 0)
(-0.0810911 -0.495067 0)
(-0.0299717 -0.254827 0)
(-0.0113218 0.0806238 0)
(-0.0371567 0.162848 0)
(-0.0629958 0.191886 0)
(-0.0781486 0.193241 0)
(-0.0829497 0.182333 0)
(-0.0806352 0.166891 0)
(-0.0736008 0.15061 0)
(-0.0635099 0.135148 0)
(-0.0515395 0.121145 0)
(-0.0384903 0.10876 0)
(-0.0248912 0.09795 0)
(-0.0110817 0.0886007 0)
(0.00273231 0.0805832 0)
(0.0164423 0.0737788 0)
(0.0300118 0.0680853 0)
(0.0434577 0.0634151 0)
(0.0568355 0.0596874 0)
(0.0702253 0.0568186 0)
(0.0837184 0.0547103 0)
(0.0974016 0.0532351 0)
(0.11134 0.0522221 0)
(0.125555 0.0514409 0)
(0.140003 0.0505861 0)
(0.154546 0.0492641 0)
(0.168926 0.0469818 0)
(0.182735 0.0431427 0)
(0.195395 0.0370478 0)
(0.206132 0.0279037 0)
(0.213968 0.014835 0)
(0.217715 -0.00310812 0)
(0.215986 -0.0269601 0)
(0.207206 -0.0578988 0)
(0.189641 -0.0974033 0)
(0.161456 -0.147588 0)
(0.120946 -0.211705 0)
(0.0676517 -0.294017 0)
(0.00598418 -0.395464 0)
(-0.049487 -0.496903 0)
(-0.0717044 -0.523349 0)
(-0.0335692 -0.308662 0)
(-0.0190194 0.109386 0)
(-0.0532356 0.194231 0)
(-0.0749462 0.209553 0)
(-0.0766922 0.197686 0)
(-0.0651315 0.177379 0)
(-0.0466481 0.155901 0)
(-0.0247304 0.136014 0)
(-0.00141151 0.118585 0)
(0.0220784 0.10367 0)
(0.0450402 0.0910355 0)
(0.0671084 0.0803773 0)
(0.0881181 0.0714077 0)
(0.108028 0.0638795 0)
(0.126877 0.057591 0)
(0.144754 0.0523809 0)
(0.161784 0.0481195 0)
(0.178111 0.0446982 0)
(0.193894 0.0420186 0)
(0.209287 0.0399808 0)
(0.224437 0.0384716 0)
(0.239462 0.0373526 0)
(0.254438 0.0364472 0)
(0.269374 0.035529 0)
(0.28419 0.034311 0)
(0.29869 0.0324361 0)
(0.312527 0.0294731 0)
(0.325184 0.0249156 0)
(0.335938 0.0181853 0)
(0.343842 0.00863781 0)
(0.347704 -0.00443588 0)
(0.346077 -0.0218252 0)
(0.337241 -0.0444588 0)
(0.319185 -0.0735614 0)
(0.289575 -0.111029 0)
(0.245715 -0.160256 0)
(0.184885 -0.227473 0)
(0.106862 -0.321225 0)
(0.02031 -0.43893 0)
(-0.0440354 -0.520148 0)
(-0.0295678 -0.363264 0)
(-0.0303017 0.157866 0)
(-0.0703454 0.224508 0)
(-0.068394 0.208891 0)
(-0.038131 0.179001 0)
(0.00194856 0.150122 0)
(0.043785 0.125106 0)
(0.0844069 0.104451 0)
(0.122494 0.087763 0)
(0.157528 0.0743388 0)
(0.189454 0.0635082 0)
(0.218443 0.0547302 0)
(0.244755 0.0475866 0)
(0.268682 0.0417577 0)
(0.290521 0.0370006 0)
(0.31056 0.0331316 0)
(0.329077 0.0300097 0)
(0.346331 0.0275235 0)
(0.362569 0.0255793 0)
(0.378012 0.0240906 0)
(0.392858 0.0229688 0)
(0.407267 0.0221139 0)
(0.42135 0.0214058 0)
(0.435152 0.020696 0)
(0.448631 0.0198003 0)
(0.461634 0.0184932 0)
(0.47387 0.0165048 0)
(0.484881 0.0135198 0)
(0.494018 0.00918004 0)
(0.500409 0.00308703 0)
(0.502933 -0.00519789 0)
(0.500195 -0.016166 0)
(0.490487 -0.0304064 0)
(0.471726 -0.0487304 0)
(0.44134 -0.0724805 0)
(0.39606 -0.10432 0)
(0.331588 -0.150201 0)
(0.243033 -0.222962 0)
(0.128732 -0.338309 0)
(0.0161532 -0.466684 0)
(-0.00465652 -0.401915 0)
(-0.0250656 0.2255 0)
(-0.0394737 0.226544 0)
(0.0347699 0.165174 0)
(0.119675 0.123327 0)
(0.19349 0.0945939 0)
(0.256185 0.0733079 0)
(0.30971 0.0574672 0)
(0.355386 0.0457438 0)
(0.394384 0.0369964 0)
(0.427832 0.0303727 0)
(0.456711 0.0252879 0)
(0.481827 0.0213414 0)
(0.503841 0.018253 0)
(0.523298 0.0158241 0)
(0.540655 0.0139126 0)
(0.556299 0.0124155 0)
(0.570559 0.0112554 0)
(0.58372 0.010371 0)
(0.596023 0.00970943 0)
(0.607671 0.00921991 0)
(0.618823 0.00884864 0)
(0.629586 0.00853392 0)
(0.640004 0.00820196 0)
(0.650042 0.00776317 0)
(0.659569 0.00710967 0)
(0.668337 0.00611411 0)
(0.675957 0.00463019 0)
(0.681878 0.00249458 0)
(0.685367 -0.000470553 0)
(0.685485 -0.00445663 0)
(0.681063 -0.00967437 0)
(0.670662 -0.016377 0)
(0.652497 -0.0249274 0)
(0.624252 -0.0359704 0)
(0.582708 -0.0509044 0)
(0.522829 -0.073232 0)
(0.436183 -0.113325 0)
(0.307411 -0.196644 0)
(0.146413 -0.333096 0)
(0.0783589 -0.365153 0)
(0.26762 0.134793 0)
(0.332543 0.119086 0)
(0.45878 0.0784479 0)
(0.561468 0.0521469 0)
(0.630555 0.0358588 0)
(0.67913 0.0250538 0)
(0.715553 0.0177461 0)
(0.743668 0.0128163 0)
(0.765734 0.00946983 0)
(0.783371 0.00716293 0)
(0.797739 0.00554494 0)
(0.809653 0.00439213 0)
(0.819693 0.00355962 0)
(0.828289 0.0029524 0)
(0.835767 0.00250756 0)
(0.842381 0.00218278 0)
(0.848332 0.00194877 0)
(0.853783 0.00178412 0)
(0.858864 0.00167184 0)
(0.863676 0.00159683 0)
(0.868291 0.00154406 0)
(0.872749 0.00149712 0)
(0.877049 0.00143688 0)
(0.881146 0.00134054 0)
(0.884939 0.00118085 0)
(0.888259 0.000926043 0)
(0.890862 0.000540457 0)
(0.892418 -1.42576e-05 0)
(0.892507 -0.000777828 0)
(0.890608 -0.00179091 0)
(0.886096 -0.00309671 0)
(0.878229 -0.00474661 0)
(0.866105 -0.00681676 0)
(0.848538 -0.00945018 0)
(0.823755 -0.0129843 0)
(0.788327 -0.0183122 0)
(0.735021 -0.0281966 0)
(0.644135 -0.0519341 0)
(0.479247 -0.109906 0)
(0.34865 -0.152796 0)
)
;

boundaryField
{
    movingWall
    {
        type            fixedValue;
        value           uniform (1 0 0);
    }
    fixedWalls
    {
        type            noSlip;
    }
    frontAndBack
    {
        type            empty;
    }
}


// ************************************************************************* //
