/*--------------------------------*- C++ -*----------------------------------*\
  =========                 |
  \\      /  F ield         | OpenFOAM: The Open Source CFD Toolbox
   \\    /   O peration     | Website:  https://openfoam.org
    \\  /    A nd           | Version:  6.0
     \\/     M anipulation  |
\*---------------------------------------------------------------------------*/
FoamFile
{
    version     2.0;
    format      ascii;
    class       volVectorField;
    location    "33";
    object      U;
}
// * * * * * * * * * * * * * * * * * * * * * * * * * * * * * * * * * * * * * //

dimensions      [0 1 -1 0 0 0 0];

internalField   nonuniform List<vector> 
2000
(
(-0.00199132 0.00173858 5.73071e-20)
(-0.00762185 0.00330307 6.80629e-20)
(-0.0153305 0.00366254 -6.48871e-20)
(-0.0223328 0.00333834 -1.32404e-19)
(-0.0276806 0.00264077 -9.2491e-20)
(-0.0312211 0.00177297 1.23218e-19)
(-0.0330519 0.000880326 7.17708e-20)
(-0.0334419 6.9564e-05 -2.90335e-20)
(-0.0328235 -0.000580184 -7.24786e-20)
(-0.0314913 -0.00100502 5.28465e-20)
(-0.00248981 0.00512165 -1.42048e-19)
(-0.00837095 0.00968609 1.96094e-19)
(-0.0157255 0.0106981 1.95542e-20)
(-0.0220253 0.00969795 -1.13585e-19)
(-0.0264593 0.00759856 5.43517e-19)
(-0.0289511 0.00499684 -2.39208e-19)
(-0.0296462 0.00232114 -2.58793e-19)
(-0.0288401 -0.000110231 3.12137e-19)
(-0.0269812 -0.00205553 -3.07841e-19)
(-0.0244419 -0.00332229 1.55301e-19)
(-0.00343589 0.00822529 2.35918e-20)
(-0.00972832 0.0154102 8.39041e-21)
(-0.0163016 0.0168867 5.87687e-19)
(-0.0211435 0.0151406 2.06155e-19)
(-0.0237169 0.0116332 4.08871e-20)
(-0.0240968 0.00731633 3.38121e-19)
(-0.0225215 0.00287578 -6.42216e-19)
(-0.019335 -0.00116561 1.39285e-20)
(-0.0150153 -0.00439105 -3.79762e-19)
(-0.0100966 -0.00647692 4.18354e-19)
(-0.00472418 0.0108684 -4.43782e-20)
(-0.0114035 0.0200609 2.55313e-19)
(-0.0166176 0.0217193 -7.43868e-19)
(-0.0191355 0.0191492 -9.61525e-20)
(-0.0188306 0.0142669 -5.47513e-19)
(-0.0160011 0.00831036 5.6704e-19)
(-0.0110191 0.00217419 -6.01453e-19)
(-0.0042914 -0.00343248 4.22392e-19)
(0.00366958 -0.00789987 1.77575e-19)
(0.0120717 -0.0107688 -2.00657e-19)
(-0.0061872 0.0128752 -4.93926e-19)
(-0.0129399 0.0232578 4.45663e-21)
(-0.0159817 0.0247666 9.16332e-19)
(-0.015133 0.0213423 2.74715e-19)
(-0.0108121 0.015224 -8.73494e-19)
(-0.00361207 0.00783346 5.43157e-19)
(0.0059235 0.000193446 6.15663e-19)
(0.0173209 -0.00684254 -5.48911e-19)
(0.0300445 -0.0124572 3.91371e-19)
(0.0429345 -0.0160528 9.61053e-20)
(-0.00758386 0.0140746 6.75167e-20)
(-0.0136955 0.0246651 1.25221e-20)
(-0.0134281 0.0257004 -1.17152e-18)
(-0.00791849 0.0215106 -6.55405e-19)
(0.00173927 0.0144904 7.81845e-19)
(0.014584 0.00611284 -9.15575e-19)
(0.0298567 -0.00259342 1.04916e-18)
(0.047018 -0.0107191 -9.0623e-20)
(0.0655509 -0.0172549 -2.95163e-19)
(0.083813 -0.0214778 -8.5788e-19)
(-0.00858782 0.0143042 -1.46909e-19)
(-0.0128312 0.0240055 -2.68318e-19)
(-0.00771162 0.0243081 -3.29644e-19)
(0.00408255 0.0196254 7.03225e-19)
(0.0206646 0.0123245 1.30449e-18)
(0.0406248 0.00378128 -2.69619e-19)
(0.0629234 -0.00513674 -6.56214e-19)
(0.0869408 -0.013638 2.00146e-19)
(0.112263 -0.0206218 -1.26045e-18)
(0.13669 -0.0252916 1.38449e-18)
(-0.00878361 0.0134242 8.98503e-19)
(-0.00932703 0.0210854 -4.90443e-19)
(0.00264858 0.020501 9.57506e-19)
(0.02274 0.0158154 -1.56438e-18)
(0.0481799 0.0092025 -7.4749e-19)
(0.077023 0.001822 -1.03537e-18)
(0.107841 -0.00579952 3.00804e-19)
(0.139857 -0.0132553 -8.37519e-19)
(0.172893 -0.0195812 1.82383e-18)
(0.204292 -0.0240896 5.10553e-19)
(-0.00768193 0.0113473 6.61404e-20)
(-0.00204314 0.0158381 7.98892e-19)
(0.0192587 0.0143207 1.58759e-18)
(0.0500701 0.0102973 4.85141e-19)
(0.08671 0.00565541 1.43594e-18)
(0.126605 0.00135497 7.87074e-20)
(0.167746 -0.00241353 -7.15503e-22)
(0.208936 -0.00570006 5.78921e-19)
(0.250251 -0.00784778 4.68263e-19)
(0.289136 -0.00927313 -1.51975e-18)
(-0.00476995 0.0080854 -5.32226e-19)
(0.010149 0.00838317 -8.91407e-19)
(0.0436478 0.00593551 -1.29571e-18)
(0.0880028 0.00320565 3.06141e-20)
(0.138759 0.00175223 -6.6055e-19)
(0.192817 0.00253697 1.04111e-18)
(0.247602 0.00588218 -2.86631e-18)
(0.301178 0.0120067 1.28685e-18)
(0.352902 0.0215052 4.83709e-19)
(0.400051 0.0302363 1.51764e-18)
(0.000389426 0.003808 2.66238e-19)
(0.0281207 -0.000876106 -1.01918e-18)
(0.0768146 -0.00427565 9.10037e-19)
(0.137571 -0.00546541 -3.53067e-19)
(0.205564 -0.00344767 3.84041e-19)
(0.277833 0.00270125 8.36093e-19)
(0.352544 0.0137179 -1.12255e-18)
(0.429292 0.0305437 1.45854e-19)
(0.509056 0.0524425 -5.37917e-19)
(0.594191 0.0694419 1.09137e-18)
(0.00806119 -0.00110857 3.81448e-19)
(0.0522634 -0.011095 -9.24013e-19)
(0.118762 -0.0153325 1.25898e-18)
(0.197757 -0.015023 -7.8406e-19)
(0.28406 -0.0102849 -2.87628e-19)
(0.374617 -0.000978706 1.7029e-19)
(0.467622 0.0128071 8.80438e-20)
(0.562506 0.0307606 1.19426e-18)
(0.658921 0.0501663 3.43805e-19)
(0.754577 0.0623286 1.46978e-18)
(0.0183532 -0.00610263 -3.4047e-19)
(0.0826165 -0.0209206 1.19469e-18)
(0.169014 -0.0252668 -9.96869e-19)
(0.267064 -0.0228353 -1.16913e-18)
(0.3711 -0.0151061 1.63575e-18)
(0.477629 -0.00287234 -1.24375e-18)
(0.584255 0.0129353 3.28529e-19)
(0.689423 0.0312049 -1.94759e-18)
(0.791351 0.049254 1.45888e-18)
(0.886058 0.0617386 7.28913e-20)
(0.0312717 -0.0105465 -4.43709e-19)
(0.118981 -0.0287957 -4.28523e-19)
(0.226877 -0.0317873 -9.12516e-19)
(0.344073 -0.0258954 1.10608e-18)
(0.464459 -0.0140444 -5.58686e-20)
(0.584075 0.00207009 7.15096e-19)
(0.699984 0.020847 1.30455e-18)
(0.809946 0.0407884 -4.00891e-19)
(0.911594 0.0598 -1.41797e-18)
(1.00092 0.0748685 2.81522e-18)
(0.0467469 -0.0138323 -2.29347e-19)
(0.160916 -0.0332186 -2.73567e-19)
(0.291347 -0.0327828 4.92319e-19)
(0.427125 -0.0216683 -9.15097e-19)
(0.561897 -0.00426618 1.56337e-19)
(0.691455 0.0168749 1.39128e-19)
(0.812679 0.0396065 6.10155e-20)
(0.923217 0.0622229 -9.8585e-21)
(1.02087 0.0832212 -1.49464e-19)
(1.10227 0.100983 -2.38002e-18)
(0.0646204 -0.0153982 9.30989e-19)
(0.207688 -0.0328648 -6.49729e-19)
(0.360991 -0.0265396 8.30895e-21)
(0.514064 -0.00834156 -9.89558e-19)
(0.660667 0.0159029 -3.54044e-19)
(0.796716 0.0428709 3.31032e-19)
(0.919376 0.0699886 2.57082e-19)
(1.02675 0.0954652 -9.16099e-19)
(1.11736 0.118335 7.48789e-19)
(1.18886 0.137785 -9.81777e-19)
(0.0846131 -0.014733 4.01816e-19)
(0.258234 -0.0266445 -3.57112e-19)
(0.433908 -0.0118374 1.48331e-18)
(0.602235 0.0150983 1.51239e-19)
(0.757563 0.047016 3.47571e-19)
(0.896426 0.0799655 1.54916e-18)
(1.01679 0.111126 -2.36865e-19)
(1.11773 0.138792 2.15832e-19)
(1.19889 0.162558 8.93758e-20)
(1.2592 0.18209 -1.09995e-19)
(0.106296 -0.0113865 2.80725e-19)
(0.311147 -0.0137438 6.74938e-19)
(0.507789 0.0120106 -7.23033e-19)
(0.688619 0.0488875 -2.44779e-19)
(0.849172 0.0886635 -3.0238e-19)
(0.987157 0.127015 4.68522e-19)
(1.10187 0.161144 -2.43708e-19)
(1.19376 0.18967 6.55671e-19)
(1.26385 0.21284 2.20647e-19)
(1.31251 0.23066 -3.59721e-19)
(0.129073 -0.00499479 -3.02516e-19)
(0.364707 0.00632792 2.68892e-19)
(0.580024 0.0451362 -5.7377e-19)
(0.77005 0.0925416 2.47499e-19)
(0.932171 0.139654 -2.56815e-19)
(1.06585 0.182155 -3.20521e-19)
(1.17215 0.217624 -2.57397e-19)
(1.2532 0.245296 2.87661e-19)
(1.31151 0.266199 -5.42368e-19)
(1.34886 0.280631 3.27771e-19)
(0.152194 0.00468197 -1.07833e-19)
(0.416952 0.0336822 -2.10936e-19)
(0.647862 0.0871014 1.00447e-19)
(0.843442 0.144923 6.19228e-21)
(1.00361 0.198184 8.33471e-20)
(1.13008 0.243066 1.14348e-19)
(1.22602 0.277934 1.05979e-19)
(1.29536 0.30293 -1.40533e-19)
(1.34202 0.319975 1.19645e-19)
(1.36912 0.32967 -1.87242e-19)
(0.174777 0.0177191 -6.24203e-20)
(0.465779 0.0680017 -2.3416e-20)
(0.708587 0.1369 9.31818e-20)
(0.906017 0.204326 -4.28968e-20)
(1.06111 0.262006 1.14338e-19)
(1.17822 0.307191 -1.47632e-19)
(1.26275 0.339448 3.42163e-20)
(1.32038 0.360074 3.67138e-20)
(1.35628 0.371947 -1.53904e-20)
(1.37465 0.375981 5.82268e-20)
(0.195859 0.033992 -6.73404e-20)
(0.509076 0.10851 -3.04738e-19)
(0.759698 0.192986 -2.11085e-20)
(0.955477 0.268575 6.27381e-21)
(1.103 0.328579 -3.96374e-19)
(1.20944 0.371906 5.23987e-20)
(1.2824 0.399691 -4.46117e-20)
(1.32911 0.414553 -1.07613e-19)
(1.35568 0.420326 2.24371e-19)
(1.36715 0.418227 -4.09106e-19)
(0.214447 0.0531509 -3.25243e-20)
(0.544856 0.153971 6.1719e-19)
(0.799071 0.253336 9.94457e-20)
(0.990143 0.335148 -5.43367e-19)
(1.12838 0.395217 -4.40637e-20)
(1.22373 0.434652 -5.20737e-19)
(1.28575 0.456423 3.81723e-19)
(1.3229 0.464536 -1.38508e-19)
(1.34192 0.4637 2.45712e-19)
(1.34842 0.455416 -1.79561e-19)
(0.229589 0.0746127 -2.05094e-19)
(0.571398 0.202719 1.95894e-19)
(0.8251 0.315542 -1.41394e-19)
(1.00903 0.401308 1.06573e-18)
(1.13709 0.459223 5.25992e-19)
(1.22173 0.493027 -1.2196e-19)
(1.2741 0.50767 4.10896e-19)
(1.30346 0.508496 -2.7038e-19)
(1.31689 0.500953 -7.53398e-20)
(1.32028 0.486795 4.94315e-19)
(0.240438 0.0975691 -3.54999e-19)
(0.58736 0.252732 4.5178e-19)
(0.83678 0.376933 -8.88877e-19)
(1.01186 0.464235 1.24839e-19)
(1.12967 0.51799 2.78992e-19)
(1.20469 0.544843 -4.27809e-19)
(1.24914 0.551724 -4.98215e-19)
(1.27272 0.54517 2.1872e-19)
(1.28253 0.531181 -2.63397e-19)
(1.28453 0.511752 3.16346e-19)
(0.246314 0.121013 -8.96947e-20)
(0.591877 0.301726 -4.59702e-19)
(0.83376 0.434709 2.54318e-19)
(0.999036 0.52116 4.26549e-19)
(1.10726 0.569098 -2.56501e-19)
(1.17428 0.588156 -1.91129e-19)
(1.21287 0.587118 -1.04489e-19)
(1.23274 0.573483 -5.16538e-20)
(1.24078 0.553596 1.07601e-20)
(1.24291 0.529717 1.07912e-19)
(0.24676 0.143786 6.58558e-20)
(0.584621 0.34728 -3.8581e-19)
(0.816345 0.4861 6.43511e-19)
(0.971587 0.569496 -3.81261e-19)
(1.07145 0.610387 1.06612e-19)
(1.13248 0.621291 -1.51223e-19)
(1.16741 0.612602 1.62808e-19)
(1.18559 0.592495 3.13205e-20)
(1.19356 0.56743 -7.76295e-20)
(1.19711 0.540019 1.50814e-19)
(0.241594 0.164636 -1.73141e-19)
(0.565836 0.386976 3.38283e-19)
(0.785453 0.52851 -1.5197e-20)
(0.93103 0.606952 -7.33156e-20)
(1.02419 0.640035 -2.01354e-19)
(1.08145 0.642883 2.485e-20)
(1.11501 0.627183 6.12157e-20)
(1.1335 0.601457 -1.51273e-19)
(1.14303 0.571982 1.76648e-19)
(1.14921 0.541877 1.50166e-19)
(0.230937 0.182311 3.86359e-20)
(0.536328 0.418564 -8.09933e-20)
(0.742535 0.559671 2.41109e-20)
(0.879243 0.631623 1.28179e-20)
(0.967557 0.656555 7.75979e-20)
(1.02335 0.651786 -1.43849e-19)
(1.05788 0.629967 -3.01111e-19)
(1.07891 0.599657 -1.22863e-19)
(1.09214 0.566622 -1.57055e-19)
(1.10255 0.5347 1.33023e-19)
(0.215232 0.195654 1.10582e-19)
(0.497432 0.440132 -1.71516e-19)
(0.689471 0.577807 1.6556e-19)
(0.818267 0.642112 -3.14588e-19)
(0.903425 0.658819 7.6312e-20)
(0.959699 0.646835 5.1593e-19)
(0.997281 0.619363 -1.58217e-19)
(1.02317 0.584702 1.88043e-19)
(1.04271 0.548004 2.75326e-19)
(1.05903 0.515027 1.00147e-18)
(0.19525 0.203727 6.80189e-19)
(0.450969 0.450297 -4.62796e-19)
(0.628516 0.581866 1.12637e-18)
(0.750271 0.637907 -1.92899e-19)
(0.833392 0.64676 9.6644e-19)
(0.89106 0.628053 6.06336e-19)
(0.932313 0.594737 -1.42447e-18)
(0.963573 0.55388 2.16279e-18)
(0.989459 0.507899 -4.57073e-19)
(1.00632 0.461006 8.9943e-19)
(0.172051 0.205875 -3.75223e-19)
(0.399206 0.448256 -2.67542e-19)
(0.562393 0.571531 2.5878e-19)
(0.677931 0.619483 -6.40834e-19)
(0.759664 0.62201 -2.00162e-18)
(0.818702 0.598992 -8.05002e-19)
(0.862695 0.563189 -7.25538e-19)
(0.897116 0.521741 3.51151e-19)
(0.925119 0.478159 2.92651e-18)
(0.942608 0.437392 -6.08744e-19)
(0.146895 0.201722 1.97495e-19)
(0.344729 0.43365 -7.99293e-19)
(0.494243 0.546776 1.75797e-19)
(0.604668 0.587135 -1.28021e-18)
(0.68606 0.585017 2.80288e-18)
(0.747295 0.55993 -3.24868e-19)
(0.794586 0.524081 1.52734e-18)
(0.832425 0.484257 -2.18787e-18)
(0.863344 0.443962 6.86404e-19)
(0.88465 0.407477 1.06189e-19)
(0.121118 0.191157 1.45591e-19)
(0.290164 0.406551 8.81564e-19)
(0.42712 0.507896 -2.58953e-18)
(0.533589 0.54123 1.26006e-18)
(0.615634 0.535984 -4.14737e-21)
(0.679889 0.510616 -4.25213e-19)
(0.731206 0.47643 5.35151e-19)
(0.773237 0.439624 -5.3184e-19)
(0.808166 0.403352 -1.82816e-18)
(0.834249 0.370865 -5.00923e-19)
(0.096049 0.174335 4.76413e-19)
(0.238034 0.367475 5.34546e-19)
(0.363855 0.455617 2.20788e-18)
(0.46742 0.482514 -1.22826e-18)
(0.550832 0.475501 2.53175e-18)
(0.618567 0.451353 -5.45339e-19)
(0.674215 0.420139 -5.76433e-19)
(0.720701 0.387299 6.81193e-19)
(0.759933 0.355515 4.44133e-19)
(0.790871 0.327125 1.61031e-18)
(0.0729451 0.15167 -4.83505e-19)
(0.190665 0.317378 1.57829e-19)
(0.306989 0.391113 4.2686e-20)
(0.408536 0.412152 1.25218e-18)
(0.493704 0.40459 -3.12564e-18)
(0.564991 0.382954 5.30985e-19)
(0.624865 0.355821 1.17245e-18)
(0.675618 0.327752 -1.41743e-18)
(0.718934 0.300911 4.99351e-19)
(0.754395 0.276898 -2.31751e-18)
(0.052947 0.123827 1.03039e-19)
(0.150114 0.257627 5.55858e-19)
(0.258723 0.315975 2.16191e-19)
(0.358946 0.331693 2.9299e-19)
(0.445942 0.324636 5.61406e-19)
(0.520505 0.30661 1.67147e-18)
(0.584155 0.284489 -2.0465e-18)
(0.638656 0.261882 -1.15263e-18)
(0.685523 0.240442 1.91011e-19)
(0.724904 0.221195 1.50276e-18)
(0.0370319 0.0916912 -6.2309e-19)
(0.118111 0.189953 -7.41211e-20)
(0.220875 0.232161 -6.20909e-19)
(0.320289 0.243023 8.84277e-20)
(0.40891 0.237334 -5.31528e-19)
(0.486185 0.223801 -6.06834e-19)
(0.552891 0.207443 -9.04334e-19)
(0.610385 0.190868 2.43691e-18)
(0.660067 0.175233 4.20423e-19)
(0.702562 0.161149 -6.40863e-19)
(0.025973 0.0563427 3.35815e-19)
(0.0960031 0.116393 4.43868e-19)
(0.194848 0.141928 1.74873e-19)
(0.293813 0.148293 -9.43799e-19)
(0.383641 0.144614 -4.39379e-19)
(0.462845 0.136227 -9.46135e-20)
(0.531694 0.126186 1.84875e-19)
(0.591265 0.116067 1.48446e-19)
(0.642893 0.106552 -1.14788e-18)
(0.687549 0.097959 6.58677e-19)
(0.0203063 0.0190054 -1.74879e-19)
(0.0847142 0.039206 -1.98952e-19)
(0.181593 0.0477526 1.58567e-19)
(0.280362 0.0498483 1.4078e-19)
(0.370831 0.0485774 1.44279e-19)
(0.451036 0.0457366 2.20649e-19)
(0.520988 0.0423513 -1.16017e-20)
(0.581622 0.0389488 -2.8943e-19)
(0.634243 0.0357546 2.74924e-19)
(0.680004 0.0328656 -4.13635e-19)
(0.0203063 -0.0190051 -1.76029e-19)
(0.0847142 -0.0392053 -1.89597e-19)
(0.181593 -0.0477516 1.74727e-19)
(0.280362 -0.0498472 3.42097e-19)
(0.370831 -0.0485763 2.27942e-19)
(0.451036 -0.0457356 -3.00343e-19)
(0.520988 -0.0423503 -1.63202e-19)
(0.581622 -0.0389479 7.11722e-20)
(0.634243 -0.0357538 1.60011e-19)
(0.680004 -0.0328648 -9.52839e-20)
(0.0259729 -0.0563423 4.20082e-19)
(0.0960031 -0.116392 -5.33875e-19)
(0.194847 -0.141927 -4.44038e-20)
(0.293813 -0.148292 2.95802e-19)
(0.383641 -0.144613 -1.33737e-18)
(0.462845 -0.136226 5.7144e-19)
(0.531694 -0.126185 5.89884e-19)
(0.591265 -0.116066 -6.96383e-19)
(0.642893 -0.106551 6.65207e-19)
(0.687549 -0.0979582 -2.91968e-19)
(0.0370318 -0.0916909 -7.26292e-20)
(0.118111 -0.189953 -9.2651e-21)
(0.220875 -0.23216 -1.44202e-18)
(0.320289 -0.243022 -4.5873e-19)
(0.408909 -0.237333 -4.83608e-20)
(0.486185 -0.2238 -7.5465e-19)
(0.552891 -0.207442 1.40611e-18)
(0.610384 -0.190868 -4.9417e-20)
(0.660067 -0.175232 8.02911e-19)
(0.702562 -0.161149 -7.05978e-19)
(0.052947 -0.123826 1.22661e-19)
(0.150114 -0.257626 -5.67878e-19)
(0.258722 -0.315974 1.74737e-18)
(0.358946 -0.331692 2.47272e-19)
(0.445941 -0.324635 1.21562e-18)
(0.520505 -0.306609 -1.18843e-18)
(0.584155 -0.284488 1.24761e-18)
(0.638656 -0.261882 -8.99492e-19)
(0.685523 -0.240441 -3.95014e-19)
(0.724904 -0.221194 3.35564e-19)
(0.072945 -0.15167 1.09528e-18)
(0.190664 -0.317377 2.80528e-21)
(0.306989 -0.391112 -1.84154e-18)
(0.408535 -0.412151 -5.34283e-19)
(0.493703 -0.404588 1.77405e-18)
(0.564991 -0.382953 -1.03969e-18)
(0.624865 -0.35582 -1.20362e-18)
(0.675618 -0.327751 1.08296e-18)
(0.718934 -0.30091 -7.37267e-19)
(0.754395 -0.276897 -1.58951e-19)
(0.0960489 -0.174334 -1.63499e-19)
(0.238034 -0.367474 -7.75264e-21)
(0.363855 -0.455616 1.99848e-18)
(0.46742 -0.482513 1.1459e-18)
(0.550832 -0.4755 -1.35129e-18)
(0.618567 -0.451352 1.63613e-18)
(0.674214 -0.420138 -1.77536e-18)
(0.7207 -0.387299 1.76678e-19)
(0.759932 -0.355514 5.28796e-19)
(0.79087 -0.327124 1.22356e-18)
(0.121118 -0.191156 1.87404e-19)
(0.290164 -0.406551 3.01781e-19)
(0.42712 -0.507895 3.28257e-19)
(0.533588 -0.541229 -1.0554e-18)
(0.615633 -0.535983 -1.87995e-18)
(0.679889 -0.510616 3.95895e-19)
(0.731206 -0.476429 1.14567e-18)
(0.773237 -0.439623 -3.2794e-19)
(0.808166 -0.403351 1.97433e-18)
(0.834248 -0.370864 -1.92444e-18)
(0.146894 -0.201721 -1.06085e-18)
(0.344728 -0.43365 4.07614e-19)
(0.494242 -0.546775 -1.10069e-18)
(0.604668 -0.587134 1.77942e-18)
(0.68606 -0.585017 8.89786e-19)
(0.747294 -0.559929 1.25628e-18)
(0.794585 -0.52408 -2.90715e-19)
(0.832425 -0.484256 1.14549e-18)
(0.863343 -0.443961 -2.42522e-18)
(0.884649 -0.407476 -6.32273e-19)
(0.17205 -0.205875 6.24724e-20)
(0.399206 -0.448255 -7.12656e-19)
(0.562393 -0.57153 -1.14103e-18)
(0.67793 -0.619482 -4.83482e-19)
(0.759663 -0.622009 -1.36623e-18)
(0.818701 -0.598991 -1.38971e-19)
(0.862694 -0.563188 1.18826e-19)
(0.897115 -0.52174 -5.33861e-19)
(0.925118 -0.478158 -5.96649e-19)
(0.942607 -0.437391 1.5735e-18)
(0.19525 -0.203727 3.35303e-19)
(0.450969 -0.450297 4.68214e-19)
(0.628516 -0.581865 8.38844e-19)
(0.750271 -0.637906 3.72188e-20)
(0.833392 -0.646759 5.59725e-19)
(0.89106 -0.628052 -7.66422e-19)
(0.932313 -0.594736 2.34002e-18)
(0.963573 -0.55388 -1.03315e-18)
(0.989458 -0.507898 -5.0742e-19)
(1.00632 -0.461005 -1.5301e-18)
(0.215231 -0.195654 -1.32056e-19)
(0.497432 -0.440132 2.33181e-19)
(0.68947 -0.577806 -2.38975e-19)
(0.818266 -0.642111 1.28863e-19)
(0.903425 -0.658818 -1.52287e-19)
(0.959698 -0.646834 -3.90595e-19)
(0.997281 -0.619363 5.13801e-19)
(1.02317 -0.584701 -1.68112e-19)
(1.04271 -0.548004 2.60732e-19)
(1.05903 -0.515026 -5.68963e-19)
(0.230936 -0.182311 -7.31573e-21)
(0.536328 -0.418563 -1.06654e-19)
(0.742535 -0.55967 2.14478e-20)
(0.879243 -0.631622 1.44394e-19)
(0.967557 -0.656555 -6.53975e-20)
(1.02335 -0.651785 1.75792e-20)
(1.05788 -0.629966 -1.71691e-20)
(1.07891 -0.599656 -3.83068e-19)
(1.09214 -0.566621 -1.77871e-19)
(1.10255 -0.534699 -5.59593e-19)
(0.241594 -0.164636 -9.61936e-20)
(0.565836 -0.386976 3.39475e-19)
(0.785452 -0.52851 -2.10969e-19)
(0.93103 -0.606951 -7.62197e-20)
(1.02419 -0.640034 3.4286e-20)
(1.08145 -0.642882 7.12258e-20)
(1.11501 -0.627182 -6.9456e-21)
(1.1335 -0.601456 2.91986e-19)
(1.14303 -0.571981 -2.52367e-19)
(1.14921 -0.541877 -3.5597e-21)
(0.24676 -0.143785 -2.36785e-19)
(0.584621 -0.347279 -1.48324e-19)
(0.816345 -0.486099 -3.68288e-19)
(0.971587 -0.569495 4.18955e-19)
(1.07145 -0.610386 -3.07156e-20)
(1.13248 -0.62129 1.36266e-19)
(1.16741 -0.612601 1.53903e-19)
(1.18559 -0.592494 -5.59678e-20)
(1.19356 -0.567429 5.01516e-20)
(1.19711 -0.540019 -1.59121e-19)
(0.246313 -0.121013 -1.61057e-19)
(0.591876 -0.301726 -2.06882e-19)
(0.83376 -0.434709 3.11757e-19)
(0.999036 -0.52116 -4.68449e-19)
(1.10726 -0.569097 8.22886e-20)
(1.17428 -0.588155 4.16046e-20)
(1.21287 -0.587118 9.20021e-20)
(1.23274 -0.573482 -6.04719e-20)
(1.24078 -0.553595 -7.24552e-20)
(1.24291 -0.529716 -2.36541e-19)
(0.240438 -0.0975691 6.71461e-19)
(0.58736 -0.252732 -5.25487e-19)
(0.836779 -0.376932 2.45476e-20)
(1.01185 -0.464234 -6.734e-19)
(1.12967 -0.51799 -1.95506e-19)
(1.20469 -0.544842 1.56415e-19)
(1.24914 -0.551724 1.14606e-19)
(1.27272 -0.545169 -3.82286e-19)
(1.28252 -0.531181 1.67877e-19)
(1.28453 -0.511751 -3.02711e-19)
(0.229589 -0.0746127 3.33216e-19)
(0.571398 -0.202719 -3.29784e-19)
(0.825099 -0.315542 1.18345e-18)
(1.00903 -0.401307 9.43801e-20)
(1.13709 -0.459222 2.68395e-19)
(1.22173 -0.493026 9.57504e-19)
(1.2741 -0.507669 -1.99012e-19)
(1.30346 -0.508496 4.83742e-20)
(1.31689 -0.500953 -2.84108e-20)
(1.32028 -0.486795 -4.9554e-20)
(0.214447 -0.0531509 2.56852e-19)
(0.544856 -0.153971 5.83651e-19)
(0.799071 -0.253336 -5.9492e-19)
(0.990142 -0.335148 -1.80716e-19)
(1.12838 -0.395217 -1.91336e-19)
(1.22373 -0.434651 3.76651e-19)
(1.28575 -0.456422 -1.77744e-19)
(1.3229 -0.464535 4.19101e-19)
(1.34192 -0.463699 1.00868e-19)
(1.34842 -0.455416 -1.77391e-19)
(0.195859 -0.033992 -2.77453e-19)
(0.509076 -0.10851 2.57472e-19)
(0.759697 -0.192986 -5.28602e-19)
(0.955477 -0.268575 2.21316e-19)
(1.103 -0.328578 -2.21817e-19)
(1.20944 -0.371905 -2.6377e-19)
(1.2824 -0.399691 -2.04669e-19)
(1.32911 -0.414553 2.25817e-19)
(1.35567 -0.420325 -3.92522e-19)
(1.36715 -0.418226 2.48489e-19)
(0.174777 -0.0177191 -1.03943e-19)
(0.465779 -0.0680017 -2.03975e-19)
(0.708587 -0.1369 9.59542e-20)
(0.906017 -0.204326 7.08357e-21)
(1.06111 -0.262006 7.63706e-20)
(1.17822 -0.30719 1.09424e-19)
(1.26275 -0.339447 9.31788e-20)
(1.32038 -0.360073 -1.26069e-19)
(1.35628 -0.371947 1.02775e-19)
(1.37465 -0.375981 -1.6235e-19)
(0.152194 -0.00468197 -6.54971e-20)
(0.416952 -0.0336821 -2.63998e-20)
(0.647862 -0.0871013 9.83699e-20)
(0.843442 -0.144923 -4.43781e-20)
(1.00361 -0.198184 1.24199e-19)
(1.13008 -0.243066 -1.5699e-19)
(1.22602 -0.277934 4.03301e-20)
(1.29536 -0.30293 3.46123e-20)
(1.34202 -0.319975 -1.23674e-20)
(1.36912 -0.32967 5.67546e-20)
(0.129073 0.00499481 -7.85739e-20)
(0.364707 -0.00632788 -3.33124e-19)
(0.580024 -0.0451361 -2.68306e-20)
(0.770049 -0.0925414 1.07093e-20)
(0.932171 -0.139653 -4.62095e-19)
(1.06585 -0.182155 4.87968e-20)
(1.17215 -0.217624 -5.16992e-20)
(1.2532 -0.245296 -1.40623e-19)
(1.31151 -0.266198 3.11166e-19)
(1.34886 -0.280631 -5.66112e-19)
(0.106296 0.0113865 -4.45461e-20)
(0.311147 0.0137438 7.145e-19)
(0.507789 -0.0120105 9.53003e-20)
(0.688619 -0.0488874 -6.45443e-19)
(0.849171 -0.0886633 -7.72852e-20)
(0.987156 -0.127015 -7.27874e-19)
(1.10187 -0.161143 5.65976e-19)
(1.19376 -0.189669 -2.29721e-19)
(1.26385 -0.21284 4.35418e-19)
(1.31251 -0.230659 -3.84136e-19)
(0.0846132 0.0147331 -2.51941e-19)
(0.258234 0.0266446 2.93357e-19)
(0.433908 0.0118375 -2.04912e-19)
(0.602235 -0.0150982 1.41642e-18)
(0.757563 -0.0470158 7.49765e-19)
(0.896426 -0.0799652 -1.96334e-19)
(1.01679 -0.111126 7.6343e-19)
(1.11773 -0.138792 -4.99165e-19)
(1.19889 -0.162557 -1.60535e-19)
(1.2592 -0.182089 1.15984e-18)
(0.0646205 0.0153983 -4.65753e-19)
(0.207688 0.0328649 6.95404e-19)
(0.360991 0.0265397 -1.3188e-18)
(0.514064 0.00834171 2.28281e-19)
(0.660667 -0.0159027 5.69183e-19)
(0.796716 -0.0428707 -7.15265e-19)
(0.919376 -0.0699883 -1.26684e-18)
(1.02675 -0.0954648 6.79134e-19)
(1.11736 -0.118335 -8.83241e-19)
(1.18886 -0.137785 1.41347e-18)
(0.046747 0.0138323 -1.15137e-19)
(0.160916 0.0332187 -6.99947e-19)
(0.291347 0.032783 3.45522e-19)
(0.427125 0.0216684 8.64348e-19)
(0.561897 0.00426639 -4.64285e-19)
(0.691455 -0.0168747 -4.58187e-19)
(0.812679 -0.0396062 -7.76847e-19)
(0.923216 -0.0622225 -3.55972e-19)
(1.02087 -0.0832208 -8.54914e-20)
(1.10227 -0.100983 1.41258e-18)
(0.0312718 0.0105465 1.93323e-19)
(0.118981 0.0287958 -9.50855e-19)
(0.226877 0.0317875 1.62641e-18)
(0.344073 0.0258956 -9.05643e-19)
(0.464459 0.0140447 5.86777e-19)
(0.584075 -0.00206979 -7.30128e-19)
(0.699984 -0.0208466 8.1319e-19)
(0.809946 -0.040788 7.10211e-19)
(0.911594 -0.0597996 1.55172e-18)
(1.00092 -0.074868 -2.56535e-18)
(0.0183533 0.00610269 -6.00703e-19)
(0.0826167 0.0209207 1.20624e-18)
(0.169014 0.025267 1.61004e-20)
(0.267065 0.0228356 -4.34476e-19)
(0.3711 0.0151064 -2.30723e-19)
(0.47763 0.0028727 1.84414e-19)
(0.584255 -0.0129349 -1.30925e-18)
(0.689423 -0.0312044 1.01153e-18)
(0.791351 -0.0492535 -1.30367e-18)
(0.886058 -0.061738 -5.95064e-19)
(0.00806127 0.00110863 1.0337e-18)
(0.0522636 0.0110951 -3.22466e-19)
(0.118762 0.0153328 -6.04914e-19)
(0.197758 0.0150233 1.64293e-18)
(0.28406 0.0102852 -1.61388e-18)
(0.374617 0.000979145 9.01701e-19)
(0.467622 -0.0128066 9.60359e-19)
(0.562506 -0.0307601 2.62797e-19)
(0.658921 -0.0501656 2.73324e-19)
(0.754577 -0.0623279 -3.87721e-19)
(0.000389502 -0.00380793 -9.88608e-19)
(0.0281208 0.00087629 9.39668e-19)
(0.0768148 0.00427594 -8.31576e-19)
(0.137571 0.0054658 1.04334e-18)
(0.205564 0.00344814 -3.11712e-19)
(0.277833 -0.00270069 -1.08259e-18)
(0.352544 -0.0137172 3.10458e-19)
(0.429292 -0.030543 -5.12227e-19)
(0.509056 -0.0524417 -6.06687e-19)
(0.594191 -0.069441 -1.89268e-18)
(-0.00476988 -0.00808533 -1.23498e-18)
(0.0101492 -0.00838295 9.81832e-19)
(0.043648 -0.00593514 -1.92372e-18)
(0.088003 -0.00320515 3.43997e-19)
(0.138759 -0.00175162 -1.33275e-18)
(0.192817 -0.00253625 -7.99325e-19)
(0.247602 -0.00588135 1.91289e-18)
(0.301178 -0.0120057 -2.61521e-18)
(0.352902 -0.0215041 5.03375e-19)
(0.400051 -0.0302351 -8.28957e-19)
(-0.00768187 -0.0113472 6.08333e-19)
(-0.00204296 -0.0158378 2.57399e-19)
(0.0192589 -0.0143202 -7.65649e-20)
(0.0500704 -0.0102967 7.31039e-19)
(0.0867102 -0.00565462 2.14666e-18)
(0.126605 -0.00135403 7.40913e-19)
(0.167746 0.0024146 7.65574e-19)
(0.208936 0.00570128 -2.64715e-19)
(0.250251 0.00784917 -2.46931e-18)
(0.289136 0.00927474 6.26237e-19)
(-0.00878354 -0.0134241 -1.71742e-19)
(-0.00932686 -0.0210851 5.46623e-19)
(0.00264881 -0.0205005 -1.43197e-19)
(0.0227402 -0.0158146 1.01108e-18)
(0.0481801 -0.0092015 -2.33771e-18)
(0.0770231 -0.00182082 1.98429e-19)
(0.107841 0.00580088 -1.11259e-18)
(0.139856 0.0132568 1.63716e-18)
(0.172893 0.019583 -4.78528e-19)
(0.204292 0.0240916 -6.83798e-20)
(-0.00858775 -0.0143041 -1.16915e-19)
(-0.012831 -0.024005 -6.57376e-19)
(-0.00771141 -0.0243073 1.65327e-18)
(0.00408276 -0.0196245 -8.7169e-19)
(0.0206648 -0.0123233 6.12631e-20)
(0.0406249 -0.00377983 2.79742e-19)
(0.0629234 0.0051384 -2.55658e-19)
(0.0869407 0.0136399 3.32259e-19)
(0.112263 0.0206239 1.15134e-18)
(0.13669 0.025294 3.01285e-19)
(-0.00758379 -0.0140744 -2.62237e-19)
(-0.0136953 -0.0246646 -2.91682e-19)
(-0.0134279 -0.0256995 -1.29468e-18)
(-0.00791831 -0.0215094 6.89376e-19)
(0.0017394 -0.014489 -1.42191e-18)
(0.014584 -0.00611113 3.23028e-19)
(0.0298566 0.00259537 3.63224e-19)
(0.0470178 0.0107213 -3.83859e-19)
(0.0655507 0.0172574 -2.48351e-19)
(0.0838127 0.0214805 -1.11615e-18)
(-0.00618713 -0.012875 2.04858e-19)
(-0.0129398 -0.0232571 -4.81874e-20)
(-0.0159815 -0.0247655 9.77902e-22)
(-0.0151328 -0.021341 -6.22179e-19)
(-0.010812 -0.0152224 1.57502e-18)
(-0.00361204 -0.0078315 -2.45665e-19)
(0.00592344 -0.00019122 -6.13071e-19)
(0.0173207 0.00684502 7.50372e-19)
(0.0300442 0.0124599 -2.63696e-19)
(0.0429342 0.0160558 1.45754e-18)
(-0.00472413 -0.0108682 -3.84509e-20)
(-0.0114034 -0.0200602 -2.25435e-19)
(-0.0166175 -0.0217182 -8.89729e-20)
(-0.0191354 -0.0191476 -1.13667e-19)
(-0.0188305 -0.0142651 -2.4438e-19)
(-0.0160011 -0.00830818 -7.67445e-19)
(-0.0110192 -0.00217173 9.59981e-19)
(-0.00429157 0.00343522 5.60778e-19)
(0.0036693 0.00790288 -1.00457e-19)
(0.0120714 0.0107721 -8.94018e-19)
(-0.00343584 -0.00822501 2.18351e-19)
(-0.00972822 -0.0154094 3.81564e-20)
(-0.0163015 -0.0168854 2.58276e-19)
(-0.0211434 -0.0151389 -2.95614e-20)
(-0.0237169 -0.0116312 2.35179e-19)
(-0.0240968 -0.00731397 2.65338e-19)
(-0.0225215 -0.00287313 3.97796e-19)
(-0.0193351 0.00116854 -1.12689e-18)
(-0.0150155 0.00439425 -2.07989e-19)
(-0.0100969 0.00648041 3.72759e-19)
(-0.00248978 -0.00512135 -1.10255e-19)
(-0.00837088 -0.00968524 -1.56707e-19)
(-0.0157254 -0.0106968 -7.53855e-20)
(-0.0220252 -0.00969617 3.6872e-19)
(-0.0264592 -0.0075964 1.78978e-19)
(-0.0289511 -0.00499435 3.67044e-20)
(-0.0296463 -0.00231835 -7.95781e-20)
(-0.0288402 0.000113303 -6.17307e-20)
(-0.0269813 0.00205888 5.29873e-19)
(-0.0244421 0.00332592 -3.60883e-19)
(-0.00199131 -0.00173826 5.6207e-20)
(-0.00762183 -0.00330219 6.99372e-20)
(-0.0153305 -0.00366115 -5.96347e-20)
(-0.0223327 -0.00333651 -5.45451e-20)
(-0.0276806 -0.00263856 -5.65551e-20)
(-0.0312211 -0.00177041 -9.02426e-20)
(-0.0330519 -0.000877467 2.89846e-21)
(-0.033442 -6.64212e-05 1.25211e-19)
(-0.0328235 0.000583603 -1.25721e-19)
(-0.0314914 0.00100873 2.2874e-19)
(-0.00812016 -0.00258514 1.65401e-20)
(0.0622512 -0.00662291 9.89438e-21)
(0.277432 -0.00672629 1.34124e-21)
(0.377252 -0.00440642 -9.03657e-22)
(0.479627 -0.00367942 -6.35433e-23)
(0.553913 -0.00262658 1.48764e-22)
(0.606165 -0.00215998 1.68414e-22)
(0.66081 -0.0015616 -3.49123e-23)
(0.683914 -0.00148254 -2.3897e-24)
(0.734451 -0.00103725 2.42562e-22)
(0.00868145 -0.00806571 2.62275e-20)
(0.0775037 -0.0197099 1.24942e-21)
(0.288928 -0.0199989 -1.75094e-20)
(0.386005 -0.0130853 1.40705e-20)
(0.486334 -0.0109687 8.90173e-22)
(0.559145 -0.00785781 -5.99642e-22)
(0.610437 -0.0064927 6.96607e-22)
(0.66417 -0.0047034 7.2826e-23)
(0.686848 -0.00439301 1.48199e-22)
(0.736672 -0.00305536 -2.22338e-22)
(0.0419897 -0.0144265 2.68674e-20)
(0.107534 -0.0323161 -3.61186e-20)
(0.31149 -0.0328123 1.78956e-20)
(0.403202 -0.0214632 -1.16574e-20)
(0.499517 -0.0180308 8.31591e-22)
(0.569445 -0.0129376 -6.48605e-22)
(0.618854 -0.0107105 -2.59908e-22)
(0.670802 -0.00776535 2.35564e-24)
(0.692647 -0.0072373 -1.13127e-22)
(0.741072 -0.00503365 -3.24579e-22)
(0.0912026 -0.0221455 -4.1638e-20)
(0.151419 -0.0441423 -5.0123e-20)
(0.344288 -0.0448814 -2.31413e-20)
(0.428235 -0.0293564 1.21498e-20)
(0.518725 -0.0247258 -1.45898e-20)
(0.584486 -0.0177724 3.87028e-21)
(0.631175 -0.0147419 -2.11432e-22)
(0.680532 -0.0106978 1.26644e-22)
(0.701176 -0.00997406 -1.35846e-22)
(0.747569 -0.00694673 1.20447e-22)
(0.155388 -0.0314955 1.15166e-19)
(0.207834 -0.0549009 7.22729e-20)
(0.386132 -0.0559426 2.6009e-20)
(0.460237 -0.0366028 -2.36097e-20)
(0.543311 -0.0309299 1.19766e-20)
(0.603804 -0.0222793 3.18034e-21)
(0.647046 -0.0185225 2.2343e-21)
(0.693116 -0.0134555 2.48873e-22)
(0.712245 -0.0125648 3.04222e-22)
(0.756045 -0.00877074 -6.38915e-22)
(0.233265 -0.0424038 -5.08465e-20)
(0.275104 -0.0642771 3.90037e-20)
(0.435541 -0.0657424 4.81953e-21)
(0.498128 -0.043059 2.63366e-20)
(0.572473 -0.0365361 -5.96357e-21)
(0.626819 -0.0263877 -3.7115e-21)
(0.66603 -0.021997 -2.30839e-21)
(0.708242 -0.0159998 -1.59389e-22)
(0.725609 -0.0149758 -1.62772e-22)
(0.766345 -0.010484 6.84675e-22)
(0.323203 -0.0545901 -3.86894e-20)
(0.351258 -0.0720062 -1.00829e-19)
(0.490817 -0.0740779 -1.70806e-20)
(0.54067 -0.0486092 -1.46646e-20)
(0.605295 -0.0414617 6.99753e-21)
(0.652862 -0.0300423 -1.95152e-21)
(0.687618 -0.0251213 2.47679e-21)
(0.725546 -0.0182987 4.62154e-22)
(0.740981 -0.0171788 -4.90566e-23)