1.275 	2.15223e-18 	-2.76991e-20 	0.0647403 	-0.00641898 	-1.64869e-22
1.825 	2.15223e-18 	-1.39322e-20 	0.304591 	-0.00964256 	3.46216e-22
2.375 	2.15223e-18 	-2.66896e-23 	0.593342 	-0.00781296 	-9.80639e-23
