1.45 	0 	0 	-0.291446
2.35 	0 	0 	-0.126716
