1.275 	2.15223e-18 	-2.76991e-20 	-0.0343795 	-0.000444758 	-1.93549e-22
1.825 	2.15223e-18 	-1.39322e-20 	-0.00931334 	-0.00277651 	1.72062e-21
2.375 	2.15223e-18 	-2.66896e-23 	0.115733 	-0.00326161 	-7.18033e-22
