1.45 	0 	0 	-0.174579
2.35 	0 	0 	0.0182792
