/*--------------------------------*- C++ -*----------------------------------*\
  =========                 |
  \\      /  F ield         | OpenFOAM: The Open Source CFD Toolbox
   \\    /   O peration     | Website:  https://openfoam.org
    \\  /    A nd           | Version:  6.0
     \\/     M anipulation  |
\*---------------------------------------------------------------------------*/
FoamFile
{
    version     2.0;
    format      ascii;
    class       surfaceScalarField;
    location    "0.3";
    object      phi;
}
// * * * * * * * * * * * * * * * * * * * * * * * * * * * * * * * * * * * * * //

dimensions      [0 3 -1 0 0 0 0];

internalField   nonuniform List<scalar> 
3120
(
2.53846e-09
-2.54349e-09
4.09676e-09
-1.55821e-09
2.25249e-09
1.84404e-09
-3.55576e-09
5.80812e-09
-1.31382e-08
9.58239e-09
-2.59861e-08
1.2848e-08
-4.14603e-08
1.54743e-08
-5.88845e-08
1.74244e-08
-7.75911e-08
1.87067e-08
-9.69435e-08
1.93524e-08
-1.16347e-07
1.94039e-08
-1.35257e-07
1.89094e-08
-1.53177e-07
1.79201e-08
-1.69666e-07
1.64888e-08
-1.84334e-07
1.46687e-08
-1.96848e-07
1.25135e-08
-2.06925e-07
1.00775e-08
-2.14341e-07
7.41579e-09
-2.18925e-07
4.58453e-09
-2.20567e-07
1.64159e-09
-2.19214e-07
-1.35319e-09
-2.14876e-07
-4.33771e-09
-2.07628e-07
-7.24754e-09
-1.97612e-07
-1.00161e-08
-1.85037e-07
-1.25749e-08
-1.70183e-07
-1.48546e-08
-1.53397e-07
-1.67855e-08
-1.35098e-07
-1.82994e-08
-1.15768e-07
-1.93305e-08
-9.59499e-08
-1.98178e-08
-7.62428e-08
-1.97072e-08
-5.72889e-08
-1.89539e-08
-3.97628e-08
-1.75262e-08
-2.4352e-08
-1.54108e-08
-1.17285e-08
-1.26236e-08
-2.4981e-09
-9.23045e-09
2.89522e-09
-5.39334e-09
4.35584e-09
-1.46054e-09
2.56015e-09
1.79593e-09
2.56036e-09
1.61647e-09
-4.15992e-09
-1.17082e-09
1.22861e-09
-1.17162e-08
1.23894e-08
-3.10751e-08
2.51673e-08
-5.90467e-08
3.75542e-08
-9.46876e-08
4.8489e-08
-1.36648e-07
5.74353e-08
-1.8339e-07
6.41658e-08
-2.33312e-07
6.8629e-08
-2.84834e-07
7.08747e-08
-3.36443e-07
7.10121e-08
-3.8672e-07
6.91866e-08
-4.34365e-07
6.55652e-08
-4.78204e-07
6.03282e-08
-5.17199e-07
5.36641e-08
-5.50453e-07
4.57674e-08
-5.77213e-07
3.68372e-08
-5.96874e-07
2.70775e-08
-6.08988e-07
1.6698e-08
-6.1326e-07
5.91433e-09
-6.09563e-07
-5.05067e-09
-5.97934e-07
-1.59667e-08
-5.78585e-07
-2.65961e-08
-5.51907e-07
-3.66948e-08
-5.18468e-07
-4.6014e-08
-4.79019e-07
-5.43033e-08
-4.3449e-07
-6.13144e-08
-3.85983e-07
-6.68061e-08
-3.34763e-07
-7.05511e-08
-2.82237e-07
-7.23434e-08
-2.29937e-07
-7.20077e-08
-1.7948e-07
-6.94112e-08
-1.32526e-07
-6.44798e-08
-9.07157e-08
-5.72212e-08
-5.55758e-08
-4.77634e-08
-2.83832e-08
-3.6423e-08
-9.94853e-09
-2.38282e-08
-2.89665e-10
-1.11198e-08
1.85317e-09
-3.47433e-10
4.41375e-09
-1.66733e-09
-2.49284e-09
-1.21176e-08
1.16786e-08
-3.40911e-08
3.43629e-08
-6.84507e-08
5.95271e-08
-1.14783e-07
8.38864e-08
-1.71802e-07
1.05508e-07
-2.37674e-07
1.23308e-07
-3.10264e-07
1.36755e-07
-3.87301e-07
1.45666e-07
-4.66502e-07
1.50076e-07
-5.45647e-07
1.50157e-07
-6.22635e-07
1.46174e-07
-6.95518e-07
1.38449e-07
-7.6253e-07
1.27341e-07
-8.22102e-07
1.13236e-07
-8.72871e-07
9.65368e-08
-9.13697e-07
7.76624e-08
-9.43662e-07
5.70432e-08
-9.62088e-07
3.51234e-08
-9.68534e-07
1.23607e-08
-9.62812e-07
-1.07724e-08
-9.4499e-07
-3.37887e-08
-9.15399e-07
-5.61873e-08
-8.74638e-07
-7.74557e-08
-8.23578e-07
-9.70742e-08
-7.63359e-07
-1.14522e-07
-6.95385e-07
-1.29288e-07
-6.21314e-07
-1.40878e-07
-5.43032e-07
-1.48832e-07
-4.62633e-07
-1.52743e-07
-3.82369e-07
-1.52272e-07
-3.046e-07
-1.4718e-07
-2.31717e-07
-1.37363e-07
-1.66045e-07
-1.22893e-07
-1.09708e-07
-1.04101e-07
-6.44487e-08
-8.16823e-08
-3.1384e-08
-5.68927e-08
-1.06928e-08
-3.18107e-08
-1.23858e-09
-9.80198e-09
3.17524e-09
-5.56927e-09
3.0764e-09
-2.49786e-08
3.10879e-08
-5.96858e-08
6.907e-08
-1.09867e-07
1.09708e-07
-1.7463e-07
1.4865e-07
-2.5227e-07
1.83148e-07
-3.40515e-07
2.11552e-07
-4.36746e-07
2.32986e-07
-5.38175e-07
2.47095e-07
-6.41973e-07
2.53873e-07
-7.45369e-07
2.53553e-07
-8.45723e-07
2.46529e-07
-9.40576e-07
2.33301e-07
-1.02768e-06
2.14448e-07
-1.10505e-06
1.90598e-07
-1.17093e-06
1.62418e-07
-1.22387e-06
1.30602e-07
-1.2627e-06
9.58728e-08
-1.28655e-06
5.89744e-08
-1.29486e-06
2.06759e-08
-1.28741e-06
-1.82296e-08
-1.26427e-06
-5.69255e-08
-1.22588e-06
-9.45743e-08
-1.17302e-06
-1.30322e-07
-1.10679e-06
-1.63304e-07
-1.02865e-06
-1.9266e-07
-9.40388e-07
-2.17548e-07
-8.44107e-07
-2.37159e-07
-7.42191e-07
-2.50749e-07
-6.3727e-07
-2.57663e-07
-5.32167e-07
-2.57375e-07
-4.2982e-07
-2.49528e-07
-3.33189e-07
-2.33993e-07
-2.45139e-07
-2.10944e-07
-1.68282e-07
-1.80958e-07
-1.04796e-07
-1.45169e-07
-5.61973e-08
-1.05491e-07
-2.31012e-08
-6.49066e-08
-4.98685e-09
-2.79164e-08
-1.81162e-09
-9.46882e-09
1.25454e-08
-3.8174e-08
5.97933e-08
-8.60747e-08
1.16971e-07
-1.52385e-07
1.76018e-07
-2.35536e-07
2.31801e-07
-3.3329e-07
2.80902e-07
-4.42909e-07
3.21171e-07
-5.61326e-07
3.51403e-07
-6.85305e-07
3.71074e-07
-8.11567e-07
3.80136e-07
-9.36899e-07
3.78885e-07
-1.05823e-06
3.67855e-07
-1.17268e-06
3.47751e-07
-1.27762e-06
3.19397e-07
-1.37073e-06
2.83702e-07
-1.44995e-06
2.41636e-07
-1.51356e-06
1.9422e-07
-1.56021e-06
1.42517e-07
-1.58886e-06
8.76239e-08
-1.59886e-06
3.0677e-08
-1.58993e-06
-2.71534e-08
-1.5622e-06
-8.46637e-08
-1.51615e-06
-1.40621e-07
-1.4527e-06
-1.9377e-07
-1.37316e-06
-2.42845e-07
-1.27923e-06
-2.86589e-07
-1.17301e-06
-3.23773e-07
-1.05694e-06
-3.53227e-07
-9.3381e-07
-3.73876e-07
-8.06688e-07
-3.84785e-07
-6.78852e-07
-3.85211e-07
-5.53716e-07
-3.74664e-07
-4.34719e-07
-3.5299e-07
-3.25197e-07
-3.20466e-07
-2.28229e-07
-2.77926e-07
-1.46465e-07
-2.26933e-07
-8.19415e-08
-1.70015e-07
-3.59148e-08
-1.10933e-07
-8.756e-09
-5.50752e-08
-1.05677e-08
-1.31623e-08
2.57077e-08
-5.10258e-08
9.76569e-08
-1.12089e-07
1.78034e-07
-1.94492e-07
2.58422e-07
-2.95862e-07
3.33171e-07
-4.13333e-07
3.98373e-07
-5.43648e-07
4.51485e-07
-6.83281e-07
4.91037e-07
-8.28575e-07
5.16368e-07
-9.75852e-07
5.27413e-07
-1.12152e-06
5.24549e-07
-1.26213e-06
5.08474e-07
-1.3945e-06
4.80117e-07
-1.51568e-06
4.40576e-07
-1.62305e-06
3.91072e-07
-1.71433e-06
3.32917e-07
-1.7876e-06
2.67493e-07
-1.84133e-06
1.96241e-07
-1.87436e-06
1.20657e-07
-1.88597e-06
4.22843e-08
-1.87584e-06
-3.72845e-08
-1.84409e-06
-1.16414e-07
-1.79128e-06
-1.93429e-07
-1.71842e-06
-2.66628e-07
-1.62697e-06
-3.34298e-07
-1.51882e-06
-3.94737e-07
-1.39631e-06
-4.46285e-07
-1.26217e-06
-4.87367e-07
-1.11951e-06
-5.16539e-07
-9.71743e-07
-5.32548e-07
-8.22551e-07
-5.34402e-07
-6.75758e-07
-5.21457e-07
-5.35238e-07
-4.9351e-07
-4.04786e-07
-4.50918e-07
-2.87968e-07
-3.94743e-07
-1.87971e-07
-3.26931e-07
-1.07455e-07
-2.50531e-07
-4.84507e-08
-1.69938e-07
-1.23358e-08
-9.11901e-08
-2.29035e-08
-1.66099e-08
4.23176e-08
-6.3308e-08
1.44355e-07
-1.37265e-07
2.5199e-07
-2.35537e-07
3.56694e-07
-3.54881e-07
4.52516e-07
-4.91735e-07
5.35227e-07
-6.42265e-07
6.02016e-07
-8.02465e-07
6.51236e-07
-9.68249e-07
6.82152e-07
-1.13556e-06
6.94727e-07
-1.30047e-06
6.89455e-07
-1.45922e-06
6.67226e-07
-1.60833e-06
6.29226e-07
-1.74461e-06
5.76856e-07
-1.86522e-06
5.11678e-07
-1.96767e-06
4.35372e-07
-2.04989e-06
3.49715e-07
-2.11021e-06
2.5656e-07
-2.14738e-06
1.57828e-07
-2.1606e-06
5.55047e-08
-2.14953e-06
-4.83626e-08
-2.11427e-06
-1.51672e-07
-2.05542e-06
-2.52274e-07
-1.97407e-06
-3.47983e-07
-1.87177e-06
-4.36599e-07
-1.75056e-06
-5.15938e-07
-1.61298e-06
-5.83872e-07
-1.46197e-06
-6.38378e-07
-1.3009e-06
-6.776e-07
-1.13352e-06
-6.9993e-07
-9.63835e-07
-7.04089e-07
-7.96057e-07
-6.89235e-07
-6.34492e-07
-6.55076e-07
-4.83404e-07
-6.02006e-07
-3.4689e-07
-5.31258e-07
-2.28737e-07
-4.45083e-07
-1.32315e-07
-3.46954e-07
-6.04974e-08
-2.41755e-07
-1.5688e-08
-1.36e-07
-3.85915e-08
-1.98407e-08
6.21584e-08
-7.50249e-08
1.99539e-07
-1.6154e-07
3.38505e-07
-2.75391e-07
4.70545e-07
-4.12445e-07
5.8957e-07
-5.68395e-07
6.91177e-07
-7.38793e-07
7.72413e-07
-9.19113e-07
8.31556e-07
-1.10484e-06
8.67875e-07
-1.29153e-06
8.81423e-07
-1.47494e-06
8.72862e-07
-1.65103e-06
8.43319e-07
-1.81608e-06
7.94271e-07
-1.96668e-06
7.27455e-07
-2.0998e-06
6.44803e-07
-2.21282e-06
5.48394e-07
-2.30353e-06
4.4042e-07
-2.37014e-06
3.23172e-07
-2.41133e-06
1.99021e-07
-2.42625e-06
7.04168e-08
-2.41449e-06
-6.0117e-08
-2.37618e-06
-1.89988e-07
-2.3119e-06
-3.16545e-07
-2.22279e-06
-4.37093e-07
-2.11048e-06
-5.48915e-07
-1.97711e-06
-6.49312e-07
-1.82533e-06
-7.35647e-07
-1.6583e-06
-8.05411e-07
-1.4796e-06
-8.56295e-07
-1.29325e-06
-8.86284e-07
-1.10358e-06
-8.93762e-07
-9.15175e-07
-8.77636e-07
-7.32784e-07
-8.37466e-07
-5.61172e-07
-7.73618e-07
-4.0501e-07
-6.8742e-07
-2.68749e-07
-5.81343e-07
-1.56523e-07
-4.5918e-07
-7.20896e-08
-3.26189e-07
-1.88493e-08
-1.8924e-07
-5.74409e-08
-2.29071e-08
8.50656e-08
-8.62825e-08
2.62915e-07
-1.85049e-07
4.37272e-07
-3.14207e-07
5.99703e-07
-4.68731e-07
7.44094e-07
-6.43547e-07
8.65993e-07
-8.33556e-07
9.62422e-07
-1.03369e-06
1.03169e-06
-1.23897e-06
1.07316e-06
-1.4446e-06
1.08705e-06
-1.64599e-06
1.07426e-06
-1.83887e-06
1.0362e-06
-2.01928e-06
9.74681e-07
-2.18364e-06
8.9182e-07
-2.32879e-06
7.89948e-07
-2.45196e-06
6.71565e-07
-2.55085e-06
5.39306e-07
-2.62358e-06
3.95911e-07
-2.66878e-06
2.44219e-07
-2.68552e-06
8.71581e-08
-2.67338e-06
-7.22575e-08
-2.63244e-06
-2.30931e-07
-2.56329e-06
-3.85694e-07
-2.46707e-06
-5.33319e-07
-2.34543e-06
-6.7055e-07
-2.2006e-06
-7.94144e-07
-2.03533e-06
-9.0092e-07
-1.8529e-06
-9.8784e-07
-1.6571e-06
-1.05209e-06
-1.45219e-06
-1.0912e-06
-1.24281e-06
-1.10314e-06
-1.03394e-06
-1.08651e-06
-8.30759e-07
-1.04064e-06
-6.38585e-07
-9.65791e-07
-4.6271e-07
-8.63295e-07
-3.08302e-07
-7.35751e-07
-1.80305e-07
-5.87177e-07
-8.33759e-08
-4.23117e-07
-2.18843e-08
-2.50731e-07
-7.93252e-08
-2.5865e-08
1.10931e-07
-9.72222e-08
3.34272e-07
-2.08012e-07
5.48062e-07
-3.52271e-07
7.43961e-07
-5.24084e-07
9.15907e-07
-7.17594e-07
1.0595e-06
-9.27028e-07
1.17186e-06
-1.14675e-06
1.25141e-06
-1.37132e-06
1.29772e-06
-1.59554e-06
1.31127e-06
-1.81453e-06
1.29325e-06
-2.02377e-06
1.24543e-06
-2.21911e-06
1.17002e-06
-2.39682e-06
1.06953e-06
-2.55361e-06
9.46735e-07
-2.68663e-06
8.04584e-07
-2.79349e-06
6.46166e-07
-2.87227e-06
4.7469e-07
-2.92152e-06
2.93468e-07
-2.94027e-06
1.05912e-07
-2.92806e-06
-8.44684e-08
-2.88493e-06
-2.74066e-07
-2.81143e-06
-4.59185e-07
-2.7087e-06
-6.36057e-07
-2.57838e-06
-8.00867e-07
-2.42272e-06
-9.49799e-07
-2.24455e-06
-1.0791e-06
-2.04724e-06
-1.18515e-06
-1.83475e-06
-1.26458e-06
-1.61156e-06
-1.31439e-06
-1.38263e-06
-1.33208e-06
-1.15329e-06
-1.31584e-06
-9.29239e-07
-1.2647e-06
-7.1634e-07
-1.17869e-06
-5.20565e-07
-1.05907e-06
-3.47847e-07
-9.08469e-07
-2.03984e-07
-7.3104e-07
-9.45503e-08
-5.32551e-07
-2.48638e-08
-3.20418e-07
-1.04189e-07
-2.87666e-08
1.39697e-07
-1.07991e-07
4.13496e-07
-2.30677e-07
6.70747e-07
-3.89916e-07
9.03201e-07
-5.78911e-07
1.1049e-06
-7.91003e-07
1.27159e-06
-1.01973e-06
1.40058e-06
-1.25886e-06
1.49054e-06
-1.50248e-06
1.54134e-06
-1.74501e-06
1.5538e-06
-1.98126e-06
1.52951e-06
-2.20648e-06
1.47066e-06
-2.41636e-06
1.3799e-06
-2.60704e-06
1.26021e-06
-2.77514e-06
1.11483e-06
-2.91774e-06
9.47189e-07
-3.03241e-06
7.60839e-07
-3.11719e-06
5.59463e-07
-3.17057e-06
3.46851e-07
-3.19155e-06
1.26895e-07
-3.17962e-06
-9.64029e-08
-3.13475e-06
-3.18929e-07
-3.05748e-06
-5.36462e-07
-2.94885e-06
-7.44686e-07
-2.8105e-06
-9.39214e-07
-2.64466e-06
-1.11564e-06
-2.45417e-06
-1.26959e-06
-2.24249e-06
-1.39683e-06
-2.0137e-06
-1.49337e-06
-1.77248e-06
-1.55561e-06
-1.52407e-06
-1.58049e-06
-1.27422e-06
-1.56569e-06
-1.02911e-06
-1.50981e-06
-7.95222e-07
-1.41258e-06
-5.79236e-07
-1.27506e-06
-3.87906e-07
-1.0998e-06
-2.27926e-07
-8.9102e-07
-1.05819e-07
-6.54658e-07
-2.78575e-08
-3.98379e-07
-1.32047e-07
-3.1658e-08
1.71356e-07
-1.18727e-07
5.00565e-07
-2.53284e-07
8.05305e-07
-4.27482e-07
1.0774e-06
-6.33623e-07
1.31104e-06
-8.64237e-07
1.50221e-06
-1.11214e-06
1.64849e-06
-1.37052e-06
1.74892e-06
-1.63295e-06
1.80377e-06
-1.89347e-06
1.81433e-06
-2.14662e-06
1.78265e-06
-2.38742e-06
1.71145e-06
-2.61141e-06
1.60389e-06
-2.81464e-06
1.46345e-06
-2.99369e-06
1.29388e-06
-3.14559e-06
1.09909e-06
-3.26789e-06
8.83141e-07
-3.35861e-06
6.50176e-07
-3.41621e-06
4.04455e-07
-3.43966e-06
1.50343e-07
-3.42838e-06
-1.07681e-07
-3.3823e-06
-3.65011e-07
-3.30185e-06
-6.16908e-07
-3.18803e-06
-8.58513e-07
-3.04238e-06
-1.08486e-06
-2.86708e-06
-1.29094e-06
-2.66495e-06
-1.47172e-06
-2.43947e-06
-1.62231e-06
-2.19481e-06
-1.73803e-06
-1.93584e-06
-1.81458e-06
-1.66807e-06
-1.84826e-06
-1.39764e-06
-1.83611e-06
-1.13125e-06
-1.7762e-06
-8.76023e-07
-1.66781e-06
-6.39401e-07
-1.51168e-06
-4.29011e-07
-1.31019e-06
-2.52499e-07
-1.06753e-06
-1.17385e-07
-7.89771e-07
-3.09304e-08
-4.84834e-07
-1.62977e-07
-3.45796e-08
2.05935e-07
-1.29556e-07
5.95542e-07
-2.76061e-07
9.51809e-07
-4.65282e-07
1.26662e-06
-6.88604e-07
1.53437e-06
-9.37715e-07
1.75132e-06
-1.2047e-06
1.91547e-06
-1.48212e-06
2.02634e-06
-1.76307e-06
2.08472e-06
-2.0412e-06
2.09246e-06
-2.31077e-06
2.05222e-06
-2.56663e-06
1.96731e-06
-2.80419e-06
1.84145e-06
-3.01946e-06
1.67872e-06
-3.20899e-06
1.4834e-06
-3.36982e-06
1.25992e-06
-3.4995e-06
1.01282e-06
-3.59605e-06
7.46725e-07
-3.65794e-06
4.66345e-07
-3.68409e-06
1.76494e-07
-3.67388e-06
-1.17892e-07
-3.62715e-06
-4.1174e-07
-3.54424e-06
-6.99817e-07
-3.42602e-06
-9.76732e-07
-3.27393e-06
-1.23695e-06
-3.09005e-06
-1.47482e-06
-2.8771e-06
-1.68467e-06
-2.63855e-06
-1.86086e-06
-2.37862e-06
-1.99796e-06
-2.1023e-06
-2.0909e-06
-1.81537e-06
-2.13519e-06
-1.52435e-06
-2.12713e-06
-1.23646e-06
-2.06409e-06
-9.59492e-07
-1.94477e-06
-7.01715e-07
-1.76946e-06
-4.71682e-07
-1.54022e-06
-2.78061e-07
-1.26115e-06
-1.29442e-07
-9.38391e-07
-3.41429e-08
-5.80133e-07
-1.9712e-07
-3.75665e-08
2.43502e-07
-1.40591e-07
6.98566e-07
-2.9921e-07
1.11043e-06
-5.03603e-07
1.47101e-06
-7.44194e-07
1.77496e-06
-1.01179e-06
2.01892e-06
-1.29773e-06
2.20141e-06
-1.59393e-06
2.32254e-06
-1.89299e-06
2.38378e-06
-2.1882e-06
2.38767e-06
-2.47356e-06
2.33759e-06
-2.74377e-06
2.23751e-06
-2.99418e-06
2.09186e-06
-3.22078e-06
1.90532e-06
-3.42014e-06
1.68276e-06
-3.58936e-06
1.42914e-06
-3.72604e-06
1.1495e-06
-3.82823e-06
8.48912e-07
-3.89441e-06
5.32526e-07
-3.92349e-06
2.05573e-07
-3.91478e-06
-1.26596e-07
-3.86805e-06
-4.58473e-07
-3.7835e-06
-7.84367e-07
-3.66185e-06
-1.09838e-06
-3.50438e-06
-1.39442e-06
-3.31299e-06
-1.66621e-06
-3.09029e-06
-1.90737e-06
-2.83964e-06
-2.11151e-06
-2.56525e-06
-2.27235e-06
-2.2722e-06
-2.38396e-06
-1.96647e-06
-2.44092e-06
-1.65496e-06
-2.43864e-06
-1.3454e-06
-2.37365e-06
-1.0463e-06
-2.24387e-06
-7.66784e-07
-2.04897e-06
-5.16407e-07
-1.7906e-06
-3.04951e-07
-1.47261e-06
-1.42173e-07
-1.10117e-06
-3.75515e-08
-6.84754e-07
-2.34672e-07
-4.06508e-08
2.84153e-07
-1.51935e-07
8.09851e-07
-3.22918e-07
1.28141e-06
-5.42702e-07
1.6908e-06
-8.00687e-07
2.03294e-06
-1.08676e-06
2.30499e-06
-1.39145e-06
2.5061e-06
-1.70604e-06
2.63713e-06
-2.02264e-06
2.70037e-06
-2.33418e-06
2.69921e-06
-2.63446e-06
2.63786e-06
-2.91806e-06
2.52111e-06
-3.18032e-06
2.35413e-06
-3.41728e-06
2.14228e-06
-3.62559e-06
1.89107e-06
-3.80245e-06
1.606e-06
-3.94555e-06
1.2926e-06
-4.05303e-06
9.56392e-07
-4.12342e-06
6.0291e-07
-4.15561e-06
2.37762e-07
-4.14887e-06
-1.33333e-07
-4.10286e-06
-5.04488e-07
-4.01763e-06
-8.69598e-07
-3.8937e-06
-1.2223e-06
-3.73215e-06
-1.55597e-06
-3.53463e-06
-1.86372e-06
-3.30355e-06
-2.13846e-06
-3.04209e-06
-2.37296e-06
-2.75437e-06
-2.56007e-06
-2.44549e-06
-2.69284e-06
-2.12158e-06
-2.76482e-06
-1.78987e-06
-2.77035e-06
-1.45861e-06
-2.70491e-06
-1.13702e-06
-2.56546e-06
-8.35151e-07
-2.35085e-06
-5.63639e-07
-2.06211e-06
-3.33488e-07
-1.70276e-06
-1.55751e-07
-1.27891e-06
-4.12096e-08
-7.99296e-07
-2.75882e-07
-4.3863e-08
3.28016e-07
-1.63687e-07
9.29675e-07
-3.47362e-07
1.46509e-06
-5.82815e-07
1.92625e-06
-8.58336e-07
2.30846e-06
-1.16282e-06
2.60948e-06
-1.48597e-06
2.82925e-06
-1.8184e-06
2.96956e-06
-2.15173e-06
3.0337e-06
-2.47858e-06
3.02606e-06
-2.79257e-06
2.95186e-06
-3.08825e-06
2.81679e-06
-3.36101e-06
2.62689e-06
-3.60701e-06
2.38828e-06
-3.82304e-06
2.1071e-06
-4.00648e-06
1.78945e-06
-4.1552e-06
1.44131e-06
-4.26743e-06
1.06863e-06
-4.34179e-06
6.77273e-07
-4.37721e-06
2.73179e-07
-4.3729e-06
-1.37638e-07
-4.32841e-06
-5.48979e-07
-4.24362e-06
-9.54393e-07
-4.1188e-06
-1.34711e-06
-3.95475e-06
-1.72003e-06
-3.75283e-06
-2.06564e-06
-3.51513e-06
-2.37616e-06
-3.24458e-06
-2.64352e-06
-2.94508e-06
-2.85957e-06
-2.62167e-06
-3.01626e-06
-2.28055e-06
-3.10594e-06
-1.92922e-06
-3.12168e-06
-1.57642e-06
-3.0577e-06
-1.23211e-06
-2.90977e-06
-9.07289e-07
-2.67567e-06
-6.13793e-07
-2.35561e-06
-3.63975e-07
-1.95258e-06
-1.70344e-07
-1.47254e-06
-4.51694e-08
-9.2447e-07
-3.21051e-07
-4.72348e-08
3.75251e-07
-1.75949e-07
1.05839e-06
-3.72721e-07
1.66186e-06
-6.2417e-07
2.1777e-06
-9.17367e-07
2.60166e-06
-1.24014e-06
2.93225e-06
-1.58129e-06
3.1704e-06
-1.93076e-06
3.31903e-06
-2.2797e-06
3.38264e-06
-2.62046e-06
3.36683e-06
-2.94656e-06
3.27795e-06
-3.25256e-06
3.1228e-06
-3.53402e-06
2.90834e-06
-3.78728e-06
2.64154e-06
-4.0094e-06
2.32922e-06
-4.19801e-06
1.97806e-06
-4.35119e-06
1.59449e-06
-4.46737e-06
1.18481e-06
-4.54531e-06
7.5521e-07
-4.58397e-06
3.11839e-07
-4.58255e-06
-1.3906e-07
-4.54046e-06
-5.91066e-07
-4.45739e-06
-1.03747e-06
-4.33334e-06
-1.47117e-06
-4.16873e-06
-1.88463e-06
-3.96454e-06
-2.26983e-06
-3.72245e-06
-2.61824e-06
-3.44502e-06
-2.92096e-06
-3.13582e-06
-3.16876e-06
-2.79969e-06
-3.35239e-06
-2.4428e-06
-3.46283e-06
-2.07282e-06
-3.49166e-06
-1.69896e-06
-3.43157e-06
-1.33187e-06
-3.27685e-06
-9.83595e-07
-3.02394e-06
-6.6725e-07
-2.67195e-06
-3.96702e-07
-2.22313e-06
-1.86119e-07
-1.68312e-06
-4.94836e-08
-1.06111e-06
-3.70535e-07
-5.08018e-08
4.26053e-07
-1.88834e-07
1.19642e-06
-3.99187e-07
1.87221e-06
-6.67006e-07
2.44552e-06
-9.77997e-07
2.91265e-06
-1.31881e-06
3.27306e-06
-1.67729e-06
3.52888e-06
-2.0427e-06
3.68445e-06
-2.40574e-06
3.74568e-06
-2.75855e-06
3.71963e-06
-3.0946e-06
3.61401e-06
-3.40864e-06
3.43683e-06
-3.69643e-06
3.19613e-06
-3.95465e-06
2.89976e-06
-4.18072e-06
2.55529e-06
-4.37261e-06
2.16994e-06
-4.52871e-06
1.7506e-06
-4.64774e-06
1.30384e-06
-4.72862e-06
8.36083e-07
-4.7704e-06
3.53623e-07
-4.77228e-06
-1.37183e-07
-4.73355e-06
-6.29795e-07
-4.65366e-06
-1.11735e-06
-4.53229e-06
-1.59254e-06
-4.36944e-06
-2.04748e-06
-4.16561e-06
-2.47366e-06
-3.92194e-06
-2.86192e-06
-3.64045e-06
-3.20244e-06
-3.32428e-06
-3.48493e-06
-2.97788e-06
-3.6988e-06
-2.60725e-06
-3.83345e-06
-2.22014e-06
-3.87878e-06
-1.82608e-06
-3.82563e-06
-1.43647e-06
-3.66647e-06
-1.06439e-06
-3.39603e-06
-7.2436e-07
-3.01198e-06
-4.31955e-07
-2.51553e-06
-2.03245e-07
-1.91183e-06
-5.42075e-08
-1.21014e-06
-4.24742e-07
-5.46075e-08
4.8066e-07
-2.02478e-07
1.34429e-06
-4.26992e-07
2.09672e-06
-7.11598e-07
2.73013e-06
-1.04046e-06
3.24151e-06
-1.3989e-06
3.6315e-06
-1.77378e-06
3.90376e-06
-2.15362e-06
4.06429e-06
-2.52874e-06
4.12079e-06
-2.89113e-06
4.08202e-06
-3.23437e-06
3.95726e-06
-3.55346e-06
3.75592e-06
-3.84455e-06
3.48723e-06
-4.1048e-06
3.16e-06
-4.33207e-06
2.78257e-06
-4.52481e-06
2.36269e-06
-4.68184e-06
1.90763e-06
-4.80221e-06
1.42422e-06
-4.8851e-06
9.18967e-07
-4.9297e-06
3.98227e-07
-4.93522e-06
-1.31658e-07
-4.90085e-06
-6.64165e-07
-4.82579e-06
-1.19241e-06
-4.70934e-06
-1.70899e-06
-4.55101e-06
-2.20582e-06
-4.35069e-06
-2.67398e-06
-4.10887e-06
-3.10373e-06
-3.8269e-06
-3.48441e-06
-3.50724e-06
-3.80459e-06
-3.15381e-06
-4.05223e-06
-2.77224e-06
-4.21502e-06
-2.37016e-06
-4.28086e-06
-1.95736e-06
-4.23842e-06
-1.54588e-06
-4.07795e-06
-1.14989e-06
-3.79202e-06
-7.85449e-07
-3.37642e-06
-4.70028e-07
-2.83095e-06
-2.21904e-07
-2.15995e-06
-5.9402e-08
-1.37265e-06
-4.84144e-07
-5.87083e-08
5.39369e-07
-2.17056e-07
1.50264e-06
-4.56423e-07
2.33609e-06
-7.5828e-07
3.03198e-06
-1.10501e-06
3.58823e-06
-1.48047e-06
4.00697e-06
-1.87042e-06
4.29371e-06
-2.26268e-06
4.45656e-06
-2.64722e-06
4.50533e-06
-3.01602e-06
4.45081e-06
-3.3629e-06
4.30414e-06
-3.68327e-06
4.07629e-06
-3.97386e-06
3.77781e-06
-4.2324e-06
3.41855e-06
-4.45743e-06
3.00759e-06
-4.64797e-06
2.55323e-06
-4.80338e-06
2.06304e-06
-4.92315e-06
1.54399e-06
-5.00678e-06
1.0026e-06
-5.05368e-06
4.45123e-07
-5.06309e-06
-1.22243e-07
-5.03411e-06
-6.93145e-07
-4.96569e-06
-1.26084e-06
-4.85669e-06
-1.81799e-06
-4.70607e-06
-2.35643e-06
-4.51302e-06
-2.86703e-06
-4.27723e-06
-3.33953e-06
-3.99916e-06
-3.76248e-06
-3.68042e-06
-4.12332e-06
-3.32415e-06
-4.40851e-06
-2.93536e-06
-4.60381e-06
-2.52136e-06
-4.69485e-06
-2.09201e-06
-4.66777e-06
-1.65989e-06
-4.51007e-06
-1.24026e-06
-4.21165e-06
-8.50824e-07
-3.76585e-06
-5.11228e-07
-3.17055e-06
-2.42298e-07
-2.42888e-06
-6.51369e-08
-1.54981e-06
-5.49281e-07
-6.31797e-08
6.02548e-07
-2.328e-07
1.67226e-06
-4.87858e-07
2.59115e-06
-8.07485e-07
3.35161e-06
-1.17199e-06
3.95274e-06
-1.56357e-06
4.39855e-06
-1.96679e-06
4.69693e-06
-2.3688e-06
4.85857e-06
-2.75932e-06
4.89585e-06
-3.13047e-06
4.82196e-06
-3.4765e-06
4.65016e-06
-3.79344e-06
4.39324e-06
-4.07878e-06
4.06315e-06
-4.33106e-06
3.67083e-06
-4.5496e-06
3.22613e-06
-4.73418e-06
2.7378e-06
-4.8848e-06
2.21366e-06
-5.00152e-06
1.6607e-06
-5.08423e-06
1.08531e-06
-5.13262e-06
4.93508e-07
-5.14602e-06
-1.08838e-07
-5.12346e-06
-7.1571e-07
-5.06361e-06
-1.32069e-06
-4.96491e-06
-1.91669e-06
-4.82568e-06
-2.49567e-06
-4.64429e-06
-3.04842e-06
-4.41948e-06
-3.56433e-06
-4.15066e-06
-4.03131e-06
-3.83831e-06
-4.43567e-06
-3.4845e-06
-4.76231e-06
-3.09336e-06
-4.99495e-06
-2.67157e-06
-5.11665e-06
-2.2288e-06
-5.11054e-06
-1.77801e-06
-4.96086e-06
-1.33552e-06
-4.65414e-06
-9.20788e-07
-4.18058e-06
-5.55898e-07
-3.53544e-06
-2.64662e-07
-2.72012e-06
-7.14964e-08
-1.74297e-06
-6.20778e-07
-6.81249e-08
6.70673e-07
-2.50021e-07
1.85416e-06
-5.21801e-07
2.86293e-06
-8.59779e-07
3.68959e-06
-1.24181e-06
4.33477e-06
-1.64822e-06
4.80495e-06
-2.0623e-06
5.11101e-06
-2.47057e-06
5.26684e-06
-2.86265e-06
5.28793e-06
-3.23102e-06
5.19033e-06
-3.5706e-06
4.98974e-06
-3.87831e-06
4.70095e-06
-4.15262e-06
4.33745e-06
-4.39308e-06
3.9113e-06
-4.6e-06
3.43305e-06
-4.77406e-06
2.91187e-06
-4.91608e-06
2.35567e-06
-5.02673e-06
1.77135e-06
-5.10643e-06
1.16502e-06
-5.15519e-06
5.42261e-07
-5.17249e-06
-9.15316e-08
-5.15732e-06
-7.30883e-07
-5.1081e-06
-1.36991e-06
-5.02282e-06
-2.00197e-06
-4.8991e-06
-2.61939e-06
-4.73442e-06
-3.2131e-06
-4.5264e-06
-3.77235e-06
-4.27319e-06
-4.28452e-06
-3.97389e-06
-4.73497e-06
-3.62919e-06
-5.10701e-06
-3.24193e-06
-5.38221e-06
-2.8178e-06
-5.54077e-06
-2.36595e-06
-5.56239e-06
-1.89946e-06
-5.42735e-06
-1.43559e-06
-5.11802e-06
-9.9564e-07
-4.62053e-06
-6.04437e-07
-3.92664e-06
-2.89287e-07
-3.03527e-06
-7.85854e-08
-1.95367e-06
-6.99363e-07
-7.36874e-08
7.4436e-07
-2.69146e-07
2.04962e-06
-5.58931e-07
3.15271e-06
-9.15905e-07
4.04656e-06
-1.31502e-06
4.73388e-06
-1.73443e-06
5.22436e-06
-2.15614e-06
5.53272e-06
-2.56612e-06
5.67682e-06
-2.95415e-06
5.67596e-06
-3.31332e-06
5.54951e-06
-3.63956e-06
5.31598e-06
-3.93097e-06
4.99236e-06
-4.18727e-06
4.59375e-06
-4.4093e-06
4.13332e-06
-4.59852e-06
3.62228e-06
-4.75671e-06
3.07005e-06
-4.88557e-06
2.48454e-06
-4.98657e-06
1.87235e-06
-5.06069e-06
1.23914e-06
-5.10834e-06
5.8991e-07
-5.12923e-06
-7.06432e-08
-5.12232e-06
-7.37787e-07
-5.08585e-06
-1.40638e-06
-5.01732e-06
-2.07051e-06
-4.91364e-06
-2.72306e-06
-4.77134e-06
-3.3554e-06
-4.5868e-06
-3.95689e-06
-4.35667e-06
-4.51465e-06
-4.07842e-06
-5.01322e-06
-3.75096e-06
-5.43448e-06
-3.37543e-06
-5.75774e-06
-2.95605e-06
-5.96015e-06
-2.50099e-06
-6.01745e-06
-2.02305e-06
-5.90528e-06
-1.54023e-06
-5.60084e-06
-1.0757e-06
-5.08506e-06
-6.57325e-07
-4.34501e-06
-3.16536e-07
-3.37606e-06
-8.65403e-08
-2.18367e-06
-7.85903e-07
-8.00673e-08
8.24428e-07
-2.90764e-07
2.26031e-06
-6.00157e-07
3.46211e-06
-9.76831e-07
4.42324e-06
-1.39224e-06
5.14929e-06
-1.82212e-06
5.65424e-06
-2.24715e-06
5.95775e-06
-2.65296e-06
6.08264e-06
-3.02981e-06
6.0528e-06
-3.37182e-06
5.89153e-06
-3.67631e-06
5.62047e-06
-3.94293e-06
5.25898e-06
-4.17299e-06
4.82381e-06
-4.36883e-06
4.32917e-06
-4.53332e-06
3.78677e-06
-4.66943e-06
3.20616e-06
-4.77992e-06
2.59502e-06
-4.86708e-06
1.95952e-06
-4.93258e-06
1.30464e-06
-4.97729e-06
6.34613e-07
-5.00117e-06
-4.67607e-08
-5.00326e-06
-7.35698e-07
-4.9816e-06
-1.42804e-06
-4.93329e-06
-2.11881e-06
-4.85455e-06
-2.80181e-06
-4.74087e-06
-3.46908e-06
-4.5873e-06
-4.11046e-06
-4.38886e-06
-4.71309e-06
-4.14105e-06
-5.26102e-06
-3.84065e-06
-5.73488e-06
-3.48658e-06
-6.11181e-06
-3.08101e-06
-6.36571e-06
-2.6305e-06
-6.46797e-06
-2.14705e-06
-6.38873e-06
-1.64899e-06
-6.0989e-06
-1.16128e-06
-5.57277e-06
-7.15163e-07
-4.79113e-06
-3.46886e-07
-3.74433e-06
-9.55437e-08
-2.43501e-06
-8.81447e-07
-8.7546e-08
9.11974e-07
-3.15677e-07
2.48844e-06
-6.46692e-07
3.79312e-06
-1.04379e-06
4.82033e-06
-1.47421e-06
5.57972e-06
-1.911e-06
6.09103e-06
-2.33357e-06
6.38032e-06
-2.72762e-06
6.47668e-06
-3.08431e-06
6.40949e-06
-3.39938e-06
6.20659e-06
-3.67199e-06
5.89308e-06
-3.90379e-06
5.49078e-06
-4.09802e-06
5.01805e-06
-4.2588e-06
4.48994e-06
-4.39056e-06
3.91853e-06
-4.49762e-06
3.31322e-06
-4.58387e-06
2.68127e-06
-4.65252e-06
2.02816e-06
-4.70593e-06
1.35805e-06
-4.74548e-06
6.74164e-07
-4.77147e-06
-2.0766e-08
-4.78306e-06
-7.24112e-07
-4.77818e-06
-1.43291e-06
-4.75359e-06
-2.14341e-06
-4.70483e-06
-2.85056e-06
-4.62644e-06
-3.54747e-06
-4.51208e-06
-4.22481e-06
-4.35499e-06
-4.87018e-06
-4.14849e-06
-5.46753e-06
-3.88678e-06
-5.99659e-06
-3.56604e-06
-6.43255e-06
-3.18567e-06
-6.74608e-06
-2.74983e-06
-6.90381e-06
-2.26896e-06
-6.86961e-06
-1.76109e-06
-6.60677e-06
-1.25273e-06
-6.08113e-06
-7.78719e-07
-5.26514e-06
-3.80979e-07
-4.14208e-06
-1.05847e-07
-2.71014e-06
-9.87294e-07
-9.65233e-08
1.0085e-06
-3.44998e-07
2.73692e-06
-7.00143e-07
4.14827e-06
-1.11829e-06
5.23848e-06
-1.56165e-06
6.02307e-06
-2.0003e-06
6.52967e-06
-2.41271e-06
6.79274e-06
-2.78516e-06
6.84913e-06
-3.11048e-06
6.73481e-06
-3.38664e-06
6.48276e-06
-3.61533e-06
6.12177e-06
-3.80065e-06
5.6761e-06
-3.94814e-06
5.16553e-06
-4.06392e-06
4.60572e-06
-4.15414e-06
4.00875e-06
-4.22457e-06
3.38364e-06
-4.28023e-06
2.73694e-06
-4.32527e-06
2.0732e-06
-4.36277e-06
1.39555e-06
-4.39465e-06
7.06045e-07
-4.42158e-06
6.16092e-09
-4.44289e-06
-7.02803e-07
-4.45652e-06
-1.41928e-06
-4.45897e-06
-2.14097e-06
-4.44526e-06
-2.86427e-06
-4.40904e-06
-3.5837e-06
-4.34264e-06
-4.29121e-06
-4.23748e-06
-4.97535e-06
-4.08449e-06
-5.62052e-06
-3.87499e-06
-6.20609e-06
-3.6018e-06
-6.70575e-06
-3.26075e-06
-7.08713e-06
-2.85261e-06
-7.31194e-06
-2.38517e-06
-7.33705e-06
-1.87526e-06
-7.11668e-06
-1.35035e-06
-6.60605e-06
-8.48983e-07
-5.7665e-06
-4.19691e-07
-4.57137e-06
-1.17803e-07
-3.01203e-06
-1.1051e-06
-1.07574e-07
1.11607e-06
-3.8026e-07
3.0096e-06
-7.62608e-07
4.53062e-06
-1.20214e-06
5.67801e-06
-1.65502e-06
6.47595e-06
-2.08837e-06
6.96302e-06
-2.48025e-06
7.18462e-06
-2.81844e-06
7.18731e-06
-3.0984e-06
7.01478e-06
-3.32127e-06
6.70563e-06
-3.49194e-06
6.29243e-06
-3.6175e-06
5.80166e-06
-3.70611e-06
5.25414e-06
-3.76611e-06
4.66572e-06
-3.80543e-06
4.04808e-06
-3.83126e-06
3.40947e-06
-3.84975e-06
2.75543e-06
-3.86592e-06
2.08937e-06
-3.88353e-06
1.41315e-06
-3.905e-06
7.27523e-07
-3.93141e-06
3.25666e-08
-3.96233e-06
-6.71878e-07
-3.99582e-06
-1.38579e-06
-4.02828e-06
-2.10851e-06
-4.05439e-06
-2.83815e-06
-4.06709e-06
-3.571e-06
-4.05757e-06
-4.30072e-06
-4.0155e-06
-5.01742e-06
-3.9294e-06
-5.70661e-06
-3.78742e-06
-6.34807e-06
-3.57846e-06
-6.91471e-06
-3.29394e-06
-7.37165e-06
-2.93003e-06
-7.67585e-06
-2.49044e-06
-7.77664e-06
-1.9894e-06
-7.61771e-06
-1.45432e-06
-7.14114e-06
-9.27229e-07
-6.29359e-06
-4.64243e-07
-5.03435e-06
-1.31928e-07
-3.34435e-06
-1.23702e-06
-1.21539e-07
1.23761e-06
-4.23591e-07
3.31166e-06
-8.36787e-07
4.94381e-06
-1.29725e-06
6.13848e-06
-1.75415e-06
6.93285e-06
-2.1719e-06
7.38077e-06
-2.52928e-06
7.54201e-06
-2.81693e-06
7.47496e-06
-3.0343e-06
7.23215e-06
-3.18677e-06
6.8581e-06
-3.28324e-06
6.38891e-06
-3.33432e-06
5.85275e-06
-3.35105e-06
5.27086e-06
-3.34403e-06
4.6587e-06
-3.32294e-06
4.02699e-06
-3.29627e-06
3.3828e-06
-3.27116e-06
2.73031e-06
-3.25333e-06
2.07155e-06
-3.24712e-06
1.40694e-06
-3.25541e-06
7.35814e-07
-3.27964e-06
5.67909e-08
-3.3197e-06
-6.31819e-07
-3.37387e-06
-1.33162e-06
-3.43867e-06
-2.04371e-06
-3.5087e-06
-2.76812e-06
-3.57651e-06
-3.5032e-06
-3.63244e-06
-4.24479e-06
-3.6647e-06
-4.98516e-06
-3.65955e-06
-5.71176e-06
-3.60187e-06
-6.40575e-06
-3.47627e-06
-7.04031e-06
-3.26885e-06
-7.57907e-06
-2.96982e-06
-7.97488e-06
-2.57701e-06
-8.16945e-06
-2.10003e-06
-8.09469e-06
-1.56446e-06
-7.67671e-06
-1.01506e-06
-6.84299e-06
-5.16352e-07
-5.53306e-06
-1.48983e-07
-3.71172e-06
-1.38601e-06
-1.3968e-07
1.37729e-06
-4.77963e-07
3.64994e-06
-9.26048e-07
5.3919e-06
-1.40537e-06
6.6178e-06
-1.85732e-06
7.3848e-06
-2.24465e-06
7.7681e-06
-2.54871e-06
7.84607e-06
-2.76504e-06
7.69129e-06
-2.89882e-06
7.36593e-06
-2.96099e-06
6.92026e-06
-2.96526e-06
6.39318e-06
-2.92616e-06
5.81364e-06
-2.85767e-06
5.20238e-06
-2.77258e-06
4.57361e-06
-2.68208e-06
3.9365e-06
-2.59569e-06
3.29641e-06
-2.52121e-06
2.65584e-06
-2.46487e-06
2.01521e-06
-2.43135e-06
1.37342e-06
-2.42386e-06
7.28324e-07
-2.44415e-06
7.70824e-08
-2.49248e-06
-5.83494e-07
-2.56748e-06
-1.25662e-06
-2.66603e-06
-1.94516e-06
-2.78297e-06
-2.65118e-06
-2.91088e-06
-3.37529e-06
-3.03977e-06
-4.1159e-06
-3.15689e-06
-4.86804e-06
-3.24665e-06
-5.622e-06
-3.29092e-06
-6.36148e-06
-3.26984e-06
-7.06139e-06
-3.16349e-06
-7.68542e-06
-2.95471e-06
-8.18366e-06
-2.63324e-06
-8.49091e-06
-2.20128e-06
-8.52666e-06
-1.67979e-06
-8.19819e-06
-1.11441e-06
-7.40837e-06
-5.78456e-07
-6.06902e-06
-1.70136e-07
-4.12004e-06
-1.55614e-06
-1.63937e-07
1.54123e-06
-5.47526e-07
4.03353e-06
-1.03437e-06
5.87875e-06
-1.52725e-06
7.11068e-06
-1.95975e-06
7.8173e-06
-2.29524e-06
8.10359e-06
-2.52075e-06
8.07157e-06
-2.63957e-06
7.81011e-06
-2.66477e-06
7.39114e-06
-2.61419e-06
6.86969e-06
-2.50706e-06
6.28604e-06
-2.36191e-06
5.66849e-06
-2.19554e-06
5.03601e-06
-2.0225e-06
4.40056e-06