1.45 	0 	0 	-0.00327491 	-0.00294266 	3.96524e-21
2.35 	0 	0 	0.0775901 	-0.00716738 	2.39288e-21
