1.45 	0 	0 	-0.00790151 	-0.00258037 	3.80577e-21
2.35 	0 	0 	0.0618001 	-0.00664653 	2.3182e-21
