1.45 	0 	0 	-0.00611498 	-0.00270514 	3.91992e-21
2.35 	0 	0 	0.0672702 	-0.00680296 	2.44187e-21
