1.275 	2.15223e-18 	-2.76991e-20 	0.0031615 	-0.00384045 	-1.89464e-22
1.825 	2.15223e-18 	-1.39322e-20 	0.167454 	-0.00817969 	8.44905e-22
2.375 	2.15223e-18 	-2.66896e-23 	0.449845 	-0.00816201 	-2.57114e-22
