/*--------------------------------*- C++ -*----------------------------------*\
  =========                 |
  \\      /  F ield         | OpenFOAM: The Open Source CFD Toolbox
   \\    /   O peration     | Website:  https://openfoam.org
    \\  /    A nd           | Version:  6.0
     \\/     M anipulation  |
\*---------------------------------------------------------------------------*/
FoamFile
{
    version     2.0;
    format      ascii;
    class       volVectorField;
    location    "11";
    object      U;
}
// * * * * * * * * * * * * * * * * * * * * * * * * * * * * * * * * * * * * * //

dimensions      [0 1 -1 0 0 0 0];

internalField   nonuniform List<vector> 
8000
(
(-0.000400274 0.000445539 -1.42943e-21)
(-0.00210471 0.00107226 8.32949e-21)
(-0.00515724 0.00148037 -1.03869e-20)
(-0.00878882 0.00172182 8.07431e-21)
(-0.0126014 0.00183429 4.00693e-21)
(-0.016368 0.00184703 -1.22262e-20)
(-0.0199258 0.00178389 -1.09203e-21)
(-0.023167 0.00166435 -3.82774e-22)
(-0.0260279 0.00150441 -6.5569e-21)
(-0.0284769 0.00131744 -3.57113e-21)
(-0.0305064 0.00111472 2.71521e-21)
(-0.0321261 0.000905871 1.02916e-20)
(-0.0333592 0.000699161 -8.1494e-22)
(-0.0342383 0.000501671 1.08573e-21)
(-0.034803 0.000319432 -1.05073e-20)
(-0.0350983 0.000157476 6.49586e-21)
(-0.0351721 1.98614e-05 -9.2894e-21)
(-0.0350659 -9.01394e-05 1.41297e-20)
(-0.0348115 -0.000169731 -1.61853e-23)
(-0.0345155 -0.000218114 3.52585e-21)
(-0.000467999 0.00132918 4.74349e-21)
(-0.00225721 0.00319693 -2.64786e-20)
(-0.00534431 0.00441156 -1.87739e-20)
(-0.00897206 0.00512846 -1.30208e-20)
(-0.0127503 0.0054603 -1.70547e-20)
(-0.0164578 0.00549449 3.80063e-21)
(-0.0199366 0.00530225 -2.02381e-20)
(-0.0230828 0.00494166 -4.56725e-21)
(-0.0258354 0.00446048 1.52464e-21)
(-0.0281652 0.00389856 1.56053e-20)
(-0.0300661 0.00328957 -1.71133e-20)
(-0.0315494 0.00266229 2.39673e-20)
(-0.0326392 0.00204143 -1.80339e-20)
(-0.0333692 0.00144824 -2.14389e-20)
(-0.03378 0.000900849 -2.95368e-20)
(-0.0339174 0.000414436 1.91298e-20)
(-0.0338305 1.26878e-06 -6.06998e-21)
(-0.0335615 -0.000328703 -2.23303e-20)
(-0.0331423 -0.000566926 2.1241e-20)
(-0.0326834 -0.000711074 -1.82972e-20)
(-0.000602016 0.00219585 4.63868e-20)
(-0.00255796 0.00527572 2.64163e-20)
(-0.00571153 0.00727436 3.03699e-20)
(-0.00932915 0.00844957 2.59447e-21)
(-0.0130365 0.00898812 1.74409e-20)
(-0.0166241 0.00903475 2.19887e-20)
(-0.0199437 0.0087071 -4.07644e-20)
(-0.0228988 0.00810104 -2.17279e-20)
(-0.0254343 0.00729534 -2.85814e-20)
(-0.0275254 0.00635573 3.07824e-20)
(-0.0291694 0.00533782 -2.36965e-20)
(-0.0303801 0.00428923 -3.06412e-20)
(-0.0311839 0.003251 -1.12568e-20)
(-0.0316164 0.00225858 1.07362e-20)
(-0.0317199 0.00134237 -2.84303e-21)
(-0.0315424 0.000527955 4.41838e-21)
(-0.031135 -0.00016386 4.98612e-20)
(-0.0305412 -0.000716004 -7.25463e-21)
(-0.0297934 -0.0011136 -5.08622e-20)
(-0.0290099 -0.00135303 7.77411e-20)
(-0.000799494 0.00303428 1.63237e-20)
(-0.00299852 0.00727824 -2.49223e-20)
(-0.00624503 0.0100237 -6.49119e-21)
(-0.00984131 0.0116291 1.23792e-20)
(-0.0134369 0.0123539 3.55842e-20)
(-0.0168403 0.0123986 7.90101e-20)
(-0.0199176 0.0119257 7.8213e-20)
(-0.0225837 0.0110676 6.56738e-21)
(-0.024792 0.00993276 4.89339e-20)
(-0.0265244 0.00861166 7.55237e-20)
(-0.027783 0.00718109 -6.05119e-20)
(-0.0285855 0.00570699 9.06277e-20)
(-0.0289615 0.00424649 -2.03489e-20)
(-0.0289492 0.00284927 5.36873e-21)
(-0.0285938 0.00155827 2.14599e-20)
(-0.0279458 0.000409936 2.84821e-20)
(-0.0270595 -0.000565799 -4.55301e-20)
(-0.0259806 -0.00134396 -3.78986e-20)
(-0.0247422 -0.00190237 -6.69039e-20)
(-0.0234752 -0.00223655 1.13171e-19)
(-0.00105612 0.00383326 -8.44376e-21)
(-0.00356601 0.00917438 -9.54427e-20)
(-0.00692362 0.0126152 -2.89784e-20)
(-0.0104797 0.0146124 -7.19276e-20)
(-0.0139163 0.0154959 2.77834e-20)
(-0.0170656 0.01552 -4.4225e-20)
(-0.0198133 0.0148899 1.55671e-20)
(-0.0220892 0.0137722 -9.58911e-20)
(-0.0238584 0.0123034 5.12423e-20)
(-0.0251111 0.0105971 -6.14427e-20)
(-0.025856 0.00875013 -5.49281e-20)
(-0.0261156 0.00684593 -6.18257e-20)
(-0.0259234 0.00495732 5.63251e-20)
(-0.025321 0.00314819 -5.07616e-20)
(-0.0243568 0.0014744 7.10331e-20)
(-0.0230851 -1.60933e-05 2.04214e-20)
(-0.0215641 -0.00128334 5.06251e-20)
(-0.0198423 -0.00229329 2.20476e-20)
(-0.0179542 -0.00301497 -8.84262e-20)
(-0.0160484 -0.00344372 1.66713e-19)
(-0.00136598 0.0045816 3.79188e-20)
(-0.00424277 0.0109342 2.89351e-21)
(-0.00771826 0.0150054 1.75013e-20)
(-0.0112051 0.0173467 6.20911e-20)
(-0.0144261 0.0183557 -9.39709e-21)
(-0.017244 0.0183375 1.04166e-19)
(-0.0195687 0.0175374 4.6933e-20)
(-0.0213491 0.0161534 4.07991e-21)
(-0.0225643 0.0143472 1.22599e-19)
(-0.0232151 0.012254 4.02958e-20)
(-0.0233178 0.00998861 1.93147e-20)
(-0.0229008 0.0076508 6.1631e-20)
(-0.0220019 0.00532847 5.66515e-20)
(-0.0206666 0.00309963 1.03489e-19)
(-0.018947 0.0010335 -9.32118e-20)
(-0.0169017 -0.00080957 1.31137e-19)
(-0.0145936 -0.00237842 1.04687e-21)
(-0.0120746 -0.00362821 -1.68363e-19)
(-0.00938135 -0.00451715 2.18367e-19)
(-0.00668707 -0.00504122 1.04354e-19)
(-0.00172146 0.00526802 -2.22185e-20)
(-0.00500599 0.0125281 -4.48016e-20)
(-0.00859144 0.0171518 -9.51197e-20)
(-0.0119663 0.0197814 -2.91916e-21)
(-0.0149037 0.0208783 1.70215e-20)
(-0.0173031 0.0207952 -1.27439e-19)
(-0.0191038 0.0198135 -9.56201e-20)
(-0.0202773 0.0181594 -1.39078e-20)
(-0.0208199 0.0160168 -1.23186e-19)
(-0.0207445 0.013539 -8.57496e-20)
(-0.0200765 0.0108571 -2.51752e-20)
(-0.0188503 0.00808533 -8.15145e-20)
(-0.0171088 0.00532567 -1.56182e-21)
(-0.0149012 0.00266997 -1.09033e-19)
(-0.0122834 0.000201233 4.55655e-20)
(-0.00931878 -0.00200674 -5.25375e-20)
(-0.00607566 -0.00388993 3.97688e-20)
(-0.00260996 -0.00539037 -5.18057e-20)
(0.00103881 -0.00645268 -1.46354e-19)
(0.0046648 -0.0070746 -5.15336e-20)
(-0.00211297 0.00588105 -8.70494e-21)
(-0.00582715 0.0139264 -1.03006e-20)
(-0.00949638 0.0190129 8.00929e-20)
(-0.0127002 0.0218682 -1.33329e-19)
(-0.0152714 0.0230132 1.98188e-20)
(-0.0171527 0.0228436 -7.95923e-20)
(-0.0183184 0.0216727 3.77206e-20)
(-0.0187664 0.0197504 1.71621e-19)
(-0.0185124 0.0172789 -1.15253e-20)
(-0.0175838 0.0144264 -1.30027e-19)
(-0.0160156 0.0113369 2.37032e-20)
(-0.0138493 0.00813697 4.85787e-21)
(-0.011132 0.00494095 -2.65737e-20)
(-0.00791688 0.00185391 3.37113e-21)
(-0.00426344 -0.00102707 2.38072e-19)
(-0.000239442 -0.00361349 -3.44181e-20)
(0.00408078 -0.00582642 -6.63046e-20)
(0.00863701 -0.00759163 -1.18321e-19)
(0.0133854 -0.00883642 1.21613e-19)
(0.0180781 -0.00956149 6.06767e-20)
(-0.00252871 0.00640891 4.22736e-20)
(-0.00667143 0.0150993 -6.08628e-20)
(-0.0103762 0.0205483 8.79741e-20)
(-0.0133299 0.0235618 9.06447e-20)
(-0.0154347 0.0247146 8.47104e-20)
(-0.0166837 0.0244403 1.7346e-19)
(-0.017091 0.023079 1.13184e-19)
(-0.016685 0.0208994 -2.4571e-19)
(-0.0155039 0.0181172 1.26666e-19)
(-0.0135909 0.0149111 9.98037e-20)
(-0.0109919 0.0114341 -1.78815e-21)
(-0.00775527 0.00782177 1.12617e-19)
(-0.00393266 0.00419857 8.74126e-20)
(0.000419955 0.000681432 -4.84245e-20)
(0.00524032 -0.00261855 1.61863e-19)
(0.0104566 -0.00559695 -2.01948e-19)
(0.0159886 -0.00815743 8.05849e-20)
(0.0217716 -0.0102054 1.03433e-19)
(0.0277562 -0.0116457 -2.39973e-20)
(0.033641 -0.0124834 2.41543e-19)
(-0.00295432 0.00683938 8.68141e-20)
(-0.007497 0.0160173 5.24519e-21)
(-0.0111633 0.0217188 -3.44588e-20)
(-0.0137644 0.0248197 -3.6855e-20)
(-0.0152821 0.0259415 -1.7454e-19)
(-0.0157667 0.0255504 2.57492e-20)
(-0.0152772 0.0240071 7.15008e-20)
(-0.0138767 0.0215934 -3.526e-20)
(-0.0116287 0.0185333 2.91848e-20)
(-0.00859425 0.0150106 -7.82795e-21)
(-0.00483109 0.0111823 -3.82441e-20)
(-0.000394815 0.00718884 3.67684e-20)
(0.00465923 0.00316103 -1.57351e-19)
(0.0102733 -0.000774678 1.52533e-19)
(0.0163839 -0.00449398 -1.31287e-19)
(0.0229164 -0.0078756 4.10553e-20)
(0.0297854 -0.010803 9.2214e-20)
(0.0369223 -0.0131559 -1.97087e-20)
(0.0442703 -0.01481 -6.40058e-20)
(0.0514614 -0.0157755 -5.0534e-20)
(-0.00337255 0.00715982 -1.09812e-19)
(-0.00825449 0.0166504 -7.89475e-21)
(-0.0117785 0.0224866 2.57476e-20)
(-0.0138979 0.0256023 6.69327e-20)
(-0.0146842 0.0266583 -9.59399e-20)
(-0.0142514 0.0261463 -8.45065e-20)
(-0.0127089 0.0244417 1.98503e-19)
(-0.0101584 0.0218333 -1.1168e-19)
(-0.00669176 0.0185469 -7.22282e-20)
(-0.00239024 0.0147658 -1.03707e-19)
(0.00267515 0.0106451 6.89868e-20)
(0.00844132 0.00632399 -2.48967e-21)
(0.0148498 0.0019346 -1.3012e-19)
(0.0218428 -0.00239111 -2.1124e-19)
(0.0293575 -0.00651792 1.61989e-19)
(0.037319 -0.0103077 -1.30109e-19)
(0.0456384 -0.0136209 1.85251e-19)
(0.0542445 -0.0163051 -5.25008e-20)
(0.0630723 -0.0181976 1.07234e-19)
(0.0716709 -0.0193138 -4.29798e-19)
(-0.00376294 0.00735724 -2.27364e-19)
(-0.0088865 0.0169696 1.6204e-19)
(-0.0121311 0.0228156 2.20594e-20)
(-0.01361 0.0258734 4.52197e-21)
(-0.0134942 0.0268338 -1.03684e-19)
(-0.0119673 0.0262071 1.54566e-19)
(-0.00919435 0.0243767 1.63367e-20)
(-0.00531965 0.0216318 -3.1958e-20)
(-0.000467054 0.0181944 -1.03827e-19)
(0.00525932 0.0142403 1.12841e-19)
(0.0117732 0.00991563 2.8582e-19)
(0.019003 0.00535126 -6.38302e-20)
(0.0268874 0.000673465 1.43485e-19)
(0.0353702 -0.00398687 -1.68798e-19)
(0.0443924 -0.00848832 -1.6125e-19)
(0.0538821 -0.0126779 9.78746e-20)
(0.0637505 -0.016391 1.59321e-19)
(0.0739265 -0.0194359 -5.18489e-19)
(0.0843373 -0.021599 6.22352e-20)
(0.0944306 -0.0228983 9.67279e-20)
(-0.00410159 0.00741867 1.6977e-19)
(-0.00932763 0.0169468 6.34328e-20)
(-0.0121192 0.0226725 3.22549e-19)
(-0.0127668 0.0256009 1.68927e-20)
(-0.0115492 0.0264421 -3.62603e-20)
(-0.00872528 0.0257178 -1.75411e-19)
(-0.00452003 0.0238128 1.51693e-19)
(0.000875521 0.0210112 2.73699e-19)
(0.00730182 0.0175247 1.81669e-19)
(0.0146283 0.0135152 1.32395e-19)
(0.0227505 0.00911268 1.14205e-19)
(0.031586 0.00443085 -2.05307e-19)
(0.0410701 -0.0004195 -6.33666e-20)
(0.0511492 -0.00531827 -4.71438e-20)
(0.0617715 -0.0101265 5.05379e-19)
(0.0728729 -0.0146823 -3.32537e-21)
(0.0843704 -0.0187967 -1.25038e-19)
(0.0961988 -0.0222312 -3.70773e-20)
(0.108281 -0.0247045 3.59336e-19)
(0.119941 -0.0262312 5.55144e-20)
(-0.00436121 0.00733176 -6.7001e-21)
(-0.00950492 0.0165563 -1.75695e-19)
(-0.0116313 0.0220277 -2.65813e-19)
(-0.0112231 0.0247568 -7.50723e-20)
(-0.00867364 0.0254616 4.28542e-20)
(-0.00432126 0.0246674 9.64091e-21)
(0.00154554 0.0227548 2.43729e-19)
(0.00868531 0.0199974 -3.04976e-19)
(0.0168989 0.0165921 -1.1693e-19)
(0.026025 0.0126813 -2.35053e-19)
(0.0359365 0.00837168 -1.99883e-19)
(0.0465365 0.00375061 -1.77109e-19)
(0.0577538 -0.00109826 4.47218e-20)
(0.0695369 -0.00607931 -5.77218e-20)
(0.0818439 -0.0110705 2.44961e-19)
(0.0946244 -0.0159132 -1.36123e-19)
(0.107809 -0.0204017 -4.18983e-19)
(0.12135 -0.0242453 -8.15517e-20)
(0.135174 -0.0270742 2.05751e-19)
(0.148457 -0.0288855 -2.08632e-19)
(-0.00451138 0.00708559 -2.64473e-20)
(-0.00933916 0.0157771 2.21014e-19)
(-0.0105486 0.0208577 -2.84846e-19)
(-0.00882603 0.0233196 6.63581e-20)
(-0.00468394 0.0238756 -1.37407e-19)
(0.00145777 0.0230478 3.11637e-19)
(0.00924484 0.021207 -2.23432e-19)
(0.0183827 0.0186134 2.55987e-19)
(0.0286289 0.015446 -2.45412e-19)
(0.0397869 0.0118246 1.03586e-19)
(0.051701 0.00782744 -5.15132e-20)
(0.0642535 0.00350768 -1.27916e-19)
(0.0773607 -0.00109041 -1.569e-19)
(0.0909693 -0.00591278 1.56282e-19)
(0.105047 -0.0108755 -1.30472e-19)
(0.119561 -0.0158467 -2.8216e-19)
(0.134468 -0.0206226 2.94031e-19)
(0.149755 -0.0248647 -3.72317e-19)
(0.165372 -0.0280893 1.66824e-19)
(0.180323 -0.0302519 4.23518e-21)
(-0.00451931 0.00667185 -2.60988e-19)
(-0.00874696 0.0145942 -3.03234e-19)
(-0.00874854 0.019147 3.48118e-20)
(-0.0054204 0.0212753 -2.98204e-19)
(0.000604461 0.0216732 -2.67569e-20)
(0.00882492 0.0208523 -2.22082e-19)
(0.0188208 0.0191701 -5.14891e-20)
(0.0302432 0.0168713 -1.50805e-19)
(0.0428044 0.0141175 5.18792e-22)
(0.0562681 0.0110063 -6.69214e-20)
(0.070444 0.0075873 3.27132e-21)
(0.0851847 0.00387566 -1.91308e-19)
(0.100384 -0.000132766 2.08154e-19)
(0.115978 -0.00444272 -2.97761e-19)
(0.131935 -0.0090355 1.03617e-19)
(0.148242 -0.013842 2.58496e-21)
(0.16489 -0.0187008 -1.64448e-19)
(0.181927 -0.0232519 4.03124e-19)
(0.199374 -0.0268806 -9.64462e-20)
(0.216036 -0.0294647 -7.27164e-20)
(-0.0043509 0.00608613 2.96989e-19)
(-0.00764375 0.0130022 1.72338e-19)
(-0.00610964 0.0168912 1.6093e-19)
(-0.000855364 0.0186209 2.37707e-20)
(0.00736824 0.0188513 2.23745e-19)
(0.0179819 0.0180767 3.22946e-19)
(0.0305022 0.0166378 2.66424e-19)
(0.0445277 0.0147648 2.20122e-20)
(0.0597254 0.0126047 1.94797e-19)
(0.0758174 0.0102386 3.02574e-19)
(0.0925741 0.00769385 -7.90438e-20)
(0.10981 0.00495284 1.3252e-19)
(0.127384 0.00196337 1.08141e-19)
(0.145203 -0.00134743 1.09073e-19)
(0.163223 -0.00505129 6.31745e-19)
(0.181435 -0.0091892 -2.37413e-19)
(0.199865 -0.0137141 -1.4219e-20)
(0.218655 -0.0183239 2.65889e-19)
(0.237978 -0.0222956 -1.49786e-19)
(0.256439 -0.0253764 8.80246e-20)
(-0.00397228 0.00532926 -2.44926e-19)
(-0.00594745 0.0110072 1.90876e-20)
(-0.00251717 0.014101 -2.12127e-19)
(0.00500805 0.0153678 -2.61949e-20)
(0.0157661 0.0154185 1.58355e-19)
(0.0291057 0.0147218 -4.71099e-19)
(0.0444859 0.0135988 3.0386e-21)
(0.0614583 0.0122661 2.20582e-19)
(0.0796485 0.0108619 2.07941e-19)
(0.0987406 0.00946109 -9.20917e-20)
(0.118466 0.00808267 2.96722e-20)
(0.138596 0.00669426 7.07006e-20)
(0.158946 0.00521375 -3.38646e-20)
(0.179374 0.0035127 -3.69373e-19)
(0.199795 0.00142508 9.457e-20)
(0.220173 -0.00123965 2.51649e-19)
(0.240538 -0.00465063 -3.56624e-19)
(0.261132 -0.00872406 1.74381e-19)
(0.282426 -0.0127236 4.45803e-20)
(0.302919 -0.0161996 2.67521e-19)
(-0.00335162 0.00440849 -3.79721e-20)
(-0.00358252 0.00863022 -1.86213e-19)
(0.00213125 0.0108051 8.44965e-20)
(0.0122892 0.0115472 -2.32537e-21)
(0.0259282 0.0114009 -3.82241e-19)
(0.0423342 0.0108005 6.04366e-20)
(0.0609173 0.010043 -1.04528e-20)
(0.0811908 0.00933121 7.76355e-20)
(0.102749 0.00879991 -3.57238e-19)
(0.125249 0.0085288 -2.28673e-20)
(0.148391 0.00854868 -8.197e-20)
(0.171915 0.00884233 7.67818e-20)
(0.19559 0.00934029 2.51443e-19)
(0.219217 0.00991322 -3.94137e-20)
(0.242638 0.0103602 1.40362e-20)
(0.265727 0.0103818 9.9031e-20)
(0.28841 0.00957043 -2.37205e-20)
(0.310929 0.0076926 1.82933e-19)
(0.334185 0.00541314 -1.16994e-19)
(0.356952 0.00303327 -1.96949e-19)
(-0.00246086 0.00333825 3.4339e-20)
(-0.00048377 0.00590829 7.78902e-21)
(0.00792042 0.00705428 7.68557e-20)
(0.0210814 0.00721471 1.88294e-19)
(0.0379481 0.00684982 1.0536e-19)
(0.0577542 0.0063487 1.05808e-20)
(0.0798718 0.00597644 -1.27606e-19)
(0.103788 0.00591793 3.35936e-20)
(0.129081 0.00630439 1.7197e-19)
(0.155397 0.00722603 -2.93754e-19)
(0.182433 0.00873981 2.22425e-19)
(0.209927 0.0108729 -1.67341e-19)
(0.237646 0.0136216 1.41851e-19)
(0.265379 0.0169463 -3.05013e-19)
(0.292935 0.0207555 3.32191e-19)
(0.320118 0.0248573 -3.56598e-19)
(0.346716 0.0289212 -8.97889e-20)
(0.372793 0.0327848 2.72553e-19)
(0.399344 0.0370667 -9.88944e-20)
(0.425466 0.04007 4.21135e-20)
(-0.00127725 0.00214032 -2.71029e-20)
(0.00340051 0.00289583 2.68379e-19)
(0.0149138 0.00292304 -3.33806e-21)
(0.0314474 0.00245529 -1.68682e-19)
(0.0518767 0.00185068 -1.13188e-19)
(0.0753941 0.00143954 2.09898e-19)
(0.101344 0.00144358 -8.40228e-20)
(0.129198 0.00201931 -1.0942e-20)
(0.158533 0.00328415 1.72904e-19)
(0.189007 0.00532882 -2.18634e-19)
(0.220346 0.0082269 2.32315e-20)
(0.252339 0.0120426 -2.843e-19)
(0.284838 0.0168378 1.49452e-19)
(0.317775 0.0226781 -4.29766e-19)
(0.351193 0.0296317 6.84838e-19)
(0.385312 0.0377522 -1.2435e-19)
(0.420703 0.0470978 1.30416e-19)
(0.458771 0.0578417 -3.44709e-19)
(0.502383 0.0694175 4.89592e-21)
(0.556066 0.0760508 4.8441e-19)
(0.000215728 0.000843292 -8.40171e-20)
(0.0081068 -0.000336111 7.65168e-20)
(0.023152 -0.00148921 -2.79277e-19)
(0.0434185 -0.00261332 4.15828e-19)
(0.0677228 -0.00347002 -3.01868e-19)
(0.0952251 -0.00380236 1.5037e-20)
(0.125249 -0.00344643 -3.26303e-19)
(0.157258 -0.00228976 2.34691e-19)
(0.190831 -0.000247781 -3.50421e-20)
(0.225645 0.00274533 -2.08838e-19)
(0.261459 0.00674314 -1.20855e-19)
(0.298118 0.0117909 1.27904e-19)
(0.335559 0.0179256 8.51518e-20)
(0.373839 0.0251692 -3.8219e-19)
(0.413167 0.0335041 1.39547e-19)
(0.453981 0.0428265 -2.04953e-19)
(0.497089 0.052913 2.24308e-20)
(0.543872 0.0633006 -1.80078e-19)
(0.595964 0.072158 8.27944e-20)
(0.654043 0.0741163 -3.32937e-19)
(0.00202808 -0.000518636 2.36641e-19)
(0.013656 -0.00370182 -1.50737e-19)
(0.0326529 -0.00605985 1.24942e-19)
(0.0569969 -0.00784094 -1.57957e-19)
(0.0854588 -0.00894195 2.6934e-19)
(0.117173 -0.00919329 -5.8185e-21)
(0.151447 -0.00850304 -3.28943e-20)
(0.187732 -0.00681831 -2.44735e-20)
(0.22561 -0.00410573 1.51126e-19)
(0.264762 -0.000347196 2.56491e-19)
(0.304962 0.00446161 -1.54384e-19)
(0.346077 0.0103092 1.48785e-19)
(0.388067 0.0171608 2.73336e-19)
(0.431002 0.0249407 -1.94556e-19)
(0.475079 0.0334981 -3.97584e-19)
(0.520648 0.0425567 7.31498e-19)
(0.568263 0.0516789 -1.3256e-19)
(0.618703 0.0601348 -4.45096e-20)
(0.672443 0.0661 4.81609e-19)
(0.728762 0.0659871 -1.23435e-19)
(0.0041638 -0.0019074 -3.89872e-19)
(0.0200546 -0.00710443 -2.76268e-19)
(0.0434144 -0.0106473 -1.06114e-19)
(0.0721598 -0.0130496 2.05508e-19)
(0.105029 -0.014356 -4.65662e-19)
(0.141135 -0.0144961 2.40527e-19)
(0.179767 -0.0134613 3.04496e-20)
(0.220366 -0.0112703 2.95144e-20)
(0.262501 -0.00795308 -3.20212e-19)
(0.305845 -0.00355203 -1.14287e-19)
(0.350162 0.0018755 -2.01173e-19)
(0.395302 0.00825156 1.94472e-19)
(0.441194 0.015467 5.52283e-20)
(0.487848 0.0233631 9.52901e-21)
(0.535352 0.0317025 2.59248e-19)
(0.583866 0.0401347 -2.64318e-19)
(0.633629 0.0481857 -1.13411e-20)
(0.68491 0.0551718 5.6261e-21)
(0.737569 0.0596364 3.57967e-20)
(0.790659 0.0592378 2.58731e-19)
(0.00662182 -0.00328298 1.25614e-19)
(0.0272962 -0.0104402 3.42971e-19)
(0.0554166 -0.015097 2.75478e-19)
(0.0888644 -0.0180413 -9.4846e-20)
(0.126356 -0.019475 3.29636e-19)
(0.166987 -0.0194353 -2.8395e-20)
(0.21003 -0.0180052 -3.97323e-20)
(0.254908 -0.0152815 2.36718e-20)
(0.301171 -0.0113636 3.25326e-19)
(0.348471 -0.00635816 1.91156e-19)
(0.396543 -0.000384019 5.57461e-20)
(0.445196 0.00642058 3.4554e-21)
(0.494303 0.0138884 -3.77056e-19)
(0.54379 0.0218091 3.29583e-19)
(0.593623 0.0299095 5.7373e-20)
(0.643792 0.0378382 -9.45657e-20)
(0.694311 0.0451759 -4.15578e-19)
(0.745157 0.0513789 -3.6256e-20)
(0.795946 0.0553309 1.68125e-19)
(0.845835 0.0554653 -3.90699e-20)
(0.00939709 -0.00460508 -3.18086e-19)
(0.0353639 -0.0136027 1.41684e-19)
(0.0686247 -0.0192481 -6.92218e-19)
(0.10705 -0.0226081 2.83885e-19)
(0.149346 -0.0240477 -2.28134e-19)
(0.194595 -0.0237172 1.69267e-19)
(0.242053 -0.0217956 -2.63007e-19)
(0.291123 -0.0184614 2.49491e-20)
(0.341331 -0.0138839 -1.30958e-20)
(0.3923 -0.00823175 7.09077e-20)
(0.44373 -0.00167929 1.03122e-19)
(0.495383 0.00558701 -1.9741e-19)
(0.54707 0.0133611 1.04671e-19)
(0.598641 0.021408 9.6886e-20)
(0.649964 0.0294535 4.2195e-19)
(0.700911 0.0371801 -1.84648e-19)
(0.751361 0.0442495 -1.24289e-19)
(0.801152 0.0502525 2.1084e-19)
(0.849825 0.0543203 1.15523e-19)
(0.896699 0.055392 -2.6849e-19)
(0.0124816 -0.00583448 2.80029e-19)
(0.0442318 -0.0164866 2.86418e-19)
(0.0829907 -0.0229399 8.31516e-20)
(0.126641 -0.0265414 3.503e-19)
(0.173889 -0.027822 1.70805e-19)
(0.223811 -0.0270486 -3.12933e-19)
(0.275647 -0.0244979 4.74888e-19)
(0.328782 -0.0204298 -2.35786e-19)
(0.382717 -0.0150824 2.35267e-19)
(0.437046 -0.00868151 3.05054e-19)
(0.491434 -0.00144905 -1.75659e-19)
(0.5456 0.0063917 3.36339e-20)
(0.599308 0.0146107 1.87944e-19)
(0.652346 0.0229657 1.33114e-19)
(0.704519 0.0311974 3.08788e-19)
(0.755631 0.0390323 -1.2439e-19)
(0.805491 0.0462069 -1.53127e-20)
(0.853877 0.0524167 1.99784e-19)
(0.900332 0.0569676 -4.29263e-20)
(0.944314 0.0591537 1.00686e-21)
(0.0158652 -0.00693379 -1.45767e-19)
(0.0538662 -0.0189904 -5.64296e-19)
(0.0984542 -0.0260174 1.33101e-19)
(0.147546 -0.0296402 -1.02485e-19)
(0.199861 -0.0305573 -2.35369e-19)
(0.254473 -0.0291529 -1.67458e-19)
(0.310614 -0.0258016 -1.03268e-19)
(0.367654 -0.0208437 2.56139e-19)
(0.425072 -0.0145823 -1.53079e-19)
(0.482439 -0.00729598 -1.57289e-19)
(0.539392 0.000752808 -1.99519e-19)
(0.595619 0.00931249 -3.3218e-20)
(0.650849 0.0181384 -2.30393e-20)
(0.704836 0.0269894 -4.685e-19)
(0.757349 0.0356259 2.28457e-19)
(0.808163 0.0438151 -3.02911e-19)
(0.85706 0.0513537 9.58056e-20)
(0.903801 0.0580124 -7.35215e-19)
(0.947963 0.0632277 2.22721e-19)
(0.989115 0.0665559 3.40116e-19)
(0.0195355 -0.00786782 -3.57414e-20)
(0.0642262 -0.0210187 2.75341e-19)
(0.114943 -0.0283347 1.82154e-20)
(0.169659 -0.0317178 4.2602e-20)
(0.227118 -0.032033 -8.70002e-20)
(0.286402 -0.0297818 -1.80878e-21)
(0.34674 -0.0254354 -1.54402e-21)
(0.407494 -0.0194124 -5.21249e-20)
(0.468131 -0.0120778 1.90049e-19)
(0.528204 -0.00375831 7.39278e-20)
(0.587333 0.0052485 3.35681e-19)
(0.645192 0.0146684 -9.26917e-20)
(0.701491 0.0242474 6.46396e-20)
(0.755972 0.0337485 -8.35555e-21)
(0.808394 0.042951 1.81383e-19)
(0.858528 0.0516563 1.11707e-19)
(0.906158 0.0597061 2.70975e-19)
(0.951057 0.0669253 -4.41092e-19)
(0.992848 0.0728546 5.59129e-19)
(1.03119 0.0772496 -2.14512e-19)
(0.0234785 -0.00860359 -3.33156e-19)
(0.0752635 -0.0224823 -1.09246e-19)
(0.132371 -0.0297582 8.82608e-20)
(0.192855 -0.0326054 5.58539e-20)
(0.255497 -0.0320542 5.75081e-20)
(0.319396 -0.0287219 5.69846e-20)
(0.383789 -0.0231744 -1.46382e-19)
(0.448037 -0.0159058 -5.94858e-20)
(0.511605 -0.00733972 1.9639e-20)
(0.574042 0.00215294 -1.80953e-19)
(0.634963 0.0122436 -8.18696e-20)
(0.694039 0.0226395 5.00495e-19)
(0.750984 0.0330799 -1.30323e-19)
(0.805543 0.0433332 -1.80337e-19)
(0.857489 0.0531955 -8.59847e-20)
(0.906608 0.0624953 6.0158e-20)
(0.952706 0.0711083 7.35675e-20)
(0.995583 0.0789002 -3.5521e-19)
(1.03492 0.0854998 5.1714e-19)
(1.07045 0.090815 -5.40936e-19)
(0.0276773 -0.00911023 -3.68012e-20)
(0.0869217 -0.0232997 1.1065e-20)
(0.150641 -0.0301676 -1.44537e-20)
(0.216994 -0.0321554 2.13942e-19)
(0.284815 -0.0304554 1.19602e-20)
(0.353233 -0.0257986 7.89573e-20)
(0.421502 -0.018843 -1.67353e-19)
(0.488995 -0.010155 -5.80618e-21)
(0.555185 -0.000213467 2.3463e-19)
(0.61963 0.0105705 3.26346e-20)
(0.681955 0.0218411 -2.0704e-19)
(0.741845 0.0332902 -1.82975e-20)
(0.799031 0.0446527 -1.72046e-19)
(0.853282 0.0557029 1.73096e-19)
(0.904397 0.0662519 2.41619e-19)
(0.952198 0.0761511 -2.68436e-20)
(0.996526 0.0853028 -3.27528e-20)
(1.03722 0.0936052 1.00639e-19)
(1.07402 0.100766 -3.25023e-19)
(1.10673 0.106807 3.45807e-19)
(0.0321124 -0.00935886 3.71335e-20)
(0.099136 -0.0233967 -2.56502e-19)
(0.169642 -0.0294572 7.02793e-20)
(0.241918 -0.0302419 -2.14263e-19)
(0.31487 -0.0271015 7.52175e-20)
(0.387667 -0.0208771 -2.77013e-19)
(0.459597 -0.0123153 1.12791e-19)
(0.530055 -0.0020509 -3.66315e-20)
(0.598537 0.00938609 -1.49866e-21)
(0.664623 0.0215484 3.74184e-20)
(0.727963 0.034057 -1.37436e-19)
(0.78827 0.0465921 -1.97843e-19)
(0.845309 0.0588868 -4.07939e-20)
(0.898887 0.0707226 -1.84711e-20)
(0.948846 0.0819254 -4.729e-20)
(0.995053 0.0923675 -1.55018e-20)
(1.0374 0.101973 -4.66869e-20)
(1.07576 0.11067 -4.07013e-20)
(1.10997 0.118238 -1.21468e-19)
(1.13986 0.124781 2.27457e-19)
(0.0367605 -0.00932254 8.89919e-20)
(0.111832 -0.0227069 -1.04263e-19)
(0.189246 -0.027536 2.24497e-19)
(0.26745 -0.0267622 -9.85736e-20)
(0.345436 -0.0218884 2.64776e-19)
(0.422433 -0.013862 4.86483e-21)
(0.497772 -0.00351278 1.34457e-19)
(0.570887 0.0084604 -3.71039e-20)
(0.641311 0.0214817 1.53032e-19)
(0.708659 0.0350726 1.08096e-20)
(0.772624 0.0488356 3.70966e-19)
(0.83296 0.0624435 -2.58523e-19)
(0.889481 0.0756314 3.51917e-20)
(0.942046 0.0881907 6.77351e-20)
(0.99055 0.0999634 3.56849e-19)
(1.03492 0.110842 -1.29245e-19)
(1.07509 0.120774 -2.57095e-20)
(1.11102 0.129712 -1.36465e-19)
(1.14258 0.137504 -1.41384e-20)
(1.16968 0.144312 8.11965e-20)
(0.0415944 -0.00897646 -4.05238e-20)
(0.124925 -0.0211717 1.27545e-19)
(0.209314 -0.0243283 -1.32252e-19)
(0.293397 -0.0216362 5.18421e-20)
(0.376274 -0.014743 -6.40208e-20)
(0.457247 -0.0046958 2.3442e-19)
(0.535708 0.00759791 -3.38967e-20)
(0.611146 0.021382 8.11271e-20)
(0.683144 0.0360408 -4.91595e-20)
(0.751371 0.0510708 -1.74096e-21)
(0.815573 0.066062 5.66707e-20)
(0.875563 0.0806854 -4.46686e-20)
(0.931216 0.0946829 1.16815e-19)
(0.982453 0.10786 -5.88423e-20)
(1.02924 0.120077 -2.60982e-19)
(1.07155 0.131249 2.61336e-19)
(1.10941 0.141346 -1.18206e-19)
(1.14281 0.150347 9.49769e-20)
(1.17171 0.158168 1.64922e-19)
(1.19607 0.165 7.99407e-20)
(0.0465825 -0.0082982 1.01312e-19)
(0.13832 -0.0187417 -2.23527e-19)
(0.229691 -0.0197746 4.19537e-20)
(0.319549 -0.0148074 -3.14163e-20)
(0.407124 -0.00562228 -1.29196e-19)
(0.49181 0.00664195 -1.01518e-19)
(0.573075 0.0210083 -2.05643e-20)
(0.650478 0.036671 -1.85349e-19)
(0.723672 0.0529826 -1.18787e-20)
(0.792391 0.069422 -3.54144e-20)
(0.856452 0.0855743 -9.71894e-20)
(0.91574 0.101115 -2.17797e-20)
(0.9702 0.1158 -7.60457e-20)
(1.01983 0.129451 -1.28337e-19)
(1.06466 0.141955 1.32546e-19)
(1.10475 0.153252 1.82226e-20)
(1.14017 0.163332 3.64042e-20)
(1.171 0.172208 -1.55345e-19)
(1.19726 0.179854 -4.33957e-21)
(1.21895 0.18648 -2.81499e-19)
(0.0516884 -0.00726822 1.07927e-19)
(0.151912 -0.0153768 7.68895e-20)
(0.25021 -0.0138318 -1.25935e-19)
(0.345684 -0.00624292 1.98267e-19)
(0.437718 0.00548669 -2.23932e-20)
(0.525814 0.0201367 7.55467e-20)
(0.609537 0.0366706 2.67044e-20)
(0.688532 0.054243 9.56381e-20)
(0.762536 0.0721838 -7.59867e-20)
(0.831367 0.089964 2.59336e-20)
(0.894923 0.107172 -2.50126e-20)
(0.953173 0.123497 -1.10748e-20)
(1.00615 0.138713 2.15741e-20)
(1.05392 0.152669 -4.01309e-20)
(1.0966 0.16528 -1.2455e-20)
(1.13434 0.176512 -3.82933e-20)
(1.16726 0.186385 -6.25173e-20)
(1.1955 0.194943 4.07318e-20)
(1.21916 0.202218 -5.53837e-20)
(1.23829 0.208422 2.81106e-19)
(0.0568713 -0.00587037 -5.2547e-20)
(0.165585 -0.0110476 -1.59694e-19)
(0.27069 -0.00647504 -2.04474e-20)
(0.371568 0.00406583 -6.73609e-21)
(0.467776 0.0185672 -7.38126e-20)
(0.558946 0.03574 -1.23287e-19)
(0.644757 0.0545006 4.09371e-20)
(0.72496 0.073976 -5.71744e-20)
(0.799389 0.0934847 -6.51143e-20)
(0.867961 0.1125 3.71183e-20)
(0.93067 0.130625 -2.83918e-20)
(0.987579 0.14757 -5.86229e-20)
(1.03881 0.163137 -2.19007e-21)
(1.08452 0.177208 4.07342e-20)
(1.12491 0.189729 -4.20133e-20)
(1.1602 0.200702 5.88378e-20)
(1.19058 0.210175 1.60728e-20)
(1.21627 0.218226 4.03285e-20)
(1.23741 0.224946 7.82106e-20)
(1.2541 0.230532 -7.80314e-20)
(0.0620863 -0.00409258 4.91323e-20)
(0.179217 -0.00573661 -3.82319e-21)
(0.290943 0.00230213 2.46036e-20)
(0.396956 0.0161028 -3.2831e-20)
(0.497013 0.033573 3.45257e-21)
(0.590893 0.0533709 1.18082e-19)
(0.678406 0.0743803 -7.83184e-20)
(0.759427 0.0957143 3.43569e-20)
(0.833903 0.116694 3.11271e-20)
(0.901864 0.136807 -8.77067e-20)
(0.96341 0.15568 8.41604e-20)
(1.01871 0.173057 9.77013e-22)
(1.06797 0.188776 -6.13049e-20)
(1.11146 0.202758 7.47376e-20)
(1.14946 0.214988 -2.99088e-20)
(1.18225 0.225506 2.3058e-20)
(1.21011 0.234391 -2.61003e-20)
(1.2333 0.241759 -1.05944e-20)
(1.25204 0.247753 -9.10882e-20)
(1.26645 0.252552 3.23854e-20)
(0.0672845 -0.00192742 -1.56498e-20)
(0.192677 0.000560752 4.66256e-20)
(0.310772 0.0124862 7.61759e-21)
(0.421603 0.0298265 3.10164e-20)
(0.525144 0.0504291 1.52822e-20)
(0.621344 0.0729173 7.30218e-21)
(0.710164 0.0961599 4.18774e-20)
(0.791615 0.119272 -4.928e-21)
(0.865775 0.141592 1.94899e-20)
(0.932796 0.162636 3.18107e-20)
(0.992896 0.182067 1.57627e-20)
(1.04635 0.19967 1.15531e-20)
(1.09348 0.215331 4.73907e-20)
(1.13463 0.229016 -4.62099e-20)
(1.17017 0.240753 1.00522e-20)
(1.20047 0.250625 -9.43406e-21)
(1.22585 0.258746 1.48143e-20)
(1.24665 0.265269 1.24742e-20)
(1.26312 0.270389 2.59043e-20)
(1.27543 0.274257 1.22493e-21)
(0.0724138 0.000627325 9.51233e-21)
(0.205827 0.00783507 9.00826e-21)
(0.329976 0.0240428 -1.26456e-20)
(0.445259 0.0451703 8.02156e-21)
(0.551888 0.0690317 4.65941e-21)
(0.650002 0.0942373 -1.48147e-20)
(0.739729 0.119661 5.0263e-21)
(0.821232 0.144438 1.00109e-21)
(0.894732 0.167938 9.09484e-21)
(0.960514 0.189722 -2.51118e-20)
(1.01892 0.209502 -1.51873e-22)
(1.07034 0.227116 7.26252e-21)
(1.1152 0.242504 -5.83831e-21)
(1.15395 0.255683 6.04221e-21)
(1.18702 0.266733 1.59462e-20)
(1.21486 0.27578 -9.12332e-21)
(1.23786 0.282975 2.5912e-21)
(1.25639 0.28851 1.00703e-20)
(1.27075 0.29263 -1.66284e-20)
(1.28116 0.295452 9.31875e-21)
(0.0774204 0.00356814 2.45653e-20)
(0.218529 0.0160622 -1.45047e-20)
(0.348354 0.0369167 1.73317e-20)
(0.467677 0.0620415 -1.31204e-20)
(0.576973 0.0892494 -6.07647e-21)
(0.676583 0.117161 1.90567e-21)
(0.766819 0.144678 -6.30488e-21)
(0.848011 0.170975 2.32153e-20)
(0.920534 0.195473 -1.9962e-20)
(0.984812 0.217788 4.84366e-21)
(1.04132 0.237697 -3.60657e-21)
(1.09056 0.255101 -2.45386e-20)
(1.13307 0.27 2.41843e-20)
(1.16939 0.282473 9.36646e-21)
(1.20002 0.292653 -9.42034e-21)
(1.22548 0.30071 2.22617e-20)
(1.24621 0.306838 -3.6314e-22)
(1.26263 0.311265 -2.17413e-20)
(1.27506 0.314283 1.61148e-20)
(1.28377 0.315972 5.74856e-21)
(0.0822484 0.00688553 -8.8278e-21)
(0.230643 0.0252027 2.57516e-20)
(0.365704 0.0510307 3.04728e-20)
(0.488619 0.0803228 -1.49472e-20)
(0.600137 0.110924 2.61919e-20)
(0.700821 0.141494 4.32681e-20)
(0.791179 0.170983 -2.62776e-21)
(0.871719 0.198629 -8.33008e-21)
(0.942977 0.22392 4.04631e-20)
(1.00553 0.246547 2.03773e-20)
(1.05997 0.266359 -3.95706e-21)
(1.10693 0.283332 3.19246e-20)
(1.14705 0.297536 -3.523e-20)
(1.18095 0.309113 5.51816e-20)
(1.20921 0.318255 -9.34424e-21)
(1.2324 0.325179 2.68733e-20)
(1.25101 0.330118 4.79448e-21)
(1.2655 0.333339 1.93051e-20)
(1.27621 0.335176 -1.85017e-20)
(1.28343 0.335671 5.07505e-21)
(0.086841 0.0105635 -1.2977e-20)
(0.242027 0.0352013 3.12578e-20)
(0.381832 0.0662865 2.33882e-20)
(0.507856 0.0998719 -3.70584e-21)
(0.621138 0.133873 3.97042e-20)
(0.722475 0.167016 -3.22887e-20)
(0.812583 0.198328 -3.27824e-21)
(0.892156 0.227129 2.90325e-20)
(0.961897 0.252995 8.9821e-21)
(1.02253 0.275705 1.40535e-20)