1.45 	0 	0 	-0.00812111 	-0.00256983 	3.78396e-21
2.35 	0 	0 	0.061354 	-0.00663105 	2.28721e-21
