/*--------------------------------*- C++ -*----------------------------------*\
  =========                 |
  \\      /  F ield         | OpenFOAM: The Open Source CFD Toolbox
   \\    /   O peration     | Website:  https://openfoam.org
    \\  /    A nd           | Version:  6.0
     \\/     M anipulation  |
\*---------------------------------------------------------------------------*/
FoamFile
{
    version     2.0;
    format      ascii;
    class       volScalarField;
    location    "3.9";
    object      p;
}
// * * * * * * * * * * * * * * * * * * * * * * * * * * * * * * * * * * * * * //

dimensions      [0 2 -2 0 0 0 0];

internalField   nonuniform List<scalar> 
24000
(
1.00666
1.00673
1.0064
1.0058
1.00486
1.00382
1.00277
1.00185
1.00107
1.00052
1.00005
0.999736
1.00667
1.00679
1.00656
1.00609
1.00526
1.0043
1.00325
1.00228
1.00138
1.00071
1.00007
0.999647
1.00667
1.00677
1.0065
1.00601
1.00517
1.00421
1.00318
1.00222
1.00136
1.00071
1.00008
0.999704
1.00667
1.00674
1.00645
1.00592
1.00506
1.0041
1.00309
1.00217
1.00133
1.00072
1.00009
0.999725
1.00667
1.00674
1.00644
1.00591
1.00506
1.00411
1.00311
1.00219
1.00136
1.00073
1.00008
0.999696
1.00667
1.00675
1.00645
1.00593
1.00508
1.00413
1.00313
1.00221
1.00137
1.00073
1.00006
0.999657
1.00668
1.00675
1.00646
1.00594
1.00509
1.00414
1.00313
1.00221
1.00136
1.00072
1.00004
0.99963
1.00668
1.00675
1.00646
1.00595
1.00511
1.00416
1.00315
1.00223
1.00138
1.00073
1.00004
0.999616
1.00669
1.00675
1.00647
1.00596
1.00514
1.00419
1.0032
1.00227
1.00142
1.00076
1.00005
0.999604
1.00669
1.00675
1.00648
1.00598
1.00516
1.00423
1.00324
1.00231
1.00145
1.00078
1.00005
0.999586
1.0067
1.00675
1.00648
1.00598
1.00518
1.00425
1.00326
1.00234
1.00147
1.00079
1.00005
0.999563
1.00671
1.00676
1.00648
1.00598
1.00518
1.00426
1.00328
1.00235
1.00148
1.00079
1.00003
0.999539
1.00672
1.00676
1.00648
1.00598
1.00519
1.00427
1.00329
1.00236
1.00148
1.00079
1.00002
0.999518
1.00673
1.00677
1.00648
1.00599
1.00519
1.00428
1.0033
1.00237
1.00149
1.00079
1.00002
0.999501
1.00674
1.00678
1.00649
1.00599
1.0052
1.00429
1.00332
1.00239
1.0015
1.00079
1.00002
0.999486
1.00675
1.00679
1.0065
1.006
1.00521
1.00431
1.00333
1.0024
1.00152
1.0008
1.00002
0.999473
1.00676
1.0068
1.00652
1.00601
1.00522
1.00433
1.00335
1.00242
1.00153
1.00081
1.00002
0.99946
1.00678
1.00682
1.00654
1.00603
1.00524
1.00434
1.00337
1.00244
1.00155
1.00082
1.00002
0.999448
1.00679
1.00683
1.00656
1.00605
1.00526
1.00437
1.0034
1.00247
1.00156
1.00083
1.00002
0.999437
1.00681
1.00685
1.00658
1.00607
1.00529
1.0044
1.00342
1.00249
1.00158
1.00084
1.00002
0.999427
1.00682
1.00687
1.0066
1.0061
1.00532
1.00443
1.00345
1.00252
1.0016
1.00085
1.00003
0.999417
1.00684
1.00689
1.00662
1.00613
1.00535
1.00446
1.00348
1.00254
1.00162
1.00086
1.00003
0.999407
1.00685
1.0069
1.00664
1.00615
1.00538
1.00449
1.00351
1.00257
1.00164
1.00087
1.00003
0.999397
1.00687
1.00692
1.00666
1.00617
1.0054
1.00451
1.00354
1.00259
1.00166
1.00087
1.00003
0.999387
1.00688
1.00694
1.00668
1.00619
1.00543
1.00454
1.00357
1.00261
1.00168
1.00088
1.00003
0.999378
1.0069
1.00695
1.0067
1.00621
1.00545
1.00457
1.00359
1.00263
1.00169
1.00089
1.00004
0.999368
1.00692
1.00697
1.00671
1.00623
1.00547
1.00459
1.00361
1.00265
1.00171
1.0009
1.00004
0.999359
1.00694
1.00699
1.00673
1.00625
1.00549
1.00461
1.00364
1.00267
1.00172
1.0009
1.00004
0.999349
1.00696
1.007
1.00675
1.00627
1.00551
1.00464
1.00366
1.00269
1.00174
1.00091
1.00004
0.999339
1.00698
1.00702
1.00677
1.00629
1.00553
1.00466
1.00368
1.00271
1.00175
1.00091
1.00004
0.999329
1.007
1.00704
1.00679
1.00631
1.00556
1.00468
1.0037
1.00273
1.00176
1.00092
1.00004
0.999319
1.00702
1.00706
1.00681
1.00633
1.00558
1.00471
1.00373
1.00275
1.00177
1.00092
1.00003
0.999309
1.00704
1.00709
1.00683
1.00635
1.0056
1.00473
1.00375
1.00277
1.00179
1.00092
1.00003
0.999299
1.00707
1.00711
1.00685
1.00638
1.00563
1.00475
1.00377
1.00278
1.0018
1.00093
1.00003
0.999288
1.00709
1.00714
1.00687
1.0064
1.00565
1.00478
1.00379
1.0028
1.00181
1.00093
1.00003
0.999278
1.00712
1.00716
1.0069
1.00642
1.00567
1.0048
1.00381
1.00282
1.00182
1.00093
1.00003
0.999268
1.00714
1.00719
1.00693
1.00645
1.0057
1.00482
1.00383
1.00284
1.00183
1.00094
1.00002
0.999257
1.00717
1.00722
1.00696
1.00648
1.00573
1.00485
1.00386
1.00285
1.00184
1.00094
1.00002
0.999247
1.0072
1.00725
1.00699
1.00651
1.00576
1.00488
1.00388
1.00287
1.00186
1.00094
1.00002
0.999236
1.00723
1.00728
1.00702
1.00655
1.00579
1.00491
1.00391
1.0029
1.00187
1.00095
1.00002
0.999225
1.00726
1.00732
1.00706
1.00658
1.00582
1.00494
1.00394
1.00292
1.00189
1.00095
1.00001
0.999213
1.0073
1.00735
1.0071
1.00662
1.00586
1.00497
1.00397
1.00294
1.0019
1.00096
1.00001
0.999201
1.00733
1.00739
1.00713
1.00666
1.0059
1.00501
1.004
1.00296
1.00191
1.00096
1.00001
0.999188
1.00736
1.00742
1.00717
1.00669
1.00593
1.00504
1.00403
1.00298
1.00193
1.00096
1
0.999174
1.0074
1.00746
1.00721
1.00673
1.00597
1.00508
1.00405
1.00301
1.00194
1.00096
0.999996
0.999159
1.00743
1.00749
1.00724
1.00677
1.00601
1.00511
1.00408
1.00303
1.00195
1.00096
0.999989
0.999143
1.00747
1.00753
1.00728
1.00681
1.00604
1.00514
1.00411
1.00305
1.00196
1.00096
0.999982
0.999126
1.0075
1.00756
1.00732
1.00684
1.00608
1.00517
1.00414
1.00307
1.00197
1.00096
0.999974
0.999108
1.00754
1.0076
1.00735
1.00688
1.00611
1.00521
1.00416
1.00308
1.00198
1.00096
0.999965
0.999089
1.00758
1.00764
1.00739
1.00692
1.00615
1.00524
1.00419
1.0031
1.00199
1.00096
0.999955
0.99907
1.00762
1.00768
1.00743
1.00696
1.00618
1.00527
1.00421
1.00312
1.002
1.00096
0.999944
0.99905
1.00766
1.00772
1.00747
1.007
1.00622
1.0053
1.00424
1.00314
1.00201
1.00095
0.999932
0.999029
1.00771
1.00777
1.00752
1.00704
1.00626
1.00534
1.00427
1.00316
1.00201
1.00095
0.99992
0.999007
1.00775
1.00781
1.00756
1.00708
1.0063
1.00537
1.00429
1.00317
1.00202
1.00095
0.999906
0.998985
1.0078
1.00786
1.0076
1.00712
1.00634
1.00541
1.00432
1.00319
1.00203
1.00094
0.999892
0.998963
1.00784
1.0079
1.00765
1.00717
1.00638
1.00544
1.00435
1.00321
1.00204
1.00094
0.999878
0.99894
1.00789
1.00795
1.0077
1.00722
1.00642
1.00548
1.00438
1.00323
1.00204
1.00093
0.999862
0.998916
1.00794
1.008
1.00775
1.00726
1.00646
1.00551
1.00441
1.00325
1.00205
1.00093
0.999847
0.998892
1.00799
1.00806
1.0078
1.00731
1.00651
1.00555
1.00444
1.00326
1.00206
1.00092
0.999831
0.998867
1.00804
1.00811
1.00785
1.00737
1.00656
1.00559
1.00447
1.00328
1.00206
1.00092
0.999814
0.998841
1.00809
1.00816
1.00791
1.00742
1.0066
1.00563
1.0045
1.0033
1.00207
1.00091
0.999796
0.998815
1.00814
1.00822
1.00797
1.00747
1.00665
1.00568
1.00453
1.00332
1.00208
1.0009
0.999778
0.998787
1.0082
1.00828
1.00802
1.00753
1.0067
1.00572
1.00456
1.00334
1.00208
1.00089
0.999759
0.998758
1.00825
1.00833
1.00808
1.00759
1.00676
1.00576
1.00459
1.00336
1.00209
1.00088
0.999739
0.998728
1.00831
1.00839
1.00814
1.00765
1.00681
1.00581
1.00463
1.00338
1.00209
1.00088
0.999719
0.998696
1.00837
1.00846
1.0082
1.0077
1.00686
1.00585
1.00466
1.0034
1.0021
1.00087
0.999697
0.998663
1.00843
1.00852
1.00826
1.00776
1.00691
1.0059
1.00469
1.00342
1.0021
1.00085
0.999674
0.998629
1.00849
1.00858
1.00832
1.00782
1.00697
1.00594
1.00472
1.00344
1.0021
1.00084
0.99965
0.998594
1.00855
1.00865
1.00839
1.00788
1.00702
1.00598
1.00476
1.00346
1.00211
1.00083
0.999624
0.998557
1.00861
1.00871
1.00845
1.00794
1.00708
1.00603
1.00479
1.00347
1.00211
1.00082
0.999598
0.99852
1.00868
1.00878
1.00852
1.00801
1.00713
1.00608
1.00482
1.00349
1.00211
1.0008
0.999571
0.998481
1.00875
1.00885
1.00858
1.00807
1.00719
1.00612
1.00485
1.00351
1.00211
1.00079
0.999542
0.998442
1.00881
1.00892
1.00865
1.00814
1.00725
1.00617
1.00489
1.00352
1.00211
1.00077
0.999513
0.998402
1.00888
1.00899
1.00872
1.0082
1.00731
1.00622
1.00492
1.00354
1.00211
1.00075
0.999483
0.998361
1.00896
1.00906
1.00879
1.00827
1.00737
1.00627
1.00495
1.00356
1.00211
1.00074
0.999452
0.99832
1.00903
1.00914
1.00887
1.00834
1.00743
1.00632
1.00499
1.00358
1.00211
1.00072
0.99942
0.998277
1.00911
1.00922
1.00894
1.00842
1.00749
1.00637
1.00503
1.0036
1.00211
1.0007
0.999388
0.998234
1.00918
1.0093
1.00902
1.00849
1.00756
1.00642
1.00506
1.00361
1.00211
1.00069
0.999355
0.998189
1.00926
1.00938
1.0091
1.00857
1.00762
1.00648
1.0051
1.00363
1.00211
1.00067
0.999321
0.998144
1.00934
1.00946
1.00918
1.00865
1.00769
1.00653
1.00514
1.00365
1.00211
1.00065
0.999286
0.998096
1.00942
1.00955
1.00927
1.00873
1.00776
1.00659
1.00518
1.00367
1.00211
1.00063
0.99925
0.998048
1.00951
1.00964
1.00935
1.00881
1.00783
1.00665
1.00522
1.00369
1.00211
1.00061
0.999213
0.997998
1.0096
1.00973
1.00944
1.00889
1.00791
1.0067
1.00526
1.00371
1.00211
1.00059
0.999175
0.997947
1.00968
1.00982
1.00953
1.00898
1.00798
1.00677
1.0053
1.00374
1.00211
1.00057
0.999135
0.997893
1.00977
1.00991
1.00962
1.00907
1.00806
1.00683
1.00534
1.00376
1.00211
1.00055
0.999095
0.997839
1.00987
1.01
1.00971
1.00915
1.00814
1.00689
1.00538
1.00378
1.00211
1.00052
0.999052
0.997781
1.00996
1.0101
1.00981
1.00925
1.00822
1.00696
1.00543
1.0038
1.00211
1.0005
0.999009
0.997723
1.01006
1.0102
1.0099
1.00934
1.0083
1.00702
1.00547
1.00382
1.0021
1.00047
0.998964
0.997662
1.01015
1.0103
1.01
1.00943
1.00838
1.00709
1.00552
1.00385
1.0021
1.00045
0.998918
0.9976
1.01025
1.0104
1.0101
1.00953
1.00846
1.00716
1.00556
1.00387
1.0021
1.00042
0.998869
0.997535
1.01036
1.01051
1.01021
1.00963
1.00855
1.00723
1.00561
1.00389
1.00209
1.00039
0.99882
0.997469
1.01046
1.01061
1.01031
1.00973
1.00864
1.0073
1.00565
1.00391
1.00209
1.00036
0.998768
0.9974
1.01057
1.01072
1.01042
1.00983
1.00873
1.00737
1.0057
1.00394
1.00208
1.00033
0.998715
0.99733
1.01068
1.01083
1.01053
1.00994
1.00882
1.00744
1.00575
1.00396
1.00208
1.0003
0.99866
0.997256
1.01079
1.01095
1.01065
1.01005
1.00892
1.00752
1.0058
1.00398
1.00207
1.00027
0.998604
0.997182
1.0109
1.01106
1.01076
1.01016
1.00902
1.0076
1.00586
1.00401
1.00207
1.00023
0.998546
0.997104
1.01102
1.01118
1.01088
1.01027
1.00912
1.00768
1.00591
1.00403
1.00206
1.0002
0.998486
0.997025
1.01114
1.01131
1.011
1.01039
1.00922
1.00776
1.00596
1.00406
1.00205
1.00016
0.998424
0.996942
1.01126
1.01143
1.01113
1.01051
1.00932
1.00784
1.00602
1.00408
1.00205
1.00012
0.99836
0.996858
1.01138
1.01156
1.01126
1.01063
1.00943
1.00793
1.00607
1.00411
1.00204
1.00009
0.998294
0.99677
1.01151
1.01169
1.01139
1.01075
1.00954
1.00802
1.00613
1.00413
1.00203
1.00005
0.998226
0.996681
1.01163
1.01182
1.01152
1.01088
1.00965
1.0081
1.00619
1.00416
1.00202
1
0.998156
0.996589
1.01177
1.01196
1.01166
1.01101
1.00977
1.00819
1.00625
1.00418
1.00201
0.99996
0.998084
0.996494
1.0119
1.0121
1.0118
1.01115
1.00989
1.00829
1.00631
1.00421
1.002
0.999915
0.998009
0.996396
1.01204
1.01224
1.01195
1.01128
1.01001
1.00838
1.00637
1.00423
1.00199
0.999868
0.997932
0.996296
1.01218
1.01239
1.01209
1.01142
1.01013
1.00848
1.00643
1.00426
1.00197
0.999819
0.997852
0.996192
1.01232
1.01254
1.01224
1.01156
1.01025
1.00857
1.00649
1.00429
1.00196
0.999769
0.997771
0.996086
1.01246
1.01269
1.0124
1.01171
1.01038
1.00867
1.00656
1.00431
1.00195
0.999716
0.997686
0.995976
1.01261
1.01285
1.01255
1.01186
1.01051
1.00877
1.00662
1.00434
1.00193
0.999662
0.997599
0.995864
1.01276
1.01301
1.01271
1.01201
1.01064
1.00887
1.00669
1.00436
1.00191
0.999605
0.997508
0.995747
1.01292
1.01317
1.01288
1.01216
1.01077
1.00898
1.00675
1.00438
1.0019
0.999547
0.997416
0.995628
1.01308
1.01333
1.01304
1.01232
1.01091
1.00908
1.00682
1.00441
1.00188
0.999485
0.99732
0.995505
1.01324
1.0135
1.01321
1.01248
1.01105
1.00919
1.00689
1.00443
1.00186
0.999423
0.997222
0.995379
1.0134
1.01368
1.01338
1.01264
1.01119
1.0093
1.00695
1.00446
1.00183
0.999357
0.99712
0.995249
1.01357
1.01385
1.01356
1.01281
1.01134
1.00941
1.00702
1.00448
1.00181
0.99929
0.997016
0.995117
1.01374
1.01403
1.01374
1.01298
1.01148
1.00952
1.00709
1.0045
1.00179
0.99922
0.996908
0.994979
1.01392
1.01422
1.01393
1.01315
1.01164
1.00964
1.00717
1.00453
1.00176
0.999148
0.996798
0.994839
1.0141
1.01441
1.01411
1.01333
1.01179
1.00975
1.00724
1.00455
1.00173
0.999072
0.996683
0.994694
1.01428
1.0146
1.0143
1.01351
1.01195
1.00987
1.00731
1.00457
1.00171
0.998995
0.996566
0.994546
1.01447
1.0148
1.0145
1.01369
1.0121
1.00999
1.00738
1.00459
1.00168
0.998914
0.996445
0.994392
1.01466
1.015
1.0147
1.01388
1.01227
1.01012
1.00746
1.00461
1.00164
0.998832
0.996321
0.994236
1.01485
1.0152
1.0149
1.01407
1.01243
1.01024
1.00753
1.00464
1.00161
0.998745
0.996191
0.994074
1.01505
1.01541
1.01511
1.01427
1.0126
1.01037
1.00761
1.00466
1.00158
0.998657
0.99606
0.99391
1.01525
1.01562
1.01533
1.01447
1.01277
1.0105
1.00769
1.00468
1.00154
0.998564
0.995923
0.993739
1.01546
1.01584
1.01554
1.01467
1.01295
1.01063
1.00777
1.00469
1.0015
0.998469
0.995783
0.993565
1.01567
1.01606
1.01576
1.01488
1.01313
1.01076
1.00784
1.00471
1.00146
0.99837
0.995638
0.993384
1.01589
1.01629
1.01599
1.01509
1.01331
1.0109
1.00792
1.00473
1.00141
0.998269
0.99549
0.993201
1.01611
1.01652
1.01622
1.0153
1.01349
1.01104
1.008
1.00475
1.00137
0.998163
0.995336
0.993011
1.01633
1.01676
1.01646
1.01553
1.01368
1.01118
1.00808
1.00476
1.00132
0.998054
0.99518
0.992817
1.01656
1.017
1.0167
1.01575
1.01387
1.01132
1.00816
1.00478
1.00127
0.997941
0.995017
0.992617
1.0168
1.01725
1.01694
1.01598
1.01407
1.01146
1.00825
1.00479
1.00121
0.997825
0.994851
0.992413
1.01704
1.0175
1.01719
1.01621
1.01427
1.01161
1.00833
1.0048
1.00116
0.997703
0.994678
0.992201
1.01728
1.01776
1.01745
1.01645
1.01447
1.01176
1.00841
1.00481
1.0011
0.99758
0.994502
0.991986
1.01753
1.01802
1.01771
1.0167
1.01468
1.01191
1.0085
1.00482
1.00104
0.99745
0.994319
0.991763
1.01779
1.01829
1.01797
1.01694
1.01489
1.01206
1.00858
1.00483
1.00097
0.997318
0.994133
0.991537
1.01805
1.01856
1.01825
1.0172
1.0151
1.01222
1.00867
1.00484
1.00091
0.99718
0.993939
0.991302
1.01831
1.01884
1.01852
1.01746
1.01532
1.01237
1.00875
1.00484
1.00084
0.997039
0.993742
0.991063
1.01858
1.01913
1.01881
1.01772
1.01554
1.01254
1.00884
1.00485
1.00076
0.996891
0.993537
0.990815
1.01886
1.01942
1.0191
1.01799
1.01577
1.0127
1.00892
1.00485
1.00069
0.996741
0.993329
0.990563
1.01914
1.01972
1.01939
1.01827
1.016
1.01287
1.00901
1.00485
1.0006
0.996584
0.993112
0.990303
1.01943
1.02003
1.0197
1.01855
1.01624
1.01303
1.0091
1.00485
1.00052
0.996423
0.992891
0.990037
1.01973
1.02034
1.02001
1.01884
1.01648
1.01321
1.00919
1.00485
1.00043
0.996256
0.992661
0.989763
1.02003
1.02066
1.02032
1.01913
1.01673
1.01338
1.00928
1.00485
1.00034
0.996084
0.992427
0.989483
1.02034
1.02099
1.02064
1.01943
1.01698
1.01356
1.00936
1.00484
1.00024
0.995905
0.992184
0.989193
1.02065
1.02132
1.02097
1.01974
1.01723
1.01374
1.00945
1.00483
1.00014
0.995722
0.991936
0.988898
1.02097
1.02166
1.02131
1.02005
1.01749
1.01392
1.00954
1.00482
1.00004
0.995531
0.991679
0.988593
1.0213
1.02201
1.02166
1.02037
1.01776
1.0141
1.00963
1.00481
0.99993
0.995336
0.991417
0.988282
1.02164
1.02236
1.02201
1.02069
1.01803
1.01429
1.00972
1.00479
0.999815
0.995133
0.991145
0.987961
1.02198
1.02273
1.02237
1.02103
1.01831
1.01448
1.00981
1.00477
0.999696
0.994924
0.990867
0.987633
1.02233
1.0231
1.02274
1.02137
1.01859
1.01468
1.0099
1.00475
0.999571
0.994707
0.990579
0.987295
1.02269
1.02348
1.02312
1.02172
1.01887
1.01487
1.00999
1.00473
0.999442
0.994484
0.990284
0.98695
1.02306
1.02387
1.0235
1.02207
1.01917
1.01507
1.01008
1.0047
0.999305
0.994253
0.98998
0.986593
1.02343
1.02427
1.0239
1.02244
1.01947
1.01527
1.01017
1.00467
0.999164
0.994015
0.989668
0.986229
1.02382
1.02468
1.0243
1.02281
1.01977
1.01548
1.01025
1.00463
0.999016
0.993768
0.989346
0.985854
1.02421
1.02509
1.02471
1.02319
1.02008
1.01569
1.01034
1.00459
0.998862
0.993514
0.989016
0.98547
1.02461
1.02552
1.02514
1.02358
1.0204
1.0159
1.01043
1.00455
0.998701
0.993251
0.988674
0.985075
1.02503
1.02596
1.02557
1.02398
1.02072
1.01611
1.01051
1.0045
0.998533
0.99298
0.988325
0.984671
1.02545
1.02641
1.02601
1.02439
1.02105
1.01633
1.0106
1.00445
0.998358
0.992699
0.987964
0.984254
1.02588
1.02686
1.02647
1.0248
1.02139
1.01655
1.01068
1.00439
0.998176
0.99241
0.987594
0.983828
1.02632
1.02733
1.02693
1.02523
1.02173
1.01677
1.01076
1.00433
0.997984
0.992109
0.987211
0.983389
1.02677
1.02781
1.02741
1.02567
1.02209
1.017
1.01084
1.00426
0.997786
0.9918
0.986819
0.982941
1.02723
1.02831
1.02789
1.02611
1.02244
1.01723
1.01092
1.00419
0.997578
0.99148
0.986414
0.982478
1.02771
1.02881
1.02839
1.02657
1.02281
1.01746
1.011
1.00411
0.997362
0.99115
0.986
0.982006
1.02819
1.02933
1.02891
1.02704
1.02318
1.01769
1.01107
1.00403
0.997136
0.990807
0.98557
0.981518
1.02869
1.02986
1.02943
1.02752
1.02356
1.01793
1.01115
1.00394
0.996901
0.990455
0.985131
0.98102
1.0292
1.0304
1.02997
1.02801
1.02395
1.01817
1.01121
1.00384
0.996654
0.990088
0.984677
0.980507
1.02972
1.03096
1.03052
1.02851
1.02435
1.01841
1.01128
1.00373
0.996398
0.989712
0.984211
0.979982
1.03026
1.03153
1.03109
1.02903
1.02475
1.01865
1.01134
1.00361
0.99613
0.98932
0.98373
0.979441
1.03081
1.03211
1.03167
1.02956
1.02516
1.0189
1.0114
1.00349
0.995851
0.988917
0.983237
0.978888
1.03137
1.03271
1.03227
1.0301
1.02558
1.01915
1.01145
1.00336
0.995558
0.988498
0.982727
0.978318
1.03195
1.03333
1.03288
1.03065
1.02601
1.0194
1.0115
1.00321
0.995255
0.988067
0.982204
0.977736
1.03254
1.03396
1.03351
1.03122
1.02645
1.01965
1.01155
1.00306
0.994936
0.98762
0.981664
0.977135
1.03314
1.03461
1.03415
1.0318
1.0269
1.0199
1.01159
1.0029
0.994605
0.987158
0.98111
0.976522
1.03377
1.03528
1.03481
1.0324
1.02735
1.02015
1.01162
1.00272
0.994257
0.986679
0.980538
0.975889
1.03441
1.03596
1.03549
1.03301
1.02782
1.02041
1.01164
1.00253
0.993896
0.986186
0.979951
0.975242
1.03506
1.03667
1.03619
1.03364
1.02829
1.02066
1.01166
1.00233
0.993517
0.985673
0.979344
0.974576
1.03573
1.03739
1.03691
1.03428
1.02877
1.02092
1.01167
1.00212
0.993123
0.985144
0.978722
0.973895
1.03642
1.03813
1.03765
1.03494
1.02926
1.02117
1.01167
1.00189
0.99271
0.984595
0.978079
0.973193
1.03713
1.0389
1.03841
1.03562
1.02976
1.02142
1.01166
1.00164
0.99228
0.984029
0.977419
0.972475
1.03786
1.03968
1.03919
1.03632
1.03027
1.02167
1.01164
1.00138
0.99183
0.983441
0.976738
0.971736
1.03861
1.04049
1.04
1.03703
1.03078
1.02192
1.01161
1.0011
0.991361
0.982835
0.976039
0.97098
1.03938
1.04132
1.04082
1.03776
1.03131
1.02217
1.01156
1.0008
0.990869
0.982205
0.975316
0.970201
1.04017
1.04218
1.04167
1.03851
1.03184
1.02241
1.01151
1.00049
0.990357
0.981555
0.974575
0.969405
1.04099
1.04306
1.04255
1.03928
1.03239
1.02264
1.01143
1.00015
0.98982
0.98088
0.97381
0.968585
1.04182
1.04396
1.04345
1.04008
1.03294
1.02288
1.01134
0.999788
0.98926
0.980183
0.973024
0.967746
1.04268
1.0449
1.04438
1.04089
1.0335
1.0231
1.01123
0.999404
0.988674
0.97946
0.972212
0.966883
1.04357
1.04586
1.04534
1.04172
1.03406
1.02332
1.01111
0.998996
0.988063
0.978713
0.971379
0.966
1.04448
1.04685
1.04633
1.04258
1.03464
1.02353
1.01096
0.99856
0.987422
0.977937
0.970519
0.965091
1.04542
1.04788
1.04735
1.04346
1.03522
1.02373
1.01079
0.998098
0.986755
0.977136
0.969635
0.964161
1.04639
1.04893
1.0484
1.04436
1.03581
1.02391
1.0106
0.997604
0.986055
0.976305
0.968724
0.963205
1.04739
1.05002
1.04949
1.04528
1.0364
1.02408
1.01038
0.99708
0.985325
0.975446
0.967788
0.962226
1.04842
1.05115
1.05061
1.04623
1.03699
1.02424
1.01013
0.996522
0.984561
0.974555
0.966822
0.96122
1.04948
1.05231
1.05177
1.0472
1.03759
1.02438
1.00985
0.995929
0.983764
0.973634
0.965829
0.96019
1.05058
1.05352
1.05296
1.0482
1.03819
1.0245
1.00954
0.995298
0.982929
0.972679
0.964806
0.959131
1.05171
1.05476
1.0542
1.04923
1.03879
1.02459
1.00919
0.994629
0.982058
0.971692
0.963755
0.958048
1.05287
1.05605
1.05547
1.05028
1.0394
1.02466
1.0088
0.993916
0.981146
0.970668
0.962671
0.956934
1.05408
1.05738
1.05679
1.05135
1.03999
1.02471
1.00837
0.99316
0.980195
0.96961
0.961557
0.955795
1.05533
1.05875
1.05816
1.05245
1.04058
1.02472
1.00789
0.992356
0.979199
0.968513
0.960409
0.954625
1.05661
1.06018
1.05957
1.05358
1.04117
1.02469
1.00737
0.991504
0.97816
0.967379
0.95923
0.953427
1.05795
1.06166
1.06104
1.05473
1.04174
1.02463
1.00679
0.990599
0.977073
0.966204
0.958016
0.952198
1.05933
1.0632
1.06255
1.05591
1.0423
1.02452
1.00616
0.989639
0.97594
0.964989
0.956768
0.95094
1.06075
1.06479
1.06412
1.05711
1.04285
1.02436
1.00547
0.988621
0.974755
0.963731
0.955483
0.949648
1.06223
1.06645
1.06575
1.05834
1.04337
1.02414
1.00471
0.987542
0.973519
0.962431
0.954163
0.948327
1.06376
1.06817
1.06743
1.05958
1.04386
1.02387
1.00388
0.986398
0.972227
0.961085
0.952805
0.946972
1.06535
1.06996
1.06917
1.06085
1.04432
1.02353
1.00298
0.985188
0.970881
0.959695
0.951411
0.945586
1.067
1.07182
1.07098
1.06213
1.04475
1.02312
1.00199
0.983905
0.969475
0.958256
0.949976
0.944164
1.06871
1.07376
1.07285
1.06343
1.04512
1.02262
1.00093
0.982549
0.968011
0.956771
0.948503
0.94271
1.07049
1.07578
1.0748
1.06475
1.04545
1.02204
0.999764
0.981115
0.966483
0.955235
0.946989
0.94122
1.07234
1.07789
1.07681
1.06606
1.04571
1.02136
0.998507
0.9796
0.964893
0.95365
0.945436
0.939696
1.07426
1.0801
1.07889
1.06739
1.0459
1.02057
0.997144
0.978
0.963235
0.952012
0.94384
0.938135
1.07627
1.0824
1.08105
1.0687
1.04601
1.01966
0.995672
0.976312
0.961511
0.950323
0.942204
0.93654
1.07835
1.08481
1.08328
1.07001
1.04602
1.01863
0.994082
0.974532
0.959716
0.94858
0.940524
0.934906
1.08053
1.08733
1.08559
1.07129
1.04593
1.01745
0.992369
0.972658
0.957851
0.946783
0.938802
0.933237
1.0828
1.08997
1.08798
1.07254
1.04571
1.01612
0.990525
0.970684
0.955913
0.94493
0.937036
0.931529
1.08517
1.09274
1.09044
1.07375
1.04534
1.01463
0.988544
0.968611
0.953902
0.943023
0.935227
0.929785
1.08766
1.09565
1.09298
1.0749
1.04482
1.01296
0.986419
0.966432
0.951814
0.941058
0.933372
0.928003
1.09026
1.0987
1.09559
1.07597
1.04411
1.0111
0.984142
0.964148
0.949651
0.939038
0.931475
0.926185
1.09298
1.10191
1.09827
1.07695
1.0432
1.00903
0.981709
0.961755
0.94741
0.93696
0.929532
0.924329
1.09585
1.10529
1.101
1.0778
1.04206
1.00673
0.979113
0.959252
0.945093
0.934825
0.927545
0.922436
1.09886
1.10885
1.10379
1.07851
1.04066
1.0042
0.976348
0.956637
0.942697
0.932633
0.925513
0.920506
1.10203
1.11259
1.10662
1.07904
1.03898
1.00141
0.973411
0.953909
0.940224
0.930385
0.923437
0.918539
1.10537
1.11653
1.10946
1.07936
1.03698
0.998358
0.970297
0.951069
0.937673
0.928079
0.921317
0.916535
1.1089
1.12068
1.11232
1.07942
1.03463
0.995021
0.967004
0.948117
0.935046
0.925719
0.919153
0.914496
1.11265
1.12505
1.11514
1.07918
1.0319
0.991388
0.963531
0.945054
0.932343
0.923303
0.916946
0.912419
1.11662
1.12965
1.11791
1.07858
1.02874
0.987448
0.959879
0.941882
0.929566
0.920834
0.914698
0.910308
1.12084
1.13449
1.12058
1.07757
1.02512
0.98319
0.956048
0.938604
0.926717
0.918312
0.912407
0.908161
1.12534
1.13956
1.12311
1.07608
1.021
0.978608
0.952045
0.935224
0.923798
0.91574
0.910077
0.905981
1.13015
1.14487
1.12543
1.07404
1.01634
0.9737
0.947874
0.931747
0.920812
0.91312
0.907707
0.903766
1.13529
1.15041
1.12747
1.07137
1.01112
0.968465
0.943546
0.928177
0.917762
0.910454
0.905301
0.90152
1.14082
1.15617
1.12914
1.06799
1.00529
0.96291
0.93907
0.924521
0.914652
0.907744
0.902858
0.899241
1.14677
1.16213
1.13034
1.06379
0.998828
0.957047
0.934462
0.920787
0.911487
0.904994
0.900381
0.896933
1.15319
1.16825
1.13096
1.05869
0.991716
0.950896
0.929736
0.916981
0.908269
0.902208
0.897872
0.894594
1.16013
1.17447
1.13085
1.05258
0.983942
0.944482
0.924912
0.913112
0.905007
0.89939
0.895335
0.892228
1.16765
1.18073
1.12985
1.04537
0.975508
0.937841
0.92001
0.909188
0.901703
0.896544
0.89277
0.889835
1.17582
1.18692
1.12778
1.03696
0.966433
0.931015
0.91505
0.905218
0.898366
0.893675
0.890183
0.887417
1.18471
1.19291
1.12443
1.02727
0.956756
0.924055
0.910056
0.901211
0.895002
0.89079
0.887574
0.884974
1.19438
1.19854
1.11956
1.01621
0.946537
0.91702
0.90505
0.897176
0.891619
0.887896
0.884951
0.88251
1.20492
1.20357
1.11294
1.00375
0.935864
0.909973
0.900051
0.893122
0.888225
0.884999
0.882314
0.880023
1.21637
1.20773
1.10429
0.989875
0.924851
0.902982
0.895078
0.889056
0.884833
0.882111
0.879674
0.877516
1.22881
1.21067
1.09334
0.97462
0.913644
0.896113
0.890148
0.88499
0.881452
0.87924
0.877035
0.874985
1.24226
1.21195
1.07979
0.958087
0.902413
0.889428
0.885269
0.880931
0.878099
0.876403
0.874411
0.872432
1.25672
1.21105
1.0634
0.94046
0.891351
0.882982
0.88045
0.876892
0.874787
0.873607
0.871798
0.86984
1.27211
1.2073
1.04394
0.922018
0.880655
0.876803
0.875686
0.872887
0.871552
0.870901
0.869242
0.867237
1.28829
1.19991
1.02128
0.903162
0.870544
0.870929
0.870974
0.868897
0.868344
0.868189
0.866621
0.864521
1.30493
1.18794
0.995423
0.884352
0.861125
0.865326
0.866385
0.865132
0.865487
0.865855
0.864257
0.861892
1.32153
1.17026
0.966752
0.86638
0.85269
0.859818
0.861418
0.860858
0.862067
0.863005
0.861357
0.858809
1.33712
1.1455
0.935683
0.84941
0.84568
0.855743
0.858063
0.858324
0.86023
0.861321
0.859086
0.855988
1.35058
1.11285
0.9052
0.833459
0.836852
0.848551
0.85181
0.853696
0.857226
0.858983
0.856318
0.852679
1.3583
1.06814
0.879771
0.827526
0.83665
0.847535
0.849748
0.85188
0.856168
0.858106
0.854894
0.850821
1.36157
0.997546
0.831122
0.804198
0.826241
0.842275
0.846883
0.850631
0.855935
0.858159
0.854887
0.850825
0.996172
0.997097
0.998221
0.99863
0.998521
0.998335
0.998306
0.998411
0.998508
0.998485
0.998328
0.998113
0.996848
0.997412
0.998256
0.998596
0.998518
0.998365
0.998334
0.998414
0.998489
0.99846
0.998314
0.998115
0.997386
0.997572
0.998146
0.998466
0.998472
0.99838
0.998347
0.998388
0.998431
0.998401
0.998277
0.998106
0.997649
0.997639
0.998068
0.998406
0.99849
0.998435
0.998379
0.99837
0.99838
0.998352
0.998254
0.998112
0.997805
0.997729
0.998075
0.998405
0.998512
0.998458
0.998371
0.998325
0.998318
0.9983
0.99823
0.998116
0.997962
0.997859
0.998129
0.998412
0.998504
0.998442
0.998343
0.998286
0.998277
0.998272
0.998223
0.99813
0.998126
0.997995
0.998182
0.9984
0.998471
0.998413
0.998323
0.99827
0.998262
0.998261
0.998221
0.998139
0.998267
0.998104
0.998214
0.998377
0.998436
0.998392
0.998318
0.998271
0.998258
0.998251
0.998214
0.998141
0.998368
0.99818
0.998235
0.99836
0.998415
0.998385
0.998322
0.998274
0.998253
0.998241
0.998205
0.99814
0.998436
0.998237
0.998258
0.998357
0.998407
0.998384
0.998326
0.998277
0.998249
0.998232
0.998197
0.998138
0.998487
0.998289
0.998288
0.998365
0.998406
0.998383
0.998329
0.998279
0.998247
0.998226
0.998191
0.998135
0.998534
0.998341
0.998322
0.998378
0.998407
0.998384
0.998332
0.998282
0.998247
0.99822
0.998183
0.99813
0.99858
0.99839
0.998356
0.998392
0.99841
0.998385
0.998335
0.998284
0.998246
0.998214
0.998175
0.998123
0.998622
0.998435
0.998387
0.998407
0.998416
0.998388
0.998338
0.998286
0.998243
0.998208
0.998167
0.998117
0.998658
0.998474
0.998416
0.998422
0.998423
0.998392
0.998341
0.998286
0.99824
0.998202
0.998159
0.99811
0.998689
0.998509
0.998443
0.998438
0.99843
0.998395
0.998342
0.998286
0.998237
0.998196
0.998152
0.998103
0.998716
0.99854
0.998468
0.998453
0.998437
0.998398
0.998342
0.998285
0.998234
0.99819
0.998144
0.998094
0.99874
0.998567
0.99849
0.998466
0.998443
0.9984
0.998342
0.998283
0.998231
0.998184
0.998136
0.998084
0.99876
0.99859
0.998509
0.998477
0.998448
0.998402
0.998343
0.998282
0.998226
0.998177
0.998126
0.998072
0.998777
0.99861
0.998524
0.998487
0.998453
0.998404
0.998342
0.998279
0.998221
0.998169
0.998115
0.99806
0.998789
0.998625
0.998537
0.998496
0.998457
0.998405
0.998341
0.998276
0.998215
0.998159
0.998103
0.998048
0.998799
0.998638
0.998548
0.998503
0.998461
0.998406
0.998339
0.998271
0.998207
0.998149
0.998092
0.998035
0.998806
0.998648
0.998558
0.998509
0.998463
0.998405
0.998335
0.998265
0.998199
0.998139
0.99808
0.998024
0.998811
0.998657
0.998565
0.998513
0.998464
0.998402
0.99833
0.998257
0.99819
0.998129
0.998069
0.998013
0.998816
0.998663
0.998571
0.998515
0.998462
0.998398
0.998324
0.99825
0.998181
0.998119
0.998059
0.998003
0.998818
0.998668
0.998574
0.998515
0.998459
0.998393
0.998317
0.998242
0.998172
0.99811
0.99805
0.997994
0.998819
0.99867
0.998575
0.998513
0.998455
0.998386
0.99831
0.998234
0.998164
0.998101
0.998041
0.997985
0.998819
0.998671
0.998574
0.99851
0.998449
0.998379
0.998302
0.998226
0.998155
0.998092
0.998031
0.997975
0.998817
0.998669
0.998571
0.998505
0.998442
0.998372
0.998295
0.998218
0.998147
0.998084
0.998022
0.997965
0.998814
0.998667
0.998567
0.998499
0.998435
0.998364
0.998287
0.99821
0.998138
0.998074
0.998012
0.997954
0.99881
0.998663
0.998563
0.998492
0.998428
0.998357
0.998279
0.998202
0.998129
0.998064
0.998
0.997942
0.998805
0.998659
0.998557
0.998485
0.99842
0.998349
0.998271
0.998192
0.998119
0.998052
0.997988
0.997929
0.9988
0.998655
0.998552
0.998478
0.998413
0.998341
0.998262
0.998183
0.998108
0.99804
0.997974
0.997915
0.998795
0.99865
0.998546
0.998471
0.998404
0.998332
0.998252
0.998172
0.998095
0.998026
0.997959
0.9979
0.99879
0.998645
0.998539
0.998463
0.998396
0.998322
0.998242
0.998159
0.998081
0.998011
0.997944
0.997884
0.998785
0.998639
0.998533
0.998455
0.998386
0.998312
0.99823
0.998146
0.998067
0.997995
0.997927
0.997866
0.998779
0.998633
0.998525
0.998446
0.998376
0.998301
0.998218
0.998132
0.998051
0.997978
0.997909
0.997848
0.998772
0.998626
0.998516
0.998436
0.998365
0.998289
0.998205
0.998117
0.998035
0.99796
0.99789
0.997829
0.998764
0.998618
0.998507
0.998425
0.998354
0.998277
0.998191
0.998102
0.998017
0.997942
0.997871
0.99781
0.998755
0.998608
0.998496
0.998414
0.998341
0.998263
0.998176
0.998085
0.998
0.997923
0.997851
0.997789
0.998745
0.998597
0.998484
0.998401
0.998328
0.99825
0.998161
0.998069
0.997981
0.997903
0.997831
0.997769
0.998733
0.998585
0.998471
0.998388
0.998315
0.998235
0.998145
0.998051
0.997962
0.997883
0.99781
0.997747
0.99872
0.998571
0.998457
0.998374
0.9983
0.99822
0.998129
0.998033
0.997943
0.997863
0.997789
0.997726
0.998705
0.998556
0.998442
0.998359
0.998285
0.998204
0.998112
0.998015
0.997923
0.997842
0.997768
0.997705
0.998689
0.99854
0.998426
0.998343
0.99827
0.998188
0.998094
0.997996
0.997904
0.997821
0.997746
0.997683