1.275 	2.15223e-18 	-2.76991e-20 	-0.0324341 	-0.000482962 	-2.04009e-22
1.825 	2.15223e-18 	-1.39322e-20 	-0.00743446 	-0.00296628 	1.8142e-21
2.375 	2.15223e-18 	-2.66896e-23 	0.130322 	-0.00374742 	-7.50191e-22
