1.45 	0 	0 	-0.294801
2.35 	0 	0 	-0.129737
