1.45 	0 	0 	-0.00722961 	-0.0026238 	3.87091e-21
2.35 	0 	0 	0.0637296 	-0.00671063 	2.40106e-21
