/*--------------------------------*- C++ -*----------------------------------*\
  =========                 |
  \\      /  F ield         | OpenFOAM: The Open Source CFD Toolbox
   \\    /   O peration     | Website:  https://openfoam.org
    \\  /    A nd           | Version:  6.0
     \\/     M anipulation  |
\*---------------------------------------------------------------------------*/
FoamFile
{
    version     2.0;
    format      ascii;
    class       volScalarField;
    location    "190";
    object      p;
}
// * * * * * * * * * * * * * * * * * * * * * * * * * * * * * * * * * * * * * //

dimensions      [0 2 -2 0 0 0 0];

internalField   nonuniform List<scalar> 
34500
(
1.0057
1.00578
1.0057
1.00545
1.00508
1.00462
1.00409
1.00352
1.00295
1.0024
1.00188
1.00144
1.001
1.00076
1.00065
1.0057
1.00582
1.00579
1.00562
1.00533
1.00495
1.00449
1.00398
1.00343
1.00287
1.00232
1.00182
1.00131
1.00105
1.00085
1.0057
1.00581
1.00576
1.00555
1.00523
1.00481
1.00431
1.00377
1.0032
1.00264
1.0021
1.00162
1.00115
1.00096
1.00076
1.00571
1.0058
1.00573
1.0055
1.00515
1.0047
1.00418
1.00362
1.00305
1.00249
1.00196
1.00151
1.00107
1.00093
1.00079
1.00571
1.00581
1.00575
1.00552
1.00517
1.00473
1.00422
1.00366
1.00309
1.00253
1.002
1.00155
1.00112
1.00099
1.00087
1.00572
1.00582
1.00577
1.00556
1.00522
1.00478
1.00427
1.00372
1.00315
1.00259
1.00206
1.0016
1.00116
1.00102
1.00091
1.00573
1.00584
1.00578
1.00557
1.00524
1.0048
1.0043
1.00374
1.00317
1.00261
1.00207
1.0016
1.00116
1.00103
1.00093
1.00574
1.00585
1.00579
1.00558
1.00525
1.00481
1.0043
1.00375
1.00317
1.0026
1.00206
1.0016
1.00117
1.00104
1.00095
1.00575
1.00586
1.0058
1.0056
1.00526
1.00483
1.00432
1.00376
1.00318
1.00261
1.00207
1.00161
1.00118
1.00105
1.00096
1.00576
1.00587
1.00582
1.00561
1.00528
1.00485
1.00434
1.00378
1.0032
1.00263
1.00208
1.00162
1.00119
1.00105
1.00097
1.00578
1.00588
1.00583
1.00563
1.0053
1.00487
1.00436
1.0038
1.00322
1.00265
1.0021
1.00163
1.0012
1.00105
1.00097
1.00579
1.0059
1.00585
1.00565
1.00532
1.00489
1.00438
1.00382
1.00323
1.00266
1.00211
1.00164
1.00121
1.00105
1.00096
1.00581
1.00592
1.00587
1.00567
1.00534
1.00491
1.0044
1.00384
1.00325
1.00267
1.00212
1.00164
1.00121
1.00104
1.00095
1.00583
1.00594
1.00589
1.00569
1.00536
1.00493
1.00442
1.00385
1.00326
1.00268
1.00212
1.00165
1.00121
1.00103
1.00094
1.00585
1.00596
1.00591
1.00571
1.00538
1.00495
1.00443
1.00387
1.00328
1.00269
1.00213
1.00165
1.00121
1.00102
1.00092
1.00587
1.00598
1.00593
1.00573
1.0054
1.00497
1.00445
1.00388
1.00329
1.0027
1.00213
1.00165
1.00121
1.00101
1.0009
1.00589
1.006
1.00595
1.00576
1.00543
1.00499
1.00447
1.0039
1.0033
1.00271
1.00214
1.00165
1.00121
1.001
1.00088
1.00591
1.00602
1.00598
1.00578
1.00545
1.00501
1.00449
1.00392
1.00331
1.00272
1.00214
1.00165
1.00121
1.00098
1.00086
1.00593
1.00605
1.006
1.00581
1.00548
1.00504
1.00451
1.00394
1.00333
1.00273
1.00215
1.00165
1.00121
1.00097
1.00083
1.00596
1.00608
1.00603
1.00584
1.0055
1.00507
1.00454
1.00396
1.00335
1.00274
1.00216
1.00165
1.0012
1.00095
1.0008
1.00599
1.0061
1.00606
1.00586
1.00553
1.00509
1.00456
1.00398
1.00336
1.00275
1.00216
1.00165
1.0012
1.00093
1.00077
1.00601
1.00613
1.00609
1.00589
1.00556
1.00512
1.00459
1.004
1.00338
1.00276
1.00216
1.00164
1.00119
1.00091
1.00074
1.00604
1.00616
1.00612
1.00592
1.00559
1.00515
1.00461
1.00402
1.00339
1.00277
1.00217
1.00164
1.00118
1.00088
1.00071
1.00607
1.00619
1.00615
1.00595
1.00562
1.00517
1.00463
1.00403
1.0034
1.00277
1.00216
1.00163
1.00116
1.00086
1.00067
1.00611
1.00623
1.00618
1.00599
1.00565
1.0052
1.00466
1.00405
1.00341
1.00278
1.00216
1.00162
1.00115
1.00083
1.00064
1.00614
1.00626
1.00621
1.00602
1.00568
1.00522
1.00468
1.00407
1.00342
1.00278
1.00216
1.00161
1.00113
1.00081
1.0006
1.00617
1.0063
1.00625
1.00605
1.00571
1.00525
1.0047
1.00409
1.00344
1.00279
1.00216
1.0016
1.00112
1.00078
1.00056
1.00621
1.00633
1.00629
1.00609
1.00574
1.00528
1.00473
1.00411
1.00345
1.00279
1.00216
1.00159
1.0011
1.00076
1.00053
1.00625
1.00637
1.00632
1.00613
1.00578
1.00531
1.00475
1.00413
1.00346
1.0028
1.00216
1.00159
1.00109
1.00073
1.00049
1.00629
1.00641
1.00636
1.00616
1.00581
1.00535
1.00478
1.00415
1.00348
1.00281
1.00216
1.00158
1.00107
1.0007
1.00045
1.00633
1.00645
1.0064
1.0062
1.00585
1.00538
1.00481
1.00417
1.00349
1.00282
1.00216
1.00157
1.00105
1.00067
1.00041
1.00637
1.00649
1.00645
1.00624
1.00589
1.00542
1.00484
1.0042
1.00351
1.00282
1.00216
1.00156
1.00103
1.00064
1.00036
1.00641
1.00654
1.00649
1.00629
1.00593
1.00545
1.00487
1.00422
1.00353
1.00283
1.00215
1.00154
1.00101
1.0006
1.00032
1.00645
1.00658
1.00653
1.00633
1.00597
1.00549
1.0049
1.00424
1.00354
1.00283
1.00215
1.00153
1.00099
1.00057
1.00028
1.0065
1.00663
1.00658
1.00638
1.00601
1.00553
1.00493
1.00427
1.00356
1.00284
1.00214
1.00151
1.00096
1.00053
1.00023
1.00655
1.00668
1.00663
1.00642
1.00605
1.00556
1.00496
1.00429
1.00357
1.00284
1.00214
1.0015
1.00094
1.0005
1.00018
1.0066
1.00672
1.00667
1.00647
1.0061
1.0056
1.00499
1.00431
1.00358
1.00285
1.00213
1.00148
1.00091
1.00046
1.00013
1.00665
1.00677
1.00672
1.00651
1.00614
1.00564
1.00502
1.00433
1.0036
1.00285
1.00212
1.00146
1.00088
1.00042
1.00008
1.0067
1.00683
1.00677
1.00656
1.00618
1.00568
1.00506
1.00436
1.00361
1.00285
1.00212
1.00144
1.00085
1.00038
1.00003
1.00675
1.00688
1.00683
1.00661
1.00623
1.00572
1.00509
1.00438
1.00362
1.00286
1.00211
1.00142
1.00082
1.00034
0.999983
1.0068
1.00693
1.00688
1.00666
1.00628
1.00576
1.00512
1.0044
1.00364
1.00286
1.0021
1.0014
1.00079
1.0003
0.999931
1.00686
1.00699
1.00694
1.00672
1.00633
1.0058
1.00516
1.00443
1.00365
1.00286
1.00209
1.00138
1.00076
1.00025
0.999877
1.00692
1.00705
1.00699
1.00677
1.00638
1.00584
1.00519
1.00445
1.00366
1.00286
1.00208
1.00136
1.00072
1.00021
0.999823
1.00697
1.00711
1.00705
1.00683
1.00643
1.00589
1.00523
1.00448
1.00368
1.00286
1.00207
1.00133
1.00069
1.00016
0.999767
1.00704
1.00717
1.00711
1.00689
1.00648
1.00593
1.00526
1.00451
1.00369
1.00287
1.00206
1.00131
1.00065
1.00011
0.99971
1.0071
1.00723
1.00717
1.00695
1.00653
1.00598
1.0053
1.00453
1.00371
1.00287
1.00205
1.00129
1.00062
1.00007
0.999652
1.00716
1.0073
1.00724
1.00701
1.00659
1.00603
1.00534
1.00456
1.00372
1.00287
1.00204
1.00126
1.00058
1.00002
0.999592
1.00722
1.00736
1.0073
1.00707
1.00665
1.00608
1.00538
1.00459
1.00374
1.00287
1.00202
1.00124
1.00054
0.999966
0.999531
1.00729
1.00743
1.00737
1.00713
1.00671
1.00613
1.00542
1.00462
1.00376
1.00288
1.00201
1.00121
1.0005
0.999914
0.999468
1.00736
1.0075
1.00744
1.0072
1.00677
1.00618
1.00546
1.00465
1.00377
1.00288
1.002
1.00118
1.00046
0.999859
0.999404
1.00743
1.00757
1.00751
1.00727
1.00683
1.00624
1.00551
1.00468
1.00379
1.00288
1.00198
1.00115
1.00042
0.999804
0.999338
1.0075
1.00765
1.00758
1.00733
1.00689
1.00629
1.00555
1.00471
1.0038
1.00288
1.00197
1.00112
1.00037
0.999747
0.99927
1.00757
1.00772
1.00765
1.0074
1.00695
1.00635
1.00559
1.00474
1.00382
1.00288
1.00195
1.00109
1.00033
0.999689
0.999202
1.00765
1.0078
1.00773
1.00747
1.00702
1.0064
1.00564
1.00477
1.00384
1.00288
1.00194
1.00106
1.00028
0.999628
0.999131
1.00772
1.00787
1.0078
1.00755
1.00708
1.00646
1.00568
1.0048
1.00385
1.00288
1.00192
1.00103
1.00023
0.999567
0.999059
1.0078
1.00795
1.00788
1.00762
1.00715
1.00652
1.00573
1.00483
1.00387
1.00288
1.0019
1.00099
1.00018
0.999503
0.998985
1.00788
1.00803
1.00796
1.0077
1.00722
1.00657
1.00578
1.00487
1.00388
1.00287
1.00188
1.00095
1.00013
0.999439
0.99891
1.00797
1.00812
1.00804
1.00777
1.00729
1.00663
1.00582
1.0049
1.0039
1.00287
1.00186
1.00092
1.00008
0.999373
0.998833
1.00805
1.0082
1.00813
1.00785
1.00736
1.0067
1.00587
1.00493
1.00391
1.00287
1.00184
1.00088
1.00002
0.999306
0.998754
1.00813
1.00829
1.00821
1.00793
1.00743
1.00676
1.00592
1.00496
1.00393
1.00287
1.00182
1.00084
0.999967
0.999236
0.998673
1.00822
1.00838
1.0083
1.00802
1.00751
1.00682
1.00597
1.005
1.00395
1.00287
1.0018
1.0008
0.999911
0.999166
0.998591
1.00831
1.00847
1.00839
1.0081
1.00759
1.00689
1.00602
1.00504
1.00397
1.00287
1.00178
1.00076
0.999853
0.999093
0.998507
1.0084
1.00856
1.00848
1.00819
1.00766
1.00696
1.00608
1.00507
1.00398
1.00286
1.00176
1.00072
0.999794
0.999019
0.998421
1.00849
1.00866
1.00857
1.00828
1.00774
1.00703
1.00613
1.00511
1.004
1.00286
1.00174
1.00068
0.999733
0.998942
0.998332
1.00859
1.00876
1.00867
1.00837
1.00783
1.0071
1.00619
1.00515
1.00402
1.00286
1.00171
1.00064
0.999671
0.998865
0.998242
1.00869
1.00886
1.00876
1.00846
1.00791
1.00717
1.00625
1.00519
1.00404
1.00286
1.00169
1.00059
0.999607
0.998784
0.998149
1.00879
1.00896
1.00886
1.00856
1.008
1.00724
1.0063
1.00523
1.00406
1.00285
1.00166
1.00054
0.999542
0.998703
0.998055
1.00889
1.00906
1.00897
1.00865
1.00808
1.00732
1.00636
1.00527
1.00408
1.00285
1.00164
1.0005
0.999474
0.998618
0.997957
1.00899
1.00917
1.00907
1.00875
1.00817
1.00739
1.00642
1.00531
1.0041
1.00285
1.00161
1.00045
0.999405
0.998532
0.997859
1.0091
1.00927
1.00917
1.00885
1.00827
1.00747
1.00648
1.00535
1.00411
1.00284
1.00158
1.0004
0.999334
0.998444
0.997757
1.0092
1.00938
1.00928
1.00896
1.00836
1.00755
1.00655
1.00539
1.00413
1.00284
1.00155
1.00034
0.999262
0.998354
0.997654
1.00931
1.0095
1.00939
1.00906
1.00845
1.00763
1.00661
1.00543
1.00415
1.00283
1.00152
1.00029
0.999187
0.998262
0.997547
1.00943
1.00961
1.00951
1.00917
1.00855
1.00772
1.00667
1.00548
1.00417
1.00283
1.00149
1.00024
0.999111
0.998168
0.997439
1.00954
1.00973
1.00962
1.00928
1.00865
1.0078
1.00674
1.00552
1.00419
1.00282
1.00146
1.00018
0.999033
0.998071
0.997328
1.00966
1.00985
1.00974
1.00939
1.00875
1.00789
1.00681
1.00557
1.00421
1.00281
1.00143
1.00012
0.998954
0.997973
0.997215
1.00978
1.00997
1.00986
1.0095
1.00885
1.00798
1.00688
1.00561
1.00423
1.00281
1.0014
1.00007
0.998872
0.997872
0.997099
1.0099
1.0101
1.00998
1.00962
1.00896
1.00807
1.00695
1.00566
1.00426
1.0028
1.00136
1.00001
0.998789
0.997769
0.99698
1.01003
1.01022
1.01011
1.00974
1.00907
1.00816
1.00702
1.00571
1.00428
1.0028
1.00133
0.999945
0.998704
0.997663
0.996858
1.01015
1.01035
1.01023
1.00986
1.00918
1.00825
1.00709
1.00576
1.0043
1.00279
1.00129
0.999883
0.998616
0.997555
0.996734
1.01028
1.01049
1.01036
1.00998
1.00929
1.00835
1.00717
1.00581
1.00432
1.00278
1.00126
0.999818
0.998526
0.997443
0.996607
1.01041
1.01062
1.0105
1.01011
1.00941
1.00845
1.00725
1.00586
1.00434
1.00277
1.00122
0.999752
0.998435
0.99733
0.996477
1.01055
1.01076
1.01063
1.01024
1.00952
1.00855
1.00732
1.00591
1.00437
1.00277
1.00118
0.999684
0.99834
0.997214
0.996344
1.01069
1.0109
1.01077
1.01037
1.00964
1.00865
1.0074
1.00596
1.00439
1.00276
1.00114
0.999614
0.998244
0.997095
0.996208
1.01083
1.01104
1.01091
1.01051
1.00976
1.00875
1.00748
1.00602
1.00441
1.00275
1.0011
0.999542
0.998145
0.996974
0.996069
1.01097
1.01119
1.01105
1.01064
1.00989
1.00886
1.00757
1.00607
1.00444
1.00274
1.00106
0.999469
0.998044
0.99685
0.995927
1.01111
1.01134
1.0112
1.01078
1.01001
1.00897
1.00765
1.00612
1.00446
1.00273
1.00101
0.999394
0.99794
0.996722
0.995782
1.01126
1.01149
1.01135
1.01093
1.01014
1.00908
1.00774
1.00618
1.00448
1.00272
1.00097
0.999318
0.997835
0.996593
0.995633
1.01141
1.01165
1.0115
1.01107
1.01028
1.00919
1.00782
1.00624
1.00451
1.00271
1.00092
0.999239
0.997727
0.99646
0.995481
1.01157
1.01181
1.01166
1.01122
1.01041
1.0093
1.00791
1.0063
1.00453
1.0027
1.00088
0.999159
0.997617
0.996324
0.995327
1.01172
1.01197
1.01182
1.01137
1.01055
1.00942
1.008
1.00636
1.00456
1.00268
1.00083
0.999076
0.997503
0.996185
0.995167
1.01189
1.01213
1.01198
1.01153
1.01069
1.00954
1.0081
1.00642
1.00458
1.00267
1.00078
0.998992
0.997388
0.996044
0.995006
1.01205
1.0123
1.01215
1.01169
1.01083
1.00966
1.00819
1.00648
1.00461
1.00266
1.00073
0.998905
0.997269
0.995898
0.994839
1.01222
1.01247
1.01232
1.01185
1.01098
1.00979
1.00829
1.00654
1.00463
1.00265
1.00068
0.998817
0.997148
0.99575
0.99467
1.01239
1.01265
1.01249
1.01201
1.01113
1.00992
1.00839
1.00661
1.00466
1.00263
1.00062
0.998726
0.997024
0.995598
0.994497
1.01256
1.01283
1.01266
1.01218
1.01128
1.01005
1.00849
1.00667
1.00469
1.00262
1.00057
0.998634
0.996897
0.995443
0.99432
1.01274
1.01301
1.01284
1.01235
1.01144
1.01018
1.00859
1.00674
1.00471
1.0026
1.00051
0.998538
0.996767
0.995284
0.994138
1.01292
1.0132
1.01303
1.01253
1.0116
1.01032
1.0087
1.00681
1.00474
1.00259
1.00045
0.998441
0.996634
0.995122
0.993954
1.0131
1.01339
1.01321
1.01271
1.01176
1.01045
1.0088
1.00688
1.00477
1.00257
1.00039
0.998341
0.996498
0.994955
0.993764
1.01329
1.01358
1.0134
1.01289
1.01192
1.0106
1.00891
1.00695
1.0048
1.00256
1.00033
0.998238
0.996359
0.994786
0.993571
1.01348
1.01378
1.0136
1.01308
1.01209
1.01074
1.00902
1.00702
1.00482
1.00254
1.00027
0.998133
0.996216
0.994611
0.993373
1.01367
1.01398
1.0138
1.01327
1.01227
1.01089
1.00914
1.00709
1.00485
1.00252
1.00021
0.998025
0.996071
0.994434
0.993172
1.01387
1.01419
1.014
1.01346
1.01244
1.01104
1.00925
1.00717
1.00488
1.0025
1.00014
0.997915
0.995921
0.994253
0.992965
1.01408
1.01439
1.01421
1.01366
1.01262
1.01119
1.00937
1.00724
1.00491
1.00248
1.00007
0.997802
0.995769
0.994068
0.992755
1.01428
1.01461
1.01442
1.01386
1.0128
1.01134
1.00949
1.00732
1.00494
1.00246
1
0.997686
0.995612
0.993878
0.992539
1.01449
1.01483
1.01463
1.01407
1.01299
1.0115
1.00961
1.0074
1.00497
1.00244
0.99993
0.997568
0.995453
0.993685
0.99232
1.01471
1.01505
1.01485
1.01428
1.01318
1.01167
1.00974
1.00748
1.005
1.00241
0.999855
0.997446
0.99529
0.993486
0.992095
1.01493
1.01528
1.01508
1.01449
1.01338
1.01183
1.00986
1.00756
1.00503
1.00239
0.99978
0.997322
0.995123
0.993284
0.991866
1.01515
1.01551
1.0153
1.01471
1.01358
1.012
1.00999
1.00764
1.00506
1.00236
0.999702
0.997194
0.994952
0.993077
0.991631
1.01538
1.01574
1.01554
1.01494
1.01378
1.01217
1.01013
1.00772
1.00509
1.00234
0.999622
0.997064
0.994777
0.992866
0.991392
1.01561
1.01598
1.01578
1.01516
1.01399
1.01235
1.01026
1.00781
1.00512
1.00231
0.999539
0.99693
0.994598
0.99265
0.991147
1.01585
1.01623
1.01602
1.0154
1.0142
1.01253
1.0104
1.0079
1.00515
1.00229
0.999455
0.996793
0.994415
0.992429
0.990898
1.01609
1.01648
1.01627
1.01564
1.01441
1.01271
1.01054
1.00798
1.00518
1.00226
0.999367
0.996652
0.994227
0.992203
0.990642
1.01634
1.01674
1.01652
1.01588
1.01464
1.0129
1.01068
1.00807
1.00521
1.00223
0.999278
0.996508
0.994036
0.991972
0.990382
1.01659
1.017
1.01678
1.01613
1.01486
1.01309
1.01083
1.00816
1.00524
1.00219
0.999185
0.99636
0.993839
0.991736
0.990115
1.01685
1.01726
1.01704
1.01638
1.01509
1.01329
1.01097
1.00826
1.00527
1.00216
0.99909
0.996208
0.993638
0.991495
0.989844
1.01711
1.01753
1.01731
1.01664
1.01533
1.01349
1.01113
1.00835
1.0053
1.00212
0.998992
0.996052
0.993432
0.991248
0.989566
1.01737
1.01781
1.01758
1.0169
1.01557
1.01369
1.01128
1.00845
1.00533
1.00209
0.998891
0.995893
0.993222
0.990997
0.989283
1.01765
1.01809
1.01786
1.01717
1.01581
1.0139
1.01144
1.00854
1.00536
1.00205
0.998787
0.995729
0.993006
0.990739
0.988993
1.01792
1.01838
1.01815
1.01745
1.01606
1.01411
1.0116
1.00864
1.00539
1.00201
0.998681
0.995562
0.992787
0.990477
0.988698
1.01821
1.01867
1.01844
1.01773
1.01631
1.01432
1.01176
1.00874
1.00542
1.00197
0.99857
0.995389
0.992561
0.990208
0.988396
1.01849
1.01897
1.01874
1.01801
1.01657
1.01454
1.01193
1.00884
1.00545
1.00193
0.998458
0.995213
0.99233
0.989934
0.988089
1.01879
1.01928
1.01904
1.01831
1.01684
1.01477
1.01209
1.00894
1.00548
1.00188
0.998341
0.995032
0.992094
0.989653
0.987774
1.01909
1.01959
1.01935
1.01861
1.01711
1.015
1.01227
1.00905
1.00551
1.00183
0.998221
0.994847
0.991853
0.989366
0.987454
1.0194
1.01991
1.01967
1.01891
1.01739
1.01523
1.01244
1.00915
1.00554
1.00178
0.998097
0.994656
0.991605
0.989073
0.987126
1.01971
1.02024
1.01999
1.01922
1.01767
1.01547
1.01262
1.00926
1.00557
1.00173
0.99797
0.994461
0.991352
0.988773
0.986792
1.02003
1.02057
1.02032
1.01954
1.01796
1.01571
1.0128
1.00937
1.00559
1.00168
0.997838
0.99426
0.991092
0.988467
0.98645
1.02035
1.02091
1.02066
1.01987
1.01826
1.01596
1.01299
1.00948
1.00562
1.00162
0.997703
0.994054
0.990827
0.988154
0.986102
1.02069
1.02125
1.02101
1.0202
1.01856
1.01622
1.01318
1.00959
1.00565
1.00156
0.997563
0.993842
0.990554
0.987834
0.985746
1.02102
1.02161
1.02136
1.02054
1.01887
1.01648
1.01337
1.0097
1.00567
1.0015
0.997419
0.993625
0.990276
0.987507
0.985383
1.02137
1.02197
1.02172
1.02089
1.01918
1.01674
1.01356
1.00981
1.0057
1.00144
0.997269
0.993402
0.989991
0.987173
0.985012
1.02172
1.02233
1.02208
1.02124
1.0195
1.01701
1.01376
1.00993
1.00572
1.00137
0.997116
0.993173
0.9897
0.986832
0.984635
1.02208
1.02271
1.02246
1.0216
1.01983
1.01728
1.01397
1.01005
1.00574
1.0013
0.996957
0.992938
0.9894
0.986483
0.984249
1.02245
1.02309
1.02284
1.02197
1.02017
1.01756
1.01417
1.01016
1.00576
1.00122
0.996794
0.992697
0.989095
0.986127
0.983856
1.02282
1.02348
1.02323
1.02235
1.02051
1.01785
1.01438
1.01028
1.00578
1.00114
0.996625
0.992449
0.988781
0.985763
0.983453
1.02321
1.02388
1.02363
1.02274
1.02086
1.01814
1.01459
1.0104
1.0058
1.00106
0.996451
0.992194
0.988461
0.985391
0.983044
1.0236
1.02429
1.02404
1.02313
1.02121
1.01844
1.01481
1.01052
1.00582
1.00098
0.996271
0.991933
0.988132
0.98501
0.982625
1.024
1.02471
1.02446
1.02353
1.02158
1.01874
1.01503
1.01064
1.00583
1.00089
0.996085
0.991664
0.987796
0.984622
0.982199
1.0244
1.02513
1.02488
1.02395
1.02195
1.01905
1.01525
1.01076
1.00585
1.00079
0.995893
0.991388
0.987451
0.984224
0.981763
1.02482
1.02557
1.02532
1.02437
1.02233
1.01937
1.01548
1.01089
1.00586
1.0007
0.995695
0.991104
0.987098
0.983818
0.981319
1.02524
1.02601
1.02577
1.0248
1.02272
1.01969
1.01571
1.01101
1.00586
1.00059
0.995489
0.990811
0.986736
0.983403
0.980866
1.02567
1.02647
1.02622
1.02524
1.02312
1.02002
1.01595
1.01113
1.00587
1.00048
0.995277
0.990512
0.986365
0.982979
0.980404
1.02611
1.02693
1.02669
1.02569
1.02353
1.02035
1.01619
1.01126
1.00587
1.00037
0.995057
0.990203
0.985985
0.982545
0.979932
1.02657
1.0274
1.02716
1.02615
1.02394
1.0207
1.01643
1.01138
1.00587
1.00025
0.99483
0.989886
0.985596
0.982102
0.979451
1.02703
1.02789
1.02765
1.02662
1.02436
1.02104
1.01667
1.01151
1.00587
1.00012
0.994595
0.989559
0.985197
0.981649
0.97896
1.0275
1.02838
1.02814
1.0271
1.0248
1.0214
1.01692
1.01163
1.00587
0.999993
0.994352
0.989223
0.984789
0.981187
0.97846
1.02798
1.02889
1.02865
1.02759
1.02524
1.02176
1.01718
1.01176
1.00585
0.999854
0.994101
0.988878
0.98437
0.980713
0.977949
1.02847
1.0294
1.02917
1.02809
1.02569
1.02213
1.01743
1.01188
1.00584
0.999709
0.993841
0.988523
0.983941
0.980231
0.977428
1.02897
1.02993
1.0297
1.0286
1.02615
1.02251
1.01769
1.012
1.00582
0.999557
0.993571
0.988157
0.983501
0.979736
0.976897
1.02948
1.03047
1.03025
1.02913
1.02663
1.02289
1.01795
1.01212
1.0058
0.999398
0.993293
0.987782
0.983051
0.979232
0.976356
1.03
1.03102
1.0308
1.02967
1.02711
1.02328
1.01822
1.01225
1.00577
0.99923
0.993004
0.987395
0.982589
0.978716
0.975803
1.03054
1.03159
1.03137
1.03022
1.0276
1.02368
1.01849
1.01237
1.00574
0.999054
0.992705
0.986997
0.982116
0.978189
0.97524
1.03108
1.03217
1.03196
1.03078
1.02811
1.02408
1.01876
1.01248
1.0057
0.998869
0.992395
0.986587
0.981631
0.977649
0.974665
1.03164
1.03276
1.03255
1.03136
1.02862
1.0245
1.01904
1.0126
1.00565
0.998675
0.992074
0.986166
0.981134
0.977099
0.974079
1.03221
1.03336
1.03316
1.03195
1.02915
1.02492
1.01931
1.01271
1.0056
0.998471
0.991741
0.985731
0.980623
0.976536
0.973481
1.0328
1.03398
1.03378
1.03255
1.02969
1.02535
1.01959
1.01283
1.00554
0.998258
0.991397
0.985284
0.980101
0.975961
0.972873
1.03339
1.03461
1.03442
1.03317
1.03024
1.02578
1.01988
1.01293
1.00548
0.998033
0.99104
0.984824
0.979565
0.975373
0.972251
1.034
1.03525
1.03508
1.0338
1.0308
1.02623
1.02016
1.01304
1.0054
0.997797
0.99067
0.98435
0.979016
0.974773
0.971619
1.03462
1.03591
1.03575
1.03444
1.03137
1.02668
1.02045
1.01314
1.00532
0.997548
0.990285
0.983861
0.978453
0.974159
0.970973
1.03526
1.03659
1.03643
1.03511
1.03196
1.02714
1.02074
1.01324
1.00523
0.997288
0.989888
0.983359
0.977876
0.973532
0.970315
1.03591
1.03728
1.03713
1.03578
1.03256
1.0276
1.02103
1.01333
1.00513
0.997015
0.989475
0.982841
0.977284
0.972891
0.969644
1.03658
1.03799
1.03785
1.03648
1.03317
1.02808
1.02132
1.01342
1.00501
0.996728
0.989047
0.982308
0.976677
0.972237
0.968961
1.03726
1.03872
1.03859
1.03719
1.0338
1.02856
1.02161
1.0135
1.00489
0.996426
0.988603
0.981759
0.976055
0.971567
0.968264
1.03796
1.03946
1.03934
1.03792
1.03444
1.02905
1.0219
1.01357
1.00475
0.996109
0.988143
0.981193
0.975418
0.970884
0.967555
1.03867
1.04022
1.04012
1.03866
1.03509
1.02955
1.02219
1.01364
1.00461
0.995776
0.987665
0.98061
0.974764
0.970186
0.966831
1.0394
1.041
1.04091
1.03943
1.03576
1.03005
1.02249
1.0137
1.00444
0.995427
0.98717
0.98001
0.974094
0.969473
0.966094
1.04015
1.0418
1.04172
1.04021
1.03644
1.03057
1.02278
1.01375
1.00427
0.99506
0.986655
0.979391
0.973406
0.968744
0.965343
1.04092
1.04262
1.04255
1.04101
1.03714
1.03108
1.02307
1.01379
1.00408
0.994674
0.986123
0.978755
0.972702
0.968
0.964578
1.0417
1.04345
1.04341
1.04183
1.03785
1.03161
1.02335
1.01382
1.00387
0.99427
0.985569
0.978098
0.97198
0.967239
0.963798
1.0425
1.04431
1.04428
1.04267
1.03858
1.03214
1.02363
1.01383
1.00364
0.993845
0.984996
0.977422
0.97124
0.966463
0.963004
1.04332
1.04519
1.04518
1.04353
1.03932
1.03268
1.02391
1.01384
1.0034
0.993399
0.9844
0.976726
0.970481
0.96567
0.962195
1.04416
1.04609
1.0461
1.04442
1.04008
1.03323
1.02419
1.01383
1.00314
0.992932
0.983783
0.976009
0.969704
0.96486
0.961371
1.04503
1.04702
1.04705
1.04532
1.04085
1.03378
1.02446
1.01381
1.00285
0.99244
0.983143
0.97527
0.968907
0.964032
0.960532
1.04591
1.04797
1.04802
1.04625
1.04164
1.03434
1.02472
1.01377
1.00255
0.991926
0.982478
0.97451
0.968091
0.963188
0.959677
1.04681
1.04894
1.04901
1.0472
1.04245
1.0349
1.02497
1.01371
1.00222
0.991385
0.981789
0.973726
0.967254
0.962325
0.958807
1.04774
1.04994
1.05003
1.04818
1.04327
1.03546
1.02522
1.01364
1.00187
0.990818
0.981075
0.97292
0.966396
0.961445
0.957921
1.04869
1.05096
1.05108
1.04918
1.04411
1.03603
1.02546
1.01354
1.00149
0.990224
0.980334
0.972088
0.965517
0.960545
0.957018
1.04967
1.05201
1.05216
1.05021
1.04496
1.0366
1.02568
1.01342
1.00108
0.989601
0.979565
0.971233
0.964617
0.959627
0.9561
1.05067
1.05309
1.05327
1.05126
1.04583
1.03717
1.02589
1.01328
1.00064
0.988947
0.978769
0.970352
0.963694
0.95869
0.955165
1.05169
1.0542
1.05441
1.05234
1.04672
1.03774
1.02609
1.01311
1.00018
0.988263
0.977943
0.969445
0.962749
0.957734
0.954214
1.05275
1.05534
1.05557
1.05344
1.04762
1.03831
1.02627
1.01292
0.999676
0.987546
0.977086
0.968512
0.961781
0.956758
0.953246
1.05383
1.05651
1.05678
1.05458
1.04854
1.03888
1.02643
1.01269
0.999143
0.986794
0.976199
0.967551
0.960789
0.955762
0.952261
1.05493
1.05771
1.05801
1.05574
1.04948
1.03945
1.02657
1.01244
0.998574
0.986008
0.975279
0.966562
0.959774
0.954746
0.951259
1.05607
1.05894
1.05928
1.05694
1.05043
1.04001
1.02669
1.01215
0.997966
0.985184
0.974327
0.965544
0.958735
0.95371
0.95024
1.05724
1.06021
1.06059
1.05816
1.05139
1.04057
1.02678
1.01182
0.997319
0.984322
0.97334
0.964497
0.95767
0.952652
0.949203
1.05844
1.06151
1.06193
1.05942
1.05237
1.04112
1.02684
1.01146
0.99663
0.983421
0.972318
0.963421
0.956581
0.951575
0.94815
1.05967
1.06286
1.06332
1.06071
1.05336
1.04165
1.02688
1.01105
0.995897
0.982478
0.971259
0.962314
0.955466
0.950476
0.947078
1.06093
1.06424
1.06474
1.06203
1.05436
1.04217
1.02688
1.0106
0.995118
0.981492
0.970164
0.961175
0.954326
0.949356
0.945989
1.06223
1.06566
1.06621
1.06338
1.05538
1.04268
1.02684
1.0101
0.99429
0.980462
0.969031
0.960005
0.953159
0.948213
0.944882
1.06357
1.06712
1.06772
1.06477
1.0564
1.04317
1.02676
1.00955
0.993411
0.979387
0.967858
0.958803
0.951966
0.94705
0.943757
1.06494
1.06863
1.06928
1.06619
1.05744
1.04364
1.02664
1.00895
0.992479
0.978263
0.966645
0.957567
0.950746
0.945865
0.942614
1.06636
1.07018
1.07088
1.06765
1.05848
1.04408
1.02647
1.00829
0.991492
0.977091
0.965392
0.956298
0.949499
0.944658
0.941453
1.06781
1.07178
1.07254
1.06914
1.05952
1.04449
1.02625
1.00757
0.990446
0.975868
0.964096
0.954995
0.948225
0.943428
0.940274
1.0693
1.07343
1.07424
1.07066
1.06056
1.04487
1.02597
1.00678
0.98934
0.974592
0.962757
0.953658
0.946923
0.942177
0.939077
1.07084
1.07513
1.076
1.07223
1.06161
1.0452
1.02563
1.00593
0.988171
0.973263
0.961375
0.952285
0.945593
0.940903
0.937862
1.07243
1.07689
1.07782
1.07382
1.06265
1.0455
1.02522
1.00501
0.986937
0.971879
0.959948
0.950878
0.944236
0.939607
0.936629
1.07406
1.0787
1.07969
1.07546
1.06368
1.04575
1.02474
1.00401
0.985634
0.970438
0.958475
0.949434
0.94285
0.938288
0.935377
1.07574
1.08057
1.08162
1.07712
1.0647
1.04594
1.02419
1.00293
0.98426
0.96894
0.956957
0.947955
0.941436
0.936947
0.934107
1.07748
1.08251
1.08362
1.07882
1.06571
1.04607
1.02354
1.00176
0.982814
0.967381
0.955392
0.94644
0.939994
0.935583
0.932819
1.07926
1.08451
1.08568
1.08055
1.06669
1.04613
1.02281
1.00051
0.981292
0.965763
0.953781
0.944888
0.938524
0.934198
0.931513
1.0811
1.08658
1.08781
1.08231
1.06764
1.04611
1.02199
0.999168
0.979692
0.964082
0.952121
0.9433
0.937025
0.932789
0.930189
1.083
1.08872
1.09
1.0841
1.06856
1.04601
1.02106
0.997726
0.978012
0.962338
0.950413
0.941676
0.935498
0.931359
0.928847
1.08497
1.09094
1.09227
1.08592
1.06943
1.04582
1.02001
0.996184
0.976249
0.960531
0.948657
0.940014
0.933943
0.929906
0.927487
1.08699
1.09324
1.09461
1.08775
1.07026
1.04552
1.01886
0.994537
0.974402
0.958659
0.946853
0.938317
0.93236
0.928432
0.926109
1.08908
1.09563
1.09703
1.0896
1.07102
1.04511
1.01757
0.99278
0.972468
0.956722
0.945
0.936583
0.93075
0.926936
0.924713
1.09125
1.09811
1.09953
1.09147
1.07171
1.04457
1.01616
0.99091
0.970447
0.954719
0.943098
0.934813
0.929112
0.925418
0.9233
1.09348
1.10068
1.1021
1.09334
1.07232
1.0439
1.0146
0.988923
0.968336
0.952649
0.941148
0.933007
0.927446
0.923879
0.92187
1.0958
1.10335
1.10476
1.09521
1.07283
1.04308
1.0129
0.986815
0.966134
0.950513
0.93915
0.931166
0.925754
0.922319
0.920422
1.09819
1.10613
1.1075
1.09706
1.07323
1.04209
1.01104
0.984583
0.96384
0.948311
0.937104
0.929289
0.924036
0.920738
0.918957
1.10067
1.10902
1.11032
1.0989
1.0735
1.04094
1.00901
0.982224
0.961454
0.946043
0.935011
0.927379
0.922291
0.919137
0.917476
1.10324
1.11204
1.11321
1.1007
1.07363
1.03959
1.00682
0.979735
0.958975
0.943708
0.932871
0.925434
0.920521
0.917516
0.915979
1.10591
1.11518
1.11619
1.10246
1.07359
1.03804
1.00445
0.977115
0.956402
0.941309
0.930686
0.923457
0.918726
0.915875
0.914465
1.10868
1.11845
1.11925
1.10415
1.07338
1.03628
1.0019
0.974361
0.953737
0.938845
0.928455
0.921448
0.916906
0.914214
0.912936
1.11156
1.12187
1.12238
1.10577
1.07296
1.03428
0.999153
0.971473
0.950979
0.936319
0.926182
0.919408
0.915064
0.912535
0.911391
1.11455
1.12543
1.12557
1.10728
1.07231
1.03204
0.996213
0.96845
0.948131
0.933731
0.923866
0.917337
0.913198
0.910838
0.909831
1.11767
1.12916
1.12882
1.10867
1.07141
1.02953
0.993074
0.965292
0.945192
0.931082
0.921509
0.915238
0.91131
0.909123
0.908257
1.12091
1.13305
1.13212
1.1099
1.07023
1.02675
0.989732
0.962001
0.942166
0.928376
0.919114
0.913111
0.909401
0.90739
0.906668
1.1243
1.13711
1.13546
1.11096
1.06874
1.02368
0.986184
0.958577
0.939055
0.925614
0.916681
0.910957
0.907471
0.905641
0.905066
1.12784
1.14136
1.13882
1.1118
1.06692
1.0203
0.982429
0.955024
0.935861
0.922798
0.914213
0.908779
0.905522
0.903876
0.90345
1.13154
1.1458
1.14217
1.11239
1.06474
1.01662
0.978468
0.951345
0.932588
0.919933
0.911712
0.906577
0.903555
0.902096
0.901821
1.13542
1.15043
1.14551
1.11269
1.06216
1.01261
0.974302
0.947545
0.929239
0.917019
0.90918
0.904353
0.90157
0.900301
0.900179
1.1395
1.15526
1.14879
1.11266
1.05916
1.00827
0.969935
0.943628
0.925819
0.914061
0.906619
0.902109
0.899568
0.898492
0.898526
1.14378
1.1603
1.15199
1.11224
1.0557
1.00359
0.965373
0.9396
0.922332
0.911063
0.904033
0.899846
0.897552
0.89667
0.896861
1.14828
1.16554
1.15506
1.11139
1.05176
0.998566
0.960623
0.935469
0.918783
0.908028
0.901425
0.897566
0.895521
0.894836
0.895185
1.15304
1.17098
1.15795
1.11006
1.04731
0.993207
0.955694
0.931243
0.915178
0.90496
0.898796
0.895271
0.893478
0.89299
0.893499
1.15806
1.17662
1.16062
1.10818
1.04232
0.987512
0.950599
0.926928
0.911523
0.901864
0.896149
0.892963
0.891422
0.891133
0.891802
1.16338
1.18244
1.16301
1.10569
1.03677
0.98149
0.945351
0.922535
0.907822
0.898744
0.893489
0.890644
0.889356
0.889266
0.890097
1.16903
1.18843
1.16504
1.10253
1.03065
0.975153
0.939965
0.918073
0.904084
0.895605
0.890818
0.888315
0.887281
0.88739
0.888382
1.17503
1.19456
1.16662
1.09864
1.02393
0.96852
0.934457
0.913552
0.900315
0.892452
0.888138
0.885978
0.885198
0.885505
0.88666
1.18142
1.2008
1.16769
1.09396
1.01662
0.961613
0.928848
0.908982
0.896521
0.889289
0.885454
0.883636
0.883107
0.883613
0.88493
1.18824
1.20711
1.16813
1.08841
1.00872
0.954459
0.923156
0.904374
0.89271
0.886122
0.882768
0.88129
0.881012
0.881714
0.883193
1.19552
1.21342
1.16784
1.08194
1.00023
0.947093
0.917402
0.899739
0.88889
0.882956
0.880083
0.878943
0.878912
0.87981
0.88145
1.20331
1.21967
1.1667
1.07449
0.991186
0.939552
0.911608
0.895086
0.885067
0.879796
0.877403
0.876595
0.876809
0.877902
0.879702
1.21165
1.22577
1.16459
1.06602
0.98161
0.931879
0.905793
0.890428
0.881251
0.876648
0.874731
0.874249
0.874705
0.875989
0.877948
1.22059
1.23161
1.16137
1.05649
0.971553
0.924119
0.89998
0.885773
0.877448
0.873515
0.872068
0.871907
0.872601
0.874075
0.876191
1.23016
1.23706
1.15689
1.04587
0.961075
0.91632
0.894186
0.881133
0.873667
0.870405
0.869419
0.86957
0.870497
0.872158
0.874431
1.24041
1.24197
1.15102
1.03417
0.950251
0.908534
0.888429
0.876517
0.869916
0.867321
0.866785
0.86724
0.868397
0.870242
0.872669
1.25138
1.24615
1.1436
1.02138
0.93917
0.900809
0.882727
0.871936
0.866202
0.864268
0.86417
0.86492
0.866301
0.868327
0.870905
1.26309
1.24938
1.13448
1.00756
0.927936
0.893191
0.877092
0.8674
0.862535
0.86125
0.861576
0.862611
0.864212
0.866415
0.869142
1.27556
1.25142
1.12352
0.992787
0.91666