1.275 	2.15223e-18 	-2.76991e-20 	-0.0331263 	-0.000487085 	-2.01626e-22
1.825 	2.15223e-18 	-1.39322e-20 	-0.0073997 	-0.00287974 	1.81096e-21
2.375 	2.15223e-18 	-2.66896e-23 	0.121551 	-0.00342476 	-7.54795e-22
