1.45 	0 	0 	-0.0081352 	-0.00258564 	1.65342e-20
2.35 	0 	0 	0.0621212 	-0.00662656 	9.88735e-21
