1.45 	0 	0 	-0.00752135 	-0.00260217 	3.84687e-21
2.35 	0 	0 	0.0627891 	-0.00667988 	2.37351e-21
