1.45 	0 	0 	-0.291437
2.35 	0 	0 	-0.126704
