1.45 	0 	0 	-0.285611
2.35 	0 	0 	-0.0557587
