/*--------------------------------*- C++ -*----------------------------------*\
  =========                 |
  \\      /  F ield         | OpenFOAM: The Open Source CFD Toolbox
   \\    /   O peration     | Website:  https://openfoam.org
    \\  /    A nd           | Version:  6.0
     \\/     M anipulation  |
\*---------------------------------------------------------------------------*/
FoamFile
{
    version     2.0;
    format      ascii;
    class       volScalarField;
    location    "17";
    object      p;
}
// * * * * * * * * * * * * * * * * * * * * * * * * * * * * * * * * * * * * * //

dimensions      [0 2 -2 0 0 0 0];

internalField   nonuniform List<scalar> 
62000
(
-0.00703823
-0.00731416
-0.00759899
-0.00785584
-0.00808438
-0.0082787
-0.00842348
-0.00851474
-0.00853619
-0.00848436
-0.00834089
-0.00810424
-0.00775427
-0.00729063
-0.0066927
-0.00595958
-0.00507083
-0.00402364
-0.00279776
-0.00138768
0.000227327
0.00205584
0.0041198
0.00643147
0.00901355
0.0118813
0.0150567
0.018555
0.0223968
0.0266027
0.0311943
0.0361942
0.0416094
0.0474394
0.0536672
0.0602607
0.0671648
0.0742982
0.0815431
0.0887425
0.095685
0.102106
0.107678
0.112001
0.11449
0.114543
0.111634
0.105929
0.0983689
0.0912837
0.0867743
0.085684
0.0860109
0.0860963
0.083587
0.0776851
0.0706254
0.0600423
0.0499522
0.068777
-0.00840507
-0.00857542
-0.00875794
-0.00889662
-0.00900732
-0.00908358
-0.00911752
-0.00910475
-0.00903236
-0.00889758
-0.00868013
-0.00838072
-0.00797428
-0.00746297
-0.00682012
-0.00604656
-0.00511694
-0.00402831
-0.00275798
-0.00129841
0.000370998
0.00226198
0.00439427
0.00678342
0.00944878
0.0124076
0.0156763
0.0192678
0.0231954
0.0274747
0.0321335
0.0371828
0.0426285
0.0484612
0.0546593
0.0611886
0.0679953
0.075003
0.082105
0.0891619
0.0959901
0.102359
0.107989
0.112523
0.115409
0.116044
0.113853
0.108911
0.102037
0.0955859
0.0918636
0.0919972
0.0941477
0.0965766
0.0963066
0.0922832
0.0870804
0.0762297
0.0702621
0.0209674
-0.00240089
-0.00256997
-0.00277736
-0.00298708
-0.00320269
-0.00342264
-0.00362824
-0.00381725
-0.00396854
-0.00407723
-0.0041181
-0.00408615
-0.00395351
-0.00371489
-0.00334233
-0.00282916
-0.00214935
-0.00129409
-0.000240349
0.00102287
0.00251576
0.00425136
0.00624789
0.00852088
0.011088
0.0139659
0.0171684
0.0207045
0.0245818
0.0288167
0.0334257
0.0384308
0.0438278
0.0496034
0.0557325
0.0621784
0.0688885
0.0757898
0.0827839
0.0897427
0.0965008
0.102848
0.10854
0.113245
0.116421
0.117437
0.115628
0.110902
0.103852
0.0967063
0.0918754
0.0908381
0.0921235
0.0943242
0.0939963
0.0903263
0.0860268
0.0757883
0.0719169
0.047061
0.0066394
0.00667999
0.0066713
0.00665807
0.00659917
0.00649915
0.0063545
0.00616792
0.00595129
0.00571185
0.0054756
0.00525251
0.00507752
0.00496322
0.00494777
0.00504632
0.0052955
0.00571248
0.00632925
0.00716387
0.00824274
0.00958334
0.0112067
0.0131303
0.0153717
0.0179486
0.0208727
0.0241509
0.027786
0.0317863
0.0361763
0.0409626
0.0461465
0.0517081
0.0576197
0.0638439
0.0703309
0.0770138
0.0838056
0.0905935
0.0972352
0.103547
0.109331
0.114295
0.117922
0.119574
0.118502
0.114444
0.107721
0.100376
0.0948604
0.0929875
0.0938987
0.0966476
0.0976037
0.0957697
0.0934045
0.0840753
0.0806776
0.0625153
0.0154026
0.0155174
0.0156368
0.0158061
0.015981
0.0161504
0.0162997
0.0164105
0.0164784
0.0164905
0.0164566
0.0163725
0.0162626
0.0161332
0.0160196
0.0159388
0.0159318
0.016024
0.0162572
0.0166611
0.0172741
0.0181253
0.0192468
0.0206649
0.0224054
0.0244919
0.0269413
0.0297622
0.0329566
0.0365372
0.040514
0.0449063
0.0497035
0.0548854
0.0604224
0.0662776
0.072405
0.0787462
0.0852284
0.0917587
0.0982231
0.104477
0.110381
0.115697
0.119963
0.122553
0.122661
0.119859
0.114171
0.107364
0.101809
0.0996273
0.100583
0.104355
0.1074
0.108242
0.10811
0.0991484
0.0948227
0.0796823
0.0206958
0.020781
0.0209367
0.0212257
0.021606
0.0220716
0.0226016
0.0231718
0.023762
0.0243415
0.024897
0.0253997
0.025848
0.0262243
0.0265415
0.0267999
0.0270268
0.0272408
0.0274806
0.0277794
0.0281821
0.0287282
0.0294624
0.030425
0.0316562
0.0331941
0.0350689
0.0373007
0.0399027
0.0428887
0.0462891
0.0501102
0.0543524
0.0589936
0.064006
0.0693563
0.0750046
0.0809033
0.0869945
0.093206
0.0994523
0.105631
0.111662
0.117374
0.122367
0.126051
0.127581
0.126365
0.122091
0.116165
0.110714
0.107967
0.108345
0.112191
0.11645
0.119443
0.121497
0.113073
0.10759
0.095657
0.0233519
0.0232889
0.0233158
0.0235079
0.0238434
0.0243337
0.0249741
0.0257564
0.0266685
0.0276851
0.028787
0.0299351
0.0311069
0.0322599
0.0333755
0.0344215
0.0353924
0.0362763
0.037086
0.0378347
0.0385534
0.0392747
0.0400426
0.0409021
0.0419029
0.0430967
0.0445294
0.0462387
0.048254
0.0506134
0.0533491
0.0564966
0.0600578
0.0640226
0.068373
0.0730865
0.0781351
0.0834868
0.0891021
0.0949312
0.100917
0.107001
0.113161
0.119297
0.125086
0.13
0.13318
0.133888
0.131479
0.126912
0.121902
0.118608
0.117883
0.120765
0.124935
0.128983
0.13271
0.125267
0.11944
0.111333
0.0248943
0.0246654
0.0245088
0.0244995
0.0246296
0.0249211
0.0253875
0.0260401
0.0268896
0.027933
0.0291712
0.0305813
0.0321484
0.0338311
0.0355996
0.0374043
0.0392108
0.0409748
0.0426704
0.0442741
0.0457797
0.0471883
0.048518
0.0497949
0.0510577
0.0523549
0.0537359
0.0552474
0.0569353
0.0588485
0.0610545
0.0635917
0.0664907
0.0697576
0.0733935
0.0773966
0.0817608
0.0864783
0.0915362
0.0969143
0.10259
0.108552
0.11484
0.121433
0.128107
0.134424
0.139553
0.142666
0.142823
0.140523
0.136949
0.133924
0.132531
0.134267
0.137625
0.141838
0.146592
0.139661
0.132902
0.126951
0.0258776
0.0255985
0.0253604
0.0252295
0.0251957
0.0252837
0.0255088
0.0258955
0.0264667
0.0272433
0.0282482
0.029489
0.0309767
0.0326968
0.034638
0.036763
0.0390384
0.0414104
0.043833
0.0462532
0.0486288
0.0509204
0.0531055
0.0551709
0.0571213
0.058978
0.0607705
0.0625353
0.0643134
0.0661663
0.0681577
0.070358
0.0728068
0.0755337
0.0785643
0.0819233
0.0856335
0.0897199
0.0942048
0.0991065
0.104446
0.11027
0.116683
0.123755
0.131372
0.139216
0.146527
0.152461
0.155863
0.156811
0.155909
0.154485
0.153507
0.154675
0.157122
0.160771
0.165357
0.157584
0.148464
0.141956
0.0272393
0.026933
0.026652
0.0264486
0.0263123
0.0262573
0.0262956
0.0264454
0.02673
0.0271741
0.0278113
0.0286665
0.0297735
0.0311475
0.0328075
0.0347487
0.0369637
0.039421
0.0420841
0.0449007
0.0478159
0.0507675
0.0537004
0.0565631
0.0593186
0.0619475
0.0644415
0.0668052
0.069057
0.0712358
0.0734135
0.075644
0.0779842
0.0804744
0.0831602
0.0860905
0.089318
0.0929021
0.0969044
0.101386
0.106419
0.112112
0.118642
0.126162
0.134678
0.143993
0.153465
0.162289
0.169218
0.173992
0.176664
0.177956
0.178528
0.179932
0.181694
0.184359
0.187809
0.177726
0.164677
0.155725
0.0283077
0.0280685
0.0278464
0.0276844
0.027566
0.0275007
0.0274895
0.0275458
0.0276809
0.0279168
0.0282789
0.0287975
0.0295093
0.0304475
0.0316495
0.0331407
0.0349445
0.0370641
0.0394942
0.0422092
0.0451716
0.0483259
0.0516118
0.0549606
0.0583085
0.0616018
0.0647935
0.0678492
0.0707485
0.0735058
0.0761524
0.0787418
0.0813121
0.0839049
0.0865728
0.0893787
0.0923962
0.0957126
0.0994229
0.103628
0.108449
0.114053
0.120683
0.128566
0.137808
0.14833
0.159623
0.170979
0.181154
0.189679
0.196146
0.200696
0.203508
0.205785
0.207188
0.208667
0.210258
0.197114
0.179849
0.168039
0.029859
0.0296402
0.0294401
0.0292947
0.0291911
0.029132
0.0291162
0.0291468
0.0292281
0.0293692
0.0295862
0.0298981
0.030335
0.0309274
0.0317164
0.0327394
0.0340383
0.0356438
0.0375813
0.0398602
0.0424757
0.0454012
0.0485963
0.0520034
0.0555572
0.0591913
0.0628368
0.0664293
0.0699157
0.0732676
0.0764984
0.079615
0.082642
0.0856024
0.0885398
0.091517
0.0946137
0.0979325
0.101588
0.105709
0.110455
0.116036
0.122744
0.130861
0.140565
0.151871
0.164409
0.177592
0.190291
0.20193
0.21178
0.219474
0.224724
0.228226
0.229593
0.230089
0.229935
0.213904
0.192974
0.179028
0.0310766
0.0309405
0.030822
0.0307527
0.0307189
0.0307243
0.0307636
0.0308405
0.0309513
0.0311026
0.031297
0.0315472
0.0318675
0.032281
0.0328172
0.0335119
0.0344075
0.035546
0.0369705
0.0387161
0.040809
0.0432566
0.0460515
0.049165
0.0525529
0.0561609
0.0599209
0.0637588
0.0676016
0.0714022
0.0751294
0.0787763
0.0823291
0.085787
0.0891743
0.0925382
0.0959505
0.0995118
0.10334
0.107575
0.112392
0.118028
0.124798
0.13301
0.142883
0.154503
0.167622
0.181798
0.196065
0.209864
0.222282
0.232586
0.240054
0.244882
0.246544
0.246463
0.245044
0.227056
0.203917
0.189085
0.0327585
0.0326433
0.0325481
0.0325013
0.0324943
0.0325285
0.0326015
0.0327133
0.032861
0.0330445
0.0332639
0.0335215
0.0338233
0.0341794
0.0346072
0.035131
0.0357834
0.0366027
0.0376334
0.0389211
0.0405093
0.0424307
0.0447076
0.0473444
0.0503281
0.0536317
0.0572073
0.0609918
0.0649145
0.0689137
0.0729571
0.0769988
0.0810099
0.0849601
0.0888485
0.092699
0.0965643
0.100529
0.104698
0.109204
0.114218
0.11998
0.1268
0.134983
0.144768
0.156276
0.169373
0.183747
0.198664
0.21363
0.227686
0.23987
0.249163
0.255285
0.25754
0.257527
0.255821
0.237125
0.213119
0.19864
0.0340479
0.0340184
0.0340067
0.0340383
0.0341036
0.0342064
0.0343427
0.0345174
0.0347252
0.0349705
0.0352478
0.0355613
0.0359076
0.0362926
0.0367203
0.0372051
0.0377655
0.0384292
0.0392317
0.0402158
0.0414281
0.0429126
0.0447103
0.0468508
0.0493505
0.0522132
0.0554203
0.0589329
0.062697
0.0666665
0.070794
0.0750447
0.0793631
0.0837027
0.0880383
0.0923701
0.0967253
0.101164
0.105767
0.110643
0.115944
0.121886
0.128753
0.136826
0.146333
0.157422
0.170043
0.184016
0.198824
0.214116
0.22898
0.242356
0.253024
0.260341
0.263481
0.264126
0.262974
0.244784
0.221261
0.20809
0.035788
0.0357796
0.0357902
0.0358438
0.0359343
0.0360637
0.0362311
0.0364388
0.036685
0.0369715
0.0372965
0.0376604
0.0380607
0.0384976
0.0389706
0.0394848
0.0400478
0.0406753
0.0413896
0.0422237
0.0432164
0.0444108
0.0458531
0.0475858
0.0496451
0.0520596
0.054839
0.057973
0.0614346
0.0651913
0.0692272
0.0734952
0.0779483
0.0825268
0.0871902
0.0919185
0.096716
0.101616
0.106667
0.111948
0.117575
0.123727
0.130645
0.138565
0.147698
0.158192
0.170079
0.183269
0.197494
0.21253
0.227584
0.241602
0.253287
0.261714
0.265953
0.267832
0.268106
0.25135
0.229011
0.217723
0.0371101
0.0371875
0.0372817
0.0374134
0.0375753
0.0377713
0.0379985
0.0382638
0.0385634
0.0389053
0.0392847
0.0397085
0.0401708
0.0406755
0.0412166
0.0417976
0.0424174
0.0430838
0.0438074
0.0446096
0.0455178
0.0465667
0.0477981
0.0492562
0.0509852
0.0530289
0.0554179
0.0581661
0.0612718
0.064735
0.0685475
0.0726949
0.0771295
0.0817944
0.0866442
0.0916472
0.0967899
0.102081
0.107539
0.113206
0.119161
0.125532
0.132509
0.140277
0.149018
0.158878
0.169947
0.182215
0.195617
0.210078
0.224959
0.239271
0.251708
0.261164
0.266671
0.270129
0.27227
0.257508
0.236895
0.227727
0.038841
0.0389388
0.0390551
0.0392095
0.0393977
0.0396211
0.0398794
0.0401759
0.0405102
0.0408865
0.0413054
0.0417706
0.0422813
0.0428396
0.0434423
0.0440906
0.0447812
0.0455166
0.046299
0.0471408
0.0480571
0.0490722
0.050218
0.0515325
0.0530591
0.0548465
0.0569362
0.059359
0.0621349
0.0652821
0.06883
0.0727691
0.0770763
0.0817025
0.0866063
0.091754
0.0971216
0.1027
0.108483
0.114479
0.120728
0.12731
0.134356
0.141999
0.150395
0.159679
0.169991
0.181373
0.193947
0.207749
0.222308
0.236739
0.249793
0.260235
0.267078
0.272362
0.276723
0.264168
0.245267
0.238193
0.0401077
0.0402954
0.0404996
0.0407372
0.0410017
0.0412964
0.041618
0.0419745
0.042362
0.0427912
0.043258
0.043774
0.0443346
0.044949
0.0456113
0.0463272
0.0470909
0.047905
0.0487667
0.049683
0.0506601
0.0517128
0.0528624
0.0541377
0.0555753
0.0572213
0.0591198
0.0613088
0.0638212
0.0666983
0.0699759
0.0736819
0.0778016
0.0823046
0.0871607
0.0923412
0.0978202
0.103579
0.109591
0.115842
0.122335
0.129105
0.136231
0.143798
0.151936
0.160771
0.170481
0.181142
0.193013
0.206236
0.220494
0.235017
0.248624
0.260008
0.268218
0.275349
0.281884
0.271476
0.254297
0.249137
0.0418332
0.0420382
0.0422606
0.0425175
0.042805
0.0431247
0.0434752
0.0438611
0.044281
0.0447417
0.0452429
0.045793
0.0463915
0.0470463
0.0477554
0.0485249
0.0493509
0.0502361
0.0511765
0.0521762
0.0532357
0.054363
0.0555699
0.0568763
0.0583096
0.0599091
0.0617146
0.0637652
0.0660992
0.0687625
0.071821
0.0753017
0.0792185
0.0835554
0.0882965
0.0934246
0.0989182
0.104756
0.110904
0.117327
0.124004
0.130931
0.138146
0.145691
0.153675
0.16222
0.171531
0.181698
0.193094
0.205918
0.219996
0.234671
0.248846
0.261158
0.270679
0.279637
0.288314
0.279839
0.264039
0.260532
0.0431704
0.0434377
0.0437222
0.0440412
0.0443878
0.0447666
0.0451724
0.045614
0.0460855
0.0465987
0.0471481
0.0477476
0.0483927
0.0490966
0.0498548
0.050678
0.051562
0.0525127
0.0535257
0.0546057
0.0557507
0.0569647
0.0582538
0.0596298
0.0611118
0.0627306
0.0645194
0.0665119
0.0687453
0.0712754
0.0741615
0.0774597
0.0811887
0.0853504
0.0899449
0.0949683
0.100408
0.106249
0.112451
0.118975
0.125779
0.132834
0.140143
0.14772
0.155658
0.164077
0.173202
0.183124
0.194287
0.206934
0.221011
0.235951
0.250724
0.263934
0.274712
0.285332
0.295858
0.289009
0.274441
0.272325
0.0445359
0.0448623
0.0452061
0.0455837
0.0459887
0.0464246
0.0468865
0.0473818
0.0479056
0.0484676
0.0490648
0.0497089
0.050398
0.0511442
0.051946
0.0528144
0.0537477
0.0547533
0.0558283
0.0569785
0.0582015
0.0594997
0.0608759
0.0623365
0.0638939
0.0655715
0.067394
0.069389
0.0715893
0.0740436
0.0768282
0.0799887
0.0835637
0.0875649
0.0920067
0.0968991
0.102242
0.108027
0.114222
0.120783
0.127663
0.134815
0.142222
0.149877
0.157865
0.166308
0.175442
0.185354
0.196531
0.209227
0.223485
0.238817
0.254255
0.268355
0.280283
0.292439
0.304656
0.299133
0.285434
0.284465
0.045783
0.0461741
0.046584
0.0470266
0.0474958
0.0479949
0.0485183
0.0490744
0.0496565
0.0502767
0.0509283
0.0516266
0.0523663
0.0531628
0.0540123
0.0549287
0.0559101
0.0569664
0.058096
0.0593068
0.0605973
0.0619705
0.0634278
0.0649731
0.0666145
0.068369
0.0702549
0.0722915
0.0745047
0.0769441
0.0796694
0.0827457
0.0862064
0.0900755
0.0943783
0.0991372
0.104365
0.110064
0.116209
0.122764
0.129681
0.136907
0.144413
0.152183
0.160301
0.168891
0.178201
0.188301
0.199697
0.212644
0.227258
0.243106
0.259254
0.27422
0.287229
0.300721
0.314311
0.309823
0.296908
0.296894
0.0471084
0.0475547
0.0480203
0.0485193
0.0490455
0.0496016
0.0501824
0.0507944
0.0514321
0.052105
0.0528089
0.053556
0.0543436
0.0551849
0.0560785
0.0570376
0.0580621
0.0591627
0.0603394
0.0616016
0.0629494
0.0643868
0.0659156
0.0675388
0.069262
0.0710985
0.0730602
0.0751607
0.0774186
0.0798714
0.0825902
0.0856199
0.089007
0.0927769
0.0969634
0.101599
0.106708
0.112305
0.118376
0.124894
0.131819
0.139099
0.146702
0.154612
0.162919
0.171751
0.181365
0.19181
0.203597
0.216963
0.232073
0.248542
0.265462
0.281292
0.295281
0.31
0.32484
0.321172
0.308796
0.309575
0.0484161
0.0489142
0.0494329
0.0499848
0.0505637
0.051173
0.0518061
0.0524717
0.053162
0.053889
0.054645
0.0554454
0.0562838
0.0571761
0.0581178
0.0591241
0.0601938
0.0613391
0.0625606
0.0638694
0.0652674
0.0667602
0.0683508
0.0700427
0.0718406
0.0737553
0.0757951
0.0779675
0.0802845
0.0827833
0.0855138
0.0885352
0.0918826
0.0955859
0.099684
0.104217
0.109218
0.114715
0.120704
0.127171
0.134088
0.141408
0.149106
0.157174
0.16571
0.174849
0.184857
0.19576
0.208059
0.221967
0.237689
0.254862
0.272586
0.289264
0.30419
0.319982
0.335832
0.332799
0.320999
0.322466
0.0498245
0.0503639
0.0509245
0.0515197
0.0521436
0.0527989
0.0534794
0.0541922
0.0549305
0.0557039
0.0565073
0.0573527
0.0582364
0.0591718
0.0601565
0.0612043
0.0623153
0.0635014
0.0647642
0.0661157
0.0675587
0.0691003
0.0707448
0.0724966
0.0743605
0.0763466
0.0784602
0.0807058
0.0830903
0.0856392
0.0884113
0.0914435
0.0947785
0.0984431
0.102479
0.106931
0.11184
0.117243
0.123151
0.129562
0.13646
0.143812
0.151602
0.159835
0.168622
0.178108
0.188567
0.200003
0.212901
0.22744
0.243851
0.261794
0.280367
0.2979
0.313698
0.330509
0.34733
0.344836
0.333478
0.335555
0.051171
0.0517558
0.0523624
0.0530035
0.0536729
0.0543745
0.0551008
0.0558612
0.0566465
0.0574695
0.0583209
0.0592165
0.0601486
0.0611334
0.0621653
0.0632598
0.0644153
0.0656449
0.0669499
0.0683433
0.069829
0.0714153
0.073108
0.0749126
0.0768348
0.0788846
0.0810662
0.0833808
0.0858312
0.0884437
0.0912556
0.0943184
0.0976598
0.101309
0.105307
0.109701
0.114539
0.119866
0.125701
0.132059
0.138938
0.146319
0.1542
0.162599
0.171646
0.181498
0.192437
0.204446
0.217991
0.233218
0.250376
0.269132
0.28857
0.306953
0.323614
0.341355
0.358994
0.356955
0.346155
0.348814
0.0525749
0.0532015
0.0538493
0.0545323
0.0552443
0.0559889
0.0567591
0.0575629
0.0583925
0.0592583
0.0601538
0.061092
0.0620675
0.0630944
0.0641689
0.0653052
0.0665028
0.0677739
0.0691202
0.070555
0.0720823
0.0737114
0.075449
0.0773018
0.0792764
0.0813833
0.0836257
0.0860041
0.0885183
0.0911843
0.094052
0.0971484
0.10051
0.10416
0.108139
0.112495
0.11728
0.122544
0.128319
0.134631
0.141493
0.148901
0.156867
0.16543
0.174737
0.184958
0.196387
0.208987
0.223205
0.239153
0.257088
0.27669
0.297027
0.316278
0.333771
0.35244
0.370933
0.369338
0.359017
0.362243
0.0538803
0.0545544
0.0552495
0.0559794
0.0567372
0.0575278
0.0583431
0.0591934
0.0600687
0.0609829
0.0619253
0.062913
0.0639368
0.0650136
0.0661366
0.0673216
0.0685662
0.0698834
0.0712742
0.0727523
0.0743224
0.0759939
0.0777749
0.0796729
0.0816954
0.0838533
0.0861505
0.0885856
0.0911565
0.0938827
0.0967938
0.0999333
0.103323
0.106985
0.110961
0.115297
0.120047
0.125268
0.130997
0.137274
0.144125
0.151563
0.159614
0.168335
0.177892
0.188475
0.200387
0.213576
0.228472
0.245155
0.26389
0.284355
0.305596
0.32572
0.344067
0.363621
0.382881
0.381706
0.372008
0.375804
0.0551975
0.0559164
0.0566558
0.057431
0.058235
0.0590721
0.0599347
0.0608317
0.0617543
0.062714
0.0637032
0.0647359
0.0658056
0.0669274
0.068096
0.0693262
0.0706164
0.0719789
0.0734147
0.0749371
0.0765507
0.0782651
0.0800891
0.0820306
0.084098
0.0863032
0.0886496
0.0911369
0.0937614
0.0965349
0.0995001
0.102678
0.1061
0.109783
0.113765
0.118093
0.122821
0.128011
0.133707
0.139959
0.146805
0.154273
0.162405
0.171277
0.181074
0.192003
0.204384
0.218151
0.23372
0.25114
0.270681
0.292026
0.314203
0.335225
0.354417
0.374888
0.394993
0.394274
0.385143
0.389498
0.0563806
0.0571514
0.0579432
0.0587708
0.0596264
0.0605157
0.0614293
0.062379
0.063353
0.0643667
0.065408
0.0664954
0.0676183
0.0687946
0.0700162
0.0712995
0.0726412
0.0740541
0.0755385
0.0771081
0.0787673
0.080526
0.0823933
0.0843779
0.086489
0.0887391
0.0911324
0.0936676
0.0963403
0.0991666
0.10217
0.105392
0.108846
0.112554
0.116551
0.120882
0.125602
0.130774
0.13645
0.142688
0.149538
0.15704
0.165252
0.174266
0.184288
0.195545
0.208374
0.222701
0.238926
0.25708
0.277432
0.299663
0.322775
0.344709
0.364787
0.386158
0.407056
0.406796
0.398384
0.403298
0.0576035
0.0584207
0.0592589
0.0601342
0.0610385
0.0619771
0.0629412
0.0639407
0.0649655
0.0660283
0.0671202
0.0682566
0.0694293
0.0706547
0.0719261
0.073259
0.0746506
0.0761134
0.0776471
0.0792651
0.0809716
0.0827763
0.0846886
0.0867176
0.0888729
0.0911678
0.0936061
0.0961876
0.098907
0.101773
0.104826
0.108083
0.111571
0.115306
0.11932
0.12366
0.128378
0.133541
0.139206
0.145436
0.152294
0.159833
0.16812
0.177268
0.1875
0.199067
0.212323
0.227187
0.244055
0.262932
0.284094
0.307222
0.331299
0.354176
0.375143
0.397461
0.419253
0.419506
0.411772
0.417227
0.0587368
0.0596038
0.0604922
0.0614177
0.0623718
0.063361
0.0643752
0.0654268
0.0665033
0.0676209
0.0687664
0.0699593
0.0711878
0.0724706
0.0737984
0.0751879
0.076635
0.0781522
0.0797388
0.0814084
0.0831648
0.085018
0.0869774
0.0890526
0.0912535
0.0935933
0.096077
0.0987026
0.101465
0.104378
0.107464
0.110761
0.114282
0.118044
0.12208
0.126433
0.131156
0.136319
0.14198
0.148212
0.155084
0.162661
0.171023
0.180296
0.190725
0.202581
0.216241
0.231622
0.24911
0.268703
0.290675
0.314701
0.339742
0.36358
0.385488
0.408745
0.431397
0.432174
0.425279
0.431254
0.0599186
0.0608305
0.0617637
0.0627354
0.0637371
0.0647746
0.0658387
0.0669397
0.0680671
0.0692341
0.0704311
0.071674
0.072954
0.0742876
0.0756675
0.0771092
0.0786093
0.0801796
0.0818194
0.0835417
0.08535
0.0872538
0.0892628
0.0913863
0.0936344
0.0960208
0.0985497
0.10122
0.104027
0.106976
0.110107
0.113436
0.116989
0.120778
0.124834
0.129201
0.133932
0.139097
0.144758
0.150994
0.157882
0.165497
0.17393
0.18332
0.193931
0.206059
0.220104
0.23598
0.254074
0.274372
0.297149
0.322087
0.348124
0.372955
0.395814
0.420058
0.443674
0.445039
0.438944
0.44539
0.0610048
0.0619679
0.0629529
0.0639766
0.0650299
0.0661199
0.0672356
0.0683903
0.0695707
0.0707938
0.0720454
0.0733459
0.0746826
0.076075
0.0775125
0.0790125
0.0805699
0.0821973
0.083893
0.0856703
0.0875326
0.0894891
0.0915497
0.0937235
0.0960209
0.0984554
0.101032
0.103747
0.106596
0.109591
0.112752
0.116117
0.1197
0.123514
0.127592
0.131974
0.136714
0.141885
0.147551
0.153794
0.160701
0.168354
0.176854
0.186354
0.197135
0.20952
0.22393
0.240282
0.258965
0.279959
0.303545
0.329395
0.356427
0.382269
0.406136
0.431364
0.455911
0.457889
0.452696
0.459596
0.0621779
0.0631871
0.0642181
0.0652891
0.0663907
0.0675295
0.0686953
0.0698995
0.0711304
0.0724025
0.0737048
0.0750547
0.0764421
0.0778847
0.0793739
0.0809262
0.0825372
0.084219
0.0859695
0.0878021
0.0897192
0.0917301
0.0938441
0.0960705
0.0984192
0.100904
0.103528
0.10629
0.109183
0.112212
0.115416
0.11881
0.122421
0.126259
0.130356
0.134752
0.1395
0.144675
0.150344
0.156594
0.163518
0.171206
0.179768
0.18937
0.20031
0.212935
0.227696
0.244509
0.263768
0.285452
0.309844
0.336622
0.364681
0.391569
0.416457
0.442716
0.468285
0.470958
0.466567
0.473907
0.0633044
0.0643635
0.0654444
0.0665653
0.0677161
0.0689048
0.0701197
0.071375
0.0726564
0.073982
0.0753368
0.0767421
0.0781844
0.0796841
0.0812299
0.0828398
0.084508
0.0862471
0.0880547
0.0899438
0.0919172
0.0939835
0.0961524
0.0984328
0.100834
0.10337
0.106044
0.108853
0.111788
0.114861
0.118094
0.121522
0.12516
0.12902
0.133135
0.137544
0.142301
0.14748
0.153152
0.159409
0.166348
0.17407
0.18269
0.192386
0.203475
0.216328
0.231423
0.248683
0.268506
0.290876
0.31608
0.343786
0.372873
0.400823
0.42679
0.454083
0.480634
0.484026
0.480527
0.488292
0.0645179
0.0656231
0.0667498
0.0679176
0.0691162
0.0703531
0.0716172
0.072921
0.0742518
0.0756251
0.0770291
0.0784823
0.0799738
0.0815223
0.0831185
0.0847795
0.0865006
0.0882938
0.0901565
0.0921015
0.0941312
0.0962536
0.0984783
0.100814
0.103269
0.105858
0.108582
0.111439
0.114419
0.117528
0.120803
0.124259
0.127922
0.131803
0.135934
0.140351
0.145112
0.150291
0.155962
0.162221
0.169171
0.17692
0.185591
0.195373
0.206601
0.219669
0.23509
0.252785
0.273164
0.296216
0.322232
0.350885
0.381034
0.410081
0.437142
0.465515
0.493127
0.497309
0.494646
0.502778
0.0656641
0.0668216
0.0680004
0.0692203
0.0704698
0.0717583
0.0730728
0.0744286
0.0758106
0.0772376
0.0786942
0.0802026
0.0817487
0.0833538
0.0850062
0.0867244
0.0885026
0.0903532
0.0922732
0.0942756
0.0963626
0.0985421
0.100823
0.103215
0.105726
0.108368
0.111145
0.114051
0.117077
0.120233
0.123535
0.127025
0.130713
0.134613
0.138757
0.143183
0.147946
0.153123
0.158789
0.165047
0.172004
0.179775
0.188492
0.198353
0.20971
0.222983
0.238715
0.256835
0.277765
0.301499
0.328334
0.357936
0.389148
0.419308
0.447522
0.476982
0.505617
0.510598
0.508889
0.517319
0.0668941
0.0680989
0.0693242
0.0705915
0.0718893
0.0732261
0.0745902
0.0759946
0.0774262
0.0789012
0.0804074
0.0819642
0.0835603
0.0852151
0.086919
0.0886896
0.0905222
0.0924285
0.0944054
0.0964657
0.0986111
0.100849
0.103189
0.105639
0.108207
0.110906
0.113737
0.116696
0.11977
0.122962
0.126309
0.129825
0.133537
0.137455
0.14161
0.146038
0.150797
0.155966
0.161621
0.167869
0.174826
0.182611
0.191365
0.201296
0.212773
0.226239
0.242277
0.260814
0.282289
0.306705
0.334363
0.364936
0.397247
0.428553
0.457933
0.488531
0.518264
0.524109
0.523314
0.531944
0.068037
0.0692928
0.0705695
0.0718876
0.0732359
0.0746235
0.076038
0.0774945
0.0789784
0.0805085
0.0820697
0.0836842
0.0853384
0.0870533
0.0888173
0.090649
0.0925426
0.0945101
0.0965482
0.0986699
0.100877
0.103176
0.105577
0.108088
0.110716
0.113474
0.116362
0.119374
0.122496
0.125737
0.129113
0.132663
0.136399
0.140334
0.144497
0.148926
0.153678
0.158834
0.164474
0.170707
0.177656
0.185449
0.194232
0.204224
0.215812
0.229462
0.245793
0.264741
0.28676
0.311861
0.340352
0.371898
0.405308
0.437777
0.46838
0.500127
0.53093
0.537647
0.537879
0.546607
0.0691711
0.0704777
0.0718061
0.0731769
0.0745798
0.0760221
0.0774932
0.0790054
0.0805464
0.0821322
0.0837508
0.0854216
0.0871336
0.0889057
0.0907287
0.0926197
0.0945745
0.096604
0.0987052
0.100891
0.103162
0.105525
0.107991
0.110565
0.113256
0.116075
0.119022
0.122091
0.125265
0.128546
0.131969
0.135546
0.139305
0.143254
0.147422
0.151846
0.156584
0.161719
0.167333
0.173542
0.180473
0.188262
0.197064
0.207108
0.218797
0.232621
0.249239
0.268593
0.291153
0.316942
0.346271
0.378813
0.413362
0.447026
0.478866
0.511813
0.543759
0.551418
0.552648
0.561343
0.0701712
0.0715422
0.0729349
0.0743713
0.0758377
0.0773438
0.0788762
0.0804516
0.082054
0.0837041
0.0853865
0.0871237
0.088902
0.090742
0.0926327
0.0945919
0.0966148
0.0987123
0.100881
0.103135
0.105473
0.107904
0.110436
0.113076
0.115833
0.118716
0.121726
0.124852
0.128079
0.131412
0.134865
0.138477
0.142258
0.146219
0.15039
0.154806
0.159526
0.164634
0.170217
0.176393
0.183297
0.191074
0.199885
0.20997
0.22175
0.235738
0.252633
0.272385
0.295491
0.321975
0.352152
0.385695
0.421383
0.456259
0.48939
0.523554
0.556618
0.565232
0.567582
0.576135
0.0715649
0.0729587
0.0743741
0.075836
0.0773307
0.0788682
0.0804356
0.0820489
0.0836932
0.0853875
0.0871177
0.0889047
0.0907365
0.0926322
0.0945818
0.0966025
0.0986896
0.100853
0.10309
0.105412
0.10782
0.110321
0.112922
0.115631
0.118455
0.121406
0.124478
0.127665
0.130948
0.134321
0.137822
0.141461
0.145263
0.149234
0.153403
0.157804
0.162498
0.16757
0.17311
0.179242
0.186107
0.193857
0.202666
0.212781
0.224642
0.238783
0.255947
0.276097
0.299748
0.326929
0.357963
0.392531
0.429399
0.46552
0.499956
0.535388
0.569642
0.579283
0.582738
0.591153
0.0726281
0.0740896
0.075571
0.0770975
0.078654
0.0802527
0.0818791
0.083553
0.0852568
0.087014
0.0888075
0.0906614
0.0925608
0.0945264
0.0965463
0.0986383
0.100797
0.103032
0.105341
0.107734
0.110214
0.112786
0.115458
0.118238
0.121131
0.124149
0.127287
0.130534
0.133871
0.137299
0.14083
0.144503
0.148325
0.152305
0.156467
0.16085
0.165512
0.170541
0.17603
0.182108
0.188922
0.196635
0.205429
0.215562
0.227494
0.241778
0.2592
0.279742
0.303944
0.331834
0.363736
0.399332
0.437381
0.474766
0.510558
0.547279
0.582703
0.593388
0.598055
0.60642
0.0740064
0.0755105
0.0770337
0.0786029
0.0802027
0.0818455
0.083517
0.0852367
0.0869873
0.0887923
0.0906345
0.0925391
0.0944908
0.096512
0.09859
0.100744
0.102966
0.105269
0.107647
0.110112
0.112663
0.115307
0.118052
0.120903
0.123867
0.126953
0.130157
0.133466
0.136861
0.140331
0.143912
0.14761
0.15145
0.155433
0.159585
0.163941
0.168561
0.173536
0.178961
0.184972
0.19172
0.199381
0.208145
0.218285
0.230272
0.244693
0.262359
0.283297
0.308052
0.336653
0.369433
0.406085
0.445358
0.48404
0.521202
0.559264
0.59592
0.607724
0.613574
0.621973
0.0750646
0.0766483
0.0782491
0.0798952
0.0815689
0.0832847
0.0850266
0.0868166
0.0886361
0.0905107
0.0924225
0.0943977
0.0964205
0.0985133
0.100663
0.102889
0.105184
0.10756
0.11001
0.112548
0.115173
0.11789
0.120707
0.123631
0.126666
0.129823
0.133094
0.136467
0.139918
0.143444
0.147054
0.150786
0.154641
0.158625
0.162762
0.167085
0.171657
0.176569
0.181921
0.187852
0.194522
0.202116
0.210837
0.220969
0.233002
0.247547
0.265451
0.286778
0.312094
0.341418
0.375086
0.412797
0.453296
0.493296
0.531877
0.571306
0.60918
0.62212
0.629227
0.637719
0.0764159
0.0780488
0.0797
0.0813989
0.083127
0.084899
0.086698
0.088546
0.0904235
0.0923569
0.0943266
0.0963612
0.0984433
0.100598
0.10281
0.105102
0.107465
0.109911
0.112433
0.115044
0.117744
0.120535
0.123428
0.126426
0.129535
0.132764
0.136105
0.139543
0.143053
0.146622
0.150282
0.154035
0.157904
0.161884
0.165998
0.17028
0.174792
0.179628
0.184892
0.190728
0.197303
0.204814
0.213474
0.223584
0.235647
0.250312
0.268437
0.290161
0.316039
0.34609
0.380656
0.419456
0.461225
0.502577
0.542592
0.583439
0.622589
0.636747
0.645053
0.653701
0.0774679
0.0791801
0.0809102
0.0826888
0.0844955
0.0863464
0.0882234
0.09015
0.0921054
0.0941174
0.0961661
0.0982802
0.100442
0.102676
0.104969
0.107339
0.109782
0.112306
0.114906
0.117596
0.120374
0.123243
0.126214
0.129289
0.132474
0.135778
0.13919
0.142695
0.146264
0.14989
0.153578
0.157363
0.161241
0.165213
0.169298
0.173533
0.177977
0.182728
0.187892
0.193619
0.200084
0.207495
0.216078
0.226151
0.238234
0.253007
0.271352
0.293466
0.319911
0.350699
0.386176
0.426068
0.469109
0.511837
0.553331
0.595625
0.636046
0.651441
0.660984
0.669852
0.0788368
0.0805981
0.0823789
0.0842115
0.0860743
0.0879844
0.0899217
0.0919111
0.0939294
0.0960063
0.0981189
0.100299
0.102527
0.10483
0.107191
0.109635
0.112152
0.114754
0.117433
0.120203
0.123062
0.126013
0.129065
0.132221
0.135486
0.138866
0.142353
0.145928
0.149561
0.153231
0.156969
0.160772
0.164656
0.168614
0.172663
0.17684
0.181204
0.185855
0.190903
0.196505
0.202841
0.210133
0.218619
0.228638
0.240726
0.255602
0.274153
0.296663
0.323676
0.355204
0.391603
0.432618
0.476977
0.521118
0.564108
0.607899
0.649647
0.666349
0.677057
0.686246
0.0799855
0.0818216
0.0836755
0.0855817
0.0875169
0.0895001
0.0915104
0.0935743
0.095668
0.0978223
0.100014
0.102276
0.104587
0.106974
0.109421
0.11195
0.114553
0.117241
0.120007
0.122863
0.125808
0.128845
0.131983
0.135223
0.13857
0.142032
0.145597
0.149245
0.15294
0.156671
0.160437
0.164265
0.168152
0.17209
0.176098
0.180209
0.184484
0.189023
0.193943
0.199403
0.205595
0.212749
0.221122
0.23107
0.243152
0.258123
0.276882
0.29978
0.32736
0.359637
0.39697
0.439113
0.484792
0.530371
0.574902
0.620219
0.663306
0.681298
0.693242
0.702828
0.0814086
0.083295
0.0852006
0.0871615
0.089153
0.0911956
0.0932661
0.0953932
0.0975498
0.0997704
0.102027
0.104358
0.106737
0.109198
0.111719
0.114327
0.11701
0.119783
0.122635
0.12558
0.128614
0.131741
0.134968
0.138297
0.141732
0.145279
0.148926
0.15265
0.156413
0.160189
0.164003
0.167845
0.171729
0.175641
0.179599
0.183634
0.187807
0.19222
0.196993