1.45 	0 	0 	-0.29193
2.35 	0 	0 	-0.127254
