1.45 	0 	0 	-0.00783015 	-0.00258381 	3.81367e-21
2.35 	0 	0 	0.0619687 	-0.00665142 	2.32914e-21
