/*--------------------------------*- C++ -*----------------------------------*\
  =========                 |
  \\      /  F ield         | OpenFOAM: The Open Source CFD Toolbox
   \\    /   O peration     | Website:  https://openfoam.org
    \\  /    A nd           | Version:  6.0
     \\/     M anipulation  |
\*---------------------------------------------------------------------------*/
FoamFile
{
    version     2.0;
    format      ascii;
    class       volScalarField;
    location    "1.3";
    object      p;
}
// * * * * * * * * * * * * * * * * * * * * * * * * * * * * * * * * * * * * * //

dimensions      [0 2 -2 0 0 0 0];

internalField   nonuniform List<scalar> 
24000
(
1.00669
1.00639
1.00581
1.005
1.00405
1.00308
1.00222
1.00147
1.00086
1.00038
1.00001
0.99978
1.00669
1.00644
1.00596
1.00524
1.00436
1.00342
1.00255
1.00174
1.00103
1.00045
0.999957
0.999638
1.00669
1.00643
1.00591
1.00517
1.00426
1.0033
1.0024
1.00159
1.00089
1.00035
0.999866
0.99958
1.0067
1.00642
1.00588
1.00512
1.00421
1.00323
1.00234
1.00154
1.00085
1.00033
0.999842
0.999556
1.0067
1.00642
1.00589
1.00515
1.00426
1.00331
1.00242
1.00162
1.00093
1.00038
0.999847
0.999522
1.00671
1.00644
1.00591
1.00518
1.0043
1.00336
1.00248
1.00167
1.00096
1.00038
0.999817
0.999459
1.00672
1.00645
1.00592
1.00518
1.0043
1.00336
1.00247
1.00165
1.00093
1.00034
0.999754
0.999385
1.00672
1.00646
1.00592
1.00518
1.00429
1.00334
1.00244
1.00161
1.00088
1.00028
0.999693
0.99932
1.00673
1.00647
1.00593
1.00519
1.0043
1.00335
1.00244
1.0016
1.00086
1.00026
0.999653
0.999268
1.00674
1.00649
1.00596
1.00521
1.00432
1.00337
1.00247
1.00162
1.00087
1.00025
0.999627
0.999224
1.00675
1.00651
1.00598
1.00523
1.00435
1.0034
1.0025
1.00164
1.00088
1.00025
0.999604
0.99918
1.00677
1.00653
1.00601
1.00526
1.00438
1.00343
1.00252
1.00166
1.00089
1.00024
0.999578
0.999134
1.00678
1.00655
1.00603
1.00529
1.0044
1.00345
1.00254
1.00167
1.00089
1.00023
0.999549
0.999089
1.00679
1.00657
1.00606
1.00532
1.00444
1.00348
1.00256
1.00168
1.00089
1.00021
0.99952
0.999045
1.00681
1.0066
1.00609
1.00536
1.00447
1.00351
1.00258
1.0017
1.00089
1.0002
0.999492
0.999003
1.00682
1.00662
1.00612
1.00539
1.00451
1.00355
1.00261
1.00171
1.00089
1.00019
0.999466
0.998962
1.00684
1.00664
1.00614
1.00543
1.00454
1.00358
1.00263
1.00173
1.00089
1.00017
0.999439
0.998921
1.00686
1.00666
1.00617
1.00545
1.00457
1.00361
1.00266
1.00174
1.00089
1.00016
0.999411
0.998881
1.00687
1.00668
1.00619
1.00548
1.0046
1.00363
1.00268
1.00175
1.00089
1.00014
0.999382
0.998841
1.00689
1.0067
1.00621
1.0055
1.00463
1.00366
1.00269
1.00176
1.00088
1.00012
0.999354
0.998803
1.00691
1.00673
1.00623
1.00553
1.00465
1.00368
1.00271
1.00176
1.00088
1.00011
0.999326
0.998765
1.00693
1.00675
1.00625
1.00555
1.00468
1.0037
1.00272
1.00177
1.00088
1.00009
0.9993
0.998729
1.00696
1.00677
1.00628
1.00558
1.0047
1.00372
1.00274
1.00178
1.00087
1.00007
0.999273
0.998692
1.00698
1.0068
1.00631
1.00561
1.00473
1.00375
1.00276
1.00179
1.00087
1.00006
0.999245
0.998655
1.007
1.00683
1.00633
1.00564
1.00476
1.00377
1.00278
1.00179
1.00087
1.00004
0.999216
0.998617
1.00703
1.00686
1.00636
1.00567
1.00479
1.0038
1.00279
1.0018
1.00086
1.00002
0.999187
0.998581
1.00706
1.00689
1.00639
1.0057
1.00482
1.00382
1.00281
1.00181
1.00085
0.999998
0.999157
0.998543
1.00708
1.00692
1.00642
1.00573
1.00484
1.00385
1.00283
1.00181
1.00085
0.999977
0.999127
0.998507
1.00711
1.00695
1.00646
1.00576
1.00487
1.00387
1.00284
1.00182
1.00084
0.999957
0.999098
0.99847
1.00715
1.00698
1.00649
1.00579
1.0049
1.00389
1.00286
1.00182
1.00083
0.999938
0.999069
0.998434
1.00718
1.00702
1.00653
1.00583
1.00493
1.00392
1.00287
1.00183
1.00083
0.999918
0.99904
0.998398
1.00721
1.00706
1.00657
1.00586
1.00496
1.00394
1.00289
1.00184
1.00082
0.9999
0.999012
0.998363
1.00725
1.0071
1.00661
1.0059
1.005
1.00397
1.00291
1.00184
1.00082
0.999882
0.998984
0.998326
1.00728
1.00714
1.00665
1.00595
1.00504
1.004
1.00293
1.00185
1.00081
0.999865
0.998956
0.99829
1.00732
1.00718
1.00669
1.00599
1.00508
1.00404
1.00296
1.00186
1.00081
0.999847
0.998927
0.998254
1.00736
1.00722
1.00674
1.00604
1.00512
1.00407
1.00298
1.00188
1.00081
0.99983
0.998898
0.998217
1.0074
1.00727
1.00678
1.00608
1.00516
1.00411
1.003
1.00189
1.0008
0.999811
0.998868
0.998179
1.00744
1.00731
1.00683
1.00613
1.0052
1.00414
1.00303
1.0019
1.0008
0.999792
0.998838
0.998142
1.00748
1.00735
1.00687
1.00617
1.00524
1.00417
1.00305
1.00191
1.00079
0.999772
0.998806
0.998103
1.00752
1.0074
1.00692
1.00621
1.00528
1.00421
1.00307
1.00191
1.00079
0.999751
0.998775
0.998065
1.00757
1.00744
1.00696
1.00626
1.00532
1.00424
1.00309
1.00192
1.00078
0.99973
0.998742
0.998026
1.00761
1.00749
1.00701
1.0063
1.00536
1.00427
1.00311
1.00193
1.00077
0.999709
0.99871
0.997987
1.00766
1.00754
1.00705
1.00635
1.0054
1.0043
1.00313
1.00193
1.00077
0.999686
0.998677
0.997947
1.0077
1.00759
1.0071
1.00639
1.00544
1.00433
1.00315
1.00194
1.00076
0.999665
0.998644
0.997908
1.00775
1.00764
1.00715
1.00644
1.00548
1.00437
1.00317
1.00195
1.00075
0.999642
0.99861
0.997868
1.0078
1.00769
1.0072
1.00649
1.00552
1.0044
1.0032
1.00196
1.00074
0.99962
0.998576
0.997828
1.00785
1.00774
1.00725
1.00653
1.00557
1.00443
1.00322
1.00196
1.00073
0.999596
0.998541
0.997787
1.00791
1.0078
1.00731
1.00659
1.00561
1.00447
1.00324
1.00197
1.00073
0.999574
0.998507
0.997747
1.00796
1.00785
1.00736
1.00664
1.00566
1.0045
1.00326
1.00198
1.00072
0.99955
0.998471
0.997705
1.00801
1.00791
1.00742
1.00669
1.0057
1.00454
1.00328
1.00198
1.00071
0.999527
0.998437
0.997664
1.00807
1.00797
1.00748
1.00675
1.00575
1.00458
1.00331
1.00199
1.0007
0.999504
0.998401
0.997621
1.00813
1.00803
1.00754
1.0068
1.0058
1.00461
1.00333
1.002
1.00069
0.999481
0.998367
0.997578
1.00818
1.00809
1.0076
1.00686
1.00585
1.00465
1.00336
1.00201
1.00069
0.999458
0.998331
0.997534
1.00824
1.00816
1.00766
1.00692
1.0059
1.00469
1.00338
1.00202
1.00068
0.999435
0.998296
0.99749
1.00831
1.00822
1.00773
1.00698
1.00595
1.00474
1.00341
1.00203
1.00067
0.999412
0.99826
0.997444
1.00837
1.00829
1.00779
1.00705
1.00601
1.00478
1.00344
1.00204
1.00067
0.999389
0.998225
0.997397
1.00843
1.00836
1.00786
1.00711
1.00606
1.00482
1.00347
1.00205
1.00066
0.999365
0.998188
0.997349
1.0085
1.00843
1.00793
1.00718
1.00612
1.00487
1.0035
1.00206
1.00065
0.999342
0.998151
0.9973
1.00856
1.0085
1.008
1.00724
1.00618
1.00491
1.00352
1.00207
1.00065
0.999317
0.998112
0.99725
1.00863
1.00857
1.00807
1.00731
1.00624
1.00496
1.00355
1.00209
1.00064
0.999292
0.998073
0.9972
1.0087
1.00864
1.00814
1.00738
1.00629
1.005
1.00358
1.0021
1.00063
0.999266
0.998033
0.997148
1.00877
1.00872
1.00821
1.00744
1.00635
1.00505
1.00361
1.00211
1.00062
0.999241
0.997993
0.997096
1.00884
1.00879
1.00828
1.00751
1.00641
1.00509
1.00364
1.00212
1.00061
0.999214
0.997951
0.997043
1.00891
1.00887
1.00836
1.00758
1.00647
1.00514
1.00367
1.00213
1.00061
0.999187
0.997909
0.996989
1.00899
1.00895
1.00843
1.00765
1.00653
1.00518
1.0037
1.00214
1.0006
0.99916
0.997866
0.996935
1.00906
1.00903
1.00851
1.00772
1.00659
1.00523
1.00373
1.00215
1.00059
0.999133
0.997824
0.99688
1.00914
1.00911
1.00859
1.0078
1.00665
1.00528
1.00376
1.00216
1.00058
0.999105
0.997779
0.996824
1.00922
1.00919
1.00867
1.00787
1.00672
1.00533
1.00379
1.00217
1.00057
0.999078
0.997736
0.996767
1.0093
1.00928
1.00875
1.00795
1.00678
1.00538
1.00382
1.00218
1.00056
0.99905
0.997691
0.996708
1.00939
1.00937
1.00884
1.00803
1.00685
1.00543
1.00385
1.00219
1.00055
0.999022
0.997646
0.996649
1.00947
1.00946
1.00892
1.00811
1.00692
1.00549
1.00389
1.00221
1.00055
0.998993
0.9976
0.996588
1.00956
1.00955
1.00901
1.00819
1.00699
1.00554
1.00392
1.00222
1.00054
0.998965
0.997554
0.996526
1.00965
1.00964
1.0091
1.00828
1.00706
1.0056
1.00396
1.00223
1.00053
0.998935
0.997507
0.996461
1.00974
1.00973
1.00919
1.00836
1.00713
1.00565
1.00399
1.00225
1.00052
0.998906
0.997459
0.996396
1.00983
1.00983
1.00928
1.00845
1.00721
1.00571
1.00403
1.00226
1.00051
0.998875
0.99741
0.996327
1.00992
1.00993
1.00938
1.00854
1.00728
1.00577
1.00407
1.00228
1.00051
0.998845
0.99736
0.996259
1.01002
1.01003
1.00948
1.00863
1.00736
1.00583
1.00411
1.00229
1.0005
0.998813
0.997308
0.996187
1.01012
1.01013
1.00958
1.00872
1.00744
1.00589
1.00415
1.00231
1.00049
0.998781
0.997256
0.996115
1.01022
1.01023
1.00967
1.00882
1.00752
1.00595
1.00419
1.00233
1.00048
0.998747
0.997201
0.99604
1.01032
1.01034
1.00978
1.00891
1.0076
1.00602
1.00423
1.00234
1.00047
0.998714
0.997146
0.995964
1.01042
1.01044
1.00988
1.00901
1.00768
1.00608
1.00427
1.00236
1.00046
0.998678
0.997089
0.995886
1.01052
1.01055
1.00998
1.00911
1.00776
1.00615
1.00431
1.00237
1.00045
0.998642
0.997031
0.995807
1.01063
1.01066
1.01009
1.00921
1.00785
1.00621
1.00435
1.00239
1.00044
0.998604
0.996971
0.995725
1.01074
1.01077
1.0102
1.00931
1.00793
1.00628
1.00439
1.0024
1.00043
0.998566
0.99691
0.995643
1.01085
1.01089
1.01031
1.00941
1.00802
1.00634
1.00443
1.00242
1.00041
0.998526
0.996847
0.995558
1.01096
1.011
1.01042
1.00952
1.00811
1.00641
1.00448
1.00243
1.0004
0.998486
0.996783
0.995473
1.01107
1.01112
1.01054
1.00962
1.0082
1.00648
1.00452
1.00245
1.00039
0.998444
0.996717
0.995385
1.01119
1.01124
1.01065
1.00973
1.00829
1.00655
1.00456
1.00246
1.00037
0.998402
0.996651
0.995296
1.01131
1.01137
1.01077
1.00984
1.00838
1.00662
1.00461
1.00248
1.00036
0.998358
0.996581
0.995204
1.01143
1.01149
1.01089
1.00995
1.00848
1.0067
1.00465
1.0025
1.00034
0.998314
0.996512
0.995112
1.01155
1.01162
1.01101
1.01007
1.00857
1.00677
1.0047
1.00251
1.00032
0.998267
0.996439
0.995017
1.01168
1.01175
1.01114
1.01018
1.00867
1.00684
1.00475
1.00253
1.00031
0.998221
0.996367
0.994921
1.0118
1.01188
1.01126
1.0103
1.00877
1.00692
1.00479
1.00254
1.00029
0.998172
0.996291
0.994822
1.01193
1.01202
1.01139
1.01042
1.00887
1.007
1.00484
1.00256
1.00027
0.998123
0.996215
0.994723
1.01206
1.01215
1.01153
1.01054
1.00897
1.00708
1.00489
1.00257
1.00025
0.998072
0.996136
0.99462
1.01219
1.01229
1.01166
1.01067
1.00908
1.00716
1.00494
1.00258
1.00023
0.99802
0.996057
0.994517
1.01233
1.01243
1.0118
1.01079
1.00918
1.00724
1.00498
1.0026
1.00021
0.997966
0.995974
0.994409
1.01247
1.01258
1.01193
1.01092
1.00929
1.00732
1.00503
1.00261
1.00019
0.997912
0.995891
0.994302
1.01261
1.01272
1.01207
1.01105
1.0094
1.0074
1.00508
1.00263
1.00017
0.997855
0.995804
0.99419
1.01275
1.01287
1.01222
1.01118
1.00951
1.00748
1.00513
1.00264
1.00015
0.997797
0.995717
0.994078
1.01289
1.01302
1.01236
1.01132
1.00962
1.00757
1.00518
1.00265
1.00012
0.997737
0.995626
0.993962
1.01304
1.01318
1.01251
1.01145
1.00973
1.00765
1.00523
1.00267
1.0001
0.997676
0.995535
0.993845
1.01319
1.01333
1.01265
1.01159
1.00985
1.00774
1.00528
1.00268
1.00007
0.997613
0.99544
0.993724
1.01334
1.01349
1.01281
1.01173
1.00996
1.00783
1.00534
1.00269
1.00004
0.997549
0.995344
0.993603
1.0135
1.01365
1.01296
1.01187
1.01008
1.00791
1.00539
1.0027
1.00001
0.997482
0.995245
0.993477
1.01366
1.01382
1.01311
1.01201
1.0102
1.008
1.00544
1.00271
0.999983
0.997415
0.995145
0.993351
1.01382
1.01398
1.01327
1.01216
1.01032
1.00809
1.00549
1.00272
0.999952
0.997344
0.995041
0.99322
1.01398
1.01415
1.01343
1.0123
1.01045
1.00819
1.00554
1.00273
0.99992
0.997274
0.994937
0.993088
1.01415
1.01433
1.0136
1.01245
1.01057
1.00828
1.0056
1.00274
0.999886
0.9972
0.994828
0.992952
1.01432
1.0145
1.01376
1.01261
1.0107
1.00837
1.00565
1.00275
0.999852
0.997126
0.994719
0.992815
1.01449
1.01468
1.01393
1.01276
1.01083
1.00847
1.00571
1.00276
0.999816
0.997048
0.994605
0.992673
1.01467
1.01486
1.01411
1.01292
1.01096
1.00857
1.00576
1.00277
0.99978
0.99697
0.994491
0.99253
1.01485
1.01504
1.01428
1.01308
1.0111
1.00867
1.00582
1.00278
0.999741
0.996888
0.994373
0.992383
1.01503
1.01523
1.01446
1.01325
1.01123
1.00877
1.00588
1.00279
0.999702
0.996806
0.994253
0.992234
1.01522
1.01542
1.01464
1.01342
1.01137
1.00887
1.00593
1.0028
0.99966
0.99672
0.994129
0.99208
1.01541
1.01562
1.01483
1.01359
1.01151
1.00898
1.00599
1.00281
0.999619
0.996634
0.994004
0.991925
1.0156
1.01581
1.01502
1.01376
1.01166
1.00908
1.00605
1.00282
0.999574
0.996543
0.993874
0.991764
1.0158
1.01601
1.01521
1.01394
1.0118
1.00919
1.00611
1.00282
0.999529
0.996452
0.993743
0.991603
1.016
1.01622
1.01541
1.01412
1.01195
1.0093
1.00617
1.00283
0.999481
0.996357
0.993607
0.991435
1.0162
1.01643
1.01561
1.0143
1.0121
1.00941
1.00623
1.00284
0.999433
0.996261
0.99347
0.991267
1.01641
1.01664
1.01581
1.01448
1.01226
1.00953
1.00629
1.00284
0.999382
0.996161
0.993327
0.991092
1.01662
1.01685
1.01602
1.01467
1.01242
1.00964
1.00635
1.00285
0.99933
0.996059
0.993184
0.990916
1.01684
1.01707
1.01623
1.01487
1.01258
1.00976
1.00641
1.00285
0.999276
0.995954
0.993034
0.990734
1.01705
1.0173
1.01644
1.01506
1.01274
1.00988
1.00647
1.00285
0.99922
0.995847
0.992884
0.99055
1.01728
1.01753
1.01666
1.01527
1.0129
1.01
1.00653
1.00285
0.999161
0.995735
0.992727
0.99036
1.0175
1.01776
1.01688
1.01547
1.01307
1.01012
1.0066
1.00286
0.999102
0.995623
0.992569
0.990168
1.01773
1.01799
1.01711
1.01568
1.01325
1.01024
1.00666
1.00286
0.999039
0.995505
0.992405
0.989969
1.01797
1.01824
1.01735
1.01589
1.01342
1.01037
1.00673
1.00286
0.998976
0.995386
0.99224
0.989768
1.01821
1.01848
1.01758
1.01611
1.0136
1.0105
1.00679
1.00286
0.998909
0.995262
0.992068
0.989561
1.01845
1.01873
1.01782
1.01633
1.01378
1.01063
1.00686
1.00285
0.998841
0.995137
0.991894
0.989351
1.0187
1.01899
1.01807
1.01655
1.01397
1.01076
1.00692
1.00285
0.998769
0.995006
0.991713
0.989134
1.01895
1.01925
1.01832
1.01678
1.01416
1.01089
1.00699
1.00285
0.998696
0.994873
0.991531
0.988914
1.01921
1.01952
1.01858
1.01702
1.01435
1.01103
1.00706
1.00284
0.998619
0.994735
0.991342
0.988687
1.01948
1.01979
1.01884
1.01726
1.01455
1.01117
1.00713
1.00284
0.998541
0.994595
0.99115
0.988457
1.01974
1.02006
1.01911
1.0175
1.01475
1.01131
1.00719
1.00283
0.998459
0.994449
0.990951
0.98822
1.02002
1.02035
1.01938
1.01775
1.01495
1.01146
1.00726
1.00282
0.998375
0.994301
0.990749
0.987979
1.02029
1.02063
1.01966
1.01801
1.01516
1.0116
1.00733
1.00281
0.998287
0.994146
0.99054
0.98773
1.02058
1.02093
1.01994
1.01827
1.01537
1.01175
1.0074
1.0028
0.998197
0.993989
0.990328
0.987478
1.02087
1.02123
1.02023
1.01853
1.01559
1.0119
1.00747
1.00279
0.998102
0.993825
0.990108
0.987217
1.02116
1.02153
1.02053
1.0188
1.01581
1.01205
1.00754
1.00277
0.998005
0.993658
0.989884
0.986953
1.02147
1.02185
1.02083
1.01908
1.01603
1.01221
1.00761
1.00275
0.997903
0.993485
0.989653
0.986679
1.02177
1.02217
1.02114
1.01936
1.01626
1.01237
1.00769
1.00274
0.997799
0.993308
0.989417
0.986402
1.02209
1.02249
1.02146
1.01965
1.0165
1.01253
1.00776
1.00271
0.997689
0.993124
0.989174
0.986116
1.02241
1.02282
1.02178
1.01994
1.01674
1.01269
1.00783
1.00269
0.997577
0.992937
0.988926
0.985824
1.02274
1.02316
1.02211
1.02024
1.01698
1.01286
1.0079
1.00267
0.997459
0.992742
0.988669
0.985524
1.02307
1.02351
1.02244
1.02055
1.01723
1.01303
1.00797
1.00264
0.997339
0.992542
0.988407
0.985218
1.02341
1.02387
1.02279
1.02086
1.01748
1.0132
1.00804
1.00261
0.997212
0.992335
0.988137
0.984903
1.02376
1.02423
1.02314
1.02118
1.01774
1.01337
1.00812
1.00258
0.997082
0.992124
0.987861
0.984582
1.02412
1.0246
1.0235
1.02151
1.018
1.01355
1.00819
1.00254
0.996945
0.991904
0.987575
0.984251
1.02448
1.02498
1.02387
1.02184
1.01827
1.01373
1.00826
1.0025
0.996804
0.991679
0.987284
0.983914
1.02485
1.02536
1.02424
1.02219
1.01855
1.01391
1.00833
1.00246
0.996657
0.991445
0.986983
0.983566
1.02523
1.02576
1.02463
1.02254
1.01883
1.01409
1.0084
1.00241
0.996505
0.991206
0.986676
0.983212
1.02562
1.02616
1.02502
1.02289
1.01911
1.01428
1.00847
1.00236
0.996346
0.990957
0.986358
0.982847
1.02602
1.02657
1.02542
1.02326
1.0194
1.01447
1.00854
1.00231
0.996183
0.990702
0.986033
0.982475
1.02642
1.027
1.02583
1.02363
1.0197
1.01466
1.00861
1.00225
0.996011
0.990437
0.985697
0.982091
1.02684
1.02743
1.02625
1.02401
1.02001
1.01486
1.00867
1.00219
0.995834
0.990166
0.985354
0.981699
1.02726
1.02787
1.02668
1.0244
1.02032
1.01506
1.00874
1.00213
0.995648
0.989884
0.984999
0.981295
1.0277
1.02832
1.02712
1.0248
1.02063
1.01526
1.0088
1.00206
0.995457
0.989595
0.984636
0.980883
1.02814
1.02878
1.02757
1.02521
1.02095
1.01546
1.00887
1.00198
0.995256
0.989294
0.984261
0.980459
1.02859
1.02926
1.02804
1.02563
1.02128
1.01567
1.00893
1.0019
0.995048
0.988986
0.983877
0.980025
1.02906
1.02974
1.02851
1.02606
1.02162
1.01587
1.00899
1.00181
0.994831
0.988665
0.98348
0.979578
1.02953
1.03024
1.02899
1.0265
1.02196
1.01608
1.00904
1.00172
0.994606
0.988336
0.983074
0.979122
1.03001
1.03075
1.02949
1.02694
1.02231
1.0163
1.0091
1.00162
0.99437
0.987993
0.982654
0.978651
1.03051
1.03127
1.03
1.0274
1.02267
1.01651
1.00915
1.00151
0.994126
0.987642
0.982224
0.978171
1.03102
1.0318
1.03052
1.02787
1.02303
1.01673
1.0092
1.0014
0.99387
0.987276
0.981779
0.977675
1.03154
1.03234
1.03105
1.02835
1.02341
1.01695
1.00924
1.00127
0.993606
0.9869
0.981323
0.977169
1.03207
1.0329
1.0316
1.02884
1.02378
1.01717
1.00929
1.00114
0.993328
0.98651
0.980852
0.976648
1.03262
1.03348
1.03216
1.02935
1.02417
1.01739
1.00932
1.00101
0.993041
0.986108
0.980369
0.976114
1.03317
1.03406
1.03274
1.02987
1.02457
1.01761
1.00936
1.00086
0.992739
0.98569
0.97987
0.975565
1.03374
1.03467
1.03333
1.03039
1.02497
1.01784
1.00938
1.0007
0.992427
0.98526
0.979358
0.975003
1.03433
1.03529
1.03394
1.03094
1.02538
1.01807
1.00941
1.00053
0.992099
0.984814
0.978829
0.974424
1.03493
1.03592
1.03456
1.03149
1.0258
1.01829
1.00942
1.00035
0.991759
0.984354
0.978287
0.973832
1.03555
1.03657
1.0352
1.03206
1.02622
1.01852
1.00943
1.00016
0.991403
0.983876
0.977726
0.973222
1.03618
1.03724
1.03585
1.03265
1.02666
1.01875
1.00944
0.999958
0.991033
0.983383
0.97715
0.972597
1.03682
1.03793
1.03653
1.03324
1.0271
1.01898
1.00943
0.99974
0.990646
0.982871
0.976555
0.971954
1.03749
1.03863
1.03722
1.03386
1.02755
1.0192
1.00942
0.999511
0.990243
0.982344
0.975944
0.971296
1.03817
1.03935
1.03793
1.03448
1.02801
1.01943
1.0094
0.999265
0.989821
0.981795
0.975313
0.970618
1.03887
1.0401
1.03866
1.03513
1.02848
1.01965
1.00937
0.999005
0.989382
0.98123
0.974665
0.969924
1.03959
1.04086
1.03941
1.03579
1.02895
1.01988
1.00932
0.998727
0.988922
0.980642
0.973995
0.969209
1.04032
1.04165
1.04018
1.03647
1.02943
1.0201
1.00927
0.998432
0.988444
0.980036
0.973307
0.968477
1.04108
1.04245
1.04098
1.03716
1.02993
1.02031
1.0092
0.998118
0.987943
0.979406
0.972597
0.967723
1.04186
1.04329
1.0418
1.03788
1.03042
1.02053
1.00912
0.997785
0.987421
0.978755
0.971866
0.96695
1.04266
1.04414
1.04264
1.03861
1.03093
1.02073
1.00902
0.99743
0.986874
0.97808
0.971112
0.966155
1.04348
1.04502
1.0435
1.03936
1.03145
1.02094
1.00891
0.997054
0.986305
0.977382
0.970336
0.96534
1.04433
1.04592
1.04439
1.04013
1.03197
1.02113
1.00878
0.996653
0.985708
0.976657
0.969535
0.964502
1.0452
1.04686
1.04531
1.04092
1.0325
1.02132
1.00863
0.996228
0.985087
0.975908
0.968711
0.963642
1.04609
1.04782
1.04626
1.04173
1.03303
1.0215
1.00846
0.995776
0.984436
0.97513
0.967861
0.962758
1.04701
1.04881
1.04723
1.04256
1.03357
1.02167
1.00827
0.995297
0.983757
0.974326
0.966986
0.961852
1.04796
1.04983
1.04824
1.04342
1.03412
1.02182
1.00805
0.994786
0.983046
0.973492
0.966083
0.960919
1.04894
1.05088
1.04928
1.04429
1.03467
1.02196
1.00781
0.994246
0.982305
0.972628
0.965154
0.959963
1.04994
1.05197
1.05035
1.04519
1.03523
1.02209
1.00754
0.993671
0.981529
0.971733
0.964195
0.958979
1.05098
1.05309
1.05145
1.04611
1.03578
1.0222
1.00724
0.993061
0.980719
0.970806
0.963209
0.95797
1.05205
1.05425
1.05259
1.04705
1.03634
1.02229
1.00691
0.992413
0.979872
0.969845
0.962191
0.956933
1.05315
1.05544
1.05377
1.04802
1.0369
1.02236
1.00654
0.991727
0.978987
0.96885
0.961144
0.95587
1.05429
1.05668
1.05498
1.04901
1.03746
1.0224
1.00613
0.990997
0.978062
0.967818
0.960063
0.954776
1.05546
1.05796
1.05624
1.05003
1.03802
1.02242
1.00568
0.990225
0.977096
0.966751
0.958951
0.953655
1.05668
1.05928
1.05754
1.05107
1.03857
1.0224
1.00519
0.989404
0.976085
0.965644
0.957805
0.952502
1.05793
1.06065
1.05888
1.05213
1.03911
1.02235
1.00465
0.988535
0.97503
0.964498
0.956625
0.95132
1.05922
1.06207
1.06027
1.05322
1.03965
1.02226
1.00405
0.987613
0.973928
0.963311
0.955409
0.950106
1.06056
1.06354
1.06171
1.05433
1.04017
1.02213
1.00341
0.986636
0.972777
0.962082
0.954158
0.94886
1.06195
1.06507
1.0632
1.05546
1.04067
1.02196
1.0027
0.985601
0.971573
0.960809
0.952868
0.947581
1.06338
1.06665
1.06474
1.05662
1.04116
1.02173
1.00193
0.984505
0.970318
0.959493
0.951542
0.946269
1.06486
1.06829
1.06633
1.0578
1.04161
1.02144
1.00109
0.983343
0.969007
0.958129
0.950175
0.944922
1.0664
1.07
1.06798
1.059
1.04205
1.02109
1.00017
0.982115
0.967639
0.956718
0.94877
0.943541
1.06799
1.07177
1.06969
1.06021
1.04244
1.02067
0.999183
0.980815
0.966211
0.955258
0.947322
0.942123
1.06965
1.07362
1.07146
1.06144
1.04279
1.02017
0.998107
0.979441
0.964722
0.953749
0.945835
0.94067
1.07136
1.07554
1.0733
1.06268
1.0431
1.01959
0.996941
0.977987
0.963169
0.952188
0.944303
0.939179
1.07314
1.07754
1.0752
1.06393
1.04335
1.01891
0.99568
0.976453
0.961551
0.950575
0.94273
0.937651
1.07499
1.07963
1.07717
1.06519
1.04353
1.01813
0.994316
0.974832
0.959865
0.948908
0.941111
0.936083
1.07692
1.08181
1.07921
1.06644
1.04364
1.01724
0.992844
0.973123
0.958109
0.947187
0.939449
0.934477
1.07892
1.08409
1.08131
1.06768
1.04366
1.01623
0.991256
0.97132
0.956281
0.945408
0.93774
0.93283
1.08101
1.08648
1.0835
1.06891
1.04358
1.01509
0.989546
0.969421
0.954381
0.943574
0.935986
0.931144
1.08318
1.08897
1.08575
1.07012
1.04338
1.0138
0.987706
0.967421
0.952404
0.941681
0.934184
0.929416
1.08546
1.09158
1.08808
1.07129
1.04306
1.01235
0.98573
0.965319
0.950351
0.939731
0.932336
0.927647
1.08783
1.09432
1.09048
1.0724
1.04259
1.01073
0.98361
0.963109
0.94822
0.93772
0.930439
0.925835
1.09031
1.09719
1.09295
1.07346
1.04195
1.00892
0.981339
0.96079
0.946009
0.93565
0.928495
0.92398
1.09291
1.10021
1.09548
1.07443
1.04112
1.00692
0.97891
0.958358
0.943718
0.93352
0.926502
0.922082
1.09563
1.10337
1.09808
1.07531
1.04009
1.0047
0.976317
0.955812
0.941345
0.931329
0.924461
0.920142
1.09849
1.10671
1.10073
1.07605
1.03882
1.00224
0.973552
0.953148
0.938891
0.929078
0.922371
0.918157
1.10149
1.11021
1.10343
1.07664
1.03728
0.999546
0.970611
0.950367
0.936355
0.926766
0.920232
0.91613
1.10465
1.1139
1.10616
1.07705
1.03545
0.996586
0.967488
0.947467
0.933737
0.924394
0.918044
0.914058
1.10799
1.11778
1.10891
1.07724
1.03329
0.993347
0.96418
0.944448
0.931038
0.921963
0.915808
0.911942
1.11151
1.12187
1.11165
1.07716
1.03078
0.989815
0.960683
0.94131
0.928258
0.919473
0.913524
0.909783
1.11524
1.12617
1.11436
1.07677
1.02787
0.985976
0.956996
0.938054
0.925401
0.916925
0.911192
0.907579
1.1192
1.13069
1.11701
1.07602
1.02452
0.981817
0.953118
0.934684
0.922465
0.914321
0.908813
0.905331
1.12341
1.13544
1.11955
1.07485
1.02071
0.977328
0.949051
0.931202
0.919456
0.911663
0.906387
0.903039
1.12789
1.14041
1.12193
1.07319
1.01638
0.9725
0.9448
0.927611
0.916375
0.908951
0.903916
0.900702
1.13267
1.14562
1.1241
1.07096
1.0115
0.96733
0.940371
0.923918
0.913226
0.906189
0.9014
0.898322
1.13779
1.15105
1.12598
1.0681
1.00604
0.961817
0.935771
0.920129
0.910012
0.903379
0.89884
0.895897
1.14329
1.15669
1.12748
1.0645
0.999955
0.955967
0.931014
0.91625
0.906739
0.900524
0.896238
0.89343
1.1492
1.16251
1.1285
1.06008
0.99322
0.949789
0.926112
0.91229
0.90341
0.897625
0.893595
0.890918
1.15558
1.16848
1.12892
1.05474
0.985814
0.943303
0.921082
0.908258
0.900033
0.894688
0.890911
0.888364
1.16248
1.17454
1.12859
1.04838
0.977722
0.936533
0.915945
0.904164
0.896612
0.891715
0.888189
0.885767
1.16994
1.18062
1.12737
1.0409
0.968946
0.929513
0.910721
0.900019
0.893155
0.88871
0.885429
0.883129
1.17805
1.18661
1.12505
1.0322
0.9595
0.922286
0.905436
0.895833
0.889668
0.885677
0.882633
0.88045
1.18685
1.19239
1.12144
1.02218
0.94942
0.914905
0.900113
0.89162
0.886157
0.882618
0.879803
0.877731
1.19643
1.19778
1.1163
1.01078
0.938762
0.907427
0.894781
0.887389
0.882631
0.879539
0.876941
0.874974
1.20685
1.20255
1.10938
0.997935
0.927613
0.89992
0.889464
0.883154
0.879096
0.876444
0.874048
0.872181
1.21817
1.20643
1.10041
0.983637
0.916085
0.892457
0.884189
0.878926
0.875559
0.873335
0.871127
0.869354
1.23045
1.20906
1.08909
0.967912
0.904321
0.885111
0.878978
0.874715
0.872029
0.870219
0.868181
0.866496
1.2437
1.21001
1.07516
0.950854
0.892494
0.877955
0.873852
0.870533
0.868512
0.8671
0.86522
0.863611
1.25793
1.20873
1.05833
0.932635
0.880801
0.871059
0.868828
0.866388
0.865012
0.863978
0.86224
0.860694
1.27306
1.20457
1.03837
0.913525
0.869449
0.864469
0.863914
0.862294
0.861556
0.860897
0.859298
0.857791
1.28891
1.19673
1.01513
0.893915
0.858672
0.858242
0.859105
0.858214
0.85807
0.857741
0.856267
0.854793
1.30518
1.18423
0.988609
0.874269
0.848608
0.852378
0.854491
0.854351
0.854861
0.854893
0.853504
0.851938
1.32133
1.16595
0.95914
0.85537
0.839545
0.846693
0.849561
0.849982
0.851062
0.851537
0.850327
0.848756
1.33641
1.14047
0.927163
0.837438
0.831901
0.84239
0.84611
0.847152
0.848682
0.849314
0.847935
0.846011
1.34926
1.10695
0.895767
0.820773
0.8227
0.83503
0.839554
0.841778
0.84455
0.845974
0.844788
0.842642
1.35624
1.06104
0.869208
0.814251
0.82251
0.83429
0.837522
0.839396
0.842403
0.844096
0.842925
0.840612
1.35883
0.988786
0.818842
0.789797
0.811534
0.828814
0.83447
0.837747
0.841609
0.843744
0.842792
0.840588
0.996412
0.996428
0.996988
0.997519
0.99767
0.997451
0.997109
0.996889
0.996876
0.997004
0.99716
0.997273
0.996784
0.996721
0.997122
0.997519
0.997622
0.997425
0.997125
0.996926
0.996909
0.997021
0.997165
0.997276
0.997207
0.997021
0.997205
0.997441
0.99751
0.997373
0.997149
0.996985
0.996958
0.997044
0.997169
0.997275
0.997507
0.997201
0.99721
0.997342
0.997417
0.997358
0.997205
0.997065
0.997018
0.99707
0.997172
0.99727
0.997656
0.997286
0.997207
0.997299
0.997394
0.997386
0.997274
0.997138
0.997066
0.997088
0.997169
0.997258
0.997724
0.997351
0.997247
0.997319
0.997412
0.997416
0.997315
0.997179
0.997093
0.997094
0.99716
0.997243
0.997785
0.997437
0.997323
0.997365
0.99743
0.997424
0.997329
0.997201
0.997114
0.997106
0.997159
0.997234
0.997862
0.997534
0.997402
0.997405
0.997437
0.99742
0.997335
0.997222
0.997139
0.997122
0.997161
0.997226
0.997939
0.99762
0.997466
0.997434
0.99744
0.997417
0.997342
0.997241
0.99716
0.997134
0.997161
0.997216
0.997998
0.997685
0.997515
0.997459
0.997446
0.997418
0.997348
0.997254
0.997174
0.997142
0.99716
0.997209
0.998037
0.997733
0.997555
0.997482
0.997455
0.997419
0.99735
0.997261
0.997184
0.99715
0.997161
0.997202
0.998064
0.997771
0.99759
0.997504
0.997462
0.997418
0.997349
0.997264
0.997192
0.997156
0.99716
0.997194
0.998083
0.997802
0.997619
0.997522
0.997466
0.997414
0.997346
0.997266
0.997197
0.997159
0.997157
0.997183
0.998098
0.997827
0.997642
0.997534
0.997468
0.997411
0.997343
0.997267
0.997199
0.997159
0.997151
0.997169
0.998107
0.997844
0.997657
0.997542
0.997468
0.997407
0.997338
0.997264
0.997197
0.997154
0.997141
0.997153
0.998111
0.997855
0.997668
0.997548
0.997468
0.997402
0.997332
0.997258
0.997191
0.997146
0.997129
0.997137
0.998109
0.997861
0.997675
0.997551
0.997465
0.997395
0.997322
0.997247
0.99718
0.997135
0.997116
0.997122
0.998105
0.997864
0.997679
0.997551
0.99746
0.997385
0.99731
0.997234
0.997168
0.997122
0.997102
0.997106
0.998099
0.997863
0.997679
0.997547
0.997451
0.997371
0.997294
0.997219
0.997154
0.997109
0.997088
0.997091
0.998091
0.99786
0.997675
0.99754
0.997439
0.997356
0.997278
0.997202
0.997138
0.997094
0.997074
0.997076
0.99808
0.997853
0.997667
0.997529
0.997425
0.997339
0.997259
0.997185
0.997122
0.997079
0.997059
0.99706
0.998066
0.997842
0.997656
0.997515
0.997408
0.997321
0.997241
0.997167
0.997106
0.997063
0.997042
0.997042
0.998049
0.997827
0.997641
0.997499
0.997391
0.997302
0.997222
0.997149
0.997088
0.997046
0.997024
0.997023
0.998029
0.99781
0.997625
0.997481
0.997372
0.997283
0.997203
0.99713
0.99707
0.997027
0.997004
0.997002
0.998006
0.997791
0.997607
0.997463
0.997353
0.997263
0.997183
0.99711
0.997049
0.997006
0.996982
0.996978
0.997983
0.997771
0.997588
0.997444
0.997334
0.997243
0.997162
0.997089
0.997027
0.996983
0.996958
0.996953
0.997958
0.99775
0.997568
0.997425
0.997313
0.997222
0.99714
0.997065
0.997003
0.996958
0.996932
0.996926
0.997932
0.997728
0.997548
0.997404
0.997292
0.997199
0.997116
0.99704
0.996977
0.996931
0.996905
0.996898
0.997906
0.997705
0.997527
0.997382
0.997268
0.997174
0.99709
0.997013
0.996949
0.996903
0.996876
0.996869
0.99788
0.997682
0.997504
0.997359
0.997243
0.997147
0.997062
0.996985
0.99692
0.996873
0.996846
0.996839
0.997853
0.997658
0.99748
0.997333
0.997215
0.997118
0.997032
0.996954
0.996889
0.996842
0.996814
0.996807
0.997826
0.997632
0.997454
0.997306
0.997186
0.997087
0.997
0.996923
0.996857
0.99681
0.996782
0.996775
0.997797
0.997605
0.997426
0.997276
0.997154
0.997054
0.996967
0.996889
0.996823
0.996776
0.996748
0.996741
0.997767
0.997576
0.997396
0.997244
0.99712
0.99702
0.996932
0.996854
0.996789
0.996742
0.996713
0.996706
0.997735
0.997545
0.997364
0.997209
0.997084
0.996983
0.996895
0.996818
0.996752
0.996705
0.996677
0.996671
0.997703
0.997513
0.99733
0.997173
0.997047
0.996945
0.996857
0.99678
0.996715
0.996668
0.99664
0.996634
0.99767
0.997479
0.997294
0.997135
0.997007
0.996905
0.996817
0.996741
0.996676
0.996629
0.996602
0.996597
0.997636
0.997444
0.997257
0.997096
0.996966
0.996864
0.996776
0.9967
0.996635
0.996589
0.996563
0.996559
0.997601
0.997407
0.997218
0.997054
0.996923
0.99682
0.996733
0.996657
0.996594
0.996548
0.996523
0.99652
0.997566
0.99737
0.997178
0.997012
0.996879
0.996776
0.996689
0.996614
0.996551
0.996506
0.996482
0.99648
0.99753
0.997331
0.997136
0.996967
0.996834
0.99673
0.996643
0.996569
0.996507
0.996463
0.99644
0.996438
0.997493
0.997292
0.997094
0.996922
0.996787
0.996683
0.996597
0.996523
0.996462
0.996419
0.996397
0.996396
0.997455
0.99725
0.997049
0.996875
0.996739
0.996634
0.996549
0.996475
0.996415
0.996373
0.996352
0.996352