/*--------------------------------*- C++ -*----------------------------------*\
  =========                 |
  \\      /  F ield         | OpenFOAM: The Open Source CFD Toolbox
   \\    /   O peration     | Website:  https://openfoam.org
    \\  /    A nd           | Version:  6.0
     \\/     M anipulation  |
\*---------------------------------------------------------------------------*/
FoamFile
{
    version     2.0;
    format      ascii;
    class       volScalarField;
    location    "3.2";
    object      p;
}
// * * * * * * * * * * * * * * * * * * * * * * * * * * * * * * * * * * * * * //

dimensions      [0 2 -2 0 0 0 0];

internalField   nonuniform List<scalar> 
34500
(
1.0059
1.00594
1.00581
1.0055
1.00505
1.00449
1.00387
1.00324
1.00263
1.00206
1.00154
1.00109
1.00071
1.00044
1.00028
1.00591
1.00598
1.0059
1.00567
1.00531
1.00482
1.00427
1.00367
1.00307
1.00248
1.00191
1.0014
1.00093
1.0006
1.00036
1.00591
1.00597
1.00587
1.00562
1.00522
1.00471
1.00413
1.00351
1.0029
1.00231
1.00176
1.00127
1.00083
1.00054
1.00031
1.00591
1.00596
1.00585
1.00557
1.00516
1.00463
1.00403
1.0034
1.00279
1.0022
1.00167
1.0012
1.00078
1.00052
1.00031
1.00592
1.00597
1.00586
1.00559
1.00518
1.00466
1.00408
1.00346
1.00284
1.00225
1.00171
1.00124
1.00081
1.00054
1.00032
1.00593
1.00598
1.00588
1.00562
1.00522
1.00471
1.00414
1.00352
1.00291
1.00231
1.00176
1.00127
1.00083
1.00055
1.00032
1.00594
1.00599
1.00589
1.00563
1.00523
1.00473
1.00415
1.00354
1.00292
1.00232
1.00176
1.00126
1.00082
1.00054
1.00031
1.00595
1.006
1.0059
1.00564
1.00524
1.00473
1.00415
1.00353
1.00291
1.00231
1.00175
1.00125
1.00081
1.00052
1.0003
1.00596
1.00602
1.00591
1.00565
1.00524
1.00473
1.00415
1.00353
1.00291
1.00231
1.00174
1.00124
1.00081
1.00052
1.00029
1.00597
1.00603
1.00592
1.00566
1.00526
1.00475
1.00417
1.00355
1.00292
1.00232
1.00175
1.00125
1.00081
1.00051
1.00029
1.00599
1.00605
1.00594
1.00568
1.00528
1.00477
1.00419
1.00357
1.00294
1.00234
1.00177
1.00126
1.00082
1.00051
1.00028
1.006
1.00606
1.00596
1.00571
1.00531
1.0048
1.00422
1.0036
1.00297
1.00236
1.00178
1.00127
1.00082
1.00051
1.00027
1.00602
1.00608
1.00598
1.00573
1.00534
1.00483
1.00425
1.00363
1.003
1.00238
1.0018
1.00128
1.00083
1.0005
1.00025
1.00604
1.0061
1.00601
1.00576
1.00537
1.00486
1.00428
1.00366
1.00302
1.0024
1.00182
1.00129
1.00083
1.00049
1.00023
1.00606
1.00613
1.00603
1.00578
1.00539
1.00489
1.00431
1.00369
1.00305
1.00242
1.00182
1.00129
1.00082
1.00047
1.00021
1.00608
1.00615
1.00605
1.0058
1.00541
1.00491
1.00433
1.00371
1.00306
1.00243
1.00183
1.00129
1.00081
1.00046
1.00019
1.00611
1.00617
1.00608
1.00583
1.00544
1.00493
1.00435
1.00372
1.00307
1.00244
1.00183
1.00128
1.0008
1.00044
1.00017
1.00613
1.0062
1.0061
1.00585
1.00546
1.00495
1.00437
1.00374
1.00308
1.00244
1.00183
1.00128
1.00079
1.00042
1.00015
1.00615
1.00622
1.00613
1.00588
1.00548
1.00498
1.00439
1.00375
1.0031
1.00245
1.00183
1.00128
1.00079
1.00041
1.00012
1.00618
1.00625
1.00615
1.00591
1.00551
1.005
1.00441
1.00377
1.00311
1.00246
1.00184
1.00128
1.00078
1.00039
1.0001
1.00621
1.00628
1.00619
1.00594
1.00554
1.00503
1.00444
1.0038
1.00313
1.00248
1.00185
1.00128
1.00078
1.00038
1.00008
1.00624
1.00631
1.00622
1.00597
1.00558
1.00507
1.00447
1.00383
1.00316
1.00249
1.00186
1.00128
1.00077
1.00036
1.00005
1.00627
1.00634
1.00625
1.00601
1.00561
1.0051
1.00451
1.00385
1.00318
1.00251
1.00186
1.00128
1.00076
1.00034
1.00002
1.0063
1.00638
1.00628
1.00604
1.00565
1.00514
1.00454
1.00388
1.0032
1.00252
1.00187
1.00127
1.00075
1.00032
0.999993
1.00634
1.00641
1.00632
1.00608
1.00568
1.00517
1.00457
1.00391
1.00322
1.00253
1.00187
1.00127
1.00073
1.0003
0.999963
1.00637
1.00645
1.00636
1.00611
1.00571
1.0052
1.00459
1.00393
1.00323
1.00254
1.00187
1.00126
1.00072
1.00027
0.999933
1.00641
1.00648
1.00639
1.00615
1.00575
1.00523
1.00462
1.00395
1.00325
1.00255
1.00187
1.00125
1.0007
1.00025
0.999901
1.00644
1.00652
1.00643
1.00618
1.00578
1.00526
1.00465
1.00397
1.00326
1.00255
1.00187
1.00124
1.00069
1.00022
0.999869
1.00648
1.00656
1.00647
1.00622
1.00582
1.0053
1.00468
1.00399
1.00328
1.00256
1.00187
1.00124
1.00067
1.0002
0.999837
1.00652
1.0066
1.00651
1.00626
1.00586
1.00533
1.00471
1.00402
1.0033
1.00257
1.00187
1.00123
1.00065
1.00017
0.999803
1.00657
1.00664
1.00655
1.0063
1.0059
1.00537
1.00474
1.00404
1.00331
1.00258
1.00187
1.00122
1.00064
1.00015
0.999768
1.00661
1.00669
1.0066
1.00635
1.00594
1.0054
1.00477
1.00407
1.00333
1.00259
1.00187
1.00121
1.00062
1.00012
0.999732
1.00665
1.00673
1.00664
1.00639
1.00598
1.00544
1.0048
1.0041
1.00335
1.0026
1.00187
1.0012
1.0006
1.00009
0.999695
1.0067
1.00678
1.00669
1.00644
1.00602
1.00548
1.00484
1.00412
1.00337
1.00261
1.00187
1.00119
1.00058
1.00006
0.999656
1.00675
1.00683
1.00674
1.00648
1.00607
1.00552
1.00487
1.00415
1.00339
1.00262
1.00187
1.00118
1.00056
1.00003
0.999617
1.0068
1.00688
1.00679
1.00653
1.00611
1.00556
1.00491
1.00418
1.00341
1.00263
1.00187
1.00116
1.00053
0.999997
0.999577
1.00685
1.00693
1.00684
1.00658
1.00616
1.0056
1.00494
1.00421
1.00342
1.00264
1.00187
1.00115
1.00051
0.999964
0.999536
1.0069
1.00698
1.00689
1.00663
1.00621
1.00565
1.00498
1.00423
1.00344
1.00264
1.00186
1.00114
1.00049
0.99993
0.999493
1.00695
1.00704
1.00694
1.00668
1.00625
1.00569
1.00502
1.00426
1.00346
1.00265
1.00186
1.00112
1.00046
0.999895
0.99945
1.00701
1.00709
1.007
1.00674
1.00631
1.00574
1.00505
1.00429
1.00348
1.00266
1.00186
1.00111
1.00043
0.999859
0.999405
1.00706
1.00715
1.00706
1.00679
1.00636
1.00578
1.00509
1.00432
1.0035
1.00267
1.00185
1.00109
1.00041
0.999821
0.999359
1.00712
1.00721
1.00711
1.00685
1.00641
1.00583
1.00513
1.00435
1.00352
1.00268
1.00185
1.00108
1.00038
0.999783
0.999312
1.00718
1.00727
1.00717
1.00691
1.00646
1.00588
1.00517
1.00438
1.00354
1.00268
1.00184
1.00106
1.00035
0.999743
0.999263
1.00724
1.00733
1.00724
1.00697
1.00652
1.00593
1.00521
1.00441
1.00356
1.00269
1.00184
1.00104
1.00032
0.999701
0.999214
1.0073
1.0074
1.0073
1.00703
1.00657
1.00598
1.00525
1.00444
1.00358
1.0027
1.00183
1.00102
1.00029
0.999659
0.999162
1.00737
1.00746
1.00736
1.00709
1.00663
1.00603
1.0053
1.00447
1.0036
1.0027
1.00182
1.001
1.00025
0.999616
0.99911
1.00744
1.00753
1.00743
1.00715
1.00669
1.00608
1.00534
1.0045
1.00361
1.00271
1.00181
1.00098
1.00022
0.999571
0.999057
1.0075
1.0076
1.0075
1.00722
1.00675
1.00613
1.00538
1.00454
1.00363
1.00271
1.00181
1.00096
1.00019
0.999525
0.999002
1.00757
1.00767
1.00757
1.00728
1.00681
1.00618
1.00542
1.00457
1.00365
1.00272
1.0018
1.00093
1.00015
0.999478
0.998945
1.00764
1.00774
1.00764
1.00735
1.00687
1.00624
1.00547
1.0046
1.00367
1.00272
1.00179
1.00091
1.00011
0.99943
0.998887
1.00772
1.00781
1.00771
1.00742
1.00694
1.0063
1.00552
1.00464
1.00369
1.00273
1.00178
1.00089
1.00008
0.99938
0.998828
1.00779
1.00789
1.00778
1.00749
1.007
1.00635
1.00556
1.00467
1.00371
1.00274
1.00177
1.00086
1.00004
0.999329
0.998767
1.00787
1.00797
1.00786
1.00757
1.00707
1.00641
1.00561
1.00471
1.00373
1.00274
1.00176
1.00083
0.999997
0.999276
0.998704
1.00795
1.00804
1.00794
1.00764
1.00714
1.00647
1.00566
1.00474
1.00376
1.00275
1.00175
1.00081
0.999955
0.999222
0.99864
1.00803
1.00813
1.00802
1.00772
1.00721
1.00653
1.00571
1.00478
1.00378
1.00275
1.00173
1.00078
0.999912
0.999166
0.998574
1.00811
1.00821
1.0081
1.0078
1.00728
1.0066
1.00576
1.00482
1.0038
1.00275
1.00172
1.00075
0.999868
0.999109
0.998507
1.00819
1.00829
1.00818
1.00788
1.00735
1.00666
1.00581
1.00485
1.00382
1.00276
1.00171
1.00072
0.999823
0.999051
0.998438
1.00828
1.00838
1.00827
1.00796
1.00743
1.00673
1.00587
1.00489
1.00384
1.00276
1.0017
1.00069
0.999776
0.998991
0.998367
1.00836
1.00847
1.00836
1.00804
1.00751
1.00679
1.00592
1.00493
1.00386
1.00277
1.00168
1.00066
0.999728
0.998929
0.998294
1.00845
1.00856
1.00844
1.00813
1.00758
1.00686
1.00598
1.00497
1.00389
1.00277
1.00167
1.00062
0.999679
0.998866
0.99822
1.00854
1.00865
1.00854
1.00821
1.00766
1.00693
1.00603
1.00501
1.00391
1.00277
1.00165
1.00059
0.999628
0.998801
0.998143
1.00864
1.00875
1.00863
1.0083
1.00775
1.007
1.00609
1.00505
1.00393
1.00278
1.00163
1.00056
0.999576
0.998734
0.998065
1.00873
1.00884
1.00872
1.00839
1.00783
1.00707
1.00615
1.00509
1.00395
1.00278
1.00162
1.00052
0.999522
0.998665
0.997985
1.00883
1.00894
1.00882
1.00849
1.00791
1.00715
1.00621
1.00513
1.00398
1.00278
1.0016
1.00048
0.999467
0.998595
0.997902
1.00893
1.00904
1.00892
1.00858
1.008
1.00722
1.00627
1.00518
1.004
1.00279
1.00158
1.00044
0.99941
0.998523
0.997818
1.00903
1.00914
1.00902
1.00868
1.00809
1.0073
1.00633
1.00522
1.00402
1.00279
1.00156
1.0004
0.999352
0.998449
0.997731
1.00913
1.00925
1.00912
1.00878
1.00818
1.00738
1.00639
1.00526
1.00405
1.00279
1.00154
1.00036
0.999292
0.998373
0.997643
1.00924
1.00936
1.00923
1.00888
1.00827
1.00745
1.00645
1.00531
1.00407
1.00279
1.00152
1.00032
0.99923
0.998295
0.997552
1.00934
1.00946
1.00934
1.00898
1.00836
1.00754
1.00652
1.00535
1.00409
1.00279
1.0015
1.00028
0.999167
0.998216
0.997459
1.00945
1.00958
1.00945
1.00909
1.00846
1.00762
1.00658
1.0054
1.00412
1.00279
1.00148
1.00023
0.999103
0.998134
0.997364
1.00957
1.00969
1.00956
1.00919
1.00856
1.0077
1.00665
1.00545
1.00414
1.00279
1.00145
1.00019
0.999036
0.99805
0.997267
1.00968
1.00981
1.00967
1.0093
1.00866
1.00779
1.00672
1.0055
1.00417
1.00279
1.00143
1.00014
0.998968
0.997964
0.997167
1.0098
1.00993
1.00979
1.00941
1.00876
1.00788
1.00679
1.00554
1.00419
1.00279
1.00141
1.00009
0.998898
0.997877
0.997064
1.00992
1.01005
1.00991
1.00953
1.00886
1.00797
1.00686
1.00559
1.00422
1.00279
1.00138
1.00004
0.998827
0.997786
0.99696
1.01004
1.01017
1.01003
1.00964
1.00897
1.00806
1.00693
1.00564
1.00424
1.00279
1.00135
0.999992
0.998753
0.997694
0.996852
1.01016
1.0103
1.01016
1.00976
1.00907
1.00815
1.00701
1.0057
1.00427
1.00279
1.00133
0.99994
0.998678
0.997599
0.996742
1.01029
1.01042
1.01028
1.00988
1.00918
1.00824
1.00708
1.00575
1.0043
1.00279
1.0013
0.999886
0.9986
0.997502
0.99663
1.01042
1.01056
1.01041
1.01001
1.0093
1.00834
1.00716
1.0058
1.00432
1.00279
1.00127
0.99983
0.998521
0.997403
0.996515
1.01055
1.01069
1.01054
1.01013
1.00941
1.00844
1.00724
1.00585
1.00435
1.00279
1.00124
0.999773
0.998439
0.997301
0.996397
1.01068
1.01083
1.01068
1.01026
1.00953
1.00854
1.00732
1.00591
1.00438
1.00279
1.00121
0.999714
0.998356
0.997196
0.996276
1.01082
1.01097
1.01082
1.01039
1.00965
1.00864
1.0074
1.00597
1.0044
1.00279
1.00118
0.999654
0.99827
0.997089
0.996152
1.01096
1.01111
1.01096
1.01053
1.00977
1.00875
1.00748
1.00602
1.00443
1.00278
1.00114
0.999592
0.998182
0.99698
0.996025
1.0111
1.01125
1.0111
1.01066
1.00989
1.00885
1.00756
1.00608
1.00446
1.00278
1.00111
0.999528
0.998091
0.996868
0.995896
1.01125
1.0114
1.01124
1.0108
1.01002
1.00896
1.00765
1.00614
1.00449
1.00278
1.00107
0.999462
0.997999
0.996752
0.995763
1.0114
1.01155
1.01139
1.01094
1.01015
1.00907
1.00774
1.0062
1.00451
1.00277
1.00104
0.999395
0.997904
0.996635
0.995627
1.01155
1.0117
1.01154
1.01109
1.01028
1.00919
1.00783
1.00626
1.00454
1.00277
1.001
0.999326
0.997807
0.996514
0.995488
1.0117
1.01186
1.0117
1.01123
1.01041
1.0093
1.00792
1.00632
1.00457
1.00276
1.00096
0.999255
0.997707
0.996391
0.995346
1.01186
1.01202
1.01186
1.01138
1.01055
1.00942
1.00801
1.00638
1.0046
1.00275
1.00092
0.999182
0.997605
0.996264
0.9952
1.01202
1.01218
1.01202
1.01154
1.01069
1.00954
1.0081
1.00644
1.00463
1.00275
1.00088
0.999107
0.9975
0.996135
0.995051
1.01218
1.01235
1.01218
1.01169
1.01083
1.00966
1.0082
1.00651
1.00466
1.00274
1.00083
0.99903
0.997393
0.996002
0.994898
1.01235
1.01252
1.01235
1.01185
1.01098
1.00978
1.00829
1.00657
1.00469
1.00273
1.00079
0.998951
0.997283
0.995866
0.994743
1.01252
1.01269
1.01252
1.01202
1.01113
1.00991
1.00839
1.00664
1.00472
1.00273
1.00074
0.99887
0.99717
0.995727
0.994583
1.01269
1.01287
1.01269
1.01218
1.01128
1.01004
1.0085
1.00671
1.00475
1.00272
1.0007
0.998787
0.997055
0.995585
0.994419
1.01286
1.01305
1.01287
1.01235
1.01143
1.01017
1.0086
1.00677
1.00478
1.00271
1.00065
0.998701
0.996936
0.995439
0.994252
1.01304
1.01323
1.01305
1.01252
1.01159
1.01031
1.0087
1.00684
1.00481
1.0027
1.0006
0.998613
0.996815
0.99529
0.994081
1.01323
1.01342
1.01324
1.0127
1.01175
1.01044
1.00881
1.00691
1.00484
1.00269
1.00055
0.998523
0.99669
0.995137
0.993906
1.01341
1.01361
1.01342
1.01288
1.01191
1.01058
1.00892
1.00699
1.00487
1.00268
1.00049
0.99843
0.996562
0.994981
0.993727
1.0136
1.0138
1.01362
1.01306
1.01208
1.01072
1.00903
1.00706
1.0049
1.00266
1.00044
0.998335
0.996431
0.99482
0.993544
1.0138
1.014
1.01381
1.01325
1.01225
1.01087
1.00914
1.00713
1.00493
1.00265
1.00038
0.998237
0.996297
0.994656
0.993357
1.01399
1.0142
1.01401
1.01344
1.01242
1.01102
1.00925
1.00721
1.00497
1.00264
1.00032
0.998137
0.99616
0.994488
0.993165
1.01419
1.01441
1.01421
1.01364
1.0126
1.01117
1.00937
1.00728
1.005
1.00262
1.00026
0.998033
0.996019
0.994317
0.992969
1.0144
1.01462
1.01442
1.01383
1.01278
1.01132
1.00949
1.00736
1.00503
1.0026
1.0002
0.997927
0.995875
0.994141
0.992768
1.01461
1.01483
1.01463
1.01404
1.01296
1.01148
1.00961
1.00744
1.00506
1.00259
1.00013
0.997819
0.995727
0.993961
0.992564
1.01482
1.01505
1.01485
1.01424
1.01315
1.01163
1.00973
1.00752
1.00509
1.00257
1.00007
0.997707
0.995575
0.993777
0.992354
1.01504
1.01527
1.01507
1.01445
1.01334
1.0118
1.00986
1.0076
1.00512
1.00255
0.999999
0.997592
0.99542
0.993588
0.992139
1.01526
1.0155
1.01529
1.01467
1.01353
1.01196
1.00999
1.00768
1.00515
1.00253
0.999928
0.997474
0.995261
0.993395
0.99192
1.01548
1.01573
1.01552
1.01488
1.01373
1.01213
1.01012
1.00776
1.00519
1.00251
0.999854
0.997353
0.995098
0.993198
0.991696
1.01571
1.01597
1.01575
1.01511
1.01393
1.0123
1.01025
1.00785
1.00522
1.00249
0.999779
0.997229
0.994931
0.992995
0.991467
1.01595
1.01621
1.01599
1.01533
1.01414
1.01248
1.01038
1.00793
1.00525
1.00246
0.999701
0.997101
0.994759
0.992788
0.991232
1.01619
1.01645
1.01623
1.01557
1.01435
1.01266
1.01052
1.00802
1.00528
1.00244
0.99962
0.99697
0.994584
0.992577
0.990992
1.01643
1.0167
1.01648
1.0158
1.01456
1.01284
1.01066
1.00811
1.00531
1.00241
0.999537
0.996835
0.994404
0.99236
0.990747
1.01668
1.01695
1.01673
1.01604
1.01478
1.01302
1.0108
1.0082
1.00534
1.00238
0.999451
0.996696
0.994219
0.992138
0.990497
1.01693
1.01721
1.01699
1.01629
1.01501
1.01321
1.01094
1.00829
1.00537
1.00235
0.999363
0.996554
0.99403
0.991911
0.990241
1.01719
1.01748
1.01725
1.01654
1.01523
1.01341
1.01109
1.00838
1.00541
1.00232
0.999271
0.996408
0.993836
0.991679
0.989979
1.01745
1.01775
1.01752
1.0168
1.01547
1.0136
1.01124
1.00847
1.00544
1.00229
0.999177
0.996258
0.993638
0.991441
0.989711
1.01772
1.01802
1.01779
1.01706
1.0157
1.0138
1.01139
1.00856
1.00547
1.00225
0.999079
0.996103
0.993434
0.991198
0.989438
1.01799
1.0183
1.01807
1.01733
1.01594
1.01401
1.01154
1.00866
1.0055
1.00222
0.998979
0.995945
0.993226
0.990949
0.989158
1.01827
1.01859
1.01835
1.0176
1.01619
1.01421
1.0117
1.00875
1.00552
1.00218
0.998875
0.995782
0.993012
0.990694
0.988872
1.01856
1.01888
1.01864
1.01788
1.01644
1.01443
1.01186
1.00885
1.00555
1.00214
0.998768
0.995614
0.992793
0.990434
0.988581
1.01884
1.01918
1.01894
1.01816
1.0167
1.01464
1.01202
1.00895
1.00558
1.00209
0.998657
0.995442
0.992568
0.990167
0.988282
1.01914
1.01948
1.01924
1.01845
1.01696
1.01486
1.01219
1.00905
1.00561
1.00205
0.998542
0.995265
0.992338
0.989895
0.987977
1.01944
1.01979
1.01955
1.01874
1.01723
1.01509
1.01235
1.00915
1.00564
1.002
0.998424
0.995084
0.992102
0.989615
0.987665
1.01975
1.02011
1.01986
1.01904
1.0175
1.01531
1.01252
1.00925
1.00566
1.00195
0.998302
0.994897
0.99186
0.98933
0.987347
1.02006
1.02043
1.02018
1.01935
1.01778
1.01555
1.0127
1.00935
1.00569
1.0019
0.998175
0.994705
0.991612
0.989038
0.987021
1.02038
1.02076
1.02051
1.01966
1.01806
1.01578
1.01287
1.00946
1.00571
1.00184
0.998045
0.994507
0.991358
0.988739
0.986689
1.0207
1.0211
1.02084
1.01998
1.01835
1.01603
1.01305
1.00956
1.00573
1.00178
0.99791
0.994304
0.991098
0.988433
0.986349
1.02103
1.02144
1.02118
1.02031
1.01864
1.01627
1.01323
1.00967
1.00576
1.00172
0.99777
0.994095
0.990831
0.98812
0.986002
1.02137
1.02179
1.02153
1.02064
1.01894
1.01652
1.01342
1.00977
1.00578
1.00166
0.997626
0.993881
0.990557
0.9878
0.985648
1.02172
1.02215
1.02189
1.02098
1.01925
1.01678
1.01361
1.00988
1.0058
1.00159
0.997477
0.99366
0.990277
0.987473
0.985286
1.02207
1.02251
1.02225
1.02133
1.01956
1.01704
1.0138
1.00999
1.00582
1.00152
0.997323
0.993433
0.989989
0.987137
0.984916
1.02243
1.02288
1.02262
1.02169
1.01988
1.01731
1.01399
1.01009
1.00583
1.00145
0.997164
0.993199
0.989694
0.986795
0.984538
1.02279
1.02326
1.02299
1.02205
1.02021
1.01758
1.01419
1.0102
1.00585
1.00137
0.996999
0.992959
0.989392
0.986444
0.984152
1.02316
1.02365
1.02338
1.02242
1.02054
1.01785
1.01439
1.01031
1.00586
1.00128
0.996828
0.992712
0.989082
0.986086
0.983758
1.02354
1.02404
1.02377
1.02279
1.02088
1.01813
1.01459
1.01042
1.00587
1.0012
0.996652
0.992458
0.988764
0.985719
0.983355
1.02393
1.02444
1.02417
1.02318
1.02123
1.01842
1.0148
1.01053
1.00588
1.00111
0.99647
0.992197
0.988438
0.985344
0.982944
1.02433
1.02485
1.02458
1.02357
1.02158
1.01871
1.015
1.01064
1.00589
1.00101
0.996281
0.991928
0.988104
0.98496
0.982524
1.02473
1.02527
1.025
1.02397
1.02194
1.01901
1.01522
1.01076
1.00589
1.00091
0.996085
0.991652
0.987762
0.984567
0.982096
1.02514
1.0257
1.02543
1.02438
1.02231
1.01931
1.01543
1.01087
1.00589
1.00081
0.995883
0.991367
0.987411
0.984166
0.981658
1.02557
1.02614
1.02587
1.0248
1.02269
1.01962
1.01565
1.01098
1.00589
1.0007
0.995674
0.991074
0.987051
0.983755
0.981211
1.02599
1.02659
1.02631
1.02523
1.02307
1.01993
1.01587
1.01109
1.00589
1.00058
0.995458
0.990773
0.986682
0.983335
0.980755
1.02643
1.02704
1.02677
1.02567
1.02346
1.02025
1.01609
1.0112
1.00588
1.00046
0.995234
0.990463
0.986303
0.982905
0.980289
1.02688
1.02751
1.02723
1.02611
1.02386
1.02058
1.01632
1.01131
1.00587
1.00033
0.995002
0.990144
0.985915
0.982466
0.979814
1.02734
1.02798
1.02771
1.02657
1.02427
1.02091
1.01655
1.01142
1.00585
1.0002
0.994761
0.989815
0.985517
0.982016
0.979329
1.0278
1.02847
1.02819
1.02704
1.02469
1.02125
1.01678
1.01153
1.00583
1.00006
0.994512
0.989477
0.985109
0.981556
0.978833
1.02828
1.02896
1.02869
1.02751
1.02511
1.02159
1.01701
1.01164
1.00581
0.999907
0.994255
0.989129
0.984691
0.981086
0.978327
1.02876
1.02947
1.0292
1.028
1.02555
1.02194
1.01725
1.01175
1.00578
0.999752
0.993988
0.988771
0.984261
0.980605
0.977811
1.02926
1.02999
1.02972
1.0285
1.02599
1.0223
1.01749
1.01185
1.00575
0.999589
0.993712
0.988402
0.983822
0.980114
0.977285
1.02976
1.03052
1.03025
1.029
1.02644
1.02266
1.01773
1.01196
1.00571
0.999418
0.993425
0.988022
0.98337
0.979611
0.976747
1.03028
1.03106
1.03079
1.02952
1.0269
1.02303
1.01798
1.01206
1.00567
0.999239
0.993129
0.987631
0.982908
0.979097
0.976199
1.03081
1.03161
1.03134
1.03005
1.02738
1.0234
1.01823
1.01216
1.00562
0.999051
0.992821
0.987228
0.982433
0.978571
0.975639
1.03135
1.03218
1.03191
1.0306
1.02786
1.02379
1.01848
1.01226
1.00556
0.998853
0.992503
0.986813
0.981946
0.978034
0.975069
1.0319
1.03275
1.03249
1.03115
1.02835
1.02417
1.01873
1.01235
1.0055
0.998646
0.992173
0.986386
0.981447
0.977485
0.974486
1.03246
1.03334
1.03308
1.03172
1.02885
1.02457
1.01898
1.01244
1.00543
0.998428
0.991831
0.985947
0.980935
0.976923
0.973893
1.03304
1.03395
1.03368
1.0323
1.02936
1.02497
1.01924
1.01253
1.00536
0.9982
0.991476
0.985494
0.980411
0.976349
0.973287
1.03363
1.03456
1.0343
1.03289
1.02989
1.02538
1.01949
1.01262
1.00527
0.997961
0.991109
0.985027
0.979872
0.975762
0.972669
1.03423
1.03519
1.03494
1.0335
1.03042
1.02579
1.01975
1.0127
1.00518
0.99771
0.990728
0.984547
0.97932
0.975161
0.972039
1.03484
1.03584
1.03559
1.03412
1.03097
1.02622
1.02001
1.01278
1.00507
0.997446
0.990333
0.984052
0.978754
0.974548
0.971397
1.03547
1.0365
1.03625
1.03476
1.03152
1.02665
1.02027
1.01285
1.00496
0.99717
0.989924
0.983542
0.978174
0.973921
0.970742
1.03611
1.03717
1.03693
1.03541
1.03209
1.02708
1.02053
1.01291
1.00484
0.99688
0.9895
0.983017
0.977579
0.97328
0.970075
1.03677
1.03786
1.03763
1.03607
1.03267
1.02752
1.02079
1.01297
1.0047
0.996576
0.98906
0.982476
0.976968
0.972626
0.969394
1.03744
1.03857
1.03834
1.03675
1.03327
1.02797
1.02105
1.01303
1.00456
0.996257
0.988603
0.981919
0.976342
0.971956
0.968701
1.03812
1.03929
1.03907
1.03745
1.03387
1.02842
1.02131
1.01307
1.0044
0.995923
0.98813
0.981345
0.9757
0.971273
0.967994
1.03882
1.04003
1.03981
1.03816
1.03449
1.02889
1.02157
1.01311
1.00423
0.995572
0.98764
0.980754
0.975042
0.970574
0.967274
1.03954
1.04079
1.04058
1.03889
1.03512
1.02935
1.02182
1.01314
1.00404
0.995204
0.987131
0.980145
0.974368
0.96986
0.96654
1.04027
1.04157
1.04136
1.03964
1.03576
1.02983
1.02208
1.01316
1.00384
0.994818
0.986604
0.979518
0.973676
0.969131
0.965792
1.04102
1.04236
1.04216
1.0404
1.03642
1.03031
1.02233
1.01317
1.00362
0.994414
0.986057
0.978872
0.972967
0.968386
0.96503
1.04179
1.04317
1.04299
1.04118
1.03709
1.03079
1.02258
1.01317
1.00339
0.99399
0.985489
0.978206
0.97224
0.967625
0.964254
1.04258
1.04401
1.04383
1.04198
1.03777
1.03128
1.02282
1.01315
1.00314
0.993545
0.984901
0.97752
0.971494
0.966847
0.963462
1.04338
1.04486
1.04469
1.0428
1.03847
1.03178
1.02306
1.01312
1.00287
0.993079
0.984292
0.976814
0.970731
0.966053
0.962657
1.04421
1.04574
1.04558
1.04364
1.03918
1.03228
1.0233
1.01308
1.00258
0.992591
0.983659
0.976087
0.969948
0.965242
0.961836
1.04505
1.04663
1.04648
1.04451
1.03991
1.03278
1.02352
1.01302
1.00227
0.99208
0.983004
0.975338
0.969145
0.964413
0.961
1.04592
1.04755
1.04742
1.04539
1.04065
1.03329
1.02375
1.01295
1.00194
0.991544
0.982324
0.974567
0.968323
0.963567
0.960148
1.0468
1.04849
1.04837
1.04629
1.0414
1.0338
1.02396
1.01286
1.00158
0.990982
0.98162
0.973773
0.96748
0.962703
0.95928
1.04771
1.04946
1.04935
1.04722
1.04217
1.03431
1.02416
1.01275
1.0012
0.990395
0.98089
0.972956
0.966616
0.961821
0.958397
1.04864
1.05045
1.05036
1.04816
1.04295
1.03483
1.02435
1.01262
1.00079
0.989779
0.980133
0.972115
0.965732
0.96092
0.957497
1.04959
1.05147
1.05139
1.04914
1.04375
1.03535
1.02453
1.01246
1.00036
0.989134
0.979349
0.971248
0.964825
0.960001
0.956581
1.05057
1.05251
1.05245
1.05013
1.04456
1.03586
1.02469
1.01228
0.999892
0.98846
0.978537
0.970357
0.963897
0.959062
0.955648
1.05157
1.05358
1.05354
1.05115
1.04539
1.03638
1.02484
1.01208
0.999397
0.987754
0.977695
0.969439
0.962945
0.958104
0.954699
1.0526
1.05468
1.05465
1.0522
1.04623
1.0369
1.02498
1.01185
0.998869
0.987015
0.976823
0.968495
0.961971
0.957126
0.953732
1.05365
1.0558
1.0558
1.05327
1.04708
1.03741
1.02509
1.01159
0.998308
0.986243
0.97592
0.967524
0.960974
0.956128
0.952748
1.05473
1.05696
1.05698
1.05437
1.04795
1.03792
1.02518
1.01129
0.99771
0.985435
0.974985
0.966525
0.959953
0.95511
0.951747
1.05584
1.05815
1.05819
1.05549
1.04883
1.03842
1.02525
1.01097
0.997075
0.984591
0.974018
0.965497
0.958907
0.954071
0.950729
1.05697
1.05937
1.05944
1.05665
1.04972
1.03891
1.0253
1.0106
0.996401
0.983708
0.973016
0.96444
0.957837
0.953011
0.949693
1.05814
1.06063
1.06072
1.05783
1.05063
1.0394
1.02531
1.0102
0.995684
0.982787
0.971979
0.963354
0.956741
0.95193
0.948639
1.05934
1.06192
1.06204
1.05904
1.05155
1.03987
1.0253
1.00976
0.994924
0.981824
0.970907
0.962236
0.955621
0.950828
0.947567
1.06057
1.06325
1.06339
1.06028
1.05247
1.04033
1.02525
1.00927
0.994119
0.980819
0.969797
0.961088
0.954474
0.949705
0.946477
1.06183
1.06462
1.06479
1.06156
1.05341
1.04077
1.02516
1.00874
0.993265
0.97977
0.96865
0.959908
0.953301
0.94856
0.945369
1.06313
1.06602
1.06622
1.06286
1.05436
1.0412
1.02504
1.00816
0.992362
0.978676
0.967464
0.958697
0.952102
0.947392
0.944242
1.06446
1.06747
1.0677
1.06419
1.05531
1.0416
1.02487
1.00752
0.991405
0.977534
0.966239
0.957452
0.950876
0.946203
0.943098
1.06584
1.06896
1.06922
1.06556
1.05626
1.04197
1.02466
1.00683
0.990395
0.976345
0.964972
0.956174
0.949622
0.944992
0.941934
1.06725
1.07049
1.07079
1.06695
1.05722
1.04232
1.02439
1.00608
0.989327
0.975105
0.963664
0.954862
0.948342
0.943758
0.940753
1.0687
1.07207
1.07241
1.06838
1.05818
1.04263
1.02407
1.00526
0.988199
0.973814
0.962314
0.953516
0.947034
0.942502
0.939553
1.07019
1.0737
1.07407
1.06985
1.05914
1.04291
1.02368
1.00438
0.98701
0.97247
0.96092
0.952135
0.945698
0.941223
0.938334
1.07173
1.07539
1.07579
1.07134
1.06009
1.04314
1.02323
1.00343
0.985756
0.971072
0.959483
0.950719
0.944333
0.939922
0.937097
1.07331
1.07712
1.07756
1.07286
1.06104
1.04333
1.02272
1.0024
0.984435
0.969618
0.958
0.949267
0.942941
0.938598
0.935841
1.07494
1.07891
1.07939
1.07442
1.06197
1.04346
1.02212
1.0013
0.983046
0.968106
0.956472
0.94778
0.941521
0.937251
0.934566
1.07662
1.08076
1.08127
1.07601
1.06288
1.04353
1.02145
1.00012
0.981584
0.966536
0.954898
0.946257
0.940072
0.935882
0.933273
1.07835
1.08267
1.08321
1.07762
1.06377
1.04354
1.02069
0.998845
0.980048
0.964906
0.953277
0.944698
0.938595
0.93449
0.931961
1.08013
1.08464
1.08522
1.07926
1.06464
1.04347
1.01983
0.997484
0.978435
0.963215
0.951608
0.943102
0.93709
0.933076
0.930631
1.08197
1.08668
1.08728
1.08093
1.06547
1.04332
1.01887
0.996028
0.976744
0.961463
0.949892
0.94147
0.935556
0.931639
0.929282
1.08387
1.0888
1.08942
1.08262
1.06626
1.04308
1.01781
0.994473
0.974971
0.959646
0.948128
0.939801
0.933994
0.93018
0.927915
1.08582
1.09099
1.09162
1.08433
1.067
1.04274
1.01664
0.992815
0.973116
0.957766
0.946316
0.938096
0.932404
0.928698
0.926529
1.08785
1.09325
1.09389
1.08605
1.06768
1.0423
1.01534
0.991051
0.971175
0.955822
0.944456
0.936355
0.930787
0.927195
0.925125
1.08994
1.0956
1.09624
1.08779
1.0683
1.04173
1.01391
0.989175
0.969148
0.953812
0.942547
0.934578
0.929141
0.925669
0.923703
1.0921
1.09804
1.09865
1.08953
1.06884
1.04103
1.01235
0.987185
0.967032
0.951736
0.94059
0.932765
0.927469
0.924123
0.922263
1.09433
1.10057
1.10114
1.09127
1.06928
1.0402
1.01065
0.985077
0.964826
0.949595
0.938585
0.930916
0.925769
0.922554
0.920805
1.09664
1.1032
1.10371
1.093
1.06962
1.0392
1.00879
0.982846
0.962529
0.947387
0.936533
0.929033
0.924043
0.920965
0.91933
1.09903
1.10594
1.10635
1.09471
1.06985
1.03804
1.00678
0.980491
0.960141
0.945113
0.934433
0.927115
0.922291
0.919354
0.917838
1.10151
1.10878
1.10907
1.09639
1.06993
1.0367
1.0046
0.978008
0.957661
0.942774
0.932287
0.925164
0.920513
0.917723
0.916328
1.10408
1.11174
1.11186
1.09803
1.06987
1.03517
1.00225
0.975394
0.955088
0.940371
0.930096
0.92318
0.91871
0.916072
0.914802
1.10675
1.11483
1.11472
1.09962
1.06963
1.03343
0.999714
0.972649
0.952422
0.937903
0.927859
0.921163
0.916882
0.914401
0.913259
1.10952
1.11804
1.11765
1.10113
1.06921
1.03146
0.996996
0.969771
0.949664
0.935372
0.92558
0.919116
0.915031
0.912711
0.9117
1.11239
1.12139
1.12064
1.10255
1.06857
1.02926
0.994087
0.966758
0.946815
0.932779
0.923258
0.917038
0.913157
0.911003
0.910125
1.11539
1.12489
1.1237
1.10385
1.06769
1.02681
0.990981
0.963611
0.943877
0.930126
0.920895
0.914931
0.91126
0.909275
0.908534
1.1185
1.12853
1.1268
1.10502
1.06655
1.02409
0.987675
0.96033
0.94085
0.927415
0.918493
0.912797
0.909342
0.907531
0.906928
1.12175
1.13234
1.12993
1.10603
1.06512
1.02109
0.984165
0.956917
0.937738
0.924648
0.916053
0.910636
0.907403
0.905768
0.905307
1.12514
1.13631
1.13309
1.10684
1.06338
1.0178
0.980449
0.953373
0.934542
0.921827
0.913578
0.90845
0.905444
0.90399
0.903672
1.12868
1.14046
1.13626
1.10743
1.06129
1.0142
0.976527
0.949703
0.931267
0.918955
0.91107
0.90624
0.903467
0.902195
0.902022
1.13239
1.14479
1.13942
1.10775
1.05883
1.01028
0.9724
0.945908
0.927914
0.916034
0.908531
0.904008
0.901472
0.900385
0.900359
1.13628
1.14931
1.14253
1.10776
1.05597
1.00604
0.96807
0.941995
0.924489
0.913069
0.905964
0.901756
0.89946
0.89856
0.898682
1.14035
1.15401
1.14558
1.10742
1.05267
1.00146
0.963542
0.937969
0.920995
0.910063
0.90337
0.899485
0.897432
0.896722
0.896993
1.14464
1.1589
1.14852
1.10669
1.04891
0.996552
0.958822
0.933836
0.917438
0.907019
0.900754
0.897197
0.89539
0.89487
0.89529
1.14915
1.16399
1.15132
1.10551
1.04466
0.9913
0.953918
0.929604
0.913824
0.903942
0.898117
0.894894
0.893335
0.893005
0.893576
1.1539
1.16926
1.15393
1.10382
1.03988
0.98571
0.948841
0.92528
0.910156
0.900836
0.895462
0.892578
0.891268
0.891128
0.89185
1.15893
1.17471
1.15628
1.10157
1.03457
0.979787
0.943602
0.920873
0.906443
0.897705
0.892794
0.890251
0.889189
0.88924
0.890113
1.16425
1.18033
1.15833
1.0987
1.02869
0.973542
0.938217
0.916393
0.902689
0.894554
0.890114
0.887914
0.887101
0.887342
0.888365
1.16988
1.18609
1.16
1.09514
1.02224
0.966988
0.9327
0.91185
0.898903
0.891388
0.887426
0.88557
0.885004
0.885434
0.886607
1.17587
1.19197
1.1612
1.09083
1.01519
0.960145
0.927071
0.907254
0.89509
0.888213
0.884734
0.883219
0.882899
0.883516
0.884839
1.18224
1.19793
1.16185
1.0857
1.00754
0.953037
0.921348
0.902615
0.891258
0.885033
0.882041
0.880866
0.880788
0.881591
0.883063
1.18902
1.20393
1.16184
1.0797
0.999307
0.945695
0.915551
0.897944
0.887415
0.881853
0.879349
0.87851
0.878671
0.879658
0.881277
1.19626
1.20991
1.16108
1.07277
0.990495
0.938151
0.909701
0.893253
0.883569
0.87868
0.876662
0.876154
0.876551
0.877718
0.879484
1.20398
1.21579
1.15944
1.06484
0.98113
0.930448
0.903821
0.888553
0.879728
0.875518
0.873983
0.873799
0.874427
0.875772
0.877684
1.21224
1.22149
1.15678
1.05589
0.97125
0.922627
0.897931
0.883853
0.875899
0.872373
0.871315
0.871448
0.872302
0.873821
0.875878
1.22106
1.22688
1.15299
1.04586
0.960904
0.914736
0.892051
0.879165
0.872091
0.86925
0.86866
0.869101
0.870175
0.871866
0.874065
1.23049
1.23185
1.14791
1.03475
0.950157
0.906826
0.886201
0.874501
0.868312
0.866155
0.866022
0.866761
0.868049
0.869908
0.872249
1.24056
1.23622
1.1414
1.02255
0.939089
0.898945
0.8804
0.869869
0.864572
0.863091
0.863402
0.864427
0.865924
0.867947
0.870428
1.25129
1.23982
1.13331
1.00927
0.927792
0.891144
0.874662
0.865282
0.860877
0.860065
0.860803
0.862103
0.863801
0.865985
0.868605
1.2627
1.24242
1.12349
0.994986
0.916373
0.883469
0.869003
0.86075
0.857238
0.857079
0.858227
0.85979
0.861683