/*--------------------------------*- C++ -*----------------------------------*\
  =========                 |
  \\      /  F ield         | OpenFOAM: The Open Source CFD Toolbox
   \\    /   O peration     | Website:  https://openfoam.org
    \\  /    A nd           | Version:  6.0
     \\/     M anipulation  |
\*---------------------------------------------------------------------------*/
FoamFile
{
    version     2.0;
    format      ascii;
    class       volScalarField;
    location    "3.2";
    object      p;
}
// * * * * * * * * * * * * * * * * * * * * * * * * * * * * * * * * * * * * * //

dimensions      [0 2 -2 0 0 0 0];

internalField   nonuniform List<scalar> 
24000
(
1.00699
1.00694
1.00645
1.00571
1.00472
1.00366
1.00265
1.00176
1.00103
1.00049
1.00006
0.999769
1.007
1.00701
1.00661
1.006
1.00511
1.00412
1.0031
1.00215
1.0013
1.00065
1.00006
0.999667
1.007
1.00699
1.00657
1.00593
1.00503
1.00403
1.00302
1.00208
1.00125
1.00063
1.00003
0.999682
1.007
1.00698
1.00653
1.00586
1.00495
1.00396
1.00295
1.00204
1.00124
1.00063
1.00004
0.999691
1.00701
1.00698
1.00654
1.00588
1.00497
1.00399
1.00299
1.00209
1.00128
1.00066
1.00003
0.999664
1.00702
1.00699
1.00656
1.0059
1.005
1.00402
1.00302
1.00211
1.00129
1.00066
1.00001
0.999621
1.00702
1.007
1.00657
1.00592
1.00501
1.00403
1.00303
1.00211
1.00128
1.00064
0.999981
0.999586
1.00703
1.00701
1.00658
1.00594
1.00503
1.00405
1.00304
1.00212
1.00129
1.00065
0.999973
0.999567
1.00704
1.00702
1.0066
1.00597
1.00507
1.00409
1.00309
1.00217
1.00133
1.00068
0.999982
0.999554
1.00705
1.00703
1.00662
1.006
1.00512
1.00414
1.00315
1.00222
1.00137
1.00071
0.999992
0.999539
1.00706
1.00703
1.00664
1.00603
1.00516
1.00419
1.00319
1.00226
1.00141
1.00073
0.999992
0.999518
1.00707
1.00704
1.00665
1.00605
1.00518
1.00422
1.00322
1.00229
1.00143
1.00073
0.999984
0.999494
1.00708
1.00705
1.00666
1.00607
1.00521
1.00424
1.00324
1.00231
1.00144
1.00074
0.999974
0.999472
1.00709
1.00706
1.00667
1.00608
1.00523
1.00427
1.00327
1.00233
1.00145
1.00074
0.999967
0.999453
1.0071
1.00707
1.00668
1.00609
1.00525
1.00429
1.00329
1.00235
1.00146
1.00074
0.999963
0.999435
1.00712
1.00708
1.00669
1.00611
1.00527
1.00432
1.00332
1.00237
1.00148
1.00075
0.99996
0.999419
1.00713
1.0071
1.00671
1.00612
1.00528
1.00434
1.00334
1.00239
1.00149
1.00076
0.999957
0.999404
1.00715
1.00711
1.00673
1.00614
1.0053
1.00436
1.00337
1.00241
1.00151
1.00076
0.999955
0.99939
1.00717
1.00713
1.00675
1.00616
1.00533
1.00439
1.00339
1.00244
1.00153
1.00077
0.999954
0.999377
1.00719
1.00715
1.00678
1.00619
1.00536
1.00442
1.00342
1.00246
1.00155
1.00078
0.999955
0.999365
1.0072
1.00718
1.00681
1.00622
1.00539
1.00445
1.00345
1.00249
1.00157
1.00079
0.999956
0.999354
1.00722
1.0072
1.00684
1.00625
1.00542
1.00448
1.00349
1.00252
1.00159
1.0008
0.999957
0.999343
1.00725
1.00723
1.00687
1.00629
1.00546
1.00452
1.00352
1.00255
1.00161
1.00081
0.999957
0.999332
1.00727
1.00726
1.0069
1.00632
1.0055
1.00456
1.00356
1.00257
1.00163
1.00082
0.999958
0.999322
1.00729
1.00728
1.00693
1.00636
1.00553
1.0046
1.00359
1.0026
1.00165
1.00083
0.999959
0.999312
1.00731
1.00731
1.00696
1.00639
1.00557
1.00463
1.00362
1.00263
1.00167
1.00084
0.99996
0.999303
1.00734
1.00734
1.00699
1.00643
1.00561
1.00467
1.00366
1.00266
1.00169
1.00084
0.999961
0.999293
1.00736
1.00736
1.00702
1.00646
1.00564
1.00471
1.00369
1.00269
1.00171
1.00085
0.999963
0.999284
1.00738
1.00739
1.00705
1.0065
1.00568
1.00474
1.00373
1.00272
1.00173
1.00086
0.999964
0.999275
1.00741
1.00742
1.00708
1.00653
1.00572
1.00478
1.00376
1.00274
1.00175
1.00087
0.999965
0.999266
1.00744
1.00745
1.00712
1.00657
1.00576
1.00482
1.0038
1.00277
1.00177
1.00088
0.999966
0.999257
1.00747
1.00748
1.00715
1.00661
1.0058
1.00486
1.00383
1.0028
1.00179
1.00089
0.999966
0.999247
1.00749
1.00751
1.00718
1.00664
1.00584
1.0049
1.00387
1.00283
1.00181
1.0009
0.999964
0.999236
1.00752
1.00754
1.00721
1.00668
1.00587
1.00494
1.0039
1.00286
1.00183
1.0009
0.999963
0.999226
1.00756
1.00758
1.00725
1.00671
1.00591
1.00497
1.00393
1.00288
1.00184
1.00091
0.99996
0.999215
1.00759
1.00761
1.00728
1.00675
1.00595
1.00501
1.00397
1.00291
1.00186
1.00092
0.999958
0.999205
1.00762
1.00765
1.00732
1.00679
1.00598
1.00504
1.004
1.00293
1.00187
1.00092
0.999955
0.999194
1.00766
1.00768
1.00735
1.00682
1.00602
1.00508
1.00403
1.00295
1.00189
1.00093
0.999952
0.999183
1.00769
1.00772
1.00739
1.00686
1.00606
1.00512
1.00406
1.00298
1.00191
1.00093
0.99995
0.999172
1.00773
1.00776
1.00743
1.0069
1.0061
1.00515
1.00409
1.00301
1.00192
1.00094
0.999947
0.999161
1.00777
1.0078
1.00748
1.00695
1.00614
1.00519
1.00413
1.00303
1.00194
1.00094
0.999944
0.999149
1.00781
1.00785
1.00752
1.00699
1.00619
1.00524
1.00416
1.00306
1.00196
1.00095
0.999942
0.999138
1.00785
1.00789
1.00757
1.00704
1.00623
1.00528
1.0042
1.00309
1.00198
1.00096
0.999939
0.999125
1.00789
1.00794
1.00762
1.00709
1.00628
1.00532
1.00424
1.00312
1.002
1.00096
0.999935
0.999112
1.00794
1.00798
1.00767
1.00714
1.00633
1.00537
1.00428
1.00315
1.00201
1.00097
0.999931
0.999099
1.00798
1.00803
1.00771
1.00719
1.00638
1.00542
1.00432
1.00318
1.00203
1.00097
0.999927
0.999085
1.00803
1.00808
1.00777
1.00725
1.00643
1.00546
1.00436
1.00321
1.00205
1.00098
0.999922
0.99907
1.00807
1.00813
1.00782
1.0073
1.00648
1.00551
1.0044
1.00324
1.00207
1.00098
0.999917
0.999054
1.00812
1.00818
1.00787
1.00735
1.00653
1.00556
1.00444
1.00327
1.00209
1.00099
0.99991
0.999037
1.00817
1.00823
1.00792
1.0074
1.00658
1.0056
1.00448
1.0033
1.0021
1.00099
0.999904
0.99902
1.00822
1.00828
1.00797
1.00746
1.00663
1.00565
1.00452
1.00333
1.00212
1.00099
0.999896
0.999002
1.00827
1.00833
1.00802
1.00751
1.00669
1.0057
1.00456
1.00335
1.00214
1.001
0.999888
0.998983
1.00832
1.00838
1.00808
1.00756
1.00674
1.00574
1.00459
1.00338
1.00215
1.001
0.999878
0.998962
1.00837
1.00844
1.00813
1.00762
1.00679
1.00579
1.00463
1.00341
1.00217
1.001
0.999868
0.998941
1.00843
1.00849
1.00819
1.00768
1.00684
1.00584
1.00467
1.00344
1.00218
1.001
0.999856
0.998919
1.00848
1.00855
1.00824
1.00773
1.0069
1.00589
1.00471
1.00347
1.0022
1.001
0.999844
0.998897
1.00854
1.00861
1.0083
1.00779
1.00695
1.00594
1.00475
1.00349
1.00221
1.001
0.999831
0.998874
1.00859
1.00867
1.00836
1.00785
1.00701
1.00598
1.00479
1.00352
1.00222
1.001
0.999818
0.99885
1.00865
1.00873
1.00842
1.00791
1.00706
1.00603
1.00483
1.00355
1.00224
1.001
0.999804
0.998825
1.00871
1.00879
1.00848
1.00797
1.00712
1.00608
1.00487
1.00358
1.00225
1.001
0.999789
0.9988
1.00877
1.00886
1.00855
1.00803
1.00718
1.00614
1.00491
1.00361
1.00227
1.001
0.999774
0.998774
1.00883
1.00892
1.00861
1.0081
1.00724
1.00619
1.00495
1.00363
1.00228
1.00099
0.999758
0.998747
1.00889
1.00899
1.00868
1.00816
1.0073
1.00624
1.005
1.00366
1.00229
1.00099
0.999742
0.998719
1.00896
1.00906
1.00875
1.00823
1.00736
1.0063
1.00504
1.00369
1.00231
1.00099
0.999725
0.998691
1.00902
1.00913
1.00882
1.0083
1.00743
1.00635
1.00509
1.00372
1.00232
1.00099
0.999707
0.998661
1.00909
1.0092
1.00889
1.00837
1.00749
1.00641
1.00513
1.00375
1.00233
1.00098
0.999689
0.998629
1.00915
1.00927
1.00897
1.00845
1.00756
1.00647
1.00518
1.00378
1.00235
1.00098
0.999669
0.998597
1.00922
1.00935
1.00904
1.00852
1.00763
1.00653
1.00522
1.00381
1.00236
1.00097
0.999649
0.998563
1.00929
1.00942
1.00912
1.00859
1.00769
1.00659
1.00527
1.00384
1.00237
1.00096
0.999628
0.998528
1.00937
1.0095
1.00919
1.00867
1.00776
1.00665
1.00531
1.00387
1.00238
1.00096
0.999605
0.998492
1.00944
1.00958
1.00927
1.00874
1.00783
1.00671
1.00536
1.0039
1.00239
1.00095
0.999582
0.998455
1.00951
1.00966
1.00935
1.00882
1.0079
1.00677
1.0054
1.00393
1.0024
1.00094
0.999557
0.998417
1.00959
1.00974
1.00943
1.0089
1.00797
1.00683
1.00545
1.00396
1.00241
1.00093
0.999531
0.998378
1.00967
1.00982
1.00951
1.00897
1.00804
1.00689
1.0055
1.00399
1.00242
1.00092
0.999504
0.998337
1.00975
1.0099
1.00959
1.00905
1.00811
1.00695
1.00554
1.00401
1.00242
1.00091
0.999476
0.998296
1.00983
1.00999
1.00967
1.00914
1.00819
1.00701
1.00559
1.00404
1.00243
1.00089
0.999448
0.998255
1.00991
1.01008
1.00976
1.00922
1.00826
1.00707
1.00563
1.00407
1.00244
1.00088
0.999418
0.998212
1.01
1.01016
1.00985
1.0093
1.00834
1.00714
1.00568
1.00409
1.00244
1.00087
0.999388
0.998169
1.01008
1.01025
1.00993
1.00939
1.00841
1.0072
1.00573
1.00412
1.00245
1.00085
0.999357
0.998124
1.01017
1.01035
1.01002
1.00947
1.00849
1.00727
1.00577
1.00415
1.00245
1.00084
0.999325
0.998079
1.01026
1.01044
1.01012
1.00956
1.00857
1.00733
1.00582
1.00418
1.00246
1.00083
0.999293
0.998033
1.01035
1.01054
1.01021
1.00965
1.00865
1.0074
1.00587
1.0042
1.00247
1.00081
0.99926
0.997986
1.01045
1.01064
1.01031
1.00975
1.00874
1.00747
1.00592
1.00423
1.00247
1.00079
0.999227
0.997938
1.01054
1.01074
1.01041
1.00984
1.00882
1.00754
1.00597
1.00426
1.00248
1.00078
0.999192
0.997889
1.01064
1.01084
1.01051
1.00994
1.0089
1.00761
1.00602
1.00429
1.00248
1.00076
0.999157
0.997839
1.01074
1.01094
1.01061
1.01004
1.00899
1.00768
1.00607
1.00432
1.00249
1.00074
0.999121
0.997788
1.01084
1.01105
1.01071
1.01014
1.00908
1.00775
1.00612
1.00435
1.00249
1.00073
0.999084
0.997735
1.01095
1.01115
1.01082
1.01024
1.00917
1.00783
1.00618
1.00438
1.0025
1.00071
0.999046
0.997681
1.01105
1.01126
1.01093
1.01034
1.00926
1.0079
1.00623
1.00441
1.0025
1.00069
0.999006
0.997626
1.01116
1.01137
1.01103
1.01045
1.00935
1.00798
1.00628
1.00443
1.0025
1.00067
0.998966
0.99757
1.01127
1.01149
1.01115
1.01055
1.00945
1.00806
1.00634
1.00446
1.00251
1.00065
0.998925
0.997512
1.01138
1.0116
1.01126
1.01066
1.00954
1.00814
1.00639
1.00449
1.00251
1.00063
0.998882
0.997452
1.01149
1.01172
1.01137
1.01077
1.00964
1.00822
1.00645
1.00452
1.00251
1.0006
0.998839
0.997391
1.01161
1.01184
1.01149
1.01089
1.00974
1.0083
1.0065
1.00455
1.00251
1.00058
0.998794
0.997329
1.01173
1.01196
1.01161
1.011
1.00984
1.00838
1.00656
1.00459
1.00251
1.00056
0.998748
0.997265
1.01185
1.01209
1.01173
1.01112
1.00994
1.00846
1.00662
1.00462
1.00252
1.00053
0.9987
0.997199
1.01197
1.01221
1.01186
1.01124
1.01005
1.00855
1.00668
1.00465
1.00252
1.00051
0.998652
0.997132
1.01209
1.01234
1.01199
1.01136
1.01015
1.00864
1.00673
1.00468
1.00252
1.00048
0.998601
0.997063
1.01222
1.01247
1.01212
1.01148
1.01026
1.00872
1.00679
1.00471
1.00252
1.00045
0.99855
0.996992
1.01235
1.01261
1.01225
1.01161
1.01037
1.00881
1.00686
1.00474
1.00252
1.00043
0.998497
0.99692
1.01248
1.01274
1.01239
1.01174
1.01049
1.00891
1.00692
1.00478
1.00252
1.0004
0.998442
0.996845
1.01261
1.01288
1.01253
1.01187
1.0106
1.009
1.00698
1.00481
1.00252
1.00037
0.998386
0.996769
1.01275
1.01303
1.01267
1.01201
1.01072
1.0091
1.00705
1.00484
1.00251
1.00033
0.998329
0.99669
1.01289
1.01317
1.01281
1.01215
1.01084
1.00919
1.00711
1.00488
1.00251
1.0003
0.998269
0.99661
1.01303
1.01332
1.01296
1.01229
1.01097
1.00929
1.00718
1.00491
1.00251
1.00027
0.998208
0.996527
1.01318
1.01348
1.01311
1.01243
1.01109
1.0094
1.00725
1.00494
1.00251
1.00023
0.998145
0.996442
1.01333
1.01363
1.01327
1.01258
1.01122
1.0095
1.00732
1.00498
1.0025
1.0002
0.99808
0.996354
1.01348
1.01379
1.01343
1.01273
1.01135
1.00961
1.00739
1.00501
1.0025
1.00016
0.998012
0.996264
1.01363
1.01395
1.01359
1.01289
1.01149
1.00971
1.00746
1.00505
1.00249
1.00012
0.997943
0.996171
1.01379
1.01412
1.01375
1.01304
1.01162
1.00982
1.00753
1.00508
1.00249
1.00008
0.997872
0.996076
1.01395
1.01429
1.01392
1.0132
1.01176
1.00993
1.0076
1.00511
1.00248
1.00003
0.997798
0.995978
1.01411
1.01446
1.01409
1.01337
1.0119
1.01004
1.00767
1.00515
1.00248
0.99999
0.997722
0.995877
1.01428
1.01464
1.01427
1.01353
1.01205
1.01016
1.00775
1.00518
1.00247
0.999943
0.997643
0.995773
1.01445
1.01482
1.01445
1.0137
1.0122
1.01027
1.00782
1.00522
1.00246
0.999895
0.997562
0.995666
1.01462
1.015
1.01463
1.01388
1.01235
1.01039
1.0079
1.00525
1.00245
0.999844
0.997478
0.995556
1.0148
1.01519
1.01482
1.01405
1.0125
1.01051
1.00798
1.00528
1.00244
0.999792
0.997391
0.995443
1.01498
1.01538
1.01501
1.01423
1.01265
1.01063
1.00806
1.00532
1.00242
0.999738
0.997302
0.995326
1.01517
1.01557
1.0152
1.01441
1.01281
1.01076
1.00814
1.00535
1.00241
0.999681
0.99721
0.995206
1.01536
1.01577
1.0154
1.0146
1.01297
1.01088
1.00822
1.00538
1.0024
0.999622
0.997115
0.995083
1.01555
1.01597
1.0156
1.01479
1.01314
1.01101
1.0083
1.00542
1.00238
0.999561
0.997016
0.994956
1.01575
1.01618
1.01581
1.01499
1.01331
1.01114
1.00838
1.00545
1.00236
0.999498
0.996915
0.994825
1.01595
1.01639
1.01602
1.01519
1.01348
1.01127
1.00847
1.00548
1.00234
0.999432
0.99681
0.99469
1.01615
1.01661
1.01623
1.01539
1.01365
1.01141
1.00855
1.00552
1.00232
0.999364
0.996702
0.994551
1.01636
1.01683
1.01645
1.01559
1.01383
1.01155
1.00864
1.00555
1.0023
0.999293
0.996591
0.994409
1.01657
1.01705
1.01667
1.0158
1.01401
1.01169
1.00873
1.00558
1.00228
0.999219
0.996475
0.994262
1.01679
1.01728
1.0169
1.01602
1.0142
1.01183
1.00882
1.00561
1.00225
0.999142
0.996356
0.994111
1.01701
1.01752
1.01713
1.01624
1.01439
1.01197
1.00891
1.00564
1.00223
0.999062
0.996233
0.993955
1.01724
1.01776
1.01737
1.01646
1.01458
1.01212
1.009
1.00567
1.0022
0.998979
0.996107
0.993794
1.01747
1.018
1.01761
1.01669
1.01477
1.01227
1.00909
1.0057
1.00217
0.998893
0.995975
0.993629
1.01771
1.01825
1.01786
1.01692
1.01497
1.01242
1.00918
1.00573
1.00214
0.998803
0.99584
0.99346
1.01795
1.0185
1.01811
1.01716
1.01518
1.01257
1.00927
1.00576
1.0021
0.99871
0.9957
0.993285
1.01819
1.01876
1.01837
1.0174
1.01538
1.01273
1.00937
1.00579
1.00206
0.998614
0.995556
0.993105
1.01844
1.01903
1.01863
1.01765
1.01559
1.01289
1.00946
1.00581
1.00202
0.998513
0.995407
0.992919
1.0187
1.0193
1.0189
1.0179
1.01581
1.01305
1.00956
1.00584
1.00198
0.998409
0.995254
0.992729
1.01896
1.01957
1.01917
1.01815
1.01603
1.01321
1.00965
1.00586
1.00194
0.998301
0.995095
0.992533
1.01922
1.01985
1.01945
1.01841
1.01625
1.01338
1.00975
1.00589
1.00189
0.998189
0.994931
0.992331
1.01949
1.02014
1.01973
1.01868
1.01648
1.01355
1.00985
1.00591
1.00184
0.998072
0.994762
0.992123
1.01977
1.02043
1.02002
1.01895
1.01671
1.01372
1.00995
1.00593
1.00178
0.997951
0.994588
0.991909
1.02005
1.02073
1.02032
1.01923
1.01694
1.01389
1.01005
1.00595
1.00173
0.997826
0.994408
0.991689
1.02034
1.02104
1.02062
1.01952
1.01719
1.01407
1.01015
1.00597
1.00167
0.997696
0.994222
0.991463
1.02064
1.02135
1.02093
1.0198
1.01743
1.01425
1.01025
1.00599
1.0016
0.997561
0.994031
0.99123
1.02094
1.02167
1.02125
1.0201
1.01768
1.01443
1.01035
1.006
1.00154
0.997421
0.993833
0.990991
1.02124
1.022
1.02157
1.0204
1.01794
1.01462
1.01045
1.00601
1.00147
0.997276
0.993629
0.990744
1.02156
1.02233
1.0219
1.02071
1.0182
1.01481
1.01056
1.00603
1.00139
0.997125
0.993419
0.990491
1.02188
1.02267
1.02224
1.02102
1.01846
1.015
1.01066
1.00604
1.00131
0.996969
0.993201
0.99023
1.0222
1.02302
1.02258
1.02135
1.01873
1.01519
1.01076
1.00604
1.00123
0.996808
0.992977
0.989961
1.02254
1.02337
1.02294
1.02167
1.01901
1.01539
1.01087
1.00605
1.00115
0.99664
0.992746
0.989685
1.02288
1.02374
1.0233
1.02201
1.01929
1.01559
1.01097
1.00605
1.00105
0.996465
0.992508
0.989401
1.02323
1.02411
1.02366
1.02235
1.01957
1.01579
1.01108
1.00605
1.00096
0.996285
0.992261
0.989109
1.02359
1.02449
1.02404
1.0227
1.01987
1.016
1.01118
1.00605
1.00086
0.996098
0.992007
0.988808
1.02395
1.02488
1.02443
1.02306
1.02016
1.01621
1.01128
1.00605
1.00075
0.995903
0.991745
0.988499
1.02433
1.02527
1.02482
1.02343
1.02047
1.01642
1.01139
1.00604
1.00064
0.995702
0.991475
0.988181
1.02471
1.02568
1.02522
1.0238
1.02078
1.01664
1.01149
1.00603
1.00052
0.995493
0.991196
0.987853
1.0251
1.0261
1.02563
1.02418
1.02109
1.01686
1.0116
1.00601
1.0004
0.995276
0.990909
0.987517
1.0255
1.02652
1.02606
1.02457
1.02141
1.01708
1.0117
1.00599
1.00027
0.995052
0.990612
0.98717
1.02591
1.02695
1.02649
1.02497
1.02174
1.0173
1.0118
1.00597
1.00013
0.994819
0.990306
0.986814
1.02633
1.0274
1.02693
1.02538
1.02208
1.01753
1.0119
1.00594
0.999987
0.994577
0.98999
0.986448
1.02675
1.02785
1.02738
1.0258
1.02242
1.01776
1.012
1.00591
0.999836
0.994327
0.989664
0.986071
1.02719
1.02832
1.02784
1.02622
1.02277
1.018
1.0121
1.00587
0.999678
0.994067
0.989328
0.985683
1.02764
1.0288
1.02832
1.02666
1.02312
1.01823
1.0122
1.00583
0.999512
0.993798
0.988981
0.985285
1.0281
1.02929
1.0288
1.02711
1.02349
1.01847
1.0123
1.00579
0.999338
0.993519
0.988624
0.984875
1.02857
1.02979
1.0293
1.02756
1.02386
1.01872
1.0124
1.00573
0.999156
0.99323
0.988255
0.984453
1.02905
1.0303
1.02981
1.02803
1.02423
1.01896
1.01249
1.00567
0.998964
0.99293
0.987874
0.98402
1.02954
1.03082
1.03033
1.02851
1.02462
1.01921
1.01258
1.00561
0.998764
0.992619
0.987482
0.983574
1.03005
1.03136
1.03086
1.029
1.02501
1.01946
1.01267
1.00554
0.998553
0.992296
0.987077
0.983115
1.03056
1.03191
1.03141
1.0295
1.02541
1.01971
1.01275
1.00546
0.998333
0.991961
0.986659
0.982643
1.03109
1.03248
1.03197
1.03001
1.02582
1.01997
1.01284
1.00537
0.998101
0.991614
0.986228
0.982158
1.03163
1.03306
1.03255
1.03054
1.02624
1.02023
1.01292
1.00528
0.997858
0.991255
0.985783
0.981659
1.03219
1.03365
1.03314
1.03108
1.02666
1.02049
1.01299
1.00518
0.997604
0.990881
0.985325
0.981146
1.03276
1.03426
1.03374
1.03163
1.02709
1.02075
1.01306
1.00506
0.997337
0.990494
0.984852
0.980618
1.03334
1.03488
1.03436
1.0322
1.02754
1.02101
1.01313
1.00494
0.997058
0.990093
0.984364
0.980076
1.03394
1.03552
1.035
1.03277
1.02799
1.02128
1.01319
1.00481
0.996765
0.989677
0.98386
0.979518
1.03455
1.03618
1.03566
1.03337
1.02844
1.02155
1.01324
1.00466
0.996458
0.989245
0.983341
0.978944
1.03518
1.03686
1.03633
1.03398
1.02891
1.02181
1.01329
1.00451
0.996136
0.988797
0.982805
0.978354
1.03583
1.03755
1.03702
1.0346
1.02939
1.02208
1.01333
1.00434
0.995798
0.988332
0.982252
0.977748
1.03649
1.03826
1.03773
1.03524
1.02987
1.02235
1.01337
1.00416
0.995445
0.98785
0.981682
0.977124
1.03717
1.03899
1.03845
1.03589
1.03037
1.02262
1.01339
1.00397
0.995074
0.98735
0.981094
0.976483
1.03787
1.03974
1.0392
1.03656
1.03087
1.02289
1.01341
1.00376
0.994686
0.986832
0.980487
0.975823
1.03858
1.04052
1.03997
1.03725
1.03138
1.02315
1.01342
1.00353
0.994279
0.986294
0.979861
0.975146
1.03932
1.04131
1.04076
1.03796
1.0319
1.02342
1.01341
1.00329
0.993853
0.985736
0.979216
0.974449
1.04007
1.04213
1.04158
1.03868
1.03243
1.02368
1.0134
1.00303
0.993406
0.985157
0.97855
0.973732
1.04085
1.04297
1.04241
1.03943
1.03297
1.02394
1.01337
1.00275
0.992938
0.984557
0.977863
0.972996
1.04165
1.04383
1.04328
1.04019
1.03352
1.02419
1.01332
1.00245
0.992448
0.983934
0.977155
0.972239
1.04247
1.04472
1.04416
1.04097
1.03407
1.02444
1.01327
1.00213
0.991934
0.983288
0.976424
0.971461
1.04331
1.04564
1.04508
1.04177
1.03463
1.02469
1.01319
1.00179
0.991396
0.982617
0.97567
0.970661
1.04418
1.04658
1.04602
1.0426
1.0352
1.02493
1.0131
1.00142
0.990832
0.981922
0.974893
0.969839
1.04507
1.04755
1.04698
1.04344
1.03578
1.02516
1.01299
1.00103
0.990241
0.9812
0.974091
0.968995
1.04599
1.04855
1.04798
1.04431
1.03637
1.02538
1.01285
1.00061
0.989622
0.980452
0.973264
0.968126
1.04694
1.04959
1.04901
1.0452
1.03696
1.02559
1.0127
1.00016
0.988974
0.979675
0.972412
0.967235
1.04792
1.05065
1.05007
1.04611
1.03756
1.02578
1.01252
0.999685
0.988295
0.97887
0.971533
0.966318
1.04892
1.05175
1.05117
1.04704
1.03816
1.02597
1.01231
0.999176
0.987583
0.978035
0.970626
0.965377
1.04996
1.05288
1.0523
1.048
1.03877
1.02613
1.01207
0.998632
0.986839
0.977168
0.969691
0.964409
1.05103
1.05406
1.05347
1.04898
1.03938
1.02628
1.0118
0.998053
0.986059
0.97627
0.968728
0.963416
1.05213
1.05527
1.05467
1.04999
1.03999
1.02641
1.0115
0.997435
0.985242
0.975338
0.967735
0.962395
1.05327
1.05652
1.05592
1.05103
1.0406
1.02652
1.01116
0.996778
0.984387
0.974372
0.966711
0.961347
1.05444
1.05781
1.05721
1.05208
1.04121
1.0266
1.01078
0.996077
0.983492
0.97337
0.965656
0.960271
1.05566
1.05915
1.05854
1.05317
1.04181
1.02665
1.01036
0.995332
0.982555
0.972331
0.964568
0.959166
1.05691
1.06054
1.05991
1.05428
1.04242
1.02666
1.00989
0.994539
0.981574
0.971255
0.963448
0.958031
1.0582
1.06198
1.06133
1.05541
1.04301
1.02664
1.00938
0.993695
0.980548
0.970139
0.962294
0.956867
1.05954
1.06347
1.06281
1.05657
1.04359
1.02659
1.00881
0.992799
0.979475
0.968982
0.961105
0.955671
1.06093
1.06501
1.06433
1.05776
1.04416
1.02648
1.00818
0.991846
0.978353
0.967784
0.95988
0.954444
1.06236
1.06661
1.06591
1.05897
1.04471
1.02633
1.00749
0.990835
0.97718
0.966543
0.958619
0.953185
1.06385
1.06828
1.06754
1.0602
1.04523
1.02612
1.00674
0.989761
0.975953
0.965257
0.957321
0.951894
1.06539
1.07
1.06923
1.06145
1.04573
1.02585
1.00591
0.988622
0.974671
0.963927
0.955985
0.950569
1.06699
1.0718
1.07098
1.06272
1.0462
1.02551
1.00501
0.987414
0.973333
0.962549
0.954609
0.94921
1.06864
1.07367
1.0728
1.06401
1.04662
1.02509
1.00403
0.986135
0.971935
0.961123
0.953194
0.947817
1.07036
1.07562
1.07468
1.06532
1.047
1.0246
1.00296
0.98478
0.970475
0.959648
0.951739
0.946389
1.07215
1.07765
1.07663
1.06663
1.04733
1.02401
1.0018
0.983346
0.968953
0.958123
0.950242
0.944924
1.074
1.07977
1.07865
1.06796
1.04759
1.02333
1.00053
0.981829
0.967365
0.956546
0.948704
0.943424
1.07593
1.08198
1.08074
1.06928
1.04778
1.02254
0.999168
0.980226
0.965711
0.954917
0.947123
0.941886
1.07794
1.08429
1.0829
1.0706
1.04789
1.02162
0.997688
0.978533
0.963987
0.953233
0.945498
0.940311
1.08003
1.08671
1.08514
1.0719
1.0479
1.02058
0.996091
0.976748
0.962193
0.951496
0.94383
0.938698
1.08222
1.08923
1.08746
1.07319
1.0478
1.0194
0.994368
0.974866
0.960326
0.949703
0.942118
0.937046
1.08449
1.09188
1.08985
1.07444
1.04757
1.01806
0.992513
0.972884
0.958386
0.947853
0.94036
0.935355
1.08687
1.09466
1.09231
1.07564
1.0472
1.01656
0.990518
0.970799
0.95637
0.945947
0.938558
0.933626
1.08936
1.09757
1.09485
1.07679
1.04667
1.01487
0.988377
0.96861
0.954278
0.943983
0.93671
0.931858
1.09197
1.10063
1.09746
1.07786
1.04595
1.01299
0.986083
0.966311
0.952108
0.941961
0.934816
0.930051
1.0947
1.10385
1.10014
1.07882
1.04503
1.0109
0.98363
0.963903
0.94986
0.939881
0.932876
0.928204
1.09757
1.10723
1.10287
1.07967
1.04387
1.00858
0.981011
0.961382
0.947533
0.937743
0.93089
0.926319
1.10058
1.11079
1.10566
1.08037
1.04246
1.00603
0.978222
0.958747
0.945127
0.935546
0.928857
0.924395
1.10376
1.11454
1.10848
1.08089
1.04076
1.00321
0.975257
0.955999
0.942642
0.933292
0.926779
0.922431
1.10711
1.11848
1.11133
1.08119
1.03874
1.00013
0.972114
0.953136
0.940079
0.930979
0.924655
0.920428
1.11065
1.12263
1.11417
1.08124
1.03636
0.996757
0.968788
0.950159
0.937438
0.92861
0.922485
0.918387
1.1144
1.12701
1.11699
1.08098
1.0336
0.993088
0.96528
0.94707
0.93472
0.926184
0.920271
0.916306
1.11837
1.1316
1.11975
1.08036
1.03041
0.989106
0.961589
0.94387
0.931927
0.923704
0.918012
0.914188
1.1226
1.13644
1.12241
1.07933
1.02675
0.984805
0.957718
0.940563
0.929061
0.92117
0.91571
0.912031
1.1271
1.1415
1.12492
1.07781
1.02259
0.980174
0.95367
0.937152
0.926124
0.918584
0.913366
0.909837
1.13191
1.14681
1.12722
1.07574
1.0179
0.975212
0.949452
0.933643
0.92312
0.915949
0.91098
0.907606
1.13706
1.15234
1.12924
1.07304
1.01262
0.969919
0.945073
0.93004
0.920051
0.913265
0.908555
0.905339
1.14259
1.1581
1.13089
1.06961
1.00674
0.964302
0.940545
0.92635
0.916922
0.910538
0.906091
0.903036
1.14854
1.16404
1.13207
1.06538
1.00022
0.95837
0.935881
0.922581
0.913736
0.907768
0.90359
0.9007
1.15496
1.17015
1.13266
1.06023
0.993042
0.952145
0.931098
0.91874
0.910499
0.90496
0.901055
0.89833
1.16191
1.17635
1.13251
1.05407
0.985195
0.945652
0.926214
0.914836
0.907215
0.902117
0.898488
0.895928
1.16943
1.18259
1.13148
1.0468
0.976681
0.938926
0.921251
0.910879
0.90389
0.899243
0.895891
0.893497
1.1776
1.18875
1.12937
1.03833
0.967518
0.932009
0.91623
0.906875
0.90053
0.896344
0.893267
0.891037
1.18648
1.19472
1.12597
1.02856
0.957743
0.924954
0.911175
0.902837
0.897143
0.893426
0.89062
0.888551
1.19614
1.2003
1.12106
1.01743
0.947417
0.917819
0.906108
0.898771
0.893734
0.890492
0.887954
0.886041
1.20666
1.20529
1.11438
1.00488
0.936627
0.91067
0.901052
0.894687
0.890312
0.887552
0.885272
0.883509
1.2181
1.20941
1.10567
0.9909
0.925487
0.903574
0.896025
0.890593
0.886886
0.884613
0.882583
0.880958
1.23052
1.21229
1.09464
0.975531
0.914145
0.896603
0.891045
0.886498
0.883466
0.881685
0.879893
0.878389
1.24394
1.21352
1.08102
0.958871
0.902772
0.889819
0.886123
0.882409
0.880062
0.87878
0.877218
0.875804
1.25836
1.21254
1.06453
0.941102
0.891565
0.883283
0.881267
0.878334
0.876687
0.875906
0.874556
0.873192
1.2737
1.20871
1.04496
0.922503
0.880727
0.877028
0.876473
0.874286
0.87337
0.873109
0.871956
0.870582
1.28982
1.20123
1.02217
0.903477
0.870486
0.871099
0.871739
0.870239
0.870057
0.870291
0.869297
0.867866
1.30638
1.18913
0.996161
0.884489
0.860961
0.865475
0.867141
0.866404
0.867069
0.86784
0.866913
0.865257
1.32288
1.17131
0.967297
0.866326
0.85245
0.859989
0.862193
0.86207
0.863523
0.864902
0.864062
0.862254
1.33834
1.14635
0.935995
0.849153
0.845367
0.855939
0.858855
0.859477
0.86161
0.863252
0.862019
0.859668
1.35163
1.11347
0.905261
0.833035
0.836487
0.848735
0.852536
0.854677
0.858427
0.860921
0.8595
0.856611
1.35914
1.06844
0.879523
0.826956
0.836297
0.847766
0.85042
0.852666
0.857134
0.85998
0.858221
0.854875
1.36222
0.997408
0.830415
0.80333
0.825734
0.842417
0.847438
0.851248
0.856748
0.859983
0.858239
0.854901
0.996341
0.996866
0.997749
0.998199
0.99818
0.998009
0.997966
0.998108
0.998317
0.998447
0.998436
0.998317
0.996881
0.997169
0.997821
0.998181
0.998176
0.998044
0.998011
0.998132
0.998312
0.998427
0.998415
0.998307
0.997366
0.997385
0.997788
0.998084
0.998139
0.998079
0.998062
0.998148
0.998283
0.998376
0.998369
0.998279
0.997637
0.997495
0.997752
0.998036
0.998159
0.998153
0.998131
0.998166
0.998251
0.998321
0.998322
0.998254
0.997788
0.997592
0.997782
0.998058
0.998207
0.998213
0.998166
0.998156
0.998202
0.998261
0.998274
0.998227
0.997921
0.997722
0.997866
0.998104
0.998235
0.998229
0.998164
0.998132
0.998161
0.998216
0.99824
0.998209
0.998069
0.997868
0.997957
0.998135
0.998233
0.998218
0.998155
0.998121
0.998143
0.998193
0.998219
0.998197
0.998211
0.997996
0.998025
0.998147
0.998219
0.998207
0.998155
0.998123
0.998137
0.998176
0.998198
0.99818
0.99832
0.998089
0.998072
0.998153
0.998211
0.998204
0.998161
0.998129
0.998133
0.99816
0.998177
0.998162
0.998394
0.998157
0.998111
0.998166
0.998212
0.998207
0.998168
0.998135
0.99813
0.998148
0.99816
0.998146
0.998447
0.998213
0.998151
0.998185
0.998218
0.998211
0.998174
0.998139
0.998128
0.998138
0.998145
0.998132
0.99849
0.998264
0.998191
0.998206
0.998227
0.998215
0.998179
0.998143
0.998128
0.998131
0.998132
0.998117
0.998531
0.998312
0.998228
0.998227
0.998236
0.99822
0.998184
0.998148
0.998129
0.998125
0.99812
0.998103
0.998567
0.998354
0.998262
0.998247
0.998246
0.998227
0.99819
0.998153
0.998128
0.998118
0.998109
0.998091
0.998598
0.99839
0.998292
0.998267
0.998258
0.998234
0.998196
0.998156
0.998128
0.998113
0.9981
0.998081
0.998625
0.998422
0.99832
0.998286
0.998269
0.998241
0.998201
0.998159
0.998127
0.998108
0.998093
0.998073
0.998647
0.99845
0.998345
0.998304
0.99828
0.998248
0.998204
0.998161
0.998127
0.998105
0.998087
0.998065
0.998667
0.998475
0.998367
0.99832
0.99829
0.998253
0.998208
0.998163
0.998128
0.998103
0.998082
0.998058
0.998685
0.998496
0.998386
0.998333
0.998298
0.998258
0.998212
0.998166
0.998129
0.998101
0.998076
0.998049
0.998699
0.998514
0.998401
0.998344
0.998305
0.998264
0.998216
0.998169
0.998129
0.998098
0.998069
0.99804
0.99871
0.998528
0.998414
0.998354
0.998313
0.998269
0.99822
0.998171
0.998128
0.998094
0.998062
0.998029
0.998718
0.998539
0.998425
0.998363
0.99832
0.998274
0.998223
0.998171
0.998126
0.998088
0.998053
0.998018
0.998724
0.998548
0.998435
0.998371
0.998325
0.998277
0.998224
0.99817
0.998122
0.998082
0.998044
0.998007
0.998729
0.998557
0.998444
0.998378
0.99833
0.998279
0.998223
0.998167
0.998117
0.998074
0.998034
0.997996
0.998733
0.998564
0.998451
0.998383
0.998332
0.998279
0.99822
0.998162
0.99811
0.998065
0.998024
0.997986
0.998736
0.99857
0.998456
0.998386
0.998332
0.998276
0.998216
0.998156
0.998102
0.998057
0.998015
0.997976
0.998738
0.998574
0.998459
0.998387
0.99833
0.998272
0.99821
0.998149
0.998094
0.998048
0.998005
0.997967
0.99874
0.998576
0.998461
0.998386
0.998326
0.998266
0.998203
0.998141
0.998086
0.998039
0.997996
0.997957
0.998739
0.998577
0.99846
0.998382
0.99832
0.998259
0.998195
0.998133
0.998077
0.99803
0.997987
0.997948
0.998738
0.998576
0.998458
0.998377
0.998314
0.998252
0.998187
0.998124
0.998069
0.998021
0.997977
0.997938
0.998734
0.998573
0.998454
0.998371
0.998306
0.998243
0.998179
0.998116
0.99806
0.998012
0.997967
0.997928
0.99873
0.99857
0.998449
0.998364
0.998298
0.998235
0.998171
0.998108
0.998051
0.998002
0.997957
0.997917
0.998725
0.998565
0.998443
0.998357
0.99829
0.998227
0.998162
0.998099
0.998041
0.997991
0.997946
0.997905
0.998719
0.998559
0.998436
0.998349
0.998282
0.998219
0.998154
0.99809
0.998031
0.99798
0.997934
0.997893
0.998713
0.998553
0.998429
0.998341
0.998273
0.99821
0.998145
0.99808
0.99802
0.997969
0.997921
0.99788
0.998706
0.998547
0.998422
0.998333
0.998264
0.998201
0.998136
0.99807
0.998009
0.997956
0.997908
0.997867
0.998699
0.99854
0.998414
0.998323
0.998255
0.998191
0.998126
0.998059
0.997997
0.997943
0.997894
0.997852
0.998692
0.998532
0.998404
0.998314
0.998245
0.998182
0.998115
0.998048
0.997985
0.99793
0.99788
0.997838
0.998684
0.998523
0.998394
0.998303
0.998234
0.998171
0.998104
0.998036
0.997972
0.997916
0.997866
0.997822
0.998675
0.998513
0.998383
0.998291
0.998223
0.99816
0.998093
0.998024
0.997959
0.997902
0.99785
0.997806
0.998665
0.998501
0.99837
0.998278
0.99821
0.998147
0.99808
0.99801
0.997944
0.997887
0.997835
0.99779
0.998653
0.998489
0.998357
0.998265
0.998197
0.998135
0.998067
0.997997
0.99793
0.997871
0.997819
0.997773
0.99864
0.998474
0.998342
0.99825
0.998183
0.998121
0.998053
0.997982
0.997915
0.997855
0.997802
0.997756
0.998626
0.998459
0.998326
0.998234
0.998168
0.998106
0.998038
0.997967
0.997899
0.997839
0.997785
0.99774
0.998611
0.998442
0.998308
0.998217
0.998151
0.99809
0.998022