/*--------------------------------*- C++ -*----------------------------------*\
  =========                 |
  \\      /  F ield         | OpenFOAM: The Open Source CFD Toolbox
   \\    /   O peration     | Website:  https://openfoam.org
    \\  /    A nd           | Version:  6.0
     \\/     M anipulation  |
\*---------------------------------------------------------------------------*/
FoamFile
{
    version     2.0;
    format      ascii;
    class       surfaceScalarField;
    location    "3.2";
    object      phi;
}
// * * * * * * * * * * * * * * * * * * * * * * * * * * * * * * * * * * * * * //

dimensions      [0 3 -1 0 0 0 0];

internalField   nonuniform List<scalar> 
68636
(
3.02288e-05
0.00310561
2.87437e-09
6.08422e-05
0.00307074
9.10909e-05
0.00300251
0.00012048
0.00290143
0.000148623
0.00276854
0.000175173
0.00260531
0.000199816
0.00241354
0.000222268
0.00219536
0.000242271
0.00195316
0.000259598
0.00168961
0.000274052
0.0014076
0.000285472
0.00111019
0.000293735
0.000800691
0.00029872
0.000482263
0.000156792
0.000299695
2.99487e-05
0.00307565
9.03037e-09
6.02845e-05
0.0030404
9.02587e-05
0.00297254
0.000119381
0.00287231
0.000147268
0.00274066
0.000173575
0.00257901
0.000197993
0.00238912
0.00022024
0.00217311
0.00024006
0.00193334
0.000257229
0.00167244
0.000271552
0.00139328
0.000282867
0.00109888
0.00029107
0.000792491
0.000295929
0.000477407
0.000155745
0.000296983
2.96711e-05
0.00304596
1.48099e-08
5.97319e-05
0.00301034
8.94343e-05
0.00294283
0.000118292
0.00284345
0.000145926
0.00271303
0.000171994
0.00255294
0.00019619
0.00236493
0.000218233
0.00215107
0.000237873
0.0019137
0.000254885
0.00165543
0.000269078
0.00137908
0.000280288
0.00108767
0.000288417
0.000784361
0.000293274
0.000472547
0.00015451
0.0002945
2.93964e-05
0.00301655
2.0292e-08
5.91846e-05
0.00298055
8.86178e-05
0.0029134
0.000117214
0.00281486
0.000144597
0.00268564
0.000170428
0.00252711
0.000194403
0.00234095
0.000216245
0.00212923
0.000235706
0.00189424
0.000252562
0.00163857
0.000266626
0.00136502
0.000277732
0.00107656
0.00028578
0.000776312
0.000290621
0.000467707
0.000153189
0.000291944
2.91244e-05
0.0029874
2.53191e-08
5.86426e-05
0.00295103
8.78088e-05
0.00288424
0.000116145
0.00278652
0.000143279
0.00265851
0.000168875
0.00250151
0.000192631
0.0023172
0.000214274
0.00210758
0.000233557
0.00187496
0.00025026
0.00162187
0.000264194
0.00135108
0.000275198
0.00106556
0.000283165
0.000768344
0.000287971
0.000462898
0.000151792
0.00028936
2.88551e-05
0.00295851
2.99277e-08
5.81055e-05
0.00292178
8.7007e-05
0.00285534
0.000115086
0.00275844
0.000141973
0.00263162
0.000167336
0.00247615
0.000190876
0.00229366
0.000212321
0.00208614
0.000231428
0.00185585
0.000247978
0.00160532
0.000261786
0.00133728
0.000272689
0.00105465
0.000280576
0.000760455
0.000285341
0.000458132
0.000150351
0.000286781
2.85884e-05
0.00292989
3.41927e-08
5.75733e-05
0.0028928
8.62124e-05
0.0028267
0.000114036
0.00273062
0.000140679
0.00260498
0.00016581
0.00245102
0.000189136
0.00227033
0.000210386
0.00206489
0.000229318
0.00183692
0.000245717
0.00158892
0.000259399
0.00132359
0.000270203
0.00104385
0.000278014
0.000752644
0.000282736
0.000453407
0.000148876
0.000284205
2.83242e-05
0.00290153
3.80772e-08
5.70459e-05
0.00286408
8.54248e-05
0.00279832
0.000112996
0.00270305
0.000139396
0.00257858
0.000164299
0.00242611
0.000187412
0.00224722
0.000208468
0.00204383
0.000227228
0.00181816
0.000243477
0.00157267
0.000257035
0.00131004
0.000267741
0.00103314
0.000275477
0.000744907
0.000280155
0.000448726
0.000147392
0.000281637
2.80625e-05
0.00287342
4.16522e-08
5.65233e-05
0.00283561
8.46444e-05
0.0027702
0.000111965
0.00267573
0.000138125
0.00255242
0.000162801
0.00240144
0.000185704
0.00222432
0.000206568
0.00202296
0.000225157
0.00179957
0.000241258
0.00155657
0.000254692
0.0012966
0.000265301
0.00102253
0.000272965
0.000737243
0.000277599
0.00044409
0.000145901
0.000279084
2.78032e-05
0.00284558
4.5012e-08
5.60054e-05
0.00280741
8.38708e-05
0.00274233
0.000110943
0.00264865
0.000136865
0.0025265
0.000161316
0.00237699
0.00018401
0.00220162
0.000204685
0.00200229
0.000223105
0.00178115
0.000239059
0.00154061
0.00025237
0.00128329
0.000262884
0.00101201
0.000270477
0.000729648
0.000275068
0.000439497
0.000144415
0.000276552
2.75464e-05
0.00281798
4.82061e-08
5.54922e-05
0.00277947
8.31042e-05
0.00271472
0.00010993
0.00262183
0.000135616
0.00250081
0.000159845
0.00235276
0.000182333
0.00217913
0.000202819
0.0019818
0.000221071
0.0017629
0.00023688
0.0015248
0.00025007
0.0012701
0.000260488
0.00100159
0.000268012
0.000722124
0.000272562
0.000434946
0.000142931
0.000274042
2.72919e-05
0.00279064
5.13344e-08
5.49836e-05
0.00275177
8.23445e-05
0.00268736
0.000108926
0.00259525
0.000134378
0.00247536
0.000158387
0.00232875
0.00018067
0.00215685
0.00020097
0.0019615
0.000219056
0.00174481
0.000234721
0.00150914
0.000247791
0.00125703
0.000258115
0.00099127
0.000265571
0.000714667
0.000270079
0.000430436
0.000141453
0.000271555
2.70398e-05
0.00276354
5.44853e-08
5.44795e-05
0.00272433
8.15915e-05
0.00266025
0.000107931
0.00256891
0.000133152
0.00245014
0.000156942
0.00230496
0.000179023
0.00213477
0.000199138
0.00194139
0.000217059
0.00172689
0.000232582
0.00149361
0.000245532
0.00124408
0.000255763
0.000981039
0.000263151
0.000707278
0.00026762
0.000425966
0.000139978
0.000269092
2.67899e-05
0.0027367
5.77159e-08
5.398e-05
0.00269714
8.08453e-05
0.00263338
0.000106945
0.00254281
0.000131937
0.00242515
0.00015551
0.00228138
0.00017739
0.00211289
0.000197322
0.00192145
0.000215081
0.00170913
0.000230462
0.00147823
0.000243294
0.00123125
0.000253432
0.000970901
0.000260754
0.000699955
0.000265184
0.000421534
0.000138508
0.000266652
2.65423e-05
0.00271009
6.10874e-08
5.34849e-05
0.0026702
8.01058e-05
0.00260676
0.000105968
0.00251694
0.000130732
0.00240039
0.000154092
0.00225803
0.000175772
0.00209121
0.000195523
0.0019017
0.00021312
0.00169154
0.000228362
0.00146299
0.000241077
0.00121853
0.000251123
0.000960855
0.000258379
0.000692698
0.00026277
0.000417142
0.000137042
0.000264233
2.62968e-05
0.00268373
6.4628e-08
5.29943e-05
0.0026435
7.93728e-05
0.00258038
0.000105
0.00249132
0.000129539
0.00237585
0.000152686
0.00223488
0.000174169
0.00206973
0.000193741
0.00188213
0.000211177
0.0016741
0.000226281
0.00144788
0.00023888
0.00120593
0.000248834
0.000950901
0.000256025
0.000685507
0.000260378
0.000412788
0.000135585
0.000261834
2.60536e-05
0.00265761
6.83401e-08
5.25081e-05
0.00261705
7.86465e-05
0.00255425
0.000104041
0.00246592
0.000128356
0.00235153
0.000151293
0.00221194
0.000172581
0.00204844
0.000191974
0.00186274
0.000209253
0.00165682
0.000224218
0.00143292
0.000236704
0.00119345
0.000246567
0.000941037
0.000253693
0.000678381
0.000258007
0.000408474
0.000134136
0.000259454
2.58125e-05
0.00263172
7.22105e-08
5.20262e-05
0.00259084
7.79267e-05
0.00252834
0.00010309
0.00244076
0.000127184
0.00232744
0.000149912
0.00218921
0.000171007
0.00202734
0.000190224
0.00184352
0.000207345
0.0016397
0.000222175
0.00141809
0.000234547
0.00118108
0.000244321
0.000931262
0.000251383
0.000671318
0.000255658
0.000404197
0.000132698
0.000257094
2.55735e-05
0.00260607
7.6204e-08
5.15486e-05
0.00256486
7.72134e-05
0.00250268
0.000102148
0.00241582
0.000126023
0.00230356
0.000148544
0.00216669
0.000169447
0.00200644
0.00018849
0.00182448
0.000205455
0.00162273
0.00022015
0.00140339
0.00023241
0.00116882
0.000242095
0.000921577
0.000249093
0.00066432
0.000253331
0.000399959
0.000131272
0.000254756
2.53366e-05
0.00258066
8.02722e-08
5.10753e-05
0.00253912
7.65064e-05
0.00247725
0.000101214
0.00239112
0.000124872
0.0022799
0.000147188
0.00214438
0.000167901
0.00198573
0.000186771
0.00180561
0.000203582
0.00160592
0.000218144
0.00138883
0.000230292
0.00115667
0.000239889
0.000911979
0.000246825
0.000657384
0.000251024
0.000395758
0.000129857
0.000252438
2.51018e-05
0.00255547
8.43647e-08
5.06062e-05
0.00251362
7.58059e-05
0.00245205
0.000100288
0.00236663
0.000123731
0.00225646
0.000145845
0.00212226
0.00016637
0.0019652
0.000185068
0.00178691
0.000201727
0.00158926
0.000216156
0.0013744
0.000228194
0.00114463
0.000237704
0.000902469
0.000244577
0.000650511
0.000248739
0.000391596
0.000128453
0.000250142
2.48691e-05
0.00253051
8.84243e-08
5.01414e-05
0.00248835
7.51116e-05
0.00242708
9.93715e-05
0.00234238
0.000122601
0.00223323
0.000144514
0.00210035
0.000164852
0.00194487
0.000183381
0.00176838
0.000199888
0.00157276
0.000214186
0.0013601
0.000226114
0.0011327
0.000235539
0.000893044
0.00024235
0.000643699
0.000246475
0.000387469
0.00012706
0.000247867
2.46385e-05
0.00250578
9.24017e-08
4.96807e-05
0.0024633
7.44237e-05
0.00240234
9.84628e-05
0.00231834
0.000121481
0.00221021
0.000143195
0.00207864
0.000163348
0.00192471
0.000181708
0.00175002
0.000198066
0.0015564
0.000212234
0.00134593
0.000224054
0.00112088
0.000233393
0.000883705
0.000240143
0.00063695
0.000244231
0.000383381
0.000125677
0.000245613
2.44099e-05
0.00248128
9.62517e-08
4.92242e-05
0.00243849
7.37419e-05
0.00237782
9.75623e-05
0.00229452
0.000120371
0.0021874
0.000141888
0.00205712
0.000161858
0.00190474
0.000180051
0.00173182
0.00019626
0.00154019
0.0002103
0.00133189
0.000222012
0.00110917
0.000231267
0.000874451
0.000237956
0.00063026
0.000242008
0.000379326
0.000124304
0.00024338
2.41834e-05
0.00245699
9.99406e-08
4.87717e-05
0.0024139
7.30663e-05
0.00235352
9.66699e-05
0.00227091
0.000119272
0.0021648
0.000140592
0.0020358
0.000160381
0.00188495
0.000178409
0.0017138
0.000194471
0.00152413
0.000208383
0.00131798
0.00021999
0.00109756
0.00022916
0.000865281
0.000235789
0.000623632
0.000239806
0.00037531
0.000122943
0.000241167
2.39589e-05
0.00243293
1.03443e-07
4.83234e-05
0.00238954
7.23968e-05
0.00232945
9.57857e-05
0.00224752
0.000118182
0.00214241
0.000139309
0.00201467
0.000158918
0.00186534
0.000176782
0.00169593
0.000192698
0.00150821
0.000206484
0.0013042
0.000217985
0.00108606
0.000227072
0.000856193
0.000233642
0.000617061
0.000237623
0.000371327
0.000121591
0.000238973
2.37364e-05
0.00240909
1.06749e-07
4.78791e-05
0.00236539
7.17333e-05
0.0023056
9.49094e-05
0.00222435
0.000117102
0.00212021
0.000138037
0.00199374
0.000157468
0.00184591
0.00017517
0.00167823
0.000190941
0.00149244
0.000204602
0.00129053
0.000215999
0.00107467
0.000225004
0.000847189
0.000231514
0.000610552
0.00023546
0.000367382
0.000120252
0.000236799
2.3516e-05
0.00238546
1.09859e-07
4.74388e-05
0.00234147
7.10759e-05
0.00228196
9.40411e-05
0.00220138
0.000116032
0.00209822
0.000136776
0.00197299
0.000156031
0.00182666
0.000173572
0.00166069
0.0001892
0.00147681
0.000202737
0.001277
0.000214031
0.00106337
0.000222954
0.000838265
0.000229406
0.000604099
0.000233316
0.00036347
0.000118923
0.000234644
2.32975e-05
0.00236205
1.1279e-07
4.70025e-05
0.00231777
7.04244e-05
0.00225854
9.31807e-05
0.00217863
0.000114971
0.00207643
0.000135527
0.00195244
0.000154607
0.00180758
0.000171989
0.00164331
0.000187475
0.00146133
0.000200889
0.00126358
0.00021208
0.00105218
0.000220923
0.000829422
0.000227317
0.000597706
0.000231193
0.000359595
0.000117607
0.000232509
2.30811e-05
0.00233885
1.15566e-07
4.65701e-05
0.00229428
6.97788e-05
0.00223533
9.2328e-05
0.00215608
0.000113921
0.00205484
0.00013429
0.00193207
0.000153196
0.00178867
0.00017042
0.00162608
0.000185765
0.00144598
0.000199058
0.00125029
0.000210148
0.00104109
0.000218911
0.000820659
0.000225247
0.000591369
0.000229089
0.000355752
0.000116301
0.000230394
2.28666e-05
0.00231587
1.18227e-07
4.61417e-05
0.002271
6.91391e-05
0.00221233
9.14831e-05
0.00213373
0.000112879
0.00203344
0.000133063
0.00191188
0.000151797
0.00176994
0.000168865
0.00160901
0.000184071
0.00143078
0.000197243
0.00123712
0.000208233
0.0010301
0.000216917
0.000811976
0.000223196
0.00058509
0.000227003
0.000351946
0.000115007
0.000228298
2.26541e-05
0.00229309
1.20817e-07
4.57172e-05
0.00224794
6.85052e-05
0.00218954
9.06459e-05
0.00211159
0.000111847
0.00201224
0.000131848
0.00189188
0.000150412
0.00175137
0.000167325
0.0015921
0.000182393
0.00141571
0.000195446
0.00122407
0.000206336
0.00101921
0.000214941
0.00080337
0.000221164
0.000578866
0.000224937
0.000348171
0.000113722
0.000226221
2.24435e-05
0.00227053
1.23384e-07
4.52966e-05
0.00222509
6.78771e-05
0.00216696
8.98162e-05
0.00208965
0.000110825
0.00199123
0.000130644
0.00187206
0.000149039
0.00173298
0.000165798
0.00157534
0.00018073
0.00140078
0.000193664
0.00121113
0.000204455
0.00100842
0.000212983
0.000794843
0.00021915
0.000572699
0.00022289
0.000344432
0.000112451
0.000224163
2.22349e-05
0.00224817
1.25969e-07
4.48798e-05
0.00220244
6.72546e-05
0.00214459
8.89941e-05
0.00206791
0.000109812
0.00197042
0.00012945
0.00185243
0.000147678
0.00171475
0.000164286
0.00155874
0.000179081
0.00138598
0.000191899
0.00119831
0.000202592
0.000997725
0.000211043
0.000786392
0.000217155
0.000566586
0.000220862
0.000340724
0.000111187
0.000222124
2.20282e-05
0.00222601
1.28613e-07
4.44667e-05
0.00218
6.66379e-05
0.00212242
8.81795e-05
0.00204637
0.000108808
0.00194979
0.000128268
0.00183297
0.00014633
0.00169669
0.000162787
0.00154228
0.000177448
0.00137132
0.000190149
0.00118561
0.000200747
0.000987129
0.000209121
0.000778018
0.000215178
0.00056053
0.000218852
0.000337051
0.000109936
0.000220103
2.18235e-05
0.00220406
1.3134e-07
4.40575e-05
0.00215777
6.60267e-05
0.00210045
8.73722e-05
0.00202503
0.000107813
0.00192935
0.000127096
0.00181368
0.000144994
0.00167879
0.000161301
0.00152597
0.00017583
0.00135679
0.000188416
0.00117303
0.000198917
0.000976627
0.000207216
0.000769719
0.000213219
0.000554526
0.00021686
0.000333408
0.000108694
0.000218101
2.16206e-05
0.0021823
1.34164e-07
4.3652e-05
0.00213574
6.54211e-05
0.00207868
8.65723e-05
0.00200387
0.000106827
0.00190909
0.000125935
0.00179458
0.000143671
0.00166105
0.00015983
0.00150981
0.000174227
0.00134239
0.000186699
0.00116056
0.000197105
0.000966221
0.000205329
0.000761496
0.000211278
0.000548578
0.000214887
0.000329801
0.000107465
0.000216117
2.14195e-05
0.00216074
1.37084e-07
4.32502e-05
0.00211391
6.4821e-05
0.00205711
8.57797e-05
0.00198292
0.00010585
0.00188902
0.000124784
0.00177564
0.000142359
0.00164348
0.000158371
0.0014938
0.000172638
0.00132813
0.000184997
0.0011482
0.000195309
0.000955909
0.000203459
0.000753345
0.000209355
0.000542682
0.000212931
0.000326223
0.000106244
0.000214151
2.12204e-05
0.00213938
1.40088e-07
4.28521e-05
0.00209228
6.42264e-05
0.00203573
8.49943e-05
0.00196215
0.000104882
0.00186913
0.000123644
0.00175688
0.000141059
0.00162606
0.000156926
0.00147793
0.000171063
0.00131399
0.000183311
0.00113595
0.00019353
0.00094569
0.000201606
0.00074527
0.000207449
0.00053684
0.000210994
0.000322679
0.000105037
0.000212203
2.1023e-05
0.00211822
1.43149e-07
4.24576e-05
0.00207084
6.36372e-05
0.00201455
8.4216e-05
0.00194157
0.000103923
0.00184943
0.000122514
0.00173829
0.000139771
0.00160881
0.000155494
0.00146221
0.000169503
0.00129998
0.00018164
0.00112381
0.000191767
0.000935563
0.00019977
0.000737265
0.000205561
0.000531049
0.000209074
0.000319164
0.000103837
0.000210273
2.08275e-05
0.00209724
1.46236e-07
4.20668e-05
0.0020496
6.30534e-05
0.00199357
8.34448e-05
0.00192118
0.000102972
0.0018299
0.000121395
0.00171987
0.000138495
0.00159171
0.000154076
0.00144663
0.000167958
0.0012861
0.000179984
0.00111179
0.00019002
0.000925528
0.000197951
0.000729335
0.00020369
0.000525311
0.000207172
0.000315683
0.00010265
0.00020836
2.06338e-05
0.00207646
1.49309e-07
4.16795e-05
0.00202856
6.24749e-05
0.00197277
8.26807e-05
0.00190097
0.000102031
0.00181055
0.000120286
0.00170161
0.000137231
0.00157476
0.00015267
0.00143119
0.000166426
0.00127234
0.000178344
0.00109987
0.000188289
0.000915583
0.000196149
0.000721474
0.000201836
0.000519623
0.000205287
0.00031223
0.00010147
0.000206465
2.04419e-05
0.00205587
1.52331e-07
4.12957e-05
0.0020077
6.19016e-05
0.00195216
8.19234e-05
0.00188095
0.000101097
0.00179138
0.000119186
0.00168352
0.000135978
0.00155797
0.000151277
0.00141589
0.000164908
0.00125871
0.000176718
0.00108806
0.000186574
0.000905728
0.000194363
0.000713685
0.000199999
0.000513988
0.00020342
0.000308811
0.000100304
0.000204588
2.02517e-05
0.00203546
1.55264e-07
4.09155e-05
0.00198704
6.13336e-05
0.00193175
8.11731e-05
0.00186111
0.000100173
0.00177238
0.000118097
0.0016656
0.000134736
0.00154133
0.000149896
0.00140073
0.000163405
0.0012452
0.000175108
0.00107635
0.000184874
0.000895962
0.000192593
0.000705965
0.000198179
0.000508401
0.000201569
0.000305419
9.9144e-05
0.000202727
2.00632e-05
0.00201524
1.5808e-07
4.05387e-05
0.00196656
6.07708e-05
0.00191151
8.04297e-05
0.00184145
9.92562e-05
0.00175355
0.000117018
0.00164783
0.000133506
0.00152484
0.000148529
0.00138571
0.000161915
0.00123182
0.000173512
0.00106476
0.00018319
0.000886284
0.00019084
0.000698316
0.000196376
0.000502867
0.000199736
0.00030206
9.79982e-05
0.000200884
1.98765e-05
0.0019952
1.60755e-07
4.01654e-05
0.00194627
6.02131e-05
0.00189147
7.9693e-05
0.00182197
9.83483e-05
0.00173489
0.000115949
0.00163023
0.000132287
0.00150851
0.000147174
0.00137082
0.000160438
0.00121855
0.000171931
0.00105326
0.000181522
0.000876693
0.000189103
0.000690735
0.000194589
0.00049738
0.000197919
0.000298728
9.68579e-05
0.000199057
1.96915e-05
0.00197534
1.63277e-07
3.97955e-05
0.00192617
5.96605e-05
0.0018716
7.8963e-05
0.00180267
9.74486e-05
0.00171641
0.000114889
0.00161279
0.000131079
0.00149232
0.000145831
0.00135607
0.000158976
0.00120541
0.000170364
0.00104188
0.000179869
0.00086719
0.000187381
0.000683223
0.000192818
0.000491944
0.000196119
0.000295429
9.57322e-05
0.000197247
1.95082e-05
0.00195567
1.65644e-07
3.94289e-05
0.00190625
5.9113e-05
0.00185192
7.82397e-05
0.00178354
9.65572e-05
0.00169809
0.000113839
0.00159551
0.000129882
0.00147627
0.0001445
0.00134145
0.000157526
0.00119238
0.000168812
0.00103059
0.000178231
0.000857771
0.000185676
0.000675777
0.000191064
0.000486555
0.000194335
0.000292156
9.46115e-05
0.000195454
1.93266e-05
0.00193618
1.67866e-07
3.90657e-05
0.00188651
5.85704e-05
0.00183241
7.7523e-05
0.00176459
9.56739e-05
0.00167994
0.000112799
0.00157839
0.000128696
0.00146038
0.000143182
0.00132697
0.00015609
0.00117947
0.000167274
0.00101941
0.000176607
0.000848438
0.000183986
0.0006684
0.000189326
0.000481216
0.000192568
0.000288915
9.35054e-05
0.000193677
1.91466e-05
0.00191686
1.69961e-07
3.87058e-05
0.00186695
5.80328e-05
0.00181308
7.68129e-05
0.00174581
9.47987e-05
0.00166195
0.000111768
0.00156142
0.000127521
0.00144462
0.000141876
0.00131261
0.000154667
0.00116668
0.00016575
0.00100832
0.000174999
0.000839188
0.000182311
0.000661087
0.000187604
0.000475923
0.000190817
0.0002857
9.2404e-05
0.000191916
1.89683e-05
0.00189772
1.7196e-07
3.83492e-05
0.00184757
5.75001e-05
0.00179393
7.61092e-05
0.0017272
9.39314e-05
0.00164413
0.000110747
0.0015446
0.000126357
0.00142901
0.000140581
0.00129839
0.000153257
0.00115401
0.00016424
0.000997341
0.000173406
0.000830022
0.000180652
0.000653842
0.000185897
0.000470679
0.000189082
0.000282517
9.13171e-05
0.000190172
1.87916e-05
0.00187875
1.73892e-07
3.79958e-05
0.00182837
5.69722e-05
0.00177496
7.5412e-05
0.00170876
9.30721e-05
0.00162647
0.000109735
0.00152794
0.000125203
0.00141354
0.000139299
0.00128429
0.00015186
0.00114144
0.000162744
0.000986457
0.000171827
0.000820938
0.000179008
0.00064666
0.000184206
0.00046548
0.000187363
0.000279359
9.02344e-05
0.000188443
1.86166e-05
0.00185996
1.75797e-07
3.76457e-05
0.00180934
5.64492e-05
0.00175615
7.47211e-05
0.00169049
9.22207e-05
0.00160897
0.000108732
0.00151143
0.00012406
0.00139821
0.000138028
0.00127032
0.000150476
0.001129
0.000161261
0.000975672
0.000170263
0.000811937
0.00017738
0.000639544
0.000182531
0.00046033
0.000185659
0.000276232
8.91665e-05
0.00018673
1.84431e-05
0.00184134
1.77708e-07
3.72988e-05
0.00179048
5.5931e-05
0.00173752
7.40366e-05
0.00167238
9.13771e-05
0.00159163
0.000107738
0.00149507
0.000122928
0.00138303
0.000136769
0.00125648
0.000149104
0.00111666
0.000159792
0.000964983
0.000168713
0.000803016
0.000175766
0.000632491
0.000180871
0.000455223
0.000183972
0.000273129
8.81024e-05
0.000185033
1.82712e-05
0.00182289
1.79657e-07
3.6955e-05
0.0017718
5.54175e-05
0.00171906
7.33583e-05
0.00165444
9.05411e-05
0.00157445
0.000106754
0.00147885
0.000121806
0.00136797
0.000135522
0.00124277
0.000147745
0.00110444
0.000158337
0.000954392
0.000167177
0.000794177
0.000174167
0.000625503
0.000179226
0.000450165
0.000182299
0.000270057
8.7053e-05
0.000183352
1.81009e-05
0.00180461
1.81669e-07
3.66144e-05
0.00175328
5.49087e-05
0.00170076
7.26862e-05
0.00163666
8.97129e-05
0.00155742
0.000105779
0.00146279
0.000120694
0.00135306
0.000134286
0.00122917
0.000146399
0.00109233
0.000156895
0.000943896
0.000165656
0.000785415
0.000172582
0.000618575
0.000177597
0.00044515
0.000180643
0.00026701
8.60071e-05
0.000181686
1.79321e-05
0.00178649
1.83759e-07
3.62769e-05
0.00173494
5.44045e-05
0.00168264
7.20203e-05
0.00161905
8.88922e-05
0.00154055
0.000104812
0.00144687
0.000119592
0.00133828
0.000133061
0.00121571
0.000145064
0.00108032
0.000155466
0.000933495
0.000164148
0.000776734
0.000171012
0.000611712
0.000175982
0.000440181
0.000179001
0.000263992
8.49761e-05
0.000180035
1.77649e-05
0.00176854
1.85933e-07
3.59424e-05
0.00171676
5.3905e-05
0.00166467
7.13605e-05
0.00160159
8.8079e-05
0.00152383
0.000103854
0.00143109
0.0001185
0.00132363
0.000131848
0.00120236
0.000143743
0.00106843
0.00015405
0.000923187
0.000162654
0.00076813
0.000169457
0.000604908
0.000174382
0.000435255
0.000177374
0.000260998
8.3948e-05
0.0001784
1.75992e-05
0.00175075
1.88188e-07
3.56111e-05
0.00169875
5.341e-05
0.00164687
7.07067e-05
0.0015843
8.72733e-05
0.00150726
0.000102906
0.00141546
0.000117419
0.00130912
0.000130645
0.00118913
0.000142433
0.00105664
0.000152648
0.000912973
0.000161174
0.000759604
0.000167916
0.000598168
0.000172797
0.000430375
0.000175763
0.000258034
8.29348e-05
0.000176779
1.7435e-05
0.00173313
1.90508e-07
3.52828e-05
0.0016809
5.29196e-05
0.00162924
7.00589e-05
0.00156716
8.6475e-05
0.00149085
0.000101965
0.00139997
0.000116347
0.00129474
0.000129454
0.00117603
0.000141135
0.00104496
0.000151258
0.000902849
0.000159708
0.000751154
0.000166389
0.000591485
0.000171227
0.000425536
0.000174166
0.000255093
8.19241e-05
0.000175174
1.72723e-05
0.00171566
1.92875e-07
3.49575e-05
0.00166322
5.24337e-05
0.00161176
6.94171e-05
0.00155017
8.5684e-05
0.00147458
0.000101034
0.00138462
0.000115285
0.00128049
0.000128274
0.00116304
0.000139849
0.00103338
0.000149881
0.000892818
0.000158255
0.000742781
0.000164876
0.000584865
0.000169671
0.000420743
0.000172584
0.000252182
8.09284e-05
0.000173583
1.71112e-05
0.00169836
1.9526e-07
3.46352e-05
0.00164569
5.19523e-05
0.00159444
6.87811e-05
0.00153335
8.49003e-05
0.00145846
0.000100111
0.00136941
0.000114233
0.00126636
0.000127104
0.00115017
0.000138575
0.00102191
0.000148516
0.000882877
0.000156815
0.000734482
0.000163377
0.000578302
0.000168129
0.00041599
0.000171016
0.000249292
7.99347e-05
0.000172007
1.69515e-05
0.00168121
1.97638e-07
3.43158e-05
0.00162833
5.14752e-05
0.00157728
6.8151e-05
0.00151667
8.41238e-05
0.00144249
9.91963e-05
0.00135434
0.000113191
0.00125237
0.000125945
0.00113741
0.000137313
0.00101055
0.000147165
0.000873026
0.000155389
0.000726258
0.000161892
0.0005718
0.000166601
0.000411282
0.000169463
0.000246432
7.89561e-05
0.000170446
1.67933e-05
0.00166421
1.99976e-07
3.39994e-05
0.00161112
5.10026e-05
0.00156028
6.75267e-05
0.00150015
8.33543e-05
0.00142666
9.82902e-05
0.0013394
0.000112158
0.0012385
0.000124797
0.00112477
0.000136062
0.000999279
0.000145825
0.000863263
0.000153975
0.000718108
0.00016042
0.000565354
0.000165088
0.000406614
0.000167924
0.000243593
7.79792e-05
0.000168898
1.66365e-05
0.00164737
2.0225e-07
3.36859e-05
0.00159407
5.05342e-05
0.00154343
6.69081e-05
0.00148377
8.2592e-05
0.00141098
9.73924e-05
0.0013246
0.000111135
0.00122476
0.00012366
0.00111225
0.000134823
0.000988116
0.000144498
0.000853588
0.000152575
0.000710032
0.000158962
0.000558968
0.000163588
0.000401989
0.0001664
0.000240783
7.70173e-05
0.000167366
1.64812e-05
0.00163069
2.04437e-07
3.33753e-05
0.00157718
5.00702e-05
0.00152674
6.62952e-05
0.00146755
8.18367e-05
0.00139544
9.65029e-05
0.00130993
0.000110121
0.00121114
0.000122533
0.00109984
0.000133595
0.000977053
0.000143183
0.000844
0.000151188
0.000702027
0.000157518
0.000552637
0.000162103
0.000397404
0.000164889
0.000237995
7.60568e-05
0.000165847
1.63273e-05
0.00161415
2.06522e-07
3.30675e-05
0.00156044
4.96105e-05
0.00151019
6.56879e-05
0.00145147
8.10883e-05
0.00138004
9.56216e-05
0.0012954
0.000109116
0.00119765
0.000121416
0.00108754
0.000132379
0.000966091
0.000141881
0.000834499
0.000149813
0.000694095
0.000156087
0.000546364
0.000160631
0.000392862
0.000163393
0.000235234
7.51114e-05
0.000164342
1.61749e-05
0.00159777
2.08494e-07
3.27626e-05
0.00154385
4.91549e-05
0.0014938
6.50862e-05
0.00143554
8.03467e-05
0.00136478
9.47483e-05
0.001281
0.000108121
0.00118427
0.000120309
0.00107535
0.000131174
0.000955226
0.00014059
0.000825082
0.000148451
0.000686233
0.000154669
0.000540146
0.000159172
0.000388357
0.00016191
0.000232494
7.41668e-05
0.000162851
1.60238e-05
0.00158154
2.10356e-07
3.24604e-05
0.00152741
4.87036e-05
0.00147756
6.449e-05
0.00141975
7.9612e-05
0.00134965
9.38831e-05
0.00126673
0.000107135
0.00117102
0.000119213
0.00106327
0.000129979
0.00094446
0.000139311
0.000815751
0.000147102
0.000678443
0.000153264
0.000533985
0.000157727
0.000383895
0.000160441
0.000229783
7.32375e-05
0.000161374
1.58742e-05
0.00156545
2.12111e-07
3.21611e-05
0.00151113
4.82564e-05
0.00146146
6.38993e-05
0.00140411
7.88841e-05
0.00133467
9.30258e-05
0.00125259
0.000106158
0.00115789
0.000118127
0.0010513
0.000128796
0.00093379
0.000138044
0.000806503
0.000145765
0.000670722
0.000151872
0.000527878
0.000156295
0.000379471
0.000158985
0.000227091
7.23088e-05
0.000159911
1.57259e-05
0.00154951
2.13777e-07
3.18645e-05
0.00149499
4.78134e-05
0.00144551
6.33141e-05
0.00138861
7.81629e-05
0.00131982
9.21765e-05
0.00123857
0.000105189
0.00114488
0.000117051
0.00103944
0.000127624
0.000923217
0.000136789
0.000797339
0.00014444
0.000663071
0.000150493
0.000521827
0.000154877
0.000375088
0.000157543
0.000224426
7.13952e-05
0.000158461
1.5579e-05
0.00153372
2.15372e-07
3.15706e-05
0.001479
4.73744e-05
0.00142971
6.27342e-05
0.00137325
7.74483e-05
0.00130511
9.13349e-05
0.00122469
0.00010423
0.00113198
0.000115985
0.00102769
0.000126463
0.000912739
0.000135545
0.000788256
0.000143128
0.000655487
0.000149126
0.000515827
0.000153472
0.000370742
0.000156115
0.000221782
7.04819e-05
0.000157025
1.54335e-05
0.00151807
2.16921e-07
3.12795e-05
0.00146315
4.69394e-05
0.00141405
6.21597e-05
0.00135803
7.67402e-05
0.00129052
9.05012e-05
0.00121093
0.00010328
0.0011192
0.000114928
0.00101604
0.000125312
0.000902356
0.000134313
0.000779256
0.000141828
0.000647972
0.000147773
0.000509884
0.00015208
0.000366436
0.000154699
0.000219164
6.95838e-05
0.000155601
1.52893e-05
0.00150256
2.1845e-07
3.0991e-05
0.00144745
4.65085e-05
0.00139853
6.15905e-05
0.00134295
7.60387e-05
0.00127608
8.96751e-05
0.00119729
0.000102338
0.00110654
0.000113882
0.00100449
0.000124172
0.000892065
0.000133092
0.000770336
0.00014054
0.000640524
0.000146432
0.000503992
0.0001507
0.000362167
0.000153297
0.000216566
6.86856e-05
0.000154191
1.51465e-05
0.00148719
2.19984e-07
3.07052e-05
0.00143189
4.60815e-05
0.00138316
6.10265e-05
0.001328
7.53437e-05
0.00126176
8.88566e-05
0.00118378
0.000101406
0.00109399
0.000112845
0.000993055
0.000123043
0.000881868
0.000131882
0.000761497
0.000139264
0.000633143
0.000145103
0.000498154
0.000149333
0.000357938
0.000151907
0.000213994
6.78027e-05
0.000152795
1.50049e-05
0.00147196
2.21546e-07
3.0422e-05
0.00141647
4.56584e-05
0.00136792
6.04676e-05
0.00131319
7.46551e-05
0.00124757
8.80457e-05
0.00117039
0.000100481
0.00108155
0.000111817
0.000981719
0.000121923
0.000871761
0.000130684
0.000752736
0.000137999
0.000625827
0.000143786
0.000492366
0.00014798
0.000353743
0.000150531
0.000211441
6.69193e-05
0.000151411
1.48647e-05
0.00145688
2.23153e-07
3.01414e-05
0.0014012
4.52393e-05
0.00135282
5.9914e-05
0.00129852
7.39728e-05
0.00123351
8.72422e-05
0.00115712
9.95656e-05
0.00106923
0.0001108
0.000970485
0.000120815
0.000861746
0.000129497
0.000744055
0.000136747
0.000618578
0.000142482
0.000486631
0.000146638
0.000349589
0.000149167
0.000208914
6.60511e-05
0.00015004
1.47257e-05
0.00144193
2.24814e-07
2.98634e-05
0.00138606
4.4824e-05
0.00133786
5.93654e-05
0.00128397
7.32968e-05
0.00121958
8.64462e-05
0.00114397
9.86583e-05
0.00105702
0.000109791
0.000959352
0.000119716
0.000851821
0.00012832
0.00073545
0.000135506
0.000611392
0.00014119
0.000480946
0.000145309
0.000345469
0.000147816
0.000206405
6.51822e-05
0.000148681
1.45881e-05
0.00142711
2.26535e-07
2.9588e-05
0.00137106
4.44125e-05
0.00132304
5.8822e-05
0.00126957
7.26271e-05
0.00120578
8.56576e-05
0.00113094
9.77594e-05
0.00104492
0.000108792
0.00094832
0.000118628
0.000841985
0.000127155
0.000726924
0.000134276
0.000604273
0.00013991
0.000475314
0.000143992
0.000341388
0.000146477
0.000203922
6.43285e-05
0.000147336
1.44517e-05
0.00141243
2.28311e-07
2.93151e-05
0.0013562
4.40048e-05
0.00130835
5.82835e-05
0.00125529
7.19635e-05
0.0011921
8.48762e-05
0.00111802
9.68689e-05
0.00103292
0.000107802
0.000937386
0.00011755
0.000832237
0.000126
0.000718473
0.000133058
0.000597215
0.000138641
0.000469729
0.000142688
0.00033734
0.000145151
0.000201457
6.34737e-05
0.000146002
1.43165e-05
0.00139788
2.30132e-07
2.90447e-05
0.00134147
4.36009e-05
0.00129379
5.775e-05
0.00124114
7.13061e-05
0.00117854
8.4102e-05
0.00110523
9.59866e-05
0.00102104
0.000106821
0.000926552
0.000116482
0.000822577
0.000124857
0.000710098
0.000131851
0.000590221
0.000137385
0.000464196
0.000141396
0.000333331
0.000143837
0.000199018
6.26341e-05
0.000144682
1.41826e-05
0.00138347
2.31983e-07
2.87768e-05
0.00132687
4.32007e-05
0.00127937
5.72214e-05
0.00122712
7.06547e-05
0.00116511
8.3335e-05
0.00109255
9.51124e-05
0.00100926
0.00010585
0.000915814
0.000115423
0.000813003
0.000123723
0.000701798