/*--------------------------------*- C++ -*----------------------------------*\
  =========                 |
  \\      /  F ield         | OpenFOAM: The Open Source CFD Toolbox
   \\    /   O peration     | Website:  https://openfoam.org
    \\  /    A nd           | Version:  6.0
     \\/     M anipulation  |
\*---------------------------------------------------------------------------*/
FoamFile
{
    version     2.0;
    format      ascii;
    class       surfaceScalarField;
    location    "3.2";
    object      phi;
}
// * * * * * * * * * * * * * * * * * * * * * * * * * * * * * * * * * * * * * //

dimensions      [0 3 -1 0 0 0 0];

internalField   nonuniform List<scalar> 
47678
(
2.98085e-05
0.00388594
2.99921e-09
5.98465e-05
0.00381842
8.91126e-05
0.00368576
0.000116963
0.00348996
0.000142854
0.00323444
0.000166314
0.00292366
0.000186917
0.00256309
0.000204298
0.00215891
0.000218147
0.00171816
0.000228223
0.0012482
0.000234336
0.000757888
0.000258491
0.000236924
2.96184e-05
0.00385631
5.71498e-09
5.94673e-05
0.00378857
8.85482e-05
0.00365666
0.000116221
0.00346227
0.000141948
0.0032087
0.000165257
0.00290035
0.000185727
0.00254261
0.000202997
0.00214163
0.000216759
0.00170439
0.000226764
0.00123819
0.000232945
0.000751701
0.000255796
0.000235636
2.94296e-05
0.00382687
7.84868e-09
5.90902e-05
0.00375891
8.79873e-05
0.00362776
0.000115485
0.00343478
0.000141048
0.00318314
0.000164208
0.00287718
0.000184548
0.00252227
0.000201706
0.00212448
0.000215381
0.00169071
0.000225316
0.00122826
0.000231477
0.000745541
0.000253154
0.000234126
2.92422e-05
0.00379762
9.65685e-09
5.87155e-05
0.00372943
8.74299e-05
0.00359904
0.000114754
0.00340745
0.000140154
0.00315773
0.000163167
0.00285417
0.000183375
0.00250205
0.000200424
0.00210742
0.000214012
0.00167712
0.00022388
0.00121839
0.000229988
0.00073943
0.000250581
0.00023256
2.90561e-05
0.00376855
1.09777e-08
5.83431e-05
0.00370015
8.68758e-05
0.0035705
0.000114026
0.0033803
0.000139265
0.00313249
0.000162131
0.0028313
0.00018221
0.00248197
0.000199149
0.00209049
0.000212651
0.00166362
0.000222456
0.00120859
0.000228506
0.000733381
0.000248087
0.000231007
2.88714e-05
0.00373967
1.1885e-08
5.79731e-05
0.00367104
8.63251e-05
0.00354215
0.000113303
0.00335331
0.000138382
0.0031074
0.000161101
0.00280858
0.000181052
0.00246202
0.000197882
0.00207365
0.000211299
0.0016502
0.000221044
0.00119884
0.000227042
0.000727381
0.000245652
0.000229477
2.86878e-05
0.00371097
1.25056e-08
5.76053e-05
0.00364213
8.57777e-05
0.00351397
0.000112585
0.00332651
0.000137504
0.00308248
0.000160078
0.002786
0.000179901
0.0024422
0.000196624
0.00205693
0.000209956
0.00163686
0.000219642
0.00118915
0.000225594
0.000721431
0.000243284
0.000227968
2.85055e-05
0.00368245
1.27967e-08
5.72398e-05
0.00361339
8.52337e-05
0.00348597
0.000111871
0.00329987
0.000136631
0.00305772
0.000159061
0.00276357
0.000178757
0.00242249
0.000195373
0.00204031
0.000208621
0.00162361
0.00021825
0.00117952
0.000224159
0.00071552
0.000240967
0.000226477
2.83243e-05
0.00365411
1.2869e-08
5.68765e-05
0.00358484
8.46931e-05
0.00345816
0.000111161
0.0032734
0.000135764
0.00303311
0.00015805
0.00274128
0.000177621
0.00240293
0.00019413
0.0020238
0.000207295
0.00161045
0.000216867
0.00116995
0.000222735
0.000709654
0.000238701
0.000225005
2.81443e-05
0.00362595
1.28112e-08
5.65156e-05
0.00355647
8.41558e-05
0.00343051
0.000110456
0.0032471
0.000134902
0.00300866
0.000157046
0.00271914
0.000176491
0.00238348
0.000192895
0.0020074
0.000205977
0.00159737
0.000215493
0.00116044
0.000221322
0.000703823
0.000236472
0.000223551
2.79655e-05
0.00359797
1.26359e-08
5.61569e-05
0.00352828
8.36218e-05
0.00340305
0.000109754
0.00322097
0.000134045
0.00298437
0.000156048
0.00269714
0.000175369
0.00236416
0.000191669
0.0019911
0.000204667
0.00158437
0.000214126
0.00115098
0.000219918
0.000698032
0.000234279
0.000222113
2.77878e-05
0.00357017
1.23999e-08
5.58004e-05
0.00350026
8.30911e-05
0.00337575
0.000109058
0.003195
0.000133193
0.00296023
0.000155056
0.00267527
0.000174254
0.00234495
0.00019045
0.0019749
0.000203365
0.00157145
0.000212768
0.00114157
0.000218524
0.000692276
0.000232114
0.000220689
2.76113e-05
0.00354255
1.21183e-08
5.54462e-05
0.00347243
8.25637e-05
0.00334863
0.000108365
0.0031692
0.000132346
0.00293625
0.00015407
0.00265355
0.000173145
0.00232588
0.000189238
0.00195881
0.000202072
0.00155862
0.000211419
0.00113223
0.000217139
0.000686556
0.000229978
0.000219275
2.74359e-05
0.0035151
1.17803e-08
5.50942e-05
0.00344477
8.20395e-05
0.00332169
0.000107676
0.00314356
0.000131505
0.00291242
0.00015309
0.00263196
0.000172044
0.00230692
0.000188035
0.00194282
0.000200788
0.00154586
0.000210078
0.00112294
0.000215763
0.00068087
0.000227867
0.000217873
2.72616e-05
0.00348783
1.13926e-08
5.47443e-05
0.00341729
8.15185e-05
0.00329491
0.000106992
0.00311809
0.000130669
0.00288875
0.000152116
0.00261052
0.00017095
0.00228809
0.000186839
0.00192693
0.000199512
0.00153319
0.000208745
0.0011137
0.000214395
0.00067522
0.000225782
0.00021648
2.70885e-05
0.00346073
1.09453e-08
5.43965e-05
0.00338998
8.10007e-05
0.00326831
0.000106312
0.00309277
0.000129838
0.00286522
0.000151149
0.0025892
0.000169863
0.00226937
0.000185651
0.00191114
0.000198244
0.0015206
0.000207421
0.00110452
0.000213036
0.000669603
0.000223717
0.000215098
2.69164e-05
0.0034338
1.04472e-08
5.40509e-05
0.00336284
8.0486e-05
0.00324187
0.000105636
0.00306762
0.000129012
0.00284184
0.000150187
0.00256803
0.000168782
0.00225078
0.000184471
0.00189545
0.000196984
0.00150809
0.000206105
0.0010954
0.000211686
0.000664022
0.000221678
0.000213726
2.67454e-05
0.00340704
9.92405e-09
5.37074e-05
0.00333588
7.99743e-05
0.0032156
0.000104964
0.00304263
0.000128192
0.00281861
0.000149232
0.00254699
0.000167709
0.0022323
0.000183298
0.00187986
0.000195732
0.00149565
0.000204797
0.00108634
0.000210344
0.000658473
0.000219656
0.000212363
2.65754e-05
0.00338046
9.42486e-09
5.33659e-05
0.00330909
7.94658e-05
0.0031895
0.000104297
0.0030178
0.000127376
0.00279553
0.000148283
0.00252608
0.000166642
0.00221394
0.000182133
0.00186437
0.000194489
0.0014833
0.000203498
0.00107733
0.000209011
0.000652961
0.000217658
0.00021101
2.64064e-05
0.00335404
9.02057e-09
5.30265e-05
0.00328247
7.89603e-05
0.00316357
0.000103633
0.00299313
0.000126566
0.0027726
0.000147339
0.00250531
0.000165583
0.0021957
0.000180976
0.00184897
0.000193253
0.00147102
0.000202207
0.00106837
0.000207686
0.00064748
0.000215674
0.000209666
2.62384e-05
0.00332779
8.79989e-09
5.26891e-05
0.00325602
7.84578e-05
0.0031378
0.000102974
0.00296861
0.00012576
0.00274981
0.000146402
0.00248467
0.00016453
0.00217757
0.000179826
0.00183368
0.000192026
0.00145882
0.000200924
0.00105948
0.00020637
0.000642035
0.000213714
0.000208331
2.60715e-05
0.00330171
8.85175e-09
5.23537e-05
0.00322973
7.79584e-05
0.00311219
0.000102318
0.00294425
0.00012496
0.00272717
0.000145471
0.00246415
0.000163483
0.00215956
0.000178683
0.00181848
0.000190806
0.00144669
0.00019965
0.00105063
0.000205062
0.000636621
0.000211765
0.000207006
2.59054e-05
0.0032758
9.25652e-09
5.20204e-05
0.00320362
7.74621e-05
0.00308675
0.000101667
0.00292005
0.000124165
0.00270467
0.000144545
0.00244377
0.000162444
0.00214166
0.000177547
0.00180338
0.000189595
0.00143465
0.000198383
0.00104184
0.000203762
0.000631243
0.00020984
0.00020569
2.57403e-05
0.00325005
1.00623e-08
5.1689e-05
0.00317767
7.69687e-05
0.00306147
0.000101019
0.002896
0.000123374
0.00268232
0.000143626
0.00242352
0.000161411
0.00212387
0.000176419
0.00178837
0.000188391
0.00142267
0.000197125
0.00103311
0.00020247
0.000625895
0.000207923
0.000204382
2.55761e-05
0.00322446
1.12842e-08
5.13596e-05
0.00315189
7.64784e-05
0.00303635
0.000100376
0.0028721
0.000122589
0.00266011
0.000142712
0.0024034
0.000160385
0.0021062
0.000175299
0.00177345
0.000187195
0.00141078
0.000195875
0.00102443
0.000201187
0.000620583
0.00020603
0.000203083
2.54129e-05
0.00319903
1.28928e-08
5.10322e-05
0.00312626
7.59911e-05
0.00301139
9.97366e-05
0.00284835
0.000121808
0.00263803
0.000141804
0.0023834
0.000159365
0.00208864
0.000174185
0.00175863
0.000186007
0.00139895
0.000194632
0.0010158
0.000199912
0.000615301
0.000204144
0.000201793
2.52505e-05
0.00317377
1.48284e-08
5.07067e-05
0.00310081
7.55067e-05
0.00298659
9.91013e-05
0.00282476
0.000121033
0.0026161
0.000140902
0.00236354
0.000158352
0.00207119
0.000173079
0.00174391
0.000184826
0.00138721
0.000193398
0.00100723
0.000198645
0.000610055
0.000202281
0.000200511
2.5089e-05
0.00314866
1.70069e-08
5.03831e-05
0.00307551
7.50254e-05
0.00296195
9.847e-05
0.00280131
0.000120263
0.00259431
0.000140006
0.00234379
0.000157346
0.00205385
0.000171979
0.00172927
0.000183653
0.00137553
0.000192172
0.000998711
0.000197386
0.000604838
0.000200425
0.000199237
2.49284e-05
0.00312371
1.93424e-08
5.00616e-05
0.00305038
7.4547e-05
0.00293746
9.78426e-05
0.00277802
0.000119497
0.00257265
0.000139115
0.00232418
0.000156346
0.00203662
0.000170887
0.00171473
0.000182488
0.00136393
0.000190953
0.000990246
0.000196135
0.000599657
0.00019859
0.000197972
2.47687e-05
0.00309892
2.17563e-08
4.97419e-05
0.00302541
7.40716e-05
0.00291313
9.72192e-05
0.00275487
0.000118736
0.00255114
0.00013823
0.00230468
0.000155352
0.00201949
0.000169802
0.00170028
0.00018133
0.0013524
0.000189742
0.000981831
0.000194892
0.000594504
0.000196763
0.000196715
2.46099e-05
0.00307429
2.41939e-08
4.94242e-05
0.00300059
7.35991e-05
0.00288896
9.65997e-05
0.00273187
0.00011798
0.00252976
0.000137351
0.00228531
0.000154365
0.00200248
0.000168724
0.00168592
0.00018018
0.00134095
0.000188539
0.000973472
0.000193657
0.000589387
0.000194955
0.000195466
2.44519e-05
0.00304981
2.66215e-08
4.91084e-05
0.00297594
7.31296e-05
0.00286493
9.59841e-05
0.00270902
0.000117229
0.00250851
0.000136477
0.00226606
0.000153384
0.00198557
0.000167653
0.00167165
0.000179037
0.00132956
0.000187344
0.000965162
0.00019243
0.000584299
0.000193154
0.000194226
2.42948e-05
0.00302548
2.90301e-08
4.87945e-05
0.00295144
7.2663e-05
0.00284107
9.53724e-05
0.00268631
0.000116483
0.0024874
0.000135609
0.00224694
0.000152409
0.00196877
0.000166588
0.00165747
0.000177901
0.00131825
0.000186156
0.000956908
0.00019121
0.000579246
0.000191372
0.000192993
2.41386e-05
0.00300131
3.14218e-08
4.84825e-05
0.00292709
7.21993e-05
0.00281735
9.47645e-05
0.00266374
0.000115741
0.00246642
0.000134747
0.00222793
0.000151441
0.00195208
0.000165531
0.00164338
0.000176773
0.00130701
0.000184976
0.000948701
0.000189999
0.000574221
0.000189597
0.000191769
2.39833e-05
0.00297729
3.38056e-08
4.81724e-05
0.0029029
7.17384e-05
0.00279378
9.41605e-05
0.00264132
0.000115004
0.00244558
0.00013389
0.00220905
0.000150478
0.00193549
0.00016448
0.00162938
0.000175651
0.00129584
0.000183804
0.000940549
0.000188795
0.000569231
0.00018784
0.000190552
2.38289e-05
0.00295343
3.61834e-08
4.78642e-05
0.00287887
7.12805e-05
0.00277036
9.35603e-05
0.00261904
0.000114272
0.00242487
0.000133038
0.00219028
0.000149522
0.001919
0.000163436
0.00161546
0.000174537
0.00128473
0.000182639
0.000932445
0.000187599
0.000564269
0.00018609
0.000189344
2.36754e-05
0.00292972
3.85495e-08
4.75578e-05
0.00285499
7.08254e-05
0.0027471
9.29638e-05
0.00259691
0.000113545
0.00240429
0.000132192
0.00217163
0.000148573
0.00190263
0.000162399
0.00160164
0.000173431
0.0012737
0.000181481
0.000924395
0.00018641
0.000559341
0.000184359
0.000188143
2.35227e-05
0.00290615
4.08836e-08
4.72534e-05
0.00283125
7.03731e-05
0.00272398
9.23712e-05
0.00257491
0.000112822
0.00238384
0.000131352
0.0021531
0.000147629
0.00188635
0.000161368
0.0015879
0.000172331
0.00126274
0.000180331
0.000916392
0.000185229
0.000554441
0.000182634
0.000186949
2.3371e-05
0.00288274
4.31578e-08
4.69508e-05
0.00280768
6.99236e-05
0.00270101
9.17822e-05
0.00255305
0.000112103
0.00236352
0.000130516
0.00213469
0.000146691
0.00187017
0.000160344
0.00157424
0.000171238
0.00125185
0.000179188
0.000908443
0.000184056
0.000549575
0.000180927
0.000185764
2.32201e-05
0.00285947
4.53366e-08
4.66501e-05
0.00278424
6.9477e-05
0.00267818
9.11971e-05
0.00253133
0.00011139
0.00234332
0.000129686
0.00211639
0.000145759
0.0018541
0.000159327
0.00156067
0.000170152
0.00124102
0.000178053
0.000900539
0.00018289
0.000544735
0.000179226
0.000184586
2.30702e-05
0.00283635
4.73873e-08
4.63512e-05
0.00276097
6.90332e-05
0.0026555
9.06156e-05
0.00250975
0.000110681
0.00232326
0.000128862
0.00209821
0.000144833
0.00183813
0.000158316
0.00154719
0.000169074
0.00123026
0.000176925
0.000892689
0.000181731
0.00053993
0.000177546
0.000183415
2.29212e-05
0.00281338
4.92822e-08
4.60543e-05
0.00273783
6.85922e-05
0.00263296
9.00378e-05
0.0024883
0.000109976
0.00230332
0.000128042
0.00208015
0.000143914
0.00182225
0.000157311
0.00153379
0.000168002
0.00121957
0.000175804
0.000884884
0.00018058
0.000535151
0.000175868
0.000182253
2.27731e-05
0.00279056
5.1006e-08
4.57591e-05
0.00271485
6.8154e-05
0.00261056
8.94637e-05
0.002467
0.000109276
0.00228351
0.000127228
0.0020622
0.000143
0.00180649
0.000156313
0.00152048
0.000166937
0.00120895
0.00017469
0.000877132
0.000179436
0.000530406
0.000174211
0.000181097
2.26259e-05
0.00276788
5.2554e-08
4.54659e-05
0.00269201
6.77186e-05
0.00258831
8.88933e-05
0.00244582
0.00010858
0.00226382
0.000126419
0.00204436
0.000142092
0.00179081
0.000155321
0.00150725
0.000165878
0.00119839
0.000173583
0.000869425
0.0001783
0.000525686
0.000172556
0.00017995
2.24797e-05
0.00274535
5.39348e-08
4.51745e-05
0.00266931
6.7286e-05
0.0025662
8.83265e-05
0.00242478
0.000107889
0.00224426
0.000125616
0.00202663
0.000141189
0.00177524
0.000154336
0.00149411
0.000164827
0.0011879
0.000172483
0.00086177
0.000177171
0.000521
0.000170923
0.000178809
2.23344e-05
0.00272296
5.51635e-08
4.4885e-05
0.00264676
6.68561e-05
0.00254423
8.77633e-05
0.00240387
0.000107202
0.00222482
0.000124817
0.00200901
0.000140293
0.00175976
0.000153357
0.00148104
0.000163782
0.00117747
0.00017139
0.000854159
0.000176049
0.000516339
0.000169289
0.000177676
2.219e-05
0.00270071
5.626e-08
4.45973e-05
0.00262435
6.64289e-05
0.0025224
8.72038e-05
0.0023831
0.00010652
0.00220551
0.000124024
0.00199151
0.000139402
0.00174439
0.000152384
0.00146806
0.000162744
0.00116712
0.000170304
0.0008466
0.000174934
0.000511713
0.000167679
0.000176551
2.20466e-05
0.00267861
5.72417e-08
4.43115e-05
0.00260209
6.60046e-05
0.0025007
8.66479e-05
0.00236246
0.000105842
0.00218632
0.000123235
0.00197412
0.000138517
0.0017291
0.000151417
0.00145515
0.000161712
0.00115682
0.000169225
0.000839084
0.000173826
0.00050711
0.000166065
0.000175432
2.19042e-05
0.00265665
5.81221e-08
4.40275e-05
0.00257997
6.55829e-05
0.00247915
8.60955e-05
0.00234195
0.000105168
0.00216725
0.000122452
0.00195684
0.000137637
0.00171392
0.000150457
0.00144234
0.000160687
0.00114659
0.000168153
0.00083162
0.000172725
0.000502542
0.000164475
0.000174321
2.17627e-05
0.00263482
5.8907e-08
4.37453e-05
0.00255798
6.5164e-05
0.00245773
8.55467e-05
0.00232156
0.000104499
0.00214829
0.000121674
0.00193966
0.000136764
0.00169883
0.000149503
0.0014296
0.000159669
0.00113642
0.000167088
0.000824198
0.000171631
0.000497996
0.000162881
0.000173217
2.16221e-05
0.00261314
5.95969e-08
4.3465e-05
0.00253614
6.47478e-05
0.00243645
8.50014e-05
0.00230131
0.000103834
0.00212946
0.000120901
0.0019226
0.000135895
0.00168384
0.000148554
0.00141694
0.000158657
0.00112632
0.00016603
0.000816827
0.000170545
0.000493486
0.000161311
0.00017212
2.14825e-05
0.0025916
6.01885e-08
4.31865e-05
0.00251444
6.43343e-05
0.0024153
8.44597e-05
0.00228119
0.000103173
0.00211075
0.000120132
0.00190564
0.000135033
0.00166893
0.000147612
0.00140436
0.000157652
0.00111628
0.000164978
0.000809498
0.000169465
0.000488996
0.000159736
0.00017103
2.13438e-05
0.0025702
6.06808e-08
4.29099e-05
0.00249287
6.39234e-05
0.00239429
8.39214e-05
0.00226119
0.000102517
0.00209216
0.000119369
0.00188879
0.000134176
0.00165413
0.000146676
0.00139186
0.000156653
0.00110631
0.000163933
0.00080222
0.000168391
0.000484543
0.000158184
0.000169947
2.12061e-05
0.00254893
6.10787e-08
4.2635e-05
0.00247144
6.35153e-05
0.00237341
8.33867e-05
0.00224132
0.000101864
0.00207368
0.00011861
0.00187204
0.000133324
0.00163941
0.000145746
0.00137943
0.00015566
0.00109639
0.000162894
0.000794982
0.000167325
0.000480109
0.000156629
0.00016887
2.10694e-05
0.0025278
6.13979e-08
4.2362e-05
0.00245015
6.31098e-05
0.00235266
8.28553e-05
0.00222158
0.000101216
0.00205532
0.000117857
0.0018554
0.000132478
0.0016248
0.000144822
0.00136709
0.000154673
0.00108654
0.000161863
0.000787796
0.000166266
0.000475712
0.000155095
0.000167801
2.09336e-05
0.0025068
6.1666e-08
4.20908e-05
0.00242899
6.27069e-05
0.00233204
8.23275e-05
0.00220196
0.000100572
0.00203707
0.000117108
0.00183887
0.000131637
0.00161027
0.000143903
0.00135482
0.000153693
0.00107675
0.000160837
0.000780649
0.000165213
0.000471333
0.00015356
0.000166738
2.07987e-05
0.00248594
6.19226e-08
4.18213e-05
0.00240797
6.23067e-05
0.00231156
8.1803e-05
0.00218246
9.99327e-05
0.00201895
0.000116364
0.00182244
0.000130801
0.00159583
0.000142991
0.00134264
0.000152719
0.00106702
0.000159819
0.000773553
0.000164167
0.00046699
0.000152047
0.000165682
2.06647e-05
0.00246522
6.22145e-08
4.15537e-05
0.00238708
6.19091e-05
0.0022912
8.12819e-05
0.00216309
9.9297e-05
0.00200093
0.000115625
0.00180611
0.000129971
0.00158148
0.000142084
0.00133052
0.000151752
0.00105735
0.000158807
0.000766495
0.000163127
0.000462666
0.000150533
0.000164633
2.05317e-05
0.00244462
6.25908e-08
4.12878e-05
0.00236633
6.1514e-05
0.00227098
8.07642e-05
0.00214384
9.86655e-05
0.00198303
0.00011489
0.00178989
0.000129146
0.00156723
0.000141183
0.00131849
0.00015079
0.00104775
0.000157801
0.000759488
0.000162095
0.000458378
0.000149042
0.000163591
2.03996e-05
0.00242416
6.30955e-08
4.10236e-05
0.0023457
6.11216e-05
0.00225088
8.02499e-05
0.00212471
9.8038e-05
0.00196524
0.00011416
0.00177376
0.000128327
0.00155306
0.000140288
0.00130652
0.000149835
0.0010382
0.000156802
0.000752518
0.000161068
0.000454107
0.000147547
0.000162555
2.02684e-05
0.00240383
6.3762e-08
4.07612e-05
0.00232521
6.07316e-05
0.00223091
7.97388e-05
0.00210571
9.74145e-05
0.00194757
0.000113435
0.00175775
0.000127512
0.00153899
0.000139398
0.00129464
0.000148885
0.00102872
0.000155809
0.000745599
0.000160049
0.000449872
0.000146078
0.000161526
2.01381e-05
0.00238363
6.46079e-08
4.05006e-05
0.00230485
6.03443e-05
0.00221107
7.92311e-05
0.00208682
9.6795e-05
0.00193001
0.000112715
0.00174183
0.000126703
0.001525
0.000138515
0.00128283
0.000147942
0.00101929
0.000154822
0.000738716
0.000159036
0.000445655
0.000144604
0.000160504
2.00087e-05
0.00236355
6.56343e-08
4.02417e-05
0.00228462
5.99594e-05
0.00219135
7.87266e-05
0.00206806
9.61795e-05
0.00191256
0.000111999
0.00172601
0.000125899
0.0015111
0.000137636
0.00127109
0.000147005
0.00100993
0.000153842
0.000731884
0.000158029
0.000441473
0.000143156
0.000159488
1.98802e-05
0.00234361
6.68262e-08
3.99844e-05
0.00226451
5.9577e-05
0.00217176
7.82254e-05
0.00204941
9.55679e-05
0.00189521
0.000111287
0.00171029
0.0001251
0.00149729
0.000136764
0.00125943
0.000146074
0.00100062
0.000152868
0.000725087
0.000157029
0.000437309
0.0001417
0.000158479
1.97525e-05
0.00232379
6.81568e-08
3.97289e-05
0.00224454
5.91972e-05
0.00215229
7.77273e-05
0.00203088
9.49603e-05
0.00187799
0.00011058
0.00169467
0.000124307
0.00148356
0.000135897
0.00124784
0.000145148
0.00099137
0.0001519
0.000718341
0.000156036
0.000433181
0.000140272
0.000157476
1.96257e-05
0.00230409
6.95924e-08
3.94751e-05
0.00222469
5.88197e-05
0.00213295
7.72325e-05
0.00201247
9.43565e-05
0.00186086
0.000109878
0.00167915
0.000123518
0.00146992
0.000135035
0.00123632
0.000144229
0.000982175
0.000150939
0.000711629
0.000155048
0.000429068
0.00013883
0.00015648
1.94997e-05
0.00228452
7.10985e-08
3.92229e-05
0.00220497
5.84447e-05
0.00211373
7.67409e-05
0.00199418
9.37566e-05
0.00184385
0.00010918
0.00166373
0.000122734
0.00145637
0.000134179
0.00122488
0.000143315
0.000973045
0.000149983
0.000704967
0.000154067
0.000424991
0.000137417
0.00015549
1.93746e-05
0.00226507
7.26434e-08
3.89723e-05
0.00218537
5.80722e-05
0.00209463
7.62524e-05
0.001976
9.31605e-05
0.00182694
0.000108487
0.00164841
0.000121956
0.0014429
0.000133329
0.00121351
0.000142408
0.000963965
0.000149034
0.000698338
0.000153093
0.000420929
0.00013599
0.000154507
1.92503e-05
0.00224575
7.42026e-08
3.87234e-05
0.0021659
5.7702e-05
0.00207565
7.5767e-05
0.00195794
9.25683e-05
0.00181014
0.000107798
0.00163318
0.000121182
0.00142952
0.000132484
0.00120221
0.000141506
0.000954949
0.000148091
0.000691759
0.000152124
0.000416904
0.000134592
0.00015353
1.91268e-05
0.00222655
7.57589e-08
3.84762e-05
0.00214655
5.73342e-05
0.00205679
7.52848e-05
0.00193998
9.19798e-05
0.00179345
0.000107113
0.00161805
0.000120413
0.00141622
0.000131644
0.00119098
0.00014061
0.000945983
0.000147153
0.000685213
0.000151162
0.000412891
0.000133178
0.000152559
1.90041e-05
0.00220747
7.73019e-08
3.82305e-05
0.00212733
5.69688e-05
0.00203806
7.48056e-05
0.00192215
9.13951e-05
0.00177686
0.000106433
0.00160301
0.000119649
0.00140301
0.00013081
0.00117982
0.00013972
0.00093708
0.000146222
0.000678717
0.000150206
0.000408916
0.000131792
0.000151595
1.88822e-05
0.00218851
7.88253e-08
3.79864e-05
0.00210822
5.66057e-05
0.00201944
7.43295e-05
0.00190443
9.08141e-05
0.00176038
0.000105758
0.00158807
0.00011889
0.00138988
0.000129981
0.00116873
0.000138835
0.000928226
0.000145297
0.000672251
0.000149256
0.000404951
0.000130392
0.000150636
1.87611e-05
0.00216967
8.03249e-08
3.77438e-05
0.00208924
5.6245e-05
0.00200094
7.38565e-05
0.00188682
9.02368e-05
0.001744
0.000105086
0.00157322
0.000118136
0.00137684
0.000129158
0.00115772
0.000137956
0.000919434
0.000144378
0.000665836
0.000148313
0.000401024
0.00012902
0.000149684
1.86407e-05
0.00215094
8.17956e-08
3.75029e-05
0.00207038
5.58865e-05
0.00198255
7.33864e-05
0.00186932
8.96633e-05
0.00172772
0.000104419
0.00155847
0.000117387
0.00136387
0.000128339
0.00114677
0.000137083
0.00091069
0.000143465
0.00065945
0.000147375
0.000397107
0.000127635
0.000148738
1.85211e-05
0.00213234
8.32303e-08
3.72634e-05
0.00205164
5.55304e-05
0.00196429
7.29194e-05
0.00185193
8.90933e-05
0.00171155
0.000103756
0.00154381
0.000116643
0.00135099
0.000127526
0.00113589
0.000136215
0.000902007
0.000142557
0.000653114
0.000146443
0.000393227
0.00012628
0.000147798
1.84023e-05
0.00211385
8.46191e-08
3.70255e-05
0.00203301
5.51765e-05
0.00194614
7.24553e-05
0.00183466
8.85271e-05
0.00169548
0.000103097
0.00152924
0.000115903
0.00133818
0.000126719
0.00112507
0.000135353
0.000893372
0.000141656
0.000646808
0.000145518
0.000389358
0.00012491
0.000146864
1.82842e-05
0.00209548
8.59505e-08
3.67891e-05
0.00201451
5.48248e-05
0.00192811
7.19942e-05
0.00181749
8.79644e-05
0.00167952
0.000102443
0.00151477
0.000115168
0.00132546
0.000125916
0.00111433
0.000134497
0.000884798
0.00014076
0.00064055
0.000144598
0.000385526
0.000123572
0.000145936
1.81669e-05
0.00207723
8.72128e-08
3.65542e-05
0.00199612
5.44754e-05
0.00191018
7.1536e-05
0.00180043
8.74053e-05
0.00166365
0.000101793
0.00150038
0.000114438
0.00131282
0.000125119
0.00110365
0.000133646
0.00087627
0.000139871
0.000634321
0.000143684
0.000381704
0.000122218
0.000145014
1.80502e-05
0.00205909
8.83961e-08
3.63208e-05
0.00197785
5.41283e-05
0.00189238
7.10808e-05
0.00178348
8.68499e-05
0.00164788
0.000101146
0.00148609
0.000113713
0.00130026
0.000124326
0.00109305
0.0001328
0.000867803
0.000138986
0.000628141
0.000142776
0.000377918
0.000120897
0.000144098
1.79343e-05
0.00204107
8.94936e-08
3.60888e-05
0.0019597
5.37833e-05
0.00187468
7.06285e-05
0.00176664
8.62979e-05
0.00163222
0.000100505
0.00147189
0.000112992
0.00128777
0.000123539
0.0010825
0.00013196
0.00085938
0.000138108
0.000621989
0.000141875
0.000374142
0.000119559
0.000143188
1.78191e-05
0.00202316
9.05029e-08
3.58584e-05
0.00194166
5.34405e-05
0.00185711
7.0179e-05
0.0017499
8.57495e-05
0.00161665
9.98667e-05
0.00145777
0.000112276
0.00127537
0.000122757
0.00107202
0.000131126
0.000851018
0.000137236
0.000615884
0.000140979
0.000370404
0.000118255
0.000142283
1.77046e-05
0.00200536
9.14255e-08
3.56293e-05
0.00192374
5.30999e-05
0.00183963
6.97325e-05
0.00173327
8.52047e-05
0.00160118
9.9233e-05
0.00144375
0.000111564
0.00126304
0.00012198
0.00106161
0.000130297
0.0008427
0.000136369
0.000609808
0.000140088
0.000366673
0.000116933
0.000141385
1.75909e-05
0.00198768
9.22663e-08
3.54017e-05
0.00190593
5.27614e-05
0.00182228
6.92887e-05
0.00171675
8.46633e-05
0.00158581
9.86034e-05
0.00142981
0.000110857
0.00125079
0.000121208
0.00105127
0.000129473
0.000834442
0.000135507
0.000603779
0.000139204
0.00036298
0.000115644
0.000140493
1.74778e-05
0.00197011
9.30316e-08
3.51755e-05
0.00188823
5.24252e-05
0.00180503
6.88478e-05
0.00170033
8.41254e-05
0.00157053
9.79778e-05
0.00141596
0.000110155
0.00123862
0.000120441
0.00104098
0.000128654
0.000826227
0.000134651
0.000597777
0.000138325
0.000359295
0.000114337
0.000139606
1.73654e-05
0.00195265
9.37279e-08
3.49508e-05
0.00187065
5.2091e-05
0.00178789
6.84098e-05
0.00168401
8.35909e-05
0.00155536
9.73563e-05
0.0014022
0.000109457
0.00122652
0.000119679
0.00103076
0.000127841
0.000818071
0.000133801
0.000591822
0.000137453
0.000355648
0.000113065
0.000138726
1.72537e-05
0.0019353
9.43601e-08
3.47274e-05
0.00185317
5.17589e-05
0.00177086
6.79745e-05
0.0016678
8.30599e-05
0.00154027
9.67388e-05
0.00138853
0.000108764
0.0012145
0.000118922
0.00102061
0.000127034
0.000809958
0.000132957
0.000585893
0.000136585
0.000352007
0.000111772
0.000137851
1.71427e-05
0.00191807
9.49315e-08
3.45055e-05
0.00183581
5.1429e-05
0.00175394
6.7542e-05
0.00165169
8.25323e-05
0.00152529
9.61253e-05
0.00137494
0.000108075
0.00120256
0.00011817
0.00101052
0.000126231
0.000801902
0.000132118
0.000580012
0.000135724
0.000348404
0.000110516
0.000136982
1.70323e-05
0.00190094
9.54438e-08
3.42849e-05
0.00181856
5.11012e-05
0.00173712
6.71123e-05
0.00163568
8.20081e-05
0.0015104
9.55157e-05
0.00136144
0.000107391
0.00119068
0.000117423
0.00100049
0.000125434
0.000793889
0.000131284
0.000574156
0.000134868
0.000344808
0.000109238
0.000136118
1.69227e-05
0.00188392
9.58989e-08
3.40657e-05
0.00180142
5.07754e-05
0.00172042
6.66854e-05
0.00161977
8.14873e-05
0.0014956
9.49101e-05
0.00134802
0.000106711
0.00117889
0.00011668
0.000990523
0.000124642
0.000785934
0.000130456
0.000568346
0.000134018
0.000341249
0.000107997
0.00013526
1.68137e-05
0.00186701
9.63e-08
3.38479e-05
0.00178439
5.04517e-05
0.00170381
6.62611e-05
0.00160397
8.09698e-05
0.00148089
9.43084e-05
0.00133468
0.000106035
0.00116716
0.000115943
0.000980615
0.000123855
0.000778019
0.000129633
0.000562562
0.000133173
0.000337696
0.000106733
0.000134408
1.67054e-05
0.00185021
9.66543e-08
3.36315e-05
0.00176746
5.01301e-05
0.00168732
6.58397e-05
0.00158826
8.04557e-05
0.00146628
9.37106e-05
0.00132143
0.000105364
0.00115552
0.00011521
0.000970775
0.000123073
0.000770162
0.000128815
0.000556824
0.000132334
0.00033418
0.000105507
0.000133562
1.65978e-05
0.00183352
9.69739e-08
3.34164e-05
0.00175064
4.98105e-05
0.00167093
6.54209e-05
0.00157265
7.99449e-05
0.00145176
9.31167e-05
0.00130826
0.000104697
0.00114394
0.000114482
0.000960991
0.000122296
0.000762345
0.000128003
0.00055111
0.000131501
0.00033067
0.000104256
0.000132721
1.64908e-05
0.00181693
9.72768e-08
3.32026e-05
0.00173394
4.9493e-05
0.00165464
6.50048e-05
0.00155715
7.94374e-05
0.00143733
9.25267e-05
0.00129518
0.000104035
0.00113244
0.000113759
0.000951273
0.000121524
0.000754585
0.000127197
0.000545442
0.000130673
0.000327197
0.000103046
0.000131886
1.63845e-05
0.00180045
9.75858e-08
3.29903e-05
0.00171733
4.91775e-05
0.00163845
6.45914e-05
0.00154173
7.89332e-05
0.00142299
9.19405e-05
0.00128218
0.000103377
0.001121
0.00011304
0.000941609
0.000120758
0.000746864
0.000126395
0.000539799
0.00012985
0.00032373
0.00010181
0.000131056
1.62789e-05
0.00178407
9.79276e-08
3.27792e-05
0.00170083
4.8864e-05
0.00162237
6.41807e-05
0.00152642
7.84323e-05
0.00140875
9.13582e-05
0.00126926
0.000102723
0.00110964
0.000112327
0.000932011
0.000119996
0.000739199
0.000125599
0.0005342
0.000129033
0.000320299
0.000100614
0.000130232
1.61739e-05
0.0017678
9.83297e-08
3.25695e-05
0.00168444
4.85525e-05
0.00160639
6.37726e-05
0.0015112
7.79347e-05
0.00139459
9.07796e-05
0.00125641
0.000102074
0.00109835
0.000111618
0.000922467
0.00011924
0.000731574
0.000124808
0.000528625
0.000128221
0.000316873
9.93914e-05
0.000129413
1.60696e-05
0.00175163
9.88174e-08
3.23611e-05
0.00166815
4.82431e-05
0.00159051
6.33672e-05
0.00149608
7.74402e-05
0.00138052
9.02048e-05
0.00124365
0.000101429
0.00108713
0.000110913
0.000912988
0.000118488
0.000724003
0.000124023
0.000523096
0.000127414
0.000313484
9.82102e-05
0.000128599
1.59659e-05
0.00173557
9.94114e-08
3.21541e-05
0.00165196
4.79356e-05
0.00157473
6.29644e-05
0.00148106
7.6949e-05
0.00136654
8.96338e-05
0.00123097
0.000100788
0.00107598
0.000110213
0.000903562
0.000117742
0.000716471
0.000123242
0.000517589
0.000126613
0.0003101
9.70019e-05
0.000127791
1.5863e-05
0.0017196
1.00126e-07
3.19484e-05
0.00163588
4.76301e-05
0.00155905
6.25642e-05
0.00146613
7.64611e-05
0.00135264
8.90665e-05
0.00121837
0.000100151
0.0010649
0.000109518
0.0008942
0.000117
0.000708993
0.000122467
0.000512127
0.000125817
0.000306752
9.58353e-05
0.000126989
1.57606e-05
0.00170374
1.00966e-07
3.1744e-05
0.00161989
4.73266e-05
0.00154347
6.21666e-05
0.00145129
7.59763e-05
0.00133884
8.8503e-05
0.00120585
9.95183e-05
0.00105388
0.000108828
0.00088489
0.000116263
0.000701554
0.000121697
0.000506687
0.000125027
0.000303408
9.46409e-05
0.000126191
1.56589e-05
0.00168798
1.01929e-07
3.1541e-05
0.00160402
4.70251e-05
0.00152799
6.17716e-05
0.00143655
7.54947e-05
0.00132512
8.79432e-05
0.0011934
9.88899e-05
0.00104294
0.000108142
0.000875643
0.000115532
0.000694168
0.000120932
0.000501292
0.000124242
0.000300101
9.34888e-05
0.000125399
1.55579e-05
0.00167232
1.03007e-07
3.13392e-05
0.00158823
4.67255e-05
0.00151261
6.13792e-05
0.0014219
7.50162e-05
0.00131148
8.7387e-05
0.00118103
9.82657e-05
0.00103206