/*--------------------------------*- C++ -*----------------------------------*\
  =========                 |
  \\      /  F ield         | OpenFOAM: The Open Source CFD Toolbox
   \\    /   O peration     | Website:  https://openfoam.org
    \\  /    A nd           | Version:  6.0
     \\/     M anipulation  |
\*---------------------------------------------------------------------------*/
FoamFile
{
    version     2.0;
    format      ascii;
    class       volVectorField;
    location    "3.2";
    object      U;
}
// * * * * * * * * * * * * * * * * * * * * * * * * * * * * * * * * * * * * * //

dimensions      [0 1 -1 0 0 0 0];

internalField   nonuniform List<vector> 
24000
(
(0.999994 4.02446e-06 -7.96307e-17)
(0.999945 -1.79886e-05 1.08442e-16)
(0.999859 -6.69954e-05 -1.90681e-16)
(0.999757 -0.000150522 2.10415e-16)
(0.999672 -0.000261425 -1.03811e-15)
(0.999626 -0.000380417 -6.15393e-16)
(0.999632 -0.000480993 6.30015e-16)
(0.999686 -0.000542476 -1.39585e-15)
(0.999779 -0.000535268 4.38173e-16)
(0.999884 -0.000465526 -3.22198e-16)
(0.999987 -0.00018128 -3.11766e-16)
(1.00101 0.000987332 -4.62863e-16)
(0.999987 7.97138e-06 1.16735e-16)
(0.999897 -4.41872e-05 -1.60466e-16)
(0.999741 -0.000143484 3.56311e-16)
(0.99956 -0.000302991 -8.89807e-17)
(0.999414 -0.00051056 4.62042e-16)
(0.99934 -0.000726617 6.22377e-16)
(0.999364 -0.000903201 -3.50488e-16)
(0.999473 -0.00100351 1.48291e-15)
(0.999651 -0.000974912 -3.11141e-16)
(0.999855 -0.000836089 1.59652e-17)
(0.999986 -0.000330848 8.14424e-17)
(1.00191 0.00142952 1.5408e-16)
(0.999985 9.3089e-06 -8.8914e-17)
(0.999904 -6.13444e-05 2.16217e-16)
(0.999765 -0.000172271 -1.23496e-16)
(0.999604 -0.000336202 4.5163e-16)
(0.999475 -0.000543557 2.51649e-16)
(0.999416 -0.000753294 2.3148e-16)
(0.999448 -0.000918374 5.18434e-16)
(0.999562 -0.00100786 -6.59232e-16)
(0.999738 -0.000971074 -3.67901e-16)
(0.999951 -0.000841149 -1.29885e-16)
(1 -0.000381822 -2.90574e-17)
(1.00201 0.000953318 4.8751e-16)
(0.999983 8.33783e-06 -3.79659e-17)
(0.999916 -7.95434e-05 -2.04572e-16)
(0.999801 -0.000198344 -3.15914e-16)
(0.999669 -0.000359952 -2.239e-16)
(0.999565 -0.000558476 -1.3114e-16)
(0.999518 -0.000755533 -9.06041e-16)
(0.999553 -0.000908326 -1.43535e-15)
(0.999661 -0.000993043 1.63996e-16)
(0.999824 -0.00096249 4.69598e-17)
(1.00004 -0.000851724 6.45552e-16)
(1.00003 -0.000462625 -4.12119e-16)
(1.00187 0.000567069 -5.70378e-16)
(0.999978 5.96294e-06 6.76365e-17)
(0.999915 -0.000100416 3.30254e-17)
(0.99981 -0.000233589 1.60098e-16)
(0.999691 -0.000404593 -7.56835e-17)
(0.999599 -0.000608969 2.07964e-16)
(0.99956 -0.000808593 1.87204e-16)
(0.999599 -0.000962713 1.45205e-15)
(0.99971 -0.00104956 -9.48739e-17)
(0.999876 -0.00102184 -2.7988e-16)
(1.00012 -0.000906223 7.60671e-17)
(1.00009 -0.000534646 2.84414e-16)
(1.00173 0.000431035 -1.51056e-16)
(0.999973 2.80489e-06 3.91403e-18)
(0.99991 -0.000121753 -1.90026e-17)
(0.99981 -0.000271145 -2.13685e-17)
(0.999701 -0.000454389 -3.86919e-18)
(0.999622 -0.000666183 -8.63065e-16)
(0.999594 -0.000867037 1.05618e-15)
(0.999643 -0.00101798 2.93086e-17)
(0.999765 -0.00109785 1.46246e-16)
(0.999939 -0.00105965 6.91747e-16)
(1.0002 -0.000923324 -3.40496e-16)
(1.00019 -0.000546818 5.16114e-16)
(1.00165 0.00040131 3.46063e-16)
(0.999966 -9.09386e-07 -3.54205e-18)
(0.999906 -0.0001426 2.04922e-16)
(0.999812 -0.000307344 -2.07838e-16)
(0.999716 -0.000501104 -1.01346e-16)
(0.999652 -0.000716691 4.43531e-16)
(0.999641 -0.000913225 -2.18182e-16)
(0.999703 -0.00105455 -6.04266e-16)
(0.999836 -0.00112099 -3.13493e-16)
(1.00002 -0.00106772 1.22183e-16)
(1.0003 -0.000914384 6.02207e-16)
(1.0003 -0.000543747 -1.21833e-15)
(1.00161 0.000341847 3.17347e-16)
(0.999959 -5.10072e-06 -5.23178e-17)
(0.999901 -0.000163266 7.9333e-17)
(0.999814 -0.000343378 2.39491e-16)
(0.999729 -0.000548149 4.53409e-16)
(0.99968 -0.000768408 2.41377e-16)
(0.999683 -0.000962372 -2.67839e-16)
(0.999757 -0.00109717 -2.91224e-16)
(0.9999 -0.00115494 -1.39593e-16)
(1.00009 -0.00109328 4.82278e-17)
(1.00038 -0.000934065 -1.3043e-16)
(1.00041 -0.000582547 1.04315e-15)
(1.00159 0.000214784 -5.48743e-16)
(0.999951 -9.68563e-06 2.05991e-17)
(0.999895 -0.000183983 -1.9482e-16)
(0.999813 -0.000380116 1.4616e-17)
(0.999736 -0.000597757 -7.23547e-17)
(0.999698 -0.000825885 7.30171e-17)
(0.999711 -0.00102223 -6.11403e-17)
(0.999795 -0.00115715 5.12274e-17)
(0.999947 -0.00121406 5.58996e-16)
(1.00014 -0.00115199 -6.92673e-17)
(1.00045 -0.000992621 -7.90159e-16)
(1.00052 -0.000660724 -8.80028e-16)
(1.00159 6.37668e-05 9.76294e-16)
(0.999942 -1.46147e-05 7.321e-17)
(0.999888 -0.000204674 4.86979e-18)
(0.999811 -0.000416881 1.8454e-16)
(0.99974 -0.000647973 -4.83847e-16)
(0.99971 -0.000885088 -1.15476e-16)
(0.999734 -0.00108574 5.22616e-16)
(0.999826 -0.00122336 -4.43912e-16)
(0.999988 -0.00128223 -6.69461e-16)
(1.00019 -0.00122213 2.05037e-16)
(1.00052 -0.00106071 2.05587e-16)
(1.00062 -0.000740559 6.54388e-16)
(1.00162 -6.05676e-05 -1.3807e-16)
(0.999933 -1.98782e-05 -1.00414e-16)
(0.999881 -0.000225259 -2.31216e-17)
(0.999809 -0.000452872 -2.19936e-16)
(0.999746 -0.000696524 3.65955e-17)
(0.999725 -0.000941432 1.67309e-16)
(0.999759 -0.00114499 -3.60668e-16)
(0.999861 -0.0012835 2.70953e-16)
(1.00003 -0.00134211 7.54334e-16)
(1.00025 -0.00128153 -5.62429e-16)
(1.00059 -0.0011134 2.24348e-16)
(1.00073 -0.00079769 -8.47733e-16)
(1.00168 -0.000146451 -9.04758e-16)
(0.999923 -2.55023e-05 6.51898e-18)
(0.999874 -0.000245805 1.92057e-16)
(0.999809 -0.000487974 -1.92631e-16)
(0.999753 -0.000742932 1.48983e-16)
(0.999743 -0.000994106 -4.57841e-16)
(0.99979 -0.00119874 -2.03987e-16)
(0.999903 -0.00133553 6.64154e-17)
(1.00009 -0.0013906 -3.0295e-16)
(1.00031 -0.00132629 -3.9436e-16)
(1.00067 -0.00114855 3.6308e-16)
(1.00085 -0.000834366 2.85771e-16)
(1.00174 -0.000211201 1.00702e-17)
(0.999913 -3.15021e-05 2.45283e-17)
(0.999866 -0.000266427 -1.91934e-17)
(0.999809 -0.000522445 5.30777e-16)
(0.999762 -0.000787781 1.53127e-16)
(0.999763 -0.00104453 2.61708e-16)
(0.999822 -0.00124983 -2.92529e-16)
(0.999947 -0.00138399 -1.47932e-16)
(1.00014 -0.00143409 1.20617e-16)
(1.00038 -0.00136456 4.65773e-16)
(1.00075 -0.00117724 -1.21984e-15)
(1.00096 -0.000864784 -4.8681e-16)
(1.00182 -0.000273709 5.42494e-16)
(0.999901 -3.78796e-05 -7.57546e-17)
(0.999858 -0.000287196 -6.74313e-17)
(0.99981 -0.000556517 -4.19484e-16)
(0.999772 -0.000831533 -3.31495e-16)
(0.999783 -0.00109382 -2.32322e-16)
(0.999853 -0.00130058 3.65157e-16)
(0.999991 -0.00143297 2.51096e-16)
(1.0002 -0.00147869 -2.76614e-16)
(1.00044 -0.00140442 -3.71188e-16)
(1.00082 -0.00120912 -1.32972e-16)
(1.00106 -0.000899044 6.91337e-16)
(1.00189 -0.000340655 -4.82071e-16)
(0.999889 -4.46053e-05 4.07769e-17)
(0.99985 -0.000308125 3.22354e-17)
(0.99981 -0.000590286 4.95514e-17)
(0.999781 -0.000874287 7.90663e-17)
(0.999802 -0.00114209 8.22082e-17)
(0.999884 -0.00135128 -1.48312e-16)
(1.00003 -0.00148334 7.77436e-18)
(1.00025 -0.00152614 -3.83139e-16)
(1.00051 -0.00144838 3.62748e-16)
(1.0009 -0.00124672 1.3828e-15)
(1.00117 -0.000938684 -2.0558e-16)
(1.00197 -0.000409516 6.71385e-16)
(0.999876 -5.16309e-05 -3.9373e-17)
(0.99984 -0.000329193 1.4868e-18)
(0.999809 -0.000623815 1.47878e-16)
(0.99979 -0.000916071 2.09129e-16)
(0.999822 -0.00118905 2.31335e-16)
(0.999914 -0.00140114 -1.50304e-16)
(1.00007 -0.00153387 -2.4203e-16)
(1.00031 -0.00157491 5.91862e-16)
(1.00058 -0.00149471 1.43321e-16)
(1.00098 -0.00128768 -1.49041e-15)
(1.00127 -0.00098069 2.35649e-16)
(1.00205 -0.000476418 2.22595e-17)
(0.999863 -5.88756e-05 9.00871e-17)
(0.999829 -0.000350358 3.30996e-17)
(0.999806 -0.000657196 -3.1963e-16)
(0.999798 -0.000957139 1.37952e-16)
(0.999841 -0.00123484 -5.61517e-17)
(0.999945 -0.00144973 3.67533e-16)
(1.00012 -0.00158349 6.25739e-16)
(1.00036 -0.00162334 1.0536e-16)
(1.00064 -0.00154128 5.10883e-16)
(1.00105 -0.00132951 1.23908e-15)
(1.00137 -0.00102276 1.43369e-15)
(1.00213 -0.000540448 -5.35714e-16)
(0.999848 -6.62399e-05 3.46256e-17)
(0.999817 -0.000371555 -2.74524e-17)
(0.999802 -0.00069054 3.04016e-16)
(0.999805 -0.000997948 -2.77333e-16)
(0.99986 -0.00128011 3.92575e-16)
(0.999976 -0.00149759 4.03432e-18)
(1.00016 -0.0016324 -4.06797e-16)
(1.00042 -0.00167127 1.28269e-16)
(1.00071 -0.0015877 -4.42348e-16)
(1.00113 -0.00137185 -2.16526e-16)
(1.00147 -0.0010651 -5.75056e-16)
(1.00222 -0.000603364 -1.06356e-16)
(0.999833 -7.35994e-05 -4.15248e-17)
(0.999803 -0.000392686 -2.31163e-16)
(0.999795 -0.000723898 -1.26534e-16)
(0.99981 -0.00103897 1.55315e-16)
(0.999878 -0.00132577 -2.8209e-17)
(1.00001 -0.00154589 -2.62138e-16)
(1.0002 -0.00168187 -5.46714e-17)
(1.00047 -0.00172 -3.37792e-17)
(1.00078 -0.00163523 -5.30998e-16)
(1.00121 -0.00141602 -3.89565e-16)
(1.00157 -0.00110917 -1.72419e-15)
(1.0023 -0.000666643 1.02349e-15)
(0.999817 -8.08242e-05 -3.95655e-17)
(0.999787 -0.000413634 2.40657e-16)
(0.999787 -0.000757226 -1.71799e-16)
(0.999812 -0.00108045 7.66861e-17)
(0.999892 -0.00137247 -1.8827e-16)
(1.00003 -0.00159566 -4.26535e-16)
(1.00024 -0.00173313 5.41121e-17)
(1.00052 -0.00177085 -6.90923e-17)
(1.00084 -0.00168516 2.87451e-16)
(1.00129 -0.00146309 4.46824e-16)
(1.00167 -0.00115562 1.54302e-15)
(1.00239 -0.000730146 -9.89803e-16)
(0.9998 -8.77789e-05 2.84587e-17)
(0.99977 -0.000434266 -1.1204e-17)
(0.999777 -0.000790376 2.72439e-17)
(0.999812 -0.00112237 -6.3601e-17)
(0.999904 -0.00142035 -2.36572e-16)
(1.00006 -0.00164727 -9.46725e-18)
(1.00028 -0.00178668 -1.25507e-16)
(1.00058 -0.0018243 -6.70472e-16)
(1.00091 -0.00173777 4.04016e-16)
(1.00137 -0.0015129 2.18834e-16)
(1.00177 -0.00120381 6.52906e-17)
(1.00248 -0.000792461 2.22537e-16)
(0.999783 -9.43407e-05 3.2552e-17)
(0.999753 -0.000454463 -2.64028e-16)
(0.999765 -0.000823164 5.17024e-16)
(0.99981 -0.00116446 4.92067e-17)
(0.999914 -0.00146912 1.43502e-16)
(1.00008 -0.00170039 8.70028e-16)
(1.00032 -0.00184213 7.15583e-16)
(1.00063 -0.00187979 3.62197e-16)
(1.00098 -0.00179225 -9.59847e-16)
(1.00145 -0.00156432 -2.7996e-16)
(1.00186 -0.00125244 9.26279e-17)
(1.00257 -0.000852569 -3.32304e-17)
(0.999764 -0.000100398 -6.10033e-17)
(0.999734 -0.000474133 1.05178e-16)
(0.999752 -0.000855427 -6.97131e-17)
(0.999806 -0.00120641 -8.8543e-17)
(0.999922 -0.00151828 -2.55301e-16)
(1.0001 -0.0017544 -5.05191e-16)
(1.00036 -0.00189872 -2.74613e-16)
(1.00068 -0.00193643 -2.17816e-17)
(1.00104 -0.00184756 2.78178e-16)
(1.00152 -0.00161625 -2.65328e-16)
(1.00196 -0.00130074 -1.56567e-15)
(1.00266 -0.000910512 7.93615e-16)
(0.999745 -0.000105861 4.45406e-17)
(0.999714 -0.000493218 6.34645e-18)
(0.999739 -0.000887081 -1.89713e-16)
(0.999802 -0.00124798 -1.45116e-16)
(0.99993 -0.00156742 -8.05383e-17)
(1.00013 -0.00180874 -1.19059e-16)
(1.00039 -0.00195581 -2.17208e-16)
(1.00073 -0.00199355 -2.31756e-16)
(1.00111 -0.00190311 -6.75704e-17)
(1.0016 -0.00166832 -2.46182e-16)
(1.00206 -0.00134884 9.29346e-17)
(1.00276 -0.000967204 -1.57921e-16)
(0.999724 -0.000110658 1.52674e-17)
(0.999694 -0.000511696 1.4945e-16)
(0.999725 -0.000918122 4.09133e-17)
(0.999797 -0.0012891 -1.57143e-17)
(0.999938 -0.00161637 9.89016e-17)
(1.00015 -0.00186315 2.77975e-16)
(1.00043 -0.00201316 1.07012e-16)
(1.00078 -0.00205102 2.67685e-16)
(1.00118 -0.00195898 3.13843e-16)
(1.00169 -0.0017209 -3.06336e-16)
(1.00215 -0.00139754 1.0056e-15)
(1.00285 -0.00102356 -6.23153e-16)
(0.999702 -0.000114739 -2.07029e-17)
(0.999673 -0.000529567 -1.95531e-17)
(0.99971 -0.000948619 -1.47821e-16)
(0.999792 -0.00132984 -9.73043e-17)
(0.999945 -0.00166516 -3.48849e-17)
(1.00017 -0.00191767 -1.79037e-16)
(1.00046 -0.00207089 1.04216e-17)
(1.00084 -0.00210912 -3.11603e-16)
(1.00125 -0.00201565 -2.70769e-17)
(1.00177 -0.00177465 1.05274e-15)
(1.00225 -0.00144761 4.96653e-16)
(1.00295 -0.00108021 5.3164e-17)
(0.999679 -0.000118066 -9.84981e-18)
(0.999651 -0.000546842 -1.14716e-16)
(0.999695 -0.000978662 -5.05581e-17)
(0.999787 -0.00137036 -7.55489e-17)
(0.999952 -0.00171399 5.57832e-16)
(1.00019 -0.00197251 -1.2926e-16)
(1.0005 -0.00212926 1.53894e-16)
(1.00089 -0.00216822 -1.59921e-16)
(1.00131 -0.0020736 -2.55539e-16)
(1.00185 -0.00183005 -2.65464e-16)
(1.00235 -0.00149937 -1.96519e-17)
(1.00304 -0.00113735 -2.01494e-16)
(0.999655 -0.00012062 3.41061e-17)
(0.999629 -0.000563538 -4.08726e-17)
(0.999679 -0.00100834 1.71716e-16)
(0.99978 -0.0014108 3.46722e-16)
(0.999958 -0.00176309 -5.27471e-16)
(1.00021 -0.00202794 4.99317e-16)
(1.00054 -0.00218853 -2.76155e-16)
(1.00094 -0.00222857 -1.44221e-16)
(1.00138 -0.00213307 -1.94321e-16)
(1.00193 -0.00188719 -3.55444e-16)
(1.00244 -0.00155267 -1.50885e-16)
(1.00314 -0.0011945 -1.20907e-16)
(0.99963 -0.00012239 -5.82563e-18)
(0.999605 -0.000579665 -1.56755e-17)
(0.999662 -0.00103771 -1.57906e-17)
(0.999773 -0.0014513 -3.35632e-16)
(0.999964 -0.00181264 -1.44116e-16)
(1.00023 -0.00208413 -1.30567e-17)
(1.00057 -0.00224886 -3.90025e-16)
(1.00099 -0.00229026 7.18947e-16)
(1.00145 -0.00219402 -5.8754e-18)
(1.00201 -0.00194584 2.51105e-16)
(1.00254 -0.00160708 1.77965e-16)
(1.00324 -0.00125109 -5.44296e-18)
(0.999603 -0.00012338 -1.89008e-17)
(0.999581 -0.000595235 1.07935e-16)
(0.999644 -0.00106679 3.21486e-17)
(0.999764 -0.0014919 4.61309e-16)
(0.999968 -0.00186274 2.51782e-16)
(1.00025 -0.00214121 -4.22467e-16)
(1.00061 -0.0023103 1.91854e-16)
(1.00104 -0.00235323 -3.78791e-16)
(1.00152 -0.00225624 1.31175e-15)
(1.00209 -0.00200559 -1.01999e-16)
(1.00264 -0.00166204 2.24497e-17)
(1.00333 -0.00130666 -1.40961e-16)
(0.999575 -0.0001236 -1.97222e-17)
(0.999556 -0.000610258 7.54047e-17)
(0.999625 -0.00109557 -9.05951e-17)
(0.999755 -0.00153258 -4.47721e-16)
(0.999971 -0.00191336 4.63668e-16)
(1.00027 -0.00219915 2.71277e-16)
(1.00064 -0.0023728 3.43158e-16)
(1.00109 -0.00241732 1.53578e-16)
(1.00159 -0.00231944 -1.08958e-16)
(1.00217 -0.00206602 5.47284e-16)
(1.00273 -0.00171708 -9.92994e-16)
(1.00343 -0.00136109 1.12214e-15)
(0.999545 -0.000123071 2.74816e-17)
(0.99953 -0.000624749 -1.44319e-16)
(0.999605 -0.00112402 -8.42729e-17)
(0.999744 -0.00157326 -2.68523e-17)
(0.999973 -0.00196438 -1.7734e-16)
(1.00028 -0.00225781 -5.03657e-18)
(1.00068 -0.00243617 -2.82083e-16)
(1.00115 -0.00248227 -2.13541e-16)
(1.00165 -0.00238329 -1.20493e-15)
(1.00226 -0.00212676 -3.9781e-16)
(1.00283 -0.00177188 -2.55862e-16)
(1.00353 -0.00141429 -3.00822e-17)
(0.999515 -0.00012182 1.05392e-17)
(0.999503 -0.000638733 -1.18648e-17)
(0.999584 -0.00115211 -4.26399e-17)
(0.999733 -0.00161384 3.25721e-16)
(0.999975 -0.00201563 -5.53098e-16)
(1.0003 -0.00231699 -4.10524e-16)
(1.00071 -0.00250018 3.52765e-16)
(1.0012 -0.00254783 -2.33531e-17)
(1.00172 -0.00244751 7.30048e-17)
(1.00234 -0.00218756 4.21625e-16)
(1.00293 -0.0018263 -1.68589e-16)
(1.00363 -0.00146651 3.04244e-16)
(0.999483 -0.000119885 -1.51818e-17)
(0.999475 -0.00065225 1.7017e-16)
(0.999563 -0.00117985 2.88698e-16)
(0.999722 -0.00165423 -9.62015e-17)
(0.999976 -0.00206692 4.35829e-17)
(1.00032 -0.00237643 1.82397e-16)
(1.00074 -0.00256459 -4.21162e-16)
(1.00125 -0.00261377 4.43536e-16)
(1.00179 -0.00251192 3.44929e-16)
(1.00242 -0.00224832 -2.8428e-16)
(1.00303 -0.00188041 3.22619e-18)
(1.00373 -0.00151806 -1.90593e-17)
(0.999449 -0.000117307 -4.29681e-18)
(0.999446 -0.000665351 -2.47214e-16)
(0.999541 -0.00120729 -4.85287e-17)
(0.99971 -0.00169442 5.79776e-17)
(0.999977 -0.00211815 6.52514e-16)
(1.00033 -0.00243599 5.21074e-17)
(1.00078 -0.00262924 3.91052e-16)
(1.0013 -0.00267997 -7.24452e-16)
(1.00186 -0.0025765 3.63905e-16)
(1.00251 -0.00230915 -4.37267e-16)
(1.00312 -0.00193447 9.3844e-16)
(1.00383 -0.00156937 -4.66705e-16)
(0.999414 -0.000114135 2.1478e-17)
(0.999416 -0.000678097 1.09603e-16)
(0.999519 -0.00123451 -1.16414e-16)
(0.999697 -0.00173446 4.79299e-17)
(0.999978 -0.00216932 -3.92519e-16)
(1.00035 -0.00249564 -1.38223e-16)
(1.00081 -0.00269411 2.2696e-17)
(1.00135 -0.00274647 5.19125e-16)
(1.00193 -0.00264138 3.13404e-16)
(1.00259 -0.00237031 -2.16442e-17)
(1.00322 -0.00198888 1.23651e-15)
(1.00394 -0.00162095 -6.10584e-16)
(0.999378 -0.000110421 1.44388e-18)
(0.999386 -0.000690554 1.19627e-16)
(0.999495 -0.00126162 1.19527e-16)
(0.999684 -0.00177451 -1.44102e-17)
(0.999978 -0.00222058 2.87061e-16)
(1.00037 -0.00255551 3.71266e-16)
(1.00085 -0.00275935 -1.13311e-16)
(1.0014 -0.00281348 5.21493e-16)
(1.002 -0.00270684 -1.19692e-15)
(1.00268 -0.00243217 -1.32816e-16)
(1.00332 -0.00204405 -1.78003e-15)
(1.00404 -0.0016733 1.40885e-16)
(0.999341 -0.000106222 -6.22938e-17)
(0.999353 -0.000702785 7.44311e-17)
(0.99947 -0.00128876 -2.12724e-17)
(0.99967 -0.00181475 1.55195e-16)
(0.999978 -0.00227217 -2.13736e-16)
(1.00038 -0.00261586 -5.21005e-16)
(1.00088 -0.00282524 -4.00841e-17)
(1.00146 -0.0028813 -3.71712e-16)
(1.00207 -0.00277326 1.27499e-15)
(1.00276 -0.00249511 -4.29681e-17)
(1.00342 -0.00210033 3.8201e-16)
(1.00414 -0.00172667 7.04185e-16)
(0.999302 -0.000101594 1.54914e-17)
(0.99932 -0.000714848 -3.19109e-16)
(0.999444 -0.00131604 1.09994e-16)
(0.999655 -0.00185541 -5.10228e-16)
(0.999977 -0.00232438 2.55319e-16)
(1.0004 -0.00267701 8.45505e-16)
(1.00091 -0.00289213 -2.19266e-16)
(1.00151 -0.0029503 -5.19301e-16)
(1.00214 -0.00284097 -4.05753e-16)
(1.00285 -0.00255941 -8.02542e-17)
(1.00352 -0.00215794 3.95964e-16)
(1.00424 -0.00178087 -6.43941e-16)
(0.999263 -9.65966e-05 3.55277e-17)
(0.999285 -0.000726789 9.27112e-17)
(0.999416 -0.00134356 -3.34037e-16)
(0.999638 -0.00189664 4.62715e-16)
(0.999975 -0.00237745 -6.95814e-16)
(1.00041 -0.00273928 -6.9519e-16)
(1.00094 -0.00296032 2.6507e-16)
(1.00156 -0.00302074 9.3237e-16)
(1.00221 -0.00291019 -5.25328e-16)
(1.00293 -0.00262521 2.11443e-16)
(1.00362 -0.00221692 -1.70874e-16)
(1.00435 -0.00183591 6.03209e-17)
(0.999222 -9.12922e-05 -6.05171e-18)
(0.999249 -0.000738644 2.00091e-16)
(0.999387 -0.00137137 2.66509e-16)
(0.999619 -0.00193858 -3.17277e-16)
(0.999971 -0.00243158 1.54379e-16)
(1.00043 -0.00280287 4.28248e-16)
(1.00098 -0.00303002 1.44038e-16)
(1.00161 -0.00309281 -9.66365e-17)
(1.00228 -0.00298102 7.3639e-16)
(1.00302 -0.0026925 3.74817e-16)
(1.00371 -0.00227712 7.05117e-17)
(1.00445 -0.00189154 6.36488e-17)
(0.999179 -8.57429e-05 1.36047e-17)
(0.999211 -0.000750444 -2.23214e-16)
(0.999356 -0.00139949 -5.89764e-17)
(0.999599 -0.00198126 1.24257e-16)
(0.999965 -0.00248686 7.51294e-16)
(1.00044 -0.0028679 -3.85424e-16)
(1.00101 -0.00310132 -3.28426e-16)
(1.00166 -0.00316652 -7.46485e-17)
(1.00235 -0.00305342 -7.28357e-16)
(1.0031 -0.00276114 4.23604e-16)
(1.00381 -0.00233838 -5.89553e-17)
(1.00455 -0.00194769 3.78623e-16)
(0.999136 -8.0014e-05 -1.07952e-17)
(0.999172 -0.000762216 1.39764e-16)
(0.999324 -0.00142792 -9.64462e-17)
(0.999578 -0.00202467 3.61958e-16)
(0.999958 -0.00254326 -7.05796e-16)
(1.00045 -0.00293434 4.95992e-16)
(1.00104 -0.00317418 -4.82623e-17)
(1.00171 -0.00324179 -5.04262e-17)
(1.00242 -0.00312724 7.53668e-16)
(1.00319 -0.00283097 -2.90629e-16)
(1.00391 -0.00240053 -2.37918e-16)
(1.00466 -0.00200397 -9.5633e-17)
(0.999092 -7.41711e-05 1.51948e-18)
(0.999132 -0.00077399 -2.60503e-17)
(0.99929 -0.00145665 1.17521e-16)
(0.999555 -0.00206877 -4.01481e-16)
(0.99995 -0.0026007 3.48469e-16)
(1.00046 -0.00300208 1.16617e-16)
(1.00107 -0.00324845 1.67986e-16)
(1.00176 -0.00331846 -8.77227e-16)
(1.00248 -0.0032023 -3.6812e-16)
(1.00327 -0.00290178 -1.32432e-15)
(1.00401 -0.00246351 -6.92459e-16)
(1.00476 -0.00206044 -7.11578e-16)
(0.999047 -6.82831e-05 -1.97264e-17)
(0.999091 -0.000785803 1.80582e-17)
(0.999255 -0.00148567 -2.20223e-16)
(0.99953 -0.00211348 1.44801e-17)
(0.999941 -0.00265907 -8.85282e-17)
(1.00046 -0.00307097 5.26834e-18)
(1.00109 -0.00332398 3.10335e-16)
(1.0018 -0.00339635 1.18597e-15)
(1.00255 -0.00327844 1.03122e-16)
(1.00335 -0.00297344 8.26534e-16)
(1.00411 -0.00252714 -1.21315e-16)
(1.00487 -0.00211686 1.29147e-15)
(0.999001 -6.24181e-05 1.89796e-17)
(0.999048 -0.0007977 1.09637e-17)
(0.999219 -0.001515 2.97616e-16)
(0.999505 -0.00215877 -1.74089e-16)
(0.99993 -0.00271827 -2.03874e-16)
(1.00047 -0.00314087 -2.35507e-16)
(1.00112 -0.00340059 -1.42872e-16)
(1.00185 -0.00347531 -4.75522e-16)
(1.00262 -0.00335554 8.5601e-17)
(1.00344 -0.00304589 8.21225e-16)
(1.0042 -0.00259143 7.97336e-16)
(1.00498 -0.00217337 -1.14694e-15)
(0.998954 -5.66452e-05 -1.9377e-17)
(0.999005 -0.000809734 -2.39714e-16)
(0.999183 -0.00154464 -1.27626e-16)
(0.999479 -0.0022046 2.92389e-17)
(0.999919 -0.00277823 5.11088e-16)
(1.00048 -0.00321168 -4.05333e-16)
(1.00115 -0.00347818 -3.61797e-16)
(1.0019 -0.00355525 -4.4732e-16)
(1.00269 -0.00343355 -5.36369e-16)
(1.00352 -0.00311909 -1.77439e-15)
(1.0043 -0.0026565 -5.93476e-16)
(1.00508 -0.00222994 5.81506e-16)
(0.998907 -5.10309e-05 9.69762e-18)
(0.998961 -0.000821962 2.00203e-16)
(0.999145 -0.00157466 6.03862e-17)
(0.999452 -0.00225101 3.72611e-16)
(0.999908 -0.00283894 -5.89905e-16)
(1.00049 -0.00328337 5.75124e-16)
(1.00117 -0.00355672 -6.85967e-18)
(1.00195 -0.00363615 1.05413e-15)
(1.00275 -0.00351247 3.80643e-16)
(1.00361 -0.00319308 2.31401e-15)
(1.0044 -0.00272241 3.3002e-16)
(1.00519 -0.0022867 5.41945e-16)
(0.998859 -4.56412e-05 -1.97992e-17)
(0.998915 -0.000834444 4.30066e-17)
(0.999106 -0.00160511 9.36715e-17)
(0.999425 -0.00229804 -1.45721e-16)
(0.999895 -0.00290042 5.04039e-16)
(1.00049 -0.00335594 -6.06788e-16)
(1.0012 -0.00363621 5.54084e-16)
(1.00199 -0.00371801 -1.42247e-16)
(1.00282 -0.00359231 2.32226e-16)
(1.00369 -0.00326786 -1.68753e-15)
(1.0045 -0.00278896 1.00284e-15)
(1.0053 -0.0023434 -1.20946e-15)
(0.99881 -4.05369e-05 2.12962e-17)
(0.998869 -0.00084724 -1.19053e-16)
(0.999067 -0.00163605 -1.731e-16)
(0.999396 -0.00234574 -1.71157e-16)
(0.999882 -0.00296273 5.22111e-17)
(1.0005 -0.00342945 -1.59749e-16)
(1.00123 -0.00371669 -3.01806e-16)
(1.00204 -0.00380087 -6.69835e-16)
(1.00289 -0.00367311 -2.39949e-16)
(1.00378 -0.00334345 3.94406e-16)
(1.0046 -0.00285609 -9.85118e-16)
(1.00541 -0.00240002 6.99258e-16)
(0.998761 -3.57752e-05 5.13137e-17)
(0.998822 -0.000860403 1.4477e-17)
(0.999026 -0.00166753 -4.60622e-17)
(0.999367 -0.00239418 1.24381e-16)
(0.999868 -0.00302592 -6.88295e-16)
(1.0005 -0.00350395 1.16525e-16)
(1.00125 -0.0037982 5.05014e-16)
(1.00209 -0.00388475 -2.81974e-16)
(1.00295 -0.00375486 9.47392e-17)
(1.00386 -0.00341981 -1.2416e-16)
(1.0047 -0.00292375 2.24861e-16)
(1.00551 -0.00245668 -5.26964e-16)
(0.99871 -3.14055e-05 -3.34969e-17)
(0.998773 -0.000873986 7.35807e-17)
(0.998985 -0.00169963 -1.34651e-16)
(0.999336 -0.00244341 -8.06784e-17)
(0.999853 -0.00309005 5.12043e-16)
(1.00051 -0.00357946 2.1181e-16)
(1.00128 -0.00388075 -2.23598e-16)
(1.00213 -0.00396964 4.5871e-16)
(1.00302 -0.00383754 1.51023e-16)
(1.00394 -0.0034969 2.98012e-16)
(1.00479 -0.00299191 -3.0706e-16)
(1.00562 -0.00251335 -1.10688e-17)
(0.99866 -2.74724e-05 -5.12989e-17)
(0.998724 -0.000888031 -2.67052e-17)
(0.998942 -0.00173236 1.3881e-16)
(0.999305 -0.00249344 1.22717e-16)
(0.999838 -0.00315511 1.59631e-16)
(1.00051 -0.00365598 4.31853e-16)
(1.0013 -0.00396433 -1.93821e-16)
(1.00218 -0.00405551 -8.64508e-17)
(1.00309 -0.00392108 -1.83227e-16)
(1.00403 -0.00357462 -6.70081e-18)
(1.00489 -0.00306039 6.6425e-18)
(1.00573 -0.00257 3.85772e-16)
(0.998608 -2.401e-05 8.63031e-17)
(0.998673 -0.000902582 -1.39964e-17)
(0.998899 -0.00176577 1.60451e-16)
(0.999273 -0.0025443 -7.33127e-17)
(0.999822 -0.00322111 -1.40544e-16)
(1.00051 -0.00373349 -5.68562e-16)
(1.00132 -0.00404888 -3.44356e-16)
(1.00222 -0.0041423 2.24243e-16)
(1.00315 -0.00400543 3.53195e-17)
(1.00411 -0.00365296 5.37005e-17)
(1.00499 -0.00312915 8.30994e-17)
(1.00584 -0.00262678 3.44819e-17)
(0.998556 -2.10446e-05 -8.6079e-17)
(0.998621 -0.000917675 1.31739e-16)
(0.998854 -0.00179988 -2.36224e-16)
(0.99924 -0.00259599 1.6258e-16)
(0.999804 -0.00328802 -3.77417e-18)
(1.00051 -0.00381194 3.85986e-16)
(1.00135 -0.00413437 3.36079e-16)
(1.00227 -0.00422996 -2.24462e-16)
(1.00322 -0.00409055 3.69281e-16)
(1.0042 -0.0037319 -2.39329e-16)
(1.00509 -0.00319818 7.14715e-16)
(1.00595 -0.00268392 7.22259e-16)
(0.998503 -1.85907e-05 6.59665e-17)
(0.998568 -0.000933349 -9.5363e-17)
(0.998809 -0.00183473 -4.00758e-17)
(0.999206 -0.00264854 1.21024e-16)
(0.999786 -0.00335585 -1.51931e-16)
(1.00051 -0.00389133 -2.36346e-16)
(1.00137 -0.00422076 3.61016e-16)
(1.00231 -0.00431848 -2.1146e-16)
(1.00328 -0.00417646 -4.49663e-16)
(1.00428 -0.0038115 2.41873e-16)
(1.00519 -0.00326765 -4.10238e-16)
(1.00606 -0.00274165 -5.65847e-16)
(0.998449 -1.66552e-05 2.74244e-17)
(0.998514 -0.000949636 -1.01418e-16)
(0.998762 -0.00187036 4.14512e-16)
(0.999171 -0.00270195 -2.0262e-16)
(0.999768 -0.00342459 8.28185e-17)
(1.00052 -0.00397164 -1.92147e-16)
(1.00139 -0.00430807 -4.74445e-16)
(1.00236 -0.00440789 4.12122e-16)
(1.00335 -0.00426319 4.74919e-16)
(1.00437 -0.00389184 -5.99415e-16)
(1.00529 -0.00333775 -2.33878e-16)
(1.00617 -0.00280017 -1.77411e-16)
(0.998395 -1.52329e-05 -7.86064e-17)
(0.998459 -0.000966566 3.06311e-17)
(0.998714 -0.00190679 -1.87621e-16)
(0.999135 -0.00275628 2.56766e-17)
(0.999748 -0.0034943 1.14303e-16)
(1.00052 -0.00405292 4.66828e-16)
(1.00141 -0.00439635 5.04953e-18)
(1.0024 -0.00449826 -2.43819e-17)
(1.00342 -0.00435087 -6.53026e-16)
(1.00445 -0.00397307 9.58471e-17)
(1.00539 -0.0034087 -1.34949e-16)
(1.00628 -0.00285966 7.23291e-17)
(0.99834 -1.43121e-05 -1.26923e-17)
(0.998403 -0.000984165 -2.33672e-17)
(0.998665 -0.00194407 -2.73801e-16)
(0.999098 -0.00281156 -5.00418e-17)
(0.999728 -0.00356502 -1.79902e-16)
(1.00051 -0.00413525 -1.30202e-16)
(1.00143 -0.00448568 -1.328e-16)
(1.00244 -0.00458972 1.63189e-16)
(1.00348 -0.00443962 1.83668e-16)
(1.00453 -0.00405533 3.1422e-16)
(1.00549 -0.00348063 4.42808e-16)
(1.00639 -0.00291993 -2.28766e-16)
(0.998283 -1.38707e-05 3.06939e-17)
(0.998345 -0.00100245 1.59548e-17)
(0.998614 -0.00198222 2.61412e-16)
(0.99906 -0.00286785 -5.25302e-17)
(0.999706 -0.00363682 -9.69346e-17)
(1.00051 -0.00421871 -1.49399e-16)
(1.00146 -0.0045762 4.43127e-16)
(1.00249 -0.00468238 -2.97199e-16)
(1.00355 -0.00452959 1.05e-16)
(1.00462 -0.00413876 4.09268e-16)
(1.00559 -0.0035537 -2.60285e-16)
(1.0065 -0.00298119 -4.07039e-17)
(0.998226 -1.38843e-05 -4.19674e-17)
(0.998286 -0.00102143 4.34268e-17)
(0.998563 -0.00202126 8.90956e-17)
(0.99902 -0.00292518 1.89862e-16)
(0.999683 -0.00370978 3.42198e-16)
(1.00051 -0.0043034 -2.54767e-16)
(1.00147 -0.004668 -1.68996e-16)
(1.00253 -0.00477637 1.78212e-17)
(1.00361 -0.00462085 -3.11654e-16)
(1.0047 -0.00422339 -4.48546e-16)
(1.00569 -0.00362797 5.97476e-16)
(1.00661 -0.0030433 2.5013e-16)
(0.998167 -1.4321e-05 6.75458e-17)
(0.998226 -0.0010411 8.25357e-17)
(0.998509 -0.0020612 -8.46322e-17)
(0.998979 -0.00298358 -1.72171e-16)
(0.999659 -0.00378394 4.47856e-17)
(1.00051 -0.00438938 4.17139e-16)
(1.00149 -0.00476117 -2.97822e-16)
(1.00257 -0.00487176 -1.07606e-17)
(1.00367 -0.00471349 3.97729e-16)
(1.00479 -0.0043093 -3.89836e-16)
(1.00579 -0.00370351 -5.07349e-16)
(1.00672 -0.00310636 -1.29832e-16)
(0.998108 -1.51495e-05 8.35657e-18)
(0.998164 -0.00106145 8.45032e-18)
(0.998455 -0.00210204 -2.78467e-16)
(0.998937 -0.00304305 -2.27185e-16)
(0.999634 -0.00385932 -3.82329e-16)
(1.0005 -0.0044767 5.20845e-17)
(1.00151 -0.00485576 8.5418e-17)
(1.00261 -0.00496858 -5.94442e-17)
(1.00374 -0.00480752 -3.26736e-16)
(1.00487 -0.00439644 7.32171e-16)
(1.00589 -0.00378019 3.79124e-16)
(1.00683 -0.00316993 -1.16818e-16)
(0.998046 -1.63333e-05 -3.96764e-17)
(0.998101 -0.00108247 -7.73458e-17)
(0.998399 -0.00214374 3.71221e-16)
(0.998893 -0.00310356 3.38189e-16)
(0.999607 -0.0039359 -7.43734e-18)
(1.00049 -0.00456536 7.23909e-17)
(1.00153 -0.00495176 -1.12409e-16)
(1.00265 -0.00506683 8.26089e-17)
(1.0038 -0.00490293 3.47828e-16)
(1.00495 -0.00448482 -1.80785e-16)
(1.00599 -0.00385798 1.28766e-16)
(1.00694 -0.00323408 2.16979e-16)
(0.997984 -1.78399e-05 -2.4826e-18)
(0.998037 -0.00110411 5.35152e-17)
(0.998341 -0.00218627 -1.62525e-16)
(0.998848 -0.00316508 -3.19632e-16)
(0.999579 -0.00401366 1.93613e-16)
(1.00049 -0.00465532 -4.44135e-16)
(1.00154 -0.00504914 1.31265e-16)
(1.00269 -0.00516645 -1.94975e-16)
(1.00386 -0.00499963 3.0832e-17)
(1.00504 -0.00457431 1.85426e-16)
(1.00609 -0.00393679 -1.59732e-16)
(1.00706 -0.00329857 -4.83564e-16)
(0.99792 -1.96321e-05 2.29353e-17)
(0.997971 -0.00112636 -1.48587e-16)
(0.998282 -0.00222958 1.66762e-16)
(0.998801 -0.00322754 2.80167e-16)
(0.99955 -0.00409252 -3.60409e-16)
(1.00048 -0.00474653 -3.05073e-17)
(1.00156 -0.00514783 2.19481e-16)
(1.00273 -0.0052674 -2.64936e-16)
(1.00393 -0.00509758 -3.21028e-16)
(1.00512 -0.0046649 9.0808e-17)
(1.00619 -0.00401666 -2.78306e-16)
(1.00717 -0.00336365 4.25882e-16)
(0.997854 -2.16777e-05 1.50718e-17)
(0.997904 -0.00114918 7.83138e-17)
(0.998222 -0.00227364 -7.7376e-17)
(0.998753 -0.00329089 2.36094e-16)
(0.99952 -0.00417242 1.7515e-16)
(1.00047 -0.0048389 1.47535e-16)
(1.00157 -0.00524777 -2.48178e-16)
(1.00277 -0.00536959 3.78275e-16)
(1.00399 -0.00519672 -3.36518e-18)
(1.0052 -0.00475651 -7.19913e-16)
(1.0063 -0.00409736 1.3768e-16)
(1.00729 -0.00342915 -2.68019e-17)
(0.997786 -2.3939e-05 -2.40266e-17)
(0.997835 -0.00117254 8.08981e-17)
(0.998161 -0.00231841 -2.69557e-16)
(0.998704 -0.00335509 -1.97797e-16)
(0.999488 -0.00425331 4.0273e-17)
(1.00046 -0.0049324 1.55134e-16)
(1.00158 -0.00534891 2.5923e-16)
(1.00281 -0.005473 3.53844e-17)
(1.00405 -0.00529703 2.80371e-17)
(1.00529 -0.00484919 4.79379e-16)
(1.0064 -0.00417891 1.45854e-16)
(1.0074 -0.00349524 -2.32531e-16)
(0.997717 -2.63847e-05 -1.89914e-17)
(0.997766 -0.0011964 -2.24478e-17)
(0.998098 -0.00236384 2.85709e-16)
(0.998654 -0.00342008 4.56544e-18)
(0.999455 -0.00433514 2.46279e-16)
(1.00045 -0.00502697 -2.32234e-16)
(1.0016 -0.00545119 -1.52044e-16)
(1.00284 -0.00557758 -4.51755e-17)
(1.00411 -0.00539847 5.44621e-18)
(1.00537 -0.00494287 2.91209e-16)
(1.0065 -0.00426127 -4.53899e-16)
(1.00752 -0.00356206 -2.67397e-16)
(0.997645 -2.89776e-05 5.17885e-18)
(0.997695 -0.00122073 -7.88558e-17)
(0.998034 -0.00240992 -2.76371e-16)
(0.998602 -0.00348585 4.92833e-17)
(0.999421 -0.00441789 2.30269e-17)
(1.00043 -0.00512258 2.92852e-18)
(1.00161 -0.00555462 -8.03373e-17)
(1.00288 -0.00568333 3.49347e-16)
(1.00418 -0.00550108 3.83074e-16)
(1.00546 -0.00503764 -2.548e-16)