/*--------------------------------*- C++ -*----------------------------------*\
  =========                 |
  \\      /  F ield         | OpenFOAM: The Open Source CFD Toolbox
   \\    /   O peration     | Website:  https://openfoam.org
    \\  /    A nd           | Version:  6.0
     \\/     M anipulation  |
\*---------------------------------------------------------------------------*/
FoamFile
{
    version     2.0;
    format      ascii;
    class       surfaceScalarField;
    location    "161";
    object      phi;
}
// * * * * * * * * * * * * * * * * * * * * * * * * * * * * * * * * * * * * * //

dimensions      [0 3 -1 0 0 0 0];

internalField   nonuniform List<scalar> 
68636
(
3.02279e-05
0.00310561
3.02912e-09
6.0841e-05
0.00307074
9.10891e-05
0.00300252
0.000120478
0.00290144
0.000148621
0.00276853
0.00017517
0.00260524
0.000199813
0.00241337
0.000222265
0.00219503
0.000242268
0.00195262
0.000259595
0.00168876
0.000274048
0.00140634
0.000285469
0.00110824
0.000293769
0.000797951
0.000298745
0.000477741
0.000142293
0.000296673
2.99458e-05
0.00307565
1.0509e-08
6.02808e-05
0.00304041
9.02541e-05
0.00297255
0.000119376
0.00287232
0.000147262
0.00274064
0.00017357
0.00257893
0.000197987
0.00238895
0.000220234
0.00217278
0.000240053
0.00193279
0.000257222
0.00167158
0.000271543
0.00139201
0.000282851
0.00109692
0.000291143
0.000789641
0.000295683
0.000473175
0.000143798
0.000294133
2.96661e-05
0.00304597
1.79061e-08
5.97255e-05
0.00301035
8.94269e-05
0.00294285
0.000118284
0.00284346
0.000145918
0.00271301
0.000171986
0.00255286
0.000196181
0.00236475
0.000218225
0.00215073
0.000237863
0.00191315
0.000254875
0.00165457
0.000269066
0.00137782
0.000280257
0.00108573
0.000288476
0.000781424
0.000293184
0.00046847
0.000144425
0.00029257
2.93892e-05
0.00301655
2.51153e-08
5.91758e-05
0.00298056
8.86077e-05
0.00291341
0.000117203
0.00281486
0.000144586
0.00268562
0.000170417
0.00252702
0.000194392
0.00234077
0.000216234
0.00212888
0.000235694
0.00189368
0.000252549
0.0016377
0.000266612
0.00136375
0.000277689
0.00107464
0.000285798
0.000773301
0.000290577
0.000463669
0.000144451
0.000290515
2.9115e-05
0.00298741
3.21071e-08
5.86314e-05
0.00295104
8.77962e-05
0.00288425
0.000116132
0.00278653
0.000143265
0.00265849
0.000168861
0.00250143
0.000192618
0.00231701
0.000214261
0.00210724
0.000233543
0.0018744
0.000250243
0.00162101
0.000264177
0.00134981
0.000275148
0.00106368
0.000283135
0.000765318
0.000287884
0.000458927
0.000144151
0.0002882
2.88435e-05
0.00295853
3.88259e-08
5.80919e-05
0.0029218
8.69919e-05
0.00285535
0.00011507
0.00275845
0.000141957
0.0026316
0.000167319
0.00247606
0.000190859
0.00229347
0.000212305
0.00208579
0.000231411
0.00185529
0.000247957
0.00160445
0.000261764
0.001336
0.000272633
0.0010528
0.000280505
0.000757434
0.000285198
0.000454214
0.000143534
0.000285786
2.85745e-05
0.00292991
4.5273e-08
5.75574e-05
0.00289281
8.61948e-05
0.00282671
0.000114018
0.00273062
0.00014066
0.00260496
0.000165792
0.00245093
0.000189117
0.00227014
0.000210367
0.00206454
0.000229298
0.00183636
0.000245693
0.00158806
0.000259373
0.00132232
0.000270144
0.00104203
0.000277911
0.000749672
0.000282544
0.000449589
0.00014279
0.000283307
2.83081e-05
0.00290155
5.14261e-08
5.70277e-05
0.00286409
8.54048e-05
0.00279834
0.000112975
0.00270305
0.000139375
0.00257855
0.000164277
0.00242603
0.00018739
0.00224703
0.000208447
0.00204348
0.000227205
0.0018176
0.000243449
0.00157181
0.000257004
0.00130876
0.000267679
0.00103135
0.000275353
0.000741987
0.000279925
0.000445001
0.000141882
0.000280807
2.80441e-05
0.00287345
5.72993e-08
5.65028e-05
0.00283563
8.46219e-05
0.00277022
0.000111941
0.00267573
0.000138101
0.0025524
0.000162777
0.00240135
0.000185679
0.00222413
0.000206544
0.00202262
0.000225131
0.00179901
0.000241226
0.00155572
0.000254656
0.00129533
0.000265236
0.00102077
0.000272827
0.000734401
0.000277343
0.000440493
0.000140931
0.000278315
2.77826e-05
0.0028456
6.29632e-08
5.59826e-05
0.00280743
8.3846e-05
0.00274235
0.000110917
0.00264866
0.000136838
0.00252647
0.00016129
0.0023769
0.000183984
0.00220143
0.000204658
0.00200194
0.000223075
0.00178059
0.000239023
0.00153976
0.000252328
0.00128202
0.000262815
0.00101028
0.00027033
0.000726876
0.000274797
0.000436012
0.000139867
0.000275837
2.75235e-05
0.00281801
6.84777e-08
5.5467e-05
0.00277949
8.3077e-05
0.00271474
0.000109902
0.00262184
0.000135587
0.00250079
0.000159816
0.00235267
0.000182303
0.00217894
0.000202789
0.00198146
0.000221038
0.00176234
0.000236841
0.00152396
0.000250022
0.00126884
0.000260415
0.000999889
0.000267858
0.000719439
0.000272281
0.000431598
0.000138793
0.000273375
2.72668e-05
0.00279067
7.39241e-08
5.49561e-05
0.0027518
8.23149e-05
0.00268738
0.000108896
0.00259526
0.000134347
0.00247534
0.000158356
0.00232866
0.000180638
0.00215666
0.000200937
0.00196116
0.00021902
0.00174426
0.000234677
0.0015083
0.000247737
0.00125578
0.000258035
0.000989583
0.000265411
0.000712055
0.000269792
0.000427203
0.000137633
0.00027093
2.70123e-05
0.00276358
7.93839e-08
5.44497e-05
0.00272436
8.15596e-05
0.00266027
0.000107898
0.00256892
0.000133118
0.00245012
0.000156908
0.00230487
0.000178988
0.00213458
0.000199102
0.00194105
0.00021702
0.00172634
0.000232534
0.00149279
0.000245473
0.00124285
0.000255677
0.000979383
0.000262986
0.000704754
0.000267329
0.00042287
0.000136482
0.000268501
2.67601e-05
0.00273673
8.49065e-08
5.39479e-05
0.00269718
8.0811e-05
0.00263341
0.00010691
0.00254282
0.000131901
0.00242512
0.000155474
0.0022813
0.000177353
0.0021127
0.000197283
0.00192111
0.000215038
0.00170858
0.00023041
0.00147741
0.000243229
0.00123002
0.00025334
0.000969265
0.000260583
0.000697503
0.000264889
0.000418551
0.000135261
0.000266089
2.65102e-05
0.00271013
9.05427e-08
5.34504e-05
0.00267024
8.00691e-05
0.00260679
0.000105931
0.00251696
0.000130694
0.00240036
0.000154052
0.00225794
0.000175732
0.00209102
0.000195481
0.00190137
0.000213074
0.00169099
0.000228306
0.00146218
0.000241006
0.00121733
0.000251024
0.000959251
0.000258202
0.000690332
0.000262472
0.000414291
0.00013406
0.000263694
2.62624e-05
0.00268377
9.63104e-08
5.29575e-05
0.00264354
7.93338e-05
0.00258042
0.00010496
0.00249133
0.000129498
0.00237582
0.000152644
0.00223479
0.000174126
0.00206954
0.000193695
0.00188179
0.000211127
0.00167356
0.000226221
0.00144709
0.000238803
0.00120474
0.000248729
0.000949319
0.000255843
0.00068321
0.000260077
0.000410045
0.000132804
0.000261314
2.60168e-05
0.00265765
1.02211e-07
5.24688e-05
0.00261709
7.8605e-05
0.00255428
0.000103998
0.00246594
0.000128312
0.00235151
0.000151248
0.00221186
0.000172535
0.00204825
0.000191925
0.00186241
0.000209199
0.00165629
0.000224154
0.00143213
0.000236621
0.00119228
0.000246455
0.000939489
0.000253505
0.000676167
0.000257704
0.000405856
0.000131576
0.000258952
2.57733e-05
0.00263177
1.08228e-07
5.19846e-05
0.00259088
7.78828e-05
0.00252838
0.000103045
0.00244078
0.000127138
0.00232742
0.000149865
0.00218913
0.000170957
0.00202716
0.000190172
0.00184319
0.000207287
0.00163917
0.000222107
0.00141731
0.000234459
0.00117992
0.000244202
0.00092974
0.000251189
0.000669173
0.000255353
0.000401682
0.000130303
0.000256608
2.5532e-05
0.00260612
1.14327e-07
5.15046e-05
0.0025649
7.7167e-05
0.00250272
0.0001021
0.00241584
0.000125974
0.00230354
0.000148494
0.00216661
0.000169395
0.00200626
0.000188434
0.00182415
0.000205394
0.00162221
0.000220078
0.00140263
0.000232316
0.00116768
0.00024197
0.000920091
0.000248894
0.000662255
0.000253023
0.000397563
0.000129063
0.000254283
2.52928e-05
0.00258071
1.2047e-07
5.10289e-05
0.00253917
7.64576e-05
0.00247729
0.000101163
0.00239114
0.00012482
0.00227988
0.000147135
0.00214429
0.000167846
0.00198554
0.000186712
0.00180528
0.000203517
0.0016054
0.000218067
0.00138808
0.000230193
0.00115555
0.000239758
0.000910521
0.000246621
0.000655385
0.000250715
0.000393458
0.000127783
0.000251977
2.50556e-05
0.00255553
1.2662e-07
5.05574e-05
0.00251367
7.57546e-05
0.00245209
0.000100235
0.00236666
0.000123677
0.00225644
0.000145789
0.00212218
0.000166311
0.00196502
0.000185005
0.00178659
0.000201657
0.00158875
0.000216075
0.00137366
0.00022809
0.00114354
0.000237566
0.000901049
0.000244368
0.000648591
0.000248428
0.000389408
0.00012654
0.000249691
2.48205e-05
0.00253058
1.32739e-07
5.00901e-05
0.0024884
7.50578e-05
0.00242712
9.93158e-05
0.0023424
0.000122544
0.00223322
0.000144455
0.00210027
0.00016479
0.00194469
0.000183314
0.00176806
0.000199814
0.00157225
0.0002141
0.00135937
0.000226006
0.00113163
0.000235395
0.000891654
0.000242136
0.000641843
0.000246162
0.000385371
0.00012526
0.000247425
2.45875e-05
0.00250585
1.38804e-07
4.96269e-05
0.00246336
7.43673e-05
0.00240238
9.84044e-05
0.00231836
0.000121421
0.0022102
0.000143132
0.00207856
0.000163283
0.00192454
0.000181638
0.00174971
0.000197988
0.0015559
0.000212144
0.00134522
0.000223941
0.00111984
0.000233244
0.000882356
0.000239925
0.00063517
0.000243918
0.000381389
0.000124018
0.000245179
2.43565e-05
0.00248135
1.44796e-07
4.91679e-05
0.00243855
7.36829e-05
0.00237787
9.75013e-05
0.00229454
0.000120308
0.00218739
0.000141822
0.00205704
0.000161789
0.00190457
0.000179977
0.00173152
0.000196178
0.0015397
0.000210205
0.00133119
0.000221894
0.00110815
0.000231113
0.000873132
0.000237734
0.000628542
0.000241693
0.000377419
0.000122742
0.000242952
2.41275e-05
0.00245707
1.50706e-07
4.87129e-05
0.00241396
7.30047e-05
0.00235358
9.66062e-05
0.00227094
0.000119206
0.00216479
0.000140524
0.00203573
0.000160309
0.00188479
0.000178332
0.0017135
0.000194385
0.00152365
0.000208284
0.00131729
0.000219867
0.00109657
0.000229001
0.000864003
0.000235563
0.000621986
0.00023949
0.000373502
0.000121505
0.000240745
2.39006e-05
0.00243301
1.56526e-07
4.8262e-05
0.0023896
7.23326e-05
0.00232951
9.57191e-05
0.00224755
0.000118113
0.0021424
0.000139237
0.0020146
0.000158842
0.00186518
0.000176701
0.00169564
0.000192608
0.00150774
0.000206381
0.00130352
0.000217858
0.00108509
0.000226908
0.000854947
0.000233413
0.000615475
0.000237307
0.000369599
0.000120237
0.000238558
2.36757e-05
0.00240918
1.62253e-07
4.78152e-05
0.00236546
7.16664e-05
0.00230566
9.48401e-05
0.00222438
0.00011703
0.00212021
0.000137962
0.00199367
0.000157389
0.00184575
0.000175085
0.00167794
0.000190847
0.00149198
0.000204494
0.00128987
0.000215867
0.00107372
0.000224835
0.000845983
0.000231282
0.000609036
0.000235143
0.000365748
0.000119011
0.000236389
2.34527e-05
0.00238555
1.67882e-07
4.73723e-05
0.00234154
7.10063e-05
0.00228202
9.39689e-05
0.00220142
0.000115957
0.00209822
0.000136698
0.00197293
0.000155948
0.0018265
0.000173484
0.00166041
0.000189102
0.00147636
0.000202625
0.00127635
0.000213894
0.00106245
0.000222781
0.000837091
0.000229171
0.00060264
0.000233
0.000361909
0.000117754
0.00023424
2.32318e-05
0.00236215
1.73411e-07
4.69334e-05
0.00231784
7.03521e-05
0.0022586
9.31056e-05
0.00217867
0.000114893
0.00207643
0.000135446
0.00195238
0.000154521
0.00180743
0.000171897
0.00164303
0.000187373
0.00146089
0.000200773
0.00126295
0.000211939
0.00105129
0.000220746
0.00082829
0.000227079
0.000596313
0.000230876
0.000358122
0.00011654
0.000232109
2.30128e-05
0.00233896
1.78835e-07
4.64985e-05
0.00229435
6.97038e-05
0.0022354
9.225e-05
0.00215612
0.000113839
0.00205484
0.000134205
0.00193201
0.000153107
0.00178852
0.000170324
0.00162581
0.00018566
0.00144555
0.000198938
0.00124967
0.000210003
0.00104022
0.000218729
0.000819558
0.000225007
0.00059003
0.000228772
0.000354348
0.000115297
0.000229998
2.27959e-05
0.00231598
1.84158e-07
4.60674e-05
0.00227108
6.90613e-05
0.0022124
9.14022e-05
0.00213378
0.000112795
0.00203345
0.000132975
0.00191183
0.000151705
0.0017698
0.000168766
0.00160876
0.000183962
0.00143036
0.000197119
0.00123651
0.000208083
0.00102926
0.000216731
0.000810916
0.000222953
0.000583815
0.000226687
0.000350624
0.000114097
0.000227905
2.25808e-05
0.00229321
1.89382e-07
4.56403e-05
0.00224802
6.84246e-05
0.00218962
9.05621e-05
0.00211164
0.00011176
0.00201225
0.000131757
0.00189183
0.000150316
0.00175124
0.000167222
0.00159185
0.000182279
0.00141529
0.000195317
0.00122347
0.000206182
0.00101839
0.000214751
0.000802342
0.000220918
0.000577641
0.00022462
0.000346913
0.000112869
0.000225832
2.23677e-05
0.00227064
1.94525e-07
4.5217e-05
0.00222517
6.77937e-05
0.00216704
8.97295e-05
0.00208971
0.000110735
0.00199125
0.000130549
0.00187202
0.00014894
0.00173285
0.000165692
0.0015751
0.000180612
0.00140038
0.000193531
0.00121056
0.000204297
0.00100763
0.000212789
0.000793855
0.000218902
0.000571536
0.000222573
0.000343251
0.000111683
0.000223777
2.21566e-05
0.00224829
1.99605e-07
4.47975e-05
0.00220253
6.71684e-05
0.00214467
8.89044e-05
0.00206797
0.000109718
0.00197043
0.000129353
0.00185238
0.000147576
0.00171462
0.000164175
0.0015585
0.00017896
0.00138559
0.000191762
0.00119775
0.00020243
0.000996953
0.000210845
0.000785435
0.000216904
0.000565471
0.000220544
0.000339602
0.000110471
0.00022174
2.19473e-05
0.00222614
2.04649e-07
4.43818e-05
0.0021801
6.65489e-05
0.0021225
8.80868e-05
0.00204643
0.000108711
0.00194981
0.000128167
0.00183293
0.000146224
0.00169657
0.000162673
0.00154205
0.000177323
0.00137094
0.000190008
0.00118507
0.00020058
0.000986385
0.000208919
0.000777101
0.000214925
0.000559472
0.000218534
0.000336003
0.000109301
0.000219722
2.174e-05
0.00220419
2.09685e-07
4.39698e-05
0.00215787
6.59349e-05
0.00210054
8.72766e-05
0.00202509
0.000107713
0.00192937
0.000126992
0.00181365
0.000144885
0.00167867
0.000161184
0.00152575
0.000175701
0.00135642
0.000188271
0.0011725
0.000198747
0.000975905
0.000207011
0.000768833
0.000212963
0.000553514
0.000216542
0.000332414
0.000108104
0.000217722
2.15345e-05
0.00218244
2.14746e-07
4.35616e-05
0.00213584
6.53265e-05
0.00207877
8.64738e-05
0.00200394
0.000106724
0.00190912
0.000125827
0.00179455
0.000143557
0.00166094
0.000159708
0.0015096
0.000174094
0.00134204
0.000186549
0.00116005
0.00019693
0.000965528
0.00020512
0.000760648
0.00021102
0.000547621
0.000214568
0.000328875
0.000106949
0.000215741
2.13308e-05
0.00216089
2.19855e-07
4.31571e-05
0.00211402
6.47235e-05
0.00205721
8.56782e-05
0.00198299
0.000105744
0.00188906
0.000124674
0.00177562
0.000142242
0.00164337
0.000158246
0.00149359
0.000172501
0.00132778
0.000184843
0.0011477
0.000195131
0.000955237
0.000203246
0.000752528
0.000209094
0.000541768
0.000212613
0.000325348
0.000105769
0.000213777
2.1129e-05
0.00213953
2.25034e-07
4.27562e-05
0.00209239
6.41261e-05
0.00203584
8.48898e-05
0.00196222
0.000104773
0.00186917
0.00012353
0.00175686
0.000140939
0.00162597
0.000156798
0.00147774
0.000170923
0.00131366
0.000183153
0.00113547
0.000193347
0.000945047
0.000201389
0.000744491
0.000207185
0.000535979
0.000210675
0.000321868
0.00010463
0.000211831
2.09291e-05
0.00211837
2.3029e-07
4.2359e-05
0.00207096
6.3534e-05
0.00201466
8.41085e-05
0.00194165
0.000103811
0.00184947
0.000122397
0.00173827
0.000139648
0.00160871
0.000155362
0.00146202
0.000169359
0.00129966
0.000181478
0.00112335
0.00019158
0.000934942
0.00019955
0.000736517
0.000205295
0.000530228
0.000208754
0.0003184
0.000103466
0.000209902
2.07309e-05
0.00209741
2.3563e-07
4.19653e-05
0.00204972
6.29473e-05
0.00199368
8.33344e-05
0.00192126
0.000102857
0.00182995
0.000121274
0.00171986
0.000138368
0.00159162
0.00015394
0.00144645
0.000167809
0.00128579
0.000179819
0.00111134
0.000189829
0.000924935
0.000197727
0.000728623
0.000203421
0.000524541
0.000206851
0.00031498
0.000102344
0.000207991
2.05345e-05
0.00207663
2.41044e-07
4.15752e-05
0.00202868
6.23659e-05
0.00197289
8.25672e-05
0.00190106
0.000101912
0.0018106
0.000120162
0.00170161
0.0001371
0.00157468
0.00015253
0.00143102
0.000166274
0.00127205
0.000178174
0.00109944
0.000188094
0.000915012
0.000195921
0.000720792
0.000201565
0.000518891
0.000204966
0.000311571
0.000101197
0.000206097
2.03398e-05
0.00205604
2.46521e-07
4.11887e-05
0.00200783
6.17898e-05
0.00195229
8.1807e-05
0.00188104
0.000100976
0.00179143
0.000119059
0.00168353
0.000135843
0.0015579
0.000151133
0.00141573
0.000164752
0.00125843
0.000176545
0.00108765
0.000186375
0.000905185
0.000194132
0.00071304
0.000199726
0.000513304
0.000203097
0.000308209
0.000100092
0.00020422
2.01469e-05
0.00203565
2.52043e-07
4.08056e-05
0.00198718
6.12189e-05
0.00193187
8.10536e-05
0.00186121
0.000100048
0.00177244
0.000117967
0.00166561
0.000134598
0.00154127
0.000149749
0.00140058
0.000163245
0.00124493
0.00017493
0.00107596
0.000184672
0.00089544
0.000192359
0.000705349
0.000197903
0.000507754
0.000201246
0.000304857
9.89624e-05
0.00020236
1.99557e-05
0.00201543
2.57594e-07
4.0426e-05
0.00196671
6.06531e-05
0.00191165
8.03071e-05
0.00184156
9.91285e-05
0.00175362
0.000116884
0.00164785
0.000133365
0.00152479
0.000148378
0.00138557
0.000161751
0.00123156
0.000173331
0.00106439
0.000182984
0.000885791
0.000190602
0.000697736
0.000196097
0.000502266
0.000199411
0.000301553
9.78742e-05
0.000200517
1.97662e-05
0.0019954
2.63154e-07
4.00498e-05
0.00194642
6.00925e-05
0.0018916
7.95674e-05
0.00182208
9.82173e-05
0.00173497
0.000115812
0.00163026
0.000132142
0.00150846
0.000147019
0.00137069
0.000160271
0.00121831
0.000171746
0.00105291
0.000181312
0.000876221
0.000188861
0.000690182
0.000194308
0.000496814
0.000197594
0.000298259
9.6762e-05
0.00019869
1.95784e-05
0.00197556
2.68715e-07
3.9677e-05
0.00192632
5.95369e-05
0.00187174
7.88344e-05
0.00180278
9.73145e-05
0.00171649
0.000114749
0.00161282
0.000130931
0.00149228
0.000145673
0.00135595
0.000158804
0.00120518
0.000170175
0.00104154
0.000179655
0.000866745
0.000187137
0.000682705
0.000192535
0.000491422
0.000195793
0.000295011
9.56908e-05
0.000196881
1.93923e-05
0.00195589
2.74262e-07
3.93075e-05
0.00190641
5.89864e-05
0.00185206
7.8108e-05
0.00178366
9.64198e-05
0.00169817
0.000113695
0.00159555
0.00012973
0.00147624
0.000144338
0.00134134
0.000157351
0.00119216
0.000168619
0.00103027
0.000178013
0.000857347
0.000185428
0.000675286
0.000190778
0.000486066
0.000194008
0.000291773
9.45958e-05
0.000195087
1.92078e-05
0.0019364
2.79794e-07
3.89414e-05
0.00188668
5.84408e-05
0.00183257
7.73882e-05
0.00176471
9.55332e-05
0.00168003
0.000112652
0.00157843
0.000128541
0.00146035
0.000143016
0.00132686
0.000155911
0.00117927
0.000167077
0.00101911
0.000176386
0.000848042
0.000183734
0.000667943
0.000189038
0.000480769
0.00019224
0.000288581
9.35414e-05
0.000193311
1.9025e-05
0.00191709
2.85306e-07
3.85786e-05
0.00186712
5.79002e-05
0.00181324
7.66749e-05
0.00174594
9.46548e-05
0.00166205
0.000111617
0.00156147
0.000127362
0.00144461
0.000141706
0.00131252
0.000154484
0.00116649
0.000165549
0.00100804
0.000174775
0.000838812
0.000182057
0.000660657
0.000187313
0.000475507
0.000190487
0.000285399
9.24634e-05
0.00019155
1.88437e-05
0.00189796
2.90804e-07
3.8219e-05
0.00184775
5.73645e-05
0.0017941
7.59681e-05
0.00172734
9.37842e-05
0.00164423
0.000110593
0.00154466
0.000126194
0.00142901
0.000140408
0.00129831
0.00015307
0.00115383
0.000164035
0.000997078
0.000173178
0.000829674
0.000180394
0.000653445
0.000185604
0.000470304
0.000188751
0.000282262
9.14254e-05
0.000189806
1.86641e-05
0.001879
2.96288e-07
3.78627e-05
0.00182855
5.68336e-05
0.00177513
7.52677e-05
0.0017089
9.29216e-05
0.00162658
0.000109577
0.001528
0.000125037
0.00141354
0.000139122
0.00128422
0.000151669
0.00114128
0.000162535
0.000986209
0.000171595
0.00082061
0.000178747
0.000646288
0.000183911
0.000465135
0.000187031
0.000279134
9.0364e-05
0.000188077
1.8486e-05
0.00186021
3.01766e-07
3.75095e-05
0.00180952
5.63075e-05
0.00175633
7.45736e-05
0.00169064
9.20669e-05
0.00160909
0.000108571
0.0015115
0.000123891
0.00139823
0.000137848
0.00127026
0.000150281
0.00112885
0.000161049
0.000975445
0.000170027
0.000811635
0.000177116
0.000639205
0.000182234
0.000460023
0.000185326
0.000276051
8.93423e-05
0.000186364
1.83095e-05
0.00184159
3.07241e-07
3.71596e-05
0.00179067
5.57861e-05
0.0017377
7.38859e-05
0.00167254
9.12199e-05
0.00159175
0.000107574
0.00149514
0.000122754
0.00138304
0.000136585
0.00125643
0.000148906
0.00111653
0.000159576
0.000964772
0.000168474
0.000802734
0.000175499
0.000632176
0.000180571
0.000454945
0.000183637
0.000272977
8.82976e-05
0.000184667
1.81346e-05
0.00182314
3.12721e-07
3.68128e-05
0.001772
5.52695e-05
0.00171925
7.32044e-05
0.0016546
9.03806e-05
0.00157458
0.000106586
0.00147894
0.000121629
0.001368
0.000135334
0.00124273
0.000147543
0.00110432
0.000158117
0.000954201
0.000166935
0.00079392
0.000173896
0.000625219
0.000178924
0.000449924
0.000181964
0.000269948
8.72922e-05
0.000182985
1.79612e-05
0.00180486
3.18207e-07
3.64691e-05
0.00175349
5.47576e-05
0.00170096
7.25291e-05
0.00163683
8.9549e-05
0.00155756
0.000105607
0.00146288
0.000120513
0.00135309
0.000134094
0.00122915
0.000146193
0.00109222
0.000156671
0.00094372
0.00016541
0.000785179
0.000172309
0.000618316
0.000177293
0.000444935
0.000180306
0.000266926
8.62639e-05
0.000181319
1.77894e-05
0.00178675
3.23704e-07
3.61285e-05
0.00173515
5.42503e-05
0.00168283
7.18599e-05
0.00161922
8.8725e-05
0.00154069
0.000104637
0.00144697
0.000119408
0.00133833
0.000132866
0.00121569
0.000144855
0.00108024
0.000155239
0.000933339
0.000163899
0.000776523
0.000170736
0.000611483
0.000175676
0.000440003
0.000178663
0.000263949
8.52747e-05
0.000179668
1.7619e-05
0.0017688
3.29212e-07
3.57909e-05
0.00171698
5.37476e-05
0.00166488
7.11968e-05
0.00160177
8.79084e-05
0.00152398
0.000103676
0.0014312
0.000118313
0.00132369
0.000131648
0.00120235
0.000143529
0.00106835
0.00015382
0.000923046
0.000162401
0.000767938
0.000169178
0.000604702
0.000174074
0.000435102
0.000177035
0.00026098
8.4263e-05
0.000178032
1.74502e-05
0.00175102
3.34734e-07
3.54564e-05
0.00169897
5.32494e-05
0.00164708
7.05397e-05
0.00158448
8.70993e-05
0.00150742
0.000102724
0.00141558
0.000117227
0.00130918
0.000130442
0.00118914
0.000142216
0.00105658
0.000152413
0.000912852
0.000160918
0.000759437
0.000167634
0.000597991
0.000172486
0.000430256
0.000175422
0.000258054
8.329e-05
0.000176411
1.72829e-05
0.00173339
3.40266e-07
3.51249e-05
0.00168113
5.27558e-05
0.00162945
6.98886e-05
0.00156735
8.62976e-05
0.00149101
0.00010178
0.00140009
0.000116152
0.00129481
0.000129247
0.00117604
0.000140915
0.00104491
0.00015102
0.000902744
0.000159448
0.000751005
0.000166104
0.000591331
0.000170914
0.000425442
0.000173824
0.000255136
8.22946e-05
0.000174805
1.7117e-05
0.00171593
3.45808e-07
3.47965e-05
0.00166345
5.22666e-05
0.00161198
6.92435e-05
0.00155037
8.55032e-05
0.00147475
0.000100845
0.00138475
0.000115087
0.00128057
0.000128063
0.00116307
0.000139625
0.00103335
0.000149639
0.000892733
0.000157992
0.000742656
0.000164589
0.000584739
0.000169355
0.000420682
0.00017224
0.000252261
8.13374e-05
0.000173213
1.69526e-05
0.00169863
3.51355e-07
3.44709e-05
0.00164593
5.17819e-05
0.00159467
6.86042e-05
0.00153355
8.4716e-05
0.00145864
9.99183e-05
0.00136955
0.000114031
0.00126646
0.00012689
0.00115021
0.000138347
0.00102189
0.000148272
0.000882806
0.000156549
0.000734375
0.000163087
0.000578197
0.000167811
0.000415952
0.000170671
0.000249394
8.03581e-05
0.000171636
1.67897e-05
0.00168148
3.56905e-07
3.41483e-05
0.00162857
5.13016e-05
0.00157752
6.79707e-05
0.00151688
8.3936e-05
0.00144267
9.90003e-05
0.00135449
0.000112985
0.00125247
0.000125728
0.00113747
0.000137082
0.00101054
0.000146916
0.000872974
0.00015512
0.000726176
0.000161599
0.000571723
0.000166282
0.000411276
0.000169117
0.000246568
7.94166e-05
0.000170074
1.66282e-05
0.00166449
3.62451e-07
3.38287e-05
0.00161137
5.08256e-05
0.00156052
6.7343e-05
0.00150036
8.31632e-05
0.00142685
9.80907e-05
0.00133956
0.000111949
0.00123861
0.000124576
0.00112484
0.000135827
0.000999289
0.000145573
0.000863226
0.000153703
0.000718043
0.000160125
0.000565297
0.000164766
0.000406629
0.000167576
0.00024375
7.8453e-05
0.000168526
1.64682e-05
0.00164765
3.6799e-07
3.35119e-05
0.00159433
5.0354e-05
0.00154368
6.67211e-05
0.001484
8.23974e-05
0.00141118
9.71894e-05
0.00132477
0.000110922
0.00122488
0.000123435
0.00111233
0.000134585
0.000988142
0.000144243
0.000853571
0.0001523
0.00070999
0.000158664
0.000558938
0.000163264
0.000402035
0.00016605
0.000240974
7.75266e-05
0.000166992
1.63096e-05
0.00163097
3.73515e-07
3.3198e-05
0.00157744
4.98867e-05
0.00152699
6.61048e-05
0.00146778
8.16387e-05
0.00139564
9.62964e-05
0.00131011
0.000109904
0.00121127
0.000122305
0.00109992
0.000133353
0.000977091
0.000142925
0.000843997
0.000150909
0.000702002
0.000157217
0.000552627
0.000161777
0.00039747
0.000164538
0.000238204
7.65783e-05
0.000165473
1.61524e-05
0.00161444
3.79021e-07
3.28869e-05
0.00156071
4.94236e-05
0.00151045
6.54941e-05
0.00145171
8.08868e-05
0.00138025
9.54116e-05
0.00129559
0.000108896
0.00119779
0.000121184
0.00108764
0.000132134
0.000966144
0.000141619
0.000834515
0.000149532
0.000694093
0.000155783
0.00054638
0.000160302
0.000392957
0.00016304
0.000235476
7.56669e-05
0.000163967
1.59966e-05
0.00159806
3.84502e-07
3.25787e-05
0.00154412
4.89648e-05
0.00149407
6.4889e-05
0.00143578
8.01419e-05
0.001365
9.45348e-05
0.00128119
0.000107897
0.00118443
0.000120074
0.00107546
0.000130925
0.000955291
0.000140325
0.000825112
0.000148167
0.000686248
0.000154362
0.000540181
0.000158842
0.000388472
0.000161556
0.000232754
7.47336e-05
0.000162476
1.58422e-05
0.00158182
3.89954e-07
3.22732e-05
0.00152769
4.85101e-05
0.00147783
6.42895e-05
0.00142
7.94037e-05
0.00134988
9.36662e-05
0.00126693
0.000106908
0.00117119
0.000118975
0.00106339
0.000129727
0.000944541
0.000139043
0.0008158
0.000146815
0.000678479
0.000152955
0.000534045
0.000157395
0.000384039
0.000160085
0.000230073
7.38367e-05
0.000160998
1.56892e-05
0.00156574
3.9537e-07
3.19705e-05
0.00151141
4.80595e-05
0.00146174
6.36954e-05
0.00140437
7.86724e-05
0.00133491
9.28054e-05
0.0012528
0.000105927
0.00115806
0.000117885
0.00105143
0.000128541
0.000933883
0.000137772
0.000806566
0.000145475
0.000670774
0.00015156
0.000527956
0.000155961
0.000379633
0.000158628
0.000227398
7.29183e-05
0.000159533
1.55376e-05
0.0015498
4.00749e-07
3.16706e-05
0.00149528
4.76131e-05
0.0014458
6.31068e-05
0.00138887
7.79477e-05
0.00132007
9.19526e-05
0.00123879
0.000104956
0.00114506
0.000116805
0.00103959
0.000127365
0.000923326
0.000136514
0.00079742
0.000144147
0.000663145
0.000150179
0.000521929
0.000154541
0.000375278
0.000157185
0.000224763
7.20358e-05
0.000158083
1.53873e-05
0.00153401
4.06084e-07
3.13734e-05
0.00147929
4.71708e-05
0.00143
6.25235e-05
0.00137352
7.72297e-05
0.00130536
9.11077e-05
0.00122491
0.000103993
0.00113217
0.000115736
0.00102784
0.0001262
0.000912859
0.000135267
0.000788351
0.000142832
0.000655576
0.00014881
0.000515948
0.000153133
0.000370949
0.000155755
0.000222134
7.1132e-05
0.000156645
1.52384e-05
0.00151836
4.11374e-07
3.10789e-05
0.00146345
4.67325e-05
0.00141435
6.19456e-05
0.00135831
7.65183e-05
0.00129079
9.02705e-05
0.00121116
0.000103039
0.00111941
0.000114676
0.00101621
0.000125047
0.000902491
0.000134032
0.000779369
0.000141529
0.000648083
0.000147454
0.000510028
0.000151739
0.00036667
0.000154338
0.000219545
7.02638e-05
0.000155221
1.50909e-05
0.00150285
4.16615e-07
3.07871e-05
0.00144776
4.62982e-05
0.00139884
6.1373e-05
0.00134323
7.58134e-05
0.00127635
8.9441e-05
0.00119753
0.000102094
0.00110675
0.000113626
0.00100467
0.000123903
0.000892212
0.000132808
0.000770462
0.000140238
0.000640649
0.00014611
0.000504152
0.000150358
0.000362417
0.000152934
0.000216962
6.93745e-05
0.00015381
1.49446e-05
0.00148748
4.21807e-07
3.0498e-05
0.0014322
4.58679e-05
0.00138347
6.08057e-05
0.0013283
7.5115e-05
0.00126204
8.86191e-05
0.00118403
0.000101158
0.00109421
0.000112586
0.000993248
0.00012277
0.00088203
0.000131595
0.00076164
0.000138959
0.000633289
0.000144779
0.000498337
0.000148989
0.000358214
0.000151543
0.000214417
6.85205e-05
0.000152412
1.47998e-05
0.00147226
4.26946e-07
3.02114e-05
0.00141679
4.54415e-05
0.00136824
6.02435e-05
0.00131349
7.4423e-05
0.00124786
8.78048e-05
0.00117065
0.00010023
0.00108179
0.000111555
0.000981921
0.000121648
0.000871935
0.000130394
0.000752893
0.000137692
0.000625988
0.00014346
0.000492565
0.000147633
0.000354036
0.000150165
0.000211878
6.76454e-05
0.000151027
1.46562e-05
0.00145717
4.32035e-07
2.99276e-05
0.00140152
4.5019e-05
0.00135314
5.96865e-05
0.00129883
7.37374e-05
0.00123381
8.6998e-05
0.00115739
9.93114e-05
0.00106948
0.000110534
0.0009707
0.000120536
0.000861935
0.000129203
0.000744228
0.000136436
0.000618759
0.000142153
0.000486853
0.00014629
0.000349905
0.000148799
0.000209377
6.68052e-05
0.000149655
1.45139e-05
0.00144222
4.37068e-07
2.96463e-05
0.00138639
4.46005e-05
0.00133819
5.91347e-05
0.00128429
7.30581e-05
0.00121988
8.61987e-05
0.00114425
9.84008e-05
0.00105727
0.000109522
0.000959577
0.000119435
0.000852021
0.000128024
0.000735637
0.000135193
0.000611587
0.000140859
0.000481184
0.000144959
0.000345801
0.000147447
0.000206882
6.5944e-05
0.000148295
1.4373e-05
0.0014274
4.42049e-07
2.93675e-05
0.00137139
4.41857e-05
0.00132337
5.85879e-05
0.00126989
7.2385e-05
0.00120609
8.54067e-05
0.00113123
9.74987e-05
0.00104518
0.00010852
0.000948558
0.000118343
0.0008422
0.000126856
0.000727127
0.00013396
0.000604486
0.000139576
0.000475572
0.00014364
0.000341743
0.000146107
0.000204424
6.51172e-05
0.000146948
1.42333e-05
0.00141272
4.46976e-07
2.90914e-05
0.00135653
4.37748e-05
0.00130869
5.80461e-05
0.00125562
7.17182e-05
0.00119241
8.4622e-05
0.00111832
9.66049e-05
0.0010332
0.000107527
0.000937634
0.000117262
0.000832463
0.000125698
0.000718688
0.000132739
0.000597442
0.000138305
0.000470003
0.000142334
0.00033771
0.000144779
0.000201972
6.42696e-05
0.000145614
1.40949e-05
0.00139817
4.51851e-07
2.88178e-05
0.00134181
4.33676e-05
0.00129414
5.75094e-05
0.00124148
7.10575e-05
0.00117887
8.38446e-05
0.00110554
9.57193e-05
0.00102132
0.000106543
0.000926812
0.000116191
0.000822817
0.000124552
0.000710331
0.00013153
0.000590468
0.000137047
0.000464491
0.000141039
0.000333723
0.000143464
0.000199557
6.34559e-05
0.000144292
1.39578e-05
0.00138376
4.56671e-07
2.85466e-05
0.00132722
4.29642e-05
0.00127972
5.69775e-05
0.00122746
7.04029e-05
0.00116544
8.30744e-05
0.00109286
9.4842e-05
0.00100955
0.000105568
0.000916084
0.000115129
0.000813254