/*--------------------------------*- C++ -*----------------------------------*\
  =========                 |
  \\      /  F ield         | OpenFOAM: The Open Source CFD Toolbox
   \\    /   O peration     | Website:  https://openfoam.org
    \\  /    A nd           | Version:  6.0
     \\/     M anipulation  |
\*---------------------------------------------------------------------------*/
FoamFile
{
    version     2.0;
    format      ascii;
    class       volVectorField;
    location    "161";
    object      U;
}
// * * * * * * * * * * * * * * * * * * * * * * * * * * * * * * * * * * * * * //

dimensions      [0 1 -1 0 0 0 0];

internalField   nonuniform List<vector> 
34500
(
(0.999996 8.5612e-06 -4.63302e-17)
(0.999969 -3.42624e-06 -8.13547e-18)
(0.999918 -2.78259e-05 1.4223e-16)
(0.999847 -7.28121e-05 -1.07675e-16)
(0.999765 -0.000142308 3.35621e-17)
(0.999683 -0.000237164 -1.01504e-16)
(0.999611 -0.000354903 -1.01023e-16)
(0.999556 -0.00049301 8.6616e-17)
(0.999524 -0.000647099 1.07302e-16)
(0.999514 -0.000819804 -6.83496e-16)
(0.999531 -0.00100596 -1.04121e-15)
(0.999564 -0.00125613 1.27027e-16)
(0.99962 -0.00150874 4.35016e-16)
(1.00005 -0.00218623 -2.08277e-16)
(0.993206 -0.0062185 7.92585e-17)
(0.999992 2.98363e-05 3.24462e-17)
(0.999942 1.55874e-06 9.76355e-17)
(0.999849 -5.02437e-05 7.17584e-17)
(0.999721 -0.000139861 -3.02234e-16)
(0.999577 -0.000272726 -5.05972e-16)
(0.999434 -0.000448409 -5.50568e-17)
(0.999311 -0.000662336 2.55609e-16)
(0.99922 -0.000909651 -6.77571e-16)
(0.99917 -0.00118162 -1.78731e-16)
(0.999164 -0.00148226 6.8191e-16)
(0.999203 -0.0017967 1.26322e-15)
(0.99928 -0.00221295 -6.29974e-16)
(0.999312 -0.00260994 -9.86316e-16)
(1.00041 -0.00353277 -3.96859e-16)
(0.993042 -0.00770307 5.38019e-16)
(0.999989 5.14094e-05 1.04675e-17)
(0.999944 1.07397e-05 -1.22915e-16)
(0.999862 -5.15347e-05 -1.2517e-16)
(0.999753 -0.000147461 4.55705e-16)
(0.999632 -0.000279891 -2.86169e-17)
(0.999515 -0.000446009 -1.6405e-16)
(0.999417 -0.000641322 9.78444e-17)
(0.999349 -0.000861278 3.84732e-16)
(0.999318 -0.0010976 2.47594e-19)
(0.999326 -0.00135474 -3.93179e-16)
(0.999369 -0.00161519 -7.28553e-16)
(0.999462 -0.00195852 4.14177e-16)
(0.999372 -0.00229139 2.25289e-16)
(1.00063 -0.00296196 1.65243e-16)
(0.995671 -0.0051311 -2.51151e-16)
(0.999985 7.2255e-05 -1.73545e-17)
(0.999946 1.804e-05 -9.02356e-18)
(0.999879 -5.50692e-05 4.83222e-17)
(0.999791 -0.000156311 -3.05408e-16)
(0.999694 -0.000286749 3.72269e-16)
(0.999603 -0.000442196 3.29986e-16)
(0.999529 -0.000619126 -3.99556e-16)
(0.999481 -0.000814091 -4.20026e-16)
(0.999463 -0.00102058 4.35121e-16)
(0.999479 -0.00124493 -4.70717e-16)
(0.999517 -0.001471 -2.44571e-16)
(0.999617 -0.00177297 -3.85747e-16)
(0.999417 -0.00210418 5.4345e-16)
(1.00052 -0.00263909 -4.82668e-17)
(0.997019 -0.0044089 2.20337e-17)
(0.999979 9.26149e-05 -1.70432e-17)
(0.99994 2.33752e-05 1.53314e-16)
(0.999875 -6.48417e-05 6.95565e-17)
(0.99979 -0.000180007 1.69768e-16)
(0.999699 -0.000322913 4.67512e-17)
(0.999613 -0.000488854 -1.58272e-16)
(0.999544 -0.000674909 1.02547e-16)
(0.999501 -0.000878022 2.66379e-16)
(0.999488 -0.00109202 -4.17831e-16)
(0.999508 -0.00132463 -2.311e-16)
(0.999545 -0.00155942 1.00721e-15)
(0.99966 -0.00186982 6.34944e-16)
(0.999407 -0.00223727 -2.90344e-16)
(1.00026 -0.00272378 5.95333e-16)
(0.997639 -0.00433065 -6.00584e-16)
(0.999971 0.000112687 1.83517e-17)
(0.99993 2.83251e-05 -9.48096e-17)
(0.999864 -7.56476e-05 -1.86346e-16)
(0.99978 -0.000206176 -5.29413e-17)
(0.999689 -0.000364089 1.09446e-16)
(0.999605 -0.000544232 -1.08861e-16)
(0.999539 -0.000743718 1.48212e-16)
(0.999501 -0.000959336 1.31233e-16)
(0.999493 -0.0011841 2.91136e-16)
(0.999521 -0.00142581 -1.00308e-16)
(0.999562 -0.00166631 2.87971e-18)
(0.999697 -0.00197346 -3.89742e-16)
(0.999435 -0.0023492 1.836e-17)
(1.00003 -0.00276629 -4.71424e-16)
(0.998031 -0.00398661 7.56513e-17)
(0.999963 0.000132446 3.25541e-18)
(0.999921 3.33967e-05 -3.55874e-17)
(0.999857 -8.50491e-05 -2.90203e-17)
(0.999777 -0.000228363 1.7576e-16)
(0.999692 -0.000397237 -2.20492e-16)
(0.999615 -0.000585976 2.75521e-16)
(0.999558 -0.000791594 -6.19422e-16)
(0.999529 -0.00101084 -3.69985e-16)
(0.99953 -0.00123604 -1.51669e-16)
(0.999568 -0.00147483 6.71779e-16)
(0.999612 -0.00170828 -7.68977e-16)
(0.999763 -0.0019949 2.98483e-16)
(0.999512 -0.00236065 4.57479e-16)
(0.999875 -0.00270079 -9.64211e-17)
(0.998276 -0.00362132 -1.2302e-16)
(0.999953 0.000151856 1.5116e-17)
(0.999911 3.83871e-05 3.2286e-17)
(0.999851 -9.37607e-05 2.50297e-17)
(0.999777 -0.000248402 -1.50882e-16)
(0.999702 -0.000426118 3.28921e-16)
(0.999635 -0.000620697 -1.39623e-16)
(0.999589 -0.000829117 2.01609e-16)
(0.99957 -0.00104834 -1.46324e-16)
(0.99958 -0.00127046 3.97776e-16)
(0.999628 -0.00150338 1.77879e-16)
(0.999673 -0.00172879 2.45004e-16)
(0.999832 -0.00199559 -5.66027e-17)
(0.999606 -0.00235357 -5.0613e-16)
(0.999792 -0.00263795 1.14518e-15)
(0.998446 -0.00337656 1.89766e-16)
(0.999942 0.000170983 -1.12156e-17)
(0.9999 4.32084e-05 9.89515e-17)
(0.999844 -0.000102558 1.50801e-16)
(0.999776 -0.000268591 1.11928e-16)
(0.999709 -0.000455529 -4.8875e-16)
(0.999652 -0.000656672 1.41002e-16)
(0.999615 -0.000868921 3.20819e-16)
(0.999607 -0.0010894 7.72827e-16)
(0.999626 -0.0013102 -3.85629e-16)
(0.999682 -0.00153958 9.01154e-17)
(0.999729 -0.0017606 4.49575e-16)
(0.999892 -0.00201282 -3.2429e-16)
(0.999698 -0.00236473 -1.54534e-16)
(0.99976 -0.00260998 -3.83183e-16)
(0.998608 -0.0031964 8.54029e-17)
(0.999931 0.000189938 4.06837e-17)
(0.999888 4.79779e-05 -8.97328e-17)
(0.999834 -0.000111438 8.85243e-18)
(0.999771 -0.000289191 -1.1019e-16)
(0.999712 -0.000486108 4.10707e-16)
(0.999663 -0.000694987 7.96315e-17)
(0.999636 -0.000912537 2.70336e-16)
(0.999638 -0.00113583 -5.73353e-16)
(0.999666 -0.00135693 4.16148e-17)
(0.99973 -0.00158424 -7.87523e-17)
(0.99978 -0.00180251 -1.39837e-16)
(0.999943 -0.00204186 4.42112e-17)
(0.999787 -0.00238438 5.9427e-16)
(0.999767 -0.00259618 -8.09386e-16)
(0.998776 -0.00304383 -2.73513e-16)
(0.999918 0.000208847 -2.62206e-17)
(0.999874 5.28515e-05 3.52481e-17)
(0.999823 -0.000120157 -1.47529e-16)
(0.999765 -0.000309751 2.49977e-16)
(0.999712 -0.00051701 -3.61642e-16)
(0.999672 -0.000734237 -3.03169e-16)
(0.999654 -0.000957877 -3.38992e-16)
(0.999665 -0.00118477 3.91357e-17)
(0.999702 -0.00140688 -8.14695e-17)
(0.999775 -0.00163248 -4.24905e-16)
(0.999829 -0.00184826 -7.22084e-16)
(0.999991 -0.00207499 2.86385e-16)
(0.99987 -0.00240444 -3.2952e-16)
(0.999801 -0.00258572 9.12816e-16)
(0.998945 -0.00291609 5.4501e-17)
(0.999903 0.000227826 -2.45522e-17)
(0.999858 5.79295e-05 -1.04228e-16)
(0.999809 -0.000128605 1.5074e-16)
(0.999756 -0.000330085 -2.3419e-16)
(0.99971 -0.000547853 7.68885e-17)
(0.999678 -0.000773755 4.54345e-16)
(0.999669 -0.00100398 5.542e-17)
(0.99969 -0.00123505 -6.73906e-17)
(0.999735 -0.00145875 1.81689e-16)
(0.999818 -0.00168295 -1.57076e-16)
(0.999877 -0.00189639 -9.52163e-17)
(1.00004 -0.00211096 -6.69179e-17)
(0.999948 -0.00242467 -2.88176e-16)
(0.99985 -0.00257796 -6.25345e-16)
(0.999113 -0.00280901 1.25838e-17)
(0.999888 0.000246995 -2.1764e-18)
(0.999842 6.3293e-05 1.40489e-16)
(0.999795 -0.000136739 -2.21525e-16)
(0.999746 -0.00035017 8.342e-17)
(0.999707 -0.000578556 -9.35874e-17)
(0.999683 -0.000813323 -1.54818e-16)
(0.999683 -0.00105042 -3.89144e-17)
(0.999713 -0.00128607 3.65294e-16)
(0.999768 -0.00151178 -6.30797e-16)
(0.999859 -0.00173473 4.20749e-16)
(0.999924 -0.00194569 2.20853e-16)
(1.00008 -0.00214838 1.84484e-16)
(1.00002 -0.00244392 7.52281e-16)
(0.999909 -0.00257076 7.34707e-16)
(0.999276 -0.00271586 5.55823e-16)
(0.999872 0.000266461 8.30233e-18)
(0.999823 6.90062e-05 5.28739e-17)
(0.999778 -0.000144529 1.7607e-16)
(0.999734 -0.000369983 5.5779e-17)
(0.999702 -0.000609027 1.70688e-16)
(0.999687 -0.000852655 1.68125e-16)
(0.999696 -0.00109663 -1.18538e-17)
(0.999735 -0.00133687 4.93312e-17)
(0.999799 -0.00156459 9.38572e-16)
(0.9999 -0.00178606 -1.14047e-16)
(0.999973 -0.00199397 5.4306e-16)
(1.00013 -0.00218471 -7.40739e-16)
(1.00009 -0.00246012 1.37502e-16)
(0.999972 -0.00256182 -1.35328e-15)
(0.999431 -0.00263388 -6.24167e-16)
(0.999854 0.00028632 9.9386e-18)
(0.999804 7.51307e-05 -1.17676e-16)
(0.999761 -0.000151934 1.54798e-16)
(0.999721 -0.000389487 -2.24141e-16)
(0.999696 -0.000639183 1.56882e-16)
(0.999689 -0.000891542 2.07272e-17)
(0.999708 -0.00114217 1.95126e-16)
(0.999758 -0.00138675 -2.60194e-16)
(0.999831 -0.00161621 -8.3982e-16)
(0.999942 -0.00183579 2.49573e-16)
(1.00002 -0.00203998 -5.61134e-16)
(1.00017 -0.00221885 1.13086e-16)
(1.00016 -0.00247327 -4.92113e-16)
(1.00004 -0.00255173 2.67357e-16)
(0.999575 -0.00256325 -1.09809e-16)
(0.999835 0.000306645 3.32344e-17)
(0.999783 8.17056e-05 7.18827e-17)
(0.999742 -0.000158944 -3.58971e-16)
(0.999707 -0.000408703 2.8843e-16)
(0.999689 -0.000669086 -2.80035e-16)
(0.999691 -0.000930073 -3.73123e-16)
(0.99972 -0.00118713 -3.83144e-16)
(0.99978 -0.00143576 3.3784e-16)
(0.999863 -0.00166672 7.19536e-16)
(0.999983 -0.00188413 1.6322e-16)
(1.00007 -0.00208424 9.48657e-17)
(1.00022 -0.00225174 7.0251e-17)
(1.00022 -0.00248525 -7.35726e-16)
(1.00011 -0.00254268 6.47927e-17)
(0.999709 -0.00250408 6.39898e-16)
(0.999815 0.000327497 -8.96483e-17)
(0.999761 8.87663e-05 -9.23914e-17)
(0.999721 -0.000165548 3.42864e-17)
(0.999691 -0.000427667 -2.64382e-16)
(0.999681 -0.000698868 -1.79711e-17)
(0.999692 -0.000968517 4.81842e-16)
(0.999731 -0.00123192 5.51011e-17)
(0.999801 -0.00148447 3.04296e-16)
(0.999895 -0.00171684 -6.03414e-16)
(1.00002 -0.00193204 -3.1004e-16)
(1.00012 -0.00212798 4.45339e-16)
(1.00027 -0.00228488 -1.49419e-16)
(1.00029 -0.00249799 4.85517e-16)
(1.00018 -0.00253623 7.54084e-16)
(0.999833 -0.00245527 -6.04926e-17)
(0.999793 0.00034891 2.80847e-17)
(0.999737 9.63306e-05 1.14748e-17)
(0.9997 -0.000171749 1.15624e-16)
(0.999674 -0.000446419 2.25918e-18)
(0.99967 -0.000728667 9.88879e-17)
(0.999691 -0.00100717 -2.89744e-16)
(0.99974 -0.00127705 5.98548e-16)
(0.999822 -0.00153357 -1.53588e-16)
(0.999925 -0.00176741 6.53061e-16)
(1.00006 -0.00198052 -3.41736e-16)
(1.00017 -0.00217233 -5.44364e-16)
(1.00032 -0.00231935 5.25734e-16)
(1.00035 -0.0025126 -8.87572e-16)
(1.00025 -0.00253281 -1.31012e-15)
(0.999951 -0.00241506 -3.3297e-16)
(0.99977 0.000370913 3.12696e-18)
(0.999712 0.000104418 1.94973e-17)
(0.999676 -0.000177528 -3.12162e-17)
(0.999655 -0.000464952 1.5869e-16)
(0.999659 -0.000758533 1.0885e-16)
(0.999688 -0.00104621 -4.26874e-17)
(0.999747 -0.00132283 -3.60783e-16)
(0.99984 -0.00158353 -3.4784e-16)
(0.999954 -0.00181902 -2.3516e-16)
(1.0001 -0.0020302 4.33458e-16)
(1.00022 -0.00221788 3.36004e-16)
(1.00037 -0.00235554 -4.94334e-16)
(1.00041 -0.00252924 1.09947e-15)
(1.00032 -0.00253197 1.38034e-15)
(1.00007 -0.00238136 4.68267e-17)
(0.999746 0.000393507 3.57556e-17)
(0.999686 0.00011303 -4.75946e-17)
(0.999652 -0.000182878 2.29443e-16)
(0.999634 -0.000483241 -4.57013e-17)
(0.999645 -0.000788442 -1.74442e-16)
(0.999683 -0.00108565 7.3962e-17)
(0.999753 -0.00136937 -1.29772e-16)
(0.999856 -0.00163452 2.93687e-16)
(0.999981 -0.00187188 7.72165e-17)
(1.00014 -0.00208127 5.39935e-17)
(1.00027 -0.00226469 -2.57691e-16)
(1.00042 -0.00239319 3.42274e-16)
(1.00047 -0.00254746 1.74672e-16)
(1.00039 -0.00253281 1.56356e-16)
(1.00018 -0.00235233 3.9756e-16)
(0.99972 0.000416692 -1.83814e-17)
(0.999659 0.000122173 2.72453e-17)
(0.999626 -0.000187774 -3.71926e-16)
(0.999612 -0.000501212 -2.37977e-16)
(0.999629 -0.000818269 3.29396e-16)
(0.999677 -0.00112533 -8.91835e-17)
(0.999756 -0.0014165 5.21023e-16)
(0.999871 -0.00168637 -1.41476e-16)
(1.00001 -0.00192573 -7.51524e-18)
(1.00018 -0.00213336 -1.50137e-16)
(1.00032 -0.00231224 3.85667e-16)
(1.00047 -0.00243156 -2.43235e-16)
(1.00054 -0.00256636 -8.00493e-16)
(1.00046 -0.00253428 -1.90863e-16)
(1.00029 -0.00232654 -4.53987e-16)
(0.999693 0.000440449 2.4744e-17)
(0.99963 0.000131831 1.12563e-16)
(0.999598 -0.000192212 3.35221e-16)
(0.999589 -0.000518804 2.60193e-16)
(0.999613 -0.000847861 -3.20755e-17)
(0.999669 -0.001165 -1.30315e-16)
(0.999758 -0.00146385 -5.76794e-16)
(0.999884 -0.00173861 -6.70692e-17)
(1.00003 -0.00198003 -3.42705e-16)
(1.00021 -0.00218584 1.11023e-16)
(1.00036 -0.00235979 -7.06901e-16)
(1.00053 -0.00246974 3.41196e-16)
(1.0006 -0.00258512 1.15316e-15)
(1.00054 -0.00253567 -8.90488e-16)
(1.0004 -0.00230339 5.29036e-16)
(0.999664 0.000464759 -1.99522e-17)
(0.9996 0.000141993 -1.58381e-16)
(0.99957 -0.000196184 -1.91855e-16)
(0.999564 -0.000535958 -9.56984e-17)
(0.999595 -0.000877061 -6.12943e-17)
(0.999659 -0.00120437 8.41572e-17)
(0.999759 -0.00151102 -3.22309e-17)
(0.999896 -0.00179071 -4.42758e-16)
(1.00005 -0.00203414 -1.30341e-16)
(1.00025 -0.00223798 -3.28252e-17)
(1.00041 -0.00240663 6.43422e-16)
(1.00058 -0.00250706 1.07675e-16)
(1.00066 -0.00260328 -9.58717e-16)
(1.00061 -0.00253683 5.09521e-16)
(1.00051 -0.00228289 -1.02379e-16)
(0.999634 0.000489592 1.80233e-17)
(0.999568 0.000152627 9.3123e-17)
(0.99954 -0.000199721 9.23399e-17)
(0.999539 -0.00055267 1.79599e-16)
(0.999576 -0.000905797 -9.78612e-17)
(0.999649 -0.00124326 -2.7529e-17)
(0.99976 -0.00155771 1.98923e-16)
(0.999908 -0.00184229 2.97284e-16)
(1.00008 -0.00208763 -2.14275e-17)
(1.00028 -0.00228938 -3.5905e-16)
(1.00046 -0.00245243 -2.76094e-16)
(1.00063 -0.00254334 -4.85582e-16)
(1.00073 -0.00262095 2.03897e-17)
(1.00069 -0.00253823 2.63791e-16)
(1.00061 -0.00226554 -1.5999e-16)
(0.999602 0.000514919 -9.63697e-18)
(0.999535 0.000163709 -5.51077e-17)
(0.999509 -0.000202854 1.40235e-16)
(0.999512 -0.000568972 1.47089e-17)
(0.999556 -0.000934075 -1.24574e-16)
(0.999639 -0.00128163 1.00467e-16)
(0.999759 -0.00160383 -4.79976e-17)
(0.999919 -0.00189322 2.74105e-16)
(1.0001 -0.00214038 5.06538e-16)
(1.00031 -0.00233998 7.86807e-17)
(1.0005 -0.0024973 2.38259e-16)
(1.00069 -0.00257889 2.42631e-16)
(1.0008 -0.00263868 5.99449e-17)
(1.00077 -0.00254056 -5.42808e-16)
(1.00072 -0.00225174 1.31868e-16)
(0.999569 0.000540704 1.29087e-17)
(0.999501 0.000175199 1.16066e-17)
(0.999477 -0.000205643 -2.86496e-16)
(0.999484 -0.000584949 -1.25173e-16)
(0.999535 -0.000962002 1.75998e-16)
(0.999627 -0.0013196 -2.74756e-17)
(0.999758 -0.00164949 1.83779e-16)
(0.99993 -0.00194365 -2.44126e-16)
(1.00012 -0.00219259 1.39185e-16)
(1.00035 -0.0023901 1.15785e-16)
(1.00055 -0.00254173 1.22257e-16)
(1.00074 -0.00261431 1.5564e-16)
(1.00086 -0.00265718 2.16527e-16)
(1.00085 -0.00254454 3.05127e-17)
(1.00082 -0.00224173 7.75431e-17)
(0.999535 0.000566919 -3.97168e-17)
(0.999465 0.000187073 1.05104e-16)
(0.999443 -0.000208136 1.645e-16)
(0.999455 -0.000600694 -1.05309e-16)
(0.999513 -0.000989721 -6.84683e-17)
(0.999614 -0.00135736 3.89739e-17)
(0.999757 -0.00169494 -2.00212e-16)
(0.99994 -0.00199388 -1.3102e-16)
(1.00015 -0.00224464 -1.72122e-16)
(1.00038 -0.0024402 2.73618e-16)
(1.0006 -0.00258629 -3.79704e-16)
(1.0008 -0.00265025 2.96705e-16)
(1.00093 -0.00267707 1.45425e-16)
(1.00093 -0.00255064 5.44847e-16)
(1.00092 -0.00223538 -4.99414e-16)
(0.9995 0.000593528 1.67589e-17)
(0.999428 0.000199296 -7.91096e-17)
(0.999407 -0.000210393 5.79255e-17)
(0.999424 -0.000616312 1.28129e-16)
(0.99949 -0.0010174 -8.88366e-17)
(0.9996 -0.00139514 -1.50151e-16)
(0.999754 -0.00174046 -7.10979e-17)
(0.999949 -0.00204426 9.79906e-17)
(1.00017 -0.00229695 -4.48297e-16)
(1.00041 -0.00249076 6.61582e-17)
(1.00064 -0.0026315 2.52287e-16)
(1.00085 -0.00268722 -7.05398e-16)
(1.001 -0.00269874 1.42528e-16)
(1.00102 -0.00255907 2.18513e-17)
(1.00102 -0.00223245 3.68167e-16)
(0.999463 0.000620507 -6.37116e-18)
(0.999389 0.000211853 9.69564e-17)
(0.99937 -0.000212445 -9.36792e-17)
(0.999392 -0.000631874 -5.81494e-17)
(0.999465 -0.00104516 -9.27483e-17)
(0.999585 -0.00143312 -4.90518e-17)
(0.999749 -0.00178631 -1.05776e-16)
(0.999957 -0.00209509 7.55279e-17)
(1.00019 -0.00234984 2.90515e-17)
(1.00044 -0.00254212 -3.10486e-16)
(1.00068 -0.00267771 -3.70496e-16)
(1.00091 -0.00272546 4.11159e-16)
(1.00106 -0.00272231 -3.59125e-16)
(1.0011 -0.00256977 -1.14452e-16)
(1.00112 -0.00223243 -1.12764e-17)
(0.999425 0.000647827 -1.92786e-17)
(0.999349 0.00022472 -4.47893e-17)
(0.999332 -0.000214328 3.16359e-17)
(0.999357 -0.000647438 2.25451e-16)
(0.999438 -0.00107311 3.76531e-16)
(0.999568 -0.00147144 3.07417e-16)
(0.999743 -0.00183265 3.35904e-16)
(0.999962 -0.00214655 -2.14318e-16)
(1.00021 -0.00240352 6.84712e-20)
(1.00048 -0.00259447 2.32521e-16)
(1.00073 -0.00272506 4.57987e-17)
(1.00096 -0.00276506 2.52637e-16)
(1.00113 -0.00274773 2.03135e-16)
(1.00118 -0.00258253 -5.32672e-16)
(1.00122 -0.00223491 -3.50018e-16)
(0.999386 0.000675472 9.91902e-18)
(0.999307 0.000237889 -8.09522e-17)
(0.999292 -0.000216047 -1.61938e-16)
(0.999321 -0.000663021 -1.58971e-16)
(0.999409 -0.00110128 1.46113e-17)
(0.999548 -0.00151018 -1.73556e-16)
(0.999735 -0.00187957 -3.77917e-16)
(0.999967 -0.00219875 2.8848e-16)
(1.00022 -0.00245806 2.34654e-16)
(1.0005 -0.00264785 -5.175e-16)
(1.00077 -0.00277356 4.24615e-16)
(1.00101 -0.00280592 -3.09651e-16)
(1.0012 -0.0027748 -1.42816e-16)
(1.00126 -0.00259708 -1.24974e-16)
(1.00132 -0.00223938 1.49106e-16)
(0.999346 0.000703422 3.77576e-17)
(0.999264 0.000251344 1.737e-17)
(0.99925 -0.000217618 8.75853e-17)
(0.999284 -0.000678633 4.06886e-17)
(0.999379 -0.00112968 4.78738e-17)
(0.999527 -0.00154934 3.00162e-16)
(0.999725 -0.0019271 -1.35636e-16)
(0.999969 -0.00225171 1.48228e-16)
(1.00024 -0.00251349 8.51176e-17)
(1.00053 -0.00270224 5.93282e-17)
(1.00081 -0.00282312 1.97704e-16)
(1.00106 -0.00284793 -4.21652e-17)
(1.00126 -0.00280335 9.3762e-18)
(1.00134 -0.0026132 8.71615e-16)
(1.00142 -0.00224556 2.77392e-18)
(0.999304 0.00073167 -3.6649e-17)
(0.99922 0.000265081 -1.26588e-17)
(0.999207 -0.000219033 5.72626e-17)
(0.999245 -0.000694254 -1.74605e-16)
(0.999346 -0.00115829 -2.79689e-16)
(0.999505 -0.00158891 -2.68004e-16)
(0.999714 -0.0019752 2.27097e-16)
(0.99997 -0.00230539 -8.30661e-17)
(1.00025 -0.00256972 9.68761e-18)
(1.00056 -0.00275753 -5.02031e-18)
(1.00085 -0.00287363 -2.73081e-16)
(1.00112 -0.00289091 -2.46885e-16)
(1.00133 -0.00283314 -1.59286e-16)
(1.00142 -0.00263062 2.41884e-17)
(1.00151 -0.00225304 -5.46021e-17)
(0.999262 0.000760208 -1.82962e-17)
(0.999174 0.000279085 4.84288e-17)
(0.999162 -0.000220299 4.76504e-17)
(0.999204 -0.000709872 7.75503e-17)
(0.999313 -0.00118707 1.06078e-16)
(0.99948 -0.00162883 1.67654e-18)
(0.999701 -0.00202383 2.26996e-16)
(0.99997 -0.00235972 -5.06205e-16)
(1.00027 -0.00262669 2.58165e-16)
(1.00058 -0.00281363 2.63337e-16)
(1.00089 -0.00292498 -3.76823e-16)
(1.00117 -0.00293472 7.03972e-16)
(1.00139 -0.00286402 3.70756e-16)
(1.00151 -0.00264918 -6.91301e-16)
(1.00161 -0.0022617 -2.05846e-16)
(0.999218 0.000789042 3.78352e-17)
(0.999127 0.000293352 2.93821e-17)
(0.999115 -0.000221411 4.58817e-18)
(0.999161 -0.000725458 -3.47645e-17)
(0.999277 -0.00121598 2.01676e-17)
(0.999454 -0.00166904 2.84576e-16)
(0.999686 -0.0020729 -4.5874e-17)
(0.999968 -0.00241462 3.24847e-16)
(1.00028 -0.00268431 -4.8074e-17)
(1.00061 -0.00287044 -2.9128e-16)
(1.00093 -0.00297702 6.02845e-16)
(1.00122 -0.00297922 -3.61894e-16)
(1.00146 -0.0028958 -4.90157e-16)
(1.00159 -0.00266869 2.0732e-16)
(1.00171 -0.00227131 3.46901e-16)
(0.999173 0.000818175 -3.1463e-17)
(0.999078 0.000307869 -1.32654e-17)
(0.999067 -0.000222377 -1.72994e-16)
(0.999117 -0.000741003 -8.45519e-17)
(0.99924 -0.00124497 5.20747e-17)
(0.999426 -0.00170948 -2.87287e-16)
(0.99967 -0.00212234 -8.44593e-17)
(0.999965 -0.00247002 2.83121e-16)
(1.00029 -0.00274248 -2.3947e-16)
(1.00063 -0.00292785 7.02363e-17)
(1.00097 -0.00302968 -3.35683e-16)
(1.00127 -0.00302432 1.05636e-17)
(1.00152 -0.0029284 2.65292e-16)
(1.00167 -0.00268909 1.39667e-16)
(1.00181 -0.0022819 -5.44665e-17)
(0.999126 0.000847623 3.00146e-17)
(0.999027 0.000322635 -9.73954e-17)
(0.999018 -0.000223196 8.17626e-17)
(0.999072 -0.000756488 5.35191e-17)
(0.999201 -0.00127402 -4.03557e-17)
(0.999397 -0.00175007 -1.72568e-16)
(0.999653 -0.00217206 5.23279e-17)
(0.999961 -0.00252579 -1.29801e-16)
(1.0003 -0.0028011 -2.1888e-16)
(1.00066 -0.00298574 -2.736e-17)
(1.001 -0.00308283 -4.85111e-16)
(1.00132 -0.00306991 4.96603e-16)
(1.00159 -0.00296171 3.86147e-17)
(1.00175 -0.0027103 -7.97302e-17)
(1.0019 -0.00229342 -7.76268e-18)
(0.999078 0.000877399 -3.68137e-17)
(0.998976 0.000337639 1.00262e-16)
(0.998967 -0.000223884 -2.30334e-17)
(0.999025 -0.000771919 -2.09844e-16)
(0.999162 -0.00130309 -9.99913e-17)
(0.999367 -0.00179079 1.16168e-16)
(0.999634 -0.00222199 -1.70471e-16)
(0.999955 -0.00258187 -1.9097e-16)
(1.00031 -0.00286008 3.25035e-16)
(1.00068 -0.00304405 1.13117e-16)
(1.00104 -0.00313643 5.09012e-16)
(1.00137 -0.00311598 -3.82955e-16)
(1.00166 -0.00299577 1.37668e-16)
(1.00183 -0.00273239 -1.55081e-16)
(1.002 -0.00230604 5.17408e-18)
(0.999029 0.000907529 2.27855e-17)
(0.998922 0.000352884 -5.80196e-17)
(0.998915 -0.000224445 7.20751e-17)
(0.998976 -0.000787297 3.12664e-16)
(0.99912 -0.00133218 1.32692e-16)
(0.999336 -0.00183158 8.23298e-17)
(0.999615 -0.00227208 3.38594e-16)
(0.999949 -0.0026382 1.60924e-16)
(1.00031 -0.00291937 -2.65083e-16)
(1.0007 -0.00310275 4.51736e-16)
(1.00108 -0.00319048 2.51268e-16)
(1.00143 -0.00316257 -2.12719e-16)
(1.00172 -0.00303062 -4.07044e-16)
(1.00191 -0.00275546 -1.58252e-16)
(1.00209 -0.00231985 6.11371e-17)
(0.998979 0.00093803 4.67843e-18)
(0.998867 0.000368366 -1.2361e-16)
(0.998861 -0.000224899 -9.17405e-17)
(0.998927 -0.000802652 -2.15285e-16)
(0.999078 -0.00136132 3.45836e-17)
(0.999303 -0.00187249 -3.3434e-16)
(0.999594 -0.00232235 -3.59468e-16)
(0.999942 -0.00269479 -1.44608e-16)
(1.00032 -0.002979 3.08105e-16)
(1.00073 -0.00316187 -3.2732e-16)
(1.00112 -0.00324507 1.15763e-16)
(1.00148 -0.00320981 2.15261e-16)
(1.00179 -0.00306645 3.26917e-16)
(1.002 -0.00277972 1.9959e-16)
(1.00219 -0.00233509 1.6957e-17)
(0.998927 0.000968934 3.28849e-17)
(0.998811 0.000384097 2.0203e-16)
(0.998806 -0.00022525 9.4035e-17)
(0.998875 -0.000818006 1.80731e-16)
(0.999034 -0.00139055 1.08294e-16)
(0.999269 -0.00191356 4.56584e-17)
(0.999572 -0.00237286 5.26725e-17)
(0.999933 -0.00275171 -1.21028e-16)
(1.00033 -0.00303905 -1.22742e-16)
(1.00075 -0.00322154 1.43859e-17)
(1.00115 -0.00330035 -7.91019e-16)
(1.00153 -0.0032579 -3.09017e-16)
(1.00185 -0.00310344 3.25061e-16)
(1.00208 -0.00280535 -7.25269e-17)
(1.00228 -0.0023518 -2.00984e-16)
(0.998874 0.00100026 -4.41986e-17)
(0.998753 0.00040008 -1.29465e-16)
(0.998749 -0.000225516 -1.85946e-16)
(0.998823 -0.000833405 6.10924e-17)
(0.998988 -0.00141994 -2.05455e-16)
(0.999233 -0.0019549 3.82757e-17)
(0.999549 -0.00242374 -4.73797e-17)
(0.999924 -0.00280912 -8.64904e-18)
(1.00033 -0.00309971 -1.46669e-16)
(1.00077 -0.00328195 -7.69145e-17)
(1.00119 -0.00335655 2.72425e-17)
(1.00158 -0.00330706 2.68359e-16)
(1.00192 -0.00314181 -1.35307e-16)
(1.00216 -0.00283252 2.67226e-16)
(1.00237 -0.00237009 9.44957e-17)
(0.998818 0.00103204 2.36224e-17)
(0.998694 0.000416337 1.24026e-16)
(0.99869 -0.000225694 2.36238e-16)
(0.998768 -0.000848877 -6.8267e-17)
(0.998941 -0.00144957 -1.65636e-17)
(0.999196 -0.00199661 2.50814e-16)
(0.999524 -0.00247513 2.13288e-16)
(0.999913 -0.00286719 -1.46156e-16)
(1.00034 -0.00316118 3.91605e-16)
(1.00079 -0.00334333 3.5532e-16)
(1.00123 -0.00341388 3.77898e-16)
(1.00163 -0.00335752 -1.7454e-17)
(1.00198 -0.00318172 -2.99954e-16)
(1.00224 -0.00286131 -3.15157e-16)
(1.00247 -0.00238983 -3.03866e-17)
(0.998762 0.0010643 -2.02416e-17)
(0.998633 0.00043288 -6.54949e-17)
(0.99863 -0.000225791 -1.95804e-16)
(0.998712 -0.000864459 1.26025e-16)
(0.998892 -0.00147951 1.20933e-16)
(0.999158 -0.00203883 -1.67935e-16)
(0.999498 -0.00252721 -8.47883e-17)
(0.999901 -0.00292613 8.38375e-18)
(1.00034 -0.00322367 -1.74037e-16)
(1.00081 -0.0034059 -3.04439e-16)
(1.00126 -0.00347257 -5.61824e-16)
(1.00168 -0.00340944 6.06909e-17)
(1.00205 -0.00322328 3.66205e-16)
(1.00232 -0.00289177 3.317e-16)
(1.00256 -0.00241096 -6.98059e-17)
(0.998703 0.00109707 -1.61074e-17)
(0.99857 0.000449737 -1.31742e-17)
(0.998567 -0.000225789 1.71347e-16)
(0.998653 -0.000880157 -1.61688e-16)
(0.998842 -0.00150981 -3.19532e-16)
(0.999117 -0.00208164 1.55084e-16)
(0.99947 -0.00258011 8.80109e-17)
(0.999888 -0.00298608 4.07578e-16)
(1.00034 -0.00328735 5.8281e-17)
(1.00082 -0.0034698 2.83466e-16)
(1.00129 -0.00353272 8.41883e-16)
(1.00173 -0.00346289 -2.31017e-16)
(1.00211 -0.00326645 -9.808e-17)
(1.0024 -0.00292376 -1.15809e-17)
(1.00265 -0.00243319 -2.78002e-17)
(0.998643 0.00113037 4.50473e-17)
(0.998505 0.000466926 4.922e-17)
(0.998503 -0.000225679 -1.47367e-16)
(0.998593 -0.000895976 1.3691e-16)
(0.998789 -0.00154049 -9.21571e-17)
(0.999075 -0.0021251 -2.96727e-16)
(0.999441 -0.0026339 1.30412e-17)
(0.999873 -0.00304715 -3.50573e-17)
(1.00035 -0.00335232 -2.16147e-16)
(1.00084 -0.00353512 1.82223e-16)
(1.00133 -0.00359438 -7.85828e-16)
(1.00178 -0.00351786 -1.43051e-17)
(1.00218 -0.00331116 -1.75187e-16)
(1.00248 -0.00295714 3.27306e-17)
(1.00274 -0.0024564 -8.23409e-17)
(0.998581 0.00116423 -1.14951e-17)
(0.998439 0.000484476 -1.17277e-17)
(0.998438 -0.00022543 2.03917e-17)
(0.998531 -0.000911889 -1.5225e-16)
(0.998734 -0.00157154 -2.73362e-17)
(0.99903 -0.00216921 3.62316e-16)
(0.999409 -0.0026886 -2.64077e-16)
(0.999856 -0.00310935 -3.27115e-16)
(1.00035 -0.00341857 3.50297e-16)
(1.00086 -0.00360183 -3.16976e-16)
(1.00136 -0.00365746 4.01235e-16)
(1.00183 -0.00357421 3.79674e-16)
(1.00225 -0.00335723 2.7353e-16)
(1.00256 -0.00299171 -1.82048e-16)
(1.00284 -0.00248031 -6.20611e-17)
(0.998518 0.00119865 -1.23969e-17)
(0.998371 0.000502404 -7.19607e-17)
(0.99837 -0.000225024 -9.69051e-17)
(0.998467 -0.000927872 7.11296e-17)
(0.998678 -0.00160293 1.80287e-16)
(0.998984 -0.00221392 6.32416e-17)
(0.999376 -0.00274416 2.45422e-16)
(0.999838 -0.00317263 5.36465e-17)
(1.00034 -0.00348605 -4.60561e-16)
(1.00087 -0.00366984 1.61185e-16)
(1.00139 -0.00372188 -2.27879e-16)
(1.00188 -0.00363185 -1.89309e-16)
(1.00231 -0.00340454 -2.55052e-16)
(1.00264 -0.00302736 4.03134e-17)
(1.00293 -0.00250492 1.49866e-16)
(0.998452 0.00123368 -1.9028e-17)
(0.998302 0.000520733 3.42751e-17)
(0.998301 -0.000224432 4.13836e-17)
(0.998402 -0.000943883 -1.42568e-16)
(0.99862 -0.00163459 6.958e-17)
(0.998936 -0.00225918 -2.11132e-16)
(0.999341 -0.0028005 -2.58659e-17)
(0.999819 -0.00323688 3.17606e-16)
(1.00034 -0.00355463 -2.02606e-16)
(1.00089 -0.00373902 -2.67857e-16)
(1.00143 -0.00378749 2.30106e-16)
(1.00193 -0.0036906 -6.83189e-17)
(1.00238 -0.00345292 -7.227e-16)
(1.00272 -0.00306391 7.37551e-17)
(1.00302 -0.00253006 1.07804e-16)
(0.998385 0.00126932 -9.79396e-18)
(0.99823 0.000539471 3.34322e-17)
(0.99823 -0.000223646 1.25963e-17)
(0.998334 -0.000959903 1.90048e-17)
(0.99856 -0.0016665 1.20072e-16)
(0.998887 -0.0023049 6.67272e-17)
(0.999305 -0.00285753 -2.19793e-16)
(0.999798 -0.00330201 -2.00723e-17)
(1.00034 -0.00362422 6.06839e-16)
(1.0009 -0.00380927 -1.94665e-16)
(1.00146 -0.00385417 -5.72486e-18)
(1.00198 -0.00375038 2.88022e-17)
(1.00244 -0.00350231 2.78175e-17)
(1.00281 -0.00310135 -5.10637e-17)
(1.00312 -0.00255585 1.70147e-17)
(0.998316 0.0013056 2.58092e-17)
(0.998157 0.000558632 -6.81952e-17)
(0.998157 -0.000222652 -7.79004e-17)
(0.998265 -0.00097591 1.49653e-19)
(0.998498 -0.0016986 -1.81304e-16)
(0.998836 -0.00235104 -2.89561e-17)
(0.999268 -0.00291518 4.26775e-17)
(0.999776 -0.00336794 -4.83319e-17)
(1.00033 -0.00369472 -4.10849e-16)
(1.00092 -0.00388049 5.47122e-16)
(1.00149 -0.00392186 -3.12299e-17)
(1.00203 -0.00381113 -5.71989e-17)
(1.00251 -0.00355265 3.37247e-16)
(1.00289 -0.00313965 -3.78306e-16)
(1.00321 -0.00258227 7.9898e-18)
(0.998245 0.00134251 2.73844e-18)
(0.998082 0.000578213 8.18105e-17)
(0.998083 -0.00022146 2.1988e-16)
(0.998195 -0.000991917 -5.54557e-17)
(0.998435 -0.00173091 1.17828e-16)
(0.998784 -0.00239759 -1.83112e-16)
(0.999229 -0.00297343 -2.19317e-16)
(0.999753 -0.00343463 5.26779e-18)
(1.00033 -0.00376612 2.39212e-16)
(1.00093 -0.00395269 -4.77525e-16)
(1.00152 -0.00399056 1.18971e-16)
(1.00208 -0.00387289 -2.06829e-17)
(1.00257 -0.00360404 2.60523e-16)
(1.00297 -0.00317894 8.05219e-17)
(1.0033 -0.00260954 -1.25424e-16)
(0.998172 0.00138007 1.05231e-18)
(0.998006 0.000598221 -8.87915e-17)
(0.998006 -0.000220075 -1.25492e-16)
(0.998122 -0.00100794 2.07721e-17)
(0.99837 -0.00176344 -2.18903e-17)
(0.99873 -0.00244456 1.66214e-16)
(0.999189 -0.00303229 3.60086e-16)
(0.999729 -0.0035021 -3.1945e-16)
(1.00032 -0.00383842 3.63431e-16)
(1.00094 -0.00402587 3.2132e-17)
(1.00155 -0.00406032 7.13251e-17)
(1.00213 -0.00393572 -1.37786e-16)
(1.00264 -0.00365651 2.66093e-16)
(1.00305 -0.00321926 1.50834e-16)
(1.0034 -0.0026377 1.9703e-16)
(0.998098 0.0014183 -8.60638e-18)
(0.997927 0.000618644 8.46977e-17)
(0.997928 -0.000218524 1.54569e-16)
(0.998048 -0.00102401 5.34102e-17)
(0.998304 -0.00179626 1.56232e-16)
(0.998674 -0.00249202 1.20001e-16)
(0.999148 -0.00309184 -3.23364e-16)
(0.999704 -0.00357043 6.47953e-16)
(1.00032 -0.00391172 -2.03853e-16)
(1.00095 -0.00410016 -6.78283e-17)
(1.00158 -0.00413125 -2.45555e-16)
(1.00218 -0.00399975 -1.07866e-16)
(1.00271 -0.00371023 -2.9612e-16)
(1.00313 -0.00326079 -1.09125e-16)
(1.00349 -0.00266696 4.73813e-17)
(0.998021 0.0014572 -3.05634e-17)
(0.997847 0.000639486 -9.0577e-17)
(0.997848 -0.000216822 -1.08402e-17)
(0.997972 -0.00104018 1.06251e-16)
(0.998235 -0.0018294 -1.42181e-16)
(0.998617 -0.00254005 -1.04418e-16)
(0.999105 -0.00315216 4.04648e-16)
(0.999678 -0.00363972 -1.20876e-16)
(1.00031 -0.00398612 -5.16505e-16)
(1.00097 -0.00417566 7.10993e-17)
(1.00162 -0.00420349 -1.24678e-16)
(1.00223 -0.00406511 2.30726e-16)
(1.00277 -0.00376531 3.6967e-16)
(1.00322 -0.0033036 3.29364e-16)
(1.00359 -0.00269732 -2.76119e-16)
(0.997942 0.00149678 1.83311e-18)
(0.997764 0.000660734 -1.74714e-17)
(0.997766 -0.000214998 -7.23277e-17)
(0.997894 -0.0010565 4.50892e-17)
(0.998165 -0.00186297 -7.88369e-17)
(0.998559 -0.00258874 1.34478e-16)
(0.999061 -0.00321337 -1.16275e-16)
(0.999651 -0.0037101 3.99091e-17)
(1.0003 -0.00406178 -1.0826e-16)
(1.00098 -0.00425253 2.75485e-16)
(1.00165 -0.00427719 3.37142e-16)
(1.00228 -0.00413198 1.94882e-18)