1.45 	0 	0 	-0.00812419 	-0.00258705 	1.65382e-20
2.35 	0 	0 	0.0622273 	-0.00661894 	9.89174e-21
