1.45 	0 	0 	-0.0062095 	-0.00269847 	3.9171e-21
2.35 	0 	0 	0.0669837 	-0.00679532 	2.44024e-21
