1.45 	0 	0 	-0.00181879 	-0.00310521 	3.97236e-21
2.35 	0 	0 	0.0847104 	-0.00743879 	2.31188e-21
