1.45 	0 	0 	-0.00819949 	-0.00256723 	3.77893e-21
2.35 	0 	0 	0.061319 	-0.00662602 	2.2778e-21
