1.45 	0 	0 	0.00574698 	-0.00403175 	3.93974e-21
2.35 	0 	0 	0.123236 	-0.0087829 	1.83893e-21
