1.275 	2.15223e-18 	-2.76991e-20 	-0.0335326 	-0.000461246 	-2.00731e-22
1.825 	2.15223e-18 	-1.39322e-20 	-0.00785873 	-0.00284062 	1.80519e-21
2.375 	2.15223e-18 	-2.66896e-23 	0.119826 	-0.0033819 	-7.53009e-22
