1.275 	2.15223e-18 	-2.76991e-20 	-0.0339163 	-0.000442075 	-1.99303e-22
1.825 	2.15223e-18 	-1.39322e-20 	-0.00847281 	-0.00278598 	1.79153e-21
2.375 	2.15223e-18 	-2.66896e-23 	0.118107 	-0.0033086 	-7.47727e-22
