/*--------------------------------*- C++ -*----------------------------------*\
  =========                 |
  \\      /  F ield         | OpenFOAM: The Open Source CFD Toolbox
   \\    /   O peration     | Website:  https://openfoam.org
    \\  /    A nd           | Version:  6.0
     \\/     M anipulation  |
\*---------------------------------------------------------------------------*/
FoamFile
{
    version     2.0;
    format      ascii;
    class       volScalarField;
    location    "0.6";
    object      p;
}
// * * * * * * * * * * * * * * * * * * * * * * * * * * * * * * * * * * * * * //

dimensions      [0 2 -2 0 0 0 0];

internalField   nonuniform List<scalar> 
24000
(
1.0064
1.00614
1.00558
1.00479
1.00388
1.00299
1.00218
1.00147
1.00087
1.0004
1.00004
0.999808
1.00641
1.00619
1.00572
1.00501
1.00417
1.0033
1.00248
1.00171
1.00103
1.00046
0.999978
0.999671
1.00641
1.00617
1.00567
1.00493
1.00405
1.00313
1.00229
1.00151
1.00085
1.00032
0.999865
0.999598
1.00641
1.00615
1.00563
1.00488
1.00398
1.00306
1.00221
1.00144
1.00079
1.00028
0.999831
0.999569
1.00642
1.00616
1.00565
1.00492
1.00405
1.00314
1.0023
1.00153
1.00087
1.00034
0.999845
0.999544
1.00642
1.00617
1.00567
1.00496
1.0041
1.00321
1.00237
1.0016
1.00092
1.00036
0.999831
0.999493
1.00642
1.00617
1.00566
1.00496
1.00411
1.00321
1.00237
1.00159
1.0009
1.00033
0.999776
0.999423
1.00643
1.00617
1.00566
1.00494
1.00409
1.00319
1.00234
1.00154
1.00085
1.00027
0.999713
0.999354
1.00644
1.00618
1.00566
1.00494
1.00408
1.00318
1.00232
1.00152
1.00081
1.00023
0.999663
0.999295
1.00645
1.00619
1.00566
1.00494
1.00409
1.00319
1.00233
1.00152
1.0008
1.0002
0.999626
0.999245
1.00645
1.0062
1.00567
1.00495
1.0041
1.0032
1.00234
1.00153
1.0008
1.00019
0.999594
0.999196
1.00646
1.00621
1.00569
1.00496
1.00411
1.00321
1.00235
1.00153
1.00079
1.00017
0.999561
0.999147
1.00648
1.00623
1.00571
1.00497
1.00412
1.00322
1.00235
1.00153
1.00078
1.00014
0.999525
0.999098
1.00649
1.00625
1.00573
1.00499
1.00413
1.00323
1.00235
1.00152
1.00077
1.00012
0.999489
0.99905
1.0065
1.00627
1.00575
1.00502
1.00415
1.00324
1.00236
1.00152
1.00076
1.0001
0.999455
0.999004
1.00651
1.00629
1.00578
1.00505
1.00418
1.00326
1.00238
1.00153
1.00075
1.00008
0.999423
0.998959
1.00653
1.00631
1.0058
1.00507
1.00421
1.00329
1.00239
1.00153
1.00074
1.00006
0.999391
0.998915
1.00654
1.00633
1.00582
1.0051
1.00423
1.00331
1.00241
1.00154
1.00074
1.00004
0.999358
0.998871
1.00656
1.00635
1.00584
1.00512
1.00426
1.00333
1.00242
1.00154
1.00073
1.00001
0.999324
0.998826
1.00657
1.00637
1.00586
1.00514
1.00428
1.00335
1.00243
1.00154
1.00072
0.99999
0.99929
0.998783
1.00659
1.00639
1.00588
1.00516
1.0043
1.00336
1.00244
1.00154
1.0007
0.999966
0.999256
0.99874
1.00661
1.00641
1.0059
1.00518
1.00432
1.00338
1.00245
1.00154
1.00069
0.999942
0.999223
0.998697
1.00662
1.00642
1.00591
1.0052
1.00433
1.00339
1.00246
1.00154
1.00068
0.999918
0.99919
0.998655
1.00664
1.00644
1.00593
1.00522
1.00435
1.00341
1.00246
1.00154
1.00067
0.999894
0.999156
0.998612
1.00666
1.00646
1.00595
1.00524
1.00437
1.00342
1.00247
1.00154
1.00066
0.999868
0.999121
0.998569
1.00668
1.00648
1.00597
1.00526
1.00439
1.00344
1.00248
1.00153
1.00064
0.999841
0.999085
0.998525
1.00671
1.00651
1.00599
1.00528
1.00441
1.00345
1.00249
1.00153
1.00063
0.999812
0.999048
0.998481
1.00673
1.00653
1.00601
1.0053
1.00443
1.00347
1.00249
1.00152
1.00061
0.999783
0.99901
0.998437
1.00676
1.00655
1.00603
1.00532
1.00445
1.00348
1.0025
1.00152
1.00059
0.999752
0.998971
0.998392
1.00678
1.00658
1.00606
1.00534
1.00446
1.00349
1.0025
1.00151
1.00057
0.999722
0.998933
0.998348
1.00681
1.0066
1.00608
1.00536
1.00448
1.0035
1.0025
1.0015
1.00055
0.999691
0.998894
0.998303
1.00684
1.00663
1.00611
1.00538
1.0045
1.00351
1.0025
1.0015
1.00053
0.99966
0.998855
0.998259
1.00687
1.00666
1.00613
1.00541
1.00451
1.00352
1.00251
1.00149
1.00052
0.99963
0.998816
0.998215
1.0069
1.0067
1.00616
1.00544
1.00454
1.00354
1.00251
1.00148
1.0005
0.999601
0.998778
0.99817
1.00693
1.00673
1.0062
1.00547
1.00456
1.00355
1.00252
1.00148
1.00048
0.999571
0.99874
0.998125
1.00696
1.00676
1.00623
1.0055
1.00459
1.00357
1.00253
1.00148
1.00047
0.999542
0.998701
0.99808
1.007
1.0068
1.00627
1.00553
1.00462
1.00359
1.00254
1.00147
1.00045
0.999513
0.998662
0.998034
1.00703
1.00684
1.00631
1.00557
1.00465
1.00361
1.00255
1.00147
1.00044
0.999483
0.998622
0.997988
1.00707
1.00687
1.00634
1.0056
1.00467
1.00363
1.00256
1.00147
1.00042
0.999453
0.998581
0.99794
1.0071
1.00691
1.00638
1.00564
1.0047
1.00366
1.00257
1.00147
1.0004
0.999422
0.99854
0.997893
1.00714
1.00695
1.00642
1.00567
1.00473
1.00368
1.00258
1.00146
1.00038
0.999389
0.998498
0.997844
1.00718
1.00699
1.00645
1.00571
1.00476
1.0037
1.00259
1.00146
1.00037
0.999357
0.998455
0.997796
1.00722
1.00702
1.00649
1.00574
1.00479
1.00372
1.00259
1.00145
1.00035
0.999323
0.998411
0.997746
1.00726
1.00706
1.00653
1.00577
1.00482
1.00374
1.0026
1.00144
1.00033
0.999289
0.998367
0.997697
1.0073
1.0071
1.00657
1.00581
1.00485
1.00375
1.00261
1.00144
1.0003
0.999255
0.998322
0.997646
1.00734
1.00715
1.0066
1.00584
1.00487
1.00377
1.00262
1.00143
1.00028
0.99922
0.998276
0.997595
1.00738
1.00719
1.00664
1.00588
1.0049
1.00379
1.00262
1.00142
1.00026
0.999184
0.99823
0.997543
1.00743
1.00723
1.00669
1.00592
1.00493
1.00381
1.00263
1.00142
1.00024
0.999147
0.998183
0.997491
1.00747
1.00728
1.00673
1.00595
1.00496
1.00383
1.00264
1.00141
1.00022
0.99911
0.998135
0.997438
1.00752
1.00733
1.00677
1.00599
1.00499
1.00385
1.00264
1.0014
1.00019
0.999073
0.998087
0.997384
1.00757
1.00737
1.00682
1.00603
1.00502
1.00387
1.00265
1.00139
1.00017
0.999035
0.998038
0.997329
1.00762
1.00742
1.00686
1.00607
1.00505
1.00389
1.00266
1.00138
1.00015
0.998998
0.997989
0.997275
1.00767
1.00748
1.00691
1.00611
1.00509
1.00391
1.00266
1.00137
1.00012
0.998959
0.99794
0.997218
1.00772
1.00753
1.00696
1.00616
1.00512
1.00393
1.00267
1.00137
1.0001
0.998922
0.997891
0.997162
1.00777
1.00758
1.00701
1.00621
1.00516
1.00396
1.00268
1.00136
1.00008
0.998884
0.997842
0.997104
1.00783
1.00764
1.00706
1.00625
1.0052
1.00398
1.00269
1.00135
1.00005
0.998846
0.997792
0.997045
1.00788
1.0077
1.00712
1.0063
1.00524
1.00401
1.0027
1.00135
1.00003
0.998807
0.997742
0.996985
1.00794
1.00776
1.00718
1.00635
1.00528
1.00404
1.00271
1.00134
1.00001
0.998769
0.997691
0.996925
1.008
1.00782
1.00723
1.00641
1.00532
1.00407
1.00273
1.00134
0.999986
0.998729
0.997639
0.996862
1.00806
1.00788
1.00729
1.00646
1.00536
1.00409
1.00274
1.00133
0.999963
0.99869
0.997587
0.9968
1.00812
1.00794
1.00735
1.00651
1.0054
1.00412
1.00275
1.00133
0.999939
0.998649
0.997534
0.996736
1.00818
1.00801
1.00741
1.00657
1.00545
1.00415
1.00276
1.00132
0.999915
0.998609
0.99748
0.996671
1.00824
1.00807
1.00747
1.00662
1.00549
1.00418
1.00277
1.00131
0.99989
0.998567
0.997425
0.996605
1.00831
1.00814
1.00753
1.00668
1.00553
1.00421
1.00279
1.00131
0.999865
0.998525
0.997369
0.996539
1.00837
1.00821
1.00759
1.00673
1.00558
1.00424
1.0028
1.0013
0.99984
0.998482
0.997312
0.996472
1.00844
1.00828
1.00766
1.00679
1.00562
1.00427
1.00281
1.00129
0.999814
0.99844
0.997254
0.996404
1.00851
1.00835
1.00772
1.00685
1.00567
1.0043
1.00282
1.00128
0.999788
0.998396
0.997196
0.996334
1.00858
1.00842
1.00779
1.00691
1.00572
1.00433
1.00284
1.00128
0.999762
0.998352
0.997137
0.996264
1.00866
1.00849
1.00786
1.00697
1.00576
1.00437
1.00285
1.00127
0.999735
0.998307
0.997077
0.996193
1.00873
1.00857
1.00793
1.00703
1.00581
1.0044
1.00286
1.00126
0.999709
0.998263
0.997017
0.99612
1.00881
1.00864
1.008
1.00709
1.00586
1.00443
1.00288
1.00126
0.999683
0.998218
0.996956
0.996046
1.00889
1.00872
1.00807
1.00716
1.00592
1.00447
1.00289
1.00125
0.999657
0.998173
0.996894
0.99597
1.00897
1.0088
1.00814
1.00723
1.00597
1.0045
1.00291
1.00125
0.99963
0.998126
0.996832
0.995893
1.00905
1.00889
1.00822
1.0073
1.00602
1.00454
1.00292
1.00124
0.999605
0.998081
0.996769
0.995814
1.00913
1.00897
1.0083
1.00737
1.00608
1.00458
1.00294
1.00124
0.999578
0.998034
0.996704
0.995733
1.00922
1.00906
1.00838
1.00744
1.00614
1.00462
1.00296
1.00123
0.999553
0.997987
0.99664
0.995651
1.00931
1.00915
1.00846
1.00751
1.0062
1.00466
1.00298
1.00123
0.999527
0.997939
0.996573
0.995566
1.0094
1.00924
1.00855
1.00759
1.00626
1.00471
1.003
1.00123
0.999501
0.997891
0.996506
0.99548
1.00949
1.00933
1.00863
1.00767
1.00632
1.00475
1.00302
1.00123
0.999475
0.997842
0.996437
0.995391
1.00958
1.00942
1.00872
1.00775
1.00639
1.0048
1.00304
1.00123
0.999449
0.997792
0.996367
0.995301
1.00967
1.00952
1.00881
1.00783
1.00645
1.00484
1.00307
1.00122
0.999422
0.997741
0.996294
0.995209
1.00977
1.00961
1.0089
1.00791
1.00652
1.00489
1.00309
1.00122
0.999395
0.997689
0.996221
0.995115
1.00987
1.00971
1.00899
1.008
1.00659
1.00494
1.00312
1.00122
0.999367
0.997636
0.996145
0.995018
1.00997
1.00981
1.00909
1.00809
1.00666
1.00499
1.00314
1.00122
0.999339
0.997582
0.996068
0.99492
1.01007
1.00991
1.00918
1.00817
1.00673
1.00504
1.00317
1.00122
0.999309
0.997525
0.995988
0.994819
1.01017
1.01002
1.00928
1.00826
1.0068
1.00509
1.00319
1.00122
0.99928
0.997469
0.995908
0.994716
1.01028
1.01013
1.00938
1.00835
1.00687
1.00515
1.00322
1.00122
0.999249
0.99741
0.995824
0.994611
1.01038
1.01024
1.00948
1.00845
1.00695
1.0052
1.00325
1.00122
0.999218
0.997351
0.99574
0.994504
1.01049
1.01035
1.00959
1.00854
1.00703
1.00526
1.00327
1.00122
0.999186
0.99729
0.995653
0.994394
1.0106
1.01046
1.00969
1.00864
1.00711
1.00531
1.0033
1.00121
0.999154
0.997228
0.995564
0.994282
1.01072
1.01058
1.0098
1.00874
1.00719
1.00537
1.00333
1.00121
0.999121
0.997164
0.995473
0.994168
1.01083
1.01069
1.00991
1.00884
1.00727
1.00543
1.00336
1.00121
0.999087
0.997099
0.995381
0.994052
1.01095
1.01081
1.01003
1.00895
1.00736
1.00549
1.00339
1.00121
0.999052
0.997032
0.995286
0.993932
1.01107
1.01094
1.01014
1.00905
1.00744
1.00556
1.00343
1.00121
0.999018
0.996965
0.99519
0.993811
1.01119
1.01106
1.01026
1.00916
1.00753
1.00562
1.00346
1.00121
0.998981
0.996895
0.99509
0.993686
1.01132
1.01119
1.01038
1.00927
1.00763
1.00569
1.00349
1.00121
0.998945
0.996824
0.99499
0.99356
1.01144
1.01132
1.01051
1.00939
1.00772
1.00575
1.00353
1.00121
0.998907
0.996751
0.994886
0.99343
1.01157
1.01146
1.01064
1.0095
1.00781
1.00582
1.00356
1.00121
0.998869
0.996678
0.994781
0.993299
1.0117
1.01159
1.01076
1.00962
1.00791
1.00589
1.0036
1.0012
0.998829
0.996601
0.994672
0.993164
1.01184
1.01173
1.0109
1.00974
1.00801
1.00597
1.00364
1.0012
0.998789
0.996524
0.994562
0.993026
1.01198
1.01187
1.01103
1.00987
1.00811
1.00604
1.00367
1.0012
0.998747
0.996444
0.994449
0.992886
1.01212
1.01202
1.01117
1.00999
1.00822
1.00611
1.00371
1.0012
0.998704
0.996363
0.994334
0.992743
1.01226
1.01216
1.01131
1.01012
1.00832
1.00619
1.00375
1.0012
0.99866
0.996279
0.994216
0.992596
1.0124
1.01231
1.01145
1.01025
1.00843
1.00626
1.00379
1.00119
0.998615
0.996194
0.994096
0.992447
1.01255
1.01246
1.01159
1.01038
1.00854
1.00634
1.00382
1.00119
0.998568
0.996106
0.993972
0.992295
1.0127
1.01262
1.01174
1.01052
1.00865
1.00642
1.00386
1.00118
0.99852
0.996017
0.993847
0.99214
1.01286
1.01278
1.01189
1.01065
1.00876
1.0065
1.0039
1.00118
0.998471
0.995925
0.993718
0.991981
1.01301
1.01294
1.01204
1.01079
1.00887
1.00658
1.00394
1.00117
0.998421
0.995832
0.993588
0.99182
1.01317
1.0131
1.0122
1.01093
1.00899
1.00666
1.00398
1.00117
0.998368
0.995736
0.993453
0.991655
1.01334
1.01327
1.01236
1.01108
1.00911
1.00674
1.00402
1.00116
0.998316
0.995638
0.993317
0.991488
1.0135
1.01344
1.01252
1.01123
1.00923
1.00683
1.00406
1.00116
0.99826
0.995538
0.993177
0.991316
1.01367
1.01361
1.01268
1.01138
1.00935
1.00692
1.00411
1.00115
0.998205
0.995436
0.993035
0.991143
1.01384
1.01379
1.01285
1.01153
1.00947
1.007
1.00415
1.00114
0.998147
0.995331
0.99289
0.990965
1.01402
1.01397
1.01302
1.01169
1.0096
1.00709
1.00419
1.00114
0.998089
0.995225
0.992742
0.990784
1.0142
1.01415
1.0132
1.01184
1.00973
1.00719
1.00423
1.00113
0.998028
0.995115
0.99259
0.990599
1.01438
1.01434
1.01338
1.01201
1.00986
1.00728
1.00428
1.00112
0.997967
0.995004
0.992436
0.990412
1.01457
1.01453
1.01356
1.01217
1.01
1.00737
1.00432
1.00111
0.997903
0.99489
0.992278
0.99022
1.01476
1.01472
1.01374
1.01234
1.01014
1.00747
1.00437
1.0011
0.997838
0.994774
0.992118
0.990025
1.01495
1.01492
1.01393
1.01251
1.01028
1.00757
1.00441
1.00109
0.99777
0.994654
0.991953
0.989825
1.01515
1.01512
1.01412
1.01269
1.01042
1.00767
1.00446
1.00108
0.997702
0.994533
0.991786
0.989623
1.01535
1.01532
1.01432
1.01287
1.01056
1.00777
1.00451
1.00107
0.997631
0.994408
0.991614
0.989415
1.01556
1.01553
1.01452
1.01305
1.01071
1.00787
1.00456
1.00106
0.997559
0.99428
0.99144
0.989205
1.01577
1.01575
1.01472
1.01323
1.01086
1.00798
1.0046
1.00104
0.997484
0.994149
0.991261
0.988989
1.01598
1.01596
1.01493
1.01342
1.01102
1.00809
1.00465
1.00103
0.997407
0.994016
0.99108
0.988771
1.0162
1.01619
1.01514
1.01362
1.01117
1.00819
1.0047
1.00102
0.997328
0.993879
0.990893
0.988547
1.01642
1.01641
1.01536
1.01381
1.01133
1.00831
1.00475
1.001
0.997247
0.99374
0.990704
0.988319
1.01664
1.01664
1.01558
1.01401
1.01149
1.00842
1.0048
1.00098
0.997163
0.993596
0.990509
0.988087
1.01687
1.01688
1.01581
1.01422
1.01166
1.00853
1.00485
1.00097
0.997078
0.99345
0.990312
0.98785
1.01711
1.01712
1.01604
1.01443
1.01183
1.00865
1.0049
1.00095
0.99699
0.993299
0.990109
0.987608
1.01735
1.01736
1.01627
1.01464
1.012
1.00877
1.00495
1.00093
0.9969
0.993146
0.989903
0.987362
1.01759
1.01761
1.01651
1.01486
1.01217
1.00888
1.005
1.0009
0.996806
0.992988
0.989691
0.98711
1.01784
1.01787
1.01675
1.01508
1.01235
1.00901
1.00505
1.00088
0.996711
0.992828
0.989476
0.986854
1.01809
1.01813
1.017
1.0153
1.01254
1.00913
1.0051
1.00086
0.996612
0.992662
0.989255
0.986592
1.01835
1.01839
1.01726
1.01553
1.01272
1.00926
1.00516
1.00083
0.996511
0.992494
0.989031
0.986325
1.01861
1.01866
1.01752
1.01577
1.01291
1.00939
1.00521
1.00081
0.996407
0.99232
0.9888
0.986052
1.01888
1.01894
1.01778
1.01601
1.01311
1.00952
1.00526
1.00078
0.9963
0.992144
0.988565
0.985775
1.01915
1.01922
1.01806
1.01626
1.0133
1.00965
1.00532
1.00075
0.996189
0.991961
0.988324
0.98549
1.01943
1.01951
1.01833
1.01651
1.01351
1.00979
1.00537
1.00072
0.996077
0.991776
0.988079
0.985201
1.01972
1.01981
1.01862
1.01677
1.01371
1.00992
1.00542
1.00069
0.995959
0.991584
0.987827
0.984905
1.02001
1.02011
1.01891
1.01703
1.01392
1.01006
1.00548
1.00066
0.995839
0.991389
0.98757
0.984603
1.02031
1.02041
1.0192
1.01729
1.01413
1.01021
1.00553
1.00062
0.995714
0.991187
0.987306
0.984294
1.02061
1.02073
1.0195
1.01757
1.01435
1.01035
1.00559
1.00058
0.995587
0.990981
0.987038
0.98398
1.02092
1.02105
1.01981
1.01785
1.01458
1.0105
1.00564
1.00054
0.995454
0.990769
0.986761
0.983657
1.02124
1.02138
1.02013
1.01813
1.0148
1.01065
1.0057
1.0005
0.995318
0.990552
0.98648
0.983329
1.02156
1.02171
1.02045
1.01842
1.01504
1.0108
1.00575
1.00045
0.995177
0.990329
0.986191
0.982992
1.02189
1.02205
1.02078
1.01872
1.01527
1.01096
1.00581
1.0004
0.995032
0.9901
0.985895
0.98265
1.02223
1.0224
1.02111
1.01903
1.01551
1.01111
1.00586
1.00035
0.994881
0.989864
0.985592
0.982298
1.02257
1.02276
1.02146
1.01934
1.01576
1.01127
1.00592
1.0003
0.994727
0.989623
0.985283
0.98194
1.02293
1.02312
1.02181
1.01965
1.01601
1.01143
1.00597
1.00024
0.994566
0.989374
0.984964
0.981573
1.02329
1.02349
1.02217
1.01998
1.01627
1.0116
1.00603
1.00018
0.994401
0.989119
0.98464
0.981199
1.02365
1.02388
1.02254
1.02031
1.01653
1.01176
1.00608
1.00012
0.994229
0.988856
0.984306
0.980815
1.02403
1.02426
1.02292
1.02065
1.0168
1.01193
1.00613
1.00006
0.994053
0.988587
0.983965
0.980424
1.02441
1.02466
1.0233
1.021
1.01708
1.01211
1.00618
0.999984
0.993869
0.988309
0.983614
0.980023
1.02481
1.02507
1.02369
1.02135
1.01735
1.01228
1.00624
0.999911
0.99368
0.988024
0.983256
0.979614
1.02521
1.02549
1.0241
1.02172
1.01764
1.01246
1.00629
0.999832
0.993484
0.98773
0.982887
0.979195
1.02562
1.02591
1.02451
1.02209
1.01793
1.01264
1.00634
0.999749
0.993281
0.987429
0.982511
0.978766
1.02604
1.02635
1.02493
1.02247
1.01823
1.01282
1.00638
0.999661
0.993071
0.987118
0.982123
0.978327
1.02647
1.0268
1.02537
1.02286
1.01853
1.013
1.00643
0.999569
0.992854
0.986798
0.981727
0.977879
1.02691
1.02725
1.02581
1.02326
1.01884
1.01319
1.00647
0.999471
0.992628
0.986468
0.981319
0.977419
1.02736
1.02772
1.02627
1.02366
1.01916
1.01338
1.00652
0.999368
0.992395
0.98613
0.980902
0.976949
1.02782
1.0282
1.02673
1.02408
1.01948
1.01357
1.00656
0.999258
0.992152
0.98578
0.980473
0.976468
1.02829
1.02869
1.02721
1.02451
1.01981
1.01377
1.00659
0.999143
0.991901
0.98542
0.980033
0.975976
1.02877
1.0292
1.0277
1.02495
1.02015
1.01396
1.00663
0.99902
0.99164
0.985048
0.979581
0.975471
1.02927
1.02971
1.0282
1.02539
1.02049
1.01416
1.00666
0.998891
0.99137
0.984666
0.979118
0.974955
1.02977
1.03024
1.02871
1.02585
1.02084
1.01436
1.00669
0.998754
0.991088
0.984271
0.978641
0.974425
1.03029
1.03078
1.02924
1.02632
1.0212
1.01456
1.00672
0.998609
0.990797
0.983865
0.978152
0.973884
1.03082
1.03133
1.02978
1.0268
1.02156
1.01477
1.00674
0.998456
0.990493
0.983445
0.977649
0.973329
1.03136
1.0319
1.03033
1.0273
1.02194
1.01497
1.00676
0.998294
0.990179
0.983013
0.977134
0.972761
1.03191
1.03248
1.0309
1.0278
1.02232
1.01518
1.00677
0.998122
0.989852
0.982566
0.976603
0.972178
1.03248
1.03308
1.03148
1.02832
1.0227
1.01539
1.00678
0.997941
0.989512
0.982106
0.976059
0.971582
1.03306
1.0337
1.03208
1.02885
1.0231
1.01559
1.00678
0.997749
0.989158
0.98163
0.975498
0.97097
1.03366
1.03432
1.03269
1.0294
1.0235
1.0158
1.00678
0.997546
0.988791
0.98114
0.974923
0.970344
1.03428
1.03497
1.03332
1.02995
1.02391
1.01601
1.00676
0.997331
0.988408
0.980632
0.974331
0.969702
1.0349
1.03563
1.03397
1.03053
1.02433
1.01622
1.00675
0.997104
0.988011
0.980109
0.973724
0.969044
1.03555
1.03631
1.03464
1.03111
1.02476
1.01643
1.00672
0.996862
0.987597
0.979568
0.973098
0.968369
1.03621
1.03701
1.03532
1.03171
1.0252
1.01664
1.00669
0.996608
0.987166
0.97901
0.972455
0.967678
1.03689
1.03773
1.03602
1.03233
1.02564
1.01685
1.00664
0.996337
0.986717
0.978432
0.971793
0.966969
1.03758
1.03847
1.03675
1.03296
1.02609
1.01706
1.00659
0.996052
0.98625
0.977836
0.971114
0.966243
1.0383
1.03923
1.03749
1.03361
1.02655
1.01726
1.00652
0.995749
0.985763
0.977219
0.970414
0.965497
1.03903
1.04001
1.03825
1.03428
1.02702
1.01746
1.00645
0.99543
0.985256
0.976582
0.969694
0.964733
1.03979
1.04081
1.03904
1.03496
1.02749
1.01766
1.00636
0.99509
0.984727
0.975923
0.968953
0.963949
1.04057
1.04164
1.03985
1.03566
1.02798
1.01785
1.00625
0.994731
0.984177
0.975242
0.968192
0.963146
1.04136
1.04249
1.04068
1.03638
1.02847
1.01804
1.00614
0.99435
0.983602
0.974537
0.967408
0.962321
1.04218
1.04336
1.04154
1.03712
1.02897
1.01822
1.006
0.993948
0.983004
0.973809
0.966601
0.961476
1.04303
1.04426
1.04242
1.03788
1.02947
1.0184
1.00585
0.993521
0.982379
0.973054
0.96577
0.960609
1.04389
1.04519
1.04333
1.03866
1.02999
1.01856
1.00567
0.99307
0.981728
0.972275
0.964916
0.959719
1.04479
1.04614
1.04426
1.03945
1.0305
1.01872
1.00548
0.992591
0.981048
0.971467
0.964036
0.958806
1.0457
1.04713
1.04523
1.04027
1.03103
1.01887
1.00526
0.992084
0.98034
0.970633
0.963131
0.957871
1.04665
1.04814
1.04623
1.04111
1.03156
1.019
1.00502
0.991547
0.9796
0.969768
0.962199
0.95691
1.04763
1.04919
1.04726
1.04197
1.03209
1.01913
1.00476
0.990978
0.978829
0.968874
0.961239
0.955925
1.04863
1.05027
1.04832
1.04286
1.03263
1.01923
1.00446
0.990375
0.978023
0.967948
0.960251
0.954914
1.04966
1.05139
1.04941
1.04377
1.03317
1.01932
1.00414
0.989737
0.977183
0.966991
0.959235
0.953878
1.05073
1.05254
1.05054
1.0447
1.03371
1.01939
1.00378
0.989061
0.976305
0.965999
0.958188
0.952814
1.05183
1.05373
1.05171
1.04565
1.03425
1.01943
1.00338
0.988346
0.975389
0.964974
0.957111
0.951723
1.05297
1.05496
1.05291
1.04663
1.03479
1.01945
1.00295
0.987587
0.974433
0.963911
0.956001
0.950603
1.05414
1.05624
1.05416
1.04763
1.03533
1.01945
1.00247
0.986785
0.973435
0.962813
0.95486
0.949454
1.05535
1.05755
1.05545
1.04865
1.03586
1.01941
1.00195
0.985934
0.972393
0.961675
0.953684
0.948276
1.0566
1.05892
1.05678
1.0497
1.03639
1.01934
1.00138
0.985035
0.971306
0.960498
0.952475
0.947067
1.0579
1.06033
1.05816
1.05078
1.0369
1.01922
1.00076
0.984082
0.970171
0.959279
0.951229
0.945827
1.05923
1.0618
1.05959
1.05187
1.0374
1.01907
1.00009
0.983074
0.968987
0.958019
0.949949
0.944556
1.06061
1.06331
1.06107
1.05299
1.03789
1.01887
0.999353
0.982006
0.967751
0.956714
0.94863
0.943251
1.06205
1.06489
1.0626
1.05413
1.03835
1.01861
0.998554
0.980878
0.966462
0.955365
0.947274
0.941914
1.06353
1.06653
1.06418
1.05529
1.03879
1.0183
0.997684
0.979684
0.965117
0.953969
0.945878
0.940542
1.06506
1.06823
1.06582
1.05647
1.0392
1.01793
0.996742
0.978422
0.963714
0.952526
0.944443
0.939135
1.06665
1.07
1.06752
1.05767
1.03958
1.01748
0.99572
0.977088
0.962251
0.951033
0.942966
0.937693
1.0683
1.07184
1.06928
1.05889
1.03991
1.01696
0.994613
0.975679
0.960726
0.949491
0.941448
0.936215
1.07002
1.07375
1.0711
1.06011
1.04019
1.01635
0.993416
0.974191
0.959137
0.947897
0.939887
0.934699
1.0718
1.07575
1.07299
1.06134
1.04042
1.01564
0.992123
0.972621
0.957482
0.94625
0.938284
0.933146
1.07365
1.07783
1.07495
1.06258
1.04058
1.01484
0.990726
0.970963
0.955759
0.944548
0.936635
0.931554
1.07557
1.08001
1.07697
1.06382
1.04066
1.01392
0.98922
0.969216
0.953965
0.942792
0.934943
0.929924
1.07757
1.08228
1.07907
1.06504
1.04066
1.01288
0.987598
0.967375
0.952098
0.94098
0.933204
0.928254
1.07965
1.08466
1.08124
1.06625
1.04055
1.0117
0.985852
0.965436
0.950158
0.93911
0.931419
0.926543
1.08183
1.08714
1.08348
1.06744
1.04034
1.01038
0.983976
0.963397
0.948141
0.937182
0.929587
0.924791
1.0841
1.08975
1.08579
1.06859
1.03999
1.0089
0.981963
0.961252
0.946047
0.935195
0.927708
0.922998
1.08647
1.09248
1.08818
1.06969
1.03949
1.00725
0.979804
0.959
0.943874
0.933149
0.925781
0.921162
1.08895
1.09534
1.09063
1.07072
1.03883
1.00541
0.977494
0.956637
0.941621
0.931042
0.923806
0.919283
1.09154
1.09835
1.09315
1.07168
1.03797
1.00337
0.975024
0.954161
0.939286
0.928875
0.921782
0.917362
1.09426
1.10151
1.09574
1.07253
1.03691
1.00112
0.972388
0.951568
0.936869
0.926647
0.91971
0.915397
1.09712
1.10483
1.09837
1.07325
1.03561
0.998632
0.96958
0.948857
0.934369
0.924358
0.917589
0.913388
1.10012
1.10833
1.10106
1.07382
1.03404
0.995897
0.966593
0.946026
0.931787
0.922008
0.915419
0.911336
1.10328
1.11201
1.10377
1.0742
1.03218
0.992897
0.963423
0.943075
0.929122
0.919598
0.913201
0.90924
1.10661
1.11588
1.1065
1.07436
1.03
0.989618
0.960065
0.940003
0.926374
0.917129
0.910934
0.9071
1.11013
1.11995
1.10922
1.07426
1.02745
0.986044
0.956516
0.93681
0.923546
0.9146
0.908618
0.904915
1.11386
1.12424
1.11191
1.07385
1.0245
0.982161
0.952775
0.933498
0.920638
0.912014
0.906256
0.902686
1.11782
1.12875
1.11454
1.07307
1.02113
0.977956
0.94884
0.930069
0.917652
0.909372
0.903846
0.900413
1.12202
1.13349
1.11706
1.07187
1.01727
0.973418
0.944714
0.926526
0.914591
0.906675
0.90139
0.898095
1.1265
1.13845
1.11942
1.07017
1.01291
0.96854
0.9404
0.922873
0.911459
0.903926
0.898889
0.895733
1.13128
1.14364
1.12156
1.06792
1.00799
0.963315
0.935905
0.919115
0.908257
0.901127
0.896343
0.893326
1.1364
1.14906
1.12341
1.06502
1.00248
0.957745
0.931236
0.915259
0.904992
0.89828
0.893754
0.890874
1.14189
1.15468
1.12488
1.06139
0.996356
0.951832
0.926405
0.911311
0.901666
0.89539
0.891123
0.888378
1.1478
1.16048
1.12587
1.05694
0.989574
0.945588
0.921425
0.907281
0.898287
0.892458
0.88845
0.885837
1.15417
1.16643
1.12626
1.05156
0.982117
0.939031
0.916313
0.903177
0.894861
0.889488
0.885738
0.883253
1.16106
1.17247
1.12591
1.04517
0.973971
0.932184
0.911089
0.899011
0.891392
0.886485
0.882987
0.880624
1.16852
1.17853
1.12465
1.03764
0.965135
0.925081
0.905775
0.894793
0.88789
0.883452
0.880198
0.877951
1.17662
1.18449
1.1223
1.02889
0.955624
0.917764
0.900394
0.890536
0.884361
0.880392
0.877373
0.875236
1.18542
1.19024
1.11865
1.01883
0.945472
0.910284
0.894973
0.886252
0.880814
0.877311
0.874512
0.872478
1.19498
1.1956
1.11347
1.00738
0.934735
0.9027
0.889538
0.881955
0.877256
0.874212
0.871618
0.869679
1.20539
1.20034
1.10651
0.99448
0.923497
0.895078
0.884118
0.87766
0.873697
0.871098
0.86869
0.866839
1.21669
1.20418
1.09749
0.980121
0.911868
0.88749
0.878739
0.873378
0.870145
0.867975
0.865731
0.863962
1.22895
1.20677
1.08613
0.964327
0.89999
0.880011
0.873428
0.869126
0.866609
0.864844
0.862743
0.86105
1.24217
1.20767
1.07215
0.947188
0.888033
0.872714
0.868207
0.864916
0.863096
0.861712
0.859734
0.85811
1.25637
1.20635
1.05527
0.928875
0.876192
0.865672
0.8631
0.860761
0.859611
0.858575
0.856698
0.855135
1.27145
1.20214
1.03525
0.909654
0.864675
0.858934
0.858118
0.856677
0.856181
0.855477
0.853693
0.852176
1.28725
1.19424
1.01195
0.889913
0.853716
0.852562
0.853262
0.852625
0.852725
0.852291
0.850584
0.849116
1.30344
1.18168
0.985353
0.870114
0.843461
0.846572
0.848632
0.848815
0.849548
0.849396
0.847722
0.846184
1.31952
1.16332
0.955791
0.851041
0.834204
0.840781
0.843716
0.844514
0.845775
0.845977
0.84444
0.842919
1.3345
1.13773
0.923705
0.832953
0.826414
0.836425
0.840304
0.841733
0.843355
0.843609
0.841887
0.84006
1.34722
1.10406
0.892165
0.816189
0.817215
0.829189
0.833928
0.836483
0.839192
0.840107
0.838583
0.836611
1.35407
1.05791
0.865355
0.809524
0.81708
0.828704
0.832243
0.834381
0.837145
0.838171
0.836644
0.834572
1.35655
0.985325
0.814599
0.78477
0.805942
0.823221
0.829287
0.832827
0.836368
0.837786
0.836491
0.834542
0.996808
0.996704
0.997151
0.997733
0.99806
0.997996
0.997686
0.997373
0.997211
0.9972
0.99726
0.997317
0.9971
0.996973
0.997309
0.997761
0.998012
0.997945
0.997669
0.997386
0.997231
0.997214
0.997266
0.997323
0.997472
0.997285
0.99745
0.997727
0.997893
0.997846
0.997639
0.997406
0.997264
0.997235
0.997276
0.99733
0.997772
0.9975
0.997502
0.997641
0.997765
0.997764
0.997631
0.997446
0.997309
0.997263
0.997289
0.997339
0.997937
0.997601
0.997505
0.997579
0.997694
0.997733
0.99765
0.997492
0.997352
0.99729
0.997301
0.997346
0.998001
0.997652
0.997525
0.997572
0.997677
0.997725
0.997659
0.997515
0.997376
0.997305
0.997306
0.997347
0.998035
0.997707
0.997574
0.997597
0.997675
0.997709
0.997648
0.997518
0.99739
0.997319
0.997314
0.997348
0.998079
0.997774
0.997633
0.997624
0.997668
0.997685
0.997632
0.997521
0.997406
0.997337
0.997325
0.997351
0.998128
0.997837
0.997682
0.997643
0.997659
0.997666
0.997619
0.997524
0.99742
0.99735
0.99733
0.997349
0.998167
0.997884
0.997718
0.997658
0.997655
0.997652
0.997609
0.997524
0.997426
0.997357
0.997332
0.997348
0.998191
0.997916
0.997746
0.997673
0.997654
0.997642
0.997598
0.997518
0.997427
0.99736
0.997334
0.997347
0.998204
0.997941
0.99777
0.997687
0.997654
0.997631
0.997584
0.997509
0.997425
0.997362
0.997336
0.997344
0.998211
0.997961
0.997791
0.997698
0.997652
0.997618
0.997569
0.997498
0.997421
0.997362
0.997334
0.997337
0.998216
0.997976
0.997805
0.997704
0.997646
0.997605
0.997554
0.997488
0.997415
0.997358
0.997327
0.997325
0.998218
0.997985
0.997814
0.997705
0.997639
0.997592
0.99754
0.997475
0.997406
0.997349
0.997316
0.99731
0.998214
0.997988
0.997817
0.997703
0.997631
0.997579
0.997525
0.99746
0.997392
0.997335
0.997301
0.997291
0.998206
0.997987
0.997817
0.9977
0.997622
0.997565
0.997507
0.997442
0.997374
0.997318
0.997282
0.997271
0.998194
0.997982
0.997814
0.997694
0.997611
0.997548
0.997487
0.99742
0.997353
0.997297
0.997261
0.997249
0.998181
0.997975
0.997807
0.997685
0.997597
0.997529
0.997464
0.997396
0.997329
0.997274
0.997239
0.997227
0.998166
0.997965
0.997798
0.997672
0.99758
0.997506
0.997439
0.997369
0.997303
0.99725
0.997216
0.997204
0.998149
0.997952
0.997785
0.997656
0.997559
0.997481
0.997411
0.997342
0.997277
0.997225
0.997192
0.99718
0.998129
0.997935
0.997768
0.997636
0.997535
0.997455
0.997383
0.997313
0.997249
0.997199
0.997167
0.997156
0.998106
0.997915
0.997747
0.997613
0.99751
0.997427
0.997354
0.997284
0.997222
0.997172
0.997141
0.99713
0.99808
0.997891
0.997723
0.997588
0.997483
0.997398
0.997325
0.997255
0.997193
0.997145
0.997114
0.997103
0.99805
0.997864
0.997697
0.99756
0.997454
0.997369
0.997295
0.997226
0.997164
0.997116
0.997086
0.997074
0.998018
0.997835
0.997669
0.997532
0.997425
0.997339
0.997265
0.997196
0.997135
0.997087
0.997056
0.997044
0.997984
0.997804
0.997639
0.997502
0.997395
0.997309
0.997234
0.997164
0.997103
0.997055
0.997024
0.997011
0.997949
0.997772
0.997609
0.997472
0.997364
0.997277
0.997202
0.997132
0.99707
0.997022
0.99699
0.996977
0.997913
0.99774
0.997578
0.997441
0.997332
0.997244
0.997168
0.997098
0.997036
0.996987
0.996955
0.996941
0.997877
0.997706
0.997546
0.997409
0.997299
0.99721
0.997133
0.997062
0.996999
0.99695
0.996918
0.996904
0.99784
0.997672
0.997513
0.997375
0.997264
0.997174
0.997095
0.997024
0.996961
0.996912
0.996879
0.996865
0.997803
0.997638
0.997479
0.99734
0.997227
0.997135
0.997056
0.996984
0.996921
0.996871
0.996838
0.996825
0.997765
0.997602
0.997443
0.997303
0.997188
0.997095
0.997014
0.996943
0.996879
0.996829
0.996796
0.996783
0.997727
0.997566
0.997406
0.997264
0.997147
0.997052
0.996971
0.996899
0.996835
0.996786
0.996753
0.99674
0.997688
0.997528
0.997367
0.997223
0.997103
0.997008
0.996926
0.996853
0.99679
0.99674
0.996707
0.996695
0.997649
0.997489
0.997327
0.99718
0.997059
0.996961
0.996879
0.996806
0.996742
0.996693
0.996661
0.996649
0.997608
0.997448
0.997285
0.997136
0.997012
0.996913
0.99683
0.996757
0.996693
0.996644
0.996612
0.996601
0.997567
0.997407
0.997241
0.99709
0.996963
0.996863
0.996779
0.996706
0.996642
0.996593
0.996562
0.996552
0.997525
0.997364
0.997196
0.997042
0.996913
0.996811
0.996727
0.996653
0.996589
0.996541
0.996511
0.996502
0.997482
0.99732
0.99715
0.996993
0.996862
0.996758
0.996673
0.996598
0.996535
0.996487
0.996458
0.996451
0.997439
0.997274
0.997102
0.996942
0.996808
0.996703
0.996617
0.996543
0.99648
0.996433
0.996405
0.996399
0.997394
0.997228
0.997053
0.996889
0.996754
0.996647
0.99656
0.996485
0.996423
0.996376
0.99635
0.996345
0.997348
0.99718