/*--------------------------------*- C++ -*----------------------------------*\
  =========                 |
  \\      /  F ield         | OpenFOAM: The Open Source CFD Toolbox
   \\    /   O peration     | Website:  https://openfoam.org
    \\  /    A nd           | Version:  6.0
     \\/     M anipulation  |
\*---------------------------------------------------------------------------*/
FoamFile
{
    version     2.0;
    format      ascii;
    class       surfaceScalarField;
    location    "0.6";
    object      phi;
}
// * * * * * * * * * * * * * * * * * * * * * * * * * * * * * * * * * * * * * //

dimensions      [0 3 -1 0 0 0 0];

internalField   nonuniform List<scalar> 
47678
(
2.98131e-05
0.00388594
-3.02646e-11
5.98481e-05
0.00381846
8.91145e-05
0.0036859
0.000116963
0.00349028
0.000142855
0.00323502
0.000166312
0.00292456
0.000186915
0.00256421
0.000204295
0.0021602
0.000218145
0.0017195
0.000228219
0.00124972
0.000234338
0.000759536
0.000260036
0.000236861
2.96242e-05
0.00385632
-4.19443e-10
5.94691e-05
0.00378862
8.855e-05
0.00365682
0.000116221
0.00346262
0.000141946
0.00320931
0.000165253
0.00290126
0.000185723
0.00254374
0.000202993
0.00214293
0.000216755
0.00170575
0.000226762
0.00123972
0.00023292
0.000753386
0.000257466
0.000235497
2.94363e-05
0.00382688
-8.36576e-10
5.90924e-05
0.00375896
8.79891e-05
0.00362793
0.000115484
0.00343512
0.000141045
0.00318375
0.000164203
0.0028781
0.000184542
0.00252341
0.000201701
0.00212578
0.000215376
0.00169207
0.000225317
0.00122978
0.000231452
0.00074725
0.000254931
0.000233979
2.92497e-05
0.00379764
-1.33238e-09
5.87183e-05
0.0037295
8.74317e-05
0.00359922
0.000114751
0.00340781
0.000140149
0.00315836
0.000163158
0.0028551
0.000183368
0.0025032
0.000200417
0.00210873
0.000214006
0.00167849
0.000223883
0.0012199
0.000229971
0.000741169
0.000252486
0.000232422
2.90646e-05
0.00376857
-1.89943e-09
5.83467e-05
0.00370021
8.68778e-05
0.00357069
0.000114023
0.00338066
0.000139258
0.00313312
0.00016212
0.00283224
0.0001822
0.00248312
0.000199141
0.00209179
0.000212645
0.00166499
0.00022246
0.00121009
0.000228497
0.00073513
0.000250091
0.000230883
2.88808e-05
0.0037397
-2.4874e-09
5.79775e-05
0.00367112
8.63272e-05
0.00354234
0.000113299
0.0033537
0.000138372
0.00310806
0.000161089
0.00280952
0.000181041
0.00246318
0.000197873
0.00207496
0.000211292
0.00165158
0.000221047
0.00120034
0.000227036
0.000729147
0.000247758
0.000229373
2.86982e-05
0.003711
-3.11772e-09
5.76104e-05
0.00364221
8.57798e-05
0.00351418
0.000112579
0.0033269
0.000137493
0.00308314
0.000160064
0.00278695
0.000179889
0.00244335
0.000196614
0.00205824
0.000209948
0.00163824
0.000219643
0.00119064
0.000225589
0.000723199
0.000245453
0.000227886
2.85166e-05
0.00368249
-3.77163e-09
5.72454e-05
0.00361348
8.52356e-05
0.00348619
0.000111864
0.00330027
0.000136618
0.00305839
0.000159046
0.00276453
0.000178744
0.00242366
0.000195363
0.00204162
0.000208613
0.001625
0.00021825
0.00118101
0.000224155
0.000717299
0.0002432
0.000226414
2.83362e-05
0.00365416
-4.45883e-09
5.68825e-05
0.00358493
8.46945e-05
0.00345838
0.000111153
0.00327381
0.000135749
0.0030338
0.000158034
0.00274224
0.000177607
0.00240409
0.000194121
0.00202511
0.000207286
0.00161183
0.000216865
0.00117143
0.000222732
0.000711429
0.000240973
0.000224953
2.81568e-05
0.00362601
-5.15313e-09
5.65217e-05
0.00355657
8.41565e-05
0.00343074
0.000110446
0.00324752
0.000134886
0.00300936
0.000157029
0.0027201
0.000176478
0.00238464
0.000192887
0.0020087
0.000205969
0.00159875
0.000215489
0.00116191
0.000221318
0.000705605
0.000238793
0.000223504
2.79783e-05
0.00359803
-5.8043e-09
5.61629e-05
0.00352839
8.36217e-05
0.00340329
0.000109744
0.0032214
0.000134028
0.00298507
0.00015603
0.0026981
0.000175355
0.00236532
0.00019166
0.0019924
0.00020466
0.00158575
0.000214122
0.00115245
0.000219913
0.000699811
0.000236633
0.000222068
2.78008e-05
0.00357024
-6.3451e-09
5.58061e-05
0.00350038
8.309e-05
0.003376
0.000109046
0.00319545
0.000133176
0.00296095
0.000155038
0.00267624
0.00017424
0.00234612
0.000190442
0.0019762
0.000203359
0.00157284
0.000212764
0.00114305
0.000218518
0.000694062
0.000234512
0.000220645
2.76243e-05
0.00354262
-6.66725e-09
5.54513e-05
0.00347256
8.25615e-05
0.00334889
0.000108352
0.00316966
0.000132329
0.00293697
0.000154052
0.00265452
0.000173132
0.00232704
0.000189231
0.0019601
0.000202067
0.00156
0.000211414
0.0011337
0.000217131
0.000688341
0.000232407
0.000219232
2.74487e-05
0.00351518
-6.66323e-09
5.50986e-05
0.00344491
8.20362e-05
0.00332196
0.000107663
0.00314403
0.000131487
0.00291315
0.000153073
0.00263294
0.000172032
0.00230808
0.000188029
0.0019441
0.000200784
0.00154725
0.000210073
0.00112441
0.000215754
0.000682665
0.000230338
0.000217829
2.72739e-05
0.00348791
-6.23578e-09
5.4748e-05
0.00341743
8.15141e-05
0.00329519
0.000106978
0.00311857
0.000130651
0.00288948
0.000152099
0.00261149
0.000170938
0.00228924
0.000186834
0.00192821
0.000199508
0.00153458
0.00020874
0.00111518
0.000214385
0.000677016
0.00022828
0.000216437
2.71001e-05
0.00346082
-5.31273e-09
5.43994e-05
0.00339013
8.09953e-05
0.0032686
0.000106297
0.00309327
0.00012982
0.00286596
0.000151132
0.00259018
0.000169852
0.00227052
0.000185647
0.00191242
0.000198241
0.00152199
0.000207416
0.00110601
0.000213026
0.000671412
0.000226257
0.000215055
2.69273e-05
0.0034339
-3.89032e-09
5.40529e-05
0.00336301
8.04796e-05
0.00324217
0.000105621
0.00306812
0.000128994
0.00284258
0.000150171
0.002569
0.000168772
0.00225192
0.000184468
0.00189672
0.000196983
0.00150947
0.000206101
0.00109689
0.000211675
0.000665834
0.000224241
0.000213683
2.67553e-05
0.00340715
-2.00728e-09
5.37085e-05
0.00333606
7.99672e-05
0.00321591
0.000104949
0.00304314
0.000128174
0.00281936
0.000149217
0.00254796
0.0001677
0.00223344
0.000183296
0.00188113
0.000195732
0.00149704
0.000204793
0.00108783
0.000210332
0.0006603
0.000222258
0.00021232
2.65843e-05
0.00338056
2.41862e-10
5.33662e-05
0.00330927
7.9458e-05
0.00318982
0.000104281
0.00301832
0.000127359
0.00279628
0.000148268
0.00252705
0.000166634
0.00221507
0.000182132
0.00186563
0.00019449
0.00148467
0.000203494
0.00107882
0.000208998
0.000654793
0.00022028
0.000210967
2.64142e-05
0.00335414
2.73771e-09
5.30259e-05
0.00328266
7.8952e-05
0.0031639
0.000103618
0.00299366
0.000126549
0.00277335
0.000147326
0.00250627
0.000165575
0.00219683
0.000180975
0.00185023
0.000193255
0.0014724
0.000202204
0.00106988
0.000207673
0.000649329
0.000218334
0.000209623
2.6245e-05
0.00332789
5.36211e-09
5.26877e-05
0.00325622
7.84492e-05
0.00313813
0.000102959
0.00296914
0.000125744
0.00275056
0.000146389
0.00248562
0.000164523
0.00217869
0.000179826
0.00183492
0.000192028
0.00146019
0.000200921
0.00106098
0.000206356
0.000643891
0.00021639
0.000208288
2.60768e-05
0.00330181
8.0161e-09
5.23516e-05
0.00322995
7.79495e-05
0.00311254
0.000102303
0.00294479
0.000124945
0.00272793
0.000145459
0.00246511
0.000163478
0.00216068
0.000178684
0.00181972
0.00019081
0.00144807
0.000199647
0.00105215
0.000205047
0.000638495
0.000214479
0.000206962
2.59096e-05
0.00327589
1.06331e-08
5.20175e-05
0.00320384
7.74529e-05
0.0030871
0.000101652
0.00292059
0.00012415
0.00270543
0.000144534
0.00244473
0.00016244
0.00214277
0.000177549
0.00180461
0.000189599
0.00143602
0.000198381
0.00104336
0.000203747
0.000633126
0.000212568
0.000205644
2.57432e-05
0.00325013
1.31881e-08
5.16854e-05
0.0031779
7.69594e-05
0.00306183
0.000101005
0.00289655
0.000123361
0.00268307
0.000143616
0.00242447
0.000161408
0.00212498
0.000176422
0.0017896
0.000188396
0.00142405
0.000197123
0.00103464
0.000202454
0.000627799
0.000210691
0.000204336
2.55779e-05
0.00322454
1.56781e-08
5.13554e-05
0.00315212
7.6469e-05
0.00303672
0.000100362
0.00287265
0.000122576
0.00266086
0.000142703
0.00240434
0.000160383
0.0021073
0.000175302
0.00177468
0.0001872
0.00141215
0.000195873
0.00102596
0.00020117
0.000622497
0.000208812
0.000203037
2.54134e-05
0.00319911
1.81237e-08
5.10273e-05
0.00312651
7.59816e-05
0.00301176
9.97236e-05
0.00284891
0.000121797
0.00263879
0.000141796
0.00238435
0.000159364
0.00208973
0.00017419
0.00175985
0.000186012
0.00140033
0.00019463
0.00101735
0.000199895
0.000617237
0.000206967
0.000201746
2.525e-05
0.00317384
2.05432e-08
5.07013e-05
0.00310105
7.54972e-05
0.00298697
9.90888e-05
0.00282532
0.000121022
0.00261685
0.000140895
0.00236447
0.000158352
0.00207227
0.000173084
0.00174512
0.000184832
0.00138858
0.000193396
0.00100878
0.000198627
0.000612002
0.000205118
0.000200465
2.50875e-05
0.00314873
2.2951e-08
5.03773e-05
0.00307576
7.50159e-05
0.00296233
9.8458e-05
0.00280188
0.000120252
0.00259506
0.00014
0.00234473
0.000157346
0.00205493
0.000171985
0.00173048
0.00018366
0.00137691
0.000192169
0.00100028
0.000197367
0.000606809
0.000203302
0.000199191
2.4926e-05
0.00312378
2.53441e-08
5.00553e-05
0.00305063
7.45376e-05
0.00293785
9.78312e-05
0.00277858
0.000119488
0.0025734
0.00013911
0.0023251
0.000156347
0.00203769
0.000170894
0.00171593
0.000182494
0.0013653
0.000190951
0.000991816
0.000196116
0.000601639
0.000201482
0.000197926
2.47654e-05
0.00309899
2.77066e-08
4.97353e-05
0.00302567
7.40623e-05
0.00291352
9.72083e-05
0.00275544
0.000118728
0.00255189
0.000138226
0.00230561
0.000155354
0.00202056
0.000169809
0.00170148
0.000181337
0.00135378
0.00018974
0.000983417
0.000194872
0.000596512
0.000199695
0.000196669
2.46058e-05
0.00307435
3.00054e-08
4.94172e-05
0.00300085
7.35899e-05
0.00288935
9.65893e-05
0.00273244
0.000117973
0.0025305
0.000137348
0.00228623
0.000154368
0.00200354
0.000168731
0.00168712
0.000180186
0.00134232
0.000188537
0.000975063
0.000193637
0.000591407
0.000197904
0.00019542
2.44472e-05
0.00304987
3.22032e-08
4.91012e-05
0.0029762
7.31206e-05
0.00286533
9.59743e-05
0.00270959
0.000117222
0.00250925
0.000136475
0.00226698
0.000153388
0.00198663
0.000167661
0.00167285
0.000179043
0.00133094
0.000187341
0.00096677
0.000192409
0.000586345
0.000196144
0.000194179
2.42897e-05
0.00302555
3.42559e-08
4.87871e-05
0.0029517
7.26542e-05
0.00284146
9.53632e-05
0.00268687
0.000116477
0.00248814
0.000135608
0.00224784
0.000152414
0.00196982
0.000166597
0.00165866
0.000177908
0.00131963
0.000186153
0.000958521
0.000191189
0.000581304
0.000194379
0.000192946
2.41331e-05
0.00300138
3.61283e-08
4.8475e-05
0.00292736
7.21907e-05
0.00281775
9.4756e-05
0.00266431
0.000115736
0.00246716
0.000134746
0.00222883
0.000151446
0.00195313
0.00016554
0.00164457
0.000176779
0.00130839
0.000184973
0.000950332
0.000189976
0.000576305
0.000192644
0.000191721
2.39775e-05
0.00297736
3.77904e-08
4.81649e-05
0.00290317
7.17303e-05
0.00279418
9.41526e-05
0.00264189
0.000115
0.00244631
0.00013389
0.00220994
0.000150485
0.00193653
0.000164489
0.00163056
0.000175658
0.00129722
0.0001838
0.000942187
0.000188772
0.000571327
0.000190905
0.000190504
2.3823e-05
0.0029535
3.92297e-08
4.78568e-05
0.00287914
7.12727e-05
0.00277077
9.35532e-05
0.00261961
0.000114269
0.0024256
0.00013304
0.00219117
0.000149529
0.00192004
0.000163445
0.00161665
0.000174544
0.00128613
0.000182634
0.000934101
0.000187575
0.000566392
0.000189194
0.000189294
2.36694e-05
0.00292979
4.04441e-08
4.75507e-05
0.00285526
7.08181e-05
0.0027475
9.29575e-05
0.00259747
0.000113542
0.00240501
0.000132195
0.00217252
0.00014858
0.00190366
0.000162408
0.00160282
0.000173437
0.00127509
0.000181476
0.000926057
0.000186385
0.000561477
0.000187477
0.000188092
2.3517e-05
0.00290623
4.14478e-08
4.72466e-05
0.00283153
7.03665e-05
0.00272438
9.23657e-05
0.00257547
0.00011282
0.00238456
0.000131355
0.00215399
0.000147637
0.00188738
0.000161378
0.00158908
0.000172337
0.00126414
0.000180325
0.000918073
0.000185203
0.000556604
0.000185789
0.000186898
2.33655e-05
0.00288282
4.22607e-08
4.69445e-05
0.00280795
6.99177e-05
0.0027014
9.17777e-05
0.00255361
0.000112103
0.00236423
0.00013052
0.00213556
0.000146699
0.00187119
0.000160354
0.00157542
0.000171244
0.00125325
0.000179182
0.00091013
0.000184029
0.00055175
0.000184093
0.000185712
2.32151e-05
0.00285957
4.29107e-08
4.66443e-05
0.00278452
6.94719e-05
0.00267858
9.11935e-05
0.00253189
0.00011139
0.00234404
0.000129691
0.00211727
0.000145768
0.00185512
0.000159336
0.00156186
0.000170157
0.00124243
0.000178046
0.000902246
0.000182861
0.000546939
0.000182426
0.000184533
2.30657e-05
0.00283646
4.34205e-08
4.63461e-05
0.00276124
6.9029e-05
0.00265589
9.0613e-05
0.0025103
0.000110682
0.00232397
0.000128867
0.00209908
0.000144843
0.00183914
0.000158325
0.00154837
0.000169078
0.00123167
0.000176917
0.000894403
0.000181702
0.000542147
0.00018075
0.000183361
2.29173e-05
0.0028135
4.3812e-08
4.60499e-05
0.00273811
6.85889e-05
0.00263336
9.00363e-05
0.00248885
0.000109978
0.00230403
0.000128049
0.00208101
0.000143923
0.00182327
0.000157321
0.00153498
0.000168006
0.00122099
0.000175795
0.000886619
0.000180549
0.000537397
0.000179105
0.000182198
2.277e-05
0.00279068
4.40959e-08
4.57556e-05
0.00271512
6.81517e-05
0.00261096
8.94633e-05
0.00246754
0.000109279
0.00228421
0.000127235
0.00206305
0.00014301
0.00180749
0.000156322
0.00152166
0.00016694
0.00121037
0.00017468
0.000878874
0.000179404
0.000532664
0.000177448
0.000181041
2.26237e-05
0.00276802
4.42806e-08
4.54633e-05
0.00269228
6.77174e-05
0.00258871
8.88939e-05
0.00244637
0.000108584
0.00226452
0.000126427
0.00204521
0.000142102
0.00179182
0.000155331
0.00150843
0.000165881
0.00119982
0.000173572
0.000871187
0.000178267
0.000527974
0.000175824
0.000179892
2.24784e-05
0.00274549
4.43677e-08
4.51729e-05
0.00266958
6.72858e-05
0.00256659
8.83283e-05
0.00242532
0.000107894
0.00224495
0.000125624
0.00202748
0.0001412
0.00177624
0.000154345
0.00149529
0.000164829
0.00118933
0.000172472
0.000863539
0.000177136
0.000523301
0.000174187
0.000178751
2.23341e-05
0.00272311
4.43644e-08
4.48844e-05
0.00264704
6.68571e-05
0.00254462
8.77663e-05
0.00240441
0.000107208
0.00222551
0.000124826
0.00200986
0.000140303
0.00176077
0.000153366
0.00148223
0.000163784
0.00117892
0.000171378
0.000855949
0.000176013
0.000518669
0.000172584
0.000177617
2.21909e-05
0.00270088
4.42809e-08
4.45979e-05
0.00262463
6.64312e-05
0.00252279
8.72079e-05
0.00238363
0.000106527
0.00220619
0.000124033
0.00199235
0.000139413
0.00174539
0.000152392
0.00146924
0.000162745
0.00116856
0.000170292
0.000848397
0.000174897
0.000514051
0.000170967
0.000176491
2.20486e-05
0.00267879
4.4142e-08
4.43132e-05
0.00260236
6.6008e-05
0.00250109
8.66531e-05
0.00236299
0.00010585
0.00218699
0.000123246
0.00197496
0.000138527
0.00173011
0.000151425
0.00145635
0.000161712
0.00115828
0.000169212
0.000840902
0.000173788
0.000509475
0.000169388
0.000175372
2.19074e-05
0.00265683
4.39805e-08
4.40304e-05
0.00258024
6.55875e-05
0.00247953
8.61018e-05
0.00234247
0.000105177
0.00216792
0.000122463
0.00195767
0.000137648
0.00171492
0.000150465
0.00144353
0.000160687
0.00114805
0.000168139
0.000833444
0.000172686
0.000504914
0.000167795
0.00017426
2.17671e-05
0.00263502
4.38426e-08
4.37495e-05
0.00255826
6.51698e-05
0.00245811
8.55541e-05
0.00232209
0.000104509
0.00214896
0.000121685
0.00194049
0.000136774
0.00169983
0.00014951
0.0014308
0.000159668
0.0011379
0.000167073
0.000826043
0.000171591
0.000500394
0.00016624
0.000173155
2.16278e-05
0.00261335
4.3776e-08
4.34704e-05
0.00253641
6.47548e-05
0.00243683
8.50099e-05
0.00230183
0.000103844
0.00213013
0.000120912
0.00192342
0.000135906
0.00168483
0.000148561
0.00141814
0.000158655
0.0011278
0.000166013
0.000818678
0.000170503
0.000495887
0.00016467
0.000172058
2.14894e-05
0.00259182
4.38301e-08
4.31931e-05
0.00251471
6.43425e-05
0.00241568
8.44692e-05
0.00228171
0.000103184
0.00211141
0.000120144
0.00190646
0.000135043
0.00166994
0.000147618
0.00140556
0.000157649
0.00111777
0.000164961
0.00081137
0.000169422
0.000491422
0.000163139
0.000170967
2.1352e-05
0.00257042
4.40421e-08
4.29177e-05
0.00249314
6.39328e-05
0.00239466
8.39319e-05
0.00226171
0.000102528
0.00209281
0.000119381
0.00188961
0.000134186
0.00165513
0.000146682
0.00139306
0.000156649
0.0011078
0.000163915
0.000804097
0.000168348
0.000486971
0.000161593
0.000169884
2.12155e-05
0.00254916
4.44383e-08
4.2644e-05
0.00247172
6.35257e-05
0.00237378
8.3398e-05
0.00224184
0.000101877
0.00207434
0.000118622
0.00187286
0.000133334
0.00164042
0.000145751
0.00138065
0.000155655
0.0010979
0.000162876
0.00079688
0.000167281
0.000482562
0.000160084
0.000168807
2.10799e-05
0.00252803
4.50241e-08
4.23722e-05
0.00245042
6.31213e-05
0.00235303
8.28675e-05
0.00222209
0.000101229
0.00205597
0.000117869
0.00185622
0.000132487
0.0016258
0.000144826
0.00136831
0.000154668
0.00108805
0.000161843
0.000789698
0.000166221
0.000478167
0.00015856
0.000167738
2.09452e-05
0.00250704
4.57911e-08
4.21021e-05
0.00242927
6.27194e-05
0.00233242
8.23405e-05
0.00220247
0.000100586
0.00203773
0.00011712
0.00183969
0.000131646
0.00161127
0.000143907
0.00135605
0.000153687
0.00107827
0.000160817
0.000782571
0.000165168
0.000473814
0.000157068
0.000166675
2.08114e-05
0.00248618
4.67131e-08
4.18338e-05
0.00240824
6.23202e-05
0.00231193
8.18167e-05
0.00218297
9.99464e-05
0.00201959
0.000116376
0.00182325
0.000130811
0.00159684
0.000142994
0.00134386
0.000152713
0.00106855
0.000159798
0.000775478
0.000164121
0.000469474
0.00015556
0.000165619
2.06785e-05
0.00246546
4.77587e-08
4.15672e-05
0.00238735
6.19234e-05
0.00229157
8.12963e-05
0.0021636
9.93112e-05
0.00200158
0.000115637
0.00180693
0.00012998
0.0015825
0.000142087
0.00133176
0.000151744
0.0010589
0.000158785
0.00076844
0.000163081
0.000465177
0.000154083
0.00016457
2.05465e-05
0.00244486
4.88898e-08
4.13023e-05
0.0023666
6.15292e-05
0.00227134
8.07792e-05
0.00214434
9.86799e-05
0.00198368
0.000114902
0.0017907
0.000129155
0.00156824
0.000141186
0.00131972
0.000150782
0.00104929
0.000157779
0.000761435
0.000162048
0.000460893
0.000152589
0.000163527
2.04153e-05
0.00242439
5.00748e-08
4.10391e-05
0.00234597
6.11375e-05
0.00225125
8.02654e-05
0.00212522
9.80526e-05
0.00196589
0.000114173
0.00177459
0.000128335
0.00155408
0.00014029
0.00130777
0.000149826
0.00103976
0.000156779
0.000754484
0.000161022
0.00045665
0.000151126
0.000162491
2.02849e-05
0.00240406
5.12849e-08
4.07776e-05
0.00232548
6.07483e-05
0.00223127
7.97548e-05
0.00210621
9.74293e-05
0.00194821
0.000113447
0.00175856
0.000127521
0.00154
0.0001394
0.00129589
0.000148877
0.00103028
0.000155786
0.000747566
0.000160002
0.000452419
0.000149645
0.000161462
2.01553e-05
0.00238385
5.25037e-08
4.05178e-05
0.00230512
6.03616e-05
0.00221143
7.92474e-05
0.00208732
9.681e-05
0.00193065
0.000112727
0.00174265
0.000126711
0.00152602
0.000138516
0.00128408
0.000147933
0.00102086
0.000154799
0.000740702
0.000158989
0.000448229
0.000148195
0.00016044
2.00266e-05
0.00236376
5.37192e-08
4.02596e-05
0.00228488
5.99773e-05
0.00219171
7.87433e-05
0.00206856
9.61946e-05
0.0019132
0.000112011
0.00172683
0.000125907
0.00151212
0.000137637
0.00127235
0.000146995
0.00101149
0.000153818
0.000733869
0.000157982
0.000444051
0.000146727
0.000159424
1.98987e-05
0.00234381
5.49295e-08
4.0003e-05
0.00226478
5.95954e-05
0.00217212
7.82424e-05
0.00204991
9.55831e-05
0.00189586
0.000111299
0.00171112
0.000125108
0.00149831
0.000136764
0.00126069
0.000146063
0.0010022
0.000152844
0.000727089
0.000156982
0.000439911
0.000145292
0.000158415
1.97716e-05
0.00232398
5.61318e-08
3.97481e-05
0.0022448
5.9216e-05
0.00215265
7.77446e-05
0.00203138
9.49755e-05
0.00187863
0.000110592
0.00169549
0.000124314
0.00148459
0.000135897
0.0012491
0.000145138
0.000992949
0.000151876
0.000720341
0.000155988
0.000435782
0.000143839
0.000157412
1.96452e-05
0.00230428
5.73271e-08
3.94947e-05
0.00222495
5.88389e-05
0.00213331
7.725e-05
0.00201297
9.43718e-05
0.00186151
0.00010989
0.00167998
0.000123525
0.00147095
0.000135035
0.00123759
0.000144218
0.000983767
0.000150915
0.000713645
0.000155001
0.000431691
0.000142424
0.000156417
1.95196e-05
0.0022847
5.851e-08
3.9243e-05
0.00220523
5.84642e-05
0.00211408
7.67585e-05
0.00199467
9.37719e-05
0.00184449
0.000109192
0.00166455
0.000122741
0.0014574
0.000134179
0.00122615
0.000143304
0.000974633
0.000149959
0.00070698
0.00015402
0.000427612
0.000140992
0.000155428
1.93948e-05
0.00226524
5.96751e-08
3.89928e-05
0.00218563
5.80919e-05
0.00209499
7.62702e-05
0.00197649
9.31758e-05
0.00182758
0.000108498
0.00164923
0.000121962
0.00144394
0.000133328
0.00121479
0.000142397
0.000965565
0.00014901
0.000700367
0.000153046
0.00042357
0.000139598
0.000154445
1.92708e-05
0.00224591
6.08088e-08
3.87442e-05
0.00216616
5.7722e-05
0.00207601
7.57849e-05
0.00195843
9.25835e-05
0.00181078
0.000107809
0.001634
0.000121188
0.00143055
0.000132483
0.00120348
0.000141495
0.000956544
0.000148067
0.000693784
0.000152078
0.000419537
0.000138188
0.000153469
1.91475e-05
0.0022267
6.18988e-08
3.84971e-05
0.00214681
5.73543e-05
0.00205715
7.53027e-05
0.00194048
9.1995e-05
0.00179409
0.000107125
0.00161887
0.000120419
0.00141726
0.000131643
0.00119226
0.000140599
0.000947589
0.00014713
0.000687253
0.000151116
0.000415544
0.000136815
0.0001525
1.90249e-05
0.00220761
6.29276e-08
3.82516e-05
0.00212758
5.6989e-05
0.00203841
7.48236e-05
0.00192264
9.14102e-05
0.0017775
0.000106444
0.00160384
0.000119655
0.00140404
0.000130809
0.0011811
0.000139708
0.000938681
0.000146199
0.000680752
0.000150161
0.00041156
0.000135429
0.000151537
1.89031e-05
0.00218864
6.38834e-08
3.80076e-05
0.00210848
5.6626e-05
0.00201979
7.43475e-05
0.00190492
9.08292e-05
0.00176102
0.000105769
0.0015889
0.000118896
0.00139092
0.00012998
0.00117002
0.000138824
0.000929836
0.000145274
0.000674301
0.000149211
0.000407616
0.000134076
0.00015058
1.8782e-05
0.00216979
6.47532e-08
3.77651e-05
0.00208949
5.62653e-05
0.00200129
7.38744e-05
0.00188731
9.02518e-05
0.00174464
0.000105097
0.00157405
0.000118142
0.00137787
0.000129156
0.00115899
0.000137945
0.000921038
0.000144355
0.00066788
0.000148269
0.000403683
0.000132709
0.00014963
1.86616e-05
0.00215107
6.55327e-08
3.75242e-05
0.00207063
5.59068e-05
0.00198291
7.34043e-05
0.00186982
8.96782e-05
0.00172837
0.00010443
0.0015593
0.000117393
0.0013649
0.000128338
0.00114805
0.000137072
0.000912304
0.000143442
0.000661509
0.000147332
0.000399789
0.000131374
0.000148686
1.8542e-05
0.00213246
6.62188e-08
3.72847e-05
0.00205189
5.55506e-05
0.00196464
7.29373e-05
0.00185243
8.91082e-05
0.00171219
0.000103767
0.00154463
0.000116649
0.00135202
0.000127525
0.00113717
0.000136204
0.000903615
0.000142535
0.000655167
0.000146401
0.000395904
0.000130023
0.000147748
1.84231e-05
0.00211397
6.68162e-08
3.70467e-05
0.00203326
5.51967e-05
0.00194649
7.24732e-05
0.00183515
8.85419e-05
0.00169612
0.000103108
0.00153007
0.000115909
0.00133922
0.000126718
0.00112636
0.000135343
0.000894989
0.000141634
0.000648875
0.000145477
0.000392059
0.000128704
0.000146816
1.83049e-05
0.00209559
6.73291e-08
3.68102e-05
0.00201476
5.4845e-05
0.00192846
7.2012e-05
0.00181798
8.79793e-05
0.00168015
0.000102454
0.00151559
0.000115174
0.00132649
0.000125915
0.00111561
0.000134487
0.000886408
0.000140739
0.000642612
0.000144559
0.000388224
0.000127367
0.000145891
1.81875e-05
0.00207734
6.77668e-08
3.65752e-05
0.00199637
5.44955e-05
0.00191054
7.15538e-05
0.00180092
8.74202e-05
0.00166429
0.000101804
0.0015012
0.000114444
0.00131385
0.000125118
0.00110493
0.000133636
0.000877888
0.00013985
0.000636398
0.000143646
0.000384427
0.000126063
0.000144971
1.80707e-05
0.0020592
6.81349e-08
3.63416e-05
0.0019781
5.41482e-05
0.00189273
7.10986e-05
0.00178397
8.68647e-05
0.00164852
0.000101158
0.00148691
0.000113719
0.00130128
0.000124326
0.00109432
0.000132791
0.000869414
0.000138966
0.000630212
0.00014274
0.000380639
0.00012474
0.000144057
1.79547e-05
0.00204117
6.84418e-08
3.61095e-05
0.00195994
5.38031e-05
0.00187504
7.06462e-05
0.00176713
8.63128e-05
0.00163285
0.000100516
0.0014727
0.000112998
0.0012888
0.000123539
0.00108378
0.000131951
0.000861
0.000138088
0.000624074
0.00014184
0.000376889
0.00012345
0.00014315
1.78394e-05
0.00202326
6.86913e-08
3.58789e-05
0.0019419
5.34603e-05
0.00185745
7.01968e-05
0.00175039
8.57645e-05
0.00161728
9.9878e-05
0.00145858
0.000112282
0.00127639
0.000122757
0.00107329
0.000131117
0.00085263
0.000137216
0.000617964
0.000140945
0.000373148
0.000122141
0.000142248
1.77248e-05
0.00200547
6.88904e-08
3.56497e-05
0.00192398
5.31196e-05
0.00183999
6.97502e-05
0.00173376
8.52197e-05
0.00160181
9.92445e-05
0.00144456
0.000111571
0.00126406
0.000121981
0.00106288
0.000130289
0.000844321
0.00013635
0.000611903
0.000140057
0.000369444
0.000120865
0.000141353
1.76109e-05
0.00198779
6.90439e-08
3.54219e-05
0.00190617
5.2781e-05
0.00182263
6.93065e-05
0.00171723
8.46784e-05
0.00158644
9.8615e-05
0.00143062
0.000110864
0.0012518
0.000121209
0.00105253
0.000129466
0.000836055
0.00013549
0.000605868
0.000139174
0.000365749
0.00011957
0.000140463
1.74977e-05
0.00197022
6.91621e-08
3.51956e-05
0.00188847
5.24447e-05
0.00180538
6.88656e-05
0.00170081
8.41406e-05
0.00157116
9.79897e-05
0.00141677
0.000110162
0.00123963
0.000120442
0.00104225
0.000128648
0.000827848
0.000134635
0.000599881
0.000138297
0.000362091
0.000118308
0.000139579
1.73852e-05
0.00195276
6.92562e-08
3.49707e-05
0.00187088
5.21105e-05
0.00178824
6.84276e-05
0.00168449
8.36063e-05
0.00155598
9.73684e-05
0.001403
0.000109465
0.00122753
0.000119681
0.00103202
0.000127835
0.000819684
0.000133786
0.000593921
0.000137426
0.00035844
0.000117027
0.000138701
1.72735e-05
0.00193542
6.93448e-08
3.47473e-05
0.00185341
5.17784e-05
0.00177121
6.79924e-05
0.00166828
8.30755e-05
0.00154089
9.67512e-05
0.00138932
0.000108772
0.0012155
0.000118924
0.00102187
0.000127028
0.000811579
0.000132942
0.000588008
0.00013656
0.000354826
0.000115779
0.000137829
1.71624e-05
0.00191819
6.94471e-08
3.45252e-05
0.00183604
5.14485e-05
0.00175428
6.75601e-05
0.00165216
8.25481e-05
0.0015259
9.6138e-05
0.00137573
0.000108083
0.00120355
0.000118173
0.00101177
0.000126227
0.000803516
0.000132104
0.000582121
0.000135701
0.000351219
0.000114512
0.000136962
1.70521e-05
0.00190107
6.95883e-08
3.43046e-05
0.00181879
5.11206e-05
0.00173747
6.71305e-05
0.00163615
8.20242e-05
0.00151101
9.55287e-05
0.00136222
0.0001074
0.00119168
0.000117426
0.00100174
0.00012543
0.000795511
0.000131271
0.000576281
0.000134847
0.000347649
0.000113279
0.000136101
1.69425e-05
0.00188405
6.97911e-08
3.40854e-05
0.00180165
5.0795e-05
0.00172075
6.67037e-05
0.00162024
8.15036e-05
0.0014962
9.49235e-05
0.0013488
0.00010672
0.00117988
0.000116684
0.000991773
0.000124639
0.000787548
0.000130444
0.000570466
0.000133998
0.000344085
0.000112024
0.000135246
1.68335e-05
0.00186715
7.00789e-08
3.38676e-05
0.00178461
5.04714e-05
0.00170415
6.62797e-05
0.00160443
8.09865e-05
0.0014815
9.43222e-05
0.00133546
0.000106045
0.00116815
0.000115947
0.00098187
0.000123853
0.000779642
0.000129622
0.000564697
0.000133155
0.000340558
0.000110805
0.000134397
1.67253e-05
0.00185035
7.0468e-08
3.36513e-05
0.00176769
5.01499e-05
0.00168765
6.58584e-05
0.00158872
8.04727e-05
0.00146688
9.37249e-05
0.0013222
0.000105375
0.0011565
0.000115215
0.000972022
0.000123072
0.000771777
0.000128806
0.000558954
0.000132318
0.000337038
0.000109565
0.000133553
1.66178e-05
0.00183366
7.09712e-08
3.34363e-05
0.00175087
4.98305e-05
0.00167126
6.54399e-05
0.00157311
7.99623e-05
0.00145236
9.31315e-05
0.00130903
0.000104709
0.00114492
0.000114488
0.000962241
0.000122296
0.000763968
0.000127995
0.000553256
0.000131486
0.000333552
0.000108359
0.000132714
1.6511e-05
0.00181707
7.15911e-08
3.32227e-05
0.00173416
4.95132e-05
0.00165497
6.50242e-05
0.0015576
7.94553e-05
0.00143792
9.25419e-05
0.00129594
0.000104047
0.00113341
0.000113766
0.000952515
0.000121525
0.0007562
0.00012719
0.000547583
0.00013066
0.000330074
0.000107132
0.000131882
1.64049e-05
0.0018006
7.23261e-08
3.30106e-05
0.00171755
4.91979e-05
0.00163878
6.46111e-05
0.00154218
7.89515e-05
0.00142358
9.19563e-05
0.00128294
0.00010339
0.00112197
0.000113048
0.000942856
0.00012076
0.000748488
0.00012639
0.000541954
0.000129839
0.000326631
0.000105939
0.000131054
1.62995e-05
0.00178422
7.31652e-08
3.27998e-05
0.00170105
4.88847e-05
0.00162269
6.42007e-05
0.00152687
7.84511e-05
0.00140933
9.13745e-05
0.00127001
0.000102737
0.0011106
0.000112335
0.00093325
0.000119999
0.000740815
0.000125595
0.000536351
0.000129024
0.000323194
0.000104725
0.000130233
1.61947e-05
0.00176795
7.40954e-08
3.25904e-05
0.00168466
4.85736e-05
0.00160671
6.37931e-05
0.00151165
7.79539e-05
0.00139516
9.07965e-05
0.00125716
0.000102088
0.00109931
0.000111627
0.000923711
0.000119244
0.000733198
0.000124805
0.000530791
0.000128214
0.000319792
0.000103545
0.000129416
1.60907e-05
0.00175179
7.50988e-08
3.23824e-05
0.00166836
4.82645e-05
0.00159083
6.33881e-05
0.00149652
7.74601e-05
0.00138109
9.02223e-05
0.0012444
0.000101443
0.00108808
0.000110923
0.000914224
0.000118494
0.00072562
0.000124021
0.000525256
0.00012741
0.000316396
0.000102343
0.000128605
1.59874e-05
0.00173572
7.61592e-08
3.21758e-05
0.00165218
4.79575e-05
0.00157504
6.29858e-05
0.00148149
7.69695e-05
0.0013671
8.96519e-05
0.00123171
0.000100803
0.00107693
0.000110224
0.000904803
0.000117748
0.000718097
0.000123242
0.000519764
0.00012661
0.000313034
0.000101176
0.0001278
1.58848e-05
0.00171976
7.72587e-08
3.19705e-05
0.00163609
4.76525e-05
0.00155936
6.25861e-05
0.00146656
7.64821e-05
0.0013532
8.90853e-05
0.0012191
0.000100167
0.00106584
0.00010953
0.000895433
0.000117008
0.000710612
0.000122468
0.000514296
0.000125817
0.000309679
9.99865e-05
0.000127
1.57828e-05
0.0017039
7.83841e-08
3.17666e-05
0.00162011
4.73495e-05
0.00154378
6.21891e-05
0.00145172
7.59979e-05
0.00133939
8.85224e-05
0.00120658
9.95355e-05
0.00105483
0.00010884
0.000886128
0.000116272
0.000703181
0.000121699
0.000508871
0.000125028
0.000306357
9.88318e-05
0.000126205
1.56816e-05
0.00168813
7.9522e-08
3.15641e-05
0.00160422
4.70484e-05
0.00152829
6.17946e-05
0.00143697
7.55169e-05
0.00132567
8.79633e-05
0.00119413
9.8908e-05
0.00104388
0.000108155
0.000876875
0.000115541
0.000695788
0.000120935
0.00050347
0.000124245
0.000303041
9.76537e-05
0.000125415
1.5581e-05
0.00167247
8.06635e-08
3.13629e-05
0.00158844
4.67494e-05
0.00151291
6.14028e-05
0.00142231
7.50391e-05
0.00131203
8.74078e-05
0.00118176
9.82846e-05
0.001033