1.45 	0 	0 	-0.300273
2.35 	0 	0 	-0.133497
