1.275 	2.15223e-18 	-2.76991e-20 	-0.0344073 	-0.000440071 	-1.92756e-22
1.825 	2.15223e-18 	-1.39322e-20 	-0.00936324 	-0.00277117 	1.71029e-21
2.375 	2.15223e-18 	-2.66896e-23 	0.115592 	-0.00326089 	-7.13629e-22
