1.45 	0 	0 	-0.293532
2.35 	0 	0 	-0.128651
