1.275 	2.15223e-18 	-2.76991e-20 	-0.0339633 	-0.000441615 	-1.99029e-22
1.825 	2.15223e-18 	-1.39322e-20 	-0.00855643 	-0.00277999 	1.78853e-21
2.375 	2.15223e-18 	-2.66896e-23 	0.117878 	-0.00329701 	-7.46517e-22
