/*--------------------------------*- C++ -*----------------------------------*\
  =========                 |
  \\      /  F ield         | OpenFOAM: The Open Source CFD Toolbox
   \\    /   O peration     | Website:  https://openfoam.org
    \\  /    A nd           | Version:  6.0
     \\/     M anipulation  |
\*---------------------------------------------------------------------------*/
FoamFile
{
    version     2.0;
    format      ascii;
    class       volScalarField;
    location    "24";
    object      p;
}
// * * * * * * * * * * * * * * * * * * * * * * * * * * * * * * * * * * * * * //

dimensions      [0 2 -2 0 0 0 0];

internalField   nonuniform List<scalar> 
2000
(
-0.348739
-0.354645
-0.356331
-0.355661
-0.353798
-0.351119
-0.3479
-0.344436
-0.341013
-0.337311
-0.351458
-0.356943
-0.35829
-0.357318
-0.355167
-0.352213
-0.348731
-0.345006
-0.341329
-0.337508
-0.356915
-0.361541
-0.362197
-0.360615
-0.357883
-0.354373
-0.350357
-0.346095
-0.341889
-0.337823
-0.365151
-0.368438
-0.368031
-0.365522
-0.36191
-0.357554
-0.352713
-0.347607
-0.342554
-0.338099
-0.376226
-0.37763
-0.375762
-0.372001
-0.367204
-0.361705
-0.355733
-0.349429
-0.343127
-0.338078
-0.390205
-0.389103
-0.38535
-0.38001
-0.373734
-0.366805
-0.359383
-0.351475
-0.343397
-0.337432
-0.407119
-0.402816
-0.396735
-0.389509
-0.381494
-0.372892
-0.363759
-0.353864
-0.343363
-0.335901
-0.426914
-0.418669
-0.409825
-0.400435
-0.39047
-0.380011
-0.368973
-0.356728
-0.342782
-0.332334
-0.449377
-0.436489
-0.424505
-0.412749
-0.400701
-0.388254
-0.375011
-0.359447
-0.339359
-0.322043
-0.474074
-0.456011
-0.440676
-0.426598
-0.41281
-0.399111
-0.384744
-0.367075
-0.342033
-0.318052
-0.500318
-0.476809
-0.458067
-0.441895
-0.427163
-0.414248
-0.403489
-0.395527
-0.395658
-0.415182
-0.527284
-0.498307
-0.476063
-0.457529
-0.44119
-0.427503
-0.416946
-0.410575
-0.413523
-0.430785
-0.55425
-0.520045
-0.494389
-0.473385
-0.455017
-0.439651
-0.427653
-0.419741
-0.419024
-0.426832
-0.580568
-0.541552
-0.512733
-0.489287
-0.468647
-0.450999
-0.436502
-0.425409
-0.419198
-0.41785
-0.605487
-0.562161
-0.530471
-0.504591
-0.481375
-0.460805
-0.44284
-0.427357
-0.414778
-0.405141
-0.628019
-0.580938
-0.546658
-0.518292
-0.492145
-0.468066
-0.445933
-0.425435
-0.406404
-0.389607
-0.646879
-0.596671
-0.560063
-0.529105
-0.499669
-0.471612
-0.444897
-0.419217
-0.394156
-0.371494
-0.660508
-0.607906
-0.569224
-0.535548
-0.502519
-0.470185
-0.438764
-0.408101
-0.377747
-0.350564
-0.667142
-0.613005
-0.57252
-0.536026
-0.499218
-0.462531
-0.426572
-0.391423
-0.356714
-0.326318
-0.664917
-0.610228
-0.568255
-0.528929
-0.488335
-0.447477
-0.407435
-0.368543
-0.330542
-0.298169
-0.651976
-0.597833
-0.554761
-0.512729
-0.46858
-0.42402
-0.380625
-0.338937
-0.298785
-0.265582
-0.626584
-0.574179
-0.5305
-0.486087
-0.438892
-0.391399
-0.345634
-0.302267
-0.261154
-0.228187
-0.587269
-0.537859
-0.494194
-0.447965
-0.398536
-0.349167
-0.302237
-0.258441
-0.217585
-0.185848
-0.532934
-0.487814
-0.444933
-0.397712
-0.347156
-0.297224
-0.250514
-0.207639
-0.168283
-0.138706
-0.462975
-0.423445
-0.38227
-0.335132
-0.284809
-0.235823
-0.190842
-0.15031
-0.113723
-0.0871883
-0.377391
-0.344719
-0.306296
-0.260515
-0.211954
-0.165523
-0.123821
-0.0870726
-0.0545425
-0.0319191
-0.27687
-0.252241
-0.217694
-0.174662
-0.129451
-0.087168
-0.0502226
-0.0186271
0.00853945
0.0262748
-0.162852
-0.147298
-0.11775
-0.0788605
-0.0385353
-0.0018981
0.0288955
0.0539089
0.0739807
0.0853636
-0.0375472
-0.0318626
-0.00831215
0.0252154
0.0594093
0.0892338
0.112675
0.129322
0.139258
0.14163
0.0960891
0.0914219
0.108205
0.135536
0.16306
0.186052
0.202541
0.21091
0.209877
0.203149
0.234481
0.219291
0.228697
0.249207
0.269958
0.287073
0.29928
0.304763
0.303717
0.317636
0.373733
0.348098
0.349553
0.362374
0.375396
0.385371
0.391425
0.392668
0.391591
0.404515
0.509902
0.474171
0.467364
0.471917
0.476571
0.478651
0.477588
0.472968
0.467276
0.472379
0.639141
0.593903
0.578838
0.574937
0.571039
0.565051
0.556715
0.545882
0.534624
0.531782
0.757788
0.703854
0.680881
0.668772
0.656607
0.642859
0.627547
0.610711
0.594041
0.584094
0.862459
0.800857
0.770674
0.75103
0.731321
0.710544
0.688958
0.666746
0.64523
0.629075
0.950136
0.882103
0.84573
0.819595
0.793432
0.766682
0.739802
0.713091
0.687516
0.666158
1.01826
0.945227
0.903956
0.872681
0.841434
0.810007
0.779011
0.748823
0.720102
0.694687
1.06484
0.988375
0.943715
0.908883
0.874133
0.839497
0.805688
0.773137
0.742272
0.714071
1.08848
1.01027
0.963882
0.927232
0.890697
0.854429
0.819194
0.785448
0.753496
0.723877
1.08848
1.01027
0.963882
0.927232
0.890697
0.854429
0.819194
0.785448
0.753496
0.723877
1.06484
0.988375
0.943716
0.908883
0.874134
0.839498
0.805688
0.773138
0.742272
0.714071
1.01827
0.945228
0.903957
0.872681
0.841435
0.810008
0.779011
0.748823
0.720102
0.694687
0.950137
0.882104
0.845731
0.819596
0.793432
0.766682
0.739803
0.713092
0.687516
0.666158
0.86246
0.800858
0.770675
0.751031
0.731322
0.710545
0.688958
0.666746
0.645231
0.629075
0.75779
0.703855
0.680882
0.668774
0.656608
0.64286
0.627548
0.610711
0.594041
0.584095
0.639143
0.593905
0.57884
0.574938
0.57104
0.565052
0.556716
0.545882
0.534624
0.531783
0.509904
0.474173
0.467366
0.471918
0.476572
0.478652
0.477589
0.472968
0.467276
0.47238
0.373736
0.3481
0.349555
0.362375
0.375397
0.385372
0.391426
0.392668
0.391591
0.404516
0.234483
0.219293
0.228699
0.249208
0.26996
0.287075
0.299281
0.304764
0.303718
0.317637
0.0960914
0.091424
0.108206
0.135537
0.163061
0.186053
0.202542
0.210911
0.209878
0.20315
-0.0375449
-0.0318606
-0.00831034
0.025217
0.0594107
0.089235
0.112676
0.129323
0.139259
0.141631
-0.16285
-0.147296
-0.117748
-0.078859
-0.038534
-0.00189704
0.0288964
0.0539097
0.0739814
0.0853642
-0.276868
-0.252239
-0.217693
-0.17466
-0.12945
-0.0871671
-0.0502218
-0.0186264
0.00854003
0.0262753
-0.377389
-0.344718
-0.306295
-0.260514
-0.211953
-0.165522
-0.12382
-0.0870721
-0.054542
-0.0319187
-0.462974
-0.423444
-0.382269
-0.335131
-0.284808
-0.235822
-0.190841
-0.150309
-0.113723
-0.0871881
-0.532933
-0.487813
-0.444933
-0.397712
-0.347156
-0.297224
-0.250514
-0.207639
-0.168283
-0.138706
-0.587269
-0.537859
-0.494194
-0.447965
-0.398536
-0.349167
-0.302238
-0.258441
-0.217585
-0.185848
-0.626585
-0.574179
-0.5305
-0.486087
-0.438893
-0.391399
-0.345634
-0.302268
-0.261154
-0.228187
-0.651977
-0.597834
-0.554762
-0.51273
-0.468581
-0.42402
-0.380625
-0.338937
-0.298786
-0.265583
-0.664918
-0.610229
-0.568257
-0.528931
-0.488337
-0.447478
-0.407437
-0.368544
-0.330543
-0.29817
-0.667144
-0.613007
-0.572522
-0.536028
-0.49922
-0.462532
-0.426574
-0.391424
-0.356715
-0.32632
-0.66051
-0.607909
-0.569227
-0.53555
-0.502521
-0.470188
-0.438766
-0.408103
-0.377749
-0.350565
-0.646881
-0.596674
-0.560066
-0.529108
-0.499672
-0.471615
-0.444899
-0.41922
-0.394158
-0.371496
-0.628022
-0.580941
-0.546661
-0.518296
-0.492148
-0.468069
-0.445936
-0.425438
-0.406407
-0.389609
-0.605491
-0.562165
-0.530475
-0.504595
-0.481379
-0.460808
-0.442843
-0.42736
-0.414781
-0.405144
-0.580572
-0.541556
-0.512737
-0.489291
-0.468651
-0.451003
-0.436505
-0.425413
-0.419201
-0.417853
-0.554255
-0.520049
-0.494393
-0.473389
-0.455022
-0.439656
-0.427657
-0.419745
-0.419028
-0.426835
-0.527288
-0.498311
-0.476067
-0.457534
-0.441194
-0.427508
-0.41695
-0.41058
-0.413528
-0.430789
-0.500322
-0.476814
-0.458072
-0.441899
-0.427168
-0.414253
-0.403494
-0.395532
-0.395663
-0.415187
-0.474078
-0.456015
-0.44068
-0.426603
-0.412815
-0.399116
-0.384749
-0.36708
-0.342038
-0.318058
-0.449381
-0.436493
-0.424509
-0.412754
-0.400706
-0.388259
-0.375016
-0.359452
-0.339364
-0.322048
-0.426918
-0.418673
-0.409829
-0.40044
-0.390474
-0.380016
-0.368978
-0.356733
-0.342787
-0.332339
-0.407122
-0.402819
-0.396738
-0.389512
-0.381498
-0.372896
-0.363763
-0.353869
-0.343368
-0.335906
-0.390207
-0.389106
-0.385353
-0.380014
-0.373737
-0.366808
-0.359387
-0.351479
-0.343401
-0.337437
-0.376228
-0.377632
-0.375765
-0.372004
-0.367207
-0.361709
-0.355736
-0.349432
-0.34313
-0.338082
-0.365153
-0.368439
-0.368033
-0.365524
-0.361912
-0.357556
-0.352716
-0.34761
-0.342557
-0.338102
-0.356916
-0.361542
-0.362198
-0.360616
-0.357885
-0.354375
-0.350359
-0.346097
-0.341891
-0.337826
-0.351458
-0.356944
-0.358291
-0.357318
-0.355168
-0.352214
-0.348733
-0.345008
-0.34133
-0.337509
-0.348739
-0.354645
-0.356332
-0.355661
-0.353799
-0.351119
-0.347901
-0.344436
-0.341014
-0.337312
-0.290982
-0.12689
-0.0817928
-0.0307039
-0.019782
-0.00810355
-0.00474818
-0.00113575
-0.000648297
0.00218191
-0.292214
-0.127439
-0.0820663
-0.0309022
-0.0198497
-0.00816339
-0.00477856
-0.00115864
-0.000659411
0.00216458
-0.294607
-0.128523
-0.0826065
-0.0313007
-0.0199862
-0.00828362
-0.00483925
-0.00120341
-0.000680446
0.00213049
-0.29802
-0.130115
-0.083402
-0.0319014
-0.0201912
-0.00846382
-0.00493007
-0.0012699
-0.000711149
0.00207992
-0.302209
-0.132173
-0.0844262
-0.0327026
-0.0204623
-0.00870257
-0.0050503
-0.0013578
-0.000751168
0.00201344
-0.306817
-0.13462
-0.0856293
-0.0336908
-0.0207933
-0.00899627
-0.00519854
-0.00146643
-0.000799973
0.00193177
-0.311714
-0.137525
-0.0870164
-0.034861
-0.0211848
-0.00934198
-0.00537412
-0.00159461
-0.000857662
0.0018366
-0.317423
-0.141541
-0.0888506
-0.0363139
-0.0216802
-0.00975289
-0.00558311
-0.00174255
-0.000925821
0.00173072
-0.322208
-0.147046
-0.0913105
-0.0382152
-0.0223295
-0.0102569
-0.00583434
-0.00191584
-0.00100265
0.00161161
-0.31441
-0.14942
-0.0924282
-0.0399237
-0.0228314
-0.0107591
-0.00608031
-0.00211668
-0.00106699
0.0014563
-0.247888
-0.141317
-0.088806
-0.0432153
-0.023307
-0.0121383
-0.0067878
-0.0028943
-0.00124125
0.000772196
-0.189771
-0.132277
-0.082784
-0.0446921
-0.0250098
-0.0145514
-0.00861812
-0.00438656
-0.00200029
-8.72991e-05
-0.148324
-0.11439
-0.0733218
-0.0432712
-0.026398
-0.0167489
-0.0105261
-0.0059523
-0.00291504
-0.000764915
-0.108705
-0.0934677
-0.0638706
-0.0413093
-0.0274109
-0.0185242
-0.0121708
-0.00734963
-0.00377742
-0.00122522
-0.0794446
-0.0761824
-0.0570461
-0.0400568
-0.0282066
-0.0198492
-0.0134573
-0.00847045
-0.00449929
-0.00151535
-0.0593353
-0.0633271
-0.0520684
-0.0390561
-0.0285989
-0.0206802
-0.0143651
-0.00930175
-0.0050604
-0.0017057
-0.0462974
-0.0540609
-0.0481944
-0.0380829
-0.0286753
-0.0211508
-0.0149758
-0.00989599
-0.00547935
-0.00184227
-0.0380453
-0.0475985
-0.0452241
-0.0372268
-0.0286239
-0.0214136
-0.0153756
-0.010305
-0.00577725
-0.00194193
-0.0332196
-0.0434957
-0.0432115
-0.0366212
-0.0285644
-0.021556
-0.0156155
-0.01056
-0.00596815
-0.00200715
-0.0309882
-0.0414929
-0.0421983
-0.0363224
-0.0285398
-0.0216185
-0.0157266
-0.0106794
-0.00606218
-0.00203738
-0.219235
-0.247133
-0.272913
-0.296857
-0.319353
-0.340905
-0.362131
-0.383677
-0.406044
-0.429886
-0.0685697
-0.0787114
-0.087875
-0.096304
-0.104305
-0.11226
-0.120625
-0.12994
-0.140785
-0.154951
-0.0457858
-0.054966
-0.0637605
-0.0721426
-0.0800748
-0.0875122
-0.0944114
-0.100746
-0.106511
-0.11183
-0.0193561
-0.0250747
-0.0305869
-0.0359117
-0.0410709
-0.0460878
-0.0509856
-0.0557862
-0.0604899
-0.064975
-0.0136442
-0.0179992
-0.0222295
-0.0263317
-0.030302
-0.0341364
-0.0378314
-0.041384
-0.0447748
-0.0479708
-0.00858775
-0.0118043
-0.0149615
-0.0180584
-0.0210944
-0.0240689
-0.0269815
-0.0298308
-0.0326053
-0.0353066
-0.00746239
-0.00999867
-0.0124986
-0.0149583
-0.0173741
-0.0197429
-0.0220622
-0.0243296
-0.0265393
-0.0287023
-0.00665942
-0.00871667
-0.0107574
-0.0127775
-0.0147733
-0.0167414
-0.0186786
-0.020582
-0.0224487
-0.0242835
-0.00657017
-0.00834412
-0.0101101
-0.0118636
-0.0136005
-0.0153168
-0.0170091
-0.0186741
-0.0203101
-0.0219162
-0.00651314
-0.00813833
-0.00976086
-0.011377
-0.0129832
-0.0145761
-0.0161526
-0.01771
-0.019247
-0.0207597
0.167363
0.126375
0.0810277
0.0379589
-0.00377926
-0.0446581
-0.0840611
-0.121406
-0.156424
-0.189031
0.116905
0.0909908
0.0642003
0.0413627
0.0212436
0.00257079
-0.0147386
-0.0304736
-0.0446077
-0.0572562
0.0727946
0.0570973
0.0421457
0.029235
0.0173849
0.00591951
-0.00523211
-0.015982
-0.026307
-0.0362338
0.0525466
0.0434745
0.0348467
0.0271375
0.0198723
0.0127809
0.00586551
-0.000815166
-0.00723984
-0.0134157
0.0370153
0.0310647
0.0253255
0.0200358
0.0149464
0.00992632
0.00498222
0.000145542
-0.00457123
-0.00916766
0.0267579
0.0228696
0.0190251
0.0153881
0.0118463
0.0083317
0.00484571
0.00140507
-0.00198188
-0.00531314
0.0190584
0.0163305
0.0135759
0.0108999
0.00825443
0.00560669
0.00295842
0.000320792
-0.00229834
-0.00489415
0.0138803
0.0118857
0.00984098
0.00780844
0.00577152
0.00371661
0.0016461
-0.000432507
-0.00251285
-0.00459
0.0105514
0.00895695
0.0073135
0.0056503
0.00396255
0.00224714
0.000507953
-0.00124887
-0.00301759
-0.00479302
0.00895622
0.00753606
0.0060726
0.00458006
0.00305785
0.00150701
-6.81195e-05
-0.00166238
-0.00327093
-0.00488929
0.334788
0.334088
0.332539
0.329664
0.324679
0.316347
0.302897
0.281935
0.250826
0.206207
0.244895
0.243779
0.241143
0.236558
0.229688
0.220102
0.20723
0.190415
0.168907
0.142151
0.17407
0.172941
0.170274
0.165749
0.159259
0.150696
0.13987
0.126566
0.110378
0.0913915
0.122466
0.12158
0.119478
0.115915
0.110876
0.104385
0.0964356
0.0870377
0.0761135
0.0639978
0.0861367
0.0854922
0.0839534
0.0813405
0.0776608
0.0729667
0.0672924
0.0606761
0.053098
0.044767
0.0609617
0.0604983
0.0593899
0.0575079
0.0548657
0.0515144
0.0474957
0.0428535
0.0376056
0.0318981
0.0438136
0.0434751
0.0426651
0.04129
0.0393615
0.0369199
0.0339989
0.0306312
0.0268362
0.022698
0.0325305
0.0322738
0.0316594
0.0306165
0.0291545
0.0273048
0.0250942
0.0225478
0.019686
0.0165607
0.0256964
0.025488
0.0249893
0.0241431
0.0229567
0.0214551
0.0196596
0.017589
0.0152613
0.0127076
0.0224768
0.0222904
0.0218453
0.0210904
0.0200319
0.0186918
0.0170888
0.0152392
0.0131598
0.0108733
0.484759
0.486512
0.492845
0.503991
0.519842
0.540702
0.567036
0.599368
0.638235
0.683883
0.482518
0.484245
0.490498
0.501488
0.517091
0.537573
0.563342
0.594837
0.632456
0.676291
0.478087
0.479769
0.485869
0.496556
0.511673
0.531414
0.556073
0.585915
0.621065
0.661314
0.471568
0.473195
0.479084
0.48934
0.503756
0.522421
0.545459
0.572876
0.604383
0.63936
0.463098
0.464674
0.470315
0.480034
0.493565
0.510861
0.531821
0.55611
0.582876
0.611015
0.452845
0.454394
0.459767
0.468868
0.481359
0.497032
0.515519
0.536064
0.557115
0.577016
0.441006
0.442595
0.447722
0.45616
0.4675
0.481345
0.497023
0.513279
0.527777
0.538228
0.427787
0.429603
0.434617
0.442467
0.452682
0.464649
0.477319
0.488798
0.495862
0.495446
0.413258
0.41555
0.420644
0.428029
0.437224
0.447396
0.457046
0.463456
0.462245
0.448165
0.397056
0.399492
0.404159
0.410415
0.417794
0.425344
0.431292
0.432414
0.423948
0.396243
0.397057
0.399493
0.40416
0.410416
0.417795
0.425345
0.431292
0.432415
0.423948
0.396244
0.413259
0.415551
0.420645
0.42803
0.437225
0.447397
0.457047
0.463457
0.462245
0.448165
0.427788
0.429604
0.434618
0.442468
0.452682
0.46465
0.477319
0.488799
0.495862
0.495446
0.441007
0.442595
0.447723
0.456161
0.4675
0.481346
0.497023
0.51328
0.527777
0.538228
0.452846
0.454394
0.459768
0.468869
0.48136
0.497032
0.515519
0.536064
0.557116
0.577016
0.463098
0.464675
0.470315
0.480035
0.493566
0.510862
0.531821
0.55611
0.582877
0.611016
0.471568
0.473195
0.479085
0.48934
0.503756
0.522422
0.545459
0.572876
0.604383
0.639361
0.478088
0.47977
0.48587
0.496557
0.511673
0.531415
0.556073
0.585915
0.621065
0.661315
0.482518
0.484245
0.490498
0.501488
0.517091
0.537573
0.563343
0.594837
0.632457
0.676291
0.484759
0.486512
0.492845
0.503991
0.519842
0.540702
0.567036
0.599368
0.638235
0.683883
0.0224784
0.0222919
0.0218468
0.0210919
0.0200334
0.0186933
0.0170904
0.0152408
0.0131614
0.010875
0.0256979
0.0254895
0.0249909
0.0241447
0.0229583
0.0214567
0.0196612
0.0175906
0.0152629
0.0127092
0.032532
0.0322753
0.0316608
0.030618
0.029156
0.0273063
0.0250957
0.0225494
0.0196876
0.0165624
0.043815
0.0434766
0.0426665
0.0412915
0.039363
0.0369214
0.0340003
0.0306327
0.0268377
0.0226996
0.060963
0.0604996
0.0593912
0.0575093
0.054867
0.0515157
0.0474971
0.0428549
0.037607
0.0318995
0.0861379
0.0854935
0.0839546
0.0813417
0.0776621
0.072968
0.0672937
0.0606773
0.0530993
0.0447682
0.122467
0.121581
0.119479
0.115916
0.110877
0.104386
0.0964367
0.0870388
0.0761146
0.0639989
0.174071
0.172942
0.170275
0.16575
0.15926
0.150697
0.13987
0.126567
0.110379
0.0913924
0.244896
0.24378
0.241144
0.236559
0.229689
0.220103
0.207231
0.190416
0.168907
0.142152
0.334789
0.334089
0.33254
0.329665
0.32468
0.316348
0.302898
0.281936
0.250827
0.206208
0.00895788
0.0075377
0.00607422
0.00458166
0.00305942
0.00150855
-6.66184e-05
-0.00166092
-0.0032695
-0.00488789
0.0105531
0.00895859
0.00731512
0.00565189
0.00396411
0.00224867
0.000509436
-0.00124743
-0.00301617
-0.00479163
0.013882
0.0118874
0.00984259
0.00781001
0.00577306
0.00371811
0.00164756
-0.000431084
-0.00251146
-0.00458864
0.0190599
0.016332
0.0135774
0.0109013
0.00825588
0.0056081
0.00295979
0.000322128
-0.00229704
-0.00489288
0.0267593
0.022871
0.0190265
0.0153895
0.0118476
0.00833298
0.00484695
0.00140628
-0.0019807
-0.00531199
0.0370166
0.031066
0.0253267
0.020037
0.0149476
0.00992745
0.00498332
0.000146614
-0.00457019
-0.00916665
0.0525476
0.0434755
0.0348477
0.0271385
0.0198733
0.0127818
0.00586643
-0.000814271
-0.00723897
-0.0134148
0.0727955
0.0570982
0.0421465
0.0292358
0.0173857
0.00592026
-0.00523137
-0.0159813
-0.0263063
-0.0362331
0.116906
0.0909914
0.0642008
0.0413632
0.021244
0.00257117
-0.0147383
-0.0304733
-0.0446075
-0.057256
0.167364
0.126376
0.0810281
0.0379593
-0.00377901
-0.0446579
-0.084061
-0.121406
-0.156424
-0.189031
-0.00651178
-0.00813701
-0.0097596
-0.0113758
-0.012982
-0.014575
-0.0161516
-0.017709
-0.0192461
-0.0207589
-0.00656881
-0.0083428
-0.0101088
-0.0118624
-0.0135994
-0.0153157
-0.017008
-0.0186731
-0.0203092
-0.0219153
-0.00665812
-0.00871541
-0.0107562
-0.0127764
-0.0147722
-0.0167403
-0.0186775
-0.020581
-0.0224477
-0.0242826
-0.00746115
-0.00999746
-0.0124975
-0.0149572
-0.017373
-0.0197418
-0.0220612
-0.0243286
-0.0265383
-0.0287015
-0.00858662
-0.0118032
-0.0149604
-0.0180574
-0.0210933
-0.0240679
-0.0269805
-0.0298298
-0.0326044
-0.0353058
-0.0136432
-0.0179981
-0.0222285
-0.0263307
-0.030301
-0.0341355
-0.0378305
-0.0413831
-0.0447739
-0.04797
-0.0193553
-0.0250739
-0.0305861
-0.0359109
-0.0410701
-0.046087
-0.0509848
-0.0557854
-0.0604891
-0.0649742
-0.0457852
-0.0549653
-0.0637598
-0.0721418
-0.080074
-0.0875113
-0.0944105
-0.100745
-0.106511
-0.111829
-0.0685695
-0.0787112
-0.0878749
-0.0963038
-0.104305
-0.112259
-0.120624
-0.12994
-0.140785
-0.15495
-0.219235
-0.247133
-0.272912
-0.296857
-0.319353
-0.340905
-0.362131
-0.383677
-0.406044
-0.429887
-0.0309886
-0.0414928
-0.0421979
-0.0363229
-0.028541
-0.0216192
-0.0157258
-0.0106775
-0.00606023
-0.00203585
-0.03322
-0.0434956
-0.0432111
-0.0366217
-0.0285658
-0.0215569
-0.0156146
-0.0105578
-0.005966
-0.00200549
-0.0380457
-0.0475983
-0.0452236
-0.0372275
-0.0286258
-0.0214148
-0.0153746
-0.0103026
-0.00577462
-0.00193999
-0.0462977
-0.0540605
-0.0481937
-0.038084
-0.028678
-0.0211523
-0.0149748
-0.00989289
-0.00547589
-0.00183991
-0.0593354
-0.0633263
-0.0520673
-0.0390576
-0.0286028
-0.0206825
-0.0143639
-0.00929754
-0.00505557
-0.0017028
-0.0794445
-0.076181
-0.0570445
-0.0400592
-0.0282127
-0.0198524
-0.0134558
-0.00846437
-0.00449231
-0.00151185
-0.108704
-0.0934651
-0.0638682
-0.0413133
-0.0274203
-0.0185288
-0.0121687
-0.00734064
-0.00376726
-0.00122107
-0.148322
-0.114384
-0.0733178
-0.0432779
-0.0264126
-0.0167558
-0.0105236
-0.00593949
-0.00290061
-0.000760031
-0.189768
-0.132267
-0.082776
-0.0447009
-0.0250307
-0.0145621
-0.00861646
-0.00437044
-0.00198157
-8.1502e-05
-0.247886
-0.141303
-0.0887928
-0.0432233
-0.023331
-0.0121521
-0.0067885
-0.00287776
-0.00122095
0.000778599
-0.31441
-0.149406
-0.0924149
-0.0399298
-0.0228517
-0.0107706
-0.00608216
-0.00210293
-0.00104991
0.00146151
-0.322208
-0.147032
-0.0912975
-0.038221
-0.0223487
-0.0102676
-0.00583621
-0.00190301
-0.000986783
0.00161637
-0.317422
-0.141528
-0.0888385
-0.0363197
-0.0216981
-0.00976265
-0.00558474
-0.00173078
-0.00091144
0.00173495
-0.311713
-0.137513
-0.0870054
-0.0348666
-0.0212013
-0.00935073
-0.00537561
-0.00158413
-0.000844948
0.0018402
-0.306815
-0.134608
-0.0856194
-0.0336958
-0.0208078
-0.00900392
-0.00519981
-0.00145725
-0.000788923
0.00193492
-0.302207
-0.132163
-0.0844176
-0.032707
-0.0204746
-0.00870902
-0.00505137
-0.0013501
-0.000741924
0.00201605
-0.298019
-0.130107
-0.0833951
-0.0319049
-0.0202011
-0.00846897
-0.00493093
-0.00126379
-0.000703827
0.00208197
-0.294605
-0.128516
-0.0826014
-0.0313033
-0.0199935
-0.00828737
-0.0048399
-0.001199
-0.000675155
0.00213192
-0.292213
-0.127436
-0.0820631
-0.0309038
-0.0198541
-0.00816567
-0.00477893
-0.00115594
-0.000656181
0.00216549
-0.290982
-0.126889
-0.0817918
-0.0307044
-0.0197836
-0.00810432
-0.00474835
-0.00113488
-0.000647247
0.00218215
)
;

boundaryField
{
    inlet
    {
        type            zeroGradient;
    }
    outlet
    {
        type            fixedValue;
        value           uniform 0;
    }
    cylinder
    {
        type            zeroGradient;
    }
    top
    {
        type            symmetryPlane;
    }
    bottom
    {
        type            symmetryPlane;
    }
    defaultFaces
    {
        type            empty;
    }
}


// ************************************************************************* //
