1.45 	0 	0 	-0.302286
2.35 	0 	0 	-0.134388
