1.275 	2.15223e-18 	-2.76991e-20 	-0.0339854 	-0.000441626 	-1.98888e-22
1.825 	2.15223e-18 	-1.39322e-20 	-0.00859604 	-0.00277743 	1.78696e-21
2.375 	2.15223e-18 	-2.66896e-23 	0.117769 	-0.00329153 	-7.4588e-22
