/*--------------------------------*- C++ -*----------------------------------*\
  =========                 |
  \\      /  F ield         | OpenFOAM: The Open Source CFD Toolbox
   \\    /   O peration     | Website:  https://openfoam.org
    \\  /    A nd           | Version:  6.0
     \\/     M anipulation  |
\*---------------------------------------------------------------------------*/
FoamFile
{
    version     2.0;
    format      ascii;
    class       volScalarField;
    location    "28";
    object      p;
}
// * * * * * * * * * * * * * * * * * * * * * * * * * * * * * * * * * * * * * //

dimensions      [0 2 -2 0 0 0 0];

internalField   nonuniform List<scalar> 
2000
(
-0.348272
-0.354178
-0.355866
-0.355197
-0.353336
-0.350659
-0.347442
-0.343979
-0.340558
-0.33686
-0.35099
-0.356477
-0.357825
-0.356854
-0.354705
-0.351753
-0.348273
-0.34455
-0.340874
-0.337056
-0.356447
-0.361074
-0.361731
-0.360151
-0.357421
-0.353913
-0.349898
-0.345638
-0.341433
-0.337372
-0.364682
-0.36797
-0.367564
-0.365057
-0.361446
-0.357093
-0.352254
-0.34715
-0.342098
-0.337647
-0.375756
-0.377161
-0.375295
-0.371535
-0.36674
-0.361243
-0.355273
-0.348971
-0.34267
-0.337625
-0.389732
-0.388633
-0.384881
-0.379543
-0.373269
-0.366341
-0.358923
-0.351016
-0.342939
-0.336978
-0.406645
-0.402344
-0.396264
-0.38904
-0.381027
-0.372427
-0.363296
-0.353404
-0.342904
-0.335446
-0.426438
-0.418195
-0.409353
-0.399965
-0.390002
-0.379545
-0.368509
-0.356266
-0.342322
-0.331877
-0.448899
-0.436013
-0.424031
-0.412277
-0.400231
-0.387786
-0.374545
-0.358983
-0.338897
-0.321584
-0.473593
-0.455533
-0.4402
-0.426124
-0.412338
-0.398641
-0.384276
-0.36661
-0.341569
-0.317591
-0.499835
-0.476329
-0.457589
-0.441418
-0.426689
-0.413776
-0.40302
-0.395062
-0.395197
-0.414727
-0.526799
-0.497824
-0.475583
-0.457051
-0.440714
-0.42703
-0.416475
-0.410109
-0.413062
-0.43033
-0.553764
-0.519561
-0.493907
-0.472904
-0.454539
-0.439176
-0.427181
-0.419273
-0.418562
-0.426376
-0.580079
-0.541066
-0.512249
-0.488804
-0.468167
-0.450522
-0.436028
-0.42494
-0.418735
-0.417394
-0.604997
-0.561673
-0.529985
-0.504107
-0.480893
-0.460326
-0.442366
-0.426888
-0.414314
-0.404684
-0.627528
-0.580448
-0.54617
-0.517807
-0.491662
-0.467587
-0.445459
-0.424966
-0.405942
-0.38915
-0.646387
-0.596181
-0.559575
-0.528619
-0.499187
-0.471134
-0.444423
-0.418749
-0.393694
-0.371038
-0.660016
-0.607416
-0.568736
-0.535062
-0.502037
-0.469708
-0.438292
-0.407635
-0.377286
-0.350108
-0.666652
-0.612516
-0.572033
-0.535542
-0.498738
-0.462055
-0.426102
-0.390958
-0.356255
-0.325864
-0.664429
-0.609741
-0.56777
-0.528447
-0.487857
-0.447004
-0.406968
-0.36808
-0.330085
-0.297717
-0.65149
-0.597348
-0.554278
-0.512249
-0.468104
-0.423549
-0.38016
-0.338477
-0.29833
-0.265132
-0.626102
-0.573697
-0.53002
-0.48561
-0.43842
-0.390932
-0.345172
-0.301811
-0.260701
-0.227738
-0.586791
-0.537381
-0.493718
-0.447492
-0.398068
-0.348704
-0.301779
-0.257987
-0.217135
-0.185401
-0.53246
-0.487339
-0.444461
-0.397243
-0.346692
-0.296765
-0.250059
-0.207188
-0.167835
-0.138261
-0.462506
-0.422976
-0.381802
-0.334668
-0.284349
-0.235367
-0.19039
-0.149861
-0.113278
-0.0867456
-0.376927
-0.344254
-0.305833
-0.260056
-0.211498
-0.165071
-0.123372
-0.086627
-0.0540995
-0.0314783
-0.276411
-0.251781
-0.217236
-0.174206
-0.128999
-0.0867194
-0.0497769
-0.018184
0.00898033
0.0267139
-0.162398
-0.146842
-0.117296
-0.0784095
-0.0380871
-0.00145273
0.0293384
0.0543497
0.0744197
0.0858011
-0.0370974
-0.031412
-0.00786279
0.0256625
0.059854
0.0896762
0.113115
0.129761
0.139695
0.142066
0.0965347
0.0918683
0.10865
0.135979
0.163501
0.186491
0.202979
0.211347
0.210313
0.203584
0.234923
0.219733
0.229139
0.249647
0.270397
0.287511
0.299716
0.305198
0.304151
0.318069
0.374171
0.348537
0.349992
0.362811
0.375832
0.385806
0.391859
0.393101
0.392024
0.404947
0.510337
0.474607
0.4678
0.472352
0.477005
0.479084
0.478021
0.4734
0.467707
0.47281
0.639574
0.594337
0.579271
0.57537
0.571471
0.565482
0.557146
0.546313
0.535054
0.532212
0.758219
0.704285
0.681312
0.669203
0.657037
0.643289
0.627978
0.611141
0.594471
0.584524
0.862887
0.801286
0.771104
0.751459
0.731751
0.710974
0.689387
0.667175
0.64566
0.629504
0.950563
0.882531
0.846158
0.820023
0.79386
0.76711
0.740231
0.71352
0.687944
0.666586
1.01869
0.945654
0.904383
0.873108
0.841862
0.810435
0.779439
0.749251
0.720531
0.695115
1.06527
0.988801
0.944141
0.909309
0.87456
0.839925
0.806116
0.773565
0.7427
0.714499
1.08891
1.0107
0.964307
0.927658
0.891123
0.854856
0.819621
0.785876
0.753924
0.724305
1.08891
1.0107
0.964307
0.927657
0.891123
0.854856
0.819621
0.785876
0.753924
0.724305
1.06527
0.9888
0.944141
0.909309
0.87456
0.839924
0.806115
0.773565
0.7427
0.714499
1.01869
0.945652
0.904382
0.873107
0.841861
0.810434
0.779438
0.749251
0.72053
0.695115
0.950561
0.88253
0.846157
0.820022
0.793859
0.767109
0.74023
0.713519
0.687944
0.666586
0.862885
0.801284
0.771102
0.751457
0.731749
0.710973
0.689386
0.667174
0.645659
0.629503
0.758216
0.704283
0.68131
0.669201
0.657036
0.643288
0.627976
0.61114
0.59447
0.584523
0.639571
0.594334
0.579269
0.575367
0.571469
0.565481
0.557145
0.546311
0.535053
0.532211
0.510334
0.474604
0.467797
0.472349
0.477003
0.479082
0.478019
0.473398
0.467706
0.472809
0.374168
0.348533
0.349989
0.362808
0.375829
0.385804
0.391857
0.393099
0.392022
0.404946
0.234919
0.21973
0.229136
0.249644
0.270395
0.287509
0.299714
0.305196
0.30415
0.318068
0.0965311
0.0918649
0.108647
0.135976
0.163499
0.186489
0.202977
0.211345
0.210311
0.203583
-0.037101
-0.0314154
-0.00786594
0.0256596
0.0598514
0.089674
0.113113
0.129759
0.139693
0.142065
-0.162401
-0.146846
-0.117299
-0.0784123
-0.0380897
-0.00145499
0.0293364
0.0543479
0.0744181
0.0857997
-0.276414
-0.251784
-0.217239
-0.174209
-0.129002
-0.0867216
-0.0497789
-0.0181858
0.00897874
0.0267125
-0.37693
-0.344258
-0.305836
-0.260058
-0.211501
-0.165073
-0.123374
-0.0866288
-0.0541011
-0.0314797
-0.462509
-0.422979
-0.381805
-0.33467
-0.284351
-0.235369
-0.190392
-0.149863
-0.11328
-0.086747
-0.532463
-0.487342
-0.444464
-0.397246
-0.346694
-0.296767
-0.250061
-0.207189
-0.167837
-0.138263
-0.586794
-0.537383
-0.49372
-0.447494
-0.39807
-0.348706
-0.301781
-0.257989
-0.217136
-0.185402
-0.626104
-0.573699
-0.530022
-0.485612
-0.438422
-0.390934
-0.345174
-0.301812
-0.260702
-0.22774
-0.651492
-0.59735
-0.554279
-0.512251
-0.468106
-0.423551
-0.380161
-0.338478
-0.298331
-0.265133
-0.66443
-0.609742
-0.567771
-0.528448
-0.487859
-0.447005
-0.406969
-0.368082
-0.330086
-0.297718
-0.666653
-0.612517
-0.572034
-0.535543
-0.498739
-0.462056
-0.426103
-0.390959
-0.356256
-0.325865
-0.660017
-0.607417
-0.568737
-0.535063
-0.502038
-0.469709
-0.438293
-0.407636
-0.377287
-0.350109
-0.646388
-0.596182
-0.559575
-0.52862
-0.499187
-0.471134
-0.444424
-0.41875
-0.393695
-0.371039
-0.627528
-0.580449
-0.546171
-0.517807
-0.491663
-0.467588
-0.445459
-0.424966
-0.405942
-0.389151
-0.604997
-0.561673
-0.529985
-0.504107
-0.480893
-0.460326
-0.442366
-0.426888
-0.414315
-0.404685
-0.580079
-0.541066
-0.512249
-0.488804
-0.468167
-0.450521
-0.436028
-0.42494
-0.418735
-0.417394
-0.553764
-0.519561
-0.493906
-0.472904
-0.454538
-0.439175
-0.42718
-0.419273
-0.418562
-0.426376
-0.526799
-0.497824
-0.475582
-0.457051
-0.440713
-0.427029
-0.416475
-0.410109
-0.413062
-0.43033
-0.499835
-0.476329
-0.457589
-0.441418
-0.426689
-0.413776
-0.40302
-0.395061
-0.395197
-0.414727
-0.473593
-0.455532
-0.440199
-0.426124
-0.412337
-0.39864
-0.384276
-0.366609
-0.341569
-0.317591
-0.448899
-0.436013
-0.424031
-0.412277
-0.40023
-0.387786
-0.374545
-0.358983
-0.338897
-0.321584
-0.426438
-0.418195
-0.409353
-0.399965
-0.390001
-0.379545
-0.368509
-0.356266
-0.342322
-0.331877
-0.406645
-0.402344
-0.396264
-0.38904
-0.381027
-0.372427
-0.363296
-0.353404
-0.342904
-0.335446
-0.389733
-0.388633
-0.384881
-0.379543
-0.373268
-0.366341
-0.358922
-0.351016
-0.342939
-0.336978
-0.375756
-0.377161
-0.375295
-0.371535
-0.366739
-0.361243
-0.355273
-0.348971
-0.34267
-0.337625
-0.364683
-0.36797
-0.367565
-0.365057
-0.361446
-0.357092
-0.352254
-0.34715
-0.342098
-0.337647
-0.356447
-0.361075
-0.361731
-0.360151
-0.357421
-0.353913
-0.349898
-0.345638
-0.341433
-0.337372
-0.350991
-0.356477
-0.357825
-0.356854
-0.354705
-0.351753
-0.348273
-0.34455
-0.340874
-0.337056
-0.348272
-0.354179
-0.355866
-0.355197
-0.353336
-0.350659
-0.347442
-0.343979
-0.340558
-0.33686
-0.290624
-0.126443
-0.0814435
-0.0304231
-0.0193823
-0.00790721
-0.00445857
-0.00095805
-0.000521483
0.00217252
-0.291855
-0.12699
-0.0817142
-0.0306227
-0.0194513
-0.00796763
-0.00448834
-0.000978221
-0.000530211
0.00215634
-0.294247
-0.12807
-0.0822506
-0.0310223
-0.0195882
-0.00808789
-0.00454794
-0.00101939
-0.000548299
0.0021241
-0.297658
-0.12966
-0.0830414
-0.031624
-0.0197926
-0.00826748
-0.00463718
-0.00108154
-0.000575632
0.00207614
-0.301845
-0.131715
-0.08406
-0.0324261
-0.0200623
-0.008505
-0.00475553
-0.00116439
-0.000611845
0.00201292
-0.306451
-0.13416
-0.085257
-0.0334149
-0.0203913
-0.00879683
-0.00490171
-0.0012674
-0.000656575
0.00193511
-0.311346
-0.137063
-0.0866376
-0.0345856
-0.0207804
-0.00914013
-0.00507516
-0.00138955
-0.000709973
0.00184434
-0.317052
-0.141078
-0.0884645
-0.0360388
-0.0212728
-0.00954832
-0.00528191
-0.00153116
-0.000773578
0.00174339
-0.321834
-0.146581
-0.0909158
-0.0379403
-0.021919
-0.0100486
-0.00553112
-0.00169764
-0.000845754
0.00162971
-0.314033
-0.148957
-0.0920261
-0.0396475
-0.0224206
-0.0105437
-0.00577728
-0.00189036
-0.000906545
0.00148027
-0.247504
-0.140865
-0.0883897
-0.042928
-0.022911
-0.0118869
-0.00649696
-0.00263644
-0.00107429
0.000816599
-0.189402
-0.131852
-0.0823681
-0.0444032
-0.0246344
-0.0142798
-0.00834471
-0.00412063
-0.00183611
-3.22141e-05
-0.147969
-0.11399
-0.0729236
-0.042977
-0.0260528
-0.0164774
-0.0102733
-0.00570708
-0.0027654
-0.000711665
-0.108355
-0.0930869
-0.0634941
-0.0410079
-0.0270972
-0.0182625
-0.011939
-0.00713447
-0.0036479
-0.00117881
-0.0790964
-0.0758143
-0.0566893
-0.0397514
-0.0279176
-0.0195995
-0.0132428
-0.00828142
-0.00438773
-0.00147405
-0.0589881
-0.0629672
-0.0517273
-0.0387501
-0.028326
-0.0204406
-0.014163
-0.00913092
-0.00496102
-0.00166603
-0.0459508
-0.0537063
-0.0478649
-0.0377785
-0.0284121
-0.020918
-0.0147823
-0.00973642
-0.00538685
-0.00180216
-0.0376988
-0.0472471
-0.0449027
-0.0369246
-0.0283661
-0.0211851
-0.0151877
-0.0101521
-0.0056882
-0.00190082
-0.0328728
-0.0431462
-0.0428951
-0.0363212
-0.0283093
-0.0213299
-0.015431
-0.0104108
-0.00588059
-0.0019653
-0.0306411
-0.0411442
-0.0418839
-0.0360239
-0.0282855
-0.0213939
-0.0155435
-0.0105323
-0.00597487
-0.0019954
-0.218802
-0.246699
-0.272478
-0.296421
-0.318916
-0.340466
-0.36169
-0.383234
-0.405601
-0.429443
-0.0681504
-0.0782923
-0.0874561
-0.0958852
-0.103887
-0.111841
-0.120206
-0.129521
-0.140366
-0.154532
-0.0453768
-0.054558
-0.0633534
-0.0717364
-0.0796695
-0.0871078
-0.0940078
-0.100343
-0.106109
-0.111429
-0.0189532
-0.0246728
-0.0301861
-0.035512
-0.0406724
-0.0456905
-0.0505895
-0.0553914
-0.0600962
-0.0645831
-0.0132441
-0.0175999
-0.0218311
-0.0259342
-0.0299056
-0.033741
-0.0374371
-0.0409908
-0.0443827
-0.0475804
-0.00818916
-0.0114064
-0.0145643
-0.0176619
-0.0206986
-0.0236739
-0.0265872
-0.0294373
-0.0322125
-0.0349151
-0.00706449
-0.00960129
-0.0121018
-0.014562
-0.0169783
-0.0193477
-0.0216675
-0.0239354
-0.0261455
-0.0283096
-0.00626215
-0.00831984
-0.010361
-0.0123816
-0.0143778
-0.0163463
-0.018284
-0.0201879
-0.0220548
-0.0238905
-0.00617336
-0.00794772
-0.00971415
-0.0114681
-0.0132054
-0.0149222
-0.0166149
-0.0182804
-0.0199167
-0.0215236
-0.00611666
-0.00774225
-0.00936522
-0.0109818
-0.0125885
-0.0141819
-0.0157589
-0.0173167
-0.0188541
-0.0203678
0.167796
0.126808
0.0814605
0.0383916
-0.0033467
-0.0442256
-0.0836287
-0.120973
-0.155992
-0.188598
0.11733
0.0914149
0.0646236
0.0417853
0.0216656
0.00299222
-0.0143177
-0.0300532
-0.0441877
-0.0568366
0.0732121
0.0575144
0.0425619
0.0296502
0.0177993
0.00633309
-0.00481938
-0.0155702
-0.0258961
-0.0358238
0.0529583
0.0438856
0.0352569
0.0275468
0.0202808
0.0131885
0.00627226
-0.00040933
-0.00683495
-0.0130117
0.0374229
0.0314717
0.0257318
0.0204414
0.0153513
0.0103304
0.00538559
0.000548134
-0.00416944
-0.0087667
0.0271624
0.0232737
0.0194286
0.015791
0.0122487
0.00873346
0.00524687
0.00180561
-0.00158198
-0.00491389
0.0194609
0.0167326
0.0139776
0.0113011
0.00865526
0.00600706
0.00335832
0.000720199
-0.00189943
-0.00449574
0.0142815
0.0122866
0.0102415
0.00820855
0.00617127
0.00411598
0.00204507
-3.39409e-05
-0.0021147
-0.00419227
0.0109517
0.00935689
0.00771315
0.00604963
0.00436157
0.00264583
0.000906281
-0.000850911
-0.00262
-0.00439582
0.009356
0.00793556
0.00647182
0.00497899
0.00345647
0.00190532
0.000329846
-0.00126477
-0.00287369
-0.00449242
0.335213
0.334513
0.332964
0.330089
0.325105
0.316774
0.303324
0.282363
0.251255
0.206638
0.245317
0.2442
0.241565
0.23698
0.23011
0.220524
0.207653
0.190838
0.16933
0.142575
0.174488
0.173359
0.170692
0.166167
0.159677
0.151114
0.140287
0.126984
0.110795
0.0918089
0.12288
0.121994
0.119891
0.116329
0.11129
0.104798
0.0968487
0.0874506
0.0765259
0.0644099
0.0865471
0.0859026
0.0843637
0.0817507
0.0780708
0.0733765
0.0677019
0.0610851
0.0535066
0.045175
0.0613692
0.0609058
0.0597973
0.0579152
0.0552728
0.0519212
0.0479022
0.0432596
0.0380112
0.0323031
0.044219
0.0438804
0.0430703
0.0416951
0.0397664
0.0373245
0.0344031
0.0310351
0.0272396
0.023101
0.0329342
0.0326775
0.032063
0.0310199
0.0295577
0.0277078
0.0254969
0.0229502
0.020088
0.0169622
0.0260991
0.0258906
0.0253919
0.0245455
0.0233589
0.0218571
0.0200613
0.0179904
0.0156623
0.0131081
0.022879
0.0226925
0.0222473
0.0214923
0.0204336
0.0190933
0.01749
0.0156401
0.0135603
0.0112734
0.485187
0.486939
0.493272
0.504419
0.52027
0.54113
0.567464
0.599796
0.638664
0.684311
0.482945
0.484673
0.490926
0.501916
0.517518
0.538001
0.56377
0.595265
0.632885
0.676719
0.478515
0.480197
0.486297
0.496984
0.512101
0.531842
0.556501
0.586343
0.621493
0.661743
0.471995
0.473622
0.479512
0.489767
0.504183
0.522849
0.545887
0.573304
0.604811
0.639789
0.463525
0.465101
0.470742
0.480462
0.493993
0.511289
0.532249
0.556538
0.583305
0.611444
0.453272
0.454821
0.460195
0.469295
0.481787
0.497459
0.515947
0.536492
0.557544
0.577445
0.441433
0.443022
0.448149
0.456587
0.467927
0.481773
0.497451
0.513708
0.528206
0.538657
0.428214
0.430029
0.435044
0.442894
0.453109
0.465077
0.477747
0.489227
0.496291
0.495875
0.413685
0.415976
0.42107
0.428456
0.437651
0.447824
0.457475
0.463885
0.462674
0.448595
0.397483
0.399918
0.404585
0.410842
0.418221
0.425772
0.43172
0.432843
0.424377
0.396674
0.397483
0.399919
0.404586
0.410842
0.418221
0.425772
0.43172
0.432843
0.424377
0.396673
0.413685
0.415977
0.421071
0.428456
0.437651
0.447824
0.457475
0.463885
0.462674
0.448594
0.428214
0.43003
0.435045
0.442894
0.453109
0.465077
0.477747
0.489227
0.496291
0.495875
0.441433
0.443022
0.448149
0.456588
0.467927
0.481773
0.497451
0.513708
0.528206
0.538656
0.453272
0.454821
0.460195
0.469296
0.481787
0.49746
0.515947
0.536492
0.557544
0.577444
0.463525
0.465101
0.470742
0.480462
0.493993
0.511289
0.532249
0.556538
0.583305
0.611444
0.471995
0.473622
0.479512
0.489767
0.504183
0.522849
0.545887
0.573304
0.604811
0.639788
0.478515
0.480197
0.486297
0.496984
0.512101
0.531842
0.556501
0.586343
0.621493
0.661742
0.482945
0.484673
0.490926
0.501916
0.517518
0.538001
0.56377
0.595265
0.632885
0.676719
0.485187
0.486939
0.493273
0.504419
0.52027
0.54113
0.567464
0.599796
0.638664
0.684311
0.022879
0.0226925
0.0222473
0.0214923
0.0204336
0.0190933
0.0174901
0.0156401
0.0135604
0.0112735
0.0260991
0.0258906
0.0253919
0.0245456
0.023359
0.0218572
0.0200614
0.0179905
0.0156623
0.0131082
0.0329343
0.0326775
0.032063
0.03102
0.0295578
0.0277078
0.0254969
0.0229502
0.020088
0.0169623
0.044219
0.0438805
0.0430703
0.0416951
0.0397664
0.0373245
0.0344032
0.0310351
0.0272396
0.023101
0.0613693
0.0609059
0.0597973
0.0579152
0.0552728
0.0519212
0.0479021
0.0432596
0.0380111
0.032303
0.0865471
0.0859027
0.0843637
0.0817507
0.0780708
0.0733765
0.0677018
0.0610851
0.0535065
0.0451749
0.12288
0.121994
0.119891
0.116329
0.111289
0.104798
0.0968487
0.0874505
0.0765258
0.0644097
0.174488
0.173359
0.170692
0.166167
0.159677
0.151113
0.140287
0.126983
0.110795
0.0918088
0.245317
0.244201
0.241565
0.23698
0.23011
0.220524
0.207653
0.190837
0.16933
0.142575
0.335213
0.334513
0.332964
0.330089
0.325105
0.316774
0.303324
0.282363
0.251255
0.206637
0.00935605
0.00793561
0.00647184
0.00497899
0.00345645
0.00190527
0.000329771
-0.00126487
-0.00287381
-0.00449256
0.0109517
0.00935693
0.00771316
0.00604962
0.00436152
0.00264576
0.000906186
-0.000851031
-0.00262015
-0.00439598
0.0142815
0.0122865
0.0102414
0.00820848
0.00617116
0.00411585
0.00204491
-3.41305e-05
-0.00211491
-0.00419252
0.0194609
0.0167325
0.0139775
0.011301
0.0086551
0.00600687
0.0033581
0.000719954
-0.00189971
-0.00449605
0.0271624
0.0232736
0.0194284
0.0157908
0.0122484
0.00873321
0.00524658
0.00180529
-0.00158234
-0.00491428
0.0374227
0.0314716
0.0257316
0.0204411
0.015351
0.0103301
0.00538524
0.000547749
-0.00416986
-0.00876716
0.0529581
0.0438854
0.0352567
0.0275465
0.0202805
0.0131882
0.00627188
-0.000409759
-0.00683543
-0.0130123
0.0732119
0.0575141
0.0425615
0.0296498
0.0177989
0.00633263
-0.00481989
-0.0155707
-0.0258967
-0.0358245
0.117329
0.0914146
0.0646232
0.0417848
0.0216651
0.00299169
-0.0143183
-0.0300538
-0.0441884
-0.0568373
0.167795
0.126808
0.0814596
0.0383906
-0.0033477
-0.0442266
-0.0836297
-0.120974
-0.155993
-0.188599
-0.00611684
-0.00774246
-0.00936547
-0.0109821
-0.0125888
-0.0141823
-0.0157593
-0.0173172
-0.0188547
-0.0203684
-0.00617356
-0.00794795
-0.00971441
-0.0114684
-0.0132058
-0.0149226
-0.0166154
-0.0182809
-0.0199172
-0.0215242
-0.00626242
-0.00832015
-0.0103614
-0.012382
-0.0143783
-0.0163468
-0.0182845
-0.0201884
-0.0220554
-0.0238911
-0.00706484
-0.00960167
-0.0121022
-0.0145624
-0.0169788
-0.0193482
-0.0216681
-0.023936
-0.0261461
-0.0283103
-0.00818959
-0.0114069
-0.0145648
-0.0176624
-0.0206992
-0.0236744
-0.0265878
-0.0294379
-0.0322132
-0.0349159
-0.0132446
-0.0176004
-0.0218317
-0.0259349
-0.0299062
-0.0337417
-0.0374378
-0.0409916
-0.0443835
-0.0475812
-0.0189538
-0.0246735
-0.0301868
-0.0355127
-0.0406731
-0.0456912
-0.0505903
-0.0553922
-0.0600971
-0.064584
-0.0453775
-0.0545587
-0.0633542
-0.0717373
-0.0796704
-0.0871088
-0.0940089
-0.100344
-0.106111
-0.11143
-0.0681512
-0.0782931
-0.087457
-0.0958861
-0.103888
-0.111842
-0.120207
-0.129522
-0.140367
-0.154533
-0.218803
-0.2467
-0.272479
-0.296423
-0.318917
-0.340467
-0.361692
-0.383237
-0.405603
-0.429446
-0.0306415
-0.0411446
-0.041884
-0.0360234
-0.0282849
-0.021394
-0.015545
-0.0105344
-0.00597677
-0.00199663
-0.0328733
-0.0431466
-0.0428952
-0.0363205
-0.0283085
-0.02133
-0.0154326
-0.010413
-0.00588266
-0.00196662
-0.0376993
-0.0472475
-0.0449028
-0.0369238
-0.0283649
-0.0211851
-0.0151894
-0.0101546
-0.00569065
-0.00190229
-0.0459513
-0.0537068
-0.0478652
-0.0377774
-0.0284104
-0.0209178
-0.0147842
-0.00973958
-0.00538992
-0.00180385
-0.0589887
-0.062968
-0.0517277
-0.0387483
-0.0283234
-0.0204402
-0.0141653
-0.00913511
-0.00496506
-0.00166793
-0.079097
-0.0758153
-0.0566899
-0.0397486
-0.0279136
-0.0195987
-0.0132456
-0.00828731
-0.00439319
-0.00147608
-0.108355
-0.0930885
-0.063495
-0.0410034
-0.0270911
-0.0182613
-0.0119427
-0.007143
-0.00365535
-0.00118078
-0.14797
-0.113993
-0.072925
-0.0429696
-0.0260433
-0.0164753
-0.0102779
-0.00571918
-0.00277548
-0.000713428
-0.189404
-0.131858
-0.0823714
-0.044393
-0.0246205
-0.0142758
-0.00834955
-0.0041361
-0.00184891
-3.38318e-05
-0.247506
-0.140874
-0.0883962
-0.042917
-0.0228945
-0.0118805
-0.00650047
-0.00265282
-0.00108804
0.000815053
-0.314034
-0.148966
-0.0920333
-0.0396382
-0.0224067
-0.0105381
-0.00577933
-0.0019044
-0.00091809
0.00147906
-0.321836
-0.14659
-0.0909229
-0.0379314
-0.0219059
-0.0100434
-0.00553295
-0.00171082
-0.000856466
0.0016286
-0.317054
-0.141086
-0.088471
-0.0360303
-0.0212607
-0.00954362
-0.00528367
-0.00154325
-0.000783286
0.0017424
-0.311348
-0.137072
-0.0866435
-0.0345776
-0.0207694
-0.00913594
-0.00507681
-0.00140043
-0.000718617
0.00184343
-0.306453
-0.134167
-0.0852623
-0.0334077
-0.0203816
-0.00879317
-0.00490316
-0.00127687
-0.000664046
0.00193436
-0.301847
-0.131722
-0.0840646
-0.03242
-0.020054
-0.00850192
-0.00475675
-0.00117235
-0.000618094
0.0020123
-0.29766
-0.129665
-0.0830451
-0.031619
-0.0197859
-0.00826502
-0.00463815
-0.00108788
-0.000580586
0.00207565
-0.294248
-0.128074
-0.0822534
-0.0310187
-0.0195834
-0.0080861
-0.00454864
-0.00102401
-0.000551909
0.00212374
-0.291856
-0.126992
-0.0817159
-0.0306205
-0.0194483
-0.00796654
-0.00448877
-0.000981012
-0.000532404
0.00215613
-0.290624
-0.126444
-0.0814441
-0.0304224
-0.0193813
-0.00790685
-0.00445872
-0.000958993
-0.000522229
0.00217243
)
;

boundaryField
{
    inlet
    {
        type            zeroGradient;
    }
    outlet
    {
        type            fixedValue;
        value           uniform 0;
    }
    cylinder
    {
        type            zeroGradient;
    }
    top
    {
        type            symmetryPlane;
    }
    bottom
    {
        type            symmetryPlane;
    }
    defaultFaces
    {
        type            empty;
    }
}


// ************************************************************************* //
