1.275 	2.15223e-18 	-2.76991e-20 	-0.0344816 	-0.000439699 	-1.90214e-22
1.825 	2.15223e-18 	-1.39322e-20 	-0.0095006 	-0.00275592 	1.67703e-21
2.375 	2.15223e-18 	-2.66896e-23 	0.115196 	-0.00323072 	-6.99443e-22
