1.275 	2.15223e-18 	-2.76991e-20 	-0.0344794 	-0.000439011 	-1.90336e-22
1.825 	2.15223e-18 	-1.39322e-20 	-0.00949676 	-0.00275467 	1.67865e-21
2.375 	2.15223e-18 	-2.66896e-23 	0.115209 	-0.00323016 	-7.00135e-22
