/*--------------------------------*- C++ -*----------------------------------*\
  =========                 |
  \\      /  F ield         | OpenFOAM: The Open Source CFD Toolbox
   \\    /   O peration     | Website:  https://openfoam.org
    \\  /    A nd           | Version:  6.0
     \\/     M anipulation  |
\*---------------------------------------------------------------------------*/
FoamFile
{
    version     2.0;
    format      ascii;
    class       surfaceScalarField;
    location    "7";
    object      phi;
}
// * * * * * * * * * * * * * * * * * * * * * * * * * * * * * * * * * * * * * //

dimensions      [0 3 -1 0 0 0 0];

internalField   nonuniform List<scalar> 
3880
(
-1.8248e-05
1.82668e-05
-1.88713e-08
-5.38738e-05
3.56776e-05
-5.17243e-08
-9.53431e-05
4.1552e-05
-8.27234e-08
-0.00013537
4.01432e-05
-1.1627e-07
-0.000169451
3.42304e-05
-1.49881e-07
-0.000195084
2.58149e-05
-1.81408e-07
-0.000211293
1.64188e-05
-2.10108e-07
-0.000218313
7.2554e-06
-2.35375e-07
-0.000217395
-6.56666e-07
-2.6079e-07
-6.50291e-06
-2.80774e-07
-0.000210612
-1.74915e-05
3.57583e-05
-5.09763e-05
6.91624e-05
-8.90806e-05
7.96563e-05
-0.000124639
7.57016e-05
-0.000153191
6.2782e-05
-0.000172199
4.48232e-05
-0.000180594
2.48138e-05
-0.000178506
5.16743e-06
-0.000167125
-1.20377e-05
-2.50757e-05
-0.000148552
-1.59538e-05
5.17121e-05
-4.50968e-05
9.83054e-05
-7.64151e-05
0.000110975
-0.000103029
0.000102315
-0.000120608
8.03612e-05
-0.000126583
5.07983e-05
-0.000119721
1.7952e-05
-9.9936e-05
-1.46179e-05
-6.82709e-05
-4.37028e-05
-6.64703e-05
-2.68763e-05
-1.3566e-05
6.52781e-05
-3.60118e-05
0.000120751
-5.69519e-05
0.000131915
-7.00383e-05
0.000115402
-7.12523e-05
8.15752e-05
-5.80844e-05
3.76303e-05
-2.91275e-05
-1.1005e-05
1.60248e-05
-5.97702e-05
7.6603e-05
-0.000104281
-0.0001403
0.000150433
-1.01891e-05
7.54672e-05
-2.32794e-05
0.000133841
-2.98694e-05
0.000138505
-2.44888e-05
0.000110021
-3.74518e-06
6.08317e-05
3.45608e-05
-6.75711e-07
9.18805e-05
-6.83246e-05
0.000168985
-0.000136875
0.000265562
-0.000200858
-0.000254256
0.000379517
-5.59848e-06
8.10657e-05
-6.19553e-06
0.000134439
6.20385e-06
0.000126105
3.57729e-05
8.04521e-05
8.48186e-05
1.1786e-05
0.000154748
-7.06055e-05
0.000246651
-0.000160227
0.0003615
-0.000251724
0.000499645
-0.000339004
-0.000413834
0.000659223
4.92284e-07
8.05734e-05
1.61326e-05
0.000118798
5.30934e-05
8.91445e-05
0.000113862
1.96838e-05
0.000199135
-7.3487e-05
0.000308805
-0.000180276
0.000442736
-0.000294158
0.000601372
-0.00041036
0.000785629
-0.000523261
-0.000622616
0.000994411
8.34605e-06
7.22274e-05
4.45165e-05
8.26277e-05
0.000112572
2.10888e-05
0.00021314
-8.08842e-05
0.000344944
-0.000205291
0.00050558
-0.000340911
0.000692328
-0.000480907
0.000903285
-0.000621316
0.00113862
-0.000758592
-0.000885308
0.00140131
1.80593e-05
5.41681e-05
7.9224e-05
2.1463e-05
0.000185419
-8.51058e-05
0.000335704
-0.00023117
0.000527101
-0.000396687
0.000754778
-0.000568588
0.00101233
-0.00073846
0.00129271
-0.00090169
0.00159172
-0.00105761
-0.00121608
0.00192249
2.93686e-05
2.47995e-05
0.000119335
-6.85037e-05
0.000269952
-0.000235722
0.000479686
-0.000440904
0.00074561
-0.000662611
0.0010631
-0.000886078
0.00142517
-0.00110053
0.00182078
-0.0012973
0.00223378
-0.00147061
-0.00162345
0.00264115
4.14815e-05
-1.66821e-05
0.000162056
-0.000189078
0.000359834
-0.000433501
0.00063325
-0.00071432
0.000981323
-0.00101068
0.00140431
-0.00130906
0.00190492
-0.00160114
0.00249153
-0.00188391
0.00318603
-0.00216511
-0.00248114
0.00404373
5.33529e-05
-7.0035e-05
0.000203504
-0.000339229
0.000445265
-0.000675262
0.000774661
-0.00104372
0.00118847
-0.00142449
0.00168421
-0.0018048
0.00226015
-0.00217708
0.00291479
-0.00253856
0.00364218
-0.0028925
-0.00324662
0.00440766
6.44821e-05
-0.000134517
0.00024169
-0.000516437
0.000521663
-0.000955234
0.000895809
-0.00141786
0.00135573
-0.00188441
0.00189263
-0.0023417
0.00249669
-0.00278115
0.00315568
-0.00319754
0.00385087
-0.00358769
-0.00394467
0.00454892
7.48797e-05
-0.000209397
0.000276316
-0.000717873
0.000588441
-0.00126736
0.000996805
-0.00182623
0.00148685
-0.00237446
0.00204333
-0.00289819
0.00264995
-0.00338776
0.00328869
-0.00383628
0.00393831
-0.00423731
-0.00457931
0.00457294
8.46657e-05
-0.000294062
0.000307461
-0.000940669
0.000645742
-0.00160564
0.0010786
-0.00225909
0.00158533
-0.00288119
0.00214517
-0.00345802
0.00273752
-0.00398011
0.00334212
-0.00444088
0.00393903
-0.00483421
-0.00514922
0.00450893
9.38078e-05
-0.00038787
0.000334808
-0.00118167
0.000692893
-0.00196373
0.00114051
-0.0027067
0.00165127
-0.00339195
0.00220015
-0.0040069
0.00276419
-0.00454415
0.00332311
-0.0049998
0.00385976
-0.00537086
-0.00565037
0.00436091
0.000102051
-0.000489921
0.000357449
-0.00143707
0.000728157
-0.00233443
0.00118012
-0.00315867
0.00168209
-0.00389392
0.00220621
-0.00453102
0.00272889
-0.00506683
0.00323147
-0.00550239
0.00370054
-0.00583993
-0.00607837
0.00412854
0.000108965
-0.000598886
0.00037405
-0.00170215
0.000749152
-0.00270954
0.00119425
-0.00360377
0.0016744
-0.00437407
0.00216048
-0.0050171
0.00262991
-0.00553626
0.00306694
-0.00593942
0.00346245
-0.00623544
-0.00643006
0.00381415
0.000114034
-0.00071292
0.000383131
-0.00197125
0.000753455
-0.00307986
0.00118
-0.00403031
0.00162559
-0.00481967
0.00206151
-0.00545302
0.00246766
-0.00594241
0.00283211
-0.00630386
0.00315026
-0.00655359
-0.00670418
0.00342438
0.00011674
-0.000829661
0.000383328
-0.00223784
0.000739085
-0.00343562
0.00113544
-0.00442667
0.00153475
-0.00521897
0.00191026
-0.00582853
0.00224552
-0.00627767
0.00253296
-0.00659131
0.00277232
-0.00679294
-0.00690143
0.00296956
0.000116632
-0.000946292
0.000373585
-0.00249479
0.000704831
-0.00376686
0.00106006
-0.0047819
0.00140294
-0.00556184
0.00171013
-0.00613572
0.00196959
-0.00653713
0.00217821
-0.00679992
0.00233953
-0.00695427
-0.00702415
0.00246225
0.000113322
-0.00105961
0.000353184
-0.00273465
0.00065027
-0.00406395
0.00095462
-0.00508625
0.00123295
-0.00584017
0.00146645
-0.00636922
0.00164781
-0.00671849
0.00177807
-0.00693018
0.00186386
-0.00704006
-0.0070759
0.00191561
0.000106563
-0.00116618
0.000321881
-0.00294997
0.000575883
-0.00431795
0.00082116
-0.00533153
0.00102903
-0.00604804
0.00118588
-0.00652608
0.00128911
-0.00682172
0.00134327
-0.00698434
0.00135724
-0.00705403
-0.00706096
0.00134231
9.62207e-05
-0.0012624
0.000279826
-0.00313357
0.000482861
-0.00452099
0.000662609
-0.00551128
0.000796212
-0.00618164
0.000875587
-0.00660545
0.000902405
-0.00684853
0.000883991
-0.00696593
0.000830563
-0.0070006
-0.00698397
0.000753572
8.22836e-05
-0.00134468
0.000227554
-0.00327884
0.000372982
-0.00466642
0.00048248
-0.00562077
0.000539876
-0.00623904
0.000542578
-0.00660815
0.000495941
-0.0068019
0.000409172
-0.00687916
0.000293019
-0.00688445
-0.00684958
0.000158622
6.48752e-05
-0.00140956
0.000165958
-0.00337993
0.000248496
-0.00474895
0.000284624
-0.0056569
0.000265327
-0.00621974
0.000193232
-0.00653606
7.67006e-05
-0.00668537
-7.40068e-05
-0.00672845
-0.000248344
-0.00671011
-0.00666224
-0.000435675
4.42685e-05
-0.00145383
9.6295e-05
-0.00343195
0.000112088
-0.00476475
7.31373e-05
-0.00561795
-2.23219e-05
-0.00612428
-0.000166882
-0.0063915
-0.000349785
-0.00650246
-0.000560376
-0.00651786
-0.000788907
-0.00648158
-0.00642568
-0.00102547
2.09134e-05
-0.00147474
2.02274e-05
-0.00343127
-3.30859e-05
-0.00471143
-0.000147579
-0.00550346
-0.000318052
-0.00595381
-0.000532866
-0.00617668
-0.000779323
-0.00625601
-0.00104675
-0.00625044
-0.00132671
-0.00620162
-0.00614025
-0.00161214
-4.52209e-06
-0.00147022
-6.01034e-05
-0.00337569
-0.000183276
-0.00458826
-0.000372661
-0.00531407
-0.00061685
-0.00570962
-0.000900758
-0.00589278
-0.00121008
-0.00594669
-0.00153396
-0.00592655
-0.0018654
-0.00587018
-0.0057989
-0.00220674
-3.10876e-05
-0.00143913
-0.000141896
-0.00326488
-0.000333678
-0.00439648
-0.0005958
-0.00505195
-0.000912152
-0.00539327
-0.00126597
-0.00553895
-0.00164268
-0.00556998
-0.00203189
-0.00553735
-0.00242971
-0.00547236
-0.00541
-0.00281861
-5.75553e-05
-0.00138157
-0.000221652
-0.00310078
-0.000477924
-0.00414021
-0.000807142
-0.00472273
-0.00118993
-0.00501048
-0.00161025
-0.00511863
-0.00205676
-0.00512348
-0.00252217
-0.00507194
-0.00300558
-0.00498895
-0.00487252
-0.00354306
-8.28566e-05
-0.00129872
-0.000296351
-0.00288729
-0.000610303
-0.00382625
-0.000996624
-0.00433641
-0.00143157
-0.00457554
-0.00189698
-0.00465322
-0.00237985
-0.00464061
-0.00287119
-0.0045806
-0.00336486
-0.00449528
-0.00439273
-0.00384465
-0.000106361
-0.00119236
-0.000364634
-0.00262901
-0.000729494
-0.00346139
-0.00116461
-0.0039013
-0.00164229
-0.00409786
-0.00214275
-0.00415275
-0.00265255
-0.00413082
-0.00316269
-0.00407045
-0.00366602
-0.00399195
-0.00390579
-0.00415297
-0.000127732
-0.00106462
-0.000425932
-0.00233081
-0.000835418
-0.00305191
-0.00131272
-0.003424
-0.00182713
-0.00358344
-0.00235816
-0.00362172
-0.00289273
-0.00359625
-0.0034227
-0.00354048
-0.00394252
-0.00347213
-0.00340066
-0.00444765
-0.000146714
-0.00091791
-0.000479827
-0.0019977
-0.000927916
-0.00260382
-0.00144154
-0.00291038
-0.00198783
-0.00303715
-0.00254612
-0.00306343
-0.00310413
-0.00303824
-0.00365488
-0.00298974
-0.00419442
-0.0029326
-0.00287462
-0.00472046
-0.000163063
-0.000754847
-0.000525874
-0.00163489
-0.00100657
-0.00212312
-0.00155087
-0.00236608
-0.00212436
-0.00246366
-0.0027065
-0.00248128
-0.00328586
-0.00245888
-0.00385653
-0.00241906
-0.00441573
-0.0023734
-0.002328
-0.00496235
-0.000176535
-0.000578312
-0.000563571
-0.00124785
-0.00107075
-0.00161595
-0.00163999
-0.00179684
-0.00223579
-0.00186786
-0.00283786
-0.00187921
-0.00343551
-0.00186122
-0.0040237
-0.00183088
-0.00460039
-0.00179671
-0.0017632
-0.00516519
-0.000186889
-0.000391423
-0.000592405
-0.000842336
-0.00111971
-0.00108864
-0.00170794
-0.00120861
-0.00232085
-0.00125495
-0.0029384
-0.00126167
-0.00355047
-0.00124915
-0.00415263
-0.00122872
-0.00474335
-0.00120599
-0.0011839
-0.00532265
-0.000193921
-0.000197502
-0.000611918
-0.00042434
-0.00115279
-0.000547769
-0.00175383
-0.000607566
-0.00237834
-0.000630443
-0.00300646
-0.000633552
-0.00362846
-0.000627146
-0.00424031
-0.000616874
-0.00484077
-0.000605524
-0.000594554
-0.00543012
-0.000197477
-2.55097e-08
-0.000621765
-5.10558e-08
-0.00116947
-6.30099e-08
-0.00177697
-7.06105e-08
-0.00240733
-7.53368e-08
-0.00304081
-7.77164e-08
-0.00366788
-7.8262e-08
-0.00428467
-7.74077e-08
-0.00489012
-7.63561e-08
-7.59629e-08
-0.0054846
-0.000197477
0.000197452
-0.000621766
0.000424238
-0.00116947
0.000547643
-0.00177697
0.000607425
-0.00240734
0.000630292
-0.00304081
0.000633397
-0.00366788
0.000626989
-0.00428468
0.000616719
-0.00489012
0.000605371
0.000594402
-0.0054846
-0.000193922
0.000391373
-0.000611921
0.000842237
-0.0011528
0.00108852
-0.00175384
0.00120847
-0.00237835
0.0012548
-0.00300647
0.00126151
-0.00362847
0.001249
-0.00424032
0.00122856
-0.00484078
0.00120584
0.00118375
-0.00543013
-0.000186891
0.000578265
-0.00059241
0.00124776
-0.00111972
0.00161583
-0.00170795
0.0017967
-0.00232087
0.00186772
-0.00293841
0.00187906
-0.00355049
0.00186107
-0.00415265
0.00183072
-0.00474337
0.00179656
0.00176305
-0.00532267
-0.000176537
0.000754802
-0.000563579
0.0016348
-0.00107076
0.00212301
-0.00164
0.00236595
-0.00223581
0.00246352
-0.00283788
0.00248114
-0.00343554
0.00245873
-0.00402373
0.00241891
-0.00460042
0.00237325
0.00232785
-0.00516522
-0.000163067
0.000917869
-0.000525884
0.00199761
-0.00100659
0.00260371
-0.00155089
0.00291025
-0.00212438
0.00303701
-0.00270653
0.00306328
-0.00328589
0.00303809
-0.00385657
0.00298959
-0.00441577
0.00293245
0.00287447
-0.00496239
-0.000146718
0.00106459
-0.000479839
0.00233074
-0.000927936
0.00305181
-0.00144157
0.00342388
-0.00198786
0.00358331
-0.00254616
0.00362158
-0.00310418
0.0035961
-0.00365493
0.00354034
-0.00419446
0.00347198
0.00340051
-0.00472051
-0.000127737
0.00119232
-0.000425946
0.00262895
-0.000835441
0.0034613
-0.00131275
0.00390119
-0.00182718
0.00409773
-0.00235821
0.00415262
-0.00289279
0.00413068
-0.00342276
0.00407031
-0.00394258
0.0039918
0.00390564
-0.0044477
-0.000106367
0.00129869
-0.00036465
0.00288723
-0.000729521
0.00382618
-0.00116465
0.00433632
-0.00164234
0.00457542
-0.00214281
0.00465309
-0.00265261
0.00464048
-0.00316276
0.00458046
-0.00366609
0.00449514
0.00439258
-0.00415304
-8.28624e-05
0.00138155
-0.000296368
0.00310073
-0.000610334
0.00414014
-0.000996668
0.00472265
-0.00143162
0.00501038
-0.00189705
0.00511852
-0.00237992
0.00512335
-0.00287127
0.0050718
-0.00336494
0.0049888
0.00487238
-0.00384473
-5.75613e-05
0.00143911
-0.000221671
0.00326484
-0.000477957
0.00439643
-0.000807189
0.00505188
-0.00118999
0.00539318
-0.00161032
0.00553885
-0.00205684
0.00556987
-0.00252225
0.00553722
-0.00300567
0.00547222
0.00540987
-0.00354316
-3.10937e-05
0.00147021
-0.000141915
0.00337566
-0.000333713
0.00458823
-0.000595851
0.00531402
-0.000912218
0.00570955
-0.00126605
0.00589269
-0.00164277
0.00594658
-0.00203199
0.00592644
-0.00242982
0.00587005
0.00579876
-0.00281871
-4.52817e-06
0.00147474
-6.01227e-05
0.00343126
-0.000183312
0.00471142
-0.000372714
0.00550342
-0.000616919
0.00595375
-0.000900841
0.00617661
-0.00121017
0.00625591
-0.00153406
0.00625033
-0.00186552
0.0062015
0.00614012
-0.00220687
2.09075e-05
0.00145383
2.02082e-05
0.00343196
-3.3122e-05
0.00476475
-0.000147633
0.00561793
-0.000318123
0.00612424
-0.000532951
0.00639144
-0.000779422
0.00650238
-0.00104686
0.00651777
-0.00132683
0.00648147
0.00642555
-0.00161227
4.42628e-05
0.00140957
9.62761e-05
0.00337995
0.000112052
0.00474897
7.30836e-05
0.0056569
-2.23928e-05
0.00621972
-0.000166968
0.00653601
-0.000349884
0.0066853
-0.000560486
0.00672837
-0.000789028
0.00671001
0.00666213
-0.0010256
6.48697e-05
0.0013447
0.000165939
0.00327888
0.000248461
0.00466645
0.000284571
0.00562079
0.000265256
0.00623903
0.000193145
0.00660812
7.66009e-05
0.00680184
-7.41173e-05
0.00687909
-0.000248464
0.00688436
0.00684947
-0.000435803
8.22784e-05
0.00126242
0.000227537
0.00313362
0.000372948
0.00452104
0.000482428
0.00551131
0.000539806
0.00618166
0.000542492
0.00660544
0.000495842
0.00684849
0.000409062
0.00696587
0.0002929
0.00700052
0.00698387
0.000158496
9.62158e-05
0.0011662
0.00027981
0.00295002
0.000482829
0.00431802
0.000662559
0.00533158
0.000796144
0.00604807
0.000875503
0.00652608
0.000902307
0.00682169
0.000883883
0.00698429
0.000830446
0.00705396
0.00706087
0.000753448
0.000106559
0.00105964
0.000321865
0.00273472
0.000575853
0.00406403
0.000821113
0.00508632
0.00102896
0.00584022
0.0011858
0.00636924
0.00128901
0.00671848
0.00134317
0.00693014
0.00135713
0.00703999
0.00707581
0.00134219
0.000113318
0.000946325
0.00035317
0.00249486
0.000650243
0.00376696
0.000954576
0.00478199
0.00123289
0.00556191
0.00146637
0.00613576
0.00164772
0.00653713
0.00177797
0.00679989
0.00186375
0.00695421
0.00702407
0.00191549
0.000116628
0.000829697
0.000373573
0.00223792
0.000704807
0.00343572
0.00106002
0.00442677
0.00140288
0.00521905
0.00171006
0.00582858
0.0019695
0.00627768
0.00217811
0.00659129
0.00233942
0.00679289
0.00690135
0.00246213
0.000116737
0.00071296
0.000383317
0.00197134
0.000739064
0.00307998
0.00113541
0.00403043
0.00153469
0.00481977
0.00191019
0.00545309
0.00224543
0.00594244
0.00253286
0.00630386
0.00277221
0.00655354
0.00670412
0.00296945
0.000114032
0.000598929
0.000383122
0.00170225
0.000753437
0.00270966
0.00117996
0.0036039
0.00162555
0.00437418
0.00206145
0.00501718
0.00246758
0.00553631
0.00283202
0.00593942
0.00315016
0.00623541
0.00643
0.00342427
0.000108963
0.000489966
0.000374043
0.00143717
0.000749137
0.00233457
0.00119423
0.00315881
0.00167436
0.00389405
0.00216042
0.00453112
0.00262984
0.00506689
0.00306686
0.0055024
0.00346236
0.00583991
0.00607832
0.00381404
0.000102049
0.000387917
0.000357444
0.00118177
0.000728146
0.00196387
0.0011801
0.00270686
0.00168206
0.00339209
0.00220616
0.00400702
0.00272883
0.00454423
0.00323139
0.00499984
0.00370044
0.00537086
0.00565033
0.00412843
9.38068e-05
0.00029411
0.000334805
0.000940777
0.000692887
0.00160578
0.0011405
0.00225924
0.00165125
0.00288134
0.00220011
0.00345815
0.00276413
0.00398021
0.00332304
0.00444093
0.00385967
0.00483422
0.00514919
0.00436081
8.46654e-05
0.000209444
0.00030746
0.000717982
0.00064574
0.0012675
0.0010786
0.00182639
0.00158532
0.00237462
0.00214514
0.00289833
0.00273747
0.00338788
0.00334206
0.00383635
0.00393894
0.00423734
0.0045793
0.00450883
7.48801e-05
0.000134564
0.000276318
0.000516544
0.000588443
0.000955378
0.000996804
0.00141803
0.00148684
0.00188458
0.00204331
0.00234186
0.00264991
0.00278128
0.00328863
0.00319763
0.00393823
0.00358774
0.00394469
0.00457284
6.44832e-05
7.00809e-05
0.000241694
0.000339334
0.000521669
0.000675404
0.000895814
0.00104388
0.00135573
0.00142467
0.00189262
0.00180497
0.00249667
0.00217723
0.00315563
0.00253867
0.00385079
0.00289258
0.00324667
0.00454881
5.33545e-05
1.67265e-05
0.000203508
0.00018918
0.000445272
0.000433639
0.000774669
0.000714485
0.00118847
0.00101086
0.00168421
0.00130924
0.00226013
0.0016013
0.00291475
0.00188405
0.0036421
0.00216523
0.00248123
0.00440754
4.14834e-05
-2.4757e-05
0.000162061
6.86022e-05
0.000359843
0.000235858
0.000633259
0.000441068
0.000981329
0.000662791
0.00140431
0.000886264
0.0019049
0.00110071
0.00249148
0.00129746
0.00318595
0.00147076
0.00162358
0.00404361
2.93706e-05
-5.41275e-05
0.000119341
-2.13679e-05
0.000269959
8.52391e-05
0.000479693
0.000231334
0.000745612
0.000396873
0.00106309
0.000568786
0.00142514
0.000738659
0.00182072
0.000901884
0.00223367
0.00105781
0.00121627
0.00264097
1.80611e-05
-7.21887e-05
7.92283e-05
-8.25351e-05
0.000185424
-2.09564e-05
0.000335707
8.10512e-05
0.000527094
0.000205485
0.000754755
0.000341125
0.00101228
0.000481131
0.00129262
0.000621546
0.00159159
0.000758834
0.000885563
0.00192231
8.34748e-06
-8.05361e-05
4.45191e-05
-0.000118707
0.000112574
-8.90108e-05
0.000213136
-1.95108e-05
0.000344927
7.36939e-05
0.000505542
0.00018051
0.000692261
0.000294413
0.000903178
0.00041063
0.00113846
0.000523552
0.000622926
0.0014011
4.93152e-07
-8.10293e-05
1.61333e-05
-0.000134347
5.30905e-05
-0.000125968
0.00011385
-8.02704e-05
0.000199107
-1.15634e-05
0.000308754
7.08633e-05
0.000442652
0.000160514
0.000601246
0.000252036
0.000785455
0.000339344
0.000414198
0.000994182
-5.59823e-06
-7.54311e-05
-6.19687e-06
-0.000133748
6.19709e-06
-0.000138362
3.57551e-05
-0.000109828
8.47829e-05
-6.05912e-05
0.000154687
9.59023e-07
0.000246556
6.86451e-05
0.000361365
0.000137227
0.000499463
0.000201246
0.000254672
0.000658989
-1.01895e-05
-6.52416e-05
-2.32824e-05
-0.000120655
-2.98788e-05
-0.000131766
-2.45101e-05
-0.000115197
-3.78479e-06
-8.13166e-05
3.44962e-05
-3.7322e-05
9.1784e-05
1.13572e-05
0.00016885
6.0161e-05
0.000265384
0.000104712
0.000140764
0.000379292
-1.35667e-05
-5.1675e-05
-3.60154e-05
-9.82066e-05
-5.6962e-05
-0.000110819
-7.00597e-05
-0.000102099
-7.12906e-05
-8.00857e-05
-5.81452e-05
-5.04675e-05
-2.92163e-05
-1.75717e-05
1.59031e-05
1.50417e-05
7.6444e-05
4.41712e-05
6.69743e-05
0.000150234
-1.59543e-05
-3.57207e-05
-4.50999e-05
-6.9061e-05
-7.64237e-05
-7.94952e-05
-0.000103047
-7.54764e-05
-0.000120639
-6.24931e-05
-0.000126632
-4.44747e-05
-0.000119792
-2.44117e-05
-0.000100032
-4.71814e-06
-6.83957e-05
1.25348e-05
2.56103e-05
-2.70318e-05
-1.74918e-05
-1.8229e-05
-5.0978e-05
-3.55747e-05
-8.90856e-05
-4.13877e-05
-0.00012465
-3.99122e-05
-0.00015321
-3.39332e-05
-0.000172229
-2.54555e-05
-0.000180638
-1.60029e-05
-0.000178566
-6.78998e-06
-0.000167203
1.17187e-06
7.05738e-06
-0.00014865
-1.82478e-05
-5.38743e-05
-9.53447e-05
-0.000135373
-0.000169456
-0.000195093
-0.000211306
-0.000218332
-0.000217421
-0.000210644
0.000387174
-0.000589322
-8.46377e-06
0.0017791
-0.00138773
-4.19769e-06
0.00327018
-0.00149879
7.71078e-06
0.00438473
-0.00112749
1.29428e-05
0.00529039
-0.0009191
1.34391e-05
0.00593395
-0.000652759
9.1948e-06
0.00638395
-0.000453587
3.59115e-06
0.00665856
-0.000275124
5.15731e-07
0.00683082
-0.000170867
-1.39029e-06
-4.30396e-05
-2.37617e-06
0.000505425
-0.0012433
0.00186231
-0.00274462
0.00331909
-0.00295557
0.00440986
-0.00221826
0.00529942
-0.00180866
0.00593422
-0.00128756
0.00638039
-0.000899755
0.00665479
-0.000549527
0.00682891
-0.000344985
-9.20718e-05
0.000732882
-0.00200306
0.00202158
-0.00403331
0.00341194
-0.00434593
0.00445701
-0.00326333
0.00531569
-0.00266734
0.00593378
-0.00190566
0.00637276
-0.00133874
0.006647
-0.000823764
0.00682497
-0.000522956
-0.000148378
0.00105269
-0.00290532
0.00224405
-0.00522467
0.00354004
-0.00564192
0.00452098
-0.00424427
0.00533641
-0.00348277
0.0059313
-0.00250054
0.00636053
-0.00176796
0.00663502
-0.00109825
0.00681897
-0.000706914
-0.000215617
0.0014415
-0.00396729
0.00251201
-0.00629518
0.00369133
-0.00682123
0.00459441
-0.00514736
0.00535747
-0.00424583
0.00592464
-0.00306771
0.00634267
-0.002186
0.00661838
-0.00137396
0.00681072
-0.00089925
-0.000297485
0.00187145
-0.00517952
0.00280459
-0.00722832
0.00385171
-0.00786835
0.00466868
-0.00596433
0.0053741
-0.00495126
0.00591136
-0.00360496
0.00631807
-0.00259271
0.00659663
-0.00165252
0.00680001
-0.00110263
-0.000397708
0.00231133
-0.00649644
0.00309886
-0.00801585
0.00400599
-0.00877548
0.00473455
-0.00669289
0.00538116
-0.00559787
0.00588882
-0.00411263
0.00628551
-0.0029894
0.00656924
-0.00193625
0.00678665
-0.00132004
-0.00052003
0.00272858
-0.00782371
0.00337073
-0.008658
0.0041388
-0.00954355
0.00478276
-0.00733685
0.00537353
-0.00618864
0.0058544
-0.0045935
0.00624378
-0.00337878
0.0065357
-0.00222817
0.00677041
-0.00155474
-0.000668201
0.00310564
-0.00900686
0.00360175
-0.00915411
0.00423767
-0.0101795
0.00480525
-0.00790443
0.00534666
-0.00673004
0.0058057
-0.00505254
0.00619177
-0.00376486
0.00649555
-0.00253194
0.00675108
-0.00181028
-0.000845944
0.00344793
-0.00981364
0.0037926
-0.00949878
0.00429404
-0.0106809
0.00479723
-0.00840762
0.00529667
-0.00722948
0.00574067
-0.00549654
0.00612841
-0.0041526
0.00644846
-0.00285199
0.00672831
-0.00209012
-0.00105721
0.0444644
-0.00304131
-0.0512367
0.0412304
-0.0062648
0.0397135
-0.009164
0.0398974
-0.00859151
0.0400864
-0.00741852
0.0405555
-0.00596562
0.0410896
-0.00468674
0.0416023
-0.00336464
0.0420554
-0.00254326
-0.00136915
0.0524469
0.00125571
-0.0567439
0.050519
-0.00433689
0.0480716
-0.00671661
0.0462093
-0.00672926
0.0446938
-0.00590302
0.0436659
-0.00493771
0.0430689
-0.00408969
0.0427908
-0.00308656
0.0427066
-0.00245907
-0.00141387
0.0534757
0.00281581
-0.0550358
0.0518677
-0.00272892
0.049975
-0.00482389
0.048071
-0.00482528
0.0463763
-0.00420837
0.045039
-0.00360032
0.0440866
-0.00313733
0.0434868
-0.00248676
0.0431332
-0.00210552
-0.00129753
0.051518
0.00302602
-0.0517282
0.0505799
-0.00179083
0.0492559
-0.00349985
0.047789
-0.00335841
0.0464195
-0.00283888
0.0452746
-0.00245546
0.0443878
-0.0022505
0.0437712
-0.00187009
0.0433511
-0.00168549
-0.00111222
0.049494
0.00264733
-0.0491153
0.0488451
-0.00114188
0.047897
-0.00255174
0.0468641
-0.00232557
0.0458876
-0.00186235
0.0450442
-0.00161205
0.04435
-0.00155635
0.0438326
-0.00135268
0.0434412
-0.00129403
-0.000909308
0.0478485
0.00209852
-0.0472997
0.0474192
-0.000712524
0.0466952
-0.00182777
0.0459667
-0.00159705
0.0453018
-0.00119745
0.0447185
-0.00102878
0.0442098
-0.00104767
0.0438062
-0.000949026
0.0434695
-0.000957387
-0.000710212
0.0466808
0.00152823
-0.0461105
0.0463879
-0.000419634
0.0458135
-0.00125339
0.0452815
-0.00106502
0.0448316
-0.000747537
0.0444368
-0.000633964
0.0440688
-0.00067966
0.0437578
-0.000638033
0.0434728
-0.000672406
-0.00052105
0.0458943
0.000989276
-0.0453554
0.0457037
-0.000229049
0.0452314
-0.000781027
0.0448182
-0.000651884
0.0445038
-0.000433065
0.0442326
-0.000362803
0.0439593
-0.00040639
0.0437134
-0.000392129
0.0434678
-0.000426782
-0.000341604
0.0454156
0.000484344
-0.0449107
0.0452904
-0.000103796
0.044884
-0.000374648
0.0445379
-0.000305819
0.0443014
-0.000196492
0.0441037
-0.000165164
0.0438875
-0.000190204
0.0436819
-0.000186493
0.0434619
-0.000206772
-0.00016936
0.0451886
-0.0447042
0.0450848
0.0447101
0.0444043
0.0442078
0.0440427
0.0438525
0.043666
0.0434592
0.0569532
0.00223434
-0.056218
0.0575366
0.00284103
0.0579205
0.00343025
0.0580557
0.00399327
0.0578955
0.00452115
0.0573991
0.00500535
0.0565337
0.00543835
0.0552684
0.00581415
0.0535478
0.00612828
0.00635485
0.0514163
0.00162686
-0.0508088
0.0520702
0.00218712
0.0527572
0.00274323
0.0534602
0.00329026
0.0541586
0.0038227
0.0548294
0.00433457
0.0554481
0.00481963
0.0559905
0.00527175
0.0564334
0.00568545
0.00604431
0.0480423
0.00115974
-0.0475752
0.0485901
0.00163931
0.0492157
0.00211765
0.049914
0.00259195
0.0506775
0.00305917
0.0514961
0.00351595
0.0523572
0.00395859
0.0532458
0.00438309
0.0541462
0.00478507
0.00515475
0.045412
0.000842714
-0.045095
0.0458085
0.00124286
0.046285
0.00164115
0.0468416
0.00203536
0.0474775
0.00242327
0.0481908
0.00280261
0.0489784
0.00317103
0.0498354
0.00352611
0.0507553
0.00386511
0.00418187
0.043813
0.000612317
-0.0435826
0.0441167
0.000939141
0.0444938
0.00126397
0.0449442
0.00158496
0.0454673
0.00190025
0.0460619
0.00220802
0.0467265
0.00250641
0.047459
0.00279359
0.0482566
0.00306748
0.00332316
0.0427133
0.00043904
-0.04254
0.0429558
0.000696581
0.0432676
0.000952252
0.043648
0.00120454
0.0440963
0.00145195
0.0446113
0.00169301
0.0451914
0.00192626
0.0458348
0.00215025
0.0465389
0.00236339
0.00256232
0.0420203
0.000302543
-0.0418838
0.0422231
0.00049381
0.0424918
0.000683579
0.0428256
0.000870699
0.0432235
0.00105404
0.0436841
0.00123246
0.0442055
0.00140487
0.0447856
0.00157016
0.0454218
0.00172716
0.00187361
0.04157
0.000189663
-0.0414571
0.0417474
0.000316359
0.041989
0.000442036
0.0422938
0.00056592
0.0426606
0.000687247
0.0430878
0.000805259
0.0435734
0.000919212
0.0441152
0.00102837
0.0447104
0.00113196
0.00122865
0.0413072
9.11409e-05
-0.0412086
0.0414692
0.000154293
0.0416943
0.000216951
0.0419815
0.000278721
0.0423295
0.000339221
0.0427367
0.000398067
0.0432011
0.000454881
0.0437201
0.000509295
0.0442912
0.000560918
0.000609127
0.0411828
-0.0410916
0.0413371
0.041554
0.0418327
0.042172
0.04257
0.0430249
0.0435342
0.0440951
0.0481895
-0.00337897
-0.0476291
0.0489069
-0.00292416
0.0497339
-0.00243919
0.0506309
-0.0019224
0.0515702
-0.00137501
0.0525337
-0.000804857
0.0535036
-0.000216328
0.0544589
0.000386971
0.0553741
0.00100041
0.00161837
0.0480191
-0.00343221
-0.0479659
0.0481151
-0.00302014
0.0482534
-0.00257753
0.04844
-0.00210898
0.0486809
-0.00161585
0.0489802
-0.00110419
0.0493416
-0.000577696
0.0497672
-3.86604e-05
0.0502571
0.000510454
0.00106673
0.0469
-0.00317089
-0.0471613
0.0466934
-0.00281356
0.0465469
-0.00243103
0.0464658
-0.00202786
0.0464562
-0.00160628
0.0465217
-0.00116968
0.0466646
-0.000720541
0.0468868
-0.000260874
0.04719
0.000207246
0.000681576
0.0455629
-0.00279187
-0.0459419
0.0452411
-0.00249179
0.0449802
-0.00217009
0.0447836
-0.00183127
0.0446546
-0.00147731
0.0445955
-0.00111062
0.0446083
-0.000733269
0.0446946
-0.000347215
0.0448563
4.55349e-05
0.000442892
0.0446306
-0.00236697
-0.0450555
0.0442589
-0.00212017
0.0439451
-0.00185629
0.0436923
-0.00157843
0.0435032
-0.00128824
0.0433802
-0.000987572
0.0433251
-0.000678158
0.0433396
-0.000361696
0.043425
-3.99283e-05
0.000285352
0.0439545
-0.00191438
-0.0444071
0.0435534
-0.00171908
0.0432077
-0.00151055
0.0429203
-0.00129104
0.0426938
-0.0010618
0.0425305
-0.000824239
0.0424321
-0.000579753
0.0424001
-0.000329734
0.0424358
-7.56124e-05
0.000181145
0.0435217
-0.00144663
-0.0439895
0.043104
-0.00130133
0.0427398
-0.0011464
0.0424321
-0.000983295
0.0421832
-0.000812952
0.0419954
-0.000636392
0.0418703
-0.000454653
0.0418093
-0.000268791
0.0418136
-7.9893e-05
0.00011093
0.043242
-0.000968699
-0.04372
0.0428132
-0.000872506
0.0424368
-0.00076997
0.0421155
-0.000662014
0.0418518
-0.000549247
0.0416477
-0.000432336
0.041505
-0.000311966
0.0414251
-0.000188846
0.0414089
-6.37015e-05
6.27221e-05
0.043081
-0.000485223
-0.0435645
0.0426459
-0.000437428
0.0422625
-0.000386486
0.0419333
-0.000332831
0.0416608
-0.000276765
0.0414471
-0.000218613
0.0412938
-0.000158715
0.0412024
-9.74232e-05
0.0411738
-3.50998e-05
2.7882e-05
0.0430071
-0.0434923
0.0425697
0.0421832
0.0418504
0.0415736
0.041355
0.0411963
0.0410988
0.0410637
0.042948
0.000173212
-0.000192298
0.0429936
0.000517
-0.000562562
0.0430708
0.000865406
-0.000942597
0.0431973
0.00122651
-0.00135303
0.0434034
0.00160563
-0.00181171
0.0437328
0.00200696
-0.00233641
0.0442448
0.00243253
-0.00294452
0.0450117
0.00288474
-0.00365161
0.0461285
0.00333916
-0.00445597
0.00388638
-0.00538699
0.042966
0.000136175
0.0430741
0.000408865
0.0432567
0.000682773
0.0435243
0.000958958
0.0438917
0.00123819
0.044378
0.00152065
0.0450053
0.00180532
0.0457978
0.00209224
0.0467712
0.00236568
0.00269174
0.0429666
9.8518e-05
0.0430781
0.000297374
0.0432632
0.000497618
0.043526
0.000696141
0.0438722
0.000892009
0.044309
0.00108388
0.0448447
0.0012696
0.0454896
0.0014474
0.046248
0.00160728
0.00177837
0.0429585
6.89174e-05
0.0430472
0.000208739
0.043195
0.000349769
0.0434028
0.000488356
0.0436715
0.00062327
0.0440022
0.00075318
0.0443954
0.000876479
0.0448508
0.000991919
0.0453636
0.0010945
0.00120009
0.0429504
4.74582e-05
0.0430152
0.000143885
0.0431239
0.000241106
0.0432761
0.000336189
0.0434713
0.000428059
0.0437088
0.000515642
0.0439875
0.000597773
0.044306
0.000673491
0.0446604
0.00074002
0.000805055
0.0429443
3.21279e-05
0.0429907
9.74124e-05
0.0430687
0.000163188
0.0431775
0.00022738
0.0433163
0.000289205
0.043484
0.000347911
0.0436791
0.000402741
0.0438995
0.000453083
0.044142
0.00049748
0.000540016
0.04294
2.10212e-05
0.0429737
6.37243e-05
0.0430302
0.00010672
0.0431089
0.000148638
0.0432092
0.000188952
0.0433299
0.000227164
0.0434699
0.000262788
0.0436275
0.000295425
0.0438008
0.000324256
0.000351318
0.0429373
1.26763e-05
0.0429626
3.84137e-05
0.043005
6.43103e-05
0.0430641
8.95511e-05
0.0431392
0.000113821
0.0432296
0.000136824
0.0433341
0.000158279
0.0434515
0.000177955
0.0435804
0.000195425
0.000211714
0.0429356
5.96035e-06
0.042956
1.80622e-05
0.0429901
3.02273e-05
0.0430375
4.2083e-05
0.0430979