1.275 	2.15223e-18 	-2.76991e-20 	-0.0344847 	-0.000440327 	-1.90065e-22
1.825 	2.15223e-18 	-1.39322e-20 	-0.00950555 	-0.00275764 	1.67506e-21
2.375 	2.15223e-18 	-2.66896e-23 	0.115179 	-0.00323222 	-6.98599e-22
