/*--------------------------------*- C++ -*----------------------------------*\
  =========                 |
  \\      /  F ield         | OpenFOAM: The Open Source CFD Toolbox
   \\    /   O peration     | Website:  https://openfoam.org
    \\  /    A nd           | Version:  6.0
     \\/     M anipulation  |
\*---------------------------------------------------------------------------*/
FoamFile
{
    version     2.0;
    format      ascii;
    class       volScalarField;
    location    "45";
    object      p;
}
// * * * * * * * * * * * * * * * * * * * * * * * * * * * * * * * * * * * * * //

dimensions      [0 2 -2 0 0 0 0];

internalField   nonuniform List<scalar> 
2000
(
-0.348055
-0.353961
-0.355649
-0.354981
-0.353121
-0.350444
-0.347229
-0.343767
-0.340347
-0.336651
-0.350773
-0.356259
-0.357608
-0.356637
-0.35449
-0.351538
-0.34806
-0.344338
-0.340663
-0.336847
-0.356228
-0.360856
-0.361513
-0.359934
-0.357205
-0.353697
-0.349684
-0.345425
-0.341222
-0.337161
-0.364463
-0.367751
-0.367346
-0.36484
-0.361229
-0.356876
-0.352039
-0.346936
-0.341885
-0.337436
-0.375535
-0.37694
-0.375075
-0.371316
-0.366521
-0.361026
-0.355057
-0.348756
-0.342456
-0.337413
-0.38951
-0.388411
-0.38466
-0.379323
-0.373049
-0.366123
-0.358705
-0.3508
-0.342724
-0.336764
-0.406421
-0.402121
-0.396042
-0.388819
-0.380807
-0.372208
-0.363078
-0.353187
-0.342688
-0.335231
-0.426213
-0.417971
-0.409129
-0.399742
-0.38978
-0.379324
-0.368289
-0.356047
-0.342104
-0.331661
-0.448672
-0.435787
-0.423806
-0.412053
-0.400008
-0.387564
-0.374323
-0.358763
-0.338678
-0.321366
-0.473365
-0.455306
-0.439974
-0.425899
-0.412113
-0.398417
-0.384053
-0.366388
-0.341348
-0.317371
-0.499606
-0.476101
-0.457362
-0.441192
-0.426463
-0.413551
-0.402797
-0.39484
-0.394977
-0.41451
-0.526569
-0.497595
-0.475354
-0.456823
-0.440486
-0.426804
-0.416251
-0.409887
-0.412843
-0.430114
-0.553532
-0.51933
-0.493677
-0.472675
-0.454311
-0.438949
-0.426956
-0.41905
-0.418342
-0.426159
-0.579847
-0.540835
-0.512018
-0.488574
-0.467938
-0.450294
-0.435803
-0.424717
-0.418515
-0.417177
-0.604764
-0.561441
-0.529754
-0.503877
-0.480664
-0.460099
-0.44214
-0.426665
-0.414095
-0.404468
-0.627295
-0.580216
-0.545939
-0.517576
-0.491433
-0.46736
-0.445234
-0.424744
-0.405722
-0.388934
-0.646154
-0.595949
-0.559343
-0.528389
-0.498958
-0.470907
-0.444198
-0.418527
-0.393475
-0.370822
-0.659784
-0.607185
-0.568505
-0.534832
-0.501809
-0.469482
-0.438068
-0.407414
-0.377068
-0.349893
-0.666421
-0.612285
-0.571802
-0.535313
-0.49851
-0.46183
-0.425879
-0.390738
-0.356037
-0.32565
-0.664199
-0.609511
-0.567541
-0.528219
-0.487631
-0.44678
-0.406747
-0.367862
-0.329869
-0.297503
-0.651262
-0.597119
-0.55405
-0.512023
-0.46788
-0.423327
-0.37994
-0.33826
-0.298115
-0.264918
-0.625875
-0.57347
-0.529793
-0.485386
-0.438198
-0.390712
-0.344954
-0.301595
-0.260487
-0.227526
-0.586566
-0.537156
-0.493494
-0.447269
-0.397847
-0.348485
-0.301562
-0.257772
-0.216922
-0.18519
-0.532238
-0.487117
-0.444239
-0.397023
-0.346473
-0.296548
-0.249844
-0.206974
-0.167623
-0.138051
-0.462286
-0.422755
-0.381583
-0.334449
-0.284132
-0.235152
-0.190176
-0.149649
-0.113067
-0.0865357
-0.376709
-0.344036
-0.305616
-0.25984
-0.211284
-0.164858
-0.12316
-0.0864161
-0.0538895
-0.0312691
-0.276196
-0.251565
-0.217021
-0.173992
-0.128786
-0.0865075
-0.0495661
-0.0179741
0.0091894
0.0269223
-0.162185
-0.146629
-0.117083
-0.0781972
-0.0378758
-0.00124231
0.029548
0.0545585
0.0746279
0.0860089
-0.0368863
-0.0312004
-0.00765155
0.025873
0.0600638
0.0898853
0.113324
0.129968
0.139902
0.142273
0.0967438
0.092078
0.108859
0.136188
0.163709
0.186699
0.203187
0.211554
0.21052
0.203791
0.23513
0.219941
0.229347
0.249854
0.270604
0.287718
0.299922
0.305404
0.304358
0.318276
0.374378
0.348743
0.350198
0.363018
0.376038
0.386012
0.392065
0.393307
0.392229
0.405153
0.510542
0.474813
0.468005
0.472557
0.47721
0.479289
0.478226
0.473605
0.467912
0.473016
0.639778
0.594541
0.579476
0.575574
0.571675
0.565687
0.557351
0.546518
0.535259
0.532417
0.758422
0.704489
0.681516
0.669408
0.657242
0.643494
0.628182
0.611346
0.594676
0.584729
0.86309
0.801489
0.771307
0.751663
0.731955
0.711178
0.689591
0.667379
0.645864
0.629708
0.950765
0.882734
0.846362
0.820227
0.794064
0.767314
0.740435
0.713724
0.688149
0.666791
1.01889
0.945857
0.904587
0.873311
0.842065
0.810639
0.779643
0.749456
0.720735
0.69532
1.06547
0.989004
0.944345
0.909513
0.874764
0.840129
0.80632
0.77377
0.742904
0.714704
1.08911
1.0109
0.964511
0.927861
0.891327
0.85506
0.819825
0.78608
0.754128
0.724509
1.08911
1.0109
0.964511
0.927861
0.891327
0.85506
0.819825
0.78608
0.754128
0.724509
1.06547
0.989004
0.944345
0.909513
0.874764
0.840129
0.80632
0.77377
0.742904
0.714704
1.01889
0.945857
0.904587
0.873311
0.842065
0.810639
0.779643
0.749456
0.720735
0.69532
0.950766
0.882734
0.846362
0.820227
0.794064
0.767314
0.740435
0.713724
0.688149
0.666791
0.86309
0.801489
0.771307
0.751663
0.731955
0.711178
0.689591
0.667379
0.645864
0.629708
0.758422
0.704489
0.681516
0.669408
0.657242
0.643494
0.628182
0.611346
0.594675
0.584728
0.639778
0.594541
0.579476
0.575574
0.571675
0.565687
0.557351
0.546517
0.535259
0.532417
0.510542
0.474813
0.468005
0.472557
0.47721
0.479289
0.478226
0.473605
0.467912
0.473015
0.374378
0.348743
0.350199
0.363018
0.376038
0.386012
0.392065
0.393307
0.392229
0.405153
0.23513
0.219941
0.229347
0.249854
0.270604
0.287718
0.299922
0.305404
0.304357
0.318275
0.096744
0.0920781
0.108859
0.136188
0.16371
0.186699
0.203187
0.211554
0.210519
0.20379
-0.0368862
-0.0312003
-0.00765146
0.0258731
0.0600638
0.0898853
0.113324
0.129968
0.139902
0.142273
-0.162184
-0.146629
-0.117083
-0.0781971
-0.0378758
-0.00124232
0.0295479
0.0545584
0.0746278
0.0860087
-0.276195
-0.251565
-0.217021
-0.173992
-0.128786
-0.0865076
-0.0495662
-0.0179742
0.00918927
0.0269222
-0.376709
-0.344036
-0.305616
-0.25984
-0.211284
-0.164858
-0.12316
-0.0864162
-0.0538897
-0.0312693
-0.462286
-0.422755
-0.381583
-0.334449
-0.284132
-0.235152
-0.190176
-0.149649
-0.113067
-0.0865359
-0.532238
-0.487117
-0.444239
-0.397023
-0.346473
-0.296548
-0.249844
-0.206974
-0.167623
-0.138051
-0.586567
-0.537156
-0.493494
-0.447269
-0.397847
-0.348485
-0.301563
-0.257773
-0.216922
-0.18519
-0.625875
-0.57347
-0.529794
-0.485386
-0.438198
-0.390712
-0.344954
-0.301595
-0.260487
-0.227526
-0.651262
-0.59712
-0.55405
-0.512023
-0.46788
-0.423327
-0.37994
-0.33826
-0.298115
-0.264919
-0.664199
-0.609511
-0.567541
-0.528219
-0.487632
-0.44678
-0.406747
-0.367862
-0.329869
-0.297503
-0.666421
-0.612285
-0.571803
-0.535313
-0.498511
-0.461831
-0.42588
-0.390739
-0.356038
-0.32565
-0.659784
-0.607185
-0.568505
-0.534833
-0.501809
-0.469482
-0.438069
-0.407414
-0.377069
-0.349894
-0.646155
-0.595949
-0.559344
-0.528389
-0.498958
-0.470907
-0.444199
-0.418528
-0.393476
-0.370823
-0.627295
-0.580217
-0.545939
-0.517577
-0.491434
-0.46736
-0.445234
-0.424744
-0.405723
-0.388935
-0.604765
-0.561442
-0.529754
-0.503877
-0.480665
-0.460099
-0.442141
-0.426666
-0.414095
-0.404468
-0.579848
-0.540836
-0.512019
-0.488575
-0.467939
-0.450295
-0.435803
-0.424718
-0.418515
-0.417178
-0.553533
-0.519331
-0.493678
-0.472676
-0.454312
-0.43895
-0.426956
-0.419051
-0.418342
-0.42616
-0.52657
-0.497596
-0.475355
-0.456824
-0.440487
-0.426805
-0.416252
-0.409888
-0.412843
-0.430115
-0.499607
-0.476102
-0.457363
-0.441193
-0.426464
-0.413552
-0.402797
-0.39484
-0.394978
-0.414511
-0.473366
-0.455306
-0.439974
-0.4259
-0.412114
-0.398417
-0.384054
-0.366389
-0.341349
-0.317372
-0.448673
-0.435788
-0.423807
-0.412054
-0.400008
-0.387565
-0.374324
-0.358764
-0.338679
-0.321367
-0.426213
-0.417972
-0.40913
-0.399743
-0.38978
-0.379325
-0.36829
-0.356048
-0.342105
-0.331662
-0.406422
-0.402122
-0.396043
-0.388819
-0.380807
-0.372208
-0.363078
-0.353187
-0.342689
-0.335232
-0.389511
-0.388412
-0.384661
-0.379324
-0.37305
-0.366124
-0.358706
-0.350801
-0.342725
-0.336765
-0.375536
-0.376941
-0.375075
-0.371317
-0.366522
-0.361027
-0.355057
-0.348756
-0.342457
-0.337414
-0.364463
-0.367751
-0.367346
-0.36484
-0.36123
-0.356877
-0.35204
-0.346937
-0.341886
-0.337436
-0.356229
-0.360856
-0.361514
-0.359934
-0.357205
-0.353698
-0.349684
-0.345425
-0.341222
-0.337162
-0.350773
-0.35626
-0.357608
-0.356637
-0.35449
-0.351538
-0.34806
-0.344338
-0.340663
-0.336847
-0.348055
-0.353961
-0.35565
-0.354981
-0.353121
-0.350444
-0.347229
-0.343767
-0.340347
-0.336651
-0.290441
-0.126298
-0.0812334
-0.0303291
-0.0192239
-0.00779034
-0.00434914
-0.000878016
-0.000459595
0.00217082
-0.291671
-0.126846
-0.081504
-0.0305277
-0.0192916
-0.00784981
-0.00437853
-0.000898745
-0.000469011
0.00215476
-0.294062
-0.127927
-0.0820397
-0.0309261
-0.019427
-0.00796879
-0.00443746
-0.000940212
-0.000487464
0.00212303
-0.297473
-0.129518
-0.082829
-0.0315264
-0.0196298
-0.0081468
-0.00452576
-0.00100229
-0.000514815
0.00207594
-0.301659
-0.131575
-0.0838457
-0.0323267
-0.019898
-0.00838245
-0.00464295
-0.00108476
-0.00055078
0.00201393
-0.306263
-0.134021
-0.0850405
-0.0333133
-0.0202257
-0.00867218
-0.00478779
-0.0011871
-0.000595
0.00193765
-0.311155
-0.136925
-0.0864188
-0.0344816
-0.0206136
-0.00901322
-0.00495975
-0.00130835
-0.00064768
0.00184866
-0.316858
-0.140941
-0.0882432
-0.0359322
-0.0211051
-0.00941902
-0.00516486
-0.00144884
-0.000710372
0.00174975
-0.321635
-0.146446
-0.090692
-0.0378303
-0.0217506
-0.00991664
-0.0054123
-0.00161393
-0.00078147
0.00163834
-0.313831
-0.148822
-0.0918028
-0.0395319
-0.0222529
-0.0104085
-0.00565696
-0.00180489
-0.000841305
0.00149158
-0.247299
-0.140725
-0.0881813
-0.0427873
-0.0227514
-0.0117399
-0.00637356
-0.0025446
-0.00100706
0.000838129
-0.189204
-0.131716
-0.0821778
-0.0442457
-0.0244849
-0.0141323
-0.00822283
-0.00402803
-0.00176816
-3.77632e-06
-0.147788
-0.113859
-0.0727483
-0.0428148
-0.0259109
-0.0163386
-0.0101582
-0.0056194
-0.00270201
-0.00068342
-0.108194
-0.0929575
-0.0633283
-0.0408454
-0.0269608
-0.0181339
-0.0118331
-0.00705421
-0.00359216
-0.00115408
-0.0789564
-0.0756852
-0.056528
-0.0395901
-0.027785
-0.0194794
-0.0131454
-0.00820798
-0.00433898
-0.00145232
-0.0588647
-0.0628381
-0.0515679
-0.0385904
-0.0281963
-0.0203265
-0.0140722
-0.00906213
-0.00491688
-0.0016457
-0.0458391
-0.0535771
-0.0477062
-0.0376202
-0.0282843
-0.0208079
-0.014696
-0.00967021
-0.0053452
-0.00178221
-0.0375947
-0.0471177
-0.0447442
-0.0367672
-0.0282395
-0.0210775
-0.0151041
-0.0100871
-0.00564777
-0.00188093
-0.0327729
-0.0430169
-0.0427367
-0.0361642
-0.0281832
-0.021224
-0.015349
-0.0103464
-0.00584065
-0.00194547
-0.0305424
-0.0410153
-0.0417257
-0.0358672
-0.0281594
-0.0212888
-0.0154621
-0.0104684
-0.00593498
-0.00197571
-0.218598
-0.246495
-0.272274
-0.296218
-0.318712
-0.340262
-0.361486
-0.38303
-0.405396
-0.429238
-0.0679522
-0.0780948
-0.0872594
-0.0956893
-0.103692
-0.111647
-0.120013
-0.12933
-0.140176
-0.154342
-0.045181
-0.0543628
-0.063159
-0.0715428
-0.0794768
-0.0869161
-0.0938173
-0.100154
-0.105922
-0.111243
-0.0187577
-0.0244777
-0.0299914
-0.0353176
-0.0404784
-0.0454969
-0.0503964
-0.0551989
-0.0599044
-0.0643923
-0.0130485
-0.0174044
-0.0216357
-0.0257389
-0.0297102
-0.0335457
-0.0372418
-0.0407955
-0.0441872
-0.0473856
-0.00799407
-0.0112114
-0.0143693
-0.0174668
-0.0205034
-0.0234786
-0.0263917
-0.0292416
-0.0320164
-0.0347196
-0.00687044
-0.00940733
-0.0119079
-0.0143681
-0.0167844
-0.0191538
-0.0214736
-0.0237413
-0.025951
-0.028116
-0.0060694
-0.00812731
-0.0101687
-0.0121894
-0.0141859
-0.0161545
-0.0180924
-0.0199963
-0.0218631
-0.0236999
-0.00598175
-0.00775642
-0.00952316
-0.0112775
-0.0130151
-0.0147323
-0.0164254
-0.0180912
-0.0197276
-0.0213359
-0.00592572
-0.00755168
-0.00917504
-0.010792
-0.0123991
-0.013993
-0.0155706
-0.0171289
-0.0186666
-0.0201817
0.168002
0.127015
0.0816667
0.0385975
-0.00314093
-0.04402
-0.0834233
-0.120768
-0.155787
-0.188394
0.117533
0.0916177
0.0648258
0.0419871
0.0218669
0.00319314
-0.0141172
-0.0298532
-0.0439883
-0.0566378
0.0734126
0.0577146
0.0427616
0.0298495
0.0179982
0.00653156
-0.00462138
-0.0153727
-0.0256991
-0.0356274
0.0531569
0.044084
0.035455
0.0277445
0.0204782
0.0133856
0.00646905
-0.000212869
-0.00663882
-0.0128159
0.0376204
0.031669
0.0259288
0.0206382
0.0155479
0.0105269
0.00558183
0.000744195
-0.00397354
-0.00857094
0.0273589
0.02347
0.0196247
0.015987
0.0124445
0.00892912
0.00544238
0.00200099
-0.00138671
-0.00471871
0.0196565
0.016928
0.0141728
0.0114962
0.00885018
0.00620182
0.00355292
0.000914653
-0.00170512
-0.00430156
0.0144762
0.0124811
0.0104358
0.00840273
0.00636525
0.00430976
0.00223865
0.000159434
-0.00192153
-0.00399931
0.0111456
0.00955072
0.00790678
0.00624306
0.00455476
0.00283879
0.00109899
-0.000658459
-0.00242782
-0.00420392
0.00954959
0.00812898
0.00666502
0.00517196
0.0036492
0.00209779
0.000522041
-0.00107286
-0.00268209
-0.00430114
0.335417
0.334717
0.333168
0.330293
0.325309
0.316978
0.303529
0.282568
0.25146
0.206843
0.245519
0.244403
0.241768
0.237183
0.230313
0.220727
0.207856
0.19104
0.169533
0.142778
0.174689
0.17356
0.170893
0.166368
0.159878
0.151314
0.140488
0.127184
0.110996
0.0920095
0.123079
0.122194
0.120091
0.116529
0.111489
0.104998
0.0970481
0.0876498
0.076725
0.0646087
0.0867455
0.086101
0.0845621
0.081949
0.0782691
0.0735747
0.0678999
0.0612831
0.0537044
0.0453726
0.0615666
0.0611032
0.0599946
0.0581125
0.05547
0.0521183
0.0480992
0.0434565
0.0382079
0.0324997
0.0444154
0.0440768
0.0432667
0.0418914
0.0399627
0.0375207
0.0345992
0.031231
0.0274355
0.0232967
0.0331299
0.0328732
0.0322586
0.0312156
0.0297533
0.0279032
0.0256922
0.0231453
0.020283
0.0171571
0.0262943
0.0260858
0.025587
0.0247406
0.0235539
0.022052
0.0202561
0.018185
0.0158567
0.0133024
0.0230739
0.0228874
0.0224422
0.0216871
0.0206283
0.0192879
0.0176845
0.0158344
0.0137544
0.0114672
0.485391
0.487144
0.493477
0.504623
0.520475
0.541334
0.567669
0.600001
0.638868
0.684516
0.48315
0.484877
0.49113
0.50212
0.517723
0.538205
0.563975
0.59547
0.633089
0.676924
0.478719
0.480401
0.486501
0.497189
0.512305
0.532047
0.556706
0.586547
0.621698
0.661947
0.4722
0.473827
0.479716
0.489972
0.504388
0.523054
0.546092
0.573509
0.605016
0.639993
0.463729
0.465306
0.470947
0.480666
0.494198
0.511494
0.532454
0.556743
0.58351
0.611649
0.453476
0.455025
0.460399
0.4695
0.481991
0.497664
0.516152
0.536697
0.557749
0.577649
0.441638
0.443226
0.448353
0.456792
0.468132
0.481978
0.497656
0.513913
0.528411
0.538862
0.428419
0.430234
0.435249
0.443099
0.453314
0.465282
0.477952
0.489432
0.496496
0.49608
0.413889
0.416181
0.421275
0.428661
0.437856
0.448029
0.45768
0.46409
0.462879
0.4488
0.397687
0.400123
0.40479
0.411047
0.418426
0.425977
0.431925
0.433048
0.424583
0.396879
0.397687
0.400123
0.40479
0.411046
0.418426
0.425976
0.431925
0.433048
0.424582
0.396879
0.413889
0.416181
0.421275
0.428661
0.437856
0.448029
0.457679
0.46409
0.462879
0.4488
0.428418
0.430234
0.435249
0.443098
0.453314
0.465282
0.477952
0.489432
0.496496
0.49608
0.441637
0.443226
0.448353
0.456792
0.468132
0.481978
0.497656
0.513912
0.528411
0.538862
0.453476
0.455025
0.460399
0.4695
0.481991
0.497664
0.516152
0.536697
0.557749
0.577649
0.463729
0.465306
0.470947
0.480666
0.494197
0.511494
0.532453
0.556743
0.58351
0.611649
0.4722
0.473826
0.479716
0.489972
0.504388
0.523054
0.546091
0.573509
0.605016
0.639993
0.478719
0.480401
0.486501
0.497189
0.512305
0.532047
0.556706
0.586547
0.621697
0.661947
0.48315
0.484877
0.49113
0.50212
0.517723
0.538205
0.563975
0.59547
0.633089
0.676924
0.485391
0.487144
0.493477
0.504623
0.520475
0.541334
0.567669
0.600001
0.638868
0.684516
0.0230733
0.0228868
0.0224416
0.0216865
0.0206277
0.0192873
0.0176839
0.0158338
0.0137539
0.0114668
0.0262937
0.0260852
0.0255864
0.0247401
0.0235534
0.0220515
0.0202555
0.0181845
0.0158562
0.0133019
0.0331293
0.0328726
0.032258
0.031215
0.0297527
0.0279027
0.0256917
0.0231448
0.0202825
0.0171567
0.0444148
0.0440763
0.0432661
0.0418909
0.0399621
0.0375202
0.0345987
0.0312306
0.027435
0.0232962
0.061566
0.0611026
0.0599941
0.058112
0.0554695
0.0521178
0.0480987
0.043456
0.0382075
0.0324993
0.0867451
0.0861006
0.0845616
0.0819486
0.0782686
0.0735742
0.0678995
0.0612826
0.053704
0.0453722
0.123079
0.122193
0.120091
0.116528
0.111489
0.104997
0.0970477
0.0876494
0.0767246
0.0646083
0.174688
0.173559
0.170893
0.166368
0.159878
0.151314
0.140488
0.127184
0.110996
0.0920092
0.245519
0.244403
0.241767
0.237183
0.230312
0.220727
0.207855
0.19104
0.169532
0.142778
0.335417
0.334717
0.333168
0.330293
0.325309
0.316978
0.303528
0.282567
0.25146
0.206843
0.00954914
0.00812855
0.00666463
0.00517162
0.00364889
0.00209752
0.000521809
-0.00107306
-0.00268225
-0.00430128
0.0111452
0.00955032
0.00790641
0.00624272
0.00455447
0.00283853
0.00109877
-0.000658644
-0.00242797
-0.00420403
0.0144757
0.0124807
0.0104355
0.00840241
0.00636497
0.00430953
0.00223845
0.000159271
-0.00192166
-0.00399941
0.0196561
0.0169277
0.0141725
0.0114959
0.00884992
0.0062016
0.00355274
0.000914506
-0.00170523
-0.00430164
0.0273585
0.0234697
0.0196244
0.0159867
0.0124442
0.0089289
0.0054422
0.00200084
-0.00138683
-0.0047188
0.03762
0.0316687
0.0259285
0.0206379
0.0155476
0.0105266
0.00558164
0.000744035
-0.00397367
-0.00857105
0.0531566
0.0440836
0.0354547
0.0277442
0.020478
0.0133854
0.00646886
-0.00021303
-0.00663896
-0.0128161
0.0734123
0.0577143
0.0427613
0.0298492
0.0179979
0.00653133
-0.00462158
-0.0153728
-0.0256993
-0.0356276
0.117532
0.0916174
0.0648256
0.0419868
0.0218667
0.00319291
-0.0141174
-0.0298534
-0.0439885
-0.0566379
0.168002
0.127015
0.0816664
0.0385973
-0.00314118
-0.0440203
-0.0834235
-0.120769
-0.155787
-0.188394
-0.00592584
-0.00755178
-0.00917512
-0.0107921
-0.0123992
-0.0139931
-0.0155706
-0.0171289
-0.0186666
-0.0201818
-0.00598185
-0.0077565
-0.00952322
-0.0112775
-0.0130152
-0.0147323
-0.0164254
-0.0180912
-0.0197276
-0.0213359
-0.00606946
-0.00812734
-0.0101687
-0.0121895
-0.0141859
-0.0161545
-0.0180924
-0.0199964
-0.0218631
-0.0237
-0.00687048
-0.00940735
-0.0119079
-0.0143681
-0.0167845
-0.0191538
-0.0214736
-0.0237413
-0.025951
-0.028116
-0.00799411
-0.0112114
-0.0143693
-0.0174668
-0.0205034
-0.0234786
-0.0263917
-0.0292416
-0.0320164
-0.0347196
-0.0130485
-0.0174044
-0.0216357
-0.0257389
-0.0297102
-0.0335457
-0.0372418
-0.0407955
-0.0441873
-0.0473856
-0.0187578
-0.0244778
-0.0299914
-0.0353177
-0.0404784
-0.045497
-0.0503965
-0.055199
-0.0599045
-0.0643924
-0.0451811
-0.0543629
-0.0631591
-0.0715429
-0.0794769
-0.0869162
-0.0938175
-0.100154
-0.105922
-0.111243
-0.0679524
-0.078095
-0.0872596
-0.0956895
-0.103692
-0.111647
-0.120013
-0.12933
-0.140176
-0.154343
-0.218598
-0.246495
-0.272274
-0.296218
-0.318712
-0.340262
-0.361486
-0.383031
-0.405397
-0.429239
-0.0305424
-0.0410154
-0.0417256
-0.0358673
-0.0281599
-0.0212895
-0.0154628
-0.0104687
-0.0059351
-0.00197557
-0.0327729
-0.0430169
-0.0427366
-0.0361642
-0.0281837
-0.0212247
-0.0153497
-0.0103468
-0.00584073
-0.00194529
-0.0375947
-0.0471177
-0.0447441
-0.0367672
-0.02824
-0.0210784
-0.0151049
-0.0100875
-0.00564776
-0.00188066
-0.0458391
-0.053577
-0.047706
-0.0376202
-0.028285
-0.0208088
-0.0146968
-0.00967057
-0.00534501
-0.0017818
-0.0588646
-0.0628381
-0.0515676
-0.0385904
-0.0281972
-0.0203276
-0.0140732
-0.00906248
-0.00491638
-0.00164505
-0.0789564
-0.075685
-0.0565275
-0.03959
-0.0277862
-0.0194808
-0.0131466
-0.00820831
-0.00433797
-0.00145132
-0.108194
-0.0929572
-0.0633274
-0.0408452
-0.0269624
-0.0181358
-0.0118347
-0.00705451
-0.00359036
-0.00115258
-0.147787
-0.113858
-0.0727468
-0.0428144
-0.0259132
-0.0163411
-0.0101605
-0.0056197
-0.00269913
-0.000681283
-0.189204
-0.131715
-0.0821753
-0.044245
-0.0244878
-0.0141356
-0.00822607
-0.00402841
-0.00176413
-9.69342e-07
-0.2473
-0.140723
-0.0881778
-0.0427861
-0.0227544
-0.0117437
-0.00637775
-0.00254509
-0.00100221
0.000841404
-0.313832
-0.148821
-0.0917993
-0.0395308
-0.0222555
-0.0104117
-0.00566103
-0.0018053
-0.000836596
0.00149452
-0.321636
-0.146445
-0.0906887
-0.0378293
-0.0217531
-0.00991969
-0.00541614
-0.00161425
-0.000777025
0.00164106
-0.316859
-0.14094
-0.0882401
-0.0359314
-0.0211074
-0.00942179
-0.00516828
-0.00144906
-0.000706404
0.00175213
-0.311156
-0.136924
-0.0864159
-0.0344809
-0.0206158
-0.00901569
-0.00496274
-0.0013085
-0.000644213
0.00185073
-0.306263
-0.13402
-0.085038
-0.0333128
-0.0202276
-0.00867433
-0.00479035
-0.00118721
-0.000592026
0.00193941
-0.301659
-0.131574
-0.0838436
-0.0323262
-0.0198996
-0.00838427
-0.00464507
-0.00108484
-0.000548311
0.00201539
-0.297474
-0.129518
-0.0828273
-0.031526
-0.0196311
-0.00814824
-0.00452743
-0.00100235
-0.000512871
0.00207709
-0.294063
-0.127927
-0.0820384
-0.0309259
-0.0194279
-0.00796984
-0.00443865
-0.000940269
-0.00048606
0.00212387
-0.291671
-0.126845
-0.0815033
-0.0305276
-0.0192922
-0.00785046
-0.00437924
-0.000898803
-0.000468155
0.00215528
-0.290441
-0.126298
-0.0812331
-0.0303291
-0.0192241
-0.00779055
-0.00434937
-0.000878043
-0.000459309
0.002171
)
;

boundaryField
{
    inlet
    {
        type            zeroGradient;
    }
    outlet
    {
        type            fixedValue;
        value           uniform 0;
    }
    cylinder
    {
        type            zeroGradient;
    }
    top
    {
        type            symmetryPlane;
    }
    bottom
    {
        type            symmetryPlane;
    }
    defaultFaces
    {
        type            empty;
    }
}


// ************************************************************************* //
