/*--------------------------------*- C++ -*----------------------------------*\
  =========                 |
  \\      /  F ield         | OpenFOAM: The Open Source CFD Toolbox
   \\    /   O peration     | Website:  https://openfoam.org
    \\  /    A nd           | Version:  6.0
     \\/     M anipulation  |
\*---------------------------------------------------------------------------*/
FoamFile
{
    version     2.0;
    format      ascii;
    class       surfaceScalarField;
    location    "45";
    object      phi;
}
// * * * * * * * * * * * * * * * * * * * * * * * * * * * * * * * * * * * * * //

dimensions      [0 3 -1 0 0 0 0];

internalField   nonuniform List<scalar> 
3880
(
-1.79762e-05
1.7976e-05
1.37542e-10
-5.34943e-05
3.5518e-05
1.31907e-10
-9.5387e-05
4.18928e-05
-7.85224e-12
-0.00013659
4.12027e-05
-2.06101e-10
-0.000172741
3.61523e-05
-4.33391e-10
-0.000201431
2.86907e-05
-6.81559e-10
-0.000221727
2.02965e-05
-9.52995e-10
-0.000233866
1.21401e-05
-1.25399e-09
-0.000239055
5.19091e-06
-1.58853e-09
2.23375e-07
-1.96719e-09
-0.000239277
-1.72976e-05
3.52736e-05
-5.08456e-05
6.9066e-05
-8.96153e-05
8.06625e-05
-0.000126654
7.82417e-05
-0.000157643
6.71413e-05
-0.000180138
5.11851e-05
-0.000193118
3.32764e-05
-0.000196722
1.57439e-05
-0.000192101
5.70506e-07
-1.0606e-05
-0.000181272
-1.59051e-05
5.11787e-05
-4.54318e-05
9.85927e-05
-7.78684e-05
0.000113099
-0.000106532
0.000106905
-0.000127229
8.7838e-05
-0.000137483
6.14392e-05
-0.000136117
3.19109e-05
-0.000123063
2.68983e-06
-9.93355e-05
-2.31572e-05
-4.29399e-05
-6.70016e-05
-1.37116e-05
6.48903e-05
-3.69708e-05
0.000121852
-5.96377e-05
0.000135766
-7.55365e-05
0.000122804
-8.07741e-05
9.30756e-05
-7.29297e-05
5.35948e-05
-5.06525e-05
9.63379e-06
-1.35578e-05
-3.44049e-05
3.76085e-05
-7.43235e-05
-0.000106087
0.000100756
-1.05535e-05
7.54438e-05
-2.4945e-05
0.000136244
-3.39533e-05
0.000144774
-3.22501e-05
0.000121101
-1.65497e-05
7.73751e-05
1.52746e-05
2.17706e-05
6.46326e-05
-3.97242e-05
0.000132287
-0.000102059
0.000217958
-0.000159994
-0.000207779
0.00031965
-6.17979e-06
8.16236e-05
-8.56584e-06
0.00013863
7.21604e-07
0.000135487
2.57477e-05
9.60748e-05
6.87391e-05
3.43837e-05
0.00013106
-4.055e-05
0.000213794
-0.000122458
0.00031795
-0.000206215
0.000443951
-0.000285995
-0.000353895
0.000590066
-2.78557e-07
8.19022e-05
1.31421e-05
0.000125209
4.63793e-05
0.00010225
0.000101847
4.06067e-05
0.000180194
-4.39626e-05
0.000281305
-0.000141661
0.000405095
-0.000246249
0.000552122
-0.000353243
0.000723468
-0.000457341
-0.000548661
0.000918234
7.43383e-06
7.44684e-05
4.10614e-05
9.15814e-05
0.000104945
3.8366e-05
0.000199679
-5.41268e-05
0.000323969
-0.000168254
0.000475444
-0.000293136
0.000651487
-0.000422292
0.000850394
-0.000552149
0.00107263
-0.000679579
-0.000797598
0.00132157
1.70654e-05
5.7403e-05
7.55058e-05
3.3141e-05
0.00017731
-6.34383e-05
0.000321564
-0.000198381
0.000505319
-0.000352009
0.000723811
-0.000511627
0.000970764
-0.000669245
0.00123937
-0.000820751
0.00152586
-0.000966069
-0.0011159
0.00184416
2.83503e-05
2.90528e-05
0.00011556
-5.40691e-05
0.000261835
-0.000209712
0.000465771
-0.000402318
0.00072458
-0.000610818
0.0010338
-0.000820842
0.00138662
-0.00102207
0.00177226
-0.00120639
0.00217502
-0.00136883
-0.00151336
0.00257248
4.04747e-05
-1.1422e-05
0.000158374
-0.000171968
0.000352087
-0.000403425
0.000620349
-0.00067058
0.000962545
-0.000953013
0.00137937
-0.00123767
0.00187407
-0.00151678
0.00245575
-0.00178807
0.00314735
-0.00206042
-0.00237218
0.00400618
5.23591e-05
-6.37811e-05
0.000199954
-0.000319563
0.000438004
-0.000641476
0.000763
-0.000995576
0.00117226
-0.00136227
0.00166392
-0.00172933
0.00223691
-0.00208977
0.00289038
-0.00244154
0.00361882
-0.00278887
-0.00314078
0.00438742
6.34847e-05
-0.000127266
0.00023825
-0.000494328
0.000514862
-0.000918088
0.000885312
-0.00136603
0.00134184
-0.0018188
0.0018763
-0.00226379
0.00247952
-0.00269298
0.00313969
-0.00310171
0.00383825
-0.00348743
-0.00384399
0.00454145
7.38714e-05
-0.000201137
0.000272988
-0.000693445
0.00058212
-0.00122722
0.000987486
-0.00177139
0.00147521
-0.00230652
0.0020307
-0.00281928
0.00263815
-0.00330044
0.00327987
-0.00374343
0.00393458
-0.00414214
-0.00448536
0.00457596
8.36626e-05
-0.0002848
0.000304313
-0.000914095
0.000640047
-0.00156295
0.00107069
-0.00220203
0.00157622
-0.00281205
0.00213646
-0.00337952
0.00273121
-0.00389518
0.00334036
-0.00435258
0.0039438
-0.00474558
-0.00506326
0.00452169
9.28481e-05
-0.000377648
0.000331966
-0.00115321
0.000688072
-0.00191906
0.00113437
-0.00264833
0.00164514
-0.00332282
0.00219582
-0.0039302
0.00276372
-0.00446308
0.00332854
-0.00491741
0.00387285
-0.00528989
-0.00557323
0.00438282
0.000101184
-0.000478832
0.000355066
-0.0014071
0.000724484
-0.00228848
0.00117614
-0.00309999
0.00167935
-0.00382603
0.00220662
-0.00445747
0.00273444
-0.0049909
0.00324398
-0.00542694
0.00372141
-0.00576732
-0.00601042
0.00415861
0.000108241
-0.000587074
0.000372269
-0.00167112
0.000746863
-0.00266307
0.0011927
-0.00354582
0.00167529
-0.00430863
0.00216569
-0.00494787
0.00264125
-0.00546646
0.0030859
-0.00587159
0.00349007
-0.00617149
-0.00637124
0.00385088
0.000113496
-0.000700569
0.00038206
-0.00193969
0.000752695
-0.00303371
0.00118098
-0.00397411
0.00163007
-0.00475771
0.00207123
-0.00538903
0.00248414
-0.00587937
0.00285648
-0.00624393
0.00318316
-0.00649817
-0.00665404
0.00346597
0.000116416
-0.000816985
0.000383026
-0.0022063
0.000739894
-0.00339057
0.0011389
-0.00437312
0.00154253
-0.00516134
0.00192389
-0.00577039
0.00226619
-0.00622166
0.00256142
-0.00653916
0.00280887
-0.00674562
-0.00685928
0.00301411
0.000116537
-0.000933522
0.00037406
-0.00246382
0.000707145
-0.00372366
0.00106577
-0.00473174
0.00141354
-0.00550912
0.00172689
-0.00608374
0.00199335
-0.00648812
0.00220937
-0.00675518
0.00237812
-0.00691438
-0.00698915
0.00250799
0.000113457
-0.00104698
0.000354398
-0.00270476
0.000653935
-0.0040232
0.000962216
-0.00504003
0.00124578
-0.00579268
0.00148545
-0.00632342
0.00167351
-0.00667618
0.0018106
-0.00689227
0.00190303
-0.00700681
-0.00704716
0.00196104
0.000106917
-0.0011539
0.000323755
-0.0029216
0.000580684
-0.00428013
0.000830232
-0.00528957
0.00104342
-0.00600587
0.00120625
-0.00648625
0.0013157
-0.00678563
0.001376
-0.00695257
0.00139579
-0.0070266
-0.0070376
0.00138623
9.67702e-05
-0.00125067
0.000282254
-0.00310708
0.000488542
-0.00448641
0.00067271
-0.00547374
0.000811535
-0.0061447
0.000896522
-0.00657123
0.000928982
-0.00681809
0.000915976
-0.00693956
0.00086756
-0.00697818
-0.00696517
0.000795125
8.29983e-05
-0.00133366
0.000230411
-0.0032545
0.000379273
-0.00463528
0.000493177
-0.00558765
0.000555543
-0.00620706
0.000563391
-0.00657908
0.000521774
-0.00677647
0.0004397
-0.00685749
0.000327817
-0.0068663
-0.0068346
0.000197244
6.57186e-05
-0.00139938
0.00016911
-0.00335789
0.000255133
-0.0047213
0.00029552
-0.00562803
0.000280839
-0.00619238
0.000213371
-0.00651161
0.000101237
-0.00666434
-4.54387e-05
-0.00671081
-0.000216166
-0.00669557
-0.00665045
-0.000400308
4.52017e-05
-0.00144458
9.96136e-05
-0.0034123
0.000118829
-0.00474051
8.38899e-05
-0.00559309
-7.36887e-06
-0.00610112
-0.000147836
-0.00637115
-0.000326936
-0.00648524
-0.000534095
-0.00650365
-0.00075959
-0.00647008
-0.00641654
-0.000993506
2.18975e-05
-0.00146648
2.35912e-05
-0.00341399
-2.64511e-05
-0.00469047
-0.000137247
-0.0054823
-0.000303967
-0.0059344
-0.000515214
-0.0061599
-0.00075842
-0.00624203
-0.00102295
-0.00623912
-0.00130036
-0.00619267
-0.00613332
-0.00158358
-3.52388e-06
-0.00146296
-5.67997e-05
-0.00336072
-0.000176919
-0.00457035
-0.000362961
-0.00529625
-0.00060385
-0.00569352
-0.000884694
-0.00587905
-0.00119127
-0.00593546
-0.00151273
-0.00591766
-0.00184204
-0.00586335
-0.00579383
-0.00218153
-3.01077e-05
-0.00143285
-0.000138738
-0.00325209
-0.000327727
-0.00438136
-0.000586878
-0.0050371
-0.00090037
-0.00538002
-0.0012516
-0.00552782
-0.00162603
-0.00556103
-0.00201327
-0.00553043
-0.00240933
-0.00546729
-0.00540647
-0.00279669
-5.66203e-05
-0.00137623
-0.000218705
-0.00309
-0.000472466
-0.0041276
-0.00079908
-0.00471049
-0.00117942
-0.00499968
-0.00159758
-0.00510967
-0.00204225
-0.00511636
-0.00250616
-0.00506651
-0.00298843
-0.00498502
-0.00486994
-0.00352497
-8.19861e-05
-0.00129424
-0.000293656
-0.00287833
-0.000605384
-0.00381587
-0.000989449
-0.00432642
-0.00142231
-0.00456682
-0.00188592
-0.00464606
-0.00236727
-0.004635
-0.00285739
-0.00457639
-0.00335011
-0.00449231
-0.00439084
-0.00382921
-0.000105567
-0.00118868
-0.00036221
-0.00262169
-0.000725122
-0.00345296
-0.0011583
-0.00389325
-0.00163423
-0.00409089
-0.00213319
-0.0041471
-0.00264174
-0.00412645
-0.0031509
-0.00406724
-0.00365346
-0.00398974
-0.00390445
-0.00413984
-0.000127019
-0.00106166
-0.000423779
-0.00232493
-0.000831571
-0.00304517
-0.00130721
-0.00341761
-0.00182015
-0.00357795
-0.00234994
-0.00361731
-0.00288351
-0.00359288
-0.00341269
-0.00353806
-0.00393191
-0.00347053
-0.00339976
-0.0044366
-0.000146081
-0.000915577
-0.00047793
-0.00199308
-0.00092455
-0.00259855
-0.00143676
-0.0029054
-0.0019818
-0.0030329
-0.00253907
-0.00306004
-0.00309627
-0.00303569
-0.00364639
-0.00298793
-0.00418547
-0.00293145
-0.00287403
-0.0047112
-0.000162504
-0.000753072
-0.000524205
-0.00163138
-0.00100363
-0.00211913
-0.00154671
-0.00236232
-0.00211914
-0.00246047
-0.00270043
-0.00247876
-0.00327912
-0.00245699
-0.00384931
-0.00241775
-0.00440816
-0.00237259
-0.00232762
-0.00495457
-0.000176039
-0.000577034
-0.000562094
-0.00124532
-0.00106815
-0.00161308
-0.00163633
-0.00179414
-0.00223122
-0.00186558
-0.00283257
-0.00187741
-0.00342968
-0.00185989
-0.00401747
-0.00182996
-0.00459391
-0.00179615
-0.00176296
-0.00515857
-0.000186443
-0.000390591
-0.000591077
-0.00084069
-0.00111738
-0.00108677
-0.00170467
-0.00120685
-0.00231678
-0.00125346
-0.0029337
-0.00126049
-0.00354531
-0.00124828
-0.00414715
-0.00122812
-0.00473767
-0.00120563
-0.00118375
-0.00531689
-0.000193509
-0.000197082
-0.000610691
-0.000423508
-0.00115064
-0.000546821
-0.00175082
-0.000606672
-0.0023746
-0.000629678
-0.00300215
-0.000632941
-0.00362375
-0.000626684
-0.00423532
-0.000616547
-0.00483563
-0.000605316
-0.000594448
-0.00542493
-0.000197082
-1.87022e-10
-0.000620589
-4.54716e-10
-0.00116741
-6.15168e-10
-0.00177408
-6.81801e-10
-0.00240376
-6.8139e-10
-0.0030367
-6.37588e-10
-0.00366338
-5.6797e-10
-0.00427993
-4.84807e-10
-0.00488524
-3.94471e-10
-2.98153e-10
-0.00547969
-0.000197082
0.000197082
-0.000620589
0.000423507
-0.00116741
0.00054682
-0.00177408
0.00060667
-0.00240376
0.000629677
-0.0030367
0.00063294
-0.00366338
0.000626683
-0.00427993
0.000616546
-0.00488524
0.000605315
0.000594447
-0.00547969
-0.000193509
0.00039059
-0.000610691
0.000840689
-0.00115064
0.00108677
-0.00175082
0.00120685
-0.0023746
0.00125346
-0.00300215
0.00126049
-0.00362375
0.00124828
-0.00423532
0.00122812
-0.00483563
0.00120563
0.00118375
-0.00542493
-0.000186443
0.000577033
-0.000591077
0.00124532
-0.00111738
0.00161307
-0.00170467
0.00179414
-0.00231678
0.00186558
-0.0029337
0.00187741
-0.00354531
0.00185988
-0.00414715
0.00182996
-0.00473767
0.00179615
0.00176296
-0.00531689
-0.000176039
0.000753072
-0.000562094
0.00163138
-0.00106815
0.00211913
-0.00163633
0.00236232
-0.00223122
0.00246047
-0.00283257
0.00247875
-0.00342968
0.00245699
-0.00401747
0.00241775
-0.00459391
0.00237259
0.00232762
-0.00515857
-0.000162504
0.000915576
-0.000524205
0.00199308
-0.00100363
0.00259855
-0.00154671
0.0029054
-0.00211914
0.0030329
-0.00270043
0.00306004
-0.00327912
0.00303569
-0.00384931
0.00298793
-0.00440816
0.00293145
0.00287403
-0.00495457
-0.000146081
0.00106166
-0.00047793
0.00232493
-0.00092455
0.00304517
-0.00143676
0.00341761
-0.0019818
0.00357795
-0.00253907
0.00361731
-0.00309627
0.00359288
-0.00364639
0.00353806
-0.00418547
0.00347052
0.00339976
-0.0047112
-0.000127019
0.00118868
-0.00042378
0.00262169
-0.000831571
0.00345296
-0.00130721
0.00389325
-0.00182015
0.00409089
-0.00234994
0.0041471
-0.00288351
0.00412645
-0.00341269
0.00406724
-0.00393191
0.00398974
0.00390445
-0.0044366
-0.000105567
0.00129424
-0.00036221
0.00287833
-0.000725122
0.00381587
-0.0011583
0.00432642
-0.00163423
0.00456682
-0.00213319
0.00464606
-0.00264174
0.004635
-0.0031509
0.00457639
-0.00365346
0.00449231
0.00439084
-0.00413984
-8.19861e-05
0.00137623
-0.000293656
0.00309
-0.000605384
0.0041276
-0.000989449
0.00471049
-0.00142231
0.00499968
-0.00188592
0.00510967
-0.00236727
0.00511636
-0.00285739
0.00506651
-0.00335011
0.00498502
0.00486994
-0.00382921
-5.66204e-05
0.00143285
-0.000218705
0.00325209
-0.000472466
0.00438136
-0.00079908
0.0050371
-0.00117942
0.00538002
-0.00159758
0.00552782
-0.00204225
0.00556103
-0.00250616
0.00553043
-0.00298843
0.00546728
0.00540647
-0.00352497
-3.01077e-05
0.00146296
-0.000138738
0.00336072
-0.000327727
0.00457035
-0.000586878
0.00529625
-0.000900371
0.00569351
-0.0012516
0.00587905
-0.00162603
0.00593546
-0.00201327
0.00591766
-0.00240933
0.00586335
0.00579383
-0.00279669
-3.52392e-06
0.00146648
-5.67998e-05
0.00341399
-0.000176919
0.00469047
-0.000362962
0.0054823
-0.00060385
0.0059344
-0.000884695
0.0061599
-0.00119127
0.00624203
-0.00151273
0.00623912
-0.00184204
0.00619267
0.00613332
-0.00218153
2.18975e-05
0.00144458
2.3591e-05
0.0034123
-2.64514e-05
0.00474051
-0.000137248
0.00559309
-0.000303967
0.00610112
-0.000515215
0.00637114
-0.00075842
0.00648524
-0.00102295
0.00650365
-0.00130036
0.00647008
0.00641654
-0.00158358
4.52017e-05
0.00139938
9.96134e-05
0.00335789
0.000118829
0.0047213
8.38895e-05
0.00562803
-7.36937e-06
0.00619238
-0.000147837
0.00651161
-0.000326936
0.00666434
-0.000534095
0.00671081
-0.000759591
0.00669557
0.00665045
-0.000993507
6.57186e-05
0.00133366
0.00016911
0.0032545
0.000255133
0.00463527
0.000295519
0.00558765
0.000280839
0.00620706
0.00021337
0.00657908
0.000101237
0.00677647
-4.54395e-05
0.00685749
-0.000216167
0.0068663
0.00683459
-0.000400309
8.29982e-05
0.00125067
0.00023041
0.00310708
0.000379272
0.00448641
0.000493177
0.00547374
0.000555543
0.0061447
0.000563391
0.00657123
0.000521773
0.00681809
0.000439699
0.00693956
0.000327817
0.00697818
0.00696517
0.000197244
9.67702e-05
0.0011539
0.000282254
0.0029216
0.000488541
0.00428013
0.00067271
0.00528957
0.000811534
0.00600587
0.000896521
0.00648625
0.000928981
0.00678563
0.000915975
0.00695257
0.000867559
0.0070266
0.0070376
0.000795124
0.000106917
0.00104698
0.000323755
0.00270476
0.000580684
0.0040232
0.000830231
0.00504003
0.00104342
0.00579268
0.00120625
0.00632342
0.0013157
0.00667618
0.001376
0.00689227
0.00139579
0.00700681
0.00704716
0.00138623
0.000113457
0.000933522
0.000354398
0.00246382
0.000653935
0.00372366
0.000962216
0.00473174
0.00124578
0.00550912
0.00148545
0.00608374
0.00167351
0.00648812
0.0018106
0.00675518
0.00190303
0.00691438
0.00698915
0.00196104
0.000116537
0.000816985
0.00037406
0.0022063
0.000707144
0.00339057
0.00106576
0.00437312
0.00141354
0.00516134
0.00172689
0.00577039
0.00199335
0.00622166
0.00220937
0.00653916
0.00237812
0.00674562
0.00685928
0.00250799
0.000116416
0.00070057
0.000383025
0.00193969
0.000739894
0.00303371
0.0011389
0.00397411
0.00154253
0.00475771
0.00192389
0.00538903
0.00226619
0.00587937
0.00256142
0.00624393
0.00280887
0.00649817
0.00665404
0.00301411
0.000113496
0.000587074
0.00038206
0.00167112
0.000752694
0.00266307
0.00118098
0.00354582
0.00163007
0.00430863
0.00207123
0.00494787
0.00248414
0.00546646
0.00285648
0.00587159
0.00318316
0.00617149
0.00637124
0.00346597
0.000108241
0.000478833
0.000372269
0.0014071
0.000746862
0.00228848
0.0011927
0.00309999
0.00167529
0.00382604
0.00216569
0.00445747
0.00264125
0.0049909
0.0030859
0.00542694
0.00349006
0.00576732
0.00601042
0.00385088
0.000101184
0.000377648
0.000355066
0.00115321
0.000724484
0.00191906
0.00117614
0.00264834
0.00167935
0.00332282
0.00220662
0.0039302
0.00273444
0.00446308
0.00324398
0.00491741
0.00372141
0.00528989
0.00557323
0.0041586
9.28481e-05
0.0002848
0.000331966
0.000914096
0.000688072
0.00156296
0.00113437
0.00220203
0.00164514
0.00281206
0.00219582
0.00337952
0.00276372
0.00389519
0.00332854
0.00435258
0.00387285
0.00474558
0.00506326
0.00438282
8.36626e-05
0.000201137
0.000304313
0.000693446
0.000640047
0.00122722
0.00107069
0.00177139
0.00157622
0.00230653
0.00213646
0.00281928
0.0027312
0.00330044
0.00334036
0.00374343
0.0039438
0.00414214
0.00448536
0.00452169
7.38714e-05
0.000127266
0.000272988
0.000494329
0.00058212
0.000918089
0.000987486
0.00136603
0.00147521
0.0018188
0.0020307
0.0022638
0.00263815
0.00269298
0.00327987
0.00310172
0.00393458
0.00348743
0.00384399
0.00457596
6.34847e-05
6.37813e-05
0.00023825
0.000319563
0.000514862
0.000641477
0.000885312
0.000995577
0.00134184
0.00136227
0.0018763
0.00172933
0.00247952
0.00208977
0.00313969
0.00244154
0.00383825
0.00278887
0.00314079
0.00454145
5.23592e-05
1.14222e-05
0.000199954
0.000171969
0.000438004
0.000403426
0.000763
0.000670581
0.00117226
0.000953014
0.00166392
0.00123767
0.00223691
0.00151678
0.00289038
0.00178808
0.00361882
0.00206043
0.00237219
0.00438742
4.04748e-05
-2.90526e-05
0.000158374
5.40695e-05
0.000352087
0.000209713
0.00062035
0.000402318
0.000962545
0.000610819
0.00137937
0.000820843
0.00187407
0.00102207
0.00245575
0.00120639
0.00314735
0.00136883
0.00151336
0.00400617
2.83503e-05
-5.7403e-05
0.000115561
-3.31408e-05
0.000261835
6.34387e-05
0.000465772
0.000198382
0.000724581
0.00035201
0.0010338
0.000511628
0.00138662
0.000669247
0.00177227
0.000820753
0.00217502
0.000966071
0.0011159
0.00257248
1.70654e-05
-7.44684e-05
7.55059e-05
-9.15813e-05
0.00017731
-3.83657e-05
0.000321565
5.41274e-05
0.00050532
0.000168254
0.000723811
0.000293137
0.000970765
0.000422294
0.00123937
0.000552151
0.00152586
0.000679582
0.000797601
0.00184416
7.43389e-06
-8.19023e-05
4.10615e-05
-0.000125209
0.000104945
-0.000102249
0.000199679
-4.06062e-05
0.00032397
4.39634e-05
0.000475445
0.000141662
0.000651488
0.00024625
0.000850394
0.000353244
0.00107263
0.000457343
0.000548664
0.00132157
-2.78505e-07
-8.16238e-05
1.31422e-05
-0.00013863
4.63795e-05
-0.000135487
0.000101848
-9.60744e-05
0.000180194
-3.43829e-05
0.000281305
4.05511e-05
0.000405096
0.00012246
0.000552122
0.000206217
0.000723468
0.000285998
0.000353898
0.000918234
-6.17975e-06
-7.5444e-05
-8.56574e-06
-0.000136244
7.21768e-07
-0.000144774
2.57479e-05
-0.0001211
6.87393e-05
-7.73744e-05
0.00013106
-2.17695e-05
0.000213794
3.97258e-05
0.00031795
0.000102061
0.000443951
0.000159997
0.000207783
0.000590066
-1.05535e-05
-6.48905e-05
-2.49449e-05
-0.000121852
-3.39532e-05
-0.000135766
-3.225e-05
-0.000122804
-1.65496e-05
-9.30749e-05
1.52746e-05
-5.35936e-05
6.46325e-05
-9.63211e-06
0.000132287
3.44072e-05
0.000217957
7.43264e-05
0.000106091
0.000319649
-1.37115e-05
-5.1179e-05
-3.69708e-05
-9.8593e-05
-5.96376e-05
-0.000113099
-7.55364e-05
-0.000106905
-8.0774e-05
-8.78372e-05
-7.29297e-05
-6.1438e-05
-5.06527e-05
-3.19092e-05
-1.3558e-05
-2.68749e-06
3.76081e-05
2.31602e-05
4.29437e-05
0.000100755
-1.59051e-05
-3.52739e-05
-4.54318e-05
-6.90663e-05
-7.78684e-05
-8.06625e-05
-0.000106532
-7.82413e-05
-0.000127229
-6.71405e-05
-0.000137483
-5.11838e-05
-0.000136117
-3.32746e-05
-0.000123063
-1.57415e-05
-9.93358e-05
-5.67414e-07
1.06099e-05
-6.70021e-05
-1.72976e-05
-1.79763e-05
-5.08456e-05
-3.55182e-05
-8.96153e-05
-4.18928e-05
-0.000126654
-4.12023e-05
-0.000157643
-3.61514e-05
-0.000180138
-2.86894e-05
-0.000193118
-2.02946e-05
-0.000196722
-1.21376e-05
-0.000192101
-5.18774e-06
-2.19462e-07
-0.000181272
-1.79762e-05
-5.34943e-05
-9.5387e-05
-0.00013659
-0.000172741
-0.000201431
-0.000221727
-0.000233866
-0.000239055
-0.000239277
0.000183706
-0.000422868
-1.14485e-07
0.00132174
-0.00113786
-1.82426e-07
0.00248549
-0.00116393
1.87391e-07
0.00323253
-0.000747588
5.50398e-07
0.00385226
-0.000620019
2.89801e-07
0.00428056
-0.000428275
-2.75019e-08
0.00462455
-0.000343443
-5.52718e-07
0.00485643
-0.000230779
-1.09755e-06
0.00506577
-0.000209092
-2.50643e-07
-0.000124706
4.03579e-07
0.000295387
-0.000899528
0.00140415
-0.00224662
0.0025416
-0.00230138
0.00327207
-0.00147806
0.00388026
-0.0012282
0.00430192
-0.000849938
0.00464177
-0.00068329
0.00487187
-0.000460884
0.00508044
-0.000417661
-0.000250054
0.000511586
-0.00147812
0.00156329
-0.00329833
0.00264962
-0.00338771
0.00334821
-0.00217664
0.0039342
-0.0018142
0.00434321
-0.00125895
0.00467521
-0.00101529
0.00490209
-0.00068776
0.00510935
-0.000624919
-0.00037763
0.000818447
-0.00219581
0.00178827
-0.00426815
0.00280149
-0.00440094
0.00345525
-0.0028304
0.00401014
-0.00236909
0.00440168
-0.00165049
0.00472299
-0.0013366
0.00494578
-0.000910545
0.00515165
-0.00083079
-0.000508881
0.0011964
-0.00307255
0.0020638
-0.00513555
0.00298592
-0.00532306
0.00358521
-0.00342969
0.00410248
-0.00288636
0.00447341
-0.00202142
0.00478241
-0.00164561
0.00500109
-0.00112923
0.00520614
-0.00103584
-0.000645618
0.00162137
-0.00410386
0.00237131
-0.00588549
0.00318927
-0.00614103
0.00372841
-0.00396882
0.00420444
-0.00336239
0.0045536
-0.00237058
0.00485014
-0.00194215
0.00506571
-0.0013448
0.00527129
-0.00124141
-0.000790107
0.00206533
-0.00525095
0.00268962
-0.00650978
0.00339634
-0.00684774
0.00387411
-0.0044466
0.00430846
-0.00379673
0.00463688
-0.002699
0.00492237
-0.00222764
0.00513697
-0.0015594
0.00534529
-0.00144973
-0.000945114
0.00249793
-0.00642731
0.00299566
-0.00700751
0.00359113
-0.00744321
0.00401111
-0.00486658
0.00440668
-0.0041923
0.0047176
-0.00300992
0.00499511
-0.00250514
0.005212
-0.00177629
0.00542617
-0.0016639
-0.00111392
0.00290159
-0.00748474
0.00327051
-0.00737643
0.0037596
-0.00793231
0.00412896
-0.00523594
0.0044916
-0.00455493
0.00479024
-0.00330856
0.00506431
-0.00277921
0.00528782
-0.00199981
0.00551182
-0.0018879
-0.0013003
0.00328108
-0.00819335
0.00351249
-0.00760783
0.00389091
-0.00831073
0.00422036
-0.00556539
0.0045565
-0.00489107
0.00484986
-0.00360192
0.00512596
-0.00305532
0.00536172
-0.00223557
0.00559976
-0.00212594
-0.00150902
0.0432805
-0.00091521
-0.0505586
0.0390643
-0.0033916
0.0369861
-0.00623259
0.0368
-0.00537925
0.036653
-0.00474404
0.0368184
-0.00376733
0.0370086
-0.00324554
0.0372623
-0.00248926
0.0374726
-0.00233629
-0.00179759
0.0523393
0.00331313
-0.0565676
0.0501431
-0.00119546
0.0475496
-0.00363908
0.0460087
-0.00383833
0.0448013
-0.00353663
0.0439752
-0.00294124
0.043328
-0.0025983
0.0429102
-0.00207148
0.0425087
-0.00193478
-0.00160483
0.0539041
0.00452416
-0.0551151
0.0526219
8.66873e-05
0.0510056
-0.00202273
0.0496961
-0.0025288
0.0485975
-0.00243807
0.0477378
-0.00208152
0.0469855
-0.00184597
0.0464231
-0.00150913
0.0458667
-0.00137839
-0.00122285
0.0520607
0.00437447
-0.051911
0.0516517
0.000495655
0.0508183
-0.0011893
0.0499787
-0.00168921
0.0492355
-0.00169486
0.0486344
-0.00148046
0.0480833
-0.00129488
0.0476472
-0.00107302
0.0472088
-0.000940016
-0.000872931
0.0500074
0.00369115
-0.0493241
0.0498799
0.00062313
0.0494569
-0.000766226
0.0489539
-0.0011862
0.0484823
-0.00122329
0.0480978
-0.00109593
0.0477478
-0.000944948
0.0474631
-0.000788262
0.0471855
-0.000662439
-0.000623809
0.0483082
0.00289053
-0.0475076
0.0483334
0.000597963
0.0480819
-0.000514732
0.0477504
-0.000854731
0.0474256
-0.000898467
0.047156
-0.000826332
0.0469221
-0.000710999
0.0467299
-0.000596124
0.0465574
-0.000489923
-0.000456447
0.0470996
0.00210088
-0.0463099
0.0471934
0.000504156
0.0470187
-0.000340039
0.046767
-0.000603012
0.046511
-0.000642517
0.0462892
-0.00060455
0.0461029
-0.000524696
0.0459492
-0.000442416
0.0458219
-0.00036257
-0.00033178
0.0462851
0.00136196
-0.0455462
0.0464293
0.000359975
0.0462958
-0.000206516
0.0460798
-0.000387005
0.0458535
-0.000416298
0.045648
-0.000398962
0.0454739
-0.000350638
0.045329
-0.000297467
0.0452115
-0.000245118
-0.00022132
0.0457885
0.00066859
-0.0450951
0.0459647
0.000183797
0.045857
-9.88451e-05
0.0456576
-0.000187585
0.0454439
-0.000202587
0.0452431
-0.000198163
0.0450687
-0.000176204
0.0449218
-0.000150655
0.044801
-0.000124233
-0.000111895
0.0455539
-0.0448853
0.0457377
0.0456389
0.0454513
0.0452487
0.0450505
0.0448743
0.0447237
0.0445994
0.0567753
0.00230158
-0.0560628
0.0573297
0.00291154
0.0576775
0.00350309
0.057769
0.00406717
0.0575572
0.00459457
0.0570024
0.00507647
0.0560732
0.00550516
0.0547402
0.00587451
0.0529479
0.00617965
0.00639546
0.0513979
0.00169289
-0.0507892
0.0520516
0.00225784
0.0527363
0.00281842
0.0534339
0.00336954
0.054123
0.0039055
0.0547794
0.00442006
0.0553778
0.00490679
0.055893
0.00535931
0.0563008
0.00577189
0.00612861
0.0480918
0.00121799
-0.0476169
0.0486477
0.00170196
0.0492813
0.00218476
0.0499873
0.00266352
0.0507578
0.00313507
0.0515819
0.00359595
0.0524463
0.00404233
0.0533356
0.00447004
0.0542329
0.00487454
0.00524642
0.0454945
0.000891384
-0.0451679
0.0459013
0.0012952
0.0463888
0.00169728
0.0469569
0.00209538
0.0476048
0.00248722
0.0483302
0.00287048
0.0491298
0.00324276
0.0499983
0.00360154
0.0509288
0.00394404
0.00426425
0.0439058
0.000651552
-0.043666
0.0442197
0.000981272
0.0446079
0.00130911
0.0450701
0.00163321
0.0456056
0.00195169
0.0462134
0.0022627
0.0468918
0.00256436
0.0476385
0.0028548
0.0484507
0.0031319
0.00339081
0.0428101
0.000469379
-0.0426279
0.0430622
0.000729117
0.0433842
0.000987087
0.0437757
0.00124177
0.0442357
0.00149166
0.0447631
0.00173527
0.0453564
0.00197111
0.0460135
0.00219773
0.0467319
0.00241351
0.00261507
0.0421162
0.000324607
-0.0419714
0.0423279
0.000517447
0.0426061
0.000708871
0.0429501
0.00089773
0.0433589
0.00108288
0.043831
0.00126318
0.0443646
0.00143753
0.0449575
0.00160482
0.0456072
0.00176384
0.00191231
0.0416643
0.000203996
-0.0415437
0.04185
0.000331705
0.0421004
0.000458457
0.0424147
0.00058348
0.0427916
0.000706005
0.0432295
0.000825272
0.0437265
0.000940534
0.0442802
0.00105105
0.044888
0.00115604
0.00125414
0.0413996
9.81589e-05
-0.0412938
0.0415695
0.000161807
0.041803
0.000224994
0.0420991
0.000287333
0.0424567
0.000348436
0.0428741
0.00040792
0.0433492
0.000465409
0.0438797
0.000520531
0.0444629
0.000572892
0.000621854
0.0412742
-0.041176
0.041436
0.041661
0.0419483
0.0422967
0.0427046
0.0431701
0.0436906
0.0442635
0.0481094
-0.00335375
-0.0475524
0.0488228
-0.0028949
0.0496454
-0.00240623
0.0505376
-0.00188566
0.0514714
-0.00133414
0.0524283
-0.000759602
0.0533899
-0.000166532
0.0543348
0.000441372
0.0552364
0.00105937
0.00168167
0.0479852
-0.00340684
-0.0479321
0.0480815
-0.0029912
0.0482205
-0.00254526
0.0484082
-0.0020733
0.0486505
-0.00157646
0.0489517
-0.00106081
0.0493152
-0.000530095
0.0497433
1.33515e-05
0.0502356
0.000567047
0.00112802
0.046897
-0.0031475
-0.0471564
0.0466931
-0.00278731
0.0465499
-0.00240198
0.0464725
-0.00199592
0.0464672
-0.00157119
0.0465376
-0.00113121
0.046686
-0.000678487
0.0469144
-0.00021504
0.0472244
0.000257051
0.000735527
0.0455818
-0.00277138
-0.0459579
0.0452636
-0.00246906
0.0450067
-0.0021451
0.0448147
-0.00180393
0.0446909
-0.00144742
0.0446377
-0.00107801
0.044657
-0.000697775
0.0447507
-0.000308671
0.0449204
8.72944e-05
0.00048803
0.0446599
-0.0023496
-0.0450817
0.0442919
-0.00210111
0.0439823
-0.00183549
0.0437342
-0.00155579
0.0435504
-0.00126363
0.0434332
-0.000960853
0.0433847
-0.000649202
0.0434064
-0.00033037
0.0434998
-6.09936e-06
0.000321819
0.0439897
-0.00190031
-0.0444389
0.0435923
-0.0017038
0.0432508
-0.00149398
0.0429681
-0.0012731
0.0427469
-0.00104239
0.0425893
-0.000803273
0.0424972
-0.000557125
0.0424722
-0.00030534
0.0425155
-4.93458e-05
0.000209393
0.043559
-0.00143593
-0.0440234
0.043145
-0.00128981
0.042785
-0.00113398
0.0424818
-0.00096993
0.042238
-0.000798574
0.0420557
-0.000620929
0.0419366
-0.00043803
0.0418822
-0.000250932
0.0418935
-6.07158e-05
0.000131509
0.0432802
-0.000961461
-0.0437546
0.0428551
-0.000864766
0.0424828
-0.000761684
0.0421661
-0.000653145
0.0419072
-0.000539752
0.0417085
-0.000422169
0.0415715
-0.000301078
0.0414978
-0.000177183
0.0414883
-5.12082e-05
7.61047e-05
0.0431193
-0.000481537
-0.0435992
0.042688
-0.000433515
0.0423086
-0.000382322
0.0419839
-0.000328399
0.0417162
-0.000272044
0.0415076
-0.00021358
0.0413599
-0.000153344
0.0412744
-9.16872e-05
0.0412521
-2.89687e-05
3.444e-05
0.0430454
-0.043527
0.0426119
0.0422296
0.0419012
0.0416291
0.0414156
0.0412622
0.0411705
0.0411416
0.0429475
0.00017463
-0.000193169
0.0429914
0.000521276
-0.000565199
0.0430658
0.000872671
-0.000947118
0.0431884
0.001237
-0.00135953
0.043389
0.00161961
-0.00182026
0.0437114
0.00202475
-0.0023471
0.0442143
0.00245452
-0.0029574
0.0449695
0.00291137
-0.00366664
0.0460712
0.00337131
-0.00447302
0.00392367
-0.00540479
0.0429657
0.000137881
0.0430729
0.000414036
0.043254
0.000691549
0.0435194
0.000971603
0.043884
0.00125501
0.0443668
0.00154202
0.0449896
0.00183167
0.0457769
0.00212406
0.0467446
0.00240364
0.00273618
0.0429665
0.000100273
0.0430779
0.000302717
0.0432627
0.000506705
0.0435251
0.000709227
0.0438707
0.000909385
0.0443068
0.00110588
0.0448419
0.00129663
0.045486
0.00147993
0.0462438
0.00164581
0.00182363
0.0429586
7.05595e-05
0.0430476
0.000213751
0.043196
0.000358307
0.0434046
0.000500637
0.0436744
0.000639536
0.0440066
0.000773708
0.0444017
0.000901583
0.0448597
0.00102196
0.0453756
0.00112982
0.00124133
0.0429506
4.88961e-05
0.0430161
0.000148279
0.0431258
0.000248593
0.0432795
0.000346945
0.0434767
0.000442275
0.0437169
0.000533532
0.0439989
0.000619577
0.0443214
0.000699478
0.0446808
0.000770445
0.000840426
0.0429445
3.33081e-05
0.0429918
0.00010102
0.043071
0.000169335
0.0431818
0.000236202
0.0433232
0.000300843
0.0434942
0.000362522
0.0436933
0.000420495
0.0439186
0.000474169
0.044167
0.00052207
0.000568467
0.0429403
2.19175e-05
0.0429749
6.64641e-05
0.0430328
0.000111388
0.0431137
0.000155332
0.0432168
0.000197771
0.0433411
0.000238218
0.0434854
0.000276195
0.0436482
0.000311312
0.0438276
0.000342741
0.000372648
0.0429376
1.3277e-05
0.0429638
4.02496e-05
0.0430077
6.74379e-05
0.043069
9.4033e-05
0.0431471
0.000119721
0.0432411
0.00014421
0.0433501
0.000167224
0.0434728
0.000188538
0.0436079
0.000207716
0.000225864
0.0429359
6.26136e-06
0.0429572
1.89822e-05
0.0429929
3.17942e-05
0.0430426
4.43274e-05
0.0431058
5.64354e-05
0.0431821