1.275 	2.15223e-18 	-2.76991e-20 	-0.0344515 	-0.000434365 	-1.91353e-22
1.825 	2.15223e-18 	-1.39322e-20 	-0.00944279 	-0.00275654 	1.69193e-21
2.375 	2.15223e-18 	-2.66896e-23 	0.11537 	-0.00324531 	-7.05792e-22
