1.45 	0 	0 	-0.00743167 	-0.00260858 	3.85512e-21
2.35 	0 	0 	0.0630666 	-0.00668954 	2.38352e-21
