1.275 	2.15223e-18 	-2.76991e-20 	-0.0330483 	-0.000490961 	-2.01785e-22
1.825 	2.15223e-18 	-1.39322e-20 	-0.00733995 	-0.00288461 	1.81173e-21
2.375 	2.15223e-18 	-2.66896e-23 	0.121909 	-0.00343269 	-7.54963e-22
