1.45 	0 	0 	-0.307352
2.35 	0 	0 	-0.129576
