1.45 	0 	0 	0.0147144 	-0.0049754 	3.86506e-21
2.35 	0 	0 	0.160733 	-0.00988351 	1.41811e-21
