1.45 	0 	0 	-0.294672
2.35 	0 	0 	-0.129627
