1.45 	0 	0 	-0.007717 	-0.00258979 	3.82638e-21
2.35 	0 	0 	0.0622465 	-0.00666046 	2.34665e-21
