1.275 	2.15223e-18 	-2.76991e-20 	-0.0344783 	-0.00043856 	-1.90409e-22
1.825 	2.15223e-18 	-1.39322e-20 	-0.0094945 	-0.00275403 	1.67962e-21
2.375 	2.15223e-18 	-2.66896e-23 	0.115217 	-0.0032301 	-7.00549e-22
