1.45 	0 	0 	-0.250789
2.35 	0 	0 	-0.0155055
