1.45 	0 	0 	-0.296283
2.35 	0 	0 	-0.0758407
