1.45 	0 	0 	-0.00706115 	-0.00261213 	1.69365e-20
2.35 	0 	0 	0.0646471 	-0.00670154 	1.04318e-20
