1.275 	2.15223e-18 	-2.76991e-20 	-0.0344765 	-0.000437753 	-1.90538e-22
1.825 	2.15223e-18 	-1.39322e-20 	-0.0094905 	-0.00275313 	1.68133e-21
2.375 	2.15223e-18 	-2.66896e-23 	0.11523 	-0.00323044 	-7.0128e-22
