1.45 	0 	0 	0.434335 	-0.0204943 	1.58454e-21
2.35 	0 	0 	0.725244 	-0.0102276 	-1.00954e-21
