/*--------------------------------*- C++ -*----------------------------------*\
  =========                 |
  \\      /  F ield         | OpenFOAM: The Open Source CFD Toolbox
   \\    /   O peration     | Website:  https://openfoam.org
    \\  /    A nd           | Version:  6.0
     \\/     M anipulation  |
\*---------------------------------------------------------------------------*/
FoamFile
{
    version     2.0;
    format      ascii;
    class       volScalarField;
    location    "0.1";
    object      p;
}
// * * * * * * * * * * * * * * * * * * * * * * * * * * * * * * * * * * * * * //

dimensions      [0 2 -2 0 0 0 0];

internalField   nonuniform List<scalar> 
200
(
-3.02679e-09
-0.000744271
-0.00108589
-0.000910468
-0.000269431
0.000854173
0.00250407
0.00472392
0.00755359
0.0110313
0.0151967
0.0200902
0.0257407
0.0321308
0.0391256
0.046356
0.0530829
0.0581548
0.0603461
0.0596676
0.000717345
-7.15259e-05
-0.000354408
-0.000199554
0.000339261
0.00132951
0.00284109
0.00492602
0.00762341
0.0109648
0.0149796
0.0196978
0.0251433
0.0313095
0.0381013
0.0452233
0.0520206
0.0573577
0.0598054
0.0589463
0.000794359
-0.000173769
-0.000502892
-0.000413813
1.34476e-05
0.000878452
0.00226898
0.00424043
0.00682598
0.0100456
0.0139164
0.0184621
0.0237185
0.0297264
0.0364944
0.0438884
0.0513936
0.0577694
0.0609659
0.0597883
-0.000219994
-0.00136825
-0.00175896
-0.00173261
-0.00139256
-0.000612383
0.000707413
0.00261852
0.00513987
0.00827091
0.0120076
0.0163604
0.0213745
0.0271486
0.0338406
0.0416051
0.0502887
0.0586614
0.0636947
0.0627792
-0.00257242
-0.00385857
-0.00423493
-0.00420286
-0.0038887
-0.00312679
-0.00180442
0.000120961
0.00264455
0.00573259
0.00934343
0.0134524
0.0180847
0.0233623
0.0295837
0.0373232
0.0472195
0.0586161
0.0674887
0.0689407
-0.00664798
-0.00795885
-0.00810821
-0.00792095
-0.00752995
-0.00668708
-0.00525533
-0.00320497
-0.000575349
0.00255095
0.00607235
0.00989354
0.0139595
0.0183178
0.0232793
0.0298039
0.0397401
0.0542279
0.0697711
0.0787856
-0.0132564
-0.0141499
-0.0135188
-0.0129119
-0.012293
-0.0112229
-0.0095227
-0.00718246
-0.00428936
-0.000988491
0.00254191
0.00610543
0.00950435
0.0125946
0.015498
0.0193012
0.0271425
0.0435918
0.0691619
0.0942538
-0.0244239
-0.0230267
-0.0202839
-0.0187646
-0.0176138
-0.016074
-0.0139002
-0.0110972
-0.0077968
-0.00419657
-0.00053664
0.00290364
0.00580435
0.00787083
0.00910635
0.0108001
0.0174537
0.0381692
0.0803495
0.133653
-0.0456476
-0.0339954
-0.0258857
-0.0222987
-0.0203821
-0.0184087
-0.0159168
-0.0128775
-0.00940542
-0.00570215
-0.00203357
0.00129205
0.00393794
0.00571292
0.00702336
0.0103805
0.0227158
0.0582454
0.131644
0.234528
-0.103839
-0.039638
-0.0181814
-0.0154114
-0.0150954
-0.0140679
-0.0123796
-0.0101202
-0.00734016
-0.00421657
-0.00104082
0.00185877
0.0041574
0.0058784
0.00796458
0.0145638
0.0355793
0.0924202
0.20875
0.383393
)
;

boundaryField
{
    movingWall
    {
        type            zeroGradient;
    }
    fixedWalls
    {
        type            zeroGradient;
    }
    frontAndBack
    {
        type            empty;
    }
}


// ************************************************************************* //
