1.45 	0 	0 	-0.290967
2.35 	0 	0 	-0.126872
