1.45 	0 	0 	-0.00812538 	-0.00258795 	1.65376e-20
2.35 	0 	0 	0.0622194 	-0.00661986 	9.89102e-21
