/*--------------------------------*- C++ -*----------------------------------*\
  =========                 |
  \\      /  F ield         | OpenFOAM: The Open Source CFD Toolbox
   \\    /   O peration     | Website:  https://openfoam.org
    \\  /    A nd           | Version:  6.0
     \\/     M anipulation  |
\*---------------------------------------------------------------------------*/
FoamFile
{
    version     2.0;
    format      ascii;
    class       surfaceScalarField;
    location    "16";
    object      phi;
}
// * * * * * * * * * * * * * * * * * * * * * * * * * * * * * * * * * * * * * //

dimensions      [0 3 -1 0 0 0 0];

internalField   nonuniform List<scalar> 
3880
(
-1.79724e-05
1.79726e-05
-2.47876e-10
-5.34751e-05
3.55033e-05
-6.09056e-10
-9.53222e-05
4.1848e-05
-9.19987e-10
-0.000136439
4.11182e-05
-1.18252e-09
-0.00017246
3.60221e-05
-1.40197e-09
-0.000200971
2.85125e-05
-1.58433e-09
-0.000221042
2.00728e-05
-1.73441e-09
-0.000232919
1.18787e-05
-1.85605e-09
-0.000237818
4.90075e-06
-1.94994e-09
-9.33418e-08
-2.02923e-09
-0.000237722
-1.72959e-05
3.52685e-05
-5.08326e-05
6.904e-05
-8.95612e-05
8.05766e-05
-0.000126519
7.80761e-05
-0.00015738
6.68831e-05
-0.000179696
5.08285e-05
-0.000192449
3.28251e-05
-0.000195782
1.52125e-05
-0.000190858
-2.3882e-08
-1.12587e-05
-0.000179692
-1.59074e-05
5.11759e-05
-4.54304e-05
9.85631e-05
-7.78352e-05
0.000112981
-0.000106427
0.000106668
-0.000127003
8.74594e-05
-0.000137082
6.09078e-05
-0.000135486
3.12289e-05
-0.00012215
1.8763e-06
-9.80956e-05
-2.40784e-05
-4.39616e-05
-6.53927e-05
-1.37192e-05
6.48952e-05
-3.69853e-05
0.000121829
-5.96331e-05
0.000135629
-7.54743e-05
0.000122509
-8.06051e-05
9.25903e-05
-7.2596e-05
5.28986e-05
-5.00909e-05
8.72389e-06
-1.27059e-05
-3.55087e-05
3.88091e-05
-7.55934e-05
-0.000107515
0.000102363
-1.05671e-05
7.54622e-05
-2.49766e-05
0.000136239
-3.39807e-05
0.000144633
-3.22381e-05
0.000120766
-1.64514e-05
7.68036e-05
1.55174e-05
2.09298e-05
6.50878e-05
-4.08466e-05
0.000133027
-0.000103448
0.000219057
-0.000161623
-0.000209642
0.000321183
-6.19824e-06
8.16605e-05
-8.61136e-06
0.000138652
6.67292e-07
0.000135355
2.57139e-05
9.57196e-05
6.87658e-05
3.37517e-05
0.000131199
-4.15038e-05
0.000214113
-0.00012376
0.000318526
-0.000207861
0.000444873
-0.00028797
-0.000356198
0.000591429
-2.98991e-07
8.19595e-05
1.30921e-05
0.000125261
4.6315e-05
0.000102132
0.000101791
4.0244e-05
0.000180173
-4.46304e-05
0.000281357
-0.000142689
0.000405275
-0.000247677
0.0005525
-0.000355086
0.000724144
-0.000459614
-0.000551384
0.000919329
7.41632e-06
7.45431e-05
4.1023e-05
9.16539e-05
0.000104901
3.82535e-05
0.000199645
-5.45e-05
0.000323961
-0.000168946
0.000475475
-0.000294203
0.00065158
-0.000423782
0.000850592
-0.000554098
0.00107301
-0.000682035
-0.000800708
0.00132234
1.70572e-05
5.7486e-05
7.55003e-05
3.32107e-05
0.000177329
-6.35756e-05
0.000321624
-0.000198795
0.000505425
-0.000352747
0.000723952
-0.00051273
0.000970923
-0.000670752
0.00123955
-0.000822725
0.00152611
-0.000968598
-0.00111928
0.00184468
2.83585e-05
2.91274e-05
0.000115611
-5.40418e-05
0.000261966
-0.00020993
0.000466011
-0.000402841
0.000724941
-0.000611676
0.00103426
-0.000822049
0.00138715
-0.00102364
0.00177283
-0.00120841
0.00217568
-0.00137144
-0.00151635
0.00257275
4.0505e-05
-1.13775e-05
0.000158498
-0.000172035
0.000352368
-0.0004038
0.000620844
-0.000671317
0.000963296
-0.000954128
0.0013804
-0.00123916
0.0018754
-0.00151864
0.00245731
-0.00179031
0.00314881
-0.00206295
-0.0023746
0.00400706
5.24109e-05
-6.37884e-05
0.000200152
-0.000319776
0.000438436
-0.000642085
0.000763745
-0.000996626
0.00117339
-0.00136377
0.00166551
-0.00173127
0.00223901
-0.00209214
0.00289301
-0.00244431
0.00362203
-0.00279198
-0.00314438
0.00439182
6.35551e-05
-0.000127343
0.000238512
-0.000494733
0.00051542
-0.000918993
0.000886257
-0.00136746
0.00134324
-0.00182076
0.00187824
-0.00226627
0.00248203
-0.00269593
0.00314279
-0.00310508
0.00384197
-0.00349116
-0.00384825
0.00454584
7.39574e-05
-0.000201301
0.000273302
-0.000694078
0.000582775
-0.00122847
0.000988571
-0.00177326
0.00147679
-0.00230898
0.00203281
-0.00282228
0.0026408
-0.00330392
0.00328303
-0.0037473
0.0039382
-0.00414634
-0.00448999
0.00457995
8.37619e-05
-0.000285063
0.000304667
-0.000914983
0.00064077
-0.00156457
0.00107186
-0.00220435
0.00157788
-0.00281501
0.00213862
-0.00338302
0.00273384
-0.00389913
0.00334339
-0.00435686
0.00394713
-0.00475007
-0.00506804
0.00452518
9.29585e-05
-0.000378021
0.00033235
-0.00115437
0.000688838
-0.00192106
0.00113558
-0.0026511
0.00164681
-0.00332624
0.00219795
-0.00393415
0.00276623
-0.00446742
0.00333134
-0.00492197
0.00387582
-0.00529455
-0.00557802
0.0043858
0.000101304
-0.000479325
0.000355469
-0.00140854
0.000725268
-0.00229085
0.00117735
-0.00310317
0.00168098
-0.00382987
0.00220863
-0.00446179
0.00273674
-0.00499553
0.00324647
-0.0054317
0.00372398
-0.00577206
-0.00601514
0.0041611
0.000108367
-0.000587692
0.00037268
-0.00167285
0.000747638
-0.00266581
0.00119386
-0.0035494
0.00167681
-0.00431282
0.00216751
-0.00495249
0.00264327
-0.0054713
0.00308803
-0.00587646
0.0034922
-0.00617624
-0.00637583
0.00385289
0.000113624
-0.000701316
0.000382464
-0.00194169
0.000753434
-0.00303678
0.00118206
-0.00397802
0.00163143
-0.0047622
0.00207279
-0.00539386
0.00248582
-0.00588432
0.00285819
-0.00624883
0.00318483
-0.00650287
-0.0066585
0.00346749
0.000116542
-0.000817857
0.000383408
-0.00220856
0.000740567
-0.00339394
0.00113984
-0.00437729
0.00154366
-0.00516602
0.00192514
-0.00577533
0.00226747
-0.00622665
0.00256267
-0.00654403
0.00281004
-0.00675024
-0.0068636
0.00301514
0.000116655
-0.000934513
0.000374405
-0.00246631
0.000707721
-0.00372726
0.00106652
-0.00473609
0.00141441
-0.0055139
0.00172777
-0.0060887
0.00199418
-0.00649306
0.00221011
-0.00675995
0.00237875
-0.00691888
-0.00699334
0.00250849
0.000113562
-0.00104808
0.000354688
-0.00270744
0.000654388
-0.00402696
0.000962763
-0.00504447
0.00124633
-0.00579747
0.00148594
-0.0063283
0.00167387
-0.00668099
0.0018108
-0.00689688
0.00190309
-0.00701117
-0.00705121
0.00196097
0.000107003
-0.00115508
0.000323975
-0.00292441
0.000580989
-0.00428397
0.000830539
-0.00529402
0.00104365
-0.00601058
0.00120632
-0.00649098
0.00131556
-0.00679024
0.00137565
-0.00695697
0.00139527
-0.00703079
-0.00704152
0.00138557
9.68321e-05
-0.00125191
0.00028239
-0.00310996
0.000488681
-0.00449026
0.000672763
-0.0054781
0.000811415
-0.00614923
0.000896165
-0.00657573
0.000928356
-0.00682243
0.000915085
-0.0069437
0.000866451
-0.00698215
-0.00696893
0.000793859
8.30308e-05
-0.00133494
0.000230453
-0.00325739
0.000379236
-0.00463905
0.000492969
-0.00559183
0.000555085
-0.00621135
0.000562629
-0.00658327
0.000520683
-0.00678048
0.000438292
-0.00686131
0.00032614
-0.00687
-0.00683816
0.000195368
6.57183e-05
-0.00140066
0.000169052
-0.00336072
0.000254917
-0.00472491
0.000295054
-0.00563197
0.000280057
-0.00619635
0.000212231
-0.00651544
9.97217e-05
-0.00666797
-4.73193e-05
-0.00671427
-0.000218375
-0.00669894
-0.00665375
-0.000402779
4.51665e-05
-0.00144583
9.94538e-05
-0.00341501
0.000118436
-0.00474389
8.31796e-05
-0.00559671
-8.45182e-06
-0.00610472
-0.000149321
-0.00637457
-0.000328831
-0.00648846
-0.000536396
-0.00650671
-0.000762288
-0.00647305
-0.00641947
-0.000996577
2.18274e-05
-0.00146765
2.33331e-05
-0.00341651
-2.7009e-05
-0.00469355
-0.000138183
-0.00548554
-0.000305326
-0.00593758
-0.000517016
-0.00616288
-0.000760667
-0.00624481
-0.00102565
-0.00624173
-0.00130356
-0.00619514
-0.00613568
-0.00158735
-3.62586e-06
-0.00146403
-5.71446e-05
-0.003363
-0.000177619
-0.00457308
-0.00036409
-0.00529907
-0.000605448
-0.00569622
-0.000886782
-0.00588155
-0.00119385
-0.00593774
-0.00151586
-0.00591972
-0.00184596
-0.00586504
-0.00579565
-0.00218599
-3.02356e-05
-0.00143379
-0.000139149
-0.00325408
-0.000328529
-0.0043837
-0.00058814
-0.00503946
-0.000902134
-0.00538222
-0.00125389
-0.0055298
-0.00162886
-0.00556277
-0.00201663
-0.00553195
-0.00241348
-0.00546818
-0.00540454
-0.0028046
-5.67643e-05
-0.00137703
-0.000219152
-0.00309169
-0.000473314
-0.00412953
-0.000800391
-0.00471238
-0.00118123
-0.00500139
-0.0015999
-0.00511112
-0.00204514
-0.00511754
-0.00250975
-0.00506734
-0.00299252
-0.00498541
-0.0048706
-0.00352645
-8.21326e-05
-0.0012949
-0.000294101
-0.00287973
-0.00060621
-0.00381743
-0.000990697
-0.00432789
-0.001424
-0.00456808
-0.00188807
-0.00464706
-0.00236991
-0.0046357
-0.00286049
-0.00457675
-0.00335349
-0.00449241
-0.00439075
-0.00383334
-0.000105705
-0.00118919
-0.000362624
-0.00262281
-0.000725871
-0.00345418
-0.0011594
-0.00389436
-0.00163568
-0.0040918
-0.00213498
-0.00414776
-0.00264385
-0.00412683
-0.00315326
-0.00406735
-0.00365602
-0.00398965
-0.00390415
-0.00414261
-0.000127141
-0.00106205
-0.000424144
-0.0023258
-0.000832219
-0.0030461
-0.00130814
-0.00341844
-0.00182135
-0.0035786
-0.00235137
-0.00361774
-0.00288512
-0.00359308
-0.00341442
-0.00353804
-0.00393371
-0.00347037
-0.00339943
-0.00443843
-0.000146183
-0.000915866
-0.00047824
-0.00199375
-0.000925093
-0.00259925
-0.00143752
-0.00290601
-0.00198276
-0.00303336
-0.00254017
-0.00306032
-0.00309747
-0.00303579
-0.00364763
-0.00298788
-0.0041867
-0.0029313
-0.00287374
-0.00471239
-0.000162587
-0.000753279
-0.000524463
-0.00163187
-0.00100407
-0.00211964
-0.00154733
-0.00236275
-0.0021199
-0.00246079
-0.00270128
-0.00247894
-0.00328002
-0.00245704
-0.00385021
-0.00241769
-0.00440902
-0.00237249
-0.00232741
-0.00495535
-0.000176105
-0.000577174
-0.000562308
-0.00124567
-0.00106852
-0.00161343
-0.00163683
-0.00179444
-0.00223183
-0.00186579
-0.00283325
-0.00187753
-0.00343037
-0.00185991
-0.00401815
-0.00182992
-0.00459455
-0.00179609
-0.00176283
-0.00515913
-0.000186497
-0.000390677
-0.000591257
-0.000840908
-0.00111769
-0.00108699
-0.00170509
-0.00120704
-0.00231729
-0.0012536
-0.00293425
-0.00126056
-0.00354587
-0.00124829
-0.00414769
-0.0012281
-0.00473819
-0.0012056
-0.00118367
-0.00531735
-0.000193554
-0.000197123
-0.000610849
-0.000423613
-0.00115091
-0.000546929
-0.00175119
-0.000606761
-0.00237504
-0.000629742
-0.00300263
-0.000632976
-0.00362423
-0.000626691
-0.00423579
-0.000616537
-0.00483608
-0.000605303
-0.000594413
-0.00542534
-0.000197123
-1.61346e-10
-0.000620736
-3.22047e-10
-0.00116766
-4.11393e-10
-0.00177443
-4.51389e-10
-0.00240417
-4.60094e-10
-0.00303714
-4.50856e-10
-0.00366383
-4.32525e-10
-0.00428037
-4.10394e-10
-0.00488567
-3.87403e-10
-3.67173e-10
-0.00548008
-0.000197123
0.000197123
-0.000620736
0.000423613
-0.00116766
0.000546928
-0.00177443
0.00060676
-0.00240417
0.000629741
-0.00303714
0.000632975
-0.00366383
0.00062669
-0.00428037
0.000616536
-0.00488567
0.000605303
0.000594412
-0.00548008
-0.000193554
0.000390677
-0.000610849
0.000840908
-0.00115091
0.00108699
-0.00175119
0.00120704
-0.00237504
0.00125359
-0.00300263
0.00126056
-0.00362423
0.00124829
-0.00423579
0.00122809
-0.00483608
0.00120559
0.00118367
-0.00542534
-0.000186497
0.000577173
-0.000591257
0.00124567
-0.00111769
0.00161343
-0.00170509
0.00179444
-0.00231729
0.00186579
-0.00293425
0.00187753
-0.00354587
0.00185991
-0.00414769
0.00182991
-0.00473819
0.00179609
0.00176283
-0.00531735
-0.000176105
0.000753279
-0.000562308
0.00163187
-0.00106852
0.00211964
-0.00163683
0.00236275
-0.00223183
0.00246079
-0.00283325
0.00247894
-0.00343037
0.00245704
-0.00401815
0.00241769
-0.00459455
0.00237248
0.00232741
-0.00515913
-0.000162587
0.000915866
-0.000524463
0.00199375
-0.00100407
0.00259925
-0.00154733
0.00290601
-0.0021199
0.00303336
-0.00270128
0.00306032
-0.00328002
0.00303578
-0.00385021
0.00298787
-0.00440902
0.0029313
0.00287374
-0.00495535
-0.000146183
0.00106205
-0.00047824
0.0023258
-0.000925093
0.0030461
-0.00143752
0.00341844
-0.00198276
0.0035786
-0.00254017
0.00361774
-0.00309747
0.00359308
-0.00364763
0.00353804
-0.0041867
0.00347037
0.00339943
-0.00471239
-0.000127141
0.00118919
-0.000424144
0.00262281
-0.000832219
0.00345418
-0.00130814
0.00389436
-0.00182135
0.0040918
-0.00235137
0.00414776
-0.00288512
0.00412683
-0.00341442
0.00406734
-0.00393371
0.00398965
0.00390415
-0.00443843
-0.000105705
0.00129489
-0.000362624
0.00287972
-0.000725872
0.00381743
-0.0011594
0.00432789
-0.00163568
0.00456808
-0.00213498
0.00464706
-0.00264385
0.0046357
-0.00315326
0.00457675
-0.00365602
0.00449241
0.00439075
-0.00414261
-8.21327e-05
0.00137703
-0.000294101
0.00309169
-0.00060621
0.00412953
-0.000990697
0.00471238
-0.001424
0.00500138
-0.00188807
0.00511112
-0.00236991
0.00511754
-0.00286049
0.00506734
-0.00335349
0.00498541
0.0048706
-0.00383334
-5.67643e-05
0.00143379
-0.000219152
0.00325408
-0.000473314
0.0043837
-0.000800391
0.00503946
-0.00118123
0.00538222
-0.0015999
0.00552979
-0.00204514
0.00556277
-0.00250975
0.00553195
-0.00299252
0.00546818
0.00540453
-0.00352645
-3.02356e-05
0.00146403
-0.000139149
0.00336299
-0.00032853
0.00457308
-0.00058814
0.00529907
-0.000902134
0.00569622
-0.00125389
0.00588155
-0.00162886
0.00593774
-0.00201663
0.00591972
-0.00241348
0.00586504
0.00579565
-0.0028046
-3.62588e-06
0.00146765
-5.71447e-05
0.00341651
-0.000177619
0.00469355
-0.00036409
0.00548554
-0.000605448
0.00593758
-0.000886782
0.00616288
-0.00119385
0.00624481
-0.00151586
0.00624172
-0.00184596
0.00619514
0.00613568
-0.00218599
2.18274e-05
0.00144583
2.3333e-05
0.00341501
-2.70091e-05
0.00474389
-0.000138184
0.00559671
-0.000305326
0.00610472
-0.000517016
0.00637457
-0.000760667
0.00648846
-0.00102565
0.00650671
-0.00130356
0.00647305
0.00641946
-0.00158735
4.51664e-05
0.00140066
9.94537e-05
0.00336072
0.000118436
0.00472491
8.31794e-05
0.00563197
-8.45202e-06
0.00619635
-0.000149322
0.00651544
-0.000328832
0.00666797
-0.000536396
0.00671427
-0.000762288
0.00669894
0.00665375
-0.000996577
6.57182e-05
0.00133494
0.000169052
0.00325739
0.000254917
0.00463905
0.000295054
0.00559183
0.000280057
0.00621135
0.00021223
0.00658327
9.97214e-05
0.00678048
-4.73195e-05
0.00686131
-0.000218375
0.00687
0.00683816
-0.00040278
8.30308e-05
0.00125191
0.000230453
0.00310996
0.000379236
0.00449026
0.000492969
0.0054781
0.000555084
0.00614923
0.000562629
0.00657573
0.000520683
0.00682242
0.000438292
0.0069437
0.00032614
0.00698215
0.00696893
0.000195367
9.68321e-05
0.00115508
0.00028239
0.00292441
0.000488681
0.00428397
0.000672763
0.00529402
0.000811415
0.00601058
0.000896165
0.00649097
0.000928355
0.00679023
0.000915085
0.00695697
0.000866451
0.00703079
0.00704152
0.000793859
0.000107003
0.00104808
0.000323975
0.00270744
0.000580989
0.00402696
0.000830539
0.00504447
0.00104365
0.00579747
0.00120632
0.0063283
0.00131556
0.00668099
0.00137565
0.00689688
0.00139526
0.00701117
0.00705121
0.00138557
0.000113562
0.000934513
0.000354688
0.00246631
0.000654387
0.00372726
0.000962762
0.00473609
0.00124633
0.0055139
0.00148594
0.0060887
0.00167387
0.00649306
0.0018108
0.00675995
0.00190309
0.00691888
0.00699333
0.00196097
0.000116655
0.000817857
0.000374405
0.00220856
0.000707721
0.00339394
0.00106652
0.00437729
0.00141441
0.00516602
0.00172777
0.00577533
0.00199418
0.00622665
0.00221011
0.00654403
0.00237875
0.00675024
0.00686359
0.00250849
0.000116542
0.000701316
0.000383408
0.00194169
0.000740567
0.00303678
0.00113984
0.00397802
0.00154366
0.0047622
0.00192514
0.00539386
0.00226747
0.00588432
0.00256267
0.00624883
0.00281004
0.00650287
0.0066585
0.00301514
0.000113624
0.000587692
0.000382464
0.00167285
0.000753434
0.00266581
0.00118206
0.0035494
0.00163143
0.00431282
0.00207279
0.00495249
0.00248582
0.00547129
0.00285819
0.00587646
0.00318483
0.00617623
0.00637583
0.00346749
0.000108367
0.000479325
0.00037268
0.00140854
0.000747638
0.00229086
0.00119386
0.00310317
0.00167681
0.00382987
0.00216751
0.00446179
0.00264327
0.00499553
0.00308803
0.0054317
0.0034922
0.00577206
0.00601514
0.00385289
0.000101304
0.000378021
0.000355469
0.00115437
0.000725268
0.00192106
0.00117735
0.0026511
0.00168098
0.00332624
0.00220863
0.00393415
0.00273674
0.00446742
0.00324647
0.00492197
0.00372398
0.00529455
0.00557802
0.0041611
9.29585e-05
0.000285063
0.00033235
0.000914983
0.000688837
0.00156457
0.00113558
0.00220435
0.00164681
0.00281501
0.00219795
0.00338302
0.00276623
0.00389913
0.00333134
0.00435686
0.00387582
0.00475007
0.00506804
0.0043858
8.37619e-05
0.000201301
0.000304667
0.000694078
0.00064077
0.00122847
0.00107186
0.00177326
0.00157788
0.00230899
0.00213862
0.00282228
0.00273384
0.00330392
0.00334339
0.0037473
0.00394713
0.00414634
0.00448999
0.00452518
7.39574e-05
0.000127344
0.000273302
0.000494734
0.000582775
0.000918993
0.000988571
0.00136746
0.00147679
0.00182076
0.00203281
0.00226627
0.0026408
0.00269593
0.00328303
0.00310508
0.0039382
0.00349116
0.00384825
0.00457995
6.35551e-05
6.37886e-05
0.000238512
0.000319776
0.00051542
0.000642085
0.000886257
0.000996627
0.00134324
0.00136377
0.00187824
0.00173127
0.00248202
0.00209214
0.00314279
0.00244431
0.00384197
0.00279198
0.00314438
0.00454584
5.24109e-05
1.13777e-05
0.000200152
0.000172036
0.000438436
0.000403801
0.000763745
0.000671317
0.00117339
0.000954129
0.00166551
0.00123916
0.00223901
0.00151864
0.00289301
0.00179031
0.00362203
0.00206295
0.0023746
0.00439182
4.0505e-05
-2.91272e-05
0.000158498
5.40423e-05
0.000352368
0.000209931
0.000620844
0.000402842
0.000963296
0.000611677
0.0013804
0.00082205
0.0018754
0.00102364
0.00245731
0.00120841
0.00314881
0.00137144
0.00151635
0.00400706
2.83585e-05
-5.74858e-05
0.000115611
-3.32102e-05
0.000261966
6.35763e-05
0.000466011
0.000198796
0.00072494
0.000352748
0.00103426
0.000512731
0.00138715
0.000670753
0.00177283
0.000822726
0.00217567
0.000968599
0.00111928
0.00257275
1.70571e-05
-7.45429e-05
7.55003e-05
-9.16534e-05
0.000177329
-3.82527e-05
0.000321624
5.45011e-05
0.000505425
0.000168947
0.000723952
0.000294204
0.000970922
0.000423784
0.00123955
0.000554099
0.00152611
0.000682036
0.00080071
0.00184468
7.4163e-06
-8.19592e-05
4.10229e-05
-0.00012526
0.000104901
-0.000102131
0.000199645
-4.02427e-05
0.00032396
4.46318e-05
0.000475474
0.00014269
0.000651579
0.000247679
0.00085059
0.000355088
0.00107301
0.000459616
0.000551386
0.00132234
-2.9903e-07
-8.16602e-05
1.3092e-05
-0.000138651
4.63147e-05
-0.000135353
0.00010179
-9.57182e-05
0.000180172
-3.375e-05
0.000281356
4.15057e-05
0.000405273
0.000123762
0.000552498
0.000207863
0.000724142
0.000287972
0.000356201
0.000919327
-6.19829e-06
-7.54619e-05
-8.61151e-06
-0.000136238
6.66985e-07
-0.000144632
2.57134e-05
-0.000120765
6.8765e-05
-7.68016e-05
0.000131198
-2.09275e-05
0.000214111
4.0849e-05
0.000318524
0.00010345
0.000444871
0.000161626
0.000209645
0.000591426
-1.05671e-05
-6.48948e-05
-2.49768e-05
-0.000121828
-3.3981e-05
-0.000135628
-3.22386e-05
-0.000122507
-1.64522e-05
-9.2588e-05
1.55163e-05
-5.2896e-05
6.50864e-05
-8.72114e-06
0.000133025
3.55116e-05
0.000219054
7.55964e-05
0.000107519
0.000321181
-1.37193e-05
-5.11755e-05
-3.69855e-05
-9.8562e-05
-5.96334e-05
-0.00011298
-7.54748e-05
-0.000106666
-8.06058e-05
-8.7457e-05
-7.25969e-05
-6.0905e-05
-5.00922e-05
-3.12259e-05
-1.27075e-05
-1.87306e-06
3.88072e-05
2.40817e-05
4.39652e-05
0.000102361
-1.59074e-05
-3.52681e-05
-4.54306e-05
-6.90389e-05
-7.78354e-05
-8.05749e-05
-0.000106427
-7.80739e-05
-0.000127004
-6.68805e-05
-0.000137083
-5.08255e-05
-0.000135487
-3.28218e-05
-0.000122151
-1.5209e-05
-9.80971e-05
2.75429e-08
1.12625e-05
-6.53945e-05
-1.72959e-05
-1.79722e-05
-5.08326e-05
-3.55021e-05
-8.95614e-05
-4.18462e-05
-0.000126519
-4.11158e-05
-0.000157381
-3.60193e-05
-0.000179697
-2.85094e-05
-0.000192449
-2.00694e-05
-0.000195783
-1.18751e-05
-0.000190859
-4.89692e-06
9.73311e-08
-0.000179693
-1.79724e-05
-5.34751e-05
-9.53222e-05
-0.000136439
-0.00017246
-0.000200971
-0.000221042
-0.000232919
-0.000237818
-0.000237723
0.000187546
-0.000425222
-4.64152e-08
0.00133373
-0.00114624
5.65282e-08
0.00251324
-0.00117966
1.49718e-07
0.00327357
-0.000760424
9.39363e-08
0.00392046
-0.00064676
-1.2969e-07
0.00436481
-0.000444127
-2.30257e-07
0.00475371
-0.000388723
-1.75875e-07
0.00502846
-0.00027468
-7.16324e-08
0.00531347
-0.000285195
1.88246e-07
-0.000205909
1.63987e-07
0.000299535
-0.00090445
0.0014164
-0.0022631
0.00256944
-0.0023327
0.00331317
-0.00150416
0.00394832
-0.00128191
0.00438604
-0.000881851
0.00477054
-0.000773219
0.00504338
-0.00054752
0.00532745
-0.000569269
-0.000412474
0.000516292
-0.00148613
0.001576
-0.00332281
0.00267758
-0.00343428
0.00338936
-0.00221594
0.00400193
-0.00189447
0.00442701
-0.00130693
0.00480316
-0.00114937
0.0050725
-0.000816854
0.00535495
-0.00085172
-0.00062082
0.000823852
-0.00220762
0.00180152
-0.00430048
0.00282951
-0.00446227
0.00349635
-0.00288278
0.00407726
-0.00247538
0.00448489
-0.00171456
0.00484963
-0.00151411
0.00511447
-0.0010817
0.00539507
-0.00113232
-0.000832185
0.00120249
-0.00308893
0.00207753
-0.00517551
0.00301379
-0.00539853
0.00362602
-0.00349501
0.00416861
-0.00301797
0.00455565
-0.0021016
0.00490715
-0.00186561
0.00516737
-0.00134192
0.00544653
-0.00141147
-0.00104819
0.00162798
-0.00412548
0.00238527
-0.00593281
0.00321665
-0.00622991
0.00376854
-0.00404689
0.00426909
-0.00351852
0.00463438
-0.00246689
0.00497227
-0.0022035
0.00522877
-0.00159842
0.00550769
-0.0016904
-0.00127093
0.00207222
-0.00527838
0.0027035
-0.00656409
0.00342279
-0.0069492
0.00391305
-0.00453715
0.00437103
-0.00397651
0.0047156
-0.00281146
0.00504114
-0.00252904
0.00529594
-0.00185322
0.00557669
-0.00197114
-0.00150299
0.00250516
-0.0064612
0.00300921
-0.00706814
0.00361621
-0.00755621
0.0040483
-0.00496923
0.00446654
-0.00439474
0.00479359
-0.00313852
0.00510967
-0.00284512
0.00536593
-0.00210948
0.00565144
-0.00225665
-0.00174752
0.00290834
-0.00752485
0.00328311
-0.00744291
0.00378275
-0.00805585
0.00416375
-0.00535024
0.00454806
-0.00477905
0.00486279
-0.00345325
0.00517381
-0.00315615
0.00543575
-0.00237142
0.0057298
-0.0025507
-0.00200814
0.00328602
-0.00823813
0.00352355
-0.00768044
0.00391144
-0.00844374
0.0042521
-0.0056909
0.00460882
-0.00513577
0.00491831
-0.00376273
0.00522943
-0.00346727
0.00550278
-0.00264478
0.00580902
-0.00285694
-0.0022895
0.0434389
-0.0010158
-0.0506612
0.0391804
-0.00342201
0.0371416
-0.00640488
0.0370354
-0.00558468
0.0370003
-0.00510072
0.0372807
-0.00404308
0.037619
-0.00380565
0.0380963
-0.00312207
0.0385957
-0.00335629
-0.00291496
0.0523278
0.00321002
-0.0565536
0.0501862
-0.00128042
0.0476142
-0.00383293
0.0461165
-0.0040869
0.0449716
-0.00395588
0.0442296
-0.00330111
0.0436423
-0.00321836
0.0433411
-0.00282077
0.0431097
-0.00312495
-0.00289828
0.0538769
0.0044263
-0.0550932
0.0526073
-1.07965e-05
0.0509851
-0.00221075
0.0496819
-0.00278366
0.0485883
-0.00286226
0.0477618
-0.0024746
0.0469894
-0.00244599
0.0464214
-0.00225273
0.0458994
-0.00260297
-0.00254378
0.0520201
0.00429294
-0.0518867
0.0516149
0.000394367
0.0507574
-0.00135323
0.0498991
-0.00192543
0.0491181
-0.00208118
0.0485032
-0.00185972
0.0478773
-0.00182007
0.0473474
-0.00172291
0.0468265
-0.002082
-0.00210315
0.0499754
0.00362506
-0.0493076
0.0498372
0.000532619
0.0493831
-0.000899121
0.0488504
-0.00139278
0.0483193
-0.00155005
0.0478905
-0.00143093
0.0474415
-0.00137102
0.0470256
-0.00130708
0.0465921
-0.00164842
-0.00168601
0.0482817
0.00283935
-0.047496
0.0482919
0.00052248
0.048009
-0.000616206
0.0476426
-0.00102647
0.0472507
-0.00115812
0.0469209
-0.00110106
0.0465854
-0.00103552
0.0462615
-0.0009832
0.0458992
-0.00128619
-0.00131199
0.0470779
0.00206328
-0.0463018
0.0471537
0.000446706
0.0469501
-0.000412668
0.0466599
-0.000736269
0.0463364
-0.000834574
0.0460474
-0.00081213
0.0457676
-0.000755631
0.0454972
-0.000712865
0.04517
-0.000958942
-0.000968722
0.0462657
0.00133724
-0.0455397
0.0463911
0.000321305
0.0462315
-0.00025306
0.0459735
-0.000478248
0.0456815
-0.000542569
0.0454067
-0.000537331
0.045149
-0.000497964
0.0449041
-0.000467958
0.0445862
-0.000641007
-0.000641215
0.0457705
0.000656098
-0.0450894
0.0459275
0.000164272
0.0457957
-0.000121265
0.0455514
-0.000233899
0.0452738
-0.000264999
0.0450038
-0.000267299
0.0447535
-0.000247644
0.0445188
-0.000233322
0.0441989
-0.000321098
-0.000320235
0.0455357
-0.0448796
0.0457
0.0455787
0.0453448
0.0450798
0.0448125
0.0445649
0.0443315
0.0440104
0.0567934
0.00229678
-0.056075
0.0573548
0.00290603
0.0577108
0.00349692
0.0578115
0.00406043
0.0576099
0.0045874
0.057066
0.00506909
0.0561481
0.00549785
0.0548263
0.00586761
0.0530446
0.00617357
0.00639042
0.0513894
0.00168904
-0.0507817
0.0520418
0.00225368
0.0527247
0.00281392
0.0534205
0.00336466
0.0541077
0.00390018
0.0547626
0.00441425
0.05536
0.00490046
0.0558751
0.00535243
0.0562842
0.00576447
0.00612106
0.0480833
0.00121502
-0.0476093
0.0486383
0.00169873
0.0492709
0.00218126
0.0499759
0.00265973
0.050745
0.003131
0.0515677
0.00359158
0.0524305
0.00403766
0.0533179
0.00446507
0.0542131
0.00486928
0.00524092
0.0454825
0.000889282
-0.0451568
0.0458883
0.00129294
0.0463747
0.00169485
0.0469417
0.00209277
0.0475883
0.00248442
0.0483124
0.00286749
0.0491105
0.00323957
0.0499774
0.00359814
0.0509063
0.00394043
0.00426048
0.0438988
0.000650109
-0.0436596
0.044212
0.000979736
0.0445993
0.00130748
0.0450606
0.00163148
0.0455952
0.00194986
0.0462019
0.00226076
0.0468792
0.00256231
0.0476247
0.00285263
0.0484355
0.00312963
0.0033884
0.0428038
0.000468367
-0.042622
0.0430555
0.000728039
0.043377
0.00098594
0.0437679
0.00124055
0.0442274
0.00149037
0.0447543
0.0017339
0.0453469
0.00196968
0.0460033
0.00219622
0.046721
0.00241193
0.00261339
0.042112
0.000323912
-0.0419675
0.0423233
0.000516708
0.0426011
0.000708087
0.0429448
0.000896899
0.0433532
0.001082
0.0438248
0.00126225
0.0443579
0.00143655
0.0449504
0.00160378
0.0455996
0.00176275
0.00191114
0.0416606
0.000203553
-0.0415403
0.0418461
0.000331232
0.0420963
0.000457953
0.0424102
0.000582942
0.0427868
0.000705431
0.0432244
0.000824661
0.043721
0.000939884
0.0442745
0.00105036
0.0448819
0.0011553
0.00125334
0.0413966
9.79424e-05
-0.041291
0.0415663
0.000161575
0.0417995
0.000224745
0.0420953
0.000287066
0.0424526
0.00034815
0.0428697
0.000407614
0.0433445
0.00046508
0.0438747
0.000520178
0.0444574
0.000572514
0.000621441
0.0412712
-0.0411733
0.0414328
0.0416576
0.0419446
0.0422928
0.0427004
0.0431655
0.0436856
0.0442582
0.0481217
-0.00335465
-0.0475716
0.0488315
-0.00289586
0.049651
-0.00240686
0.0505406
-0.00188615
0.051473
-0.00133513
0.0524295
-0.0007612
0.0533921
-0.000168715
0.0543391
0.000438591
0.0552441
0.00105595
0.00167757
0.04797
-0.00340851
-0.0479162
0.0480677
-0.0029935
0.0482083
-0.00254751
0.0483976
-0.00207547
0.0486414
-0.00157885
0.0489436
-0.00106347
0.0493079
-0.000532999
0.0497363
1.02313e-05
0.0502285
0.000563703
0.00112444
0.0468961
-0.00314903
-0.0471555
0.0466915
-0.00278898
0.0465476
-0.00240362
0.0464697
-0.00199754
0.0464638
-0.00157291
0.0465334
-0.0011331
0.046681
-0.000680567
0.0469085
-0.000217317
0.0472177
0.00025456
0.000732803
0.0455758
-0.00277235
-0.0459525
0.045257
-0.00247016
0.0449996
-0.00214623
0.0448072
-0.0018051
0.0446829
-0.0014487
0.0446293
-0.00107941
0.044648
-0.000699309
0.044741
-0.000310337
0.0449101
8.54902e-05
0.00048608
0.044657
-0.00235038
-0.045079
0.0442888
-0.00210196
0.0439789
-0.00183636
0.0437305
-0.0015567
0.0435464
-0.0012646
0.0434289
-0.000961894
0.0433799
-0.000650316
0.0434011
-0.00033156
0.043494
-7.36925e-06
0.000320465
0.0439867
-0.00190085
-0.0444362
0.0435891
-0.00170438
0.0432473
-0.00149458
0.0429644
-0.00127373
0.0427428
-0.00104307
0.0425849
-0.000804
0.0424925
-0.000557904
0.0424671
-0.000306173
0.04251
-5.0235e-05
0.000208444
0.0435571
-0.00143632
-0.0440216
0.0431429
-0.00129022
0.0427827
-0.00113441
0.0424794
-0.000970383
0.0422354
-0.000799054
0.0420528
-0.000621439
0.0419335
-0.000438573
0.0418788
-0.00025151
0.0418899
-6.13307e-05
0.000130855
0.0432785
-0.000961708
-0.0437531
0.0428533
-0.000865028
0.0424809
-0.000761957
0.0421639
-0.000653431
0.0419049
-0.000540055
0.041706
-0.000422491
0.0415688
-0.00030142
0.0414949
-0.000177548
0.0414851
-5.15971e-05
7.56897e-05
0.043118
-0.000481661
-0.043598
0.0426866
-0.000433644
0.0423071
-0.000382456
0.0419822
-0.000328539
0.0417143
-0.000272192
0.0415056
-0.000213736
0.0413577
-0.000153511
0.041272
-9.18643e-05
0.0412495
-2.91577e-05
3.42378e-05
0.0430442
-0.0435258
0.0426105
0.0422281
0.0418995
0.0416273
0.0414136
0.0412601
0.0411682
0.0411391
0.0429487
0.000174156
-0.000193948
0.0429949
0.000519961
-0.000566118
0.0430723
0.000871084
-0.000948482
0.0431982
0.00123511
-0.00136106
0.0434025
0.00161731
-0.00182156
0.0437283
0.00202187
-0.00234766
0.044234
0.00245087
-0.00295657
0.0449909
0.00290674
-0.00366364
0.0460928
0.00336542
-0.00446731
0.00391503
-0.00539387
0.0429655
0.000137624
0.0430721
0.000413334
0.0432527
0.000690446
0.0435177
0.000970126
0.0438818
0.00125317
0.0443639
0.00153983
0.0449856
0.00182919
0.0457709
0.00212142
0.0467354
0.00240095
0.00273419
0.0429664
0.000100122
0.0430774
0.000302323
0.0432619
0.000505994
0.0435238
0.000708179
0.043869
0.000907997
0.0443047
0.00110415
0.0448394
0.00129453
0.0454834
0.00147743
0.0462415
0.00164283
0.00182015
0.0429586
7.04388e-05
0.0430475
0.000213463
0.0431957
0.000357808
0.0434039
0.000499895
0.0436734
0.000638544
0.0440051
0.000772472
0.0443995
0.000900105
0.0448567
0.00102025
0.0453716
0.00112789
0.00123927
0.0429506
4.88103e-05
0.0430159
0.000148079
0.0431255
0.000248247
0.043279
0.000346423
0.043476
0.000441567
0.0437158
0.000532637
0.0439974
0.00061849
0.0443195
0.000698193
0.0446784
0.00076895
0.000838717
0.0429445
3.32508e-05
0.0429917
0.000100886
0.0430708
0.000169102
0.0431814
0.000235847
0.0433226
0.00030036
0.0434933
0.00036191
0.0436921
0.000419753
0.043917
0.000473298
0.0441648
0.000521071
0.000567353
0.0429403
2.18802e-05
0.0429748
6.63764e-05
0.0430327
0.000111235
0.0431134
0.000155097
0.0432163
0.00019745
0.0433404
0.000237808
0.0434845
0.000275694
0.0436471
0.000310719
0.0438261
0.000342052
0.000371862
0.0429376
1.32533e-05
0.0429637
4.0194e-05
0.0430076
6.73433e-05
0.0430688
9.38901e-05
0.0431468
0.000119525
0.0432406
0.000143961
0.0433494
0.000166921
0.0434719
0.000188179
0.0436067
0.000207302
0.000225396
0.0429359
6.24964e-06
0.0429572
1.89492e-05
0.0429928
3.17441e-05
0.0430424
4.42553e-05
0.0431056