1.45 	0 	0 	-0.300851
2.35 	0 	0 	-0.133788
