1.45 	0 	0 	-0.00795294 	-0.00257797 	3.80018e-21
2.35 	0 	0 	0.0616803 	-0.0066432 	2.31047e-21
