1.45 	0 	0 	-0.0079431 	-0.00257842 	3.80114e-21
2.35 	0 	0 	0.0617031 	-0.00664383 	2.3118e-21
