1.275 	2.15223e-18 	-2.76991e-20 	0.24221 	-0.010598 	-1.14067e-22
1.825 	2.15223e-18 	-1.39322e-20 	0.539304 	-0.00959626 	-1.60742e-22
2.375 	2.15223e-18 	-2.66896e-23 	0.773547 	-0.00569347 	-7.6656e-25
