1.45 	0 	0 	-0.00600948 	-0.00271259 	3.92288e-21
2.35 	0 	0 	0.0675898 	-0.0068117 	2.44342e-21
