/*--------------------------------*- C++ -*----------------------------------*\
  =========                 |
  \\      /  F ield         | OpenFOAM: The Open Source CFD Toolbox
   \\    /   O peration     | Website:  https://openfoam.org
    \\  /    A nd           | Version:  6.0
     \\/     M anipulation  |
\*---------------------------------------------------------------------------*/
FoamFile
{
    version     2.0;
    format      ascii;
    class       volVectorField;
    location    "5.8";
    object      U;
}
// * * * * * * * * * * * * * * * * * * * * * * * * * * * * * * * * * * * * * //

dimensions      [0 1 -1 0 0 0 0];

internalField   nonuniform List<vector> 
34500
(
(0.999996 6.22058e-06 -4.63282e-17)
(0.999971 -7.06435e-06 -8.13444e-18)
(0.999922 -3.22634e-05 1.42194e-16)
(0.999858 -7.47156e-05 -1.07633e-16)
(0.999789 -0.000136527 3.35389e-17)
(0.999724 -0.000215959 -1.01429e-16)
(0.999674 -0.000308875 -1.00945e-16)
(0.999643 -0.000409727 8.64838e-17)
(0.999637 -0.000510608 1.07201e-16)
(0.999656 -0.0006039 -6.82642e-16)
(0.9997 -0.0006806 -1.03943e-15)
(0.999761 -0.000742831 1.2665e-16)
(0.999836 -0.000774382 4.33354e-16)
(0.999972 -0.000848105 -2.06767e-16)
(0.99881 -0.00143269 7.58804e-17)
(0.999992 1.73416e-05 3.24448e-17)
(0.999945 -1.44018e-05 9.76229e-17)
(0.99986 -6.76413e-05 7.174e-17)
(0.999748 -0.000150237 -3.02111e-16)
(0.999628 -0.000265997 -5.05691e-16)
(0.999518 -0.000411459 -5.50162e-17)
(0.999434 -0.000579159 2.5539e-16)
(0.999387 -0.000759073 -6.76888e-16)
(0.999385 -0.000936691 -1.78515e-16)
(0.99943 -0.00109759 6.80904e-16)
(0.999517 -0.00122393 1.26088e-15)
(0.999637 -0.00131902 -6.28305e-16)
(0.999767 -0.00135115 -9.82486e-16)
(1.00007 -0.00141444 -3.93775e-16)
(0.998869 -0.00196597 5.18097e-16)
(0.999989 2.72602e-05 1.0467e-17)
(0.999948 -1.8242e-05 -1.22899e-16)
(0.999876 -8.26468e-05 -1.25138e-16)
(0.999782 -0.000170268 4.55521e-16)
(0.999685 -0.000284132 -2.86069e-17)
(0.999599 -0.000420179 -1.63942e-16)
(0.999538 -0.00057153 9.77694e-17)
(0.99951 -0.000730268 3.84342e-16)
(0.999521 -0.000883775 2.3746e-19)
(0.999573 -0.0010203 -3.92583e-16)
(0.999661 -0.00112263 -7.2719e-16)
(0.99978 -0.00119527 4.13069e-16)
(0.999884 -0.00121228 2.2436e-16)
(1.0002 -0.00123477 1.64018e-16)
(0.999442 -0.00147531 -2.4342e-16)
(0.999986 3.61142e-05 -1.73537e-17)
(0.999951 -2.33415e-05 -9.02253e-18)
(0.999894 -9.86367e-05 4.83101e-17)
(0.999821 -0.000190667 -3.05288e-16)
(0.999747 -0.00030188 3.72066e-16)
(0.999686 -0.000428086 3.29756e-16)
(0.999646 -0.000563267 -3.99224e-16)
(0.999635 -0.000701799 -4.19616e-16)
(0.999657 -0.000833619 4.34617e-16)
(0.999712 -0.000950597 -4.70047e-16)
(0.999795 -0.00103787 -2.44131e-16)
(0.999908 -0.00110165 -3.84745e-16)
(0.999985 -0.00112646 5.41212e-16)
(1.00027 -0.00114521 -4.79009e-17)
(0.999767 -0.00135357 2.14106e-17)
(0.99998 4.45186e-05 -1.70425e-17)
(0.999946 -2.96957e-05 1.53295e-16)
(0.999892 -0.00011965 6.95396e-17)
(0.999823 -0.000224488 1.69701e-16)
(0.999755 -0.000346841 4.67266e-17)
(0.9997 -0.000482384 -1.58166e-16)
(0.999668 -0.000624935 1.02463e-16)
(0.999665 -0.000768892 2.66119e-16)
(0.999694 -0.000904518 -4.17348e-16)
(0.999757 -0.00102461 -2.30767e-16)
(0.999847 -0.00111491 1.00537e-15)
(0.999968 -0.00118166 6.33285e-16)
(1.00004 -0.00121448 -2.89115e-16)
(1.0003 -0.00122676 5.90935e-16)
(0.999965 -0.00141348 -5.86377e-16)
(0.999973 5.28621e-05 1.8351e-17)
(0.999938 -3.58311e-05 -9.47975e-17)
(0.999883 -0.00014097 -1.863e-16)
(0.999815 -0.00026042 -5.29213e-17)
(0.999749 -0.000397032 1.0939e-16)
(0.999696 -0.000546399 -1.08793e-16)
(0.999669 -0.000701775 1.48093e-16)
(0.999673 -0.000856706 1.31106e-16)
(0.999711 -0.00100059 2.90799e-16)
(0.999785 -0.00112582 -1.0017e-16)
(0.999886 -0.00121777 2.87781e-18)
(1.00002 -0.00128133 -3.88721e-16)
(1.00011 -0.00130793 1.82805e-17)
(1.00034 -0.00129577 -4.67898e-16)
(1.00015 -0.00139642 7.40426e-17)
(0.999964 6.12248e-05 3.25527e-18)
(0.999929 -4.13345e-05 -3.55829e-17)
(0.999877 -0.000160388 -2.90134e-17)
(0.999814 -0.00029226 1.75693e-16)
(0.999754 -0.000439728 -2.20379e-16)
(0.999709 -0.000598483 2.75337e-16)
(0.999689 -0.000761475 -6.1893e-16)
(0.999702 -0.000921771 -3.69634e-16)
(0.999751 -0.00106788 -1.51495e-16)
(0.999835 -0.0011919 6.70814e-16)
(0.999947 -0.001279 -7.67554e-16)
(1.0001 -0.0013326 2.97703e-16)
(1.00019 -0.00134662 4.55473e-16)
(1.0004 -0.00130771 -9.56888e-17)
(1.00031 -0.00133781 -1.20575e-16)
(0.999955 6.96315e-05 1.51154e-17)
(0.999921 -4.64944e-05 3.22819e-17)
(0.999874 -0.000178681 2.50236e-17)
(0.999818 -0.000321563 -1.50826e-16)
(0.999767 -0.000477632 3.28755e-16)
(0.999731 -0.00064276 -1.39533e-16)
(0.999723 -0.0008099 2.01447e-16)
(0.999746 -0.000972082 -1.4619e-16)
(0.999805 -0.00111714 3.97326e-16)
(0.9999 -0.00123707 1.77627e-16)
(1.00002 -0.00131714 2.44551e-16)
(1.00018 -0.00135971 -5.64556e-17)
(1.00029 -0.00136228 -5.03914e-16)
(1.00047 -0.00130352 1.13657e-15)
(1.00045 -0.00129671 1.86297e-16)
(0.999945 7.8153e-05 -1.12151e-17)
(0.999911 -5.15224e-05 9.89389e-17)
(0.999869 -0.000196779 1.50765e-16)
(0.99982 -0.000350647 1.11887e-16)
(0.999779 -0.000515209 -4.88504e-16)
(0.999755 -0.000686421 1.40911e-16)
(0.999757 -0.000857328 3.20567e-16)
(0.999791 -0.00102107 7.721e-16)
(0.999861 -0.00116498 -3.85191e-16)
(0.999966 -0.00128097 8.99867e-17)
(1.00009 -0.00135456 4.48734e-16)
(1.00026 -0.00138726 -3.23441e-16)
(1.00038 -0.00138044 -1.53853e-16)
(1.00055 -0.00130774 -3.80334e-16)
(1.00057 -0.00127869 8.39418e-17)
(0.999933 8.68857e-05 4.06822e-17)
(0.9999 -5.64114e-05 -8.97214e-17)
(0.999862 -0.000214867 8.85047e-18)
(0.999821 -0.000380064 -1.10149e-16)
(0.999789 -0.000553609 4.105e-16)
(0.999775 -0.000731325 7.95799e-17)
(0.999789 -0.00090631 2.70123e-16)
(0.999834 -0.00107184 -5.72812e-16)
(0.999915 -0.00121495 4.15674e-17)
(1.00003 -0.00132756 -7.86409e-17)
(1.00017 -0.00139563 -1.39579e-16)
(1.00034 -0.0014199 4.40967e-17)
(1.00047 -0.00140538 5.91668e-16)
(1.00063 -0.00132278 -8.03403e-16)
(1.00068 -0.00127723 -2.69122e-16)
(0.99992 9.59077e-05 -2.62196e-17)
(0.999887 -6.11096e-05 3.52437e-17)
(0.999853 -0.000232876 -1.47494e-16)
(0.999819 -0.000409707 2.49886e-16)
(0.999797 -0.000592713 -3.6146e-16)
(0.999793 -0.000777391 -3.02974e-16)
(0.999818 -0.000956783 -3.38725e-16)
(0.999876 -0.0011243 3.90989e-17)
(0.999968 -0.00126693 -8.13756e-17)
(1.00009 -0.00137677 -4.24292e-16)
(1.00024 -0.00144046 -7.20712e-16)
(1.00042 -0.00145801 2.85628e-16)
(1.00056 -0.0014374 -3.28089e-16)
(1.00072 -0.00134785 9.06147e-16)
(1.00078 -0.00128866 5.36824e-17)
(0.999906 0.000105285 -2.45513e-17)
(0.999873 -6.55819e-05 -1.04214e-16)
(0.999843 -0.00025079 1.50704e-16)
(0.999815 -0.000439598 -2.34104e-16)
(0.999801 -0.000632664 7.68492e-17)
(0.999809 -0.000825028 4.54053e-16)
(0.999845 -0.00100953 5.53766e-17)
(0.999915 -0.00117966 -6.73272e-17)
(1.00002 -0.00132248 1.81479e-16)
(1.00015 -0.00143039 -1.56848e-16)
(1.00031 -0.00149088 -9.50332e-17)
(1.0005 -0.0015032 -6.67415e-17)
(1.00065 -0.00147721 -2.86929e-16)
(1.00081 -0.00138157 -6.20853e-16)
(1.00089 -0.0013077 1.24065e-17)
(0.999891 0.000115066 -2.17633e-18)
(0.999858 -6.98038e-05 1.40471e-16)
(0.999831 -0.000268614 -2.21473e-16)
(0.999809 -0.00046979 8.33898e-17)
(0.999803 -0.00067362 -9.35423e-17)
(0.99982 -0.000874615 -1.54718e-16)
(0.999868 -0.00106525 -3.88833e-17)
(0.999949 -0.00123895 3.64946e-16)
(1.00006 -0.00138282 -6.3007e-16)
(1.00021 -0.00148958 4.20137e-16)
(1.00038 -0.00154755 2.20428e-16)
(1.00057 -0.0015551 1.83993e-16)
(1.00074 -0.00152291 7.49048e-16)
(1.0009 -0.0014197 7.2951e-16)
(1.001 -0.00132781 5.48319e-16)
(0.999874 0.00012529 8.30205e-18)
(0.999841 -7.37371e-05 5.28672e-17)
(0.999817 -0.000286287 1.76029e-16)
(0.9998 -0.000500149 5.57595e-17)
(0.999802 -0.000715316 1.70604e-16)
(0.999829 -0.00092575 1.6802e-16)
(0.999888 -0.00112343 -1.18442e-17)
(0.99998 -0.0013015 4.92859e-17)
(1.00011 -0.00144703 9.37491e-16)
(1.00026 -0.00155292 -1.13882e-16)
(1.00044 -0.00160822 5.42015e-16)
(1.00064 -0.00161037 -7.3877e-16)
(1.00082 -0.0015701 1.36913e-16)
(1.00099 -0.00145684 -1.34389e-15)
(1.00112 -0.00134461 -6.16168e-16)
(0.999855 0.00013597 9.93829e-18)
(0.999823 -7.7355e-05 -1.1766e-16)
(0.999802 -0.000303728 1.54762e-16)
(0.99979 -0.000530433 -2.24061e-16)
(0.9998 -0.000757212 1.56807e-16)
(0.999836 -0.000977487 2.07167e-17)
(0.999905 -0.00118267 1.94978e-16)
(1.00001 -0.00136545 -2.59951e-16)
(1.00015 -0.00151276 -8.38858e-16)
(1.00032 -0.0016175 2.49212e-16)
(1.0005 -0.00166937 -5.60052e-16)
(1.00071 -0.00166495 1.12784e-16)
(1.0009 -0.00161474 -4.90039e-16)
(1.00108 -0.00148957 2.65532e-16)
(1.00123 -0.00135737 -1.08464e-16)
(0.999835 0.000147105 3.32335e-17)
(0.999803 -8.06453e-05 7.18736e-17)
(0.999785 -0.000320874 -3.58888e-16)
(0.99978 -0.000560429 2.88328e-16)
(0.999797 -0.000798802 -2.79902e-16)
(0.999842 -0.00102889 -3.72895e-16)
(0.999922 -0.00124152 -3.82854e-16)
(1.00004 -0.00142889 3.37528e-16)
(1.00019 -0.00157767 7.18717e-16)
(1.00037 -0.0016807 1.62987e-16)
(1.00057 -0.00172823 9.4683e-17)
(1.00079 -0.00171622 7.0065e-17)
(1.00099 -0.00165498 -7.32649e-16)
(1.00118 -0.00151745 6.43595e-17)
(1.00135 -0.00136805 6.32412e-16)
(0.999814 0.000158671 -8.96462e-17)
(0.999782 -8.36273e-05 -9.23795e-17)
(0.999768 -0.000337729 3.42784e-17)
(0.999768 -0.000590068 -2.64289e-16)
(0.999794 -0.000839847 -1.79634e-17)
(0.999849 -0.00107946 4.81551e-16)
(0.999941 -0.00129916 5.5059e-17)
(1.00007 -0.00149067 3.04018e-16)
(1.00023 -0.00164044 -6.02729e-16)
(1.00043 -0.00174119 -3.09593e-16)
(1.00064 -0.00178373 4.4448e-16)
(1.00087 -0.00176369 -1.4902e-16)
(1.00108 -0.00169143 4.83506e-16)
(1.00127 -0.00154243 7.49117e-16)
(1.00146 -0.00137974 -5.9812e-17)
(0.999791 0.00017063 2.8084e-17)
(0.99976 -8.63339e-05 1.14733e-17)
(0.999749 -0.000354342 1.15597e-16)
(0.999756 -0.000619412 2.25832e-18)
(0.999791 -0.000880394 9.88414e-17)
(0.999857 -0.00112917 -2.89568e-16)
(0.99996 -0.00135547 5.98101e-16)
(1.0001 -0.00155065 -1.53447e-16)
(1.00028 -0.00170098 6.52319e-16)
(1.00048 -0.00179914 -3.41243e-16)
(1.0007 -0.00183653 -5.43313e-16)
(1.00094 -0.00180873 5.24334e-16)
(1.00116 -0.00172627 -8.83921e-16)
(1.00137 -0.00156746 -1.30166e-15)
(1.00156 -0.00139502 -3.29383e-16)
(0.999766 0.000182929 3.12687e-18)
(0.999737 -8.88165e-05 1.94948e-17)
(0.99973 -0.000370808 -3.12089e-17)
(0.999743 -0.000648633 1.58634e-16)
(0.999787 -0.000920728 1.08799e-16)
(0.999864 -0.00117844 -4.26618e-17)
(0.999979 -0.00141102 -3.60513e-16)
(1.00013 -0.00160953 -3.4752e-16)
(1.00032 -0.00176025 -2.34892e-16)
(1.00054 -0.00185585 4.32831e-16)
(1.00077 -0.00188839 3.35353e-16)
(1.00102 -0.00185359 -4.93014e-16)
(1.00125 -0.00176214 1.095e-15)
(1.00146 -0.0015951 1.37157e-15)
(1.00167 -0.00141502 4.63383e-17)
(0.99974 0.000195513 3.57551e-17)
(0.999712 -9.11222e-05 -4.75886e-17)
(0.999709 -0.00038722 2.2939e-16)
(0.999729 -0.000677925 -4.56852e-17)
(0.999782 -0.000961217 -1.74359e-16)
(0.99987 -0.00122788 7.3917e-17)
(0.999998 -0.00146668 -1.29675e-16)
(1.00016 -0.0016685 2.93416e-16)
(1.00037 -0.0018197 7.71277e-17)
(1.0006 -0.00191306 5.39145e-17)
(1.00084 -0.00194132 -2.57191e-16)
(1.0011 -0.00190039 3.41364e-16)
(1.00134 -0.00180094 1.73966e-16)
(1.00156 -0.00162658 1.55387e-16)
(1.00177 -0.00143915 3.93594e-16)
(0.999713 0.000208315 -1.83812e-17)
(0.999686 -9.33016e-05 2.72419e-17)
(0.999687 -0.000403662 -3.7184e-16)
(0.999714 -0.000707457 -2.37893e-16)
(0.999776 -0.00100218 3.2924e-16)
(0.999875 -0.00127802 -8.91293e-17)
(1.00002 -0.00152326 5.2063e-16)
(1.00019 -0.00172863 -1.41345e-16)
(1.00041 -0.00188064 -7.50649e-18)
(1.00065 -0.00197222 -1.49918e-16)
(1.00091 -0.00199675 3.84917e-16)
(1.00117 -0.00195034 -2.42587e-16)
(1.00142 -0.00184331 -7.97296e-16)
(1.00165 -0.00166158 -1.89693e-16)
(1.00187 -0.00146576 -4.49609e-16)
(0.999684 0.000221278 2.47439e-17)
(0.999659 -9.53905e-05 1.1255e-16)
(0.999663 -0.00042018 3.35144e-16)
(0.999696 -0.000737311 2.60101e-16)
(0.999767 -0.00104379 -3.206e-17)
(0.999878 -0.00132917 -1.30236e-16)
(1.00003 -0.00158123 -5.76358e-16)
(1.00022 -0.00179053 -6.70064e-17)
(1.00045 -0.00194374 -3.4231e-16)
(1.0007 -0.00203394 1.10861e-16)
(1.00097 -0.00205505 -7.05531e-16)
(1.00125 -0.00200334 3.40292e-16)
(1.00151 -0.00188854 1.14862e-15)
(1.00174 -0.00169866 -8.85169e-16)
(1.00197 -0.00149288 5.24128e-16)
(0.999654 0.000234336 -1.99521e-17)
(0.99963 -9.74262e-05 -1.58362e-16)
(0.999637 -0.000436795 -1.91811e-16)
(0.999677 -0.000767487 -9.56651e-17)
(0.999757 -0.00108601 -6.1265e-17)
(0.999878 -0.00138128 8.41057e-17)
(1.00004 -0.00164057 -3.22072e-17)
(1.00025 -0.00185417 -4.42349e-16)
(1.00049 -0.00200891 -1.30193e-16)
(1.00076 -0.00209795 -3.27763e-17)
(1.00103 -0.00211564 6.42177e-16)
(1.00132 -0.00205838 1.07392e-16)
(1.00159 -0.0019352 -9.54979e-16)
(1.00184 -0.00173612 5.06531e-16)
(1.00207 -0.00151918 -1.01452e-16)
(0.999622 0.000247439 1.80234e-17)
(0.999599 -9.94349e-05 9.31118e-17)
(0.99961 -0.000453501 9.23194e-17)
(0.999656 -0.000797913 1.79537e-16)
(0.999744 -0.00112867 -9.78158e-17)
(0.999876 -0.00143409 -2.7513e-17)
(1.00005 -0.00170086 1.98775e-16)
(1.00027 -0.00191901 2.9701e-16)
(1.00052 -0.00207544 -2.14057e-17)
(1.00081 -0.0021633 -3.5853e-16)
(1.0011 -0.00217732 -2.75563e-16)
(1.0014 -0.00211403 -4.84311e-16)
(1.00168 -0.0019818 2.03106e-17)
(1.00193 -0.00177271 2.62281e-16)
(1.00218 -0.00154432 -1.586e-16)
(0.999589 0.000260534 -9.637e-18)
(0.999567 -0.000101451 -5.51013e-17)
(0.999582 -0.000470294 1.40205e-16)
(0.999633 -0.000828508 1.47048e-17)
(0.99973 -0.00117158 -1.24519e-16)
(0.999873 -0.0014872 1.00408e-16)
(1.00006 -0.00176155 -4.79613e-17)
(1.00029 -0.00198431 2.73856e-16)
(1.00056 -0.0021424 5.05961e-16)
(1.00085 -0.00222895 7.85654e-17)
(1.00116 -0.00223897 2.37803e-16)
(1.00147 -0.0021692 2.41998e-16)
(1.00176 -0.00202752 5.97165e-17)
(1.00203 -0.00180811 -5.39753e-16)
(1.00229 -0.0015688 1.3076e-16)
(0.999555 0.000273584 1.29089e-17)
(0.999534 -0.000103503 1.16052e-17)
(0.999552 -0.000487172 -2.86434e-16)
(0.99961 -0.000859207 -1.25131e-16)
(0.999715 -0.00121455 1.7592e-16)
(0.999869 -0.0015403 -2.74597e-17)
(1.00007 -0.00182216 1.83647e-16)
(1.00032 -0.00204945 -2.43904e-16)
(1.0006 -0.0022091 1.3903e-16)
(1.0009 -0.00229416 1.15618e-16)
(1.00122 -0.00229992 1.22026e-16)
(1.00155 -0.00222346 1.55238e-16)
(1.00185 -0.00207235 2.15716e-16)
(1.00212 -0.00184287 3.03423e-17)
(1.00239 -0.0015938 7.69172e-17)
(0.99952 0.000286555 -3.97175e-17)
(0.999499 -0.000105629 1.05093e-16)
(0.99952 -0.000504163 1.64465e-16)
(0.999585 -0.000890008 -1.05275e-16)
(0.9997 -0.00125753 -6.84382e-17)
(0.999864 -0.00159328 3.89514e-17)
(1.00008 -0.00188249 -2.00067e-16)
(1.00034 -0.00211418 -1.30903e-16)
(1.00063 -0.00227527 -1.71926e-16)
(1.00095 -0.00235878 2.73227e-16)
(1.00129 -0.00236025 -3.78984e-16)
(1.00162 -0.00227719 2.95944e-16)
(1.00193 -0.00211701 1.44887e-16)
(1.00222 -0.00187806 5.41906e-16)
(1.00249 -0.00162037 -4.95459e-16)
(0.999484 0.00029943 1.67593e-17)
(0.999463 -0.000107858 -7.91009e-17)
(0.999488 -0.000521297 5.79142e-17)
(0.999559 -0.000920954 1.28088e-16)
(0.999683 -0.00130059 -8.87988e-17)
(0.999859 -0.00164622 -1.50066e-16)
(1.00009 -0.00194267 -7.1047e-17)
(1.00036 -0.00217867 9.79029e-17)
(1.00067 -0.00234118 -4.47796e-16)
(1.001 -0.0024232 6.60655e-17)
(1.00135 -0.00242056 2.51812e-16)
(1.0017 -0.00233122 -7.03601e-16)
(1.00202 -0.00216251 1.42009e-16)
(1.00231 -0.00191468 2.17403e-17)
(1.0026 -0.0016489 3.6535e-16)
(0.999447 0.000312195 -6.3713e-18)
(0.999426 -0.000110224 9.69465e-17)
(0.999454 -0.000538624 -9.36602e-17)
(0.999532 -0.00095213 -5.81309e-17)
(0.999665 -0.00134388 -9.27097e-17)
(0.999853 -0.00169937 -4.90253e-17)
(1.00009 -0.00200303 -1.05702e-16)
(1.00038 -0.00224337 7.54613e-17)
(1.0007 -0.00240742 2.90174e-17)
(1.00105 -0.00248816 -3.10044e-16)
(1.00141 -0.00248171 -3.69801e-16)
(1.00177 -0.00238651 4.10117e-16)
(1.00211 -0.00220971 -3.57832e-16)
(1.00241 -0.00195334 -1.13856e-16)
(1.0027 -0.00167948 -1.11886e-17)
(0.999408 0.000324853 -1.92792e-17)
(0.999387 -0.000112744 -4.47845e-17)
(0.999419 -0.000556179 3.16299e-17)
(0.999503 -0.000983619 2.25382e-16)
(0.999646 -0.00138758 3.76372e-16)
(0.999845 -0.001753 3.07246e-16)
(1.0001 -0.00206399 3.35669e-16)
(1.0004 -0.00230884 -2.1413e-16)
(1.00074 -0.00247464 6.67522e-20)
(1.0011 -0.00255438 2.32193e-16)
(1.00147 -0.00254443 4.57123e-17)
(1.00184 -0.00244365 2.52004e-16)
(1.00219 -0.00225898 2.02415e-16)
(1.0025 -0.001994 -5.29976e-16)
(1.0028 -0.00171138 -3.47495e-16)
(0.999369 0.000337408 9.91934e-18)
(0.999346 -0.000115434 -8.09443e-17)
(0.999382 -0.000573991 -1.61907e-16)
(0.999473 -0.00101549 -1.58921e-16)
(0.999625 -0.00143181 1.46064e-17)
(0.999835 -0.00180737 -1.7346e-16)
(1.0001 -0.00212591 -3.77654e-16)
(1.00042 -0.0023755 2.88229e-16)
(1.00077 -0.00254332 2.34394e-16)
(1.00115 -0.00262233 -5.16772e-16)
(1.00153 -0.00260907 4.23828e-16)
(1.00192 -0.00250282 -3.08879e-16)
(1.00228 -0.00231017 -1.42315e-16)
(1.0026 -0.00203618 -1.24357e-16)
(1.0029 -0.0017439 1.48055e-16)
(0.999328 0.000349878 3.77592e-17)
(0.999305 -0.000118292 1.73684e-17)
(0.999343 -0.000592062 8.75688e-17)
(0.99944 -0.00104775 4.0677e-17)
(0.999602 -0.00147664 4.78557e-17)
(0.999824 -0.00186257 3e-16)
(1.0001 -0.00218892 -1.35545e-16)
(1.00043 -0.00244353 1.48101e-16)
(1.0008 -0.00261359 8.50245e-17)
(1.00119 -0.00269203 5.92434e-17)
(1.00159 -0.00267551 1.97342e-16)
(1.00199 -0.00256365 -4.2061e-17)
(1.00236 -0.00236271 9.34391e-18)
(1.0027 -0.00207913 8.67384e-16)
(1.00301 -0.00177635 2.75416e-18)
(0.999286 0.000362276 -3.66507e-17)
(0.999261 -0.000121315 -1.26578e-17)
(0.999303 -0.000610384 5.72522e-17)
(0.999407 -0.0010804 -1.74554e-16)
(0.999577 -0.00152204 -2.79575e-16)
(0.99981 -0.00191857 -2.67859e-16)
(1.0001 -0.00225298 2.2694e-16)
(1.00045 -0.00251282 -8.2993e-17)
(1.00083 -0.00268529 9.67738e-18)
(1.00124 -0.00276321 -5.01501e-18)
(1.00165 -0.00274333 -2.72579e-16)
(1.00206 -0.00262558 -2.46282e-16)
(1.00245 -0.00241596 -1.58745e-16)
(1.00279 -0.00212227 2.40794e-17)
(1.00311 -0.0018085 -5.42399e-17)
(0.999242 0.000374626 -1.82972e-17)
(0.999217 -0.000124491 4.84247e-17)
(0.999262 -0.000628931 4.76424e-17)
(0.999371 -0.00111337 7.75278e-17)
(0.999551 -0.00156791 1.06036e-16)
(0.999796 -0.00197522 1.67559e-18)
(1.0001 -0.00231787 2.26843e-16)
(1.00046 -0.00258311 -5.05774e-16)
(1.00086 -0.00275805 2.57887e-16)
(1.00128 -0.00283541 2.62972e-16)
(1.00171 -0.00281199 -3.76139e-16)
(1.00214 -0.00268806 7.02268e-16)
(1.00253 -0.00246944 3.69515e-16)
(1.00289 -0.00216531 -6.88081e-16)
(1.00322 -0.00184044 -2.04525e-16)
(0.999197 0.000386943 3.78374e-17)
(0.999171 -0.000127811 2.93799e-17)
(0.999219 -0.000647685 4.58797e-18)
(0.999334 -0.00114661 -3.47545e-17)
(0.999523 -0.00161415 2.01602e-17)
(0.999779 -0.00203236 2.84428e-16)
(1.0001 -0.00238337 -4.58423e-17)
(1.00047 -0.00265407 3.24571e-16)
(1.00088 -0.00283149 -4.80204e-17)
(1.00132 -0.00290822 -2.9088e-16)
(1.00177 -0.00288109 6.01758e-16)
(1.00221 -0.00275078 -3.61024e-16)
(1.00262 -0.00252301 -4.88538e-16)
(1.00299 -0.00220838 2.06371e-16)
(1.00332 -0.00187261 3.44715e-16)
(0.99915 0.000399251 -3.1465e-17)
(0.999123 -0.000131259 -1.32642e-17)
(0.999174 -0.000666623 -1.72965e-16)
(0.999296 -0.00118009 -8.45285e-17)
(0.999494 -0.00166069 5.20553e-17)
(0.999762 -0.00208985 -2.87138e-16)
(1.0001 -0.00244928 -8.44029e-17)
(1.00048 -0.00272549 2.82884e-16)
(1.00091 -0.00290538 -2.39213e-16)
(1.00137 -0.00298143 7.01388e-17)
(1.00183 -0.00295051 -3.35081e-16)
(1.00228 -0.00281374 1.05387e-17)
(1.00271 -0.00257686 2.64427e-16)
(1.00308 -0.00225182 1.39044e-16)
(1.00343 -0.00190544 -5.41341e-17)
(0.999102 0.000411563 3.00167e-17)
(0.999074 -0.000134829 -9.73882e-17)
(0.999129 -0.000685746 8.17493e-17)
(0.999257 -0.0012138 5.3504e-17)
(0.999464 -0.0017075 -4.03397e-17)
(0.999744 -0.00214767 -1.7248e-16)
(1.00009 -0.00251556 5.22935e-17)
(1.00049 -0.00279731 -1.29691e-16)
(1.00094 -0.0029797 -2.18648e-16)
(1.00141 -0.00305509 -2.7324e-17)
(1.00189 -0.00302041 -4.84248e-16)
(1.00236 -0.00287724 4.95435e-16)
(1.00279 -0.0026314 3.84908e-17)
(1.00318 -0.00229612 -7.93788e-17)
(1.00353 -0.00193934 -7.71656e-18)
(0.999052 0.000423899 -3.68166e-17)
(0.999024 -0.00013851 1.00255e-16)
(0.999081 -0.000705052 -2.30298e-17)
(0.999216 -0.00124774 -2.09788e-16)
(0.999432 -0.00175462 -9.99536e-17)
(0.999725 -0.00220586 1.16108e-16)
(1.00009 -0.00258228 -1.7036e-16)
(1.0005 -0.00286966 -1.90811e-16)
(1.00097 -0.00305463 3.24692e-16)
(1.00146 -0.00312945 1.12963e-16)
(1.00195 -0.00309112 5.08114e-16)
(1.00243 -0.00294168 -3.8206e-16)
(1.00288 -0.00268704 1.37234e-16)
(1.00328 -0.00234162 -1.54416e-16)
(1.00364 -0.00197437 5.14395e-18)
(0.999 0.000436269 2.27874e-17)
(0.998972 -0.000142295 -5.80157e-17)
(0.999033 -0.000724559 7.20643e-17)
(0.999174 -0.00128198 3.12581e-16)
(0.9994 -0.00180212 1.32644e-16)
(0.999704 -0.00226455 8.22882e-17)
(1.00008 -0.00264963 3.38375e-16)
(1.00051 -0.00294277 1.60791e-16)
(1.00099 -0.00313046 -2.64804e-16)
(1.0015 -0.00320485 4.51129e-16)
(1.00201 -0.00316302 2.50829e-16)
(1.00251 -0.00300745 -2.12227e-16)
(1.00297 -0.0027441 -4.05777e-16)
(1.00338 -0.00238849 -1.57587e-16)
(1.00375 -0.0020105 6.07919e-17)
(0.998947 0.00044869 4.6789e-18)
(0.998918 -0.000146171 -1.23603e-16)
(0.998983 -0.000744276 -9.17269e-17)
(0.999131 -0.00131655 -2.1523e-16)
(0.999366 -0.00185011 3.45721e-17)
(0.999683 -0.00232388 -3.34175e-16)
(1.00007 -0.0027178 -3.59237e-16)
(1.00052 -0.00301688 -1.44489e-16)
(1.00102 -0.00320747 3.07784e-16)
(1.00154 -0.0032816 -3.26883e-16)
(1.00207 -0.0032364 1.15566e-16)
(1.00258 -0.00307473 2.14771e-16)
(1.00305 -0.00280263 3.25915e-16)
(1.00348 -0.00243662 1.98768e-16)
(1.00385 -0.00204742 1.68653e-17)
(0.998892 0.000461169 3.28884e-17)
(0.998863 -0.000150132 2.02018e-16)
(0.998931 -0.000764222 9.40218e-17)
(0.999086 -0.00135151 1.80685e-16)
(0.999331 -0.00189866 1.08257e-16)
(0.99966 -0.00238399 4.56338e-17)
(1.00006 -0.00278697 5.26384e-17)
(1.00053 -0.00309221 -1.20931e-16)
(1.00104 -0.00328587 -1.22615e-16)
(1.00158 -0.00335988 1.43667e-17)
(1.00212 -0.00331136 -7.89658e-16)
(1.00265 -0.00314356 -3.0832e-16)
(1.00314 -0.00286255 3.24081e-16)
(1.00358 -0.00248584 -7.22347e-17)
(1.00396 -0.00208494 -1.99907e-16)
(0.998835 0.000473719 -4.42037e-17)
(0.998807 -0.000154162 -1.29458e-16)
(0.998878 -0.000784399 -1.85921e-16)
(0.999039 -0.00138688 6.10775e-17)
(0.999294 -0.00194784 -2.05382e-16)
(0.999635 -0.00244496 3.82554e-17)
(1.00005 -0.00285722 -4.73508e-17)
(1.00054 -0.00316883 -8.64345e-18)
(1.00107 -0.00336572 -1.46519e-16)
(1.00162 -0.0034397 -7.68141e-17)
(1.00218 -0.00338784 2.71943e-17)
(1.00273 -0.00321378 2.67763e-16)
(1.00323 -0.00292364 -1.34902e-16)
(1.00368 -0.00253589 2.66172e-16)
(1.00407 -0.00212283 9.40035e-17)
(0.998776 0.000486344 2.36254e-17)
(0.998749 -0.000158252 1.2402e-16)
(0.998823 -0.000804814 2.36207e-16)
(0.998991 -0.00142268 -6.82502e-17)
(0.999255 -0.00199768 -1.65576e-17)
(0.999609 -0.00250683 2.50694e-16)
(1.00004 -0.0029286 2.13156e-16)
(1.00054 -0.00324675 -1.46042e-16)
(1.00109 -0.003447 3.91208e-16)
(1.00166 -0.00352096 3.54859e-16)
(1.00224 -0.00346571 3.77261e-16)
(1.0028 -0.00328523 -1.74143e-17)
(1.00332 -0.00298573 -2.99074e-16)
(1.00377 -0.00258664 -3.13934e-16)
(1.00417 -0.00216113 -3.02328e-17)
(0.998716 0.000499057 -2.02443e-17)
(0.998689 -0.000162387 -6.54919e-17)
(0.998767 -0.00082546 -1.95779e-16)
(0.998941 -0.00145892 1.25995e-16)
(0.999215 -0.00204818 1.20893e-16)
(0.999582 -0.00256957 -1.67857e-16)
(1.00003 -0.00300104 -8.47362e-17)
(1.00055 -0.0033259 8.37471e-18)
(1.00111 -0.00352958 -1.73861e-16)
(1.0017 -0.00360353 -3.04047e-16)
(1.0023 -0.0035448 -5.6089e-16)
(1.00287 -0.00335772 6.05606e-17)
(1.0034 -0.00304867 3.65154e-16)
(1.00387 -0.00263802 3.30445e-16)
(1.00428 -0.00219985 -6.94633e-17)
(0.998655 0.00051186 -1.61098e-17)
(0.998628 -0.000166563 -1.31737e-17)
(0.998709 -0.000846342 1.71326e-16)
(0.998889 -0.0014956 -1.61651e-16)
(0.999173 -0.00209933 -3.19427e-16)
(0.999552 -0.00263316 1.55012e-16)
(1.00002 -0.00307452 8.79583e-17)
(1.00055 -0.0034062 4.07261e-16)
(1.00113 -0.00361337 5.82243e-17)
(1.00174 -0.00368731 2.83105e-16)
(1.00235 -0.00362502 8.40494e-16)
(1.00295 -0.00343123 -2.3052e-16)
(1.00349 -0.0031125 -9.7799e-17)
(1.00397 -0.00269015 -1.15354e-17)
(1.00439 -0.00223921 -2.76683e-17)
(0.998592 0.000524761 4.50542e-17)
(0.998565 -0.000170771 4.92183e-17)
(0.998649 -0.000867455 -1.4735e-16)
(0.998836 -0.00153271 1.3688e-16)
(0.99913 -0.00215111 -9.21284e-17)
(0.999522 -0.00269758 -2.96593e-16)
(1 -0.00314898 1.3034e-17)
(1.00055 -0.00348761 -3.50297e-17)
(1.00115 -0.00369833 -2.15934e-16)
(1.00178 -0.00377224 1.81996e-16)
(1.00241 -0.00370636 -7.84547e-16)
(1.00302 -0.00350578 -1.42753e-17)
(1.00358 -0.00317731 -1.74697e-16)
(1.00408 -0.00274315 3.26141e-17)
(1.0045 -0.00227928 -8.19588e-17)
(0.998527 0.000537763 -1.14969e-17)
(0.9985 -0.000175017 -1.17272e-17)
(0.998587 -0.00088881 2.03892e-17)
(0.998781 -0.00157028 -1.52217e-16)
(0.999085 -0.00220356 -2.73288e-17)
(0.99949 -0.00276285 3.62153e-16)
(0.999984 -0.00322445 -2.63922e-16)
(1.00055 -0.00357014 -3.26867e-16)
(1.00117 -0.00378448 3.49955e-16)
(1.00182 -0.00385841 -3.16577e-16)
(1.00247 -0.00378893 4.00586e-16)
(1.00309 -0.00358153 3.78879e-16)
(1.00367 -0.00324326 2.72779e-16)
(1.00418 -0.00279719 -1.81395e-16)
(1.00461 -0.0023202 -6.178e-17)
(0.998461 0.000550873 -1.2399e-17)
(0.998434 -0.000179301 -7.19589e-17)
(0.998524 -0.000910416 -9.68954e-17)
(0.998725 -0.0016083 7.11144e-17)
(0.999039 -0.00225667 1.8023e-16)
(0.999457 -0.00282898 6.32141e-17)
(0.999967 -0.00330095 2.45279e-16)
(1.00055 -0.00365384 5.3605e-17)
(1.00119 -0.00387189 -4.60115e-16)
(1.00186 -0.0039459 1.60987e-16)
(1.00252 -0.00387284 -2.27515e-16)
(1.00317 -0.00365859 -1.88917e-16)
(1.00376 -0.00331044 -2.54362e-16)
(1.00428 -0.0028523 4.01736e-17)
(1.00472 -0.00236189 1.49195e-16)
(0.998393 0.000564091 -1.90315e-17)
(0.998366 -0.000183637 3.42744e-17)
(0.99846 -0.000932295 4.13791e-17)
(0.998667 -0.00164682 -1.42538e-16)
(0.998991 -0.0023105 6.95584e-17)
(0.999422 -0.00289604 -2.1104e-16)
(0.999948 -0.00337856 -2.58505e-17)
(1.00055 -0.00373881 3.17369e-16)
(1.00121 -0.00396069 -2.02413e-16)
(1.00189 -0.00403484 -2.67527e-16)
(1.00258 -0.00395823 2.29741e-16)
(1.00324 -0.00373708 -6.81781e-17)
(1.00385 -0.00337894 -7.20778e-16)
(1.00438 -0.00290852 7.35035e-17)
(1.00483 -0.00240436 1.07331e-16)
(0.998324 0.000577426 -9.79592e-18)
(0.998296 -0.000188036 3.34317e-17)
(0.998393 -0.000954463 1.25948e-17)
(0.998607 -0.00168586 1.90005e-17)
(0.998941 -0.00236508 1.20036e-16)
(0.999386 -0.00296407 6.66982e-17)
(0.999928 -0.00345735 -2.19669e-16)
(1.00055 -0.00382512 -2.00568e-17)
(1.00122 -0.00405096 6.06263e-16)
(1.00193 -0.00412533 -1.94429e-16)
(1.00263 -0.00404516 -5.71551e-18)
(1.00331 -0.00381703 2.87452e-17)
(1.00394 -0.00344875 2.77381e-17)
(1.00448 -0.00296578 -5.08911e-17)
(1.00494 -0.00244749 1.69417e-17)
(0.998253 0.000590874 2.58142e-17)
(0.998225 -0.000192518 -6.81946e-17)
(0.998325 -0.000976948 -7.78944e-17)
(0.998546 -0.00172546 1.49121e-19)
(0.99889 -0.00242046 -1.81251e-16)
(0.999349 -0.00303314 -2.8944e-17)
(0.999907 -0.00353738 4.26526e-17)
(1.00055 -0.00391286 -4.82959e-17)
(1.00124 -0.00414277 -4.10462e-16)
(1.00197 -0.0042174 5.46464e-16)
(1.00269 -0.00413366 -3.11817e-17)
(1.00339 -0.00389845 -5.70847e-17)
(1.00402 -0.00351984 3.36373e-16)
(1.00459 -0.00302405 -3.7706e-16)
(1.00505 -0.00249129 7.95566e-18)
(0.998181 0.00060444 2.73898e-18)
(0.998151 -0.000197098 8.18101e-17)
(0.998255 -0.000999769 2.19862e-16)
(0.998483 -0.00176563 -5.54459e-17)
(0.998838 -0.00247667 1.17794e-16)
(0.99931 -0.00310327 -1.83037e-16)
(0.999884 -0.0036187 -2.19198e-16)
(1.00054 -0.00400204 5.26459e-18)
(1.00126 -0.00423613 2.3899e-16)
(1.002 -0.00431107 -4.76957e-16)
(1.00275 -0.0042237 1.18791e-16)
(1.00346 -0.00398128 -2.06421e-17)
(1.00411 -0.00359213 2.59863e-16)
(1.00469 -0.00308325 8.02603e-17)
(1.00516 -0.00253571 -1.24924e-16)
(0.998107 0.000618119 1.05254e-18)
(0.998077 -0.000201801 -8.87916e-17)
(0.998184 -0.00102296 -1.25483e-16)
(0.998418 -0.00180642 2.07674e-17)
(0.998783 -0.00253375 -2.18842e-17)
(0.999269 -0.00317451 1.66145e-16)
(0.99986 -0.00370132 3.59889e-16)
(1.00054 -0.00409269 -3.19223e-16)
(1.00127 -0.00433106 3.631e-16)
(1.00204 -0.00440632 3.20935e-17)
(1.0028 -0.00431527 7.12191e-17)
(1.00354 -0.0040655 -1.3752e-16)
(1.00421 -0.00366563 2.65431e-16)
(1.00479 -0.00314343 1.50356e-16)
(1.00528 -0.00258086 1.96252e-16)
(0.998032 0.000631908 -8.6083e-18)
(0.998 -0.000206642 8.46983e-17)
(0.99811 -0.00104652 1.54559e-16)
(0.998351 -0.00184783 5.34002e-17)
(0.998727 -0.0025917 1.5619e-16)
(0.999227 -0.00324686 1.19954e-16)
(0.999835 -0.00378525 -3.23193e-16)
(1.00053 -0.0041848 6.475e-16)
(1.00129 -0.00442753 -2.03666e-16)
(1.00207 -0.00450313 -6.77507e-17)
(1.00286 -0.00440835 -2.4519e-16)
(1.00361 -0.00415111 -1.07663e-16)
(1.0043 -0.00374036 -2.95395e-16)
(1.0049 -0.00320462 -1.0879e-16)
(1.00539 -0.00262675 4.72026e-17)
(0.997955 0.000645798 -3.05705e-17)
(0.997921 -0.000211649 -9.05782e-17)
(0.998035 -0.0010705 -1.08391e-17)
(0.998283 -0.0018899 1.06233e-16)
(0.99867 -0.00265055 -1.42144e-16)
(0.999184 -0.00332034 -1.04377e-16)
(0.999809 -0.00387052 4.04435e-16)
(1.00052 -0.00427839 -1.20789e-16)
(1.0013 -0.00452556 -5.16043e-16)
(1.00211 -0.00460153 7.10168e-17)
(1.00291 -0.00450298 -1.24496e-16)
(1.00369 -0.00423818 2.30293e-16)
(1.00439 -0.0038164 3.68781e-16)
(1.005 -0.00326692 3.28366e-16)
(1.00551 -0.00267354 -2.75087e-16)
(0.997875 0.000659781 1.83334e-18)
(0.997841 -0.000216835 -1.7472e-17)
(0.997957 -0.00109491 -7.23237e-17)
(0.998212 -0.00193264 4.50824e-17)
(0.99861 -0.00271033 -7.88173e-17)
(0.999139 -0.00339498 1.34427e-16)
(0.999781 -0.00395713 -1.16215e-16)
(1.00051 -0.00437348 3.98847e-17)
(1.00131 -0.00462519 -1.08167e-16)
(1.00214 -0.00470156 2.75175e-16)
(1.00297 -0.00459921 3.36656e-16)
(1.00376 -0.00432676 1.94556e-18)
(1.00448 -0.00389381 -5.86928e-16)
(1.00511 -0.00333038 -3.99263e-16)
(1.00562 -0.00272116 2.72156e-16)
(0.997794 0.00067384 4.09515e-17)