/*--------------------------------*- C++ -*----------------------------------*\
  =========                 |
  \\      /  F ield         | OpenFOAM: The Open Source CFD Toolbox
   \\    /   O peration     | Website:  https://openfoam.org
    \\  /    A nd           | Version:  6.0
     \\/     M anipulation  |
\*---------------------------------------------------------------------------*/
FoamFile
{
    version     2.0;
    format      ascii;
    class       volScalarField;
    location    "20";
    object      p;
}
// * * * * * * * * * * * * * * * * * * * * * * * * * * * * * * * * * * * * * //

dimensions      [0 2 -2 0 0 0 0];

internalField   nonuniform List<scalar> 
8000
(
-0.319212
-0.323476
-0.325972
-0.327438
-0.328314
-0.328674
-0.328596
-0.328163
-0.32744
-0.326482
-0.325335
-0.324038
-0.322626
-0.321127
-0.319566
-0.317968
-0.316351
-0.314699
-0.313015
-0.311621
-0.319874
-0.324091
-0.326547
-0.327974
-0.328812
-0.329133
-0.329019
-0.328549
-0.327791
-0.326799
-0.325619
-0.324289
-0.322845
-0.321315
-0.319725
-0.3181
-0.316456
-0.314779
-0.31307
-0.311665
-0.321199
-0.325322
-0.327696
-0.329046
-0.329806
-0.330052
-0.329863
-0.329322
-0.328493
-0.327432
-0.326184
-0.324789
-0.32328
-0.321688
-0.320039
-0.318357
-0.316661
-0.314933
-0.313173
-0.311749
-0.323193
-0.327172
-0.329422
-0.330655
-0.331298
-0.331429
-0.331129
-0.330478
-0.329543
-0.328378
-0.327028
-0.325533
-0.323928
-0.322241
-0.320501
-0.318734
-0.316958
-0.315152
-0.313313
-0.311863
-0.325861
-0.329644
-0.331726
-0.332801
-0.333286
-0.333264
-0.332813
-0.332016
-0.330939
-0.329633
-0.328146
-0.326517
-0.32478
-0.322966
-0.321103
-0.319218
-0.317332
-0.315418
-0.313472
-0.311988
-0.329213
-0.332744
-0.334611
-0.335485
-0.335771
-0.335554
-0.334915
-0.333934
-0.332676
-0.331195
-0.329535
-0.327735
-0.325831
-0.323853
-0.321831
-0.319795
-0.317765
-0.315711
-0.313628
-0.312105
-0.333258
-0.336477
-0.33808
-0.338707
-0.338751
-0.338298
-0.337431
-0.336228
-0.334754
-0.333059
-0.331189
-0.329181
-0.327072
-0.324892
-0.322673
-0.320447
-0.318238
-0.316006
-0.313751
-0.312185
-0.338011
-0.340851
-0.342135
-0.342468
-0.342225
-0.341494
-0.340359
-0.338896
-0.337167
-0.335223
-0.333105
-0.330852
-0.328497
-0.326075
-0.323616
-0.321158
-0.318727
-0.316273
-0.313806
-0.312191
-0.343486
-0.34587
-0.346778
-0.346767
-0.34619
-0.345138
-0.343695
-0.341935
-0.339916
-0.337685
-0.335282
-0.332744
-0.330103
-0.327393
-0.324647
-0.321909
-0.319205
-0.316478
-0.313748
-0.312078
-0.349697
-0.351542
-0.352009
-0.351602
-0.350642
-0.349228
-0.347438
-0.345344
-0.342999
-0.340446
-0.337722
-0.334859
-0.331889
-0.328844
-0.32576
-0.322684
-0.319648
-0.316581
-0.313524
-0.311787
-0.356657
-0.357868
-0.357826
-0.356966
-0.355576
-0.353755
-0.351581
-0.349119
-0.346416
-0.34351
-0.34043
-0.337205
-0.333863
-0.330432
-0.32695
-0.32347
-0.320029
-0.31654
-0.313072
-0.31124
-0.364375
-0.364846
-0.364222
-0.362853
-0.360983
-0.358714
-0.35612
-0.353258
-0.350169
-0.346881
-0.343417
-0.339795
-0.336038
-0.332169
-0.328226
-0.324264
-0.320325
-0.316308
-0.312312
-0.310337
-0.372852
-0.37247
-0.371184
-0.369247
-0.366849
-0.364093
-0.361046
-0.357759
-0.354261
-0.35057
-0.346698
-0.342652
-0.338442
-0.334085
-0.32961
-0.325076
-0.320526
-0.315838
-0.311149
-0.308943
-0.382077
-0.380721
-0.378695
-0.376132
-0.373158
-0.369876
-0.36635
-0.362617
-0.358695
-0.354589
-0.350296
-0.345808
-0.341119
-0.336227
-0.33115
-0.325941
-0.320641
-0.315092
-0.309471
-0.306875
-0.392027
-0.389573
-0.386726
-0.38348
-0.379886
-0.376046
-0.372017
-0.367824
-0.363472
-0.358952
-0.354241
-0.349312
-0.344133
-0.338677
-0.332934
-0.326941
-0.32072
-0.314054
-0.30714
-0.303872
-0.40266
-0.398987
-0.395243
-0.391259
-0.387004
-0.382577
-0.378029
-0.373372
-0.368596
-0.363677
-0.358572
-0.353228
-0.347581
-0.341563
-0.335119
-0.328242
-0.320906
-0.312781
-0.304035
-0.299627
-0.413915
-0.408911
-0.404199
-0.399431
-0.394479
-0.389442
-0.384364
-0.379246
-0.374066
-0.368783
-0.363335
-0.357642
-0.351601
-0.345091
-0.337984
-0.330196
-0.321609
-0.311684
-0.300387
-0.294035
-0.425713
-0.419282
-0.413542
-0.407949
-0.40227
-0.396605
-0.390995
-0.385428
-0.379875
-0.374285
-0.368579
-0.362653
-0.356365
-0.349528
-0.341922
-0.333343
-0.323532
-0.311518
-0.296426
-0.286015
-0.437958
-0.430026
-0.423212
-0.416761
-0.410333
-0.40403
-0.397888
-0.391893
-0.386011
-0.38019
-0.374346
-0.368361
-0.362062
-0.355193
-0.347399
-0.338272
-0.327188
-0.312035
-0.289472
-0.269303
-0.45054
-0.44106
-0.433142
-0.425813
-0.418621
-0.411673
-0.405005
-0.398604
-0.392445
-0.386486
-0.380667
-0.374896
-0.369025
-0.362813
-0.355873
-0.347649
-0.336971
-0.320017
-0.290318
-0.259961
-0.463343
-0.4523
-0.443264
-0.435048
-0.427085
-0.419488
-0.412298
-0.405507
-0.399106
-0.393085
-0.387437
-0.382162
-0.37727
-0.372801
-0.368877
-0.365784
-0.363823
-0.363191
-0.367758
-0.392572
-0.476253
-0.463657
-0.45351
-0.444408
-0.435675
-0.427428
-0.419713
-0.412528
-0.405877
-0.399777
-0.394264
-0.389396
-0.385277
-0.382074
-0.380077
-0.379722
-0.381448
-0.386118
-0.398426
-0.42573
-0.489158
-0.475048
-0.463813
-0.453839
-0.444343
-0.43545
-0.427205
-0.41961
-0.412675
-0.406435
-0.400944
-0.396289
-0.392601
-0.390073
-0.388991
-0.389713
-0.39253
-0.398079
-0.409634
-0.429902
-0.501959
-0.486393
-0.474106
-0.463287
-0.453048
-0.443515
-0.434738
-0.426713
-0.419455
-0.412999
-0.407408
-0.402769
-0.399209
-0.3969
-0.396071
-0.396967
-0.399728
-0.404755
-0.414323
-0.42882
-0.514566
-0.497616
-0.484327
-0.472698
-0.461742
-0.451586
-0.442278
-0.433805
-0.42618
-0.419433
-0.413616
-0.408806
-0.405101
-0.402628
-0.401541
-0.401968
-0.403915
-0.407623
-0.414814
-0.42472
-0.526894
-0.508641
-0.494408
-0.482014
-0.470374
-0.459616
-0.44978
-0.440845
-0.432811
-0.425697
-0.41954
-0.414389
-0.410309
-0.407376
-0.405669
-0.405225
-0.405958
-0.408022
-0.41281
-0.418879
-0.538865
-0.51939
-0.504278
-0.491169
-0.478884
-0.467548
-0.45719
-0.447777
-0.439293
-0.431742
-0.425137
-0.419501
-0.414861
-0.411247
-0.408678
-0.407127
-0.406457
-0.406787
-0.40928
-0.412081
-0.550396
-0.529783
-0.513856
-0.500086
-0.487198
-0.475308
-0.464435
-0.454527
-0.445554
-0.437497
-0.43035
-0.424105
-0.418759
-0.414301
-0.410711
-0.407918
-0.405767
-0.404365
-0.404695
-0.404673
-0.561397
-0.539725
-0.523053
-0.508675
-0.495226
-0.482807
-0.471423
-0.461004
-0.4515
-0.442876
-0.435101
-0.428145
-0.421978
-0.416561
-0.411847
-0.407744
-0.404097
-0.401013
-0.399318
-0.39684
-0.571765
-0.549115
-0.531764
-0.516834
-0.502863
-0.489938
-0.478045
-0.467096
-0.457023
-0.447772
-0.439296
-0.431546
-0.424471
-0.418017
-0.412121
-0.406684
-0.401567
-0.396875
-0.393295
-0.388683
-0.58138
-0.557833
-0.539872
-0.524445
-0.509991
-0.496578
-0.484176
-0.472677
-0.461997
-0.452068
-0.442828
-0.434216
-0.426171
-0.418631
-0.411528
-0.404768
-0.398229
-0.392022
-0.386702
-0.380245
-0.590109
-0.565748
-0.547246
-0.531375
-0.516474
-0.502592
-0.489678
-0.477608
-0.466286
-0.455632
-0.445577
-0.436053
-0.426998
-0.418347
-0.410038
-0.401986
-0.394095
-0.386473
-0.379562
-0.371524
-0.597798
-0.572713
-0.553742
-0.537479
-0.522167
-0.50783
-0.4944
-0.481741
-0.469744
-0.458326
-0.447416
-0.436946
-0.426857
-0.417092
-0.407597
-0.398303
-0.389141
-0.380214
-0.37186
-0.362484
-0.604281
-0.57857
-0.559203
-0.542602
-0.526911
-0.512133
-0.498185
-0.484916
-0.472217
-0.460005
-0.448211
-0.436776
-0.425647
-0.414781
-0.404137
-0.393666
-0.383323
-0.373202
-0.363555
-0.353063
-0.609378
-0.583149
-0.563464
-0.546578
-0.530542
-0.515336
-0.500864
-0.486972
-0.47355
-0.460522
-0.447827
-0.435418
-0.42326
-0.411322
-0.39958
-0.388006
-0.376578
-0.365379
-0.354584
-0.34318
-0.612901
-0.586271
-0.566352
-0.549234
-0.532886
-0.517266
-0.50227
-0.487744
-0.473584
-0.459725
-0.446124
-0.432751
-0.419586
-0.406617
-0.39384
-0.381246
-0.368834
-0.356673
-0.344873
-0.332739
-0.614655
-0.587755
-0.567688
-0.550394
-0.533768
-0.517749
-0.502231
-0.487064
-0.472159
-0.457469
-0.442969
-0.42865
-0.414514
-0.40057
-0.386829
-0.373305
-0.360013
-0.347007
-0.334338
-0.321642
-0.614443
-0.587414
-0.56729
-0.549878
-0.53301
-0.516611
-0.500576
-0.48477
-0.469122
-0.453608
-0.438228
-0.422997
-0.40794
-0.393084
-0.378462
-0.364102
-0.350038
-0.3363
-0.322895
-0.309788
-0.612072
-0.585065
-0.56498
-0.54751
-0.530437
-0.513679
-0.497139
-0.480702
-0.464323
-0.448006
-0.431778
-0.415681
-0.399762
-0.384071
-0.368655
-0.35356
-0.338832
-0.324477
-0.310463
-0.297081
-0.607353
-0.580528
-0.560582
-0.543116
-0.525879
-0.508788
-0.491762
-0.474712
-0.457624
-0.440536
-0.423504
-0.406598
-0.38989
-0.373448
-0.357334
-0.34161
-0.326327
-0.311468
-0.296964
-0.283432
-0.600109
-0.573633
-0.55393
-0.536531
-0.519175
-0.501782
-0.484295
-0.466659
-0.448898
-0.431082
-0.413304
-0.39566
-0.378245
-0.361145
-0.344436
-0.32819
-0.312463
-0.297211
-0.282335
-0.268764
-0.590169
-0.564215
-0.54486
-0.527597
-0.51017
-0.492513
-0.4746
-0.456417
-0.438028
-0.419544
-0.401089
-0.382789
-0.36476
-0.347104
-0.329908
-0.31325
-0.297192
-0.281657
-0.266519
-0.253013
-0.577383
-0.55213
-0.533231
-0.516171
-0.498727
-0.480851
-0.462558
-0.443877
-0.42492
-0.405838
-0.386789
-0.367927
-0.349387
-0.331284
-0.313712
-0.296758
-0.280479
-0.26477
-0.249477
-0.23613
-0.561623
-0.53725
-0.518914
-0.502131
-0.484728
-0.466686
-0.448065
-0.428949
-0.409497
-0.3899
-0.370353
-0.351032
-0.332092
-0.313657
-0.295827
-0.278691
-0.262305
-0.246529
-0.231182
-0.218078
-0.542781
-0.519466
-0.501803
-0.485369
-0.46807
-0.449924
-0.431042
-0.411565
-0.391702
-0.371688
-0.351749
-0.332084
-0.312862
-0.294216
-0.276249
-0.259048
-0.242665
-0.226928
-0.211624
-0.198839
-0.520776
-0.498695
-0.481812
-0.465804
-0.448679
-0.430498
-0.411431
-0.391679
-0.371504
-0.351182
-0.330967
-0.311081
-0.291704
-0.272972
-0.254989
-0.237842
-0.221573
-0.205977
-0.190809
-0.178411
-0.495551
-0.474877
-0.458881
-0.443377
-0.426501
-0.408364
-0.3892
-0.369273
-0.348895
-0.328384
-0.308021
-0.288044
-0.268643
-0.249955
-0.232081
-0.215104
-0.199059
-0.183705
-0.168761
-0.156808
-0.467082
-0.447982
-0.432977
-0.418058
-0.401511
-0.383507
-0.364345
-0.344351
-0.323893
-0.303323
-0.282947
-0.263017
-0.243727
-0.225216
-0.207575
-0.190885
-0.175171
-0.160159
-0.14552
-0.134062
-0.435377
-0.41801
-0.404096
-0.389846
-0.373715
-0.35594
-0.336887
-0.316949
-0.296541
-0.276051
-0.255804
-0.236064
-0.217026
-0.198823
-0.181543
-0.165255
-0.149978
-0.135402
-0.121147
-0.110222
-0.400473
-0.384991
-0.372268
-0.358769
-0.343147
-0.325704
-0.306878
-0.287126
-0.266909
-0.246645
-0.226676
-0.207273
-0.188628
-0.170869
-0.154074
-0.138303
-0.123568
-0.109521
-0.0957237
-0.0853591
-0.362443
-0.348987
-0.337549
-0.324887
-0.30987
-0.292871
-0.274398
-0.25497
-0.235092
-0.215205
-0.195668
-0.17675
-0.158643
-0.141464
-0.12528
-0.11014
-0.0960485
-0.0826243
-0.0693542
-0.0595672
-0.321395
-0.310097
-0.300033
-0.288294
-0.273982
-0.257543
-0.239555
-0.220595
-0.201207
-0.181854
-0.162903
-0.144624
-0.127199
-0.110737
-0.0952894
-0.080897
-0.0675526
-0.0548439
-0.0421705
-0.0329674
-0.27747
-0.268448
-0.259843
-0.249112
-0.235608
-0.21985
-0.202483
-0.184139
-0.165396
-0.146735
-0.128526
-0.111037
-0.0944408
-0.0788328
-0.0642508
-0.0507232
-0.038234
-0.0263392
-0.014336
-0.00571495
-0.230843
-0.224203
-0.217137
-0.207497
-0.194905
-0.17995
-0.163341
-0.145762
-0.127819
-0.110005
-0.0926939
-0.0761455
-0.0605232
-0.0459087
-0.032325
-0.0197867
-0.00826967
0.00270018
0.0139463
0.0219916
-0.181724
-0.177558
-0.172102
-0.163636
-0.152057
-0.138027
-0.122313
-0.105644
-0.0886512
-0.0718374
-0.0555737
-0.0401132
-0.0256085
-0.0121283
0.000318697
0.0117317
0.0221418
0.032049
0.0424194
0.0498899
-0.130353
-0.128741
-0.124958
-0.117742
-0.107276
-0.0942895
-0.0796023
-0.0639838
-0.0480848
-0.0324134
-0.017338
-0.00310402
0.0101453
0.0223514
0.0335173
0.0436531
0.0527929
0.0614534
0.0707678
0.0776319
-0.0770062
-0.0780075
-0.0759531
-0.0700597
-0.0608014
-0.04897
-0.0354337
-0.0209955
-0.00632111
0.00807917
0.021841
0.0347252
0.0465952
0.0573974
0.0671395
0.075837
0.0835193
0.090697
0.0986681
0.10479
-0.0219842
-0.0256434
-0.0253627
-0.0208564
-0.0128931
-0.00232143
0.00995034
0.0230917
0.0364274
0.0494477
0.0617929
0.0732286
0.0836194
0.0929078
0.101094
0.10819
0.114208
0.119578
0.125628
0.13053
0.0343836
0.0280407
0.0265136
0.0295758
0.036165
0.045383
0.0562895
0.0680338
0.079937
0.0914939
0.102351
0.112275
0.121127
0.12883
0.13535
0.140668
0.144724
0.147601
0.150178
0.152353
0.0917433
0.0827109
0.0793533
0.0809238
0.0860695
0.0938512
0.103305
0.11357
0.123969
0.134008
0.143346
0.151758
0.159101
0.165277
0.170211
0.17384
0.175936
0.175723
0.172835
0.170431
0.149719
0.138012
0.132814
0.132855
0.136499
0.142773
0.1507
0.159416
0.168257
0.176747
0.184568
0.191518
0.197481
0.20239
0.206226
0.20906
0.21079
0.210109
0.206089
0.211567
0.207941
0.193588
0.186549
0.185031
0.187123
0.191828
0.198164
0.205271
0.212504
0.219412
0.225701
0.231201
0.235828
0.239556
0.242427
0.244599
0.246099
0.246031
0.244426
0.252219
0.266012
0.249061
0.240193
0.237098
0.237598
0.240684
0.245375
0.250821
0.2564
0.261686
0.266413
0.270434
0.273691
0.276181
0.277971
0.279223
0.279968
0.279495
0.278066
0.284918
0.323532
0.304049
0.293377
0.288695
0.287578
0.289007
0.29201
0.295754
0.299639
0.303268
0.306399
0.308905
0.310746
0.311934
0.312543
0.312724
0.312499
0.311238
0.309218
0.314457
0.380105
0.358171
0.34573
0.339468
0.336719
0.336467
0.337753
0.339765
0.34193
0.343875
0.345381
0.346341
0.346724
0.346552
0.345897
0.344897
0.34356
0.341322
0.338478
0.342081
0.435341
0.411051
0.396888
0.38906
0.384681
0.382738
0.382296
0.382563
0.382994
0.383243
0.383111
0.382507
0.381408
0.37984
0.377873
0.375628
0.373103
0.369798
0.366031
0.368019
0.488858
0.462318
0.44649
0.437126
0.431132
0.427507
0.425341
0.423868
0.422571
0.42113
0.419365
0.417198
0.414616
0.411645
0.408351
0.404844
0.401112
0.39672
0.392002
0.392404
0.540284
0.511612
0.494188
0.483329
0.475751
0.47047
0.466603
0.463415
0.460415
0.457309
0.453937
0.450232
0.446187
0.441832
0.437228
0.432472
0.427551
0.422091
0.41643
0.415292
0.589264
0.558587
0.539644
0.527345
0.51823
0.511337
0.505814
0.500953
0.496297
0.491572
0.486638
0.481439
0.475975
0.470275
0.4644
0.458434
0.452367
0.445881
0.439306
0.436686
0.635459
0.602912
0.582539
0.568867
0.558277
0.549834
0.542717
0.536249
0.53
0.523722
0.517291
0.510662
0.503839
0.496855
0.489766
0.482649
0.475493
0.468037
0.460589
0.45656
0.678548
0.644275
0.622568
0.607603
0.595618
0.585704
0.577074
0.569081
0.561323
0.553576
0.54573
0.537751
0.529648
0.521456
0.513226
0.505027
0.496854
0.488494
0.480226
0.474872
0.718233
0.682384
0.659449
0.643283
0.629996
0.618707
0.608662
0.599245
0.590079
0.580963
0.571801
0.562567
0.553277
0.543963
0.534678
0.525481
0.516372
0.507181
0.498153
0.49157
0.754239
0.71697
0.692922
0.675656
0.661175
0.648623
0.637278
0.626553
0.616097
0.605726
0.59536
0.584981
0.574606
0.564272
0.554026
0.543922
0.533964
0.524023
0.514302
0.506597
0.786315
0.74779
0.722749
0.704498
0.688942
0.675252
0.662737
0.650835
0.639219
0.627722
0.616277
0.604871
0.593527
0.582281
0.571178
0.560266
0.549553
0.538947
0.528607
0.519896
0.814237
0.774624
0.748719
0.729606
0.713106
0.698417
0.684874
0.671939
0.659306
0.646824
0.634434
0.622132
0.609941
0.5979
0.58605
0.574435
0.563066
0.551882
0.541002
0.531411
0.837811
0.797284
0.770649
0.750803
0.733502
0.717962
0.703546
0.689734
0.676237
0.662918
0.649728
0.636666
0.62376
0.611046
0.598565
0.586357
0.574436
0.562766
0.551429
0.541091
0.856871
0.815607
0.788382
0.767943
0.749989
0.733758
0.718631
0.704106
0.689907
0.67591
0.662071
0.648394
0.634908
0.62165
0.608659
0.595971
0.583605
0.571543
0.559837
0.548892
0.871285
0.829466
0.801794
0.780904
0.762455
0.745699
0.730032
0.714965
0.700235
0.685723
0.671392
0.657249
0.643324
0.629655
0.616278
0.603228
0.590524
0.578167
0.566181
0.554777
0.880951
0.838759
0.810788
0.789595
0.770813
0.753704
0.737674
0.722243
0.707155
0.692297
0.677636
0.66318
0.648961
0.635016
0.621381
0.608087
0.595158
0.582603
0.570429
0.558716
0.885801
0.843423
0.815302
0.793956
0.775007
0.75772
0.741508
0.725894
0.710626
0.695595
0.680767
0.666155
0.651788
0.637704
0.623939
0.610524
0.597482
0.584827
0.572559
0.560691
0.885801
0.843423
0.815302
0.793956
0.775007
0.75772
0.741508
0.725894
0.710626
0.695595
0.680767
0.666155
0.651788
0.637704
0.623939
0.610524
0.597482
0.584827
0.572559
0.560691
0.880951
0.83876
0.810788
0.789595
0.770813
0.753704
0.737674
0.722243
0.707155
0.692297
0.677636
0.663181
0.648962
0.635016
0.621381
0.608087
0.595159
0.582603
0.570429
0.558716
0.871285
0.829466
0.801794
0.780904
0.762455
0.745699
0.730032
0.714965
0.700235
0.685723
0.671392
0.657249
0.643324
0.629655
0.616278
0.603228
0.590525
0.578167
0.566181
0.554777
0.856872
0.815608
0.788383
0.767943
0.749989
0.733759
0.718631
0.704106
0.689908
0.67591
0.662071
0.648394
0.634908
0.621651
0.60866
0.595972
0.583605
0.571543
0.559837
0.548892
0.837811
0.797284
0.770649
0.750804
0.733502
0.717963
0.703546
0.689734
0.676237
0.662918
0.649728
0.636667
0.62376
0.611047
0.598566
0.586357
0.574436
0.562766
0.55143
0.541091
0.814238
0.774625
0.74872
0.729606
0.713107
0.698417
0.684875
0.67194
0.659307
0.646824
0.634434
0.622132
0.609942
0.5979
0.58605
0.574435
0.563067
0.551883
0.541003
0.531411
0.786316
0.74779
0.722749
0.704499
0.688943
0.675253
0.662738
0.650836
0.639219
0.627723
0.616277
0.604872
0.593528
0.582282
0.571179
0.560267
0.549554
0.538947
0.528607
0.519896
0.75424
0.716971
0.692922
0.675657
0.661176
0.648624
0.637279
0.626554
0.616097
0.605727
0.595361
0.584981
0.574607
0.564273
0.554027
0.543923
0.533965
0.524024
0.514303
0.506597
0.718234
0.682385
0.65945
0.643284
0.629997
0.618708
0.608663
0.599246
0.59008
0.580964
0.571802
0.562568
0.553277
0.543964
0.534679
0.525482
0.516372
0.507182
0.498153
0.491571
0.678549
0.644276
0.622569
0.607604
0.595619
0.585705
0.577075
0.569082
0.561324
0.553577
0.545731
0.537752
0.529649
0.521456
0.513227
0.505028
0.496855
0.488495
0.480226
0.474873
0.63546
0.602913
0.58254
0.568868
0.558279
0.549835
0.542718
0.53625
0.530001
0.523723
0.517292
0.510663
0.50384
0.496856
0.489767
0.482649
0.475494
0.468037
0.46059
0.456561
0.589265
0.558588
0.539646
0.527347
0.518231
0.511338
0.505815
0.500955
0.496298
0.491573
0.486639
0.48144
0.475976
0.470276
0.464401
0.458435
0.452368
0.445881
0.439306
0.436687
0.540285
0.511614
0.494189
0.483331
0.475752
0.470471
0.466605
0.463416
0.460416
0.45731
0.453938
0.450233
0.446188
0.441833
0.437229
0.432473
0.427552
0.422092
0.416431
0.415293
0.488859
0.46232
0.446492
0.437128
0.431133
0.427509
0.425342
0.423869
0.422572
0.421131
0.419366
0.417199
0.414617
0.411646
0.408353
0.404845
0.401113
0.396721
0.392003
0.392405
0.435343
0.411053
0.396889
0.389062
0.384683
0.38274
0.382297
0.382564
0.382995
0.383244
0.383113
0.382508
0.381409
0.379841
0.377874
0.375629
0.373104
0.369799
0.366032
0.36802
0.380107
0.358173
0.345732
0.339469
0.336721
0.336468
0.337755
0.339767
0.341931
0.343876
0.345383
0.346342
0.346725
0.346553
0.345898
0.344898
0.343561
0.341323
0.338479
0.342082
0.323534
0.30405
0.293378
0.288697
0.28758
0.289009
0.292012
0.295755
0.299641
0.30327
0.3064
0.308907
0.310747
0.311935
0.312544
0.312725
0.3125
0.311239
0.309219
0.314458
0.266014
0.249063
0.240195
0.237099
0.2376
0.240685
0.245376
0.250823
0.256401
0.261687
0.266414
0.270436
0.273692
0.276182
0.277972
0.279224
0.279969
0.279496
0.278067
0.284919
0.207943
0.19359
0.186551
0.185033
0.187125
0.19183
0.198166
0.205273
0.212506
0.219413
0.225702
0.231202
0.235829
0.239557
0.242428
0.244601
0.2461
0.246032
0.244427
0.25222
0.149721
0.138014
0.132816
0.132857
0.1365
0.142775
0.150702
0.159418
0.168259
0.176749
0.184569
0.191519
0.197482
0.202391
0.206227
0.209061
0.210791
0.21011
0.20609
0.211568
0.0917454
0.082713
0.0793554
0.0809258
0.0860715
0.0938531
0.103307
0.113571
0.123971
0.13401
0.143348
0.15176
0.159102
0.165278
0.170213
0.173841
0.175937
0.175725
0.172837
0.170432
0.0343858
0.0280429
0.0265157
0.0295779
0.0361671
0.0453851
0.0562914
0.0680357
0.0799388
0.0914957
0.102352
0.112277
0.121129
0.128832
0.135352
0.140669
0.144726
0.147602
0.150179
0.152355
-0.0219819
-0.0256412
-0.0253605
-0.0208543
-0.012891
-0.00231937
0.00995234
0.0230936
0.0364293
0.0494495
0.0617947
0.0732303
0.083621
0.0929094
0.101096
0.108191
0.114209
0.11958
0.125629
0.130531
-0.0770039
-0.0780052
-0.0759508
-0.0700575
-0.0607992
-0.0489679
-0.0354317
-0.0209935
-0.00631918
0.00808105
0.0218428
0.034727
0.0465969
0.057399
0.0671411
0.0758386
0.0835209
0.0906985
0.0986696
0.104791
-0.130351
-0.128739
-0.124956
-0.11774
-0.107274
-0.0942874
-0.0796002
-0.0639817
-0.0480828
-0.0324115
-0.0173361
-0.0031022
0.0101471
0.0223531
0.033519
0.0436548
0.0527944
0.0614549
0.0707693
0.0776334
-0.181721
-0.177556
-0.1721
-0.163634
-0.152055
-0.138025
-0.122311
-0.105642
-0.0886492
-0.0718354
-0.0555718
-0.0401113
-0.0256067
-0.0121266
0.00032041
0.0117334
0.0221434
0.0320506
0.042421
0.0498915
-0.230841
-0.224201
-0.217134
-0.207495
-0.194902
-0.179948
-0.163339
-0.14576
-0.127816
-0.110003
-0.0926919
-0.0761436
-0.0605214
-0.0459069
-0.0323233
-0.019785
-0.00826801
0.0027018
0.0139478
0.0219931
-0.277468
-0.268445
-0.259841
-0.24911
-0.235606
-0.219848
-0.202481
-0.184137
-0.165394
-0.146733
-0.128524
-0.111035
-0.0944389
-0.0788309
-0.064249
-0.0507214
-0.0382323
-0.0263376
-0.0143344
-0.00571337
-0.321393
-0.310094
-0.300031
-0.288291
-0.27398
-0.257541
-0.239553
-0.220593
-0.201205
-0.181852
-0.162901
-0.144622
-0.127198
-0.110735
-0.0952876
-0.0808952
-0.0675509
-0.0548422
-0.0421688
-0.0329658
-0.362441
-0.348985
-0.337547
-0.324885
-0.309868
-0.292869
-0.274396
-0.254968
-0.23509
-0.215203
-0.195666
-0.176748
-0.158641
-0.141463
-0.125278
-0.110139
-0.0960468
-0.0826226
-0.0693526
-0.0595655
-0.40047
-0.384988
-0.372265
-0.358766
-0.343144
-0.325701
-0.306876
-0.287124
-0.266907
-0.246642
-0.226674
-0.207271
-0.188626
-0.170868
-0.154072
-0.138301
-0.123566
-0.109519
-0.0957219
-0.0853574
-0.435374
-0.418007
-0.404094
-0.389843
-0.373713
-0.355937
-0.336884
-0.316947
-0.296539
-0.276048
-0.255802
-0.236062
-0.217024
-0.198821
-0.181541
-0.165253
-0.149976
-0.1354
-0.121145
-0.11022
-0.46708
-0.44798
-0.432974
-0.418056
-0.401509
-0.383505
-0.364342
-0.344349
-0.323891
-0.30332
-0.282945
-0.263015
-0.243725
-0.225214
-0.207573
-0.190883
-0.175169
-0.160157
-0.145518
-0.13406
-0.495548
-0.474874
-0.458878
-0.443375
-0.426498
-0.408362
-0.389198
-0.369271
-0.348893
-0.328382
-0.308019
-0.288042
-0.268641
-0.249953
-0.232079
-0.215102
-0.199057
-0.183704
-0.168759
-0.156806
-0.520773
-0.498692
-0.481809
-0.465802
-0.448676
-0.430496
-0.411429
-0.391677
-0.371502
-0.35118
-0.330965
-0.311079
-0.291702
-0.27297
-0.254987
-0.23784
-0.221571
-0.205975
-0.190807
-0.178409
-0.542779
-0.519464
-0.501801
-0.485367
-0.468068
-0.449922
-0.43104
-0.411563
-0.3917
-0.371686
-0.351747
-0.332082
-0.31286
-0.294214
-0.276247
-0.259046
-0.242663
-0.226926
-0.211622
-0.198837
-0.561621
-0.537247
-0.518912
-0.502129
-0.484725
-0.466684
-0.448063
-0.428947
-0.409494
-0.389898
-0.370351
-0.35103
-0.33209
-0.313655
-0.295825
-0.278689
-0.262303
-0.246527
-0.23118
-0.218076
-0.577381
-0.552128
-0.533228
-0.516169
-0.498725
-0.480849
-0.462556
-0.443875
-0.424918
-0.405836
-0.386787
-0.367925
-0.349385
-0.331281
-0.31371
-0.296756
-0.280477
-0.264768
-0.249475
-0.236128
-0.590166
-0.564213
-0.544858
-0.527594
-0.510168
-0.49251
-0.474598
-0.456415
-0.438026
-0.419542
-0.401087
-0.382787
-0.364758
-0.347102
-0.329906
-0.313248
-0.29719
-0.281655
-0.266517
-0.253012
-0.600107
-0.573631
-0.553927
-0.536529
-0.519173
-0.50178
-0.484293
-0.466657
-0.448895
-0.43108
-0.413302
-0.395658
-0.378243
-0.361143
-0.344434
-0.328188
-0.312461
-0.297209
-0.282333
-0.268762
-0.607351
-0.580526
-0.56058
-0.543114
-0.525877
-0.508786
-0.49176
-0.47471
-0.457622
-0.440533
-0.423502
-0.406596
-0.389888
-0.373446
-0.357332
-0.341608
-0.326325
-0.311466
-0.296962
-0.28343
-0.61207
-0.585063
-0.564978
-0.547508
-0.530435
-0.513677
-0.497137
-0.4807
-0.464321
-0.448004
-0.431776
-0.415679
-0.39976
-0.384069
-0.368653
-0.353558
-0.33883
-0.324475
-0.310461
-0.297079
-0.614441
-0.587412
-0.567288
-0.549876
-0.533008
-0.516609
-0.500574
-0.484768
-0.46912
-0.453606
-0.438226
-0.422995
-0.407938
-0.393082
-0.37846
-0.3641
-0.350036
-0.336298
-0.322893
-0.309786
-0.614653
-0.587753
-0.567686
-0.550392
-0.533766
-0.517747
-0.502229
-0.487062
-0.472157
-0.457467
-0.442967
-0.428648
-0.414512
-0.400568
-0.386827
-0.373303
-0.360011
-0.347005
-0.334336
-0.32164
-0.612899
-0.586269
-0.56635
-0.549232
-0.532884
-0.517264
-0.502268
-0.487742
-0.473582
-0.459723
-0.446122
-0.432749
-0.419584
-0.406615
-0.393838
-0.381244
-0.368832
-0.356671
-0.344871
-0.332737
-0.609376
-0.583147
-0.563463
-0.546576
-0.53054
-0.515334
-0.500863
-0.486971
-0.473549
-0.46052
-0.447825
-0.435417
-0.423258
-0.41132
-0.399578
-0.388004
-0.376576
-0.365377
-0.354582
-0.343178
-0.604279
-0.578568
-0.559201
-0.5426
-0.52691
-0.512132
-0.498183
-0.484914
-0.472216
-0.460004
-0.448209
-0.436774
-0.425645
-0.414779
-0.404135
-0.393664
-0.383321
-0.3732
-0.363553
-0.353061
-0.597796
-0.572711
-0.55374
-0.537477
-0.522165
-0.507828
-0.494399
-0.481739
-0.469742
-0.458324
-0.447414
-0.436944
-0.426855
-0.41709
-0.407595
-0.398301
-0.38914
-0.380212
-0.371858
-0.362482
-0.590107
-0.565746
-0.547244
-0.531373
-0.516473
-0.50259
-0.489676
-0.477607
-0.466284
-0.45563
-0.445575
-0.436052
-0.426996
-0.418346
-0.410036
-0.401984
-0.394093
-0.386471
-0.37956
-0.371522
-0.581379
-0.557831
-0.53987
-0.524443
-0.509989
-0.496577
-0.484174
-0.472675
-0.461995
-0.452066
-0.442826
-0.434214
-0.42617
-0.418629
-0.411526
-0.404766
-0.398227
-0.39202
-0.3867
-0.380243
-0.571763
-0.549113
-0.531762
-0.516833
-0.502862
-0.489936
-0.478043
-0.467094
-0.457021
-0.447771
-0.439294
-0.431544
-0.424469
-0.418015
-0.412119
-0.406683
-0.401565
-0.396873
-0.393294
-0.388681
-0.561396
-0.539724
-0.523051
-0.508674
-0.495224
-0.482805
-0.471421
-0.461002
-0.451499
-0.442874
-0.435099
-0.428144
-0.421976
-0.41656
-0.411845
-0.407742
-0.404095
-0.401011
-0.399316
-0.396838
-0.550395
-0.529781
-0.513855
-0.500084
-0.487196
-0.475307
-0.464434
-0.454526
-0.445552
-0.437496
-0.430348
-0.424104
-0.418757
-0.414299
-0.410709
-0.407916
-0.405765
-0.404363
-0.404693
-0.404671
-0.538864
-0.519389
-0.504276
-0.491167
-0.478883
-0.467547
-0.457189
-0.447776
-0.439292
-0.431741
-0.425136
-0.4195
-0.41486
-0.411245
-0.408677
-0.407126
-0.406456
-0.406785
-0.409278
-0.412079
-0.526893
-0.508639
-0.494407
-0.482013
-0.470373
-0.459615
-0.449779
-0.440844
-0.43281
-0.425696
-0.419538
-0.414388
-0.410308
-0.407374
-0.405668
-0.405224
-0.405956
-0.40802
-0.412808
-0.418877
-0.514564
-0.497615
-0.484326
-0.472697
-0.46174
-0.451585
-0.442276
-0.433804
-0.426179
-0.419432
-0.413615
-0.408805
-0.4051
-0.402627
-0.401539
-0.401966
-0.403913
-0.407621
-0.414812
-0.424718
-0.501958
-0.486392
-0.474105
-0.463286
-0.453047
-0.443514
-0.434737
-0.426712
-0.419454
-0.412998
-0.407406
-0.402768
-0.399208
-0.396899
-0.39607
-0.396966
-0.399726
-0.404753
-0.414321
-0.428818
-0.489157
-0.475047
-0.463811
-0.453838
-0.444342
-0.435448
-0.427204
-0.419609
-0.412674
-0.406434
-0.400943
-0.396288
-0.3926
-0.390072
-0.388989
-0.389712
-0.392529
-0.398077
-0.409632
-0.4299
-0.476252
-0.463656
-0.453509
-0.444407
-0.435674
-0.427427
-0.419712
-0.412527
-0.405876
-0.399777
-0.394263
-0.389395
-0.385276
-0.382072
-0.380075
-0.379721
-0.381447
-0.386116
-0.398424
-0.425728
-0.463342
-0.452299
-0.443263
-0.435047
-0.427084
-0.419487
-0.412297
-0.405507
-0.399105
-0.393084
-0.387436
-0.382161
-0.377269
-0.3728
-0.368876
-0.365782
-0.363822
-0.363189
-0.367756
-0.39257
-0.450539
-0.441059
-0.433141
-0.425812
-0.41862
-0.411672
-0.405004
-0.398603
-0.392444
-0.386485
-0.380666
-0.374895
-0.369024
-0.362812
-0.355872
-0.347648
-0.336969
-0.320015
-0.290316
-0.259959
-0.437957
-0.430025
-0.423211
-0.41676
-0.410332
-0.404029
-0.397887
-0.391892
-0.38601
-0.380189
-0.374345
-0.36836
-0.362061
-0.355192
-0.347397
-0.338271
-0.327187
-0.312034
-0.289471
-0.269301
-0.425712
-0.419281
-0.413541
-0.407948
-0.402269
-0.396605
-0.390994
-0.385427
-0.379875
-0.374284
-0.368578
-0.362652
-0.356364
-0.349527
-0.341921
-0.333342
-0.32353
-0.311517
-0.296425
-0.286014
-0.413914
-0.40891
-0.404198
-0.39943
-0.394478
-0.389441
-0.384363
-0.379245
-0.374065
-0.368782
-0.363335
-0.357641
-0.351601
-0.34509
-0.337983
-0.330195
-0.321608
-0.311682
-0.300385
-0.294033
-0.402659
-0.398985
-0.395242
-0.391258
-0.387003
-0.382576
-0.378028
-0.373371
-0.368596
-0.363676
-0.358571
-0.353227
-0.34758
-0.341562
-0.335118
-0.328241
-0.320904
-0.312779
-0.304034
-0.299626
-0.392026
-0.389572
-0.386725
-0.383479
-0.379885
-0.376045
-0.372016
-0.367823
-0.363472
-0.358951
-0.35424
-0.349311
-0.344133
-0.338676
-0.332933
-0.32694
-0.320719
-0.314052
-0.307139
-0.30387
-0.382076
-0.38072
-0.378694
-0.376131
-0.373157
-0.369875
-0.366349
-0.362616
-0.358694
-0.354588
-0.350295
-0.345808
-0.341118
-0.336226
-0.331149
-0.32594
-0.32064
-0.315091
-0.30947
-0.306874
-0.372851
-0.372469
-0.371183
-0.369246
-0.366849
-0.364092
-0.361046
-0.357759
-0.354261
-0.35057
-0.346697
-0.342651
-0.338442
-0.334084
-0.329609
-0.325075
-0.320525
-0.315837
-0.311148
-0.308942
-0.364374
-0.364845
-0.364221
-0.362852
-0.360982
-0.358713
-0.356119
-0.353258
-0.350169
-0.346881
-0.343416
-0.339795
-0.336037
-0.332169
-0.328225
-0.324264
-0.320325
-0.316307
-0.312311
-0.310336
-0.356656
-0.357867
-0.357825
-0.356965
-0.355576
-0.353755
-0.351581
-0.349118
-0.346415
-0.343509
-0.34043
-0.337205
-0.333862
-0.330431
-0.326949
-0.32347
-0.320028
-0.316539
-0.313071
-0.311239
-0.349696
-0.351541
-0.352008
-0.351601
-0.350642
-0.349227
-0.347437
-0.345343
-0.342998
-0.340446
-0.337722
-0.334859
-0.331889
-0.328843
-0.325759
-0.322683
-0.319647
-0.31658
-0.313523
-0.311786
-0.343485
-0.345869
-0.346777
-0.346766
-0.346189
-0.345138
-0.343695
-0.341935
-0.339916
-0.337685
-0.335282
-0.332743
-0.330102
-0.327392
-0.324647
-0.321908
-0.319204