1.45 	0 	0 	-0.293321
2.35 	0 	0 	-0.128469
