1.45 	0 	0 	-0.299072
2.35 	0 	0 	-0.132833
