1.275 	2.15223e-18 	-2.76991e-20 	0.0817152 	-0.00697294 	-1.58916e-22
1.825 	2.15223e-18 	-1.39322e-20 	0.334722 	-0.00981651 	2.57553e-22
2.375 	2.15223e-18 	-2.66896e-23 	0.620418 	-0.00762177 	-7.55472e-23
