1.45 	0 	0 	-0.00641954 	-0.00268359 	3.91026e-21
2.35 	0 	0 	0.0663425 	-0.00677876 	2.43573e-21
