1.45 	0 	0 	-0.131789
2.35 	0 	0 	0.0199644
