1.275 	2.15223e-18 	-2.76991e-20 	-0.0339713 	-0.000441603 	-1.98979e-22
1.825 	2.15223e-18 	-1.39322e-20 	-0.00857074 	-0.00277904 	1.78797e-21
2.375 	2.15223e-18 	-2.66896e-23 	0.117839 	-0.00329502 	-7.46292e-22
