1.45 	0 	0 	0.00422931 	-0.0038534 	3.95076e-21
2.35 	0 	0 	0.116022 	-0.00854793 	1.92512e-21
