1.45 	0 	0 	-0.00556114 	-0.00274466 	3.93382e-21
2.35 	0 	0 	0.0689622 	-0.00685208 	2.44694e-21
