/*--------------------------------*- C++ -*----------------------------------*\
  =========                 |
  \\      /  F ield         | OpenFOAM: The Open Source CFD Toolbox
   \\    /   O peration     | Website:  https://openfoam.org
    \\  /    A nd           | Version:  6.0
     \\/     M anipulation  |
\*---------------------------------------------------------------------------*/
FoamFile
{
    version     2.0;
    format      ascii;
    class       volScalarField;
    location    "0.5";
    object      p;
}
// * * * * * * * * * * * * * * * * * * * * * * * * * * * * * * * * * * * * * //

dimensions      [0 2 -2 0 0 0 0];

internalField   nonuniform List<scalar> 
800
(
1.59559e-09
-2.07657e-05
-0.000137085
-0.000335094
-0.000592667
-0.000899327
-0.00125288
-0.00165611
-0.00211425
-0.00263328
-0.00321907
-0.00387707
-0.00461237
-0.00542954
-0.00633222
-0.00732169
-0.00839417
-0.00953623
-0.0107181
-0.0118851
-0.0129471
-0.0137685
-0.0141617
-0.0138868
-0.0126649
-0.0102068
-0.00626106
-0.00067669
0.00652442
0.0150793
0.0244398
0.0337828
0.0421105
0.0484603
0.0521923
0.0532476
0.0522243
0.0501881
0.0483066
0.0474105
1.71294e-05
-8.19085e-06
-0.000117878
-0.000298481
-0.00053481
-0.000820537
-0.00115419
-0.00153703
-0.00197169
-0.00246107
-0.00300788
-0.00361438
-0.00428243
-0.00501347
-0.00580817
-0.00666561
-0.00758142
-0.00854457
-0.00953255
-0.0105047
-0.0113936
-0.0120956
-0.012461
-0.0122892
-0.0113318
-0.00931095
-0.00595931
-0.00108111
0.0053703
0.0132132
0.0219798
0.0309122
0.0390509
0.0454385
0.0494109
0.050867
0.0503509
0.0488426
0.0473497
0.0465268
0.000139816
9.05391e-05
-2.73784e-05
-0.000202887
-0.000427229
-0.000697363
-0.00101318
-0.00137586
-0.00178685
-0.00224714
-0.00275713
-0.00331682
-0.0039261
-0.00458529
-0.00529553
-0.00605904
-0.0068788
-0.0077571
-0.00869222
-0.00967208
-0.0106634
-0.011596
-0.0123448
-0.0127142
-0.012436
-0.0111877
-0.00863825
-0.00451638
0.00130502
0.00872386
0.0173413
0.0264408
0.0350513
0.0421297
0.0468566
0.0489524
0.0488362
0.0474623
0.0458544
0.0446916
0.000362654
0.000265579
0.000124999
-5.45358e-05
-0.000273421
-0.000532107
-0.000832414
-0.00117639
-0.00156514
-0.00199858
-0.00247577
-0.00299567
-0.00355826
-0.00416608
-0.00482607
-0.00555166
-0.00636455
-0.00729476
-0.00837715
-0.00964116
-0.0110918
-0.0126825
-0.0142854
-0.0156715
-0.0165119
-0.0164074
-0.014945
-0.0117723
-0.00667934
0.000320769
0.00892271
0.018488
0.0280652
0.0365159
0.0427771
0.0462199
0.0469466
0.0457854
0.043855
0.042086
0.000657538
0.000493479
0.000320183
0.000131798
-8.48429e-05
-0.000334491
-0.000621277
-0.000948399
-0.00131697
-0.00172631
-0.00217499
-0.00266256
-0.00319186
-0.00377216
-0.00442312
-0.00517914
-0.00609299
-0.00723583
-0.00868995
-0.0105299
-0.0127907
-0.0154283
-0.0182838
-0.0210678
-0.0233747
-0.0247267
-0.0246385
-0.0226882
-0.018587
-0.0122439
-0.00382957
0.00616621
0.0169007
0.027213
0.0357925
0.0415253
0.0439427
0.0434927
0.0413079
0.0387692
0.000991796
0.000746891
0.000534518
0.000334704
0.00011821
-0.000124709
-0.000400529
-0.000713524
-0.00106484
-0.0014536
-0.00187898
-0.00234313
-0.0028552
-0.00343659
-0.00412721
-0.00499199
-0.00612488
-0.00764613
-0.00968729
-0.0123601
-0.0157115
-0.0196757
-0.0240408
-0.0284458
-0.0324117
-0.0353979
-0.0368689
-0.0363555
-0.0335056
-0.0281283
-0.0202407
-0.0101284
0.00157779
0.0138346
0.0252041
0.0340821
0.0392141
0.040296
0.0381652
0.0347363
0.00132623
0.000990131
0.000735105
0.000523089
0.00030565
6.76211e-05
-0.000199484
-0.000500556
-0.000836548
-0.00120668
-0.00161178
-0.00205877
-0.00256668
-0.00317413
-0.00394779
-0.00498991
-0.00644073
-0.00846996
-0.0112512
-0.0149181
-0.0195088
-0.0249168
-0.0308664
-0.0369261
-0.0425558
-0.0471717
-0.0502115
-0.0511857
-0.0497107
-0.0455289
-0.0385291
-0.0287887
-0.0166613
-0.00291675
0.0111099
0.0235224
0.0322562
0.0358887
0.034413
0.0300552
0.00161324
0.0011774
0.000878234
0.000655068
0.000437158
0.000203783
-5.4812e-05
-0.000343321
-0.000662002
-0.00101027
-0.00139152
-0.00181933
-0.00232552
-0.00296976
-0.00384943
-0.00510668
-0.00692715
-0.00952341
-0.0130984
-0.0177903
-0.0236122
-0.0304064
-0.0378323
-0.0453958
-0.0525083
-0.058559
-0.0629784
-0.0652835
-0.0650968
-0.062145
-0.0562498
-0.0473355
-0.0354901
-0.0211232
-0.00522868
0.0103617
0.0230409
0.0301252
0.0301388
0.0249846
0.00179533
0.00125158
0.000908576
0.000677753
0.000462676
0.000237249
-8.43382e-06
-0.000277767
-0.00056962
-0.000883539
-0.00122615
-0.00161909
-0.00210892
-0.00277829
-0.00375615
-0.00522282
-0.00740334
-0.0105425
-0.0148581
-0.0204793
-0.0273847
-0.0353636
-0.044017
-0.0527984
-0.0610828
-0.0682438
-0.073718
-0.0770467
-0.0778868
-0.0759941
-0.0711886
-0.0633256
-0.0523109
-0.0382211
-0.0215892
-0.00383669
0.0123685
0.0233118
0.0256424
0.0201025
0.00180296
0.00114209
0.000757941
0.000527187
0.000323548
0.000115893
-0.000104432
-0.000338271
-0.000582369
-0.000836329
-0.00111057
-0.00143579
-0.00187425
-0.00253172
-0.00356681
-0.00519293
-0.00766565
-0.01125
-0.0161668
-0.0225274
-0.0302743
-0.0391503
-0.048709
-0.0583645
-0.0674671
-0.0753825
-0.0815589
-0.0855668
-0.0871066
-0.0859832
-0.082056
-0.075183
-0.0651931
-0.051944
-0.0355502
-0.0168539
0.00187962
0.01643
0.021621
0.0164476
0.00155056
0.000761264
0.000343117
0.000128079
-4.61681e-05
-0.000215581
-0.000386032
-0.000554578
-0.000715292
-0.000868011
-0.00102768
-0.00123493
-0.00156808
-0.00215477
-0.00317957
-0.00488193
-0.00753808
-0.0114224
-0.0167502
-0.0236117
-0.0319181
-0.0413771
-0.0515098
-0.0617059
-0.0713015
-0.0796604
-0.0862411
-0.0906367
-0.092582
-0.0919248
-0.088571
-0.0824157
-0.0732883
-0.0609554
-0.0452599
-0.0265123
-0.00633272
0.0111246
0.0193701
0.0155891
0.000928932
-2.53042e-06
-0.000437869
-0.000606806
-0.000718241
-0.000813225
-0.000893175
-0.000950247
-0.000975623
-0.000970014
-0.000954063
-0.000979428
-0.00114059
-0.00158524
-0.00251918
-0.00420026
-0.00691572
-0.0109402
-0.0164776
-0.0235981
-0.0321893
-0.0419371
-0.0523465
-0.0627978
-0.0726237
-0.0811893
-0.0879586
-0.0925342
-0.0946649
-0.0942185
-0.091128
-0.0853216
-0.0766574
-0.0648952
-0.049762
-0.0312176
-0.0102543
0.00943987
0.0207996
0.0195344
-0.00021003
-0.0012971
-0.00171138
-0.00177677
-0.0017676
-0.00173053
-0.00166013
-0.00154235
-0.00136543
-0.00113198
-0.000869882
-0.000643226
-0.000562881
-0.000794608
-0.00156062
-0.00312968
-0.00579134
-0.00981277
-0.0153826
-0.0225529
-0.0311956
-0.0409877
-0.051433
-0.061916
-0.0717751
-0.0803795
-0.0871925
-0.0918109
-0.0939737
-0.0935383
-0.0904318
-0.0845854
-0.0758715
-0.0640671
-0.0488822
-0.0301231
-0.00833475
0.0134215
0.0281666
0.0305315
-0.00208468
-0.00332815
-0.00363471
-0.00348952
-0.00326468
-0.00301062
-0.00270981
-0.00233936
-0.00188396
-0.00134875
-0.000770234
-0.000226128
0.000156175
0.000194707
-0.00034481
-0.00173554
-0.00426183
-0.00817693
-0.0136509
-0.0207188
-0.029243
-0.0389011
-0.0492072
-0.0595604
-0.0693127
-0.0778387
-0.0845954
-0.0891599
-0.0912387
-0.0906481
-0.0872712
-0.0810001
-0.0716808
-0.059083
-0.0429278
-0.0230039
0.000370724
0.0247366
0.043644
0.0509048
-0.00505095
-0.00639701
-0.00639727
-0.00584335
-0.00525243
-0.00466373
-0.00403452
-0.0033269
-0.00251917
-0.00161796
-0.00066819
0.000238983
0.000960525
0.00130045
0.0010162
-0.000164656
-0.00251562
-0.00627114
-0.0115798
-0.0184594
-0.0267654
-0.0361815
-0.0462382
-0.0563562
-0.0659051
-0.0742663
-0.0808865
-0.0853119
-0.0871978
-0.0862918
-0.082396
-0.0753159
-0.0648161
-0.0506043
-0.0323838
-0.00998181
0.0163135
0.0444979
0.0689466
0.0829064
-0.00975363
-0.0109622
-0.0101911
-0.00886839
-0.00768509
-0.00660908
-0.00554251
-0.00441982
-0.00320613
-0.00190512
-0.000566578
0.000708283
0.00176441
0.00239574
0.00235564
0.00137653
-0.000800676
-0.00438894
-0.00951376
-0.0161753
-0.0242223
-0.0333456
-0.0430941
-0.0529117
-0.0621876
-0.0703105
-0.076714
-0.0809071
-0.0824812
-0.0810938
-0.0764325
-0.0681673
-0.0559152
-0.0392392
-0.0177418
0.00874334
0.0398103
0.0736315
0.105583
0.128942
-0.0175262
-0.0177302
-0.0151123
-0.0124141
-0.0103238
-0.00857578
-0.00696303
-0.00537161
-0.00374129
-0.00206299
-0.000382337
0.00119777
0.00251823
0.00337036
0.00350977
0.00267836
0.00063409
-0.00281392
-0.0077688
-0.014214
-0.0219924
-0.0308017
-0.0402083
-0.0496786
-0.0586213
-0.0664321
-0.0725322
-0.0763919
-0.0775342
-0.0755149
-0.0698849
-0.0601373
-0.0456707
-0.0257863
0.000185183
0.0326169
0.071065
0.113642
0.156692
0.194079
-0.0317777
-0.027707
-0.0209905
-0.0159725
-0.0125225
-0.00988401
-0.00764988
-0.00560873
-0.00364272
-0.00170733
0.000171786
0.00190248
0.00333254
0.00426041
0.00445196
0.00366401
0.0016737
-0.00168867
-0.00650702
-0.0127521
-0.0202641
-0.0287492
-0.0377919
-0.0468806
-0.0554435
-0.0628846
-0.0686159
-0.0720739
-0.0727189
-0.0700102
-0.0633639
-0.0520878
-0.0353267
-0.0120129
0.0190502
0.0589761
0.10811
0.16533
0.228653
0.292004
-0.0628855
-0.0408501
-0.0249551
-0.0164118
-0.0115372
-0.00822158
-0.00570516
-0.00361341
-0.00170814
0.000119534
0.00186875
0.00345749
0.00474127
0.0055276
0.00559405
0.00471191
0.00267441
-0.000672906
-0.00540273
-0.0114816
-0.0187547
-0.0269422
-0.0356493
-0.0443882
-0.0526072
-0.0597216
-0.0651396
-0.0682744
-0.0685405
-0.0653253
-0.0579452
-0.0455692
-0.0271463
-0.0012736
0.0338746
0.080746
0.142251
0.221677
0.32286
0.441748
-0.143521
-0.0496645
-0.0142771
-0.00578873
-0.00254131
-0.000305442
0.0011876
0.00225801
0.0032527
0.00431673
0.00543191
0.00649202
0.00733645
0.00776432
0.00755014
0.00646549
0.00430508
0.000914686
-0.00378183
-0.00975981
-0.016879
-0.0248794
-0.0333891
-0.0419426
-0.0500069
-0.0570084
-0.0623563
-0.0654527
-0.0656886
-0.0624156
-0.054904
-0.0422633
-0.0233689
0.00332829
0.0399674
0.0900936
0.159563
0.260515
0.409837
0.617961
)
;

boundaryField
{
    movingWall
    {
        type            zeroGradient;
    }
    fixedWalls
    {
        type            zeroGradient;
    }
    frontAndBack
    {
        type            empty;
    }
}


// ************************************************************************* //
