1.45 	0 	0 	-0.00744581 	-0.00260755 	3.85387e-21
2.35 	0 	0 	0.0630219 	-0.00668802 	2.38204e-21
