1.45 	0 	0 	-0.290538
2.35 	0 	0 	-0.126369
