1.45 	0 	0 	-0.00813263 	-0.00256933 	3.78308e-21
2.35 	0 	0 	0.0613436 	-0.00663015 	2.28573e-21
