1.45 	0 	0 	-0.00790986 	-0.00257998 	3.80477e-21
2.35 	0 	0 	0.0617805 	-0.00664598 	2.31681e-21
