1.45 	0 	0 	-0.00811677 	-0.00257002 	3.7843e-21
2.35 	0 	0 	0.0613585 	-0.00663139 	2.28777e-21
