/*--------------------------------*- C++ -*----------------------------------*\
  =========                 |
  \\      /  F ield         | OpenFOAM: The Open Source CFD Toolbox
   \\    /   O peration     | Website:  https://openfoam.org
    \\  /    A nd           | Version:  6.0
     \\/     M anipulation  |
\*---------------------------------------------------------------------------*/
FoamFile
{
    version     2.0;
    format      ascii;
    class       volScalarField;
    location    "0.9";
    object      p;
}
// * * * * * * * * * * * * * * * * * * * * * * * * * * * * * * * * * * * * * //

dimensions      [0 2 -2 0 0 0 0];

internalField   nonuniform List<scalar> 
24000
(
1.00652
1.00624
1.00568
1.00488
1.00395
1.00303
1.00221
1.00148
1.00088
1.00041
1.00004
0.999815
1.00653
1.0063
1.00582
1.00511
1.00425
1.00335
1.00251
1.00173
1.00104
1.00047
0.999991
0.999681
1.00653
1.00628
1.00577
1.00503
1.00414
1.00321
1.00234
1.00155
1.00088
1.00035
0.999885
0.999611
1.00653
1.00626
1.00574
1.00498
1.00408
1.00314
1.00227
1.00149
1.00083
1.00032
0.999856
0.999584
1.00654
1.00627
1.00575
1.00502
1.00414
1.00321
1.00236
1.00158
1.00091
1.00037
0.999868
0.999556
1.00654
1.00628
1.00577
1.00505
1.00419
1.00328
1.00243
1.00164
1.00095
1.00039
0.999847
0.999501
1.00655
1.00629
1.00577
1.00505
1.00419
1.00328
1.00242
1.00162
1.00092
1.00034
0.999788
0.999428
1.00655
1.00629
1.00577
1.00504
1.00418
1.00325
1.00239
1.00158
1.00087
1.00029
0.999725
0.99936
1.00656
1.0063
1.00577
1.00504
1.00418
1.00325
1.00238
1.00156
1.00084
1.00025
0.999677
0.999304
1.00657
1.00631
1.00578
1.00505
1.00419
1.00327
1.00239
1.00157
1.00084
1.00023
0.999645
0.999256
1.00658
1.00633
1.0058
1.00507
1.0042
1.00328
1.00241
1.00158
1.00084
1.00022
0.999616
0.999209
1.00659
1.00634
1.00582
1.00508
1.00422
1.0033
1.00242
1.00159
1.00084
1.00021
0.999586
0.999161
1.0066
1.00636
1.00584
1.0051
1.00424
1.00331
1.00243
1.00159
1.00083
1.00019
0.999552
0.999113
1.00662
1.00638
1.00587
1.00513
1.00426
1.00333
1.00244
1.00159
1.00083
1.00017
0.999519
0.999067
1.00663
1.0064
1.00589
1.00516
1.00429
1.00335
1.00246
1.0016
1.00082
1.00015
0.999487
0.999022
1.00664
1.00643
1.00592
1.00519
1.00432
1.00338
1.00248
1.00161
1.00082
1.00013
0.999457
0.998978
1.00666
1.00645
1.00594
1.00522
1.00435
1.00341
1.0025
1.00162
1.00081
1.00011
0.999426
0.998935
1.00667
1.00647
1.00596
1.00524
1.00438
1.00343
1.00251
1.00163
1.00081
1.00009
0.999394
0.998891
1.00669
1.00649
1.00598
1.00527
1.0044
1.00346
1.00253
1.00163
1.0008
1.00007
0.999362
0.998848
1.00671
1.00651
1.006
1.00529
1.00442
1.00348
1.00254
1.00163
1.00079
1.00005
0.999329
0.998806
1.00673
1.00653
1.00602
1.00531
1.00444
1.00349
1.00255
1.00164
1.00078
1.00003
0.999298
0.998765
1.00674
1.00655
1.00604
1.00533
1.00446
1.00351
1.00256
1.00164
1.00077
1.00001
0.999266
0.998724
1.00676
1.00657
1.00606
1.00535
1.00449
1.00353
1.00258
1.00164
1.00077
0.999987
0.999235
0.998683
1.00679
1.00659
1.00609
1.00538
1.00451
1.00355
1.00259
1.00164
1.00076
0.999966
0.999203
0.998642
1.00681
1.00661
1.00611
1.0054
1.00453
1.00357
1.0026
1.00165
1.00075
0.999942
0.999169
0.9986
1.00683
1.00664
1.00613
1.00543
1.00455
1.00359
1.00261
1.00165
1.00074
0.999918
0.999135
0.998558
1.00685
1.00666
1.00616
1.00545
1.00458
1.0036
1.00262
1.00165
1.00072
0.999892
0.9991
0.998516
1.00688
1.00669
1.00618
1.00547
1.0046
1.00362
1.00263
1.00164
1.00071
0.999865
0.999064
0.998474
1.00691
1.00672
1.0062
1.0055
1.00462
1.00364
1.00264
1.00164
1.00069
0.999838
0.999028
0.998432
1.00694
1.00674
1.00623
1.00552
1.00464
1.00365
1.00265
1.00164
1.00068
0.999811
0.998993
0.99839
1.00697
1.00677
1.00626
1.00555
1.00466
1.00367
1.00265
1.00164
1.00067
0.999784
0.998957
0.998348
1.007
1.00681
1.00629
1.00558
1.00468
1.00368
1.00266
1.00163
1.00065
0.999758
0.998922
0.998306
1.00703
1.00684
1.00632
1.00561
1.00471
1.0037
1.00267
1.00163
1.00064
0.999732
0.998886
0.998264
1.00706
1.00688
1.00636
1.00564
1.00474
1.00372
1.00268
1.00163
1.00063
0.999707
0.998852
0.998222
1.0071
1.00691
1.0064
1.00567
1.00477
1.00375
1.0027
1.00163
1.00062
0.999682
0.998816
0.99818
1.00713
1.00695
1.00644
1.00571
1.0048
1.00377
1.00271
1.00164
1.0006
0.999657
0.998781
0.998137
1.00717
1.00699
1.00648
1.00575
1.00483
1.0038
1.00273
1.00164
1.00059
0.999632
0.998744
0.998093
1.0072
1.00703
1.00652
1.00579
1.00487
1.00382
1.00274
1.00164
1.00058
0.999606
0.998707
0.99805
1.00724
1.00707
1.00656
1.00583
1.0049
1.00385
1.00276
1.00164
1.00057
0.999579
0.99867
0.998005
1.00728
1.00711
1.0066
1.00587
1.00494
1.00388
1.00277
1.00164
1.00056
0.999551
0.998631
0.997961
1.00732
1.00715
1.00664
1.0059
1.00497
1.0039
1.00278
1.00164
1.00054
0.999523
0.998592
0.997915
1.00736
1.00719
1.00668
1.00594
1.005
1.00393
1.0028
1.00164
1.00053
0.999494
0.998553
0.99787
1.0074
1.00723
1.00672
1.00598
1.00503
1.00395
1.00281
1.00164
1.00051
0.999465
0.998512
0.997823
1.00745
1.00728
1.00676
1.00602
1.00507
1.00397
1.00282
1.00164
1.0005
0.999435
0.998472
0.997777
1.00749
1.00732
1.0068
1.00606
1.0051
1.004
1.00283
1.00164
1.00048
0.999405
0.99843
0.99773
1.00754
1.00737
1.00684
1.0061
1.00513
1.00402
1.00285
1.00164
1.00046
0.999374
0.998388
0.997683
1.00758
1.00741
1.00689
1.00614
1.00517
1.00405
1.00286
1.00164
1.00045
0.999343
0.998346
0.997634
1.00763
1.00746
1.00693
1.00618
1.0052
1.00407
1.00287
1.00163
1.00043
0.999311
0.998303
0.997586
1.00768
1.00751
1.00698
1.00622
1.00524
1.0041
1.00288
1.00163
1.00041
0.999279
0.998259
0.997536
1.00773
1.00756
1.00703
1.00627
1.00527
1.00412
1.0029
1.00163
1.00039
0.999247
0.998216
0.997487
1.00778
1.00762
1.00708
1.00631
1.00531
1.00415
1.00291
1.00163
1.00038
0.999214
0.998171
0.997436
1.00783
1.00767
1.00713
1.00636
1.00535
1.00418
1.00292
1.00163
1.00036
0.999182
0.998128
0.997385
1.00789
1.00773
1.00719
1.00641
1.00539
1.0042
1.00294
1.00162
1.00034
0.999149
0.998083
0.997333
1.00794
1.00778
1.00724
1.00646
1.00543
1.00423
1.00295
1.00162
1.00032
0.999117
0.998039
0.997281
1.008
1.00784
1.0073
1.00651
1.00547
1.00426
1.00297
1.00162
1.00031
0.999084
0.997994
0.997227
1.00806
1.00791
1.00736
1.00657
1.00552
1.0043
1.00299
1.00162
1.00029
0.999052
0.99795
0.997172
1.00811
1.00797
1.00742
1.00662
1.00556
1.00433
1.003
1.00162
1.00027
0.999019
0.997904
0.997116
1.00818
1.00803
1.00748
1.00668
1.00561
1.00436
1.00302
1.00162
1.00026
0.998986
0.997858
0.99706
1.00824
1.0081
1.00754
1.00674
1.00566
1.0044
1.00304
1.00162
1.00024
0.998952
0.997811
0.997001
1.0083
1.00816
1.0076
1.00679
1.00571
1.00443
1.00306
1.00163
1.00022
0.998918
0.997764
0.996943
1.00836
1.00823
1.00766
1.00685
1.00575
1.00447
1.00308
1.00163
1.00021
0.998883
0.997715
0.996883
1.00843
1.0083
1.00773
1.00691
1.0058
1.0045
1.0031
1.00163
1.00019
0.998848
0.997666
0.996823
1.0085
1.00837
1.00779
1.00697
1.00585
1.00454
1.00311
1.00163
1.00017
0.998811
0.997615
0.996761
1.00856
1.00844
1.00786
1.00703
1.0059
1.00458
1.00313
1.00163
1.00015
0.998775
0.997564
0.996699
1.00863
1.00851
1.00793
1.0071
1.00595
1.00461
1.00315
1.00163
1.00013
0.998738
0.997512
0.996636
1.00871
1.00858
1.008
1.00716
1.00601
1.00465
1.00317
1.00163
1.00011
0.998702
0.99746
0.996573
1.00878
1.00866
1.00807
1.00722
1.00606
1.00469
1.00319
1.00162
1.00009
0.998664
0.997407
0.996508
1.00886
1.00873
1.00814
1.00729
1.00611
1.00473
1.00321
1.00163
1.00007
0.998626
0.997354
0.996442
1.00893
1.00881
1.00821
1.00736
1.00617
1.00476
1.00323
1.00163
1.00005
0.998588
0.997299
0.996375
1.00901
1.00889
1.00829
1.00742
1.00622
1.00481
1.00325
1.00163
1.00003
0.998549
0.997244
0.996307
1.00909
1.00897
1.00837
1.00749
1.00628
1.00485
1.00327
1.00163
1.00001
0.99851
0.997189
0.996237
1.00917
1.00906
1.00844
1.00757
1.00634
1.00489
1.0033
1.00163
0.999996
0.998472
0.997133
0.996166
1.00926
1.00914
1.00852
1.00764
1.0064
1.00493
1.00332
1.00163
0.999977
0.998432
0.997076
0.996093
1.00934
1.00923
1.00861
1.00772
1.00646
1.00498
1.00334
1.00163
0.999958
0.998392
0.997019
0.996018
1.00943
1.00932
1.00869
1.00779
1.00652
1.00502
1.00337
1.00164
0.999939
0.998351
0.99696
0.995941
1.00952
1.00941
1.00878
1.00787
1.00659
1.00507
1.0034
1.00164
0.99992
0.998311
0.9969
0.995864
1.00961
1.00951
1.00887
1.00796
1.00666
1.00512
1.00342
1.00165
0.999901
0.998269
0.996839
0.995783
1.00971
1.0096
1.00896
1.00804
1.00672
1.00517
1.00345
1.00165
0.999882
0.998227
0.996778
0.995702
1.0098
1.0097
1.00905
1.00812
1.00679
1.00522
1.00348
1.00166
0.999863
0.998184
0.996714
0.995617
1.0099
1.00979
1.00914
1.00821
1.00687
1.00528
1.00351
1.00166
0.999843
0.99814
0.996649
0.995532
1.01
1.00989
1.00924
1.0083
1.00694
1.00533
1.00354
1.00167
0.999823
0.998095
0.996582
0.995444
1.0101
1.01
1.00933
1.00839
1.00701
1.00538
1.00357
1.00167
0.999802
0.998049
0.996514
0.995355
1.0102
1.0101
1.00943
1.00848
1.00709
1.00544
1.0036
1.00168
0.99978
0.998001
0.996444
0.995263
1.0103
1.01021
1.00953
1.00857
1.00716
1.0055
1.00363
1.00168
0.999759
0.997953
0.996373
0.99517
1.01041
1.01031
1.00963
1.00866
1.00724
1.00555
1.00367
1.00169
0.999736
0.997903
0.996299
0.995075
1.01051
1.01042
1.00974
1.00876
1.00732
1.00561
1.0037
1.0017
0.999713
0.997853
0.996224
0.994978
1.01062
1.01054
1.00984
1.00886
1.0074
1.00567
1.00373
1.0017
0.999688
0.9978
0.996147
0.994879
1.01074
1.01065
1.00995
1.00896
1.00748
1.00573
1.00377
1.00171
0.999664
0.997747
0.996069
0.994778
1.01085
1.01077
1.01006
1.00906
1.00756
1.0058
1.0038
1.00171
0.999638
0.997693
0.995989
0.994674
1.01096
1.01088
1.01017
1.00916
1.00765
1.00586
1.00384
1.00172
0.999613
0.997637
0.995907
0.994569
1.01108
1.011
1.01029
1.00927
1.00774
1.00592
1.00387
1.00172
0.999586
0.99758
0.995823
0.994462
1.0112
1.01113
1.0104
1.00937
1.00783
1.00599
1.00391
1.00173
0.999559
0.997522
0.995738
0.994353
1.01132
1.01125
1.01052
1.00948
1.00792
1.00606
1.00395
1.00173
0.999531
0.997462
0.99565
0.99424
1.01145
1.01138
1.01064
1.0096
1.00801
1.00613
1.00398
1.00174
0.999503
0.997401
0.995561
0.994127
1.01157
1.01151
1.01077
1.00971
1.0081
1.0062
1.00402
1.00174
0.999473
0.997338
0.995469
0.99401
1.0117
1.01165
1.01089
1.00983
1.0082
1.00627
1.00406
1.00175
0.999443
0.997275
0.995376
0.993892
1.01183
1.01178
1.01102
1.00995
1.0083
1.00634
1.0041
1.00175
0.999411
0.997209
0.99528
0.99377
1.01197
1.01192
1.01115
1.01007
1.0084
1.00641
1.00414
1.00176
0.99938
0.997142
0.995183
0.993647
1.0121
1.01206
1.01129
1.01019
1.0085
1.00649
1.00418
1.00176
0.999346
0.997073
0.995083
0.993521
1.01224
1.0122
1.01142
1.01031
1.00861
1.00656
1.00423
1.00176
0.999313
0.997003
0.994981
0.993393
1.01238
1.01235
1.01156
1.01044
1.00871
1.00664
1.00427
1.00177
0.999277
0.99693
0.994876
0.993261
1.01253
1.0125
1.0117
1.01057
1.00882
1.00672
1.00431
1.00177
0.999241
0.996856
0.99477
0.993127
1.01267
1.01265
1.01185
1.0107
1.00893
1.0068
1.00435
1.00177
0.999203
0.99678
0.99466
0.99299
1.01282
1.0128
1.01199
1.01084
1.00904
1.00688
1.0044
1.00178
0.999165
0.996703
0.994549
0.992851
1.01297
1.01296
1.01214
1.01097
1.00915
1.00696
1.00444
1.00178
0.999125
0.996623
0.994435
0.992709
1.01313
1.01312
1.01229
1.01111
1.00926
1.00704
1.00448
1.00178
0.999084
0.996542
0.994319
0.992564
1.01329
1.01328
1.01245
1.01125
1.00938
1.00713
1.00453
1.00178
0.999041
0.996458
0.9942
0.992416
1.01345
1.01344
1.0126
1.01139
1.0095
1.00721
1.00457
1.00178
0.998998
0.996373
0.994079
0.992266
1.01361
1.01361
1.01276
1.01154
1.00962
1.0073
1.00462
1.00178
0.998952
0.996285
0.993954
0.992112
1.01378
1.01378
1.01292
1.01169
1.00974
1.00739
1.00466
1.00178
0.998906
0.996196
0.993828
0.991956
1.01395
1.01395
1.01309
1.01184
1.00986
1.00747
1.00471
1.00178
0.998858
0.996104
0.993698
0.991795
1.01412
1.01413
1.01326
1.01199
1.00999
1.00757
1.00476
1.00178
0.99881
0.996011
0.993566
0.991633
1.0143
1.01431
1.01343
1.01215
1.01012
1.00766
1.0048
1.00178
0.998759
0.995915
0.993431
0.991467
1.01448
1.01449
1.0136
1.0123
1.01025
1.00775
1.00485
1.00178
0.998708
0.995817
0.993294
0.991298
1.01466
1.01468
1.01378
1.01247
1.01038
1.00785
1.0049
1.00177
0.998654
0.995716
0.993152
0.991125
1.01485
1.01487
1.01396
1.01263
1.01052
1.00794
1.00495
1.00177
0.9986
0.995614
0.993009
0.99095
1.01504
1.01506
1.01415
1.0128
1.01066
1.00804
1.005
1.00177
0.998543
0.995509
0.992862
0.99077
1.01523
1.01526
1.01433
1.01297
1.0108
1.00814
1.00505
1.00177
0.998485
0.995402
0.992712
0.990587
1.01543
1.01546
1.01453
1.01315
1.01094
1.00825
1.0051
1.00176
0.998425
0.995291
0.992559
0.9904
1.01563
1.01567
1.01472
1.01333
1.01109
1.00835
1.00515
1.00176
0.998364
0.995179
0.992403
0.990211
1.01583
1.01587
1.01492
1.01351
1.01124
1.00846
1.0052
1.00175
0.9983
0.995063
0.992242
0.990016
1.01604
1.01609
1.01512
1.01369
1.01139
1.00856
1.00525
1.00174
0.998235
0.994946
0.99208
0.989819
1.01625
1.0163
1.01533
1.01388
1.01154
1.00867
1.00531
1.00174
0.998167
0.994824
0.991912
0.989616
1.01647
1.01652
1.01554
1.01407
1.0117
1.00878
1.00536
1.00173
0.998099
0.994701
0.991742
0.989411
1.01669
1.01675
1.01576
1.01427
1.01186
1.0089
1.00541
1.00172
0.998027
0.994573
0.991567
0.9892
1.01692
1.01698
1.01598
1.01447
1.01202
1.00901
1.00547
1.00171
0.997954
0.994444
0.99139
0.988986
1.01714
1.01721
1.0162
1.01467
1.01219
1.00913
1.00552
1.0017
0.997877
0.99431
0.991207
0.988767
1.01738
1.01745
1.01643
1.01488
1.01236
1.00925
1.00558
1.00169
0.9978
0.994174
0.991022
0.988544
1.01761
1.01769
1.01666
1.01509
1.01253
1.00936
1.00563
1.00168
0.997719
0.994033
0.990831
0.988316
1.01786
1.01794
1.0169
1.01531
1.0127
1.00949
1.00569
1.00166
0.997637
0.99389
0.990637
0.988084
1.0181
1.01819
1.01714
1.01553
1.01288
1.00961
1.00574
1.00165
0.997552
0.993743
0.990438
0.987846
1.01835
1.01845
1.01739
1.01575
1.01306
1.00974
1.0058
1.00163
0.997465
0.993593
0.990235
0.987604
1.01861
1.01871
1.01764
1.01598
1.01325
1.00987
1.00586
1.00161
0.997374
0.993438
0.990027
0.987356
1.01887
1.01898
1.0179
1.01621
1.01344
1.01
1.00592
1.0016
0.997282
0.99328
0.989815
0.987103
1.01914
1.01925
1.01816
1.01645
1.01363
1.01013
1.00597
1.00158
0.997185
0.993117
0.989596
0.986844
1.01941
1.01953
1.01843
1.0167
1.01383
1.01027
1.00603
1.00156
0.997087
0.992951
0.989374
0.986581
1.01969
1.01982
1.0187
1.01695
1.01403
1.0104
1.00609
1.00153
0.996985
0.992779
0.989146
0.986311
1.01997
1.02011
1.01898
1.0172
1.01424
1.01055
1.00615
1.00151
0.99688
0.992604
0.988913
0.986037
1.02026
1.02041
1.01927
1.01746
1.01445
1.01069
1.00621
1.00148
0.996771
0.992423
0.988674
0.985754
1.02055
1.02071
1.01956
1.01773
1.01466
1.01083
1.00627
1.00146
0.99666
0.992239
0.98843
0.985468
1.02085
1.02102
1.01986
1.018
1.01488
1.01098
1.00633
1.00143
0.996543
0.992048
0.988179
0.985173
1.02116
1.02134
1.02016
1.01827
1.0151
1.01113
1.00639
1.0014
0.996424
0.991853
0.987924
0.984873
1.02147
1.02166
1.02047
1.01855
1.01533
1.01128
1.00645
1.00136
0.9963
0.991652
0.98766
0.984565
1.02179
1.02199
1.02079
1.01884
1.01556
1.01144
1.00652
1.00133
0.996173
0.991446
0.987392
0.984252
1.02211
1.02232
1.02111
1.01914
1.0158
1.01159
1.00658
1.00129
0.99604
0.991234
0.987116
0.98393
1.02245
1.02267
1.02145
1.01944
1.01604
1.01175
1.00664
1.00125
0.995905
0.991016
0.986834
0.983602
1.02279
1.02302
1.02179
1.01975
1.01628
1.01192
1.0067
1.00121
0.995763
0.990792
0.986544
0.983265
1.02313
1.02338
1.02213
1.02006
1.01654
1.01208
1.00676
1.00116
0.995618
0.990562
0.986248
0.982922
1.02349
1.02375
1.02249
1.02038
1.01679
1.01225
1.00682
1.00111
0.995466
0.990324
0.985943
0.98257
1.02385
1.02412
1.02285
1.02071
1.01705
1.01242
1.00688
1.00106
0.99531
0.990081
0.985631
0.982211
1.02422
1.0245
1.02322
1.02105
1.01732
1.01259
1.00694
1.001
0.995148
0.98983
0.985311
0.981842
1.0246
1.0249
1.0236
1.02139
1.01759
1.01277
1.007
1.00095
0.994981
0.989572
0.984983
0.981466
1.02499
1.0253
1.02399
1.02174
1.01787
1.01294
1.00706
1.00088
0.994807
0.989306
0.984646
0.98108
1.02538
1.02571
1.02439
1.0221
1.01816
1.01312
1.00711
1.00082
0.994628
0.989033
0.984301
0.980685
1.02579
1.02613
1.02479
1.02247
1.01845
1.01331
1.00717
1.00075
0.994441
0.98875
0.983946
0.980281
1.0262
1.02656
1.02521
1.02284
1.01874
1.01349
1.00723
1.00067
0.994248
0.988461
0.983583
0.979867
1.02662
1.02699
1.02563
1.02323
1.01904
1.01368
1.00728
1.00059
0.994048
0.988161
0.983209
0.979443
1.02705
1.02744
1.02607
1.02362
1.01935
1.01387
1.00734
1.00051
0.993841
0.987854
0.982826
0.97901
1.02749
1.0279
1.02652
1.02402
1.01967
1.01406
1.00739
1.00042
0.993624
0.987536
0.982432
0.978564
1.02795
1.02837
1.02697
1.02443
1.01999
1.01426
1.00744
1.00032
0.993401
0.987209
0.982028
0.97811
1.02841
1.02885
1.02744
1.02485
1.02032
1.01446
1.00748
1.00022
0.993169
0.986871
0.981612
0.977643
1.02888
1.02935
1.02792
1.02529
1.02065
1.01466
1.00753
1.00012
0.992928
0.986524
0.981186
0.977165
1.02936
1.02985
1.02841
1.02573
1.02099
1.01486
1.00757
1
0.992677
0.986164
0.980747
0.976675
1.02986
1.03037
1.02892
1.02618
1.02134
1.01507
1.00761
0.999882
0.992418
0.985794
0.980298
0.976174
1.03037
1.0309
1.02943
1.02664
1.0217
1.01527
1.00765
0.999754
0.992147
0.985411
0.979835
0.975659
1.03089
1.03144
1.02996
1.02712
1.02206
1.01548
1.00768
0.999619
0.991866
0.985018
0.97936
0.975132
1.03142
1.032
1.03051
1.0276
1.02243
1.01569
1.00771
0.999474
0.991573
0.98461
0.97887
0.974591
1.03196
1.03257
1.03106
1.0281
1.02281
1.01591
1.00774
0.999322
0.99127
0.98419
0.978369
0.974038
1.03252
1.03316
1.03163
1.02861
1.0232
1.01612
1.00776
0.99916
0.990953
0.983756
0.977851
0.97347
1.03309
1.03376
1.03222
1.02913
1.02359
1.01634
1.00778
0.998989
0.990625
0.983308
0.977321
0.972888
1.03367
1.03437
1.03282
1.02967
1.02399
1.01655
1.00779
0.998806
0.990282
0.982844
0.976774
0.97229
1.03427
1.035
1.03344
1.03022
1.0244
1.01677
1.00779
0.998613
0.989927
0.982367
0.976213
0.971679
1.03489
1.03565
1.03407
1.03078
1.02482
1.01698
1.00779
0.998408
0.989555
0.981872
0.975634
0.97105
1.03552
1.03632
1.03472
1.03136
1.02524
1.0172
1.00778
0.998191
0.989169
0.981362
0.97504
0.970407
1.03616
1.037
1.03539
1.03195
1.02568
1.01742
1.00776
0.99796
0.988767
0.980833
0.974428
0.969746
1.03682
1.0377
1.03608
1.03255
1.02612
1.01764
1.00774
0.997716
0.988348
0.980288
0.973799
0.969069
1.0375
1.03842
1.03678
1.03318
1.02657
1.01785
1.00771
0.997457
0.987911
0.979723
0.973151
0.968374
1.0382
1.03916
1.03751
1.03381
1.02703
1.01807
1.00766
0.997182
0.987456
0.97914
0.972485
0.967661
1.03892
1.03992
1.03825
1.03447
1.02749
1.01828
1.00761
0.99689
0.986981
0.978536
0.971798
0.966929
1.03966
1.0407
1.03902
1.03514
1.02797
1.01849
1.00754
0.996582
0.986487
0.977913
0.971093
0.966179
1.04041
1.04151
1.03981
1.03583
1.02845
1.0187
1.00746
0.996254
0.98597
0.977266
0.970366
0.965409
1.04119
1.04234
1.04062
1.03653
1.02894
1.0189
1.00737
0.995907
0.985432
0.976599
0.969618
0.964619
1.04199
1.04319
1.04146
1.03726
1.02944
1.0191
1.00726
0.995538
0.98487
0.975907
0.968847
0.963808
1.04281
1.04406
1.04232
1.038
1.02995
1.01929
1.00713
0.995147
0.984285
0.975192
0.968055
0.962977
1.04365
1.04497
1.04321
1.03876
1.03046
1.01947
1.00699
0.994732
0.983673
0.974451
0.967237
0.962122
1.04452
1.0459
1.04412
1.03955
1.03098
1.01965
1.00683
0.994293
0.983036
0.973686
0.966397
0.961247
1.04541
1.04685
1.04506
1.04035
1.0315
1.01982
1.00665
0.993827
0.982369
0.972892
0.965531
0.960347
1.04633
1.04784
1.04603
1.04118
1.03204
1.01997
1.00644
0.993333
0.981674
0.972071
0.96464
0.959424
1.04728
1.04886
1.04703
1.04202
1.03257
1.02012
1.00621
0.992809
0.980948
0.971221
0.963721
0.958477
1.04826
1.04991
1.04806
1.04289
1.03312
1.02025
1.00596
0.992253
0.980191
0.970341
0.962776
0.957505
1.04926
1.05099
1.04913
1.04378
1.03366
1.02037
1.00568
0.991664
0.979399
0.96943
0.961802
0.956507
1.0503
1.05211
1.05022
1.04469
1.03421
1.02047
1.00536
0.99104
0.978573
0.968487
0.960799
0.955483
1.05136
1.05326
1.05136
1.04563
1.03476
1.02054
1.00501
0.990377
0.97771
0.967509
0.959766
0.954432
1.05246
1.05446
1.05253
1.04659
1.03531
1.0206
1.00463
0.989676
0.97681
0.966499
0.958704
0.953354
1.0536
1.05569
1.05374
1.04757
1.03586
1.02063
1.00421
0.988932
0.975868
0.965451
0.957608
0.952247
1.05477
1.05697
1.05499
1.04858
1.03641
1.02064
1.00375
0.988144
0.974886
0.964367
0.956481
0.951111
1.05599
1.05828
1.05629
1.04961
1.03695
1.02061
1.00324
0.987309
0.973859
0.963244
0.95532
0.949946
1.05724
1.05965
1.05762
1.05067
1.03748
1.02055
1.00269
0.986425
0.972788
0.962083
0.954125
0.94875
1.05853
1.06107
1.05901
1.05175
1.03801
1.02045
1.00208
0.985487
0.971669
0.96088
0.952894
0.947522
1.05987
1.06253
1.06044
1.05286
1.03852
1.02031
1.00142
0.984495
0.970502
0.959635
0.951628
0.946264
1.06125
1.06405
1.06192
1.05398
1.03902
1.02012
1.0007
0.983445
0.969282
0.958346
0.950324
0.944972
1.06268
1.06563
1.06345
1.05513
1.03949
1.01988
0.999919
0.982333
0.96801
0.957014
0.948982
0.943647
1.06416
1.06727
1.06504
1.0563
1.03994
1.01958
0.999066
0.981156
0.966682
0.955634
0.947601
0.942288
1.0657
1.06897
1.06669
1.05749
1.04036
1.01922
0.998139
0.979912
0.965297
0.954207
0.946181
0.940894
1.06729
1.07074
1.06839
1.0587
1.04075
1.01879
0.997133
0.978595
0.963852
0.952731
0.94472
0.939464
1.06894
1.07259
1.07016
1.05992
1.04109
1.01828
0.996044
0.977204
0.962345
0.951206
0.943218
0.937999
1.07065
1.0745
1.07199
1.06115
1.04139
1.01769
0.994863
0.975734
0.960775
0.949629
0.941672
0.936496
1.07243
1.0765
1.07388
1.0624
1.04163
1.017
0.993588
0.974183
0.959139
0.948
0.940084
0.934956
1.07428
1.07859
1.07585
1.06364
1.0418
1.01621
0.992209
0.972545
0.957434
0.946316
0.938452
0.933377
1.0762
1.08077
1.07788
1.06489
1.0419
1.01531
0.990721
0.970817
0.95566
0.944578
0.936775
0.93176
1.0782
1.08304
1.07998
1.06613
1.04191
1.01428
0.989118
0.968996
0.953814
0.942784
0.935052
0.930102
1.08029
1.08542
1.08216
1.06735
1.04182
1.01312
0.987392
0.967079
0.951894
0.940933
0.933284
0.928404
1.08246
1.08791
1.0844
1.06855
1.04162
1.01182
0.985535
0.96506
0.949898
0.939023
0.931468
0.926665
1.08473
1.09051
1.08673
1.06971
1.04128
1.01036
0.983542
0.962938
0.947825
0.937056
0.929606
0.924885
1.0871
1.09325
1.08912
1.07082
1.0408
1.00873
0.981404
0.960708
0.945674
0.935028
0.927696
0.923063
1.08957
1.09611
1.09158
1.07187
1.04015
1.00691
0.979116
0.958368
0.943443
0.932942
0.925737
0.921197
1.09217
1.09912
1.09411
1.07283
1.03932
1.00489
0.976668
0.955915
0.941131
0.930794
0.923731
0.919289
1.09489
1.10229
1.0967
1.0737
1.03827
1.00265
0.974055
0.953346
0.938737
0.928586
0.921676
0.917337
1.09774
1.10561
1.09935
1.07444
1.03699
1.00019
0.971269
0.95066
0.936261
0.926317
0.919572
0.915342
1.10074
1.10911
1.10204
1.07502
1.03544
0.997472
0.968307
0.947855
0.933703
0.923989
0.917419
0.913304
1.1039
1.1128
1.10477
1.07542
1.0336
0.994494
0.965162
0.94493
0.931062
0.921599
0.915218
0.911222
1.10723
1.11667
1.10751
1.0756
1.03144
0.991238
0.96183
0.941885
0.92834
0.919151
0.912969
0.909096
1.11075
1.12076
1.11025
1.07552
1.02891
0.987688
0.958307
0.93872
0.925537
0.916644
0.910672
0.906925
1.11448
1.12505
1.11295
1.07512
1.02599
0.983829
0.954593
0.935436
0.922655
0.914079
0.908327
0.904711
1.11843
1.12956
1.11559
1.07436
1.02263
0.979649
0.950687
0.932037
0.919696
0.911458
0.905935
0.902452
1.12263
1.13431
1.11813
1.07318
1.0188
0.975137
0.946591
0.928524
0.916662
0.908783
0.903497
0.900149
1.12711
1.13928
1.1205
1.07151
1.01446
0.970285
0.942308
0.924903
0.913556
0.906055
0.901013
0.897802
1.13189
1.14448
1.12266
1.06928
1.00956
0.965088
0.937844
0.921177
0.910382
0.903278
0.898486
0.89541
1.137
1.14991
1.12453
1.0664
1.00408
0.959547
0.933209
0.917354
0.907144
0.900452
0.895914
0.892974
1.14249
1.15554
1.12603
1.0628
0.997982
0.953664
0.928412
0.91344
0.903846
0.897582
0.8933
0.890494
1.1484
1.16136
1.12704
1.05837
0.991227
0.947452
0.923469
0.909444
0.900494
0.89467
0.890646
0.887971
1.15477
1.16732
1.12746
1.05303
0.983798
0.940928
0.918395
0.905376
0.897094
0.89172
0.887951
0.885403
1.16166
1.17338
1.12713
1.04666
0.975681
0.934116
0.913211
0.901245
0.893651
0.888735
0.885217
0.882793
1.16913
1.17945
1.1259
1.03916
0.966876
0.927051
0.907938
0.897063
0.890173
0.885719
0.882446
0.880139
1.17722
1.18544
1.12358
1.03044
0.957397
0.919773
0.9026
0.892841
0.886668
0.882676
0.879638
0.877443
1.18603
1.19122
1.11996
1.02041
0.947279
0.912335
0.897223
0.888592
0.883141
0.87961
0.876795
0.874706
1.1956
1.1966
1.11482
1.00899
0.936578
0.904796
0.891834
0.884328
0.879602
0.876524
0.873919
0.871929
1.20601
1.20137
1.10789
0.996127
0.925378
0.897221
0.88646
0.880063
0.876058
0.873422
0.87101
0.869114
1.21733
1.20525
1.09891
0.981803
0.91379
0.889684
0.881127
0.875809
0.872516
0.870308
0.868071
0.866262
1.2296
1.20788
1.0876
0.966045
0.901958
0.882259
0.875861
0.871579
0.868985
0.867186
0.865103
0.863377
1.24286
1.20883
1.07366
0.948946
0.89005
0.87502
0.870683
0.867384
0.865472
0.86406
0.862116
0.860463
1.25708
1.20755
1.05682
0.930675
0.878266
0.868036
0.865614
0.863236
0.861981
0.860929
0.859104
0.857516
1.2722
1.2034
1.03685
0.9115
0.86681
0.861359
0.860663
0.85915
0.858538
0.857835
0.856125
0.854583
1.28806
1.19556
1.01359
0.89181
0.855918
0.855046
0.855829
0.855085
0.855064
0.854657
0.853046
0.851552
1.30432
1.18307
0.987046
0.872068
0.845735
0.849108
0.851207
0.851249
0.851864
0.851774
0.850221
0.848653
1.32049
1.16479
0.957537
0.853055
0.836548
0.84336
0.846284
0.846912
0.848067
0.848369
0.846973
0.845421
1.33557
1.1393
0.925512
0.835023
0.82881
0.839021
0.842847
0.844095
0.845648
0.84605
0.844482
0.842613
1.34842
1.10574
0.894039
0.818295
0.819606
0.831724
0.836374
0.838758
0.84146
0.842586
0.841227
0.839193
1.35542
1.05976
0.867344
0.811697
0.819464
0.831144
0.834539
0.836515
0.839339
0.840651
0.839306
0.837149
1.35803
0.987434
0.816801
0.787082
0.808399
0.825663
0.831532
0.834905
0.838539
0.840269
0.839155
0.837117
0.996866
0.996753
0.997196
0.997744
0.997989
0.997836
0.997481
0.997182
0.997067
0.997109
0.997209
0.997292
0.997151
0.997016
0.997339
0.997755
0.997934
0.997791
0.997476
0.997205
0.997093
0.997125
0.997216
0.997297
0.997516
0.997315
0.997456
0.997698
0.997811
0.997708
0.997469
0.997244
0.997136
0.997149
0.997224
0.997302
0.9978
0.997507
0.997481
0.997597
0.997689
0.997649
0.997488
0.997303
0.99719
0.997178
0.997234
0.997305
0.997942
0.997587
0.997473
0.997535
0.997633
0.997641
0.997529
0.997363
0.997239
0.997204
0.997241
0.997304
0.997991
0.99763
0.997493
0.997535
0.997627
0.997647
0.997552
0.997395
0.997265
0.997216
0.99724
0.997297
0.998022
0.997687
0.997548
0.997565
0.99763
0.997638
0.99755
0.997407
0.997283
0.997229
0.997245
0.997294
0.998069
0.997758
0.99761
0.997594
0.997626
0.997621
0.997542
0.997417
0.997303
0.997247
0.997252
0.997293
0.998121
0.997823
0.99766
0.997614
0.997619
0.997605
0.997536
0.997426
0.99732
0.99726
0.997255
0.997288
0.998163
0.997871
0.997696
0.997629
0.997615
0.997595
0.997531
0.99743
0.99733
0.997268
0.997257
0.997284
0.998187
0.997904
0.997725
0.997644
0.997615
0.997586
0.997523
0.997428
0.997334
0.997273
0.997258
0.997281
0.9982
0.997928
0.997749
0.997657
0.997614
0.997576
0.997512
0.997424
0.997336
0.997277
0.997259
0.997276
0.998207
0.997948
0.997768
0.997667
0.997611
0.997564
0.9975
0.997417
0.997335
0.997278
0.997256
0.997266
0.998212
0.997962
0.997782
0.997672
0.997606
0.997552
0.997488
0.99741
0.997332
0.997275
0.997249
0.997253
0.998213
0.99797
0.99779
0.997673
0.997599
0.997541
0.997476
0.9974
0.997324
0.997267
0.997237
0.997236
0.998209
0.997973
0.997792
0.997671
0.997592
0.997529
0.997462
0.997387
0.997312
0.997254
0.997222
0.997217
0.9982
0.997971
0.997792
0.997667
0.997583
0.997515
0.997446
0.99737
0.997295
0.997238
0.997204
0.997197
0.998189
0.997966
0.997788
0.997661
0.997571
0.997498
0.997426
0.997349
0.997276
0.997219
0.997185
0.997177
0.998175
0.997959
0.997782
0.997652
0.997556
0.997479
0.997404
0.997326
0.997254
0.997198
0.997165
0.997157
0.998161
0.997949
0.997772
0.997638
0.997538
0.997456
0.997379
0.997302
0.997231
0.997176
0.997144
0.997136
0.998145
0.997935
0.997758
0.997621
0.997517
0.997432
0.997353
0.997276
0.997206
0.997153
0.997122
0.997114
0.998125
0.997919
0.997741
0.997601
0.997494
0.997406
0.997326
0.99725
0.997182
0.99713
0.9971
0.997091
0.998102
0.997898
0.99772
0.997578
0.997469
0.997379
0.997299
0.997223
0.997156
0.997106
0.997076
0.997067
0.998076
0.997874
0.997696
0.997553
0.997443
0.997353
0.997272
0.997196
0.997131
0.99708
0.99705
0.997041
0.998047
0.997848
0.997671
0.997527
0.997416
0.997325
0.997244
0.997169
0.997103
0.997053
0.997023
0.997012
0.998017
0.99782
0.997644
0.997501
0.997389
0.997297
0.997216
0.997141
0.997075
0.997025
0.996994
0.996982
0.997984
0.997791
0.997616
0.997473
0.997361
0.997268
0.997187
0.997111
0.997045
0.996994
0.996962
0.996951
0.997951
0.997762
0.997588
0.997445
0.997332
0.997239
0.997156
0.99708
0.997013
0.996962
0.99693
0.996918
0.997918
0.997731
0.997559
0.997416
0.997301
0.997207
0.997124
0.997046
0.996979
0.996928
0.996895
0.996883
0.997884
0.9977
0.997529
0.997385
0.997269
0.997174
0.997089
0.997012
0.996944
0.996892
0.996859
0.996847
0.997849
0.997668
0.997498
0.997353
0.997235
0.997139
0.997053
0.996975
0.996907
0.996855
0.996822
0.99681
0.997815
0.997636
0.997465
0.997319
0.997199
0.997101
0.997015
0.996937
0.996868
0.996817
0.996783
0.996771
0.997779
0.997602
0.997431
0.997283
0.997161
0.997062
0.996975
0.996896
0.996828
0.996776
0.996743
0.996731
0.997743
0.997567
0.997395
0.997245
0.997121
0.997021
0.996933
0.996855
0.996786
0.996735
0.996701
0.996689
0.997705
0.99753
0.997357
0.997204
0.997078
0.996977
0.996889
0.996811
0.996743
0.996691
0.996658
0.996646
0.997667
0.997492
0.997317
0.997162
0.997035
0.996932
0.996844
0.996765
0.996697
0.996646
0.996613
0.996602
0.997628
0.997452
0.997276
0.997118
0.996989
0.996885
0.996796
0.996718
0.99665
0.996599
0.996567
0.996557
0.997589
0.997412
0.997233
0.997073
0.996941
0.996836
0.996747
0.996669
0.996601
0.996551
0.996519
0.996511
0.997549
0.99737
0.997189
0.997026
0.996892
0.996786
0.996697
0.996618
0.996551
0.996501
0.996471
0.996463
0.997508
0.997327
0.997143
0.996977
0.996841
0.996734
0.996644
0.996566
0.9965
0.99645
0.996421
0.996415
0.997466
0.997283
0.997096
0.996927
0.996789
0.99668
0.996591
0.996512
0.996447
0.996398
0.99637
0.996365
0.997423
0.997238
0.997048
0.996875
0.996736
0.996626
0.996536
0.996458
0.996393
0.996345
0.996318
0.996314
0.997379
0.997191
0.996998
0.996823
0.996681
0.99657
0.99648
0.996402