/*--------------------------------*- C++ -*----------------------------------*\
  =========                 |
  \\      /  F ield         | OpenFOAM: The Open Source CFD Toolbox
   \\    /   O peration     | Website:  https://openfoam.org
    \\  /    A nd           | Version:  6.0
     \\/     M anipulation  |
\*---------------------------------------------------------------------------*/
FoamFile
{
    version     2.0;
    format      ascii;
    class       surfaceScalarField;
    location    "0.9";
    object      phi;
}
// * * * * * * * * * * * * * * * * * * * * * * * * * * * * * * * * * * * * * //

dimensions      [0 3 -1 0 0 0 0];

internalField   nonuniform List<scalar> 
47678
(
2.98131e-05
0.00388594
3.52114e-10
5.98484e-05
0.00381845
8.91147e-05
0.00368587
0.000116963
0.00349024
0.000142855
0.00323494
0.000166313
0.00292446
0.000186915
0.00256409
0.000204295
0.00216008
0.000218145
0.00171939
0.00022822
0.00124959
0.000234338
0.000759396
0.000259826
0.000236854
2.96243e-05
0.00385631
1.43667e-10
5.94695e-05
0.0037886
8.85502e-05
0.0036568
0.000116221
0.00346257
0.000141947
0.00320923
0.000165254
0.00290116
0.000185724
0.00254364
0.000202993
0.00214282
0.000216755
0.00170564
0.000226762
0.0012396
0.000232918
0.000753252
0.000257274
0.000235486
2.94362e-05
0.00382688
-6.59905e-11
5.90927e-05
0.00375895
8.79892e-05
0.0036279
0.000115484
0.00343508
0.000141045
0.00318367
0.000164203
0.00287801
0.000184542
0.0025233
0.000201701
0.00212567
0.000215376
0.00169196
0.000225317
0.00122965
0.00023145
0.000747118
0.000254747
0.000233966
2.92495e-05
0.00379763
-3.25233e-10
5.87184e-05
0.00372948
8.74318e-05
0.0035992
0.000114752
0.00340776
0.000140149
0.00315828
0.000163159
0.002855
0.000183368
0.0025031
0.000200417
0.00210862
0.000214006
0.00167838
0.000223883
0.00121978
0.000229969
0.000741042
0.000252317
0.000232412
2.90642e-05
0.00376857
-7.02016e-10
5.83466e-05
0.0037002
8.68779e-05
0.00357067
0.000114023
0.00338062
0.000139259
0.00313305
0.000162121
0.00283214
0.000182201
0.00248302
0.000199141
0.00209168
0.000212644
0.00166488
0.000222459
0.00120997
0.000228494
0.000735004
0.000249925
0.000230876
2.88802e-05
0.00373969
-1.14012e-09
5.79772e-05
0.00367111
8.63273e-05
0.00354232
0.0001133
0.00335365
0.000138374
0.00310798
0.00016109
0.00280943
0.000181041
0.00246308
0.000197873
0.00207486
0.000211291
0.00165147
0.000221046
0.00120022
0.000227033
0.000729025
0.000247601
0.000229369
2.86973e-05
0.00371099
-1.6587e-09
5.76101e-05
0.00364219
8.578e-05
0.00351415
0.00011258
0.00332685
0.000137494
0.00308307
0.000160065
0.00278686
0.000179889
0.00244325
0.000196614
0.00205813
0.000209947
0.00163814
0.000219642
0.00119052
0.000225587
0.000723077
0.000245296
0.000227884
2.85156e-05
0.00368248
-2.25241e-09
5.7245e-05
0.00361347
8.52358e-05
0.00348616
0.000111865
0.00330022
0.00013662
0.00305832
0.000159047
0.00276444
0.000178744
0.00242356
0.000195363
0.00204152
0.000208611
0.00162489
0.000218248
0.00118089
0.000224154
0.000717179
0.000243049
0.000226412
2.83351e-05
0.00365415
-2.91776e-09
5.68821e-05
0.00358492
8.46948e-05
0.00345835
0.000111154
0.00327376
0.000135751
0.00303372
0.000158035
0.00274215
0.000177607
0.00240399
0.00019412
0.002025
0.000207285
0.00161173
0.000216864
0.00117131
0.00022273
0.000711308
0.000240821
0.000224951
2.81556e-05
0.003626
-3.62152e-09
5.65213e-05
0.00355655
8.4157e-05
0.00343072
0.000110447
0.00324748
0.000134887
0.00300929
0.00015703
0.00272001
0.000176477
0.00238454
0.000192885
0.0020086
0.000205967
0.00159865
0.000215487
0.00116179
0.000221316
0.000705486
0.000238646
0.000223503
2.79772e-05
0.00359803
-4.32172e-09
5.61625e-05
0.00352837
8.36223e-05
0.00340326
0.000109745
0.00322135
0.00013403
0.002985
0.000156031
0.00269801
0.000175355
0.00236522
0.000191659
0.0019923
0.000204658
0.00158565
0.00021412
0.00115233
0.000219912
0.00069969
0.000236485
0.000222067
2.77998e-05
0.00357023
-4.95587e-09
5.58058e-05
0.00350036
8.30907e-05
0.00337598
0.000109047
0.0031954
0.000133177
0.00296088
0.000155038
0.00267615
0.000174239
0.00234602
0.00019044
0.0019761
0.000203357
0.00157274
0.000212761
0.00114293
0.000218516
0.000693943
0.000234368
0.000220643
2.76233e-05
0.00354261
-5.43033e-09
5.54512e-05
0.00347254
8.25623e-05
0.00334887
0.000108354
0.00316961
0.00013233
0.0029369
0.000154052
0.00265443
0.000173131
0.00232694
0.000189229
0.00196
0.000202065
0.0015599
0.000211411
0.00113358
0.000217129
0.00068822
0.000232261
0.000219231
2.74478e-05
0.00351517
-5.64617e-09
5.50986e-05
0.00344489
8.2037e-05
0.00332193
0.000107664
0.00314398
0.000131488
0.00291308
0.000153073
0.00263285
0.000172031
0.00230799
0.000188027
0.00194401
0.000200781
0.00154715
0.00021007
0.0011243
0.000215752
0.000682545
0.000230194
0.000217828
2.72732e-05
0.00348791
-5.50383e-09
5.47481e-05
0.00341741
8.1515e-05
0.00329516
0.000106979
0.00311852
0.000130652
0.00288941
0.000152099
0.0026114
0.000170937
0.00228915
0.000186832
0.00192811
0.000199505
0.00153448
0.000208737
0.00111506
0.000214383
0.000676894
0.000228133
0.000216436
2.70995e-05
0.00346081
-4.91617e-09
5.43996e-05
0.00339011
8.09961e-05
0.00326857
0.000106299
0.00309322
0.000129821
0.00286589
0.000151132
0.00259009
0.00016985
0.00227043
0.000185644
0.00191232
0.000198238
0.00152189
0.000207413
0.00110589
0.000213023
0.00067129
0.00022611
0.000215054
2.69268e-05
0.00343389
-3.84825e-09
5.40532e-05
0.00336299
8.04805e-05
0.00324214
0.000105622
0.00306807
0.000128995
0.00284251
0.000150171
0.00256891
0.00016877
0.00225183
0.000184465
0.00189662
0.000196979
0.00150937
0.000206097
0.00109677
0.000211672
0.000665711
0.00022409
0.000213682
2.6755e-05
0.00340714
-2.30274e-09
5.37089e-05
0.00333603
7.99681e-05
0.00321588
0.00010495
0.00304309
0.000128174
0.00281929
0.000149216
0.00254788
0.000167698
0.00223335
0.000183293
0.00188103
0.000195729
0.00149694
0.00020479
0.00108772
0.000210329
0.000660177
0.000222107
0.00021232
2.65841e-05
0.00338055
-3.37544e-10
5.33666e-05
0.00330925
7.94588e-05
0.00318979
0.000104282
0.00301827
0.000127359
0.00279621
0.000148267
0.00252697
0.000166632
0.00221499
0.000182129
0.00186553
0.000194486
0.00148458
0.000203491
0.00107871
0.000208996
0.000654668
0.000220122
0.000210967
2.64141e-05
0.00335414
1.9531e-09
5.30263e-05
0.00328264
7.89528e-05
0.00316387
0.000103618
0.00299361
0.000126549
0.00277329
0.000147325
0.00250619
0.000165573
0.00219674
0.000180972
0.00185014
0.000193251
0.0014723
0.0002022
0.00106976
0.00020767
0.000649204
0.000218177
0.000209623
2.62451e-05
0.00332789
4.45924e-09
5.26882e-05
0.0032562
7.84499e-05
0.0031381
0.000102959
0.00296909
0.000125744
0.0027505
0.000146388
0.00248555
0.000164521
0.00217861
0.000179822
0.00183483
0.000192025
0.0014601
0.000200918
0.00106087
0.000206353
0.000643763
0.000216226
0.000208288
2.6077e-05
0.0033018
7.07476e-09
5.2352e-05
0.00322992
7.79501e-05
0.00311251
0.000102304
0.00294474
0.000124944
0.00272786
0.000145457
0.00246504
0.000163475
0.00216059
0.00017868
0.00181963
0.000190806
0.00144798
0.000199643
0.00105203
0.000205044
0.000638368
0.000214316
0.000206962
2.59098e-05
0.00327588
9.71266e-09
5.20179e-05
0.00320381
7.74534e-05
0.00308707
0.000101653
0.00292054
0.000124149
0.00270536
0.000144533
0.00244465
0.000162437
0.00214269
0.000177546
0.00180452
0.000189595
0.00143593
0.000198377
0.00104325
0.000203744
0.000632996
0.000212398
0.000205646
2.57435e-05
0.00325013
1.23234e-08
5.16858e-05
0.00317787
7.69598e-05
0.0030618
0.000101005
0.0028965
0.00012336
0.00268301
0.000143614
0.0024244
0.000161405
0.0021249
0.000176418
0.00178951
0.000188392
0.00142396
0.000197119
0.00103453
0.000202452
0.00062767
0.000210521
0.000204338
2.55782e-05
0.00322454
1.48824e-08
5.13558e-05
0.00315209
7.64693e-05
0.00303668
0.000100362
0.0028726
0.000122575
0.0026608
0.000142701
0.00240427
0.00016038
0.00210722
0.000175298
0.00177459
0.000187196
0.00141206
0.000195869
0.00102585
0.000201168
0.000622365
0.000208636
0.000203039
2.54138e-05
0.00319911
1.73952e-08
5.10277e-05
0.00312648
7.59819e-05
0.00301173
9.97234e-05
0.00284886
0.000121795
0.00263873
0.000141794
0.00238428
0.000159361
0.00208965
0.000174185
0.00175977
0.000186008
0.00140024
0.000194627
0.00101724
0.000199892
0.000617105
0.000206791
0.000201749
2.52503e-05
0.00317384
1.98753e-08
5.07017e-05
0.00310103
7.54974e-05
0.00298693
9.90885e-05
0.00282527
0.000121021
0.00261679
0.000140893
0.0023644
0.000158348
0.0020722
0.00017308
0.00174503
0.000184828
0.00138849
0.000193392
0.00100867
0.000198625
0.000611867
0.000204936
0.000200467
2.50878e-05
0.00314873
2.23394e-08
5.03776e-05
0.00307574
7.5016e-05
0.0029623
9.84575e-05
0.00280183
0.000120251
0.002595
0.000139997
0.00234466
0.000157343
0.00205485
0.000171981
0.0017304
0.000183655
0.00137682
0.000192166
0.00100016
0.000197365
0.000606674
0.00020312
0.000199194
2.49263e-05
0.00312377
2.4792e-08
5.00555e-05
0.00305061
7.45376e-05
0.00293781
9.78305e-05
0.00277854
0.000119486
0.00257334
0.000139107
0.00232503
0.000156343
0.00203761
0.000170889
0.00171585
0.00018249
0.00136521
0.000190947
0.0009917
0.000196114
0.000601502
0.000201295
0.000197929
2.47657e-05
0.00309898
2.72269e-08
4.97354e-05
0.00302564
7.40621e-05
0.00291349
9.72075e-05
0.00275539
0.000118726
0.00255183
0.000138223
0.00230554
0.00015535
0.00202049
0.000169805
0.0017014
0.000181332
0.00135369
0.000189736
0.000983301
0.000194871
0.000596374
0.000199507
0.000196672
2.46061e-05
0.00307435
2.96197e-08
4.94173e-05
0.00300083
7.35897e-05
0.00288932
9.65884e-05
0.00273239
0.000117971
0.00253044
0.000137345
0.00228616
0.000154364
0.00200347
0.000168727
0.00168703
0.000180182
0.00134223
0.000188533
0.000974946
0.000193635
0.000591266
0.000197711
0.000195423
2.44474e-05
0.00304987
3.194e-08
4.91012e-05
0.00297618
7.31202e-05
0.0028653
9.59733e-05
0.00270954
0.00011722
0.0025092
0.000136472
0.00226691
0.000153384
0.00198656
0.000167656
0.00167276
0.000179039
0.00133085
0.000187338
0.000966652
0.000192407
0.000586203
0.00019595
0.000194182
2.42898e-05
0.00302554
3.41477e-08
4.8787e-05
0.00295168
7.26537e-05
0.00284143
9.5362e-05
0.00268683
0.000116475
0.00248808
0.000135605
0.00224778
0.00015241
0.00196975
0.000166592
0.00165858
0.000177904
0.00131953
0.00018615
0.000958402
0.000191187
0.000581159
0.00019418
0.000192949
2.41331e-05
0.00300137
3.62086e-08
4.84748e-05
0.00292734
7.21901e-05
0.00281772
9.47546e-05
0.00266427
0.000115734
0.00246711
0.000134743
0.00222877
0.000151442
0.00195306
0.000165535
0.00164449
0.000176775
0.0013083
0.000184969
0.000950212
0.000189975
0.00057616
0.000192444
0.000191724
2.39774e-05
0.00297736
3.80906e-08
4.81646e-05
0.00290315
7.17295e-05
0.00279415
9.41511e-05
0.00264184
0.000114998
0.00244626
0.000133887
0.00220988
0.00015048
0.00193646
0.000164485
0.00163048
0.000175654
0.00129713
0.000183797
0.000942065
0.00018877
0.000571179
0.000190699
0.000190507
2.38227e-05
0.0029535
3.97763e-08
4.78564e-05
0.00287912
7.12718e-05
0.00277074
9.35515e-05
0.00261957
0.000114266
0.00242555
0.000133036
0.00219111
0.000149525
0.00191997
0.000163441
0.00161657
0.00017454
0.00128603
0.000182631
0.000933979
0.000187573
0.000566243
0.000188987
0.000189298
2.36691e-05
0.00292979
4.12563e-08
4.75501e-05
0.00285524
7.0817e-05
0.00274747
9.29556e-05
0.00259743
0.000113539
0.00240496
0.000132191
0.00217246
0.000148576
0.00190359
0.000162404
0.00160274
0.000173433
0.001275
0.000181473
0.000925933
0.000186384
0.000561325
0.000187263
0.000188096
2.35164e-05
0.00290623
4.25366e-08
4.72459e-05
0.00283151
7.03652e-05
0.00272435
9.23637e-05
0.00257543
0.000112817
0.00238451
0.000131351
0.00215393
0.000147632
0.00188731
0.000161373
0.001589
0.000172333
0.00126404
0.000180322
0.000917949
0.000185202
0.000556451
0.000185573
0.000186902
2.33648e-05
0.00288282
4.36275e-08
4.69436e-05
0.00280793
6.99163e-05
0.00270138
9.17755e-05
0.00255357
0.0001121
0.00236418
0.000130516
0.00213551
0.000146695
0.00187113
0.000160349
0.00157534
0.00017124
0.00125315
0.000179179
0.000910004
0.000184028
0.000551594
0.000183871
0.000185716
2.32142e-05
0.00285956
4.45487e-08
4.66432e-05
0.0027845
6.94702e-05
0.00267855
9.11911e-05
0.00253185
0.000111387
0.00234399
0.000129687
0.00211721
0.000145764
0.00185505
0.000159332
0.00156178
0.000170154
0.00124233
0.000178043
0.00090212
0.000182861
0.000546782
0.000182202
0.000184537
2.30646e-05
0.00283645
4.53163e-08
4.63449e-05
0.00276122
6.90271e-05
0.00265587
9.06104e-05
0.00251026
0.000110679
0.00232392
0.000128863
0.00209902
0.000144838
0.00183908
0.000158321
0.00154829
0.000169074
0.00123157
0.000176914
0.000894275
0.000181701
0.000541986
0.00018052
0.000183366
2.29161e-05
0.00281349
4.59476e-08
4.60484e-05
0.00273809
6.85869e-05
0.00263333
9.00335e-05
0.00248882
0.000109975
0.00230398
0.000128045
0.00208095
0.000143919
0.0018232
0.000157316
0.0015349
0.000168002
0.00122089
0.000175792
0.000886489
0.000180549
0.000537235
0.000178872
0.000182202
2.27686e-05
0.00279067
4.64512e-08
4.5754e-05
0.0027151
6.81495e-05
0.00261093
8.94604e-05
0.0024675
0.000109275
0.00228416
0.000127231
0.00206299
0.000143005
0.00180743
0.000156318
0.00152158
0.000166936
0.00121027
0.000174678
0.000878742
0.000179404
0.000532499
0.00017721
0.000181046
2.26221e-05
0.002768
4.68347e-08
4.54615e-05
0.00269226
6.77149e-05
0.00258868
8.88909e-05
0.00244633
0.000108581
0.00226447
0.000126423
0.00204515
0.000142097
0.00179176
0.000155326
0.00150835
0.000165878
0.00119972
0.00017357
0.000871055
0.000178267
0.000527808
0.000175583
0.000179897
2.24766e-05
0.00274548
4.70999e-08
4.51709e-05
0.00266957
6.72832e-05
0.00256657
8.83251e-05
0.00242529
0.00010789
0.00224491
0.00012562
0.00202742
0.000141195
0.00177618
0.000154341
0.0014952
0.000164826
0.00118923
0.00017247
0.000863405
0.000177136
0.000523132
0.00017394
0.000178756
2.23321e-05
0.0027231
4.7253e-08
4.48822e-05
0.00264702
6.68543e-05
0.0025446
8.77629e-05
0.00240438
0.000107204
0.00222547
0.000124822
0.00200981
0.000140299
0.0017607
0.000153361
0.00148215
0.00016378
0.00117882
0.000171376
0.000855814
0.000176013
0.000518498
0.000172335
0.000177622
2.21886e-05
0.00270086
4.73027e-08
4.45954e-05
0.00262461
6.64282e-05
0.00252276
8.72044e-05
0.0023836
0.000106523
0.00220614
0.000124029
0.0019923
0.000139408
0.00174532
0.000152388
0.00146916
0.000162741
0.00116846
0.00017029
0.00084826
0.000174897
0.000513877
0.000170714
0.000176496
2.20462e-05
0.00267877
4.72703e-08
4.43106e-05
0.00260235
6.60049e-05
0.00250107
8.66495e-05
0.00236296
0.000105846
0.00218695
0.000123241
0.0019749
0.000138523
0.00173004
0.000151421
0.00145627
0.000161709
0.00115817
0.00016921
0.000840764
0.000173788
0.0005093
0.000169133
0.000175377
2.19047e-05
0.00265682
4.71847e-08
4.40276e-05
0.00258022
6.55843e-05
0.00247951
8.60981e-05
0.00234244
0.000105173
0.00216787
0.000122458
0.00195761
0.000137644
0.00171485
0.000150461
0.00144345
0.000160684
0.00114794
0.000168137
0.000833304
0.000172686
0.000504735
0.000167535
0.000174265
2.17642e-05
0.00263501
4.70888e-08
4.37465e-05
0.00255824
6.51664e-05
0.00245809
8.55503e-05
0.00232206
0.000104504
0.00214892
0.00012168
0.00194044
0.00013677
0.00169977
0.000149506
0.00143071
0.000159664
0.00113779
0.000167071
0.000825902
0.000171591
0.000500214
0.000165979
0.00017316
2.16247e-05
0.00261333
4.70292e-08
4.34672e-05
0.0025364
6.47512e-05
0.00243681
8.50059e-05
0.0023018
0.00010384
0.00213008
0.000120907
0.00192337
0.000135902
0.00168477
0.000148557
0.00141805
0.000158652
0.00112769
0.000166012
0.000818535
0.000170503
0.000495703
0.000164405
0.000172063
2.14862e-05
0.0025918
4.70576e-08
4.31898e-05
0.00251469
6.43388e-05
0.00241566
8.44651e-05
0.00228168
0.00010318
0.00211137
0.000120139
0.00190641
0.000135039
0.00166987
0.000147615
0.00140548
0.000157646
0.00111766
0.000164959
0.000811226
0.000169423
0.000491237
0.000162872
0.000170972
2.13486e-05
0.0025704
4.72169e-08
4.29142e-05
0.00249313
6.3929e-05
0.00239464
8.39277e-05
0.00226167
0.000102524
0.00209277
0.000119376
0.00188955
0.000134181
0.00165506
0.000146678
0.00139298
0.000156646
0.00110769
0.000163913
0.000803951
0.000168349
0.000486782
0.000161323
0.000169889
2.12119e-05
0.00254914
4.75431e-08
4.26404e-05
0.0024717
6.35218e-05
0.00237376
8.33938e-05
0.0022418
0.000101872
0.00207429
0.000118618
0.00187281
0.00013333
0.00164035
0.000145747
0.00138057
0.000155652
0.00109779
0.000162874
0.000796734
0.000167282
0.000482372
0.000159812
0.000168813
2.10762e-05
0.00252802
4.80529e-08
4.23684e-05
0.00245041
6.31172e-05
0.00235301
8.28633e-05
0.00222206
0.000101225
0.00205593
0.000117864
0.00185617
0.000132483
0.00162573
0.000144823
0.00136822
0.000154665
0.00108794
0.000161842
0.000789549
0.000166222
0.000477973
0.000158284
0.000167743
2.09414e-05
0.00250703
4.87499e-08
4.20982e-05
0.00242925
6.27153e-05
0.00233239
8.23361e-05
0.00220244
0.000100581
0.00203769
0.000117116
0.00183963
0.000131642
0.00161121
0.000143904
0.00135596
0.000153685
0.00107816
0.000160816
0.000782422
0.000165168
0.00047362
0.000156791
0.00016668
2.08075e-05
0.00248617
4.96179e-08
4.18298e-05
0.00240823
6.23159e-05
0.00231191
8.18123e-05
0.00218294
9.99419e-05
0.00201955
0.000116372
0.0018232
0.000130806
0.00159677
0.000142991
0.00134377
0.00015271
0.00106844
0.000159797
0.000775327
0.000164122
0.000469277
0.000155279
0.000165624
2.06745e-05
0.00246544
5.06327e-08
4.15631e-05
0.00238734
6.19191e-05
0.00229155
8.12919e-05
0.00216357
9.93066e-05
0.00200154
0.000115633
0.00180688
0.000129976
0.00158243
0.000142083
0.00133167
0.000151742
0.00105878
0.000158784
0.000768288
0.000163082
0.000464978
0.000153801
0.000164575
2.05423e-05
0.00244484
5.1759e-08
4.12981e-05
0.00236658
6.15248e-05
0.00227132
8.07747e-05
0.00214431
9.86753e-05
0.00198364
0.000114898
0.00179065
0.000129151
0.00156817
0.000141182
0.00131963
0.00015078
0.00104918
0.000157777
0.000761281
0.000162049
0.000460691
0.000152303
0.000163532
2.0411e-05
0.00242438
5.29644e-08
4.10348e-05
0.00234596
6.11331e-05
0.00225123
8.02608e-05
0.00212519
9.80481e-05
0.00196585
0.000114168
0.00177453
0.000128331
0.00155401
0.000140286
0.00130768
0.000149824
0.00103964
0.000156778
0.00075433
0.000161022
0.000456447
0.000150839
0.000162496
2.02806e-05
0.00240404
5.42162e-08
4.07732e-05
0.00232546
6.07438e-05
0.00223125
7.97502e-05
0.00210618
9.74248e-05
0.00194817
0.000113443
0.00175851
0.000127516
0.00153993
0.000139396
0.0012958
0.000148874
0.00103016
0.000155784
0.000747409
0.000160003
0.000452213
0.000149354
0.000161467
2.01509e-05
0.00238384
5.54921e-08
4.05133e-05
0.0023051
6.0357e-05
0.00221141
7.92429e-05
0.00208729
9.68054e-05
0.00193061
0.000112722
0.0017426
0.000126707
0.00152595
0.000138512
0.00128399
0.00014793
0.00102074
0.000154797
0.000740544
0.000158989
0.000448022
0.000147904
0.000160445
2.00221e-05
0.00236376
5.67737e-08
4.0255e-05
0.00228487
5.99727e-05
0.00219169
7.87387e-05
0.00206852
9.619e-05
0.00191316
0.000112006
0.00172677
0.000125903
0.00151205
0.000137633
0.00127226
0.000146992
0.00101138
0.000153817
0.00073371
0.000157982
0.000443842
0.000146431
0.000159429
1.98941e-05
0.0023438
5.80539e-08
3.99984e-05
0.00226477
5.95908e-05
0.0021721
7.82377e-05
0.00204988
9.55785e-05
0.00189582
0.000111295
0.00171106
0.000125103
0.00149824
0.000136761
0.0012606
0.000146061
0.00100208
0.000152842
0.00072693
0.000156982
0.000439702
0.000144997
0.00015842
1.9767e-05
0.00232397
5.9326e-08
3.97434e-05
0.00224479
5.92113e-05
0.00215263
7.774e-05
0.00203135
9.49709e-05
0.00187858
0.000110588
0.00169544
0.000124309
0.00148452
0.000135893
0.00124901
0.000145135
0.000992827
0.000151874
0.000720179
0.000155988
0.000435569
0.00014354
0.000157417
1.96406e-05
0.00230427
6.05901e-08
3.94901e-05
0.00222494
5.88342e-05
0.00213329
7.72453e-05
0.00201294
9.43671e-05
0.00186146
0.000109885
0.00167992
0.00012352
0.00147088
0.000135031
0.0012375
0.000144215
0.000983645
0.000150913
0.000713483
0.000155001
0.000431478
0.000142126
0.000156422
1.95149e-05
0.00228469
6.18414e-08
3.92383e-05
0.00220521
5.84595e-05
0.00211406
7.67538e-05
0.00199464
9.37672e-05
0.00184445
0.000109187
0.0016645
0.000122736
0.00145733
0.000134175
0.00122606
0.000143301
0.00097451
0.000149957
0.000706816
0.00015402
0.000427395
0.00014069
0.000155433
1.93901e-05
0.00226524
6.30767e-08
3.89881e-05
0.00218562
5.80871e-05
0.00209497
7.62654e-05
0.00197646
9.31711e-05
0.00182754
0.000108494
0.00164918
0.000121958
0.00144387
0.000133324
0.00121469
0.000142393
0.000965442
0.000149008
0.000700203
0.000153046
0.000423353
0.000139298
0.00015445
1.9266e-05
0.00224591
6.4286e-08
3.87394e-05
0.00216614
5.77172e-05
0.00207599
7.57801e-05
0.0019584
9.25788e-05
0.00181074
0.000107805
0.00163395
0.000121184
0.00143048
0.000132479
0.00120339
0.000141491
0.00095642
0.000148064
0.000693618
0.000152078
0.000419317
0.000137882
0.000153474
1.91427e-05
0.0022267
6.54601e-08
3.84923e-05
0.00214679
5.73495e-05
0.00205713
7.52979e-05
0.00194045
9.19902e-05
0.00179405
0.00010712
0.00161882
0.000120415
0.00141719
0.000131639
0.00119217
0.000140595
0.000947464
0.000147127
0.000687087
0.000151116
0.000415324
0.000136513
0.000152505
1.90201e-05
0.00220761
6.65845e-08
3.82468e-05
0.00212757
5.69842e-05
0.00203839
7.48188e-05
0.00192261
9.14054e-05
0.00177746
0.00010644
0.00160378
0.000119651
0.00140397
0.000130805
0.001181
0.000139705
0.000938554
0.000146196
0.000680583
0.00015016
0.000411336
0.000135121
0.000151542
1.88982e-05
0.00218864
6.76488e-08
3.80028e-05
0.00210846
5.66211e-05
0.00201977
7.43426e-05
0.00190489
9.08243e-05
0.00176098
0.000105764
0.00158884
0.000118892
0.00139084
0.000129976
0.00116992
0.00013882
0.00092971
0.000145271
0.000674133
0.000149211
0.000407393
0.000133772
0.000150585
1.87771e-05
0.00216979
6.86402e-08
3.77603e-05
0.00208948
5.62604e-05
0.00200127
7.38695e-05
0.00188728
9.0247e-05
0.0017446
0.000105092
0.00157399
0.000118138
0.00137779
0.000129152
0.0011589
0.000137941
0.000920911
0.000144352
0.00066771
0.000148268
0.000403456
0.000132398
0.000149635
1.86568e-05
0.00215107
6.95534e-08
3.75193e-05
0.00207062
5.59019e-05
0.00198289
7.33995e-05
0.00186978
8.96733e-05
0.00172833
0.000104425
0.00155924
0.000117388
0.00136483
0.000128334
0.00114795
0.000137068
0.000912177
0.000143439
0.00066134
0.000147332
0.000399562
0.000131067
0.00014869
1.85371e-05
0.00213246
7.03826e-08
3.72798e-05
0.00205187
5.55457e-05
0.00196462
7.29324e-05
0.00185239
8.91033e-05
0.00171215
0.000103762
0.00154458
0.000116644
0.00135194
0.000127521
0.00113707
0.0001362
0.000903486
0.000142532
0.000654996
0.000146401
0.000395674
0.000129709
0.000147752
1.84182e-05
0.00211397
7.11297e-08
3.70419e-05
0.00203325
5.51917e-05
0.00194647
7.24682e-05
0.00183512
8.85369e-05
0.00169608
0.000103103
0.00153001
0.000115904
0.00133914
0.000126713
0.00112626
0.000135339
0.000894861
0.000141631
0.000648705
0.000145476
0.00039183
0.000128393
0.000146821
1.83e-05
0.00209559
7.17952e-08
3.68053e-05
0.00201474
5.484e-05
0.00192844
7.2007e-05
0.00181795
8.79742e-05
0.00168011
0.000102449
0.00151553
0.000115169
0.00132641
0.00012591
0.00111551
0.000134482
0.000886278
0.000140736
0.000642439
0.000144558
0.000387991
0.000127049
0.000145895
1.81825e-05
0.00207734
7.23851e-08
3.65703e-05
0.00199636
5.44905e-05
0.00191052
7.15488e-05
0.00180089
8.74151e-05
0.00166425
0.000101798
0.00150115
0.000114439
0.00131377
0.000125113
0.00110484
0.000133632
0.000877759
0.000139846
0.000636226
0.000143646
0.000384195
0.000125747
0.000144975
1.80657e-05
0.0020592
7.29021e-08
3.63367e-05
0.00197808
5.41432e-05
0.00189271
7.10935e-05
0.00178394
8.68595e-05
0.00164848
0.000101152
0.00148685
0.000113713
0.00130121
0.000124321
0.00109422
0.000132786
0.000869283
0.000138963
0.000630038
0.000142739
0.000380404
0.000124416
0.000144061
1.79497e-05
0.00204117
7.3352e-08
3.61046e-05
0.00195993
5.37981e-05
0.00187502
7.06411e-05
0.0017671
8.63076e-05
0.00163281
0.00010051
0.00147265
0.000112993
0.00128872
0.000123534
0.00108368
0.000131947
0.00086087
0.000138085
0.000623901
0.000141839
0.000376655
0.000123128
0.000143154
1.78343e-05
0.00202326
7.37363e-08
3.58739e-05
0.00194189
5.34552e-05
0.00185743
7.01916e-05
0.00175036
8.57592e-05
0.00161724
9.98725e-05
0.00145853
0.000112277
0.00127631
0.000122752
0.00107319
0.000131113
0.000852499
0.000137213
0.000617789
0.000140944
0.00037291
0.00012181
0.000142252
1.77197e-05
0.00200547
7.40602e-08
3.56447e-05
0.00192397
5.31145e-05
0.00183997
6.97449e-05
0.00173373
8.52143e-05
0.00160177
9.92389e-05
0.0014445
0.000111565
0.00126398
0.000121975
0.00106278
0.000130284
0.000844191
0.000136346
0.000611729
0.000140055
0.000369207
0.000120537
0.000141356
1.76058e-05
0.00198779
7.43262e-08
3.54169e-05
0.00190615
5.27759e-05
0.00182261
6.93012e-05
0.0017172
8.46729e-05
0.00158639
9.86093e-05
0.00143056
0.000110859
0.00125173
0.000121203
0.00105243
0.000129461
0.000835923
0.000135486
0.000605692
0.000139172
0.000365508
0.000119232
0.000140466
1.74925e-05
0.00197022
7.45427e-08
3.51906e-05
0.00188846
5.24395e-05
0.00180536
6.88602e-05
0.00170078
8.4135e-05
0.00157112
9.79839e-05
0.00141671
0.000110156
0.00123955
0.000120437
0.00104215
0.000128643
0.000827717
0.000134631
0.000599707
0.000138295
0.000361851
0.000117973
0.000139582
1.738e-05
0.00195276
7.47185e-08
3.49656e-05
0.00187087
5.21052e-05
0.00178822
6.84221e-05
0.00168446
8.36006e-05
0.00155594
9.73625e-05
0.00140294
0.000109459
0.00122745
0.000119675
0.00103193
0.00012783
0.000819552
0.000133781
0.000593744
0.000137424
0.000358196
0.000116681
0.000138704
1.72682e-05
0.00193542
7.48705e-08
3.47421e-05
0.0018534
5.17731e-05
0.00177119
6.79869e-05
0.00166825
8.30697e-05
0.00154085
9.67451e-05
0.00138927
0.000108766
0.00121543
0.000118918
0.00102177
0.000127023
0.000811448
0.000132937
0.000587833
0.000136558
0.000354584
0.000115438
0.000137831
1.71571e-05
0.00191818
7.50166e-08
3.452e-05
0.00183603
5.14431e-05
0.00175426
6.75544e-05
0.00165213
8.25422e-05
0.00152586
9.61318e-05
0.00137567
0.000108077
0.00120348
0.000118167
0.00101167
0.000126221
0.000803384
0.000132099
0.000581943
0.000135699
0.000350973
0.000114159
0.000136965
1.70467e-05
0.00190106
7.51818e-08
3.42994e-05
0.00181878
5.11152e-05
0.00173745
6.71247e-05
0.00163612
8.20182e-05
0.00151097
9.55225e-05
0.00136217
0.000107393
0.00119161
0.00011742
0.00100165
0.000125424
0.00079538
0.000131266
0.000576105
0.000134844
0.000347405
0.00011293
0.000136104
1.6937e-05
0.00188404
7.53895e-08
3.40801e-05
0.00180164
5.07894e-05
0.00172074
6.66979e-05
0.00162021
8.14975e-05
0.00149616
9.49171e-05
0.00134874
0.000106714
0.0011798
0.000116678
0.000991675
0.000124633
0.000787416
0.000130439
0.000570288
0.000133996
0.000343838
0.000111665
0.000135248
1.6828e-05
0.00186714
7.56663e-08
3.38622e-05
0.0017846
5.04657e-05
0.00170413
6.62737e-05
0.0016044
8.09803e-05
0.00148146
9.43157e-05
0.00133541
0.000106039
0.00116808
0.000115941
0.000981773
0.000123847
0.000779511
0.000129617
0.000564521
0.000133153
0.000340313
0.00011045
0.000134399
1.67197e-05
0.00185034
7.60322e-08
3.36458e-05
0.00176768
5.01442e-05
0.00168763
6.58524e-05
0.00158869
8.04664e-05
0.00146684
9.37182e-05
0.00132215
0.000105368
0.00115642
0.000115209
0.000971925
0.000123066
0.000771645
0.000128801
0.000558775
0.000132315
0.000336788
0.000109198
0.000133554
1.66121e-05
0.00183365
7.65056e-08
3.34307e-05
0.00175086
4.98247e-05
0.00167124
6.54338e-05
0.00157308
7.99559e-05
0.00145232
9.31247e-05
0.00130898
0.000104702
0.00114484
0.000114481
0.000962145
0.00012229
0.000763838
0.00012799
0.000553079
0.000131483
0.000333306
0.000107997
0.000132716
1.65052e-05
0.00181707
7.70945e-08
3.32171e-05
0.00173415
4.95073e-05
0.00165495
6.50179e-05
0.00155757
7.94487e-05
0.00143788
9.2535e-05
0.00129589
0.00010404
0.00113333
0.000113759
0.000952419
0.000121519
0.000756069
0.000127184
0.000547403
0.000130657
0.000329823
0.000106758
0.000131883
1.6399e-05
0.00180059
7.78031e-08
3.30048e-05
0.00171754
4.91919e-05
0.00163876
6.46047e-05
0.00154216
7.89448e-05
0.00142354
9.19492e-05
0.00128288
0.000103382
0.0011219
0.000113041
0.000942761
0.000120753
0.000748358
0.000126384
0.000541777
0.000129836
0.000326382
0.00010557
0.000131055
1.62935e-05
0.00178422
7.86254e-08
3.27939e-05
0.00170104
4.88786e-05
0.00162268
6.41942e-05
0.00152684
7.84443e-05
0.00140929
9.13673e-05
0.00126995
0.000102729
0.00111053
0.000112328
0.000933155
0.000119993
0.000740684
0.000125589
0.000536171
0.000129021
0.000322941
0.000104344
0.000130233
1.61887e-05
0.00176795
7.95523e-08
3.25844e-05
0.00168465
4.85674e-05
0.00160669
6.37865e-05
0.00151162
7.7947e-05
0.00139513
9.07892e-05
0.00125711
0.00010208
0.00109924
0.000111619
0.000923616
0.000119237
0.000733069
0.000124799
0.000530614
0.000128211
0.000319542
0.00010317
0.000129417
1.60845e-05
0.00175178
8.05677e-08
3.23763e-05
0.00166835
4.82582e-05
0.00159081
6.33813e-05
0.00149649
7.7453e-05
0.00138105
9.02149e-05
0.00124434
0.000101436
0.00108801
0.000110916
0.000914129
0.000118486
0.00072549
0.000124015
0.000525076
0.000127406
0.000316141
0.000101956
0.000128606
1.59811e-05
0.00173572
8.16565e-08
3.21695e-05
0.00165217
4.7951e-05
0.00157503
6.29789e-05
0.00148147
7.69622e-05
0.00136707
8.96444e-05
0.00123166
0.000100795
0.00107686
0.000110217
0.000904709
0.000117741
0.000717968
0.000123235
0.000519586
0.000126606
0.000312783
0.000100795
0.0001278
1.58784e-05
0.00171975
8.27999e-08
3.19642e-05
0.00163608
4.76459e-05
0.00155935
6.25791e-05
0.00146653
7.64747e-05
0.00135317
8.90776e-05
0.00121905
0.000100159
0.00106577
0.000109522
0.000895339
0.000117
0.000710482
0.000122461
0.000514116
0.000125812
0.000309422
9.95929e-05
0.000126999
1.57763e-05
0.00170389
8.39833e-08
3.17602e-05
0.0016201
4.73427e-05
0.00154376
6.21819e-05
0.00145169
7.59904e-05
0.00133936
8.85146e-05
0.00120653
9.95275e-05
0.00105476
0.000108832
0.000886035
0.000116264
0.000703053
0.000121692
0.000508693
0.000125024
0.000306104
9.84446e-05
0.000126204
1.56749e-05
0.00168813
8.5191e-08
3.15575e-05
0.00160421
4.70416e-05
0.00152828
6.17874e-05
0.00143694
7.55093e-05
0.00132563
8.79553e-05
0.00119408
9.88998e-05
0.00104381
0.000108147
0.000876781
0.000115534
0.000695659
0.000120929
0.000503289
0.00012424
0.000302783
9.72544e-05
0.000125415
1.55742e-05
0.00167247
8.64121e-08
3.13562e-05
0.00158843
4.67424e-05
0.00151289
6.13954e-05
0.00142229
7.50313e-05
0.001312
8.73997e-05
0.00118171