1.275 	2.15223e-18 	-2.76991e-20 	-0.0324427 	-0.00047682 	-2.04428e-22
1.825 	2.15223e-18 	-1.39322e-20 	-0.00739316 	-0.00300661 	1.81155e-21
2.375 	2.15223e-18 	-2.66896e-23 	0.133165 	-0.00386258 	-7.46857e-22
